/*--------------------------------*- C++ -*----------------------------------*\
  =========                 |
  \\      /  F ield         | OpenFOAM: The Open Source CFD Toolbox
   \\    /   O peration     | Website:  https://openfoam.org
    \\  /    A nd           | Version:  7
     \\/     M anipulation  |
\*---------------------------------------------------------------------------*/
FoamFile
{
    version     2.0;
    format      ascii;
    class       volScalarField;
    location    "3";
    object      p;
}
// * * * * * * * * * * * * * * * * * * * * * * * * * * * * * * * * * * * * * //

dimensions      [0 2 -2 0 0 0 0];

internalField   nonuniform List<scalar> 
2790
(
147.6
147.507
147.774
148.345
149.126
150.083
151.216
152.522
153.999
155.64
157.439
159.39
161.484
163.709
166.05
168.485
170.99
173.528
176.06
178.534
180.892
183.07
185
186.621
187.881
188.755
189.191
189.246
189.297
189.51
147.397
147.415
147.707
148.275
149.051
150.006
151.134
152.434
153.904
155.536
157.327
159.267
161.35
163.564
165.894
168.319
170.815
173.348
175.878
178.356
180.725
182.92
184.874
186.523
187.807
188.681
189.078
189.133
189.265
189.55
147.198
147.286
147.597
148.155
148.918
149.86
150.973
152.255
153.703
155.311
157.074
158.983
161.031
163.207
165.495
167.877
170.329
172.82
175.311
177.759
180.108
182.301
184.273
185.963
187.314
188.29
188.883
189.238
189.553
189.852
146.973
147.092
147.416
147.965
148.714
149.639
150.732
151.99
153.41
154.984
156.708
158.573
160.572
162.693
164.921
167.239
169.623
172.046
174.473
176.864
179.171
181.342
183.324
185.064
186.518
187.67
188.538
189.209
189.762
190.281
146.712
146.845
147.177
147.719
148.451
149.355
150.423
151.65
153.032
154.563
156.238
158.047
159.983
162.034
164.185
166.421
168.719
171.054
173.395
175.708
177.954
180.089
182.071
183.861
185.431
186.774
187.904
188.867
189.678
190.425
146.412
146.55
146.884
147.416
148.128
149.007
150.043
151.232
152.569
154.049
155.664
157.407
159.268
161.236
163.297
165.435
167.63
169.859
172.096
174.311
176.474
178.551
180.513
182.334
183.997
185.498
186.844
188.05
189.07
189.988
146.069
146.208
146.54
147.058
147.748
148.596
149.595
150.74
152.026
153.447
154.994
156.66
158.435
160.307
162.265
164.29
166.366
168.472
170.585
172.681
174.736
176.727
178.634
180.444
182.15
183.751
185.244
186.623
187.788
188.835
145.684
145.821
146.146
146.648
147.312
148.126
149.083
150.179
151.407
152.76
154.23
155.81
157.489
159.255
161.095
162.994
164.935
166.899
168.867
170.819
172.736
174.603
176.41
178.152
179.831
181.449
183.004
184.476
185.726
186.877
145.258
145.391
145.705
146.188
146.823
147.599
148.51
149.551
150.714
151.993
153.38
154.864
156.437
158.085
159.796
161.554
163.344
165.147
166.947
168.725
170.469
172.167
173.814
175.414
176.976
178.511
180.019
181.489
182.76
183.999
144.791
144.919
145.22
145.681
146.283
147.018
147.879
148.86
149.954
151.153
152.448
153.829
155.286
156.807
158.376
159.98
161.602
163.224
164.83
166.404
167.932
169.406
170.824
172.192
173.524
174.843
176.163
177.5
178.7
180.005
144.286
144.408
144.693
145.129
145.697
146.387
147.194
148.111
149.131
150.244
151.441
152.712
154.046
155.429
156.846
158.283
159.72
161.141
162.528
163.863
165.13
166.32
167.427
168.455
169.418
170.347
171.276
172.275
173.237
174.555
143.744
143.858
144.126
144.535
145.066
145.71
146.46
147.309
148.249
149.272
150.366
151.521
152.724
153.961
155.217
156.474
157.712
158.913
160.055
161.118
162.079
162.921
163.629
164.195
164.621
164.93
165.172
165.479
165.86
167.033
143.167
143.273
143.523
143.903
144.395
144.989
145.679
146.458
147.316
148.244
149.23
150.264
151.331
152.415
153.501
154.567
155.595
156.559
157.434
158.193
158.806
159.241
159.463
159.437
159.134
158.535
157.659
156.665
155.715
156.219
142.557
142.656
142.886
143.235
143.687
144.23
144.858
145.563
146.336
147.166
148.041
148.95
149.875
150.802
151.711
152.581
153.386
154.1
154.692
155.124
155.354
155.332
154.993
154.261
153.037
151.207
148.643
145.338
141.386
139.346
141.918
142.008
142.218
142.536
142.945
143.435
143.999
144.629
145.314
146.044
146.807
147.587
148.369
149.134
149.863
150.53
151.108
151.564
151.861
151.952
151.779
151.269
150.324
148.81
146.531
143.198
138.353
131.332
120.861
108.622
2.29784
2.26787
2.16759
2.02725
1.87583
1.72675
1.58443
1.44998
1.32341
1.20415
1.09146
0.984823
0.884048
0.789137
0.700079
0.617123
0.541711
0.477139
0.427009
0.39162
0.368402
0.351472
0.338258
0.326094
0.309965
0.285
0.24846
0.198441
0.13398
0.0569487
2.22244
2.188
2.09435
1.9654
1.82539
1.68604
1.55169
1.42373
1.30231
1.18699
1.07725
0.972785
0.873684
0.780094
0.691883
0.608959
0.532706
0.467258
0.417769
0.385917
0.365812
0.350852
0.339126
0.328675
0.314368
0.290656
0.253953
0.20297
0.136268
0.054277
2.14529
2.10455
2.01494
1.896
1.76745
1.63838
1.51276
1.39206
1.27652
1.16579
1.05948
0.957577
0.860488
0.768642
0.681808
0.599358
0.522527
0.456717
0.408576
0.378328
0.357596
0.343715
0.336368
0.329812
0.317978
0.295074
0.25955
0.209536
0.14254
0.0545221
2.07814
2.03113
1.94382
1.83249
1.71357
1.59347
1.47569
1.36168
1.25167
1.14533
1.04238
0.942952
0.847819
0.757816
0.672817
0.591353
0.513063
0.44373
0.396493
0.374459
0.361849
0.348922
0.339812
0.33445
0.323349
0.298706
0.259609
0.207584
0.139951
0.0525738
2.04286
1.98966
1.90455
1.79787
1.68493
1.57025
1.45721
1.34723
1.24056
1.13693
1.03609
0.938216
0.844173
0.755033
0.671234
0.592516
0.518972
0.454952
0.403802
0.371873
0.357783
0.349213
0.342723
0.337677
0.326003
0.300998
0.261554
0.208102
0.137824
0.0497199
2.05647
1.99505
1.91091
1.80382
1.69086
1.57597
1.46274
1.35268
1.24614
1.1429
1.04269
0.945606
0.85222
0.763285
0.679309
0.600798
0.529001
0.467241
0.419472
0.387406
0.367762
0.355269
0.346675
0.338582
0.323813
0.296329
0.254773
0.199908
0.129632
0.0444671
2.12639
2.05554
1.96386
1.84976
1.72904
1.60746
1.48863
1.37405
1.26404
1.15836
1.05676
0.959223
0.866107
0.777817
0.694595
0.616813
0.545451
0.483458
0.434856
0.400695
0.377564
0.361387
0.34896
0.336386
0.317708
0.287785
0.244652
0.188397
0.118488
0.039387
2.24865
2.16094
2.05087
1.92041
1.78471
1.65056
1.52167
1.39952
1.28416
1.17498
1.07138
0.973024
0.879929
0.792194
0.709784
0.632894
0.562729
0.501624
0.452145
0.414924
0.387642
0.366942
0.34959
0.331745
0.308532
0.275625
0.230648
0.173248
0.104938
0.0341882
2.39537
2.28066
2.14228
1.9888
1.83535
1.68789
1.54879
1.4189
1.29834
1.18611
1.08111
0.98257
0.890071
0.803404
0.722437
0.647213
0.578555
0.518246
0.468014
0.428145
0.396908
0.371502
0.348856
0.325522
0.297615
0.261492
0.214466
0.156013
0.0902392
0.0288674
2.52189
2.37405
2.21221
2.0365
1.86467
1.70443
1.55793
1.42431
1.30191
1.18913
1.08446
0.986925
0.896019
0.811367
0.732528
0.659255
0.59207
0.532331
0.481369
0.439315
0.404656
0.374828
0.346967
0.318173
0.285528
0.246051
0.196893
0.137595
0.0750425
0.0234885
2.61197
2.43093
2.2415
2.04843
1.86532
1.69781
1.54718
1.41226
1.29074
1.18007
1.07796
0.983138
0.895243
0.813941
0.738401
0.66782
0.602329
0.543145
0.491628
0.447963
0.410624
0.376973
0.34425
0.310157
0.272778
0.229871
0.178581
0.118535
0.0595929
0.018088
2.63071
2.41788
2.20261
1.996
1.81095
1.64787
1.50378
1.37559
1.26093
1.15692
1.06053
0.970412
0.887016
0.810537
0.739668
0.672645
0.609076
0.55039
0.4985
0.453895
0.41482
0.378167
0.341056
0.301801
0.259611
0.213158
0.15974
0.0993299
0.0441666
0.0126918
2.49509
2.24197
2.03443
1.84994
1.68894
1.54917
1.42523
1.3129
1.21176
1.11973
1.03257
0.948887
0.871127
0.801023
0.736551
0.674141
0.612591
0.554071
0.501836
0.457055
0.417443
0.378817
0.337821
0.293388
0.246106
0.195901
0.140494
0.0801268
0.0288738
0.00732059
2.09406
1.81333
1.69007
1.59438
1.49394
1.40195
1.31507
1.22739
1.1453
1.07082
0.996494
0.919898
0.847796
0.785565
0.729874
0.673466
0.613704
0.554417
0.501501
0.457423
0.418869
0.37957
0.335131
0.285209
0.23221
0.17786
0.120661
0.0609145
0.013943
0.00204841
1.26018
0.964785
1.10389
1.23903
1.23709
1.21806
1.18724
1.12727
1.06385
1.01313
0.956599
0.886024
0.817325
0.764208
0.72101
0.67261
0.613685
0.551587
0.497016
0.454733
0.419525
0.381271
0.333698
0.277507
0.217661
0.158485
0.0998216
0.0416975
-0.000476732
-0.00308019
141.239
141.32
141.508
141.793
142.158
142.593
143.091
143.643
144.239
144.866
145.511
146.159
146.793
147.393
147.937
148.396
148.74
148.932
148.927
148.667
148.081
147.073
145.51
143.197
139.835
134.929
127.557
115.8
93.6201
33.7329
140.511
140.583
140.749
140.999
141.318
141.696
142.125
142.596
143.099
143.619
144.144
144.656
145.138
145.569
145.922
146.17
146.276
146.201
145.891
145.282
144.29
142.801
140.657
137.625
133.35
127.245
118.279
104.717
85.1987
56.7771
139.742
139.803
139.946
140.16
140.431
140.751
141.109
141.498
141.904
142.316
142.718
143.093
143.422
143.681
143.844
143.88
143.751
143.413
142.808
141.866
140.497
138.579
135.949
132.375
127.534
120.971
112.097
100.278
86.0725
69.518
138.931
138.982
139.101
139.278
139.501
139.76
140.047
140.352
140.661
140.963
141.242
141.479
141.654
141.744
141.72
141.549
141.192
140.602
139.721
138.477
136.778
134.507
131.512
127.597
122.515
115.976
107.684
97.3096
84.7943
69.7037
138.081
138.122
138.216
138.356
138.53
138.728
138.943
139.162
139.375
139.568
139.723
139.824
139.848
139.772
139.566
139.198
138.626
137.804
136.673
135.165
133.193
130.65
127.409
123.312
118.181
111.817
104.02
94.5502
83.2402
70.2986
137.194
137.224
137.294
137.396
137.52
137.658
137.8
137.935
138.052
138.136
138.171
138.138
138.016
137.781
137.402
136.848
136.078
135.046
133.699
131.97
129.783
127.048
123.659
119.497
114.434
108.333
101.075
92.5609
82.7816
72.151
136.273
136.293
136.338
136.402
136.477
136.554
136.624
136.676
136.698
136.676
136.594
136.433
136.171
135.784
135.244
134.519
133.571
132.357
130.826
128.922
126.577
123.719
120.264
116.127
111.221
105.466
98.8101
91.2414
82.8043
73.8342
135.32
135.33
135.35
135.377
135.404
135.421
135.42
135.391
135.321
135.197
135.002
134.718
134.324
133.797
133.11
132.231
131.127
129.757
128.079
126.041
123.59
120.668
117.215
113.17
108.48
103.108
97.037
90.2897
82.9155
75.1859
134.34
134.34
134.336
134.327
134.305
134.264
134.194
134.086
133.928
133.706
133.404
133.005
132.489
131.833
131.013
130
128.762
127.265
125.472
123.34
120.828
117.892
114.488
110.58
106.138
101.147
95.6151
89.5749
83.0803
76.3585
133.337
133.326
133.299
133.254
133.186
133.088
132.953
132.77
132.527
132.212
131.811
131.305
130.677
129.906
128.968
127.839
126.49
124.893
123.016
120.825
118.289
115.376
112.058
108.314
104.13
99.5069
94.4637
89.0392
83.2862
77.3893
132.315
132.294
132.245
132.165
132.052
131.901
131.702
131.448
131.126
130.725
130.231
129.628
128.899
128.025
126.986
125.76
124.323
122.65
120.716
118.496
115.966
113.105
109.896
106.329
102.402
98.1251
93.5219
88.6315
83.5017
78.2806
131.279
131.249
131.178
131.065
130.91
130.707
130.449
130.128
129.732
129.252
128.673
127.983
127.165
126.202
125.078
123.772
122.266
120.54
118.573
116.347
113.847
111.058
107.972
104.588
100.909
96.9519
92.7406
88.3115
83.7065
79.0446
130.234
130.195
130.104
129.96
129.765
129.514
129.201
128.817
128.354
127.801
127.147
126.379
125.483
124.445
123.25
121.882
120.326
118.565
116.585
114.373
111.919
109.216
106.261
103.057
99.6133
95.9471
92.0825
88.0521
83.8914
79.6966
129.186
129.139
129.028
128.856
128.623
128.328
127.964
127.523
126.999
126.381
125.659
124.823
123.862
122.761
121.51
120.095
118.504
116.725
114.748
112.565
110.17
107.56
104.737
101.707
98.4821
95.0789
91.5203
87.8345
84.0519
80.25
128.141
128.087
127.958
127.759
127.492
127.156
126.745
126.253
125.673
124.998
124.218
123.324
122.307
121.156
119.861
118.412
116.8
115.017
113.056
110.913
108.584
106.071
103.378
100.514
97.4896
94.3226
91.0333
87.646
84.1861
80.7169
127.107
127.045
126.9
126.676
126.378
126.004
125.551
125.014
124.385
123.66
122.829
121.887
120.824
119.633
118.306
116.835
115.215
113.438
111.503
109.406
107.149
104.733
102.166
99.4553
96.6145
93.6586
90.6059
87.4774
84.2942
81.1081
126.088
126.02
125.86
125.614
125.287
124.881
124.39
123.812
123.142
122.373
121.5
120.517
119.418
118.197
116.848
115.365
113.745
111.984
110.081
108.036
105.851
103.531
101.082
98.5144
95.8395
93.0716
90.2267
87.3227
84.3775
81.4335
125.093
125.019
124.846
124.579
124.228
123.791
123.269
122.655
121.948
121.143
120.235
119.22
118.093
116.85
115.487
114.001
112.389
110.649
108.783
106.792
104.68
102.451
100.113
97.6764
95.1509
92.5499
89.8872
87.1783
84.4381
81.7016
124.128
124.049
123.864
123.58
123.206
122.744
122.193
121.549
120.811
119.976
119.04
118
116.852
115.595
114.225
112.741
111.143
109.43
107.603
105.667
103.624
101.482
99.2476
96.9293
94.5377
92.0843
89.5812
87.0417
84.4784
81.9204
123.201
123.118
122.922
122.623
122.229
121.745
121.169
120.501
119.737
118.877
117.919
116.859
115.698
114.432
113.062
111.586
110.005
108.32
106.535
104.652
102.677
100.615
98.4747
96.2636
93.9913
91.6679
89.3044
86.9119
84.5014
82.097
122.32
122.232
122.028
121.715
121.304
120.801
120.205
119.515
118.731
117.852
116.876
115.803
114.632
113.364
111.996
110.532
108.971
107.317
105.572
103.741
101.829
99.8418
97.7867
95.6715
93.5048
91.2958
89.0539
86.7888
84.51
82.2375
121.491
121.401
121.188
120.863
120.439
119.92
119.307
118.6
117.799
116.904
115.916
114.834
113.659
112.39
111.03
109.579
108.041
106.417
104.711
102.929
101.075
99.1556
97.1771
95.1472
93.0735
90.9643
88.8279
86.6728
84.5073
82.3481
120.724
120.63
120.411
120.077
119.64
119.108
118.481
117.76
116.946
116.04
115.043
113.955
112.778
111.513
110.162
108.727
107.21
105.616
103.948
102.211
100.41
98.5511
96.6408
94.6859
92.6934
90.6707
88.6254
86.5648
84.4962
82.4337
120.027
119.93
119.705
119.362
118.915
118.372
117.734
117.002
116.178
115.264
114.261
113.171
111.995
110.735
109.394
107.975
106.48
104.914
103.28
101.584
99.8304
98.0254
96.1748
94.2851
92.3628
90.4145
88.447
86.4669
84.4807
82.5001
119.407
119.308
119.077
118.727
118.271
117.719
117.072
116.332
115.5
114.58
113.574
112.483
111.309
110.056
108.726
107.322
105.848
104.307
102.704
101.045
99.3328
97.5745
95.7754
93.9415
92.0788
90.1935
88.2916
86.3791
84.4618
82.5496
118.875
118.773
118.537
118.179
117.716
117.157
116.503
115.756
114.92
113.996
112.988
111.897
110.728
109.481
108.162
106.772
105.316
103.798
102.223
100.595
98.9185
97.1998
95.4442
93.657
91.8442
90.0111
88.1636
86.3071
84.4468
82.5912
118.44
118.335
118.091
117.725
117.256
116.69
116.03
115.279
114.439
113.513
112.504
111.415
110.249
109.01
107.7
106.323
104.883
103.384
101.832
100.229
98.5826
96.8963
95.1759
93.4265
91.6535
89.8623
88.058
86.2457
84.4303
82.6186
118.114
118.003
117.75
117.377
116.903
116.333
115.669
114.914
114.071
113.144
112.135
111.048
109.886
108.652
107.35
105.984
104.557
103.074
101.54
99.9583
98.3346
96.6738
94.9808
93.2608
91.5189
89.7601
87.9894
86.2116
84.4313
82.6548
117.912
117.777
117.507
117.128
116.652
116.079
115.413
114.656
113.812
112.885
111.877
110.792
109.633
108.404
107.108
105.75
104.332
102.86
101.338
99.7709
98.1629
96.5191
94.8445
93.1441
91.4227
89.6852
87.9363
86.1806
84.4225
82.6671
117.893
117.694
117.396
117.011
116.532
115.956
115.287
114.528
113.684
112.756
111.749
110.666
109.51
108.284
106.993
105.64
104.229
102.765
101.251
99.6933
98.0956
96.463
94.8002
93.1121
91.4035
89.6792
87.9438
86.2017
84.4572
82.7148
-50.4297
-30.2668
-10.7912
36.5141
29.2784
17.664
52.1444
40.1724
29.1133
53.4966
43.1251
35.142
57.7955
49.5477
42.8316
62.1571
55.2789
49.4153
65.4009
59.5408
54.5097
67.9688
62.9587
58.6616
70.1327
65.8107
62.1098
71.9584
68.1866
64.9648
73.4926
70.1669
67.3332
74.7844
71.8248
69.3081
75.8742
73.2178
70.9624
76.7937
74.3911
72.3531
77.5694
75.3807
73.5255
78.223
76.2162
74.5157
78.7725
76.9212
75.3524
79.2331
77.5154
76.0592
79.6175
78.015
76.6554
79.9369
78.4336
77.1571
80.2005
78.783
77.5778
80.4171
79.0734
77.9293
80.5933
79.3129
78.221
80.7371
79.5105
78.4627
80.8509
79.6696
78.6589
80.9467
79.8026
78.822
81.0156
79.9014
78.9454
81.0863
79.9948
79.0561
81.1189
80.0437
79.119
81.1875
80.1264
79.2081
-1.6579
-1.48633
-0.0871012
0.922724
0.993126
1.0142
1.04999
1.01464
0.964375
0.953244
0.924782
0.853338
0.778605
0.734331
0.710946
0.67459
0.61444
0.545621
0.487363
0.448377
0.420153
0.385425
0.334693
0.270589
0.201894
0.136678
0.0769876
0.022194
-0.0141406
-0.00797823
4.01196
0.846002
1.80157
1.51044
0.509297
0.487831
0.912066
0.98279
0.890278
0.906683
0.904758
0.812107
0.714115
0.685706
0.704493
0.689003
0.621006
0.536598
0.469829
0.436078
0.421388
0.394318
0.339772
0.264685
0.183833
0.110552
0.0503672
0.00168782
-0.0269962
-0.0125379
14.9269
6.46359
3.53986
1.45788
0.896574
1.46502
1.6953
0.979435
0.470833
0.621938
0.902683
0.831519
0.676266
0.656338
0.725209
0.722357
0.628176
0.514513
0.43486
0.413295
0.426103
0.413509
0.352489
0.260955
0.163009
0.0786438
0.0183912
-0.0199826
-0.0378948
-0.0164711
24.4624
14.6281
8.80718
5.08977
3.14195
2.26446
1.42694
0.808398
0.700722
1.35102
1.52209
0.847173
0.403219
0.362996
0.599889
0.775759
0.667572
0.507044
0.405188
0.396729
0.445149
0.447316
0.372023
0.255796
0.134857
0.0361573
-0.0233818
-0.0446357
-0.0448133
-0.0194455
33.54
23.8166
16.5138
11.2007
7.50692
4.99375
3.21892
2.12335
1.58175
1.48494
1.14207
0.734811
0.448862
0.567371
1.13589
1.17015
0.684344
0.399081
0.26002
0.27185
0.404599
0.494351
0.412893
0.26119
0.109709
-0.00798255
-0.0680378
-0.0658787
-0.036613
-0.0201609
41.4478
32.5448
24.6664
18.2328
13.2938
9.6188
6.91796
4.97727
3.61795
2.69201
1.95331
1.38342
0.976065
0.87041
0.998205
0.933541
0.702237
0.460338
0.322126
0.373116
0.650271
0.706022
0.451544
0.231318
0.0417238
-0.097539
-0.158715
-0.127826
-0.03477
-0.0326118
47.8952
40.1048
32.3398
25.4536
19.8177
15.3298
11.7793
8.99587
6.85341
5.23648
3.99238
3.00936
2.26481
1.79621
1.53838
1.30428
1.00989
0.701344
0.503719
0.477679
0.585508
0.596219
0.461769
0.257787
0.0477673
-0.111359
-0.171001
-0.127289
0.0676703
0.00318452
53.1476
46.4257
39.1758
32.3478
26.4568
21.4941
17.335
13.8882
11.0801
8.82412
7.00636
5.53217
4.36552
3.49436
2.86029
2.33854
1.83918
1.38878
1.06547
0.897944
0.837387
0.75502
0.580436
0.336723
0.096996
-0.0831991
-0.166119
-0.148452
-0.00483739
-0.108598
57.4335
51.6214
45.0409
38.5673
32.7434
27.6197
23.134
19.2501
15.9376
13.1459
10.8045
8.84909
7.23755
5.93716
4.89392
4.02256
3.25881
2.60379
2.08899
1.72164
1.46042
1.21922
0.935265
0.620341
0.327954
0.10209
-0.0307654
-0.0708971
-0.0518262
-0.368394
60.931
55.8649
49.9632
43.9767
38.4171
33.3619
28.7827
24.6756
21.0425
17.8665
15.1126
12.7405
10.7149
9.00201
7.55833
6.32734
5.26237
4.34761
3.58658
2.9735
2.47468
2.03147
1.59798
1.17403
0.78976
0.474978
0.24442
0.0832801
-0.081318
-0.5847
63.8031
59.3432
54.062
48.5907
43.3884
38.5378
34.0266
29.8666
26.079
22.6701
19.629
16.9354
14.5664
12.497
10.6959
9.1253
7.75054
6.55077
5.51658
4.63543
3.87981
3.20912
2.58938
2.01211
1.49014
1.03943
0.66286
0.334303
-0.0225856
-0.660165
66.1815
62.2162
57.4756
52.4925
47.6714
43.0906
38.7431
34.6464
30.8303
27.3139
24.1015
21.1878
18.5622
16.2099
14.1113
12.2416
10.5763
9.09626
7.78788
6.6364
5.61937
4.70755
3.87486
3.10913
2.41196
1.78776
1.23059
0.711267
0.167345
-0.583342
68.165
64.6071
60.3285
55.7847
51.3316
47.0396
42.9025
38.9375
35.1764
31.6442
28.3538
25.3095
22.5103
19.9503
17.6191
15.5023
13.5835
11.8481
10.2828
8.87377
7.60293
6.44861
5.39045
4.41537
3.51824
2.69563
1.93675
1.21485
0.48463
-0.380804
69.8283
66.6095
62.7237
58.5657
54.451
50.4413
46.5292
42.7294
39.0723
35.5845
32.283
29.1778
26.2741
23.5726
21.0701
18.7594
16.6313
14.6754
12.8815
11.2378
9.73041
8.34303
7.05964
5.86768
4.75865
3.72481
2.75368
1.82309
0.902416
-0.0920626
71.2286
68.2945
64.7433
60.921
57.1095
53.3632
49.6728
46.0496
42.5212
39.1134
35.8447
32.7279
29.772
26.9821
24.3598
21.9036
19.609
17.4702
15.48
13.6296
11.9087
10.3051
8.806
7.40024
6.07817
4.83032
3.64434
2.50267
1.38512
0.240984
72.4108
69.7173
66.4518
62.9206
59.3777
55.8712
52.39
48.942
45.5515
42.2423
39.0329
35.9373
32.9662
30.1275
27.4261
24.8641
22.441
20.1542
17.9996
15.9714
14.062
12.2625
10.5631
8.95378
7.42529
5.96786
4.57004
3.21783
1.89729
0.581854
73.4103
70.9211
67.9003
64.6215
61.3151
58.0238
54.7353
51.4543
48.2016
44.9988
41.8634
38.8093
35.8481
32.989
30.2391
27.6029
25.0824
22.6778
20.3876
18.2084
16.1351
14.1612
12.2792
10.4808
8.75723
7.09926
5.49639
3.93684
2.40956
0.904367
74.2556
71.9403
69.1297
66.0698
62.9707
59.8711
56.7575
53.6319
50.5118
47.4164
44.3617
41.3611
38.426
35.5665
32.7905
30.1041
27.5112
25.0141
22.613
20.3066
18.092
15.9645
13.9184
11.9468
10.0419
8.1951
6.39649
4.63537
2.90122
1.19382
74.9699
72.803
70.1732
67.3029
64.3852
61.4553
58.4988
55.5154
52.5197
49.5287
46.5565
43.6155
40.7167
37.8702
35.0844
32.3661
29.7206
27.1514
24.6603
22.2475
19.9116
17.6497
15.4574
13.329
11.2575
9.23484
7.25156
5.29706
3.35999
1.44518
75.5724
73.5323
71.0579
68.3518
65.5924
62.8119
59.9953
57.1406
54.2597
51.3673
48.4759
45.5967
42.74
39.9154
37.1312
34.3949
31.7123
29.0876
26.5239
24.0226
21.5833
19.2044
16.8827
14.6134
12.3902
10.2054
8.04979
5.91228
3.78014
1.65995
76.0792
74.1471
71.8063
69.2422
66.6204
63.9706
61.2778
58.5383
55.7617
52.9607
50.1463
47.3283
44.5162
41.7188
38.9443
36.2001
33.4923
30.8257
28.204
25.6293
23.1023
20.6223
18.1869
15.7919
13.4318
11.099
8.78428
6.47601
4.15999
1.84258
76.504
74.6638
72.4374
69.9956
67.4928
64.9569
62.3727
59.7352
57.0522
54.3345
51.5917
48.8324
46.0649
43.2975
40.5379
37.7931
35.0692
32.3715
29.7038
27.0689
24.4681
21.9012
19.3666
16.8606
14.378
11.9116
9.45174
6.98646
4.50029
1.99831
76.8578
75.0954
72.9667
70.6296
68.2292
65.7916
63.3017
60.7536
58.1534
55.5103
52.8328
50.1281
47.4037
44.667
41.9251
39.1847
36.4517
33.7313
31.0276
28.3437
25.6812
23.0404
20.4199
17.8168
15.226
12.6402
10.0499
7.44248
4.80171
2.13084
77.1517
75.4547
73.4086
71.1604
68.847
66.4934
64.0847
61.6139
59.0859
56.5086
53.8893
51.2342
48.55
45.843
43.12
40.3871
37.6499
34.9135
32.1819
29.4584
26.7449
24.0418
21.3481
18.6611
15.9758
13.2851
10.5793
7.84543
5.06673
2.24416
77.3917
75.749
73.7718
71.5981
69.3579
67.0751
64.7349
62.3298
59.8636
57.3432
54.7745
52.1633
49.5151
46.8359
44.1314
41.4075
38.6694
35.9219
33.1691
30.4141
27.6588
24.904
22.1487
19.3904
16.6241
13.8429
11.0368
8.19266
5.29352
2.338
77.5896
75.991
74.0705
71.9581
69.7781
67.5536
65.2701
62.9197
60.5051
58.0324
55.5068
52.9331
50.3163
47.6616
44.9743
42.2597
39.5228
36.7679
33.9992
31.2194
28.4307
25.6338
22.8279
20.0102
17.1762
14.3186
11.4276
8.48976
5.48791
2.41762
77.7422
76.1784
74.3027
72.2389
70.1067
67.9286
65.6904
63.3838
61.0107
58.5765
56.0858
53.5429
50.952
48.3179
45.6454
42.9394
40.2044
37.4448
34.6643
31.8656
29.0509
26.2207
23.3743
20.5091
17.6203
14.7008
11.7405
8.72593
5.64004
2.47604
77.8718
76.3337
74.4921
72.4651
70.369
68.2261
66.0222
63.7488
61.4074
59.0026
56.5387
54.0194
51.4486
48.8307
46.17
43.471
40.7382
37.9754
35.1864
32.3738
29.5395
26.6842
23.8071
20.9055
17.9746
15.0072
11.993
8.91858
5.76644
2.52598
77.9514
76.4294
74.6101
72.6082
70.5365
68.4171
66.2361
63.985
61.6648
59.2797
56.8339
54.3306
51.7734
49.1665
46.5138
43.8199
41.0886
38.3241
35.5295
32.7078
29.8605
26.9884
24.0906
21.1644
18.205
15.2049
12.1538
9.03771
5.83922
2.54602
78.0398
76.519
74.7119
72.725
70.6671
68.5602
66.3914
64.152
61.8429
59.468
57.0312
54.5357
51.9851
49.3831
46.7339
44.0415
41.3101
38.5434
35.7449
32.9171
30.0618
27.1797
24.2699
21.3296
18.354
15.3355
12.2635
9.12304
5.89416
2.55282
)
;

boundaryField
{
    inlet
    {
        type            zeroGradient;
    }
    outlet
    {
        type            fixedValue;
        value           uniform 0;
    }
    flap
    {
        type            zeroGradient;
    }
    upperWall
    {
        type            zeroGradient;
    }
    lowerWall
    {
        type            zeroGradient;
    }
    frontAndBack
    {
        type            empty;
    }
}


// ************************************************************************* //
