/*--------------------------------*- C++ -*----------------------------------*\
  =========                 |
  \\      /  F ield         | OpenFOAM: The Open Source CFD Toolbox
   \\    /   O peration     | Website:  https://openfoam.org
    \\  /    A nd           | Version:  7
     \\/     M anipulation  |
\*---------------------------------------------------------------------------*/
FoamFile
{
    version     2.0;
    format      ascii;
    class       surfaceScalarField;
    location    "3";
    object      phi;
}
// * * * * * * * * * * * * * * * * * * * * * * * * * * * * * * * * * * * * * //

dimensions      [0 3 -1 0 0 0 0];

internalField   nonuniform List<scalar> 
5457
(
0.198418
0.00158243
0.19648
0.00193746
0.194192
0.00228821
0.191508
0.00268373
0.188427
0.00308137
0.18495
0.00347694
0.181071
0.00387875
0.176777
0.00429418
0.172049
0.00472837
0.166863
0.00518534
0.161195
0.00566858
0.155014
0.00618106
0.148289
0.00672494
0.140987
0.00730125
0.133078
0.00790934
0.124532
0.00854622
0.115326
0.0092056
0.105449
0.00987684
0.0949057
0.0105437
0.0837226
0.0111831
0.0719583
0.0117642
0.0597104
0.0122479
0.047122
0.0125884
0.034382
0.01274
0.0216872
0.0126949
0.00903715
0.01265
-0.00291624
0.0119534
-0.00847201
0.00555577
-0.00804286
-0.000429143
-0.00804286
0.199928
0.00165432
0.199176
0.00268999
0.197965
0.00349927
0.196331
0.00431707
0.194271
0.0051416
0.191781
0.0059672
0.188854
0.00680592
0.185476
0.00767123
0.181631
0.00857344
0.177296
0.00952087
0.172444
0.0105208
0.167045
0.0115795
0.161069
0.0127017
0.15448
0.0138901
0.147245
0.0151443
0.139332
0.0164591
0.130714
0.0178233
0.121374
0.0192167
0.11131
0.0206082
0.10054
0.0219526
0.0891164
0.0231883
0.0771291
0.0242352
0.0647234
0.0249941
0.0521161
0.0253472
0.039656
0.0251551
0.0281059
0.0242001
0.0185952
0.021464
0.00879729
0.0153537
0.00118354
0.00718461
-0.00685932
0.199781
0.00187381
0.199087
0.00338393
0.197946
0.00464033
0.196409
0.00585384
0.194482
0.00706791
0.192163
0.00828644
0.189446
0.00952355
0.18632
0.0107969
0.182772
0.0121215
0.178783
0.0135099
0.174331
0.014973
0.169389
0.0165205
0.163931
0.0181603
0.157924
0.0198972
0.151336
0.0217324
0.144134
0.0236607
0.136289
0.0256685
0.127775
0.0277303
0.118579
0.0298047
0.108701
0.0318301
0.0981698
0.0337198
0.0870478
0.0353572
0.0754514
0.0365905
0.0635745
0.0372241
0.0517327
0.0369968
0.0403975
0.0355353
0.0297392
0.0321223
0.0191662
0.0259267
0.00959767
0.0167532
0.00273835
0.199703
0.00217079
0.199008
0.00407933
0.197887
0.005761
0.196376
0.00736492
0.194488
0.00895621
0.192221
0.0105526
0.189573
0.0121714
0.186537
0.0138331
0.183103
0.0155561
0.179256
0.0173565
0.174981
0.0192481
0.170258
0.0212432
0.165067
0.023352
0.159382
0.0255814
0.153181
0.027934
0.146436
0.0304057
0.139122
0.0329826
0.131215
0.0356373
0.122696
0.0383235
0.113555
0.0409706
0.103799
0.0434763
0.0934565
0.0456994
0.0825956
0.0474514
0.0713331
0.0484867
0.0598413
0.0484886
0.0483173
0.0470593
0.0368113
0.0436283
0.0251881
0.0375499
0.0133357
0.0286056
0.0160741
0.199667
0.00250343
0.198964
0.00478269
0.197863
0.00686245
0.196381
0.00884678
0.194532
0.0108052
0.192317
0.0127675
0.189733
0.0147555
0.186774
0.0167919
0.183432
0.018898
0.179696
0.0210924
0.175553
0.0233912
0.170988
0.0258084
0.165984
0.0283558
0.160524
0.0310416
0.154589
0.0338695
0.148158
0.0368361
0.141213
0.0399282
0.133731
0.0431185
0.125695
0.04636
0.117086
0.0495796
0.107893
0.0526694
0.0981142
0.055478
0.0877646
0.057801
0.0768789
0.0593724
0.0655091
0.0598584
0.0537085
0.0588599
0.0414545
0.0558824
0.0285881
0.0504162
0.0148526
0.0423412
0.0309266
0.199653
0.00285069
0.198949
0.00548686
0.19787
0.00794054
0.196426
0.0102911
0.194626
0.0126054
0.192472
0.0149212
0.189962
0.0172653
0.187091
0.0196629
0.183852
0.0221375
0.180234
0.0247099
0.176228
0.0273979
0.171819
0.0302172
0.166994
0.0331806
0.161738
0.0362975
0.156035
0.0395723
0.149869
0.0430025
0.143221
0.0465762
0.136072
0.0502676
0.1284
0.0540319
0.120181
0.0577988
0.111387
0.0614633
0.101988
0.0648763
0.0919546
0.0678347
0.0812542
0.0700728
0.0698546
0.0712579
0.0577174
0.0709971
0.0447612
0.0688386
0.0308496
0.0643279
0.0158734
0.0573174
0.0468
0.19965
0.00320069
0.198954
0.00618295
0.197904
0.00899033
0.196504
0.011691
0.194762
0.0143478
0.192679
0.0170035
0.190256
0.0196892
0.187486
0.0224328
0.184363
0.0252598
0.18088
0.028193
0.177026
0.031252
0.172789
0.0344539
0.168157
0.0378128
0.163116
0.0413391
0.157649
0.0450385
0.151742
0.0489099
0.145375
0.0529435
0.138525
0.0571168
0.131168
0.0613898
0.123267
0.0656992
0.114781
0.0699495
0.105654
0.0740036
0.0958164
0.077672
0.0851864
0.0807029
0.0736688
0.0827755
0.0611623
0.0835037
0.0475561
0.0824447
0.0327594
0.0791246
0.0167833
0.0732934
0.0635833
0.199655
0.0035461
0.198974
0.00686318
0.197958
0.0100063
0.19661
0.01304
0.194933
0.0160241
0.192932
0.0190043
0.190606
0.0220156
0.187951
0.0250883
0.18496
0.0282501
0.181628
0.0315254
0.177944
0.0349356
0.173899
0.0384995
0.169479
0.0422325
0.164672
0.0461466
0.159461
0.0502493
0.153829
0.0545422
0.147754
0.0590186
0.141209
0.0636612
0.134161
0.0684377
0.126565
0.0732955
0.11836
0.0781541
0.109468
0.0828958
0.0997861
0.0873541
0.0891875
0.0913014
0.0775259
0.0944371
0.0646486
0.096381
0.0504188
0.0966745
0.0347693
0.094774
0.0177905
0.0902722
0.0813738
0.199664
0.00388199
0.199006
0.00752111
0.19803
0.0109827
0.196738
0.0143316
0.195136
0.0176264
0.193226
0.0209144
0.191008
0.0242337
0.188479
0.0276172
0.185634
0.0310943
0.182468
0.0346913
0.178973
0.0384313
0.175138
0.0423346
0.170952
0.0464185
0.166401
0.0506971
0.16147
0.0551804
0.156139
0.0598735
0.150383
0.0647747
0.14417
0.0698738
0.137459
0.0751488
0.130193
0.0805615
0.122296
0.0860511
0.113665
0.0915261
0.104168
0.0968518
0.0936343
0.101835
0.0818659
0.106206
0.0686512
0.109596
0.053804
0.111522
0.0372384
0.11134
0.0190845
0.108426
0.100458
0.199677
0.00420483
0.199047
0.00815148
0.198115
0.0119142
0.196887
0.0155601
0.195366
0.0191476
0.193555
0.0227253
0.191455
0.0263338
0.189063
0.0300083
0.186378
0.0337799
0.183393
0.0376765
0.180101
0.0417228
0.176495
0.045941
0.172563
0.0503504
0.168293
0.0549674
0.163668
0.0598053
0.158668
0.0648737
0.153265
0.0701772
0.147424
0.0757144
0.141097
0.0814761
0.134217
0.0874416
0.126694
0.0935747
0.118404
0.0998161
0.109183
0.106072
0.09882
0.112198
0.0870542
0.117971
0.0735925
0.123057
0.0581517
0.126963
0.0405549
0.128936
0.0209032
0.128078
0.121362
0.199693
0.00451198
0.199094
0.00874999
0.198213
0.0127959
0.197053
0.01672
0.195619
0.0205812
0.193915
0.0244294
0.191941
0.0283072
0.189698
0.0322516
0.187183
0.0362953
0.184392
0.0404678
0.181319
0.0447954
0.177958
0.0493019
0.1743
0.0540087
0.170332
0.0589349
0.16604
0.0640975
0.161403
0.0695111
0.156393
0.0751874
0.150972
0.0811353
0.145088
0.0873596
0.13867
0.0938601
0.131616
0.100629
0.123787
0.107644
0.114995
0.114865
0.104983
0.12221
0.0934214
0.129533
0.0799019
0.136577
0.0639728
0.142892
0.0452396
0.14767
0.0236148
0.149703
0.144976
0.199711
0.00480136
0.199147
0.00931314
0.19832
0.0136238
0.197233
0.0178066
0.195893
0.0219217
0.194302
0.0260201
0.192463
0.0301461
0.190377
0.0343381
0.188041
0.0386304
0.185455
0.0430537
0.182615
0.0476358
0.179515
0.052402
0.176148
0.0573757
0.172504
0.0625788
0.16857
0.0680318
0.164326
0.0737544
0.159748
0.0797659
0.154798
0.0860855
0.149424
0.0927331
0.143555
0.0997294
0.137087
0.107096
0.129875
0.114856
0.121715
0.123026
0.112315
0.131609
0.101276
0.140572
0.088051
0.149802
0.0719306
0.159012
0.0520943
0.167506
0.0278913
0.173906
0.172868
0.19973
0.00507137
0.199205
0.00983807
0.198435
0.014394
0.197426
0.0188155
0.196184
0.023164
0.194712
0.0274917
0.193014
0.0318439
0.191092
0.0362604
0.188946
0.0407768
0.186575
0.0454246
0.183978
0.0502329
0.181151
0.0552283
0.178091
0.0604361
0.174789
0.0658804
0.171236
0.0715851
0.167416
0.0775748
0.163306
0.0838753
0.158876
0.0905156
0.15408
0.0975295
0.148851
0.104958
0.143096
0.112852
0.136676
0.121276
0.129391
0.130311
0.120943
0.140057
0.110887
0.150628
0.098551
0.162138
0.0829127
0.17465
0.0624491
0.18797
0.0351355
0.201219
0.208003
0.199751
0.00532074
0.199266
0.0103225
0.198557
0.0151036
0.197629
0.0197433
0.196489
0.0243042
0.195141
0.0288394
0.19359
0.0333952
0.191838
0.0380124
0.189887
0.0427273
0.187739
0.0475724
0.185395
0.0525774
0.182853
0.0577702
0.180112
0.0631771
0.177168
0.0688243
0.174015
0.0747383
0.170642
0.0809473
0.167035
0.0874827
0.163169
0.0943813
0.159011
0.101688
0.154508
0.10946
0.149587
0.117773
0.144137
0.126726
0.137989
0.136459
0.130886
0.14716
0.122411
0.159103
0.111871
0.172678
0.0980344
0.188487
0.07856
0.207444
0.0486859
0.231093
0.256689
0.199772
0.00554852
0.19933
0.0107645
0.198683
0.0157503
0.19784
0.0205872
0.196805
0.025339
0.195585
0.0300595
0.194184
0.0347957
0.192607
0.0395892
0.190858
0.0444766
0.188939
0.049491
0.186854
0.0546626
0.184605
0.0600196
0.182193
0.0655893
0.179618
0.071399
0.17688
0.0774766
0.173974
0.0838529
0.170894
0.0905627
0.167628
0.0976476
0.164156
0.10516
0.16045
0.113166
0.156466
0.121757
0.152138
0.131054
0.147366
0.14123
0.141993
0.152534
0.135755
0.165341
0.128182
0.180251
0.118335
0.198333
0.103962
0.221817
0.0777416
0.257314
0.334431
0.00480568
-0.00480568
0.00929088
-0.0044852
0.0130898
-0.00379889
0.0162538
-0.003164
0.0188969
-0.00264314
0.0211227
-0.00222575
0.0230179
-0.00189528
0.0246545
-0.00163656
0.0260882
-0.00143366
0.0273587
-0.00127051
0.0284918
-0.0011331
0.0295034
-0.00101169
0.0304052
-0.000901781
0.0312056
-0.000800329
0.0319017
-0.000696172
0.0324658
-0.000564104
0.0328461
-0.000380294
0.0330064
-0.00016026
0.032965
4.14335e-05
0.0327772
0.000187745
0.0325082
0.000269004
0.0321739
0.000334265
0.0318309
0.000342998
0.0315709
0.000260043
0.0314831
8.78225e-05
0.03164
-0.000156887
0.0320566
-0.000416625
0.032708
-0.000651389
0.0335168
-0.000808776
-0.000791145
0.00415783
-0.00896351
0.00818014
-0.00850751
0.0116569
-0.00727569
0.0146106
-0.00611761
0.0171394
-0.00517202
0.0193319
-0.00441816
0.0212598
-0.0038232
0.0229811
-0.00335792
0.0245406
-0.0029931
0.0259699
-0.00269981
0.027289
-0.00245227
0.0285096
-0.0022322
0.0296407
-0.00203293
0.0306952
-0.00185486
0.0316856
-0.00168651
0.0326061
-0.00148466
0.0334189
-0.001193
0.0340739
-0.000815342
0.0345619
-0.000446526
0.0349449
-0.00019529
0.0352592
-4.53124e-05
0.0354847
0.000108786
0.0356677
0.000159977
0.0358632
6.45883e-05
0.0360878
-0.000136742
0.0363351
-0.000404214
0.0366185
-0.000699981
0.0369603
-0.000993283
0.037397
-0.00124544
-0.00124631
0.00330127
-0.0122648
0.00642466
-0.0116309
0.00908766
-0.00993869
0.0113428
-0.00837273
0.0132714
-0.00710062
0.0149398
-0.00608662
0.0164031
-0.0052865
0.0177049
-0.0046597
0.0188787
-0.00416687
0.0199483
-0.00376941
0.0209274
-0.00343138
0.0218207
-0.00312552
0.0226306
-0.00284285
0.0233685
-0.00259272
0.0240582
-0.00237626
0.0247127
-0.00213912
0.0252977
-0.00177805
0.0257545
-0.00127208
0.0260723
-0.000764327
0.0263276
-0.000450616
0.026463
-0.000180689
0.0264383
0.000133436
0.0261864
0.000411903
0.0257735
0.000477511
0.0252978
0.000338929
0.0247674
0.000126227
0.0241898
-0.000122377
0.0235902
-0.000393744
0.0231003
-0.000755528
-0.00122424
0.00239055
-0.0146553
0.00446451
-0.0137049
0.00614102
-0.0116152
0.00753283
-0.00976454
0.00869688
-0.00826467
0.00967451
-0.00706424
0.0105018
-0.00611383
0.0112073
-0.0053652
0.0118137
-0.00477322
0.0123383
-0.00429398
0.0127912
-0.00388429
0.0131727
-0.00350702
0.0134726
-0.00314277
0.0136849
-0.00280501
0.0138383
-0.00252971
0.0139843
-0.00228513
0.0141229
-0.0019166
0.0141504
-0.00129962
0.0137408
-0.000354675
0.0127782
0.000511928
0.0116191
0.000978442
0.0105312
0.00122135
0.00954136
0.00140173
0.00859242
0.00142646
0.00775891
0.00117244
0.0071944
0.000690733
0.00689359
0.000178434
0.00689547
-0.00039562
0.00717399
-0.00103405
-0.00166648
0.00135896
-0.0160143
0.00226611
-0.014612
0.00285932
-0.0122084
0.0032764
-0.0101816
0.00354699
-0.00853526
0.0036933
-0.00721055
0.00373445
-0.00615498
0.00368655
-0.0053173
0.00356375
-0.00465042
0.00337902
-0.00410924
0.00314394
-0.00364921
0.00286478
-0.00322786
0.00253131
-0.00280929
0.0021028
-0.00237651
0.00150075
-0.00192766
0.000673358
-0.00145774
-0.000290097
-0.000953148
-0.00129716
-0.000292566
-0.00204285
0.000391017
-0.00249296
0.000962039
-0.00290985
0.00139534
-0.00334926
0.00166075
-0.00373625
0.00178872
-0.00403347
0.00172367
-0.00424287
0.00138184
-0.00436705
0.000814911
-0.0043363
0.000147686
-0.00424742
-0.000484502
-0.00410281
-0.00117865
-0.00179894
0.000146355
-0.0161606
-0.000158441
-0.0143072
-0.000706865
-0.01166
-0.0013389
-0.00954959
-0.00206367
-0.00781049
-0.00285574
-0.00641848
-0.00370222
-0.00530849
-0.00459266
-0.00442686
-0.00551951
-0.00372357
-0.00647403
-0.00315473
-0.00744187
-0.00268137
-0.00840173
-0.002268
-0.00932659
-0.00188443
-0.0101938
-0.00150928
-0.0109932
-0.00112826
-0.0117238
-0.000727125
-0.012391
-0.000285922
-0.0128792
0.000195603
-0.0131857
0.000697537
-0.013402
0.0011783
-0.0135573
0.00155064
-0.0136743
0.00177779
-0.0137382
0.00185258
-0.0137497
0.00173512
-0.0137515
0.00138364
-0.0137727
0.0008362
-0.0138128
0.000187754
-0.0138138
-0.000483465
-0.0138054
-0.00118714
-0.00181786
-0.00110212
-0.0150585
-0.00271373
-0.0126956
-0.00441789
-0.00995583
-0.00616405
-0.00780343
-0.0078854
-0.00608914
-0.00955658
-0.0047473
-0.011155
-0.00371008
-0.0126611
-0.00292077
-0.0140602
-0.00232442
-0.015344
-0.001871
-0.0165086
-0.00151675
-0.0175529
-0.00122367
-0.0184775
-0.000959827
-0.0192869
-0.000699943
-0.019988
-0.000427159
-0.0205858
-0.00012931
-0.0210578
0.00018606
-0.021396
0.000533845
-0.0216181
0.000919644
-0.0217358
0.00129601
-0.0217786
0.00159344
-0.0217729
0.00177209
-0.0217296
0.00180929
-0.0216667
0.00167217
-0.0216205
0.00133743
-0.0216187
0.000834423
-0.0216571
0.000226186
-0.0217161
-0.000424546
-0.0217813
-0.00112185
-0.00172539
-0.00245564
-0.0126029
-0.00530379
-0.00984745
-0.0081588
-0.00710082
-0.01088
-0.00508219
-0.0133852
-0.00358396
-0.0156459
-0.00248657
-0.0176583
-0.0016977
-0.0194312
-0.00114789
-0.020983
-0.000772672
-0.0223359
-0.000518016
-0.0235124
-0.000340286
-0.0245308
-0.000205251
-0.0254048
-8.57976e-05
-0.0261428
3.8017e-05
-0.0267517
0.000181723
-0.0272385
0.000357492
-0.0276255
0.000573123
-0.0279238
0.00083208
-0.0281215
0.00111732
-0.0282178
0.00139236
-0.0282355
0.00161111
-0.0282017
0.0017383
-0.0281381
0.0017457
-0.0280694
0.00160342
-0.028027
0.00129506
-0.0280339
0.000841331
-0.0280939
0.000286178
-0.0281883
-0.0003301
-0.0283166
-0.000993542
-0.00153229
-0.00389538
-0.00870751
-0.0079587
-0.00578413
-0.0118571
-0.00320242
-0.0153789
-0.0015604
-0.0184617
-0.000501149
-0.0210908
0.000142513
-0.0232843
0.000495788
-0.0250994
0.000667233
-0.0266083
0.000736193
-0.0278735
0.000747183
-0.0289435
0.000729719
-0.0298526
0.000703888
-0.030624
0.000685572
-0.0312767
0.000690703
-0.0318284
0.000733451
-0.0322921
0.000821199
-0.0326734
0.000954461
-0.0329672
0.00112582
-0.0331663
0.00131641
-0.0332727
0.00149885
-0.0333045
0.00164282
-0.0332868
0.00172068
-0.0332456
0.00170443
-0.0332074
0.00156523
-0.0331994
0.00128705
-0.0332402
0.000882116
-0.0333347
0.000380774
-0.0334737
-0.000191135
-0.0336602
-0.000807032
-0.00128797
-0.00557563
-0.00313188
-0.011157
-0.000202811
-0.015796
0.00143661
-0.0196097
0.00225331
-0.0226972
0.00258632
-0.0252027
0.00264807
-0.0272717
0.00256476
-0.029008
0.00240358
-0.0304721
0.00220029
-0.0317127
0.00198779
-0.0327704
0.00178742
-0.0336752
0.00160865
-0.0344474
0.00145772
-0.0351026
0.00134597
-0.0356564
0.00128727
-0.0361232
0.00128794
-0.0365102
0.00134152
-0.0368154
0.00143095
-0.0370336
0.00153462
-0.0371673
0.00163255
-0.0372321
0.0017076
-0.0372527
0.0017413
-0.0372564
0.00170816
-0.0372695
0.00157835
-0.0373145
0.00133202
-0.0374052
0.000972832
-0.0375457
0.000521259
-0.0377342
-2.60926e-06
-0.0379738
-0.000567469
-0.00100253
-0.00716431
0.00403243
-0.013329
0.00596188
-0.0181919
0.00629952
-0.0221347
0.00619613
-0.0253471
0.00579873
-0.0279675
0.00526847
-0.0301135
0.00471071
-0.0318814
0.00417146
-0.0333493
0.00366823
-0.03458
0.00321853
-0.0356248
0.00283217
-0.0365188
0.00250268
-0.0372821
0.00222095
-0.037929
0.00199295
-0.0384774
0.00183565
-0.0389457
0.00175624
-0.0393443
0.00174014
-0.0396716
0.00175823
-0.0399208
0.00178378
-0.0400919
0.00180368
-0.0401993
0.00181506
-0.0402688
0.00181078
-0.040329
0.00176831
-0.0404046
0.00165401
-0.0405133
0.00144064
-0.0406637
0.00112324
-0.0408591
0.000716657
-0.0410994
0.000237757
-0.0413878
-0.000279071
-0.00067473
-0.00799237
0.0120248
-0.0147952
0.0127647
-0.0202282
0.0117325
-0.0244452
0.0104131
-0.0277389
0.00909241
-0.0303395
0.00786907
-0.032425
0.00679622
-0.0341251
0.0058716
-0.0355249
0.00506805
-0.0366913
0.00438494
-0.0376847
0.00382556
-0.0385446
0.00336251
-0.0392848
0.00296122
-0.039913
0.00262111
-0.0404479
0.00237055
-0.0409151
0.00222349
-0.0413297
0.00215465
-0.0416878
0.00211635
-0.0419764
0.00207241
-0.0421904
0.00201766
-0.0423436
0.00196831
-0.0424654
0.00193258
-0.0425874
0.00189025
-0.0427328
0.00179939
-0.0429132
0.00162106
-0.0431309
0.00134098
-0.0433853
0.00097103
-0.0436784
0.000530861
-0.0440173
5.97908e-05
-0.000300022
-0.00935166
0.0213765
-0.0171496
0.0205627
-0.0228386
0.0174215
-0.0269664
0.0145409
-0.0300721
0.0121981
-0.0324491
0.010246
-0.0343197
0.00866686
-0.0358475
0.00739941
-0.0371074
0.00632793
-0.0381537
0.00543122
-0.0390575
0.00472939
-0.0398652
0.00417018
-0.0405754
0.0036715
-0.0411773
0.00322295
-0.0416896
0.00288287
-0.0421518
0.00268572
-0.0425871
0.00258989
-0.0429862
0.00251551
-0.0433234
0.0024096
-0.0435838
0.00227807
-0.0437819
0.00216641
-0.043955
0.00210565
-0.0441407
0.00207598
-0.044361
0.00201965
-0.0446197
0.0018798
-0.04491
0.00163131
-0.0452262
0.00128725
-0.0455747
0.000879368
-0.0459663
0.000451302
0.000126435
-0.0118477
0.0332242
-0.0209556
0.0296706
-0.0264344
0.0229003
-0.0298764
0.0179829
-0.0324487
0.0147704
-0.034367
0.0121644
-0.0358424
0.0101422
-0.0370975
0.00865448
-0.0381634
0.00739389
-0.0390378
0.00630559
-0.0398138
0.00550536
-0.040561
0.00491747
-0.0412474
0.00435782
-0.0418201
0.00379567
-0.0422969
0.00335963
-0.0427468
0.0031357
-0.0432097
0.00305273
-0.0436648
0.00297062
-0.0440628
0.00280758
-0.0443721
0.00258744
-0.0446096
0.00240387
-0.0448282
0.00232423
-0.0450771
0.00232493
-0.0453768
0.00231932
-0.0457207
0.00222368
-0.0460896
0.00200018
-0.0464703
0.00166796
-0.0468721
0.00128115
-0.0473177
0.000896919
0.000618196
-0.0163509
0.0495751
-0.027136
0.0404556
-0.0316235
0.0273878
-0.0331865
0.0195459
-0.0348511
0.0164349
-0.0360846
0.0133979
-0.0369451
0.0110027
-0.0378561
0.00956549
-0.0387388
0.00827655
-0.0393952
0.00696204
-0.0399899
0.00610009
-0.04068
0.00560753
-0.0413715
0.00504936
-0.041921
0.00434513
-0.0423392
0.00377777
-0.0427619
0.00355842
-0.0432634
0.00355428
-0.0437982
0.00350543
-0.044275
0.00328437
-0.0446344
0.0029468
-0.0448981
0.00266756
-0.045149
0.00257518
-0.0454572
0.00263316
-0.0458399
0.00270195
-0.0462744
0.0026582
-0.0467242
0.00244998
-0.0471645
0.00210828
-0.047607
0.00172366
-0.0480908
0.00138067
0.0011575
0.207447
0.00576137
0.207034
0.0111773
0.206431
0.0163531
0.205646
0.0213719
0.204687
0.0262986
0.203559
0.0311874
0.202269
0.0360857
0.200823
0.0410355
0.199226
0.0460735
0.197484
0.051233
0.195602
0.0565441
0.193586
0.0620352
0.191442
0.0677336
0.189174
0.0736667
0.186788
0.079863
0.184287
0.0863538
0.181675
0.0931749
0.178953
0.100369
0.176122
0.107991
0.17318
0.116109
0.170123
0.124814
0.166946
0.134231
0.163646
0.14453
0.160224
0.155956
0.156703
0.168861
0.153181
0.183774
0.150025
0.201489
0.148922
0.22292
0.160698
0.245538
0.258607
0.236521
0.21249
0.00595389
0.212117
0.0115503
0.211573
0.0168969
0.210867
0.0220782
0.210006
0.0271595
0.208998
0.0321954
0.207851
0.0372334
0.206571
0.0423153
0.205167
0.0474779
0.203646
0.0527538
0.202017
0.058173
0.200289
0.063763
0.198472
0.0695507
0.196576
0.0755624
0.194614
0.0818257
0.192597
0.0883707
0.19054
0.0952314
0.188462
0.102448
0.186383
0.11007
0.184331
0.11816
0.182348
0.126797
0.180495
0.136084
0.17887
0.146155
0.177647
0.15718
0.177147
0.169361
0.178026
0.182894
0.181706
0.19781
0.190795
0.213831
0.206305
0.230028
0.245464
0.219449
0.217658
0.00612392
0.217328
0.0118795
0.216849
0.0173759
0.216229
0.0226983
0.215477
0.0279123
0.214599
0.0330725
0.213607
0.0382262
0.212507
0.0434146
0.211311
0.048674
0.210029
0.0540363
0.208671
0.0595301
0.207252
0.0651822
0.205786
0.0710174
0.204287
0.0770606
0.202776
0.0833369
0.201274
0.0898729
0.199807
0.0966983
0.198408
0.103847
0.197118
0.11136
0.195995
0.119283
0.195115
0.127676
0.194593
0.136606
0.194599
0.14615
0.195396
0.156383
0.197395
0.167362
0.201207
0.179082
0.207601
0.191416
0.217235
0.204197
0.229818
0.217444
0.228577
0.246705
0.222951
0.00626948
0.22267
0.012161
0.222261
0.0177844
0.221734
0.023225
0.221098
0.0285484
0.220362
0.0338087
0.219536
0.0390525
0.21863
0.0443204
0.217657
0.0496475
0.216628
0.0550645
0.21556
0.0605986
0.214468
0.0662745
0.21337
0.0721148
0.212289
0.0781414
0.211251
0.0843758
0.210284
0.0908397
0.209426
0.0975563
0.208722
0.104551
0.208232
0.11185
0.208031
0.119484
0.208223
0.127485
0.208946
0.135882
0.210396
0.1447
0.212834
0.153945
0.216607
0.163589
0.222134
0.173555
0.229862
0.183688
0.240357
0.193702
0.254535
0.203266
0.210128
0.272985
0.228374
0.0063887
0.228144
0.0123912
0.227811
0.0181172
0.227384
0.0236517
0.226873
0.0290596
0.226287
0.0343944
0.225638
0.0397017
0.224938
0.045021
0.224199
0.0503858
0.223439
0.0558252
0.222673
0.0613643
0.221922
0.0670254
0.221208
0.0728283
0.220559
0.0787909
0.220005
0.08493
0.219583
0.0912615
0.219339
0.0978006
0.219327
0.104562
0.219618
0.111559
0.2203
0.118803
0.221484
0.126301
0.223316
0.13405
0.225981
0.142035
0.229709
0.150217
0.234779
0.158519
0.241518
0.166816
0.250305
0.174902
0.261582
0.182424
0.27582
0.189028
0.193628
0.29232
0.233929
0.00647991
0.233754
0.0125669
0.233501
0.0183697
0.23318
0.0239724
0.232801
0.0294389
0.232374
0.0348216
0.231911
0.0401648
0.231425
0.0455064
0.230933
0.0508783
0.230451
0.0563074
0.229998
0.0618165
0.229599
0.0674248
0.229279
0.0731487
0.229068
0.0790018
0.229002
0.0849957
0.229124
0.0911397
0.229484
0.0974407
0.230143
0.103903
0.231176
0.110526
0.232673
0.117305
0.234747
0.124226
0.237534
0.131264
0.241196
0.138373
0.245925
0.145487
0.251942
0.152502
0.259488
0.15927
0.268802
0.165587
0.280063
0.171163
0.293364
0.175727
0.178767
0.308224
0.23962
0.0065416
0.239501
0.0126852
0.239333
0.0185378
0.239124
0.0241819
0.238882
0.0296802
0.238621
0.0350833
0.238351
0.0404342
0.238089
0.0457688
0.23785
0.0511171
0.237654
0.0565034
0.237523
0.061948
0.23748
0.0674668
0.237557
0.0730725
0.237784
0.0787741
0.238202
0.0845778
0.238856
0.0904863
0.239798
0.0964986
0.241091
0.102609
0.242811
0.108807
0.245044
0.115072
0.247893
0.121377
0.251477
0.127679
0.255932
0.133918
0.261407
0.140013
0.268056
0.145852
0.276031
0.151296
0.285449
0.156169
0.296354
0.160258
0.308736
0.163346
0.165169
0.322334
0.245448
0.00657252
0.24539
0.0127437
0.245309
0.0186181
0.245215
0.0242759
0.245117
0.0297783
0.245027
0.0351741
0.244957
0.0405042
0.244923
0.0458026
0.244943
0.0510968
0.245038
0.0564089
0.24523
0.061756
0.245546
0.0671508
0.246016
0.072602
0.246676
0.0781144
0.247565
0.083689
0.248729
0.0893223
0.250221
0.0950065
0.252102
0.100728
0.254443
0.106466
0.257321
0.112194
0.260828
0.117871
0.26506
0.123447
0.270122
0.128856
0.276121
0.134014
0.283155
0.138818
0.291305
0.143146
0.300617
0.146857
0.311081
0.149794
0.322628
0.151799
0.152742
0.335055
0.251418
0.00657164
0.251421
0.0127405
0.251432
0.0186077
0.251456
0.0242511
0.251505
0.0297296
0.251589
0.03509
0.251723
0.040371
0.251921
0.0456043
0.252202
0.0508151
0.252589
0.0560227
0.253103
0.0612413
0.253774
0.0664804
0.254631
0.071745
0.255709
0.0770358
0.257049
0.0823491
0.258695
0.0876764
0.260697
0.0930041
0.263112
0.0983128
0.266003
0.103576
0.269437
0.10876
0.273487
0.11382
0.27823
0.118704
0.283741
0.123346
0.290088
0.127667
0.297328
0.131578
0.305495
0.134979
0.314589
0.137762
0.324566
0.139817
0.335326
0.141039
0.14137
0.346698
0.257532
0.00653821
0.257599
0.012674
0.257702
0.0185048
0.257848
0.0241052
0.258045
0.0295317
0.258307
0.0348287
0.258645
0.0400328
0.259076
0.0451731
0.259619
0.0502724
0.260294
0.0553472
0.261127
0.060409
0.262143
0.0654641
0.263374
0.0705143
0.264853
0.0755568
0.266618
0.0805838
0.268711
0.0855831
0.271179
0.0905368
0.27407
0.0954217
0.277438
0.100208
0.281339
0.104859
0.285828
0.10933
0.290963
0.11357
0.29679
0.117518
0.303351
0.121106
0.31067
0.12426
0.318748
0.126901
0.327558
0.128952
0.337036
0.130339
0.347078
0.130997
0.130906
0.357542
0.263794
0.00647177
0.263925
0.0125435
0.264121
0.0183081
0.264389
0.0238369
0.264738
0.0291835
0.265177
0.0343898
0.265719
0.0394899
0.266382
0.0445105
0.267183
0.0494718
0.268142
0.0543879
0.269283
0.0592675
0.270633
0.0641142
0.272221
0.0689271
0.274077
0.0737002
0.276238
0.0784232
0.27874
0.0830807
0.281624
0.0876527
0.284932
0.0921136
0.288708
0.0964328
0.292993
0.100574
0.297829
0.104494
0.303253
0.108147
0.309292
0.111478
0.315964
0.114433
0.323271
0.116953
0.331193
0.118979
0.339688
0.120457
0.348686
0.121341
0.358088
0.121595
0.121218
0.367776
0.270207
0.00637213
0.270402
0.0123487
0.270692
0.0180175
0.271083
0.0234462
0.271581
0.0286854
0.272196
0.0337744
0.272942
0.0387446
0.273832
0.0436203
0.274884
0.0484193
0.276119
0.0531532
0.277558
0.0578286
0.279226
0.0624466
0.281149
0.0670039
0.283356
0.0714926
0.285879
0.0759002
0.28875
0.08021
0.292002
0.0844005
0.29567
0.0884462
0.299785
0.092317
0.304381
0.0959785
0.309482
0.0993927
0.315111
0.102518
0.321279
0.105311
0.327986
0.107726
0.335219
0.10972
0.342947
0.111251
0.35112
0.112284
0.359669
0.112792
0.368506
0.112759
0.112194
0.377529
0.276774
0.0062394
0.277033
0.0120897
0.277417
0.0176334
0.277929
0.0229341
0.278575
0.0280391
0.279364
0.0329851
0.280308
0.0378009
0.28142
0.0425084
0.282716
0.047123
0.284215
0.0516544
0.285937
0.0561068
0.287903
0.0604797
0.290139
0.0647681
0.292669
0.0689626
0.29552
0.0730497
0.298718
0.0770121
0.30229
0.0808285
0.306262
0.0844744
0.310657
0.0879216
0.315496
0.0911395
0.320794
0.0940948
0.326559
0.096753
0.332791
0.099079
0.339478
0.101039
0.346597
0.1026
0.354111
0.103737
0.361969
0.104426
0.370106
0.104656
0.378443
0.104421
0.10374
0.386898
0.283498
0.00607394
0.28382
0.0117674
0.284297
0.0171572
0.284928
0.0223026
0.28572
0.0272477
0.286678
0.0320264
0.287814
0.0366649
0.28914
0.0411828
0.29067
0.0455934
0.29242
0.0499045
0.294408
0.0541187
0.296653
0.0582342
0.299177
0.0622447
0.301999
0.0661401
0.305142
0.0699068
0.308626
0.0735276
0.312472
0.0769826
0.316698
0.0802488
0.321318
0.0833014
0.326344
0.0861137
0.331781
0.0886579
0.337627
0.0909064
0.343874
0.0928322
0.350502
0.0944104
0.357483
0.0956196
0.364777
0.0964428
0.372334
0.0968692
0.380095
0.0968949
0.387993
0.0965235
0.0957752
0.395957
0.290384
0.0058764
0.290768
0.011383
0.291335
0.0165908
0.292083
0.0215546
0.293015
0.0263153
0.294138
0.0309037
0.295459
0.0353438
0.296989
0.0396528
0.29874
0.0438424
0.300726
0.0479185
0.302962
0.0518827
0.305464
0.0557319
0.308249
0.0594595
0.311334
0.0630553
0.314735
0.066506
0.318467
0.0697954
0.322544
0.0729053
0.326978
0.0758155
0.331775
0.0785043
0.336939
0.0809496
0.342468
0.0831291
0.348353
0.0850213
0.354579
0.0866065
0.361121
0.0878676
0.36795
0.088791
0.375025
0.0893679
0.382299
0.0895947
0.38972
0.0894738
0.397231
0.0890134
0.0882346
0.404771
0.297435
0.00564764
0.297879
0.0109382
0.298533
0.0159369
0.299394
0.020694
0.300462
0.0252469
0.301742
0.0296238
0.30324
0.0338462
0.304963
0.0379294
0.306922
0.0418832
0.309128
0.0457125
0.311593
0.0494177
0.31433
0.0529953
0.317351
0.0564387
0.320668
0.0597378
0.324294
0.0628802
0.328238
0.0658516
0.332508
0.0686355
0.337108
0.0712148
0.342041
0.0735715
0.347303
0.0756876
0.352886
0.0775459
0.358777
0.0791305
0.364956
0.0804278
0.371397
0.0814268
0.378067
0.0821204
0.38493
0.0825052
0.391942
0.0825827
0.399057
0.0823592
0.406224
0.0818457
0.0810627
0.413396
0.304654
0.00538872
0.305157
0.0104353
0.305895
0.0151989
0.306864
0.0197253
0.308062
0.0240486
0.309492
0.0281943
0.311156
0.0321817
0.313061
0.036024
0.315215
0.0397299
0.317624
0.043303
0.320299
0.0467432
0.323247
0.0500468
0.326479
0.0532073
0.330001
0.0562156
0.333821
0.0590604
0.337943
0.0617291
0.342371
0.0642077
0.347104
0.066482
0.352138
0.0685375
0.357465
0.0703603
0.363073
0.0719376
0.368945
0.0732583
0.37506
0.0743136
0.381389
0.0750976
0.387902
0.0756075
0.394563
0.0758442
0.401333
0.0758123
0.408172
0.0755205
0.415037
0.0749809
0.0742129
0.421886
0.312046
0.00510086
0.312605
0.00987647
0.313424
0.0143802
0.314496
0.0186534
0.315817
0.0227268
0.317388
0.0266235
0.31921
0.0303603
0.321285
0.033949
0.323618
0.0373969
0.326214
0.0407068
0.329079
0.0438784
0.332217
0.046908
0.335635
0.0497895
0.339336
0.0525149
0.343322
0.0550743
0.347594
0.0574571
0.35215
0.0596517
0.356985
0.0616467
0.362092
0.0634308
0.367459
0.0649937
0.37307
0.0663264
0.378906
0.0674218
0.384945
0.0682749
0.391159
0.0688836
0.397518
0.0692482
0.40399
0.0693723
0.41054
0.0692628
0.417131
0.0689293
0.423728
0.0683841
0.0676452
0.430296
0.319615
0.00478536
0.320227
0.00926441
0.321122
0.0134848
0.322292
0.0174837
0.32373
0.0212886
0.325434
0.0249198
0.327402
0.0283924
0.329634
0.0317166
0.332133
0.0348984
0.334899
0.0379404
0.337936
0.0408417
0.341245
0.0435992
0.344827
0.0462074
0.348682
0.0486593
0.35281
0.0509468
0.357206
0.053061
0.361865
0.0549927
0.366779
0.056733
0.371936
0.0582736
0.377322
0.0596072
0.382921
0.0607279
0.388711
0.0616319
0.394669
0.062317
0.400768
0.0627837
0.406982
0.0630347
0.413279
0.0630754
0.419628
0.0629134
0.425999
0.0625589
0.432359
0.0620239
0.0613246
0.438679
0.327365
0.00444359
0.328028
0.00860178
0.328996
0.0125168
0.330258
0.0162217
0.331805
0.0197408
0.333633
0.023092
0.335737
0.0262884
0.338115
0.0293389
0.340765
0.0322485
0.343686
0.0350192
0.346877
0.0376504
0.350337
0.0401392
0.354064
0.0424809
0.358053
0.0446698
0.362301
0.0466992
0.3668
0.0485619
0.371542
0.0502511
0.376515
0.0517599
0.381705
0.0530827
0.387098
0.0542146
0.392674
0.0551524
0.398411
0.0558943
0.404288
0.0564406