/*--------------------------------*- C++ -*----------------------------------*\
  =========                 |
  \\      /  F ield         | OpenFOAM: The Open Source CFD Toolbox
   \\    /   O peration     | Website:  https://openfoam.org
    \\  /    A nd           | Version:  7
     \\/     M anipulation  |
\*---------------------------------------------------------------------------*/
FoamFile
{
    version     2.0;
    format      ascii;
    class       volVectorField;
    location    "3";
    object      U;
}
// * * * * * * * * * * * * * * * * * * * * * * * * * * * * * * * * * * * * * //

dimensions      [0 1 -1 0 0 0 0];

internalField   nonuniform List<vector> 
2790
(
(9.94399 0.0205239 0)
(9.87572 0.0295891 0)
(9.7752 0.0359916 0)
(9.64942 0.0425589 0)
(9.50406 0.0493887 0)
(9.34002 0.056432 0)
(9.15649 0.0638199 0)
(8.95256 0.0717158 0)
(8.72738 0.0802595 0)
(8.47999 0.0895777 0)
(8.20917 0.0997975 0)
(7.91353 0.111049 0)
(7.59156 0.123464 0)
(7.24165 0.137168 0)
(6.8622 0.152275 0)
(6.45167 0.168872 0)
(6.00875 0.186998 0)
(5.53257 0.206619 0)
(5.02286 0.22759 0)
(4.48035 0.24961 0)
(3.90707 0.272174 0)
(3.30676 0.294522 0)
(2.68524 0.315616 0)
(2.05059 0.334285 0)
(1.41178 0.350602 0)
(0.798032 0.37288 0)
(0.11072 0.325054 0)
(-0.469537 -0.114849 0)
(-0.453768 -0.297129 0)
(-0.231151 -0.423837 0)
(9.9985 0.0407052 0)
(9.98145 0.0623871 0)
(9.93573 0.0791464 0)
(9.86414 0.0966327 0)
(9.77094 0.115133 0)
(9.65711 0.134499 0)
(9.522 0.154986 0)
(9.36478 0.176955 0)
(9.18463 0.200719 0)
(8.98058 0.226561 0)
(8.75142 0.254755 0)
(8.49577 0.28557 0)
(8.21208 0.319257 0)
(7.8987 0.356029 0)
(7.55391 0.396024 0)
(7.17607 0.439264 0)
(6.76366 0.485592 0)
(6.31555 0.534583 0)
(5.83115 0.585455 0)
(5.31079 0.636945 0)
(4.75608 0.687193 0)
(4.17036 0.733635 0)
(3.55926 0.772941 0)
(2.93153 0.801081 0)
(2.29994 0.813739 0)
(1.69295 0.807246 0)
(1.10716 0.747247 0)
(0.658902 0.54793 0)
(0.186447 0.22461 0)
(-0.00819452 -0.453722 0)
(9.99559 0.0432107 0)
(9.97555 0.0752789 0)
(9.93179 0.103357 0)
(9.86487 0.132384 0)
(9.77775 0.163075 0)
(9.6715 0.195416 0)
(9.54582 0.229761 0)
(9.40007 0.266622 0)
(9.23357 0.306489 0)
(9.04554 0.349825 0)
(8.83498 0.397089 0)
(8.6007 0.448736 0)
(8.34133 0.505204 0)
(8.05538 0.566871 0)
(7.74125 0.634014 0)
(7.39732 0.706729 0)
(7.02199 0.78483 0)
(6.61384 0.867712 0)
(6.17184 0.954177 0)
(5.69555 1.04223 0)
(5.18556 1.12886 0)
(4.64391 1.20976 0)
(4.07476 1.27913 0)
(3.48535 1.32931 0)
(2.88684 1.35007 0)
(2.29947 1.32642 0)
(1.73185 1.22077 0)
(1.21627 0.973014 0)
(0.701151 0.570166 0)
(0.358039 -0.156536 0)
(9.99403 0.0495045 0)
(9.9718 0.0932165 0)
(9.92787 0.133587 0)
(9.86222 0.174228 0)
(9.7769 0.216455 0)
(9.67294 0.260686 0)
(9.55026 0.307456 0)
(9.40842 0.357442 0)
(9.24694 0.411317 0)
(9.06524 0.469731 0)
(8.86258 0.533325 0)
(8.63808 0.602743 0)
(8.39072 0.678607 0)
(8.11939 0.761483 0)
(7.82287 0.851822 0)
(7.49988 0.949869 0)
(7.14912 1.05553 0)
(6.76933 1.16822 0)
(6.35939 1.28657 0)
(5.91851 1.40823 0)
(5.44646 1.52943 0)
(4.94395 1.64464 0)
(4.41313 1.7461 0)
(3.85825 1.82318 0)
(3.28582 1.86133 0)
(2.70641 1.84031 0)
(2.12566 1.726 0)
(1.55427 1.47788 0)
(0.95796 1.08372 0)
(0.509431 0.50235 0)
(9.99331 0.0572203 0)
(9.96994 0.110972 0)
(9.92592 0.162123 0)
(9.86143 0.213372 0)
(9.77795 0.266385 0)
(9.6763 0.321946 0)
(9.55648 0.380736 0)
(9.41814 0.443523 0)
(9.26089 0.511091 0)
(9.08423 0.584203 0)
(8.88759 0.663617 0)
(8.67026 0.750088 0)
(8.43146 0.844353 0)
(8.17032 0.947094 0)
(7.88594 1.05888 0)
(7.57734 1.18006 0)
(7.24353 1.31066 0)
(6.88348 1.45015 0)
(6.49617 1.59718 0)
(6.08063 1.74927 0)
(5.63608 1.90235 0)
(5.16206 2.05025 0)
(4.65874 2.18411 0)
(4.1272 2.29169 0)
(3.56941 2.35652 0)
(2.98891 2.35729 0)
(2.38686 2.26495 0)
(1.76641 2.04766 0)
(1.09001 1.69143 0)
(0.536662 1.15418 0)
(9.99302 0.0655469 0)
(9.96922 0.128718 0)
(9.92555 0.190137 0)
(9.86251 0.251873 0)
(9.78125 0.315614 0)
(9.6824 0.382358 0)
(9.56595 0.452917 0)
(9.43164 0.528145 0)
(9.27911 0.608923 0)
(9.10795 0.696125 0)
(8.91765 0.790616 0)
(8.70761 0.893254 0)
(8.47714 1.00488 0)
(8.22553 1.12627 0)
(7.952 1.25809 0)
(7.65574 1.4008 0)
(7.33588 1.55451 0)
(6.9915 1.71882 0)
(6.62156 1.8925 0)
(6.2249 2.07315 0)
(5.8002 2.25677 0)
(5.34598 2.43712 0)
(4.86067 2.60511 0)
(4.34269 2.74815 0)
(3.79041 2.84949 0)
(3.2026 2.88816 0)
(2.57661 2.83822 0)
(1.9135 2.67163 0)
(1.17278 2.37404 0)
(0.549982 1.89445 0)
(9.99297 0.0740847 0)
(9.96926 0.146333 0)
(9.92636 0.217511 0)
(9.86506 0.289328 0)
(9.78639 0.363397 0)
(9.6908 0.440874 0)
(9.57828 0.522711 0)
(9.44863 0.609863 0)
(9.30155 0.703307 0)
(9.13667 0.804014 0)
(8.95352 0.912944 0)
(8.75156 1.03105 0)
(8.53019 1.15925 0)
(8.28872 1.29841 0)
(8.02643 1.4493 0)
(7.74252 1.61246 0)
(7.43613 1.78815 0)
(7.10625 1.97611 0)
(6.75167 2.17534 0)
(6.37089 2.38373 0)
(5.96201 2.59764 0)
(5.52257 2.81128 0)
(5.04949 3.01605 0)
(4.539 3.19987 0)
(3.98668 3.3466 0)
(3.38795 3.43591 0)
(2.73731 3.44329 0)
(2.03629 3.34152 0)
(1.24179 3.11363 0)
(0.563535 2.69322 0)
(9.99306 0.0825996 0)
(9.9698 0.163629 0)
(9.92806 0.244083 0)
(9.86882 0.325521 0)
(9.79309 0.409495 0)
(9.70121 0.497262 0)
(9.59316 0.589898 0)
(9.4688 0.688457 0)
(9.32786 0.794001 0)
(9.17002 0.907588 0)
(8.99489 1.03027 0)
(8.80196 1.16308 0)
(8.59065 1.30704 0)
(8.36033 1.46311 0)
(8.11027 1.63215 0)
(7.83962 1.81485 0)
(7.54743 2.01163 0)
(7.2325 2.22245 0)
(6.89335 2.44665 0)
(6.52803 2.68259 0)
(6.13398 2.92723 0)
(5.70778 3.17564 0)
(5.24493 3.42023 0)
(4.73979 3.65007 0)
(4.18552 3.85013 0)
(3.57483 4.00082 0)
(2.8996 4.07788 0)
(2.16219 4.05241 0)
(1.31618 3.90177 0)
(0.583249 3.54025 0)
(9.99326 0.0909415 0)
(9.97071 0.180434 0)
(9.93045 0.269705 0)
(9.8736 0.360289 0)
(9.80114 0.453704 0)
(9.71338 0.551273 0)
(9.61031 0.654181 0)
(9.49179 0.763567 0)
(9.35765 0.880576 0)
(9.20761 1.00635 0)
(9.04131 1.14202 0)
(8.85832 1.28872 0)
(8.6581 1.44756 0)
(8.44003 1.61961 0)
(8.20338 1.80587 0)
(7.94726 2.00719 0)
(7.67058 2.22421 0)
(7.37197 2.45721 0)
(7.04962 2.70596 0)
(6.70112 2.96944 0)
(6.32322 3.24551 0)
(5.91156 3.53037 0)
(5.46032 3.8179 0)
(4.96202 4.09882 0)
(4.40747 4.35973 0)
(3.7865 4.58201 0)
(3.08768 4.74104 0)
(2.31282 4.8045 0)
(1.41073 4.74119 0)
(0.614352 4.44207 0)
(9.99352 0.0990071 0)
(9.9719 0.196608 0)
(9.93339 0.294238 0)
(9.87922 0.393471 0)
(9.81036 0.49582 0)
(9.72711 0.602661 0)
(9.62946 0.715261 0)
(9.51732 0.834844 0)
(9.39057 0.962627 0)
(9.249 1.09983 0)
(9.0923 1.24766 0)
(8.92011 1.40736 0)
(8.73194 1.58012 0)
(8.52722 1.76714 0)
(8.30522 1.96957 0)
(8.06503 2.18847 0)
(7.8055 2.42475 0)
(7.52508 2.67909 0)
(7.22171 2.95181 0)
(6.89258 3.24267 0)
(6.53388 3.55061 0)
(6.14037 3.87329 0)
(5.705 4.20649 0)
(5.21849 4.54317 0)
(4.66907 4.87225 0)
(4.043 5.17683 0)
(3.32386 5.43225 0)
(2.50994 5.60202 0)
(1.542 5.64365 0)
(0.664124 5.41827 0)
(9.99384 0.106721 0)
(9.9733 0.212033 0)
(9.93678 0.31755 0)
(9.88555 0.424917 0)
(9.82059 0.535661 0)
(9.74219 0.651203 0)
(9.65037 0.772876 0)
(9.54508 0.901978 0)
(9.42626 1.03979 0)
(9.29376 1.18761 0)
(9.14736 1.34672 0)
(8.98676 1.51843 0)
(8.81154 1.70405 0)
(8.62121 1.90491 0)
(8.41508 2.12233 0)
(8.19227 2.35758 0)
(7.95162 2.61192 0)
(7.69153 2.88646 0)
(7.40981 3.18216 0)
(7.10342 3.49969 0)
(6.76816 3.83927 0)
(6.3982 4.2003 0)
(5.98549 4.58092 0)
(5.51909 4.97706 0)
(4.98447 5.38107 0)
(4.36344 5.77937 0)
(3.63214 6.14905 0)
(2.78038 6.45073 0)
(1.73366 6.62874 0)
(0.744944 6.50345 0)
(9.9942 0.114025 0)
(9.97486 0.226611 0)
(9.94054 0.339526 0)
(9.89249 0.454491 0)
(9.83169 0.573064 0)
(9.75845 0.696701 0)
(9.6728 0.826794 0)
(9.57478 0.964698 0)
(9.46436 1.11176 0)
(9.34147 1.26932 0)
(9.20598 1.43875 0)
(9.05767 1.62142 0)
(8.89622 1.81876 0)
(8.72122 2.03221 0)
(8.53211 2.26326 0)
(8.32808 2.51343 0)
(8.10806 2.7843 0)
(7.87052 3.07747 0)
(7.61332 3.39459 0)
(7.33346 3.7373 0)
(7.02669 4.10721 0)
(6.68697 4.50573 0)
(6.30578 4.93378 0)
(5.87107 5.3911 0)
(5.36587 5.87501 0)
(4.76711 6.37796 0)
(4.04104 6.88307 0)
(3.16185 7.35356 0)
(2.0251 7.72354 0)
(0.880927 7.75767 0)
(9.99459 0.120874 0)
(9.97656 0.240265 0)
(9.9446 0.360066 0)
(9.89992 0.482076 0)
(9.84351 0.607886 0)
(9.77569 0.738985 0)
(9.69654 0.876809 0)
(9.60612 1.02276 0)
(9.5045 1.17824 0)
(9.39169 1.34464 0)
(9.26763 1.52337 0)
(9.13221 1.71589 0)
(8.98523 1.9237 0)
(8.82642 2.14836 0)
(8.65533 2.39152 0)
(8.47136 2.65494 0)
(8.27359 2.94049 0)
(8.06074 3.25025 0)
(7.83092 3.58654 0)
(7.58146 3.95197 0)
(7.30848 4.34956 0)
(7.0064 4.78281 0)
(6.66704 5.25569 0)
(6.27841 5.7725 0)
(5.82254 6.33722 0)
(5.27274 6.95199 0)
(4.58498 7.61336 0)
(3.71056 8.30093 0)
(2.48878 8.9587 0)
(1.12484 9.29423 0)
(9.99501 0.127233 0)
(9.97837 0.252929 0)
(9.94889 0.379085 0)
(9.90776 0.50757 0)
(9.85594 0.640007 0)
(9.79375 0.777915 0)
(9.72134 0.922763 0)
(9.63882 1.07599 0)
(9.54633 1.23903 0)
(9.44396 1.41331 0)
(9.33175 1.60029 0)
(9.20972 1.80148 0)
(9.07779 2.01844 0)
(8.93585 2.25284 0)
(8.78365 2.50644 0)
(8.62081 2.7812 0)
(8.44671 3.07926 0)
(8.26041 3.40311 0)
(8.06054 3.75562 0)
(7.84504 4.14028 0)
(7.61092 4.56137 0)
(7.35373 5.02431 0)
(7.06687 5.53604 0)
(6.74026 6.10558 0)
(6.35795 6.74462 0)
(5.89435 7.4683 0)
(5.30137 8.29582 0)
(4.5098 9.24782 0)
(3.26994 10.3424 0)
(1.60579 11.361 0)
(9.99544 0.133075 0)
(9.98026 0.264552 0)
(9.95337 0.396512 0)
(9.91593 0.530879 0)
(9.86883 0.669308 0)
(9.81246 0.813337 0)
(9.74699 0.96446 0)
(9.67259 1.12414 0)
(9.58949 1.29383 0)
(9.49784 1.47499 0)
(9.39781 1.66911 0)
(9.28953 1.87771 0)
(9.17309 2.10242 0)
(9.04854 2.34495 0)
(8.91588 2.60717 0)
(8.77499 2.89116 0)
(8.62564 3.19926 0)
(8.46737 3.53424 0)
(8.29947 3.8994 0)
(8.12079 4.29883 0)
(7.92965 4.73776 0)
(7.72349 5.22302 0)
(7.49849 5.76384 0)
(7.24877 6.37304 0)
(6.96487 7.06909 0)
(6.63129 7.87983 0)
(6.21528 8.85079 0)
(5.66746 10.0651 0)
(4.6926 11.7314 0)
(2.68942 14.5965 0)
(0.154525 -0.160932 0)
(0.35187 -0.14214 0)
(0.557427 -0.114986 0)
(0.73636 -0.0913929 0)
(0.883824 -0.0726595 0)
(1.00551 -0.05802 0)
(1.10777 -0.0466438 0)
(1.19532 -0.0378498 0)
(1.27147 -0.0310295 0)
(1.3386 -0.0256394 0)
(1.39833 -0.0212372 0)
(1.45172 -0.0175161 0)
(1.49938 -0.0143014 0)
(1.54181 -0.0114512 0)
(1.5792 -0.0086703 0)
(1.61094 -0.00543149 0)
(1.6351 -0.00128823 0)
(1.64912 0.00350552 0)
(1.65202 0.00768383 0)
(1.64568 0.00976707 0)
(1.63346 0.0100893 0)
(1.61786 0.00948065 0)
(1.60039 0.008142 0)
(1.58425 0.00576486 0)
(1.57404 0.00220165 0)
(1.57501 -0.00178043 0)
(1.58936 -0.00534556 0)
(1.61653 -0.008174 0)
(1.65381 -0.00964334 0)
(1.70545 -0.00841163 0)
(0.121226 -0.348882 0)
(0.309495 -0.321461 0)
(0.4951 -0.267205 0)
(0.659097 -0.21798 0)
(0.79774 -0.178515 0)
(0.915772 -0.147612 0)
(1.01826 -0.123619 0)
(1.10895 -0.105104 0)
(1.19049 -0.0907493 0)
(1.26481 -0.0793569 0)
(1.33324 -0.0699376 0)
(1.39656 -0.0618167 0)
(1.45524 -0.0546787 0)
(1.50969 -0.0483619 0)
(1.56052 -0.0423474 0)
(1.60814 -0.0354177 0)
(1.65187 -0.0263901 0)
(1.68949 -0.0158636 0)
(1.71866 -0.00625637 0)
(1.73982 0.00103439 0)
(1.75659 0.00751146 0)
(1.76977 0.0120895 0)
(1.77964 0.0130987 0)
(1.7889 0.0101534 0)
(1.79911 0.00364268 0)
(1.81039 -0.00502327 0)
(1.82336 -0.0148274 0)
(1.83871 -0.0244441 0)
(1.85707 -0.0319225 0)
(1.88602 -0.0326193 0)
(0.0891433 -0.538036 0)
(0.245561 -0.500825 0)
(0.386984 -0.420436 0)
(0.512575 -0.346922 0)
(0.618177 -0.287755 0)
(0.708158 -0.241136 0)
(0.786202 -0.204676 0)
(0.854994 -0.17627 0)
(0.916528 -0.153993 0)
(0.97229 -0.136095 0)
(1.02328 -0.121092 0)
(1.07003 -0.107949 0)
(1.11266 -0.0962789 0)
(1.1512 -0.0861597 0)
(1.18627 -0.0772301 0)
(1.21916 -0.0674947 0)
(1.25047 -0.0537956 0)
(1.27835 -0.0362694 0)
(1.29886 -0.0216548 0)
(1.31133 -0.014899 0)
(1.32157 -0.0119541 0)
(1.32622 -0.00830333 0)
(1.31965 -0.00585572 0)
(1.30151 -0.00739256 0)
(1.27746 -0.0117961 0)
(1.25222 -0.016184 0)
(1.22468 -0.0192506 0)
(1.1942 -0.0223343 0)
(1.16522 -0.0254906 0)
(1.14546 -0.0257976 0)
(0.0598621 -0.676814 0)
(0.175424 -0.62408 0)
(0.262978 -0.520736 0)
(0.34298 -0.429097 0)
(0.407289 -0.355905 0)
(0.461033 -0.298213 0)
(0.50621 -0.253061 0)
(0.544418 -0.217824 0)
(0.576977 -0.190158 0)
(0.604953 -0.167926 0)
(0.629149 -0.149229 0)
(0.65001 -0.132617 0)
(0.667502 -0.117463 0)
(0.680525 -0.104119 0)
(0.688681 -0.0931659 0)
(0.693904 -0.0838257 0)
(0.699799 -0.0724928 0)
(0.708723 -0.0561171 0)
(0.711297 -0.0334204 0)
(0.670429 -0.0107522 0)
(0.607404 0.00445878 0)
(0.552686 0.0192818 0)
(0.505295 0.031605 0)
(0.456158 0.0359184 0)
(0.408018 0.0320079 0)
(0.366739 0.0226041 0)
(0.349645 0.011093 0)
(0.342612 -0.00142743 0)
(0.347447 -0.0165057 0)
(0.370435 -0.0352033 0)
(0.0303531 -0.768297 0)
(0.0972211 -0.695227 0)
(0.123881 -0.572465 0)
(0.153954 -0.469101 0)
(0.170677 -0.386709 0)
(0.181598 -0.321609 0)
(0.18663 -0.270539 0)
(0.186585 -0.230578 0)
(0.182202 -0.199187 0)
(0.174165 -0.174095 0)
(0.163236 -0.153195 0)
(0.150252 -0.134617 0)
(0.135924 -0.11698 0)
(0.117589 -0.0999664 0)
(0.0925401 -0.0839875 0)
(0.0564687 -0.0678104 0)
(0.00826356 -0.0470982 0)
(-0.0397164 -0.0188539 0)
(-0.088883 0.0134089 0)
(-0.109098 0.0360568 0)
(-0.133731 0.0459994 0)
(-0.155376 0.049586 0)
(-0.17444 0.051302 0)
(-0.19179 0.0475082 0)
(-0.206561 0.0358701 0)
(-0.217885 0.0183595 0)
(-0.219509 0.00086036 0)
(-0.214866 -0.0149067 0)
(-0.210033 -0.0311631 0)
(-0.207056 -0.0464437 0)
(-0.00109749 -0.804188 0)
(0.0101606 -0.707365 0)
(-0.0268483 -0.568451 0)
(-0.0509746 -0.458817 0)
(-0.0862457 -0.371004 0)
(-0.123422 -0.301932 0)
(-0.163928 -0.247849 0)
(-0.207078 -0.205493 0)
(-0.252482 -0.171989 0)
(-0.299759 -0.144915 0)
(-0.348227 -0.122225 0)
(-0.396778 -0.102239 0)
(-0.444121 -0.083755 0)
(-0.48916 -0.0662086 0)
(-0.531148 -0.0495187 0)
(-0.569834 -0.0335696 0)
(-0.604876 -0.0179231 0)
(-0.635573 -0.00105872 0)
(-0.651623 0.0157847 0)
(-0.664113 0.0326186 0)
(-0.673658 0.0461052 0)
(-0.68037 0.0527464 0)
(-0.684036 0.0539509 0)
(-0.68551 0.0494681 0)
(-0.686463 0.0385145 0)
(-0.688329 0.0228668 0)
(-0.69044 0.00538188 0)
(-0.690266 -0.0127624 0)
(-0.692659 -0.0304231 0)
(-0.696882 -0.0449796 0)
(-0.0379313 -0.776132 0)
(-0.0877842 -0.653878 0)
(-0.184536 -0.510953 0)
(-0.267404 -0.400196 0)
(-0.353797 -0.3128 0)
(-0.43799 -0.244983 0)
(-0.519445 -0.192652 0)
(-0.597006 -0.152586 0)
(-0.669688 -0.121943 0)
(-0.736848 -0.0983102 0)
(-0.798129 -0.0796673 0)
(-0.853351 -0.0642996 0)
(-0.90248 -0.0507942 0)
(-0.945709 -0.0380966 0)
(-0.983482 -0.0255414 0)
(-1.01622 -0.0127433 0)
(-1.04397 0.000462898 0)
(-1.06299 0.0138614 0)
(-1.07603 0.0272152 0)
(-1.08411 0.0394236 0)
(-1.08795 0.0484973 0)
(-1.08858 0.0531882 0)
(-1.08674 0.0532018 0)
(-1.08365 0.0479392 0)
(-1.08107 0.036986 0)
(-1.08047 0.0217506 0)
(-1.08188 0.00478412 0)
(-1.08429 -0.0124373 0)
(-1.08968 -0.0299127 0)
(-1.09486 -0.044108 0)
(-0.0808153 -0.682971 0)
(-0.189554 -0.542524 0)
(-0.344615 -0.401216 0)
(-0.481664 -0.295623 0)
(-0.611682 -0.216483 0)
(-0.73008 -0.158001 0)
(-0.836283 -0.115079 0)
(-0.930437 -0.0840061 0)
(-1.01319 -0.0618738 0)
(-1.08552 -0.0461079 0)
(-1.14852 -0.034585 0)
(-1.20318 -0.0256434 0)
(-1.2503 -0.0180265 0)
(-1.29053 -0.0108432 0)
(-1.32416 -0.00352384 0)
(-1.35166 0.00434476 0)
(-1.37312 0.0130111 0)
(-1.39007 0.0226771 0)
(-1.40211 0.0328747 0)
(-1.40907 0.0421415 0)
(-1.4116 0.0488615 0)
(-1.41082 0.0520996 0)
(-1.4079 0.0513394 0)
(-1.4042 0.0460255 0)
(-1.40136 0.0359739 0)
(-1.40074 0.0222003 0)
(-1.40292 0.00642772 0)
(-1.40736 -0.010285 0)
(-1.41457 -0.027217 0)
(-1.41997 -0.0404266 0)
(-0.129928 -0.525741 0)
(-0.29736 -0.376528 0)
(-0.507006 -0.24755 0)
(-0.689426 -0.157977 0)
(-0.853295 -0.0945697 0)
(-0.99537 -0.0514125 0)
(-1.11523 -0.0240438 0)
(-1.21409 -0.00800246 0)
(-1.29619 0.00115376 0)
(-1.36484 0.00615426 0)
(-1.42275 0.00882567 0)
(-1.47189 0.0104075 0)
(-1.51365 0.0117849 0)
(-1.54897 0.0136205 0)
(-1.57896 0.016424 0)
(-1.60435 0.0204545 0)
(-1.62549 0.025739 0)
(-1.64228 0.0320721 0)
(-1.65436 0.0388143 0)
(-1.66167 0.0449307 0)
(-1.66477 0.0492824 0)
(-1.66474 0.0510391 0)
(-1.66286 0.0495755 0)
(-1.66052 0.0443237 0)
(-1.65919 0.0351282 0)
(-1.66011 0.0227143 0)
(-1.66406 0.00832682 0)
(-1.67088 -0.00719564 0)
(-1.67998 -0.0230377 0)
(-1.68579 -0.0349796 0)
(-0.18981 -0.315811 0)
(-0.426816 -0.170357 0)
(-0.692688 -0.0421041 0)
(-0.89862 0.0217642 0)
(-1.06744 0.0523593 0)
(-1.20428 0.0644499 0)
(-1.31658 0.0668044 0)
(-1.41084 0.0645508 0)
(-1.49014 0.0598793 0)
(-1.55721 0.0542782 0)
(-1.61428 0.0487037 0)
(-1.66305 0.0436818 0)
(-1.70472 0.0395566 0)
(-1.74019 0.0367202 0)
(-1.77027 0.0355469 0)
(-1.79573 0.0361652 0)
(-1.81707 0.0383627 0)
(-1.83432 0.041634 0)
(-1.84722 0.0452623 0)
(-1.85572 0.0484812 0)
(-1.86034 0.0505808 0)
(-1.86211 0.0509455 0)
(-1.86236 0.0489388 0)
(-1.86248 0.0439272 0)
(-1.86371 0.0356415 0)
(-1.86712 0.0245138 0)
(-1.87355 0.0114214 0)
(-1.88302 -0.00293116 0)
(-1.89411 -0.0176094 0)
(-1.90046 -0.0284627 0)
(-0.2594 0.0289061 0)
(-0.532594 0.156735 0)
(-0.806549 0.186068 0)
(-1.02076 0.193692 0)
(-1.19643 0.186706 0)
(-1.33994 0.172286 0)
(-1.45743 0.154902 0)
(-1.55407 0.13681 0)
(-1.63405 0.119275 0)
(-1.70086 0.103291 0)
(-1.75732 0.0894187 0)
(-1.8055 0.0776526 0)
(-1.84666 0.0678244 0)
(-1.88165 0.0600811 0)
(-1.91133 0.0547934 0)
(-1.93667 0.0520407 0)
(-1.95835 0.0513325 0)
(-1.97649 0.051797 0)
(-1.99076 0.0525792 0)
(-2.00099 0.05312 0)
(-2.00761 0.0531098 0)
(-2.01169 0.052208 0)
(-2.01464 0.0498078 0)
(-2.01778 0.0451483 0)
(-2.02214 0.0377502 0)
(-2.02858 0.0277736 0)
(-2.03795 0.0158584 0)
(-2.05046 0.00262035 0)
(-2.06339 -0.0109694 0)
(-2.07038 -0.0209612 0)
(-0.287283 0.401445 0)
(-0.589388 0.44785 0)
(-0.897976 0.422863 0)
(-1.13137 0.380376 0)
(-1.31489 0.33303 0)
(-1.45943 0.286957 0)
(-1.5747 0.24538 0)
(-1.66801 0.209081 0)
(-1.74447 0.177583 0)
(-1.80787 0.15083 0)
(-1.86144 0.128803 0)
(-1.90755 0.11069 0)
(-1.94731 0.095476 0)
(-1.98118 0.082986 0)
(-2.00998 0.0737636 0)
(-2.03495 0.06798 0)
(-2.05707 0.0648117 0)
(-2.07646 0.0628757 0)
(-2.09253 0.0610767 0)
(-2.10482 0.0590735 0)
(-2.11363 0.0570448 0)
(-2.12017 0.0550165 0)
(-2.12604 0.0524111 0)
(-2.13253 0.0482415 0)
(-2.14044 0.0417196 0)
(-2.15033 0.0327368 0)
(-2.16296 0.0217887 0)
(-2.1785 0.0094836 0)
(-2.19347 -0.00311841 0)
(-2.20118 -0.0123901 0)
(-0.333523 0.819171 0)
(-0.686124 0.800238 0)
(-1.02529 0.685265 0)
(-1.26097 0.572533 0)
(-1.43675 0.477172 0)
(-1.5704 0.39647 0)
(-1.67449 0.330074 0)
(-1.75817 0.276324 0)
(-1.82677 0.231695 0)
(-1.88356 0.194774 0)
(-1.93196 0.165463 0)
(-1.97473 0.142049 0)
(-2.01251 0.122116 0)
(-2.04488 0.105079 0)
(-2.07234 0.0921001 0)
(-2.09662 0.0837876 0)
(-2.11926 0.0788588 0)
(-2.14033 0.0750877 0)
(-2.1587 0.0709571 0)
(-2.17331 0.0664167 0)
(-2.18433 0.0623641 0)
(-2.19328 0.0593634 0)
(-2.20209 0.0568299 0)
(-2.21214 0.0533781 0)
(-2.22392 0.0477682 0)
(-2.23757 0.0395976 0)
(-2.25362 0.029323 0)
(-2.27224 0.0177384 0)
(-2.28969 0.00603879 0)
(-2.29793 -0.00256763 0)
(-0.425332 1.32027 0)
(-0.855035 1.20441 0)
(-1.21499 0.955384 0)
(-1.42371 0.749464 0)
(-1.56851 0.605159 0)
(-1.67686 0.490669 0)
(-1.75948 0.401593 0)
(-1.82689 0.334421 0)
(-1.88392 0.279482 0)
(-1.93133 0.233341 0)
(-1.97236 0.19802 0)
(-2.01085 0.171169 0)
(-2.04673 0.147678 0)
(-2.07758 0.126237 0)
(-2.10316 0.109525 0)
(-2.12625 0.0993761 0)
(-2.14951 0.0937642 0)
(-2.17293 0.0889385 0)
(-2.19429 0.0826641 0)
(-2.21153 0.0753566 0)
(-2.22461 0.0690738 0)
(-2.23564 0.0652297 0)
(-2.24727 0.0631411 0)
(-2.26102 0.0607255 0)
(-2.27699 0.0560834 0)
(-2.29472 0.0484913 0)
(-2.31437 0.0385124 0)
(-2.33606 0.027369 0)
(-2.35589 0.0164871 0)
(-2.36535 0.00864938 0)
(-0.616919 2.21286 0)
(-1.13729 1.81922 0)
(-1.50671 1.24508 0)
(-1.6337 0.85917 0)
(-1.70942 0.69179 0)
(-1.77788 0.561525 0)
(-1.82785 0.456248 0)
(-1.87263 0.381367 0)
(-1.9169 0.31885 0)
(-1.95355 0.26271 0)
(-1.98464 0.223261 0)
(-2.01808 0.197258 0)
(-2.05313 0.172781 0)
(-2.0831 0.146792 0)
(-2.10608 0.125565 0)
(-2.12703 0.11428 0)
(-2.15102 0.10959 0)
(-2.17782 0.104776 0)
(-2.20325 0.0964183 0)
(-2.22348 0.0857342 0)
(-2.23819 0.076698 0)
(-2.25061 0.0721435 0)
(-2.26467 0.0711037 0)
(-2.28219 0.0702614 0)
(-2.30263 0.0667566 0)
(-2.32463 0.0595217 0)
(-2.34776 0.0493897 0)
(-2.37204 0.0383269 0)
(-2.39368 0.0282518 0)
(-2.40387 0.0212992 0)
(9.9959 0.138472 0)
(9.98224 0.275291 0)
(9.95809 0.412601 0)
(9.9245 0.552372 0)
(9.88237 0.69628 0)
(9.83209 0.845877 0)
(9.77389 1.00267 0)
(9.70802 1.16813 0)
(9.63477 1.34373 0)
(9.55439 1.53092 0)
(9.46717 1.7312 0)
(9.37337 1.94612 0)
(9.27325 2.1773 0)
(9.16707 2.42649 0)
(9.05509 2.69559 0)
(8.93752 2.98674 0)
(8.81456 3.3024 0)
(8.68634 3.64544 0)
(8.55294 4.01939 0)
(8.41436 4.42861 0)
(8.27054 4.87875 0)
(8.12138 5.37726 0)
(7.96682 5.93431 0)
(7.80718 6.56425 0)
(7.64368 7.28817 0)
(7.48138 8.13864 0)
(7.33368 9.16968 0)
(7.291 10.4749 0)
(7.75285 12.1993 0)
(7.94232 14.9192 0)
(9.99638 0.143434 0)
(9.98433 0.28515 0)
(9.96303 0.427336 0)
(9.93348 0.571991 0)
(9.89651 0.720806 0)
(9.85254 0.875338 0)
(9.80187 1.0371 0)
(9.74479 1.20755 0)
(9.68167 1.38817 0)
(9.61289 1.5804 0)
(9.53883 1.78571 0)
(9.4599 2.00565 0)
(9.37655 2.24182 0)
(9.28925 2.49594 0)
(9.19853 2.7699 0)
(9.10496 3.06581 0)
(9.0092 3.3861 0)
(8.912 3.73362 0)
(8.81428 4.1118 0)
(8.71722 4.52491 0)
(8.62243 4.97836 0)
(8.53228 5.47917 0)
(8.45051 6.03666 0)
(8.3834 6.66339 0)
(8.34215 7.37656 0)
(8.34891 8.19956 0)
(8.44265 9.16244 0)
(8.67941 10.2983 0)
(9.32828 11.5514 0)
(9.8215 12.6348 0)
(9.99688 0.147874 0)
(9.9865 0.293966 0)
(9.96817 0.440494 0)
(9.94279 0.58947 0)
(9.91115 0.742591 0)
(9.87369 0.901407 0)
(9.83075 1.06741 0)
(9.78269 1.24207 0)
(9.72996 1.42681 0)
(9.67301 1.62306 0)
(9.61237 1.83226 0)
(9.54857 2.05589 0)
(9.48225 2.29551 0)
(9.4141 2.55278 0)
(9.34492 2.82948 0)
(9.27562 3.12764 0)
(9.20732 3.4495 0)
(9.14133 3.79771 0)
(9.07937 4.17537 0)
(9.02364 4.58625 0)
(8.97716 5.03493 0)
(8.94422 5.52709 0)
(8.93111 6.06968 0)
(8.94736 6.67108 0)
(9.00749 7.34069 0)
(9.13364 8.08708 0)
(9.35682 8.91199 0)
(9.68644 9.80408 0)
(10.2519 10.7116 0)
(10.9389 11.4235 0)
(9.9974 0.151738 0)
(9.98873 0.301633 0)
(9.97345 0.451908 0)
(9.95235 0.604579 0)
(9.92617 0.761334 0)
(9.89536 0.923707 0)
(9.8603 1.09317 0)
(9.82143 1.27115 0)
(9.77924 1.45904 0)
(9.73429 1.65821 0)
(9.6872 1.87006 0)
(9.63865 2.09598 0)
(9.58944 2.33743 0)
(9.54046 2.59596 0)
(9.49276 2.87322 0)
(9.44756 3.171 0)
(9.40637 3.49131 0)
(9.371 3.8364 0)
(9.34376 4.20886 0)
(9.32761 4.61165 0)
(9.32648 5.04816 0)
(9.34568 5.52222 0)
(9.39244 6.03795 0)
(9.47669 6.59927 0)
(9.61159 7.20893 0)
(9.81397 7.86654 0)
(10.1065 8.56491 0)
(10.4978 9.28927 0)
(11.0545 10.0294 0)
(11.8463 10.6722 0)
(9.99792 0.15498 0)
(9.991 0.308057 0)
(9.97882 0.461443 0)
(9.96208 0.617141 0)
(9.94144 0.776817 0)
(9.91737 0.941978 0)
(9.89028 1.11406 0)
(9.86066 1.29444 0)
(9.82908 1.48446 0)
(9.79617 1.68542 0)
(9.76263 1.89862 0)
(9.72928 2.12538 0)
(9.69704 2.36701 0)
(9.66699 2.62489 0)
(9.64037 2.90048 0)
(9.61868 3.19531 0)
(9.60369 3.51102 0)
(9.59758 3.8494 0)
(9.60303 4.21235 0)
(9.62344 4.60191 0)
(9.66312 5.02019 0)
(9.72759 5.46918 0)
(9.82392 5.95048 0)
(9.96105 6.46477 0)
(10.15 7.01094 0)
(10.4039 7.58509 0)
(10.7399 8.17907 0)
(11.1695 8.77817 0)
(11.7158 9.37083 0)
(12.4672 9.88222 0)
(9.99845 0.157556 0)
(9.99329 0.313153 0)
(9.98425 0.468973 0)
(9.9719 0.626989 0)
(9.95684 0.788837 0)
(9.93953 0.95598 0)
(9.92042 1.12981 0)
(9.90006 1.31163 0)
(9.87904 1.50273 0)
(9.85807 1.70432 0)
(9.83794 1.91759 0)
(9.81955 2.14371 0)
(9.80393 2.38387 0)
(9.7923 2.63925 0)
(9.78605 2.91104 0)
(9.78684 3.20047 0)
(9.79663 3.50877 0)
(9.81779 3.8372 0)
(9.85317 4.18697 0)
(9.90627 4.5592 0)
(9.98137 4.95479 0)
(10.0837 5.37419 0)
(10.2195 5.81713 0)
(10.3964 6.28216 0)
(10.6232 6.76599 0)
(10.9095 7.26286 0)
(11.2664 7.76352 0)
(11.702 8.25245 0)
(12.217 8.71295 0)
(12.8911 9.10357 0)
(9.99898 0.159429 0)
(9.99559 0.316844 0)
(9.98969 0.474383 0)
(9.98172 0.633976 0)
(9.97222 0.797212 0)
(9.96164 0.965503 0)
(9.95047 1.14017 0)
(9.93926 1.32248 0)
(9.92866 1.51359 0)
(9.91942 1.71462 0)
(9.91239 1.92666 0)
(9.90854 2.15072 0)
(9.90898 2.38782 0)
(9.91499 2.6389 0)
(9.92808 2.9049 0)
(9.94997 3.1867 0)
(9.98271 3.48514 0)
(10.0287 3.80091 0)
(10.0907 4.13458 0)
(10.1722 4.48645 0)
(10.2771 4.85641 0)
(10.4099 5.24376 0)
(10.5759 5.64691 0)
(10.7811 6.06305 0)
(11.0319 6.48769 0)
(11.3346 6.91415 0)
(11.6953 7.33308 0)
(12.1182 7.73109 0)
(12.5971 8.09363 0)
(13.2009 8.40026 0)
(9.99951 0.160562 0)
(9.99788 0.319064 0)
(9.99508 0.477578 0)
(9.99147 0.637976 0)
(9.98747 0.801791 0)
(9.98353 0.970374 0)
(9.98014 1.14498 0)
(9.9779 1.32676 0)
(9.97747 1.51682 0)
(9.97962 1.71615 0)
(9.98524 1.92569 0)
(9.99533 2.14631 0)
(10.0111 2.37882 0)
(10.0337 2.62395 0)
(10.0649 2.88236 0)
(10.1062 3.15461 0)
(10.1597 3.4411 0)
(10.2278 3.74207 0)
(10.313 4.0575 0)
(10.4184 4.38701 0)
(10.5474 4.72974 0)
(10.7038 5.08417 0)
(10.8918 5.4479 0)
(11.1156 5.81742 0)
(11.3796 6.18783 0)
(11.6874 6.55257 0)
(12.042 6.9034 0)
(12.4448 7.23 0)
(12.8881 7.52128 0)
(13.4298 7.76598 0)
(10 0.16093 0)
(10.0001 0.319758 0)
(10.0004 0.478477 0)
(10.001 0.638889 0)
(10.0024 0.802458 0)
(10.005 0.970464 0)
(10.0092 1.14408 0)
(10.0156 1.32437 0)
(10.025 1.51232 0)
(10.0381 1.70881 0)
(10.0558 1.91464 0)
(10.0791 2.13052 0)
(10.1091 2.35705 0)
(10.1473 2.59475 0)
(10.195 2.84401 0)
(10.2539 3.10506 0)
(10.3259 3.37797 0)
(10.4131 3.66256 0)
(10.5179 3.95832 0)
(10.6429 4.2644 0)
(10.7908 4.57939 0)
(10.9647 4.90128 0)
(11.1676 5.22728 0)
(11.4024 5.55368 0)
(11.6717 5.87575 0)
(11.9773 6.18764 0)
(12.3201 6.48249 0)
(12.6997 6.75251 0)
(13.1086 6.98936 0)
(13.5954 7.18624 0)
(10.0005 0.16051 0)
(10.0023 0.318882 0)
(10.0056 0.477019 0)
(10.0104 0.636639 0)
(10.017 0.799128 0)
(10.0258 0.965687 0)
(10.0373 1.1374 0)
(10.0521 1.31523 0)
(10.0709 1.50006 0)
(10.0943 1.69264 0)
(10.1233 1.89362 0)
(10.159 2.10354 0)
(10.2023 2.32284 0)
(10.2546 2.55182 0)
(10.3172 2.79061 0)
(10.3916 3.03919 0)
(10.4797 3.29731 0)
(10.5832 3.56446 0)
(10.7041 3.8398 0)
(10.8445 4.12211 0)
(11.0067 4.4097 0)
(11.1929 4.70032 0)
(11.405 4.99108 0)
(11.6449 5.27843 0)
(11.9138 5.55806 0)
(12.2124 5.82502 0)
(12.5403 6.07379 0)
(12.896 6.29849 0)
(13.2725 6.4931 0)
(13.7116 6.65348 0)
(10.001 0.159287 0)
(10.0044 0.31641 0)
(10.0106 0.473166 0)
(10.0194 0.631181 0)
(10.031 0.791756 0)
(10.0459 0.956005 0)
(10.0643 1.12491 0)
(10.087 1.29936 0)
(10.1146 1.48009 0)
(10.1478 1.66773 0)
(10.1874 1.86282 0)
(10.2343 2.06572 0)
(10.2897 2.2767 0)
(10.3547 2.49586 0)
(10.4305 2.72314 0)
(10.5184 2.95828 0)
(10.6201 3.2008 0)
(10.737 3.44994 0)
(10.8708 3.70464 0)
(11.023 3.96347 0)
(11.1954 4.22461 0)
(11.3894 4.48577 0)
(11.6062 4.74419 0)
(11.8468 4.99661 0)
(12.1116 5.23933 0)
(12.4002 5.46827 0)
(12.7116 5.67909 0)
(13.0439 5.86746 0)
(13.391 6.02916 0)
(13.7892 6.16168 0)
(10.0015 0.157253 0)
(10.0065 0.312325 0)
(10.0153 0.466899 0)
(10.028 0.622498 0)
(10.0444 0.780333 0)
(10.0649 0.941425 0)
(10.09 1.10667 0)
(10.1201 1.27682 0)
(10.1559 1.45254 0)
(10.1981 1.63433 0)
(10.2473 1.82256 0)
(10.3046 2.0175 0)
(10.3708 2.21924 0)
(10.4469 2.42771 0)
(10.5341 2.64269 0)
(10.6336 2.86374 0)
(10.7466 3.09021 0)
(10.8742 3.32117 0)
(11.0179 3.55545 0)
(11.1787 3.79152 0)
(11.3578 4.02757 0)
(11.5561 4.2614 0)
(11.7741 4.49048 0)
(12.0123 4.71197 0)
(12.2702 4.92277 0)
(12.5473 5.11959 0)
(12.8419 5.29914 0)
(13.1521 5.45826 0)
(13.4725 5.59404 0)
(13.8356 5.70498 0)
(10.0019 0.154408 0)
(10.0084 0.306627 0)
(10.0199 0.458221 0)
(10.0361 0.610602 0)
(10.0571 0.764887 0)
(10.0829 0.922003 0)
(10.1141 1.08274 0)
(10.1511 1.24778 0)
(10.1945 1.41763 0)
(10.2448 1.59271 0)
(10.3028 1.77327 0)
(10.3692 1.95944 0)
(10.4449 2.15118 0)
(10.5308 2.3483 0)
(10.6277 2.55043 0)
(10.7368 2.75701 0)
(10.8588 2.96728 0)
(10.9948 3.18023 0)
(11.1457 3.39463 0)
(11.3123 3.60898 0)
(11.4952 3.82153 0)
(11.695 4.03027 0)
(11.9116 4.23298 0)
(12.1451 4.42723 0)
(12.3947 4.6105 0)
(12.6593 4.7802 0)
(12.9375 4.93387 0)
(13.2271 5.06923 0)
(13.5238 5.18431 0)
(13.8566 5.27826 0)
(10.0024 0.150757 0)
(10.0102 0.299329 0)
(10.0241 0.447155 0)
(10.0437 0.595533 0)
(10.0689 0.745483 0)
(10.0997 0.897837 0)
(10.1365 1.05329 0)
(10.1798 1.21242 0)
(10.2301 1.37564 0)
(10.2878 1.54326 0)
(10.3536 1.71543 0)
(10.428 1.89216 0)
(10.512 2.07332 0)
(10.6061 2.25861 0)
(10.7111 2.44756 0)
(10.8278 2.63954 0)
(10.9569 2.83372 0)
(11.0991 3.02908 0)
(11.2549 3.22438 0)
(11.4249 3.41822 0)
(11.6094 3.60898 0)
(11.8084 3.79488 0)
(12.0218 3.974 0)
(12.249 4.14435 0)
(12.4893 4.30388 0)
(12.7414 4.45062 0)
(13.0038 4.58273 0)
(13.2747 4.69861 0)
(13.5502 4.79693 0)
(13.8566 4.87726 0)
(10.0027 0.146312 0)
(10.0119 0.290458 0)
(10.0281 0.433745 0)
(10.0508 0.577358 0)
(10.0798 0.722217 0)
(10.1152 0.869062 0)
(10.1572 1.0185 0)
(10.2062 1.171 0)
(10.2626 1.3269 0)
(10.3268 1.4864 0)
(10.3994 1.64958 0)
(10.4808 1.81635 0)
(10.5717 1.9865 0)
(10.6727 2.15965 0)
(10.7842 2.33529 0)
(10.9069 2.51273 0)
(11.0413 2.69113 0)
(11.1877 2.86948 0)
(11.3466 3.04664 0)
(11.5181 3.22128 0)
(11.7023 3.39197 0)
(11.8989 3.55718 0)
(12.1076 3.71528 0)
(12.3277 3.86465 0)
(12.5582 4.0037 0)
(12.7981 4.13091 0)
(13.0456 4.24493 0)
(13.2993 4.34466 0)
(13.5559 4.42923 0)
(13.8395 4.49848 0)
(10.0031 0.141092 0)
(10.0134 0.28005 0)
(10.0317 0.418052 0)
(10.0573 0.556166 0)
(10.0898 0.695217 0)
(10.1293 0.835852 0)
(10.1759 0.978588 0)
(10.23 1.12381 0)
(10.2918 1.27178 0)
(10.3617 1.42262 0)
(10.4402 1.57631 0)
(10.5275 1.73272 0)
(10.6242 1.89157 0)
(10.7307 2.05243 0)
(10.8473 2.21477 0)
(10.9745 2.37789 0)
(11.1126 2.54096 0)
(11.2617 2.70305 0)
(11.422 2.86307 0)
(11.5934 3.01987 0)
(11.7758 3.17217 0)
(11.9689 3.31869 0)
(12.172 3.45808 0)
(12.3844 3.58904 0)
(12.6052 3.71034 0)
(12.8331 3.82084 0)
(13.0669 3.91958 0)
(13.3049 4.00579 0)
(13.5446 4.07892 0)
(13.8082 4.13897 0)
(10.0034 0.135121 0)
(10.0148 0.268154 0)
(10.035 0.400151 0)
(10.0632 0.532068 0)
(10.0988 0.664631 0)
(10.142 0.798404 0)
(10.1927 0.933821 0)
(10.2513 1.07119 0)
(10.3178 1.2107 0)