/*--------------------------------*- C++ -*----------------------------------*\
  =========                 |
  \\      /  F ield         | OpenFOAM: The Open Source CFD Toolbox
   \\    /   O peration     | Website:  https://openfoam.org
    \\  /    A nd           | Version:  7
     \\/     M anipulation  |
\*---------------------------------------------------------------------------*/
FoamFile
{
    version     2.0;
    format      ascii;
    class       surfaceVectorField;
    location    "3";
    object      Uf;
}
// * * * * * * * * * * * * * * * * * * * * * * * * * * * * * * * * * * * * * //

dimensions      [0 1 -1 0 0 0 0];

internalField   nonuniform List<vector> 
5457
(
(9.92088 0.0251107 0)
(9.97124 0.0387473 0)
(9.82401 0.0328286 0)
(9.92858 0.0485881 0)
(9.7096 0.0393145 0)
(9.85546 0.0587724 0)
(9.57541 0.0460146 0)
(9.75678 0.0705988 0)
(9.42134 0.0529524 0)
(9.6375 0.0830198 0)
(9.24749 0.0601701 0)
(9.49857 0.0959437 0)
(9.05356 0.067815 0)
(9.33924 0.10962 0)
(8.83885 0.0760387 0)
(9.15867 0.124297 0)
(8.60243 0.0849743 0)
(8.95601 0.140175 0)
(8.34316 0.0947487 0)
(8.73028 0.157441 0)
(8.05973 0.105491 0)
(8.4803 0.176277 0)
(7.75068 0.117331 0)
(8.20465 0.196863 0)
(7.41443 0.130398 0)
(7.90182 0.219366 0)
(7.04937 0.144812 0)
(7.57018 0.243926 0)
(6.6539 0.160673 0)
(7.20806 0.270634 0)
(6.22659 0.178043 0)
(6.81387 0.2995 0)
(5.76631 0.196926 0)
(6.38621 0.330411 0)
(5.27247 0.21723 0)
(5.92406 0.363079 0)
(4.74528 0.238731 0)
(5.427 0.396969 0)
(4.18613 0.261027 0)
(4.89557 0.431228 0)
(3.59792 0.283482 0)
(4.33158 0.464609 0)
(2.98552 0.305195 0)
(3.73856 0.495413 0)
(2.3561 0.325062 0)
(3.12225 0.521501 0)
(1.7191 0.342541 0)
(2.49106 0.540546 0)
(1.08436 0.361874 0)
(1.85586 0.551663 0)
(0.451858 0.348681 0)
(1.24549 0.563011 0)
(-0.145812 0.102474 0)
(0.608942 0.544875 0)
(-0.4236 -0.207078 0)
(0.0946828 0.259376 0)
(-0.402143 -0.36124 0)
(-0.133661 -0.0205196 0)
(-0.119673 -0.393874 0)
(9.99641 0.0516757 0)
(9.99705 0.0405076 0)
(9.95878 0.0708669 0)
(9.9785 0.0674603 0)
(9.89823 0.087994 0)
(9.93376 0.0898785 0)
(9.81656 0.105994 0)
(9.86451 0.113566 0)
(9.71355 0.124932 0)
(9.77434 0.138528 0)
(9.58903 0.144865 0)
(9.66431 0.164661 0)
(9.44268 0.166102 0)
(9.53391 0.192347 0)
(9.27382 0.188979 0)
(9.38242 0.222047 0)
(9.08157 0.213794 0)
(9.2091 0.254165 0)
(8.86479 0.240826 0)
(9.01306 0.289079 0)
(8.62218 0.270346 0)
(8.7932 0.327167 0)
(8.35226 0.302615 0)
(8.54824 0.368798 0)
(8.05343 0.337863 0)
(8.2767 0.414326 0)
(7.72398 0.376265 0)
(7.97704 0.464053 0)
(7.36224 0.417903 0)
(7.64758 0.518192 0)
(6.96659 0.462705 0)
(7.28669 0.576805 0)
(6.53571 0.51038 0)
(6.89282 0.63972 0)
(6.06872 0.560323 0)
(6.46469 0.706417 0)
(5.5655 0.611508 0)
(6.00149 0.775894 0)
(5.02702 0.662369 0)
(5.50317 0.846505 0)
(4.45582 0.710691 0)
(4.97082 0.915784 0)
(3.85645 0.753522 0)
(4.40713 0.980283 0)
(3.23617 0.787179 0)
(3.81701 1.03543 0)
(2.60581 0.807486 0)
(3.20844 1.07546 0)
(1.9828 0.810453 0)
(2.59339 1.09313 0)
(1.40529 0.776888 0)
(1.99621 1.07707 0)
(0.929761 0.646398 0)
(1.41951 0.978403 0)
(0.439865 0.384338 0)
(0.937584 0.716802 0)
(0.0591772 -0.118609 0)
(0.443799 0.343534 0)
(0.174922 -0.335914 0)
(9.98903 0.0594364 0)
(9.99481 0.0458819 0)
(9.95433 0.0894855 0)
(9.97368 0.084863 0)
(9.89728 0.118044 0)
(9.92983 0.119186 0)
(9.82044 0.147913 0)
(9.86355 0.153992 0)
(9.72412 0.179439 0)
(9.77732 0.190427 0)
(9.60816 0.212794 0)
(9.67222 0.228658 0)
(9.47228 0.248412 0)
(9.54804 0.269152 0)
(9.31599 0.286794 0)
(9.40424 0.31252 0)
(9.13859 0.328416 0)
(9.24026 0.359349 0)
(8.93914 0.373739 0)
(9.05539 0.410196 0)
(8.71653 0.423221 0)
(8.84878 0.465618 0)
(8.46947 0.477307 0)
(8.61939 0.526169 0)
(8.19655 0.536406 0)
(8.36602 0.592384 0)
(7.89619 0.600844 0)
(8.08738 0.664744 0)
(7.56678 0.670806 0)
(7.78206 0.743617 0)
(7.20671 0.746246 0)
(7.4486 0.829181 0)
(6.81444 0.826766 0)
(7.08555 0.921303 0)
(6.38876 0.911461 0)
(6.69158 1.01938 0)
(5.92894 0.998731 0)
(6.26561 1.12214 0)
(5.43506 1.08606 0)
(5.80703 1.22739 0)
(4.90849 1.16979 0)
(5.31601 1.33171 0)
(4.35239 1.24486 0)
(4.79393 1.43015 0)
(3.77257 1.30452 0)
(4.24394 1.51584 0)
(3.17872 1.33981 0)
(3.6718 1.57939 0)
(2.58664 1.3381 0)
(3.08633 1.60772 0)
(2.01988 1.27296 0)
(2.50294 1.58156 0)
(1.48696 1.09541 0)
(1.92876 1.46424 0)
(0.958312 0.769183 0)
(1.38527 1.21041 0)
(0.479884 0.202473 0)
(0.829556 0.801058 0)
(0.433735 0.134102 0)
(9.98515 0.0716216 0)
(9.99367 0.0531538 0)
(9.95038 0.113643 0)
(9.97087 0.102303 0)
(9.89435 0.15415 0)
(9.92689 0.147971 0)
(9.81879 0.195594 0)
(9.86183 0.193743 0)
(9.72438 0.238835 0)
(9.77743 0.241303 0)
(9.61107 0.28435 0)
(9.67462 0.291192 0)
(9.47867 0.332748 0)
(9.55337 0.343986 0)
(9.32687 0.384702 0)
(9.41328 0.400404 0)
(9.15513 0.440873 0)
(9.25391 0.461171 0)
(8.9628 0.501908 0)
(9.07473 0.526991 0)
(8.74905 0.568449 0)
(8.87508 0.598562 0)
(8.51291 0.641128 0)
(8.65417 0.676584 0)
(8.25333 0.72054 0)
(8.41109 0.761736 0)
(7.96912 0.807193 0)
(8.14486 0.854644 0)
(7.65904 0.901432 0)
(7.8544 0.955818 0)
(7.32179 1.00333 0)
(7.53861 1.06556 0)
(6.95608 1.11255 0)
(7.19632 1.18383 0)
(6.56073 1.2281 0)
(6.8264 1.31005 0)
(6.13479 1.34813 0)
(6.42778 1.44288 0)
(5.67776 1.46955 0)
(5.99957 1.57985 0)
(5.18994 1.58772 0)
(5.54127 1.71703 0)
(4.67283 1.69598 0)
(5.053 1.84848 0)
(4.12978 1.7851 0)
(4.53594 1.96577 0)
(3.56665 1.84249 0)
(3.99273 2.05725 0)
(2.99206 1.85069 0)
(3.42761 2.1071 0)
(2.41587 1.78247 0)
(2.84766 2.09446 0)
(1.84057 1.60046 0)
(2.25626 1.98872 0)
(1.25941 1.27844 0)
(1.66034 1.75305 0)
(0.666785 0.789561 0)
(1.02398 1.36779 0)
(0.523046 0.787177 0)
(9.98337 0.0844174 0)
(9.99316 0.0612989 0)
(9.9482 0.136853 0)
(9.96958 0.119942 0)
(9.89313 0.188054 0)
(9.92573 0.176261 0)
(9.81903 0.240195 0)
(9.86197 0.232725 0)
(9.72659 0.294498 0)
(9.7796 0.291119 0)
(9.61584 0.351692 0)
(9.67935 0.35231 0)
(9.48664 0.412505 0)
(9.56121 0.417015 0)
(9.3387 0.477711 0)
(9.42489 0.486047 0)
(9.17161 0.548084 0)
(9.27 0.560243 0)
(8.98481 0.624384 0)
(9.09609 0.640423 0)
(8.77766 0.707369 0)
(8.90262 0.7274 0)
(8.5494 0.797783 0)
(8.68893 0.821982 0)
(8.29921 0.896337 0)
(8.4543 0.92496 0)
(8.0262 1.00365 0)
(8.19792 1.03706 0)
(7.72943 1.1202 0)
(7.91897 1.15891 0)
(7.40791 1.24614 0)
(7.61654 1.29091 0)
(7.06063 1.38124 0)
(7.28971 1.43312 0)
(6.68657 1.52454 0)
(6.93749 1.58506 0)
(6.28474 1.67414 0)
(6.55887 1.74545 0)
(5.85429 1.82673 0)
(6.15277 1.91182 0)
(5.39464 1.97719 0)
(5.71814 2.08009 0)
(4.90571 2.11798 0)
(5.25402 2.24401 0)
(4.38823 2.23854 0)
(4.75971 2.39453 0)
(3.84395 2.32449 0)
(4.23495 2.51912 0)
(3.27546 2.35691 0)
(3.67991 2.60118 0)
(2.68543 2.31057 0)
(3.09576 2.61966 0)
(2.07272 2.155 0)
(2.48173 2.5473 0)
(1.42941 1.86742 0)
(1.83996 2.35373 0)
(0.742628 1.4196 0)
(1.13139 2.02455 0)
(0.543322 1.51454 0)
(9.98264 0.0975098 0)
(9.99299 0.0698018 0)
(9.94743 0.159794 0)
(9.96924 0.137601 0)
(9.89352 0.221374 0)
(9.92595 0.203952 0)
(9.82131 0.284124 0)
(9.86378 0.270721 0)
(9.7313 0.349385 0)
(9.78382 0.339621 0)
(9.62361 0.418059 0)
(9.6866 0.41174 0)
(9.49812 0.49098 0)
(9.57211 0.487949 0)
(9.35456 0.569016 0)
(9.44013 0.569151 0)
(9.19259 0.653045 0)
(9.29033 0.65628 0)
(9.01172 0.743935 0)
(9.12231 0.750258 0)
(8.81138 0.842548 0)
(8.93559 0.851996 0)
(8.59094 0.949733 0)
(8.72958 0.962399 0)
(8.3497 1.0663 0)
(8.50366 1.08235 0)
(8.0869 1.19297 0)
(8.25712 1.21266 0)
(7.80176 1.3303 0)
(7.98921 1.35404 0)
(7.49344 1.47858 0)
(7.69913 1.50701 0)
(7.16104 1.63765 0)
(7.38601 1.67173 0)
(6.80359 1.8067 0)
(7.04888 1.84787 0)
(6.41999 1.98391 0)
(6.68661 2.03429 0)
(6.00903 2.16606 0)
(6.29789 2.22876 0)
(5.56933 2.34802 0)
(5.8811 2.42739 0)
(5.09942 2.52212 0)
(5.43428 2.62416 0)
(4.59773 2.67749 0)
(4.95508 2.8102 0)
(4.06271 2.79942 0)
(4.44085 2.97313 0)
(3.49273 2.86905 0)
(3.88855 3.09655 0)
(2.88587 2.86289 0)
(3.29528 3.15985 0)
(2.23806 2.75393 0)
(2.65696 3.13789 0)
(1.54248 2.52106 0)
(1.9749 3.00321 0)
(0.793671 2.13138 0)
(1.20728 2.74065 0)
(0.556758 2.29189 0)
(9.9825 0.110641 0)
(9.99301 0.078372 0)
(9.9477 0.182348 0)
(9.96953 0.155058 0)
(9.89521 0.253849 0)
(9.92721 0.230916 0)
(9.82521 0.326805 0)
(9.86694 0.307547 0)
(9.73809 0.402599 0)
(9.78974 0.386567 0)
(9.63397 0.482282 0)
(9.696 0.469198 0)
(9.51278 0.566808 0)
(9.58572 0.556451 0)
(9.37429 0.657143 0)
(9.45871 0.649326 0)
(9.21817 0.754262 0)
(9.3147 0.748843 0)
(9.04402 0.85913 0)
(9.15335 0.856015 0)
(8.85131 0.972702 0)
(8.9742 0.971848 0)
(8.63947 1.09591 0)
(8.77676 1.09734 0)
(8.40786 1.22966 0)
(8.56042 1.23345 0)
(8.15578 1.37476 0)
(8.32452 1.38109 0)
(7.88247 1.53186 0)
(8.06835 1.54108 0)
(7.5871 1.70136 0)
(7.79107 1.71403 0)
(7.26873 1.88326 0)
(7.49178 1.90027 0)
(6.92627 2.07691 0)
(7.16937 2.09965 0)
(6.55838 2.28078 0)
(6.82251 2.31132 0)
(6.16336 2.49196 0)
(6.44946 2.5334 0)
(5.73905 2.70574 0)
(6.048 2.76254 0)
(5.28269 2.91488 0)
(5.61518 2.99335 0)
(4.79082 3.10906 0)
(5.14721 3.21773 0)
(4.25932 3.27411 0)
(4.63939 3.42416 0)
(3.68344 3.39179 0)
(4.0861 3.59705 0)
(3.05811 3.43965 0)
(3.48139 3.71648 0)
(2.3778 3.3918 0)
(2.81845 3.75811 0)
(1.63797 3.22621 0)
(2.09924 3.69401 0)
(0.839165 2.90091 0)
(1.27898 3.50455 0)
(0.573392 3.1138 0)
(9.98273 0.123598 0)
(9.99316 0.0868296 0)
(9.94872 0.204336 0)
(9.97026 0.172117 0)
(9.89792 0.285289 0)
(9.92925 0.25701 0)
(9.83048 0.36801 0)
(9.87121 0.343032 0)
(9.74666 0.453903 0)
(9.79711 0.43173 0)
(9.64662 0.544133 0)
(9.70729 0.524409 0)
(9.5303 0.639767 0)
(9.60174 0.622198 0)
(9.39753 0.74186 0)
(9.48029 0.726191 0)
(9.24802 0.851473 0)
(9.34275 0.83749 0)
(9.0814 0.969661 0)
(9.18882 0.957195 0)
(8.89722 1.09747 0)
(9.0181 1.0864 0)
(8.69494 1.23592 0)
(8.83014 1.22618 0)
(8.47396 1.38601 0)
(8.62437 1.37762 0)
(8.23358 1.54864 0)
(8.40018 1.54171 0)
(7.97304 1.72459 0)
(8.15682 1.71938 0)
(7.69143 1.91442 0)
(7.89344 1.91141 0)
(7.38768 2.1183 0)
(7.60901 2.11832 0)
(7.06045 2.33589 0)
(7.30223 2.34023 0)
(6.70806 2.56603 0)
(6.97148 2.57667 0)
(6.32825 2.80637 0)
(6.61457 2.82632 0)
(5.91802 3.05292 0)
(6.2286 3.08657 0)
(5.47341 3.2994 0)
(5.80967 3.35302 0)
(4.98931 3.53652 0)
(5.35263 3.61883 0)
(4.45938 3.7513 0)
(4.8509 3.87385 0)
(3.8763 3.92638 0)
(4.29649 4.10382 0)
(3.23243 4.03981 0)
(3.68066 4.2896 0)
(2.52094 4.06499 0)
(2.99364 4.40675 0)
(1.73846 3.97619 0)
(2.23751 4.42462 0)
(0.889525 3.71885 0)
(1.36345 4.31639 0)
(0.598801 3.98503 0)
(9.98321 0.136223 0)
(9.99339 0.0950542 0)
(9.95031 0.225603 0)
(9.97131 0.188616 0)
(9.90149 0.315539 0)
(9.93192 0.282088 0)
(9.83691 0.407555 0)
(9.87641 0.37701 0)
(9.75679 0.503071 0)
(9.80575 0.4749 0)
(9.66129 0.603342 0)
(9.72025 0.577117 0)
(9.55038 0.709528 0)
(9.61988 0.684887 0)
(9.42394 0.822771 0)
(9.50456 0.799391 0)
(9.28172 0.944214 0)
(9.37411 0.92181 0)
(9.12342 1.075 0)
(9.2283 1.05332 0)
(8.94864 1.21625 0)
(9.06681 1.1951 0)
(8.75688 1.36909 0)
(8.88921 1.34833 0)
(8.54758 1.53461 0)
(8.69502 1.51416 0)
(8.32005 1.71385 0)
(8.48362 1.69373 0)
(8.0735 1.90773 0)
(8.2543 1.88811 0)
(7.80693 2.11699 0)
(8.00615 2.09825 0)
(7.51913 2.3421 0)
(7.73804 2.32492 0)
(7.2085 2.58307 0)
(7.44852 2.56861 0)
(6.87294 2.83928 0)
(7.13566 2.82934 0)
(6.50964 3.10913 0)
(6.79685 3.1065 0)
(6.11479 3.38964 0)
(6.42855 3.39845 0)
(5.68327 3.67585 0)
(6.02597 3.70211 0)
(5.20839 3.96004 0)
(5.58266 4.01229 0)
(4.68172 4.23083 0)
(5.09026 4.32078 0)
(4.09329 4.47219 0)
(4.53827 4.61522 0)
(3.43256 4.66247 0)
(3.91475 4.87775 0)
(2.6902 4.77315 0)
(3.20577 5.08353 0)
(1.86192 4.77247 0)
(2.41138 5.198 0)
(0.954225 4.58985 0)
(1.47637 5.18443 0)
(0.639238 4.91964 0)
(9.98386 0.148391 0)
(9.99368 0.102959 0)
(9.95234 0.246006 0)
(9.9726 0.204425 0)
(9.90576 0.344447 0)
(9.93509 0.306014 0)
(9.84434 0.445257 0)
(9.88238 0.409327 0)
(9.76828 0.549879 0)
(9.81548 0.515884 0)
(9.67773 0.659634 0)
(9.73465 0.627088 0)
(9.57273 0.775767 0)
(9.63991 0.744241 0)
(9.45317 0.899499 0)
(9.5312 0.868603 0)
(9.31889 1.03205 0)
(9.40841 1.00142 0)
(9.16964 1.17463 0)
(9.27138 1.14396 0)
(9.00506 1.32846 0)
(9.11983 1.29746 0)
(8.82474 1.49477 0)
(8.95343 1.46319 0)
(8.62815 1.67474 0)
(8.77174 1.64242 0)
(8.41463 1.86956 0)
(8.57421 1.8364 0)
(8.18339 2.08032 0)
(8.36015 2.04636 0)
(7.93338 2.30802 0)
(8.12865 2.27348 0)
(7.66325 2.55344 0)
(7.87856 2.51883 0)
(7.37122 2.81708 0)
(7.6083 2.78331 0)
(7.05486 3.09898 0)
(7.31576 3.06756 0)
(6.71086 3.39848 0)
(6.998 3.3718 0)
(6.33468 3.71388 0)
(6.65102 3.69558 0)
(5.92018 4.04188 0)
(6.26929 4.03743 0)
(5.45915 4.37684 0)
(5.84524 4.39427 0)
(4.941 4.70968 0)
(5.36879 4.76047 0)
(4.35271 5.02636 0)
(4.82677 5.12651 0)
(3.67963 5.30607 0)
(4.20322 5.47688 0)
(2.90758 5.51815 0)
(3.478 5.78738 0)
(2.02774 5.62308 0)
(2.64516 6.01953 0)
(1.04516 5.52961 0)
(1.63783 6.12408 0)
(0.704534 5.94331 0)
(9.98464 0.160006 0)
(9.99402 0.11048 0)
(9.95472 0.265422 0)
(9.97408 0.219435 0)
(9.91063 0.371875 0)
(9.93866 0.328663 0)
(9.85263 0.480951 0)
(9.88902 0.439841 0)
(9.78095 0.594122 0)
(9.82614 0.55451 0)
(9.69574 0.712767 0)
(9.75032 0.674112 0)
(9.59707 0.838199 0)
(9.66159 0.800012 0)
(9.48491 0.971709 0)
(9.55993 0.933534 0)
(9.35914 1.11458 0)
(9.44531 1.07599 0)
(9.21958 1.26811 0)
(9.31762 1.22871 0)
(9.06595 1.4336 0)
(9.17667 1.39301 0)
(8.89791 1.61235 0)
(9.02221 1.57023 0)
(8.715 1.80568 0)
(8.85388 1.76175 0)
(8.51662 2.01492 0)
(8.67122 1.96895 0)
(8.30201 2.24136 0)
(8.47359 2.19323 0)
(8.07014 2.48627 0)
(8.26018 2.436 0)
(7.81963 2.75083 0)
(8.02984 2.69866 0)
(7.54859 3.03607 0)
(7.78102 2.98258 0)
(7.25441 3.34282 0)
(7.51156 3.28908 0)
(6.93348 3.67151 0)
(7.21844 3.6193 0)
(6.58078 4.02194 0)
(6.89742 3.97416 0)
(6.18937 4.39288 0)
(6.54258 4.35407 0)
(5.74975 4.78135 0)
(6.14563 4.75851 0)
(5.24917 5.18148 0)
(5.69508 5.18526 0)
(4.67107 5.5826 0)
(5.17517 5.62894 0)
(3.9951 5.96642 0)
(4.56527 6.07859 0)
(3.19864 6.30169 0)
(3.83659 6.51348 0)
(2.26198 6.5408 0)
(2.97112 6.8941 0)
(1.18074 6.56535 0)
(1.87938 7.15807 0)
(0.812935 7.09977 0)
(9.98553 0.170991 0)
(9.9944 0.117566 0)
(9.95737 0.283743 0)
(9.97571 0.233558 0)
(9.91598 0.397696 0)
(9.94257 0.349925 0)
(9.86166 0.514486 0)
(9.89621 0.468423 0)
(9.79463 0.635621 0)
(9.8376 0.590626 0)
(9.7151 0.762525 0)
(9.76707 0.718007 0)
(9.62316 0.89657 0)
(9.68467 0.851981 0)
(9.51883 1.03911 0)
(9.59045 0.99393 0)
(9.40207 1.19148 0)
(9.48443 1.14522 0)
(9.27277 1.35505 0)
(9.36658 1.30723 0)
(9.13075 1.53118 0)
(9.23681 1.48134 0)
(8.97575 1.72127 0)
(9.09494 1.66897 0)
(8.80739 1.92676 0)
(8.94073 1.87158 0)
(8.6252 2.14912 0)
(8.77382 2.09068 0)
(8.42849 2.38984 0)
(8.59372 2.32784 0)
(8.21632 2.65049 0)
(8.39972 2.5847 0)
(7.9874 2.93264 0)
(8.19083 2.86299 0)
(7.73989 3.23793 0)
(7.96563 3.16456 0)
(7.47121 3.56799 0)
(7.72212 3.49139 0)
(7.17775 3.92446 0)
(7.45746 3.84562 0)
(6.85436 4.30885 0)
(7.16759 4.2296 0)
(6.49377 4.72231 0)
(6.84668 4.64578 0)
(6.08573 5.16517 0)
(6.48641 5.0966 0)
(5.61577 5.63595 0)
(6.07474 5.58405 0)
(5.06382 6.12949 0)
(5.59421 6.10865 0)
(4.40255 6.63354 0)
(5.01993 6.66721 0)
(3.59653 7.12113 0)
(4.31301 7.2483 0)
(2.60471 7.54076 0)
(3.43621 7.82018 0)
(1.39456 7.74081 0)
(2.25694 8.31535 0)
(1.00289 8.46566 0)
(9.9865 0.181283 0)
(9.9948 0.124177 0)
(9.96025 0.300881 0)
(9.97747 0.246722 0)
(9.92174 0.4218 0)
(9.94674 0.369708 0)
(9.8713 0.545732 0)
(9.90384 0.494964 0)
(9.80918 0.674218 0)
(9.84973 0.624098 0)
(9.7356 0.80872 0)
(9.78472 0.758613 0)
(9.65071 0.950658 0)
(9.70894 0.899964 0)
(9.55459 1.10143 0)
(9.62247 1.04957 0)
(9.44728 1.26243 0)
(9.52542 1.20885 0)
(9.32874 1.43507 0)
(9.41782 1.37921 0)
(9.19888 1.62078 0)
(9.29969 1.5621 0)
(9.05757 1.82103 0)
(9.17096 1.75899 0)
(8.90455 2.03737 0)
(9.03151 1.97141 0)
(8.73947 2.27139 0)
(8.88114 2.20099 0)
(8.5618 2.5248 0)
(8.71949 2.44943 0)
(8.37078 2.79942 0)
(8.54608 2.71858 0)
(8.16531 3.09722 0)
(8.36015 3.01049 0)
(7.94381 3.42041 0)
(8.16057 3.32741 0)
(7.70398 3.77144 0)
(7.94573 3.67197 0)
(7.44256 4.15314 0)
(7.71325 4.04724 0)
(7.15478 4.56877 0)
(7.4597 4.4569 0)
(6.83379 5.02208 0)
(7.18007 4.90545 0)
(6.46953 5.51718 0)
(6.86696 5.3984 0)
(6.04713 6.05823 0)
(6.50933 5.94249 0)
(5.54436 6.64828 0)
(6.09024 6.54562 0)
(4.92755 7.28663 0)
(5.58354 7.21625 0)
(4.14564 7.96126 0)
(4.94317 7.96115 0)
(3.12246 8.63375 0)
(4.11018 8.77555 0)
(1.75677 9.12847 0)
(2.87936 9.62136 0)
(1.36532 10.1863 0)
(9.98753 0.190832 0)
(9.99523 0.130283 0)
(9.96331 0.316761 0)
(9.97931 0.25887 0)
(9.92783 0.444095 0)
(9.95113 0.387935 0)
(9.88144 0.57458 0)
(9.91185 0.519371 0)
(9.82443 0.709785 0)
(9.86238 0.654818 0)
(9.75704 0.851204 0)
(9.8031 0.795802 0)
(9.67948 1.00029 0)
(9.73416 0.943806 0)
(9.59188 1.15848 0)
(9.65571 1.10028 0)
(9.49436 1.32721 0)
(9.56791 1.26667 0)
(9.38697 1.50792 0)
(9.4709 1.44442 0)
(9.26974 1.70209 0)
(9.36478 1.63501 0)
(9.14265 1.91126 0)
(9.24962 1.83994 0)
(9.00559 2.13704 0)
(9.12544 2.06083 0)
(8.85839 2.38116 0)
(8.9922 2.29934 0)
(8.70074 2.64546 0)
(8.84977 2.55732 0)
(8.53211 2.93201 0)
(8.6979 2.83677 0)
(8.35174 3.24312 0)
(8.53617 3.13996 0)
(8.15846 3.58147 0)
(8.36389 3.46952 0)
(7.95053 3.95025 0)
(8.18 3.82854 0)
(7.72542 4.35334 0)
(7.98292 4.22085 0)
(7.47937 4.79561 0)
(7.77028 4.65124 0)
(7.20685 5.28323 0)
(7.53861 5.12591 0)
(6.89947 5.82421 0)
(7.28268 5.65308 0)
(6.54428 6.42892 0)
(6.99452 6.2439 0)
(6.12054 7.11079 0)
(6.66141 6.9139 0)
(5.59353 7.88701 0)
(6.26282 7.68535 0)
(4.90172 8.77751 0)
(5.75833 8.59185 0)
(3.928 9.80167 0)
(5.08863 9.68473 0)
(2.4343 10.8578 0)
(3.98127 11.0498 0)
(2.14761 12.5706 0)
(9.98861 0.199599 0)
(9.99567 0.135861 0)
(9.96651 0.331321 0)
(9.98123 0.269956 0)
(9.93417 0.464499 0)
(9.95569 0.404545 0)
(9.89198 0.600921 0)
(9.92013 0.54157 0)
(9.84024 0.742183 0)
(9.87547 0.682696 0)
(9.77924 0.889801 0)
(9.82209 0.829469 0)
(9.70921 1.04525 0)
(9.76019 0.983388 0)
(9.63037 1.21 0)
(9.68998 1.14592 0)
(9.54291 1.3855 0)
(9.6117 1.31853 0)
(9.44697 1.57321 0)
(9.52558 1.50268 0)
(9.34272 1.77466 0)
(9.43184 1.69985 0)
(9.23025 1.99141 0)
(9.33066 1.91159 0)
(9.10964 2.22513 0)
(9.22223 2.13951 0)
(8.98091 2.47763 0)
(9.10669 2.38536 0)
(8.84399 2.75086 0)
(8.98418 2.65102 0)
(8.69871 3.04705 0)
(8.85473 2.9386 0)
(8.54471 3.36875 0)
(8.71832 3.25051 0)
(8.38139 3.719 0)
(8.5748 3.58959 0)
(8.20781 4.1015 0)
(8.42382 3.95925 0)
(8.0225 4.52092 0)
(8.26482 4.36376 0)
(7.82329 4.98329 0)
(8.09689 4.80859 0)
(7.6069 5.49666 0)
(7.9187 5.30097 0)
(7.36832 6.07208 0)
(7.72826 5.85076 0)
(7.09964 6.72522 0)
(7.52273 6.4719 0)
(6.78775 7.4793 0)
(7.2979 7.18497 0)
(6.40912 8.37111 0)
(7.04835 8.02239 0)
(5.91677 9.46522 0)
(6.76397 9.0407 0)
(5.1981 10.9082 0)
(6.46398 10.3558 0)
(3.88708 13.1811 0)
(6.19398 12.3035 0)
(5.26652 16.3777 0)
(0.240284 -0.151648 0)
(0.137876 -0.235343 0)
(0.464544 -0.128725 0)
(0.330683 -0.214461 0)
(0.654489 -0.10333 0)
(0.526264 -0.177355 0)
(0.812688 -0.0821382 0)
(0.697728 -0.144225 0)
(0.944846 -0.0654272 0)
(0.840782 -0.117638 0)
(1.05613 -0.0523999 0)
(0.96064 -0.0967212 0)
(1.1509 -0.0422994 0)
(1.06302 -0.0804151 0)
(1.23272 -0.0344804 0)
(1.15213 -0.0677979 0)
(1.30441 -0.0283667 0)
(1.23098 -0.0579895 0)
(1.36793 -0.0234646 0)
(1.3017 -0.0501768 0)
(1.42459 -0.0193989 0)
(1.36579 -0.043693 0)
(1.47517 -0.0159279 0)
(1.42414 -0.0380899 0)
(1.52026 -0.0128933 0)
(1.47731 -0.03315 0)
(1.56028 -0.0100774 0)
(1.52575 -0.0287257 0)
(1.59509 -0.00707025 0)
(1.56986 -0.0243971 0)
(1.62329 -0.00338462 0)
(1.60954 -0.0193019 0)
(1.64231 0.00108 0)
(1.64348 -0.0127052 0)
(1.65032 0.00556971 0)
(1.6693 -0.00522765 0)
(1.64825 0.008713 0)
(1.68534 0.00131963 0)
(1.63886 0.00992625 0)
(1.69275 0.00583835 0)
(1.62541 0.0097886 0)
(1.69502 0.00816768 0)
(1.6087 0.00881933 0)
(1.69382 0.00990947 0)
(1.59155 0.00696763 0)
(1.69002 0.00992821 0)
(1.57855 0.00400454 0)
(1.68657 0.00734927 0)
(1.57415 0.000234403 0)
(1.68657 0.0024234 0)
(1.582 -0.00354169 0)
(1.6927 -0.00422693 0)
(1.60283 -0.00674288 0)
(1.70636 -0.0109598 0)
(1.6354 -0.00889989 0)
(1.72762 -0.0167309 0)
(1.67584 -0.00903484 0)
(1.75544 -0.0202827 0)
(1.79573 -0.019372 0)
(0.207892 -0.335335 0)
(0.105185 -0.43896 0)
(0.409007 -0.294657 0)
(0.277528 -0.406789 0)
(0.582847 -0.242887 0)
(0.441042 -0.339673 0)
(0.730528 -0.198483 0)
(0.585836 -0.278861 0)
(0.856972 -0.163248 0)
(0.707959 -0.23019 0)
(0.966593 -0.135759 0)
(0.811965 -0.191994 0)
(1.06299 -0.114472 0)
(0.902232 -0.162215 0)
(1.14906 -0.0980124 0)
(0.98197 -0.139109 0)
(1.22703 -0.0851211 0)
(1.05351 -0.121067 0)
(1.29849 -0.0747035 0)
(1.11855 -0.106625 0)
(1.36445 -0.0659257 0)
(1.17826 -0.0945608 0)
(1.42548 -0.0582904 0)
(1.2333 -0.084042 0)
(1.48204 -0.0515581 0)
(1.28395 -0.0747319 0)
(1.53476 -0.0453906 0)
(1.33044 -0.0665756 0)
(1.58428 -0.038924 0)
(1.37339 -0.0591032 0)
(1.63031 -0.0309578 0)
(1.41365 -0.0508007 0)
(1.67094 -0.0211897 0)
(1.45117 -0.0398569 0)
(1.7037 -0.0111174 0)
(1.48392 -0.0265963 0)
(1.72809 -0.00265455 0)
(1.50876 -0.0142216 0)
(1.74725 0.00423422 0)
(1.52557 -0.00607297 0)
(1.76296 0.00977314 0)
(1.53908 -0.00137581 0)
(1.77424 0.0125881 0)
(1.54799 0.00322502 0)
(1.78339 0.0116437 0)
(1.54964 0.0046306 0)
(1.79316 0.00693694 0)
(1.5452 0.00182538 0)
(1.80439 -0.000638513 0)
(1.53829 -0.00377329 0)
(1.81675 -0.00986676 0)
(1.53131 -0.0108905 0)
(1.83092 -0.0195783 0)
(1.52402 -0.0184139 0)
(1.84802 -0.0281386 0)
(1.51646 -0.0255124 0)
(1.86985 -0.0322668 0)
(1.51115 -0.0312335 0)
(1.51574 -0.0305171 0)
(0.165064 -0.519653 0)
(0.0745027 -0.60063 0)
(0.321233 -0.461111 0)
(0.210493 -0.556135 0)
(0.454383 -0.384118 0)
(0.324981 -0.463998 0)
(0.567139 -0.317692 0)
(0.427777 -0.381657 0)
(0.663569 -0.264724 0)
(0.512733 -0.316025 0)
(0.746991 -0.223124 0)
(0.584595 -0.264497 0)
(0.820156 -0.190643 0)
(0.646206 -0.224302 0)
(0.885245 -0.165264 0)
(0.699706 -0.193038 0)
(0.943934 -0.145151 0)
(0.746753 -0.168544 0)
(0.997414 -0.128683 0)
(0.788621 -0.148867 0)
(1.04637 -0.114599 0)
(0.826217 -0.132316 0)
(1.09104 -0.102184 0)
(0.86002 -0.117676 0)
(1.13153 -0.0912797 0)
(0.890078 -0.104505 0)
(1.16842 -0.0817482 0)
(0.915861 -0.0930591 0)
(1.20291 -0.0724206 0)
(0.937475 -0.0832752 0)
(1.23563 -0.060727 0)
(0.956532 -0.0731944 0)
(1.26489 -0.0451372 0)
(0.975137 -0.0594025 0)
(1.28772 -0.0290494 0)
(0.993538 -0.041495 0)
(1.30361 -0.0183173 0)
(1.00508 -0.0243433 0)
(1.31638 -0.0134441 0)
(0.990878 -0.0140129 0)
(1.32315 -0.0101505 0)
(0.964489 -0.00548621 0)
(1.32192 -0.00709415 0)
(0.939452 0.00395578 0)
(1.30932 -0.00661496 0)
(0.91247 0.0119227 0)
(1.28867 -0.009568 0)
(0.878833 0.0134953 0)
(1.26489 -0.0139638 0)
(0.842741 0.0093525 0)
(1.23837 -0.017699 0)
(0.809479 0.00340089 0)
(1.20949 -0.020774 0)
(0.787161 -0.00321926 0)
(1.17951 -0.0238936 0)
(0.768408 -0.0101133 0)
(1.15502 -0.0256423 0)
(0.756335 -0.0189473 0)
(0.75795 -0.0299768 0)
(0.119527 -0.650762 0)
(0.0451076 -0.7177 0)
(0.223225 -0.573025 0)
(0.136323 -0.655302 0)
(0.307051 -0.475464 0)
(0.193429 -0.542267 0)
(0.376642 -0.392939 0)
(0.248467 -0.4451 0)
(0.434844 -0.327404 0)
(0.288983 -0.367833 0)
(0.483725 -0.275907 0)
(0.321315 -0.306981 0)
(0.525092 -0.235653 0)
(0.34642 -0.259405 0)
(0.560367 -0.204157 0)
(0.365501 -0.222265 0)
(0.590684 -0.179175 0)
(0.37959 -0.193071 0)
(0.616913 -0.158689 0)
(0.389559 -0.169584 0)
(0.639559 -0.141022 0)
(0.396192 -0.149781 0)
(0.658633 -0.125131 0)
(0.400131 -0.132039 0)
(0.673629 -0.110871 0)
(0.401713 -0.11553 0)
(0.684243 -0.0987079 0)
(0.399057 -0.100679 0)
(0.691916 -0.0885516 0)
(0.390611 -0.0886528 0)
(0.699216 -0.078227 0)
(0.375186 -0.0781903 0)
(0.706144 -0.0644028 0)
(0.354031 -0.0640315 0)
(0.707521 -0.0449044 0)
(0.334503 -0.0423935 0)
(0.687039 -0.0222217 0)
(0.311207 -0.0112962 0)
(0.638911 -0.00323758 0)
(0.280665 0.0159195 0)
(0.580955 0.0117817 0)
(0.236836 0.0297081 0)
(0.526559 0.0253698 0)
(0.198655 0.0362075 0)
(0.477068 0.0337359 0)
(0.165428 0.0405735 0)
(0.429621 0.0339866 0)
(0.132184 0.0403142 0)
(0.387945 0.0273622 0)
(0.100729 0.0323526 0)
(0.35972 0.0169173 0)
(0.0744272 0.0186101 0)
(0.34468 0.00490757 0)
(0.0650682 0.00469393 0)
(0.344773 -0.00887646 0)
(0.0638727 -0.0101615 0)
(0.358699 -0.0257428 0)
(0.0687066 -0.0259321 0)
(0.0816895 -0.0408053 0)
(0.0679478 -0.732199 0)
(0.0146278 -0.78425 0)
(0.113306 -0.63458 0)
(0.0536909 -0.698678 0)
(0.142966 -0.5214 0)
(0.0485163 -0.569962 0)
(0.16382 -0.428397 0)
(0.0514896 -0.464112 0)
(0.17735 -0.354548 0)
(0.0422155 -0.379877 0)
(0.184665 -0.296379 0)
(0.0290879 -0.313338 0)
(0.186723 -0.250798 0)
(0.011351 -0.261151 0)
(0.184328 -0.21507 0)
(-0.0102469 -0.22028 0)
(0.178188 -0.186791 0)
(-0.0351405 -0.188103 0)
(0.168951 -0.16377 0)
(-0.0627968 -0.162288 0)
(0.157197 -0.144017 0)
(-0.0924956 -0.140716 0)
(0.143239 -0.125904 0)
(-0.123263 -0.121528 0)
(0.126565 -0.108575 0)
(-0.154099 -0.103271 0)
(0.10514 -0.0920724 0)
(-0.185786 -0.0852987 0)
(0.0750376 -0.0759956 0)
(-0.219304 -0.0675541 0)
(0.0336679 -0.0575781 0)
(-0.256683 -0.0498794 0)
(-0.0145049 -0.0331448 0)
(-0.298306 -0.0318436 0)
(-0.0648578 -0.00291529 0)
(-0.337645 -0.00954344 0)
(-0.102142 0.0245975 0)
(-0.370253 0.0124537 0)
(-0.124648 0.0409687 0)
(-0.386605 0.0299167 0)
(-0.145493 0.0477713 0)
(-0.403695 0.0423662 0)
(-0.167463 0.0504337 0)
(-0.417873 0.0492339 0)
(-0.186813 0.0494278 0)
(-0.429238 0.0517752 0)
(-0.201673 0.0417587 0)
(-0.43865 0.048714 0)
(-0.212143 0.0272194 0)
(-0.446512 0.0381309 0)
(-0.218352 0.00971448 0)
(-0.453107 0.0219558 0)
(-0.216815 -0.00692894 0)
(-0.454974 0.00388506 0)
(-0.212371 -0.0229378 0)
(-0.452566 -0.0124444 0)
(-0.205141 -0.0387121 0)
(-0.451346 -0.0295586 0)
(-0.451969 -0.0440487 0)
(0.00731776 -0.756355 0)
(-0.0195144 -0.791418 0)
(-0.00792203 -0.638738 0)
(-0.0388118 -0.684104 0)
(-0.0353432 -0.514289 0)
(-0.105692 -0.544358 0)
(-0.0669449 -0.415435 0)
(-0.159189 -0.435302 0)
(-0.103183 -0.336881 0)
(-0.220021 -0.347619 0)
(-0.142787 -0.275214 0)
(-0.280706 -0.278918 0)
(-0.185111 -0.226924 0)
(-0.341687 -0.225235 0)
(-0.229633 -0.188941 0)
(-0.402042 -0.183392 0)
(-0.275976 -0.158614 0)
(-0.461085 -0.150614 0)
(-0.323701 -0.133706 0)
(-0.518303 -0.124591 0)
(-0.372093 -0.112351 0)
(-0.573178 -0.103395 0)
(-0.420086 -0.0931073 0)
(-0.625064 -0.0853899 0)
(-0.466329 -0.0750866 0)
(-0.673301 -0.069273 0)
(-0.509691 -0.0579634 0)
(-0.717434 -0.0541719 0)
(-0.54966 -0.0416394 0)
(-0.757315 -0.0395396 0)
(-0.586191 -0.0258398 0)
(-0.793028 -0.02488 0)
(-0.619552 -0.00959167 0)
(-0.824422 -0.00955233 0)
(-0.643961 0.00726236 0)
(-0.849282 0.00638053 0)
(-0.659287 0.0241011 0)
(-0.863828 0.0222161 0)
(-0.6701 0.0392813 0)
(-0.874112 0.0366417 0)
(-0.677865 0.0493861 0)
(-0.880805 0.0470815 0)
(-0.683717 0.0533415 0)
(-0.884473 0.0527037 0)
(-0.68691 0.0517363 0)
(-0.88539 0.0536238 0)
(-0.687483 0.0440567 0)
(-0.88458 0.0490376 0)
(-0.687573 0.0307841 0)
(-0.883768 0.0381807 0)
(-0.688637 0.0142288 0)
(-0.8844 0.0225294 0)
(-0.690641 -0.00358185 0)
(-0.886161 0.0049391 0)
(-0.690692 -0.0214872 0)
(-0.887277 -0.0124178 0)
(-0.690268 -0.0376144 0)
(-0.891168 -0.0297714 0)
(-0.895871 -0.0445119 0)
(-0.0551058 -0.715735 0)
(-0.0593733 -0.737445 0)
(-0.135687 -0.583269 0)
(-0.138669 -0.607044 0)
(-0.220895 -0.456236 0)
(-0.264576 -0.464798 0)
(-0.308202 -0.35702 0)
(-0.374534 -0.355706 0)
(-0.39427 -0.279297 0)
(-0.482739 -0.271008 0)
(-0.477829 -0.21913 0)
(-0.584035 -0.206296 0)
(-0.557749 -0.172858 0)
(-0.677864 -0.157416 0)
(-0.633054 -0.137448 0)
(-0.763721 -0.120999 0)
(-0.703012 -0.110268 0)
(-0.84144 -0.0940196 0)
(-0.767198 -0.0891001 0)
(-0.911183 -0.0738919 0)
(-0.825429 -0.0720753 0)
(-0.973322 -0.0584867 0)
(-0.877646 -0.0576276 0)
(-1.02827 -0.0460708 0)
(-0.923877 -0.0445213 0)
(-1.07639 -0.0352838 0)
(-0.964344 -0.031894 0)
(-1.11812 -0.0251226 0)
(-0.999399 -0.0192188 0)
(-1.15382 -0.0149696 0)
(-1.02929 -0.00621911 0)
(-1.18394 -0.00442461 0)
(-1.05289 0.00708207 0)
(-1.20854 0.00621604 0)
(-1.0698 0.0204585 0)
(-1.22653 0.0174139 0)
(-1.08091 0.0332465 0)
(-1.23907 0.0292901 0)
(-1.08679 0.0439062 0)
(-1.24659 0.0403022 0)
(-1.08893 0.0508147 0)
(-1.24977 0.0483811 0)
(-1.08865 0.0531949 0)
(-1.2497 0.0525347 0)
(-1.08648 0.0506019 0)
(-1.24732 0.0523707 0)
(-1.08333 0.042528 0)
(-1.24393 0.0472583 0)
(-1.08102 0.0294594 0)
(-1.24121 0.0369055 0)
(-1.08094 0.0133687 0)
(-1.24061 0.0224815 0)
(-1.08286 -0.00372367 0)
(-1.2424 0.00595009 0)
(-1.0858 -0.0210705 0)
(-1.24583 -0.0109044 0)
(-1.08907 -0.0369255 0)
(-1.25212 -0.0281339 0)
(-1.25741 -0.0422478 0)
(-0.122782 -0.613587 0)
(-0.105371 -0.617188 0)
(-0.265189 -0.472714 0)
(-0.243457 -0.470859 0)
(-0.40794 -0.34905 0)
(-0.425811 -0.331509 0)
(-0.544002 -0.256526 0)
(-0.585545 -0.231663 0)
(-0.669261 -0.187591 0)
(-0.732489 -0.15951 0)
(-0.782297 -0.136797 0)
(-0.862725 -0.108055 0)
(-0.882917 -0.0997284 0)
(-0.975756 -0.072032 0)
(-0.971561 -0.0730722 0)
(-1.07227 -0.047554 0)
(-1.04915 -0.054085 0)
(-1.15469 -0.0312536 0)
(-1.1168 -0.0404153 0)
(-1.22518 -0.0204582 0)
(-1.17562 -0.0301676 0)
(-1.28563 -0.0131216 0)
(-1.22654 -0.0218804 0)
(-1.33753 -0.00772767 0)
(-1.27024 -0.0144777 0)
(-1.38197 -0.00315397 0)
(-1.30714 -0.00722723 0)
(-1.41975 0.00136452 0)
(-1.33758 0.000363444 0)
(-1.45156 0.00636842 0)
(-1.36192 0.00862617 0)
(-1.478 0.0122323 0)
(-1.38128 0.0177864 0)
(-1.4993 0.0191474 0)
(-1.39619 0.027715 0)
(-1.51617 0.0271423 0)
(-1.40607 0.0374527 0)
(-1.52823 0.0355859 0)
(-1.41089 0.0454613 0)
(-1.53537 0.0432985 0)
(-1.41177 0.0504612 0)
(-1.53819 0.0489177 0)
(-1.41008 0.051724 0)
(-1.53778 0.0515329 0)
(-1.4069 0.0487142 0)
(-1.53538 0.0505299 0)
(-1.40347 0.0410597 0)
(-1.53236 0.0453156 0)
(-1.40135 0.0291694 0)
(-1.53027 0.0357363 0)
(-1.40169 0.0144082 0)
(-1.53043 0.0226676 0)
(-1.40469 -0.0018288 0)
(-1.53349 0.00752824 0)
(-1.40942 -0.0186499 0)
(-1.53912 -0.00847859 0)
(-1.41583 -0.0337429 0)
(-1.54728 -0.0249163 0)
(-1.55288 -0.0375196 0)
(-0.194769 -0.452026 0)
(-0.159869 -0.426423 0)
(-0.397935 -0.312809 0)
(-0.362088 -0.27657 0)
(-0.592855 -0.203299 0)
(-0.599847 -0.149508 0)
(-0.768945 -0.126652 0)
(-0.794023 -0.0711283 0)
(-0.923085 -0.073249 0)
(-0.960366 -0.0223045 0)
(-1.05454 -0.0378917 0)