/*--------------------------------*- C++ -*----------------------------------*\
  =========                 |
  \\      /  F ield         | OpenFOAM: The Open Source CFD Toolbox
   \\    /   O peration     | Website:  https://openfoam.org
    \\  /    A nd           | Version:  7
     \\/     M anipulation  |
\*---------------------------------------------------------------------------*/
FoamFile
{
    version     2.0;
    format      ascii;
    class       volVectorField;
    location    "8.56";
    object      U;
}
// * * * * * * * * * * * * * * * * * * * * * * * * * * * * * * * * * * * * * //

dimensions      [0 1 -1 0 0 0 0];

internalField   nonuniform List<vector> 
12013
(
(0.100941 -0.000251962 0)
(0.104596 -0.000436881 0)
(0.110132 -0.00059717 0)
(0.117024 -0.000739208 0)
(0.125118 -0.000869339 0)
(0.134278 -0.000992355 0)
(0.144408 -0.00111211 0)
(0.155451 -0.00123163 0)
(0.167375 -0.00135289 0)
(0.180162 -0.00147666 0)
(0.193796 -0.00160248 0)
(0.208249 -0.00172872 0)
(0.223477 -0.00185287 0)
(0.239415 -0.00197184 0)
(0.255972 -0.00208244 0)
(0.273039 -0.00218165 0)
(0.290491 -0.00226696 0)
(0.308192 -0.00233652 0)
(0.326002 -0.0023892 0)
(0.343786 -0.00242456 0)
(0.361412 -0.00244279 0)
(0.378764 -0.00244457 0)
(0.395734 -0.00243097 0)
(0.412232 -0.00240328 0)
(0.428183 -0.00236298 0)
(0.443524 -0.00231156 0)
(0.458208 -0.00225053 0)
(0.4722 -0.00218134 0)
(0.485476 -0.00210533 0)
(0.498023 -0.00202374 0)
(0.509834 -0.00193769 0)
(0.520912 -0.0018482 0)
(0.531265 -0.00175614 0)
(0.540905 -0.00166227 0)
(0.54985 -0.00156727 0)
(0.55812 -0.00147173 0)
(0.565736 -0.00137611 0)
(0.572725 -0.00128085 0)
(0.579112 -0.00118629 0)
(0.584924 -0.00109273 0)
(0.590188 -0.0010004 0)
(0.594933 -0.00090951 0)
(0.599188 -0.000820211 0)
(0.60298 -0.000732621 0)
(0.606337 -0.000646822 0)
(0.609288 -0.00056287 0)
(0.61186 -0.000480789 0)
(0.61408 -0.000400569 0)
(0.615975 -0.000322165 0)
(0.617569 -0.000245498 0)
(0.61889 -0.000170451 0)
(0.61996 -9.68621e-05 0)
(0.620804 -2.45148e-05 0)
(0.621444 4.67984e-05 0)
(0.621904 0.000117284 0)
(0.622203 0.000187215 0)
(0.622364 0.000256968 0)
(0.622406 0.000327015 0)
(0.622348 0.000397925 0)
(0.622207 0.000470387 0)
(0.622 0.000545237 0)
(0.62174 0.000623493 0)
(0.62144 0.000706399 0)
(0.621109 0.000795491 0)
(0.620754 0.00089268 0)
(0.62038 0.00100037 0)
(0.619984 0.00112163 0)
(0.619559 0.00126046 0)
(0.619091 0.00142211 0)
(0.618554 0.00161377 0)
(0.61791 0.0018454 0)
(0.617099 0.00213138 0)
(0.616029 0.00249321 0)
(0.614565 0.00296443 0)
(0.612493 0.00360001 0)
(0.609477 0.00449498 0)
(0.604958 0.00582368 0)
(0.597952 0.00793259 0)
(0.586682 0.0116404 0)
(0.568017 0.0198717 0)
(0.549361 0.0529686 0)
(0.100855 -0.000767366 0)
(0.104489 -0.00133694 0)
(0.109993 -0.00182783 0)
(0.116858 -0.00226208 0)
(0.124929 -0.00265968 0)
(0.134067 -0.00303524 0)
(0.144177 -0.0034006 0)
(0.155202 -0.00376506 0)
(0.167112 -0.00413464 0)
(0.179889 -0.00451174 0)
(0.193517 -0.00489495 0)
(0.207969 -0.00527931 0)
(0.223204 -0.00565714 0)
(0.239155 -0.0060191 0)
(0.255734 -0.00635543 0)
(0.272829 -0.00665703 0)
(0.290315 -0.00691632 0)
(0.308055 -0.00712769 0)
(0.325908 -0.00728775 0)
(0.343737 -0.00739523 0)
(0.361411 -0.00745071 0)
(0.37881 -0.00745629 0)
(0.395827 -0.00741516 0)
(0.412371 -0.00733132 0)
(0.428365 -0.00720915 0)
(0.443747 -0.00705323 0)
(0.458469 -0.00686808 0)
(0.472497 -0.00665806 0)
(0.485806 -0.00642725 0)
(0.498382 -0.00617941 0)
(0.51022 -0.00591791 0)
(0.521322 -0.00564579 0)
(0.531696 -0.00536572 0)
(0.541355 -0.00508003 0)
(0.550316 -0.00479075 0)
(0.558599 -0.00449962 0)
(0.566227 -0.00420815 0)
(0.573225 -0.0039176 0)
(0.579619 -0.00362903 0)
(0.585436 -0.00334335 0)
(0.590704 -0.00306129 0)
(0.59545 -0.00278347 0)
(0.599705 -0.00251035 0)
(0.603495 -0.0022423 0)
(0.606849 -0.0019796 0)
(0.609794 -0.0017224 0)
(0.612359 -0.00147079 0)
(0.61457 -0.00122472 0)
(0.616454 -0.000984084 0)
(0.618036 -0.000748633 0)
(0.619341 -0.000518011 0)
(0.620395 -0.000291723 0)
(0.62122 -6.91121e-05 0)
(0.621839 0.000150434 0)
(0.622275 0.000367486 0)
(0.622549 0.000582867 0)
(0.622681 0.000797729 0)
(0.622692 0.00101351 0)
(0.6226 0.00123195 0)
(0.622422 0.00145515 0)
(0.622174 0.00168565 0)
(0.621871 0.00192654 0)
(0.621524 0.00218158 0)
(0.621143 0.00245541 0)
(0.620736 0.00275376 0)
(0.620307 0.00308384 0)
(0.619855 0.00345479 0)
(0.619375 0.00387841 0)
(0.618855 0.00437021 0)
(0.618273 0.00495107 0)
(0.617598 0.00564973 0)
(0.616779 0.00650697 0)
(0.615745 0.00758261 0)
(0.614392 0.00896756 0)
(0.612572 0.0108056 0)
(0.61007 0.013334 0)
(0.606582 0.0169604 0)
(0.601681 0.0224169 0)
(0.594819 0.0310947 0)
(0.585897 0.0457149 0)
(0.582885 0.0714194 0)
(0.100756 -0.00129899 0)
(0.104333 -0.00228941 0)
(0.109769 -0.00313561 0)
(0.116576 -0.00388373 0)
(0.124596 -0.00456859 0)
(0.13369 -0.00521536 0)
(0.143759 -0.00584459 0)
(0.154749 -0.00647241 0)
(0.166631 -0.00710937 0)
(0.179387 -0.00775969 0)
(0.193005 -0.00842099 0)
(0.207461 -0.00908473 0)
(0.222713 -0.00973762 0)
(0.238696 -0.0103635 0)
(0.255322 -0.0109453 0)
(0.272478 -0.0114673 0)
(0.290038 -0.0119162 0)
(0.307861 -0.0122824 0)
(0.325805 -0.0125599 0)
(0.34373 -0.0127464 0)
(0.361503 -0.012843 0)
(0.379 -0.0128533 0)
(0.396113 -0.0127828 0)
(0.412751 -0.0126385 0)
(0.428834 -0.0124279 0)
(0.4443 -0.012159 0)
(0.4591 -0.0118396 0)
(0.4732 -0.0114772 0)
(0.486574 -0.011079 0)
(0.49921 -0.0106513 0)
(0.511102 -0.0102001 0)
(0.522251 -0.0097306 0)
(0.532667 -0.00924735 0)
(0.542363 -0.00875441 0)
(0.551356 -0.00825528 0)
(0.559666 -0.00775296 0)
(0.567317 -0.00725004 0)
(0.574333 -0.00674869 0)
(0.580742 -0.00625076 0)
(0.586569 -0.00575777 0)
(0.591844 -0.005271 0)
(0.596595 -0.00479148 0)
(0.60085 -0.00432002 0)
(0.604637 -0.00385725 0)
(0.607985 -0.00340362 0)
(0.610921 -0.00295941 0)
(0.613474 -0.00252471 0)
(0.61567 -0.00209947 0)
(0.617535 -0.00168347 0)
(0.619095 -0.00127628 0)
(0.620375 -0.000877274 0)
(0.6214 -0.000485585 0)
(0.622193 -0.000100103 0)
(0.622777 0.000280224 0)
(0.623174 0.00065641 0)
(0.623404 0.00102993 0)
(0.62349 0.00140278 0)
(0.623449 0.00177742 0)
(0.623301 0.00215683 0)
(0.623062 0.00254458 0)
(0.622749 0.00294496 0)
(0.622376 0.0033632 0)
(0.621955 0.0038056 0)
(0.621496 0.00427991 0)
(0.621008 0.00479563 0)
(0.620496 0.00536462 0)
(0.619961 0.00600179 0)
(0.619402 0.00672622 0)
(0.61881 0.00756261 0)
(0.618172 0.00854364 0)
(0.617466 0.00971339 0)
(0.616662 0.0111327 0)
(0.615719 0.0128875 0)
(0.614582 0.0151023 0)
(0.61319 0.0179623 0)
(0.611481 0.0217486 0)
(0.609426 0.0268954 0)
(0.607106 0.0340796 0)
(0.604896 0.0443637 0)
(0.603912 0.0593327 0)
(0.608051 0.0804066 0)
(0.100651 -0.00183952 0)
(0.104148 -0.0032889 0)
(0.109486 -0.00451704 0)
(0.116206 -0.00560333 0)
(0.124149 -0.00659744 0)
(0.133174 -0.00753608 0)
(0.143182 -0.00844943 0)
(0.154121 -0.00936122 0)
(0.165961 -0.010287 0)
(0.178691 -0.0112333 0)
(0.1923 -0.0121966 0)
(0.206768 -0.0131646 0)
(0.222055 -0.0141177 0)
(0.238099 -0.0150322 0)
(0.254809 -0.0158829 0)
(0.272073 -0.0166467 0)
(0.28976 -0.0173038 0)
(0.307725 -0.0178399 0)
(0.325822 -0.0182463 0)
(0.343906 -0.0185196 0)
(0.361839 -0.0186614 0)
(0.379496 -0.018677 0)
(0.396765 -0.0185746 0)
(0.41355 -0.0183643 0)
(0.429773 -0.0180573 0)
(0.44537 -0.0176654 0)
(0.460291 -0.0171998 0)
(0.474501 -0.0166718 0)
(0.487975 -0.0160917 0)
(0.500701 -0.0154688 0)
(0.512672 -0.0148117 0)
(0.523893 -0.0141282 0)
(0.534371 -0.0134248 0)
(0.54412 -0.0127074 0)
(0.553159 -0.0119811 0)
(0.561508 -0.0112503 0)
(0.569191 -0.0105188 0)
(0.576234 -0.00978952 0)
(0.582662 -0.00906528 0)
(0.588505 -0.00834827 0)
(0.593789 -0.00764028 0)
(0.598544 -0.00694281 0)
(0.602799 -0.006257 0)
(0.606581 -0.00558375 0)
(0.60992 -0.00492367 0)
(0.612844 -0.00427713 0)
(0.615379 -0.00364428 0)
(0.617553 -0.00302501 0)
(0.619392 -0.00241894 0)
(0.620922 -0.00182545 0)
(0.622169 -0.00124361 0)
(0.623155 -0.00067216 0)
(0.623905 -0.000109528 0)
(0.624442 0.000445798 0)
(0.624787 0.000995357 0)
(0.624961 0.00154136 0)
(0.624986 0.0020867 0)
(0.62488 0.00263491 0)
(0.624661 0.00319022 0)
(0.624348 0.00375768 0)
(0.623955 0.00434335 0)
(0.623497 0.00495451 0)
(0.622988 0.00559991 0)
(0.622438 0.0062902 0)
(0.621857 0.00703834 0)
(0.621253 0.00786031 0)
(0.62063 0.00877592 0)
(0.61999 0.00981012 0)
(0.619333 0.0109946 0)
(0.618656 0.0123702 0)
(0.617951 0.0139904 0)
(0.61721 0.0159259 0)
(0.616426 0.0182722 0)
(0.615597 0.0211584 0)
(0.614739 0.0247616 0)
(0.613905 0.0293227 0)
(0.613229 0.035165 0)
(0.612993 0.0427031 0)
(0.613741 0.0524178 0)
(0.616416 0.0647125 0)
(0.622644 0.0793386 0)
(0.100542 -0.00238739 0)
(0.103952 -0.00433113 0)
(0.109167 -0.00596902 0)
(0.115776 -0.00741946 0)
(0.123618 -0.00874668 0)
(0.132553 -0.00999972 0)
(0.142482 -0.0112195 0)
(0.153354 -0.0124381 0)
(0.165145 -0.0136772 0)
(0.177847 -0.0149455 0)
(0.191455 -0.0162389 0)
(0.205955 -0.0175406 0)
(0.22131 -0.0188242 0)
(0.237458 -0.0200571 0)
(0.254309 -0.0212052 0)
(0.271746 -0.0222363 0)
(0.289632 -0.0231237 0)
(0.307816 -0.0238476 0)
(0.326145 -0.0243963 0)
(0.344466 -0.0247651 0)
(0.362636 -0.0249563 0)
(0.380524 -0.0249772 0)
(0.398015 -0.0248391 0)
(0.41501 -0.0245558 0)
(0.431428 -0.0241427 0)
(0.447204 -0.0236154 0)
(0.462289 -0.0229896 0)
(0.476647 -0.0222802 0)
(0.490254 -0.0215012 0)
(0.503098 -0.0206652 0)
(0.515173 -0.0197838 0)
(0.526484 -0.0188672 0)
(0.53704 -0.0179244 0)
(0.546857 -0.0169631 0)
(0.555952 -0.0159902 0)
(0.564348 -0.0150115 0)
(0.572069 -0.0140319 0)
(0.57914 -0.0130557 0)
(0.585591 -0.0120862 0)
(0.591448 -0.0111265 0)
(0.596741 -0.0101789 0)
(0.601498 -0.00924539 0)
(0.605749 -0.0083274 0)
(0.609522 -0.00742609 0)
(0.612847 -0.00654226 0)
(0.61575 -0.00567637 0)
(0.618261 -0.00482856 0)
(0.620405 -0.00399864 0)
(0.62221 -0.0031861 0)
(0.623702 -0.00239006 0)
(0.624904 -0.00160928 0)
(0.625842 -0.000842052 0)
(0.626538 -8.63983e-05 0)
(0.627017 0.000659673 0)
(0.6273 0.00139833 0)
(0.627408 0.00213259 0)
(0.62736 0.00286628 0)
(0.627178 0.003604 0)
(0.626879 0.00435123 0)
(0.62648 0.00511444 0)
(0.625997 0.00590134 0)
(0.625447 0.00672111 0)
(0.624842 0.00758468 0)
(0.624196 0.00850517 0)
(0.62352 0.00949837 0)
(0.622824 0.0105834 0)
(0.622118 0.0117837 0)
(0.621408 0.0131278 0)
(0.620703 0.0146514 0)
(0.62001 0.0163987 0)
(0.619339 0.0184254 0)
(0.618701 0.0208016 0)
(0.618119 0.023616 0)
(0.617631 0.0269795 0)
(0.617301 0.0310298 0)
(0.617238 0.035931 0)
(0.617623 0.0418671 0)
(0.618738 0.0490165 0)
(0.621002 0.0574923 0)
(0.624973 0.0672183 0)
(0.631309 0.0777014 0)
(0.100431 -0.00294218 0)
(0.103755 -0.00541296 0)
(0.108834 -0.0074893 0)
(0.115312 -0.00933122 0)
(0.123035 -0.0110174 0)
(0.131863 -0.0126096 0)
(0.141699 -0.0141606 0)
(0.152495 -0.0157123 0)
(0.164234 -0.0172929 0)
(0.176915 -0.0189146 0)
(0.190543 -0.0205722 0)
(0.205109 -0.0222442 0)
(0.220582 -0.023896 0)
(0.236902 -0.0254846 0)
(0.253973 -0.0269651 0)
(0.271672 -0.0282952 0)
(0.289853 -0.0294396 0)
(0.308356 -0.0303725 0)
(0.327014 -0.0310785 0)
(0.345667 -0.0315521 0)
(0.364162 -0.0317962 0)
(0.382362 -0.0318208 0)
(0.400148 -0.031641 0)
(0.417417 -0.0312748 0)
(0.434086 -0.0307423 0)
(0.450091 -0.0300641 0)
(0.46538 -0.0292603 0)
(0.47992 -0.0283502 0)
(0.493688 -0.0273518 0)
(0.506671 -0.0262814 0)
(0.518868 -0.0251537 0)
(0.530283 -0.0239817 0)
(0.540928 -0.022777 0)
(0.550818 -0.0215494 0)
(0.559973 -0.0203075 0)
(0.568417 -0.0190587 0)
(0.576176 -0.0178092 0)
(0.583275 -0.0165643 0)
(0.589744 -0.0153283 0)
(0.595611 -0.014105 0)
(0.600906 -0.0128971 0)
(0.605659 -0.0117072 0)
(0.609899 -0.0105371 0)
(0.613654 -0.00938822 0)
(0.616956 -0.00826139 0)
(0.61983 -0.00715719 0)
(0.622306 -0.00607574 0)
(0.624411 -0.00501676 0)
(0.626172 -0.00397958 0)
(0.627613 -0.00296306 0)
(0.628761 -0.00196556 0)
(0.629639 -0.000984927 0)
(0.630271 -1.89112e-05 0)
(0.630682 0.000935011 0)
(0.630891 0.00187979 0)
(0.630921 0.00281928 0)
(0.630792 0.00375824 0)
(0.630524 0.00470229 0)
(0.630135 0.00565808 0)
(0.629643 0.00663337 0)
(0.629064 0.0076373 0)
(0.628415 0.00868064 0)
(0.627712 0.00977605 0)
(0.626968 0.0109385 0)
(0.626199 0.0121857 0)
(0.625416 0.0135386 0)
(0.624635 0.0150225 0)
(0.623868 0.0166671 0)
(0.623131 0.0185084 0)
(0.622442 0.0205893 0)
(0.621823 0.022961 0)
(0.621304 0.0256845 0)
(0.620926 0.028831 0)
(0.620747 0.0324816 0)
(0.620851 0.0367251 0)
(0.621357 0.0416505 0)
(0.622426 0.0473326 0)
(0.624271 0.0538066 0)
(0.627153 0.0610262 0)
(0.631351 0.0688058 0)
(0.637094 0.0767553 0)
(0.100319 -0.00350447 0)
(0.103564 -0.00653268 0)
(0.108502 -0.00907679 0)
(0.114837 -0.0113387 0)
(0.122429 -0.0134115 0)
(0.131137 -0.0153701 0)
(0.140872 -0.0172804 0)
(0.15159 -0.0191955 0)
(0.163284 -0.0211517 0)
(0.175965 -0.0231652 0)
(0.189649 -0.0252298 0)
(0.204338 -0.0273183 0)
(0.220006 -0.0293858 0)
(0.236591 -0.0313772 0)
(0.253991 -0.0332339 0)
(0.272071 -0.0349013 0)
(0.29067 -0.0363343 0)
(0.309611 -0.0374999 0)
(0.328715 -0.0383791 0)
(0.347806 -0.0389654 0)
(0.366722 -0.0392635 0)
(0.38532 -0.0392868 0)
(0.403473 -0.0390549 0)
(0.421078 -0.0385913 0)
(0.43805 -0.0379215 0)
(0.454323 -0.0370716 0)
(0.46985 -0.0360672 0)
(0.484597 -0.0349323 0)
(0.498544 -0.0336894 0)
(0.511681 -0.0323588 0)
(0.524007 -0.0309588 0)
(0.53553 -0.0295054 0)
(0.546264 -0.0280127 0)
(0.556225 -0.0264929 0)
(0.565437 -0.0249565 0)
(0.573924 -0.0234124 0)
(0.581712 -0.0218682 0)
(0.588831 -0.0203302 0)
(0.595309 -0.0188038 0)
(0.601176 -0.0172934 0)
(0.606463 -0.0158024 0)
(0.6112 -0.0143337 0)
(0.615416 -0.0128894 0)
(0.619143 -0.0114713 0)
(0.622409 -0.0100802 0)
(0.625243 -0.00871682 0)
(0.627672 -0.00738122 0)
(0.629726 -0.00607301 0)
(0.631429 -0.00479129 0)
(0.632809 -0.00353466 0)
(0.63389 -0.00230112 0)
(0.634697 -0.00108807 0)
(0.635255 0.000107068 0)
(0.635586 0.00128727 0)
(0.635712 0.00245634 0)
(0.635655 0.00361902 0)
(0.635435 0.00478096 0)
(0.635073 0.0059487 0)
(0.634586 0.00712989 0)
(0.633994 0.00833337 0)
(0.633315 0.00956941 0)
(0.632565 0.0108499 0)
(0.631761 0.0121887 0)
(0.630921 0.0136017 0)
(0.63006 0.0151075 0)
(0.629197 0.0167275 0)
(0.628347 0.0184867 0)
(0.627532 0.0204138 0)
(0.626772 0.0225417 0)
(0.626095 0.024908 0)
(0.625529 0.0275551 0)
(0.625116 0.0305297 0)
(0.624904 0.0338813 0)
(0.624957 0.03766 0)
(0.625355 0.0419113 0)
(0.626201 0.0466679 0)
(0.627614 0.0519378 0)
(0.629731 0.0576877 0)
(0.63269 0.0638227 0)
(0.636607 0.0701672 0)
(0.641526 0.0764577 0)
(0.100204 -0.00407592 0)
(0.103384 -0.00769013 0)
(0.108185 -0.0107319 0)
(0.114372 -0.0134431 0)
(0.121824 -0.0159322 0)
(0.130409 -0.0182873 0)
(0.14004 -0.0205889 0)
(0.150686 -0.0229033 0)
(0.162354 -0.0252768 0)
(0.175073 -0.0277304 0)
(0.188874 -0.0302567 0)
(0.203771 -0.0328207 0)
(0.219743 -0.035365 0)
(0.236722 -0.037818 0)
(0.254594 -0.0401044 0)
(0.273202 -0.0421546 0)
(0.292365 -0.0439115 0)
(0.311883 -0.0453346 0)
(0.331558 -0.046401 0)
(0.351199 -0.0471046 0)
(0.370632 -0.0474527 0)
(0.389706 -0.0474636 0)
(0.408291 -0.0471628 0)
(0.426281 -0.0465805 0)
(0.443593 -0.0457487 0)
(0.460163 -0.0447 0)
(0.475945 -0.0434661 0)
(0.49091 -0.0420765 0)
(0.505039 -0.0405587 0)
(0.518328 -0.0389373 0)
(0.53078 -0.0372343 0)
(0.542403 -0.035469 0)
(0.553215 -0.0336583 0)
(0.563237 -0.0318168 0)
(0.572491 -0.029957 0)
(0.581006 -0.0280893 0)
(0.58881 -0.0262227 0)
(0.595932 -0.0243648 0)
(0.602403 -0.0225216 0)
(0.608255 -0.0206983 0)
(0.613518 -0.018899 0)
(0.618224 -0.0171269 0)
(0.622404 -0.0153844 0)
(0.626087 -0.0136734 0)
(0.629303 -0.011995 0)
(0.632082 -0.0103498 0)
(0.634452 -0.00873774 0)
(0.636441 -0.0071584 0)
(0.638075 -0.00561063 0)
(0.639382 -0.00409276 0)
(0.640385 -0.00260245 0)
(0.641111 -0.00113672 0)
(0.641583 0.000307447 0)
(0.641825 0.00173349 0)
(0.641859 0.00314603 0)
(0.641707 0.00455064 0)
(0.641389 0.00595378 0)
(0.640927 0.00736278 0)
(0.640338 0.00878607 0)
(0.639643 0.0102333 0)
(0.63886 0.0117153 0)
(0.638007 0.0132448 0)
(0.637104 0.0148359 0)
(0.636169 0.0165047 0)
(0.635221 0.0182695 0)
(0.63428 0.0201507 0)
(0.633367 0.0221713 0)
(0.632507 0.0243567 0)
(0.631724 0.0267346 0)
(0.631051 0.0293351 0)
(0.630521 0.0321892 0)
(0.630178 0.0353283 0)
(0.630068 0.0387815 0)
(0.630252 0.0425728 0)
(0.630795 0.0467164 0)
(0.631772 0.0512104 0)
(0.63326 0.0560299 0)
(0.635336 0.0611186 0)
(0.638061 0.0663819 0)
(0.641466 0.0716847 0)
(0.645525 0.0768611 0)
(0.100084 -0.00465909 0)
(0.103216 -0.00888669 0)
(0.107889 -0.0124565 0)
(0.113929 -0.0156477 0)
(0.121242 -0.0185847 0)
(0.129704 -0.0213695 0)
(0.139239 -0.0240996 0)
(0.149831 -0.026857 0)
(0.16151 -0.0297002 0)
(0.174327 -0.0326561 0)
(0.188337 -0.035715 0)
(0.203565 -0.0388313 0)
(0.219989 -0.0419297 0)
(0.23753 -0.0449171 0)
(0.256047 -0.0476969 0)
(0.275358 -0.0501808 0)
(0.295246 -0.0522982 0)
(0.315487 -0.0540009 0)
(0.335857 -0.0552634 0)
(0.356149 -0.0560813 0)
(0.37618 -0.0564669 0)
(0.395791 -0.0564452 0)
(0.41485 -0.0560495 0)
(0.433254 -0.0553181 0)
(0.450921 -0.0542912 0)
(0.467793 -0.0530089 0)
(0.483827 -0.0515095 0)
(0.499 -0.0498288 0)
(0.513298 -0.0479997 0)
(0.526721 -0.0460514 0)
(0.539276 -0.0440099 0)
(0.550978 -0.0418981 0)
(0.561846 -0.0397357 0)
(0.571903 -0.0375395 0)
(0.581177 -0.0353241 0)
(0.589696 -0.0331016 0)
(0.597492 -0.0308824 0)
(0.604596 -0.028675 0)
(0.61104 -0.0264865 0)
(0.616856 -0.0243225 0)
(0.622077 -0.0221877 0)
(0.626734 -0.0200857 0)
(0.630859 -0.0180192 0)
(0.634483 -0.01599 0)
(0.637635 -0.0139996 0)
(0.640346 -0.0120482 0)
(0.642643 -0.010136 0)
(0.644555 -0.00826225 0)
(0.64611 -0.00642556 0)
(0.647332 -0.00462404 0)
(0.648249 -0.00285506 0)
(0.648884 -0.0011153 0)
(0.649264 0.000598714 0)
(0.649412 0.00229095 0)
(0.649348 0.00396679 0)
(0.649096 0.00563256 0)
(0.648677 0.00729535 0)
(0.648111 0.0089631 0)
(0.647419 0.0106447 0)
(0.64662 0.0123502 0)
(0.645734 0.0140908 0)
(0.644781 0.0158791 0)
(0.643781 0.017729 0)
(0.642754 0.0196557 0)
(0.641722 0.0216763 0)
(0.640707 0.023809 0)
(0.639732 0.0260735 0)
(0.638825 0.0284906 0)
(0.638012 0.0310817 0)
(0.637325 0.033868 0)
(0.636801 0.0368699 0)
(0.636477 0.0401049 0)
(0.636397 0.0435858 0)
(0.636608 0.0473183 0)
(0.637158 0.0512972 0)
(0.638097 0.0555038 0)
(0.639469 0.0599016 0)
(0.641308 0.0644344 0)
(0.643633 0.0690251 0)
(0.646437 0.0735788 0)
(0.649672 0.0779945 0)
(0.0999585 -0.0052572 0)
(0.103061 -0.0101252 0)
(0.10762 -0.0142545 0)
(0.113518 -0.0179575 0)
(0.120698 -0.0213764 0)
(0.129046 -0.0246287 0)
(0.138502 -0.0278314 0)
(0.149075 -0.0310864 0)
(0.160824 -0.0344672 0)
(0.173834 -0.0380073 0)
(0.188183 -0.0416921 0)
(0.203908 -0.0454593 0)
(0.220977 -0.0492084 0)
(0.239282 -0.0528173 0)
(0.258648 -0.0561619 0)
(0.278847 -0.0591319 0)
(0.299625 -0.0616426 0)
(0.320722 -0.063639 0)
(0.341893 -0.0650958 0)
(0.362914 -0.066013 0)
(0.383593 -0.0664109 0)
(0.40377 -0.066324 0)
(0.423316 -0.0657957 0)
(0.44213 -0.0648743 0)
(0.460138 -0.0636094 0)
(0.477287 -0.0620497 0)
(0.493544 -0.0602411 0)
(0.508891 -0.0582262 0)
(0.523322 -0.0560434 0)
(0.536842 -0.053727 0)
(0.549463 -0.0513072 0)
(0.561205 -0.0488102 0)
(0.572091 -0.0462586 0)
(0.582149 -0.0436717 0)
(0.591408 -0.041066 0)
(0.5999 -0.0384553 0)
(0.607658 -0.0358511 0)
(0.614716 -0.0332629 0)
(0.621106 -0.0306986 0)
(0.626863 -0.0281645 0)
(0.632019 -0.0256656 0)
(0.636607 -0.0232058 0)
(0.640659 -0.0207881 0)
(0.644207 -0.0184144 0)
(0.64728 -0.0160859 0)
(0.64991 -0.0138032 0)
(0.652123 -0.0115659 0)
(0.653949 -0.00937338 0)
(0.655415 -0.00722397 0)
(0.656547 -0.00511552 0)
(0.657372 -0.00304517 0)
(0.657912 -0.00100936 0)
(0.658197 0.000995883 0)
(0.658247 0.00297514 0)
(0.658085 0.00493445 0)
(0.657734 0.00688072 0)
(0.657214 0.00882149 0)
(0.656548 0.010765 0)
(0.655755 0.0127204 0)
(0.654856 0.0146976 0)
(0.653873 0.0167078 0)
(0.652825 0.0187627 0)
(0.651734 0.0208755 0)
(0.650622 0.02306 0)
(0.649511 0.0253309 0)
(0.648424 0.0277035 0)
(0.647387 0.0301936 0)
(0.646427 0.0328167 0)
(0.64557 0.0355877 0)
(0.644848 0.0385201 0)
(0.644292 0.0416246 0)
(0.643936 0.0449082 0)
(0.643814 0.0483726 0)
(0.643961 0.0520121 0)
(0.64441 0.0558126 0)
(0.645189 0.0597492 0)
(0.646318 0.063786 0)
(0.64781 0.0678758 0)
(0.649659 0.0719611 0)
(0.651845 0.0759787 0)
(0.654319 0.079868 0)
(0.099824 -0.00587394 0)
(0.102916 -0.0114097 0)
(0.107379 -0.0161311 0)
(0.113146 -0.0203798 0)
(0.120204 -0.0243179 0)
(0.128457 -0.0280814 0)
(0.137865 -0.0318114 0)
(0.148473 -0.0356346 0)
(0.160384 -0.0396432 0)
(0.173723 -0.0438764 0)
(0.188593 -0.0483089 0)
(0.205029 -0.052852 0)
(0.222977 -0.0573682 0)
(0.24228 -0.0616968 0)
(0.262708 -0.0656796 0)
(0.283977 -0.0691825 0)
(0.305786 -0.0721076 0)
(0.327844 -0.0743969 0)
(0.349881 -0.0760292 0)
(0.371666 -0.0770136 0)
(0.393001 -0.0773824 0)
(0.413732 -0.0771826 0)
(0.433734 -0.0764705 0)
(0.452918 -0.0753062 0)
(0.471217 -0.0737501 0)
(0.48859 -0.0718604 0)
(0.505013 -0.0696913 0)
(0.520476 -0.0672925 0)
(0.534981 -0.0647083 0)
(0.54854 -0.061978 0)
(0.561172 -0.059136 0)
(0.572902 -0.0562119 0)
(0.583757 -0.0532311 0)
(0.593768 -0.0502153 0)
(0.602969 -0.0471827 0)
(0.611393 -0.0441485 0)
(0.619077 -0.0411254 0)
(0.626054 -0.038124 0)
(0.63236 -0.0351525 0)
(0.63803 -0.032218 0)
(0.643097 -0.0293256 0)
(0.647594 -0.0264796 0)
(0.651555 -0.0236829 0)
(0.65501 -0.0209376 0)
(0.657991 -0.0182447 0)
(0.660527 -0.0156047 0)
(0.662647 -0.0130173 0)
(0.66438 -0.0104812 0)
(0.665752 -0.00799497 0)
(0.666791 -0.00555603 0)
(0.667521 -0.00316141 0)
(0.667967 -0.000807453 0)
(0.668159 0.00151044 0)
(0.668115 0.00379748 0)
(0.667859 0.00606025 0)
(0.667413 0.00830601 0)
(0.6668 0.0105425 0)
(0.66604 0.0127779 0)
(0.665156 0.0150214 0)
(0.664167 0.0172824 0)
(0.663096 0.0195714 0)
(0.661964 0.0218993 0)
(0.660792 0.0242775 0)
(0.659603 0.0267179 0)
(0.65842 0.0292327 0)
(0.657267 0.0318338 0)
(0.656167 0.0345328 0)
(0.655148 0.0373402 0)
(0.654234 0.0402653 0)
(0.653453 0.0433148 0)
(0.652832 0.0464927 0)
(0.652398 0.0497987 0)
(0.652176 0.0532278 0)
(0.65219 0.0567691 0)
(0.65246 0.0604056 0)
(0.652999 0.064113 0)
(0.653816 0.0678608 0)
(0.654907 0.0716126 0)
(0.65626 0.0753282 0)
(0.657848 0.0789663 0)
(0.659633 0.0824916 0)
(0.0996782 -0.00651338 0)
(0.102781 -0.012746 0)
(0.107168 -0.0180937 0)
(0.112819 -0.0229247 0)
(0.119773 -0.0274242 0)
(0.127957 -0.0317516 0)
(0.137367 -0.036079 0)
(0.148097 -0.0405648 0)
(0.160305 -0.0453228 0)
(0.174162 -0.0503939 0)
(0.189788 -0.0557309 0)
(0.207202 -0.0612022 0)
(0.226293 -0.0666181 0)
(0.246836 -0.0717676 0)
(0.268525 -0.076454 0)
(0.291013 -0.0805201 0)
(0.313953 -0.0838597 0)
(0.337022 -0.0864178 0)
(0.359938 -0.088184 0)
(0.382466 -0.0891824 0)
(0.404415 -0.0894614 0)
(0.425637 -0.0890844 0)
(0.446024 -0.088123 0)
(0.465497 -0.0866509 0)
(0.484005 -0.0847404 0)
(0.501517 -0.0824598 0)
(0.518021 -0.0798722 0)
(0.533517 -0.0770342 0)
(0.548018 -0.0739964 0)
(0.561542 -0.0708029 0)
(0.574114 -0.067492 0)
(0.585765 -0.0640968 0)
(0.596527 -0.0606451 0)
(0.606435 -0.0571608 0)
(0.615526 -0.0536636 0)
(0.623836 -0.0501702 0)
(0.631401 -0.0466942 0)
(0.63826 -0.0432467 0)
(0.644447 -0.0398367 0)
(0.649999 -0.0364714 0)
(0.65495 -0.0331564 0)
(0.659334 -0.0298958 0)
(0.663183 -0.0266926 0)
(0.66653 -0.0235488 0)
(0.669405 -0.0204655 0)
(0.671838 -0.0174429 0)
(0.673858 -0.0144803 0)
(0.675492 -0.0115766 0)
(0.676769 -0.00872976 0)
(0.677713 -0.00593728 0)
(0.678352 -0.00319596 0)
(0.678708 -0.0005023 0)
(0.678812 0.00214892 0)
(0.678681 0.00476374 0)
(0.67834 0.00734912 0)
(0.677811 0.00991235 0)
(0.677116 0.0124611 0)
(0.676277 0.0150033 0)
(0.675315 0.0175476 0)
(0.674251 0.0201029 0)
(0.673107 0.0226786 0)
(0.671904 0.0252841 0)
(0.670665 0.0279291 0)
(0.669412 0.0306233 0)
(0.668167 0.033376 0)
(0.666953 0.0361958 0)
(0.665793 0.0390907 0)
(0.664711 0.0420668 0)
(0.663729 0.0451289 0)
(0.662872 0.0482789 0)
(0.66216 0.0515161 0)
(0.661613 0.0548363 0)
(0.661251 0.0582314 0)
(0.661088 0.0616891 0)
(0.661133 0.0651929 0)
(0.661394 0.0687224 0)
(0.661867 0.0722536 0)
(0.662547 0.0757603 0)
(0.663416 0.0792151 0)
(0.664451 0.0825917 0)
(0.665621 0.0858703 0)
(0.0995183 -0.00718003 0)
(0.102654 -0.014141 0)
(0.106989 -0.0201518 0)
(0.112542 -0.0256059 0)
(0.119417 -0.0307165 0)
(0.127577 -0.0356743 0)
(0.137065 -0.0406926 0)
(0.148043 -0.0459699 0)
(0.160738 -0.0516419 0)
(0.175364 -0.0577409 0)
(0.19204 -0.0641768 0)
(0.210731 -0.070752 0)
(0.231239 -0.0772054 0)
(0.253244 -0.0832663 0)
(0.27635 -0.0886992 0)
(0.300147 -0.0933299 0)
(0.324249 -0.097053 0)
(0.348313 -0.0998261 0)
(0.372055 -0.101658 0)
(0.395246 -0.102593 0)
(0.41771 -0.102701 0)
(0.439316 -0.102066 0)
(0.459973 -0.100777 0)
(0.47962 -0.0989207 0)
(0.49822 -0.0965837 0)
(0.51576 -0.0938445 0)
(0.532238 -0.0907747 0)
(0.547667 -0.0874383 0)
(0.562067 -0.0838915 0)
(0.575465 -0.0801832 0)
(0.587895 -0.0763553 0)
(0.59939 -0.0724438 0)
(0.609988 -0.068479 0)
(0.619729 -0.0644865 0)
(0.62865 -0.0604875 0)
(0.636792 -0.0564995 0)
(0.644192 -0.0525369 0)
(0.650889 -0.0486115 0)
(0.65692 -0.0447324 0)
(0.662322 -0.0409071 0)
(0.667128 -0.0371412 0)
(0.671374 -0.0334388 0)
(0.675092 -0.0298028 0)
(0.678314 -0.0262351 0)
(0.681071 -0.0227365 0)
(0.683391 -0.019307 0)
(0.685304 -0.0159458 0)
(0.686837 -0.0126515 0)
(0.688017 -0.00942183 0)
(0.688871 -0.00625416 0)
(0.689423 -0.00314509 0)
(0.689697 -9.14185e-05 0)
(0.689722 0.00291249 0)
(0.689516 0.0058736 0)
(0.689103 0.00879905 0)
(0.688506 0.0116959 0)
(0.687745 0.0145716 0)
(0.686843 0.0174336 0)
(0.685821 0.0202897 0)
(0.6847 0.0231481 0)
(0.683501 0.0260166 0)
(0.682246 0.0289033 0)
(0.680957 0.0318159 0)
(0.679654 0.0347619 0)
(0.678359 0.037748 0)
(0.677093 0.0407799 0)
(0.675878 0.0438624 0)
(0.674734 0.0469985 0)
(0.67368 0.0501895 0)
(0.672736 0.0534345 0)
(0.671918 0.0567302 0)
(0.671241 0.0600705 0)
(0.670717 0.0634469 0)
(0.670355 0.0668477 0)
(0.670159 0.0702591 0)
(0.67013 0.0736649 0)
(0.670262 0.0770477 0)
(0.670547 0.0803891 0)
(0.670968 0.0836712 0)
(0.671507 0.0868777 0)
(0.672138 0.0899981 0)
(0.0993412 -0.00787888 0)
(0.102533 -0.0156036 0)
(0.106841 -0.022318 0)
(0.112322 -0.0284422 0)
(0.119155 -0.034225 0)
(0.127355 -0.0399014 0)
(0.137034 -0.0457394 0)
(0.148442 -0.0519858 0)
(0.161881 -0.0587926 0)
(0.177594 -0.0661604 0)
(0.195657 -0.0739237 0)
(0.215935 -0.0817885 0)
(0.238109 -0.0894042 0)
(0.261739 -0.096437 0)
(0.286345 -0.10262 0)
(0.31146 -0.107776 0)
(0.336674 -0.111813 0)
(0.361641 -0.114714 0)
(0.386087 -0.116513 0)
(0.409803 -0.117284 0)
(0.432635 -0.117123 0)
(0.454474 -0.116133 0)
(0.47525 -0.114424 0)
(0.494924 -0.112099 0)
(0.513478 -0.109256 0)
(0.530911 -0.105985 0)
(0.547238 -0.102366 0)
(0.562482 -0.0984697 0)
(0.576672 -0.094357 0)
(0.589844 -0.0900814 0)
(0.602037 -0.0856882 0)
(0.613292 -0.0812159 0)
(0.623649 -0.0766966 0)
(0.63315 -0.0721573 0)
(0.641839 -0.0676204 0)
(0.649754 -0.0631041 0)
(0.656938 -0.0586232 0)
(0.663428 -0.0541897 0)
(0.669263 -0.049813 0)
(0.674479 -0.0455005 0)
(0.679111 -0.0412576 0)
(0.683194 -0.0370884 0)
(0.68676 -0.0329955 0)
(0.68984 -0.0289805 0)
(0.692465 -0.025044 0)
(0.694664 -0.0211858 0)
(0.696465 -0.0174047 0)
(0.697895 -0.0136991 0)
(0.69898 -0.0100668 0)
(0.699747 -0.00650483 0)
(0.700219 -0.0030099 0)
(0.700424 0.000421827 0)
(0.70038 0.00379607 0)
(0.700112 0.00712009 0)
(0.699643 0.0104009 0)
(0.698994 0.0136454 0)
(0.698185 0.0168603 0)
(0.69724 0.0200527 0)
(0.696178 0.0232295 0)
(0.69502 0.0263976 0)
(0.693787 0.0295637 0)
(0.692499 0.0327343 0)
(0.691178 0.0359152 0)
(0.689842 0.0391119 0)
(0.688512 0.0423289 0)
(0.687206 0.0455696 0)
(0.685945 0.0488365 0)
(0.684744 0.0521303 0)
(0.68362 0.0554503 0)
(0.682588 0.0587941 0)
(0.681661 0.0621573 0)
(0.68085 0.0655337 0)
(0.680161 0.0689154 0)
(0.679599 0.0722929 0)
(0.679167 0.0756551 0)
(0.678861 0.0789903 0)
(0.678675 0.0822862 0)
(0.6786 0.0855306 0)
(0.678623 0.0887121 0)
(0.678729 0.0918211 0)
(0.678898 0.0948531 0)
(0.0991434 -0.00861567 0)
(0.102417 -0.0171446 0)
(0.106729 -0.0246088 0)
(0.11217 -0.0314599 0)
(0.119012 -0.0379946 0)
(0.127348 -0.0445108 0)
(0.137382 -0.0513491 0)
(0.149471 -0.0588085 0)
(0.163987 -0.0670377 0)
(0.181159 -0.0759646 0)
(0.200961 -0.0853024 0)
(0.223108 -0.0946283 0)
(0.247126 -0.103493 0)
(0.272457 -0.111507 0)
(0.298546 -0.118393 0)
(0.324894 -0.123985 0)
(0.351086 -0.128224 0)
(0.376791 -0.131128 0)
(0.40176 -0.13277 0)
(0.425811 -0.133254 0)
(0.448819 -0.132706 0)
(0.470705 -0.131253 0)
(0.491423 -0.129024 0)
(0.510955 -0.126138 0)
(0.529301 -0.122706 0)
(0.546479 -0.118827 0)
(0.562515 -0.114589 0)
(0.577445 -0.11007 0)
(0.591306 -0.105334 0)
(0.604143 -0.10044 0)
(0.616 -0.0954347 0)
(0.626922 -0.0903586 0)
(0.636955 -0.0852455 0)
(0.646143 -0.0801235 0)
(0.654531 -0.0750153 0)
(0.66216 -0.0699397 0)
(0.669073 -0.0649116 0)
(0.675309 -0.0599431 0)
(0.680906 -0.0550433 0)
(0.6859 -0.0502194 0)
(0.690328 -0.0454767 0)
(0.694221 -0.0408188 0)
(0.697614 -0.0362481 0)
(0.700536 -0.0317657 0)
(0.703017 -0.027372 0)
(0.705085 -0.0230663 0)
(0.706769 -0.0188473 0)
(0.708094 -0.0147131 0)
(0.709086 -0.0106614 0)
(0.70977 -0.00668922 0)
(0.710169 -0.00279329 0)
(0.710311 0.00103109 0)
(0.710212 0.00479005 0)
(0.709897 0.00849038 0)
(0.709388 0.0121388 0)
(0.708704 0.0157417 0)
(0.707868 0.0193054 0)
(0.7069 0.0228361 0)
(0.705819 0.0263399 0)
(0.704646 0.0298226 0)
(0.7034 0.0332896 0)
(0.7021 0.0367459 0)
(0.700766 0.0401959 0)
(0.699416 0.0436432 0)
(0.698067 0.0470908 0)
(0.696737 0.0505404 0)
(0.695441 0.0539929 0)
(0.694193 0.0574477 0)
(0.693009 0.0609032 0)
(0.691897 0.0643564 0)
(0.690869 0.0678029 0)
(0.689932 0.0712374 0)
(0.689089 0.0746533 0)
(0.688345 0.0780432 0)
(0.687697 0.0813993 0)
(0.687142 0.0847131 0)
(0.686676 0.0879767 0)
(0.68629 0.0911823 0)
(0.685973 0.0943232 0)
(0.685713 0.0973938 0)
(0.685498 0.100394 0)
(0.0989209 -0.00939718 0)
(0.102306 -0.018778 0)
(0.106657 -0.0270466 0)
(0.112101 -0.0346966 0)
(0.119028 -0.0420922 0)
(0.127637 -0.0496201 0)
(0.138257 -0.0577126 0)
(0.151361 -0.0667125 0)
(0.167356 -0.0767215 0)
(0.186386 -0.087531 0)
(0.208251 -0.0986789 0)
(0.232467 -0.109591 0)
(0.258402 -0.119726 0)
(0.285395 -0.128664 0)
(0.312844 -0.136139 0)
(0.340246 -0.142026 0)
(0.367203 -0.146314 0)
(0.393417 -0.149066 0)