/*--------------------------------*- C++ -*----------------------------------*\
  =========                 |
  \\      /  F ield         | OpenFOAM: The Open Source CFD Toolbox
   \\    /   O peration     | Website:  https://openfoam.org
    \\  /    A nd           | Version:  7
     \\/     M anipulation  |
\*---------------------------------------------------------------------------*/
FoamFile
{
    version     2.0;
    format      ascii;
    class       volVectorField;
    location    "8.29";
    object      U;
}
// * * * * * * * * * * * * * * * * * * * * * * * * * * * * * * * * * * * * * //

dimensions      [0 1 -1 0 0 0 0];

internalField   nonuniform List<vector> 
12013
(
(0.10093 -0.000249372 0)
(0.10455 -0.00043336 0)
(0.110045 -0.000593318 0)
(0.116895 -0.000735327 0)
(0.124949 -0.000865528 0)
(0.134071 -0.000988496 0)
(0.144161 -0.00110787 0)
(0.155159 -0.00122648 0)
(0.167029 -0.00134618 0)
(0.179745 -0.00146767 0)
(0.193287 -0.00159054 0)
(0.207621 -0.00171328 0)
(0.222702 -0.00183354 0)
(0.238462 -0.00194849 0)
(0.254813 -0.00205513 0)
(0.271648 -0.00215069 0)
(0.288845 -0.00223281 0)
(0.306274 -0.00229977 0)
(0.323801 -0.0023505 0)
(0.341295 -0.00238458 0)
(0.358631 -0.00240219 0)
(0.375696 -0.00240396 0)
(0.392386 -0.00239089 0)
(0.408616 -0.00236421 0)
(0.424311 -0.0023253 0)
(0.439412 -0.0022756 0)
(0.453873 -0.00221655 0)
(0.467658 -0.00214952 0)
(0.480746 -0.00207582 0)
(0.493122 -0.00199664 0)
(0.50478 -0.00191307 0)
(0.515722 -0.00182608 0)
(0.525956 -0.00173653 0)
(0.535494 -0.00164517 0)
(0.544352 -0.00155266 0)
(0.552549 -0.00145955 0)
(0.560108 -0.00136635 0)
(0.567053 -0.00127345 0)
(0.573408 -0.00118119 0)
(0.5792 -0.00108989 0)
(0.584456 -0.000999764 0)
(0.589204 -0.000911014 0)
(0.593471 -0.000823798 0)
(0.597284 -0.000738239 0)
(0.600672 -0.000654421 0)
(0.603662 -0.000572395 0)
(0.60628 -0.000492185 0)
(0.608554 -0.000413786 0)
(0.610508 -0.000337156 0)
(0.612169 -0.000262219 0)
(0.613562 -0.00018886 0)
(0.614709 -0.000116923 0)
(0.615636 -4.61994e-05 0)
(0.616363 2.3532e-05 0)
(0.616913 9.25001e-05 0)
(0.617307 0.000160972 0)
(0.617566 0.000229318 0)
(0.617708 0.000298004 0)
(0.617753 0.000367601 0)
(0.617717 0.000438798 0)
(0.617616 0.000512431 0)
(0.617464 0.000589517 0)
(0.617272 0.0006713 0)
(0.617051 0.000759313 0)
(0.616806 0.000855465 0)
(0.61654 0.000962158 0)
(0.616253 0.00108246 0)
(0.615936 0.00122034 0)
(0.615574 0.00138109 0)
(0.615143 0.00157184 0)
(0.614603 0.00180256 0)
(0.613893 0.0020876 0)
(0.612924 0.00244842 0)
(0.611556 0.00291854 0)
(0.60958 0.00355286 0)
(0.606657 0.00444628 0)
(0.602229 0.00577296 0)
(0.595312 0.00787897 0)
(0.584132 0.0115822 0)
(0.56556 0.0198032 0)
(0.546975 0.0528203 0)
(0.100845 -0.000759532 0)
(0.104444 -0.00132622 0)
(0.109908 -0.00181611 0)
(0.116732 -0.00225028 0)
(0.124764 -0.0026481 0)
(0.133864 -0.00302353 0)
(0.143935 -0.00338773 0)
(0.154917 -0.00374943 0)
(0.166773 -0.00411425 0)
(0.179479 -0.00448443 0)
(0.193014 -0.00485864 0)
(0.207348 -0.00523232 0)
(0.222435 -0.00559833 0)
(0.238207 -0.00594804 0)
(0.254577 -0.00627239 0)
(0.271438 -0.00656291 0)
(0.288666 -0.00681254 0)
(0.306131 -0.00701603 0)
(0.323698 -0.00717021 0)
(0.341235 -0.00727383 0)
(0.358615 -0.00732744 0)
(0.375724 -0.00733298 0)
(0.392459 -0.00729348 0)
(0.408732 -0.00721267 0)
(0.424468 -0.00709473 0)
(0.439608 -0.00694402 0)
(0.454105 -0.00676484 0)
(0.467925 -0.0065614 0)
(0.481044 -0.00633759 0)
(0.493448 -0.00609705 0)
(0.505132 -0.00584305 0)
(0.516098 -0.00557853 0)
(0.526352 -0.00530609 0)
(0.535908 -0.00502801 0)
(0.544782 -0.00474628 0)
(0.552993 -0.0044626 0)
(0.560563 -0.00417845 0)
(0.567517 -0.00389508 0)
(0.573879 -0.00361356 0)
(0.579677 -0.00333476 0)
(0.584936 -0.00305942 0)
(0.589686 -0.00278814 0)
(0.593953 -0.0025214 0)
(0.597765 -0.00225958 0)
(0.601149 -0.00200293 0)
(0.604134 -0.00175164 0)
(0.606745 -0.00150576 0)
(0.60901 -0.00126529 0)
(0.610954 -0.0010301 0)
(0.612603 -0.000799965 0)
(0.61398 -0.000574536 0)
(0.615112 -0.000353333 0)
(0.616019 -0.000135715 0)
(0.616726 7.8981e-05 0)
(0.617252 0.000291398 0)
(0.617621 0.000502331 0)
(0.617851 0.000712901 0)
(0.617962 0.00092454 0)
(0.617973 0.00113899 0)
(0.6179 0.00135834 0)
(0.617758 0.00158515 0)
(0.617562 0.00182248 0)
(0.617324 0.00207412 0)
(0.617052 0.00234468 0)
(0.616755 0.00263991 0)
(0.616434 0.00296698 0)
(0.616091 0.00333503 0)
(0.615719 0.00375585 0)
(0.615305 0.00424493 0)
(0.614829 0.00482311 0)
(0.614257 0.00551908 0)
(0.613539 0.00637358 0)
(0.612605 0.00744634 0)
(0.61135 0.00882816 0)
(0.609625 0.0106627 0)
(0.607215 0.0131868 0)
(0.603817 0.0168079 0)
(0.599005 0.0222571 0)
(0.592229 0.0309239 0)
(0.583391 0.0455249 0)
(0.580445 0.0711851 0)
(0.100748 -0.00128591 0)
(0.104291 -0.00227122 0)
(0.109689 -0.00311569 0)
(0.116457 -0.00386369 0)
(0.124439 -0.00454894 0)
(0.133496 -0.00519547 0)
(0.143528 -0.0058227 0)
(0.154475 -0.00644575 0)
(0.166304 -0.00707447 0)
(0.17899 -0.00771277 0)
(0.192516 -0.00835846 0)
(0.206852 -0.00900364 0)
(0.221953 -0.009636 0)
(0.237755 -0.0102405 0)
(0.254168 -0.0108015 0)
(0.271084 -0.0113043 0)
(0.28838 -0.0117365 0)
(0.305923 -0.0120889 0)
(0.323574 -0.0123562 0)
(0.3412 -0.0125361 0)
(0.358672 -0.0126294 0)
(0.375874 -0.0126397 0)
(0.3927 -0.0125721 0)
(0.409061 -0.012433 0)
(0.424881 -0.0122299 0)
(0.440101 -0.01197 0)
(0.454673 -0.011661 0)
(0.468561 -0.0113101 0)
(0.481743 -0.010924 0)
(0.494205 -0.010509 0)
(0.505941 -0.0100708 0)
(0.516953 -0.00961446 0)
(0.527249 -0.00914444 0)
(0.536841 -0.00866467 0)
(0.545746 -0.0081786 0)
(0.553984 -0.00768917 0)
(0.561577 -0.00719892 0)
(0.568549 -0.00670999 0)
(0.574926 -0.00622421 0)
(0.580735 -0.00574311 0)
(0.586002 -0.00526793 0)
(0.590756 -0.00479972 0)
(0.595023 -0.00433928 0)
(0.598833 -0.00388724 0)
(0.602213 -0.00344405 0)
(0.605189 -0.00301 0)
(0.607789 -0.00258519 0)
(0.610039 -0.00216959 0)
(0.611965 -0.00176296 0)
(0.613592 -0.00136492 0)
(0.614946 -0.000974847 0)
(0.616049 -0.000591899 0)
(0.616925 -0.000214973 0)
(0.617596 0.000157058 0)
(0.618084 0.000525306 0)
(0.618409 0.000891194 0)
(0.618592 0.00125668 0)
(0.618652 0.00162421 0)
(0.618607 0.00199677 0)
(0.618473 0.00237791 0)
(0.618267 0.00277196 0)
(0.618001 0.00318409 0)
(0.617688 0.00362065 0)
(0.617338 0.00408933 0)
(0.616959 0.00459967 0)
(0.616556 0.00516349 0)
(0.616129 0.00579568 0)
(0.615677 0.00651529 0)
(0.615192 0.00734699 0)
(0.614658 0.0083234 0)
(0.614056 0.00948854 0)
(0.613354 0.0109031 0)
(0.612509 0.012653 0)
(0.61147 0.0148626 0)
(0.610172 0.0177168 0)
(0.608554 0.0214962 0)
(0.606588 0.0266347 0)
(0.604354 0.0338082 0)
(0.602225 0.0440778 0)
(0.601317 0.0590257 0)
(0.605522 0.0800638 0)
(0.100645 -0.00182138 0)
(0.104111 -0.00326318 0)
(0.109411 -0.00448879 0)
(0.116095 -0.0055749 0)
(0.124003 -0.00656957 0)
(0.132993 -0.00750786 0)
(0.142966 -0.00841829 0)
(0.153863 -0.00932309 0)
(0.165652 -0.0102368 0)
(0.178312 -0.0111654 0)
(0.191828 -0.0121057 0)
(0.206174 -0.0130463 0)
(0.221307 -0.0139692 0)
(0.237164 -0.0148522 0)
(0.253654 -0.0156723 0)
(0.270669 -0.0164076 0)
(0.288083 -0.0170401 0)
(0.305757 -0.0175561 0)
(0.32355 -0.0179475 0)
(0.341324 -0.0182112 0)
(0.358947 -0.0183484 0)
(0.376298 -0.0183641 0)
(0.393271 -0.018266 0)
(0.409772 -0.0180637 0)
(0.425726 -0.0177678 0)
(0.441071 -0.0173892 0)
(0.455758 -0.0169391 0)
(0.469752 -0.0164279 0)
(0.483031 -0.0158656 0)
(0.49558 -0.0152614 0)
(0.507394 -0.0146234 0)
(0.518475 -0.0139591 0)
(0.528831 -0.0132751 0)
(0.538477 -0.012577 0)
(0.547427 -0.0118698 0)
(0.555704 -0.0111578 0)
(0.563329 -0.0104447 0)
(0.570328 -0.0097336 0)
(0.576726 -0.00902708 0)
(0.582549 -0.00832737 0)
(0.587827 -0.00763626 0)
(0.592586 -0.00695523 0)
(0.596855 -0.00628544 0)
(0.600661 -0.00562777 0)
(0.604033 -0.00498285 0)
(0.606997 -0.00435106 0)
(0.60958 -0.00373255 0)
(0.61181 -0.00312723 0)
(0.613711 -0.00253475 0)
(0.61531 -0.0019545 0)
(0.61663 -0.00138559 0)
(0.617695 -0.000826771 0)
(0.618529 -0.000276461 0)
(0.619154 0.000266953 0)
(0.619591 0.000805092 0)
(0.619861 0.00134009 0)
(0.619984 0.00187482 0)
(0.619979 0.00241277 0)
(0.619863 0.0029582 0)
(0.619655 0.00351614 0)
(0.619368 0.00409266 0)
(0.619018 0.00469501 0)
(0.618617 0.00533197 0)
(0.618176 0.00601415 0)
(0.617705 0.00675452 0)
(0.617209 0.00756901 0)
(0.616694 0.00847743 0)
(0.616162 0.00950468 0)
(0.615611 0.0106824 0)
(0.615038 0.0120514 0)
(0.614436 0.0136649 0)
(0.613796 0.0155939 0)
(0.613111 0.0179332 0)
(0.612379 0.0208122 0)
(0.611614 0.0244074 0)
(0.610871 0.0289596 0)
(0.610282 0.0347916 0)
(0.610129 0.0423173 0)
(0.610956 0.0520171 0)
(0.613704 0.0642933 0)
(0.619999 0.0788954 0)
(0.100539 -0.00236447 0)
(0.103919 -0.004298 0)
(0.1091 -0.00593251 0)
(0.115675 -0.0073827 0)
(0.123485 -0.00871067 0)
(0.132388 -0.00996323 0)
(0.142285 -0.011179 0)
(0.153118 -0.0123882 0)
(0.164859 -0.0136108 0)
(0.177492 -0.014855 0)
(0.191005 -0.0161171 0)
(0.205378 -0.0173814 0)
(0.220572 -0.0186237 0)
(0.236524 -0.0198137 0)
(0.253143 -0.0209198 0)
(0.270318 -0.0219122 0)
(0.287915 -0.0227661 0)
(0.305792 -0.0234629 0)
(0.323802 -0.0239914 0)
(0.341798 -0.0243474 0)
(0.359644 -0.0245328 0)
(0.377213 -0.0245542 0)
(0.394396 -0.0244224 0)
(0.411097 -0.0241503 0)
(0.427238 -0.0237523 0)
(0.442755 -0.0232436 0)
(0.4576 -0.0226388 0)
(0.471738 -0.0219524 0)
(0.485145 -0.0211977 0)
(0.497809 -0.020387 0)
(0.509724 -0.0195315 0)
(0.520895 -0.018641 0)
(0.531329 -0.0177242 0)
(0.54104 -0.016789 0)
(0.550047 -0.0158418 0)
(0.558371 -0.0148884 0)
(0.566035 -0.0139337 0)
(0.573064 -0.0129817 0)
(0.579485 -0.012036 0)
(0.585325 -0.0110995 0)
(0.590612 -0.0101745 0)
(0.595375 -0.00926297 0)
(0.599641 -0.00836639 0)
(0.60344 -0.0074859 0)
(0.606798 -0.00662232 0)
(0.609744 -0.0057761 0)
(0.612305 -0.00494741 0)
(0.614507 -0.00413609 0)
(0.616375 -0.00334163 0)
(0.617936 -0.00256321 0)
(0.619214 -0.0017996 0)
(0.620232 -0.00104918 0)
(0.621014 -0.000309821 0)
(0.621582 0.000420569 0)
(0.621958 0.00114415 0)
(0.622162 0.00186385 0)
(0.622214 0.00258348 0)
(0.622133 0.00330763 0)
(0.621937 0.00404176 0)
(0.621644 0.00479237 0)
(0.621268 0.00556714 0)
(0.620826 0.00637525 0)
(0.62033 0.00722763 0)
(0.619793 0.00813737 0)
(0.619226 0.00912026 0)
(0.618639 0.0101954 0)
(0.618041 0.0113862 0)
(0.617439 0.0127211 0)
(0.616841 0.0142358 0)
(0.616252 0.0159744 0)
(0.615683 0.0179924 0)
(0.615146 0.02036 0)
(0.614663 0.0231656 0)
(0.61427 0.0265201 0)
(0.614033 0.0305607 0)
(0.61406 0.0354515 0)
(0.614531 0.0413761 0)
(0.615729 0.0485127 0)
(0.61807 0.0569743 0)
(0.622115 0.0666844 0)
(0.628518 0.0771496 0)
(0.100431 -0.00291485 0)
(0.103726 -0.00537269 0)
(0.108775 -0.0074448 0)
(0.115222 -0.00928644 0)
(0.122917 -0.0109735 0)
(0.131716 -0.0125651 0)
(0.141523 -0.0141109 0)
(0.152284 -0.0156503 0)
(0.163974 -0.0172094 0)
(0.176585 -0.0187996 0)
(0.190114 -0.0204161 0)
(0.204547 -0.0220391 0)
(0.219849 -0.0236365 0)
(0.235956 -0.0251689 0)
(0.252778 -0.0265945 0)
(0.270195 -0.0278742 0)
(0.288067 -0.0289751 0)
(0.306241 -0.0298731 0)
(0.324559 -0.0305536 0)
(0.342867 -0.0310112 0)
(0.36102 -0.0312485 0)
(0.378886 -0.0312747 0)
(0.39635 -0.0311038 0)
(0.413313 -0.0307528 0)
(0.429696 -0.0302407 0)
(0.445433 -0.0295869 0)
(0.460477 -0.0288107 0)
(0.474792 -0.0279307 0)
(0.488356 -0.026964 0)
(0.501158 -0.0259264 0)
(0.513194 -0.0248321 0)
(0.524467 -0.0236939 0)
(0.53499 -0.0225228 0)
(0.544775 -0.0213286 0)
(0.553844 -0.0201197 0)
(0.562217 -0.0189034 0)
(0.56992 -0.0176856 0)
(0.576978 -0.0164718 0)
(0.583419 -0.0152662 0)
(0.589271 -0.0140723 0)
(0.594563 -0.0128933 0)
(0.599323 -0.0117314 0)
(0.603581 -0.0105886 0)
(0.607364 -0.0094661 0)
(0.610702 -0.00836498 0)
(0.613621 -0.00728576 0)
(0.616149 -0.00622857 0)
(0.618313 -0.00519316 0)
(0.620139 -0.00417886 0)
(0.621653 -0.00318461 0)
(0.622878 -0.00220882 0)
(0.623838 -0.00124945 0)
(0.624557 -0.000303902 0)
(0.625058 0.000630434 0)
(0.625362 0.0015563 0)
(0.625489 0.00247747 0)
(0.625461 0.00339872 0)
(0.625295 0.00432568 0)
(0.625011 0.00526498 0)
(0.624625 0.00622439 0)
(0.624154 0.00721304 0)
(0.623614 0.00824169 0)
(0.62302 0.009323 0)
(0.622386 0.0104719 0)
(0.621726 0.0117061 0)
(0.621053 0.0130466 0)
(0.62038 0.0145185 0)
(0.619721 0.0161516 0)
(0.619091 0.0179817 0)
(0.618507 0.0200517 0)
(0.617991 0.0224129 0)
(0.617572 0.0251258 0)
(0.617292 0.0282617 0)
(0.617209 0.0319017 0)
(0.617406 0.0361342 0)
(0.618001 0.0410481 0)
(0.619155 0.0467182 0)
(0.621083 0.0531795 0)
(0.624042 0.0603858 0)
(0.628315 0.0681516 0)
(0.634127 0.0760867 0)
(0.100321 -0.00347314 0)
(0.10354 -0.00648572 0)
(0.108452 -0.0090248 0)
(0.11476 -0.0112864 0)
(0.122327 -0.0133604 0)
(0.131012 -0.0153182 0)
(0.140721 -0.0172219 0)
(0.151406 -0.0191212 0)
(0.163051 -0.0210499 0)
(0.17566 -0.023023 0)
(0.189239 -0.0250347 0)
(0.203783 -0.0270601 0)
(0.219262 -0.0290579 0)
(0.235614 -0.0309772 0)
(0.25274 -0.032764 0)
(0.27051 -0.0343677 0)
(0.288771 -0.0357462 0)
(0.307356 -0.0368686 0)
(0.326093 -0.0377168 0)
(0.344816 -0.0382844 0)
(0.36337 -0.0385756 0)
(0.381616 -0.0386024 0)
(0.399433 -0.0383832 0)
(0.41672 -0.03794 0)
(0.433396 -0.0372969 0)
(0.449396 -0.0364787 0)
(0.464672 -0.0355097 0)
(0.479191 -0.0344131 0)
(0.492933 -0.0332103 0)
(0.505887 -0.0319211 0)
(0.518052 -0.030563 0)
(0.529435 -0.0291518 0)
(0.540048 -0.0277011 0)
(0.549907 -0.0262229 0)
(0.559034 -0.0247274 0)
(0.567453 -0.0232235 0)
(0.575188 -0.0217187 0)
(0.582268 -0.0202192 0)
(0.588721 -0.0187303 0)
(0.594576 -0.0172563 0)
(0.599862 -0.0158008 0)
(0.60461 -0.0143665 0)
(0.608847 -0.0129558 0)
(0.612604 -0.0115702 0)
(0.615909 -0.0102107 0)
(0.61879 -0.00887795 0)
(0.621275 -0.00757209 0)
(0.62339 -0.00629273 0)
(0.625161 -0.00503902 0)
(0.626615 -0.00380959 0)
(0.627776 -0.00260254 0)
(0.628667 -0.00141537 0)
(0.629312 -0.000245137 0)
(0.629735 0.000911296 0)
(0.629957 0.00205738 0)
(0.629999 0.00319778 0)
(0.629881 0.00433815 0)
(0.629622 0.00548508 0)
(0.629242 0.00664619 0)
(0.628758 0.00783033 0)
(0.628187 0.00904776 0)
(0.627547 0.0103104 0)
(0.626854 0.0116319 0)
(0.626124 0.0130285 0)
(0.625373 0.0145185 0)
(0.62462 0.0161234 0)
(0.623879 0.017868 0)
(0.623172 0.0197811 0)
(0.62252 0.0218955 0)
(0.621947 0.0242489 0)
(0.621485 0.0268833 0)
(0.621172 0.0298455 0)
(0.621059 0.033185 0)
(0.621207 0.0369516 0)
(0.621699 0.0411908 0)
(0.622634 0.0459353 0)
(0.624133 0.051193 0)
(0.626332 0.0569306 0)
(0.629369 0.0630533 0)
(0.633362 0.0693855 0)
(0.638352 0.0756639 0)
(0.100208 -0.00404102 0)
(0.103364 -0.00763706 0)
(0.108142 -0.0106731 0)
(0.114307 -0.0133843 0)
(0.12174 -0.0158749 0)
(0.130305 -0.0182288 0)
(0.139915 -0.020522 0)
(0.15053 -0.0228164 0)
(0.162148 -0.0251548 0)
(0.174789 -0.0275568 0)
(0.188474 -0.0300157 0)
(0.203208 -0.0324995 0)
(0.218967 -0.0349553 0)
(0.235682 -0.0373175 0)
(0.253245 -0.0395166 0)
(0.271508 -0.041488 0)
(0.290297 -0.0431785 0)
(0.309426 -0.0445499 0)
(0.328705 -0.0455806 0)
(0.347952 -0.0462638 0)
(0.367001 -0.0466061 0)
(0.385706 -0.046624 0)
(0.403942 -0.0463414 0)
(0.421605 -0.0457863 0)
(0.438614 -0.0449892 0)
(0.454906 -0.0439809 0)
(0.470435 -0.0427917 0)
(0.485171 -0.0414499 0)
(0.499097 -0.0399818 0)
(0.512205 -0.0384114 0)
(0.524498 -0.0367599 0)
(0.535984 -0.0350462 0)
(0.546679 -0.0332867 0)
(0.556601 -0.0314958 0)
(0.565775 -0.0296856 0)
(0.574225 -0.0278666 0)
(0.58198 -0.0260476 0)
(0.589067 -0.024236 0)
(0.595518 -0.0224379 0)
(0.601361 -0.0206585 0)
(0.606627 -0.0189019 0)
(0.611347 -0.0171711 0)
(0.615551 -0.0154689 0)
(0.619267 -0.0137969 0)
(0.622526 -0.0121563 0)
(0.625355 -0.0105478 0)
(0.627783 -0.00897132 0)
(0.629836 -0.00742646 0)
(0.631541 -0.00591212 0)
(0.632923 -0.00442665 0)
(0.634008 -0.00296778 0)
(0.63482 -0.00153256 0)
(0.63538 -0.000117975 0)
(0.635717 0.00127967 0)
(0.635849 0.00266479 0)
(0.635797 0.0040429 0)
(0.635582 0.00542041 0)
(0.635224 0.00680467 0)
(0.634743 0.00820408 0)
(0.634156 0.00962828 0)
(0.633483 0.0110882 0)
(0.632741 0.0125964 0)
(0.631949 0.0141671 0)
(0.631125 0.0158163 0)
(0.630288 0.0175623 0)
(0.629457 0.0194255 0)
(0.628654 0.0214289 0)
(0.627902 0.0235978 0)
(0.627227 0.02596 0)
(0.626659 0.0285452 0)
(0.626233 0.0313847 0)
(0.625991 0.0345096 0)
(0.625981 0.0379491 0)
(0.62626 0.0417271 0)
(0.626896 0.0458577 0)
(0.627963 0.0503392 0)
(0.629538 0.0551463 0)
(0.631697 0.060223 0)
(0.634502 0.0654748 0)
(0.637984 0.0707667 0)
(0.642116 0.0759327 0)
(0.100092 -0.00462108 0)
(0.103201 -0.0088282 0)
(0.107854 -0.0123918 0)
(0.113877 -0.0155833 0)
(0.121175 -0.0185222 0)
(0.129623 -0.0213056 0)
(0.13914 -0.0240247 0)
(0.149702 -0.0267565 0)
(0.161328 -0.0295549 0)
(0.174058 -0.0324449 0)
(0.187933 -0.0354181 0)
(0.20297 -0.0384326 0)
(0.219146 -0.0414196 0)
(0.236382 -0.044294 0)
(0.254547 -0.0469665 0)
(0.273468 -0.0493552 0)
(0.292943 -0.0513942 0)
(0.312757 -0.0530376 0)
(0.332701 -0.0542608 0)
(0.352575 -0.0550586 0)
(0.372202 -0.0554417 0)
(0.39143 -0.0554328 0)
(0.410131 -0.0550628 0)
(0.428202 -0.0543677 0)
(0.445563 -0.0533854 0)
(0.462156 -0.0521539 0)
(0.477939 -0.05071 0)
(0.492887 -0.0490881 0)
(0.506985 -0.0473196 0)
(0.520232 -0.0454331 0)
(0.532634 -0.0434538 0)
(0.544204 -0.0414038 0)
(0.55496 -0.0393026 0)
(0.564924 -0.0371667 0)
(0.574123 -0.0350103 0)
(0.582583 -0.0328456 0)
(0.590335 -0.0306827 0)
(0.597409 -0.0285301 0)
(0.603837 -0.0263949 0)
(0.609649 -0.0242826 0)
(0.614877 -0.0221981 0)
(0.619552 -0.0201448 0)
(0.623704 -0.0181255 0)
(0.627365 -0.0161423 0)
(0.630562 -0.0141962 0)
(0.633326 -0.012288 0)
(0.635683 -0.0104175 0)
(0.637662 -0.00858412 0)
(0.639289 -0.00678656 0)
(0.64059 -0.0050229 0)
(0.64159 -0.00329053 0)
(0.642314 -0.00158611 0)
(0.642784 9.35371e-05 0)
(0.643027 0.00175252 0)
(0.643062 0.00339627 0)
(0.642911 0.00503105 0)
(0.642595 0.0066639 0)
(0.642135 0.00830272 0)
(0.641551 0.00995644 0)
(0.640861 0.0116351 0)
(0.640085 0.0133498 0)
(0.639243 0.0151133 0)
(0.638355 0.0169393 0)
(0.63744 0.0188432 0)
(0.636519 0.0208419 0)
(0.635614 0.0229536 0)
(0.63475 0.0251981 0)
(0.633951 0.0275961 0)
(0.633245 0.0301689 0)
(0.632665 0.0329378 0)
(0.632244 0.0359231 0)
(0.632021 0.0391422 0)
(0.63204 0.0426079 0)
(0.632348 0.0463258 0)
(0.632992 0.050291 0)
(0.634021 0.0544844 0)
(0.63548 0.0588699 0)
(0.637404 0.0633909 0)
(0.639811 0.0679707 0)
(0.642693 0.0725144 0)
(0.646004 0.0769209 0)
(0.0999687 -0.00521652 0)
(0.103049 -0.0100621 0)
(0.107593 -0.0141849 0)
(0.113479 -0.0178889 0)
(0.120649 -0.0213102 0)
(0.128988 -0.0245603 0)
(0.138428 -0.0277488 0)
(0.14897 -0.0309704 0)
(0.160659 -0.0342934 0)
(0.173564 -0.0377489 0)
(0.187751 -0.041324 0)
(0.203247 -0.0449624 0)
(0.22002 -0.0485724 0)
(0.237969 -0.0520424 0)
(0.256931 -0.0552577 0)
(0.276691 -0.0581158 0)
(0.297012 -0.060537 0)
(0.317647 -0.0624687 0)
(0.338363 -0.0638853 0)
(0.358944 -0.0647857 0)
(0.379206 -0.0651873 0)
(0.398992 -0.0651218 0)
(0.418176 -0.0646296 0)
(0.436657 -0.0637559 0)
(0.454362 -0.0625476 0)
(0.471238 -0.0610511 0)
(0.48725 -0.0593105 0)
(0.50238 -0.0573666 0)
(0.516619 -0.0552567 0)
(0.529971 -0.0530139 0)
(0.542447 -0.0506677 0)
(0.554065 -0.0482437 0)
(0.564847 -0.045764 0)
(0.57482 -0.0432477 0)
(0.58401 -0.0407111 0)
(0.59245 -0.0381676 0)
(0.600171 -0.0356289 0)
(0.607204 -0.0331044 0)
(0.613583 -0.0306019 0)
(0.61934 -0.0281278 0)
(0.624508 -0.0256871 0)
(0.629118 -0.0232837 0)
(0.633201 -0.0209206 0)
(0.636789 -0.0185999 0)
(0.63991 -0.0163228 0)
(0.642595 -0.0140897 0)
(0.644871 -0.0119007 0)
(0.646765 -0.00975471 0)
(0.648306 -0.00765038 0)
(0.649517 -0.00558551 0)
(0.650426 -0.00355723 0)
(0.651056 -0.00156198 0)
(0.651433 0.000403934 0)
(0.651579 0.00234506 0)
(0.651516 0.00426748 0)
(0.651266 0.00617809 0)
(0.65085 0.00808437 0)
(0.650289 0.00999458 0)
(0.649604 0.0119178 0)
(0.648815 0.0138641 0)
(0.647941 0.0158444 0)
(0.647004 0.0178708 0)
(0.646025 0.0199561 0)
(0.645024 0.0221143 0)
(0.644024 0.02436 0)
(0.643048 0.0267086 0)
(0.642121 0.0291757 0)
(0.641268 0.031777 0)
(0.640519 0.0345273 0)
(0.639902 0.0374399 0)
(0.639449 0.0405257 0)
(0.639194 0.0437917 0)
(0.639172 0.0472393 0)
(0.639415 0.0508632 0)
(0.639957 0.0546489 0)
(0.640827 0.0585719 0)
(0.642045 0.062596 0)
(0.643622 0.0666741 0)
(0.645554 0.0707489 0)
(0.64782 0.074757 0)
(0.650372 0.0786379 0)
(0.0998372 -0.00583107 0)
(0.102909 -0.011343 0)
(0.107359 -0.016058 0)
(0.113119 -0.0203085 0)
(0.120173 -0.0242497 0)
(0.12842 -0.0280097 0)
(0.137814 -0.0317204 0)
(0.148387 -0.0354996 0)
(0.160224 -0.0394324 0)
(0.173431 -0.0435556 0)
(0.188097 -0.0478475 0)
(0.204253 -0.052228 0)
(0.221845 -0.0565723 0)
(0.240732 -0.0607331 0)
(0.260697 -0.0645641 0)
(0.281477 -0.0679398 0)
(0.302788 -0.0707673 0)
(0.324353 -0.0729898 0)
(0.345915 -0.0745852 0)
(0.367247 -0.0755599 0)
(0.38816 -0.0759425 0)
(0.408499 -0.0757762 0)
(0.428143 -0.0751133 0)
(0.447001 -0.0740106 0)
(0.465007 -0.0725254 0)
(0.482118 -0.0707131 0)
(0.498307 -0.068626 0)
(0.513564 -0.0663118 0)
(0.527889 -0.0638137 0)
(0.541293 -0.0611697 0)
(0.553791 -0.0584135 0)
(0.565407 -0.0555742 0)
(0.576168 -0.0526766 0)
(0.586103 -0.0497421 0)
(0.595244 -0.0467888 0)
(0.603623 -0.0438319 0)
(0.611276 -0.0408839 0)
(0.618235 -0.0379552 0)
(0.624536 -0.0350544 0)
(0.63021 -0.0321883 0)
(0.635293 -0.0293623 0)
(0.639816 -0.0265805 0)
(0.643811 -0.0238461 0)
(0.647309 -0.0211611 0)
(0.65034 -0.0185266 0)
(0.652933 -0.0159432 0)
(0.655117 -0.0134105 0)
(0.656919 -0.0109275 0)
(0.658367 -0.00849249 0)
(0.659485 -0.00610309 0)
(0.660301 -0.00375626 0)
(0.660836 -0.00144828 0)
(0.661119 0.000825103 0)
(0.661171 0.003069 0)
(0.661013 0.00528992 0)
(0.660668 0.00749514 0)
(0.660158 0.00969239 0)
(0.659504 0.01189 0)
(0.658726 0.0140968 0)
(0.657846 0.0163226 0)
(0.656884 0.0185777 0)
(0.655861 0.020873 0)
(0.6548 0.0232199 0)
(0.653721 0.0256305 0)
(0.652648 0.0281166 0)
(0.651603 0.0306904 0)
(0.650613 0.0333634 0)
(0.6497 0.0361462 0)
(0.648892 0.0390479 0)
(0.648216 0.0420754 0)
(0.647697 0.0452325 0)
(0.647363 0.0485189 0)
(0.647239 0.0519298 0)
(0.647349 0.0554541 0)
(0.647713 0.0590748 0)
(0.648343 0.0627678 0)
(0.649248 0.0665024 0)
(0.650425 0.0702424 0)
(0.651861 0.0739474 0)
(0.653531 0.0775762 0)
(0.655395 0.0810933 0)
(0.0996948 -0.00646881 0)
(0.102778 -0.0126766 0)
(0.107156 -0.0180186 0)
(0.112805 -0.0228527 0)
(0.119759 -0.0273557 0)
(0.127941 -0.0316774 0)
(0.137336 -0.0359778 0)
(0.14802 -0.0404038 0)
(0.16013 -0.0450608 0)
(0.173815 -0.0499881 0)
(0.189182 -0.0551445 0)
(0.206248 -0.0604123 0)
(0.224914 -0.0656191 0)
(0.244973 -0.0705708 0)
(0.266142 -0.0750847 0)
(0.288095 -0.0790121 0)
(0.310504 -0.0822508 0)
(0.333059 -0.0847456 0)
(0.355489 -0.0864834 0)
(0.377562 -0.087484 0)
(0.399093 -0.0877911 0)
(0.419933 -0.0874632 0)
(0.439974 -0.0865673 0)
(0.459137 -0.0851732 0)
(0.477367 -0.0833497 0)
(0.494633 -0.0811623 0)
(0.51092 -0.0786719 0)
(0.526227 -0.0759332 0)
(0.540563 -0.0729954 0)
(0.553945 -0.0699016 0)
(0.566397 -0.0666893 0)
(0.577947 -0.0633908 0)
(0.588626 -0.0600339 0)
(0.598469 -0.056642 0)
(0.607508 -0.0532347 0)
(0.615781 -0.0498285 0)
(0.623323 -0.0464371 0)
(0.63017 -0.0430717 0)
(0.636358 -0.0397412 0)
(0.641919 -0.0364529 0)
(0.64689 -0.0332125 0)
(0.651302 -0.0300241 0)
(0.655189 -0.0268909 0)
(0.65858 -0.0238149 0)
(0.661507 -0.0207972 0)
(0.663998 -0.0178381 0)
(0.666081 -0.014937 0)
(0.667785 -0.0120928 0)
(0.669137 -0.0093035 0)
(0.670161 -0.00656667 0)
(0.670883 -0.0038791 0)
(0.671327 -0.00123699 0)
(0.671522 0.00136451 0)
(0.671485 0.00393103 0)
(0.671241 0.0064694 0)
(0.670812 0.00898702 0)
(0.670218 0.0114916 0)
(0.669482 0.0139912 0)
(0.668624 0.0164943 0)
(0.667666 0.0190099 0)
(0.666629 0.0215473 0)
(0.665534 0.0241161 0)
(0.664403 0.0267259 0)
(0.663258 0.0293864 0)
(0.66212 0.0321069 0)
(0.661013 0.0348962 0)
(0.659959 0.0377619 0)
(0.658982 0.0407105 0)
(0.658105 0.0437464 0)
(0.657349 0.0468719 0)
(0.656738 0.0500861 0)
(0.65629 0.0533848 0)
(0.656025 0.0567598 0)
(0.655956 0.0601991 0)
(0.656094 0.0636859 0)
(0.656445 0.0672 0)
(0.657006 0.0707173 0)
(0.657771 0.0742115 0)
(0.658724 0.0776553 0)
(0.659841 0.0810224 0)
(0.661091 0.0842928 0)
(0.0995386 -0.00713428 0)
(0.102655 -0.0140702 0)
(0.106983 -0.0200765 0)
(0.11254 -0.0255351 0)
(0.119419 -0.0306493 0)
(0.127579 -0.0355972 0)
(0.137046 -0.0405765 0)
(0.147959 -0.0457708 0)
(0.160518 -0.0513066 0)
(0.174916 -0.0572166 0)
(0.191261 -0.0634224 0)
(0.209525 -0.0697467 0)
(0.229533 -0.0759518 0)
(0.250987 -0.0817871 0)
(0.273522 -0.0870316 0)
(0.296749 -0.0915188 0)
(0.3203 -0.0951447 0)
(0.343843 -0.0978647 0)
(0.3671 -0.0996822 0)
(0.389847 -0.100637 0)
(0.411908 -0.100792 0)
(0.433151 -0.100225 0)
(0.453483 -0.0990197 0)
(0.47284 -0.0972602 0)
(0.491185 -0.095028 0)
(0.5085 -0.092399 0)
(0.524782 -0.0894425 0)
(0.54004 -0.0862207 0)
(0.554294 -0.0827884 0)
(0.567567 -0.0791933 0)
(0.579891 -0.0754769 0)
(0.591299 -0.0716745 0)
(0.601828 -0.067816 0)
(0.611513 -0.0639269 0)
(0.620393 -0.0600282 0)
(0.628506 -0.0561374 0)
(0.63589 -0.0522691 0)
(0.642582 -0.0484348 0)
(0.648618 -0.044644 0)
(0.654034 -0.0409042 0)
(0.658864 -0.037221 0)
(0.663141 -0.0335988 0)
(0.666897 -0.0300405 0)
(0.670165 -0.0265479 0)
(0.672973 -0.0231221 0)
(0.675351 -0.019763 0)
(0.677328 -0.0164701 0)
(0.67893 -0.0132417 0)
(0.680183 -0.010076 0)
(0.681114 -0.00697011 0)
(0.681748 -0.00392092 0)
(0.682107 -0.000924609 0)
(0.682221 0.00202426 0)
(0.682106 0.0049318 0)
(0.681787 0.007805 0)
(0.681286 0.0106511 0)
(0.680623 0.0134776 0)
(0.679821 0.016292 0)
(0.6789 0.0191022 0)
(0.677882 0.0219162 0)
(0.676787 0.0247421 0)
(0.675636 0.0275878 0)
(0.674451 0.0304612 0)
(0.673252 0.0333696 0)
(0.672061 0.0363198 0)
(0.6709 0.0393176 0)
(0.669787 0.0423677 0)
(0.668745 0.0454731 0)
(0.667792 0.0486352 0)
(0.666947 0.051853 0)
(0.666227 0.0551233 0)
(0.665646 0.05844 0)
(0.665217 0.0617944 0)
(0.664947 0.0651751 0)
(0.664842 0.068568 0)
(0.664901 0.0719572 0)
(0.66512 0.0753249 0)
(0.665489 0.0786529 0)
(0.665993 0.0819232 0)
(0.666613 0.0851195 0)
(0.667323 0.0882313 0)
(0.0993656 -0.00783251 0)
(0.102538 -0.0155325 0)
(0.106843 -0.0222443 0)
(0.112331 -0.0283747 0)
(0.119172 -0.0341602 0)
(0.127369 -0.039819 0)
(0.137014 -0.0455991 0)
(0.148325 -0.0517286 0)
(0.161575 -0.0583505 0)
(0.176985 -0.0654711 0)
(0.19463 -0.0729454 0)
(0.214396 -0.0805084 0)
(0.235994 -0.0878386 0)
(0.259017 -0.0946244 0)
(0.283014 -0.100612 0)
(0.307541 -0.105629 0)
(0.332199 -0.109581 0)
(0.356653 -0.112446 0)
(0.380632 -0.114252 0)
(0.403925 -0.115064 0)
(0.426379 -0.114972 0)
(0.447881 -0.114072 0)
(0.468361 -0.112468 0)
(0.487773 -0.11026 0)
(0.506097 -0.107541 0)
(0.523331 -0.104398 0)
(0.539485 -0.100909 0)
(0.55458 -0.0971422 0)
(0.568643 -0.0931585 0)
(0.581709 -0.0890099 0)
(0.593813 -0.0847409 0)
(0.604995 -0.0803896 0)
(0.615294 -0.075988 0)
(0.624752 -0.0715629 0)
(0.633409 -0.0671365 0)
(0.641305 -0.0627271 0)
(0.648479 -0.0583497 0)
(0.65497 -0.0540163 0)
(0.660815 -0.0497364 0)
(0.666049 -0.0455176 0)
(0.670707 -0.0413654 0)
(0.674822 -0.037284 0)
(0.678428 -0.0332762 0)
(0.681554 -0.0293436 0)
(0.68423 -0.0254869 0)
(0.686486 -0.0217059 0)
(0.688349 -0.0179996 0)
(0.689845 -0.0143664 0)
(0.691001 -0.0108041 0)
(0.691842 -0.00730983 0)
(0.692392 -0.00388028 0)
(0.692675 -0.000511879 0)
(0.692717 0.0028013 0)
(0.692536 0.00606592 0)
(0.692157 0.00928899 0)
(0.691599 0.0124774 0)
(0.690885 0.015638 0)
(0.690035 0.0187778 0)
(0.68907 0.0219038 0)
(0.68801 0.025023 0)
(0.686876 0.0281419 0)
(0.685688 0.0312672 0)
(0.684466 0.0344047 0)
(0.68323 0.0375599 0)
(0.682 0.0407372 0)
(0.680794 0.0439402 0)
(0.67963 0.0471712 0)
(0.678527 0.0504312 0)
(0.6775 0.0537193 0)
(0.676564 0.0570331 0)
(0.675731 0.0603683 0)
(0.675012 0.0637188 0)
(0.674414 0.0670764 0)
(0.673942 0.0704317 0)
(0.673597 0.0737737 0)
(0.673377 0.0770906 0)
(0.673276 0.08037 0)
(0.673283 0.0835997 0)
(0.673388 0.0867683 0)
(0.673573 0.089866 0)
(0.67382 0.0928884 0)
(0.0991724 -0.00856928 0)
(0.102426 -0.0170748 0)
(0.106737 -0.0245386 0)
(0.112189 -0.0313975 0)
(0.11904 -0.0379319 0)
(0.127366 -0.0444173 0)
(0.137341 -0.051168 0)
(0.149286 -0.0584614 0)
(0.163539 -0.0664405 0)
(0.180315 -0.0750489 0)
(0.199604 -0.0840326 0)
(0.221154 -0.0930076 0)
(0.244532 -0.101557 0)
(0.269217 -0.109314 0)
(0.294679 -0.116008 0)
(0.320438 -0.121476 0)
(0.346089 -0.125652 0)
(0.371303 -0.128545 0)
(0.395833 -0.130219 0)
(0.419494 -0.130772 0)
(0.442159 -0.130318 0)
(0.463742 -0.128979 0)
(0.484196 -0.126878 0)
(0.503497 -0.124129 0)
(0.521644 -0.12084 0)
(0.53865 -0.117107 0)
(0.554539 -0.113016 0)
(0.569343 -0.108642 0)
(0.583099 -0.10405 0)
(0.595848 -0.0992959 0)
(0.607633 -0.094427 0)
(0.618498 -0.0894835 0)
(0.628486 -0.084499 0)
(0.637642 -0.0795013 0)
(0.646008 -0.0745133 0)
(0.653626 -0.0695538 0)
(0.660536 -0.064638 0)
(0.666778 -0.0597779 0)
(0.672388 -0.054983 0)
(0.677403 -0.0502607 0)
(0.681858 -0.0456162 0)
(0.685786 -0.0410534 0)
(0.689218 -0.0365748 0)
(0.692185 -0.0321818 0)
(0.694716 -0.0278745 0)
(0.696839 -0.0236526 0)
(0.698582 -0.0195148 0)
(0.69997 -0.0154592 0)
(0.701029 -0.0114835 0)
(0.701783 -0.00758455 0)
(0.702257 -0.00375912 0)
(0.702473 -3.60616e-06 0)
(0.702454 0.00368806 0)
(0.702221 0.00732295 0)
(0.701796 0.0109079 0)
(0.701199 0.0144492 0)
(0.700451 0.0179533 0)
(0.699572 0.0214264 0)
(0.698582 0.0248745 0)
(0.697501 0.0283035 0)
(0.696348 0.0317187 0)
(0.695142 0.0351253 0)
(0.693901 0.0385276 0)
(0.692645 0.0419294 0)
(0.69139 0.0453335 0)
(0.690153 0.0487417 0)
(0.68895 0.0521548 0)
(0.687795 0.0555724 0)
(0.686701 0.0589929 0)
(0.68568 0.0624132 0)
(0.684742 0.065829 0)
(0.683892 0.0692349 0)
(0.683136 0.0726243 0)
(0.682477 0.0759898 0)
(0.681912 0.0793235 0)
(0.681441 0.0826171 0)
(0.681056 0.0858623 0)
(0.680749 0.0890516 0)
(0.68051 0.0921779 0)
(0.680327 0.0952358 0)
(0.680187 0.0982246 0)
(0.098955 -0.00935141 0)
(0.102319 -0.0187109 0)
(0.106671 -0.0269819 0)
(0.112128 -0.0346405 0)
(0.119062 -0.0420287 0)
(0.127645 -0.0495033 0)
(0.138168 -0.0574628 0)
(0.151058 -0.066228 0)
(0.166695 -0.0759038 0)
(0.185225 -0.0863132 0)
(0.206481 -0.0970422 0)
(0.230029 -0.107563 0)
(0.25528 -0.117367 0)
(0.281608 -0.126051 0)
(0.308435 -0.133353 0)
(0.335267 -0.139142 0)
(0.361713 -0.143396 0)