/*--------------------------------*- C++ -*----------------------------------*\
  =========                 |
  \\      /  F ield         | OpenFOAM: The Open Source CFD Toolbox
   \\    /   O peration     | Website:  https://openfoam.org
    \\  /    A nd           | Version:  7
     \\/     M anipulation  |
\*---------------------------------------------------------------------------*/
FoamFile
{
    version     2.0;
    format      ascii;
    class       volScalarField;
    location    "6.34";
    object      T;
}
// * * * * * * * * * * * * * * * * * * * * * * * * * * * * * * * * * * * * * //

dimensions      [0 0 0 1 0 0 0];

internalField   nonuniform List<scalar> 
12013
(
300.104
300.316
300.533
300.754
300.976
301.199
301.421
301.64
301.857
302.07
302.279
302.482
302.68
302.873
303.059
303.24
303.414
303.583
303.745
303.902
304.054
304.2
304.341
304.477
304.609
304.737
304.861
304.982
305.1
305.215
305.329
305.44
305.551
305.661
305.772
305.883
305.997
306.113
306.232
306.356
306.486
306.624
306.77
306.926
307.094
307.276
307.474
307.69
307.928
308.188
308.476
308.794
309.145
309.534
309.965
310.443
310.972
311.558
312.207
312.925
313.72
314.599
315.571
316.644
317.828
319.136
320.578
322.168
323.922
325.857
327.993
330.353
332.963
335.858
339.078
342.673
346.714
351.296
356.564
362.762
370.351
300.104
300.316
300.534
300.754
300.977
301.199
301.421
301.641
301.858
302.071
302.28
302.483
302.682
302.874
303.061
303.241
303.416
303.585
303.747
303.904
304.056
304.202
304.343
304.479
304.611
304.739
304.864
304.984
305.102
305.217
305.331
305.442
305.553
305.663
305.774
305.885
305.999
306.115
306.234
306.358
306.488
306.626
306.771
306.927
307.095
307.277
307.475
307.691
307.928
308.189
308.476
308.794
309.145
309.533
309.963
310.44
310.968
311.553
312.201
312.919
313.712
314.589
315.559
316.629
317.811
319.114
320.552
322.136
323.883
325.809
327.934
330.279
332.871
335.741
338.925
342.471
346.437
350.9
355.958
361.736
368.344
300.105
300.317
300.534
300.755
300.978
301.201
301.423
301.643
301.86
302.073
302.282
302.486
302.685
302.877
303.064
303.245
303.42
303.589
303.751
303.908
304.06
304.206
304.348
304.484
304.616
304.744
304.868
304.989
305.107
305.222
305.336
305.447
305.558
305.668
305.779
305.89
306.003
306.119
306.239
306.363
306.492
306.63
306.775
306.931
307.099
307.28
307.478
307.693
307.93
308.19
308.476
308.793
309.143
309.53
309.959
310.435
310.961
311.544
312.19
312.904
313.694
314.568
315.532
316.597
317.772
319.067
320.494
322.066
323.798
325.705
327.805
330.119
332.671
335.487
338.598
342.043
345.862
350.103
354.813
360.019
365.682
300.105
300.317
300.535
300.756
300.979
301.203
301.425
301.646
301.864
302.077
302.287
302.491
302.69
302.883
303.07
303.251
303.426
303.595
303.758
303.916
304.067
304.214
304.355
304.492
304.624
304.752
304.877
304.997
305.115
305.231
305.344
305.456
305.566
305.676
305.787
305.898
306.011
306.127
306.246
306.37
306.499
306.636
306.781
306.937
307.104
307.285
307.482
307.697
307.932
308.191
308.477
308.792
309.141
309.526
309.953
310.426
310.95
311.529
312.171
312.881
313.665
314.532
315.489
316.544
317.708
318.989
320.4
321.952
323.659
325.535
327.596
329.861
332.349
335.082
338.084
341.381
344.996
348.951
353.254
357.887
362.775
300.105
300.318
300.537
300.758
300.982
301.206
301.429
301.651
301.869
302.083
302.293
302.498
302.697
302.891
303.079
303.26
303.436
303.605
303.768
303.926
304.078
304.225
304.367
304.503
304.636
304.764
304.888
305.009
305.127
305.243
305.356
305.468
305.578
305.688
305.799
305.91
306.023
306.138
306.257
306.38
306.51
306.646
306.791
306.945
307.112
307.292
307.488
307.702
307.936
308.194
308.478
308.791
309.137
309.52
309.944
310.413
310.933
311.507
312.143
312.846
313.623
314.48
315.426
316.467
317.615
318.877
320.264
321.787
323.458
325.291
327.298
329.495
331.897
334.521
337.382
340.494
343.868
347.506
351.397
355.505
359.766
300.105
300.319
300.538
300.761
300.986
301.211
301.435
301.657
301.876
302.091
302.302
302.507
302.708
302.902
303.09
303.272
303.449
303.618
303.782
303.941
304.093
304.24
304.382
304.519
304.652
304.78
304.905
305.026
305.144
305.26
305.373
305.484
305.595
305.705
305.815
305.926
306.038
306.153
306.272
306.395
306.524
306.659
306.803
306.957
307.123
307.302
307.496
307.709
307.941
308.197
308.479
308.789
309.132
309.512
309.931
310.396
310.91
311.478
312.106
312.799
313.565
314.409
315.34
316.363
317.489
318.725
320.08
321.566
323.191
324.967
326.905
329.017
331.313
333.805
336.5
339.404
342.518
345.834
349.331
352.975
356.713
300.106
300.321
300.541
300.765
300.991
301.217
301.442
301.665
301.885
302.102
302.313
302.52
302.721
302.917
303.106
303.289
303.466
303.636
303.801
303.96
304.113
304.261
304.403
304.541
304.674
304.802
304.927
305.048
305.167
305.282
305.395
305.507
305.617
305.727
305.837
305.947
306.06
306.174
306.292
306.415
306.543
306.677
306.82
306.973
307.137
307.315
307.508
307.718
307.949
308.202
308.48
308.787
309.127
309.501
309.915
310.373
310.88
311.439
312.057
312.739
313.49
314.318
315.229
316.229
317.327
318.53
319.846
321.284
322.853
324.56
326.415
328.426
330.599
332.941
335.454
338.139
340.988
343.99
347.124
350.358
353.653
300.107
300.323
300.544
300.77
300.997
301.224
301.451
301.676
301.897
302.115
302.328
302.537
302.739
302.936
303.126
303.31
303.488
303.66
303.825
303.985
304.139
304.287
304.43
304.568
304.701
304.831
304.956
305.077
305.195
305.311
305.424
305.536
305.646
305.755
305.865
305.975
306.087
306.201
306.318
306.44
306.567
306.701
306.843
306.994
307.157
307.332
307.523
307.731
307.959
308.208
308.483
308.786
309.12
309.489
309.896
310.346
310.843
311.391
311.996
312.663
313.397
314.204
315.091
316.063
317.127
318.29
319.558
320.94
322.441
324.069
325.829
327.726
329.764
331.945
334.268
336.729
339.319
342.024
344.826
347.698
350.61
300.107
300.325
300.549
300.776
301.005
301.234
301.463
301.689
301.913
302.132
302.347
302.557
302.761
302.96
303.151
303.337
303.516
303.689
303.856
304.016
304.171
304.32
304.464
304.603
304.737
304.866
304.992
305.114
305.232
305.348
305.461
305.572
305.682
305.792
305.901
306.011
306.122
306.235
306.352
306.472
306.598
306.731
306.871
307.021
307.181
307.355
307.543
307.748
307.972
308.217
308.487
308.785
309.112
309.474
309.873
310.313
310.798
311.333
311.923
312.572
313.284
314.067
314.924
315.862
316.886
318.002
319.216
320.533
321.959
323.497
325.151
326.925
328.82
330.834
332.965
335.205
337.547
339.977
342.477
345.027
347.606
300.108
300.328
300.554
300.783
301.014
301.246
301.477
301.706
301.932
302.154
302.371
302.583
302.789
302.989
303.183
303.371
303.551
303.726
303.894
304.056
304.212
304.362
304.507
304.646
304.781
304.911
305.037
305.159
305.278
305.394
305.507
305.618
305.728
305.837
305.946
306.055
306.166
306.278
306.394
306.513
306.638
306.768
306.907
307.054
307.213
307.383
307.568
307.769
307.989
308.23
308.494
308.785
309.105
309.457
309.846
310.274
310.746
311.266
311.837
312.464
313.152
313.906
314.729
315.628
316.606
317.669
318.821
320.066
321.408
322.849
324.392
326.037
327.784
329.63
331.571
333.6
335.708
337.882
340.11
342.374
344.658
300.11
300.332
300.56
300.792
301.027
301.261
301.495
301.727
301.956
302.18
302.4
302.615
302.824
303.026
303.222
303.412
303.595
303.771
303.941
304.104
304.262
304.413
304.559
304.7
304.835
304.966
305.093
305.215
305.334
305.45
305.564
305.675
305.784
305.893
306.001
306.11
306.22
306.331
306.445
306.564
306.686
306.815
306.952
307.097
307.252
307.419
307.6
307.797
308.012
308.247
308.504
308.787
309.098
309.44
309.817
310.232
310.688
311.189
311.738
312.341
313.001
313.721
314.507
315.361
316.289
317.293
318.377
319.545
320.797
322.136
323.563
325.077
326.675
328.356
330.113
331.941
333.831
335.772
337.754
339.763
341.786
300.111
300.337
300.568
300.804
301.041
301.279
301.517
301.752
301.984
302.212
302.436
302.654
302.865
303.071
303.27
303.462
303.647
303.826
303.998
304.163
304.323
304.476
304.623
304.765
304.902
305.033
305.161
305.284
305.403
305.52
305.633
305.744
305.854
305.962
306.07
306.177
306.286
306.396
306.509
306.626
306.747
306.873
307.007
307.149
307.301
307.464
307.641
307.833
308.041
308.269
308.519
308.793
309.094
309.424
309.787
310.186
310.624
311.104
311.63
312.205
312.832
313.516
314.259
315.066
315.938
316.879
317.891
318.976
320.136
321.37
322.679
324.062
325.515
327.035
328.618
330.257
331.945
333.674
335.433
337.214
339.004
300.113
300.342
300.578
300.817
301.059
301.301
301.543
301.783
302.019
302.251
302.479
302.7
302.916
303.125
303.327
303.523
303.711
303.893
304.067
304.235
304.396
304.551
304.701
304.844
304.982
305.115
305.243
305.367
305.487
305.604
305.717
305.828
305.938
306.045
306.152
306.259
306.367
306.476
306.587
306.702
306.821
306.945
307.075
307.214
307.362
307.521
307.692
307.878
308.08
308.3
308.541
308.805
309.094
309.411
309.759
310.14
310.557
311.014
311.513
312.057
312.65
313.294
313.991
314.746
315.559
316.434
317.371
318.372
319.437
320.566
321.758
323.012
324.325
325.692
327.111
328.575
330.078
331.613
333.172
334.748
336.332
300.115
300.349
300.589
300.834
301.08
301.328
301.574
301.819
302.061
302.298
302.53
302.757
302.977
303.19
303.396
303.596
303.788
303.973
304.15
304.321
304.485
304.643
304.794
304.939
305.079
305.213
305.343
305.467
305.588
305.705
305.819
305.93
306.039
306.146
306.252
306.358
306.465
306.572
306.682
306.794
306.91
307.032
307.159
307.294
307.437
307.591
307.757
307.936
308.13
308.342
308.573
308.825
309.101
309.403
309.734
310.095
310.49
310.922
311.392
311.903
312.458
313.059
313.709
314.409
315.162
315.968
316.828
317.744
318.715
319.74
320.818
321.948
323.127
324.351
325.616
326.918
328.252
329.612
330.991
332.383
333.782
300.118
300.357
300.603
300.853
301.106
301.359
301.612
301.863
302.11
302.354
302.592
302.824
303.049
303.268
303.479
303.683
303.879
304.068
304.25
304.424
304.591
304.752
304.906
305.053
305.195
305.331
305.462
305.588
305.709
305.827
305.941
306.052
306.16
306.267
306.373
306.478
306.583
306.688
306.796
306.906
307.019
307.137
307.261
307.391
307.53
307.678
307.837
308.009
308.195
308.397
308.617
308.857
309.119
309.404
309.716
310.057
310.428
310.832
311.271
311.748
312.264
312.821
313.421
314.065
314.755
315.492
316.276
317.108
317.986
318.91
319.879
320.891
321.944
323.034
324.158
325.312
326.491
327.692
328.909
330.137
331.372
300.121
300.367
300.619
300.876
301.136
301.397
301.657
301.915
302.169
302.42
302.664
302.903
303.135
303.36
303.577
303.786
303.988
304.182
304.368
304.547
304.718
304.882
305.039
305.189
305.333
305.471
305.603
305.731
305.853
305.972
306.086
306.197
306.306
306.412
306.516
306.62
306.724
306.827
306.933
307.04
307.15
307.265
307.384
307.51
307.643
307.785
307.937
308.101
308.278
308.47
308.678
308.904
309.151
309.419
309.711
310.03
310.376
310.751
311.158
311.599
312.074
312.586
313.135
313.724
314.352
315.02
315.729
316.478
317.267
318.095
318.961
319.862
320.797
321.763
322.757
323.776
324.816
325.874
326.946
328.027
329.114
300.125
300.378
300.639
300.904
301.172
301.441
301.71
301.976
302.239
302.498
302.751
302.997
303.237
303.469
303.693
303.909
304.117
304.317
304.508
304.692
304.867
305.035
305.196
305.35
305.497
305.637
305.772
305.9
306.024
306.143
306.258
306.37
306.478
306.584
306.687
306.79
306.891
306.993
307.096
307.201
307.308
307.418
307.533
307.654
307.781
307.917
308.061
308.216
308.383
308.564
308.759
308.972
309.202
309.452
309.724
310.019
310.339
310.686
311.06
311.464
311.898
312.364
312.864
313.396
313.964
314.565
315.202
315.872
316.576
317.313
318.082
318.88
319.707
320.559
321.435
322.331
323.246
324.175
325.116
326.066
327.021
300.129
300.392
300.662
300.936
301.214
301.493
301.772
302.049
302.322
302.59
302.853
303.108
303.357
303.598
303.83
304.054
304.269
304.476
304.674
304.863
305.044
305.217
305.382
305.539
305.69
305.833
305.97
306.101
306.226
306.346
306.462
306.573
306.681
306.787
306.889
306.99
307.09
307.19
307.29
307.392
307.495
307.601
307.712
307.827
307.948
308.076
308.213
308.359
308.516
308.685
308.867
309.065
309.279
309.51
309.761
310.033
310.326
310.643
310.984
311.351
311.745
312.167
312.617
313.096
313.604
314.142
314.709
315.306
315.93
316.582
317.261
317.965
318.692
319.441
320.209
320.995
321.797
322.611
323.436
324.268
325.106
300.134
300.408
300.688
300.974
301.264
301.555
301.845
302.134
302.419
302.698
302.972
303.239
303.498
303.749
303.991
304.224
304.448
304.663
304.868
305.064
305.252
305.43
305.6
305.762
305.916
306.063
306.203
306.336
306.463
306.584
306.701
306.813
306.921
307.025
307.127
307.227
307.325
307.422
307.52
307.618
307.717
307.819
307.925
308.034
308.149
308.27
308.398
308.535
308.681
308.838
309.007
309.19
309.386
309.599
309.829
310.077
310.344
310.631
310.94
311.272
311.626
312.004
312.407
312.835
313.287
313.765
314.267
314.794
315.345
315.919
316.515
317.133
317.77
318.425
319.097
319.784
320.484
321.195
321.916
322.644
323.377
300.141
300.426
300.72
301.019
301.322
301.627
301.931
302.234
302.532
302.825
303.112
303.392
303.664
303.926
304.18
304.423
304.657
304.882
305.096
305.3
305.494
305.679
305.855
306.022
306.181
306.332
306.474
306.61
306.739
306.862
306.98
307.092
307.2
307.304
307.405
307.503
307.6
307.695
307.789
307.884
307.979
308.077
308.177
308.28
308.388
308.502
308.622
308.749
308.884
309.029
309.185
309.352
309.532
309.726
309.935
310.159
310.401
310.66
310.937
311.234
311.551
311.888
312.246
312.625
313.025
313.447
313.889
314.353
314.836
315.339
315.86
316.399
316.955
317.527
318.112
318.711
319.32
319.94
320.568
321.202
321.842
300.148
300.448
300.757
301.072
301.391
301.711
302.032
302.35
302.665
302.974
303.276
303.571
303.857
304.134
304.4
304.656
304.902
305.137
305.361
305.574
305.777
305.97
306.152
306.325
306.489
306.644
306.79
306.929
307.061
307.185
307.304
307.417
307.525
307.629
307.729
307.825
307.92
308.012
308.104
308.195
308.286
308.379
308.474
308.571
308.673
308.778
308.89
309.007
309.132
309.265
309.407
309.559
309.723
309.898
310.087
310.289
310.505
310.737
310.985
311.249
311.53
311.829
312.145
312.479
312.831
313.201
313.589
313.994
314.416
314.854
315.308
315.777
316.261
316.757
317.266
317.785
318.315
318.853
319.399
319.951
320.508
300.156
300.473
300.8
301.133
301.47
301.81
302.149
302.487
302.82
303.147
303.468
303.78
304.083
304.375
304.657
304.927
305.186
305.434
305.669
305.893
306.105
306.306
306.496
306.676
306.845
307.005
307.155
307.298
307.432
307.558
307.678
307.792
307.9
308.004
308.103
308.198
308.29
308.38
308.469
308.556
308.644
308.732
308.821
308.913
309.007
309.105
309.208
309.316
309.43
309.551
309.68
309.818
309.965
310.123
310.292
310.473
310.666
310.872
311.091
311.325
311.573
311.836
312.114
312.407
312.715
313.038
313.376
313.729
314.096
314.477
314.871
315.278
315.696
316.126
316.567
317.017
317.476
317.942
318.415
318.894
319.378
300.166
300.503
300.85
301.204
301.564
301.925
302.287
302.646
303.001
303.349
303.691
304.023
304.345
304.656
304.955
305.241
305.516
305.777
306.025
306.261
306.483
306.694
306.892
307.079
307.255
307.42
307.575
307.721
307.858
307.987
308.108
308.223
308.331
308.434
308.532
308.626
308.717
308.804
308.89
308.973
309.057
309.14
309.224
309.309
309.397
309.487
309.582
309.68
309.784
309.894
310.011
310.135
310.267
310.408
310.558
310.719
310.89
311.072
311.266
311.471
311.689
311.92
312.162
312.418
312.687
312.968
313.261
313.567
313.885
314.215
314.556
314.908
315.27
315.641
316.022
316.411
316.807
317.21
317.62
318.034
318.453
300.177
300.538
300.909
301.288
301.672
302.059
302.446
302.831
303.211
303.584
303.949
304.304
304.648
304.98
305.299
305.604
305.895
306.172
306.435
306.683
306.918
307.138
307.346
307.541
307.723
307.895
308.055
308.205
308.345
308.476
308.599
308.715
308.823
308.926
309.023
309.115
309.204
309.289
309.371
309.451
309.53
309.609
309.687
309.767
309.848
309.931
310.017
310.107
310.201
310.3
310.404
310.515
310.633
310.759
310.892
311.034
311.185
311.345
311.515
311.695
311.886
312.087
312.298
312.521
312.754
312.998
313.252
313.517
313.792
314.077
314.371
314.674
314.987
315.307
315.635
315.97
316.312
316.66
317.014
317.372
317.735
300.191
300.578
300.977
301.385
301.798
302.215
302.631
303.046
303.455
303.856
304.249
304.63
304.999
305.355
305.696
306.021
306.331
306.626
306.904
307.167
307.414
307.646
307.863
308.067
308.257
308.434
308.599
308.753
308.897
309.031
309.155
309.272
309.381
309.483
309.579
309.67
309.756
309.839
309.918
309.995
310.069
310.143
310.217
310.29
310.365
310.441
310.519
310.601
310.685
310.774
310.868
310.966
311.071
311.182
311.3
311.425
311.557
311.698
311.847
312.004
312.17
312.345
312.528
312.721
312.923
313.134
313.354
313.583
313.82
314.066
314.319
314.581
314.85
315.126
315.408
315.697
315.992
316.292
316.596
316.906
317.219
300.206
300.625
301.057
301.498
301.945
302.396
302.847
303.295
303.737
304.171
304.595
305.006
305.403
305.785
306.151
306.499
306.83
307.144
307.439
307.717
307.978
308.222
308.45
308.662
308.86
309.044
309.214
309.373
309.519
309.656
309.782
309.899
310.008
310.11
310.205
310.294
310.379
310.458
310.534
310.608
310.678
310.748
310.816
310.884
310.953
311.022
311.093
311.166
311.242
311.322
311.405
311.493
311.585
311.683
311.787
311.896
312.012
312.135
312.265
312.402
312.547
312.698
312.858
313.025
313.2
313.382
313.572
313.769
313.974
314.186
314.404
314.63
314.861
315.099
315.342
315.591
315.844
316.103
316.365
316.632
316.902
300.224
300.68
301.149
301.629
302.116
302.606
303.096
303.583
304.063
304.534
304.993
305.438
305.867
306.278
306.671
307.044
307.398
307.732
308.046
308.34
308.615
308.872
309.11
309.332
309.538
309.728
309.904
310.066
310.216
310.355
310.483
310.601
310.71
310.811
310.905
310.992
311.074
311.151
311.224
311.294
311.361
311.426
311.489
311.552
311.615
311.678
311.742
311.808
311.876
311.947
312.021
312.099
312.18
312.266
312.357
312.454
312.555
312.662
312.776
312.895
313.021
313.152
313.291
313.436
313.587
313.745
313.909
314.079
314.256
314.438
314.627
314.821
315.02
315.225
315.435
315.649
315.868
316.09
316.317
316.547
316.78
300.245
300.743
301.256
301.781
302.313
302.849
303.385
303.916
304.44
304.952
305.451
305.933
306.397
306.84
307.263
307.663
308.041
308.397
308.73
309.041
309.331
309.601
309.85
310.081
310.294
310.491
310.672
310.838
310.991
311.131
311.26
311.378
311.487
311.588
311.68
311.766
311.845
311.92
311.99
312.056
312.119
312.18
312.239
312.297
312.354
312.412
312.47
312.529
312.59
312.653
312.719
312.788
312.86
312.936
313.016
313.1
313.189
313.283
313.382
313.486
313.595
313.71
313.83
313.956
314.087
314.224
314.366
314.514
314.666
314.824
314.987
315.155
315.327
315.504
315.685
315.87
316.059
316.251
316.446
316.645
316.846
300.269
300.817
301.381
301.958
302.542
303.13
303.718
304.3
304.873
305.432
305.975
306.498
307
307.479
307.934
308.363
308.766
309.144
309.497
309.826
310.131
310.412
310.673
310.912
311.133
311.335
311.52
311.69
311.845
311.986
312.116
312.234
312.343
312.442
312.533
312.616
312.694
312.765
312.832
312.895
312.955
313.012
313.067
313.12
313.173
313.226
313.278
313.332
313.387
313.443
313.502
313.563
313.626
313.693
313.764
313.838
313.917
313.999
314.086
314.177
314.273
314.373
314.478
314.588
314.702
314.821
314.945
315.073
315.206
315.343
315.485
315.63
315.779
315.932
316.089
316.249
316.413
316.579
316.749
316.921
317.095
300.297
300.903
301.526
302.162
302.807
303.456
304.102
304.742
305.37
305.981
306.573
307.142
307.685
308.202
308.69
309.149
309.579
309.98
310.352
310.698
311.017
311.31
311.58
311.828
312.054
312.261
312.45
312.622
312.778
312.921
313.05
313.168
313.275
313.373
313.462
313.544
313.619
313.688
313.752
313.812
313.868
313.922
313.973
314.023
314.072
314.12
314.168
314.217
314.267
314.318
314.37
314.425
314.482
314.542
314.605
314.671
314.74
314.813
314.89
314.971
315.055
315.144
315.236
315.333
315.433
315.538
315.646
315.758
315.875
315.994
316.118
316.245
316.375
316.509
316.645
316.785
316.927
317.072
317.219
317.368
317.52
300.33
301.002
301.693
302.399
303.113
303.831
304.545
305.249
305.938
306.608
307.253
307.871
308.458
309.014
309.537
310.026
310.483
310.906
311.298
311.659
311.99
312.295
312.573
312.827
313.058
313.268
313.459
313.632
313.789
313.932
314.06
314.177
314.283
314.379
314.466
314.546
314.618
314.685
314.747
314.804
314.858
314.909
314.958
315.004
315.05
315.095
315.14
315.185
315.231
315.277
315.326
315.376
315.428
315.482
315.539
315.599
315.661
315.727
315.796
315.868
315.944
316.023
316.105
316.191
316.28
316.373
316.469
316.568
316.671
316.777
316.886
316.997
317.112
317.229
317.349
317.471
317.596
317.723
317.851
317.982
318.114
300.368
301.117
301.887
302.672
303.467
304.263
305.052
305.829
306.587
307.319
308.022
308.692
309.326
309.922
310.48
310.999
311.48
311.924
312.333
312.708
313.05
313.363
313.647
313.905
314.139
314.351
314.543
314.716
314.873
315.014
315.141
315.256
315.36
315.455
315.54
315.618
315.689
315.754
315.813
315.869
315.921
315.97
316.017
316.062
316.106
316.149
316.191
316.234
316.278
316.322
316.367
316.414
316.463
316.514
316.566
316.622
316.679
316.74
316.803
316.869
316.938
317.01
317.085
317.162
317.243
317.327
317.413
317.502
317.594
317.688
317.785
317.885
317.987
318.091
318.197
318.305
318.415
318.527
318.64
318.755
318.872
300.412
301.25
302.111
302.988
303.874
304.758
305.634
306.491
307.323
308.124
308.888
309.611
310.292
310.928
311.519
312.066
312.57
313.032
313.455
313.84
314.19
314.507
314.795
315.055
315.29
315.502
315.693
315.864
316.019
316.159
316.284
316.398
316.5
316.593
316.676
316.753
316.822
316.886
316.945
317
317.052
317.1
317.147
317.191
317.235
317.278
317.32
317.362
317.405
317.449
317.493
317.539
317.586
317.635
317.686
317.738
317.793
317.851
317.91
317.972
318.037
318.104
318.173
318.245
318.319
318.396
318.475
318.556
318.639
318.725
318.813
318.902
318.994
319.087
319.182
319.279
319.377
319.477
319.578
319.68
319.783
300.463
301.404
302.369
303.352
304.341
305.326
306.296
307.242
308.154
309.027
309.854
310.631
311.358
312.031
312.653
313.224
313.746
314.221
314.653
315.044
315.398
315.717
316.005
316.264
316.497
316.707
316.895
317.065
317.217
317.354
317.478
317.589
317.69
317.782
317.865
317.941
318.01
318.075
318.134
318.19
318.243
318.292
318.34
318.386
318.431
318.476
318.52
318.563
318.608
318.652
318.698
318.744
318.792
318.841
318.892
318.944
318.999
319.055
319.113
319.173
319.234
319.298
319.364
319.432
319.502
319.574
319.647
319.723
319.8
319.879
319.959
320.041
320.125
320.21
320.296
320.383
320.471
320.561
320.651
320.742
320.834
300.522
301.581
302.667
303.769
304.875
305.972
307.047
308.088
309.085
310.032
310.921
311.751
312.518
313.225
313.871
314.459
314.992
315.475
315.91
316.302
316.655
316.972
317.257
317.512
317.742
317.947
318.132
318.298
318.448
318.583
318.705
318.815
318.916
319.007
319.091
319.168
319.239
319.306
319.368
319.427
319.482
319.535
319.587
319.636
319.685
319.733
319.781
319.828
319.876
319.924
319.972
320.022
320.072
320.123
320.176
320.23
320.285
320.342
320.4
320.459
320.52
320.583
320.647
320.713
320.78
320.848
320.918
320.989
321.062
321.135
321.21
321.286
321.363
321.441
321.519
321.599
321.679
321.76
321.841
321.923
322.005
300.589
301.784
303.007
304.246
305.484
306.704
307.892
309.033
310.118
311.137
312.085
312.96
313.761
314.491
315.154
315.751
316.288
316.769
317.201
317.588
317.935
318.245
318.523
318.773
318.996
319.197
319.378
319.541
319.689
319.822
319.944
320.055
320.157
320.25
320.337
320.417
320.492
320.563
320.63
320.693
320.754
320.813
320.87
320.925
320.98
321.033
321.087
321.14
321.193
321.246
321.299
321.353
321.408
321.463
321.519
321.575
321.633
321.691
321.751
321.811
321.873
321.935
321.998
322.063
322.128
322.194
322.262
322.33
322.398
322.468
322.538
322.609
322.68
322.752
322.824
322.897
322.97
323.043
323.117
323.191
323.265
300.666
302.016
303.396
304.788
306.171
307.526
308.834
310.078
311.246
312.333
313.331
314.238
315.058
315.797
316.46
317.054
317.586
318.06
318.484
318.862
319.199
319.501
319.771
320.014
320.232
320.428
320.606
320.767
320.914
321.048
321.17
321.284
321.389
321.486
321.577
321.663
321.744
321.821
321.895
321.965
322.033
322.099
322.164
322.227
322.289
322.35
322.41
322.47
322.529
322.589
322.648
322.708
322.767
322.827
322.887
322.947
323.007
323.068
323.13
323.191
323.254
323.316
323.38
323.443
323.507
323.572
323.637
323.702
323.767
323.833
323.899
323.965
324.032
324.098
324.165
324.231
324.298
324.364
324.431
324.497
324.563
300.753
302.279
303.836
305.399
306.941
308.439
309.87
311.212
312.448
313.577
314.599
315.521
316.346
317.084
317.741
318.325
318.845
319.307
319.717
320.083
320.409
320.701
320.963
321.198
321.411
321.604
321.779
321.939
322.086
322.222
322.348
322.465
322.574
322.678
322.775
322.868
322.956
323.041
323.123
323.202
323.278
323.353
323.425
323.497
323.566
323.635
323.703
323.77
323.837
323.902
323.968
324.032
324.097
324.161
324.225
324.288
324.352
324.415
324.478
324.541
324.604
324.667
324.73
324.793
324.856
324.918
324.981
325.043
325.105
325.167
325.229
325.291
325.352
325.413
325.474
325.535
325.595
325.655
325.714
325.773
325.832
300.85
302.574
304.327
306.078
307.793
309.43
310.957
312.362
313.641
314.795
315.829
316.751
317.57
318.296
318.937
319.505
320.007
320.451
320.846
321.197
321.51
321.791
322.043
322.272
322.479
322.668
322.842
323.002
323.151
323.289
323.419
323.541
323.656
323.766
323.87
323.97
324.066
324.159
324.249
324.336
324.421
324.503
324.584
324.663
324.74
324.816
324.891
324.964
325.036
325.108
325.178
325.247
325.316
325.384
325.451
325.517
325.582
325.647
325.711
325.775
325.838
325.901
325.963
326.024
326.085
326.145
326.205
326.265
326.323
326.382
326.439
326.496
326.553
326.609
326.664
326.719
326.773
326.827
326.88
326.932
326.983
300.953
302.889
304.856
306.806
308.662
310.397
311.991
313.439
314.74
315.9
316.929
317.837
318.637
319.34
319.959
320.502
320.982
321.406
321.782
322.117
322.416
322.685
322.929
323.15
323.353
323.539
323.711
323.871
324.021
324.162
324.295
324.421
324.541
324.656
324.766
324.872
324.975
325.074
325.17
325.264
325.355
325.444
325.53
325.615
325.698
325.779
325.859
325.937
326.013
326.088
326.162
326.235
326.306
326.376
326.445
326.512
326.579
326.644
326.709
326.773
326.835
326.897
326.958
327.018
327.077
327.135
327.192
327.248
327.304
327.359
327.413
327.466
327.518
327.569
327.62
327.669
327.718
327.766
327.814
327.86
327.906
301.045
303.175
305.339
307.42
309.371
311.166
312.795
314.256
315.554
316.702
317.71
318.595
319.369
320.046
320.64
321.16
321.619
322.023
322.383
322.703
322.991
323.25
323.486
323.701
323.899
324.082
324.252
324.411
324.561
324.703
324.837
324.965
325.088
325.205
325.319
325.428
325.534
325.637
325.736
325.833
325.928
326.02
326.109
326.197
326.283
326.367
326.449
326.529
326.608
326.685
326.76
326.834
326.906
326.978
327.047
327.115
327.183
327.248
327.313
327.376
327.438
327.499
327.559
327.618
327.676
327.732
327.788
327.842
327.896
327.948
327.999
328.05
328.099
328.147
328.195
328.241
328.287
328.332
328.376
328.418
328.46
380.505
388.449
395.137
400.973
406.157
410.796
414.954
418.664
421.94
424.784
427.185
429.12
430.555
431.442
431.714
431.282
430.014
427.717
424.058
418.379
409.035
402.711
397.868
393.904
390.531
387.588
384.973
382.618
380.473
378.503
376.68
374.981
373.39
371.892
370.475
369.128
367.845
366.617
365.437
364.302
363.205
362.143
361.112
360.109
359.131
358.175
357.239
356.321
355.42
354.532
353.658
352.796
351.943
351.101
350.266
349.44
348.62
347.807
346.999
346.197
345.4
344.607
343.819
343.036
342.257
341.482
340.711
339.944
339.182
338.425
337.672
336.924
336.181
335.444
334.712
333.986
333.266
332.553
331.847
331.149
330.458
329.776
329.102
328.437
327.782
327.137
326.502
325.878
325.266
324.665
324.076
323.499
322.935
322.384
321.845
321.321
320.809
320.312
319.828
319.358
318.902
318.46
318.032
317.617
317.216
316.829
316.454
316.093
315.745
315.41
315.087
314.776
314.477
314.189
313.912
313.646
313.391
313.146
312.91
312.684
312.466
312.257
312.057
311.864
311.679
311.5
311.329
311.164
311.005
310.852
310.705
310.562
310.425
310.292
310.163
310.038
309.917
309.8
309.686
309.575
309.467
309.362
309.26
309.159
309.061
308.965
308.87
308.778
308.687
308.597
308.509
308.422
308.336
308.251
308.167
308.083
308.001
307.919
307.838
307.758
307.68
375.764
382.666
388.884
394.475
399.516
404.068
408.17
411.845
415.1
417.935
420.336
422.28
423.734
424.651
424.968
424.603
423.443
421.333
418.055
413.342
407.147
401.792
397.325
393.542
390.271
387.391
384.819
382.494
380.372
378.419
376.609
374.921
373.339
371.848
370.436
369.095
367.816
366.591
365.415
364.282
363.187
362.127
361.098
360.096
359.119
358.165
357.23
356.313
355.412
354.525
353.652
352.79
351.938
351.096
350.262
349.436
348.616
347.803
346.996
346.194
345.397
344.604
343.817
343.033
342.254
341.479
340.708
339.942
339.18
338.422
337.67
336.922
336.179
335.441
334.71
333.984
333.264
332.551
331.845
331.147
330.456
329.774
329.1
328.435
327.78
327.135
326.5
325.876
325.264
324.663
324.074
323.497
322.933
322.381
321.843
321.319
320.808
320.31
319.826
319.356
318.9
318.458
318.03
317.615
317.215
316.827
316.453
316.092
315.744
315.409
315.086
314.775
314.476
314.188
313.911
313.646
313.39
313.145
312.909
312.683
312.466
312.257
312.056
311.864
311.678
311.5
311.329
311.164
311.005
310.852
310.705
310.562
310.425
310.292
310.163
310.039
309.918
309.8
309.687
309.576
309.468
309.363
309.26
309.159
309.061
308.965
308.871
308.778
308.687
308.597
308.509
308.422
308.336
308.251
308.167
308.084
308.001
307.919
307.839
307.758
307.68
371.674
377.578
383.163
388.35
393.126
397.499
401.478
405.069
408.272
411.076
413.468
415.422
416.906
417.877
418.28
418.046
417.088
415.304
412.589
408.897
404.445
400.125
396.228
392.773
389.704
386.956
384.476
382.218
380.145
378.231
376.451
374.788
373.225
371.75
370.352
369.021
367.751
366.534
365.365
364.238
363.148
362.093
361.067
360.069
359.095
358.143
357.21
356.295
355.396
354.511
353.639
352.778
351.927
351.086
350.253
349.427
348.608
347.796
346.989
346.187
345.391
344.599
343.811
343.028
342.249
341.474
340.704
339.937
339.175
338.418
337.665