/*--------------------------------*- C++ -*----------------------------------*\
  =========                 |
  \\      /  F ield         | OpenFOAM: The Open Source CFD Toolbox
   \\    /   O peration     | Website:  https://openfoam.org
    \\  /    A nd           | Version:  7
     \\/     M anipulation  |
\*---------------------------------------------------------------------------*/
FoamFile
{
    version     2.0;
    format      ascii;
    class       surfaceScalarField;
    location    "6.9";
    object      phi;
}
// * * * * * * * * * * * * * * * * * * * * * * * * * * * * * * * * * * * * * //

dimensions      [1 0 -1 0 0 0 0];

internalField   nonuniform List<scalar> 
23692
(
1.19182e-05
-2.83685e-07
1.24049e-05
-4.86454e-07
1.3061e-05
-6.55788e-07
1.38596e-05
-7.98065e-07
1.47809e-05
-9.20724e-07
1.58108e-05
-1.02909e-06
1.69388e-05
-1.12714e-06
1.81577e-05
-1.21792e-06
1.94622e-05
-1.30345e-06
2.08482e-05
-1.38482e-06
2.23117e-05
-1.46221e-06
2.3848e-05
-1.53499e-06
2.54514e-05
-1.602e-06
2.71146e-05
-1.66172e-06
2.88287e-05
-1.71261e-06
3.05835e-05
-1.75325e-06
3.23677e-05
-1.78258e-06
3.41693e-05
-1.79997e-06
3.59762e-05
-1.80521e-06
3.77764e-05
-1.79855e-06
3.95587e-05
-1.78059e-06
4.13127e-05
-1.7522e-06
4.30289e-05
-1.71448e-06
4.46993e-05
-1.6686e-06
4.63169e-05
-1.61582e-06
4.7876e-05
-1.55737e-06
4.93722e-05
-1.49441e-06
5.0802e-05
-1.42805e-06
5.2163e-05
-1.35928e-06
5.34537e-05
-1.28898e-06
5.46734e-05
-1.21793e-06
5.58219e-05
-1.14679e-06
5.68997e-05
-1.07613e-06
5.79078e-05
-1.00642e-06
5.88476e-05
-9.38062e-07
5.97206e-05
-8.71358e-07
6.05287e-05
-8.06561e-07
6.12742e-05
-7.43861e-07
6.19591e-05
-6.83402e-07
6.25859e-05
-6.25286e-07
6.3157e-05
-5.69575e-07
6.36747e-05
-5.16306e-07
6.41416e-05
-4.65488e-07
6.45601e-05
-4.17106e-07
6.49325e-05
-3.71128e-07
6.52613e-05
-3.27507e-07
6.55487e-05
-2.8618e-07
6.5797e-05
-2.47069e-07
6.60082e-05
-2.10087e-07
6.61844e-05
-1.75136e-07
6.63275e-05
-1.42104e-07
6.64393e-05
-1.1087e-07
6.65215e-05
-8.13001e-08
6.65756e-05
-5.32477e-08
6.6603e-05
-2.65541e-08
6.66047e-05
-1.044e-09
6.65819e-05
2.3423e-08
6.65355e-05
4.70434e-08
6.6466e-05
7.00115e-08
6.63739e-05
9.25652e-08
6.62593e-05
1.14972e-07
6.61221e-05
1.37533e-07
6.59617e-05
1.60594e-07
6.57774e-05
1.84556e-07
6.55676e-05
2.0989e-07
6.53305e-05
2.37162e-07
6.50635e-05
2.67064e-07
6.4763e-05
3.00461e-07
6.44244e-05
3.38463e-07
6.40417e-05
3.8254e-07
6.36068e-05
4.34693e-07
6.31089e-05
4.97752e-07
6.25327e-05
5.75875e-07
6.1857e-05
6.75426e-07
6.105e-05
8.06616e-07
6.0063e-05
9.86618e-07
5.88169e-05
1.2458e-06
5.71753e-05
1.64114e-06
5.4884e-05
2.29091e-06
5.13922e-05
3.49143e-06
6.53638e-06
4.48554e-05
1.27431e-05
-5.78331e-07
1.32604e-05
-1.0035e-06
1.39598e-05
-1.35483e-06
1.48118e-05
-1.64948e-06
1.57954e-05
-1.90368e-06
1.68954e-05
-2.12824e-06
1.81006e-05
-2.33143e-06
1.94033e-05
-2.51958e-06
2.07979e-05
-2.69693e-06
2.22801e-05
-2.86572e-06
2.38455e-05
-3.02634e-06
2.54895e-05
-3.17751e-06
2.72057e-05
-3.31677e-06
2.89866e-05
-3.441e-06
3.08225e-05
-3.54693e-06
3.27026e-05
-3.63164e-06
3.46146e-05
-3.69289e-06
3.65457e-05
-3.72934e-06
3.84829e-05
-3.74057e-06
4.04132e-05
-3.72706e-06
4.23245e-05
-3.69005e-06
4.42055e-05
-3.63138e-06
4.60462e-05
-3.5533e-06
4.78378e-05
-3.45828e-06
4.95728e-05
-3.34891e-06
5.1245e-05
-3.22775e-06
5.28498e-05
-3.09723e-06
5.43832e-05
-2.95964e-06
5.58429e-05
-2.81703e-06
5.7227e-05
-2.67126e-06
5.85349e-05
-2.52392e-06
5.97663e-05
-2.3764e-06
6.09219e-05
-2.22988e-06
6.20026e-05
-2.08534e-06
6.30099e-05
-1.94359e-06
6.39456e-05
-1.80527e-06
6.48116e-05
-1.6709e-06
6.56103e-05
-1.54089e-06
6.63441e-05
-1.41552e-06
6.70154e-05
-1.295e-06
6.76269e-05
-1.17946e-06
6.81811e-05
-1.06898e-06
6.86807e-05
-9.63576e-07
6.91283e-05
-8.63213e-07
6.95264e-05
-7.67826e-07
6.98776e-05
-6.77311e-07
7.01843e-05
-5.91538e-07
7.04488e-05
-5.10349e-07
7.06735e-05
-4.33559e-07
7.08605e-05
-3.60963e-07
7.10118e-05
-2.9233e-07
7.11293e-05
-2.27407e-07
7.12149e-05
-1.65918e-07
7.12701e-05
-1.07559e-07
7.12964e-05
-5.20028e-08
7.1295e-05
1.1173e-09
7.12671e-05
5.20751e-08
7.12134e-05
1.01293e-07
7.11348e-05
1.49165e-07
7.10317e-05
1.96179e-07
7.09042e-05
2.4288e-07
7.07522e-05
2.89882e-07
7.05752e-05
3.37883e-07
7.03723e-05
3.87693e-07
7.0142e-05
4.40255e-07
6.98826e-05
4.96697e-07
6.95913e-05
5.58387e-07
6.92647e-05
6.27017e-07
6.88983e-05
7.04739e-07
6.84863e-05
7.94354e-07
6.80212e-05
8.99611e-07
6.7493e-05
1.02568e-06
6.68887e-05
1.17992e-06
6.61906e-05
1.37315e-06
6.53751e-05
1.62179e-06
6.44097e-05
1.95157e-06
6.32513e-05
2.40384e-06
6.18454e-05
3.04665e-06
6.01392e-05
3.99665e-06
5.81717e-05
5.45848e-06
7.71085e-06
5.69968e-05
1.36218e-05
-8.80988e-07
1.41678e-05
-1.54924e-06
1.49093e-05
-2.09591e-06
1.5815e-05
-2.55466e-06
1.68624e-05
-2.95033e-06
1.80348e-05
-3.2998e-06
1.93204e-05
-3.61606e-06
2.0711e-05
-3.909e-06
2.22005e-05
-4.18529e-06
2.37846e-05
-4.44847e-06
2.54589e-05
-4.69914e-06
2.72182e-05
-4.93534e-06
2.90563e-05
-5.15319e-06
3.09647e-05
-5.34778e-06
3.29335e-05
-5.51395e-06
3.49507e-05
-5.64709e-06
3.70033e-05
-5.74365e-06
3.90774e-05
-5.80147e-06
4.11586e-05
-5.81988e-06
4.32331e-05
-5.7996e-06
4.52876e-05
-5.74258e-06
4.73098e-05
-5.65166e-06
4.92889e-05
-5.53037e-06
5.12153e-05
-5.38259e-06
5.30807e-05
-5.21238e-06
5.48787e-05
-5.02372e-06
5.6604e-05
-4.82045e-06
5.82525e-05
-4.60613e-06
5.98214e-05
-4.38398e-06
6.13091e-05
-4.15688e-06
6.27145e-05
-3.92735e-06
6.40376e-05
-3.69755e-06
6.5279e-05
-3.4693e-06
6.64397e-05
-3.24415e-06
6.75214e-05
-3.02334e-06
6.85259e-05
-2.80789e-06
6.94554e-05
-2.5986e-06
7.03124e-05
-2.39608e-06
7.10995e-05
-2.2008e-06
7.18193e-05
-2.01306e-06
7.24746e-05
-1.83308e-06
7.30682e-05
-1.66096e-06
7.3603e-05
-1.49673e-06
7.40817e-05
-1.34033e-06
7.45071e-05
-1.19166e-06
7.48818e-05
-1.05056e-06
7.52084e-05
-9.16807e-07
7.54896e-05
-7.90165e-07
7.57277e-05
-6.70343e-07
7.5925e-05
-5.57016e-07
7.60836e-05
-4.49828e-07
7.62057e-05
-3.48383e-07
7.62931e-05
-2.52251e-07
7.63474e-05
-1.60961e-07
7.63703e-05
-7.4e-08
7.63631e-05
9.15795e-09
7.63269e-05
8.90023e-08
7.62628e-05
1.6612e-07
7.61714e-05
2.41151e-07
7.60533e-05
3.14834e-07
7.59086e-05
3.87994e-07
7.57373e-05
4.61554e-07
7.55389e-05
5.3656e-07
7.53126e-05
6.1421e-07
7.50571e-05
6.95893e-07
7.47707e-05
7.8325e-07
7.44508e-05
8.78241e-07
7.40946e-05
9.83261e-07
7.36979e-05
1.10129e-06
7.3256e-05
1.23612e-06
7.27627e-05
1.39267e-06
7.22106e-05
1.57748e-06
7.15908e-05
1.79939e-06
7.0893e-05
2.07064e-06
7.01061e-05
2.40832e-06
6.92207e-05
2.83656e-06
6.8235e-05
3.38913e-06
6.7169e-05
4.11218e-06
6.61003e-05
5.06488e-06
6.52521e-05
6.30625e-06
7.82113e-06
6.51414e-05
1.45595e-05
-1.19001e-06
1.5132e-05
-2.12147e-06
1.59145e-05
-2.87802e-06
1.68742e-05
-3.51371e-06
1.79865e-05
-4.06187e-06
1.92336e-05
-4.54597e-06
2.06028e-05
-4.98418e-06
2.20853e-05
-5.39031e-06
2.36751e-05
-5.77371e-06
2.53674e-05
-6.13939e-06
2.7158e-05
-6.48822e-06
2.90418e-05
-6.81745e-06
3.1012e-05
-7.12166e-06
3.30599e-05
-7.3939e-06
3.51747e-05
-7.62688e-06
3.73435e-05
-7.81405e-06
3.95522e-05
-7.95034e-06
4.17854e-05
-8.03265e-06
4.40275e-05
-8.05998e-06
4.62633e-05
-8.03331e-06
4.84782e-05
-7.95532e-06
5.06587e-05
-7.83002e-06
5.27928e-05
-7.66231e-06
5.487e-05
-7.45766e-06
5.68815e-05
-7.2217e-06
5.882e-05
-6.96005e-06
6.06798e-05
-6.67806e-06
6.24565e-05
-6.38068e-06
6.41471e-05
-6.07244e-06
6.57497e-05
-5.75733e-06
6.72634e-05
-5.43886e-06
6.8688e-05
-5.12003e-06
7.00242e-05
-4.8034e-06
7.12732e-05
-4.49108e-06
7.24367e-05
-4.18481e-06
7.35168e-05
-3.88599e-06
7.45159e-05
-3.59573e-06
7.54366e-05
-3.31488e-06
7.62818e-05
-3.04406e-06
7.70543e-05
-2.78371e-06
7.77572e-05
-2.5341e-06
7.83934e-05
-2.29538e-06
7.89659e-05
-2.06757e-06
7.94779e-05
-1.8506e-06
7.99322e-05
-1.6443e-06
8.03316e-05
-1.44846e-06
8.06791e-05
-1.26277e-06
8.09773e-05
-1.08688e-06
8.12287e-05
-9.20405e-07
8.14359e-05
-7.6288e-07
8.16011e-05
-6.13812e-07
8.17266e-05
-4.72654e-07
8.18143e-05
-3.38812e-07
8.1866e-05
-2.11639e-07
8.18834e-05
-9.04307e-08
8.18679e-05
2.55119e-08
8.18208e-05
1.36876e-07
8.17432e-05
2.44442e-07
8.16359e-05
3.49096e-07
8.14995e-05
4.51825e-07
8.13343e-05
5.53726e-07
8.11402e-05
6.56015e-07
8.0917e-05
7.60056e-07
8.06641e-05
8.67391e-07
8.03804e-05
9.79791e-07
8.00644e-05
1.09931e-06
7.97143e-05
1.22834e-06
7.93278e-05
1.36978e-06
7.89019e-05
1.52709e-06
7.84333e-05
1.70455e-06
7.79183e-05
1.90747e-06
7.73529e-05
2.14257e-06
7.67336e-05
2.41833e-06
7.60583e-05
2.74557e-06
7.53283e-05
3.13792e-06
7.45524e-05
3.61209e-06
7.37535e-05
4.18755e-06
7.29808e-05
4.88438e-06
7.23277e-05
5.71752e-06
7.19506e-05
6.68288e-06
7.72462e-06
7.20466e-05
1.55614e-05
-1.50468e-06
1.61587e-05
-2.71854e-06
1.69815e-05
-3.70031e-06
1.79951e-05
-4.52671e-06
1.91736e-05
-5.23949e-06
2.04976e-05
-5.86903e-06
2.19537e-05
-6.43915e-06
2.35327e-05
-6.96801e-06
2.52284e-05
-7.46799e-06
2.70363e-05
-7.94576e-06
2.89523e-05
-8.4025e-06
3.09712e-05
-8.83462e-06
3.30863e-05
-9.2349e-06
3.52883e-05
-9.59402e-06
3.75657e-05
-9.9022e-06
3.99043e-05
-1.01506e-05
4.22884e-05
-1.03323e-05
4.47011e-05
-1.04432e-05
4.71251e-05
-1.04818e-05
4.95434e-05
-1.04493e-05
5.19397e-05
-1.03493e-05
5.42991e-05
-1.01871e-05
5.66082e-05
-9.96917e-06
5.88556e-05
-9.70269e-06
6.10314e-05
-9.39517e-06
6.31277e-05
-9.054e-06
6.51381e-05
-8.68622e-06
6.70581e-05
-8.29836e-06
6.88844e-05
-7.89636e-06
7.06148e-05
-7.48546e-06
7.22485e-05
-7.07025e-06
7.37854e-05
-6.65464e-06
7.52262e-05
-6.24198e-06
7.65723e-05
-5.83501e-06
7.78257e-05
-5.43599e-06
7.89886e-05
-5.04674e-06
8.00637e-05
-4.66869e-06
8.10539e-05
-4.30293e-06
8.19621e-05
-3.95026e-06
8.27916e-05
-3.61123e-06
8.35457e-05
-3.28619e-06
8.42275e-05
-2.97532e-06
8.48404e-05
-2.67862e-06
8.53876e-05
-2.39601e-06
8.58723e-05
-2.12725e-06
8.62976e-05
-1.87205e-06
8.66665e-05
-1.63001e-06
8.69818e-05
-1.40067e-06
8.72464e-05
-1.1835e-06
8.74629e-05
-9.77927e-07
8.76337e-05
-7.83291e-07
8.77612e-05
-5.98889e-07
8.78475e-05
-4.23953e-07
8.78947e-05
-2.57652e-07
8.79044e-05
-9.9088e-08
8.78782e-05
5.26171e-08
8.78176e-05
1.98334e-07
8.77238e-05
3.39058e-07
8.75977e-05
4.75913e-07
8.744e-05
6.10126e-07
8.72512e-05
7.43043e-07
8.70315e-05
8.76137e-07
8.67809e-05
1.01104e-06
8.6499e-05
1.14957e-06
8.61852e-05
1.29376e-06
8.58387e-05
1.44595e-06
8.54583e-05
1.60878e-06
8.50427e-05
1.78533e-06
8.45905e-05
1.97917e-06
8.41003e-05
2.19451e-06
8.35713e-05
2.43628e-06
8.30033e-05
2.71032e-06
8.23978e-05
3.02342e-06
8.17597e-05
3.3833e-06
8.10988e-05
3.79845e-06
8.04331e-05
4.27734e-06
7.97931e-05
4.82701e-06
7.92267e-05
5.45028e-06
7.88026e-05
6.14111e-06
7.86076e-05
6.87742e-06
7.60979e-06
7.87219e-05
1.66327e-05
-1.82507e-06
1.7254e-05
-3.33951e-06
1.81165e-05
-4.56239e-06
1.91846e-05
-5.59405e-06
2.04306e-05
-6.48462e-06
2.18342e-05
-7.27152e-06
2.3381e-05
-7.98473e-06
2.50616e-05
-8.64728e-06
2.68701e-05
-9.27495e-06
2.88023e-05
-9.87635e-06
3.08547e-05
-1.04531e-05
3.30224e-05
-1.10004e-05
3.52986e-05
-1.15091e-05
3.76736e-05
-1.1967e-05
4.01347e-05
-1.23611e-05
4.26663e-05
-1.268e-05
4.52506e-05
-1.29144e-05
4.78687e-05
-1.3059e-05
5.05009e-05
-1.31116e-05
5.31279e-05
-1.30739e-05
5.57315e-05
-1.29505e-05
5.82948e-05
-1.2748e-05
6.0803e-05
-1.24749e-05
6.32432e-05
-1.21404e-05
6.56046e-05
-1.17541e-05
6.78785e-05
-1.13254e-05
7.00581e-05
-1.08633e-05
7.21382e-05
-1.0376e-05
7.41155e-05
-9.87117e-06
7.59879e-05
-9.35532e-06
7.77543e-05
-8.83424e-06
7.9415e-05
-8.31287e-06
8.09708e-05
-7.79537e-06
8.24234e-05
-7.28517e-06
8.37748e-05
-6.7851e-06
8.50278e-05
-6.2974e-06
8.61852e-05
-5.82384e-06
8.72503e-05
-5.36577e-06
8.82264e-05
-4.92415e-06
8.9117e-05
-4.49967e-06
8.99257e-05
-4.09273e-06
9.06559e-05
-3.70353e-06
9.13114e-05
-3.33206e-06
9.18955e-05
-2.97819e-06
9.24117e-05
-2.64161e-06
9.28634e-05
-2.32195e-06
9.32539e-05
-2.01869e-06
9.35861e-05
-1.73125e-06
9.38632e-05
-1.45897e-06
9.40879e-05
-1.20112e-06
9.4263e-05
-9.56874e-07
9.43908e-05
-7.25373e-07
9.44738e-05
-5.05665e-07
9.45141e-05
-2.96732e-07
9.45136e-05
-9.74836e-08
9.44741e-05
9.3137e-08
9.43972e-05
2.76178e-07
9.42843e-05
4.5286e-07
9.41364e-05
6.24528e-07
9.39546e-05
7.92632e-07
9.37395e-05
9.58724e-07
9.34916e-05
1.12449e-06
9.32113e-05
1.29175e-06
9.28987e-05
1.4625e-06
9.25537e-05
1.63894e-06
9.21763e-05
1.82349e-06
9.17663e-05
2.01882e-06
9.13237e-05
2.2279e-06
9.08488e-05
2.45404e-06
9.03422e-05
2.70089e-06
8.98058e-05
2.97246e-06
8.92428e-05
3.27305e-06
8.86587e-05
3.6071e-06
8.80627e-05
3.97894e-06
8.74685e-05
4.39218e-06
8.68965e-05
4.8489e-06
8.63748e-05
5.34826e-06
8.59399e-05
5.88463e-06
8.56353e-05
6.44522e-06
8.55047e-05
7.00746e-06
7.53701e-06
8.55769e-05
1.77789e-05
-2.15194e-06
1.8424e-05
-3.98425e-06
1.93267e-05
-5.46457e-06
2.04501e-05
-6.71668e-06
2.17656e-05
-7.79919e-06
2.32518e-05
-8.75656e-06
2.48939e-05
-9.62547e-06
2.66824e-05
-1.04344e-05
2.86122e-05
-1.1203e-05
3.06799e-05
-1.19423e-05
3.28828e-05
-1.26541e-05
3.5217e-05
-1.33326e-05
3.76757e-05
-1.39656e-05
4.02484e-05
-1.45374e-05
4.2921e-05
-1.50314e-05
4.56757e-05
-1.54323e-05
4.84922e-05
-1.57285e-05
5.13484e-05
-1.59127e-05
5.42217e-05
-1.59823e-05
5.70898e-05
-1.59395e-05
5.99319e-05
-1.57899e-05
6.2729e-05
-1.55424e-05
6.54643e-05
-1.52075e-05
6.81235e-05
-1.47969e-05
7.06946e-05
-1.43225e-05
7.31682e-05
-1.37963e-05
7.5537e-05
-1.32293e-05
7.77956e-05
-1.26319e-05
7.99404e-05
-1.20133e-05
8.19694e-05
-1.13817e-05
8.38818e-05
-1.0744e-05
8.5678e-05
-1.01064e-05
8.73592e-05
-9.47393e-06
8.89273e-05
-8.8507e-06
9.03848e-05
-8.24012e-06
9.17348e-05
-7.64492e-06
9.29806e-05
-7.06718e-06
9.41258e-05
-6.50851e-06
9.51741e-05
-5.97005e-06
9.61293e-05
-5.45258e-06
9.69954e-05
-4.95658e-06
9.77763e-05
-4.48222e-06
9.84759e-05
-4.0295e-06
9.9098e-05
-3.59819e-06
9.96464e-05
-3.18793e-06
0.000100125
-2.79822e-06
0.000100536
-2.42842e-06
0.000100885
-2.07783e-06
0.000101173
-1.74562e-06
0.000101404
-1.43089e-06
0.000101582
-1.13268e-06
0.000101708
-8.4993e-07
0.000101785
-5.8151e-07
0.000101816
-3.26218e-07
0.000101802
-8.27847e-08
0.000101747
1.50023e-07
0.00010165
3.73437e-07
0.000101515
5.889e-07
0.000101343
7.97963e-07
0.000101134
1.00225e-06
0.00010089
1.20348e-06
0.000100611
1.40348e-06
0.000100299
1.60419e-06
9.99543e-05
1.80767e-06
9.95774e-05
2.01614e-06
9.91691e-05
2.23192e-06
9.87305e-05
2.45753e-06
9.82628e-05
2.69558e-06
9.77679e-05
2.94882e-06
9.72486e-05
3.22006e-06
9.67088e-05
3.51208e-06
9.6154e-05
3.82748e-06
9.55923e-05
4.16844e-06
9.50345e-05
4.53634e-06
9.4495e-05
4.9313e-06
9.3992e-05
5.35145e-06
9.35475e-05
5.79218e-06
9.31864e-05
6.24519e-06
9.29333e-05
6.69775e-06
9.28079e-05
7.13234e-06
7.52766e-06
9.28167e-05
1.90057e-05
-2.48659e-06
1.96752e-05
-4.65341e-06
2.06192e-05
-6.40798e-06
2.17997e-05
-7.89635e-06
2.31874e-05
-9.18591e-06
2.47603e-05
-1.03282e-05
2.65033e-05
-1.13671e-05
2.84078e-05
-1.23373e-05
3.04697e-05
-1.32631e-05
3.26875e-05
-1.41581e-05
3.506e-05
-1.50246e-05
3.75843e-05
-1.58548e-05
4.02539e-05
-1.66328e-05
4.30571e-05
-1.73383e-05
4.59778e-05
-1.79495e-05
4.89948e-05
-1.84468e-05
5.2084e-05
-1.88151e-05
5.52192e-05
-1.90452e-05
5.83738e-05
-1.91341e-05
6.15218e-05
-1.90847e-05
6.46392e-05
-1.89045e-05
6.77044e-05
-1.86047e-05
7.06984e-05
-1.81986e-05
7.36054e-05
-1.7701e-05
7.64124e-05
-1.71267e-05
7.91093e-05
-1.64903e-05
8.16883e-05
-1.58055e-05
8.41441e-05
-1.50847e-05
8.6473e-05
-1.43393e-05
8.86733e-05
-1.35791e-05
9.07445e-05
-1.28124e-05
9.26874e-05
-1.20465e-05
9.45037e-05
-1.12874e-05
9.61958e-05
-1.054e-05
9.77667e-05
-9.80829e-06
9.92199e-05
-9.09544e-06
0.000100559
-8.40387e-06
0.000101789
-7.73544e-06
0.000102913
-7.09143e-06
0.000103935
-6.47272e-06
0.000104861
-5.87981e-06
0.000105694
-5.31287e-06
0.000106439
-4.77183e-06
0.000107099
-4.2564e-06
0.00010768
-3.7661e-06
0.000108184
-3.3003e-06
0.000108616
-2.85824e-06
0.000108979
-2.43904e-06
0.000109277
-2.04173e-06
0.000109513
-1.66524e-06
0.00010969
-1.3084e-06
0.000109812
-9.70002e-07
0.000109881
-6.48715e-07
0.000109899
-3.43158e-07
0.00010987
-5.19242e-08
0.000109794
2.26394e-07
0.000109676
4.93249e-07
0.000109515
7.50292e-07
0.000109315
9.99233e-07
0.000109076
1.24183e-06
0.0001088
1.47992e-06
0.000108489
1.71539e-06
0.000108144
1.9502e-06
0.000107765
2.1864e-06
0.000107356
2.42606e-06
0.000106916
2.67133e-06
0.00010645
2.92435e-06
0.000105958
3.18726e-06
0.000105445
3.46208e-06
0.000104914
3.7507e-06
0.000104371
4.05467e-06
0.000103823
4.37508e-06
0.000103279
4.7123e-06
0.000102749
5.06573e-06
0.000102247
5.43343e-06
0.000101786
5.81175e-06
0.000101383
6.19503e-06
0.000101052
6.57532e-06
0.000100807
6.94241e-06
0.000100654
7.28428e-06
7.5885e-06
0.000100593
2.03189e-05
-2.83072e-06
2.10143e-05
-5.34845e-06
2.20016e-05
-7.39462e-06
2.32419e-05
-9.13576e-06
2.47056e-05
-1.06485e-05
2.63704e-05
-1.19917e-05
2.82219e-05
-1.3217e-05
3.02528e-05
-1.43665e-05
3.24614e-05
-1.54698e-05
3.48489e-05
-1.65436e-05
3.74168e-05
-1.75902e-05
4.01635e-05
-1.85991e-05
4.30823e-05
-1.95491e-05
4.61598e-05
-2.04132e-05
4.9376e-05
-2.1163e-05
5.27051e-05
-2.17731e-05
5.61175e-05
-2.22246e-05
5.95813e-05
-2.25061e-05
6.30647e-05
-2.26146e-05
6.65374e-05
-2.25543e-05
6.99713e-05
-2.23355e-05
7.33421e-05
-2.19724e-05
7.66286e-05
-2.14821e-05
7.98136e-05
-2.08828e-05
8.28832e-05
-2.01931e-05
8.58267e-05
-1.94307e-05
8.86365e-05
-1.8612e-05
9.13071e-05
-1.77522e-05
9.38355e-05
-1.68646e-05
9.62203e-05
-1.59608e-05
9.84617e-05
-1.50508e-05
0.000100561
-1.41428e-05
0.000102521
-1.3244e-05
0.000104344
-1.236e-05
0.000106034
-1.14954e-05
0.000107595
-1.06537e-05
0.000109032
-9.83779e-06
0.000110349
-9.04961e-06
0.000111551
-8.29063e-06
0.000112642
-7.56177e-06
0.000113629
-6.86353e-06
0.000114515
-6.19604e-06
0.000115304
-5.55915e-06
0.000116003
-4.95246e-06
0.000116615
-4.37536e-06
0.000117144
-3.82708e-06
0.000117594
-3.30668e-06
0.000117971
-2.81313e-06
0.000118276
-2.34527e-06
0.000118515
-1.90185e-06
0.00011869
-1.48153e-06
0.000118804
-1.08289e-06
0.000118862
-7.0444e-07
0.000118865
-3.44583e-07
0.000118816
-1.8882e-09
0.000118719
3.25224e-07
0.000118574
6.38572e-07
0.000118386
9.39921e-07
0.000118155
1.23109e-06
0.000117884
1.51393e-06
0.000117574
1.79031e-06
0.000117228
2.06215e-06
0.000116848
2.33134e-06
0.000116435
2.59981e-06
0.000115992
2.86943e-06
0.000115521
3.14203e-06
0.000115026
3.41935e-06
0.000114511
3.70294e-06
0.000113979
3.99416e-06
0.000113435
4.294e-06
0.000112887
4.60302e-06
0.00011234
4.9212e-06
0.000111804
5.24776e-06
0.000111289
5.58099e-06
0.000110804
5.91812e-06
0.00011036
6.25516e-06
0.000109967
6.58689e-06
0.000109635
6.90691e-06
0.000109369
7.20789e-06
0.000109171
7.48217e-06
7.72286e-06
0.000109036
2.17246e-05
-3.18633e-06
2.24482e-05
-6.0716e-06
2.34817e-05
-8.42743e-06
2.47856e-05
-1.04387e-05
2.63304e-05
-1.21921e-05
2.80941e-05
-1.3754e-05
3.00639e-05
-1.51852e-05
3.22354e-05
-1.65361e-05
3.46107e-05
-1.78431e-05
3.71954e-05
-1.9126e-05
3.99942e-05
-2.03867e-05
4.30072e-05
-2.16096e-05
4.62267e-05
-2.27659e-05
4.96356e-05
-2.38193e-05
5.3208e-05
-2.47325e-05
5.69109e-05
-2.54731e-05
6.07069e-05
-2.60175e-05
6.4557e-05
-2.6353e-05
6.84229e-05
-2.64772e-05
7.22688e-05
-2.6397e-05
7.60628e-05
-2.61262e-05
7.97776e-05
-2.56838e-05
8.33902e-05
-2.50913e-05
8.68821e-05
-2.43714e-05
9.0239e-05
-2.35467e-05
9.34504e-05
-2.26386e-05
9.65087e-05
-2.1667e-05
9.94094e-05
-2.06495e-05
0.00010215
-1.96018e-05
0.00010473
-1.85373e-05
0.00010715
-1.74677e-05
0.000109413
-1.64025e-05
0.000111522
-1.53495e-05
0.00011348
-1.43153e-05
0.000115293
-1.3305e-05
0.000116965
-1.23225e-05
0.000118501
-1.13709e-05
0.000119907
-1.04524e-05
0.000121188
-9.56848e-06
0.000122349
-8.72008e-06
0.000123396
-7.90766e-06
0.000124334
-7.13128e-06
0.000125169
-6.39067e-06
0.000125904
-5.68529e-06
0.000126546
-5.01436e-06
0.000127098
-4.37695e-06
0.000127566
-3.77193e-06
0.000127953
-3.19808e-06
0.000128264
-2.65406e-06
0.000128503
-2.13842e-06
0.000128673
-1.64964e-06
0.000128778
-1.18612e-06
0.000128821
-7.46197e-07
0.000128807
-3.28143e-07
0.000128737
6.96996e-08
0.000128614
4.4906e-07
0.000128442
8.11887e-07
0.000128223
1.16013e-06
0.00012796
1.49568e-06
0.000127654
1.82045e-06
0.000127309
2.13631e-06
0.000126927
2.44512e-06
0.00012651
2.74866e-06
0.000126062
3.04868e-06
0.000125585
3.3468e-06
0.000125083
3.64451e-06
0.000124559
3.94312e-06
0.000124019
4.24367e-06
0.000123466
4.54692e-06
0.000122907
4.8532e-06
0.000122347
5.16239e-06
0.000121794
5.4738e-06
0.000121256
5.78608e-06
0.000120739
6.09717e-06
0.000120253
6.40428e-06
0.000119803
6.70388e-06
0.000119398
6.99178e-06
0.000119041
7.26334e-06
0.000118735
7.51374e-06
0.000118478
7.73838e-06
7.93372e-06
0.000118266
2.32293e-05
-3.55571e-06
2.3984e-05
-6.82584e-06
2.50676e-05
-9.51029e-06
2.64402e-05
-1.18103e-05
2.80727e-05
-1.38233e-05
2.99447e-05
-1.56245e-05
3.20464e-05
-1.7285e-05
3.43781e-05
-1.88658e-05
3.69483e-05
-2.0411e-05
3.97685e-05
-2.19437e-05
4.28476e-05
-2.34632e-05
4.61866e-05
-2.49459e-05
4.97747e-05
-2.63511e-05
5.35879e-05
-2.76295e-05
5.75911e-05
-2.87325e-05
6.17409e-05
-2.96195e-05
6.59895e-05
-3.02628e-05
7.0289e-05
-3.06491e-05
7.45936e-05
-3.07783e-05
7.88621e-05
-3.06619e-05
8.30587e-05
-3.03192e-05
8.71534e-05
-2.97749e-05
9.11221e-05
-2.90563e-05
9.49459e-05
-2.81915e-05
9.86106e-05
-2.72078e-05
0.000102106
-2.61307e-05
0.000105427
-2.49835e-05
0.000108568
-2.3787e-05
0.000111529
-2.25589e-05
0.00011431
-2.13149e-05
0.000116914
-2.0068e-05
0.000119344
-1.88288e-05
0.000121604
-1.76062e-05
0.000123699
-1.64074e-05
0.000125636
-1.52379e-05
0.000127419
-1.4102e-05
0.000129054
-1.3003e-05
0.000130548
-1.19431e-05
0.000131907
-1.0924e-05
0.000133136
-9.94639e-06
0.000134243
-9.01075e-06
0.000135231
-8.11698e-06
0.000136108
-7.26464e-06
0.000136879
-6.45302e-06
0.000137548
-5.68116e-06
0.000138122
-4.94791e-06
0.000138605
-4.25194e-06
0.000139001
-3.59183e-06
0.000139315
-2.96602e-06
0.000139552
-2.37287e-06
0.000139715
-1.81069e-06
0.000139809
-1.27768e-06
0.000139837
-7.72046e-07
0.000139802
-2.91911e-07
0.000139709
1.64609e-07
0.000139561
5.99408e-07
0.000139359
1.01456e-06
0.000139109
1.4121e-06
0.000138812
1.79401e-06
0.000138471
2.1622e-06
0.00013809
2.51849e-06
0.000137671
2.86465e-06
0.000137218
3.20235e-06
0.000136735
3.53311e-06
0.000136224
3.8583e-06
0.000135689
4.17911e-06
0.000135136
4.49648e-06
0.000134569
4.81105e-06
0.000133993
5.12314e-06
0.000133413
5.43269e-06
0.000132837
5.73921e-06
0.000132268
6.04174e-06
0.000131715
6.33882e-06
0.000131184
6.62855e-06
0.000130679
6.90854e-06
0.000130206
7.17605e-06
0.00012977
7.42808e-06
0.000129371
7.66156e-06
0.000129011
7.87352e-06
0.000128687
8.06144e-06
8.22381e-06
0.000128396
2.48398e-05
-3.94136e-06
2.56294e-05
-7.61495e-06
2.67681e-05
-1.06482e-05
2.8216e-05
-1.3257e-05
2.99451e-05
-1.5551e-05
3.19381e-05
-1.76158e-05
3.41905e-05
-1.95354e-05
3.67105e-05
-2.13836e-05
3.95156e-05
-2.32137e-05
4.26253e-05
-2.50507e-05
4.60525e-05
-2.68876e-05
4.97969e-05
-2.86872e-05
5.38403e-05
-3.03914e-05
5.81474e-05
-3.19333e-05
6.26688e-05
-3.32505e-05
6.73471e-05
-3.42943e-05
7.21219e-05
-3.5034e-05
7.6935e-05
-3.54584e-05
8.17329e-05
-3.55725e-05
8.64694e-05
-3.53945e-05
9.11055e-05
-3.49514e-05
9.56098e-05
-3.42752e-05
9.99578e-05
-3.34004e-05
0.000104131
-3.2361e-05
0.000108117
-3.11897e-05
0.000111907
-2.99165e-05
0.000115496
-2.85683e-05
0.000118882
-2.71688e-05
0.000122065
-2.57384e-05
0.000125048
-2.42944e-05
0.000127836
-2.28511e-05
0.000130431
-2.14205e-05
0.000132841
-2.00121e-05
0.000135071
-1.86337e-05
0.000137128
-1.72912e-05
0.000139019
-1.59891e-05
0.00014075
-1.47308e-05
0.00014233
-1.35186e-05
0.000143763
-1.23539e-05
0.000145058
-1.12376e-05
0.00014622
-1.01697e-05
0.000147257
-9.15019e-06
0.000148173
-8.17825e-06
0.000148977
-7.25301e-06
0.000149672
-6.37325e-06
0.000150264
-5.53761e-06
0.00015076
-4.74454e-06
0.000151163
-3.99236e-06
0.000151479
-3.27933e-06
0.000151712
-2.60359e-06
0.000151867
-1.96324e-06
0.000151948
-1.35635e-06
0.000151959
-7.80951e-07
0.000151905
-2.35051e-07
0.000151788
2.83458e-07
0.000151612
7.76645e-07
0.000151382
1.2467e-06
0.0001511
1.69572e-06
0.000150769
2.12571e-06
0.000150394
2.53856e-06
0.000149978
2.93604e-06
0.000149524
3.31983e-06
0.000149035
3.69143e-06
0.000148517
4.0522e-06
0.000147973
4.4033e-06
0.000147407
4.74565e-06
0.000146824
5.07995e-06
0.000146228
5.40658e-06
0.000145626
5.72564e-06
0.000145022
6.03688e-06
0.000144421
6.33973e-06
0.00014383
6.63326e-06
0.000143252
6.91623e-06
0.000142693
7.18711e-06
0.000142157
7.44415e-06
0.000141648
7.68544e-06
0.000141166
7.90907e-06
0.000140714
8.11319e-06
0.000140291
8.29621e-06
0.000139895
8.45693e-06
8.59504e-06
0.000139523
2.65634e-05
-4.34608e-06
2.73925e-05
-8.4436e-06
2.85926e-05
-1.18474e-05
3.01243e-05
-1.47875e-05
3.1962e-05
-1.73872e-05
3.40937e-05
-1.97456e-05
3.65238e-05
-2.19634e-05
3.92726e-05
-2.41301e-05
4.237e-05
-2.63084e-05
4.58443e-05
-2.85222e-05
4.97108e-05
-3.0751e-05
5.39626e-05
-3.29358e-05
5.85678e-05
-3.49931e-05
6.34724e-05
-3.68344e-05
6.86081e-05
-3.83825e-05
7.38997e-05
-3.9582e-05
7.92728e-05
-4.04032e-05
8.46586e-05
-4.08402e-05
8.99971e-05
-4.09069e-05
9.5238e-05
-4.06312e-05
0.000100341
-4.00499e-05
0.000105274
-3.92043e-05
0.000110015
-3.81366e-05
0.000114546
-3.68878e-05
0.000118857
-3.54963e-05
0.000122941
-3.39967e-05
0.000126797
-3.24197e-05
0.000130424
-3.07917e-05
0.000133826
-2.91354e-05
0.000137005
-2.74699e-05
0.000139969
-2.58107e-05
0.000142724
-2.41708e-05
0.000145276
-2.25603e-05
0.000147634
-2.09874e-05
0.000149805
-1.94582e-05
0.000151797
-1.79773e-05
0.000153619
-1.65481e-05
0.000155277
-1.51728e-05
0.000156779
-1.38527e-05
0.000158134
-1.25884e-05
0.000159348
-1.13798e-05
0.000160428
-1.02265e-05
0.00016138
-9.12749e-06
0.000162213
-8.08163e-06
0.00016293
-7.08745e-06
0.000163539
-6.1433e-06
0.000164045
-5.24737e-06
0.000164453
-4.39775e-06
0.000164769
-3.59244e-06
0.000164998
-2.82941e-06
0.000165144
-2.10655e-06
0.000165212
-1.42175e-06
0.000165206
-7.72903e-07
0.000165131
-1.5791e-07
0.000164991
4.25557e-07
0.00016479
9.79751e-07
0.000164532
1.50696e-06
0.00016422
2.00933e-06
0.000163859
2.48885e-06
0.000163451
2.94739e-06
0.000163002
3.38667e-06
0.000162515
3.80828e-06
0.000161993
4.21361e-06
0.000161443
4.60387e-06
0.000160867
4.98008e-06
0.00016027
5.34302e-06
0.000159657
5.69323e-06
0.000159033
6.03102e-06
0.000158403
6.35641e-06
0.000157771
6.66918e-06
0.000157142
6.96887e-06
0.00015652
7.25478e-06
0.00015591
7.52604e-06
0.000155315
7.78162e-06
0.000154739
8.02041e-06
0.000154183
8.24129e-06
0.000153648
8.44322e-06
0.000153136
8.62529e-06
0.000152645
8.78684e-06
0.000152173
8.92755e-06
9.04782e-06
0.00015172
2.84077e-05
-4.77302e-06
2.92822e-05
-9.31747e-06
3.05516e-05
-1.3116e-05
3.21783e-05
-1.64128e-05
3.4141e-05
-1.93482e-05
3.64368e-05
-2.20393e-05
3.9084e-05
-2.46083e-05
4.21203e-05
-2.71637e-05
4.5591e-05
-2.97762e-05
4.95325e-05
-3.24606e-05
5.39566e-05
-3.51717e-05
5.8841e-05
-3.78166e-05
6.41305e-05
-4.02788e-05
6.97452e-05
-4.24452e-05
7.55924e-05
-4.42256e-05
8.15775e-05
-4.55628e-05
8.76119e-05
-4.64332e-05
9.36179e-05
-4.68418e-05
9.95307e-05
-4.68152e-05
0.000105299
-4.63944e-05
0.000110881
-4.56281e-05
0.00011625
-4.4568e-05
0.000121383
-4.32653e-05
0.000126268
-4.17681e-05
0.000130897
-4.01206e-05
0.000135267
-3.8362e-05
0.000139379
-3.65265e-05
0.000143235
-3.46433e-05
0.000146842
-3.27372e-05
0.000150205
-3.08284e-05
0.000153333
-2.89339e-05
0.000156234
-2.7067e-05
0.000158917
-2.52384e-05
0.00016139
-2.34565e-05
0.000163664
-2.17275e-05
0.000165747
-2.00559e-05
0.000167648
-1.84449e-05
0.000169376
-1.68966e-05
0.00017094
-1.54119e-05
0.000172347
-1.39912e-05
0.000173605
-1.2634e-05
0.000174722
-1.13397e-05
0.000175706
-1.0107e-05
0.000176562
-8.93425e-06
0.000177298
-7.81981e-06
0.00017792
-6.7617e-06
0.000178434
-5.75783e-06
0.000178846
-4.80603e-06
0.00017916
-3.90407e-06
0.000179384
-3.04966e-06
0.000179521
-2.24051e-06
0.000179576
-1.47434e-06
0.000179555
-7.48888e-07
0.000179461
-6.19743e-08
0.0001793
5.88923e-07
0.000179076
1.20631e-06
0.000178793
1.79253e-06
0.000178454
2.34974e-06
0.000178065
2.87994e-06
0.000177629
3.38498e-06
0.000177151
3.86655e-06
0.000176634
4.32617e-06
0.000176084
4.76517e-06
0.000175504
5.18469e-06
0.000174899
5.58568e-06
0.000174274
5.96888e-06
0.000173633
6.33481e-06
0.000172981
6.68379e-06
0.000172322
7.01595e-06
0.00017166
7.33122e-06
0.000171
7.62937e-06
0.000170345
7.91005e-06
0.000169698
8.1728e-06
0.000169063
8.4171e-06
0.00016844
8.64245e-06
0.000167833
8.84837e-06
0.000167242
9.03451e-06
0.000166666
9.20064e-06
0.000166106
9.34673e-06
0.00016556
9.47304e-06
9.5804e-06
0.000165027
3.03812e-05
-5.22581e-06
3.13079e-05
-1.02436e-05
3.26571e-05
-1.44641e-05
3.43939e-05
-1.81482e-05
3.65049e-05
-2.14574e-05
3.90017e-05
-2.45339e-05
4.19239e-05
-2.75279e-05
4.5332e-05
-3.0569e-05
4.92883e-05
-3.37293e-05
5.38318e-05
-3.70006e-05
5.89595e-05
-4.02957e-05
6.46207e-05
-4.34739e-05
7.07258e-05
-4.63798e-05
7.71618e-05
-4.88769e-05
8.38091e-05
-5.08684e-05
9.05538e-05
-5.23029e-05
9.72957e-05
-5.31703e-05
0.000103951
-5.34924e-05
0.000110454
-5.33131e-05
0.000116754
-5.2689e-05
0.000122813
-5.16826e-05
0.000128607
-5.03569e-05
0.00013412
-4.87723e-05
0.000139341
-4.69845e-05
0.000144269
-4.5043e-05
0.000148904
-4.29915e-05
0.00015325
-4.08674e-05
0.000157314
-3.87022e-05
0.000161104
-3.65222e-05
0.00016463
-3.43491e-05
0.000167901
-3.22004e-05
0.000170929
-3.00898e-05
0.000173724
-2.80282e-05
0.000176297
-2.6024e-05
0.000178657
-2.40832e-05
0.000180816
-2.22101e-05
0.000182784
-2.04076e-05
0.000184569
-1.86774e-05
0.000186182
-1.70202e-05
0.000187631
-1.54357e-05
0.000188925
-1.39234e-05
0.000190072
-1.2482e-05
0.000191079
-1.11098e-05
0.000191954
-9.805e-06
0.000192703
-8.56548e-06
0.000193335
-7.38893e-06
0.000193854
-6.27299e-06
0.000194266
-5.21519e-06
0.000194579
-4.21303e-06
0.000194797
-3.264e-06
0.000194925
-2.36561e-06
0.000194969
-1.5154e-06
0.000194934
-7.1094e-07
0.000194825
5.01129e-08
0.000194646
7.70426e-07
0.000194402
1.45268e-06
0.000194098
2.09928e-06
0.000193738
2.71243e-06
0.000193325
3.29413e-06
0.000192866
3.84625e-06
0.000192364
4.37047e-06
0.000191823
4.8683e-06
0.000191249
5.34106e-06
0.000190645
5.7899e-06
0.000190016