/*--------------------------------*- C++ -*----------------------------------*\
  =========                 |
  \\      /  F ield         | OpenFOAM: The Open Source CFD Toolbox
   \\    /   O peration     | Website:  https://openfoam.org
    \\  /    A nd           | Version:  7
     \\/     M anipulation  |
\*---------------------------------------------------------------------------*/
FoamFile
{
    version     2.0;
    format      ascii;
    class       surfaceScalarField;
    location    "6";
    object      phi;
}
// * * * * * * * * * * * * * * * * * * * * * * * * * * * * * * * * * * * * * //

dimensions      [1 0 -1 0 0 0 0];

internalField   nonuniform List<scalar> 
23692
(
1.18903e-05
-2.55637e-07
1.23327e-05
-4.42101e-07
1.2933e-05
-5.99806e-07
1.36678e-05
-7.34012e-07
1.45201e-05
-8.51319e-07
1.54774e-05
-9.56241e-07
1.65307e-05
-1.05199e-06
1.7673e-05
-1.14086e-06
1.8899e-05
-1.22429e-06
2.02036e-05
-1.30292e-06
2.15822e-05
-1.37669e-06
2.30292e-05
-1.44494e-06
2.4538e-05
-1.50666e-06
2.61008e-05
-1.5606e-06
2.77087e-05
-1.60555e-06
2.93515e-05
-1.64045e-06
3.10185e-05
-1.66454e-06
3.26985e-05
-1.67745e-06
3.43802e-05
-1.67913e-06
3.60527e-05
-1.66992e-06
3.77058e-05
-1.65044e-06
3.933e-05
-1.62154e-06
4.0917e-05
-1.58424e-06
4.24593e-05
-1.53963e-06
4.39508e-05
-1.48885e-06
4.53866e-05
-1.43303e-06
4.67625e-05
-1.37323e-06
4.80757e-05
-1.31046e-06
4.9324e-05
-1.24564e-06
5.05062e-05
-1.17957e-06
5.16218e-05
-1.11299e-06
5.26709e-05
-1.0465e-06
5.3654e-05
-9.80647e-07
5.45724e-05
-9.1587e-07
5.54274e-05
-8.52537e-07
5.62207e-05
-7.90949e-07
5.69543e-05
-7.31341e-07
5.76305e-05
-6.73896e-07
5.82514e-05
-6.1875e-07
5.88194e-05
-5.65995e-07
5.93371e-05
-5.1569e-07
5.98069e-05
-4.67863e-07
6.02312e-05
-4.22515e-07
6.06125e-05
-3.79623e-07
6.09532e-05
-3.39146e-07
6.12556e-05
-3.01023e-07
6.15221e-05
-2.6518e-07
6.17548e-05
-2.31527e-07
6.19558e-05
-1.99963e-07
6.21271e-05
-1.70373e-07
6.22704e-05
-1.42631e-07
6.23876e-05
-1.16603e-07
6.24802e-05
-9.21411e-08
6.25495e-05
-6.9087e-08
6.25969e-05
-4.7272e-08
6.26233e-05
-2.6516e-08
6.26297e-05
-6.62742e-09
6.26167e-05
1.25931e-08
6.25848e-05
3.13639e-08
6.25341e-05
4.99299e-08
6.24647e-05
6.85674e-08
6.2376e-05
8.75871e-08
6.22675e-05
1.07341e-07
6.21379e-05
1.28232e-07
6.19856e-05
1.50733e-07
6.18086e-05
1.75407e-07
6.16039e-05
2.02938e-07
6.13678e-05
2.34178e-07
6.10956e-05
2.7022e-07
6.0781e-05
3.12507e-07
6.04158e-05
3.63006e-07
5.99891e-05
4.24498e-07
5.94857e-05
5.01074e-07
5.88844e-05
5.99003e-07
5.81537e-05
7.28346e-07
5.72453e-05
9.06031e-07
5.6081e-05
1.16198e-06
5.45264e-05
1.55226e-06
5.2331e-05
2.19313e-06
4.89541e-05
3.37466e-06
6.34093e-06
4.2611e-05
1.27145e-05
-5.21419e-07
1.3185e-05
-9.12197e-07
1.38251e-05
-1.2394e-06
1.46093e-05
-1.51735e-06
1.55194e-05
-1.76045e-06
1.65422e-05
-1.97788e-06
1.76679e-05
-2.17629e-06
1.88891e-05
-2.36049e-06
2.02e-05
-2.53345e-06
2.15955e-05
-2.69652e-06
2.30704e-05
-2.84955e-06
2.46189e-05
-2.99123e-06
2.62339e-05
-3.11938e-06
2.79071e-05
-3.23146e-06
2.9629e-05
-3.32492e-06
3.13887e-05
-3.39755e-06
3.31745e-05
-3.44779e-06
3.49746e-05
-3.47479e-06
3.67767e-05
-3.47851e-06
3.85692e-05
-3.45961e-06
4.0341e-05
-3.41939e-06
4.20819e-05
-3.35962e-06
4.3783e-05
-3.28239e-06
4.54362e-05
-3.18999e-06
4.7035e-05
-3.08478e-06
4.8574e-05
-2.96909e-06
5.00488e-05
-2.84515e-06
5.14563e-05
-2.71505e-06
5.27942e-05
-2.58067e-06
5.40612e-05
-2.44372e-06
5.52567e-05
-2.30569e-06
5.63808e-05
-2.16786e-06
5.74342e-05
-2.03133e-06
5.8418e-05
-1.89704e-06
5.93338e-05
-1.76574e-06
6.01835e-05
-1.63805e-06
6.09691e-05
-1.51447e-06
6.16929e-05
-1.39536e-06
6.23575e-05
-1.28101e-06
6.29653e-05
-1.17162e-06
6.3519e-05
-1.06729e-06
6.40213e-05
-9.68093e-07
6.44747e-05
-8.74022e-07
6.48819e-05
-7.85032e-07
6.52455e-05
-7.01034e-07
6.55679e-05
-6.21904e-07
6.58516e-05
-5.47484e-07
6.60989e-05
-4.77589e-07
6.63121e-05
-4.12007e-07
6.64931e-05
-3.50501e-07
6.66441e-05
-2.92812e-07
6.67668e-05
-2.38656e-07
6.68628e-05
-1.8773e-07
6.69337e-05
-1.39707e-07
6.69808e-05
-9.42371e-08
6.70052e-05
-5.09479e-08
6.70077e-05
-9.44563e-09
6.69892e-05
3.06786e-08
6.69501e-05
6.98716e-08
6.68906e-05
1.08635e-07
6.68107e-05
1.47533e-07
6.671e-05
1.87196e-07
6.65877e-05
2.28338e-07
6.64427e-05
2.71772e-07
6.62733e-05
3.18447e-07
6.60775e-05
3.69481e-07
6.58523e-05
4.26228e-07
6.55941e-05
4.90357e-07
6.52982e-05
5.63983e-07
6.49587e-05
6.49855e-07
6.45677e-05
7.51656e-07
6.41153e-05
8.74462e-07
6.35885e-05
1.02551e-06
6.29695e-05
1.21543e-06
6.2235e-05
1.46039e-06
6.13528e-05
1.78571e-06
6.02801e-05
2.23209e-06
5.89635e-05
2.86643e-06
5.73508e-05
3.80332e-06
5.54804e-05
5.24276e-06
7.44887e-06
5.43701e-05
1.35931e-05
-7.94935e-07
1.40902e-05
-1.40891e-06
1.47694e-05
-1.91802e-06
1.56037e-05
-2.35074e-06
1.65734e-05
-2.72912e-06
1.76643e-05
-3.06749e-06
1.88658e-05
-3.37629e-06
2.017e-05
-3.66304e-06
2.15709e-05
-3.93242e-06
2.30629e-05
-4.18653e-06
2.46407e-05
-4.42516e-06
2.6298e-05
-4.64625e-06
2.80275e-05
-4.84641e-06
2.98202e-05
-5.02164e-06
3.16659e-05
-5.16791e-06
3.35529e-05
-5.28177e-06
3.54686e-05
-5.36073e-06
3.74002e-05
-5.40345e-06
3.93344e-05
-5.40983e-06
4.12587e-05
-5.38091e-06
4.31611e-05
-5.31871e-06
4.50305e-05
-5.22596e-06
4.68572e-05
-5.10596e-06
4.86325e-05
-4.96227e-06
5.03494e-05
-4.79858e-06
5.2002e-05
-4.61854e-06
5.35856e-05
-4.42562e-06
5.50967e-05
-4.22308e-06
5.65329e-05
-4.01387e-06
5.78929e-05
-3.80064e-06
5.91759e-05
-3.58571e-06
6.03821e-05
-3.37111e-06
6.15122e-05
-3.15854e-06
6.25674e-05
-2.94943e-06
6.35495e-05
-2.74499e-06
6.44603e-05
-2.54616e-06
6.53022e-05
-2.35372e-06
6.60777e-05
-2.16824e-06
6.67893e-05
-1.99015e-06
6.74398e-05
-1.81976e-06
6.8032e-05
-1.65725e-06
6.85688e-05
-1.5027e-06
6.90529e-05
-1.35611e-06
6.94872e-05
-1.2174e-06
6.98744e-05
-1.08644e-06
7.02172e-05
-9.63027e-07
7.05181e-05
-8.46915e-07
7.07797e-05
-7.37813e-07
7.10043e-05
-6.3539e-07
7.1194e-05
-5.39278e-07
7.13512e-05
-4.49071e-07
7.14775e-05
-3.6433e-07
7.15748e-05
-2.84582e-07
7.16448e-05
-2.0932e-07
7.16887e-05
-1.38003e-07
7.17077e-05
-7.00559e-08
7.17029e-05
-4.87452e-09
7.16749e-05
5.81606e-08
7.16244e-05
1.19736e-07
7.15516e-05
1.80617e-07
7.14564e-05
2.41659e-07
7.13386e-05
3.03812e-07
7.11974e-05
3.68141e-07
7.10318e-05
4.35855e-07
7.08402e-05
5.08348e-07
7.06205e-05
5.87247e-07
7.03702e-05
6.74496e-07
7.0086e-05
7.72454e-07
6.97636e-05
8.84051e-07
6.93981e-05
1.013e-06
6.89832e-05
1.16414e-06
6.85112e-05
1.34387e-06
6.79732e-05
1.56087e-06
6.73588e-05
1.82716e-06
6.66569e-05
2.15955e-06
6.58582e-05
2.58174e-06
6.49606e-05
3.12696e-06
6.39838e-05
3.84062e-06
6.30036e-05
4.78091e-06
6.22383e-05
6.00542e-06
7.4951e-06
6.21896e-05
1.45312e-05
-1.07493e-06
1.50532e-05
-1.93055e-06
1.5771e-05
-2.6351e-06
1.66558e-05
-3.23471e-06
1.76868e-05
-3.7589e-06
1.88483e-05
-4.22762e-06
2.01291e-05
-4.65546e-06
2.15207e-05
-5.0529e-06
2.30168e-05
-5.42651e-06
2.46117e-05
-5.77923e-06
2.62997e-05
-6.11082e-06
2.80743e-05
-6.41838e-06
2.99277e-05
-6.69719e-06
3.18504e-05
-6.94161e-06
3.38313e-05
-7.14598e-06
3.58579e-05
-7.30542e-06
3.79166e-05
-7.41639e-06
3.99932e-05
-7.47698e-06
4.20736e-05
-7.48702e-06
4.41438e-05
-7.44791e-06
4.61908e-05
-7.36246e-06
4.82026e-05
-7.23448e-06
5.01685e-05
-7.06855e-06
5.20792e-05
-6.86966e-06
5.39268e-05
-6.64292e-06
5.57051e-05
-6.39344e-06
5.74088e-05
-6.12605e-06
5.90343e-05
-5.84529e-06
6.0579e-05
-5.55526e-06
6.20413e-05
-5.25966e-06
6.34205e-05
-4.96171e-06
6.47167e-05
-4.6642e-06
6.59308e-05
-4.36952e-06
6.70641e-05
-4.07965e-06
6.81184e-05
-3.79624e-06
6.90957e-05
-3.52062e-06
6.99987e-05
-3.25384e-06
7.08299e-05
-2.9967e-06
7.15922e-05
-2.7498e-06
7.22885e-05
-2.51354e-06
7.29219e-05
-2.28817e-06
7.34953e-05
-2.07381e-06
7.40119e-05
-1.87044e-06
7.44745e-05
-1.67796e-06
7.48861e-05
-1.49617e-06
7.52496e-05
-1.32479e-06
7.55678e-05
-1.16347e-06
7.58433e-05
-1.01182e-06
7.60785e-05
-8.69367e-07
7.62759e-05
-7.35602e-07
7.64378e-05
-6.09965e-07
7.6566e-05
-4.91848e-07
7.66625e-05
-3.80599e-07
7.67291e-05
-2.75522e-07
7.67671e-05
-1.75874e-07
7.67778e-05
-8.08663e-08
7.67624e-05
1.03118e-08
7.67216e-05
9.84871e-08
7.6656e-05
1.84596e-07
7.65661e-05
2.69665e-07
7.64518e-05
3.54834e-07
7.6313e-05
4.41352e-07
7.61491e-05
5.30611e-07
7.59591e-05
6.2417e-07
7.57418e-05
7.23802e-07
7.54955e-05
8.31547e-07
7.5218e-05
9.4979e-07
7.49068e-05
1.08136e-06
7.45588e-05
1.22968e-06
7.41703e-05
1.39894e-06
7.37375e-05
1.59433e-06
7.32562e-05
1.82244e-06
7.27227e-05
2.09158e-06
7.21346e-05
2.41234e-06
7.14932e-05
2.7981e-06
7.08068e-05
3.26527e-06
7.00979e-05
3.83297e-06
6.94147e-05
4.52099e-06
6.88487e-05
5.344e-06
6.85537e-05
6.29769e-06
7.32514e-06
6.8721e-05
1.55337e-05
-1.36092e-06
1.60795e-05
-2.47594e-06
1.68354e-05
-3.39027e-06
1.77715e-05
-4.1698e-06
1.88652e-05
-4.85142e-06
2.01e-05
-5.46094e-06
2.14638e-05
-6.01748e-06
2.29476e-05
-6.53481e-06
2.45448e-05
-7.02159e-06
2.62497e-05
-7.48173e-06
2.80563e-05
-7.91494e-06
2.9958e-05
-8.31742e-06
3.19465e-05
-8.68294e-06
3.40119e-05
-9.00398e-06
3.61419e-05
-9.27301e-06
3.83232e-05
-9.4835e-06
4.05407e-05
-9.63069e-06
4.2779e-05
-9.71198e-06
4.50225e-05
-9.72706e-06
4.72558e-05
-9.67776e-06
4.94645e-05
-9.56771e-06
5.16355e-05
-9.40195e-06
5.37569e-05
-9.18647e-06
5.58187e-05
-8.92782e-06
5.78121e-05
-8.63276e-06
5.97301e-05
-8.30794e-06
6.15674e-05
-7.95974e-06
6.33197e-05
-7.59409e-06
6.49844e-05
-7.21637e-06
6.65596e-05
-6.8314e-06
6.80447e-05
-6.4434e-06
6.94399e-05
-6.056e-06
7.07461e-05
-5.67231e-06
7.19646e-05
-5.29492e-06
7.30975e-05
-4.92597e-06
7.41472e-05
-4.56716e-06
7.51163e-05
-4.21987e-06
7.60077e-05
-3.88513e-06
7.68244e-05
-3.56369e-06
7.75697e-05
-3.2561e-06
7.82468e-05
-2.96265e-06
7.8859e-05
-2.68348e-06
7.94095e-05
-2.41857e-06
7.99015e-05
-2.16778e-06
8.03382e-05
-1.93083e-06
8.07227e-05
-1.70736e-06
8.10579e-05
-1.49693e-06
8.13466e-05
-1.29899e-06
8.15916e-05
-1.11294e-06
8.17953e-05
-9.38123e-07
8.19601e-05
-7.73809e-07
8.20883e-05
-6.19211e-07
8.21817e-05
-4.73489e-07
8.22423e-05
-3.35748e-07
8.22716e-05
-2.05035e-07
8.22711e-05
-8.03486e-08
8.22418e-05
3.93221e-08
8.21847e-05
1.55011e-07
8.21007e-05
2.67894e-07
8.19902e-05
3.79258e-07
8.18534e-05
4.90501e-07
8.16902e-05
6.0314e-07
8.15004e-05
7.1884e-07
8.12834e-05
8.3944e-07
8.10382e-05
9.66993e-07
8.07639e-05
1.10381e-06
8.04588e-05
1.25251e-06
8.01216e-05
1.41614e-06
7.97505e-05
1.5982e-06
7.9344e-05
1.8028e-06
7.89007e-05
2.03478e-06
7.84204e-05
2.29984e-06
7.79044e-05
2.6046e-06
7.73571e-05
2.95662e-06
7.67879e-05
3.36418e-06
7.62145e-05
3.83559e-06
7.56667e-05
4.37771e-06
7.51913e-05
4.99329e-06
7.4856e-05
5.67632e-06
7.47459e-05
6.40482e-06
7.12921e-06
7.49389e-05
1.66059e-05
-1.65311e-06
1.7175e-05
-3.04451e-06
1.7969e-05
-4.18358e-06
1.89571e-05
-5.15685e-06
2.01156e-05
-6.00855e-06
2.14267e-05
-6.77041e-06
2.28775e-05
-7.46649e-06
2.44589e-05
-8.11417e-06
2.61641e-05
-8.72444e-06
2.79872e-05
-9.30235e-06
2.99225e-05
-9.84757e-06
3.19632e-05
-1.03553e-05
3.41007e-05
-1.08174e-05
3.63243e-05
-1.12244e-05
3.86208e-05
-1.15663e-05
4.09755e-05
-1.18348e-05
4.33718e-05
-1.20235e-05
4.57926e-05
-1.21291e-05
4.82202e-05
-1.21511e-05
5.06378e-05
-1.20916e-05
5.30292e-05
-1.19554e-05
5.53798e-05
-1.17488e-05
5.76765e-05
-1.14794e-05
5.9908e-05
-1.11555e-05
6.20649e-05
-1.07858e-05
6.41394e-05
-1.03786e-05
6.61256e-05
-9.94212e-06
6.8019e-05
-9.48373e-06
6.98167e-05
-9.01026e-06
7.15168e-05
-8.52779e-06
7.31187e-05
-8.04159e-06
7.46226e-05
-7.55625e-06
7.60295e-05
-7.07565e-06
7.73412e-05
-6.60301e-06
7.85596e-05
-6.141e-06
7.96876e-05
-5.69176e-06
8.0728e-05
-5.25698e-06
8.1684e-05
-4.83792e-06
8.25589e-05
-4.43554e-06
8.33562e-05
-4.05046e-06
8.40794e-05
-3.68307e-06
8.47321e-05
-3.3335e-06
8.53178e-05
-3.00173e-06
8.584e-05
-2.68756e-06
8.6302e-05
-2.39064e-06
8.67072e-05
-2.11051e-06
8.70587e-05
-1.84659e-06
8.73597e-05
-1.59821e-06
8.76128e-05
-1.36463e-06
8.7821e-05
-1.145e-06
8.79867e-05
-9.38435e-07
8.81123e-05
-7.43949e-07
8.82e-05
-5.60507e-07
8.82516e-05
-3.87007e-07
8.82691e-05
-2.22286e-07
8.82538e-05
-6.51391e-08
8.82072e-05
8.56344e-08
8.81304e-05
2.31267e-07
8.80244e-05
3.73175e-07
8.78898e-05
5.12878e-07
8.77271e-05
6.51998e-07
8.75365e-05
7.92269e-07
8.73181e-05
9.35559e-07
8.70718e-05
1.08389e-06
8.67972e-05
1.23948e-06
8.64941e-05
1.40473e-06
8.61618e-05
1.58229e-06
8.58003e-05
1.77511e-06
8.54093e-05
1.98642e-06
8.49894e-05
2.2198e-06
8.45421e-05
2.47915e-06
8.40701e-05
2.76866e-06
8.35789e-05
3.09265e-06
8.3077e-05
3.45531e-06
8.25778e-05
3.86014e-06
8.21009e-05
4.30912e-06
8.1674e-05
4.80134e-06
8.13328e-05
5.33121e-06
8.11199e-05
5.88603e-06
8.10781e-05
6.44336e-06
6.96891e-06
8.12353e-05
1.77531e-05
-1.95226e-06
1.83455e-05
-3.63641e-06
1.91785e-05
-5.01571e-06
2.022e-05
-6.19726e-06
2.14456e-05
-7.23268e-06
2.28365e-05
-8.1596e-06
2.43793e-05
-9.00736e-06
2.60647e-05
-9.79733e-06
2.78859e-05
-1.05432e-05
2.98374e-05
-1.12512e-05
3.19139e-05
-1.19211e-05
3.41084e-05
-1.25468e-05
3.64123e-05
-1.31181e-05
3.8814e-05
-1.36226e-05
4.12992e-05
-1.4048e-05
4.38512e-05
-1.43832e-05
4.64516e-05
-1.46202e-05
4.90809e-05
-1.47546e-05
5.17192e-05
-1.47855e-05
5.43474e-05
-1.47158e-05
5.69472e-05
-1.45512e-05
5.95022e-05
-1.42997e-05
6.19978e-05
-1.39708e-05
6.44213e-05
-1.35749e-05
6.67624e-05
-1.31227e-05
6.90126e-05
-1.26247e-05
7.11654e-05
-1.20908e-05
7.3216e-05
-1.15303e-05
7.51613e-05
-1.09515e-05
7.69995e-05
-1.0362e-05
7.873e-05
-9.76806e-06
8.03531e-05
-9.17543e-06
8.18701e-05
-8.58877e-06
8.32829e-05
-8.01202e-06
8.4594e-05
-7.44839e-06
8.58063e-05
-6.90047e-06
8.69231e-05
-6.37027e-06
8.79479e-05
-5.85934e-06
8.88844e-05
-5.36877e-06
8.97365e-05
-4.89932e-06
9.05079e-05
-4.45141e-06
9.12025e-05
-4.02521e-06
9.18241e-05
-3.62065e-06
9.23766e-05
-3.23747e-06
9.28636e-05
-2.87523e-06
9.32886e-05
-2.53335e-06
9.36552e-05
-2.21114e-06
9.39666e-05
-1.90775e-06
9.42259e-05
-1.62229e-06
9.4436e-05
-1.35375e-06
9.45997e-05
-1.10102e-06
9.47197e-05
-8.62943e-07
9.47982e-05
-6.38277e-07
9.48373e-05
-4.25707e-07
9.48391e-05
-2.23854e-07
9.48053e-05
-3.13553e-08
9.47375e-05
1.53166e-07
9.4637e-05
3.3117e-07
9.45051e-05
5.04289e-07
9.43427e-05
6.74239e-07
9.41507e-05
8.42812e-07
9.39295e-05
1.0119e-06
9.36798e-05
1.18349e-06
9.34021e-05
1.35968e-06
9.30967e-05
1.54271e-06
9.27641e-05
1.73492e-06
9.2405e-05
1.93879e-06
9.20204e-05
2.15692e-06
9.16119e-05
2.39201e-06
9.11819e-05
2.64679e-06
9.07339e-05
2.92396e-06
9.02732e-05
3.22605e-06
8.98073e-05
3.55513e-06
8.93467e-05
3.91251e-06
8.89051e-05
4.29823e-06
8.85004e-05
4.71037e-06
8.81539e-05
5.14431e-06
8.78898e-05
5.59179e-06
8.77322e-05
6.04013e-06
8.77003e-05
6.4719e-06
6.86583e-06
8.78e-05
1.8981e-05
-2.25959e-06
1.95976e-05
-4.25248e-06
2.04708e-05
-5.88806e-06
2.15679e-05
-7.29313e-06
2.28636e-05
-8.52692e-06
2.43388e-05
-9.6329e-06
2.59795e-05
-1.0646e-05
2.77766e-05
-1.1592e-05
2.97239e-05
-1.24878e-05
3.18166e-05
-1.3341e-05
3.40499e-05
-1.41513e-05
3.64175e-05
-1.49111e-05
3.89104e-05
-1.56074e-05
4.1516e-05
-1.62246e-05
4.42185e-05
-1.67467e-05
4.69988e-05
-1.71596e-05
4.98357e-05
-1.74531e-05
5.27065e-05
-1.76213e-05
5.55886e-05
-1.76634e-05
5.84597e-05
-1.75826e-05
6.12991e-05
-1.73863e-05
6.40882e-05
-1.70844e-05
6.68104e-05
-1.66887e-05
6.94518e-05
-1.62119e-05
7.20009e-05
-1.56674e-05
7.44484e-05
-1.50678e-05
7.67875e-05
-1.44254e-05
7.9013e-05
-1.37514e-05
8.11218e-05
-1.30559e-05
8.31121e-05
-1.23479e-05
8.49835e-05
-1.16352e-05
8.67366e-05
-1.09244e-05
8.83731e-05
-1.02211e-05
8.98952e-05
-9.53005e-06
9.13058e-05
-8.85503e-06
9.26083e-05
-8.19906e-06
9.38064e-05
-7.56452e-06
9.49039e-05
-6.95319e-06
9.5905e-05
-6.36633e-06
9.6814e-05
-5.80481e-06
9.76349e-05
-5.26908e-06
9.83721e-05
-4.75932e-06
9.90298e-05
-4.27539e-06
9.96121e-05
-3.81698e-06
0.000100123
-3.38352e-06
0.000100566
-2.97432e-06
0.000100946
-2.58851e-06
0.000101265
-2.22512e-06
0.000101528
-1.88305e-06
0.000101737
-1.56111e-06
0.000101895
-1.258e-06
0.000102005
-9.7236e-07
0.000102071
-7.02737e-07
0.000102093
-4.47606e-07
0.000102075
-2.05372e-07
0.000102018
2.54387e-08
0.000101925
2.4635e-07
0.000101796
4.59107e-07
0.000101634
6.65509e-07
0.00010144
8.67417e-07
0.000101215
1.06674e-06
0.000100959
1.26546e-06
0.000100676
1.46559e-06
0.000100364
1.66923e-06
0.000100026
1.87849e-06
9.96627e-05
2.09551e-06
9.92763e-05
2.32246e-06
9.88689e-05
2.56144e-06
9.84433e-05
2.81447e-06
9.80035e-05
3.08335e-06
9.75545e-05
3.3696e-06
9.71029e-05
3.67424e-06
9.66568e-05
3.99759e-06
9.62267e-05
4.33899e-06
9.58248e-05
4.69644e-06
9.54652e-05
5.06627e-06
9.5163e-05
5.44281e-06
9.49329e-05
5.81811e-06
9.47874e-05
6.18198e-06
9.47332e-05
6.5224e-06
6.82688e-06
9.47686e-05
2.02952e-05
-2.57669e-06
2.09375e-05
-4.89423e-06
2.18533e-05
-6.80283e-06
2.30089e-05
-8.44747e-06
2.4379e-05
-9.89536e-06
2.59438e-05
-1.11958e-05
2.76898e-05
-1.23897e-05
2.96084e-05
-1.3508e-05
3.16944e-05
-1.4571e-05
3.39447e-05
-1.55882e-05
3.63557e-05
-1.6559e-05
3.89217e-05
-1.74736e-05
4.16334e-05
-1.83154e-05
4.44771e-05
-1.90644e-05
4.74343e-05
-1.96998e-05
5.04827e-05
-2.02038e-05
5.35971e-05
-2.05632e-05
5.67509e-05
-2.07707e-05
5.99173e-05
-2.08252e-05
6.30704e-05
-2.07312e-05
6.61864e-05
-2.04977e-05
6.9244e-05
-2.01373e-05
7.22246e-05
-1.96646e-05
7.51128e-05
-1.90954e-05
7.7896e-05
-1.84458e-05
8.05644e-05
-1.77314e-05
8.31105e-05
-1.69668e-05
8.55294e-05
-1.61656e-05
8.78179e-05
-1.53397e-05
8.99745e-05
-1.44999e-05
9.19992e-05
-1.36552e-05
9.3893e-05
-1.28136e-05
9.5658e-05
-1.19817e-05
9.72971e-05
-1.11647e-05
9.88136e-05
-1.03672e-05
0.000100211
-9.5927e-06
0.000101495
-8.84381e-06
0.000102668
-8.12258e-06
0.000103736
-7.43044e-06
0.000104703
-6.76832e-06
0.000105575
-6.13672e-06
0.000106354
-5.53576e-06
0.000107047
-4.96527e-06
0.000107658
-4.4248e-06
0.000108191
-3.91368e-06
0.000108651
-3.43107e-06
0.00010904
-2.97593e-06
0.000109365
-2.54711e-06
0.000109627
-2.14332e-06
0.000109831
-1.76317e-06
0.000109979
-1.40517e-06
0.000110076
-1.06774e-06
0.000110123
-7.4923e-07
0.000110124
-4.47916e-07
0.000110081
-1.62041e-07
0.000109996
1.10076e-07
0.000109872
3.70075e-07
0.000109711
6.19892e-07
0.000109514
8.61499e-07
0.000109284
1.09686e-06
0.000109021
1.32795e-06
0.000108728
1.55676e-06
0.000108407
1.78527e-06
0.000108058
2.01547e-06
0.000107685
2.24929e-06
0.000107289
2.48857e-06
0.000106874
2.73508e-06
0.000106442
2.99036e-06
0.000105997
3.25576e-06
0.000105545
3.53225e-06
0.000105091
3.82036e-06
0.000104641
4.12002e-06
0.000104205
4.4304e-06
0.00010379
4.74977e-06
0.000103407
5.07531e-06
0.000103067
5.40301e-06
0.000102778
5.72758e-06
0.000102549
6.04261e-06
0.000102387
6.34073e-06
0.000102291
6.61419e-06
6.85602e-06
0.000102258
2.1702e-05
-2.90542e-06
2.23723e-05
-5.56393e-06
2.33336e-05
-7.76308e-06
2.45518e-05
-9.66428e-06
2.60014e-05
-1.13432e-05
2.7663e-05
-1.28553e-05
2.95236e-05
-1.42478e-05
3.15761e-05
-1.55577e-05
3.38176e-05
-1.68094e-05
3.62473e-05
-1.80145e-05
3.88637e-05
-1.91718e-05
4.16621e-05
-2.02682e-05
4.46327e-05
-2.1282e-05
4.77594e-05
-2.21869e-05
5.10201e-05
-2.29561e-05
5.43874e-05
-2.35666e-05
5.78308e-05
-2.40019e-05
6.1318e-05
-2.42531e-05
6.48171e-05
-2.43194e-05
6.82977e-05
-2.42069e-05
7.17323e-05
-2.39273e-05
7.50967e-05
-2.34966e-05
7.83703e-05
-2.2933e-05
8.15361e-05
-2.2256e-05
8.45806e-05
-2.14852e-05
8.74937e-05
-2.06393e-05
9.02678e-05
-1.97358e-05
9.28981e-05
-1.87907e-05
9.53818e-05
-1.78183e-05
9.7718e-05
-1.6831e-05
9.99072e-05
-1.58394e-05
0.000101951
-1.48527e-05
0.000103853
-1.38783e-05
0.000105615
-1.29225e-05
0.000107243
-1.19902e-05
0.00010874
-1.10854e-05
0.000110112
-1.02111e-05
0.000111363
-9.36956e-06
0.000112499
-8.5623e-06
0.000113525
-7.79031e-06
0.000114446
-7.05407e-06
0.000115268
-6.35366e-06
0.000115995
-5.6888e-06
0.000116632
-5.05892e-06
0.000117185
-4.46322e-06
0.000117657
-3.90065e-06
0.000118054
-3.37002e-06
0.000118379
-2.86997e-06
0.000118637
-2.39901e-06
0.000118831
-1.95555e-06
0.000118965
-1.53788e-06
0.000119043
-1.14424e-06
0.000119068
-7.72741e-07
0.000119042
-4.21486e-07
0.000118969
-8.86225e-08
0.000118852
2.27709e-07
0.000118692
5.29364e-07
0.000118493
8.18452e-07
0.000118257
1.09704e-06
0.000117985
1.36715e-06
0.000117681
1.63077e-06
0.000117346
1.88985e-06
0.000116983
2.1463e-06
0.000116595
2.40192e-06
0.000116183
2.65841e-06
0.000115751
2.9173e-06
0.000115304
3.17993e-06
0.000114843
3.44738e-06
0.000114375
3.72039e-06
0.000113905
3.99932e-06
0.000113437
4.284e-06
0.00011298
4.57372e-06
0.000112539
4.86711e-06
0.000112123
5.16207e-06
0.000111738
5.45576e-06
0.000111392
5.7446e-06
0.000111092
6.02435e-06
0.00011084
6.29028e-06
0.000110639
6.53746e-06
0.000110488
6.76118e-06
6.95777e-06
0.000110382
2.32078e-05
-3.24787e-06
2.3909e-05
-6.26448e-06
2.49198e-05
-8.77274e-06
2.62057e-05
-1.09487e-05
2.77417e-05
-1.28773e-05
2.95089e-05
-1.46202e-05
3.14962e-05
-1.62324e-05
3.36991e-05
-1.77577e-05
3.61187e-05
-1.92256e-05
3.87576e-05
-2.06499e-05
4.16174e-05
-2.20277e-05
4.46944e-05
-2.33411e-05
4.79773e-05
-2.45606e-05
5.14461e-05
-2.56511e-05
5.50726e-05
-2.65778e-05
5.88222e-05
-2.73114e-05
6.26568e-05
-2.78314e-05
6.65367e-05
-2.81279e-05
7.04237e-05
-2.82011e-05
7.42823e-05
-2.80601e-05
7.80808e-05
-2.77204e-05
8.17921e-05
-2.72024e-05
8.53936e-05
-2.65291e-05
8.88674e-05
-2.57243e-05
9.21994e-05
-2.48116e-05
9.53795e-05
-2.38137e-05
9.84004e-05
-2.27512e-05
0.000101258
-2.16428e-05
0.00010395
-2.05051e-05
0.000106477
-1.93523e-05
0.00010884
-1.81968e-05
0.000111041
-1.70488e-05
0.000113085
-1.59167e-05
0.000114975
-1.48077e-05
0.000116717
-1.37271e-05
0.000118316
-1.26794e-05
0.000119778
-1.16678e-05
0.000121108
-1.06947e-05
0.000122312
-9.76184e-06
0.000123396
-8.87006e-06
0.000124366
-8.01987e-06
0.000125227
-7.21122e-06
0.000125986
-6.44373e-06
0.000126647
-5.71667e-06
0.000127217
-5.02904e-06
0.000127699
-4.37962e-06
0.000128099
-3.76701e-06
0.000128421
-3.18965e-06
0.00012867
-2.64582e-06
0.00012885
-2.13373e-06
0.000128966
-1.65146e-06
0.00012902
-1.19702e-06
0.000129017
-7.68353e-07
0.000128959
-3.63321e-07
0.000128851
1.98665e-08
0.000128696
3.83213e-07
0.000128496
7.29056e-07
0.000128255
1.05954e-06
0.000127974
1.37676e-06
0.000127658
1.68276e-06
0.000127307
1.97951e-06
0.000126927
2.2689e-06
0.000126518
2.55269e-06
0.000126085
2.83253e-06
0.000125631
3.10986e-06
0.00012516
3.38593e-06
0.000124675
3.66174e-06
0.000124181
3.93797e-06
0.000123683
4.21498e-06
0.000123186
4.4927e-06
0.000122695
4.77064e-06
0.000122217
5.04782e-06
0.000121757
5.32278e-06
0.000121322
5.59354e-06
0.000120915
5.85768e-06
0.000120543
6.11237e-06
0.000120209
6.35454e-06
0.000119914
6.58097e-06
0.000119658
6.7886e-06
0.00011944
6.97473e-06
7.13764e-06
0.000119256
2.48194e-05
-3.6064e-06
2.55552e-05
-6.99957e-06
2.66205e-05
-9.83678e-06
2.79807e-05
-1.23073e-05
2.96115e-05
-1.4506e-05
3.1496e-05
-1.65022e-05
3.3626e-05
-1.83596e-05
3.6002e-05
-2.01305e-05
3.86307e-05
-2.18507e-05
4.15204e-05
-2.35356e-05
4.4676e-05
-2.51791e-05
4.80942e-05
-2.67548e-05
5.17601e-05
-2.82218e-05
5.56468e-05
-2.95328e-05
5.97165e-05
-3.06424e-05
6.39243e-05
-3.15139e-05
6.82219e-05
-3.21235e-05
7.25606e-05
-3.24611e-05
7.6895e-05
-3.25298e-05
8.11837e-05
-3.2343e-05
8.53912e-05
-3.19221e-05
8.94879e-05
-3.12932e-05
9.345e-05
-3.04851e-05
9.72588e-05
-2.95271e-05
0.000100901
-2.84475e-05
0.000104366
-2.72729e-05
0.000107649
-2.60277e-05
0.000110745
-2.47335e-05
0.000113655
-2.34092e-05
0.00011638
-2.20709e-05
0.000118921
-2.07326e-05
0.000121284
-1.94057e-05
0.000123473
-1.80996e-05
0.000125493
-1.68219e-05
0.00012735
-1.55788e-05
0.000129051
-1.43747e-05
0.000130601
-1.32133e-05
0.000132009
-1.2097e-05
0.000133279
-1.10274e-05
0.000134419
-1.00055e-05
0.000135436
-9.03172e-06
0.000136335
-8.10576e-06
0.000137122
-7.2271e-06
0.000137804
-6.39482e-06
0.000138387
-5.60771e-06
0.000138875
-4.86435e-06
0.000139274
-4.1631e-06
0.000139589
-3.50218e-06
0.000139826
-2.87966e-06
0.000139988
-2.29351e-06
0.00014008
-1.74163e-06
0.000140107
-1.22183e-06
0.000140071
-7.31879e-07
0.000139979
-2.6956e-07
0.000139832
1.67335e-07
0.000139635
5.80862e-07
0.00013939
9.73423e-07
0.000139102
1.34733e-06
0.000138773
1.70473e-06
0.000138408
2.04767e-06
0.000138008
2.37807e-06
0.000137577
2.69775e-06
0.000137119
3.00836e-06
0.000136638
3.31136e-06
0.000136137
3.60801e-06
0.000135621
3.89934e-06
0.000135094
4.1861e-06
0.000134559
4.46874e-06
0.000134023
4.74741e-06
0.00013349
5.02187e-06
0.000132965
5.29155e-06
0.000132454
5.55553e-06
0.000131959
5.81252e-06
0.000131488
6.06095e-06
0.000131042
6.29899e-06
0.000130625
6.52466e-06
0.000130239
6.73591e-06
0.000129885
6.93077e-06
0.000129561
7.10747e-06
0.000129267
7.26465e-06
7.40178e-06
0.000128998
2.65442e-05
-3.98362e-06
2.73191e-05
-7.77367e-06
2.84449e-05
-1.09613e-05
2.98877e-05
-1.37484e-05
3.16245e-05
-1.62405e-05
3.36415e-05
-1.85166e-05
3.59364e-05
-2.06513e-05
3.85171e-05
-2.27077e-05
4.13989e-05
-2.47286e-05
4.45973e-05
-2.67299e-05
4.81207e-05
-2.8698e-05
5.19637e-05
-3.0593e-05
5.61038e-05
-3.23568e-05
6.05021e-05
-3.39258e-05
6.51068e-05
-3.52417e-05
6.98591e-05
-3.62605e-05
7.46977e-05
-3.69562e-05
7.95639e-05
-3.73213e-05
8.44043e-05
-3.7364e-05
8.91724e-05
-3.71048e-05
9.38296e-05
-3.65729e-05
9.83445e-05
-3.58018e-05
0.000102693
-3.48273e-05
0.000106857
-3.36848e-05
0.000110825
-3.24082e-05
0.000114587
-3.10285e-05
0.000118139
-2.95737e-05
0.000121481
-2.80684e-05
0.000124612
-2.6534e-05
0.000127536
-2.49886e-05
0.000130257
-2.34474e-05
0.000132781
-2.19229e-05
0.000135113
-2.04255e-05
0.00013726
-1.89632e-05
0.00013923
-1.75426e-05
0.000141029
-1.61684e-05
0.000142666
-1.48444e-05
0.000144148
-1.35729e-05
0.000145481
-1.23556e-05
0.000146674
-1.11932e-05
0.000147734
-1.0086e-05
0.000148666
-9.03364e-06
0.000149479
-8.03525e-06
0.000150178
-7.08972e-06
0.00015077
-6.1956e-06
0.000151261
-5.35121e-06
0.000151656
-4.55469e-06
0.000151961
-3.804e-06
0.000152181
-3.09699e-06
0.000152322
-2.43142e-06
0.000152387
-1.80497e-06
0.000152383
-1.21526e-06
0.000152312
-6.59895e-07
0.000152181
-1.36617e-07
0.000151992
3.5707e-07
0.00015175
8.23516e-07
0.000151458
1.26523e-06
0.00015112
1.68455e-06
0.000150741
2.08365e-06
0.000150323
2.46458e-06
0.000149871
2.82922e-06
0.000149388
3.17931e-06
0.000148877
3.51642e-06
0.000148345
3.8419e-06
0.000147793
4.15687e-06
0.000147227
4.46224e-06
0.000146652
4.75864e-06
0.00014607
5.04643e-06
0.000145488
5.32571e-06
0.00014491
5.59629e-06
0.00014434
5.85771e-06
0.000143782
6.10928e-06
0.00014324
6.35007e-06
0.000142717
6.57901e-06
0.000142217
6.79492e-06
0.00014174
6.99656e-06
0.000141288
7.18276e-06
0.000140862
7.35246e-06
0.00014046
7.50483e-06
0.00014008
7.63934e-06
7.75618e-06
0.000139721
2.839e-05
-4.38249e-06
2.92094e-05
-8.59225e-06
3.04035e-05
-1.21541e-05
3.19393e-05
-1.52823e-05
3.37966e-05
-1.80954e-05
3.59674e-05
-2.06845e-05
3.84582e-05
-2.31387e-05
4.12888e-05
-2.55345e-05
4.44862e-05
-2.79219e-05
4.80744e-05
-3.03134e-05
5.20627e-05
-3.26814e-05
5.64388e-05
-3.49638e-05
6.11656e-05
-3.70782e-05
6.61858e-05
-3.89401e-05
7.14281e-05
-4.04779e-05
7.68157e-05
-4.16419e-05
8.22733e-05
-4.24074e-05
8.77315e-05
-4.27729e-05
9.31298e-05
-4.27556e-05
9.8418e-05
-4.23862e-05
0.000103556
-4.17035e-05
0.000108511
-4.07506e-05
0.000113262
-3.95711e-05
0.000117792
-3.82076e-05
0.000122091
-3.66995e-05
0.000126152
-3.50826e-05
0.000129974
-3.33887e-05
0.000133558
-3.16452e-05
0.000136907
-2.98758e-05
0.000140026
-2.81004e-05
0.000142921
-2.63353e-05
0.000145599
-2.45943e-05
0.000148068
-2.2888e-05
0.000150337
-2.1225e-05
0.000152413
-1.96122e-05
0.000154305
-1.80543e-05
0.000156022
-1.6555e-05
0.000157572
-1.51167e-05
0.000158963
-1.37408e-05
0.000160203
-1.24279e-05
0.000161301
-1.11779e-05
0.000162263
-9.99026e-06
0.000163096
-8.86389e-06
0.000163809
-7.79738e-06
0.000164407
-6.78899e-06
0.000164896
-5.83678e-06
0.000165284
-4.93861e-06
0.000165576
-4.09221e-06
0.000165778
-3.29518e-06
0.000165894
-2.54507e-06
0.000165931
-1.83933e-06
0.000165894
-1.17541e-06
0.000165786
-5.50724e-07
0.000165614
3.70076e-08
0.000165382
5.9046e-07
0.000165094
1.11254e-06
0.000164754
1.60574e-06
0.000164366
2.07239e-06
0.000163934
2.51469e-06
0.000163463
2.93469e-06
0.000162957
3.33426e-06
0.00016242
3.71513e-06
0.000161856
4.07878e-06
0.000161269
4.42653e-06
0.000160664
4.75947e-06
0.000160045
5.07845e-06
0.000159416
5.38411e-06
0.000158782
5.67686e-06
0.000158147
5.95689e-06
0.000157515
6.22417e-06
0.00015689
6.4785e-06
0.000156276
6.7195e-06
0.000155675
6.9467e-06
0.00015509
7.15951e-06
0.000154522
7.35735e-06
0.000153975
7.53962e-06
0.000153447
7.70584e-06
0.000152939
7.85561e-06
0.00015245
7.98875e-06
0.000151979
8.10528e-06
8.20583e-06
0.000151524
3.03651e-05
-4.80642e-06
3.12357e-05
-9.46194e-06
3.25078e-05
-1.34247e-05
3.41503e-05
-1.69227e-05
3.61479e-05
-2.00904e-05
3.85021e-05
-2.30355e-05
4.12337e-05
-2.58665e-05
4.43793e-05
-2.86761e-05
4.79811e-05
-3.1519e-05
5.20697e-05
-3.4397e-05
5.665e-05
-3.72564e-05
6.16931e-05
-4.00012e-05
6.71381e-05
-4.25172e-05
7.2901e-05
-4.46967e-05
7.88859e-05
-4.64563e-05
8.49961e-05
-4.77454e-05
9.11418e-05
-4.85461e-05
9.72446e-05
-4.88685e-05
0.000103239
-4.87428e-05
0.000109073
-4.8213e-05
0.000114708
-4.73301e-05
0.000120112
-4.61478e-05
0.000125268
-4.47187e-05
0.000130161
-4.30928e-05
0.000134784
-4.13152e-05
0.000139136
-3.94266e-05
0.000143217
-3.74621e-05
0.000147032
-3.54521e-05
0.000150586
-3.34222e-05
0.000153887
-3.13936e-05
0.000156943
-2.93839e-05
0.000159764
-2.74073e-05
0.000162358
-2.54751e-05
0.000164736
-2.3596e-05
0.000166908
-2.17768e-05
0.000168883
-2.00222e-05
0.000170671
-1.83358e-05
0.000172281
-1.67198e-05
0.000173722
-1.51752e-05
0.000175002
-1.37023e-05
0.000176132
-1.23009e-05
0.000177117
-1.09699e-05
0.000177967
-9.70802e-06
0.000178688
-8.51343e-06
0.000179288
-7.38414e-06
0.000179774
-6.31789e-06
0.000180152
-5.31228e-06
0.000180429
-4.36474e-06
0.00018061
-3.47267e-06
0.000180702
-2.63336e-06
0.00018071
-1.84413e-06
0.000180639
-1.10224e-06
0.000180496
-4.05021e-07
0.000180284
2.50511e-07
0.000180009
8.67027e-07
0.000179675
1.44738e-06
0.000179287
1.99425e-06
0.00017885
2.51005e-06
0.000178367
2.99704e-06
0.000177844
3.45728e-06
0.000177285
3.89267e-06
0.000176694
4.30494e-06
0.000176075
4.69559e-06
0.000175434