/*--------------------------------*- C++ -*----------------------------------*\
  =========                 |
  \\      /  F ield         | OpenFOAM: The Open Source CFD Toolbox
   \\    /   O peration     | Website:  https://openfoam.org
    \\  /    A nd           | Version:  7
     \\/     M anipulation  |
\*---------------------------------------------------------------------------*/
FoamFile
{
    version     2.0;
    format      ascii;
    class       volScalarField;
    location    "6";
    object      T;
}
// * * * * * * * * * * * * * * * * * * * * * * * * * * * * * * * * * * * * * //

dimensions      [0 0 0 1 0 0 0];

internalField   nonuniform List<scalar> 
12013
(
300.097
300.295
300.498
300.703
300.911
301.119
301.326
301.531
301.734
301.933
302.128
302.319
302.504
302.684
302.859
303.028
303.192
303.35
303.503
303.65
303.792
303.93
304.063
304.192
304.317
304.438
304.556
304.672
304.784
304.895
305.005
305.114
305.222
305.331
305.441
305.552
305.667
305.785
305.908
306.036
306.172
306.316
306.471
306.637
306.816
307.011
307.224
307.457
307.713
307.994
308.304
308.646
309.023
309.441
309.902
310.411
310.975
311.597
312.284
313.043
313.879
314.801
315.817
316.936
318.168
319.523
321.013
322.652
324.456
326.439
328.624
331.031
333.689
336.629
339.892
343.53
347.61
352.228
357.529
363.756
371.369
300.097
300.295
300.498
300.704
300.911
301.12
301.327
301.532
301.735
301.934
302.129
302.32
302.505
302.686
302.861
303.03
303.193
303.352
303.504
303.652
303.794
303.932
304.065
304.194
304.319
304.44
304.558
304.674
304.787
304.897
305.007
305.116
305.224
305.333
305.443
305.554
305.669
305.787
305.91
306.038
306.174
306.318
306.472
306.638
306.817
307.012
307.225
307.458
307.713
307.994
308.304
308.645
309.022
309.439
309.9
310.409
310.971
311.593
312.279
313.036
313.871
314.791
315.805
316.921
318.15
319.501
320.987
322.62
324.416
326.391
328.564
330.957
333.596
336.511
339.739
343.326
347.331
351.83
356.921
362.727
369.358
300.098
300.296
300.498
300.705
300.913
301.121
301.328
301.534
301.737
301.936
302.132
302.323
302.508
302.689
302.864
303.033
303.197
303.355
303.508
303.656
303.799
303.936
304.069
304.198
304.323
304.445
304.563
304.678
304.791
304.902
305.012
305.12
305.229
305.337
305.447
305.559
305.673
305.791
305.914
306.042
306.177
306.321
306.475
306.641
306.82
307.015
307.227
307.459
307.714
307.994
308.303
308.644
309.02
309.436
309.895
310.403
310.963
311.583
312.266
313.02
313.852
314.768
315.778
316.888
318.11
319.452
320.928
322.549
324.329
326.285
328.434
330.795
333.393
336.254
339.409
342.895
346.753
351.03
355.772
361.005
366.691
300.098
300.296
300.499
300.706
300.914
301.123
301.331
301.537
301.74
301.94
302.136
302.327
302.513
302.694
302.869
303.039
303.203
303.362
303.515
303.663
303.805
303.943
304.077
304.206
304.331
304.452
304.571
304.686
304.799
304.91
305.019
305.128
305.236
305.345
305.454
305.566
305.68
305.798
305.92
306.048
306.184
306.327
306.481
306.646
306.824
307.018
307.23
307.461
307.715
307.995
308.302
308.642
309.016
309.43
309.887
310.392
310.95
311.566
312.246
312.995
313.821
314.731
315.732
316.834
318.044
319.373
320.832
322.432
324.188
326.112
328.222
330.534
333.068
335.846
338.891
342.228
345.881
349.871
354.206
358.865
363.776
300.098
300.297
300.501
300.708
300.917
301.126
301.335
301.541
301.745
301.946
302.142
302.334
302.52
302.702
302.877
303.048
303.212
303.371
303.524
303.673
303.816
303.954
304.087
304.217
304.342
304.463
304.582
304.697
304.81
304.921
305.031
305.139
305.247
305.356
305.465
305.576
305.69
305.808
305.93
306.058
306.193
306.336
306.489
306.653
306.831
307.024
307.235
307.465
307.718
307.995
308.301
308.639
309.011
309.422
309.876
310.378
310.931
311.542
312.216
312.959
313.777
314.677
315.667
316.754
317.948
319.257
320.692
322.264
323.984
325.864
327.919
330.163
332.611
335.279
338.183
341.335
344.746
348.418
352.339
356.474
360.757
300.098
300.298
300.503
300.71
300.92
301.13
301.34
301.547
301.752
301.953
302.15
302.343
302.53
302.712
302.889
303.059
303.224
303.384
303.538
303.686
303.83
303.968
304.102
304.232
304.357
304.479
304.597
304.713
304.826
304.937
305.046
305.155
305.263
305.371
305.48
305.591
305.705
305.822
305.944
306.071
306.205
306.348
306.5
306.663
306.84
307.032
307.241
307.47
307.721
307.997
308.3
308.635
309.004
309.412
309.861
310.358
310.906
311.51
312.175
312.909
313.716
314.603
315.577
316.646
317.818
319.101
320.504
322.038
323.711
325.535
327.521
329.679
332.02
334.555
337.292
340.236
343.386
346.735
350.262
353.932
357.692
300.099
300.299
300.505
300.714
300.925
301.136
301.346
301.555
301.761
301.963
302.161
302.355
302.543
302.726
302.903
303.075
303.241
303.401
303.556
303.705
303.849
303.988
304.122
304.252
304.377
304.499
304.618
304.734
304.847
304.958
305.067
305.175
305.283
305.391
305.5
305.611
305.724
305.841
305.962
306.088
306.222
306.363
306.515
306.677
306.852
307.043
307.25
307.477
307.725
307.998
308.299
308.63
308.995
309.398
309.842
310.332
310.872
311.467
312.123
312.844
313.636
314.507
315.461
316.507
317.651
318.9
320.264
321.75
323.366
325.121
327.022
329.079
331.297
333.681
336.236
338.958
341.844
344.878
348.041
351.3
354.617
300.099
300.301
300.508
300.719
300.931
301.143
301.355
301.565
301.772
301.976
302.176
302.37
302.56
302.744
302.923
303.095
303.262
303.423
303.578
303.728
303.873
304.012
304.147
304.278
304.404
304.526
304.645
304.76
304.874
304.985
305.094
305.202
305.31
305.418
305.526
305.636
305.749
305.865
305.985
306.111
306.243
306.384
306.534
306.695
306.868
307.057
307.262
307.486
307.732
308.001
308.298
308.624
308.984
309.38
309.818
310.299
310.83
311.414
312.056
312.762
313.537
314.387
315.317
316.333
317.443
318.652
319.968
321.397
322.945
324.62
326.425
328.367
330.449
332.672
335.035
337.534
340.159
342.896
345.726
348.623
351.557
300.1
300.304
300.512
300.724
300.938
301.153
301.366
301.578
301.787
301.993
302.194
302.39
302.581
302.767
302.947
303.121
303.289
303.451
303.607
303.758
303.904
304.044
304.179
304.31
304.437
304.559
304.679
304.794
304.908
305.019
305.128
305.236
305.343
305.451
305.559
305.669
305.781
305.896
306.015
306.14
306.271
306.41
306.558
306.717
306.889
307.075
307.277
307.498
307.74
308.005
308.297
308.618
308.971
309.36
309.788
310.26
310.779
311.349
311.976
312.663
313.417
314.241
315.142
316.124
317.193
318.355
319.615
320.979
322.45
324.034
325.734
327.553
329.49
331.545
333.715
335.993
338.369
340.829
343.357
345.933
348.533
300.101
300.307
300.517
300.731
300.948
301.164
301.38
301.594
301.805
302.013
302.216
302.415
302.608
302.795
302.977
303.153
303.322
303.486
303.644
303.796
303.942
304.083
304.22
304.351
304.478
304.601
304.721
304.837
304.95
305.061
305.171
305.278
305.386
305.493
305.6
305.709
305.82
305.935
306.053
306.176
306.306
306.443
306.589
306.746
306.915
307.098
307.297
307.514
307.751
308.012
308.297
308.611
308.957
309.336
309.754
310.214
310.719
311.273
311.881
312.546
313.274
314.069
314.935
315.878
316.901
318.009
319.207
320.497
321.885
323.371
324.958
326.647
328.435
330.322
332.301
334.365
336.507
338.712
340.967
343.256
345.561
300.102
300.31
300.523
300.74
300.959
301.178
301.397
301.614
301.828
302.038
302.244
302.445
302.641
302.83
303.014
303.192
303.363
303.529
303.688
303.841
303.989
304.132
304.269
304.401
304.529
304.653
304.773
304.89
305.003
305.114
305.223
305.331
305.438
305.544
305.651
305.759
305.87
305.983
306.1
306.221
306.349
306.484
306.628
306.782
306.948
307.128
307.322
307.535
307.767
308.021
308.299
308.605
308.941
309.31
309.716
310.161
310.65
311.185
311.771
312.411
313.11
313.872
314.699
315.597
316.568
317.617
318.746
319.958
321.255
322.638
324.108
325.664
327.303
329.023
330.818
332.681
334.603
336.575
338.583
340.617
342.661
300.104
300.315
300.531
300.751
300.973
301.196
301.418
301.638
301.855
302.069
302.278
302.482
302.68
302.873
303.059
303.24
303.413
303.581
303.742
303.898
304.047
304.191
304.329
304.463
304.592
304.716
304.837
304.954
305.068
305.179
305.288
305.395
305.502
305.608
305.714
305.821
305.93
306.042
306.157
306.277
306.403
306.535
306.677
306.827
306.99
307.165
307.355
307.562
307.787
308.034
308.305
308.601
308.926
309.283
309.674
310.103
310.573
311.087
311.648
312.26
312.926
313.65
314.434
315.282
316.197
317.182
318.238
319.367
320.57
321.847
323.198
324.622
326.115
327.674
329.293
330.966
332.686
334.444
336.231
338.036
339.848
300.106
300.32
300.54
300.764
300.99
301.217
301.443
301.667
301.888
302.106
302.319
302.527
302.729
302.925
303.114
303.297
303.474
303.644
303.808
303.965
304.117
304.262
304.403
304.537
304.667
304.793
304.914
305.032
305.146
305.257
305.366
305.473
305.579
305.684
305.79
305.896
306.004
306.114
306.227
306.345
306.468
306.598
306.736
306.883
307.041
307.211
307.396
307.596
307.815
308.054
308.315
308.6
308.913
309.256
309.631
310.042
310.49
310.98
311.514
312.094
312.724
313.407
314.145
314.94
315.795
316.712
317.691
318.735
319.842
321.013
322.246
323.54
324.891
326.296
327.75
329.248
330.782
332.346
333.932
335.532
337.137
300.108
300.327
300.551
300.78
301.01
301.242
301.473
301.702
301.928
302.15
302.368
302.58
302.786
302.986
303.18
303.367
303.547
303.72
303.887
304.047
304.201
304.349
304.491
304.627
304.759
304.885
305.007
305.125
305.24
305.352
305.461
305.567
305.673
305.777
305.882
305.987
306.093
306.201
306.313
306.428
306.548
306.675
306.809
306.952
307.105
307.27
307.448
307.642
307.852
308.081
308.332
308.605
308.905
309.232
309.589
309.979
310.405
310.868
311.371
311.918
312.509
313.148
313.837
314.577
315.369
316.216
317.117
318.074
319.086
320.151
321.269
322.438
323.654
324.914
326.214
327.549
328.913
330.302
331.707
333.124
334.545
300.11
300.334
300.564
300.798
301.035
301.272
301.509
301.744
301.976
302.204
302.427
302.644
302.855
303.06
303.258
303.45
303.634
303.811
303.981
304.144
304.301
304.452
304.596
304.734
304.868
304.996
305.119
305.238
305.353
305.465
305.574
305.68
305.785
305.889
305.992
306.096
306.201
306.307
306.416
306.528
306.646
306.769
306.899
307.037
307.185
307.343
307.515
307.7
307.901
308.12
308.359
308.619
308.904
309.213
309.551
309.919
310.32
310.754
311.226
311.736
312.287
312.88
313.518
314.2
314.929
315.705
316.528
317.399
318.317
319.28
320.287
321.337
322.425
323.55
324.708
325.893
327.103
328.332
329.576
330.828
332.084
300.113
300.343
300.58
300.82
301.064
301.308
301.551
301.793
302.032
302.267
302.496
302.72
302.938
303.148
303.352
303.548
303.737
303.919
304.093
304.261
304.421
304.574
304.721
304.862
304.997
305.127
305.252
305.372
305.488
305.6
305.709
305.815
305.92
306.023
306.125
306.227
306.33
306.434
306.54
306.65
306.763
306.882
307.008
307.141
307.282
307.434
307.598
307.775
307.966
308.174
308.4
308.646
308.914
309.205
309.522
309.867
310.241
310.646
311.084
311.556
312.065
312.611
313.196
313.821
314.486
315.192
315.938
316.725
317.552
318.417
319.319
320.256
321.226
322.226
323.252
324.302
325.372
326.457
327.555
328.66
329.769
300.117
300.354
300.598
300.847
301.098
301.35
301.602
301.852
302.099
302.341
302.579
302.81
303.035
303.252
303.462
303.665
303.86
304.047
304.226
304.398
304.562
304.72
304.87
305.014
305.151
305.283
305.41
305.531
305.648
305.76
305.87
305.976
306.08
306.182
306.282
306.383
306.484
306.585
306.689
306.795
306.905
307.019
307.14
307.267
307.402
307.547
307.702
307.87
308.051
308.246
308.459
308.69
308.94
309.212
309.508
309.828
310.174
310.548
310.952
311.386
311.852
312.351
312.884
313.451
314.053
314.691
315.363
316.069
316.809
317.581
318.385
319.217
320.077
320.962
321.869
322.795
323.738
324.695
325.662
326.635
327.613
300.121
300.367
300.62
300.878
301.138
301.4
301.662
301.921
302.178
302.43
302.676
302.916
303.149
303.375
303.593
303.803
304.004
304.198
304.383
304.56
304.73
304.891
305.046
305.193
305.333
305.467
305.596
305.719
305.836
305.95
306.059
306.165
306.269
306.37
306.469
306.568
306.666
306.765
306.866
306.969
307.074
307.184
307.299
307.42
307.549
307.686
307.832
307.99
308.159
308.343
308.541
308.756
308.989
309.241
309.513
309.808
310.126
310.469
310.838
311.234
311.658
312.11
312.592
313.103
313.645
314.216
314.817
315.447
316.105
316.791
317.502
318.239
318.998
319.778
320.576
321.391
322.22
323.061
323.91
324.767
325.627
300.126
300.382
300.646
300.914
301.186
301.459
301.732
302.003
302.27
302.533
302.79
303.041
303.284
303.519
303.746
303.965
304.175
304.376
304.568
304.751
304.926
305.093
305.252
305.403
305.547
305.684
305.815
305.939
306.058
306.173
306.283
306.389
306.491
306.592
306.69
306.786
306.883
306.979
307.076
307.175
307.276
307.381
307.491
307.605
307.727
307.855
307.993
308.14
308.298
308.468
308.652
308.85
309.065
309.297
309.547
309.816
310.106
310.418
310.753
311.111
311.493
311.9
312.332
312.79
313.273
313.782
314.316
314.875
315.457
316.063
316.69
317.338
318.005
318.69
319.391
320.106
320.832
321.569
322.314
323.065
323.82
300.132
300.4
300.676
300.957
301.242
301.528
301.814
302.098
302.379
302.655
302.924
303.187
303.442
303.689
303.926
304.155
304.374
304.584
304.784
304.975
305.156
305.329
305.493
305.649
305.797
305.937
306.07
306.197
306.318
306.433
306.544
306.65
306.752
306.851
306.948
307.043
307.137
307.23
307.324
307.419
307.516
307.615
307.719
307.827
307.941
308.061
308.189
308.325
308.472
308.629
308.798
308.98
309.176
309.387
309.615
309.859
310.122
310.404
310.705
311.026
311.369
311.732
312.117
312.525
312.953
313.404
313.875
314.368
314.881
315.413
315.964
316.532
317.116
317.715
318.328
318.953
319.588
320.233
320.884
321.542
322.203
300.139
300.421
300.711
301.007
301.307
301.609
301.911
302.21
302.506
302.797
303.081
303.358
303.627
303.886
304.136
304.377
304.607
304.826
305.036
305.235
305.425
305.604
305.774
305.935
306.088
306.232
306.368
306.498
306.62
306.737
306.848
306.954
307.056
307.154
307.25
307.343
307.434
307.524
307.615
307.705
307.798
307.892
307.989
308.091
308.197
308.308
308.427
308.553
308.687
308.831
308.985
309.151
309.329
309.521
309.726
309.947
310.183
310.435
310.704
310.991
311.295
311.618
311.96
312.319
312.698
313.094
313.509
313.941
314.39
314.856
315.337
315.834
316.343
316.866
317.4
317.945
318.499
319.061
319.63
320.204
320.782
300.147
300.445
300.753
301.066
301.384
301.704
302.023
302.341
302.655
302.963
303.264
303.558
303.842
304.117
304.381
304.635
304.878
305.109
305.329
305.538
305.736
305.923
306.1
306.267
306.425
306.573
306.713
306.846
306.97
307.088
307.2
307.307
307.408
307.506
307.6
307.691
307.78
307.867
307.953
308.04
308.128
308.216
308.308
308.402
308.501
308.604
308.713
308.828
308.951
309.082
309.222
309.372
309.532
309.704
309.889
310.086
310.297
310.521
310.761
311.015
311.284
311.569
311.87
312.186
312.518
312.866
313.228
313.606
313.998
314.404
314.823
315.255
315.699
316.154
316.618
317.092
317.574
318.063
318.558
319.058
319.563
300.156
300.474
300.801
301.135
301.473
301.814
302.155
302.493
302.828
303.156
303.478
303.79
304.093
304.385
304.666
304.935
305.192
305.436
305.668
305.888
306.096
306.292
306.476
306.65
306.813
306.967
307.111
307.246
307.373
307.493
307.606
307.713
307.814
307.911
308.003
308.092
308.179
308.263
308.346
308.428
308.511
308.594
308.679
308.767
308.858
308.953
309.052
309.157
309.269
309.387
309.513
309.648
309.792
309.946
310.11
310.286
310.473
310.672
310.883
311.107
311.344
311.595
311.858
312.135
312.425
312.729
313.045
313.374
313.715
314.068
314.432
314.807
315.192
315.586
315.989
316.4
316.818
317.243
317.673
318.108
318.547
300.167
300.507
300.857
301.215
301.577
301.943
302.308
302.671
303.029
303.381
303.725
304.06
304.384
304.696
304.995
305.281
305.554
305.814
306.059
306.291
306.51
306.715
306.908
307.09
307.259
307.418
307.566
307.705
307.835
307.956
308.07
308.178
308.279
308.374
308.465
308.553
308.636
308.717
308.797
308.875
308.953
309.031
309.11
309.191
309.275
309.361
309.452
309.547
309.647
309.754
309.867
309.987
310.116
310.252
310.398
310.553
310.719
310.894
311.08
311.277
311.485
311.704
311.934
312.175
312.428
312.692
312.967
313.253
313.549
313.855
314.17
314.495
314.828
315.17
315.519
315.875
316.237
316.605
316.979
317.356
317.737
300.18
300.546
300.923
301.308
301.699
302.092
302.486
302.877
303.263
303.642
304.013
304.372
304.72
305.054
305.375
305.681
305.972
306.247
306.508
306.753
306.983
307.2
307.402
307.591
307.767
307.932
308.085
308.227
308.36
308.483
308.598
308.706
308.807
308.902
308.992
309.077
309.158
309.236
309.312
309.386
309.459
309.532
309.605
309.68
309.756
309.835
309.917
310.002
310.093
310.188
310.289
310.396
310.51
310.631
310.76
310.896
311.042
311.196
311.359
311.531
311.713
311.904
312.104
312.315
312.534
312.764
313.002
313.25
313.506
313.771
314.044
314.325
314.613
314.909
315.211
315.519
315.832
316.151
316.474
316.802
317.133
300.195
300.591
300.999
301.417
301.84
302.266
302.693
303.117
303.535
303.945
304.345
304.733
305.107
305.467
305.811
306.139
306.449
306.743
307.02
307.28
307.523
307.75
307.963
308.16
308.343
308.514
308.671
308.818
308.953
309.079
309.195
309.303
309.404
309.498
309.586
309.669
309.748
309.823
309.895
309.965
310.034
310.102
310.169
310.238
310.307
310.379
310.452
310.529
310.61
310.695
310.785
310.88
310.98
311.087
311.201
311.321
311.448
311.583
311.726
311.876
312.035
312.201
312.376
312.559
312.75
312.949
313.155
313.37
313.592
313.821
314.057
314.301
314.55
314.805
315.067
315.333
315.604
315.88
316.16
316.444
316.731
300.212
300.644
301.088
301.543
302.004
302.469
302.933
303.394
303.848
304.294
304.728
305.148
305.553
305.941
306.311
306.662
306.994
307.308
307.602
307.877
308.134
308.373
308.596
308.802
308.993
309.169
309.331
309.481
309.62
309.747
309.864
309.973
310.073
310.166
310.253
310.334
310.41
310.482
310.551
310.617
310.681
310.744
310.807
310.869
310.933
310.997
311.064
311.133
311.205
311.28
311.36
311.444
311.533
311.627
311.727
311.832
311.944
312.062
312.187
312.318
312.457
312.602
312.754
312.913
313.079
313.252
313.431
313.617
313.809
314.008
314.213
314.423
314.639
314.86
315.086
315.317
315.552
315.791
316.034
316.279
316.528
300.232
300.705
301.192
301.69
302.195
302.703
303.211
303.715
304.211
304.696
305.168
305.624
306.063
306.482
306.88
307.257
307.613
307.947
308.26
308.551
308.822
309.074
309.306
309.521
309.719
309.901
310.068
310.222
310.363
310.492
310.61
310.718
310.818
310.91
310.995
311.074
311.148
311.217
311.282
311.345
311.405
311.463
311.521
311.578
311.636
311.694
311.754
311.816
311.88
311.947
312.018
312.092
312.171
312.254
312.342
312.435
312.533
312.637
312.746
312.861
312.982
313.109
313.242
313.381
313.525
313.676
313.832
313.994
314.161
314.333
314.511
314.694
314.881
315.073
315.269
315.469
315.673
315.881
316.091
316.304
316.52
300.256
300.776
301.312
301.86
302.415
302.974
303.532
304.085
304.628
305.159
305.674
306.169
306.645
307.097
307.526
307.931
308.312
308.667
308.999
309.307
309.593
309.856
310.099
310.322
310.527
310.714
310.885
311.042
311.185
311.315
311.434
311.542
311.641
311.732
311.815
311.892
311.963
312.029
312.091
312.15
312.207
312.261
312.315
312.367
312.42
312.473
312.527
312.583
312.64
312.7
312.763
312.829
312.899
312.973
313.051
313.133
313.22
313.311
313.408
313.509
313.615
313.727
313.843
313.965
314.092
314.223
314.36
314.501
314.647
314.798
314.953
315.112
315.275
315.443
315.613
315.788
315.965
316.145
316.329
316.514
316.702
300.283
300.859
301.452
302.057
302.671
303.288
303.903
304.512
305.108
305.689
306.251
306.791
307.306
307.795
308.257
308.69
309.096
309.474
309.825
310.149
310.448
310.723
310.976
311.206
311.417
311.609
311.783
311.942
312.086
312.217
312.336
312.444
312.542
312.631
312.713
312.787
312.856
312.92
312.979
313.035
313.088
313.139
313.189
313.238
313.286
313.335
313.384
313.435
313.487
313.541
313.598
313.658
313.72
313.786
313.856
313.93
314.007
314.089
314.174
314.264
314.359
314.457
314.56
314.668
314.78
314.896
315.016
315.141
315.269
315.402
315.538
315.677
315.821
315.967
316.117
316.269
316.424
316.582
316.742
316.904
317.069
300.315
300.955
301.614
302.286
302.968
303.651
304.331
305.002
305.658
306.295
306.909
307.496
308.054
308.581
309.077
309.54
309.971
310.371
310.74
311.08
311.392
311.677
311.937
312.174
312.39
312.585
312.762
312.922
313.067
313.198
313.316
313.423
313.519
313.607
313.687
313.76
313.826
313.888
313.945
313.998
314.049
314.097
314.144
314.19
314.235
314.281
314.327
314.374
314.422
314.472
314.524
314.579
314.636
314.697
314.76
314.827
314.897
314.971
315.048
315.129
315.214
315.303
315.395
315.491
315.591
315.695
315.802
315.913
316.027
316.144
316.265
316.388
316.515
316.644
316.776
316.91
317.047
317.186
317.327
317.469
317.613
300.351
301.066
301.801
302.551
303.31
304.069
304.823
305.564
306.287
306.985
307.654
308.292
308.895
309.462
309.991
310.484
310.94
311.36
311.746
312.099
312.422
312.715
312.982
313.223
313.442
313.639
313.817
313.977
314.122
314.252
314.369
314.475
314.57
314.656
314.734
314.805
314.87
314.93
314.986
315.038
315.087
315.134
315.179
315.224
315.267
315.311
315.355
315.4
315.446
315.493
315.543
315.594
315.648
315.705
315.764
315.826
315.891
315.959
316.031
316.105
316.183
316.264
316.348
316.436
316.526
316.62
316.717
316.817
316.919
317.025
317.133
317.243
317.356
317.471
317.588
317.708
317.829
317.952
318.076
318.202
318.33
300.394
301.195
302.019
302.858
303.705
304.551
305.387
306.206
307.001
307.766
308.495
309.185
309.834
310.44
311.003
311.523
312.001
312.439
312.839
313.203
313.533
313.832
314.102
314.346
314.566
314.763
314.941
315.1
315.244
315.373
315.488
315.593
315.687
315.772
315.849
315.919
315.984
316.043
316.099
316.15
316.199
316.246
316.292
316.336
316.38
316.423
316.467
316.512
316.558
316.604
316.653
316.703
316.756
316.811
316.868
316.927
316.989
317.054
317.122
317.192
317.265
317.34
317.419
317.5
317.583
317.67
317.758
317.85
317.943
318.039
318.137
318.237
318.339
318.442
318.548
318.654
318.763
318.873
318.983
319.095
319.208
300.443
301.345
302.27
303.211
304.159
305.102
306.031
306.936
307.81
308.645
309.436
310.179
310.873
311.516
312.109
312.652
313.149
313.6
314.01
314.381
314.715
315.017
315.288
315.531
315.75
315.946
316.122
316.28
316.422
316.549
316.664
316.767
316.86
316.945
317.022
317.093
317.158
317.219
317.275
317.329
317.379
317.428
317.475
317.522
317.568
317.613
317.659
317.706
317.753
317.802
317.852
317.903
317.956
318.011
318.068
318.127
318.188
318.251
318.317
318.385
318.455
318.527
318.601
318.678
318.757
318.837
318.92
319.005
319.091
319.179
319.269
319.361
319.454
319.548
319.643
319.74
319.837
319.936
320.035
320.136
320.236
300.5
301.517
302.559
303.617
304.679
305.731
306.762
307.761
308.718
309.625
310.477
311.272
312.007
312.682
313.3
313.861
314.37
314.83
315.244
315.617
315.951
316.251
316.52
316.761
316.977
317.171
317.344
317.5
317.64
317.766
317.88
317.983
318.077
318.163
318.242
318.315
318.383
318.447
318.507
318.564
318.618
318.671
318.723
318.773
318.823
318.873
318.923
318.974
319.025
319.077
319.13
319.185
319.24
319.298
319.356
319.416
319.478
319.542
319.607
319.674
319.743
319.813
319.885
319.959
320.034
320.111
320.189
320.268
320.349
320.431
320.515
320.599
320.684
320.771
320.858
320.945
321.034
321.123
321.212
321.302
321.392
300.566
301.715
302.891
304.082
305.272
306.445
307.587
308.684
309.726
310.705
311.616
312.456
313.224
313.924
314.559
315.131
315.644
316.105
316.517
316.885
317.215
317.51
317.774
318.01
318.222
318.412
318.583
318.737
318.876
319.003
319.118
319.223
319.32
319.409
319.492
319.569
319.642
319.711
319.777
319.84
319.901
319.96
320.018
320.075
320.131
320.188
320.244
320.3
320.357
320.415
320.473
320.532
320.591
320.652
320.713
320.776
320.84
320.905
320.971
321.038
321.107
321.176
321.247
321.318
321.391
321.465
321.539
321.615
321.691
321.768
321.846
321.924
322.003
322.082
322.162
322.242
322.322
322.402
322.483
322.563
322.644
300.641
301.941
303.27
304.611
305.943
307.248
308.508
309.706
310.831
311.876
312.838
313.711
314.5
315.21
315.847
316.417
316.927
317.381
317.786
318.148
318.471
318.759
319.017
319.248
319.456
319.643
319.813
319.967
320.107
320.235
320.353
320.462
320.564
320.658
320.747
320.831
320.911
320.988
321.061
321.132
321.201
321.269
321.335
321.4
321.465
321.529
321.593
321.656
321.72
321.783
321.847
321.911
321.975
322.04
322.105
322.171
322.237
322.304
322.372
322.44
322.508
322.577
322.647
322.717
322.788
322.859
322.93
323.002
323.074
323.146
323.218
323.291
323.364
323.436
323.509
323.582
323.654
323.727
323.799
323.871
323.943
300.726
302.198
303.7
305.208
306.696
308.141
309.522
310.818
312.012
313.101
314.087
314.975
315.771
316.481
317.113
317.676
318.175
318.619
319.014
319.365
319.679
319.959
320.211
320.437
320.642
320.827
320.997
321.151
321.294
321.426
321.549
321.663
321.771
321.873
321.97
322.062
322.151
322.237
322.319
322.399
322.478
322.554
322.629
322.703
322.776
322.848
322.92
322.99
323.061
323.131
323.2
323.269
323.338
323.407
323.476
323.544
323.613
323.681
323.75
323.818
323.887
323.955
324.024
324.092
324.16
324.229
324.297
324.365
324.432
324.5
324.567
324.634
324.701
324.768
324.834
324.899
324.964
325.029
325.094
325.157
325.221
300.821
302.486
304.181
305.872
307.53
309.114
310.591
311.949
313.186
314.301
315.3
316.191
316.982
317.682
318.301
318.848
319.332
319.761
320.142
320.481
320.784
321.056
321.3
321.522
321.724
321.908
322.078
322.235
322.381
322.517
322.646
322.767
322.882
322.992
323.097
323.198
323.295
323.39
323.481
323.57
323.657
323.743
323.826
323.908
323.989
324.068
324.146
324.223
324.3
324.375
324.449
324.523
324.595
324.667
324.738
324.809
324.879
324.949
325.018
325.086
325.154
325.221
325.288
325.354
325.42
325.485
325.55
325.614
325.677
325.74
325.802
325.864
325.925
325.985
326.045
326.104
326.162
326.219
326.276
326.332
326.388
300.922
302.795
304.698
306.586
308.384
310.064
311.608
313.01
314.269
315.392
316.387
317.266
318.039
318.719
319.317
319.843
320.307
320.718
321.082
321.407
321.699
321.961
322.199
322.416
322.614
322.798
322.968
323.126
323.275
323.416
323.549
323.675
323.797
323.913
324.025
324.133
324.237
324.339
324.438
324.534
324.628
324.72
324.81
324.898
324.984
325.069
325.152
325.234
325.314
325.393
325.471
325.547
325.622
325.696
325.769
325.841
325.911
325.981
326.05
326.118
326.184
326.25
326.315
326.379
326.442
326.504
326.566
326.626
326.686
326.744
326.802
326.858
326.914
326.969
327.023
327.076
327.129
327.18
327.231
327.28
327.329
301.011
303.073
305.172
307.189
309.08
310.821
312.4
313.815
315.073
316.184
317.16
318.016
318.766
319.421
319.996
320.5
320.945
321.338
321.688
322
322.281
322.535
322.766
322.978
323.173
323.355
323.524
323.683
323.833
323.975
324.11
324.24
324.364
324.484
324.6
324.711
324.82
324.925
325.028
325.128
325.226
325.321
325.414
325.506
325.595
325.682
325.768
325.852
325.935
326.015
326.095
326.172
326.249
326.323
326.397
326.469
326.54
326.61
326.678
326.745
326.811
326.876
326.94
327.002
327.064
327.124
327.183
327.241
327.298
327.353
327.408
327.462
327.514
327.566
327.616
327.666
327.715
327.762
327.809
327.854
327.899
381.541
389.497
396.191
402.028
407.21
411.845
415.995
419.695
422.959
425.789
428.173
430.091
431.507
432.374
432.626
432.173
430.886
428.568
424.89
419.193
409.832
403.491
398.632
394.653
391.266
388.309
385.68
383.312
381.154
379.171
377.336
375.625
374.021
372.51
371.08
369.722
368.425
367.184
365.992
364.843
363.732
362.656
361.611
360.593
359.6
358.628
357.677
356.743
355.824
354.92
354.028
353.147
352.277
351.415
350.562
349.715
348.876
348.042
347.214
346.391
345.572
344.758
343.949
343.143
342.342
341.545
340.752
339.963
339.179
338.399
337.623
336.853
336.088
335.328
334.574
333.826
333.084
332.349
331.622
330.902
330.19
329.487
328.793
328.109
327.434
326.77
326.117
325.475
324.845
324.227
323.622
323.03
322.451
321.885
321.333
320.796
320.272
319.763
319.268
318.788
318.323
317.871
317.435
317.013
316.605
316.211
315.831
315.465
315.112
314.773
314.446
314.133
313.831
313.542
313.264
312.997
312.742
312.497
312.262
312.036
311.821
311.614
311.416
311.226
311.043
310.869
310.701
310.54
310.386
310.237
310.094
309.957
309.824
309.697
309.574
309.455
309.34
309.228
309.12
309.015
308.913
308.813
308.716
308.622
308.529
308.439
308.349
308.262
308.176
308.091
308.007
307.924
307.842
307.761
307.68
307.6
307.52
307.441
307.362
307.283
307.206
376.797
383.711
389.936
395.529
400.57
405.117
409.212
412.876
416.12
418.94
421.325
423.251
424.686
425.583
425.88
425.494
424.314
422.184
418.887
414.155
407.943
402.571
398.089
394.291
391.005
388.112
385.526
383.188
381.053
379.087
377.265
375.564
373.969
372.466
371.042
369.688
368.396
367.158
365.969
364.822
363.714
362.64
361.597
360.58
359.588
358.618
357.667
356.734
355.816
354.913
354.021
353.141
352.271
351.41
350.557
349.711
348.872
348.038
347.21
346.388
345.569
344.756
343.946
343.141
342.339
341.542
340.749
339.961
339.176
338.396
337.621
336.85
336.085
335.325
334.571
333.823
333.082
332.347
331.619
330.9
330.188
329.485
328.791
328.106
327.432
326.768
326.115
325.473
324.843
324.225
323.62
323.028
322.449
321.883
321.331
320.794
320.27
319.761
319.267
318.786
318.321
317.87
317.433
317.011
316.603
316.209
315.83
315.464
315.111
314.772
314.445
314.132
313.83
313.541
313.263
312.997
312.741
312.496
312.261
312.036
311.82
311.614
311.415
311.225
311.043
310.869
310.701
310.54
310.386
310.237
310.094
309.957
309.825
309.697
309.574
309.455
309.34
309.228
309.12
309.015
308.913
308.814
308.717
308.622
308.53
308.439
308.35
308.262
308.176
308.091
308.008
307.925
307.843
307.762
307.681
307.601
307.521
307.441
307.362
307.283
307.206
372.701
378.618
384.211
389.402
394.177
398.546
402.519
406.101
409.291
412.081
414.457
416.393
417.858
418.809
419.191
418.936
417.957
416.153
413.418
409.708
405.238
400.903
396.99
393.52
390.436
387.675
385.181
382.91
380.825
378.898
377.106
375.43
373.854
372.367
370.957
369.614
368.331
367.101
365.919
364.779
363.675
362.606
361.566
360.553
359.564
358.596
357.648
356.717
355.801
354.898
354.009
353.13
352.261
351.4
350.548
349.703
348.864
348.031
347.204
346.381
345.563
344.75
343.941
343.136
342.335
341.538
340.745
339.956
339.172
338.392
337.617
336.846
336.081
335.321
334.567