/*--------------------------------*- C++ -*----------------------------------*\
  =========                 |
  \\      /  F ield         | OpenFOAM: The Open Source CFD Toolbox
   \\    /   O peration     | Website:  https://openfoam.org
    \\  /    A nd           | Version:  7
     \\/     M anipulation  |
\*---------------------------------------------------------------------------*/
FoamFile
{
    version     2.0;
    format      ascii;
    class       volVectorField;
    location    "6";
    object      U;
}
// * * * * * * * * * * * * * * * * * * * * * * * * * * * * * * * * * * * * * //

dimensions      [0 1 -1 0 0 0 0];

internalField   nonuniform List<vector> 
12013
(
(0.100762 -0.000206499 0)
(0.103771 -0.000365441 0)
(0.108424 -0.000506247 0)
(0.114287 -0.00063267 0)
(0.121232 -0.000749432 0)
(0.129141 -0.00085976 0)
(0.137922 -0.000966022 0)
(0.14751 -0.00106997 0)
(0.157853 -0.00117267 0)
(0.168909 -0.00127455 0)
(0.180639 -0.00137533 0)
(0.192999 -0.00147416 0)
(0.205937 -0.00156969 0)
(0.219392 -0.00166028 0)
(0.233292 -0.00174416 0)
(0.247552 -0.00181961 0)
(0.262082 -0.00188514 0)
(0.276784 -0.00193958 0)
(0.291561 -0.00198213 0)
(0.306314 -0.00201237 0)
(0.320951 -0.00203029 0)
(0.335385 -0.00203615 0)
(0.349536 -0.00203051 0)
(0.363336 -0.00201413 0)
(0.376725 -0.00198788 0)
(0.389654 -0.00195276 0)
(0.402082 -0.00190976 0)
(0.413979 -0.00185991 0)
(0.425322 -0.00180418 0)
(0.436098 -0.00174353 0)
(0.446298 -0.00167881 0)
(0.455921 -0.00161086 0)
(0.46497 -0.00154041 0)
(0.473453 -0.00146812 0)
(0.481382 -0.00139459 0)
(0.488772 -0.00132036 0)
(0.49564 -0.00124591 0)
(0.502005 -0.00117162 0)
(0.507888 -0.00109785 0)
(0.513311 -0.00102493 0)
(0.518298 -0.000953115 0)
(0.522872 -0.000882611 0)
(0.527057 -0.000813592 0)
(0.530878 -0.00074621 0)
(0.534359 -0.00068058 0)
(0.537524 -0.000616771 0)
(0.540397 -0.000554815 0)
(0.543003 -0.000494715 0)
(0.545363 -0.000436443 0)
(0.547501 -0.000379936 0)
(0.549439 -0.000325092 0)
(0.551198 -0.000271762 0)
(0.552799 -0.000219753 0)
(0.554261 -0.000168826 0)
(0.555603 -0.000118687 0)
(0.556844 -6.89863e-05 0)
(0.558 -1.93092e-05 0)
(0.559087 3.08305e-05 0)
(0.560119 8.20223e-05 0)
(0.561109 0.000134979 0)
(0.56207 0.000190567 0)
(0.56301 0.000249835 0)
(0.563938 0.000314054 0)
(0.564858 0.000384776 0)
(0.565773 0.000463921 0)
(0.566682 0.000553886 0)
(0.567577 0.000657721 0)
(0.568448 0.00077936 0)
(0.569275 0.000924005 0)
(0.570028 0.00109869 0)
(0.570664 0.00131323 0)
(0.571118 0.00158172 0)
(0.571296 0.00192528 0)
(0.571057 0.00237691 0)
(0.570188 0.00299067 0)
(0.568349 0.00386011 0)
(0.564984 0.00515683 0)
(0.559114 0.00722189 0)
(0.548978 0.010862 0)
(0.531504 0.0189403 0)
(0.5137 0.0508056 0)
(0.100697 -0.000629456 0)
(0.103691 -0.00111893 0)
(0.108322 -0.00155039 0)
(0.114166 -0.00193716 0)
(0.121096 -0.00229416 0)
(0.128991 -0.00263126 0)
(0.137761 -0.00295572 0)
(0.147338 -0.00327293 0)
(0.157672 -0.00358623 0)
(0.168723 -0.00389684 0)
(0.180449 -0.00420401 0)
(0.192808 -0.00450511 0)
(0.205749 -0.00479607 0)
(0.21921 -0.00507189 0)
(0.233119 -0.00532719 0)
(0.247392 -0.00555679 0)
(0.261938 -0.00575617 0)
(0.276659 -0.00592178 0)
(0.291457 -0.00605121 0)
(0.306233 -0.00614324 0)
(0.320893 -0.0061978 0)
(0.335351 -0.00621573 0)
(0.349527 -0.00619873 0)
(0.363351 -0.00614908 0)
(0.376763 -0.00606945 0)
(0.389714 -0.0059628 0)
(0.402163 -0.0058322 0)
(0.41408 -0.00568071 0)
(0.425442 -0.0055113 0)
(0.436234 -0.00532683 0)
(0.44645 -0.00512996 0)
(0.456086 -0.00492313 0)
(0.465147 -0.0047086 0)
(0.473641 -0.00448838 0)
(0.481579 -0.00426431 0)
(0.488975 -0.00403799 0)
(0.495848 -0.00381083 0)
(0.502217 -0.0035841 0)
(0.508102 -0.00335889 0)
(0.513527 -0.00313612 0)
(0.518512 -0.00291659 0)
(0.523084 -0.00270096 0)
(0.527265 -0.00248979 0)
(0.53108 -0.00228353 0)
(0.534553 -0.0020825 0)
(0.537709 -0.00188692 0)
(0.540571 -0.0016969 0)
(0.543163 -0.00151247 0)
(0.545508 -0.00133354 0)
(0.547629 -0.00115991 0)
(0.549547 -0.000991255 0)
(0.551285 -0.000827129 0)
(0.552861 -0.000666944 0)
(0.554296 -0.00050997 0)
(0.555609 -0.000355311 0)
(0.556818 -0.000201885 0)
(0.557938 -4.84169e-05 0)
(0.558986 0.000106573 0)
(0.559976 0.000264849 0)
(0.560921 0.000428569 0)
(0.561832 0.000600368 0)
(0.56272 0.000783424 0)
(0.563592 0.000981583 0)
(0.564454 0.00119954 0)
(0.565308 0.00144306 0)
(0.566153 0.00171935 0)
(0.566984 0.00203749 0)
(0.56779 0.00240917 0)
(0.568556 0.0028497 0)
(0.569256 0.00337962 0)
(0.569851 0.0040272 0)
(0.57029 0.00483255 0)
(0.570495 0.0058545 0)
(0.570361 0.0071825 0)
(0.569735 0.00895819 0)
(0.568401 0.0114151 0)
(0.566054 0.0149549 0)
(0.562269 0.0202976 0)
(0.556497 0.0288093 0)
(0.548653 0.0431449 0)
(0.546434 0.0681777 0)
(0.100624 -0.00106733 0)
(0.103577 -0.00191774 0)
(0.108161 -0.00266147 0)
(0.113966 -0.00332782 0)
(0.120862 -0.00394279 0)
(0.128729 -0.00452335 0)
(0.137473 -0.00508213 0)
(0.147029 -0.00562849 0)
(0.157347 -0.0061682 0)
(0.168386 -0.00670345 0)
(0.180106 -0.00723293 0)
(0.192465 -0.00775216 0)
(0.205412 -0.00825411 0)
(0.218887 -0.0087301 0)
(0.232817 -0.00917085 0)
(0.247117 -0.00956739 0)
(0.261697 -0.00991186 0)
(0.276457 -0.0101981 0)
(0.291298 -0.010422 0)
(0.30612 -0.0105813 0)
(0.320829 -0.010676 0)
(0.335337 -0.0107074 0)
(0.349563 -0.0106786 0)
(0.363436 -0.0105933 0)
(0.376896 -0.0104564 0)
(0.389892 -0.0102728 0)
(0.402385 -0.0100478 0)
(0.414342 -0.00978673 0)
(0.425741 -0.00949475 0)
(0.436568 -0.00917675 0)
(0.446814 -0.00883733 0)
(0.456478 -0.00848071 0)
(0.465564 -0.00811077 0)
(0.474078 -0.00773099 0)
(0.482034 -0.00734451 0)
(0.489445 -0.0069541 0)
(0.49633 -0.00656222 0)
(0.502707 -0.00617102 0)
(0.508597 -0.00578236 0)
(0.514024 -0.00539784 0)
(0.519009 -0.00501883 0)
(0.523577 -0.00464649 0)
(0.527751 -0.00428175 0)
(0.531557 -0.00392535 0)
(0.535017 -0.00357783 0)
(0.538157 -0.00323958 0)
(0.541 -0.0029108 0)
(0.54357 -0.00259151 0)
(0.545889 -0.00228153 0)
(0.54798 -0.00198051 0)
(0.549865 -0.00168789 0)
(0.551565 -0.00140287 0)
(0.5531 -0.00112445 0)
(0.55449 -0.000851359 0)
(0.555753 -0.000582048 0)
(0.556906 -0.00031464 0)
(0.557967 -4.696e-05 0)
(0.55895 0.000223521 0)
(0.55987 0.000499791 0)
(0.56074 0.00078553 0)
(0.561571 0.0010852 0)
(0.562373 0.00140415 0)
(0.563155 0.00174885 0)
(0.563923 0.00212711 0)
(0.564679 0.00254853 0)
(0.565424 0.00302495 0)
(0.566155 0.0035712 0)
(0.566866 0.00420613 0)
(0.567543 0.00495415 0)
(0.56817 0.00584741 0)
(0.568719 0.00692923 0)
(0.569155 0.00825936 0)
(0.569434 0.00992225 0)
(0.569498 0.0120403 0)
(0.569281 0.0147954 0)
(0.568717 0.0184639 0)
(0.567775 0.0234726 0)
(0.566528 0.0304863 0)
(0.565339 0.040547 0)
(0.565305 0.0551964 0)
(0.57023 0.0757261 0)
(0.100549 -0.0015151 0)
(0.103446 -0.00275867 0)
(0.10796 -0.00383788 0)
(0.113706 -0.00480535 0)
(0.120551 -0.00569794 0)
(0.128374 -0.00654043 0)
(0.137081 -0.00735136 0)
(0.146606 -0.00814443 0)
(0.156899 -0.00892815 0)
(0.167921 -0.00970578 0)
(0.179634 -0.0104755 0)
(0.191996 -0.0112308 0)
(0.204957 -0.0119613 0)
(0.218458 -0.0126546 0)
(0.232424 -0.0132968 0)
(0.246773 -0.0138749 0)
(0.26141 -0.0143774 0)
(0.276236 -0.0147951 0)
(0.29115 -0.015122 0)
(0.306051 -0.015355 0)
(0.320841 -0.0154936 0)
(0.33543 -0.0155401 0)
(0.349738 -0.0154988 0)
(0.363691 -0.0153752 0)
(0.377228 -0.0151764 0)
(0.390298 -0.0149095 0)
(0.40286 -0.0145825 0)
(0.414881 -0.0142029 0)
(0.426339 -0.0137784 0)
(0.43722 -0.013316 0)
(0.447514 -0.0128224 0)
(0.457221 -0.0123038 0)
(0.466344 -0.0117659 0)
(0.474891 -0.0112136 0)
(0.482874 -0.0106516 0)
(0.490307 -0.0100839 0)
(0.497209 -0.00951393 0)
(0.503599 -0.00894492 0)
(0.509498 -0.00837953 0)
(0.514928 -0.00782009 0)
(0.519913 -0.00726856 0)
(0.524476 -0.00672658 0)
(0.528642 -0.00619547 0)
(0.532434 -0.0056763 0)
(0.535877 -0.00516986 0)
(0.538996 -0.00467668 0)
(0.541813 -0.00419702 0)
(0.544352 -0.00373086 0)
(0.546636 -0.00327795 0)
(0.548688 -0.00283773 0)
(0.550528 -0.00240939 0)
(0.552179 -0.00199177 0)
(0.553659 -0.0015834 0)
(0.554989 -0.00118242 0)
(0.556186 -0.000786576 0)
(0.557268 -0.000393152 0)
(0.558252 9.19595e-07 0)
(0.559152 0.00039923 0)
(0.559984 0.000806034 0)
(0.560759 0.00122656 0)
(0.561491 0.00166708 0)
(0.562189 0.00213509 0)
(0.562861 0.00263954 0)
(0.563516 0.00319121 0)
(0.564158 0.00380314 0)
(0.564788 0.00449132 0)
(0.565409 0.00527546 0)
(0.566017 0.00618025 0)
(0.566607 0.00723697 0)
(0.56717 0.00848582 0)
(0.567697 0.00997931 0)
(0.568173 0.011787 0)
(0.568587 0.0140023 0)
(0.568934 0.0167523 0)
(0.569223 0.0202104 0)
(0.569505 0.0246134 0)
(0.569906 0.0302785 0)
(0.570701 0.0376127 0)
(0.572424 0.0470879 0)
(0.576004 0.0590943 0)
(0.583041 0.073348 0)
(0.100471 -0.0019723 0)
(0.103306 -0.00363945 0)
(0.107735 -0.00507859 0)
(0.113406 -0.00637029 0)
(0.120185 -0.00756188 0)
(0.12795 -0.00868642 0)
(0.136608 -0.00976899 0)
(0.146093 -0.0108281 0)
(0.156357 -0.0118753 0)
(0.167361 -0.0129151 0)
(0.179069 -0.0139452 0)
(0.191441 -0.0149569 0)
(0.204429 -0.0159364 0)
(0.217973 -0.0168666 0)
(0.232001 -0.017729 0)
(0.246426 -0.0185058 0)
(0.261155 -0.0191813 0)
(0.276085 -0.0197432 0)
(0.291112 -0.0201832 0)
(0.306131 -0.020497 0)
(0.321044 -0.0206841 0)
(0.335756 -0.0207475 0)
(0.350185 -0.0206929 0)
(0.364256 -0.0205279 0)
(0.377906 -0.0202618 0)
(0.391082 -0.0199046 0)
(0.403743 -0.0194667 0)
(0.415856 -0.0189584 0)
(0.427397 -0.0183899 0)
(0.438352 -0.0177707 0)
(0.448714 -0.0171098 0)
(0.45848 -0.0164155 0)
(0.467654 -0.0156954 0)
(0.476244 -0.0149561 0)
(0.484263 -0.0142038 0)
(0.491726 -0.0134438 0)
(0.498651 -0.0126808 0)
(0.505057 -0.0119191 0)
(0.510966 -0.0111621 0)
(0.516401 -0.0104129 0)
(0.521384 -0.00967419 0)
(0.525941 -0.00894802 0)
(0.530094 -0.00823619 0)
(0.533868 -0.00754008 0)
(0.537288 -0.00686071 0)
(0.540378 -0.00619872 0)
(0.543162 -0.00555443 0)
(0.545662 -0.0049278 0)
(0.547902 -0.00431846 0)
(0.549904 -0.00372566 0)
(0.551689 -0.00314827 0)
(0.553279 -0.00258473 0)
(0.554693 -0.00203307 0)
(0.55595 -0.00149082 0)
(0.557069 -0.000954977 0)
(0.558066 -0.000422 0)
(0.558959 0.000112079 0)
(0.559763 0.000651834 0)
(0.560493 0.00120283 0)
(0.561161 0.00177181 0)
(0.56178 0.00236676 0)
(0.562361 0.00299712 0)
(0.562914 0.00367407 0)
(0.563447 0.00441093 0)
(0.563968 0.0052236 0)
(0.564481 0.00613125 0)
(0.564992 0.00715713 0)
(0.565503 0.00832968 0)
(0.566018 0.00968397 0)
(0.566539 0.0112637 0)
(0.567071 0.0131234 0)
(0.567622 0.0153321 0)
(0.56821 0.0179765 0)
(0.568867 0.0211658 0)
(0.569653 0.0250346 0)
(0.570672 0.0297441 0)
(0.5721 0.0354747 0)
(0.574213 0.0424015 0)
(0.577421 0.0506354 0)
(0.58228 0.0600982 0)
(0.589438 0.0702892 0)
(0.100393 -0.00243914 0)
(0.103167 -0.00455866 0)
(0.107501 -0.00638325 0)
(0.113084 -0.0080237 0)
(0.119784 -0.00953749 0)
(0.127481 -0.0109662 0)
(0.136082 -0.0123419 0)
(0.145522 -0.0136887 0)
(0.155753 -0.0150213 0)
(0.166741 -0.0163461 0)
(0.178452 -0.01766 0)
(0.190848 -0.0189521 0)
(0.203884 -0.0202045 0)
(0.2175 -0.0213952 0)
(0.231624 -0.0225002 0)
(0.246169 -0.0234963 0)
(0.261035 -0.0243631 0)
(0.276119 -0.0250844 0)
(0.291311 -0.0256495 0)
(0.306503 -0.0260527 0)
(0.321591 -0.0262935 0)
(0.336478 -0.0263756 0)
(0.351077 -0.0263065 0)
(0.365311 -0.026096 0)
(0.379116 -0.0257561 0)
(0.392437 -0.0252997 0)
(0.405231 -0.0247402 0)
(0.417465 -0.024091 0)
(0.429116 -0.0233649 0)
(0.440169 -0.0225744 0)
(0.450617 -0.0217308 0)
(0.460457 -0.0208448 0)
(0.469695 -0.0199259 0)
(0.47834 -0.0189828 0)
(0.486403 -0.0180232 0)
(0.493901 -0.0170538 0)
(0.500852 -0.0160807 0)
(0.507276 -0.0151092 0)
(0.513195 -0.0141436 0)
(0.518632 -0.0131879 0)
(0.523611 -0.0122453 0)
(0.528156 -0.0113185 0)
(0.532291 -0.0104097 0)
(0.536041 -0.00952055 0)
(0.539431 -0.00865234 0)
(0.542484 -0.00780584 0)
(0.545225 -0.00698141 0)
(0.547677 -0.00617897 0)
(0.549862 -0.00539799 0)
(0.551803 -0.00463751 0)
(0.553521 -0.00389605 0)
(0.555038 -0.00317164 0)
(0.556373 -0.00246178 0)
(0.557545 -0.00176337 0)
(0.558573 -0.00107269 0)
(0.559473 -0.000385377 0)
(0.560263 0.00030339 0)
(0.560959 0.000999104 0)
(0.561575 0.00170859 0)
(0.562125 0.00243996 0)
(0.562622 0.00320274 0)
(0.563079 0.004008 0)
(0.563506 0.0048687 0)
(0.563913 0.00580006 0)
(0.564311 0.00681997 0)
(0.564709 0.00794953 0)
(0.565114 0.00921377 0)
(0.565538 0.0106424 0)
(0.565991 0.0122709 0)
(0.566485 0.0141417 0)
(0.567039 0.0163051 0)
(0.567677 0.018821 0)
(0.568436 0.0217591 0)
(0.56937 0.0251993 0)
(0.570559 0.0292283 0)
(0.572114 0.0339335 0)
(0.574195 0.0393884 0)
(0.577009 0.0456273 0)
(0.580814 0.0526041 0)
(0.585888 0.0601343 0)
(0.592457 0.0678269 0)
(0.100313 -0.00291649 0)
(0.103033 -0.00551594 0)
(0.10727 -0.00775244 0)
(0.112756 -0.00976746 0)
(0.119371 -0.0116285 0)
(0.126993 -0.0133855 0)
(0.135531 -0.0150784 0)
(0.144923 -0.0167371 0)
(0.155125 -0.0183805 0)
(0.166104 -0.0200166 0)
(0.177832 -0.0216421 0)
(0.190276 -0.0232432 0)
(0.203392 -0.0247978 0)
(0.217122 -0.0262779 0)
(0.231392 -0.0276529 0)
(0.246112 -0.0288934 0)
(0.261181 -0.0299735 0)
(0.276485 -0.0308726 0)
(0.291911 -0.0315768 0)
(0.307343 -0.0320793 0)
(0.322672 -0.0323791 0)
(0.337796 -0.0324813 0)
(0.352623 -0.0323952 0)
(0.367075 -0.0321334 0)
(0.381082 -0.031711 0)
(0.394589 -0.0311441 0)
(0.407553 -0.0304497 0)
(0.419941 -0.0296443 0)
(0.431729 -0.0287442 0)
(0.442902 -0.0277647 0)
(0.453454 -0.0267201 0)
(0.463384 -0.0256233 0)
(0.472697 -0.0244863 0)
(0.481403 -0.0233197 0)
(0.489515 -0.022133 0)
(0.497051 -0.0209345 0)
(0.504029 -0.0197316 0)
(0.510469 -0.0185307 0)
(0.516396 -0.0173371 0)
(0.521831 -0.0161557 0)
(0.5268 -0.0149903 0)
(0.531326 -0.0138442 0)
(0.535435 -0.0127199 0)
(0.539152 -0.0116196 0)
(0.542501 -0.0105446 0)
(0.545507 -0.00949598 0)
(0.548193 -0.00847397 0)
(0.550584 -0.00747848 0)
(0.552702 -0.00650882 0)
(0.55457 -0.00556376 0)
(0.556208 -0.0046415 0)
(0.557639 -0.00373964 0)
(0.558881 -0.00285516 0)
(0.559955 -0.00198431 0)
(0.560879 -0.00112263 0)
(0.561669 -0.000265146 0)
(0.562344 0.000593742 0)
(0.56292 0.00146045 0)
(0.563412 0.00234294 0)
(0.563835 0.00325048 0)
(0.564202 0.00419376 0)
(0.564528 0.00518509 0)
(0.564824 0.00623863 0)
(0.565103 0.00737069 0)
(0.565378 0.00860006 0)
(0.565661 0.00994839 0)
(0.565966 0.0114406 0)
(0.566307 0.0131052 0)
(0.566703 0.0149751 0)
(0.567174 0.0170874 0)
(0.567747 0.0194839 0)
(0.568457 0.0222104 0)
(0.569348 0.0253158 0)
(0.57048 0.0288493 0)
(0.57193 0.0328555 0)
(0.573795 0.0373666 0)
(0.576191 0.0423904 0)
(0.579253 0.0478939 0)
(0.583118 0.0537834 0)
(0.587902 0.0598848 0)
(0.593648 0.0659356 0)
(0.100232 -0.00340597 0)
(0.102907 -0.00651211 0)
(0.107049 -0.00918792 0)
(0.112437 -0.0116045 0)
(0.118962 -0.0138397 0)
(0.126506 -0.0159515 0)
(0.134982 -0.0179883 0)
(0.144328 -0.0199865 0)
(0.154508 -0.0219698 0)
(0.165495 -0.0239486 0)
(0.177265 -0.0259191 0)
(0.189791 -0.0278645 0)
(0.203034 -0.0297573 0)
(0.216937 -0.0315623 0)
(0.231423 -0.0332413 0)
(0.246397 -0.0347571 0)
(0.26175 -0.036077 0)
(0.277361 -0.0371754 0)
(0.293106 -0.0380349 0)
(0.308862 -0.0386469 0)
(0.32451 -0.0390108 0)
(0.339944 -0.0391329 0)
(0.355065 -0.0390251 0)
(0.369791 -0.0387033 0)
(0.384051 -0.0381862 0)
(0.397789 -0.037494 0)
(0.41096 -0.0366474 0)
(0.423531 -0.0356669 0)
(0.43548 -0.0345724 0)
(0.446793 -0.0333826 0)
(0.457464 -0.0321147 0)
(0.467495 -0.0307845 0)
(0.47689 -0.0294065 0)
(0.485662 -0.0279934 0)
(0.493825 -0.0265567 0)
(0.501397 -0.0251062 0)
(0.508398 -0.0236508 0)
(0.514851 -0.022198 0)
(0.520778 -0.0207544 0)
(0.526203 -0.0193254 0)
(0.531152 -0.0179157 0)
(0.53565 -0.0165292 0)
(0.539722 -0.0151687 0)
(0.543394 -0.0138367 0)
(0.54669 -0.0125349 0)
(0.549636 -0.0112643 0)
(0.552255 -0.0100251 0)
(0.554572 -0.00881733 0)
(0.556609 -0.00763999 0)
(0.558388 -0.00649163 0)
(0.559933 -0.00537012 0)
(0.561263 -0.00427262 0)
(0.5624 -0.00319557 0)
(0.563361 -0.00213463 0)
(0.564167 -0.00108463 0)
(0.564835 -4.0237e-05 0)
(0.565383 0.00100474 0)
(0.565828 0.00205773 0)
(0.566186 0.00312761 0)
(0.566472 0.00422453 0)
(0.566702 0.00535992 0)
(0.56689 0.00654678 0)
(0.56705 0.00779979 0)
(0.567197 0.00913547 0)
(0.567347 0.0105724 0)
(0.567515 0.0121314 0)
(0.567718 0.0138355 0)
(0.567975 0.0157102 0)
(0.568309 0.0177833 0)
(0.568746 0.0200845 0)
(0.569315 0.0226447 0)
(0.570056 0.0254951 0)
(0.571012 0.0286644 0)
(0.572239 0.0321764 0)
(0.573799 0.0360452 0)
(0.575763 0.040269 0)
(0.578207 0.0448235 0)
(0.581206 0.0496531 0)
(0.58482 0.0546645 0)
(0.589082 0.0597239 0)
(0.593966 0.0646663 0)
(0.100147 -0.00390988 0)
(0.10279 -0.00754917 0)
(0.106845 -0.0106927 0)
(0.112135 -0.0135393 0)
(0.118572 -0.0161773 0)
(0.126041 -0.0186731 0)
(0.134457 -0.0210836 0)
(0.143767 -0.023453 0)
(0.15394 -0.0258109 0)
(0.164959 -0.0281701 0)
(0.176809 -0.0305268 0)
(0.189471 -0.0328605 0)
(0.202909 -0.0351365 0)
(0.217066 -0.0373111 0)
(0.231861 -0.0393362 0)
(0.247191 -0.0411648 0)
(0.262934 -0.0427562 0)
(0.278958 -0.0440784 0)
(0.295125 -0.0451104 0)
(0.3113 -0.045842 0)
(0.327356 -0.0462729 0)
(0.343176 -0.0464117 0)
(0.35866 -0.0462735 0)
(0.373718 -0.0458784 0)
(0.388281 -0.0452496 0)
(0.402289 -0.0444119 0)
(0.415699 -0.0433908 0)
(0.428478 -0.0422112 0)
(0.440607 -0.040897 0)
(0.452072 -0.0394706 0)
(0.462871 -0.0379528 0)
(0.473005 -0.0363625 0)
(0.482484 -0.0347165 0)
(0.49132 -0.0330301 0)
(0.499529 -0.0313166 0)
(0.507131 -0.0295879 0)
(0.514148 -0.027854 0)
(0.520603 -0.0261239 0)
(0.526519 -0.0244051 0)
(0.531924 -0.0227039 0)
(0.536841 -0.0210258 0)
(0.541298 -0.019375 0)
(0.54532 -0.0177551 0)
(0.548933 -0.0161686 0)
(0.552162 -0.0146174 0)
(0.555033 -0.0131027 0)
(0.55757 -0.0116248 0)
(0.559798 -0.0101833 0)
(0.561739 -0.00877735 0)
(0.563417 -0.0074051 0)
(0.564853 -0.00606411 0)
(0.566069 -0.00475114 0)
(0.567085 -0.00346215 0)
(0.567922 -0.00219227 0)
(0.568597 -0.000935826 0)
(0.569131 0.000312974 0)
(0.569542 0.00156057 0)
(0.569845 0.00281532 0)
(0.57006 0.00408677 0)
(0.570201 0.00538554 0)
(0.570285 0.00672342 0)
(0.570329 0.00811349 0)
(0.570348 0.00957024 0)
(0.570359 0.0111096 0)
(0.570379 0.0127488 0)
(0.570426 0.0145067 0)
(0.57052 0.0164034 0)
(0.570683 0.0184598 0)
(0.570939 0.0206976 0)
(0.571316 0.0231383 0)
(0.571845 0.0258023 0)
(0.57256 0.0287072 0)
(0.573502 0.031866 0)
(0.574714 0.0352847 0)
(0.576242 0.0389586 0)
(0.578133 0.0428693 0)
(0.58043 0.0469813 0)
(0.583166 0.051239 0)
(0.586361 0.0555665 0)
(0.590008 0.0598696 0)
(0.594061 0.064048 0)
(0.100058 -0.00443104 0)
(0.102682 -0.00863027 0)
(0.10666 -0.0122714 0)
(0.111859 -0.0155778 0)
(0.118212 -0.0186496 0)
(0.125612 -0.0215612 0)
(0.133979 -0.0243793 0)
(0.143268 -0.0271572 0)
(0.15346 -0.0299311 0)
(0.164551 -0.0327178 0)
(0.176537 -0.0355127 0)
(0.18941 -0.0382903 0)
(0.203136 -0.041007 0)
(0.217658 -0.0436072 0)
(0.232884 -0.04603 0)
(0.248698 -0.0482164 0)
(0.26496 -0.0501155 0)
(0.281519 -0.0516881 0)
(0.298222 -0.0529091 0)
(0.31492 -0.0537672 0)
(0.331473 -0.0542637 0)
(0.347757 -0.0544102 0)
(0.363665 -0.0542267 0)
(0.379107 -0.0537383 0)
(0.394011 -0.052974 0)
(0.408318 -0.0519642 0)
(0.421987 -0.0507397 0)
(0.434988 -0.0493307 0)
(0.447303 -0.0477656 0)
(0.458923 -0.0460711 0)
(0.469847 -0.0442716 0)
(0.48008 -0.0423893 0)
(0.489633 -0.040444 0)
(0.498522 -0.0384533 0)
(0.506766 -0.0364327 0)
(0.514385 -0.0343957 0)
(0.521404 -0.0323541 0)
(0.527846 -0.030318 0)
(0.533738 -0.0282959 0)
(0.539106 -0.0262951 0)
(0.543977 -0.0243217 0)
(0.548377 -0.0223804 0)
(0.552333 -0.0204752 0)
(0.555872 -0.0186089 0)
(0.559019 -0.0167836 0)
(0.561801 -0.0150005 0)
(0.564242 -0.0132599 0)
(0.566367 -0.0115615 0)
(0.568198 -0.009904 0)
(0.56976 -0.00828544 0)
(0.571075 -0.00670306 0)
(0.572164 -0.00515325 0)
(0.573048 -0.00363158 0)
(0.573748 -0.00213279 0)
(0.574281 -0.000651091 0)
(0.574672 0.000819847 0)
(0.574935 0.00228695 0)
(0.57509 0.00375903 0)
(0.575153 0.00524594 0)
(0.575143 0.0067584 0)
(0.575076 0.00830805 0)
(0.57497 0.00990754 0)
(0.574843 0.0115705 0)
(0.574711 0.0133115 0)
(0.574594 0.0151459 0)
(0.574512 0.0170896 0)
(0.574486 0.0191589 0)
(0.574537 0.0213699 0)
(0.574692 0.0237381 0)
(0.574975 0.0262773 0)
(0.575415 0.0289987 0)
(0.576043 0.03191 0)
(0.57689 0.0350131 0)
(0.577988 0.0383031 0)
(0.579367 0.0417665 0)
(0.581054 0.0453793 0)
(0.583069 0.0491061 0)
(0.585424 0.0529004 0)
(0.588115 0.0567057 0)
(0.59112 0.0604588 0)
(0.594395 0.0640996 0)
(0.0999629 -0.00497266 0)
(0.102582 -0.00975971 0)
(0.106498 -0.0139297 0)
(0.111614 -0.017728 0)
(0.117892 -0.021267 0)
(0.125234 -0.0246302 0)
(0.133567 -0.027895 0)
(0.142861 -0.0311258 0)
(0.153111 -0.0343674 0)
(0.164331 -0.037641 0)
(0.176535 -0.0409409 0)
(0.189723 -0.0442342 0)
(0.203866 -0.0474645 0)
(0.218896 -0.0505601 0)
(0.234706 -0.0534429 0)
(0.251156 -0.0560386 0)
(0.268083 -0.058284 0)
(0.285312 -0.0601324 0)
(0.30267 -0.0615548 0)
(0.319989 -0.0625402 0)
(0.33712 -0.0630929 0)
(0.353931 -0.0632296 0)
(0.370311 -0.0629765 0)
(0.38617 -0.0623657 0)
(0.401435 -0.0614331 0)
(0.416052 -0.0602161 0)
(0.429982 -0.0587516 0)
(0.443201 -0.0570757 0)
(0.455693 -0.055222 0)
(0.467453 -0.0532217 0)
(0.478486 -0.0511034 0)
(0.488799 -0.0488925 0)
(0.498408 -0.046612 0)
(0.50733 -0.044282 0)
(0.515587 -0.04192 0)
(0.523203 -0.0395415 0)
(0.530203 -0.0371597 0)
(0.536613 -0.0347859 0)
(0.54246 -0.0324298 0)
(0.547773 -0.0300993 0)
(0.552579 -0.0278011 0)
(0.556905 -0.0255406 0)
(0.560779 -0.0233221 0)
(0.564229 -0.0211486 0)
(0.567279 -0.0190224 0)
(0.569958 -0.0169446 0)
(0.572289 -0.0149157 0)
(0.574298 -0.0129351 0)
(0.576008 -0.0110014 0)
(0.577443 -0.00911256 0)
(0.578626 -0.00726542 0)
(0.579579 -0.00545612 0)
(0.580322 -0.00367988 0)
(0.580877 -0.00193106 0)
(0.581262 -0.000204479 0)
(0.581503 0.00150657 0)
(0.581614 0.0032099 0)
(0.581614 0.00491465 0)
(0.581522 0.00663052 0)
(0.581357 0.00836788 0)
(0.581135 0.0101378 0)
(0.580876 0.011952 0)
(0.580597 0.0138227 0)
(0.580317 0.0157627 0)
(0.580056 0.0177849 0)
(0.579834 0.019902 0)
(0.579672 0.0221264 0)
(0.579592 0.0244696 0)
(0.579616 0.0269413 0)
(0.579769 0.0295492 0)
(0.580074 0.032298 0)
(0.580555 0.0351881 0)
(0.581235 0.0382153 0)
(0.582137 0.0413696 0)
(0.583277 0.0446345 0)
(0.58467 0.0479868 0)
(0.586321 0.0513964 0)
(0.588228 0.0548275 0)
(0.59038 0.0582403 0)
(0.592752 0.0615935 0)
(0.595304 0.0648516 0)
(0.0998595 -0.00553835 0)
(0.10249 -0.010943 0)
(0.106359 -0.0156752 0)
(0.111403 -0.0199999 0)
(0.117619 -0.0240429 0)
(0.12492 -0.027898 0)
(0.133245 -0.0316558 0)
(0.14258 -0.0353945 0)
(0.152946 -0.0391697 0)
(0.164381 -0.0430078 0)
(0.176917 -0.0468999 0)
(0.190564 -0.0508014 0)
(0.205288 -0.0546372 0)
(0.221004 -0.0583126 0)
(0.237578 -0.061727 0)
(0.254836 -0.064787 0)
(0.272582 -0.0674159 0)
(0.290612 -0.0695592 0)
(0.308729 -0.0711861 0)
(0.326752 -0.0722882 0)
(0.344519 -0.0728753 0)
(0.361894 -0.072972 0)
(0.378767 -0.0726128 0)
(0.395047 -0.071839 0)
(0.410667 -0.0706949 0)
(0.425579 -0.0692259 0)
(0.439749 -0.0674762 0)
(0.453158 -0.0654881 0)
(0.465797 -0.0633013 0)
(0.477666 -0.0609516 0)
(0.488774 -0.0584719 0)
(0.499135 -0.0558912 0)
(0.508766 -0.0532355 0)
(0.51769 -0.0505274 0)
(0.52593 -0.0477867 0)
(0.533514 -0.0450304 0)
(0.540467 -0.0422733 0)
(0.546819 -0.0395278 0)
(0.552599 -0.0368045 0)
(0.557834 -0.0341122 0)
(0.562555 -0.031458 0)
(0.566788 -0.0288479 0)
(0.570564 -0.0262862 0)
(0.573908 -0.0237765 0)
(0.576848 -0.0213209 0)
(0.579411 -0.0189207 0)
(0.581622 -0.0165762 0)
(0.583505 -0.0142869 0)
(0.585086 -0.0120512 0)
(0.586387 -0.00986681 0)
(0.587432 -0.00773052 0)
(0.588243 -0.00563828 0)
(0.588842 -0.00358516 0)
(0.589249 -0.00156547 0)
(0.589489 0.000426319 0)
(0.589578 0.00239637 0)
(0.589535 0.00435332 0)
(0.589381 0.00630624 0)
(0.589134 0.00826443 0)
(0.588813 0.0102376 0)
(0.588436 0.0122359 0)
(0.588022 0.0142698 0)
(0.58759 0.0163499 0)
(0.587158 0.0184869 0)
(0.586747 0.0206909 0)
(0.586375 0.0229719 0)
(0.586063 0.0253384 0)
(0.58583 0.0277979 0)
(0.585698 0.0303559 0)
(0.585686 0.0330154 0)
(0.585813 0.0357767 0)
(0.586098 0.0386365 0)
(0.586556 0.0415875 0)
(0.587201 0.0446185 0)
(0.588042 0.0477136 0)
(0.589084 0.0508531 0)
(0.590325 0.0540137 0)
(0.591758 0.0571693 0)
(0.593368 0.0602927 0)
(0.595132 0.0633576 0)
(0.597019 0.0663436 0)
(0.099746 -0.00613211 0)
(0.102404 -0.0121867 0)
(0.106244 -0.0175173 0)
(0.111231 -0.0224061 0)
(0.117402 -0.0269944 0)
(0.124685 -0.0313886 0)
(0.133037 -0.0356961 0)
(0.14247 -0.0400129 0)
(0.153037 -0.0444082 0)
(0.164806 -0.0489133 0)
(0.177831 -0.0535119 0)
(0.192124 -0.0581397 0)
(0.207636 -0.0626931 0)
(0.224248 -0.0670459 0)
(0.241783 -0.0710684 0)
(0.260022 -0.0746448 0)
(0.278729 -0.0776848 0)
(0.29767 -0.0801286 0)
(0.316623 -0.081947 0)
(0.335395 -0.0831379 0)
(0.353819 -0.0837208 0)
(0.371758 -0.0837312 0)
(0.389105 -0.0832149 0)
(0.405776 -0.0822242 0)
(0.421713 -0.0808136 0)
(0.436873 -0.0790375 0)
(0.451233 -0.0769484 0)
(0.46478 -0.0745957 0)
(0.477513 -0.0720246 0)
(0.48944 -0.0692765 0)
(0.500574 -0.0663882 0)
(0.510933 -0.0633926 0)
(0.520541 -0.0603184 0)
(0.529423 -0.0571908 0)
(0.537606 -0.0540315 0)
(0.545119 -0.0508592 0)
(0.551993 -0.0476899 0)
(0.558256 -0.0445371 0)
(0.563939 -0.0414122 0)
(0.569073 -0.0383247 0)
(0.573686 -0.0352822 0)
(0.577808 -0.0322909 0)
(0.581467 -0.0293555 0)
(0.584692 -0.0264795 0)
(0.58751 -0.0236652 0)
(0.589946 -0.020914 0)
(0.592028 -0.0182261 0)
(0.59378 -0.0156008 0)
(0.595227 -0.0130365 0)
(0.596392 -0.0105309 0)
(0.597298 -0.00808063 0)
(0.597968 -0.00568162 0)
(0.598424 -0.00332902 0)
(0.598686 -0.0010177 0)
(0.598781 0.0012588 0)
(0.598723 0.003507 0)
(0.598533 0.00573516 0)
(0.59823 0.00795187 0)
(0.597834 0.0101658 0)
(0.597364 0.0123858 0)
(0.596837 0.0146209 0)
(0.596273 0.0168802 0)
(0.59569 0.0191725 0)
(0.595106 0.0215062 0)
(0.594542 0.0238894 0)
(0.594014 0.0263289 0)
(0.593541 0.0288305 0)
(0.593142 0.0313986 0)
(0.592832 0.0340356 0)
(0.59263 0.0367417 0)
(0.592549 0.0395146 0)
(0.592602 0.0423494 0)
(0.592801 0.0452384 0)
(0.593152 0.048171 0)
(0.59366 0.051134 0)
(0.594324 0.0541119 0)
(0.595139 0.0570875 0)
(0.596097 0.0600428 0)
(0.597182 0.0629597 0)
(0.598377 0.0658219 0)
(0.599656 0.0686182 0)
(0.0996202 -0.00675843 0)
(0.102323 -0.0134992 0)
(0.106154 -0.0194675 0)
(0.111102 -0.0249627 0)
(0.11725 -0.0301435 0)
(0.124549 -0.0351339 0)
(0.13298 -0.0400633 0)
(0.142592 -0.0450509 0)
(0.153482 -0.0501824 0)
(0.165752 -0.0554909 0)
(0.179473 -0.0609439 0)
(0.194647 -0.0664442 0)
(0.211187 -0.071846 0)
(0.228921 -0.0769803 0)
(0.24761 -0.0816826 0)
(0.266984 -0.0858139 0)
(0.286761 -0.0892732 0)
(0.306676 -0.0920005 0)
(0.326493 -0.093974 0)
(0.34601 -0.0952034 0)
(0.365061 -0.0957225 0)
(0.383516 -0.0955816 0)
(0.401275 -0.0948409 0)
(0.418268 -0.0935655 0)
(0.434444 -0.0918216 0)
(0.449775 -0.0896737 0)
(0.464246 -0.087183 0)
(0.477855 -0.0844062 0)
(0.490608 -0.0813946 0)
(0.50252 -0.0781946 0)
(0.513611 -0.0748473 0)
(0.523907 -0.0713889 0)
(0.533433 -0.0678508 0)
(0.542219 -0.0642606 0)
(0.550296 -0.0606417 0)
(0.557695 -0.0570142 0)
(0.564448 -0.0533953 0)
(0.570586 -0.0497994 0)
(0.576142 -0.0462384 0)
(0.581146 -0.0427223 0)
(0.585628 -0.039259 0)
(0.589618 -0.0358551 0)
(0.593145 -0.0325153 0)
(0.596237 -0.0292432 0)
(0.598921 -0.0260412 0)
(0.601225 -0.0229105 0)
(0.603173 -0.0198514 0)
(0.604792 -0.0168631 0)
(0.606104 -0.013944 0)
(0.607135 -0.0110918 0)
(0.607907 -0.00830298 0)
(0.608442 -0.00557362 0)
(0.608763 -0.00289888 0)
(0.60889 -0.000274552 0)
(0.608849 0.0023061 0)
(0.608655 0.00485045 0)
(0.608328 0.00736649 0)
(0.607889 0.00986203 0)
(0.607355 0.0123449 0)
(0.606746 0.0148229 0)
(0.606079 0.0173038 0)
(0.605374 0.0197952 0)
(0.604647 0.0223043 0)
(0.603918 0.0248375 0)
(0.603203 0.0274008 0)
(0.602518 0.029999 0)
(0.601881 0.0326355 0)
(0.601307 0.0353126 0)
(0.60081 0.0380308 0)
(0.600403 0.0407889 0)
(0.600098 0.0435837 0)
(0.599902 0.04641 0)
(0.599824 0.049261 0)
(0.599866 0.0521278 0)
(0.60003 0.0550003 0)
(0.600314 0.0578672 0)
(0.600711 0.0607164 0)
(0.601212 0.063536 0)
(0.601806 0.0663144 0)
(0.602477 0.0690417 0)
(0.603208 0.0717126 0)
(0.0994794 -0.00742243 0)
(0.102246 -0.0148903 0)
(0.106091 -0.0215402 0)
(0.111021 -0.02769 0)
(0.117176 -0.0335201 0)
(0.124538 -0.0391784 0)
(0.133123 -0.0448251 0)
(0.143034 -0.0506094 0)
(0.154416 -0.0566341 0)
(0.167411 -0.062926 0)
(0.182089 -0.0694196 0)
(0.198417 -0.0759644 0)
(0.216242 -0.0823545 0)
(0.235314 -0.0883678 0)
(0.255321 -0.0938022 0)
(0.275932 -0.0984995 0)
(0.296828 -0.102355 0)
(0.31772 -0.105317 0)
(0.338363 -0.10738 0)
(0.358559 -0.108571 0)
(0.378152 -0.108944 0)
(0.397022 -0.108567 0)
(0.415087 -0.107518 0)
(0.43229 -0.105877 0)
(0.448596 -0.103723 0)
(0.463988 -0.10113 0)
(0.478465 -0.0981687 0)
(0.492034 -0.0949033 0)
(0.504712 -0.0913911 0)
(0.516521 -0.0876832 0)
(0.527489 -0.0838245 0)
(0.537643 -0.0798543 0)
(0.547018 -0.0758066 0)
(0.555645 -0.0717106 0)
(0.563559 -0.0675915 0)
(0.570793 -0.0634704 0)
(0.57738 -0.0593654 0)
(0.583355 -0.0552913 0)
(0.588748 -0.0512607 0)
(0.593593 -0.0472838 0)
(0.597919 -0.0433688 0)
(0.601756 -0.039522 0)
(0.605134 -0.0357486 0)
(0.608081 -0.032052 0)
(0.610624 -0.0284344 0)
(0.612789 -0.0248972 0)
(0.614602 -0.0214405 0)
(0.616088 -0.0180636 0)
(0.617271 -0.0147648 0)
(0.618174 -0.0115419 0)
(0.61882 -0.00839154 0)
(0.619232 -0.00531005 0)
(0.61943 -0.00229293 0)
(0.619442 0.00066497 0)
(0.619279 0.00356932 0)
(0.618964 0.00642801 0)
(0.618518 0.00924852 0)
(0.617958 0.0120378 0)
(0.617303 0.0148028 0)
(0.616571 0.0175503 0)
(0.615781 0.0202869 0)
(0.614949 0.0230187 0)
(0.614092 0.0257514 0)
(0.613227 0.0284901 0)
(0.612371 0.0312388 0)
(0.611537 0.0340008 0)
(0.61074 0.0367783 0)
(0.609994 0.0395721 0)
(0.609309 0.0423819 0)
(0.608697 0.0452059 0)
(0.608165 0.048041 0)
(0.60772 0.0508828 0)
(0.607365 0.0537258 0)
(0.607104 0.0565633 0)
(0.606935 0.0593881 0)
(0.606855 0.0621924 0)
(0.606859 0.0649684 0)
(0.606939 0.0677083 0)
(0.607085 0.0704052 0)
(0.607286 0.0730535 0)
(0.607528 0.0756517 0)
(0.0993207 -0.00813014 0)
(0.102174 -0.0163723 0)
(0.106057 -0.023754 0)
(0.110998 -0.0306152 0)
(0.1172 -0.0371648 0)
(0.124691 -0.0435856 0)
(0.13354 -0.0500799 0)
(0.143916 -0.056834 0)
(0.156025 -0.0639633 0)
(0.170028 -0.0714695 0)
(0.185971 -0.0792259 0)