/*--------------------------------*- C++ -*----------------------------------*\
  =========                 |
  \\      /  F ield         | OpenFOAM: The Open Source CFD Toolbox
   \\    /   O peration     | Website:  https://openfoam.org
    \\  /    A nd           | Version:  7
     \\/     M anipulation  |
\*---------------------------------------------------------------------------*/
FoamFile
{
    version     2.0;
    format      ascii;
    class       volVectorField;
    location    "6.62";
    object      U;
}
// * * * * * * * * * * * * * * * * * * * * * * * * * * * * * * * * * * * * * //

dimensions      [0 1 -1 0 0 0 0];

internalField   nonuniform List<vector> 
12013
(
(0.100826 -0.00022288 0)
(0.104068 -0.000391735 0)
(0.109046 -0.000539763 0)
(0.115285 -0.000671331 0)
(0.12264 -0.000791599 0)
(0.130979 -0.000904272 0)
(0.1402 -0.00101223 0)
(0.150233 -0.00111775 0)
(0.161028 -0.00122239 0)
(0.172547 -0.00132696 0)
(0.184759 -0.00143146 0)
(0.197627 -0.00153515 0)
(0.211111 -0.00163664 0)
(0.225154 -0.00173414 0)
(0.239689 -0.00182561 0)
(0.254634 -0.00190903 0)
(0.269898 -0.00198259 0)
(0.285381 -0.00204483 0)
(0.30098 -0.00209471 0)
(0.316591 -0.00213163 0)
(0.332113 -0.00215541 0)
(0.347453 -0.00216627 0)
(0.362525 -0.00216474 0)
(0.377251 -0.00215156 0)
(0.391567 -0.00212765 0)
(0.405416 -0.00209404 0)
(0.418753 -0.00205179 0)
(0.431544 -0.00200196 0)
(0.443762 -0.00194562 0)
(0.455388 -0.00188373 0)
(0.466413 -0.00181721 0)
(0.476832 -0.00174693 0)
(0.486646 -0.00167366 0)
(0.495862 -0.00159805 0)
(0.504489 -0.00152076 0)
(0.51254 -0.00144233 0)
(0.520032 -0.00136321 0)
(0.526982 -0.00128383 0)
(0.53341 -0.00120456 0)
(0.539338 -0.00112571 0)
(0.544788 -0.00104752 0)
(0.549782 -0.000970235 0)
(0.554345 -0.000894053 0)
(0.558499 -0.000819104 0)
(0.56227 -0.000745498 0)
(0.565681 -0.000673335 0)
(0.568755 -0.000602674 0)
(0.571517 -0.000533535 0)
(0.573991 -0.000465903 0)
(0.576198 -0.000399738 0)
(0.578162 -0.000334964 0)
(0.579905 -0.000271462 0)
(0.581448 -0.000209063 0)
(0.582812 -0.000147551 0)
(0.584017 -8.66563e-05 0)
(0.585082 -2.60502e-05 0)
(0.586026 3.46342e-05 0)
(0.586866 9.5828e-05 0)
(0.587618 0.000158071 0)
(0.588298 0.000222043 0)
(0.58892 0.000288577 0)
(0.589496 0.000358686 0)
(0.590036 0.000433607 0)
(0.590547 0.000514869 0)
(0.591035 0.000604371 0)
(0.591501 0.0007045 0)
(0.591942 0.000818298 0)
(0.592349 0.000949712 0)
(0.592705 0.00110397 0)
(0.592983 0.00128814 0)
(0.593143 0.00151211 0)
(0.593124 0.00179009 0)
(0.592832 0.00214336 0)
(0.592132 0.00260516 0)
(0.59081 0.00322996 0)
(0.588529 0.00411194 0)
(0.584734 0.00542398 0)
(0.578443 0.00750964 0)
(0.567891 0.0111813 0)
(0.549978 0.0193331 0)
(0.531917 0.0518298 0)
(0.100754 -0.000679207 0)
(0.103979 -0.00119922 0)
(0.108932 -0.00165272 0)
(0.11515 -0.00205513 0)
(0.122487 -0.00242275 0)
(0.13081 -0.00276691 0)
(0.140016 -0.00309646 0)
(0.150036 -0.00341839 0)
(0.160819 -0.0037375 0)
(0.17233 -0.00405626 0)
(0.184536 -0.0043747 0)
(0.197403 -0.00469055 0)
(0.210889 -0.00499965 0)
(0.224938 -0.00529646 0)
(0.239484 -0.00557484 0)
(0.254445 -0.00582867 0)
(0.26973 -0.00605247 0)
(0.285237 -0.00624181 0)
(0.300862 -0.00639352 0)
(0.316503 -0.00650584 0)
(0.332057 -0.00657826 0)
(0.347429 -0.00661142 0)
(0.362534 -0.00660692 0)
(0.377293 -0.00656704 0)
(0.39164 -0.00649458 0)
(0.40552 -0.00639261 0)
(0.418888 -0.00626437 0)
(0.431706 -0.00611308 0)
(0.44395 -0.00594189 0)
(0.455601 -0.0057538 0)
(0.466648 -0.00555158 0)
(0.477087 -0.0053378 0)
(0.48692 -0.00511481 0)
(0.496152 -0.00488467 0)
(0.504793 -0.00464926 0)
(0.512857 -0.00441023 0)
(0.520359 -0.00416903 0)
(0.527318 -0.00392693 0)
(0.533753 -0.00368502 0)
(0.539686 -0.00344424 0)
(0.545139 -0.00320542 0)
(0.550136 -0.00296924 0)
(0.554698 -0.00273625 0)
(0.558851 -0.00250692 0)
(0.562618 -0.00228161 0)
(0.566024 -0.00206059 0)
(0.569091 -0.00184403 0)
(0.571844 -0.00163199 0)
(0.574306 -0.00142446 0)
(0.5765 -0.0012213 0)
(0.578449 -0.00102228 0)
(0.580174 -0.000827025 0)
(0.581697 -0.000635024 0)
(0.583039 -0.000445625 0)
(0.584219 -0.000257999 0)
(0.585256 -7.11313e-05 0)
(0.586169 0.000116093 0)
(0.586975 0.000304946 0)
(0.58769 0.000497057 0)
(0.58833 0.000694489 0)
(0.588908 0.00089977 0)
(0.589436 0.00111597 0)
(0.589925 0.00134685 0)
(0.590383 0.00159701 0)
(0.590815 0.00187217 0)
(0.591223 0.00217947 0)
(0.591604 0.00252799 0)
(0.591951 0.00292941 0)
(0.592251 0.00339912 0)
(0.59248 0.00395776 0)
(0.592605 0.0046338 0)
(0.592573 0.00546764 0)
(0.592314 0.00651851 0)
(0.591721 0.00787653 0)
(0.590645 0.00968429 0)
(0.588873 0.012177 0)
(0.5861 0.015759 0)
(0.581902 0.0211562 0)
(0.575733 0.0297468 0)
(0.567501 0.0442191 0)
(0.565043 0.0695876 0)
(0.100673 -0.0011511 0)
(0.103852 -0.00205479 0)
(0.108751 -0.00283649 0)
(0.114923 -0.00352975 0)
(0.122221 -0.00416299 0)
(0.130509 -0.00475568 0)
(0.139684 -0.00532319 0)
(0.149678 -0.00587766 0)
(0.160439 -0.00642742 0)
(0.171934 -0.00697678 0)
(0.18413 -0.00752585 0)
(0.196994 -0.00807076 0)
(0.210486 -0.00860428 0)
(0.224551 -0.00911688 0)
(0.239122 -0.00959787 0)
(0.254118 -0.0100367 0)
(0.269445 -0.0104237 0)
(0.285004 -0.0107514 0)
(0.300687 -0.0110141 0)
(0.31639 -0.0112088 0)
(0.332009 -0.0113346 0)
(0.34745 -0.0113925 0)
(0.362622 -0.0113854 0)
(0.377449 -0.0113171 0)
(0.391863 -0.0111926 0)
(0.405807 -0.011017 0)
(0.419235 -0.0107961 0)
(0.432111 -0.0105354 0)
(0.444408 -0.0102403 0)
(0.456108 -0.00991593 0)
(0.467201 -0.00956721 0)
(0.477681 -0.00919852 0)
(0.487551 -0.00881388 0)
(0.496816 -0.0084169 0)
(0.505487 -0.00801081 0)
(0.513576 -0.00759844 0)
(0.5211 -0.00718229 0)
(0.528076 -0.00676453 0)
(0.534527 -0.00634707 0)
(0.540471 -0.00593153 0)
(0.545932 -0.00551929 0)
(0.550933 -0.00511151 0)
(0.555497 -0.00470917 0)
(0.559648 -0.00431306 0)
(0.56341 -0.00392379 0)
(0.566807 -0.0035418 0)
(0.569863 -0.00316736 0)
(0.572601 -0.0028006 0)
(0.575045 -0.00244147 0)
(0.577217 -0.00208972 0)
(0.57914 -0.00174492 0)
(0.580836 -0.00140643 0)
(0.582325 -0.00107336 0)
(0.583629 -0.000744592 0)
(0.584767 -0.00041867 0)
(0.585757 -9.38586e-05 0)
(0.586619 0.000231743 0)
(0.587369 0.00056031 0)
(0.588023 0.000894644 0)
(0.588597 0.00123826 0)
(0.589104 0.00159545 0)
(0.589557 0.00197139 0)
(0.589965 0.00237237 0)
(0.590338 0.00280608 0)
(0.590682 0.003282 0)
(0.591 0.00381188 0)
(0.591291 0.00441053 0)
(0.591551 0.00509683 0)
(0.591771 0.00589527 0)
(0.591936 0.00683818 0)
(0.592023 0.00796919 0)
(0.591998 0.0093485 0)
(0.59182 0.0110612 0)
(0.591434 0.0132307 0)
(0.590776 0.0160402 0)
(0.589783 0.0197683 0)
(0.588427 0.0248452 0)
(0.586786 0.0319413 0)
(0.585228 0.0421083 0)
(0.584862 0.0569097 0)
(0.58954 0.0777052 0)
(0.100588 -0.00163283 0)
(0.103703 -0.00295454 0)
(0.108522 -0.00408887 0)
(0.114627 -0.00509539 0)
(0.121865 -0.00601448 0)
(0.1301 -0.00687454 0)
(0.139229 -0.00769812 0)
(0.149183 -0.00850299 0)
(0.159912 -0.00930143 0)
(0.171383 -0.0100998 0)
(0.183567 -0.0108985 0)
(0.196432 -0.0116917 0)
(0.209939 -0.012469 0)
(0.224034 -0.0132165 0)
(0.238651 -0.0139184 0)
(0.253708 -0.0145592 0)
(0.269111 -0.0151248 0)
(0.284757 -0.0156038 0)
(0.300538 -0.0159882 0)
(0.316345 -0.0162733 0)
(0.332074 -0.0164578 0)
(0.347626 -0.0165433 0)
(0.362911 -0.0165338 0)
(0.377847 -0.0164352 0)
(0.392368 -0.0162543 0)
(0.406413 -0.0159991 0)
(0.419937 -0.0156778 0)
(0.432903 -0.0152984 0)
(0.445284 -0.014869 0)
(0.457062 -0.0143971 0)
(0.468224 -0.0138897 0)
(0.478768 -0.0133533 0)
(0.488695 -0.0127937 0)
(0.49801 -0.0122161 0)
(0.506725 -0.0116254 0)
(0.514852 -0.0110255 0)
(0.522409 -0.0104201 0)
(0.529413 -0.00981242 0)
(0.535885 -0.00920511 0)
(0.541846 -0.00860054 0)
(0.547319 -0.00800069 0)
(0.552327 -0.00740727 0)
(0.556894 -0.00682166 0)
(0.561043 -0.00624496 0)
(0.564798 -0.00567803 0)
(0.568185 -0.00512151 0)
(0.571225 -0.00457578 0)
(0.573943 -0.00404098 0)
(0.576363 -0.003517 0)
(0.578506 -0.00300347 0)
(0.580395 -0.00249976 0)
(0.582052 -0.00200491 0)
(0.583497 -0.00151763 0)
(0.584752 -0.00103625 0)
(0.585835 -0.000558678 0)
(0.586766 -8.24605e-05 0)
(0.587562 0.000395101 0)
(0.588241 0.000877146 0)
(0.588819 0.00136771 0)
(0.589311 0.00187177 0)
(0.589731 0.00239536 0)
(0.590092 0.00294572 0)
(0.590404 0.00353157 0)
(0.590678 0.00416348 0)
(0.59092 0.00485436 0)
(0.591136 0.00562005 0)
(0.591329 0.00648023 0)
(0.5915 0.0074596 0)
(0.591645 0.00858954 0)
(0.59176 0.00991049 0)
(0.591836 0.0114753 0)
(0.591863 0.0133541 0)
(0.591832 0.0156411 0)
(0.59174 0.0184643 0)
(0.591601 0.0219987 0)
(0.591467 0.026483 0)
(0.591469 0.0322372 0)
(0.591886 0.0396715 0)
(0.593258 0.049262 0)
(0.596519 0.0614049 0)
(0.603285 0.0758355 0)
(0.1005 -0.00212357 0)
(0.103545 -0.00389557 0)
(0.108267 -0.00540814 0)
(0.114283 -0.00675193 0)
(0.121443 -0.00797883 0)
(0.129609 -0.00912676 0)
(0.138678 -0.0102262 0)
(0.14858 -0.0113011 0)
(0.15927 -0.0123683 0)
(0.170715 -0.0134365 0)
(0.182888 -0.0145063 0)
(0.195762 -0.0155702 0)
(0.2093 -0.016614 0)
(0.223449 -0.0176189 0)
(0.238144 -0.0185634 0)
(0.253301 -0.0194264 0)
(0.268825 -0.0201887 0)
(0.284608 -0.0208347 0)
(0.30054 -0.0213534 0)
(0.316507 -0.0217384 0)
(0.332401 -0.021988 0)
(0.34812 -0.0221042 0)
(0.363568 -0.0220925 0)
(0.378665 -0.0219608 0)
(0.393339 -0.0217186 0)
(0.40753 -0.0213766 0)
(0.42119 -0.0209457 0)
(0.434282 -0.0204371 0)
(0.446779 -0.0198614 0)
(0.458662 -0.0192288 0)
(0.46992 -0.0185488 0)
(0.480549 -0.0178299 0)
(0.490551 -0.0170802 0)
(0.499933 -0.0163066 0)
(0.508705 -0.0155153 0)
(0.516882 -0.014712 0)
(0.52448 -0.0139013 0)
(0.531518 -0.0130876 0)
(0.538017 -0.0122744 0)
(0.543999 -0.0114648 0)
(0.549486 -0.0106615 0)
(0.554502 -0.00986664 0)
(0.55907 -0.0090821 0)
(0.563216 -0.0083093 0)
(0.566962 -0.00754937 0)
(0.570333 -0.0068031 0)
(0.573354 -0.00607096 0)
(0.576046 -0.00535309 0)
(0.578434 -0.00464932 0)
(0.58054 -0.00395916 0)
(0.582387 -0.00328171 0)
(0.583996 -0.00261568 0)
(0.585388 -0.00195934 0)
(0.586584 -0.00131045 0)
(0.587602 -0.000666248 0)
(0.588462 -2.36406e-05 0)
(0.589182 0.00062089 0)
(0.58978 0.00127151 0)
(0.59027 0.00193348 0)
(0.59067 0.00261321 0)
(0.590993 0.00331835 0)
(0.591253 0.00405802 0)
(0.591461 0.00484311 0)
(0.591629 0.00568667 0)
(0.591766 0.0066044 0)
(0.59188 0.0076153 0)
(0.591979 0.00874255 0)
(0.592068 0.0100146 0)
(0.592154 0.0114665 0)
(0.592241 0.0131423 0)
(0.592337 0.0150969 0)
(0.592454 0.0173997 0)
(0.592611 0.0201384 0)
(0.592844 0.0234228 0)
(0.593216 0.0273889 0)
(0.593834 0.0321991 0)
(0.594877 0.0380355 0)
(0.596625 0.0450746 0)
(0.599491 0.0534278 0)
(0.604033 0.063018 0)
(0.610904 0.0733487 0)
(0.100412 -0.00262337 0)
(0.103387 -0.0048759 0)
(0.108 -0.00679333 0)
(0.113914 -0.00849973 0)
(0.120981 -0.0100582 0)
(0.129064 -0.0115165 0)
(0.138062 -0.0129136 0)
(0.147905 -0.0142807 0)
(0.158551 -0.0156395 0)
(0.169971 -0.0170016 0)
(0.182143 -0.018368 0)
(0.195044 -0.0197294 0)
(0.208639 -0.0210672 0)
(0.22288 -0.022357 0)
(0.237699 -0.0235709 0)
(0.253012 -0.024681 0)
(0.268718 -0.0256623 0)
(0.284706 -0.0264942 0)
(0.300858 -0.0271624 0)
(0.317056 -0.0276584 0)
(0.333185 -0.02798 0)
(0.349136 -0.0281301 0)
(0.364812 -0.0281157 0)
(0.380127 -0.0279472 0)
(0.395007 -0.027637 0)
(0.409391 -0.0271989 0)
(0.42323 -0.0266472 0)
(0.436485 -0.0259962 0)
(0.44913 -0.0252596 0)
(0.461146 -0.0244506 0)
(0.472523 -0.0235814 0)
(0.483257 -0.0226629 0)
(0.493351 -0.0217053 0)
(0.502813 -0.0207175 0)
(0.511653 -0.0197075 0)
(0.519887 -0.0186823 0)
(0.527532 -0.0176479 0)
(0.534608 -0.0166097 0)
(0.541136 -0.0155723 0)
(0.547138 -0.0145396 0)
(0.552638 -0.0135148 0)
(0.557659 -0.0125007 0)
(0.562226 -0.0114996 0)
(0.566363 -0.0105133 0)
(0.570095 -0.00954302 0)
(0.573445 -0.00858985 0)
(0.576438 -0.0076543 0)
(0.579097 -0.00673652 0)
(0.581445 -0.00583626 0)
(0.583506 -0.00495282 0)
(0.585301 -0.00408505 0)
(0.586853 -0.00323132 0)
(0.588182 -0.00238945 0)
(0.589308 -0.00155664 0)
(0.590251 -0.000729425 0)
(0.591031 9.59151e-05 0)
(0.591665 0.000923602 0)
(0.592171 0.00175885 0)
(0.592565 0.00260811 0)
(0.592865 0.00347908 0)
(0.593084 0.00438082 0)
(0.593237 0.00532404 0)
(0.593337 0.00632135 0)
(0.593397 0.00738763 0)
(0.59343 0.0085405 0)
(0.593446 0.00980086 0)
(0.593458 0.0111936 0)
(0.593477 0.0127483 0)
(0.593518 0.0145007 0)
(0.593595 0.016493 0)
(0.59373 0.0187762 0)
(0.59395 0.0214103 0)
(0.594295 0.0244659 0)
(0.594821 0.0280231 0)
(0.59561 0.0321698 0)
(0.596779 0.0369938 0)
(0.598488 0.0425692 0)
(0.600948 0.0489306 0)
(0.604417 0.0560317 0)
(0.609175 0.0636873 0)
(0.615448 0.0715071 0)
(0.100322 -0.003133 0)
(0.103235 -0.00589475 0)
(0.107736 -0.00824448 0)
(0.113537 -0.01034 0)
(0.120502 -0.0122557 0)
(0.128494 -0.0140489 0)
(0.137413 -0.0157681 0)
(0.147193 -0.0174524 0)
(0.157797 -0.0191292 0)
(0.169201 -0.0208138 0)
(0.18139 -0.0225077 0)
(0.194347 -0.0241993 0)
(0.208042 -0.0258653 0)
(0.22243 -0.0274744 0)
(0.23744 -0.0289909 0)
(0.252985 -0.030379 0)
(0.268958 -0.0316064 0)
(0.285238 -0.032647 0)
(0.3017 -0.0334822 0)
(0.318215 -0.0341016 0)
(0.334661 -0.0345024 0)
(0.350922 -0.0346886 0)
(0.366896 -0.0346692 0)
(0.382493 -0.0344577 0)
(0.397635 -0.0340699 0)
(0.412261 -0.0335233 0)
(0.42632 -0.032836 0)
(0.439774 -0.0320259 0)
(0.452596 -0.0311104 0)
(0.464769 -0.0301059 0)
(0.476284 -0.0290274 0)
(0.487138 -0.0278887 0)
(0.497335 -0.0267022 0)
(0.506884 -0.0254791 0)
(0.515798 -0.024229 0)
(0.524092 -0.0229607 0)
(0.531785 -0.0216815 0)
(0.538897 -0.0203979 0)
(0.545451 -0.0191155 0)
(0.55147 -0.017839 0)
(0.556977 -0.0165724 0)
(0.561998 -0.015319 0)
(0.566556 -0.0140815 0)
(0.570677 -0.012862 0)
(0.574385 -0.0116621 0)
(0.577705 -0.0104829 0)
(0.58066 -0.00932506 0)
(0.583276 -0.00818864 0)
(0.585575 -0.00707328 0)
(0.58758 -0.00597811 0)
(0.589313 -0.00490174 0)
(0.590796 -0.00384215 0)
(0.592051 -0.00279674 0)
(0.593098 -0.00176215 0)
(0.593955 -0.000734275 0)
(0.594645 0.00029121 0)
(0.595184 0.00131915 0)
(0.59559 0.00235572 0)
(0.595881 0.00340845 0)
(0.596073 0.00448613 0)
(0.596183 0.00559893 0)
(0.596225 0.0067587 0)
(0.596216 0.00797918 0)
(0.596168 0.00927626 0)
(0.596098 0.0106684 0)
(0.596021 0.012177 0)
(0.595952 0.0138266 0)
(0.595909 0.0156459 0)
(0.595913 0.0176674 0)
(0.595986 0.0199285 0)
(0.596159 0.022471 0)
(0.596469 0.0253411 0)
(0.596964 0.0285879 0)
(0.597705 0.0322609 0)
(0.598772 0.036405 0)
(0.600264 0.0410526 0)
(0.6023 0.0462115 0)
(0.605016 0.0518484 0)
(0.608551 0.0578691 0)
(0.613019 0.0640986 0)
(0.618464 0.0702741 0)
(0.10023 -0.00365412 0)
(0.103091 -0.00695263 0)
(0.107483 -0.00976287 0)
(0.113169 -0.0122752 0)
(0.120026 -0.0145753 0)
(0.127922 -0.0167303 0)
(0.13676 -0.0187989 0)
(0.14648 -0.0208289 0)
(0.15705 -0.0228551 0)
(0.168457 -0.0248967 0)
(0.180695 -0.0269562 0)
(0.193756 -0.0290192 0)
(0.207615 -0.0310566 0)
(0.222227 -0.0330283 0)
(0.237521 -0.034889 0)
(0.2534 -0.0365929 0)
(0.269747 -0.0380992 0)
(0.286428 -0.0393747 0)
(0.303305 -0.0403964 0)
(0.320238 -0.0411516 0)
(0.337094 -0.0416374 0)
(0.353749 -0.0418592 0)
(0.370094 -0.0418293 0)
(0.386035 -0.0415645 0)
(0.401493 -0.041085 0)
(0.416404 -0.0404129 0)
(0.430719 -0.0395705 0)
(0.4444 -0.0385801 0)
(0.457421 -0.0374631 0)
(0.469768 -0.0362394 0)
(0.481431 -0.0349274 0)
(0.492412 -0.033544 0)
(0.502715 -0.0321039 0)
(0.512352 -0.0306207 0)
(0.521337 -0.029106 0)
(0.529687 -0.0275702 0)
(0.537421 -0.026022 0)
(0.544563 -0.0244692 0)
(0.551135 -0.0229184 0)
(0.557161 -0.0213751 0)
(0.562667 -0.019844 0)
(0.567676 -0.0183288 0)
(0.572215 -0.0168329 0)
(0.576309 -0.0153585 0)
(0.579982 -0.0139075 0)
(0.583261 -0.0124811 0)
(0.586168 -0.01108 0)
(0.588729 -0.00970425 0)
(0.590967 -0.00835336 0)
(0.592905 -0.00702628 0)
(0.594565 -0.00572133 0)
(0.595969 -0.00443615 0)
(0.59714 -0.0031677 0)
(0.598096 -0.00191216 0)
(0.598859 -0.000664919 0)
(0.599449 0.000578932 0)
(0.599885 0.0018248 0)
(0.600184 0.00307974 0)
(0.600366 0.00435213 0)
(0.600446 0.00565152 0)
(0.600442 0.00698884 0)
(0.600372 0.00837653 0)
(0.600251 0.00982873 0)
(0.600096 0.0113615 0)
(0.599925 0.012993 0)
(0.599757 0.0147437 0)
(0.59961 0.0166362 0)
(0.599507 0.018696 0)
(0.599471 0.0209504 0)
(0.599533 0.0234293 0)
(0.599725 0.0261635 0)
(0.600087 0.029184 0)
(0.600667 0.0325198 0)
(0.601521 0.0361945 0)
(0.602715 0.0402223 0)
(0.604321 0.0446013 0)
(0.606418 0.0493067 0)
(0.609081 0.0542825 0)
(0.61237 0.0594348 0)
(0.616318 0.0646293 0)
(0.620899 0.0697005 0)
(0.100134 -0.00418911 0)
(0.102958 -0.00805134 0)
(0.107248 -0.0113512 0)
(0.112819 -0.0143091 0)
(0.119569 -0.0170229 0)
(0.127371 -0.019569 0)
(0.136132 -0.0220176 0)
(0.145801 -0.0244269 0)
(0.156357 -0.0268401 0)
(0.167799 -0.0292816 0)
(0.180136 -0.0317549 0)
(0.193369 -0.034242 0)
(0.207481 -0.0367057 0)
(0.222426 -0.0390949 0)
(0.238125 -0.0413513 0)
(0.254468 -0.0434169 0)
(0.27132 -0.0452398 0)
(0.28853 -0.0467792 0)
(0.305942 -0.0480068 0)
(0.323401 -0.0489082 0)
(0.340761 -0.049481 0)
(0.35789 -0.0497333 0)
(0.374673 -0.0496813 0)
(0.391013 -0.0493468 0)
(0.406829 -0.0487553 0)
(0.422058 -0.0479342 0)
(0.436651 -0.0469111 0)
(0.450573 -0.0457133 0)
(0.463802 -0.0443666 0)
(0.476324 -0.0428951 0)
(0.488136 -0.0413207 0)
(0.499238 -0.0396634 0)
(0.50964 -0.037941 0)
(0.519355 -0.0361692 0)
(0.528399 -0.0343618 0)
(0.536792 -0.0325308 0)
(0.544556 -0.0306866 0)
(0.551713 -0.028838 0)
(0.558289 -0.0269926 0)
(0.564309 -0.0251568 0)
(0.569798 -0.023336 0)
(0.574782 -0.0215345 0)
(0.579288 -0.0197558 0)
(0.583341 -0.0180028 0)
(0.586967 -0.0162772 0)
(0.590192 -0.0145806 0)
(0.593039 -0.0129135 0)
(0.595533 -0.011276 0)
(0.597699 -0.00966749 0)
(0.599558 -0.00808667 0)
(0.601135 -0.00653163 0)
(0.602451 -0.00499969 0)
(0.603528 -0.00348744 0)
(0.604387 -0.00199068 0)
(0.605047 -0.000504536 0)
(0.605532 0.000976432 0)
(0.605858 0.00245826 0)
(0.606046 0.0039487 0)
(0.606114 0.00545665 0)
(0.606079 0.00699209 0)
(0.605961 0.00856618 0)
(0.605776 0.0101914 0)
(0.605544 0.0118816 0)
(0.605283 0.0136521 0)
(0.605013 0.0155198 0)
(0.604753 0.0175029 0)
(0.604527 0.0196211 0)
(0.604358 0.021895 0)
(0.604274 0.0243458 0)
(0.604303 0.0269949 0)
(0.60448 0.0298624 0)
(0.604843 0.0329657 0)
(0.605432 0.0363177 0)
(0.606295 0.0399239 0)
(0.607478 0.0437795 0)
(0.60903 0.0478657 0)
(0.610994 0.0521466 0)
(0.613406 0.0565662 0)
(0.616285 0.0610479 0)
(0.619623 0.0654973 0)
(0.623374 0.0698139 0)
(0.100034 -0.00474095 0)
(0.102834 -0.00919394 0)
(0.107035 -0.0130136 0)
(0.112497 -0.0164474 0)
(0.119145 -0.0196059 0)
(0.126859 -0.0225758 0)
(0.135553 -0.0254395 0)
(0.145189 -0.0282681 0)
(0.155762 -0.0311149 0)
(0.167291 -0.0340108 0)
(0.179801 -0.0369602 0)
(0.193307 -0.0399394 0)
(0.207796 -0.0428999 0)
(0.223215 -0.0457752 0)
(0.239472 -0.04849 0)
(0.256433 -0.0509703 0)
(0.27394 -0.0531514 0)
(0.291818 -0.0549833 0)
(0.309887 -0.0564332 0)
(0.327976 -0.0574855 0)
(0.345925 -0.0581401 0)
(0.363596 -0.0584094 0)
(0.380867 -0.0583153 0)
(0.39764 -0.057886 0)
(0.413836 -0.0571538 0)
(0.429394 -0.0561524 0)
(0.444267 -0.0549158 0)
(0.458427 -0.0534766 0)
(0.471852 -0.0518658 0)
(0.484536 -0.050112 0)
(0.496477 -0.0482412 0)
(0.507682 -0.0462765 0)
(0.518161 -0.0442388 0)
(0.527932 -0.0421462 0)
(0.537014 -0.0400146 0)
(0.545428 -0.0378577 0)
(0.553199 -0.0356874 0)
(0.560351 -0.0335138 0)
(0.566911 -0.0313454 0)
(0.572904 -0.0291893 0)
(0.578359 -0.0270517 0)
(0.583301 -0.0249372 0)
(0.587757 -0.0228498 0)
(0.591755 -0.0207924 0)
(0.595319 -0.0187672 0)
(0.598476 -0.0167756 0)
(0.601251 -0.0148183 0)
(0.603668 -0.0128952 0)
(0.605751 -0.0110055 0)
(0.607524 -0.00914781 0)
(0.609009 -0.00731996 0)
(0.61023 -0.00551902 0)
(0.611207 -0.00374126 0)
(0.611963 -0.0019821 0)
(0.612516 -0.000236959 0)
(0.612893 0.00150004 0)
(0.613109 0.00323585 0)
(0.613184 0.00497868 0)
(0.613138 0.00673758 0)
(0.612989 0.00852249 0)
(0.612758 0.0103444 0)
(0.612462 0.0122151 0)
(0.612121 0.0141477 0)
(0.611755 0.016156 0)
(0.611386 0.0182547 0)
(0.611034 0.0204591 0)
(0.610724 0.022785 0)
(0.610481 0.0252479 0)
(0.61033 0.0278628 0)
(0.610301 0.030643 0)
(0.610424 0.0335995 0)
(0.610731 0.0367393 0)
(0.611257 0.0400642 0)
(0.612034 0.0435686 0)
(0.613094 0.0472387 0)
(0.614466 0.0510499 0)
(0.616171 0.0549666 0)
(0.61822 0.0589418 0)
(0.620609 0.0629186 0)
(0.623317 0.0668337 0)
(0.626298 0.070627 0)
(0.0999263 -0.005313 0)
(0.10272 -0.0103847 0)
(0.106847 -0.0147559 0)
(0.112208 -0.0186976 0)
(0.118762 -0.0223346 0)
(0.1264 -0.0257646 0)
(0.135047 -0.0290849 0)
(0.144681 -0.0323817 0)
(0.155322 -0.0357217 0)
(0.167014 -0.0391433 0)
(0.179804 -0.0426504 0)
(0.193719 -0.04621 0)
(0.208746 -0.0497566 0)
(0.224818 -0.0532017 0)
(0.241813 -0.0564478 0)
(0.259567 -0.0594006 0)
(0.277887 -0.0619806 0)
(0.296567 -0.0641287 0)
(0.315404 -0.0658088 0)
(0.334207 -0.0670064 0)
(0.352806 -0.0677261 0)
(0.371057 -0.0679872 0)
(0.388837 -0.0678194 0)
(0.406049 -0.0672593 0)
(0.422618 -0.0663475 0)
(0.438487 -0.0651253 0)
(0.453617 -0.0636338 0)
(0.467984 -0.0619119 0)
(0.481575 -0.0599963 0)
(0.494385 -0.0579203 0)
(0.50642 -0.0557139 0)
(0.51769 -0.0534039 0)
(0.528211 -0.0510141 0)
(0.538004 -0.0485651 0)
(0.547089 -0.0460749 0)
(0.555493 -0.0435589 0)
(0.56324 -0.0410303 0)
(0.570359 -0.0385004 0)
(0.576875 -0.0359787 0)
(0.582819 -0.0334729 0)
(0.588216 -0.0309897 0)
(0.593096 -0.0285343 0)
(0.597485 -0.0261107 0)
(0.60141 -0.0237223 0)
(0.604898 -0.0213713 0)
(0.607975 -0.019059 0)
(0.610666 -0.0167861 0)
(0.612996 -0.0145525 0)
(0.614989 -0.0123572 0)
(0.616669 -0.0101988 0)
(0.618058 -0.00807478 0)
(0.61918 -0.00598213 0)
(0.620057 -0.0039169 0)
(0.620709 -0.00187435 0)
(0.621159 0.000150129 0)
(0.621429 0.00216244 0)
(0.621536 0.00417029 0)
(0.621503 0.00618204 0)
(0.621347 0.00820658 0)
(0.62109 0.0102534 0)
(0.62075 0.0123329 0)
(0.620348 0.0144559 0)
(0.619903 0.0166339 0)
(0.619437 0.0188789 0)
(0.618971 0.0212028 0)
(0.618527 0.0236179 0)
(0.618129 0.0261357 0)
(0.617799 0.028767 0)
(0.617564 0.0315209 0)
(0.617449 0.0344045 0)
(0.61748 0.0374218 0)
(0.617682 0.0405727 0)
(0.618081 0.0438524 0)
(0.6187 0.0472504 0)
(0.619557 0.0507497 0)
(0.620668 0.0543265 0)
(0.622038 0.0579504 0)
(0.623667 0.0615853 0)
(0.625541 0.0651911 0)
(0.627637 0.0687266 0)
(0.629914 0.0721563 0)
(0.0998099 -0.00590906 0)
(0.102614 -0.0116291 0)
(0.106683 -0.0165853 0)
(0.111956 -0.0210696 0)
(0.118431 -0.0252222 0)
(0.126011 -0.0291543 0)
(0.134639 -0.0329812 0)
(0.144319 -0.036809 0)
(0.155104 -0.0407204 0)
(0.167069 -0.044762 0)
(0.180287 -0.048934 0)
(0.194794 -0.0531872 0)
(0.210562 -0.0574299 0)
(0.227494 -0.061543 0)
(0.245427 -0.0653992 0)
(0.264151 -0.068881 0)
(0.28343 -0.0718929 0)
(0.303025 -0.0743688 0)
(0.322708 -0.076272 0)
(0.342273 -0.0775934 0)
(0.361545 -0.0783455 0)
(0.380375 -0.0785577 0)
(0.398645 -0.0782705 0)
(0.416264 -0.077531 0)
(0.433163 -0.0763894 0)
(0.449296 -0.0748962 0)
(0.46463 -0.0731001 0)
(0.479149 -0.0710471 0)
(0.492847 -0.0687797 0)
(0.505728 -0.0663361 0)
(0.517802 -0.0637508 0)
(0.529085 -0.061054 0)
(0.539597 -0.0582723 0)
(0.549363 -0.0554288 0)
(0.558408 -0.0525434 0)
(0.566759 -0.0496333 0)
(0.574445 -0.0467128 0)
(0.581494 -0.0437942 0)
(0.587936 -0.0408878 0)
(0.5938 -0.038002 0)
(0.599115 -0.0351439 0)
(0.603909 -0.0323188 0)
(0.60821 -0.0295314 0)
(0.612046 -0.0267847 0)
(0.615443 -0.0240812 0)
(0.618428 -0.0214221 0)
(0.621026 -0.0188081 0)
(0.623261 -0.016239 0)
(0.625159 -0.0137137 0)
(0.626742 -0.0112306 0)
(0.628034 -0.00878711 0)
(0.629058 -0.00638017 0)
(0.629835 -0.00400586 0)
(0.630387 -0.00165956 0)
(0.63074 0.0006639 0)
(0.630909 0.00297057 0)
(0.630917 0.00526806 0)
(0.630783 0.00756455 0)
(0.630528 0.00986851 0)
(0.630171 0.0121888 0)
(0.629734 0.0145347 0)
(0.629235 0.0169158 0)
(0.628696 0.0193417 0)
(0.628137 0.0218222 0)
(0.627579 0.0243667 0)
(0.627044 0.026984 0)
(0.626554 0.029682 0)
(0.626131 0.0324673 0)
(0.625796 0.0353444 0)
(0.625573 0.0383159 0)
(0.625481 0.041381 0)
(0.62554 0.0445358 0)
(0.625768 0.0477725 0)
(0.62618 0.051079 0)
(0.626785 0.0544391 0)
(0.627589 0.0578325 0)
(0.628591 0.0612355 0)
(0.629784 0.0646218 0)
(0.631152 0.0679641 0)
(0.632674 0.0712361 0)
(0.634317 0.0744177 0)
(0.0996823 -0.00653328 0)
(0.102514 -0.0129339 0)
(0.106546 -0.0185113 0)
(0.111746 -0.0235759 0)
(0.118159 -0.028286 0)
(0.12571 -0.0327704 0)
(0.134364 -0.0371673 0)
(0.144161 -0.0416084 0)
(0.155199 -0.0461961 0)
(0.167593 -0.0509838 0)
(0.181437 -0.0559604 0)
(0.196761 -0.0610485 0)
(0.213507 -0.0661167 0)
(0.231526 -0.071004 0)
(0.250594 -0.0755471 0)
(0.270444 -0.0796028 0)
(0.290795 -0.0830623 0)
(0.311374 -0.0858566 0)
(0.331934 -0.0879544 0)
(0.352259 -0.0893564 0)
(0.372173 -0.0900884 0)
(0.391533 -0.0901934 0)
(0.410231 -0.0897256 0)
(0.428184 -0.0887446 0)
(0.445336 -0.0873119 0)
(0.46165 -0.0854878 0)
(0.477106 -0.0833297 0)
(0.491695 -0.0808907 0)
(0.505422 -0.0782193 0)
(0.518297 -0.0753588 0)
(0.530338 -0.0723478 0)
(0.541566 -0.0692199 0)
(0.552006 -0.0660046 0)
(0.561686 -0.062727 0)
(0.570635 -0.059409 0)
(0.578883 -0.056069 0)
(0.586461 -0.0527225 0)
(0.5934 -0.0493826 0)
(0.599731 -0.0460602 0)
(0.605483 -0.0427643 0)
(0.610686 -0.0395021 0)
(0.615369 -0.0362793 0)
(0.619561 -0.0331005 0)
(0.623289 -0.0299689 0)
(0.62658 -0.0268868 0)
(0.629461 -0.0238556 0)
(0.631957 -0.0208756 0)
(0.634092 -0.0179467 0)
(0.635891 -0.0150676 0)
(0.637377 -0.0122367 0)
(0.638574 -0.00945132 0)
(0.639504 -0.00670847 0)
(0.640188 -0.00400435 0)
(0.640649 -0.00133457 0)
(0.640912 0.0013065 0)
(0.640992 0.00392499 0)
(0.640911 0.00652823 0)
(0.640691 0.00912389 0)
(0.64035 0.0117198 0)
(0.639909 0.0143238 0)
(0.639388 0.016944 0)
(0.638807 0.0195884 0)
(0.638186 0.0222648 0)
(0.637544 0.0249808 0)
(0.636903 0.027743 0)
(0.636282 0.0305576 0)
(0.635701 0.0334293 0)
(0.635181 0.0363614 0)
(0.634738 0.0393555 0)
(0.634392 0.0424108 0)
(0.634159 0.0455242 0)
(0.634053 0.0486901 0)
(0.634085 0.0518998 0)
(0.634265 0.0551423 0)
(0.634596 0.0584036 0)
(0.635079 0.0616678 0)
(0.63571 0.0649175 0)
(0.63648 0.0681343 0)
(0.637373 0.0713002 0)
(0.638372 0.0743988 0)
(0.639452 0.0774193 0)
(0.099541 -0.00719033 0)
(0.10242 -0.0143076 0)
(0.106435 -0.0205453 0)
(0.111583 -0.0262328 0)
(0.11796 -0.0315497 0)
(0.125521 -0.0366484 0)
(0.134265 -0.0416985 0)
(0.144285 -0.0468645 0)
(0.155732 -0.0522709 0)
(0.168764 -0.0579715 0)
(0.183483 -0.0639297 0)
(0.199893 -0.0700207 0)
(0.217873 -0.0760558 0)
(0.237197 -0.0818204 0)
(0.257567 -0.087111 0)
(0.278654 -0.0917613 0)
(0.300131 -0.0956557 0)
(0.3217 -0.0987299 0)
(0.343102 -0.100965 0)
(0.364124 -0.10238 0)
(0.384595 -0.103018 0)
(0.404388 -0.102939 0)
(0.423404 -0.102213 0)
(0.44158 -0.100916 0)
(0.458872 -0.0991203 0)
(0.475256 -0.0968974 0)
(0.490725 -0.0943132 0)
(0.505281 -0.0914283 0)
(0.518938 -0.0882969 0)
(0.531715 -0.0849674 0)
(0.543635 -0.0814821 0)
(0.554726 -0.0778778 0)
(0.565018 -0.0741863 0)
(0.574544 -0.070435 0)
(0.583334 -0.066647 0)
(0.591423 -0.0628418 0)
(0.598843 -0.059036 0)
(0.605625 -0.0552432 0)
(0.611802 -0.0514747 0)
(0.617406 -0.0477398 0)
(0.622465 -0.0440458 0)
(0.627011 -0.0403985 0)
(0.63107 -0.0368024 0)
(0.634672 -0.0332608 0)
(0.637843 -0.0297758 0)
(0.640608 -0.0263486 0)
(0.642994 -0.0229796 0)
(0.645024 -0.0196682 0)
(0.646723 -0.0164135 0)
(0.648114 -0.0132134 0)
(0.649219 -0.0100656 0)
(0.650061 -0.00696706 0)
(0.650663 -0.00391421 0)
(0.651043 -0.000903012 0)
(0.651228 0.00207241 0)
(0.651233 0.00501829 0)
(0.65108 0.00794154 0)
(0.650789 0.0108491 0)
(0.65038 0.0137479 0)
(0.649873 0.0166446 0)
(0.649285 0.0195462 0)
(0.648638 0.0224589 0)
(0.64795 0.0253888 0)
(0.64724 0.0283413 0)
(0.646527 0.0313212 0)
(0.645829 0.0343321 0)
(0.645164 0.0373765 0)
(0.644548 0.0404554 0)
(0.643997 0.0435684 0)
(0.643526 0.0467132 0)
(0.643145 0.0498857 0)
(0.642867 0.0530798 0)
(0.642697 0.056288 0)
(0.642641 0.0595006 0)
(0.642701 0.062707 0)
(0.642873 0.0658953 0)
(0.643152 0.0690532 0)
(0.643531 0.0721685 0)
(0.643995 0.0752297 0)
(0.644531 0.0782267 0)
(0.64512 0.0811548 0)
(0.0993831 -0.00788551 0)
(0.102331 -0.0157602 0)
(0.106354 -0.0227023 0)
(0.111472 -0.0290617 0)
(0.117848 -0.0350456 0)
(0.125476 -0.0408395 0)
(0.134406 -0.0466561 0)
(0.144799 -0.0527005 0)
(0.15687 -0.0591175 0)
(0.170808 -0.0659466 0)
(0.186699 -0.0731004 0)
(0.204481 -0.0803799 0)
(0.22394 -0.0875196 0)
(0.244749 -0.0942431 0)
(0.266528 -0.100309 0)
(0.288887 -0.105536 0)
(0.311467 -0.109814 0)
(0.333956 -0.113094 0)
(0.356099 -0.11538 0)
(0.377692 -0.116712 0)
(0.398583 -0.117159 0)
(0.41866 -0.116801 0)
(0.437849 -0.115727 0)
(0.456101 -0.114028 0)
(0.473389 -0.111789 0)
(0.489708 -0.109093 0)
(0.50506 -0.106014 0)
(0.519461 -0.10262 0)
(0.532934 -0.0989708 0)
(0.545505 -0.0951189 0)
(0.557207 -0.0911103 0)
(0.568071 -0.0869845 0)
(0.578132 -0.0827753 0)
(0.587427 -0.0785117 0)
(0.59599 -0.0742179 0)
(0.603857 -0.0699143 0)
(0.611061 -0.0656179 0)
(0.617637 -0.0613428 0)
(0.623617 -0.0571004 0)
(0.629033 -0.0529 0)
(0.633916 -0.048749 0)
(0.638295 -0.0446531 0)
(0.642198 -0.0406166 0)
(0.645654 -0.0366426 0)
(0.648688 -0.032733 0)
(0.651327 -0.0288888 0)
(0.653595 -0.0251103 0)
(0.655517 -0.0213969 0)
(0.657115 -0.0177473 0)
(0.658413 -0.0141597 0)
(0.659433 -0.0106317 0)
(0.660196 -0.0071604 0)
(0.660724 -0.00374242 0)
(0.661036 -0.000374414 0)
(0.661159 0.0029495 0)
(0.661105 0.00623578 0)
(0.660897 0.00949086 0)
(0.660555 0.0127208 0)
(0.660097 0.0159314 0)
(0.659541 0.0191285 0)
(0.658907 0.0223174 0)
(0.658212 0.0255031 0)
(0.657475 0.0286901 0)
(0.656714 0.0318821 0)
(0.655943 0.0350821 0)
(0.655181 0.0382921 0)
(0.654442 0.0415131 0)
(0.65374 0.0447446 0)
(0.653088 0.0479854 0)
(0.652497 0.0512324 0)
(0.651977 0.0544817 0)
(0.651533 0.057728 0)
(0.651172 0.0609647 0)
(0.650894 0.0641847 0)
(0.650701 0.06738 0)
(0.650589 0.0705424 0)
(0.650553 0.0736636 0)
(0.650586 0.0767359 0)
(0.650676 0.079752 0)
(0.650814 0.0827065 0)
(0.650986 0.0855983 0)
(0.0992055 -0.00862504 0)
(0.102246 -0.0173043 0)
(0.106305 -0.0250014 0)
(0.111425 -0.0320918 0)
(0.117847 -0.0388195 0)
(0.125625 -0.0454185 0)
(0.13488 -0.0521591 0)
(0.145854 -0.0592933 0)
(0.158827 -0.0669747 0)
(0.173995 -0.0751986 0)
(0.191382 -0.0837887 0)
(0.210812 -0.09244 0)
(0.231943 -0.100795 0)
(0.254341 -0.108515 0)
(0.277544 -0.115333 0)