/*--------------------------------*- C++ -*----------------------------------*\
  =========                 |
  \\      /  F ield         | OpenFOAM: The Open Source CFD Toolbox
   \\    /   O peration     | Website:  https://openfoam.org
    \\  /    A nd           | Version:  7
     \\/     M anipulation  |
\*---------------------------------------------------------------------------*/
FoamFile
{
    version     2.0;
    format      ascii;
    class       volScalarField;
    location    "0.3";
    object      p;
}
// * * * * * * * * * * * * * * * * * * * * * * * * * * * * * * * * * * * * * //

dimensions      [0 2 -2 0 0 0 0];

internalField   nonuniform List<scalar> 
2790
(
70.6426
70.5449
70.8006
71.3543
72.1124
73.044
74.1477
75.4234
76.8676
78.4758
80.2429
82.1631
84.2287
86.4296
88.7518
91.1774
93.6835
96.2413
98.8163
101.368
103.851
106.216
108.414
110.396
112.121
113.558
114.692
115.52
116.051
116.35
70.4413
70.4541
70.7348
71.2856
72.0399
72.9684
74.0677
75.3374
76.7745
78.3744
80.1325
82.0429
84.0983
86.2887
88.601
91.0176
93.5165
96.0699
98.6444
101.201
103.694
106.077
108.3
110.315
112.08
113.563
114.746
115.631
116.22
116.588
70.2456
70.3284
70.6283
71.1691
71.9105
72.8266
73.9113
75.1633
76.5797
78.156
79.8874
81.7682
83.7913
85.947
88.2228
90.6023
93.0649
95.5849
98.1315
100.669
103.155
105.546
107.795
109.856
111.688
113.257
114.539
115.529
116.212
116.67
70.0253
70.1389
70.4515
70.9838
71.7109
72.6109
73.6764
74.9049
76.2934
77.8375
79.532
81.3714
83.3484
85.4537
87.6754
89.9983
92.4033
94.8672
97.3623
99.8564
102.313
104.692
106.953
109.051
110.949
112.609
114.003
115.113
115.904
116.467
69.7705
69.8983
70.2195
70.7445
71.4554
72.3348
73.3751
74.5731
75.9254
77.4276
79.0746
80.8603
82.7777
84.8176
86.9687
89.2168
91.5445
93.9311
96.3521
98.7795
101.182
103.525
105.773
107.887
109.831
111.568
113.06
114.283
115.173
115.835
69.4772
69.6107
69.9344
70.4497
71.141
71.9948
73.0041
74.165
75.4738
76.9257
78.5153
80.2366
82.0823
84.0434
86.1089
88.2655
90.4974
92.786
95.1099
97.4451
99.7653
102.042
104.244
106.34
108.297
110.076
111.639
112.95
113.921
114.671
69.1436
69.2782
69.5989
70.1014
70.7703
71.5944
72.5675
73.6853
74.9434
76.3369
77.86
79.5065
81.2687
83.1377
85.1028
87.1515
89.2688
91.4381
93.6407
95.8559
98.0618
100.235
102.351
104.384
106.305
108.081
109.67
111.034
112.061
112.89
68.7693
68.902
69.2157
69.7021
70.3455
71.136
72.068
73.1368
74.3376
75.665
77.1129
78.6745
80.342
82.1063
83.9566
85.8806
87.8644
89.8923
91.9474
94.0118
96.067
98.0939
100.073
101.986
103.809
105.517
107.073
108.442
109.495
110.394
68.3549
68.4838
68.7871
69.2543
69.8691
70.6223
71.5086
72.5231
73.6604
74.9145
76.279
77.7465
79.3087
80.956
82.6774
84.4604
86.2912
88.1546
90.0345
91.9143
93.7773
95.6076
97.3899
99.1104
100.755
102.309
103.746
105.048
106.08
107.041
67.9015
68.0252
68.3155
68.7606
69.3439
70.0564
70.8929
71.8481
72.9162
74.0906
75.3643
76.7291
78.1761
79.6949
81.274
82.9
84.5586
86.234
87.9097
89.5686
91.194
92.7702
94.2836
95.7236
97.0835
98.3613
99.5516
100.67
101.596
102.601
67.4107
67.5282
67.8033
68.2239
68.7729
69.4415
70.2245
71.1161
72.11
73.1989
74.375
75.6294
76.9522
78.3322
79.7564
81.2105
82.6785
84.1431
85.5856
86.9864
88.3259
89.5851
90.7472
91.7998
92.738
93.5702
94.3163
95.0452
95.6948
96.689
66.8844
66.9948
67.2531
67.6468
68.1592
68.7813
69.5074
70.3317
71.2469
72.2453
73.318
74.4554
75.6462
76.8781
78.1364
79.4051
80.6659
81.8985
83.0804
84.1873
85.1929
86.07
86.7914
87.3331
87.6789
87.8331
87.8297
87.8029
87.8114
88.6164
66.3246
66.4273
66.6674
67.0326
67.5062
68.0793
68.7459
69.4995
70.3325
71.2361
72.2007
73.2154
74.2679
75.344
76.4273
77.4994
78.5388
79.5212
80.4188
81.1997
81.8277
82.2611
82.4532
82.3531
81.9095
81.0854
79.8795
78.4467
77.0012
77.0314
65.7337
65.8282
66.0491
66.3841
66.8172
67.3394
67.9442
68.6247
69.3725
70.1781
71.0308
71.9186
72.8278
73.7423
74.6437
75.5106
76.318
77.0365
77.6316
78.0621
78.278
78.2178
77.8053
76.9444
75.5145
73.3715
70.3547
66.4258
61.6975
58.8611
65.1142
65.2002
65.4008
65.7045
66.0959
66.5656
67.1069
67.7123
68.3727
69.0778
69.816
70.5741
71.3366
72.0858
72.8008
73.4572
74.026
74.4726
74.7547
74.8205
74.6046
74.0222
72.9603
71.263
68.7066
64.9597
59.498
51.5473
39.6672
25.4006
-79.7139
-80.5228
-82.0541
-84.4693
-87.8567
-92.234
-97.5354
-103.598
-110.15
-116.808
-123.08
-128.386
-132.101
-133.611
-132.391
-128.117
-120.698
-110.403
-97.8186
-83.7457
-69.0853
-54.7185
-41.4049
-29.7078
-19.9437
-12.1895
-5.80633
-0.838626
1.85803
2.43839
-79.6553
-80.5449
-82.1322
-84.6129
-88.0826
-92.5622
-97.9868
-104.192
-110.902
-117.726
-124.162
-129.62
-133.461
-135.064
-133.908
-129.656
-122.216
-111.878
-99.2342
-85.0868
-70.3362
-55.8627
-42.4274
-30.6011
-20.7157
-12.8004
-6.27166
-1.2466
1.50935
2.27492
-80.3093
-81.333
-83.0531
-85.6795
-89.2985
-93.9321
-99.5197
-105.9
-112.799
-119.823
-126.462
-132.11
-136.109
-137.815
-136.688
-132.41
-124.861
-114.362
-101.529
-87.1799
-72.2254
-57.5504
-43.9196
-31.9102
-21.8603
-13.6957
-6.93586
-1.81634
1.0645
2.1194
-81.7601
-82.8842
-84.7222
-87.503
-91.2964
-96.1232
-101.926
-108.545
-115.709
-123.017
-129.946
-135.869
-140.097
-141.955
-140.873
-136.529
-128.792
-118.025
-104.876
-90.1893
-74.8961
-59.8946
-45.9603
-33.6768
-23.3725
-14.8509
-7.79001
-2.54891
0.507215
1.91149
-83.9096
-85.085
-87.0079
-89.9316
-93.9073
-98.954
-105.014
-111.929
-119.425
-127.093
-134.393
-140.668
-145.19
-147.237
-146.212
-141.758
-133.768
-122.646
-109.081
-93.9497
-78.2129
-62.7875
-48.4655
-35.8319
-25.1718
-16.201
-8.81222
-3.41265
-0.132549
1.66018
-86.5771
-87.7697
-89.7565
-92.8119
-96.9729
-102.259
-108.614
-115.879
-123.775
-131.884
-139.642
-146.354
-151.238
-153.509
-152.52
-147.922
-139.611
-128.054
-113.986
-98.3205
-82.0536
-66.126
-51.3482
-38.2973
-27.1542
-17.6724
-9.98601
-4.38001
-0.831453
1.37099
-89.5255
-90.7134
-92.7534
-95.9338
-100.283
-105.825
-112.505
-120.166
-128.523
-137.144
-145.439
-152.666
-157.973
-160.494
-159.527
-154.737
-146.05
-134.002
-119.374
-103.115
-86.2633
-69.7833
-54.4993
-40.9517
-29.2077
-19.2291
-11.2823
-5.42195
-1.56706
1.05176
-92.4743
-93.6452
-95.7361
-99.0397
-103.58
-109.391
-116.421
-124.513
-133.378
-142.569
-151.466
-159.273
-165.053
-167.841
-166.88
-161.853
-152.753
-140.188
-124.983
-108.112
-90.6622
-73.6115
-57.7807
-43.6241
-31.2594
-20.8758
-12.6493
-6.50575
-2.3187
0.709693
-95.125
-96.277
-98.4235
-101.851
-106.587
-112.674
-120.066
-128.608
-138.006
-147.799
-157.339
-165.774
-172.064
-175.122
-174.146
-168.851
-159.331
-146.268
-130.521
-113.07
-95.0506
-77.4361
-61.0013
-46.1952
-33.2982
-22.5645
-14.0399
-7.59942
-3.0677
0.351067
-97.1945
-98.3352
-100.546
-104.099
-109.028
-115.388
-123.138
-132.124
-142.05
-152.443
-162.628
-171.702
-178.516
-181.833
-180.839
-175.259
-165.358
-151.874
-135.686
-117.749
-99.2124
-81.0527
-63.9914
-48.6156
-35.2958
-24.2268
-15.4074
-8.67225
-3.79747
-0.0186556
-98.4518
-99.5926
-101.877
-105.552
-110.664
-117.28
-125.359
-134.751
-145.157
-156.097
-166.875
-176.551
-183.869
-187.423
-186.429
-180.59
-170.431
-156.669
-140.18
-121.92
-102.927
-84.2433
-66.6638
-50.8381
-37.1607
-25.7964
-16.7074
-9.69569
-4.49364
-0.394407
-98.7404
-99.901
-102.273
-106.063
-111.34
-118.176
-126.525
-136.232
-147.011
-158.385
-169.625
-179.768
-187.484
-191.226
-190.342
-184.421
-174.254
-160.416
-143.763
-125.274
-105.946
-86.8551
-68.9001
-52.7528
-38.8096
-27.214
-17.8996
-10.6443
-5.144
-0.771049
-97.9848
-99.205
-101.675
-105.568
-111.003
-118.035
-126.601
-136.541
-147.57
-159.214
-170.752
-181.194
-189.15
-193.077
-192.318
-186.592
-176.5
-162.745
-146.099
-127.504
-108.015
-88.7289
-70.5838
-54.2664
-40.1723
-28.4292
-18.9498
-11.4967
-5.73863
-1.14311
-96.193
-97.5908
-100.127
-104.093
-109.691
-116.907
-125.635
-135.708
-146.84
-158.565
-170.18
-180.685
-188.683
-192.687
-192.06
-186.558
-176.761
-163.313
-146.901
-128.442
-109.025
-89.7674
-71.6315
-55.3111
-41.1971
-29.4047
-19.833
-12.2377
-6.27084
-1.50521
-93.4154
-95.4275
-97.7621
-101.75
-107.57
-114.978
-123.809
-133.903
-144.983
-156.588
-168.028
-178.308
-186.099
-190.043
-189.572
-184.434
-175.118
-162.155
-146.165
-128.054
-108.929
-89.9211
-71.9977
-55.8482
-41.8535
-30.1181
-20.5344
-12.8588
-6.73738
-1.85223
64.4562
64.5332
64.7127
64.9837
65.3314
65.7466
66.2221
66.7498
67.3199
67.9214
68.5415
69.1659
69.7775
70.3568
70.8804
71.3209
71.645
71.8128
71.7746
71.4678
70.8115
69.6978
67.9767
65.4307
61.7249
56.3058
48.1438
35.071
10.2936
-57.6508
63.7522
63.8198
63.9771
64.2137
64.5158
64.8742
65.2813
65.7282
66.2048
66.6991
67.1975
67.6841
68.1408
68.5458
68.8737
69.094
69.1698
69.0561
68.6966
68.0197
66.9321
65.308
62.9719
59.6676
55.0009
48.3276
38.5088
23.6144
2.17415
-28.8249
63.0078
63.0655
63.1998
63.4009
63.656
63.9559
64.2926
64.657
65.038
65.423
65.7975
66.1446
66.4446
66.6743
66.8062
66.8073
66.6377
66.2485
65.5788
64.5512
63.0657
60.9895
58.1419
54.2718
49.0238
41.9044
32.281
19.4843
4.20311
-13.2087
62.2242
62.2719
62.3825
62.5472
62.7543
62.9946
63.2599
63.5404
63.8248
64.0997
64.3498
64.5573
64.7014
64.7576
64.6968
64.4842
64.078
63.4272
62.4686
61.1234
59.2917
56.8452
53.6181
49.3972
43.914
36.8545
27.9056
16.7241
3.24635
-12.9757
61.4034
61.4409
61.5275
61.6552
61.8136
61.9938
62.1871
62.3835
62.5711
62.7363
62.8629
62.9326
62.9238
62.811
62.5643
62.148
61.5196
60.6278
59.41
57.79
55.6739
52.946
49.465
45.0613
39.5381
32.6781
24.2611
14.0187
1.73979
-12.383
60.5478
60.5749
60.6372
60.7278
60.8374
60.9573
61.0788
61.1915
61.2834
61.3403
61.346
61.2815
61.1248
60.8503
60.4276
59.8214
58.9897
57.8826
56.4407
54.5935
52.2569
49.3317
45.7023
41.2376
35.7935
29.2189
21.3717
12.1292
1.45369
-10.2426
59.6599
59.6767
59.7148
59.7684
59.8294
59.8895
59.94
59.9704
59.9685
59.92
59.8086
59.6152
59.3179
58.8912
58.3054
57.5261
56.5131
55.2198
53.5917
51.5659
49.0702
46.0227
42.3328
37.9032
32.6345
26.4337
19.2301
10.9934
1.74334
-8.19621
58.743
58.7497
58.7638
58.7808
58.7939
58.7954
58.7764
58.7266
58.6338
58.4839
58.2607
57.9453
57.5164
56.9491
56.2151
55.2818
54.1119
52.6629
50.8867
48.7293
46.1307
43.0262
39.3476
35.0266
30
24.2164
17.647
10.296
2.19147
-6.40702
57.8008
57.7974
57.7881
57.7693
57.7356
57.6801
57.5939
57.4669
57.2872
57.0409
56.7123
56.2833
55.7332
55.0385
54.1728
53.1059
51.8043
50.2305
48.343
46.0971
43.445
40.3374
36.7255
32.5641
27.8157
22.4559
16.4795
9.90662
2.7745
-4.69822
56.8373
56.8242
56.7921
56.7386
56.6598
56.5494
56.3989
56.1984
55.9364
55.5998
55.1734
54.64
53.9804
53.1726
52.1925
51.0132
49.6049
47.9357
45.9712
43.6753
41.0114
37.9436
34.4387
30.4691
26.0155
21.071
15.6447
9.76569
3.47551
-3.04707
55.857
55.8345
55.7805
55.6938
55.5719
55.4093
55.1978
54.9282
54.5895
54.1693
53.6535
53.026
52.2692
51.3632
50.2864
49.0153
47.5245
45.7874
43.7764
41.4635
38.8218
35.8264
32.4566
28.6976
24.5427
19.9964
15.0758
9.8129
4.24862
-1.47321
54.8648
54.8334
54.7586
54.6403
54.4777
54.2659
53.9975
53.6636
53.2543
52.7579
52.1616
51.4508
50.6095
49.6202
48.4641
47.1212
45.5704
43.7902
41.7592
39.4567
36.8638
33.9648
30.7481
27.2082
23.3471
19.1757
14.7149
9.99656
5.05861
0.0168754
53.8659
53.8262
53.7318
53.584
53.3832
53.1257
52.8046
52.4119
51.9384
51.3737
50.7062
49.923
49.0099
47.952
46.7333
45.3371
43.7466
41.9451
39.9165
37.6464
35.1226
32.3362
29.2827
25.9629
22.3842
18.5611
14.5156
10.2779
5.88201
1.4214
52.8661
52.8185
52.706
52.5306
52.2947
51.9952
51.6261
51.1802
50.6494
50.0244
49.2951
48.4503
47.478
46.3654
45.0995
43.667
42.0547
40.2503
38.2425
36.0219
33.5816
30.918
28.0315
24.9272
21.6157
18.113
14.4408
10.6267
6.70098
2.73871
51.871
51.8163
51.687
51.4866
51.2185
50.881
50.4687
49.9755
49.3942
48.717
47.9352
47.0393
46.0195
44.8653
43.5664
42.1125
40.4939
38.702
36.7294
34.5708
32.2236
29.6879
26.9676
24.0704
21.0085
17.7983
14.4604
11.0194
7.50176
3.96802
50.887
50.8257
50.6813
50.4581
50.1612
49.7896
49.3391
48.8044
48.1795
47.4579
46.6326
45.6957
44.6394
43.4555
42.1361
40.6737
39.0617
37.2944
35.368
33.2803
31.0316
28.625
26.0665
23.3655
20.5345
17.5897
14.55
11.4371
8.27404
5.10963
49.9204
49.8532
49.6952
49.4517
49.1292
48.7277
48.2438
47.6733
47.0115
46.2532
45.3927
44.4241
43.3413
42.1381
40.8091
39.3491
37.7541
36.021
34.1485
32.1371
29.9892
27.7098
25.3063
22.7887
20.1697
17.4643
14.6898
11.8652
9.01023
6.16455
48.9778
48.9054
48.7354
48.474
48.129
47.7016
47.1891
46.5885
45.8961
45.1081
44.2203
43.2283
42.1278
40.9146
39.5851
38.1364
36.5664
34.8744
33.0609
31.1284
29.0808
26.9244
24.6673
22.3196
19.8936
17.4032
14.8638
12.292
9.70485
7.1344
48.0658
47.9889
47.8085
47.5316
47.1673
46.7177
46.1812
45.5556
44.8386
44.0274
43.1193
42.1114
41.0009
39.7854
38.4629
37.0323
35.4934
33.847
32.0953
30.242
28.2923
26.2529
24.1323
21.9406
19.6892
17.3908
15.0591
12.7087
10.354
8.02122
47.1915
47.1106
46.9212
46.6311
46.2504
45.7823
45.226
44.5804
43.844
43.0154
42.0932
41.0758
39.9618
38.7501
37.4405
36.0332
34.5294
32.9312
31.242
29.4665
27.6103
25.6808
23.6864
21.6365
19.542
17.4143
15.2655
13.1083
10.9552
8.82736
46.3618
46.2775
46.0805
45.7792
45.3849
44.9015
44.3293
43.6679
42.917
42.0762
41.1452
40.1235
39.0112
37.8084
36.5159
35.1353
33.6689
32.1198
30.4922
28.7913
27.0234
25.1956
23.3163
21.3944
19.4399
17.463
15.4746
13.4855
11.5066
9.55519
45.5838
45.4967
45.2933
44.9827
44.577
44.0814
43.4967
42.8234
42.062
41.2133
40.2778
39.2563
38.1497
36.9592
35.6868
34.3349
32.9067
31.4061
29.8377
28.2073
26.5211
24.7864
23.0111
21.2036
19.373
17.5286
15.6798
13.8364
12.0075
10.2074
44.8648
44.7754
44.5665
44.2481
43.8333
43.3279
42.7337
42.0516
41.2833
40.4301
39.4937
38.4755
37.3775
36.2017
34.951
33.6284
32.2378
30.7836
29.271
27.7058
26.0943
24.4435
22.7609
21.0546
19.3327
17.6035
15.8756
14.1574
12.4568
10.7857
44.2124
44.1208
43.9072
43.5823
43.1601
42.6471
42.0457
41.3577
40.5851
39.7303
38.7955
37.783
36.6954
35.5356
34.3069
33.013
31.6584
30.2478
28.7864
27.2803
25.7357
24.1594
22.5585
20.9404
19.3127
17.6828
16.0584
14.4469
12.8553
11.2933
43.6342
43.5406
43.3227
42.992
42.5636
42.0447
41.4381
40.7461
39.9713
39.1166
38.1851
37.1795
36.1031
34.9593
33.752
32.4853
31.1638
29.7927
28.3773
26.9236
25.4378
23.9263
22.3959
20.8535
19.306
17.7603
16.2232
14.7012
13.2007
11.7296
43.1386
43.0428
42.8201
42.4839
42.0505
41.5273
40.9172
40.2228
39.4475
38.5945
37.6672
36.6692
35.604
34.4755
33.2879
32.0457
30.7538
29.4174
28.042
26.6335
25.1978
23.7413
22.2704
20.7914
19.3108
17.835
16.3701
14.922
13.4963
12.1
42.7346
42.6356
42.4065
42.064
41.6256
41.0986
40.4857
39.7898
39.0145
38.1637
37.2409
36.2502
35.1952
34.0804
32.9101
31.6891
30.4224
29.1153
27.7732
26.402
25.0076
23.596
22.1732
20.7454
19.3186
17.8986
16.4911
15.1016
13.735
12.3972
42.433
42.3285
42.0912
41.7431
41.3013
40.7718
40.1569
39.46
38.6851
37.8364
36.9177
35.933
34.8867
33.783
32.6267
31.4227
30.176
28.8919
27.5761
26.2341
24.8717
23.4948
22.1092
20.7207
19.335
17.9577
16.5941
15.2492
13.9278
12.635
42.2475
42.12
41.8661
41.513
41.07
40.5391
39.9232
39.2263
38.4526
37.6061
36.691
35.7113
34.6716
33.5763
32.4303
31.2384
30.0058
28.7379
27.4402
26.1182
24.7777
23.4244
22.0639
20.7019
19.3438
17.9949
16.6604
15.345
14.0531
12.7893
42.2393
42.0464
41.7644
41.4053
40.9601
40.4267
39.8087
39.1107
38.337
37.4916
36.5784
35.6017
34.5659
33.4756
32.3357
31.1511
29.927
28.6687
27.3816
26.0713
24.7435
23.4036
22.0573
20.7101
19.3673
18.0341
16.7153
15.4157
14.1396
12.8909
-156.538
-135.77
-109.654
-50.6801
-56.6396
-64.1923
-31.3722
-43.666
-54.1685
-30.6477
-42.0395
-50.5997
-26.245
-35.4855
-43.0072
-21.4596
-29.2826
-36.0001
-17.7672
-24.5121
-30.3485
-14.6414
-20.436
-25.4371
-11.7947
-16.7841
-21.0732
-9.19666
-13.5162
-17.2117
-6.83047
-10.5875
-13.7874
-4.6705
-7.95206
-10.737
-2.69682
-5.57496
-8.01122
-0.894301
-3.42893
-5.57072
0.749965
-1.49126
-3.38331
2.24722
0.257145
-1.42241
3.60739
1.83254
0.334196
4.83936
3.24907
1.90548
5.95122
4.51913
3.30779
6.95037
5.65375
4.55539
7.84336
6.66249
5.66052
8.63645
7.55415
6.63415
9.33422
8.33539
7.48482
9.9425
9.01382
8.22147
10.4621
9.5916
8.84774
10.9011
10.078
9.37329
11.2514
10.4658
9.79256
11.5308
10.7733
10.1226
11.7117
10.9736
10.3396
11.8338
11.1103
10.4846
-89.6228
-93.613
-94.8583
-98.8359
-104.96
-112.533
-121.376
-131.36
-142.211
-153.48
-164.491
-174.296
-181.691
-185.487
-185.161
-180.464
-171.729
-159.356
-143.924
-126.335
-107.706
-89.1632
-71.657
-55.8569
-42.1266
-30.5607
-21.0501
-13.3593
-7.14011
-2.18166
-77.6033
-85.6512
-89.9827
-95.5683
-102.32
-109.996
-118.69
-128.363
-138.767
-149.465
-159.816
-168.949
-175.819
-179.401
-179.204
-174.923
-166.741
-154.963
-140.158
-123.233
-105.294
-87.4327
-70.5552
-55.2917
-41.9798
-30.7039
-21.3591
-13.7248
-7.4698
-2.48403
-69.0721
-80.2464
-86.4636
-92.6647
-99.7496
-107.556
-116.071
-125.293
-135.051
-144.969
-154.471
-162.792
-169.064
-172.365
-172.177
-168.143
-160.347
-149.078
-134.925
-118.788
-101.725
-84.7549
-68.7095
-54.1615
-41.415
-30.5451
-21.4566
-13.9505
-7.72208
-2.75141
-62.1541
-73.9952
-82.4571
-89.8884
-97.3351
-105.096
-113.339
-122.084
-131.164
-140.239
-148.813
-156.243
-161.836
-164.728
-164.286
-160.197
-152.568
-141.727
-128.275
-113.07
-97.0752
-81.1988
-66.1741
-52.5032
-40.4541
-30.0953
-21.3464
-14.0361
-7.89394
-2.97641
-53.4427
-65.2493
-75.4921
-84.6262
-93.1224
-101.351
-109.603
-118.015
-126.51
-134.82
-142.518
-149.057
-153.845
-156.064
-155.058
-150.715
-143.204
-132.866
-120.277
-106.204
-91.4826
-76.8885
-63.0459
-50.3851
-39.1407
-29.3795
-21.0414
-13.9867
-7.98498
-3.15343
-45.13
-56.0272
-66.8274
-76.9517
-86.2949
-95.0982
-103.601
-111.92
-120.015
-127.686
-134.585
-140.231
-144.044
-145.377
-143.796
-139.35
-132.189
-122.618
-111.147
-98.4318
-85.1703
-72.0058
-59.4605
-47.9007
-37.535
-28.4339
-20.5613
-13.8117
-7.99687
-3.27907
-38.0089
-47.5342
-57.9006
-68.0829
-77.6081
-86.5701
-95.1178
-103.289
-111.011
-118.098
-124.246
-129.026
-131.9
-132.497
-130.674
-126.472
-119.98
-111.453
-101.323
-90.1284
-78.4372
-66.7758
-55.5783
-45.1588
-35.707
-27.3012
-19.9307
-13.5236
-7.93348
-3.35266
-31.8399
-39.9914
-49.4089
-58.9967
-68.1186
-76.7545
-84.9751
-92.7514
-99.9665
-106.43
-111.867
-115.916
-118.147
-118.401
-116.681
-112.989
-107.375
-100.046
-91.3497
-81.7166
-71.6002
-61.4274
-51.5592
-42.2671
-33.7269
-26.0257
-19.1759
-13.1369
-7.8006
-3.37635
-26.4756
-33.4191
-41.7148
-50.371
-58.7265
-66.6933
-74.2883
-81.4429
-88.0168
-93.822
-98.6219
-102.13
-104.036
-104.265
-102.851
-99.789
-95.1182
-88.9981
-81.6982
-73.5539
-64.9234
-56.1513
-47.5378
-39.3187
-31.6578
-24.6485
-18.323
-12.6667
-7.60556
-3.35465
-21.8175
-27.7463
-34.9455
-42.5733
-50.0135
-57.1483
-63.9653
-70.3816
-76.255
-81.4136
-85.6613
-88.7815
-90.5587
-90.9265
-89.8985
-87.481
-83.7109
-78.7086
-72.6776
-65.8757
-58.584
-51.0796
-43.6117
-36.3851
-29.5509
-23.2058
-17.3963
-12.1286
-7.35677
-3.29364
-17.7501
-22.841
-29.0602
-35.7066
-42.2335
-48.5171
-54.5331
-60.2003
-65.3888
-69.9494
-73.7238
-76.5501
-78.2768
-78.8291
-78.186
-76.36
-73.3883
-69.362
-64.4327
-58.797
-52.6747
-46.2877
-39.8426
-33.516
-27.4456
-21.7276
-16.4176
-11.5373
-7.06321
-3.20003
-14.173
-18.574
-23.9536
-29.7277
-35.4209
-40.9159
-46.1862
-51.1596
-55.7237
-59.7534
-63.1217
-65.7054
-67.3955
-68.1109
-67.8062
-66.4888
-64.1938
-60.9907
-56.9921
-52.3473
-47.2273
-41.81
-36.2654
-30.7447
-25.3717
-20.2388
-15.4065
-10.9068
-6.73401
-3.08046
-11.0107
-14.8411
-19.5133
-24.5371
-29.5022
-34.3027
-38.9144
-43.2761
-47.2933
-50.8623
-53.881
-56.253
-57.8949
-58.7296
-58.6995
-57.802
-56.0659
-53.5442
-50.3205
-46.5078
-42.2388
-37.6555
-32.8974
-28.093
-23.3517
-18.7601
-14.3802
-10.2503
-6.37803
-2.94108
-8.20536
-11.5608
-15.6391
-20.0263
-24.3682
-28.5717
-32.6162
-36.4513
-39.9983
-43.1716
-45.8881
-48.0703
-49.6512
-50.5616
-50.7439
-50.1846
-48.9035
-46.9405
-44.3574
-41.2394
-37.6895
-33.8205
-29.7464
-25.5752
-21.403
-17.309
-13.3539
-9.57982
-6.00366
-2.7874
-5.71092
-8.66875
-12.2482
-16.0975
-19.9105
-23.6058
-27.167
-30.5532
-33.6989
-36.5332
-38.9876
-40.9985
-42.5102
-43.4631
-43.8045
-43.5127
-42.5987
-41.0914
-39.0363
-36.4973
-33.5538
-30.2951
-26.814
-23.201
-19.539
-15.8997
-12.341
-8.90618
-5.61863
-2.62425
-3.49044
-6.11375
-9.27326
-12.6683
-16.0335
-19.298
-22.449
-25.4535
-28.2573
-30.8009
-33.0276
-34.8843
-36.3235
-37.2952
-37.7536
-37.6711
-37.0518
-35.9154
-34.2949
-32.2378
-29.805
-27.067
-24.099
-20.9763
-17.7701
-14.5443
-11.353
-8.23901
-5.22992
-2.45585
-1.51355
-3.85433
-6.65946
-9.67061
-12.6568
-15.5564
-18.3596
-21.0399
-23.5521
-25.8466
-27.8753
-29.5934
-30.9599
-31.9362
-32.4793
-32.5588
-32.1745
-31.3392
-30.0759
-28.4196
-26.4166
-24.1224
-21.5975
-18.9044
-16.1039
-13.2524
-10.3995
-7.58668
-4.84377
-2.28586
0.245169
-1.85627
-4.36176
-7.04813
-9.71351
-12.304
-14.8124
-17.2172
-19.4809
-21.5614
-23.4182
-25.013
-26.3105
-27.2787
-27.8808
-28.0856
-27.8889
-27.2979
-26.3282
-25.0051
-23.3637
-21.4471
-19.3043
-16.9867
-14.546
-12.0317
-9.48869
-6.95643
-4.46564
-2.11744
1.80724
-0.0909699
-2.34276
-4.75416
-7.14783
-9.47645
-11.7348
-13.9057
-15.9574
-17.8544
-19.5621
-21.0479
-22.281
-23.2338
-23.8749
-24.176
-24.1286
-23.7356
-23.007
-21.9606
-20.6228
-19.0273
-17.2132
-15.2228
-13.1001
-10.888
-8.62718
-6.35436
-4.10026
-1.95328
3.1911
1.46566
-0.571175
-2.74973
-4.91334
-7.02021
-9.06669
-11.0388
-12.9099
-14.6496
-16.2283
-17.6178
-18.7914
-19.7247
-20.391
-20.7652
-20.8362
-20.6033
-20.0723
-19.2556
-18.1727
-16.8495
-15.3175
-13.6115
-11.7685
-9.82606
-7.82039
-5.78562
-3.75171
-1.79565
4.41242
2.83387
0.979072
-1.00248
-2.97144
-4.8907
-6.75777
-8.56136
-10.2788
-11.8839
-13.3512
-14.6562
-15.7754
-16.6873
-17.3688
-17.7982
-17.9627
-17.859
-17.4898
-16.8633
-15.9936
-14.901
-13.6103
-12.1504
-10.5525
-8.8491
-7.07263
-5.25449
-3.42345
-1.64645
5.48486
4.03097
2.33006
0.514855
-1.28981
-3.05069
-4.76621
-6.42718
-8.01416
-9.5045
-10.876
-12.1071
-13.1774
-14.0673
-14.7571
-15.2278
-15.4659
-15.4662
-15.2291
-14.7597
-14.0682
-13.17
-12.0851
-10.8371
-9.45251
-7.95963
-6.38738
-4.76451
-3.11844
-1.50727
6.41933
5.07085
3.4995
1.82417
0.15761
-1.47014
-3.05819
-4.59903
-6.07583
-7.46879
-8.75836
-9.92564
-10.9523
-11.8207
-12.5142
-13.0156
-13.3112
-13.3948
-13.2652
-12.9251
-12.3816
-11.6465
-10.7358
-9.66904
-8.46881
-7.1597
-5.76758
-4.31879
-2.83925
-1.37947
7.22624
5.96622
4.50324
2.9447
1.39341
-0.123221
-1.60482
-3.0452
-4.42965
-5.74064
-6.96085
-8.07342
-9.06187
-9.91035
-10.6041
-11.1279
-11.4682
-11.6183
-11.5757
-11.3414
-10.9201
-10.3209
-9.55662
-8.64357
-7.60104
-6.4506
-5.21545
-3.91978
-2.58799
-1.26414
7.91126
6.72467
5.35123
3.88909
2.43291
1.00796
-0.38577
-1.74313
-3.0511
-4.29399
-5.45624
-6.52268
-7.47838
-8.30891
-9.00076
-9.54034
-9.91516
-10.1178
-10.1449
-9.99605
-9.67452
-9.18709
-8.54421
-7.7596
-6.84993
-5.83427
-4.73356
-3.57007
-2.36682
-1.16235
8.48395
7.35702
6.05628
4.67225
3.29308
1.94235
0.619785
-0.67028
-1.91615
-3.1036
-4.21845
-5.24688
-6.1752
-6.99011
-7.67907
-8.22978
-8.63085
-8.87453
-8.95669
-8.87617
-8.63489
-8.23806
-7.69424
-7.01515
-6.21535
-5.31189
-4.32385
-3.27186
-2.17768
-1.07517
8.94164
7.86182
6.61811
5.29541
3.97672
2.68431
1.41769
0.180579
-1.01635
-2.15996
-3.23718
-4.2352
-5.14132
-5.94308
-6.6287
-7.18683
-7.60699
-7.88143
-8.00556
-7.9776
-7.79857
-7.47253
-7.00666
-6.41114
-5.69894
-4.8855
-3.9884
-3.02693
-2.02176
-1.0029
9.29838
8.25326
7.05207
5.77495
4.50111
3.25189
2.02669
0.828795
-0.331876
-1.44301
-2.4923
-3.4677
-4.3572
-5.149
-5.83185
-6.39524
-6.82948
-7.12689
-7.28254
-7.29411
-7.16199
-6.88941
-6.48257
-5.95052
-5.30504
-4.56039
-3.73299
-2.84106
-1.90436
-0.949432
9.53553
8.51288
7.33989
6.0937
4.85025
3.63014
2.43284
1.26142
0.125315
-0.963725
-1.99391
-2.95367
-3.83145
-4.61572
-5.29524
-5.85999
-6.30143
-6.61232
-6.78759
-6.82458
-6.72326
-6.4863
-6.11919
-5.63022
-5.03034
-4.33294
-3.55358
-2.70972
-1.82053
-0.910719
9.68396
8.66591
7.50645
6.2765
5.04837
3.84241
2.65851
1.49974
0.375277
-0.703397
-1.72475
-2.67749
-3.55041
-4.33253
-5.01356
-5.58324
-6.03186
-6.35222
-6.53957
-6.59134
-6.50733
-6.28997
-5.9444
-5.47849
-4.90272
-4.22999
-3.47532
-2.6555
-1.78865
-0.894692
)
;

boundaryField
{
    inlet
    {
        type            zeroGradient;
    }
    outlet
    {
        type            fixedValue;
        value           uniform 0;
    }
    flap
    {
        type            zeroGradient;
    }
    upperWall
    {
        type            zeroGradient;
    }
    lowerWall
    {
        type            zeroGradient;
    }
    frontAndBack
    {
        type            empty;
    }
}


// ************************************************************************* //
