/*--------------------------------*- C++ -*----------------------------------*\
  =========                 |
  \\      /  F ield         | OpenFOAM: The Open Source CFD Toolbox
   \\    /   O peration     | Website:  https://openfoam.org
    \\  /    A nd           | Version:  7
     \\/     M anipulation  |
\*---------------------------------------------------------------------------*/
FoamFile
{
    version     2.0;
    format      ascii;
    class       surfaceScalarField;
    location    "0.3";
    object      phi;
}
// * * * * * * * * * * * * * * * * * * * * * * * * * * * * * * * * * * * * * //

dimensions      [0 3 -1 0 0 0 0];

internalField   nonuniform List<scalar> 
5457
(
0.198432
0.00156779
0.196525
0.0019076
0.194283
0.00224204
0.191662
0.00262043
0.188662
0.00300007
0.185285
0.00337668
0.181527
0.00375844
0.177374
0.00415247
0.172811
0.00456338
0.167817
0.00499435
0.162369
0.00544761
0.156445
0.00592434
0.15002
0.00642433
0.143075
0.00694568
0.135591
0.00748426
0.127557
0.0080333
0.118974
0.0085828
0.109855
0.00911898
0.100232
0.00962377
0.0901572
0.0100744
0.0797137
0.0104435
0.0690149
0.0106989
0.0582102
0.0108046
0.0474879
0.0107224
0.0370748
0.010413
0.027236
0.00983887
0.0182679
0.00896802
0.0105268
0.00774112
0.00425767
0.00626915
0.00425767
0.199943
0.00162504
0.19922
0.00262996
0.198056
0.00340654
0.196486
0.00418988
0.194508
0.00497828
0.192119
0.00576593
0.189313
0.00656479
0.186077
0.00738795
0.182396
0.00824497
0.178247
0.00914285
0.173608
0.0100868
0.168452
0.0110802
0.162753
0.0121237
0.156483
0.0132152
0.149619
0.0143481
0.142141
0.0155112
0.134037
0.016687
0.125305
0.0178511
0.115958
0.0189709
0.106027
0.020005
0.0955681
0.0209028
0.0846618
0.0216052
0.0734205
0.0220459
0.0619884
0.0221544
0.0505405
0.0218609
0.0392767
0.0211027
0.0284076
0.019837
0.0181114
0.0180373
0.00852945
0.0158511
0.0127871
0.199795
0.00183034
0.19913
0.00329467
0.198034
0.00450279
0.196558
0.0056656
0.19471
0.00682676
0.192485
0.00799008
0.18988
0.00916969
0.186885
0.010383
0.183486
0.0116442
0.179665
0.0129645
0.175399
0.0143526
0.170664
0.0158148
0.165434
0.0173544
0.159678
0.0189703
0.15337
0.0206565
0.146481
0.0224
0.138988
0.0241802
0.130873
0.0259665
0.122126
0.0277172
0.112753
0.0293782
0.102774
0.0308824
0.0922289
0.0321498
0.0811847
0.0330901
0.0697332
0.0336059
0.0579934
0.0336008
0.0461062
0.0329899
0.0342237
0.0317196
0.0224866
0.0297744
0.0110094
0.0273284
0.0237965
0.199717
0.00211326
0.199051
0.00396121
0.197974
0.00557924
0.196523
0.00711662
0.194711
0.00863882
0.192537
0.0101636
0.189999
0.0117086
0.187088
0.013294
0.183794
0.0149381
0.180102
0.0166556
0.175996
0.0184585
0.171455
0.020356
0.166456
0.0223538
0.160973
0.0244531
0.154981
0.0266492
0.14845
0.0289302
0.141355
0.0312751
0.13367
0.0336516
0.125373
0.0360146
0.116447
0.0383037
0.106887
0.0404425
0.0966988
0.0423384
0.0859052
0.0438836
0.0745509
0.0449603
0.0627037
0.045448
0.0504561
0.0452375
0.0379216
0.0442541
0.0252275
0.0424685
0.0124984
0.0400575
0.0362949
0.199681
0.002432
0.199006
0.00463609
0.197949
0.00663708
0.196526
0.00853931
0.194752
0.0104128
0.192628
0.0122877
0.19015
0.0141862
0.187313
0.0161314
0.184106
0.0181446
0.180518
0.0202438
0.176533
0.0224437
0.172133
0.0247561
0.167298
0.027189
0.162005
0.0297458
0.15623
0.0324238
0.149947
0.0352131
0.143128
0.0380941
0.135744
0.041036
0.127765
0.0439939
0.119162
0.0469068
0.109908
0.0496958
0.0999847
0.0522621
0.0893797
0.0544886
0.0780982
0.0562418
0.0661661
0.0573801
0.0536376
0.057766
0.0405997
0.057292
0.0271776
0.0558907
0.0135286
0.0537065
0.0498234
0.199666
0.00276555
0.19899
0.00531218
0.197955
0.00767221
0.196569
0.00992544
0.194843
0.0121393
0.192778
0.0143523
0.190372
0.016592
0.187619
0.0188843
0.18451
0.0212533
0.181034
0.0237198
0.177177
0.0263013
0.172921
0.0290119
0.168248
0.0318621
0.163136
0.0348576
0.157562
0.0379981
0.151498
0.0412763
0.144917
0.0446756
0.137785
0.0481683
0.130065
0.051713
0.12172
0.0552521
0.112707
0.058709
0.102984
0.0619855
0.0925114
0.0649608
0.0812616
0.0674916
0.0692245
0.0694172
0.0564218
0.0705687
0.0429204
0.0707934
0.0288479
0.0699631
0.0144
0.0681544
0.0642234
0.199663
0.00310205
0.198995
0.00598065
0.197987
0.00867974
0.196645
0.0112681
0.194975
0.0138095
0.19298
0.0163474
0.190657
0.0189143
0.188002
0.0215393
0.185007
0.024249
0.18166
0.027067
0.177947
0.0300135
0.173854
0.0331052
0.169361
0.0363551
0.164447
0.0397715
0.159088
0.0433573
0.153256
0.0471085
0.146919
0.0510126
0.14004
0.0550468
0.132578
0.0591757
0.124481
0.0633485
0.115695
0.0674954
0.106156
0.0715243
0.0958
0.0753169
0.0845658
0.0787257
0.0724085
0.0815745
0.0593159
0.0836613
0.0453318
0.0847775
0.0305839
0.084711
0.0153051
0.0834333
0.0795285
0.199668
0.00343419
0.199015
0.00663374
0.19804
0.00965417
0.196748
0.0125609
0.195142
0.0154149
0.193227
0.0182628
0.191
0.0211414
0.188456
0.0240828
0.185589
0.0271163
0.182388
0.0302681
0.17884
0.033561
0.174931
0.0370145
0.170641
0.0406444
0.165951
0.0444623
0.160834
0.0484744
0.155261
0.0526811
0.149198
0.0570754
0.142604
0.0616412
0.135428
0.0663514
0.127611
0.0711652
0.119082
0.0760243
0.109759
0.0808481
0.0995476
0.0855279
0.0883531
0.0899201
0.0760882
0.0938395
0.0626959
0.0970535
0.0481827
0.0992907
0.0326622
0.100231
0.0164002
0.0996953
0.0959288
0.199677
0.00375705
0.199046
0.00726502
0.19811
0.0105899
0.196874
0.0137975
0.195341
0.0169478
0.193514
0.0200894
0.191393
0.0232626
0.188973
0.0265025
0.186249
0.0298409
0.18321
0.0333066
0.179846
0.0369251
0.176142
0.0407186
0.17208
0.044706
0.167641
0.0489022
0.162797
0.0533179
0.15752
0.0579586
0.151771
0.0628237
0.145507
0.0679058
0.13867
0.0731883
0.131191
0.0786439
0.122985
0.0842302
0.113948
0.0898851
0.103957
0.0955186
0.0928754
0.101002
0.0805603
0.106155
0.0668893
0.110725
0.051801
0.114379
0.0353619
0.116671
0.0178514
0.117206
0.11378
0.19969
0.00406711
0.199086
0.00786926
0.198194
0.0114815
0.19702
0.014972
0.195566
0.018401
0.193837
0.0218185
0.191832
0.0252678
0.189548
0.0287867
0.186979
0.0324095
0.184118
0.0361673
0.180955
0.0400881
0.177477
0.044197
0.173667
0.048516
0.169505
0.0530638
0.164968
0.0578556
0.160024
0.0629027
0.154635
0.0682121
0.148755
0.0737862
0.142322
0.0796212
0.135259
0.0857064
0.127469
0.0920204
0.118827
0.098527
0.10918
0.105166
0.0983406
0.111841
0.0860978
0.118398
0.0722313
0.124591
0.0565602
0.13005
0.0390338
0.134197
0.0198859
0.136354
0.133666
0.199705
0.00436172
0.199132
0.00844218
0.19829
0.0123242
0.197183
0.0160791
0.195816
0.019768
0.194192
0.0234425
0.192311
0.0271481
0.190173
0.0309252
0.187772
0.0348101
0.185103
0.0388362
0.182158
0.0430339
0.178924
0.047431
0.175387
0.0520524
0.17153
0.0569208
0.16733
0.0620558
0.162758
0.067475
0.157776
0.0731934
0.152339
0.0792239
0.146383
0.0855772
0.139828
0.0922615
0.132567
0.099281
0.124461
0.106633
0.115328
0.114299
0.104931
0.122238
0.0929751
0.130354
0.0791052
0.138461
0.0629442
0.146211
0.0441934
0.152948
0.0228788
0.157668
0.156545
0.199723
0.00463884
0.199185
0.00898029
0.198395
0.0131137
0.19736
0.017114
0.196085
0.0210432
0.194573
0.0249546
0.192825
0.0288957
0.190842
0.0329087
0.18862
0.037032
0.186155
0.041301
0.183441
0.0457482
0.180468
0.0504036
0.177226
0.0552951
0.173698
0.0604489
0.169864
0.0658891
0.1657
0.071639
0.161172
0.0777216
0.156236
0.0841603
0.150833
0.0909806
0.144883
0.0982108
0.138281
0.105883
0.13088
0.114034
0.12248
0.1227
0.112803
0.131915
0.10147
0.141687
0.0879648
0.151966
0.0716214
0.162555
0.0516716
0.172898
0.0275371
0.181803
0.184082
0.199742
0.00489686
0.199242
0.00948073
0.198509
0.0138465
0.19755
0.0180723
0.196372
0.0222217
0.194977
0.0263491
0.193369
0.0305037
0.191549
0.0347294
0.189514
0.0390663
0.187264
0.0435512
0.184794
0.0482185
0.182097
0.0531002
0.179166
0.0582268
0.175987
0.063627
0.172547
0.0693292
0.168825
0.0753616
0.164792
0.0817542
0.160412
0.0885402
0.155635
0.0957582
0.15039
0.103456
0.14458
0.111692
0.138069
0.120545
0.130658
0.130111
0.122057
0.140515
0.111833
0.151912
0.0993227
0.164475
0.0835133
0.178364
0.0628747
0.193536
0.0353568
0.209321
0.219439
0.199762
0.00513452
0.199302
0.00994122
0.198629
0.0145197
0.19775
0.0189506
0.196673
0.0232994
0.195401
0.0276212
0.193938
0.0319667
0.192286
0.036381
0.190447
0.0409055
0.18842
0.0455783
0.186203
0.050435
0.183794
0.0555092
0.181188
0.0608331
0.178377
0.0664378
0.175352
0.0723544
0.172098
0.0786152
0.168597
0.0852554
0.164822
0.0923157
0.160735
0.0998452
0.156284
0.107907
0.151394
0.116582
0.145956
0.125983
0.139807
0.13626
0.132693
0.147629
0.124206
0.160399
0.113655
0.175027
0.099792
0.192227
0.0802042
0.213124
0.0499114
0.239613
0.26935
0.199784
0.00535088
0.199365
0.01036
0.198754
0.0151307
0.197958
0.0197462
0.196985
0.0242729
0.195839
0.0287672
0.194525
0.0332803
0.193048
0.0378586
0.191409
0.0425441
0.189612
0.0473758
0.187656
0.0523901
0.185544
0.0576217
0.183273
0.0631035
0.180843
0.0688683
0.178249
0.0749486
0.175485
0.0813791
0.172542
0.0881981
0.169407
0.0954504
0.166061
0.103191
0.162476
0.111492
0.158609
0.120449
0.154401
0.130191
0.149758
0.140903
0.144531
0.152855
0.138473
0.166457
0.131125
0.182375
0.121549
0.201802
0.107433
0.22724
0.0810546
0.265992
0.350405
-0.0126837
0.0126837
-0.0282176
0.0155339
-0.0456007
0.0173831
-0.0642833
0.0186826
-0.0838052
0.0195219
-0.103734
0.0199289
-0.123647
0.0199126
-0.143106
0.0194596
-0.161649
0.0185423
-0.178775
0.0171267
-0.193956
0.0151804
-0.206635
0.0126796
-0.216257
0.00962205
-0.222295
0.00603799
-0.224247
0.00195194
-0.221793
-0.00245391
-0.214674
-0.00711904
-0.202957
-0.0117173
-0.186961
-0.0159964
-0.167209
-0.0197512
-0.14438
-0.0228297
-0.11924
-0.0251401
-0.0925942
-0.0266453
-0.0652433
-0.027351
-0.0379208
-0.0273225
-0.0110143
-0.0269064
0.0149233
-0.0259376
0.0396051
-0.0246818
0.0634919
-0.0238868
-0.0256407
-0.0158124
0.028496
-0.0327457
0.0324672
-0.0507117
0.035349
-0.0695874
0.0375584
-0.0890879
0.0390224
-0.108872
0.0397127
-0.128557
0.0395982
-0.147726
0.038628
-0.165918
0.0367347
-0.182635
0.0338434
-0.197339
0.0298843
-0.209468
0.024809
-0.218458
0.0186122
-0.223764
0.0113438
-0.22495
0.00313816
-0.221669
-0.005735
-0.213819
-0.0149689
-0.201499
-0.0240378
-0.185031
-0.0324642
-0.164935
-0.0398471
-0.141877
-0.0458878
-0.116609
-0.0504082
-0.0899061
-0.0533481
-0.062495
-0.0547622
-0.0349748
-0.0548427
-0.00794554
-0.0539357
0.0179811
-0.0518642
0.0427166
-0.0494173
0.0667342
-0.0479044
-0.04956
-0.0166107
0.0451068
-0.0339129
0.0497694
-0.0518542
0.0532904
-0.0704033
0.0561075
-0.0893811
0.0580003
-0.108528
0.0588592
-0.127521
0.0585917
-0.145986
0.0570923
-0.163492
0.054241
-0.17956
0.0499111
-0.193661
0.0439859
-0.205235
0.0363826
-0.213709
0.0270862
-0.218541
0.016176
-0.219259
0.00385605
-0.215567
-0.00942691
-0.20735
-0.023186
-0.194758
-0.03663
-0.178151
-0.0490712
-0.158068
-0.0599299
-0.135182
-0.0687735
-0.11024
-0.0753504
-0.0840006
-0.0795875
-0.0571598
-0.0816029
-0.0302684
-0.081734
-0.00407424
-0.0801299
0.0210036
-0.0769421
0.0450138
-0.0734275
0.0682257
-0.0711163
-0.0720674
-0.0163531
0.0614599
-0.0332869
0.0667032
-0.0506927
0.0706962
-0.0685494
0.0739642
-0.0867335
0.0761843
-0.105048
0.0771736
-0.123225
0.0767687
-0.140929
0.074796
-0.157755
0.071067
-0.17323
0.0653865
-0.186818
0.0575741
-0.197934
0.0474981
-0.205972
0.0351243
-0.210364
0.0205681
-0.21061
0.00410223
-0.206444
-0.0135933
-0.19783
-0.0317998
-0.184974
-0.049486
-0.168274
-0.0657713
-0.148285
-0.0799184
-0.125685
-0.0913742
-0.101207
-0.0998282
-0.0755879
-0.105206
-0.0494916
-0.107699
-0.0235088
-0.107717
0.00159919
-0.105238
0.0255982
-0.100941
0.0486013
-0.0964305
0.0707069
-0.0932219
-0.093071
-0.0154492
0.0769091
-0.0314323
0.0826863
-0.0478319
0.0870957
-0.0646343
0.0907666
-0.0817496
0.0932996
-0.099022
0.0944459
-0.116221
0.0939679
-0.133038
0.0916131
-0.149081
0.0871102
-0.163876
0.0801805
-0.176867
0.0705656
-0.187441
0.0580722
-0.194958
0.0426413
-0.198815
0.0244246
-0.198561
0.00384896
-0.193901
-0.0182533
-0.184913
-0.0407875
-0.17187
-0.0625299
-0.155201
-0.0824396
-0.135469
-0.099651
-0.113342
-0.113501
-0.0895322
-0.123638
-0.0647508
-0.129988
-0.0396424
-0.132808
-0.0148327
-0.132527
0.00900349
-0.129074
0.0317225
-0.12366
0.0534981
-0.118206
0.0742768
-0.114001
-0.112484
-0.0140155
0.0909246
-0.0285595
0.0972303
-0.0435192
0.102055
-0.058895
0.106142
-0.0746234
0.109028
-0.0905786
0.110401
-0.106558
0.109947
-0.122274
0.107329
-0.137345
0.102181
-0.151295
0.0941307
-0.163555
0.0828258
-0.17348
0.0679968
-0.18039
0.0495509
-0.183651
0.0276858
-0.182813
0.00301088
-0.177657
-0.0234091
-0.16836
-0.0500849
-0.155266
-0.0756238
-0.138825
-0.0988804
-0.119578
-0.118898
-0.0981761
-0.134903
-0.0752903
-0.146523
-0.0515945
-0.153684
-0.027704
-0.156698
-0.00440333
-0.155827
0.0179149
-0.151392
0.0392656
-0.145011
0.0596481
-0.138589
0.0789302
-0.133283
-0.130223
-0.0121103
0.103035
-0.0247745
0.109895
-0.0378804
0.115161
-0.0514461
0.119708
-0.0654336
0.123016
-0.0797441
0.124712
-0.0942013
0.124405
-0.10854
0.121667
-0.122392
0.116034
-0.135286
0.107024
-0.146639
0.0941785
-0.155772
0.0771303
-0.161961
0.0557394
-0.164535
0.0302602
-0.163069
0.00154497
-0.15744
-0.0290382
-0.147956
-0.0595688
-0.135023
-0.0885569
-0.119079
-0.114825
-0.10061
-0.137366
-0.0802372
-0.155276
-0.0585734
-0.168187
-0.0362554
-0.176002
-0.0139168
-0.179037
0.0076305
-0.177375
0.0282561
-0.172018
0.0481261
-0.164881
0.0669688
-0.157431
0.084618
-0.150932
-0.146224
-0.00978193
0.112817
-0.0201608
0.120273
-0.0310157
0.126016
-0.0423846
0.131077
-0.054256
0.134887
-0.0665595
0.137015
-0.0791473
0.136992
-0.0917807
0.1343
-0.104114
0.128368
-0.115682
0.118593
-0.125899
0.104395
-0.134064
0.085295
-0.139399
0.0610751
-0.141232
0.0320929
-0.139115
-0.000571958
-0.133079
-0.0350743
-0.1236
-0.0690484
-0.11111
-0.101047
-0.0959927
-0.129942
-0.0786418
-0.154717
-0.0596374
-0.174281
-0.0395137
-0.188311
-0.0188641
-0.196651
0.00145682
-0.199358
0.0210442
-0.196962
0.0400106
-0.190984
0.0582129
-0.183083
0.0753632
-0.174582
0.0912647
-0.166833
-0.160442
-0.00708151
0.119898
-0.0148115
0.128003
-0.0230462
0.134251
-0.0318439
0.139875
-0.0412217
0.144265
-0.0511398
0.146933
-0.0614829
0.147336
-0.0720452
0.144863
-0.0825124
0.138835
-0.0924427
0.128523
-0.10126
0.113213
-0.10826
0.0922952
-0.112643
0.0654576
-0.113623
0.0330732
-0.110868
-0.00332676
-0.104555
-0.0413879
-0.0953467
-0.0782564
-0.0836437
-0.11275
-0.0697312
-0.143854
-0.053861
-0.170587
-0.0365685
-0.191573
-0.0182943
-0.206585
0.000172164
-0.215118
0.0182415
-0.217427
0.0358892
-0.21461
0.0530404
-0.208135
0.0694024
-0.199445
0.0847164
-0.189896
0.0987723
-0.180889
-0.172847
-0.00407455
0.123973
-0.00884754
0.132776
-0.0141404
0.139544
-0.0200266
0.145761
-0.0265543
0.150792
-0.0337175
0.154097
-0.0414357
0.155054
-0.0495405
0.152967
-0.0577606
0.147055
-0.065692
0.136454
-0.0727934
0.120314
-0.0783925
0.0978942
-0.0817228
0.0687879
-0.0817535
0.0331038
-0.0784402
-0.00664001
-0.0720604
-0.0477677
-0.0634786
-0.0868383
-0.0529443
-0.123284
-0.0406145
-0.156184
-0.026581
-0.184621
-0.0112857
-0.206869
0.00461837
-0.222489
0.020553
-0.231052
0.0364306
-0.233305
0.0520734
-0.230252
0.0671981
-0.22326
0.0815474
-0.213794
0.0948927
-0.203241
0.107021
-0.193018
-0.18342
-0.000855233
0.124828
-0.00242454
0.134346
-0.00452841
0.141648
-0.00722026
0.148453
-0.0105897
0.154162
-0.0146691
0.158176
-0.0194125
0.159797
-0.0246817
0.158237
-0.0302565
0.15263
-0.0357742
0.141972
-0.0407589
0.125299
-0.0446281
0.101763
-0.046677
0.0708368
-0.0459111
0.0323378
-0.0421476
-0.0104034
-0.0360282
-0.0538871
-0.028549
-0.0943175
-0.0195674
-0.132266
-0.00899045
-0.166761
0.00277826
-0.19639
0.0154855
-0.219576
0.0287352
-0.235739
0.0423494
-0.244666
0.0559926
-0.246948
0.0693897
-0.243649
0.0822898
-0.23616
0.0944703
-0.225975
0.105733
-0.214504
0.115872
-0.203157
-0.192155
0.00251509
0.122313
0.00428664
0.132574
0.00550307
0.140431
0.0061876
0.147768
0.00619166
0.154158
0.00543192
0.158936
0.00391653
0.161313
0.00173348
0.16042
-0.000828395
0.155192
-0.00356406
0.144708
-0.00611323
0.127848
-0.00780345
0.103454
-0.00756469
0.070598
-0.00529224
0.0300654
-0.001366
-0.0143297
0.00285881
-0.0581119
0.00865174
-0.10011
0.0157062
-0.13932
0.0239266
-0.174981
0.033198
-0.205661
0.0434277
-0.229805
0.0542736
-0.246585
0.0654373
-0.25583
0.0766187
-0.258129
0.0875692
-0.2546
0.0980784
-0.24667
0.107963
-0.235859
0.117056
-0.223597
0.125166
-0.211267
-0.199062
0.00613496
0.116178
0.0112264
0.127483
0.0157687
0.135889
0.0198981
0.143639
0.0233381
0.150718
0.025962
0.156312
0.0278044
0.15947
0.0289891
0.159235
0.0296425
0.154538
0.0300128
0.144337
0.0304527
0.127408
0.0315061
0.1024
0.0336143
0.0684899
0.0363611
0.0273186
0.0393626
-0.0173312
0.0427779
-0.0615273
0.0467699
-0.104102
0.0517199
-0.14427
0.0577248
-0.180986
0.0647072
-0.212643
0.0725042
-0.237603
0.0808213
-0.254902
0.089381
-0.26439
0.097937
-0.266685
0.106293
-0.262956
0.11429
-0.254666
0.12179
-0.24336
0.128662
-0.230469
0.134733
-0.217338
-0.20417
0.0103492
0.105829
0.0182725
0.119559
0.0260855
0.128076
0.0337101
0.136014
0.0405469
0.143881
0.0464766
0.150382
0.0515871
0.15436
0.0560144
0.154808
0.0599031
0.15065
0.063471
0.14077
0.0670222
0.123857
0.0708442
0.0985782
0.0747062
0.0646278
0.0778425
0.0241823
0.0802905
-0.0197792
0.0823968
-0.0636336
0.0847487
-0.106454
0.0878427
-0.147364
0.0918436
-0.184987
0.0966526
-0.217452
0.102063
-0.243012
0.107817
-0.260657
0.113697
-0.270269
0.119533
-0.272521
0.125205
-0.268628
0.130622
-0.260083
0.135698
-0.248435
0.140338
-0.23511
0.144393
-0.221392
-0.207528
0.0162537
0.0895752
0.0248282
0.110985
0.0362801
0.116624
0.0475017
0.124793
0.0575635
0.133819
0.0665768
0.141369
0.0747298
0.146207
0.0821864
0.147351
0.0890993
0.143737
0.0956516
0.134217
0.101995
0.117514
0.108025
0.0925482
0.113159
0.0594931
0.116898
0.020444
0.11894
-0.0218217
0.120147
-0.0648403
0.121334
-0.107642
0.123058
-0.149088
0.125438
-0.187368
0.128317
-0.220331
0.131468
-0.246164
0.134699
-0.263887
0.137886
-0.273457
0.140972
-0.275607
0.143935
-0.27159
0.146762
-0.262911
0.149427
-0.2511
0.151871
-0.237555
0.153968
-0.223489
-0.209209
0.207458
0.00555219
0.207069
0.0107492
0.206502
0.0156975
0.205766
0.0204821
0.204869
0.0251705
0.203816
0.0298197
0.202615
0.0344816
0.20127
0.039203
0.199788
0.0440265
0.198172
0.0489914
0.196428
0.0541345
0.194559
0.0594905
0.19257
0.0650928
0.190464
0.0709742
0.188245
0.0771676
0.185916
0.0837081
0.18348
0.0906341
0.180939
0.0979911
0.178296
0.105835
0.175551
0.114237
0.172707
0.123293
0.169767
0.133131
0.16674
0.143931
0.163645
0.15595
0.160537
0.169566
0.157563
0.185349
0.155197
0.204168
0.155399
0.227038
0.170101
0.25129
0.265072
0.255434
0.212502
0.00573325
0.212152
0.0110988
0.211644
0.0162056
0.210986
0.0211397
0.210188
0.0259695
0.209255
0.0307522
0.208197
0.0355401
0.20702
0.0403799
0.205732
0.0453143
0.204341
0.0503823
0.202855
0.0556206
0.201282
0.0610632
0.199632
0.066743
0.197915
0.0726916
0.196142
0.0789408
0.194326
0.0855237
0.192484
0.0924763
0.190635
0.0998402
0.188804
0.107666
0.187026
0.116015
0.185349
0.12497
0.183846
0.134634
0.182634
0.145144
0.18191
0.156674
0.182043
0.169433
0.183769
0.183623
0.18867
0.199266
0.199657
0.216051
0.217904
0.233042
0.249157
0.23382
0.217669
0.00589194
0.217363
0.0114049
0.216919
0.0166491
0.216347
0.0217115
0.215656
0.0266608
0.214854
0.0315541
0.213951
0.0364434
0.212956
0.0413753
0.211878
0.0463918
0.210729
0.0515313
0.20952
0.0568294
0.208265
0.062319
0.206977
0.068031
0.205673
0.0739952
0.204373
0.0802403
0.203101
0.0867956
0.201886
0.0936916
0.200764
0.100963
0.199782
0.108648
0.199003
0.116793
0.198517
0.125456
0.19845
0.134701
0.19899
0.144603
0.200428
0.155235
0.203213
0.166649
0.208005
0.17883
0.21563
0.191642
0.226766
0.204916
0.241044
0.218764
0.230577
0.259624
0.222962
0.00602634
0.222704
0.0116636
0.22233
0.0170227
0.221851
0.0221906
0.221276
0.0272359
0.220615
0.0322153
0.219878
0.0371803
0.219076
0.0421765
0.218223
0.0472451
0.217331
0.0524232
0.216416
0.0577446
0.215495
0.0632402
0.214587
0.0689385
0.213717
0.0748659
0.21291
0.0810467
0.212201
0.0875047
0.21163
0.094263
0.211247
0.101345
0.211118
0.108777
0.211328
0.116584
0.211989
0.124794
0.213257
0.133433
0.21534
0.14252
0.218523
0.152053
0.223174
0.161998
0.229734
0.17227
0.238664
0.182712
0.250542
0.193038
0.266344
0.202962
0.210203
0.286718
0.228385
0.00613465
0.228177
0.0118716
0.227878
0.0173214
0.227498
0.0225706
0.227047
0.0276872
0.226535
0.0327271
0.225975
0.0377407
0.225379
0.0427726
0.224761
0.0478623
0.224139
0.0530452
0.223531
0.0583528
0.222958
0.0638135
0.222444
0.0694523
0.222019
0.0752913
0.221715
0.0813498
0.221576
0.0876444
0.221649
0.0941896
0.221997
0.100997
0.222696
0.108078
0.223844
0.115437
0.225563
0.123075
0.228011
0.130985
0.231387
0.139143
0.235938
0.147502
0.241958
0.155978
0.249791
0.164437
0.259833
0.17267
0.272551
0.18032
0.288464
0.18705
0.191815
0.306852
0.23394
0.00621527
0.233786
0.0120258
0.233566
0.0175408
0.233291
0.022846
0.23297
0.0280081
0.232615
0.0330819
0.23224
0.0381164
0.231858
0.0431546
0.231486
0.048234
0.231143
0.0533878
0.230851
0.0586449
0.230634
0.0640304
0.230521
0.0695654
0.230545
0.0752672
0.230746
0.0811491
0.23117
0.0872205
0.231873
0.0934864
0.232923
0.0999474
0.234402
0.106599
0.23641
0.113429
0.239069
0.120416
0.242527
0.127528
0.246959
0.134711
0.252571
0.14189
0.259597
0.148952
0.268292
0.155741
0.278913
0.162048
0.291652
0.167582
0.306621
0.172081
0.175078
0.323358
0.23963
0.00626682
0.239532
0.0121234
0.239396
0.0176771
0.23923
0.0230119
0.239045
0.028193
0.238853
0.0332735
0.238669
0.0383007
0.238508
0.0433156
0.238389
0.0483535
0.238331
0.0534449
0.238361
0.0586158
0.238503
0.0638876
0.238792
0.0692772
0.239262
0.0747969
0.239957
0.080454
0.240927
0.0862503
0.242231
0.0921823
0.243939
0.0982399
0.246132
0.104406
0.248906
0.110654
0.252375
0.116947
0.256668
0.123235
0.261932
0.129448
0.268327
0.135494
0.276022
0.141257
0.285178
0.146586
0.295926
0.1513
0.308323
0.155184
0.322379
0.158025
0.159581
0.337875
0.245458
0.00628815
0.245419
0.0121624
0.245369
0.0177273
0.245316
0.0230646
0.245271
0.0282375
0.245248
0.0332973
0.245259
0.038289
0.245323
0.0432514
0.24546
0.0482172
0.24569
0.0532142
0.246041
0.0582649
0.246542
0.0633873
0.247225
0.0685938
0.24813
0.0738918
0.249301
0.0792827
0.25079
0.0847618
0.252655
0.0903176
0.254963
0.0959314
0.257793
0.101576
0.261231
0.107216
0.265376
0.112802
0.270335
0.118276
0.276223
0.12356
0.283156
0.128561
0.291244
0.133169
0.300578
0.137251
0.311217
0.140662
0.323162
0.143239
0.336365
0.144822
0.145288
0.350658
0.251427
0.00627838
0.251448
0.012141
0.251486
0.0176891
0.25155
0.0230014
0.251648
0.0281389
0.251795
0.0331504
0.252005
0.0380788
0.252297
0.0429602
0.252689
0.0478247
0.253206
0.0526969
0.253875
0.0575963
0.254725
0.0625369
0.255792
0.0675273
0.257113
0.0725701
0.258735
0.0776615
0.260705
0.0827912
0.263081
0.0879414
0.265926
0.093087
0.269308
0.0981943
0.273303
0.10322
0.277993
0.108113
0.283461
0.112807
0.289791
0.117229
0.297062
0.121291
0.305337
0.124894
0.31466
0.127928
0.325042
0.13028
0.336448
0.131833
0.348794
0.132476
0.132152
0.36193
0.25754
0.00623692
0.257623
0.0120583
0.257751
0.0175611
0.257932
0.0228207
0.258175
0.0278956
0.258494
0.0328319
0.258903
0.0376699
0.25942
0.042443
0.260066
0.0471786
0.260864
0.0518983
0.261843
0.0566182
0.26303
0.061349
0.264462
0.0660955
0.266176
0.0708562
0.268215
0.0756231
0.270624
0.0803815
0.273457
0.085109
0.276767
0.0897763
0.280616
0.0943457
0.285065
0.0987718
0.290176
0.103001
0.296013
0.106971
0.302632
0.110611
0.310078
0.113845
0.318383
0.116588
0.327556
0.118755
0.337576
0.12026
0.348387
0.121022
0.359893
0.12097
0.120081
0.371964
0.263801
0.00616347
0.263946
0.0119136
0.264164
0.0173426
0.264463
0.0225221
0.264851
0.0275076
0.26534
0.0323424
0.265946
0.0370642
0.266685
0.0417035
0.267579
0.0462848
0.268651
0.0508269
0.269926
0.055343
0.271435
0.0598404
0.273209
0.0643209
0.275286
0.0687796
0.277704
0.0732053
0.280505
0.0775801
0.283735
0.081879
0.287441
0.0860703
0.291672
0.0901152
0.296475
0.0939684
0.301898
0.0975782
0.307981
0.100887
0.314759
0.103833
0.322253
0.10635
0.33047
0.108372
0.339393
0.109831
0.348986
0.110668
0.35918
0.110828
0.36988
0.110269
0.108989
0.380972
0.270212
0.00605806
0.270419
0.0117071
0.270728
0.017034
0.271143
0.0221064
0.271674
0.0269765
0.272332
0.0316847
0.273131
0.0362658
0.274086
0.0407476
0.275219
0.0451519
0.276552
0.0494946
0.278108
0.0537863
0.279917
0.0580317
0.282008
0.0622298
0.284414
0.0663734
0.28717
0.070449
0.290314
0.0744368
0.293882
0.0783109
0.297913
0.082039
0.302445
0.0855832
0.307513
0.0889005
0.313148
0.0919435
0.319374
0.0946612
0.326206
0.0970007
0.333648
0.0989083
0.341688
0.100332
0.350296
0.101223
0.359423
0.101541
0.368999
0.101252
0.378935
0.100334
0.0987968
0.389128
0.276778
0.00592098
0.277046
0.0114394
0.277443
0.0166365
0.277974
0.0215755
0.278645
0.0263052
0.279467
0.030863
0.280452
0.0352809
0.281616
0.0395838
0.282977
0.0437911
0.284555
0.0479161
0.286374
0.051967
0.28846
0.0559465
0.290838
0.0598515
0.293538
0.0636731
0.29659
0.0673968
0.300025
0.0710022
0.303872
0.0744633
0.308162
0.0777491
0.312921
0.0808241
0.318173
0.083649
0.323934
0.0861819
0.330216
0.0883792
0.33702
0.0901974
0.344334
0.0915944
0.352135
0.0925311
0.360384
0.0929739
0.369029
0.0928961
0.378
0.0922804
0.387215
0.0911188
0.0894286
0.396583
0.283501
0.00575286
0.283828
0.0111118
0.284313
0.016152
0.284956
0.0209324
0.285763
0.025498
0.286743
0.0298833
0.287906
0.0341173
0.289268
0.0382225
0.290843
0.0422156
0.292651
0.0461081
0.294712
0.049906
0.297048
0.0536104
0.299683
0.0572168
0.302641
0.0607156
0.305946
0.0640919
0.309622
0.0673256
0.313693
0.0703922
0.31818
0.0732627
0.323099
0.075905
0.328463
0.0782846
0.33428
0.0803655
0.340547
0.0821118
0.347256
0.0834888
0.354386
0.0844645
0.361906
0.0850112
0.369773
0.0851068
0.377933
0.0847362
0.38632
0.0838929
0.394861
0.0825783
0.0808138
0.403475
0.290385
0.00555454
0.29077
0.010726
0.291339
0.0155835
0.29209
0.0201811
0.293028
0.0245604
0.294158
0.0287528
0.295491
0.0327845
0.297038
0.0366756
0.298813
0.0404406
0.300832
0.0440891
0.303112
0.0476257
0.305673
0.0510501
0.308532
0.0543572
0.31171
0.0575374
0.315226
0.0605759
0.319098
0.0634541
0.323341
0.0661493
0.327968
0.0686355
0.332988
0.0708847
0.338405
0.0728674
0.344217
0.0745536
0.350414
0.0759147
0.356979
0.0769239
0.363886
0.0775581
0.371098
0.0777986
0.378573
0.0776323
0.386256
0.0770528
0.394088
0.0760607
0.402003
0.074664
0.0728858
0.409931
0.297433
0.00532714
0.297875
0.0102842
0.298524
0.0149342
0.299379
0.0193264
0.300441
0.0234988
0.301713
0.0274798
0.303205
0.0312931
0.304924
0.0349563
0.306883
0.0384822
0.309093
0.0418787
0.31157
0.0451492
0.314327
0.0482928
0.31738
0.0513042
0.320743
0.054174
0.32443
0.0568887
0.328453
0.0594313
0.332821
0.0617815
0.33754
0.063917
0.342611
0.0658137
0.348031
0.0674473
0.353791
0.0687936
0.359875
0.0698305
0.36626
0.0705382
0.372918
0.0709008
0.37981
0.0709067
0.386892
0.0705496
0.394116
0.0698293
0.401425
0.0687515
0.408761
0.0673277
0.0655813
0.416066
0.30465
0.00507194
0.305145
0.00978908
0.305872
0.0142081
0.306824
0.0183738
0.308003
0.0223205
0.309409
0.0260737
0.311047
0.0296546
0.312925
0.0330787
0.31505
0.0363572
0.317432
0.0394966
0.320081
0.0424997
0.323009
0.0453651
0.326225
0.0480877
0.32974
0.050659
0.333562
0.0530669
0.337697
0.0552963
0.342149
0.0573301
0.346916
0.0591492
0.351996
0.0607339
0.357379
0.0620644
0.363051
0.0631221
0.368991
0.0638903
0.375174
0.0643552
0.381568
0.0645066
0.388136
0.0643384
0.394837
0.0638495
0.401622
0.0630437
0.408444
0.0619297
0.415251
0.0605211
0.0588408
0.421991
0.31204
0.00479038
0.312586
0.00924335
0.313384
0.0134095
0.314429
0.0173292
0.315716
0.0210331
0.317246
0.0245441
0.319019
0.0278808
0.321041
0.0310572
0.323316
0.0340825
0.32585
0.0369627
0.32865
0.0396997
0.331722
0.0422923
0.335074
0.0447359
0.33871
0.047023
0.342634
0.0491432
0.346846
0.0510837
0.351346
0.0528302
0.356128
0.0543672
0.361184
0.0556787
0.366498
0.0567495
0.372055
0.0575654
0.377831
0.0581147
0.383798
0.0583882
0.389924
0.0583802
0.396174
0.0580888
0.402507
0.0575163
0.408882
0.056669
0.415254
0.0555577
0.421578
0.0541967
0.0526074
0.427811
0.319606
0.00448399
0.320199
0.00865007
0.321066
0.0125431
0.322196
0.0161988
0.323584
0.0196447
0.325228
0.0229009
0.327125
0.0259839
0.329276
0.0289058
0.331684
0.0316747
0.334351
0.0342957
0.33728
0.0367705
0.340474
0.039098
0.343936
0.0412744
0.347666
0.0432932
0.351663
0.0451461
0.355924
0.0468225
0.360443
0.0483108
0.365212
0.0495987
0.370217
0.0506738
0.375441
0.0515248
0.380866
0.0521413
0.386465
0.0525156
0.392211
0.0526421
0.398072
0.0525186
0.404015
0.052146
0.410002
0.051529
0.415996
0.0506755
0.421957
0.0495969
0.427846
0.0483076
0.0468272
0.433626
0.327353
0.0041543
0.327991
0.00801228
0.328921
0.0116133
0.33013
0.0149888
0.331612
0.0181633
0.333359
0.021154
0.335367
0.0239756
0.337635
0.0266383
0.34016
0.0291495
0.342942
0.0315133
0.345981
0.0337314
0.349276
0.0358031
0.352825
0.0377254
0.356625
0.0394931
0.360672
0.0410995
0.364958
0.0425363
0.369475
0.0437944
0.374209
0.0448645
0.379145
0.0457373
0.384265
0.0464046
0.389547
0.0468594
0.394966
0.0470969
0.400494
0.0471144
0.4061
0.0469121
0.411753
0.046493
0.417419
0.0458631
0.423064
0.0450309
0.428653
0.044008
0.434152
0.042808
0.0414489
0.43953
0.335285
0.00380282
0.335965
0.00733292
0.336953
0.0106246
0.338237
0.0137054
0.339804
0.0165965
0.341645
0.0193128
0.343754
0.0218668
0.346125
0.0242674
0.348753
0.026521
0.351635
0.0286312
0.354767
0.0305996
0.358144
0.032426
0.361761
0.034108
0.365613
0.0356418
0.36969
0.0370223
0.373983
0.0382432
0.37848
0.0392978
0.383165
0.040179
0.388022
0.0408804
0.39303
0.0413963
0.398168
0.0417223
0.403409
0.0418559
0.408726
0.0417965
0.414093
0.041546
0.419477
0.0411086
0.424849
0.0404907
0.430179
0.0397014
0.435436
0.0387514
0.44059
0.0376535
0.0364235
0.445616
0.343408
0.00343089
0.344126
0.00661466
0.345169
0.0095811
0.346521
0.012354
0.348166
0.0149514
0.350093
0.0173858
0.352292
0.0196676
0.354755
0.0218046
0.357474
0.023802
0.360442
0.0256631
0.363652
0.0273896
0.367096
0.0289815
0.370767
0.0304373
0.374655
0.0317542
0.378748
0.0329286