/*--------------------------------*- C++ -*----------------------------------*\
  =========                 |
  \\      /  F ield         | OpenFOAM: The Open Source CFD Toolbox
   \\    /   O peration     | Website:  https://openfoam.org
    \\  /    A nd           | Version:  7
     \\/     M anipulation  |
\*---------------------------------------------------------------------------*/
FoamFile
{
    version     2.0;
    format      ascii;
    class       volVectorField;
    location    "0.3";
    object      U;
}
// * * * * * * * * * * * * * * * * * * * * * * * * * * * * * * * * * * * * * //

dimensions      [0 1 -1 0 0 0 0];

internalField   nonuniform List<vector> 
2790
(
(9.94427 0.020354 0)
(9.87699 0.0292187 0)
(9.77833 0.0353961 0)
(9.65527 0.0417137 0)
(9.51352 0.0482662 0)
(9.35401 0.0549996 0)
(9.17596 0.0620394 0)
(8.97855 0.0695393 0)
(8.76101 0.0776233 0)
(8.52247 0.0863935 0)
(8.26187 0.0959403 0)
(7.97807 0.106341 0)
(7.66989 0.117656 0)
(7.33618 0.129915 0)
(6.97597 0.143111 0)
(6.58852 0.15718 0)
(6.17354 0.17199 0)
(5.7313 0.187313 0)
(5.26285 0.202803 0)
(4.77027 0.217976 0)
(4.25687 0.23218 0)
(3.72744 0.24458 0)
(3.18847 0.254154 0)
(2.6483 0.259695 0)
(2.1172 0.259846 0)
(1.60743 0.253137 0)
(1.13269 0.238148 0)
(0.714852 0.211537 0)
(0.316797 0.177525 0)
(0.165167 0.122402 0)
(9.99879 0.0401776 0)
(9.98273 0.0612662 0)
(9.93889 0.0773697 0)
(9.87005 0.094137 0)
(9.78049 0.111852 0)
(9.67121 0.130357 0)
(9.54163 0.149903 0)
(9.39095 0.170834 0)
(9.2184 0.193439 0)
(9.02308 0.217959 0)
(8.80387 0.244608 0)
(8.55954 0.273562 0)
(8.28875 0.304948 0)
(7.99014 0.338815 0)
(7.66243 0.375103 0)
(7.30448 0.413602 0)
(6.91547 0.453912 0)
(6.49501 0.49539 0)
(6.04332 0.537094 0)
(5.56146 0.577736 0)
(5.05149 0.615634 0)
(4.51676 0.648697 0)
(3.96202 0.67443 0)
(3.3936 0.689991 0)
(2.81944 0.692309 0)
(2.24898 0.678267 0)
(1.69203 0.645056 0)
(1.16534 0.589466 0)
(0.634947 0.514954 0)
(0.290646 0.398166 0)
(9.99587 0.0423183 0)
(9.9768 0.0733996 0)
(9.93484 0.100387 0)
(9.87057 0.128217 0)
(9.78691 0.157598 0)
(9.68498 0.18851 0)
(9.56448 0.221298 0)
(9.42479 0.256457 0)
(9.26527 0.294447 0)
(9.08514 0.335679 0)
(8.88341 0.380528 0)
(8.65891 0.429329 0)
(8.41036 0.482346 0)
(8.13633 0.539732 0)
(7.83541 0.60148 0)
(7.50615 0.667365 0)
(7.14726 0.73687 0)
(6.75767 0.809106 0)
(6.33665 0.882722 0)
(5.88404 0.955823 0)
(5.40039 1.02589 0)
(4.88715 1.08976 0)
(4.34694 1.14362 0)
(3.78363 1.18309 0)
(3.20248 1.20351 0)
(2.6101 1.2003 0)
(2.01326 1.16975 0)
(1.42612 1.10929 0)
(0.816437 1.02486 0)
(0.361995 0.890079 0)
(9.9943 0.0482679 0)
(9.97304 0.090616 0)
(9.93088 0.129487 0)
(9.86784 0.168488 0)
(9.78593 0.208934 0)
(9.68618 0.251233 0)
(9.56853 0.295917 0)
(9.43254 0.343648 0)
(9.27771 0.395071 0)
(9.10341 0.450785 0)
(8.90887 0.511352 0)
(8.69314 0.577289 0)
(8.45514 0.64904 0)
(8.19364 0.726926 0)
(7.90737 0.811089 0)
(7.59495 0.901418 0)
(7.255 0.997456 0)
(6.88618 1.09829 0)
(6.48727 1.20245 0)
(6.0573 1.30775 0)
(5.59563 1.41123 0)
(5.10221 1.50903 0)
(4.57771 1.59644 0)
(4.02376 1.66795 0)
(3.44311 1.71756 0)
(2.83988 1.73931 0)
(2.21841 1.72833 0)
(1.59172 1.68146 0)
(0.927291 1.60497 0)
(0.402928 1.46562 0)
(9.99358 0.0556416 0)
(9.97115 0.107652 0)
(9.92889 0.156892 0)
(9.86698 0.206057 0)
(9.78685 0.256815 0)
(9.68934 0.309946 0)
(9.57444 0.366132 0)
(9.4418 0.426137 0)
(9.29097 0.490728 0)
(9.12141 0.560632 0)
(8.93242 0.636544 0)
(8.7232 0.719114 0)
(8.49277 0.808921 0)
(8.24008 0.906426 0)
(7.96396 1.01192 0)
(7.66313 1.12542 0)
(7.33623 1.2466 0)
(6.98184 1.37467 0)
(6.59848 1.5082 0)
(6.18464 1.64502 0)
(5.73894 1.78204 0)
(5.26014 1.91514 0)
(4.74742 2.03911 0)
(4.20057 2.1477 0)
(3.62025 2.2339 0)
(3.00855 2.29045 0)
(2.36789 2.31105 0)
(1.71105 2.29097 0)
(1.00433 2.23523 0)
(0.429448 2.10161 0)
(9.99329 0.0636302 0)
(9.97042 0.124688 0)
(9.92848 0.183794 0)
(9.86797 0.243015 0)
(9.79001 0.304044 0)
(9.69522 0.367881 0)
(9.58359 0.435347 0)
(9.45484 0.507303 0)
(9.30855 0.584629 0)
(9.14422 0.668183 0)
(8.96121 0.758793 0)
(8.75876 0.857246 0)
(8.53597 0.964262 0)
(8.29183 1.08045 0)
(8.0252 1.20626 0)
(7.73485 1.34188 0)
(7.41937 1.48716 0)
(7.07723 1.6415 0)
(6.70671 1.80367 0)
(6.30594 1.97169 0)
(5.87285 2.1426 0)
(5.40534 2.31232 0)
(4.90132 2.47551 0)
(4.35904 2.62551 0)
(3.77742 2.75453 0)
(3.1568 2.854 0)
(2.49793 2.91577 0)
(1.81384 2.93259 0)
(1.06931 2.90674 0)
(0.45101 2.78512 0)
(9.99323 0.0718349 0)
(9.97044 0.141605 0)
(9.92924 0.210073 0)
(9.87043 0.27895 0)
(9.795 0.349861 0)
(9.70339 0.423964 0)
(9.5956 0.502234 0)
(9.47137 0.585646 0)
(9.33034 0.675194 0)
(9.17204 0.77186 0)
(8.99588 0.876597 0)
(8.80111 0.990324 0)
(8.58687 1.1139 0)
(8.35217 1.24809 0)
(8.09586 1.39349 0)
(7.81666 1.5505 0)
(7.51309 1.71918 0)
(7.18344 1.89921 0)
(6.82574 2.08965 0)
(6.4377 2.28886 0)
(6.01667 2.49424 0)
(5.55969 2.70204 0)
(5.06352 2.90708 0)
(4.52497 3.10263 0)
(3.94122 3.28032 0)
(3.31087 3.4303 0)
(2.63287 3.54215 0)
(1.92042 3.60514 0)
(1.13658 3.6171 0)
(0.473739 3.51211 0)
(9.99332 0.080022 0)
(9.97096 0.158214 0)
(9.93089 0.235569 0)
(9.8741 0.313652 0)
(9.80154 0.39403 0)
(9.71356 0.47797 0)
(9.61014 0.566583 0)
(9.49106 0.660957 0)
(9.35601 0.762191 0)
(9.20456 0.871381 0)
(9.03614 0.989605 0)
(8.85007 1.11791 0)
(8.64551 1.25731 0)
(8.42146 1.40873 0)
(8.17679 1.57295 0)
(7.91014 1.75059 0)
(7.61993 1.942 0)
(7.30427 2.14716 0)
(6.96092 2.36556 0)
(6.58716 2.59604 0)
(6.17975 2.83657 0)
(5.73483 3.08395 0)
(5.24802 3.33355 0)
(4.71454 3.5789 0)
(4.12962 3.81136 0)
(3.4897 4.01993 0)
(2.79126 4.19163 0)
(2.04697 4.31127 0)
(1.21767 4.3703 0)
(0.502595 4.28729 0)
(9.99351 0.0880418 0)
(9.97185 0.174345 0)
(9.93323 0.260136 0)
(9.87877 0.346957 0)
(9.80943 0.436348 0)
(9.7255 0.529651 0)
(9.62694 0.628093 0)
(9.51359 0.732867 0)
(9.38519 0.845173 0)
(9.24135 0.966219 0)
(9.08157 1.0972 0)
(8.9052 1.23931 0)
(8.71145 1.3937 0)
(8.49935 1.56146 0)
(8.26778 1.74361 0)
(8.01535 1.941 0)
(7.7404 2.1543 0)
(7.4409 2.38391 0)
(7.11434 2.62981 0)
(6.75762 2.89148 0)
(6.36692 3.16765 0)
(5.93752 3.456 0)
(5.46377 3.75279 0)
(4.93913 4.05232 0)
(4.35643 4.34623 0)
(3.7091 4.62278 0)
(2.98992 4.86646 0)
(2.20928 5.05673 0)
(1.32437 5.1762 0)
(0.542934 5.12366 0)
(9.99377 0.0957913 0)
(9.97302 0.189857 0)
(9.93612 0.283632 0)
(9.88429 0.378705 0)
(9.81849 0.476613 0)
(9.73898 0.578757 0)
(9.64575 0.686462 0)
(9.53867 0.801016 0)
(9.41753 0.923719 0)
(9.28202 1.05588 0)
(9.13169 1.19881 0)
(8.96597 1.35383 0)
(8.78412 1.52225 0)
(8.58525 1.70535 0)
(8.36827 1.90435 0)
(8.13181 2.1204 0)
(7.8742 2.35453 0)
(7.59333 2.60758 0)
(7.28654 2.88015 0)
(6.95043 3.1725 0)
(6.58069 3.48433 0)
(6.17184 3.81452 0)
(5.71696 4.16072 0)
(5.2076 4.51866 0)
(4.63365 4.88118 0)
(3.98441 5.2368 0)
(3.24694 5.56821 0)
(2.42618 5.8492 0)
(1.47212 6.05057 0)
(0.602325 6.04397 0)
(9.99409 0.103195 0)
(9.97439 0.204632 0)
(9.93946 0.30593 0)
(9.89052 0.408746 0)
(9.82855 0.514641 0)
(9.75382 0.625064 0)
(9.66633 0.741421 0)
(9.56599 0.865089 0)
(9.45268 0.997453 0)
(9.32614 1.13992 0)
(9.18601 1.2939 0)
(9.0318 1.46086 0)
(8.86288 1.64223 0)
(8.67844 1.83948 0)
(8.47748 2.05408 0)
(8.25873 2.28744 0)
(8.02058 2.54098 0)
(7.76095 2.81606 0)
(7.47718 3.11395 0)
(7.16575 3.43579 0)
(6.82207 3.78247 0)
(6.44011 4.15443 0)
(6.01193 4.55125 0)
(5.52717 4.971 0)
(4.97253 5.40909 0)
(4.33202 5.85621 0)
(3.58431 6.29549 0)
(2.72362 6.69646 0)
(1.68481 7.01576 0)
(0.693781 7.08555 0)
(9.99444 0.110195 0)
(9.97593 0.218576 0)
(9.94316 0.326913 0)
(9.89735 0.436946 0)
(9.83948 0.550267 0)
(9.76983 0.668373 0)
(9.68844 0.792734 0)
(9.59528 0.924802 0)
(9.49028 1.06604 0)
(9.37328 1.21793 0)
(9.24401 1.38201 0)
(9.10209 1.55981 0)
(8.947 1.75294 0)
(8.77809 1.96302 0)
(8.59448 2.19173 0)
(8.39507 2.4408 0)
(8.17842 2.71199 0)
(7.94262 3.00719 0)
(7.68517 3.32838 0)
(7.40271 3.67766 0)
(7.0907 4.05725 0)
(6.74298 4.46942 0)
(6.35108 4.91627 0)
(5.90333 5.39925 0)
(5.3835 5.91816 0)
(4.76987 6.46899 0)
(4.03006 7.04003 0)
(3.14014 7.60242 0)
(2.00375 8.10134 0)
(0.842929 8.31239 0)
(9.99483 0.116748 0)
(9.97761 0.231608 0)
(9.94716 0.346481 0)
(9.90468 0.463184 0)
(9.85114 0.583349 0)
(9.78683 0.70851 0)
(9.71185 0.840191 0)
(9.62623 0.979907 0)
(9.52996 1.12918 0)
(9.42299 1.28958 0)
(9.30515 1.4627 0)
(9.17618 1.65019 0)
(9.03572 1.85376 0)
(8.88328 2.07519 0)
(8.71819 2.31635 0)
(8.53958 2.57922 0)
(8.34627 2.86593 0)
(8.13669 3.17884 0)
(7.90872 3.52059 0)
(7.65943 3.89425 0)
(7.38479 4.30339 0)
(7.07914 4.75226 0)
(6.73438 5.24586 0)
(6.33875 5.78993 0)
(5.87469 6.39065 0)
(5.31613 7.05341 0)
(4.61933 7.77972 0)
(3.73471 8.55703 0)
(2.50608 9.34013 0)
(1.10621 9.84518 0)
(9.99524 0.122817 0)
(9.97939 0.243665 0)
(9.95139 0.364551 0)
(9.91241 0.487361 0)
(9.86338 0.613767 0)
(9.80465 0.745333 0)
(9.73633 0.883628 0)
(9.65854 1.03021 0)
(9.57135 1.18666 0)
(9.4748 1.35459 0)
(9.36884 1.53566 0)
(9.25336 1.7316 0)
(9.12817 1.94421 0)
(8.99298 2.17539 0)
(8.84738 2.42716 0)
(8.69077 2.7017 0)
(8.52237 3.00145 0)
(8.34106 3.32914 0)
(8.1453 3.688 0)
(7.93295 4.08192 0)
(7.70095 4.51569 0)
(7.4449 4.9954 0)
(7.15834 5.52892 0)
(6.83144 6.1266 0)
(6.44859 6.80223 0)
(5.98451 7.57426 0)
(5.39093 8.46743 0)
(4.59555 9.51184 0)
(3.34724 10.7404 0)
(1.62221 11.949 0)
(9.99567 0.128375 0)
(9.98125 0.254696 0)
(9.95581 0.381052 0)
(9.92046 0.509387 0)
(9.8761 0.641403 0)
(9.82311 0.778693 0)
(9.76166 0.922854 0)
(9.69192 1.07548 0)
(9.61407 1.23818 0)
(9.52824 1.41262 0)
(9.43451 1.60048 0)
(9.33293 1.80356 0)
(9.22349 2.0237 0)
(9.10613 2.2629 0)
(8.98071 2.52326 0)
(8.84702 2.80713 0)
(8.70469 3.11711 0)
(8.55319 3.45623 0)
(8.39176 3.82811 0)
(8.21926 4.23721 0)
(8.03409 4.68919 0)
(7.83388 5.1915 0)
(7.61507 5.75419 0)
(7.37225 6.39133 0)
(7.09654 7.12337 0)
(6.77325 7.98167 0)
(6.37052 9.01804 0)
(5.83732 10.3282 0)
(4.87509 12.1481 0)
(2.78329 15.3129 0)
(-0.343031 0.41247 0)
(-0.999611 0.483391 0)
(-1.83309 0.514585 0)
(-2.74659 0.524556 0)
(-3.71011 0.519601 0)
(-4.7036 0.502819 0)
(-5.70623 0.476385 0)
(-6.69686 0.441509 0)
(-7.65309 0.398882 0)
(-8.55077 0.348938 0)
(-9.36394 0.292074 0)
(-10.0651 0.228727 0)
(-10.626 0.15961 0)
(-11.0187 0.0855453 0)
(-11.2169 0.00721355 0)
(-11.1999 -0.0753273 0)
(-10.953 -0.15984 0)
(-10.4725 -0.240909 0)
(-9.76912 -0.313928 0)
(-8.86496 -0.375372 0)
(-7.79139 -0.422882 0)
(-6.58628 -0.455253 0)
(-5.29113 -0.472207 0)
(-3.94714 -0.474043 0)
(-2.59061 -0.461874 0)
(-1.22791 -0.440062 0)
(0.138091 -0.405081 0)
(1.36021 -0.368365 0)
(2.56527 -0.341596 0)
(4.06127 -0.357744 0)
(-0.457279 1.00506 0)
(-1.19925 1.13819 0)
(-2.07897 1.21895 0)
(-3.00821 1.27024 0)
(-3.97418 1.29321 0)
(-4.96285 1.28932 0)
(-5.95605 1.25965 0)
(-6.9339 1.20446 0)
(-7.87445 1.12349 0)
(-8.75361 1.01636 0)
(-9.54519 0.882927 0)
(-10.2212 0.723757 0)
(-10.7529 0.540614 0)
(-11.112 0.336645 0)
(-11.2724 0.116417 0)
(-11.2124 -0.114311 0)
(-10.9268 -0.344319 0)
(-10.4138 -0.55989 0)
(-9.68456 -0.750341 0)
(-8.76092 -0.907848 0)
(-7.67346 -1.02769 0)
(-6.4589 -1.10829 0)
(-5.15729 -1.15075 0)
(-3.80831 -1.15833 0)
(-2.4469 -1.13656 0)
(-1.06369 -1.09437 0)
(0.288066 -1.02543 0)
(1.51933 -0.950652 0)
(2.71919 -0.898162 0)
(4.1943 -0.919842 0)
(-0.488179 1.78887 0)
(-1.25197 1.95556 0)
(-2.14167 2.06163 0)
(-3.05903 2.12999 0)
(-4.00211 2.15628 0)
(-4.96084 2.14015 0)
(-5.9203 2.08187 0)
(-6.86303 1.98116 0)
(-7.76886 1.8374 0)
(-8.61488 1.64989 0)
(-9.37557 1.41853 0)
(-10.0232 1.14449 0)
(-10.5286 0.83105 0)
(-10.8628 0.484191 0)
(-10.9989 0.113424 0)
(-10.9156 -0.268096 0)
(-10.6107 -0.645734 0)
(-10.082 -0.997868 0)
(-9.34308 -1.30698 0)
(-8.4169 -1.5602 0)
(-7.33451 -1.74983 0)
(-6.13234 -1.87355 0)
(-4.84967 -1.93386 0)
(-3.52556 -1.9377 0)
(-2.19431 -1.89662 0)
(-0.835425 -1.8182 0)
(0.450073 -1.704 0)
(1.65724 -1.58657 0)
(2.81082 -1.50137 0)
(4.23405 -1.4992 0)
(-0.48127 2.60211 0)
(-1.22956 2.78235 0)
(-2.10008 2.89541 0)
(-2.98461 2.9677 0)
(-3.88932 2.99009 0)
(-4.80655 2.95982 0)
(-5.72426 2.87535 0)
(-6.62736 2.73499 0)
(-7.49728 2.53678 0)
(-8.31188 2.27886 0)
(-9.04559 1.96022 0)
(-9.66975 1.58156 0)
(-10.1537 1.14659 0)
(-10.4662 0.663052 0)
(-10.5784 0.144043 0)
(-10.4686 -0.392515 0)
(-10.1419 -0.918928 0)
(-9.59695 -1.40682 0)
(-8.84953 -1.83296 0)
(-7.92395 -2.18031 0)
(-6.85154 -2.4387 0)
(-5.66834 -2.60546 0)
(-4.41289 -2.6846 0)
(-3.12336 -2.68669 0)
(-1.82892 -2.62729 0)
(-0.516128 -2.50966 0)
(0.696742 -2.34995 0)
(1.86537 -2.1907 0)
(2.96172 -2.06972 0)
(4.31448 -2.03136 0)
(-0.452976 3.38774 0)
(-1.15878 3.57469 0)
(-1.98368 3.68868 0)
(-2.81509 3.76091 0)
(-3.666 3.77821 0)
(-4.52987 3.73508 0)
(-5.39671 3.62736 0)
(-6.25313 3.45096 0)
(-7.08154 3.20171 0)
(-7.86007 2.87578 0)
(-8.56263 2.47065 0)
(-9.1593 1.98644 0)
(-9.61749 1.42769 0)
(-9.90369 0.805206 0)
(-9.98707 0.137797 0)
(-9.85026 -0.548367 0)
(-9.50153 -1.21705 0)
(-8.94282 -1.83286 0)
(-8.19207 -2.36755 0)
(-7.27439 -2.80074 0)
(-6.22087 -3.12017 0)
(-5.06676 -3.32331 0)
(-3.84964 -3.41596 0)
(-2.60659 -3.41245 0)
(-1.35864 -3.32992 0)
(-0.111977 -3.16873 0)
(1.02736 -2.96513 0)
(2.1432 -2.76675 0)
(3.17452 -2.60857 0)
(4.44183 -2.52706 0)
(-0.408765 4.11525 0)
(-1.04915 4.30921 0)
(-1.80443 4.42442 0)
(-2.56277 4.49738 0)
(-3.34299 4.5117 0)
(-4.13887 4.45924 0)
(-4.94207 4.33302 0)
(-5.74046 4.12617 0)
(-6.51731 3.83182 0)
(-7.25103 3.44371 0)
(-7.91514 2.95734 0)
(-8.4785 2.37167 0)
(-8.90627 1.69171 0)
(-9.1619 0.931252 0)
(-9.21166 0.115545 0)
(-9.04511 -0.718772 0)
(-8.67619 -1.52525 0)
(-8.10902 -2.26216 0)
(-7.36359 -2.89786 0)
(-6.46467 -3.40972 0)
(-5.44233 -3.7837 0)
(-4.33041 -4.01799 0)
(-3.1649 -4.1202 0)
(-1.98013 -4.10755 0)
(-0.786166 -3.99401 0)
(0.361485 -3.79036 0)
(1.43658 -3.54554 0)
(2.48695 -3.30892 0)
(3.44716 -3.11159 0)
(4.6169 -2.9823 0)
(-0.351225 4.76093 0)
(-0.90521 4.96478 0)
(-1.56851 5.08398 0)
(-2.23399 5.16091 0)
(-2.92528 5.17644 0)
(-3.63625 5.1199 0)
(-4.36011 4.98133 0)
(-5.08603 4.75079 0)
(-5.79825 4.41828 0)
(-6.47575 3.97452 0)
(-7.09192 3.41244 0)
(-7.61441 2.72928 0)
(-8.00556 1.93022 0)
(-8.22475 1.03292 0)
(-8.23506 0.0708119 0)
(-8.03844 -0.90719 0)
(-7.65346 -1.84288 0)
(-7.08673 -2.69053 0)
(-6.35906 -3.41728 0)
(-5.49326 -3.9995 0)
(-4.5174 -4.42098 0)
(-3.4632 -4.68137 0)
(-2.36447 -4.78947 0)
(-1.2491 -4.76276 0)
(-0.13216 -4.61115 0)
(0.907634 -4.36992 0)
(1.91775 -4.08854 0)
(2.89215 -3.81342 0)
(3.77578 -3.57526 0)
(4.83871 -3.39564 0)
(-0.282333 5.3032 0)
(-0.73043 5.5211 0)
(-1.28078 5.64818 0)
(-1.83391 5.73365 0)
(-2.41735 5.75594 0)
(-3.02501 5.70181 0)
(-3.65183 5.55828 0)
(-4.28842 5.3121 0)
(-4.92031 4.94978 0)
(-5.52743 4.45854 0)
(-6.08354 3.82811 0)
(-6.55541 3.0533 0)
(-6.90237 2.13879 0)
(-7.07899 1.10676 0)
(-7.04469 0.00225691 0)
(-6.81981 -1.11184 0)
(-6.42623 -2.16452 0)
(-5.87263 -3.10965 0)
(-5.17869 -3.91577 0)
(-4.36301 -4.55985 0)
(-3.45141 -5.02214 0)
(-2.47153 -5.30416 0)
(-1.45456 -5.41399 0)
(-0.418105 -5.36438 0)
(0.576207 -5.17933 0)
(1.53421 -4.90427 0)
(2.46441 -4.59012 0)
(3.35396 -4.27639 0)
(4.15556 -3.99645 0)
(5.10469 -3.76578 0)
(-0.204082 5.72244 0)
(-0.528474 5.95955 0)
(-0.946785 6.09886 0)
(-1.36912 6.19801 0)
(-1.82597 6.23321 0)
(-2.31143 6.18872 0)
(-2.82238 6.04843 0)
(-3.35109 5.79568 0)
(-3.88483 5.4132 0)
(-4.40513 4.88415 0)
(-4.88716 4.19441 0)
(-5.29794 3.33549 0)
(-5.5932 2.31075 0)
(-5.71976 1.1483 0)
(-5.63253 -0.0911888 0)
(-5.38582 -1.32967 0)
(-4.99541 -2.48224 0)
(-4.47138 -3.50887 0)
(-3.82992 -4.38182 0)
(-3.08277 -5.0793 0)
(-2.25492 -5.57663 0)
(-1.36438 -5.87612 0)
(-0.441267 -5.98029 0)
(0.473546 -5.90634 0)
(1.3602 -5.69456 0)
(2.23105 -5.39182 0)
(3.07 -5.04562 0)
(3.86658 -4.69401 0)
(4.58074 -4.37252 0)
(5.41095 -4.09184 0)
(-0.118879 6.00179 0)
(-0.303975 6.26391 0)
(-0.573921 6.41971 0)
(-0.84906 6.53752 0)
(-1.16196 6.5918 0)
(-1.50711 6.56426 0)
(-1.88346 6.43571 0)
(-2.28518 6.18599 0)
(-2.7016 5.79403 0)
(-3.1166 5.23856 0)
(-3.50817 4.50114 0)
(-3.84557 3.56922 0)
(-4.0805 2.44358 0)
(-4.14637 1.15788 0)
(-3.99775 -0.209601 0)
(-3.74303 -1.55389 0)
(-3.37315 -2.78342 0)
(-2.8987 -3.87475 0)
(-2.32974 -4.80377 0)
(-1.66824 -5.54749 0)
(-0.943173 -6.07351 0)
(-0.152327 -6.3853 0)
(0.638015 -6.47712 0)
(1.43099 -6.38738 0)
(2.21919 -6.15501 0)
(2.98915 -5.82757 0)
(3.72704 -5.45039 0)
(4.42303 -5.06269 0)
(5.0446 -4.70119 0)
(5.75237 -4.37321 0)
(-0.029974 6.12724 0)
(-0.0630479 6.42116 0)
(-0.171954 6.59776 0)
(-0.286833 6.7388 0)
(-0.441015 6.81799 0)
(-0.629984 6.81428 0)
(-0.854891 6.70507 0)
(-1.11154 6.46678 0)
(-1.39147 6.07587 0)
(-1.68116 5.50514 0)
(-1.96282 4.73048 0)
(-2.21078 3.73391 0)
(-2.37141 2.51502 0)
(-2.35581 1.11624 0)
(-2.14945 -0.351575 0)
(-1.91097 -1.77249 0)
(-1.58571 -3.0542 0)
(-1.18374 -4.1942 0)
(-0.705498 -5.16973 0)
(-0.143015 -5.95698 0)
(0.467046 -6.50221 0)
(1.11289 -6.81368 0)
(1.78336 -6.9049 0)
(2.46434 -6.80546 0)
(3.14043 -6.55658 0)
(3.79837 -6.20595 0)
(4.42628 -5.80003 0)
(5.01498 -5.3792 0)
(5.53947 -4.98064 0)
(6.12281 -4.60959 0)
(0.0611915 6.09196 0)
(0.187369 6.42174 0)
(0.24785 6.62355 0)
(0.300281 6.79022 0)
(0.315333 6.89976 0)
(0.294159 6.9282 0)
(0.233643 6.84956 0)
(0.137728 6.63677 0)
(0.0104873 6.25835 0)
(-0.136053 5.68845 0)
(-0.28911 4.90079 0)
(-0.432231 3.87468 0)
(-0.499614 2.60205 0)
(-0.351818 1.10784 0)
(-0.122934 -0.474915 0)
(0.0684028 -1.96579 0)
(0.323162 -3.29006 0)
(0.632661 -4.46539 0)
(1.00675 -5.47204 0)
(1.43928 -6.27329 0)
(1.92402 -6.84262 0)
(2.44935 -7.16975 0)
(2.99854 -7.26374 0)
(3.55647 -7.15681 0)
(4.10949 -6.89314 0)
(4.64613 -6.52187 0)
(5.15664 -6.09069 0)
(5.63277 -5.6409 0)
(6.05676 -5.20953 0)
(6.51527 -4.80099 0)
(0.160643 5.88703 0)
(0.448424 6.26286 0)
(0.678968 6.49321 0)
(0.899472 6.68497 0)
(1.08752 6.82768 0)
(1.23742 6.89202 0)
(1.34537 6.84693 0)
(1.41569 6.6623 0)
(1.45305 6.30516 0)
(1.46597 5.74854 0)
(1.46465 4.96147 0)
(1.46751 3.91261 0)
(1.55057 2.58429 0)
(1.77954 1.04406 0)
(1.98344 -0.546776 0)
(2.10669 -2.04433 0)
(2.26662 -3.41731 0)
(2.48 -4.63707 0)
(2.74894 -5.68352 0)
(3.07092 -6.521 0)
(3.4386 -7.11456 0)
(3.84 -7.45308 0)
(4.26056 -7.54897 0)
(4.68725 -7.43582 0)
(5.10921 -7.15972 0)
(5.51767 -6.77138 0)
(5.90546 -6.31947 0)
(6.26562 -5.84593 0)
(6.58715 -5.3872 0)
(6.92213 -4.94783 0)
(0.282799 5.49412 0)
(0.725883 5.95592 0)
(1.11417 6.20511 0)
(1.50197 6.41892 0)
(1.8636 6.60047 0)
(2.18192 6.70678 0)
(2.45471 6.69946 0)
(2.68842 6.54584 0)
(2.8892 6.2128 0)
(3.06509 5.6709 0)
(3.22573 4.88628 0)
(3.38906 3.82594 0)
(3.59595 2.49169 0)
(3.84162 0.966321 0)
(4.02276 -0.619433 0)
(4.10948 -2.13037 0)
(4.1997 -3.51776 0)
(4.32842 -4.76329 0)
(4.50359 -5.83885 0)
(4.72289 -6.70142 0)
(4.97722 -7.31304 0)
(5.25465 -7.6605 0)
(5.54345 -7.75738 0)
(5.83431 -7.63896 0)
(6.12042 -7.35318 0)
(6.39668 -6.952 0)
(6.65899 -6.48475 0)
(6.90201 -5.99356 0)
(7.12089 -5.51383 0)
(7.33548 -5.05109 0)
(0.46145 4.86149 0)
(1.03048 5.5487 0)
(1.53557 5.77777 0)
(2.09875 6.00407 0)
(2.63454 6.22966 0)
(3.11191 6.38324 0)
(3.53768 6.41766 0)
(3.92325 6.29852 0)
(4.27637 5.99279 0)
(4.60456 5.46883 0)
(4.91563 4.6923 0)
(5.2177 3.63621 0)
(5.51088 2.31966 0)
(5.78429 0.829683 0)
(5.95286 -0.705353 0)
(6.01191 -2.18593 0)
(6.05396 -3.57183 0)
(6.12199 -4.83642 0)
(6.22486 -5.93618 0)
(6.35669 -6.81813 0)
(6.50636 -7.4414 0)
(6.66342 -7.79292 0)
(6.82067 -7.88833 0)
(6.97432 -7.765 0)
(7.12297 -7.47235 0)
(7.26605 -7.06306 0)
(7.40291 -6.5865 0)
(7.53018 -6.08439 0)
(7.64827 -5.5907 0)
(7.74753 -5.11246 0)
(9.99612 0.133491 0)
(9.98321 0.264847 0)
(9.96046 0.396219 0)
(9.92891 0.529597 0)
(9.88945 0.666708 0)
(9.84247 0.80916 0)
(9.78822 0.958568 0)
(9.72694 1.11655 0)
(9.65889 1.28472 0)
(9.58432 1.46476 0)
(9.50346 1.6584 0)
(9.41651 1.86742 0)
(9.32369 2.09372 0)
(9.22516 2.3393 0)
(9.12113 2.60633 0)
(9.01176 2.8972 0)
(8.89721 3.2146 0)
(8.77761 3.56167 0)
(8.65309 3.94219 0)
(8.52379 4.36084 0)
(8.38983 4.82364 0)
(8.25145 5.33853 0)
(8.1091 5.91636 0)
(7.96382 6.57252 0)
(7.81803 7.32977 0)
(7.67882 8.22371 0)
(7.56394 9.31385 0)
(7.57392 10.7045 0)
(8.16717 12.5591 0)
(8.51882 15.5134 0)
(9.99659 0.138172 0)
(9.98527 0.274118 0)
(9.96534 0.410032 0)
(9.93776 0.547935 0)
(9.90339 0.689568 0)
(9.86265 0.836545 0)
(9.81583 0.990488 0)
(9.76327 1.15301 0)
(9.70532 1.32575 0)
(9.64233 1.51036 0)
(9.57469 1.70857 0)
(9.50277 1.92216 0)
(9.427 2.153 0)
(9.34783 2.40309 0)
(9.26577 2.67455 0)
(9.18139 2.96975 0)
(9.0954 3.29131 0)
(9.00863 3.64231 0)
(8.92212 4.0264 0)
(8.83729 4.44806 0)
(8.75605 4.91299 0)
(8.68125 5.42854 0)
(8.61727 6.00449 0)
(8.57139 6.65404 0)
(8.55641 7.3954 0)
(8.59723 8.25346 0)
(8.73802 9.26054 0)
(9.03965 10.4526 0)
(9.79848 11.7711 0)
(10.4236 12.8855 0)
(9.99709 0.142332 0)
(9.98741 0.282351 0)
(9.97039 0.422274 0)
(9.94693 0.564138 0)
(9.91781 0.709688 0)
(9.88349 0.86053 0)
(9.84432 1.01828 0)
(9.8007 1.18453 0)
(9.75307 1.3609 0)
(9.70191 1.54902 0)
(9.64772 1.75058 0)
(9.59109 1.96732 0)
(9.53262 2.20105 0)
(9.47303 2.45369 0)
(9.41317 2.72727 0)
(9.35401 3.024 0)
(9.29674 3.34634 0)
(9.24286 3.69707 0)
(9.19425 4.07948 0)
(9.15343 4.49743 0)
(9.12381 4.95569 0)
(9.11019 5.46007 0)
(9.11961 6.01773 0)
(9.16258 6.63725 0)
(9.25498 7.32822 0)
(9.42082 8.09928 0)
(9.69377 8.95167 0)
(10.0829 9.8723 0)
(10.7217 10.8078 0)
(11.5047 11.5286 0)
(9.99759 0.145921 0)
(9.9896 0.289441 0)
(9.97558 0.432784 0)
(9.95633 0.577985 0)
(9.93258 0.726779 0)
(9.90481 0.880755 0)
(9.87342 1.0415 0)
(9.83888 1.21059 0)
(9.80172 1.38958 0)
(9.76251 1.58007 0)
(9.72191 1.78368 0)
(9.68063 2.00207 0)
(9.6395 2.23695 0)
(9.59947 2.4901 0)
(9.56167 2.76338 0)
(9.52744 3.05879 0)
(9.49841 3.37845 0)
(9.4766 3.72475 0)
(9.46457 4.10032 0)
(9.46563 4.50819 0)
(9.48412 4.95175 0)
(9.5259 5.43485 0)
(9.59887 5.96154 0)
(9.71375 6.53566 0)
(9.88468 7.1597 0)
(10.1295 7.83283 0)
(10.4719 8.54726 0)
(10.9209 9.28756 0)
(11.5437 10.0467 0)
(12.4262 10.713 0)
(9.99811 0.148892 0)
(9.99183 0.2953 0)
(9.98086 0.441432 0)
(9.96589 0.589304 0)
(9.94757 0.740632 0)
(9.92642 0.89697 0)
(9.90288 1.05987 0)
(9.87748 1.23085 0)
(9.85082 1.41142 0)
(9.82357 1.6031 0)
(9.7965 1.80741 0)
(9.77047 2.02591 0)
(9.74647 2.26016 0)
(9.72567 2.51176 0)
(9.70942 2.78235 0)
(9.69936 3.07361 0)
(9.69745 3.38728 0)
(9.70608 3.72519 0)
(9.72825 4.08925 0)
(9.76769 4.48145 0)
(9.82915 4.9038 0)
(9.91865 5.35817 0)
(10.0439 5.84596 0)
(10.2144 6.36758 0)
(10.4419 6.92159 0)
(10.7403 7.50371 0)
(11.1276 8.10559 0)
(11.6162 8.71264 0)
(12.229 9.31541 0)
(13.0679 9.84149 0)
(9.99863 0.151206 0)
(9.99409 0.299847 0)
(9.98618 0.448096 0)
(9.9755 0.59794 0)
(9.96265 0.751053 0)
(9.94812 0.908949 0)
(9.93242 1.07312 0)
(9.91612 1.24503 0)
(9.89988 1.4261 0)
(9.88446 1.61776 0)
(9.87071 1.82142 0)
(9.85962 2.03849 0)
(9.8523 2.27037 0)
(9.85009 2.51842 0)
(9.85452 2.78402 0)
(9.86741 3.06849 0)
(9.89094 3.37312 0)
(9.92771 3.69914 0)
(9.98089 4.04771 0)
(10.0543 4.4198 0)
(10.1527 4.81615 0)
(10.2817 5.23697 0)
(10.4482 5.6817 0)
(10.6603 6.14855 0)
(10.9273 6.63387 0)
(11.2595 7.13151 0)
(11.6688 7.63202 0)
(12.1638 8.11978 0)
(12.745 8.57864 0)
(13.5032 8.96926 0)
(9.99915 0.152824 0)
(9.99633 0.303008 0)
(9.99149 0.452672 0)
(9.9851 0.603754 0)
(9.97768 0.757879 0)
(9.96972 0.9165 0)
(9.96177 1.08105 0)
(9.95443 1.2529 0)
(9.94842 1.43339 0)
(9.94455 1.62383 0)
(9.94374 1.8255 0)
(9.94707 2.03964 0)
(9.95576 2.26745 0)
(9.97122 2.51006 0)
(9.99511 2.76854 0)
(10.0293 3.04383 0)
(10.0762 3.33676 0)
(10.1383 3.64797 0)
(10.2188 3.9779 0)
(10.3213 4.32664 0)
(10.4503 4.69382 0)
(10.6107 5.07844 0)
(10.8082 5.47856 0)
(11.0494 5.89095 0)
(11.341 6.31072 0)
(11.6901 6.73073 0)
(12.1031 7.14127 0)
(12.5847 7.52874 0)
(13.129 7.87868 0)
(13.8151 8.17213 0)
(9.99966 0.153716 0)
(9.99856 0.304723 0)
(9.99675 0.455072 0)
(9.99458 0.606634 0)
(9.99251 0.760974 0)
(9.99101 0.919474 0)
(9.99064 1.08348 0)
(9.99203 1.25429 0)
(9.99594 1.43312 0)
(10.0032 1.62116 0)
(10.0148 1.81954 0)
(10.0319 2.02932 0)
(10.0556 2.25149 0)
(10.0876 2.48693 0)
(10.1294 2.73639 0)
(10.1831 3.00044 0)
(10.2508 3.27946 0)
(10.335 3.57358 0)
(10.4388 3.88258 0)
(10.5655 4.20583 0)
(10.7188 4.54214 0)
(10.9029 4.88963 0)
(11.1224 5.24547 0)
(11.382 5.60571 0)
(11.6863 5.96496 0)
(12.0397 6.31618 0)
(12.4452 6.65067 0)
(12.9051 6.9578 0)
(13.4118 7.22626 0)
(14.0326 7.44535 0)
(10.0002 0.153858 0)
(10.0007 0.304944 0)
(10.0019 0.455225 0)
(10.0039 0.606495 0)
(10.007 0.760242 0)
(10.0118 0.917768 0)
(10.0187 1.08033 0)
(10.0286 1.24912 0)
(10.042 1.42525 0)
(10.0598 1.60975 0)
(10.0832 1.80361 0)
(10.1131 2.0077 0)
(10.1508 2.2228 0)
(10.1979 2.44952 0)
(10.256 2.68833 0)
(10.3269 2.93945 0)
(10.4127 3.20287 0)
(10.5159 3.47823 0)
(10.6389 3.76483 0)
(10.7847 4.06146 0)
(10.9565 4.36639 0)
(11.1574 4.67717 0)
(11.3909 4.99054 0)
(11.6603 5.3023 0)
(11.9684 5.60719 0)
(12.3175 5.89883 0)
(12.7088 6.16984 0)
(13.1424 6.41195 0)
(13.6108 6.61637 0)
(14.171 6.77618 0)
(10.0007 0.15323 0)
(10.0029 0.303636 0)
(10.0069 0.453086 0)
(10.0129 0.603279 0)
(10.021 0.755622 0)
(10.0318 0.911328 0)
(10.0458 1.07156 0)
(10.0636 1.23738 0)
(10.086 1.40979 0)
(10.1138 1.58969 0)
(10.1481 1.7779 0)
(10.1898 1.9751 0)
(10.2403 2.18186 0)
(10.301 2.39856 0)
(10.3734 2.62539 0)
(10.4593 2.86228 0)
(10.5605 3.10886 0)
(10.6792 3.36443 0)
(10.8175 3.62788 0)
(10.9779 3.89765 0)
(11.1627 4.17164 0)
(11.3745 4.44714 0)
(11.6155 4.72077 0)
(11.8879 4.98843 0)
(12.1931 5.24528 0)
(12.5321 5.48579 0)
(12.9046 5.70385 0)
(13.3096 5.89302 0)
(13.7402 6.04666 0)
(14.2449 6.16024 0)
(10.0011 0.151823 0)
(10.0049 0.30078 0)
(10.0117 0.448626 0)
(10.0215 0.596961 0)
(10.0345 0.747097 0)
(10.051 0.900151 0)
(10.0716 1.05718 0)
(10.0969 1.21914 0)
(10.1277 1.38689 0)
(10.1647 1.5612 0)
(10.209 1.74273 0)
(10.2614 1.93198 0)
(10.3233 2.12934 0)
(10.396 2.33496 0)
(10.4808 2.5488 0)
(10.5793 2.77052 0)
(10.6931 2.99951 0)
(10.824 3.23478 0)
(10.9739 3.47498 0)
(11.1446 3.71832 0)
(11.3379 3.96253 0)
(11.5554 4.20485 0)
(11.7987 4.44199 0)
(12.0688 4.67017 0)
(12.3664 4.88509 0)
(12.6912 5.08208 0)
(13.0423 5.25622 0)
(13.4181 5.40257 0)
(13.8122 5.51625 0)
(14.2667 5.59426 0)
(10.0016 0.149633 0)
(10.0068 0.29637 0)
(10.0163 0.441845 0)
(10.0297 0.587546 0)
(10.0472 0.734687 0)
(10.0691 0.884283 0)
(10.0959 1.03728 0)
(10.1282 1.19453 0)
(10.1667 1.35676 0)
(10.2121 1.52459 0)
(10.2653 1.69854 0)
(10.3273 1.87896 0)
(10.3992 2.06604 0)
(10.4821 2.25977 0)
(10.5773 2.45989 0)
(10.6861 2.66589 0)
(10.8098 2.87695 0)
(10.9501 3.09191 0)
(11.1081 3.30927 0)
(11.2853 3.52713 0)
(11.483 3.74323 0)
(11.7022 3.95488 0)
(11.9435 4.15903 0)
(12.2075 4.35229 0)
(12.494 4.53099 0)
(12.8023 4.69128 0)
(13.1308 4.82926 0)
(13.4777 4.94117 0)
(13.8375 5.02352 0)
(14.2466 5.07429 0)
(10.002 0.146664 0)
(10.0087 0.290416 0)
(10.0205 0.432761 0)
(10.0374 0.57507 0)
(10.0591 0.718454 0)
(10.086 0.863823 0)
(10.1185 1.01202 0)
(10.1572 1.16377 0)
(10.2026 1.31968 0)
(10.2555 1.48026 0)
(10.3167 1.64588 0)
(10.387 1.81673 0)
(10.4674 1.99288 0)
(10.5589 2.17415 0)
(10.6625 2.36013 0)
(10.7794 2.55018 0)
(10.9106 2.74333 0)
(11.0573 2.93835 0)
(11.2205 3.13367 0)
(11.4011 3.32741 0)
(11.5998 3.51737 0)
(11.8173 3.70107 0)
(12.0536 3.87576 0)
(12.3087 4.0385 0)
(12.5819 4.1862 0)
(12.8722 4.31575 0)
(13.1779 4.42412 0)
(13.4969 4.5085 0)
(13.8246 4.56637 0)
(14.1927 4.59645 0)
(10.0024 0.142927 0)
(10.0104 0.282942 0)
(10.0245 0.421415 0)
(10.0445 0.559598 0)
(10.0701 0.698494 0)
(10.1015 0.838911 0)
(10.1392 0.981583 0)
(10.1836 1.12713 0)
(10.2353 1.27604 0)
(10.2948 1.4287 0)
(10.3629 1.58536 0)
(10.4402 1.7461 0)
(10.5277 1.91084 0)
(10.6261 2.07931 0)
(10.7363 2.25099 0)
(10.8592 2.42513 0)
(10.9957 2.60071 0)
(11.1464 2.77647 0)
(11.3121 2.95086 0)
(11.4934 3.12207 0)
(11.6905 3.28806 0)
(11.9036 3.44659 0)
(12.1325 3.59526 0)
(12.3768 3.73155 0)
(12.6355 3.85293 0)
(12.9072 3.95692 0)
(13.1904 4.0412 0)
(13.483 4.10368 0)
(13.781 4.14259 0)
(14.1124 4.15717 0)
(10.0028 0.13844 0)
(10.0119 0.273985 0)
(10.0282 0.40787 0)
(10.051 0.541223 0)
(10.0801 0.674941 0)
(10.1157 0.809731 0)
(10.158 0.946224 0)
(10.2075 1.08493 0)
(10.2646 1.22624 0)
(10.3298 1.37044 0)
(10.4037 1.51766 0)
(10.4869 1.66789 0)
(10.58 1.82096 0)
(10.6838 1.9765 0)
(10.799 2.13393 0)
(10.926 2.29245 0)
(11.0656 2.45104 0)
(11.2182 2.60846 0)
(11.3843 2.76321 0)
(11.564 2.91364 0)
(11.7574 3.05789 0)
(11.9642 3.19398 0)
(12.1842 3.31986 0)
(12.4164 3.43342 0)
(12.6599 3.53262 0)
(12.9132 3.6155 0)
(13.1748 3.6803 0)
(13.4426 3.72551 0)
(13.7135 3.74991 0)
(14.0118 3.75309 0)
(10.0031 0.133227 0)
(10.0133 0.263596 0)
(10.0315 0.392205 0)
(10.0569 0.520061 0)
(10.0892 0.647957 0)
(10.1284 0.7765 0)
(10.1748 0.906227 0)
(10.2287 1.03755 0)
(10.2905 1.17077 0)
(10.3604 1.30607 0)
(10.4391 1.4435 0)
(10.527 1.58298 0)
(10.6246 1.72426 0)
(10.7323 1.86692 0)
(10.8508 2.01035 0)
(10.9803 2.15374 0)
(11.1213 2.2961 0)
(11.274 2.43624 0)
(11.4386 2.57279 0)
(11.615 2.70423 0)
(11.8031 2.82895 0)
(12.0024 2.94521 0)
(12.2123 3.05129 0)
(12.4319 3.14547 0)
(12.66 3.22609 0)
(12.8954 3.29165 0)
(13.1365 3.34083 0)
(13.3814 3.37256 0)
(13.6275 3.38602 0)
(13.8964 3.38103 0)
(10.0034 0.127318 0)
(10.0146 0.251834 0)
(10.0344 0.374515 0)
(10.0621 0.496248 0)
(10.0972 0.617726 0)
(10.1396 0.739464 0)
(10.1896 0.861906 0)
(10.2472 0.98538 0)
(10.3129 1.1101 0)
(10.3868 1.23619 0)
(10.4693 1.36361 0)
(10.5608 1.49223 0)
(10.6615 1.62175 0)
(10.772 1.75174 0)
(10.8924 1.88157 0)
(11.0229 2.01046 0)
(11.1639 2.13747 0)
(11.3152 2.2615 0)
(11.4769 2.38133 0)
(11.6488 2.49559 0)
(11.8304 2.60289 0)
(12.0212 2.70176 0)
(12.2205 2.79076 0)
(12.4273 2.8685 0)
(12.6404 2.93367 0)
(12.8587 2.98512 0)
(13.0805 3.02189 0)
(13.3045 3.04322 0)
(13.5281 3.04859 0)
(13.7708 3.038 0)
(10.0036 0.120746 0)
(10.0157 0.238768 0)
(10.037 0.354907 0)
(10.0668 0.469936 0)
(10.1043 0.584452 0)
(10.1494 0.698885 0)
(10.2023 0.813596 0)
(10.2631 0.928836 0)
(10.332 1.04476 0)
(10.409 1.1614 0)
(10.4944 1.2787 0)
(10.5885 1.39647 0)
(10.6914 1.51439 0)
(10.8034 1.63203 0)
(10.9246 1.74877 0)
(11.055 1.8639 0)
(11.1946 1.97653 0)
(11.3435 2.08567 0)
(11.5012 2.19024 0)
(11.6676 2.28907 0)