/*--------------------------------*- C++ -*----------------------------------*\
  =========                 |
  \\      /  F ield         | OpenFOAM: The Open Source CFD Toolbox
   \\    /   O peration     | Website:  https://openfoam.org
    \\  /    A nd           | Version:  7
     \\/     M anipulation  |
\*---------------------------------------------------------------------------*/
FoamFile
{
    version     2.0;
    format      ascii;
    class       surfaceVectorField;
    location    "0.3";
    object      Uf;
}
// * * * * * * * * * * * * * * * * * * * * * * * * * * * * * * * * * * * * * //

dimensions      [0 1 -1 0 0 0 0];

internalField   nonuniform List<vector> 
5457
(
(9.92161 0.0248393 0)
(9.97153 0.0383889 0)
(9.82623 0.0323443 0)
(9.92986 0.0478394 0)
(9.71413 0.0385927 0)
(9.85861 0.0575866 0)
(9.58311 0.0450291 0)
(9.76266 0.0689337 0)
(9.4331 0.0516731 0)
(9.647 0.0808295 0)
(9.26427 0.0585615 0)
(9.51261 0.0931769 0)
(9.07635 0.0658341 0)
(9.3588 0.10622 0)
(8.86872 0.0736296 0)
(9.18475 0.120195 0)
(8.64055 0.0820608 0)
(8.98971 0.135284 0)
(8.39084 0.0912239 0)
(8.77277 0.151642 0)
(8.11846 0.101203 0)
(8.53287 0.169405 0)
(7.82224 0.112066 0)
(8.26881 0.188686 0)
(7.50102 0.123859 0)
(7.97932 0.20956 0)
(7.15374 0.136592 0)
(7.66316 0.232047 0)
(6.77953 0.15023 0)
(7.3192 0.256089 0)
(6.37786 0.164674 0)
(6.9465 0.281525 0)
(5.94872 0.179743 0)
(6.54451 0.308058 0)
(5.49277 0.19515 0)
(6.11315 0.33522 0)
(5.01158 0.21048 0)
(5.65309 0.362334 0)
(4.50786 0.225163 0)
(5.16586 0.388477 0)
(3.98569 0.238454 0)
(4.65418 0.412449 0)
(3.45074 0.249424 0)
(4.1221 0.432754 0)
(2.91051 0.256958 0)
(3.57524 0.447604 0)
(2.37439 0.259772 0)
(3.02095 0.454942 0)
(1.85374 0.256452 0)
(2.46832 0.452505 0)
(1.3618 0.245553 0)
(1.92821 0.437896 0)
(0.913397 0.224684 0)
(1.41236 0.408792 0)
(0.526341 0.194328 0)
(0.940094 0.361402 0)
(0.212884 0.149634 0)
(0.475872 0.299761 0)
(0.227907 0.208506 0)
(9.99714 0.0508479 0)
(9.99733 0.0397907 0)
(9.96102 0.0694142 0)
(9.97977 0.0659547 0)
(9.9028 0.0858535 0)
(9.93686 0.0874967 0)
(9.82432 0.1031 0)
(9.87031 0.11022 0)
(9.72541 0.121215 0)
(9.7837 0.134127 0)
(9.60595 0.140247 0)
(9.6781 0.159107 0)
(9.46563 0.160493 0)
(9.55305 0.185532 0)
(9.30386 0.182271 0)
(9.40787 0.213847 0)
(9.11978 0.205846 0)
(9.24184 0.244427 0)
(8.91235 0.231443 0)
(9.05411 0.277602 0)
(8.68039 0.259258 0)
(8.84364 0.313671 0)
(8.4226 0.289443 0)
(8.60923 0.352896 0)
(8.13763 0.322084 0)
(8.34955 0.395474 0)
(7.82416 0.357176 0)
(8.06324 0.441504 0)
(7.48096 0.394582 0)
(7.74892 0.49095 0)
(7.10707 0.433998 0)
(7.40532 0.543585 0)
(6.70186 0.474899 0)
(7.03137 0.598938 0)
(6.26525 0.516491 0)
(6.62634 0.656218 0)
(5.79789 0.557658 0)
(6.18999 0.714252 0)
(5.30137 0.596911 0)
(5.72275 0.771403 0)
(4.7784 0.632363 0)
(5.22594 0.825521 0)
(4.23309 0.661717 0)
(4.70196 0.873901 0)
(3.67102 0.682303 0)
(4.15448 0.913297 0)
(3.09942 0.691164 0)
(3.58861 0.939996 0)
(2.52703 0.685204 0)
(3.01096 0.94998 0)
(1.96383 0.661463 0)
(2.42954 0.939214 0)
(1.42038 0.616929 0)
(1.85265 0.904239 0)
(0.905571 0.551765 0)
(1.29573 0.84209 0)
(0.426473 0.455862 0)
(0.725692 0.757926 0)
(0.326321 0.62621 0)
(9.98974 0.0580447 0)
(9.99509 0.0448176 0)
(9.9565 0.0870546 0)
(9.97492 0.0826245 0)
(9.90169 0.114468 0)
(9.93286 0.115654 0)
(9.8279 0.143083 0)
(9.86921 0.14904 0)
(9.73548 0.173239 0)
(9.78642 0.18393 0)
(9.62427 0.2051 0)
(9.68558 0.22048 0)
(9.49402 0.239087 0)
(9.5665 0.259152 0)
(9.34427 0.275679 0)
(9.42867 0.300539 0)
(9.17431 0.315309 0)
(9.27149 0.345198 0)
(8.98323 0.358371 0)
(9.09427 0.393636 0)
(8.76995 0.40522 0)
(8.89614 0.446324 0)
(8.53321 0.456155 0)
(8.67603 0.503693 0)
(8.27168 0.511382 0)
(8.43275 0.566097 0)
(7.98392 0.570975 0)
(8.16499 0.633777 0)
(7.6685 0.634816 0)
(7.87139 0.706802 0)
(7.32406 0.702533 0)
(7.55055 0.785002 0)
(6.9494 0.77342 0)
(7.20113 0.867886 0)
(6.54363 0.846354 0)
(6.82192 0.954545 0)
(6.10632 0.919709 0)
(6.41196 1.04355 0)
(5.63766 0.991278 0)
(5.97067 1.13284 0)
(5.13868 1.05821 0)
(5.49801 1.21965 0)
(4.61145 1.11701 0)
(4.99468 1.30042 0)
(4.05924 1.16359 0)
(4.46233 1.37083 0)
(3.48666 1.19342 0)
(3.90369 1.42587 0)
(2.89967 1.20189 0)
(3.32279 1.46014 0)
(2.30531 1.18484 0)
(2.72499 1.46827 0)
(1.71118 1.13916 0)
(2.11584 1.44588 0)
(1.12433 1.06657 0)
(1.50892 1.39005 0)
(0.550469 0.956663 0)
(0.871864 1.30671 0)
(0.382461 1.16536 0)
(9.98585 0.069695 0)
(9.99394 0.0517451 0)
(9.95253 0.110284 0)
(9.97209 0.0993402 0)
(9.8987 0.149221 0)
(9.92989 0.143302 0)
(9.82615 0.188953 0)
(9.86741 0.187211 0)
(9.73555 0.230336 0)
(9.78639 0.232752 0)
(9.62687 0.273842 0)
(9.68776 0.280458 0)
(9.49993 0.320068 0)
(9.57149 0.330905 0)
(9.35438 0.369667 0)
(9.43717 0.3848 0)
(9.18968 0.423261 0)
(9.28434 0.442848 0)
(9.00512 0.48143 0)
(9.11241 0.505709 0)
(8.79982 0.544714 0)
(8.92065 0.574008 0)
(8.57277 0.613593 0)
(8.70817 0.648327 0)
(8.3228 0.688448 0)
(8.47395 0.729177 0)
(8.04866 0.76951 0)
(8.21686 0.816949 0)
(7.74903 0.856793 0)
(7.93566 0.911854 0)
(7.42252 0.950011 0)
(7.62904 1.01385 0)
(7.06777 1.04848 0)
(7.29562 1.12254 0)
(6.68352 1.15099 0)
(6.93401 1.23706 0)
(6.26865 1.25573 0)
(6.54287 1.35594 0)
(5.82237 1.36011 0)
(6.12097 1.47701 0)
(5.34436 1.46072 0)
(5.66728 1.59721 0)
(4.83494 1.55326 0)
(5.18118 1.71253 0)
(4.29526 1.63263 0)
(4.66257 1.81797 0)
(3.72755 1.69305 0)
(4.11216 1.90763 0)
(3.13519 1.72857 0)
(3.53168 1.97497 0)
(2.52281 1.73375 0)
(2.92422 2.01337 0)
(1.89608 1.70462 0)
(2.29315 2.01725 0)
(1.26137 1.64276 0)
(1.65138 1.98268 0)
(0.624918 1.53446 0)
(0.965812 1.91536 0)
(0.416188 1.77743 0)
(9.98406 0.0819573 0)
(9.99343 0.0595498 0)
(9.95032 0.132566 0)
(9.97079 0.116265 0)
(9.89743 0.181768 0)
(9.92869 0.170473 0)
(9.82629 0.231739 0)
(9.86747 0.224637 0)
(9.73759 0.283698 0)
(9.78843 0.280548 0)
(9.63139 0.338375 0)
(9.69228 0.339069 0)
(9.50751 0.396493 0)
(9.57902 0.400926 0)
(9.36564 0.458819 0)
(9.44832 0.46693 0)
(9.20532 0.526098 0)
(9.29976 0.537908 0)
(9.02591 0.599042 0)
(9.13281 0.614656 0)
(8.82665 0.678323 0)
(8.94682 0.697936 0)
(8.60664 0.764554 0)
(8.74098 0.788467 0)
(8.36488 0.858256 0)
(8.51437 0.8869 0)
(8.10025 0.959801 0)
(8.26596 0.993772 0)
(7.81152 1.06934 0)
(7.99458 1.10945 0)
(7.49737 1.18673 0)
(7.69899 1.23403 0)
(7.15642 1.3114 0)
(7.3778 1.36729 0)
(6.78721 1.44223 0)
(7.02954 1.50851 0)
(6.38824 1.57743 0)
(6.65259 1.65636 0)
(5.95808 1.71435 0)
(6.24529 1.80876 0)
(5.49542 1.84939 0)
(5.80589 1.96265 0)
(4.99923 1.97786 0)
(5.33274 2.11393 0)
(4.46899 2.09405 0)
(4.82437 2.2573 0)
(3.90491 2.19131 0)
(4.2798 2.38629 0)
(3.30831 2.26251 0)
(3.69884 2.49348 0)
(2.68188 2.30088 0)
(3.08268 2.57098 0)
(2.02999 2.30089 0)
(2.43291 2.61156 0)
(1.35888 2.26277 0)
(1.76244 2.60931 0)
(0.676429 2.16762 0)
(1.03682 2.56799 0)
(0.440229 2.43995 0)
(9.98332 0.0945239 0)
(9.99326 0.0677171 0)
(9.94952 0.154594 0)
(9.97043 0.13322 0)
(9.89776 0.213758 0)
(9.92886 0.19706 0)
(9.82846 0.273894 0)
(9.8692 0.261101 0)
(9.74213 0.336344 0)
(9.7925 0.327065 0)
(9.6389 0.402017 0)
(9.69931 0.396042 0)
(9.5186 0.471755 0)
(9.5896 0.46892 0)
(9.38095 0.546428 0)
(9.4631 0.546615 0)
(9.22552 0.626906 0)
(9.31944 0.630067 0)
(9.05172 0.71403 0)
(9.15813 0.720197 0)
(8.85884 0.808608 0)
(8.97855 0.817895 0)
(8.64605 0.911393 0)
(8.77994 0.924011 0)
(8.41239 1.02305 0)
(8.56142 1.03934 0)
(8.1568 1.14411 0)
(8.322 1.16455 0)
(7.87809 1.27488 0)
(8.06053 1.30018 0)
(7.57492 1.41539 0)
(7.77575 1.44652 0)
(7.24585 1.56525 0)
(7.46623 1.60352 0)
(6.88923 1.72356 0)
(7.13033 1.7707 0)
(6.50327 1.88869 0)
(6.76623 1.94699 0)
(6.08601 2.05817 0)
(6.37182 2.13055 0)
(5.63535 2.22847 0)
(5.94476 2.31861 0)
(5.14918 2.39489 0)
(5.48251 2.50723 0)
(4.62557 2.55141 0)
(4.98242 2.69114 0)
(4.06308 2.69079 0)
(4.44201 2.86362 0)
(3.46122 2.80486 0)
(3.85932 3.01656 0)
(2.82109 2.88525 0)
(3.23384 3.14078 0)
(2.14602 2.92428 0)
(2.5654 3.227 0)
(1.4424 2.91951 0)
(1.86713 3.26629 0)
(0.719999 2.8452 0)
(1.10294 3.25882 0)
(0.462375 3.14514 0)
(9.98317 0.107137 0)
(9.99328 0.0759567 0)
(9.94975 0.176248 0)
(9.9707 0.149984 0)
(9.89937 0.244923 0)
(9.93007 0.222938 0)
(9.83224 0.314829 0)
(9.87227 0.296422 0)
(9.74873 0.387355 0)
(9.79827 0.372064 0)
(9.64898 0.463567 0)
(9.70848 0.451094 0)
(9.53286 0.544438 0)
(9.60287 0.534551 0)
(9.40012 0.630955 0)
(9.48121 0.623463 0)
(9.25034 0.724105 0)
(9.34317 0.718875 0)
(9.08298 0.824854 0)
(9.1883 0.821826 0)
(8.89737 0.93414 0)
(9.01601 0.933333 0)
(8.69271 1.05285 0)
(8.82559 1.05438 0)
(8.46806 1.18179 0)
(8.61619 1.18589 0)
(8.22236 1.32166 0)
(8.38682 1.32872 0)
(7.9544 1.47293 0)
(8.13632 1.48356 0)
(7.66279 1.63585 0)
(7.8634 1.6509 0)
(7.34595 1.81027 0)
(7.56651 1.83096 0)
(7.00202 1.99557 0)
(7.24385 2.02355 0)
(6.62889 2.19044 0)
(6.89333 2.22796 0)
(6.22407 2.39278 0)
(6.51243 2.44276 0)
(5.78474 2.59938 0)
(6.09821 2.66562 0)
(5.3078 2.80578 0)
(5.64726 2.89307 0)
(4.79 3.00603 0)
(5.15577 3.12016 0)
(4.22829 3.19254 0)
(4.61975 3.34027 0)
(3.62042 3.35621 0)
(4.03542 3.54487 0)
(2.9658 3.48689 0)
(3.40028 3.72349 0)
(2.26659 3.57402 0)
(2.71206 3.86444 0)
(1.5292 3.61119 0)
(1.9837 3.95481 0)
(0.765256 3.56398 0)
(1.17712 3.98938 0)
(0.488167 3.89466 0)
(9.98339 0.119585 0)
(9.99342 0.0840894 0)
(9.95074 0.197354 0)
(9.97141 0.166363 0)
(9.90202 0.275077 0)
(9.93206 0.247966 0)
(9.83738 0.354321 0)
(9.87644 0.33043 0)
(9.75711 0.436501 0)
(9.80549 0.415318 0)
(9.66134 0.522806 0)
(9.71953 0.503949 0)
(9.54998 0.614334 0)
(9.61854 0.597494 0)
(9.4228 0.712179 0)
(9.50232 0.697087 0)
(9.27944 0.817439 0)
(9.3706 0.803879 0)
(9.11938 0.931199 0)
(9.22295 0.91902 0)
(8.942 1.05453 0)
(9.05886 1.04365 0)
(8.74654 1.18845 0)
(8.87764 1.17889 0)
(8.53207 1.33393 0)
(8.67848 1.32581 0)
(8.29753 1.49182 0)
(8.46041 1.48543 0)
(8.04168 1.66283 0)
(8.22228 1.65865 0)
(7.76305 1.84744 0)
(7.96274 1.84619 0)
(7.45991 2.0458 0)
(7.68016 2.04857 0)
(7.13019 2.25766 0)
(7.37258 2.26597 0)
(6.7714 2.48218 0)
(7.03763 2.49812 0)
(6.38056 2.71774 0)
(6.67239 2.74417 0)
(5.95412 2.96174 0)
(6.27333 3.00246 0)
(5.48793 3.21024 0)
(5.83617 3.2702 0)
(4.97738 3.45769 0)
(5.35589 3.54317 0)
(4.41766 3.69652 0)
(4.82683 3.81524 0)
(3.80441 3.91689 0)
(4.24303 4.07785 0)
(3.13479 4.1068 0)
(3.5994 4.31954 0)
(2.40913 4.25216 0)
(2.89059 4.526 0)
(1.63311 4.34113 0)
(2.12813 4.6794 0)
(0.820011 4.3283 0)
(1.27102 4.76696 0)
(0.522764 4.69782 0)
(9.98386 0.131709 0)
(9.99364 0.0919949 0)
(9.95229 0.217753 0)
(9.97243 0.182194 0)
(9.90551 0.304065 0)
(9.93467 0.271999 0)
(9.84368 0.392187 0)
(9.88153 0.36296 0)
(9.76704 0.483557 0)
(9.81396 0.456617 0)
(9.67571 0.57946 0)
(9.73224 0.554351 0)
(9.56965 0.681106 0)
(9.63634 0.657441 0)
(9.44867 0.789691 0)
(9.52613 0.767125 0)
(9.31244 0.906419 0)
(9.40136 0.884652 0)
(9.16051 1.03249 0)
(9.26168 1.01128 0)
(8.9923 1.16911 0)
(9.10663 1.14827 0)
(8.8071 1.31743 0)
(8.93558 1.29686 0)
(8.60402 1.47858 0)
(8.74778 1.4583 0)
(8.38203 1.65362 0)
(8.5423 1.63377 0)
(8.13985 1.84348 0)
(8.31802 1.82438 0)
(7.87598 2.04893 0)
(8.07358 2.03114 0)
(7.58856 2.27048 0)
(7.8073 2.2549 0)
(7.27533 2.50833 0)
(7.51711 2.49626 0)
(6.93348 2.76221 0)
(7.20044 2.75553 0)
(6.55955 3.03122 0)
(6.85403 3.03255 0)
(6.14926 3.31355 0)
(6.47381 3.32653 0)
(5.69741 3.60617 0)
(6.05468 3.63573 0)
(5.19787 3.90435 0)
(5.59037 3.95706 0)
(4.64377 4.20103 0)
(5.07336 4.28544 0)
(4.02801 4.48616 0)
(4.49504 4.61301 0)
(3.34446 4.74608 0)
(3.84675 4.92799 0)
(2.59005 4.96273 0)
(3.11843 5.21377 0)
(1.7681 5.11718 0)
(2.31773 5.44688 0)
(0.89257 5.14962 0)
(1.39824 5.60423 0)
(0.572629 5.57203 0)
(9.9845 0.143386 0)
(9.99393 0.099587 0)
(9.95428 0.237305 0)
(9.9737 0.197347 0)
(9.9097 0.331737 0)
(9.93779 0.2949 0)
(9.85098 0.428244 0)
(9.88741 0.393858 0)
(9.77832 0.528295 0)
(9.82352 0.495769 0)
(9.69186 0.633253 0)
(9.7464 0.602065 0)
(9.5916 0.744423 0)
(9.65604 0.714112 0)
(9.47739 0.863101 0)
(9.55233 0.833243 0)
(9.34896 0.990588 0)
(9.4351 0.960799 0)
(9.20592 1.1282 0)
(9.30408 1.09814 0)
(9.04777 1.27725 0)
(9.15885 1.24663 0)
(8.87385 1.43905 0)
(8.99888 1.40765 0)
(8.68335 1.61489 0)
(8.8235 1.58258 0)
(8.47527 1.80604 0)
(8.63184 1.7728 0)
(8.24838 2.01367 0)
(8.42287 1.97965 0)
(8.00118 2.23886 0)
(8.19527 2.20441 0)
(7.73176 2.48256 0)
(7.94739 2.4483 0)
(7.43774 2.74549 0)
(7.67714 2.71243 0)
(7.11609 3.02807 0)
(7.38186 2.99773 0)
(6.76297 3.33028 0)
(7.05809 3.30489 0)
(6.37346 3.65139 0)
(6.70138 3.6342 0)
(5.94136 3.98969 0)
(6.30598 3.98529 0)
(5.45898 4.34183 0)
(5.86445 4.35673 0)
(4.91703 4.70209 0)
(5.36739 4.74533 0)
(4.30489 5.06112 0)
(4.80309 5.14503 0)
(3.61157 5.40448 0)
(4.15822 5.54514 0)
(2.82801 5.71038 0)
(3.41563 5.92812 0)
(1.95169 5.95109 0)
(2.5749 6.26512 0)
(0.994297 6.04723 0)
(1.57847 6.51979 0)
(0.648053 6.54589 0)
(9.98527 0.15452 0)
(9.99426 0.106801 0)
(9.95662 0.255887 0)
(9.97516 0.211715 0)
(9.91449 0.357953 0)
(9.94131 0.316545 0)
(9.85913 0.462326 0)
(9.89394 0.422981 0)
(9.79078 0.570512 0)
(9.83402 0.532601 0)
(9.70958 0.683938 0)
(9.76183 0.646878 0)
(9.61556 0.803994 0)
(9.67738 0.767254 0)
(9.50864 0.932062 0)
(9.58064 0.895142 0)
(9.38861 1.06954 0)
(9.47148 1.03197 0)
(9.25517 1.21783 0)
(9.34971 1.17917 0)
(9.10788 1.37838 0)
(9.21501 1.33823 0)
(8.94618 1.55263 0)
(9.06695 1.51065 0)
(8.76936 1.74204 0)
(8.90494 1.69794 0)
(8.57651 1.94806 0)
(8.72826 1.90166 0)
(8.3665 2.17215 0)
(8.53598 2.12336 0)
(8.13789 2.41573 0)
(8.3269 2.36464 0)
(7.88882 2.68017 0)
(8.0995 2.62709 0)
(7.61693 2.96679 0)
(7.85179 2.91232 0)
(7.31913 3.2768 0)
(7.58117 3.22197 0)
(6.99138 3.6112 0)
(7.28423 3.55766 0)
(6.62835 3.97067 0)
(6.95639 3.92094 0)
(6.22307 4.35521 0)
(6.59155 4.31315 0)
(5.76641 4.76363 0)
(6.1815 4.7351 0)
(5.24657 5.19266 0)
(5.71525 5.18646 0)
(4.64875 5.63532 0)
(5.17801 5.6646 0)
(3.95526 6.07847 0)
(4.55095 6.16244 0)
(3.14721 6.49837 0)
(3.80718 6.66479 0)
(2.20967 6.85802 0)
(2.93188 7.14052 0)
(1.14394 7.05107 0)
(1.84428 7.53895 0)
(0.768355 7.6663 0)
(9.98614 0.165033 0)
(9.99463 0.113586 0)
(9.95924 0.273392 0)
(9.97677 0.22521 0)
(9.91976 0.382587 0)
(9.94516 0.336825 0)
(9.86802 0.494284 0)
(9.90102 0.450203 0)
(9.80426 0.610026 0)
(9.84531 0.566958 0)
(9.72865 0.731297 0)
(9.77833 0.688605 0)
(9.64127 0.859557 0)
(9.70014 0.816643 0)
(9.5421 0.996265 0)
(9.61075 0.952555 0)
(9.431 1.14289 0)
(9.51012 1.09784 0)
(9.30776 1.30095 0)
(9.39813 1.25401 0)
(9.17205 1.47197 0)
(9.27458 1.42264 0)
(9.02342 1.65753 0)
(9.13913 1.60532 0)
(8.86129 1.85924 0)
(8.99136 1.80372 0)
(8.68488 2.07875 0)
(8.83068 2.01953 0)
(8.49322 2.31775 0)
(8.65633 2.25453 0)
(8.28502 2.57801 0)
(8.46732 2.51057 0)
(8.05862 2.86136 0)
(8.26234 2.78961 0)
(7.8118 3.16971 0)
(8.03966 3.09379 0)
(7.54163 3.50511 0)
(7.79694 3.42541 0)
(7.24416 3.86973 0)
(7.53107 3.78707 0)
(6.91406 4.2658 0)
(7.23774 4.18168 0)
(6.54401 4.69552 0)
(6.91106 4.61251 0)
(6.12398 5.16065 0)
(6.54273 5.08311 0)
(5.64015 5.66181 0)
(6.12104 5.59703 0)
(5.07349 6.19687 0)
(5.62909 6.1571 0)
(4.39824 6.75792 0)
(5.043 6.7635 0)
(3.58107 7.32459 0)
(4.3247 7.40978 0)
(2.58358 7.85486 0)
(3.43743 8.07189 0)
(1.37685 8.20813 0)
(2.25491 8.69295 0)
(0.97457 9.01485 0)
(9.9871 0.174864 0)
(9.99503 0.119904 0)
(9.96208 0.289731 0)
(9.9785 0.23776 0)
(9.92544 0.40553 0)
(9.94927 0.355647 0)
(9.87752 0.523985 0)
(9.90855 0.475413 0)
(9.8186 0.646677 0)
(9.85726 0.598709 0)
(9.74887 0.775137 0)
(9.79574 0.727085 0)
(9.66847 0.910884 0)
(9.72409 0.862089 0)
(9.57743 1.05544 0)
(9.64238 1.00526 0)
(9.47572 1.21034 0)
(9.55066 1.15814 0)
(9.36321 1.37717 0)
(9.44889 1.32233 0)
(9.23969 1.55756 0)
(9.33699 1.49946 0)
(9.10486 1.75319 0)
(9.21477 1.69121 0)
(8.95828 1.9658 0)
(9.08195 1.89934 0)
(8.79937 2.19721 0)
(8.93813 2.12571 0)
(8.62737 2.44936 0)
(8.78278 2.37224 0)
(8.44124 2.72429 0)
(8.61517 2.64102 0)
(8.23961 3.02426 0)
(8.43432 2.93436 0)
(8.02061 3.35176 0)
(8.23888 3.25479 0)
(7.78173 3.70966 0)
(8.02701 3.60528 0)
(7.51949 4.10127 0)
(7.79619 3.98931 0)
(7.22901 4.53051 0)
(7.54287 4.41111 0)
(6.90345 5.00201 0)
(7.26202 4.87588 0)
(6.5329 5.52115 0)
(6.94636 5.39012 0)
(6.10286 6.09388 0)
(6.5851 5.96196 0)
(5.59163 6.72599 0)
(6.16164 6.60142 0)
(4.96614 7.42091 0)
(5.65032 7.32027 0)
(4.17567 8.17302 0)
(5.00513 8.13042 0)
(3.14373 8.95326 0)
(4.16513 9.03543 0)
(1.76784 9.59567 0)
(2.92666 10.0087 0)
(1.36421 10.7463 0)
(9.98812 0.183963 0)
(9.99545 0.125724 0)
(9.96509 0.30483 0)
(9.98032 0.249308 0)
(9.93144 0.42669 0)
(9.9536 0.372936 0)
(9.88752 0.551319 0)
(9.91644 0.498519 0)
(9.83364 0.680336 0)
(9.86974 0.627744 0)
(9.77003 0.815307 0)
(9.81388 0.762188 0)
(9.69688 0.957795 0)
(9.749 0.903435 0)
(9.6143 1.10937 0)
(9.67523 1.05306 0)
(9.52234 1.27163 0)
(9.59271 1.21267 0)
(9.42099 1.44621 0)
(9.50152 1.38388 0)
(9.31017 1.6348 0)
(9.40167 1.56838 0)
(9.18972 1.83918 0)
(9.29315 1.76793 0)
(9.0594 2.06118 0)
(9.17583 1.98436 0)
(8.91886 2.30278 0)
(9.04956 2.21961 0)
(8.7676 2.56607 0)
(8.91404 2.47575 0)
(8.60492 2.85337 0)
(8.76889 2.75505 0)
(8.42986 3.16725 0)
(8.61353 3.06002 0)
(8.24108 3.51071 0)
(8.44712 3.39358 0)
(8.03673 3.88731 0)
(8.26853 3.75916 0)
(7.81419 4.3014 0)
(8.07611 4.16094 0)
(7.5697 4.75841 0)
(7.86752 4.60422 0)
(7.29781 5.26535 0)
(7.63939 5.09583 0)
(6.99034 5.83134 0)
(7.38671 5.64487 0)
(6.63464 6.46845 0)
(7.10185 6.2638 0)
(6.21031 7.19286 0)
(6.77256 6.97021 0)
(5.68275 8.02618 0)
(6.37888 7.78987 0)
(4.9896 8.99587 0)
(5.88072 8.76234 0)
(4.01021 10.1335 0)
(5.21644 9.9499 0)
(2.49557 11.3519 0)
(4.11116 11.4572 0)
(2.20275 13.1906 0)
(9.98918 0.192291 0)
(9.99589 0.131021 0)
(9.96824 0.318629 0)
(9.98221 0.25981 0)
(9.93769 0.445986 0)
(9.95809 0.388631 0)
(9.89791 0.576184 0)
(9.92461 0.519448 0)
(9.84923 0.710868 0)
(9.88265 0.653974 0)
(9.79194 0.851635 0)
(9.83261 0.793809 0)
(9.72626 1.00008 0)
(9.77469 0.94056 0)
(9.65238 1.1578 0)
(9.7091 1.09583 0)
(9.57045 1.32644 0)
(9.63606 1.26124 0)
(9.48058 1.50767 0)
(9.55575 1.43846 0)
(9.38282 1.70323 0)
(9.46834 1.62918 0)
(9.2772 1.91494 0)
(9.37394 1.83521 0)
(9.16367 2.14473 0)
(9.27264 2.05843 0)
(9.04215 2.39464 0)
(9.16453 2.30081 0)
(8.91243 2.66689 0)
(9.0496 2.56452 0)
(8.77424 2.96397 0)
(8.92784 2.85191 0)
(8.62711 3.2887 0)
(8.79914 3.16564 0)
(8.47037 3.6444 0)
(8.66329 3.50882 0)
(8.30306 4.03511 0)
(8.51997 3.88514 0)
(8.12378 4.4659 0)
(8.36867 4.29921 0)
(7.93045 4.94335 0)
(8.20862 4.75692 0)
(7.72004 5.47621 0)
(8.03874 5.26605 0)
(7.48788 6.07657 0)
(7.85745 5.83722 0)
(7.22657 6.76173 0)
(7.66247 6.48554 0)
(6.92364 7.55765 0)
(7.4505 7.23349 0)
(6.55623 8.50605 0)
(7.21753 8.11692 0)
(6.07745 9.68093 0)
(6.95602 9.19883 0)
(5.37164 11.249 0)
(6.6893 10.6089 0)
(4.05273 13.7494 0)
(6.4902 12.7185 0)
(5.59718 17.16 0)
(-0.634184 0.447507 0)
(-0.400155 0.621144 0)
(-1.41088 0.498802 0)
(-1.09943 0.742757 0)
(-2.28003 0.519511 0)
(-1.95603 0.811547 0)
(-3.21416 0.522108 0)
(-2.8774 0.851617 0)
(-4.19026 0.51131 0)
(-3.84215 0.868857 0)
(-5.1867 0.48976 0)
(-4.83323 0.86602 0)
(-6.18234 0.459155 0)
(-5.83114 0.844877 0)
(-7.15531 0.42045 0)
(-6.81538 0.806154 0)
(-8.08243 0.374208 0)
(-7.76377 0.75001 0)
(-8.93876 0.320846 0)
(-8.65219 0.676391 0)
(-9.69778 0.260779 0)
(-9.45457 0.585364 0)
(-10.3318 0.194582 0)
(-10.1432 0.477387 0)
(-10.8129 0.12302 0)
(-10.6895 0.353713 0)
(-11.1148 0.0468475 0)
(-11.0653 0.216718 0)
(-11.2124 -0.0335637 0)
(-11.2446 0.0684051 0)
(-11.0897 -0.117079 0)
(-11.2062 -0.0839653 0)
(-10.7337 -0.19989 0)
(-10.9399 -0.237839 0)
(-10.1479 -0.276983 0)
(-10.4432 -0.382215 0)
(-9.34803 -0.344283 0)
(-9.72684 -0.509476 0)
(-8.36047 -0.398843 0)
(-8.81294 -0.614207 0)
(-7.21898 -0.438874 0)
(-7.73243 -0.693173 0)
(-5.96198 -0.463629 0)
(-6.52259 -0.745293 0)
(-4.62971 -0.473115 0)
(-5.22421 -0.771259 0)
(-3.26216 -0.468032 0)
(-3.87773 -0.772987 0)
(-1.89604 -0.451098 0)
(-2.51875 -0.753944 0)
(-0.550716 -0.422781 0)
(-1.1458 -0.724928 0)
(0.746165 -0.386943 0)
(0.213078 -0.68232 0)
(1.98026 -0.355141 0)
(1.43977 -0.63395 0)
(3.17459 -0.349574 0)
(2.64223 -0.599039 0)
(4.12778 -0.627838 0)
(-0.790618 1.07083 0)
(-0.472729 1.39551 0)
(-1.63729 1.17809 0)
(-1.22561 1.55243 0)
(-2.53558 1.24429 0)
(-2.11032 1.6503 0)
(-3.47937 1.28158 0)
(-3.03362 1.71204 0)
(-4.4544 1.29129 0)
(-3.98815 1.73676 0)
(-5.44359 1.27466 0)
(-4.96185 1.72574 0)
(-6.42786 1.23238 0)
(-5.93817 1.68012 0)
(-7.38628 1.16446 0)
(-6.89846 1.60024 0)
(-8.29591 1.07056 0)
(-7.82166 1.48587 0)
(-9.13174 0.950438 0)
(-8.68425 1.33659 0)
(-9.86694 0.804293 0)
(-9.46038 1.15236 0)
(-10.4734 0.633279 0)
(-10.1222 0.934057 0)
(-10.9229 0.439848 0)
(-10.6408 0.684196 0)
(-11.1882 0.227847 0)
(-10.9874 0.407157 0)
(-11.2475 0.00243125 0)
(-11.1356 0.109976 0)
(-11.0835 -0.227941 0)
(-11.064 -0.196234 0)
(-10.691 -0.450816 0)
(-10.7687 -0.500093 0)
(-10.0749 -0.653977 0)
(-10.2479 -0.784109 0)
(-9.25155 -0.828153 0)
(-9.51382 -1.03397 0)
(-8.24676 -0.967054 0)
(-8.58891 -1.23913 0)
(-7.09385 -1.06751 0)
(-7.50399 -1.39328 0)
(-5.83045 -1.12927 0)
(-6.29562 -1.49438 0)
(-4.49531 -1.15449 0)
(-5.00348 -1.54418 0)
(-3.12475 -1.14757 0)
(-3.66693 -1.54768 0)
(-1.74874 -1.11572 0)
(-2.3206 -1.51334 0)
(-0.397277 -1.06031 0)
(-0.949555 -1.45316 0)
(0.899053 -0.98849 0)
(0.36907 -1.36435 0)
(2.13583 -0.924721 0)
(1.58829 -1.26928 0)
(3.33671 -0.908873 0)
(2.765 -1.20136 0)
(4.21418 -1.21352 0)
(-0.830537 1.87122 0)
(-0.484724 2.20897 0)
(-1.69564 2.00796 0)
(-1.24076 2.37974 0)
(-2.59271 2.0954 0)
(-2.12088 2.48791 0)
(-3.52017 2.14298 0)
(-3.02182 2.55757 0)
(-4.46906 2.14831 0)
(-3.94572 2.5814 0)
(-5.42639 2.11136 0)
(-4.8837 2.55776 0)
(-6.37606 2.03212 0)
(-5.82228 2.486 0)
(-7.29928 1.91014 0)
(-6.7452 2.36517 0)
(-8.17459 1.74476 0)
(-7.63307 2.19398 0)
(-8.97798 1.53559 0)
(-8.46338 1.97116 0)
(-9.68306 1.28315 0)
(-9.21058 1.69612 0)
(-10.2617 0.989644 0)
(-9.84646 1.3698 0)
(-10.6854 0.659693 0)
(-10.3411 0.995704 0)
(-10.927 0.301023 0)
(-10.6645 0.580597 0)
(-10.9629 -0.0750562 0)
(-10.7886 0.135134 0)
(-10.7783 -0.454659 0)
(-10.6921 -0.322561 0)
(-10.3675 -0.819697 0)
(-10.3763 -0.774616 0)
(-9.73788 -1.15058 0)
(-9.8395 -1.19486 0)
(-8.90753 -1.43208 0)
(-9.0963 -1.56289 0)
(-7.90339 -1.65388 0)
(-8.17042 -1.86365 0)
(-6.75911 -1.81095 0)
(-7.09303 -2.08815 0)
(-5.512 -1.90334 0)
(-5.90034 -2.2338 0)
(-4.20003 -1.93576 0)
(-4.63128 -2.30369 0)
(-2.85799 -1.91741 0)
(-3.32446 -2.30624 0)
(-1.51342 -1.85788 0)
(-2.01161 -2.25539 0)
(-0.203712 -1.76178 0)
(-0.675776 -2.1589 0)
(1.05018 -1.64599 0)
(0.573408 -2.02405 0)
(2.25069 -1.54448 0)
(1.7613 -1.88598 0)
(3.41128 -1.5003 0)
(2.88627 -1.78347 0)
(4.27427 -1.76464 0)
(-0.817653 2.69115 0)
(-0.467123 3.00981 0)
(-1.66435 2.8382 0)
(-1.19417 3.18943 0)
(-2.53464 2.93112 0)
(-2.04188 3.30052 0)
(-3.42747 2.97876 0)
(-2.89985 3.37153 0)
(-4.33667 2.97513 0)
(-3.77766 3.39072 0)
(-5.25239 2.91809 0)
(-4.66821 3.35362 0)
(-6.16124 2.80601 0)
(-5.56049 3.25723 0)
(-7.04643 2.63707 0)
(-6.44025 3.09858 0)
(-7.88773 2.40936 0)
(-7.28941 2.87457 0)
(-8.66149 2.12144 0)
(-8.08598 2.58233 0)
(-9.34091 1.77315 0)
(-8.80411 2.22009 0)
(-9.89668 1.36668 0)
(-9.41453 1.7883 0)
(-10.2986 0.907712 0)
(-9.88559 1.29119 0)
(-10.5182 0.406649 0)
(-10.185 0.73824 0)
(-10.5305 -0.12103 0)
(-10.2827 0.143761 0)
(-10.3222 -0.652576 0)
(-10.1594 -0.46512 0)
(-9.89149 -1.15996 0)
(-9.8217 -1.06239 0)
(-9.24869 -1.61734 0)
(-9.26988 -1.61422 0)
(-8.41369 -2.00456 0)
(-8.5208 -2.09478 0)
(-7.41426 -2.30796 0)
(-7.59917 -2.48523 0)
(-6.28423 -2.52109 0)
(-6.53621 -2.77437 0)
(-5.06034 -2.64456 0)
(-5.36755 -2.95946 0)
(-3.77939 -2.68563 0)
(-4.13126 -3.04524 0)
(-2.47458 -2.65734 0)
(-2.86497 -3.04377 0)
(-1.17544 -2.56918 0)
(-1.59378 -2.97237 0)
(0.0799593 -2.43076 0)
(-0.314052 -2.83538 0)
(1.27991 -2.27127 0)
(0.862051 -2.65538 0)
(2.43007 -2.13093 0)
(2.00428 -2.47681 0)
(3.53534 -2.05077 0)
(3.06812 -2.33784 0)
(4.37816 -2.27893 0)
(-0.772462 3.4801 0)
(-0.430871 3.76639 0)
(-1.57162 3.631 0)
(-1.10396 3.95367 0)
(-2.39159 3.72436 0)
(-1.89406 4.06615 0)
(-3.23172 3.76946 0)
(-2.68893 4.13745 0)
(-4.08748 3.75691 0)
(-3.5045 4.15246 0)
(-4.9511 3.68187 0)
(-4.33437 4.1042 0)
(-5.81106 3.54022 0)
(-5.16939 3.98698 0)
(-6.65191 3.32783 0)
(-5.9968 3.79527 0)
(-7.45407 3.0407 0)
(-6.79942 3.52349 0)
(-8.19378 2.67564 0)
(-7.55555 3.1666 0)
(-8.84335 2.23144 0)
(-8.23889 2.72105 0)
(-9.37206 1.7104 0)
(-8.8189 2.18641 0)
(-9.74791 1.12017 0)
(-9.26188 1.56752 0)
(-9.94073 0.47549 0)
(-9.5328 0.876657 0)
(-9.92807 -0.201185 0)
(-9.59936 0.134886 0)
(-9.69506 -0.878715 0)
(-9.44769 -0.624575 0)
(-9.24567 -1.52128 0)
(-9.08886 -1.36266 0)
(-8.59348 -2.09701 0)
(-8.52592 -2.03971 0)
(-7.76007 -2.58156 0)
(-7.77783 -2.62565 0)
(-6.77344 -2.95855 0)
(-6.86953 -3.09886 0)
(-5.66709 -3.22053 0)
(-5.8316 -3.4462 0)
(-4.47661 -3.36908 0)
(-4.69859 -3.66531 0)
(-3.23754 -3.41423 0)
(-3.50727 -3.76255 0)
(-1.98212 -3.37168 0)
(-2.29336 -3.75338 0)
(-0.741633 -3.25029 0)
(-1.0724 -3.65697 0)
(0.450174 -3.06815 0)
(0.124754 -3.47758 0)
(1.58612 -2.86713 0)
(1.23197 -3.25303 0)
(2.6749 -2.6886 0)
(2.31508 -3.03611 0)
(3.71384 -2.5683 0)
(3.31084 -2.85894 0)
(4.52936 -2.75428 0)
(-0.700775 4.21107 0)
(-0.379995 4.45275 0)
(-1.42798 4.36613 0)
(-0.977178 4.6491 0)
(-2.17596 4.46046 0)
(-1.68647 4.76456 0)
(-2.94475 4.50445 0)
(-2.39838 4.83833 0)
(-3.73117 4.48578 0)
(-3.13414 4.85248 0)
(-4.52893 4.39689 0)
(-3.88756 4.79755 0)
(-5.32791 4.23083 0)
(-4.65109 4.66498 0)
(-6.11369 3.98075 0)
(-5.41325 4.44633 0)
(-6.86726 3.64008 0)
(-6.15778 4.13311 0)
(-7.56477 3.20343 0)
(-6.86339 3.71754 0)
(-8.17777 2.668 0)
(-7.50353 3.19381 0)
(-8.674 2.03575 0)
(-8.04645 2.56007 0)
(-9.01948 1.31603 0)
(-8.45592 1.82152 0)
(-9.18254 0.528273 0)
(-8.69333 0.99371 0)
(-9.14064 -0.296628 0)
(-8.72336 0.105515 0)
(-8.88285 -1.11719 0)
(-8.54178 -0.800988 0)
(-8.41799 -1.8893 0)
(-8.16482 -1.67328 0)
(-7.76329 -2.57621 0)
(-7.59788 -2.46683 0)
(-6.94126 -3.15073 0)
(-6.86133 -3.14928 0)
(-5.97891 -3.59448 0)
(-5.97897 -3.69738 0)
(-4.90881 -3.89944 0)
(-4.97986 -4.09603 0)
(-3.76452 -4.06848 0)
(-3.89681 -4.34377 0)
(-2.57972 -4.11395 0)
(-2.76468 -4.44844 0)
(-1.3852 -4.05146 0)
(-1.61462 -4.42856 0)
(-0.220166 -3.8934 0)
(-0.459163 -4.29994 0)
(0.895747 -3.66941 0)
(0.634559 -4.07889 0)
(1.96328 -3.42865 0)
(1.67717 -3.81468 0)
(2.98241 -3.21144 0)
(2.68955 -3.55964 0)
(3.94651 -3.04772 0)
(3.61147 -3.3425 0)
(4.7278 -3.18863 0)
(-0.605513 4.86164 0)
(-0.316779 5.04581 0)
(-1.23872 5.02367 0)
(-0.81782 5.25464 0)
(-1.89402 5.12198 0)
(-1.42465 5.37642 0)
(-2.5723 5.16858 0)
(-2.03395 5.45669 0)
(-3.27168 5.14851 0)
(-2.67131 5.47502 0)
(-3.98721 5.05144 0)
(-3.33063 5.41942 0)
(-4.71007 4.86744 0)
(-4.00597 5.27839 0)
(-5.42698 4.58652 0)
(-4.68722 5.04032 0)
(-6.11962 4.19905 0)
(-5.35928 4.69344 0)
(-6.7643 3.69684 0)
(-6.00159 4.22675 0)
(-7.33193 3.07494 0)
(-6.58773 3.63158 0)
(-7.78861 2.33452 0)
(-7.08491 2.90395 0)
(-8.09804 1.48693 0)
(-7.45396 2.04902 0)
(-8.22676 0.557613 0)
(-7.65187 1.08611 0)
(-8.15346 -0.412345 0)
(-7.63987 0.0541431 0)
(-7.87201 -1.36944 0)
(-7.42912 -0.993599 0)
(-7.39781 -2.26164 0)
(-7.03984 -1.99013 0)
(-6.75116 -3.04956 0)
(-6.47968 -2.88871 0)
(-5.95394 -3.70491 0)
(-5.76888 -3.6571 0)
(-5.03051 -4.20772 0)
(-4.92813 -4.2717 0)
(-4.01186 -4.54962 0)
(-3.98441 -4.71461 0)
(-2.92867 -4.73477 0)
(-2.96737 -4.98601 0)
(-1.81277 -4.77627 0)
(-1.90951 -5.09444 0)
(-0.695841 -4.68786 0)
(-0.833604 -5.05989 0)
(0.381525 -4.49198 0)
(0.222023 -4.89452 0)
(1.41281 -4.23091 0)
(1.22092 -4.6346 0)
(2.40631 -3.95262 0)
(2.19108 -4.33739 0)
(3.34844 -3.69576 0)
(3.12306 -4.04361 0)
(4.2309 -3.48652 0)
(3.96567 -3.78511 0)
(4.9717 -3.58043 0)
(-0.489096 5.41085 0)
(-0.243208 5.52485 0)
(-1.00804 5.58388 0)
(-0.629452 5.75091 0)
(-1.55079 5.69041 0)
(-1.11378 5.88319 0)
(-2.11923 5.74466 0)
(-1.60151 5.97492 0)
(-2.7128 5.7292 0)
(-2.12166 6.00338 0)
(-3.32797 5.6309 0)
(-2.66822 5.95407 0)
(-3.95737 5.43666 0)
(-3.2371 5.81248 0)
(-4.58903 5.1331 0)
(-3.81975 5.56368 0)
(-5.20569 4.7071 0)
(-4.40257 5.1923 0)
(-5.78411 4.14709 0)
(-4.96628 4.68362 0)
(-6.29495 3.44533 0)
(-5.48535 4.02554 0)
(-6.70319 2.60151 0)
(-5.92668 3.21135 0)
(-6.96997 1.62894 0)
(-6.24778 2.24516 0)
(-7.06161 0.561106 0)
(-6.39937 1.15189 0)
(-6.95576 -0.548136 0)
(-6.33861 -0.0200441 0)
(-6.65395 -1.63189 0)
(-6.10281 -1.20014 0)
(-6.17998 -2.63144 0)
(-5.71082 -2.30683 0)
(-5.55548 -3.50789 0)
(-5.172 -3.29613 0)
(-4.79963 -4.23396 0)
(-4.5043 -4.13856 0)
(-3.93209 -4.78823 0)
(-3.72289 -4.81126 0)
(-2.98187 -5.16146 0)
(-2.85317 -5.29163 0)
(-1.97568 -5.35842 0)
(-1.91796 -5.58259 0)
(-0.943205 -5.38948 0)
(-0.947915 -5.69215 0)
(0.0728411 -5.27296 0)
(0.0277208 -5.6342 0)
(1.05221 -5.04344 0)
(0.968205 -5.43502 0)
(2.00053 -4.74907 0)
(1.88263 -5.1456 0)
(2.91064 -4.43513 0)
(2.7672 -4.81622 0)
(3.76816 -4.1381 0)
(3.61027 -4.48411 0)
(4.56324 -3.8825 0)
(4.36815 -4.18389 0)
(5.25782 -3.92857 0)
(-0.354076 5.83958 0)
(-0.161481 5.87165 0)
(-0.740576 6.02838 0)
(-0.416225 6.12052 0)
(-1.15231 6.14784 0)
(-0.760353 6.26764 0)
(-1.5922 6.2154 0)
(-1.10909 6.37595 0)
(-2.06109 6.21123 0)
(-1.49396 6.42075 0)
(-2.55699 6.11941 0)
(-1.90927 6.38507 0)
(-3.07414 5.92357 0)
(-2.35292 6.25133 0)
(-3.60226 5.60673 0)
(-2.81814 6.00124 0)
(-4.12562 5.15184 0)
(-3.29321 5.61568 0)
(-4.62214 4.5434 0)
(-3.76087 5.0758 0)
(-5.06301 3.77008 0)
(-4.19766 4.36555 0)
(-5.41302 2.82924 0)
(-4.57175 3.4749 0)
(-5.63214 1.73647 0)
(-4.83685 2.40626 0)
(-5.68116 0.535959 0)
(-4.93306 1.18708 0)
(-5.54342 -0.703031 0)
(-4.81514 -0.116585 0)
(-5.22774 -1.89907 0)
(-4.56442 -1.41617 0)
(-4.76733 -2.98942 0)
(-4.18428 -2.61446 0)
(-4.18218 -3.94013 0)
(-3.68504 -3.67788 0)
(-3.48656 -4.72639 0)
(-3.07983 -4.58166 0)
(-2.69305 -5.32499 0)
(-2.3755 -5.30478 0)
(-1.82843 -5.72458 0)
(-1.59905 -5.81668 0)
(-0.914714 -5.92758 0)
(-0.758354 -6.12434 0)
(0.00860821 -5.94376 0)
(0.098374 -6.22667 0)
(0.912075 -5.80172 0)
(0.952266 -6.14487 0)
(1.79446 -5.545 0)
(1.7897 -5.92199 0)
(2.65202 -5.22078 0)
(2.6101 -5.6077 0)
(3.47012 -4.87192 0)
(3.39852 -5.24664 0)