/*--------------------------------*- C++ -*----------------------------------*\
  =========                 |
  \\      /  F ield         | OpenFOAM: The Open Source CFD Toolbox
   \\    /   O peration     | Website:  https://openfoam.org
    \\  /    A nd           | Version:  7
     \\/     M anipulation  |
\*---------------------------------------------------------------------------*/
FoamFile
{
    version     2.0;
    format      ascii;
    class       volScalarField;
    location    "2.28";
    object      T;
}
// * * * * * * * * * * * * * * * * * * * * * * * * * * * * * * * * * * * * * //

dimensions      [0 0 0 1 0 0 0];

internalField   nonuniform List<scalar> 
12013
(
300.026
300.079
300.135
300.193
300.253
300.315
300.38
300.448
300.519
300.593
300.669
300.749
300.833
300.92
301.011
301.105
301.204
301.307
301.415
301.527
301.645
301.767
301.896
302.03
302.171
302.318
302.472
302.633
302.802
302.98
303.166
303.362
303.568
303.785
304.013
304.254
304.508
304.776
305.06
305.36
305.677
306.014
306.371
306.75
307.153
307.582
308.038
308.524
309.042
309.594
310.184
310.815
311.489
312.21
312.981
313.808
314.693
315.642
316.661
317.754
318.928
320.189
321.545
323.004
324.575
326.267
328.091
330.061
332.189
334.492
336.988
339.699
342.651
345.874
349.408
353.302
357.624
362.467
367.974
374.385
382.158
300.026
300.079
300.135
300.193
300.253
300.315
300.38
300.448
300.519
300.593
300.669
300.749
300.833
300.92
301.011
301.105
301.204
301.307
301.415
301.527
301.645
301.768
301.896
302.03
302.171
302.318
302.472
302.633
302.802
302.98
303.166
303.362
303.568
303.785
304.014
304.254
304.508
304.777
305.06
305.36
305.678
306.014
306.371
306.75
307.153
307.582
308.038
308.524
309.041
309.594
310.184
310.814
311.487
312.208
312.979
313.805
314.689
315.638
316.655
317.747
318.92
320.179
321.533
322.989
324.557
326.245
328.065
330.029
332.15
334.444
336.928
339.625
342.557
345.754
349.252
353.096
357.342
362.064
367.359
373.348
380.137
300.026
300.079
300.135
300.193
300.253
300.315
300.381
300.448
300.519
300.593
300.669
300.749
300.833
300.92
301.011
301.105
301.204
301.307
301.415
301.528
301.645
301.768
301.896
302.031
302.171
302.318
302.472
302.634
302.803
302.981
303.167
303.363
303.569
303.786
304.014
304.255
304.509
304.777
305.061
305.361
305.678
306.015
306.372
306.751
307.154
307.582
308.038
308.523
309.041
309.593
310.182
310.812
311.484
312.204
312.974
313.798
314.682
315.628
316.643
317.732
318.902
320.157
321.506
322.957
324.517
326.197
328.007
329.958
332.063
334.337
336.797
339.461
342.352
345.494
348.918
352.659
356.755
361.254
366.198
371.611
377.452
300.026
300.079
300.135
300.193
300.253
300.315
300.381
300.448
300.519
300.593
300.67
300.75
300.833
300.92
301.011
301.106
301.204
301.308
301.415
301.528
301.645
301.768
301.897
302.031
302.172
302.319
302.473
302.634
302.804
302.981
303.168
303.364
303.57
303.787
304.015
304.256
304.51
304.779
305.062
305.362
305.679
306.016
306.373
306.752
307.154
307.582
308.037
308.522
309.039
309.591
310.179
310.808
311.479
312.197
312.965
313.788
314.668
315.612
316.623
317.708
318.871
320.121
321.462
322.903
324.452
326.118
327.911
329.841
331.921
334.164
336.584
339.197
342.023
345.081
348.393
351.982
355.872
360.08
364.614
369.45
374.515
300.026
300.079
300.135
300.193
300.253
300.315
300.381
300.448
300.519
300.593
300.67
300.75
300.833
300.92
301.011
301.106
301.205
301.308
301.416
301.528
301.646
301.769
301.898
302.032
302.173
302.32
302.474
302.636
302.805
302.983
303.169
303.366
303.572
303.789
304.017
304.258
304.512
304.78
305.064
305.364
305.681
306.017
306.374
306.753
307.155
307.582
308.037
308.521
309.037
309.588
310.175
310.802
311.471
312.187
312.953
313.772
314.648
315.587
316.593
317.671
318.827
320.067
321.397
322.825
324.357
326.003
327.772
329.673
331.716
333.914
336.278
338.822
341.56
344.506
347.673
351.075
354.72
358.608
362.724
367.034
371.468
300.026
300.079
300.135
300.193
300.253
300.315
300.381
300.449
300.519
300.593
300.67
300.75
300.833
300.921
301.011
301.106
301.205
301.309
301.416
301.529
301.647
301.77
301.899
302.033
302.174
302.321
302.476
302.637
302.807
302.985
303.171
303.368
303.574
303.791
304.02
304.26
304.515
304.783
305.066
305.366
305.683
306.019
306.376
306.754
307.155
307.582
308.036
308.52
309.035
309.583
310.169
310.793
311.461
312.173
312.935
313.75
314.621
315.554
316.552
317.621
318.766
319.993
321.308
322.717
324.228
325.847
327.583
329.445
331.441
333.581
335.874
338.331
340.959
343.77
346.768
349.958
353.339
356.9
360.62
364.462
368.372
300.026
300.079
300.135
300.193
300.253
300.316
300.381
300.449
300.519
300.593
300.67
300.75
300.834
300.921
301.012
301.107
301.206
301.309
301.417
301.53
301.648
301.771
301.9
302.035
302.175
302.323
302.477
302.639
302.809
302.987
303.174
303.37
303.577
303.794
304.023
304.264
304.518
304.786
305.069
305.369
305.686
306.022
306.378
306.755
307.156
307.582
308.035
308.517
309.03
309.577
310.16
310.782
311.446
312.154
312.911
313.72
314.584
315.509
316.497
317.555
318.686
319.896
321.191
322.576
324.059
325.645
327.341
329.154
331.091
333.16
335.368
337.72
340.223
342.88
345.693
348.659
351.771
355.014
358.367
361.797
365.263
300.026
300.079
300.135
300.193
300.253
300.316
300.381
300.449
300.52
300.593
300.67
300.751
300.834
300.921
301.013
301.108
301.207
301.31
301.418
301.531
301.649
301.773
301.902
302.036
302.178
302.325
302.48
302.642
302.812
302.99
303.177
303.374
303.58
303.798
304.026
304.267
304.522
304.79
305.073
305.372
305.689
306.025
306.38
306.757
307.157
307.582
308.033
308.514
309.025
309.569
310.149
310.767
311.426
312.13
312.88
313.682
314.537
315.451
316.427
317.469
318.583
319.773
321.043
322.399
323.847
325.392
327.039
328.794
330.662
332.649
334.758
336.994
339.357
341.85
344.468
347.206
350.055
352.998
356.016
359.082
362.165
300.026
300.079
300.135
300.193
300.253
300.316
300.381
300.449
300.52
300.594
300.671
300.751
300.835
300.922
301.013
301.108
301.208
301.311
301.42
301.533
301.651
301.775
301.904
302.039
302.18
302.328
302.483
302.645
302.815
302.994
303.181
303.378
303.585
303.802
304.031
304.272
304.526
304.795
305.078
305.377
305.693
306.028
306.383
306.759
307.158
307.581
308.031
308.509
309.017
309.559
310.135
310.748
311.402
312.098
312.841
313.633
314.478
315.378
316.339
317.363
318.456
319.62
320.861
322.183
323.589
325.086
326.676
328.364
330.154
332.048
334.049
336.158
338.374
340.695
343.117
345.631
348.227
350.891
353.605
356.348
359.097
300.026
300.079
300.135
300.193
300.253
300.316
300.381
300.449
300.52
300.594
300.671
300.751
300.835
300.923
301.014
301.109
301.209
301.313
301.421
301.535
301.653
301.777
301.906
302.042
302.183
302.332
302.487
302.649
302.82
302.999
303.186
303.383
303.59
303.808
304.037
304.278
304.532
304.8
305.083
305.382
305.698
306.032
306.386
306.761
307.158
307.58
308.027
308.503
309.008
309.545
310.116
310.724
311.37
312.059
312.792
313.573
314.404
315.289
316.231
317.234
318.301
319.436
320.642
321.923
323.283
324.724
326.25
327.864
329.567
331.361
333.246
335.222
337.286
339.435
341.663
343.962
346.32
348.727
351.167
353.623
356.077
300.026
300.079
300.135
300.193
300.253
300.316
300.381
300.449
300.52
300.594
300.672
300.752
300.836
300.924
301.015
301.111
301.21
301.315
301.423
301.537
301.656
301.78
301.909
302.045
302.187
302.336
302.491
302.654
302.825
303.004
303.192
303.389
303.597
303.814
304.044
304.285
304.539
304.807
305.09
305.388
305.703
306.037
306.389
306.763
307.158
307.578
308.022
308.494
308.995
309.527
310.093
310.694
311.332
312.011
312.733
313.5
314.315
315.182
316.103
317.08
318.118
319.219
320.386
321.621
322.927
324.307
325.763
327.296
328.906
330.594
332.359
334.2
336.112
338.091
340.131
342.225
344.363
346.534
348.726
350.926
353.12
300.026
300.08
300.135
300.193
300.253
300.316
300.382
300.45
300.521
300.595
300.672
300.753
300.837
300.925
301.017
301.112
301.212
301.317
301.426
301.54
301.659
301.783
301.913
302.049
302.192
302.341
302.497
302.66
302.831
303.011
303.199
303.397
303.604
303.822
304.052
304.293
304.547
304.815
305.097
305.395
305.709
306.042
306.393
306.764
307.158
307.574
308.016
308.484
308.98
309.506
310.064
310.657
311.286
311.953
312.661
313.413
314.21
315.055
315.951
316.9
317.905
318.967
320.09
321.275
322.523
323.837
325.217
326.664
328.177
329.757
331.4
333.105
334.867
336.682
338.544
340.446
342.38
344.336
346.305
348.276
350.239
300.026
300.08
300.135
300.193
300.253
300.316
300.382
300.45
300.521
300.595
300.673
300.754
300.838
300.926
301.018
301.114
301.214
301.319
301.428
301.543
301.662
301.787
301.918
302.054
302.197
302.346
302.503
302.667
302.838
303.018
303.207
303.405
303.613
303.831
304.061
304.302
304.556
304.824
305.105
305.402
305.716
306.047
306.396
306.766
307.157
307.57
308.007
308.47
308.96
309.48
310.03
310.612
311.23
311.884
312.577
313.31
314.086
314.908
315.776
316.693
317.661
318.681
319.756
320.886
322.072
323.316
324.617
325.976
327.39
328.86
330.382
331.953
333.571
335.23
336.924
338.647
340.393
342.155
343.923
345.689
347.447
300.026
300.08
300.135
300.193
300.254
300.316
300.382
300.45
300.522
300.596
300.674
300.755
300.839
300.928
301.02
301.116
301.217
301.322
301.432
301.546
301.666
301.792
301.923
302.06
302.203
302.353
302.51
302.675
302.847
303.027
303.217
303.415
303.623
303.842
304.071
304.313
304.566
304.834
305.115
305.411
305.723
306.053
306.4
306.767
307.154
307.564
307.996
308.453
308.937
309.448
309.989
310.56
311.165
311.804
312.479
313.192
313.945
314.739
315.577
316.459
317.386
318.362
319.385
320.457
321.579
322.75
323.97
325.238
326.554
327.915
329.318
330.761
332.24
333.752
335.289
336.849
338.424
340.008
341.596
343.18
344.755
300.026
300.08
300.135
300.193
300.254
300.317
300.382
300.451
300.522
300.597
300.675
300.756
300.841
300.929
301.022
301.118
301.219
301.325
301.435
301.551
301.671
301.797
301.929
302.066
302.21
302.361
302.519
302.684
302.857
303.038
303.227
303.426
303.635
303.854
304.083
304.325
304.578
304.845
305.125
305.42
305.731
306.058
306.404
306.767
307.151
307.556
307.983
308.433
308.909
309.411
309.94
310.5
311.089
311.711
312.367
313.058
313.785
314.55
315.354
316.198
317.084
318.011
318.98
319.992
321.047
322.144
323.283
324.462
325.68
326.934
328.224
329.544
330.893
332.266
333.66
335.068
336.488
337.913
339.339
340.76
342.172
300.026
300.08
300.135
300.193
300.254
300.317
300.383
300.451
300.523
300.598
300.676
300.757
300.842
300.931
301.024
301.121
301.223
301.329
301.44
301.555
301.677
301.803
301.935
302.074
302.219
302.37
302.528
302.694
302.868
303.049
303.239
303.439
303.648
303.867
304.097
304.338
304.591
304.857
305.137
305.43
305.74
306.065
306.407
306.767
307.146
307.545
307.966
308.409
308.876
309.367
309.885
310.43
311.004
311.607
312.241
312.908
313.607
314.341
315.109
315.914
316.754
317.632
318.546
319.497
320.484
321.507
322.565
323.657
324.78
325.933
327.113
328.318
329.545
330.791
332.051
333.323
334.601
335.883
337.164
338.439
339.706
300.026
300.08
300.135
300.193
300.254
300.317
300.383
300.452
300.524
300.599
300.677
300.759
300.844
300.933
301.027
301.124
301.226
301.333
301.444
301.561
301.683
301.81
301.943
302.082
302.228
302.38
302.539
302.706
302.88
303.062
303.253
303.453
303.662
303.882
304.112
304.353
304.606
304.871
305.149
305.441
305.748
306.071
306.41
306.766
307.14
307.533
307.947
308.381
308.838
309.318
309.822
310.352
310.908
311.491
312.102
312.742
313.413
314.113
314.845
315.608
316.403
317.229
318.088
318.977
319.898
320.848
321.827
322.833
323.866
324.922
326
327.097
328.211
329.339
330.478
331.625
332.777
333.93
335.08
336.226
337.363
300.026
300.08
300.135
300.194
300.254
300.317
300.383
300.452
300.524
300.6
300.678
300.76
300.846
300.936
301.03
301.128
301.23
301.338
301.45
301.567
301.69
301.818
301.952
302.092
302.238
302.391
302.552
302.719
302.894
303.077
303.269
303.469
303.679
303.898
304.128
304.369
304.621
304.886
305.163
305.453
305.758
306.077
306.412
306.763
307.132
307.519
307.924
308.349
308.795
309.263
309.753
310.266
310.802
311.364
311.951
312.564
313.203
313.87
314.563
315.284
316.033
316.809
317.611
318.44
319.295
320.174
321.078
322.003
322.949
323.915
324.897
325.895
326.905
327.926
328.954
329.989
331.026
332.063
333.098
334.127
335.15
300.026
300.08
300.136
300.194
300.254
300.318
300.384
300.453
300.525
300.601
300.68
300.762
300.848
300.939
301.033
301.132
301.235
301.343
301.456
301.574
301.697
301.827
301.961
302.103
302.25
302.404
302.565
302.733
302.909
303.093
303.286
303.487
303.697
303.917
304.147
304.387
304.639
304.902
305.177
305.466
305.768
306.083
306.414
306.76
307.123
307.502
307.899
308.314
308.748
309.202
309.676
310.172
310.689
311.228
311.789
312.374
312.982
313.614
314.269
314.948
315.65
316.375
317.123
317.893
318.685
319.496
320.327
321.176
322.042
322.923
323.817
324.723
325.638
326.561
327.49
328.423
329.357
330.291
331.222
332.149
333.068
300.026
300.08
300.136
300.194
300.255
300.318
300.384
300.454
300.526
300.602
300.681
300.764
300.851
300.941
301.036
301.136
301.24
301.349
301.463
301.582
301.706
301.836
301.972
302.114
302.263
302.418
302.58
302.75
302.927
303.111
303.304
303.506
303.717
303.937
304.166
304.407
304.657
304.919
305.193
305.479
305.778
306.09
306.416
306.756
307.112
307.483
307.871
308.275
308.697
309.137
309.595
310.072
310.568
311.084
311.62
312.176
312.752
313.349
313.966
314.603
315.259
315.936
316.631
317.344
318.075
318.823
319.586
320.364
321.154
321.957
322.77
323.592
324.421
325.256
326.095
326.936
327.779
328.62
329.458
330.293
331.121
300.026
300.08
300.136
300.194
300.255
300.318
300.385
300.454
300.527
300.603
300.683
300.766
300.853
300.945
301.04
301.141
301.245
301.355
301.47
301.59
301.715
301.847
301.984
302.127
302.277
302.433
302.597
302.767
302.945
303.131
303.325
303.527
303.738
303.958
304.188
304.428
304.677
304.938
305.21
305.493
305.789
306.097
306.418
306.752
307.1
307.463
307.841
308.234
308.643
309.068
309.509
309.967
310.442
310.935
311.444
311.972
312.516
313.079
313.658
314.254
314.867
315.496
316.141
316.801
317.475
318.162
318.862
319.574
320.296
321.027
321.766
322.511
323.263
324.018
324.776
325.536
326.296
327.054
327.81
328.562
329.309
300.026
300.08
300.136
300.194
300.255
300.319
300.385
300.455
300.528
300.604
300.684
300.768
300.856
300.948
301.045
301.146
301.251
301.362
301.478
301.599
301.726
301.858
301.997
302.141
302.292
302.45
302.615
302.786
302.965
303.152
303.347
303.55
303.761
303.982
304.211
304.45
304.699
304.958
305.228
305.508
305.8
306.104
306.419
306.747
307.088
307.442
307.81
308.191
308.586
308.996
309.42
309.859
310.313
310.782
311.266
311.765
312.279
312.808
313.351
313.908
314.48
315.064
315.661
316.271
316.891
317.523
318.165
318.815
319.474
320.139
320.811
321.488
322.169
322.853
323.539
324.225
324.911
325.596
326.279
326.958
327.632
300.026
300.08
300.136
300.194
300.255
300.319
300.386
300.456
300.529
300.606
300.686
300.771
300.859
300.952
301.049
301.151
301.258
301.369
301.486
301.609
301.737
301.87
302.01
302.156
302.309
302.468
302.634
302.807
302.987
303.175
303.371
303.574
303.786
304.006
304.236
304.474
304.722
304.979
305.247
305.524
305.812
306.111
306.421
306.743
307.076
307.421
307.778
308.147
308.529
308.924
309.331
309.751
310.184
310.63
311.089
311.561
312.045
312.541
313.05
313.57
314.102
314.644
315.197
315.76
316.331
316.912
317.5
318.095
318.696
319.303
319.914
320.529
321.147
321.767
322.388
323.009
323.63
324.249
324.866
325.479
326.089
300.026
300.08
300.136
300.194
300.255
300.319
300.386
300.456
300.53
300.607
300.688
300.773
300.862
300.955
301.054
301.156
301.264
301.377
301.495
301.619
301.748
301.884
302.025
302.172
302.326
302.487
302.654
302.829
303.01
303.199
303.396
303.6
303.812
304.033
304.262
304.5
304.746
305.002
305.267
305.541
305.825
306.12
306.424
306.739
307.064
307.4
307.746
308.104
308.472
308.852
309.243
309.645
310.057
310.481
310.916
311.361
311.817
312.283
312.759
313.244
313.739
314.242
314.754
315.274
315.8
316.334
316.873
317.418
317.967
318.521
319.078
319.637
320.199
320.761
321.325
321.888
322.45
323.01
323.569
324.124
324.677
300.026
300.08
300.136
300.194
300.255
300.319
300.386
300.457
300.531
300.608
300.69
300.775
300.865
300.959
301.058
301.162
301.271
301.385
301.505
301.63
301.761
301.897
302.04
302.189
302.345
302.507
302.676
302.852
303.034
303.225
303.422
303.627
303.84
304.061
304.289
304.526
304.772
305.026
305.288
305.56
305.84
306.129
306.428
306.736
307.053
307.38
307.716
308.062
308.418
308.783
309.157
309.542
309.935
310.338
310.749
311.17
311.599
312.036
312.482
312.935
313.396
313.864
314.338
314.818
315.304
315.795
316.29
316.789
317.292
317.798
318.306
318.816
319.327
319.839
320.351
320.862
321.372
321.881
322.387
322.891
323.392
300.026
300.08
300.136
300.194
300.255
300.319
300.386
300.457
300.531
300.609
300.691
300.777
300.868
300.963
301.063
301.168
301.278
301.393
301.514
301.641
301.773
301.911
302.056
302.207
302.364
302.528
302.698
302.875
303.06
303.251
303.45
303.655
303.869
304.09
304.318
304.554
304.799
305.051
305.311
305.579
305.856
306.14
306.433
306.735
307.044
307.362
307.689
308.023
308.366
308.718
309.077
309.444
309.819
310.202
310.592
310.99
311.394
311.805
312.223
312.647
313.076
313.511
313.951
314.396
314.844
315.297
315.753
316.212
316.673
317.136
317.601
318.066
318.533
318.999
319.465
319.93
320.394
320.856
321.316
321.774
322.228
300.026
300.08
300.135
300.194
300.255
300.319
300.386
300.457
300.532
300.61
300.693
300.779
300.871
300.967
301.068
301.174
301.285
301.402
301.524
301.652
301.786
301.926
302.072
302.225
302.384
302.549
302.721
302.9
303.086
303.278
303.478
303.685
303.898
304.119
304.348
304.583
304.826
305.077
305.334
305.6
305.872
306.153
306.44
306.735
307.038
307.347
307.664
307.988
308.32
308.658
309.003
309.354
309.712
310.076
310.447
310.823
311.205
311.592
311.984
312.381
312.782
313.188
313.597
314.009
314.425
314.843
315.264
315.686
316.11
316.535
316.961
317.388
317.814
318.24
318.665
319.089
319.512
319.933
320.352
320.769
321.182
300.026
300.079
300.135
300.193
300.254
300.319
300.386
300.457
300.532
300.611
300.694
300.781
300.873
300.97
301.072
301.179
301.292
301.41
301.534
301.663
301.799
301.94
302.088
302.243
302.403
302.571
302.744
302.925
303.112
303.306
303.506
303.714
303.928
304.15
304.378
304.613
304.855
305.103
305.359
305.621
305.891
306.166
306.449
306.738
307.033
307.335
307.643
307.957
308.278
308.604
308.935
309.272
309.615
309.962
310.314
310.671
311.032
311.397
311.766
312.139
312.515
312.894
313.275
313.659
314.045
314.433
314.822
315.212
315.603
315.994
316.386
316.777
317.168
317.559
317.948
318.335
318.722
319.106
319.488
319.868
320.245
300.026
300.079
300.135
300.193
300.254
300.318
300.386
300.457
300.532
300.611
300.695
300.783
300.875
300.973
301.076
301.184
301.298
301.418
301.543
301.674
301.811
301.955
302.104
302.26
302.423
302.592
302.767
302.949
303.138
303.333
303.535
303.743
303.958
304.18
304.408
304.642
304.883
305.131
305.384
305.644
305.91
306.181
306.459
306.743
307.032
307.326
307.626
307.931
308.241
308.556
308.875
309.199
309.527
309.859
310.195
310.534
310.876
311.222
311.57
311.921
312.274
312.629
312.986
313.345
313.704
314.065
314.426
314.787
315.149
315.51
315.871
316.232
316.592
316.95
317.307
317.663
318.016
318.368
318.717
319.064
319.409
300.026
300.079
300.134
300.192
300.253
300.317
300.385
300.456
300.531
300.611
300.695
300.783
300.877
300.976
301.08
301.189
301.304
301.425
301.551
301.684
301.823
301.968
302.12
302.278
302.442
302.612
302.79
302.973
303.163
303.36
303.563
303.772
303.988
304.209
304.437
304.671
304.911
305.157
305.409
305.666
305.929
306.197
306.47
306.748
307.031
307.319
307.612
307.908
308.209
308.513
308.822
309.133
309.448
309.767
310.087
310.411
310.737
311.065
311.394
311.726
312.059
312.393
312.728
313.063
313.399
313.735
314.072
314.408
314.743
315.078
315.412
315.745
316.077
316.407
316.736
317.063
317.387
317.71
318.03
318.348
318.663
300.026
300.078
300.133
300.191
300.252
300.316
300.383
300.455
300.53
300.61
300.695
300.784
300.878
300.977
301.082
301.193
301.309
301.431
301.559
301.693
301.834
301.981
302.134
302.294
302.459
302.632
302.811
302.996
303.187
303.385
303.589
303.799
304.015
304.237
304.465
304.699
304.938
305.183
305.433
305.687
305.947
306.212
306.481
306.754
307.032
307.314
307.599
307.888
308.18
308.475
308.774
309.074
309.378
309.683
309.991
310.3
310.611
310.923
311.236
311.55
311.865
312.18
312.495
312.81
313.126
313.44
313.754
314.068
314.38
314.692
315.002
315.31
315.617
315.922
316.225
316.527
316.825
317.122
317.416
317.708
317.997
300.026
300.078
300.132
300.19
300.25
300.314
300.382
300.453
300.529
300.609
300.694
300.783
300.878
300.978
301.084
301.196
301.313
301.436
301.566
301.702
301.844
301.992
302.147
302.308
302.476
302.65
302.83
303.016
303.209
303.408
303.613
303.824
304.041
304.263
304.491
304.724
304.963
305.206
305.454
305.707
305.964
306.225
306.49
306.759
307.032
307.308
307.587
307.868
308.153
308.439
308.728
309.019
309.312
309.606
309.901
310.198
310.495
310.793
311.091
311.389
311.687
311.986
312.283
312.58
312.877
313.172
313.467
313.76
314.052
314.342
314.63
314.917
315.202
315.484
315.765
316.043
316.319
316.592
316.863
317.131
317.396
300.025
300.077
300.131
300.188
300.249
300.312
300.38
300.451
300.527
300.607
300.692
300.782
300.877
300.978
301.085
301.197
301.316
301.44
301.571
301.708
301.852
302.002
302.158
302.321
302.49
302.665
302.847
303.035
303.229
303.429
303.635
303.846
304.063
304.286
304.513
304.746
304.983
305.225
305.472
305.722
305.977
306.235
306.496
306.761
307.029
307.299
307.572
307.847
308.124
308.403
308.683
308.965
309.247
309.531
309.815
310.1
310.384
310.669
310.953
311.237
311.521
311.804
312.085
312.366
312.645
312.924
313.2
313.475
313.748
314.019
314.288
314.555
314.82
315.082
315.342
315.599
315.854
316.106
316.356
316.603
316.847
300.025
300.076
300.13
300.187
300.247
300.31
300.377
300.448
300.524
300.604
300.689
300.78
300.876
300.977
301.085
301.198
301.317
301.443
301.575
301.713
301.858
302.009
302.167
302.331
302.502
302.678
302.861
303.05
303.245
303.446
303.653
303.865
304.082
304.304
304.532
304.764
305
305.241
305.485
305.733
305.985
306.24
306.497
306.758
307.021
307.286
307.553
307.821
308.091
308.362
308.634
308.907
309.181
309.454
309.728
310.001
310.274
310.546
310.818
311.089
311.358
311.627
311.894
312.159
312.423
312.685
312.945
313.203
313.459
313.713
313.964
314.213
314.459
314.703
314.944
315.183
315.418
315.652
315.882
316.109
316.334
300.025
300.076
300.129
300.185
300.244
300.307
300.374
300.445
300.521
300.601
300.686
300.777
300.873
300.975
301.083
301.197
301.318
301.444
301.577
301.717
301.863
302.015
302.174
302.339
302.511
302.689
302.873
303.063
303.259
303.46
303.667
303.88
304.097
304.319
304.546
304.776
305.012
305.25
305.493
305.738
305.987
306.238
306.492
306.748
307.006
307.266
307.527
307.789
308.052
308.315
308.579
308.843
309.107
309.371
309.634
309.897
310.159
310.419
310.679
310.937
311.194
311.448
311.702
311.953
312.202
312.449
312.693
312.936
313.176
313.413
313.648
313.88
314.11
314.336
314.56
314.782
315
315.215
315.428
315.638
315.844
300.024
300.075
300.127
300.183
300.242
300.304
300.371
300.442
300.517
300.597
300.683
300.774
300.87
300.973
301.081
301.196
301.317
301.445
301.579
301.719
301.866
302.02
302.18
302.346
302.519
302.698
302.882
303.073
303.27
303.471
303.679
303.891
304.108
304.329
304.555
304.785
305.018
305.255
305.495
305.738
305.983
306.231
306.48
306.732
306.984
307.238
307.493
307.749
308.004
308.26
308.516
308.771
309.026
309.28
309.533
309.785
310.036
310.285
310.532
310.778
311.022
311.264
311.504
311.741
311.976
312.209
312.439
312.667
312.892
313.114
313.333
313.55
313.764
313.975
314.183
314.388
314.59
314.789
314.986
315.179
315.37
300.024
300.074
300.126
300.181
300.239
300.301
300.368
300.438
300.513
300.594
300.679
300.77
300.867
300.97
301.079
301.194
301.316
301.445
301.579
301.721
301.869
302.023
302.184
302.352
302.525
302.705
302.89
303.082
303.279
303.481
303.688
303.9
304.116
304.337
304.562
304.79
305.022
305.256
305.493
305.733
305.974
306.218
306.463
306.709
306.956
307.203
307.452
307.7
307.948
308.196
308.443
308.689
308.935
309.179
309.422
309.663
309.903
310.141
310.377
310.611
310.842
311.072
311.299
311.523
311.745
311.964
312.181
312.394
312.605
312.813
313.019
313.221
313.42
313.617
313.81
314
314.188
314.372
314.554
314.733
314.908
300.024
300.073
300.124
300.179
300.237
300.299
300.364
300.435
300.51
300.59
300.676
300.767
300.864
300.968
301.077
301.193
301.316
301.445
301.58
301.723
301.872
302.027
302.189
302.357
302.532
302.713
302.899
303.091
303.288
303.491
303.698
303.909
304.125
304.345
304.568
304.794
305.023
305.255
305.488
305.724
305.962
306.201
306.44
306.681
306.922
307.163
307.405
307.645
307.886
308.126
308.364
308.602
308.838
309.073
309.306
309.537
309.766
309.993
310.218
310.44
310.66
310.877
311.092
311.304
311.514
311.72
311.924
312.125
312.323
312.518
312.71
312.899
313.085
313.268
313.448
313.625
313.799
313.97
314.138
314.303
314.465
300.024
300.072
300.123
300.177
300.235
300.296
300.362
300.432
300.507
300.587
300.673
300.765
300.862
300.966
301.076
301.193
301.316
301.446
301.582
301.726
301.876
302.033
302.196
302.365
302.541
302.723
302.91
303.102
303.3
303.502
303.709
303.92
304.134
304.353
304.574
304.798
305.025
305.254
305.485
305.717
305.95
306.185
306.42
306.655
306.891
307.126
307.36
307.595
307.828
308.06
308.29
308.52
308.747
308.973
309.196
309.418
309.637
309.854
310.068
310.28
310.49
310.696
310.9
311.101
311.299
311.494
311.686
311.875
312.061
312.244
312.424
312.601
312.775
312.946
313.114
313.278
313.44
313.599
313.755
313.908
314.058
300.023
300.072
300.122
300.176
300.233
300.295
300.36
300.43
300.505
300.585
300.671
300.763
300.861
300.965
301.076
301.193
301.318
301.448
301.586
301.731
301.882
302.04
302.205
302.376
302.552
302.735
302.922
303.115
303.313
303.516
303.722
303.933
304.147
304.364
304.585
304.807
305.032
305.259
305.487
305.717
305.947
306.178
306.409
306.64
306.871
307.101
307.33
307.558
307.786
308.011
308.235
308.457
308.678
308.896
309.112
309.325
309.536
309.745
309.95
310.153
310.354
310.551
310.745
310.937
311.125
311.311
311.493
311.672
311.849
312.022
312.192
312.359
312.522
312.683
312.841
312.996
313.148
313.296
313.442
313.585
313.725
300.023
300.071
300.122
300.175
300.233
300.294
300.359
300.429
300.504
300.585
300.671
300.763
300.861
300.966
301.077
301.195
301.32
301.452
301.59
301.736
301.889
302.048
302.213
302.385
302.563
302.746
302.934
303.128
303.327
303.53
303.737
303.948
304.162
304.379
304.599
304.821
305.046
305.272
305.499
305.727
305.956
306.185
306.414
306.643
306.871
307.098
307.325
307.55
307.773
307.995
308.215
308.433
308.649
308.863
309.074
309.283
309.489
309.692
309.892
310.09
310.284
310.476
310.664
310.85
311.032
311.212
311.388
311.561
311.731
311.897
312.061
312.222
312.379
312.533
312.685
312.833
312.978
313.121
313.26
313.396
313.53
392.462
400.515
407.279
413.164
418.373
423.014
427.151
430.817
434.026
436.78
439.066
440.863
442.135
442.835
442.896
442.229
440.705
438.129
434.175
428.186
418.521
411.873
406.698
402.393
398.669
395.362
392.371
389.627
387.079
384.693
382.438
380.295
378.246
376.276
374.374
372.531
370.739
368.991
367.283
365.609
363.966
362.351
360.76
359.192
357.643
356.112
354.598
353.098
351.612
350.139
348.678
347.229
345.793
344.369
342.96
341.564
340.185
338.822
337.478
336.155
334.853
333.575
332.322
331.097
329.899
328.733
327.597
326.494
325.425
324.391
323.392
322.429
321.501
320.61
319.755
318.935
318.151
317.402
316.686
316.004
315.353
314.733
314.144
313.582
313.049
312.541
312.057
311.598
311.16
310.743
310.346
309.967
309.605
309.259
308.928
308.611
308.306
308.014
307.733
307.462
307.201
306.949
306.705
306.469
306.24
306.018
305.803
305.593
305.389
305.191
304.998
304.809
304.626
304.447
304.272
304.102
303.936
303.774
303.616
303.462
303.312
303.166
303.024
302.885
302.751
302.62
302.493
302.37
302.251
302.135
302.023
301.915
301.81
301.709
301.612
301.518
301.428
301.342
301.259
301.179
301.103
301.031
300.962
300.896
300.833
300.773
300.717
300.663
300.613
300.565
300.52
300.478
300.438
300.401
300.367
300.334
300.304
300.276
300.25
300.225
300.203
387.706
394.721
401.02
406.665
411.736
416.292
420.375
424.007
427.197
429.942
432.23
434.036
435.327
436.056
436.162
435.562
434.145
431.756
428.181
423.156
416.64
410.96
406.161
402.037
398.415
395.172
392.224
389.51
386.985
384.615
382.374
380.241
378.2
376.236
374.34
372.501
370.713
368.969
367.263
365.591
363.951
362.337
360.748
359.18
357.633
356.103
354.589
353.09
351.604
350.131
348.671
347.222
345.786
344.363
342.953
341.557
340.178
338.815
337.471
336.147
334.845
333.567
332.314
331.088
329.891
328.724
327.589
326.486
325.417
324.383
323.384
322.421
321.494
320.603
319.748
318.929
318.145
317.396
316.68
315.998
315.348
314.729
314.139
313.578
313.045
312.537
312.054
311.595
311.157
310.741
310.344
309.965
309.603
309.257
308.926
308.609
308.305
308.013
307.732
307.462
307.201
306.949
306.705
306.469
306.24
306.018
305.803
305.593
305.389
305.191
304.998
304.809
304.626
304.447
304.272
304.102
303.936
303.774
303.616
303.462
303.312
303.166
303.024
302.886
302.751
302.62
302.493
302.37
302.251
302.135
302.023
301.915
301.81
301.709
301.612
301.518
301.428
301.342
301.259
301.18
301.104
301.031
300.962
300.896
300.833
300.773
300.717
300.664
300.613
300.565
300.52
300.478
300.439
300.401
300.367
300.334
300.304
300.276
300.25
300.225
300.203
383.591
389.613
395.286
400.533
405.343
409.725
413.69
417.242
420.382
423.1
425.38
427.198
428.522
429.307
429.499
429.03
427.815
425.752
422.74
418.736
413.962
409.316
405.085
401.288
397.867
394.756
391.899
389.251
386.776
384.444
382.232
380.122
378.099
376.151
374.267
372.438
370.658
368.921
367.221
365.554
363.917
362.307
360.721
359.156
357.611
356.083
354.57
353.072
351.588
350.116
348.656
347.208
345.771
344.348
342.938
341.542
340.162
338.799
337.455
336.131
334.829
333.55
332.297
331.071
329.874
328.707
327.572
326.469
325.401
324.367
323.368
322.405