/*--------------------------------*- C++ -*----------------------------------*\
  =========                 |
  \\      /  F ield         | OpenFOAM: The Open Source CFD Toolbox
   \\    /   O peration     | Website:  https://openfoam.org
    \\  /    A nd           | Version:  7
     \\/     M anipulation  |
\*---------------------------------------------------------------------------*/
FoamFile
{
    version     2.0;
    format      ascii;
    class       volScalarField;
    location    "2.8";
    object      p;
}
// * * * * * * * * * * * * * * * * * * * * * * * * * * * * * * * * * * * * * //

dimensions      [0 2 -2 0 0 0 0];

internalField   nonuniform List<scalar> 
2790
(
147.67
147.578
147.845
148.416
149.196
150.154
151.286
152.593
154.069
155.71
157.51
159.461
161.554
163.779
166.12
168.555
171.059
173.598
176.129
178.603
180.961
183.139
185.069
186.689
187.949
188.823
189.259
189.314
189.365
189.577
147.468
147.485
147.778
148.346
149.122
150.076
151.204
152.505
153.974
155.607
157.397
159.338
161.42
163.634
165.964
168.389
170.885
173.418
175.948
178.425
180.793
182.988
184.943
186.591
187.875
188.749
189.146
189.201
189.333
189.618
147.269
147.356
147.668
148.226
148.989
149.93
151.043
152.326
153.774
155.382
157.144
159.053
161.101
163.277
165.565
167.947
170.399
172.889
175.381
177.828
180.177
182.37
184.342
186.031
187.382
188.358
188.951
189.306
189.621
189.92
147.044
147.162
147.486
148.035
148.784
149.709
150.803
152.061
153.48
155.055
156.778
158.644
160.642
162.763
164.991
167.309
169.693
172.116
174.543
176.933
179.24
181.411
183.393
185.132
186.586
187.738
188.606
189.277
189.829
190.348
146.783
146.916
147.248
147.79
148.522
149.426
150.493
151.721
153.103
154.634
156.308
158.117
160.053
162.104
164.255
166.491
168.789
171.123
173.465
175.778
178.023
180.157
182.139
183.93
185.5
186.842
187.972
188.934
189.745
190.492
146.482
146.62
146.955
147.487
148.199
149.077
150.113
151.302
152.64
154.12
155.735
157.477
159.338
161.306
163.367
165.505
167.7
169.929
172.165
174.38
176.543
178.62
180.581
182.402
184.065
185.566
186.912
188.118
189.138
190.056
146.14
146.279
146.61
147.129
147.818
148.666
149.666
150.811
152.097
153.517
155.064
156.73
158.505
160.377
162.335
164.36
166.436
168.542
170.654
172.75
174.805
176.795
178.703
180.513
182.218
183.819
185.312
186.691
187.856
188.902
145.755
145.892
146.216
146.719
147.382
148.196
149.154
150.249
151.477
152.83
154.301
155.88
157.559
159.325
161.165
163.064
165.005
166.969
168.936
170.888
172.805
174.672
176.479
178.221
179.899
181.517
183.072
184.544
185.794
186.944
145.329
145.462
145.776
146.259
146.893
147.669
148.581
149.621
150.785
152.064
153.45
154.935
156.507
158.155
159.866
161.624
163.414
165.217
167.016
168.795
170.538
172.236
173.883
175.483
177.044
178.579
180.087
181.557
182.828
184.066
144.862
144.99
145.291
145.751
146.354
147.089
147.95
148.931
150.025
151.223
152.518
153.9
155.357
156.877
158.447
160.05
161.672
163.294
164.9
166.473
168.001
169.475
170.893
172.26
173.592
174.911
176.23
177.568
178.768
180.072
144.357
144.478
144.764
145.199
145.767
146.458
147.265
148.182
149.201
150.314
151.511
152.783
154.116
155.499
156.917
158.353
159.79
161.211
162.598
163.932
165.2
166.389
167.496
168.523
169.487
170.415
171.344
172.342
173.304
174.622
143.814
143.929
144.197
144.606
145.137
145.781
146.53
147.38
148.32
149.342
150.437
151.592
152.795
154.032
155.287
156.544
157.782
158.983
160.125
161.187
162.148
162.991
163.698
164.264
164.689
164.998
165.24
165.547
165.927
167.1
143.237
143.344
143.594
143.974
144.466
145.06
145.75
146.528
147.386
148.314
149.301
150.334
151.401
152.486
153.571
154.638
155.665
156.629
157.504
158.263
158.876
159.31
159.532
159.506
159.202
158.604
157.727
156.733
155.783
156.287
142.628
142.727
142.957
143.306
143.757
144.3
144.928
145.633
146.406
147.236
148.112
149.02
149.946
150.873
151.781
152.651
153.456
154.17
154.762
155.194
155.424
155.401
155.062
154.33
153.106
151.276
148.711
145.407
141.454
139.414
141.989
142.079
142.289
142.606
143.015
143.506
144.07
144.7
145.385
146.115
146.877
147.657
148.439
149.205
149.933
150.6
151.178
151.634
151.931
152.022
151.849
151.339
150.394
148.879
146.6
143.267
138.422
131.401
120.929
108.689
2.43599
2.40389
2.2967
2.14601
1.98235
1.81997
1.66373
1.51517
1.37474
1.24232
1.11764
1.00048
0.890753
0.788345
0.693532
0.608
0.535547
0.480322
0.442847
0.419705
0.406281
0.400465
0.400192
0.399013
0.388489
0.362655
0.318361
0.254588
0.171392
0.0724159
2.35459
2.31757
2.21743
2.07884
1.92726
1.77514
1.62734
1.48564
1.35066
1.22245
1.10097
0.986307
0.878526
0.777433
0.682976
0.596834
0.523693
0.469196
0.435013
0.415259
0.404386
0.399825
0.401647
0.40285
0.394482
0.369213
0.324317
0.259165
0.173361
0.068783
2.27189
2.22819
2.13234
2.00424
1.86464
1.72327
1.58457
1.45044
1.32157
1.19813
1.08032
0.968567
0.863246
0.764051
0.670377
0.583787
0.510401
0.457573
0.425516
0.404571
0.392702
0.394144
0.40226
0.408136
0.401731
0.377476
0.333517
0.268176
0.180759
0.069418
2.2005
2.15021
2.05679
1.93651
1.80685
1.67476
1.54416
1.41693
1.29372
1.17474
1.06036
0.951352
0.848576
0.751844
0.659554
0.57139
0.494073
0.442584
0.420578
0.40924
0.398009
0.395439
0.40426
0.412037
0.40649
0.379827
0.332657
0.267175
0.178772
0.0671347
2.16405
2.10721
2.01607
1.9005
1.77694
1.65039
1.52465
1.40155
1.28175
1.16549
1.05313
0.945553
0.843974
0.748944
0.660413
0.578141
0.506782
0.450663
0.416895
0.404053
0.399241
0.400501
0.409507
0.416395
0.409978
0.383247
0.335417
0.265567
0.175036
0.0630814
2.18062
2.11489
2.02449
1.90837
1.78462
1.65772
1.53171
1.40852
1.28891
1.17316
1.06154
0.954639
0.853278
0.758027
0.669588
0.589619
0.521116
0.468984
0.435074
0.416117
0.407682
0.407456
0.413026
0.415917
0.406214
0.377098
0.326754
0.25674
0.165981
0.0572007
2.25677
2.18128
2.08262
1.95894
1.82694
1.69292
1.56096
1.433
1.30979
1.19161
1.07869
0.971345
0.870082
0.775331
0.687476
0.607461
0.538726
0.486093
0.450449
0.428526
0.416967
0.413299
0.413944
0.411627
0.397896
0.366418
0.314684
0.243377
0.153412
0.0513812
2.38719
2.29365
2.17571
2.03492
1.88725
1.74004
1.5976
1.46183
1.33312
1.21132
1.09631
0.987942
0.886181
0.791448
0.704136
0.625507
0.558103
0.504697
0.466221
0.44069
0.425301
0.417226
0.412435
0.404583
0.386473
0.352269
0.299004
0.226795
0.13862
0.0456327
2.54015
2.41835
2.27116
2.10695
1.94129
1.78055
1.62752
1.48379
1.34974
1.22474
1.10795
0.999045
0.897894
0.804268
0.718395
0.641269
0.57475
0.520699
0.47979
0.450831
0.431527
0.418906
0.408852
0.395784
0.373529
0.336682
0.281838
0.208749
0.123104
0.0399802
2.66758
2.5126
2.34259
2.15597
1.97186
1.79864
1.63863
1.49121
1.35526
1.22955
1.11289
1.00459
0.904496
0.812454
0.728461
0.652995
0.587238
0.532568
0.489657
0.45781
0.435053
0.418361
0.403678
0.386059
0.360185
0.320967
0.264541
0.190584
0.107818
0.0345386
2.75702
2.57084
2.37248
2.16837
1.97273
1.79192
1.62774
1.47916
1.34419
1.22066
1.10657
1.00082
0.903308
0.814065
0.732855
0.659539
0.594707
0.539566
0.495084
0.461042
0.435659
0.415796
0.397428
0.37613
0.347316
0.306133
0.248177
0.173266
0.0932775
0.0294093
2.77121
2.55259
2.32916
2.11239
1.91565
1.73994
1.58277
1.44123
1.31325
1.19645
1.08812
0.986961
0.893483
0.808361
0.731089
0.660636
0.59697
0.541454
0.495757
0.460287
0.433357
0.411515
0.390592
0.36656
0.335535
0.292904
0.233556
0.157556
0.0798566
0.0246829
2.62314
2.36689
2.15322
1.96017
1.78883
1.63754
1.50146
1.37635
1.262
1.1572
1.05823
0.963469
0.875066
0.795328
0.723425
0.656753
0.594406
0.538339
0.491558
0.455447
0.428279
0.405902
0.383676
0.357849
0.325272
0.281697
0.221423
0.144157
0.0679059
0.0204474
2.20766
1.92685
1.79973
1.69781
1.5888
1.48631
1.38832
1.28853
1.19309
1.10555
1.01965
0.932172
0.848745
0.775384
0.710765
0.649102
0.58795
0.530586
0.482447
0.446465
0.420654
0.399457
0.377249
0.350474
0.316887
0.272844
0.212148
0.133706
0.0578996
0.0167955
1.3603
1.06906
1.20766
1.33849
1.32953
1.29927
1.25813
1.18739
1.11013
1.04513
0.977135
0.896311
0.815424
0.748825
0.694434
0.639615
0.578947
0.51853
0.468081
0.433
0.410597
0.392682
0.371849
0.344787
0.310542
0.266457
0.206031
0.126928
0.0506843
0.0139315
141.31
141.39
141.579
141.864
142.229
142.664
143.162
143.714
144.309
144.936
145.582
146.23
146.864
147.464
148.007
148.466
148.81
149.002
148.997
148.737
148.151
147.143
145.58
143.267
139.905
134.999
127.627
115.871
93.6901
33.7968
140.582
140.654
140.82
141.07
141.389
141.767
142.196
142.667
143.169
143.69
144.214
144.727
145.209
145.639
145.993
146.24
146.347
146.271
145.961
145.352
144.36
142.871
140.727
137.696
133.42
127.316
118.351
104.79
85.2752
56.8609
139.813
139.874
140.017
140.231
140.502
140.822
141.18
141.569
141.975
142.387
142.789
143.164
143.492
143.751
143.915
143.951
143.822
143.483
142.878
141.937
140.567
138.65
136.019
132.446
127.606
121.043
112.171
100.355
86.1551
69.6116
139.002
139.053
139.172
139.349
139.572
139.831
140.118
140.422
140.732
141.034
141.313
141.55
141.725
141.814
141.79
141.619
141.263
140.673
139.792
138.548
136.848
134.577
131.583
127.668
122.588
116.05
107.759
97.3883
84.8783
69.7954
138.152
138.193
138.287
138.427
138.601
138.799
139.013
139.233
139.446
139.638
139.794
139.895
139.919
139.843
139.637
139.268
138.696
137.874
136.744
135.236
133.263
130.721
127.48
123.384
118.254
111.891
104.096
94.6288
83.3228
70.3866
137.265
137.295
137.365
137.467
137.591
137.729
137.871
138.006
138.123
138.207
138.242
138.209
138.087
137.851
137.473
136.918
136.148
135.117
133.769
132.041
129.854
127.119
123.73
119.569
114.506
108.407
101.151
92.6386
82.8625
72.2358
136.344
136.364
136.409
136.473
136.548
136.625
136.695
136.747
136.769
136.747
136.665
136.503
136.242
135.855
135.315
134.59
133.642
132.428
130.897
128.993
126.648
123.79
120.336
116.199
111.294
105.54
98.8849
91.3179
82.8831
73.9157
135.391
135.401
135.422
135.449
135.475
135.492
135.491
135.462
135.392
135.268
135.073
134.789
134.395
133.868
133.18
132.302
131.198
129.828
128.149
126.112
123.661
120.74
117.286
113.241
108.553
103.181
97.1109
90.3649
82.9922
75.2643
134.412
134.411
134.407
134.398
134.376
134.335
134.265
134.157
133.999
133.777
133.475
133.076
132.56
131.904
131.084
130.07
128.833
127.336
125.543
123.411
120.899
117.963
114.56
110.652
106.21
101.22
95.6881
89.6486
83.1549
76.4339
133.408
133.397
133.371
133.325
133.257
133.159
133.024
132.841
132.598
132.283
131.882
131.376
130.748
129.977
129.039
127.91
126.561
124.964
123.086
120.896
118.36
115.447
112.13
108.385
104.201
99.5786
94.5357
89.1115
83.3589
77.4623
132.386
132.365
132.316
132.236
132.123
131.972
131.773
131.519
131.197
130.796
130.302
129.699
128.97
128.096
127.057
125.831
124.394
122.72
120.786
118.566
116.037
113.176
109.967
106.4
102.473
98.1961
93.5929
88.7025
83.5727
78.3515
131.35
131.32
131.249
131.136
130.981
130.778
130.52
130.199
129.803
129.323
128.744
128.054
127.236
126.274
125.149
123.843
122.337
120.61
118.644
116.418
113.917
111.129
108.043
104.658
100.98
97.0222
92.8107
88.3815
83.7762
79.1138
130.305
130.266
130.175
130.031
129.836
129.585
129.272
128.888
128.425
127.872
127.218
126.45
125.554
124.516
123.321
121.954
120.397
118.636
116.656
114.444
111.99
109.287
106.331
103.127
99.6833
96.0168
92.1519
88.1211
83.96
79.7645
129.257
129.21
129.1
128.927
128.694
128.399
128.035
127.594
127.07
126.452
125.73
124.895
123.933
122.832
121.581
120.166
118.575
116.796
114.819
112.636
110.24
107.63
104.807
101.777
98.5518
95.1482
91.5892
87.9029
84.1196
80.317
128.213
128.158
128.03
127.83
127.563
127.227
126.816
126.324
125.745
125.069
124.289
123.395
122.378
121.227
119.932
118.483
116.871
115.088
113.127
110.983
108.655
106.141
103.448
100.583
97.559
94.3916
91.1017
87.7139
84.2533
80.7833
127.178
127.116
126.971
126.747
126.449
126.076
125.623
125.085
124.457
123.731
122.901
121.958
120.895
119.704
118.377
116.906
115.286
113.509
111.574
109.477
107.219
104.803
102.236
99.5249
96.6837
93.7274
90.6742
87.545
84.3611
81.1742
126.16
126.092
125.932
125.685
125.359
124.952
124.462
123.884
123.213
122.444
121.571
120.589
119.49
118.269
116.919
115.436
113.816
112.055
110.152
108.106
105.921
103.601
101.152
98.584
95.9087
93.1403
90.2949
87.3903
84.4443
81.4995
125.164
125.091
124.917
124.651
124.299
123.863
123.34
122.727
122.02
121.214
120.307
119.292
118.165
116.922
115.559
114.072
112.46
110.72
108.854
106.863
104.75
102.521
100.183
97.746
95.2202
92.6186
89.9555
87.2459
84.505
81.7678
124.2
124.121
123.936
123.651
123.277
122.816
122.264
121.621
120.883
120.047
119.111
118.071
116.924
115.666
114.297
112.813
111.214
109.501
107.674
105.738
103.695
101.553
99.3177
96.9991
94.6071
92.1532
89.6497
87.1096
84.5457
81.987
123.273
123.189
122.994
122.694
122.301
121.817
121.241
120.572
119.809
118.949
117.99
116.931
115.769
114.504
113.133
111.657
110.076
108.391
106.606
104.723
102.748
100.686
98.545
96.3336
94.0609
91.7372
89.3732
86.9802
84.5691
82.164
122.391
122.304
122.099
121.786
121.376
120.873
120.277
119.587
118.803
117.923
116.948
115.875
114.704
113.435
112.068
110.603
109.043
107.388
105.644
103.812
101.9
99.9126
97.8572
95.7418
93.5748
91.3653
89.123
86.8575
84.5782
82.3052
121.563
121.472
121.26
120.935
120.511
119.992
119.379
118.672
117.871
116.976
115.988
114.906
113.73
112.462
111.102
109.651
108.112
106.488
104.783
103
101.146
99.2266
97.248
95.2177
93.1438
91.0342
88.8975
86.7421
84.5761
82.4165
120.796
120.702
120.483
120.148
119.712
119.18
118.553
117.832
117.018
116.112
115.115
114.027
112.85
111.585
110.234
108.799
107.282
105.688
104.02
102.282
100.481
98.6224
96.7119
94.7568
92.764
90.7411
88.6955
86.6346
84.5657
82.5027
120.098
120.002
119.777
119.433
118.987
118.444
117.806
117.074
116.25
115.336
114.333
113.243
112.067
110.807
109.466
108.047
106.552
104.985
103.352
101.656
99.9021
98.097
96.2463
94.3564
92.4338
90.4853
88.5176
86.5373
84.5508
82.5699
119.479
119.38
119.149
118.798
118.343
117.791
117.144
116.403
115.572
114.652
113.646
112.555
111.381
110.128
108.798
107.394
105.92
104.379
102.776
101.117
99.4047
97.6464
95.8472
94.0132
92.1503
90.2648
88.3627
86.45
84.5325
82.6201
118.947
118.845
118.608
118.25
117.788
117.229
116.575
115.828
114.992
114.068
113.06
111.97
110.8
109.554
108.234
106.844
105.389
103.871
102.295
100.667
98.9907
97.272
95.5162
93.729
91.916
90.0829
88.2353
86.3786
84.5181
82.6624
118.512
118.407
118.163
117.797
117.328
116.762
116.102
115.351
114.511
113.585
112.576
111.487
110.322
109.082
107.772
106.395
104.955
103.457
101.904
100.302
98.655
96.9687
95.2482
93.4988
91.7257
89.9344
88.13
86.3176
84.5021
82.6903
118.186
118.075
117.822
117.449
116.975
116.405
115.741
114.986
114.143
113.216
112.208
111.121
109.959
108.725
107.423
106.057
104.63
103.147
101.612
100.031
98.4072
96.7464
95.0534
93.3334
91.5914
89.8326
88.0618
86.2839
84.5036
82.727
117.984
117.849
117.579
117.2
116.724
116.151
115.485
114.728
113.884
112.957
111.949
110.865
109.706
108.477
107.181
105.822
104.405
102.933
101.411
99.8436
98.2356
96.5919
94.9173
93.2168
91.4954
89.7579
88.0089
86.2532
84.4951
82.7396
117.965
117.766
117.468
117.083
116.604
116.028
115.359
114.6
113.756
112.828
111.821
110.738
109.582
108.357
107.065
105.712
104.302
102.837
101.324
99.7661
98.1684
96.5358
94.8731
93.185
91.4764
89.7521
88.0166
86.2745
84.5301
82.7875
-50.3909
-30.2385
-10.7404
36.6109
29.3945
17.8195
52.2539
40.2955
29.2533
53.5979
43.2335
35.2577
57.8903
49.6476
42.9365
62.2469
55.3726
49.5122
65.4859
59.6282
54.5991
68.0493
63.0407
58.7446
70.2093
65.8882
62.1878
72.0319
68.2605
65.0387
73.5635
70.2378
67.4039
74.8533
71.8935
69.3764
75.9416
73.2848
71.0289
76.8601
74.4569
72.4184
77.6351
75.4459
73.5901
78.2883
76.281
74.5799
78.8378
76.986
75.4166
79.2986
77.5804
76.1237
79.6834
78.0803
76.7203
80.0033
78.4996
77.2227
80.2676
78.8497
77.6441
80.4849
79.1409
77.9965
80.6619
79.3811
78.289
80.8064
79.5796
78.5316
80.921
79.7394
78.7286
81.0175
79.8732
78.8924
81.087
79.9726
79.0165
81.1583
80.0666
79.1278
81.1912
80.1159
79.191
81.2601
80.1988
79.2805
-1.53838
-1.361
0.0291875
1.01845
1.0867
1.09437
1.12179
1.07906
1.01213
0.981177
0.94072
0.861713
0.774691
0.713675
0.675412
0.631141
0.569258
0.502246
0.447436
0.414123
0.398121
0.386341
0.368293
0.341272
0.306409
0.262607
0.2034
0.124641
0.0471886
0.0121104
4.18673
1.00392
1.8943
1.60884
0.639892
0.589373
0.98451
1.05044
0.934912
0.924627
0.916184
0.825742
0.716035
0.662829
0.656994
0.631126
0.562703
0.481269
0.417803
0.387435
0.382886
0.381597
0.367738
0.340431
0.304513
0.261176
0.204497
0.127957
0.0486578
0.0117428
15.0789
6.60981
3.66963
1.62413
1.0441
1.51255
1.73026
1.07471
0.559295
0.662184
0.908639
0.847222
0.676642
0.617217
0.650884
0.64648
0.557644
0.449507
0.373069
0.349812
0.365989
0.381602
0.372487
0.343074
0.305025
0.262252
0.209721
0.138566
0.0576111
0.0133745
24.5871
14.7584
8.94214
5.23296
3.26391
2.3434
1.54232
0.946623
0.79516
1.28465
1.44445
0.887961
0.447735
0.36049
0.537275
0.688315
0.580698
0.425862
0.325902
0.308635
0.351658
0.389706
0.383653
0.34836
0.307244
0.265868
0.219301
0.157792
0.0776417
0.0175687
33.651
23.9327
16.6319
11.3168
7.61566
5.09495
3.33183
2.22877
1.64447
1.47052
1.16177
0.804037
0.513983
0.526229
0.949819
1.01147
0.582576
0.310439
0.180646
0.187465
0.299108
0.407576
0.411617
0.362551
0.316165
0.276649
0.235716
0.186199
0.114744
0.0247096
41.5483
32.6478
24.7703
18.3359
13.3941
9.71351
7.00681
5.05302
3.66971
2.71786
1.98744
1.42896
1.00388
0.826117
0.890657
0.798555
0.578651
0.354984
0.231409
0.264597
0.443626
0.537483
0.441713
0.349205
0.30132
0.273202
0.241186
0.205964
0.170742
0.0323849
47.9863
40.197
32.4327
25.5458
19.9069
15.4127
11.8543
9.06063
6.90302
5.26859
4.0156
3.02801
2.26286
1.74857
1.44342
1.17411
0.880358
0.586359
0.394115
0.349904
0.417104
0.460298
0.442974
0.401112
0.374062
0.349619
0.313516
0.272306
0.307394
0.0715248
53.2313
46.5094
39.2593
32.4299
26.5356
21.5673
17.4012
13.9454
11.1246
8.85345
7.02323
5.53812
4.35113
3.44504
2.77136
2.22221
1.7198
1.27668
0.954818
0.778214
0.709834
0.667957
0.606848
0.529463
0.466944
0.418019
0.369255
0.317205
0.297032
-0.0242172
57.5114
51.6985
45.1169
38.6414
32.814
27.6853
23.193
19.3005
15.977
13.1724
10.8185
8.84965
7.21908
5.89177
4.81963
3.92818
3.1589
2.50702
1.99604
1.63204
1.38438
1.19575
1.02262
0.859979
0.722813
0.608571
0.502408
0.3907
0.248753
-0.276325
61.0044
55.9371
50.0337
44.0449
38.4819
33.4218
28.8363
24.7214
21.0787
17.8917
15.1258
12.7404
10.6983
8.96546
7.50159
6.25604
5.18594
4.27423
3.52134
2.92214
2.45122
2.06701
1.73401
1.43924
1.1823
0.955326
0.74017
0.509046
0.199192
-0.495057
63.873
59.4116
54.1285
48.6547
43.4489
38.5938
34.0768
29.9098
26.1139
22.6955
19.6437
16.9384
14.5561
12.472
10.6569
9.07652
7.69886
6.50376
5.48134
4.62052
3.89951
3.28695
2.75331
2.28044
1.85809
1.47306
1.10297
0.710768
0.227806
-0.578806
66.2489
62.282
57.5393
52.5537
47.7293
43.1443
38.7917
34.6888
30.8656
27.341
24.1196
21.1962
18.5602
16.1974
14.0893
12.2137
10.548
9.07425
7.77964
6.65097
5.66936
4.81013
4.04831
3.36407
2.74197
2.16479
1.60768
1.0326
0.382191
-0.511679
68.2306
64.6711
60.3904
55.8441
51.388
47.0922
42.9505
38.9802
35.2131
31.6741
28.3763
25.3243
22.5172
19.9498
17.6126
15.4926
13.5754
11.8473
10.2962
8.90956
7.67139
6.56194
5.5602
4.64695
3.80469
3.01439
2.25139
1.48209
0.664447
-0.31777
69.8926
66.6722
62.7846
58.6242
54.5066
50.4936
46.5776
42.7733
39.1112
35.6178
32.3104
29.1992
26.2897
23.5831
21.0769
18.7651
16.6397
14.6914
12.9108
11.2875
9.80829
8.45755
7.21785
6.07171
5.00176
3.98923
3.01167
2.04176
1.05096
-0.0361996
71.2922
68.3567
64.8037
60.9792
57.1652
53.416
49.7222
46.0953
42.5627
39.1504
35.877
32.7557
29.7956
27.0022
24.3779
21.9218
19.6304
17.4989
15.5206
13.6877
11.99
10.4153
8.94927
7.57679
6.28193
5.04745
3.854
2.68024
1.50728
0.290955
72.4741
69.7794
66.5122
62.9791
59.434
55.9249
52.4409
48.9898
45.5958
42.2831
39.0701
35.971
32.9969
30.1559
27.4536
24.8924
22.4726
20.1923
18.0479
16.034
14.1432
12.366
10.691
9.10547
7.59547
6.14585
4.74028
3.36205
1.99805
0.626924
73.4737
70.9833
67.9611
64.6806
61.3722
58.0788
54.7879
51.5044
48.2489
45.0433
41.9051
38.8484
35.885
33.0246
30.2743
27.6392
25.1219
22.723
20.4412
18.2734
16.2145
14.2574
12.3932
10.6114
8.89999
7.246
5.6355
4.0548
2.49337
0.945225
74.3193
72.0031
69.1912
66.1297
63.029
59.9276
56.812
53.6843
50.562
47.4644
44.4076
41.4051
38.4685
35.6081
32.8322
30.147
27.557
25.0645
22.6702
20.3728
18.169
16.0539
14.0205
12.0602
10.163
8.31751
6.51157
4.73307
2.97181
1.23091
75.0342
72.8665
70.2356
67.364
64.4449
61.5135
58.5553
55.5703
52.5729
49.5801
46.6063
43.6639
40.7641
37.917
35.1314
32.4144
29.7713
27.2059
24.7201
22.3141
19.9863
17.7333
15.5498
13.4289
11.3618
9.33867
7.34835
5.3793
3.42029
1.47884
75.6375
73.5966
71.1213
68.4142
65.6536
62.8718
60.0539
57.1979
54.3156
51.4218
48.5293
45.6491
42.7916
39.9667
37.1829
34.4476
31.7669
29.1453
26.5857
24.0894
21.656
19.2833
16.9675
14.7028
12.4817
10.2952
8.13279
5.98279
3.83245
1.69046
76.1451
74.2124
71.8709
69.3059
66.6831
64.0323
61.3385
58.5979
55.8202
53.0182
50.2029
47.3842
44.5716
41.774
38.9999
36.2566
33.5503
30.886
28.2673
25.6962
23.1734
20.6976
18.2658
15.8734
13.5137
11.1783
8.85695
6.53766
4.20609
1.87025
76.5708
74.7302
72.5032
70.0607
67.5571
65.0204
62.4354
59.797
57.1132
54.3947
51.6512
48.8914
46.1236
43.3562
40.5968
37.8527
35.1301
32.434
29.7685
27.1361
24.538
21.9738
19.4412
16.9361
14.4528
11.983
9.51671
7.04143
4.54159
2.0235
76.9256
75.1629
73.0338
70.6961
68.295
65.8567
63.3663
60.8175
58.2167
55.5731
52.895
50.19
47.4654
44.7287
41.987
39.2471
36.515
33.7958
31.0936
28.4112
25.7504
23.111
20.4914
17.888
15.2954
12.7059
10.1091
7.49243
4.83929
2.15393
77.2204
75.5232
73.4768
71.2281
68.9143
66.5603
64.151
61.6797
59.1513
56.5736
53.9539
51.2986
48.6142
45.9073
43.1845
40.4519
37.7153
34.9796
32.249
29.5264
26.8137
24.1111
21.4173
18.7292
16.0415
13.3466
10.6344
7.89164
5.10146
2.26548
77.4613
75.8185
73.8412
71.6671
69.4266
67.1434
64.8028
62.3974
59.9309
57.4102
54.8413
52.2299
49.5817
46.9024
44.1981
41.4744
38.7367
35.9896
33.2373
30.4826
27.7275
24.9725
22.2164
19.4563
16.6871
13.9013
11.0888
8.23611
5.32609
2.35788
77.66
76.0615
74.1409
72.0282
69.8479
67.6232
65.3394
62.9888
60.5741
58.1011
55.5754
53.0016
50.3848
47.7301
45.0429
42.3284
39.5916
36.837
34.0683
31.2886
28.4996
25.7019
22.8946
20.0747
17.2373
14.375
11.4774
8.5312
5.51888
2.43637
77.8133
76.2497
74.3739
72.3099
70.1776
67.9993
65.761
63.4542
61.081
58.6467
56.1559
53.6129
51.0221
48.388
45.7155
43.0096
40.2747
37.515
34.7343
31.9354
29.12
26.2887
23.4405
20.5727
17.6802
14.7557
11.7888
8.76595
5.66983
2.49388
77.9436
76.4056
74.564
72.5369
70.4408
68.2977
66.0938
63.8203
61.4788
59.074
56.61
54.0908
51.52
48.9021
46.2413
43.5424
40.8095
38.0466
35.2572
32.4441
29.6089
26.7522
23.873
20.9685
18.0337
15.0612
12.0404
8.95773
5.79549
2.5432
78.0236
76.5018
74.6825
72.6805
70.6088
68.4893
66.3083
64.0572
61.7369
59.3519
56.9061
54.4028
51.8457
49.2387
46.5861
43.892
41.1607
38.3959
35.6009
32.7784
29.9301
27.0564
24.1564
21.2272
18.2637
15.2584
12.2006
9.07625
5.86773
2.56274
78.1123
76.5917
74.7847
72.7977
70.7398
68.6329
66.4641
64.2247
61.9155
59.5407
57.1039
54.6085
52.0579
49.4559
46.8067
44.1143
41.3827
38.6158
35.8167
32.9882
30.1318
27.248
24.3358
21.3925
18.4128
15.389
12.3103
9.16164
5.92275
2.5695
)
;

boundaryField
{
    inlet
    {
        type            zeroGradient;
    }
    outlet
    {
        type            fixedValue;
        value           uniform 0;
    }
    flap
    {
        type            zeroGradient;
    }
    upperWall
    {
        type            zeroGradient;
    }
    lowerWall
    {
        type            zeroGradient;
    }
    frontAndBack
    {
        type            empty;
    }
}


// ************************************************************************* //
