/*--------------------------------*- C++ -*----------------------------------*\
  =========                 |
  \\      /  F ield         | OpenFOAM: The Open Source CFD Toolbox
   \\    /   O peration     | Website:  https://openfoam.org
    \\  /    A nd           | Version:  7
     \\/     M anipulation  |
\*---------------------------------------------------------------------------*/
FoamFile
{
    version     2.0;
    format      ascii;
    class       surfaceScalarField;
    location    "2.8";
    object      phi;
}
// * * * * * * * * * * * * * * * * * * * * * * * * * * * * * * * * * * * * * //

dimensions      [0 3 -1 0 0 0 0];

internalField   nonuniform List<scalar> 
5457
(
0.198418
0.00158242
0.19648
0.00193744
0.194192
0.00228819
0.191508
0.00268372
0.188427
0.00308137
0.18495
0.00347696
0.181071
0.00387878
0.176777
0.00429423
0.172048
0.00472844
0.166863
0.00518543
0.161194
0.00566869
0.155013
0.00618118
0.148288
0.00672507
0.140987
0.00730139
0.133077
0.00790949
0.124531
0.00854637
0.115325
0.00920574
0.105448
0.00987696
0.0949043
0.0105438
0.0837211
0.0111832
0.0719569
0.0117643
0.0597089
0.0122479
0.0471206
0.0125883
0.0343807
0.0127399
0.0216859
0.0126948
0.00903602
0.0126499
-0.00291669
0.0119527
-0.00847185
0.00555516
-0.00804262
-0.000429233
-0.00804262
0.199928
0.0016543
0.199176
0.00268996
0.197965
0.00349924
0.196331
0.00431705
0.194271
0.00514159
0.191781
0.00596723
0.188854
0.00680599
0.185476
0.00767133
0.181631
0.00857358
0.177296
0.00952106
0.172443
0.010521
0.167045
0.0115797
0.161068
0.012702
0.154479
0.0138904
0.147244
0.0151446
0.139331
0.0164594
0.130713
0.0178235
0.121373
0.0192169
0.111308
0.0206084
0.100539
0.0219527
0.0891148
0.0231884
0.0771276
0.0242352
0.0647219
0.024994
0.0521148
0.025347
0.0396547
0.0251548
0.0281049
0.0241997
0.0185942
0.0214634
0.00879624
0.0153532
0.00118302
0.00718398
-0.0068596
0.199781
0.00187377
0.199087
0.00338388
0.197946
0.00464029
0.196409
0.00585381
0.194482
0.00706791
0.192163
0.00828648
0.189446
0.00952364
0.18632
0.010797
0.182772
0.0121217
0.178783
0.0135102
0.17433
0.0149733
0.169389
0.0165209
0.16393
0.0181607
0.157923
0.0198977
0.151335
0.0217328
0.144133
0.0236611
0.136288
0.0256689
0.127774
0.0277306
0.118577
0.029805
0.1087
0.0318303
0.0981684
0.0337199
0.0870464
0.0353572
0.07545
0.0365903
0.0635732
0.0372239
0.0517316
0.0369964
0.0403966
0.0355348
0.0297384
0.0321216
0.0191656
0.0259259
0.00959724
0.0167524
0.00273764
0.199703
0.00217075
0.199008
0.00407927
0.197887
0.00576093
0.196376
0.00736488
0.194488
0.00895621
0.192221
0.0105527
0.189574
0.0121716
0.186537
0.0138333
0.183103
0.0155564
0.179256
0.0173569
0.174981
0.0192486
0.170258
0.0212437
0.165066
0.0233525
0.159382
0.0255819
0.15318
0.0279346
0.146435
0.0304063
0.139121
0.0329831
0.131214
0.0356377
0.122695
0.0383239
0.113554
0.0409709
0.103797
0.0434765
0.0934553
0.0456994
0.0825944
0.0474512
0.0713319
0.0484863
0.0598403
0.0484881
0.0483164
0.0470586
0.0368106
0.0436274
0.0251877
0.0375488
0.0133355
0.0286046
0.0160731
0.199667
0.00250338
0.198964
0.00478262
0.197863
0.00686237
0.196381
0.00884672
0.194532
0.0108052
0.192317
0.0127676
0.189733
0.0147556
0.186774
0.0167921
0.183432
0.0188984
0.179696
0.0210928
0.175553
0.0233917
0.170988
0.025809
0.165984
0.0283564
0.160523
0.0310423
0.154588
0.0338701
0.148157
0.0368367
0.141212
0.0399288
0.13373
0.043119
0.125694
0.0463605
0.117085
0.0495799
0.107892
0.0526696
0.098113
0.055478
0.0877635
0.0578008
0.0768778
0.059372
0.0655082
0.0598577
0.0537077
0.0588591
0.0414538
0.0558813
0.0285877
0.050415
0.0148523
0.0423399
0.0309254
0.199653
0.00285062
0.198949
0.00548676
0.197871
0.00794045
0.196426
0.0102911
0.194626
0.0126054
0.192472
0.0149213
0.189962
0.0172655
0.187091
0.0196632
0.183852
0.0221379
0.180234
0.0247104
0.176227
0.0273985
0.171818
0.0302179
0.166993
0.0331814
0.161737
0.0362983
0.156034
0.0395731
0.149868
0.0430033
0.14322
0.0465769
0.136071
0.0502682
0.128399
0.0540325
0.120179
0.0577992
0.111385
0.0614635
0.101987
0.0648763
0.0919534
0.0678345
0.0812531
0.0700723
0.0698537
0.0712571
0.0577166
0.0709961
0.0447606
0.0688373
0.0308492
0.0643265
0.0158732
0.0573159
0.0467986
0.19965
0.00320062
0.198954
0.00618285
0.197904
0.00899022
0.196504
0.011691
0.194762
0.0143478
0.19268
0.0170036
0.190256
0.0196894
0.187486
0.0224331
0.184363
0.0252603
0.18088
0.0281936
0.177026
0.0312527
0.172789
0.0344547
0.168157
0.0378137
0.163115
0.0413401
0.157649
0.0450394
0.151741
0.0489109
0.145374
0.0529444
0.138524
0.0571175
0.131166
0.0613904
0.123266
0.0656996
0.11478
0.0699497
0.105652
0.0740036
0.0958152
0.0776717
0.0851852
0.0807023
0.0736678
0.0827746
0.0611614
0.0835025
0.0475554
0.0824433
0.0327589
0.079123
0.0167831
0.0732917
0.0635817
0.199655
0.00354602
0.198974
0.00686306
0.197958
0.0100061
0.19661
0.0130399
0.194933
0.0160241
0.192932
0.0190044
0.190606
0.0220158
0.18795
0.0250887
0.18496
0.0282506
0.181628
0.031526
0.177944
0.0349365
0.173898
0.0385004
0.169479
0.0422335
0.164671
0.0461477
0.15946
0.0502504
0.153827
0.0545432
0.147752
0.0590196
0.141208
0.0636621
0.13416
0.0684384
0.126563
0.073296
0.118359
0.0781543
0.109467
0.0828957
0.0997847
0.0873537
0.0891863
0.0913007
0.0775248
0.094436
0.0646476
0.0963797
0.050418
0.0966729
0.0347688
0.0947722
0.0177902
0.0902703
0.0813719
0.199664
0.0038819
0.199006
0.00752098
0.19803
0.0109825
0.196738
0.0143315
0.195136
0.0176264
0.193226
0.0209145
0.191008
0.024234
0.188479
0.0276177
0.185634
0.031095
0.182468
0.0346921
0.178972
0.0384323
0.175137
0.0423357
0.170951
0.0464197
0.1664
0.0506984
0.161469
0.0551817
0.156137
0.0598747
0.150381
0.0647758
0.144168
0.0698748
0.137457
0.0751496
0.130191
0.080562
0.122294
0.0860514
0.113664
0.0915261
0.104166
0.0968513
0.0936328
0.101834
0.0818646
0.106204
0.0686501
0.109594
0.0538032
0.11152
0.0372378
0.111338
0.0190842
0.108424
0.100456
0.199677
0.00420474
0.199047
0.00815133
0.198115
0.011914
0.196887
0.01556
0.195366
0.0191476
0.193555
0.0227254
0.191454
0.0263342
0.189063
0.0300088
0.186378
0.0337806
0.183392
0.0376774
0.180101
0.0417239
0.176494
0.0459423
0.172562
0.0503517
0.168292
0.0549688
0.163667
0.0598068
0.158666
0.0648751
0.153264
0.0701785
0.147423
0.0757156
0.141095
0.081477
0.134215
0.0874422
0.126692
0.093575
0.118402
0.099816
0.109181
0.106072
0.0988183
0.112197
0.0870527
0.11797
0.0735913
0.123056
0.0581507
0.12696
0.0405542
0.128934
0.0209029
0.128075
0.121359
0.199693
0.00451187
0.199094
0.00874984
0.198213
0.0127958
0.197053
0.01672
0.195619
0.0205813
0.193915
0.0244296
0.191941
0.0283076
0.189698
0.0322522
0.187183
0.0362961
0.184391
0.0404688
0.181319
0.0447966
0.177958
0.0493033
0.174299
0.0540102
0.170331
0.0589365
0.166039
0.0640992
0.161401
0.0695127
0.156391
0.0751889
0.15097
0.0811366
0.145086
0.0873607
0.138667
0.0938609
0.131613
0.100629
0.123785
0.107644
0.114993
0.114864
0.104981
0.122208
0.0934196
0.129532
0.0799004
0.136575
0.0639717
0.142889
0.0452389
0.147667
0.0236145
0.1497
0.144974
0.199711
0.00480125
0.199147
0.00931298
0.19832
0.0136236
0.197233
0.0178065
0.195893
0.0219217
0.194302
0.0260204
0.192463
0.0301465
0.190376
0.0343388
0.188041
0.0386314
0.185455
0.0430549
0.182614
0.0476372
0.179514
0.0524035
0.176147
0.0573774
0.172503
0.0625806
0.168568
0.0680337
0.164325
0.0737563
0.159746
0.0797677
0.154796
0.0860871
0.149422
0.0927344
0.143553
0.0997303
0.137085
0.107097
0.129873
0.114856
0.121712
0.123025
0.112313
0.131607
0.101274
0.14057
0.0880491
0.1498
0.0719293
0.159009
0.0520935
0.167503
0.0278909
0.173902
0.172864
0.19973
0.00507125
0.199205
0.0098379
0.198435
0.0143938
0.197426
0.0188154
0.196184
0.0231641
0.194712
0.027492
0.193014
0.0318444
0.191092
0.0362612
0.188945
0.0407778
0.186574
0.0454259
0.183977
0.0502344
0.181151
0.0552301
0.17809
0.060438
0.174788
0.0658825
0.171234
0.0715873
0.167414
0.0775769
0.163304
0.0838773
0.158874
0.0905175
0.154077
0.0975311
0.148848
0.104959
0.143093
0.112853
0.136673
0.121276
0.129387
0.13031
0.12094
0.140055
0.110884
0.150626
0.0985488
0.162135
0.0829111
0.174647
0.0624483
0.187966
0.0351353
0.201215
0.208
0.199751
0.00532061
0.199266
0.0103223
0.198557
0.0151035
0.197629
0.0197432
0.196489
0.0243043
0.195141
0.0288397
0.193589
0.0333957
0.191837
0.0380132
0.189887
0.0427284
0.187739
0.0475738
0.185394
0.0525792
0.182852
0.0577722
0.180111
0.0631793
0.177167
0.0688267
0.174013
0.0747408
0.17064
0.0809497
0.167032
0.087485
0.163166
0.0943835
0.159008
0.10169
0.154505
0.109462
0.149584
0.117774
0.144133
0.126727
0.137986
0.136458
0.130882
0.147159
0.122407
0.1591
0.111868
0.172675
0.0980324
0.188482
0.0785592
0.207439
0.0486862
0.231088
0.256686
0.199772
0.00554839
0.19933
0.0107643
0.198683
0.0157501
0.19784
0.0205871
0.196805
0.0253391
0.195585
0.0300598
0.194184
0.0347963
0.192607
0.0395901
0.190858
0.0444779
0.188939
0.0494926
0.186854
0.0546645
0.184604
0.0600218
0.182192
0.0655918
0.179617
0.0714016
0.176878
0.0774794
0.173972
0.0838557
0.170892
0.0905654
0.167625
0.0976502
0.164153
0.105162
0.160446
0.113168
0.156462
0.121758
0.152134
0.131055
0.147362
0.14123
0.141988
0.152533
0.135751
0.165338
0.128179
0.180247
0.118333
0.198328
0.103961
0.22181
0.0777434
0.257306
0.334429
0.0049923
-0.0049923
0.00964644
-0.00465413
0.0136095
-0.00396307
0.0169369
-0.0033274
0.0197425
-0.00280563
0.022128
-0.00238549
0.0241779
-0.00204983
0.0259609
-0.001783
0.0275296
-0.00156878
0.0289216
-0.00139191
0.0301625
-0.0012409
0.0312715
-0.00110907
0.0322624
-0.000990918
0.0331354
-0.000872941
0.0338636
-0.000728179
0.0343959
-0.000532351
0.0346958
-0.000299846
0.0347853
-8.95442e-05
0.0347161
6.92039e-05
0.0345333
0.000182782
0.0342532
0.000280118
0.0339156
0.000337602
0.0336272
0.000288377
0.0335008
0.000126421
0.0336159
-0.000115135
0.0339937
-0.000377801
0.0346151
-0.000621367
0.0354454
-0.000830311
0.0364095
-0.00096408
-0.00090987
0.00428822
-0.00928052
0.0084417
-0.00880761
0.0120513
-0.00757271
0.0151371
-0.00641318
0.0177966
-0.00546516
0.0201169
-0.00470577
0.0221681
-0.00410104
0.0240058
-0.00362067
0.0256715
-0.00323449
0.027194
-0.00291444
0.0285926
-0.00263944
0.0298826
-0.00239911
0.0310815
-0.00218977
0.0322038
-0.00199525
0.0332429
-0.0017673
0.0341584
-0.00144782
0.0349025
-0.00104399
0.0354695
-0.00065657
0.0359304
-0.000391651
0.0363081
-0.000194919
0.0365879
3.39566e-07
0.0367576
0.000167875
0.0369233
0.000122725
0.0371183
-6.85909e-05
0.0373602
-0.000357086
0.0376427
-0.000660281
0.0379668
-0.00094544
0.0383366
-0.00120014
0.0387743
-0.00140181
-0.0013988
0.00338792
-0.0126684
0.00659673
-0.0120164
0.00935104
-0.010327
0.0116983
-0.00876045
0.0137173
-0.00748418
0.0154727
-0.00646118
0.0170181
-0.00564643
0.0183952
-0.00499774
0.0196344
-0.00447374
0.0207556
-0.00403557
0.0217689
-0.00365277
0.0226816
-0.00331179
0.0235094
-0.00301764
0.0242794
-0.00276519
0.0250019
-0.00248987
0.0256396
-0.00208551
0.0261296
-0.00153391
0.0264612
-0.000988255
0.0267323
-0.000662695
0.0268657
-0.000328294
0.0267272
0.000138806
0.0262556
0.000639496
0.0254975
0.000880786
0.0245984
0.000830494
0.0236895
0.00055183
0.0228442
0.000185005
0.0220912
-0.000192401
0.0214697
-0.000578616
0.0211268
-0.00105895
-0.00161874
0.00243336
-0.0151018
0.00454357
-0.0141266
0.00626353
-0.012047
0.00769937
-0.0101963
0.00890406
-0.00868886
0.00991678
-0.00747389
0.0107728
-0.00650241
0.0114996
-0.0057246
0.0121183
-0.00509239
0.0126419
-0.00455919
0.0130731
-0.00408404
0.0134047
-0.00364336
0.0136348
-0.00324777
0.0137965
-0.00292688
0.0139392
-0.00263251
0.0140627
-0.002209
0.0140554
-0.00152669
0.013553
-0.000485816
0.0124213
0.000469023
0.0110649
0.00102807
0.00985648
0.00134725
0.00880526
0.00169072
0.00778545
0.00190059
0.00681474
0.0018012
0.00599771
0.00136886
0.0054996
0.000683116
0.00531724
-1.00425e-05
0.00552221
-0.000783583
0.00604
-0.00157674
-0.0022673
0.00135502
-0.0164568
0.00224522
-0.0150168
0.0028285
-0.0126302
0.00323507
-0.0106029
0.00348758
-0.00894137
0.00360665
-0.00759296
0.00361064
-0.0065064
0.00351546
-0.00562942
0.00333548
-0.00491241
0.00308319
-0.0043069
0.00276509
-0.00376594
0.00237073
-0.003249
0.00185135
-0.00272839
0.00112411
-0.00219964
0.000141847
-0.00165025
-0.00100815
-0.001059
-0.00219392
-0.000340917
-0.00308332
0.000403584
-0.00364452
0.00103023
-0.00414226
0.0015258
-0.00467603
0.00188101
-0.00512676
0.00214145
-0.00545814
0.00223198
-0.0056819
0.00202496
-0.00581217
0.00149913
-0.00586687
0.000737814
-0.00575208
-0.000124826
-0.00557324
-0.000962422
-0.00535494
-0.00179504
-0.00247042
7.30779e-05
-0.0165299
-0.000284844
-0.0146589
-0.000893928
-0.0120212
-0.00159911
-0.00989767
-0.00240651
-0.00813398
-0.00329376
-0.00670571
-0.00424983
-0.00555033
-0.00526613
-0.00461311
-0.00633558
-0.00384296
-0.00744654
-0.00319594
-0.00857852
-0.00263396
-0.00970369
-0.00212383
-0.0107897
-0.00164237
-0.0118117
-0.00117769
-0.0127497
-0.000712178
-0.0135892
-0.000219556
-0.0142227
0.000292608
-0.0146502
0.000831101
-0.0149707
0.00135073
-0.0152144
0.00176947
-0.0153968
0.00206338
-0.0154866
0.00223125
-0.0154743
0.00221978
-0.0154013
0.00195188
-0.0153167
0.00141451
-0.0152504
0.000671547
-0.0152012
-0.00017404
-0.0151455
-0.0010181
-0.0150964
-0.00184415
-0.00253136
-0.00121145
-0.0153185
-0.00293807
-0.0129323
-0.00476134
-0.0101979
-0.00663125
-0.00802776
-0.00848453
-0.00628069
-0.0102964
-0.00489383
-0.0120422
-0.00380456
-0.0137003
-0.00295501
-0.0152537
-0.00228954
-0.0166904
-0.00175923
-0.0180017
-0.00132271
-0.0191806
-0.000944862
-0.0202228
-0.000600181
-0.021131
-0.000269485
-0.0218999
5.6708e-05
-0.0225088
0.000389372
-0.0229699
0.000753619
-0.0232983
0.00115951
-0.023502
0.00155444
-0.0236061
0.00187355
-0.0236279
0.00208522
-0.0235676
0.002171
-0.0234378
0.00208997
-0.0232796
0.00179364
-0.0231393
0.00127424
-0.0230474
0.000579599
-0.0230116
-0.000209831
-0.0230175
-0.00101223
-0.0230535
-0.00180806
-0.00246259
-0.00260897
-0.0127095
-0.00561394
-0.00992732
-0.00862327
-0.00718856
-0.0114983
-0.00515272
-0.0141597
-0.00361933
-0.016583
-0.00247051
-0.0187604
-0.00162712
-0.0206969
-0.00101858
-0.0224045
-0.000581864
-0.0238994
-0.000264408
-0.0251976
-2.44347e-05
-0.026308
0.000165445
-0.0272405
0.000332331
-0.0280106
0.000500629
-0.0286407
0.000686866
-0.0291572
0.000905852
-0.0295667
0.00116312
-0.0298528
0.00144561
-0.0300138
0.00171546
-0.0300679
0.00192765
-0.0300348
0.00205206
-0.0299289
0.00206508
-0.0297724
0.00193357
-0.0296031
0.00162429
-0.0294617
0.00113285
-0.0293788
0.000496715
-0.0293677
-0.000220939
-0.029419
-0.000960983
-0.0295278
-0.00169921
-0.0022773
-0.004081
-0.0086285
-0.0083225
-0.00568581
-0.0123933
-0.00311781
-0.0160821
-0.0014639
-0.0193252
-0.000376204
-0.0220967
0.000301003
-0.0244189
0.000695093
-0.0263542
0.000916694
-0.027974
0.00103797
-0.0293393
0.00110089
-0.0304976
0.00113383
-0.0314888
0.00115666
-0.0323401
0.00118358
-0.0330647
0.00122525
-0.0336731
0.00129529
-0.034171
0.00140372
-0.0345575
0.00154959
-0.0348271
0.00171527
-0.0349808
0.00186919
-0.0350313
0.00197813
-0.0349967
0.00201742
-0.0348971
0.00196547
-0.034759
0.00179552
-0.0346173
0.00148252
-0.0345077
0.00102333
-0.0344594
0.000448334
-0.0344874
-0.000192916
-0.0345896
-0.000858817
-0.0347651
-0.0015237
-0.00202703
-0.00579403
-0.00283447
-0.0115259
4.61092e-05
-0.0162837
0.00163992
-0.02022
0.00247244
-0.0234318
0.00283559
-0.0260662
0.00293536
-0.0282701
0.00289905
-0.0301377
0.00278431
-0.0317262
0.00262643
-0.0330818
0.00245652
-0.0342433
0.0022953
-0.0352388
0.00215214
-0.0360865
0.00203131
-0.0368012
0.00193992
-0.0373957
0.00188979
-0.03788
0.00188806
-0.0382585
0.00192804
-0.0385307
0.00198753
-0.0386983
0.00203678
-0.0387701
0.00204992
-0.0387623
0.0020096
-0.0386971
0.00190031
-0.0386028
0.00170119
-0.0385115
0.00139124
-0.0384545
0.000966264
-0.0384572
0.00045108
-0.0385359
-0.000114251
-0.0386942
-0.000700436
-0.0389312
-0.00128669
-0.00172507
-0.00730064
0.00446617
-0.0135666
0.00631207
-0.0185662
0.00663952
-0.0226472
0.00655343
-0.0259955
0.0061839
-0.0287493
0.00568916
-0.0310222
0.00517192
-0.0329116
0.00467377
-0.034494
0.0042088
-0.0358289
0.00379141
-0.036965
0.00343135
-0.0379365
0.00312364
-0.0387629
0.00285772
-0.0394573
0.00263437
-0.0400341
0.00246658
-0.0405081
0.00236205
-0.0408886
0.00230857
-0.0411774
0.00227636
-0.0413739
0.00223327
-0.0414827
0.00215868
-0.0415179
0.00204482
-0.0415031
0.00188547
-0.0414674
0.00166554
-0.041441
0.00136484
-0.04145
0.000975256
-0.0415143
0.000515367
-0.0416498
2.12386e-05
-0.0418655
-0.000484706
-0.0421622
-0.000990037
-0.00136972
-0.00805852
0.0125247
-0.0149687
0.0132223
-0.0205165
0.0121873
-0.0248502
0.0108871
-0.0282626
0.00959633
-0.0309812
0.00840774
-0.0331799
0.00737065
-0.034988
0.00648192
-0.0364896
0.00571032
-0.0377473
0.00504916
-0.0388181
0.00450212
-0.0397415
0.00404709
-0.0405334
0.00364964
-0.0412001
0.00330107
-0.0417557
0.00302212
-0.0422214
0.00282774
-0.0426123
0.00269949
-0.0429299
0.00259397
-0.0431679
0.00247126
-0.0433245
0.0023153
-0.0434116
0.00213185
-0.0434543
0.00192818
-0.0434838
0.00169511
-0.0435289
0.00140995
-0.0436112
0.00105751
-0.0437454
0.000649593
-0.0439441
0.000219946
-0.0442207
-0.000208178
-0.0445794
-0.000631283
-0.000954998
-0.00937454
0.0218992
-0.01723
0.0210777
-0.023001
0.0179583
-0.0272185
0.0151046
-0.0304189
0.0127968
-0.0328931
0.0108819
-0.0348574
0.00933493
-0.0364752
0.00809976
-0.0378226
0.0070577
-0.0389477
0.00617426
-0.0399149
0.00546931
-0.040772
0.00490421
-0.0415239
0.00440147
-0.0421594
0.00393661
-0.0426899
0.00355258
-0.0431478
0.00328572
-0.0435574
0.00310903
-0.043917
0.00295359
-0.0442095
0.00276374
-0.044423
0.00252878
-0.0445664
0.00227533
-0.0446693
0.00203105
-0.0447674
0.00179315
-0.0448889
0.00153152
-0.0450504
0.00121903
-0.0452601
0.000859292
-0.045527
0.000486837
-0.0458669
0.000131681
-0.0462909
-0.00020729
-0.000472474
-0.0117935
0.0336928
-0.0209026
0.0301868
-0.0264275
0.0234833
-0.0299262
0.0186032
-0.0325606
0.0154312
-0.034553
0.0128743
-0.0360995
0.0108814
-0.0374226
0.00942284
-0.0385616
0.00819672
-0.0395049
0.00711758
-0.0403306
0.00629496
-0.0411114
0.00568505
-0.0418302
0.00512025
-0.0424374
0.00454381
-0.0429367
0.00405184
-0.0433843
0.00373338
-0.0438218
0.00354651
-0.0442406
0.00337235
-0.0446036
0.0031268
-0.0448828
0.00280795
-0.0450841
0.00247668
-0.0452459
0.00219281
-0.045413
0.00196027
-0.0456147
0.00173315
-0.0458606
0.00146501
-0.0461507
0.00114931
-0.0464886
0.00082476
-0.0468935
0.000536575
-0.0473877
0.000286922
9.15936e-05
-0.0161787
0.0498715
-0.0269085
0.0409165
-0.0313912
0.027966
-0.0329779
0.0201899
-0.0346593
0.0171126
-0.0359512
0.0141662
-0.0368617
0.011792
-0.0378082
0.0103693
-0.0387455
0.00913408
-0.0394684
0.0078405
-0.0401023
0.00692886
-0.0408066
0.00638932
-0.0415225
0.00583609
-0.0421157
0.0051371
-0.0425712
0.00450727
-0.0429987
0.00416092
-0.0434765
0.00402428
-0.0439796
0.00387547
-0.0444356
0.00358275
-0.0447901
0.00316246
-0.0450465
0.0027331
-0.0452606
0.00240696
-0.0454945
0.00219416
-0.0457789
0.00201758
-0.0461141
0.00180014
-0.0464878
0.00152301
-0.0468962
0.00123315
-0.0473635
0.00100389
-0.0479296
0.00085307
0.000749453
0.207447
0.00576123
0.207034
0.0111771
0.206431
0.0163529
0.205646
0.0213719
0.204687
0.0262988
0.203559
0.0311878
0.202269
0.0360864
0.200822
0.0410365
0.199225
0.0460749
0.197483
0.0512348
0.195601
0.0565463
0.193585
0.0620377
0.191441
0.0677364
0.189173
0.0736697
0.186786
0.0798662
0.184285
0.086357
0.181672
0.0931781
0.17895
0.100372
0.176118
0.107994
0.173175
0.116111
0.170118
0.124816
0.166941
0.134232
0.16364
0.144531
0.160218
0.155955
0.156697
0.168858
0.153175
0.183769
0.150021
0.201482
0.148921
0.22291
0.160706
0.245522
0.258578
0.236557
0.21249
0.00595374
0.212117
0.0115501
0.211573
0.0168968
0.210867
0.0220782
0.210006
0.0271597
0.208998
0.0321958
0.207851
0.0372342
0.206571
0.0423165
0.205166
0.0474794
0.203645
0.0527558
0.202016
0.0581753
0.200288
0.0637658
0.198471
0.0695537
0.196575
0.0755657
0.194611
0.0818293
0.192594
0.0883744
0.190537
0.095235
0.188458
0.102452
0.186378
0.110073
0.184326
0.118163
0.182343
0.126799
0.180489
0.136086
0.178863
0.146156
0.177639
0.157179
0.177139
0.169359
0.178018
0.182889
0.181699
0.197802
0.19079
0.213818
0.206304
0.230008
0.245433
0.219449
0.217658
0.00612378
0.217328
0.0118793
0.216849
0.0173757
0.216229
0.0226982
0.215476
0.0279125
0.214599
0.0330731
0.213606
0.0382271
0.212507
0.0434159
0.211311
0.0486757
0.210028
0.0540384
0.208671
0.0595327
0.207251
0.0651852
0.205784
0.0710209
0.204285
0.0770644
0.202774
0.0833409
0.201271
0.0898771
0.199804
0.0967026
0.198404
0.103851
0.197114
0.111364
0.195989
0.119287
0.195109
0.12768
0.194586
0.136609
0.19459
0.146151
0.195386
0.156383
0.197384
0.167361
0.201195
0.179079
0.207588
0.191409
0.217219
0.204187
0.229798
0.217428
0.228555
0.246676
0.222951
0.00626933
0.22267
0.0121608
0.222261
0.0177842
0.221734
0.023225
0.221098
0.0285486
0.220362
0.0338092
0.219536
0.0390535
0.21863
0.0443218
0.217656
0.0496494
0.216628
0.0550669
0.215559
0.0606015
0.214466
0.0662778
0.213369
0.0721186
0.212287
0.0781456
0.211248
0.0843803
0.210281
0.0908444
0.209422
0.0975612
0.208718
0.104556
0.208227
0.111855
0.208025
0.119489
0.208215
0.127489
0.208938
0.135886
0.210386
0.144703
0.212823
0.153947
0.216594
0.163589
0.222118
0.173554
0.229843
0.183685
0.240334
0.193696
0.254505
0.203257
0.210115
0.272945
0.228374
0.00638855
0.228144
0.012391
0.227811
0.0181171
0.227384
0.0236517
0.226873
0.0290599
0.226287
0.0343951
0.225638
0.0397028
0.224937
0.0450225
0.224199
0.0503878
0.223438
0.0558278
0.222672
0.0613675
0.221921
0.0670291
0.221207
0.0728325
0.220557
0.0787955
0.220002
0.084935
0.21958
0.0912669
0.219335
0.0978062
0.219322
0.104568
0.219612
0.111565
0.220293
0.118809
0.221476
0.126306
0.223307
0.134055
0.22597
0.14204
0.229696
0.150221
0.234763
0.158522
0.241499
0.166818
0.250282
0.174903
0.261554
0.182424
0.275785
0.189026
0.193624
0.292276
0.233929
0.00647975
0.233754
0.0125667
0.233501
0.0183696
0.23318
0.0239724
0.232801
0.0294393
0.232374
0.0348223
0.23191
0.040166
0.231425
0.0455081
0.230932
0.0508805
0.23045
0.0563102
0.229997
0.0618199
0.229598
0.0674288
0.229277
0.0731533
0.229065
0.0790069
0.228999
0.0850014
0.22912
0.0911458
0.229479
0.0974471
0.230138
0.103909
0.231169
0.110533
0.232666
0.117312
0.234739
0.124233
0.237523
0.131271
0.241183
0.13838
0.245911
0.145493
0.251925
0.152508
0.259467
0.159276
0.268777
0.165592
0.280033
0.171168
0.293326
0.175732
0.178772
0.308178
0.23962
0.00654145
0.239501
0.012685
0.239333
0.0185377
0.239124
0.024182
0.238882
0.0296805
0.238621
0.0350841
0.238351
0.0404355
0.238089
0.0457707
0.23785
0.0511195
0.237653
0.0565065
0.237521
0.0619517
0.237479
0.0674712
0.237555
0.0730775
0.237782
0.0787797
0.238199
0.084584
0.238852
0.0904931
0.239793
0.0965058
0.241086
0.102617
0.242804
0.108815
0.245036
0.115081
0.247883
0.121386
0.251466
0.127688
0.255919
0.133927
0.261391
0.140021
0.268038
0.145861
0.276009
0.151305
0.285422
0.156179
0.296323
0.160268
0.308698
0.163357
0.165182
0.322288
0.245448
0.00657236
0.24539
0.0127435
0.245309
0.0186179
0.245215
0.024276
0.245117
0.0297787
0.245026
0.0351749
0.244956
0.0405056
0.244922
0.0458046
0.244942
0.0510994
0.245037
0.0564122
0.245229
0.06176
0.245544
0.0671555
0.246014
0.0726074
0.246673
0.0781206
0.247562
0.0836958
0.248725
0.0893298
0.250216
0.0950145
0.252097
0.100736
0.254436
0.106475
0.257313
0.112203
0.260818
0.117881
0.265049
0.123458
0.270109
0.128867
0.276105
0.134025
0.283136
0.13883
0.291283
0.143158
0.300591
0.14687
0.31105
0.149809
0.322592
0.151816
0.15276
0.335013
0.251418
0.00657148
0.251421
0.0127403
0.251432
0.0186076
0.251456
0.0242512
0.251505
0.0297301
0.251589
0.0350909
0.251722
0.0403725
0.25192
0.0456064
0.252202
0.0508179
0.252588
0.0560262
0.253102
0.0612456
0.253772
0.0664855
0.254629
0.0717509
0.255707
0.0770425
0.257046
0.0823565
0.258691
0.0876846
0.260693
0.093013
0.263107
0.0983223
0.265996
0.103586
0.269429
0.108771
0.273478
0.113832
0.278219
0.118716
0.283728
0.123359
0.290072
0.127681
0.29731
0.131593
0.305473
0.134995
0.314565
0.137779
0.324537
0.139836
0.335293
0.14106
0.141393
0.346661
0.257532
0.00653805
0.257599
0.0126738
0.257702
0.0185047
0.257848
0.0241053
0.258045
0.0295322
0.258307
0.0348297
0.258645
0.0400344
0.259076
0.0451754
0.259618
0.0502753
0.260294
0.0553509
0.261126
0.0604135
0.262142
0.0654695
0.263372
0.0705206
0.26485
0.0755639
0.266615
0.0805918
0.268708
0.0855919
0.271174
0.0905465
0.274064
0.0954322
0.277431
0.100219
0.281331
0.104871
0.28582
0.109343
0.290952
0.113584
0.296778
0.117533
0.303337
0.121122
0.310653
0.124276
0.318728
0.126919
0.327536
0.128972
0.337011
0.130361
0.347049
0.131021
0.130933
0.35751
0.263794
0.00647161
0.263925
0.0125433
0.264121
0.018308
0.264389
0.0238371
0.264738
0.029184
0.265176
0.0343909
0.265719
0.0394916
0.266382
0.0445129
0.267182
0.0494749
0.268141
0.0543918
0.269282
0.0592723
0.270632
0.06412
0.272219
0.0689338
0.274075
0.0737078
0.276235
0.0784317
0.278737
0.0830902
0.28162
0.0876631
0.284927
0.092125
0.288702
0.0964451
0.292986
0.100587
0.297821
0.104508
0.303243
0.108162
0.309281
0.111495
0.315951
0.114451
0.323256
0.116972
0.331176
0.118999
0.339669
0.120479
0.348664
0.121366
0.358064
0.121622
0.121247
0.367749
0.270207
0.00637197
0.270402
0.0123485
0.270692
0.0180174
0.271083
0.0234464
0.271581
0.028686
0.272196
0.0337755
0.272942
0.0387463
0.273832
0.0436228
0.274884
0.0484225
0.276118
0.0531574
0.277557
0.0578336
0.279225
0.0624526
0.281147
0.0670109
0.283355
0.0715006
0.285877
0.0759092
0.288747
0.08022
0.291999
0.0844116
0.295665
0.0884583
0.29978
0.0923301
0.304374
0.0959928
0.309475
0.0994081
0.315102
0.102535
0.321269
0.105328
0.327974
0.107745
0.335206
0.10974
0.342932
0.111273
0.351103
0.112308
0.359651
0.112818
0.368485
0.112787
0.112225
0.377508
0.276774
0.00623924
0.277033
0.0120895
0.277417
0.0176334
0.277929
0.0229343
0.278575
0.0280397
0.279364
0.0329863
0.280308
0.0378027
0.281419
0.042511
0.282716
0.0471264
0.284214
0.0516587
0.285936
0.056112
0.287903
0.060486
0.290138
0.0647754
0.292668
0.0689709
0.295518
0.0730591
0.298715
0.0770226
0.302287
0.0808402
0.306258
0.0844871
0.310652
0.0879355
0.315491
0.0911545
0.320788
0.0941111
0.326552
0.0967705
0.332782
0.0990979
0.339468
0.101059
0.346586
0.102622
0.354099
0.10376
0.361956
0.104451
0.370091
0.104683
0.378428
0.10445
0.103771
0.386881
0.283498
0.00607378
0.28382
0.0117672
0.284297
0.0171571
0.284928
0.0223028
0.28572
0.0272483
0.286678
0.0320276
0.287814
0.0366668
0.28914
0.0411854
0.290669
0.0455969
0.292419
0.0499089
0.294407
0.0541242
0.296652
0.0582406
0.299176
0.0622522
0.301998
0.0661487
0.30514
0.0699165
0.308624
0.0735385
0.31247
0.0769946
0.316695
0.0802621
0.321315
0.0833159
0.32634
0.0861294
0.331776
0.0886749
0.337622
0.0909247
0.343868
0.0928519
0.350495
0.0944316
0.357475
0.0956423
0.364768
0.0964671
0.372324
0.0968952
0.380085
0.0969227
0.387982
0.0965531
0.0958068
0.395946
0.290384
0.00587625
0.290768
0.0113828
0.291335
0.0165907
0.292083
0.0215549
0.293015
0.0263159
0.294138
0.0309049
0.295459
0.0353457
0.296989
0.0396555
0.29874
0.0438459
0.300725
0.047923
0.302961
0.0518882
0.305464
0.0557385
0.308249
0.0594672
0.311333
0.0630641
0.314734
0.0665159
0.318466
0.0698066
0.322543
0.0729177
0.326976
0.075829
0.331772
0.0785191
0.336936
0.0809657
0.342464
0.0831465
0.348349
0.0850401
0.354574
0.0866267
0.361117
0.0878893
0.367945
0.0888142
0.375019
0.0893927
0.382293
0.0896211
0.389714
0.0895018
0.397224
0.0890431
0.088266
0.404765
0.297435
0.00564749
0.297879
0.0109381
0.298533
0.0159369
0.299394
0.0206943
0.300462
0.0252476
0.301742
0.029625
0.303239
0.0338481
0.304963
0.0379321
0.306922
0.0418868
0.309128
0.045717
0.311593
0.0494232
0.31433
0.053002
0.31735
0.0564464
0.320668
0.0597467
0.324293
0.0628903
0.328237
0.0658629
0.332507
0.0686481
0.337107
0.0712286
0.34204
0.0735865
0.347302
0.0757039
0.352885
0.0775635
0.358775
0.0791495
0.364954
0.0804482
0.371394
0.0814487
0.378065
0.0821437
0.384928
0.08253
0.39194
0.082609
0.399054
0.0823871
0.406222
0.0818751
0.0810936
0.413395
0.304654
0.00538857
0.305157
0.0104351
0.305895
0.0151988
0.306864
0.0197255
0.308062
0.0240492
0.309492
0.0281956
0.311156
0.0321836
0.313061
0.0360267
0.315215
0.0397335
0.317624
0.0433075
0.320299
0.0467487
0.323247
0.0500535
0.326479
0.0532151
0.330001
0.0562245
0.333821
0.0590705
0.337943
0.0617404
0.342371
0.0642203
0.347104
0.0664958
0.352138
0.0685526
0.357465
0.0703767
0.363073
0.0719553
0.368945
0.0732773
0.37506
0.074334
0.381389
0.0751193
0.387902
0.0756306
0.394563
0.0758687
0.401334
0.0758383
0.408173
0.0755479
0.415039
0.0750096
0.074243
0.421889
0.312046
0.00510071
0.312605
0.00987631
0.313424
0.0143801
0.314496
0.0186536
0.315817
0.0227275
0.317388
0.0266247
0.31921
0.0303621
0.321285
0.0339517
0.323618
0.0374004
0.326214
0.0407113
0.329079
0.0438839
0.332218
0.0469145
0.335636
0.0497972
0.339336
0.0525237
0.343323
0.0550843
0.347595
0.0574683
0.352151
0.0596641
0.356986
0.0616603
0.362093
0.0634457
0.36746
0.0650098
0.373072
0.0663438
0.378908
0.0674405
0.384947
0.068295
0.391162
0.0689049
0.397522
0.0692708
0.403994
0.0693963
0.410544
0.0692881
0.417136
0.0689558
0.423734
0.0684119
0.0676742
0.430303
0.319615
0.00478521
0.320227
0.00926425
0.321122
0.0134848
0.322292
0.0174839
0.32373
0.0212892
0.325434
0.024921
0.327402
0.0283942
0.329635
0.0317192
0.332133
0.0349019
0.3349
0.0379448
0.337936
0.0408471
0.341245
0.0436056
0.344828
0.0462149
0.348683
0.0486679
0.352811
0.0509566
0.357207
0.0530719
0.361867
0.0550048
0.366781
0.0567463
0.371938
0.0582881
0.377325
0.0596229
0.382924
0.0607449
0.388715
0.0616501
0.394673
0.0623364
0.400774
0.0628044
0.406988
0.0630566
0.413286
0.0630985
0.419636
0.0629377
0.426007
0.0625844
0.432369
0.0620505
0.0613523
0.438691
0.327365
0.00444345
0.328028
0.00860163
0.328996
0.0125168
0.330258
0.0162219
0.331805
0.0197414
0.333633
0.0230932
0.335737
0.0262902
0.338115
0.0293414
0.340765
0.0322518
0.343687
0.0350234
0.346878
0.0376556
0.350338
0.0401454
0.354065
0.0424881
0.358055
0.0446781
0.362303
0.0467086
0.366802
0.0485724
0.371544
0.0502627
0.376518
0.0517727
0.381709
0.0530967
0.387102
0.0542297
0.392679
0.0551686
0.398417