/*--------------------------------*- C++ -*----------------------------------*\
  =========                 |
  \\      /  F ield         | OpenFOAM: The Open Source CFD Toolbox
   \\    /   O peration     | Website:  https://openfoam.org
    \\  /    A nd           | Version:  7
     \\/     M anipulation  |
\*---------------------------------------------------------------------------*/
FoamFile
{
    version     2.0;
    format      ascii;
    class       volVectorField;
    location    "2.8";
    object      U;
}
// * * * * * * * * * * * * * * * * * * * * * * * * * * * * * * * * * * * * * //

dimensions      [0 1 -1 0 0 0 0];

internalField   nonuniform List<vector> 
2790
(
(9.94399 0.0205238 0)
(9.87572 0.0295889 0)
(9.7752 0.0359914 0)
(9.64942 0.0425587 0)
(9.50406 0.0493887 0)
(9.34003 0.0564322 0)
(9.15649 0.0638203 0)
(8.95255 0.0717166 0)
(8.72738 0.0802606 0)
(8.47998 0.0895792 0)
(8.20916 0.0997994 0)
(7.91352 0.111051 0)
(7.59154 0.123466 0)
(7.24162 0.137171 0)
(6.86216 0.152278 0)
(6.45162 0.168875 0)
(6.0087 0.187002 0)
(5.53251 0.206623 0)
(5.02279 0.227593 0)
(4.48028 0.249612 0)
(3.907 0.272176 0)
(3.30669 0.294523 0)
(2.68516 0.315616 0)
(2.05052 0.334283 0)
(1.41172 0.350599 0)
(0.797979 0.372878 0)
(0.110631 0.325003 0)
(-0.469504 -0.114863 0)
(-0.45376 -0.297096 0)
(-0.231142 -0.423815 0)
(9.9985 0.0407048 0)
(9.98145 0.0623865 0)
(9.93573 0.0791458 0)
(9.86414 0.0966323 0)
(9.77094 0.115133 0)
(9.65711 0.134499 0)
(9.522 0.154987 0)
(9.36478 0.176957 0)
(9.18463 0.200722 0)
(8.98057 0.226565 0)
(8.75141 0.25476 0)
(8.49575 0.285576 0)
(8.21205 0.319264 0)
(7.89866 0.356036 0)
(7.55387 0.396031 0)
(7.17602 0.439272 0)
(6.76361 0.485599 0)
(6.31548 0.53459 0)
(5.83108 0.585461 0)
(5.31072 0.636949 0)
(4.756 0.687195 0)
(4.17028 0.733634 0)
(3.55918 0.772937 0)
(2.93146 0.801075 0)
(2.29987 0.81373 0)
(1.6929 0.807235 0)
(1.10711 0.747222 0)
(0.658874 0.547903 0)
(0.18637 0.224566 0)
(-0.0081866 -0.453722 0)
(9.99559 0.04321 0)
(9.97555 0.0752779 0)
(9.93179 0.103356 0)
(9.86488 0.132384 0)
(9.77775 0.163075 0)
(9.67151 0.195417 0)
(9.54582 0.229763 0)
(9.40007 0.266626 0)
(9.23357 0.306495 0)
(9.04554 0.349832 0)
(8.83497 0.397097 0)
(8.60068 0.448747 0)
(8.3413 0.505215 0)
(8.05535 0.566884 0)
(7.74121 0.634027 0)
(7.39727 0.706742 0)
(7.02194 0.784843 0)
(6.61379 0.867723 0)
(6.17177 0.954186 0)
(5.69548 1.04224 0)
(5.18549 1.12886 0)
(4.64383 1.20976 0)
(4.07469 1.27913 0)
(3.48529 1.3293 0)
(2.88678 1.35005 0)
(2.29942 1.32639 0)
(1.73181 1.22074 0)
(1.21623 0.972982 0)
(0.701124 0.570137 0)
(0.358016 -0.156578 0)
(9.99403 0.0495036 0)
(9.9718 0.0932151 0)
(9.92787 0.133585 0)
(9.86223 0.174227 0)
(9.7769 0.216455 0)
(9.67294 0.260687 0)
(9.55026 0.307459 0)
(9.40842 0.357447 0)
(9.24694 0.411324 0)
(9.06523 0.46974 0)
(8.86257 0.533336 0)
(8.63806 0.602756 0)
(8.3907 0.678622 0)
(8.11936 0.7615 0)
(7.82283 0.85184 0)
(7.49984 0.949887 0)
(7.14907 1.05555 0)
(6.76928 1.16823 0)
(6.35933 1.28659 0)
(5.91845 1.40824 0)
(5.44639 1.52943 0)
(4.94388 1.64464 0)
(4.41307 1.74609 0)
(3.85819 1.82317 0)
(3.28576 1.86131 0)
(2.70636 1.84028 0)
(2.12562 1.72596 0)
(1.55424 1.47783 0)
(0.957942 1.08368 0)
(0.509423 0.502314 0)
(9.99331 0.0572192 0)
(9.96994 0.11097 0)
(9.92592 0.162121 0)
(9.86144 0.213371 0)
(9.77796 0.266385 0)
(9.67631 0.321947 0)
(9.55648 0.38074 0)
(9.41814 0.443529 0)
(9.26088 0.5111 0)
(9.08422 0.584215 0)
(8.88758 0.663631 0)
(8.67025 0.750105 0)
(8.43144 0.844372 0)
(8.17029 0.947115 0)
(7.8859 1.0589 0)
(7.5773 1.18009 0)
(7.24348 1.31069 0)
(6.88343 1.45017 0)
(6.49611 1.5972 0)
(6.08058 1.74928 0)
(5.63602 1.90236 0)
(5.162 2.05025 0)
(4.65868 2.18411 0)
(4.12714 2.29167 0)
(3.56935 2.35649 0)
(2.98886 2.35726 0)
(2.38682 2.2649 0)
(1.76639 2.04761 0)
(1.08999 1.69138 0)
(0.536652 1.15413 0)
(9.99302 0.0655455 0)
(9.96922 0.128716 0)
(9.92555 0.190135 0)
(9.86251 0.251872 0)
(9.78125 0.315613 0)
(9.6824 0.38236 0)
(9.56595 0.452921 0)
(9.43163 0.528152 0)
(9.27911 0.608934 0)
(9.10795 0.696139 0)
(8.91764 0.790633 0)
(8.70759 0.893275 0)
(8.47712 1.0049 0)
(8.2255 1.12629 0)
(7.95196 1.25811 0)
(7.65569 1.40082 0)
(7.33583 1.55454 0)
(6.99145 1.71884 0)
(6.6215 1.89252 0)
(6.22484 2.07317 0)
(5.80013 2.25678 0)
(5.34592 2.43712 0)
(4.86061 2.60511 0)
(4.34263 2.74813 0)
(3.79036 2.84946 0)
(3.20256 2.88812 0)
(2.57657 2.83816 0)
(1.91347 2.67157 0)
(1.17276 2.37397 0)
(0.549972 1.89439 0)
(9.99297 0.0740831 0)
(9.96926 0.146331 0)
(9.92636 0.217509 0)
(9.86506 0.289326 0)
(9.78639 0.363397 0)
(9.6908 0.440877 0)
(9.57828 0.522716 0)
(9.44863 0.609872 0)
(9.30155 0.70332 0)
(9.13666 0.804031 0)
(8.9535 0.912965 0)
(8.75154 1.03107 0)
(8.53016 1.15928 0)
(8.28868 1.29844 0)
(8.02639 1.44933 0)
(7.74248 1.61249 0)
(7.43608 1.78818 0)
(7.10619 1.97614 0)
(6.75161 2.17536 0)
(6.37083 2.38375 0)
(5.96194 2.59765 0)
(5.52251 2.81128 0)
(5.04943 3.01603 0)
(4.53894 3.19984 0)
(3.98663 3.34656 0)
(3.38791 3.43587 0)
(2.73727 3.44323 0)
(2.03627 3.34145 0)
(1.24177 3.11355 0)
(0.563525 2.69314 0)
(9.99306 0.0825977 0)
(9.9698 0.163626 0)
(9.92806 0.24408 0)
(9.86883 0.325519 0)
(9.79309 0.409495 0)
(9.70121 0.497264 0)
(9.59316 0.589905 0)
(9.46879 0.688468 0)
(9.32785 0.794016 0)
(9.17001 0.907608 0)
(8.99487 1.03029 0)
(8.80193 1.16311 0)
(8.59062 1.30707 0)
(8.3603 1.46314 0)
(8.11023 1.63219 0)
(7.83957 1.81489 0)
(7.54737 2.01166 0)
(7.23244 2.22248 0)
(6.89328 2.44668 0)
(6.52796 2.6826 0)
(6.13391 2.92724 0)
(5.70771 3.17564 0)
(5.24486 3.42021 0)
(4.73972 3.65004 0)
(4.18546 3.85009 0)
(3.57477 4.00076 0)
(2.89956 4.07781 0)
(2.16216 4.05233 0)
(1.31616 3.90169 0)
(0.583239 3.54017 0)
(9.99326 0.0909394 0)
(9.97072 0.180431 0)
(9.93045 0.269702 0)
(9.8736 0.360287 0)
(9.80114 0.453704 0)
(9.71338 0.551277 0)
(9.61031 0.654188 0)
(9.49179 0.76358 0)
(9.35764 0.880594 0)
(9.2076 1.00637 0)
(9.04129 1.14205 0)
(8.85829 1.28875 0)
(8.65807 1.4476 0)
(8.43999 1.61965 0)
(8.20333 1.80591 0)
(7.9472 2.00723 0)
(7.67052 2.22424 0)
(7.3719 2.45724 0)
(7.04954 2.70598 0)
(6.70104 2.96946 0)
(6.32314 3.24552 0)
(5.91148 3.53037 0)
(5.46024 3.81788 0)
(4.96194 4.09879 0)
(4.4074 4.35968 0)
(3.78644 4.58194 0)
(3.08764 4.74096 0)
(2.31279 4.80441 0)
(1.41071 4.74109 0)
(0.614341 4.44198 0)
(9.99352 0.0990049 0)
(9.9719 0.196605 0)
(9.93339 0.294234 0)
(9.87922 0.393469 0)
(9.81036 0.495821 0)
(9.72711 0.602665 0)
(9.62946 0.71527 0)
(9.51732 0.834858 0)
(9.39056 0.962647 0)
(9.24898 1.09985 0)
(9.09228 1.2477 0)
(8.92008 1.40739 0)
(8.7319 1.58016 0)
(8.52717 1.76718 0)
(8.30516 1.96961 0)
(8.06497 2.18851 0)
(7.80543 2.42479 0)
(7.525 2.67913 0)
(7.22162 2.95184 0)
(6.89249 3.2427 0)
(6.53378 3.55062 0)
(6.14027 3.87329 0)
(5.70491 4.20647 0)
(5.2184 4.54314 0)
(4.66899 4.87219 0)
(4.04293 5.17676 0)
(3.3238 5.43216 0)
(2.5099 5.60191 0)
(1.54198 5.64354 0)
(0.664113 5.41816 0)
(9.99384 0.106718 0)
(9.9733 0.212029 0)
(9.93678 0.317546 0)
(9.88555 0.424915 0)
(9.8206 0.535662 0)
(9.74219 0.651207 0)
(9.65037 0.772886 0)
(9.54508 0.901994 0)
(9.42625 1.03982 0)
(9.29375 1.18764 0)
(9.14734 1.34675 0)
(8.98673 1.51847 0)
(8.81151 1.7041 0)
(8.62116 1.90496 0)
(8.41502 2.12238 0)
(8.19221 2.35764 0)
(7.95155 2.61197 0)
(7.69144 2.8865 0)
(7.40971 3.1822 0)
(7.10331 3.49972 0)
(6.76805 3.83928 0)
(6.39809 4.2003 0)
(5.98537 4.58089 0)
(5.51898 4.97701 0)
(4.98437 5.381 0)
(4.36335 5.77928 0)
(3.63207 6.14894 0)
(2.78033 6.45061 0)
(1.73364 6.62861 0)
(0.744932 6.50332 0)
(9.9942 0.114022 0)
(9.97486 0.226607 0)
(9.94054 0.339522 0)
(9.89249 0.454489 0)
(9.83169 0.573065 0)
(9.75845 0.696707 0)
(9.6728 0.826805 0)
(9.57477 0.964717 0)
(9.46435 1.11178 0)
(9.34146 1.26935 0)
(9.20596 1.43879 0)
(9.05763 1.62147 0)
(8.89618 1.81882 0)
(8.72117 2.03227 0)
(8.53204 2.26332 0)
(8.32801 2.5135 0)
(8.10797 2.78436 0)
(7.87042 3.07753 0)
(7.61321 3.39463 0)
(7.33334 3.73733 0)
(7.02656 4.10723 0)
(6.68683 4.50573 0)
(6.30564 4.93375 0)
(5.87094 5.39104 0)
(5.36575 5.87494 0)
(4.76701 6.37786 0)
(4.04096 6.88294 0)
(3.1618 7.35342 0)
(2.02507 7.72339 0)
(0.880916 7.75753 0)
(9.99459 0.120871 0)
(9.97656 0.24026 0)
(9.9446 0.360062 0)
(9.89993 0.482074 0)
(9.84352 0.607887 0)
(9.77569 0.738991 0)
(9.69653 0.876822 0)
(9.60612 1.02278 0)
(9.50449 1.17827 0)
(9.39167 1.34467 0)
(9.2676 1.52341 0)
(9.13217 1.71594 0)
(8.98519 1.92376 0)
(8.82636 2.14843 0)
(8.65526 2.39159 0)
(8.47128 2.65501 0)
(8.27349 2.94056 0)
(8.06062 3.25032 0)
(7.8308 3.58659 0)
(7.58132 3.95201 0)
(7.30834 4.34958 0)
(7.00624 4.78281 0)
(6.66688 5.25567 0)
(6.27825 5.77244 0)
(5.82239 6.33713 0)
(5.27261 6.95187 0)
(4.58488 7.61321 0)
(3.7105 8.30076 0)
(2.48876 8.95852 0)
(1.12484 9.29407 0)
(9.99501 0.12723 0)
(9.97837 0.252924 0)
(9.94889 0.379081 0)
(9.90777 0.507568 0)
(9.85594 0.640009 0)
(9.79375 0.777923 0)
(9.72133 0.922778 0)
(9.63881 1.07601 0)
(9.54632 1.23906 0)
(9.44394 1.41335 0)
(9.33173 1.60034 0)
(9.20968 1.80154 0)
(9.07774 2.01851 0)
(8.93579 2.25291 0)
(8.78358 2.50652 0)
(8.62072 2.78128 0)
(8.4466 3.07934 0)
(8.26029 3.40318 0)
(8.0604 3.75569 0)
(7.84489 4.14033 0)
(7.61075 4.5614 0)
(7.35355 5.02432 0)
(7.06668 5.53602 0)
(6.74007 6.10552 0)
(6.35777 6.74452 0)
(5.89419 7.46815 0)
(5.30125 8.29563 0)
(4.50973 9.24761 0)
(3.26993 10.3422 0)
(1.60581 11.3609 0)
(9.99544 0.133072 0)
(9.98026 0.264547 0)
(9.95337 0.396508 0)
(9.91593 0.530878 0)
(9.86883 0.669311 0)
(9.81246 0.813346 0)
(9.74698 0.964476 0)
(9.67259 1.12417 0)
(9.58947 1.29387 0)
(9.49782 1.47504 0)
(9.39778 1.66917 0)
(9.28949 1.87778 0)
(9.17304 2.1025 0)
(9.04848 2.34503 0)
(8.9158 2.60726 0)
(8.77489 2.89125 0)
(8.62552 3.19935 0)
(8.46724 3.53433 0)
(8.29931 3.89948 0)
(8.12062 4.2989 0)
(7.92946 4.7378 0)
(7.72328 5.22303 0)
(7.49827 5.76382 0)
(7.24854 6.37298 0)
(6.96464 7.06897 0)
(6.63108 7.87966 0)
(6.21512 8.85055 0)
(5.66737 10.0648 0)
(4.69263 11.7311 0)
(2.6895 14.5964 0)
(0.160913 -0.168795 0)
(0.365302 -0.148858 0)
(0.579059 -0.121068 0)
(0.766352 -0.0970788 0)
(0.922043 -0.0780261 0)
(1.0518 -0.0630665 0)
(1.16195 -0.0513425 0)
(1.25706 -0.0421606 0)
(1.34029 -0.0349104 0)
(1.41387 -0.0290707 0)
(1.47936 -0.0242515 0)
(1.53785 -0.0201939 0)
(1.59015 -0.0166767 0)
(1.63668 -0.0133396 0)
(1.67692 -0.00962131 0)
(1.70896 -0.00508139 0)
(1.73029 1.64949e-05 0)
(1.73998 0.00459008 0)
(1.73986 0.00724475 0)
(1.73292 0.00822011 0)
(1.72098 0.00818061 0)
(1.70509 0.0076976 0)
(1.68836 0.00625336 0)
(1.67641 0.00393172 0)
(1.675 0.000949629 0)
(1.68714 -0.00211247 0)
(1.71242 -0.00498489 0)
(1.74918 -0.00762383 0)
(1.79464 -0.00959897 0)
(1.85461 -0.00930253 0)
(0.124907 -0.361757 0)
(0.31927 -0.333096 0)
(0.511347 -0.278259 0)
(0.68205 -0.228646 0)
(0.827316 -0.188814 0)
(0.951829 -0.157466 0)
(1.06062 -0.132909 0)
(1.15732 -0.113684 0)
(1.24447 -0.0984614 0)
(1.32384 -0.0860929 0)
(1.39662 -0.0757395 0)
(1.46364 -0.0669153 0)
(1.52561 -0.0592899 0)
(1.58331 -0.0521698 0)
(1.6372 -0.0441821 0)
(1.68649 -0.0340884 0)
(1.7289 -0.0225792 0)
(1.76218 -0.0121022 0)
(1.78716 -0.00389063 0)
(1.80744 0.00398062 0)
(1.82422 0.0108607 0)
(1.83515 0.0134879 0)
(1.84287 0.0108895 0)
(1.85168 0.00365985 0)
(1.86188 -0.00625209 0)
(1.87453 -0.016812 0)
(1.88971 -0.0267727 0)
(1.90697 -0.0349272 0)
(1.92625 -0.0399335 0)
(1.95505 -0.0380478 0)
(0.0912687 -0.556591 0)
(0.252085 -0.518173 0)
(0.397691 -0.437383 0)
(0.527974 -0.363438 0)
(0.638181 -0.303756 0)
(0.732612 -0.256466 0)
(0.814896 -0.219146 0)
(0.88764 -0.189641 0)
(0.952733 -0.165987 0)
(1.0115 -0.146473 0)
(1.06475 -0.129849 0)
(1.11287 -0.115506 0)
(1.15617 -0.10333 0)
(1.19543 -0.0927131 0)
(1.23208 -0.0812958 0)
(1.26642 -0.0656685 0)
(1.29662 -0.0461831 0)
(1.31826 -0.0303833 0)
(1.33092 -0.0235366 0)
(1.34222 -0.019716 0)
(1.34479 -0.012595 0)
(1.33042 -0.00583929 0)
(1.29852 -0.0038183 0)
(1.25408 -0.00671898 0)
(1.20662 -0.0116857 0)
(1.16179 -0.0157725 0)
(1.1223 -0.0182663 0)
(1.08667 -0.0214654 0)
(1.0602 -0.024872 0)
(1.05543 -0.027155 0)
(0.0607033 -0.698494 0)
(0.17868 -0.644194 0)
(0.267742 -0.540648 0)
(0.35014 -0.448577 0)
(0.416596 -0.374709 0)
(0.47224 -0.316108 0)
(0.519011 -0.26982 0)
(0.558456 -0.233175 0)
(0.591862 -0.203747 0)
(0.620218 -0.179365 0)
(0.644092 -0.158316 0)
(0.663491 -0.139699 0)
(0.677831 -0.123668 0)
(0.686416 -0.110623 0)
(0.691852 -0.0993722 0)
(0.696929 -0.0861582 0)
(0.70509 -0.0676404 0)
(0.706272 -0.0417118 0)
(0.657726 -0.0153142 0)
(0.582551 0.00436384 0)
(0.520539 0.0245654 0)
(0.47041 0.0426217 0)
(0.418668 0.0519838 0)
(0.366735 0.0510069 0)
(0.318838 0.0404324 0)
(0.280141 0.023686 0)
(0.266782 0.00528798 0)
(0.268072 -0.0117636 0)
(0.283862 -0.0318091 0)
(0.322451 -0.0525272 0)
(0.029902 -0.790702 0)
(0.0970033 -0.715667 0)
(0.122255 -0.592962 0)
(0.152114 -0.48911 0)
(0.168128 -0.405782 0)
(0.177905 -0.339436 0)
(0.181297 -0.286891 0)
(0.179074 -0.245209 0)
(0.172018 -0.211774 0)
(0.160916 -0.184212 0)
(0.146491 -0.160402 0)
(0.129137 -0.138707 0)
(0.108244 -0.118254 0)
(0.0772654 -0.0989359 0)
(0.0340974 -0.0792168 0)
(-0.0213863 -0.0548619 0)
(-0.0830809 -0.0228082 0)
(-0.136644 0.0128508 0)
(-0.16424 0.0380994 0)
(-0.19413 0.0495869 0)
(-0.220261 0.0558775 0)
(-0.242858 0.0621647 0)
(-0.262269 0.063739 0)
(-0.276969 0.0563503 0)
(-0.287292 0.0401154 0)
(-0.293917 0.0179756 0)
(-0.293293 -0.00471958 0)
(-0.283026 -0.0249315 0)
(-0.274448 -0.0449829 0)
(-0.268575 -0.0609881 0)
(-0.00300226 -0.824396 0)
(0.00614208 -0.725404 0)
(-0.035005 -0.586959 0)
(-0.0623184 -0.476585 0)
(-0.101324 -0.387476 0)
(-0.142945 -0.316699 0)
(-0.188576 -0.260609 0)
(-0.237633 -0.215894 0)
(-0.289766 -0.179615 0)
(-0.344527 -0.14932 0)
(-0.401019 -0.12298 0)
(-0.457782 -0.099044 0)
(-0.513307 -0.0766896 0)
(-0.566564 -0.0559101 0)
(-0.616322 -0.0366746 0)
(-0.66099 -0.0186793 0)
(-0.699509 -0.000152001 0)
(-0.722247 0.0184704 0)
(-0.740251 0.0376192 0)
(-0.754818 0.0533255 0)
(-0.765575 0.0623471 0)
(-0.771555 0.0667232 0)
(-0.772815 0.0655109 0)
(-0.770527 0.0565457 0)
(-0.767044 0.0401156 0)
(-0.764268 0.0188804 0)
(-0.762106 -0.0037285 0)
(-0.758239 -0.0265327 0)
(-0.758236 -0.046816 0)
(-0.761073 -0.0623229 0)
(-0.0417386 -0.791376 0)
(-0.0958211 -0.667935 0)
(-0.198931 -0.524946 0)
(-0.287729 -0.413224 0)
(-0.38048 -0.32427 0)
(-0.471517 -0.254437 0)
(-0.560221 -0.199821 0)
(-0.645305 -0.157183 0)
(-0.725658 -0.12363 0)
(-0.800505 -0.0967735 0)
(-0.869293 -0.0747037 0)
(-0.931566 -0.0558964 0)
(-0.987048 -0.0392289 0)
(-1.03579 -0.0239333 0)
(-1.07828 -0.0092949 0)
(-1.1134 0.00515514 0)
(-1.13874 0.0196922 0)
(-1.15769 0.0341856 0)
(-1.17065 0.0475346 0)
(-1.1783 0.0578319 0)
(-1.18127 0.0640386 0)
(-1.17971 0.0659695 0)
(-1.17429 0.0626569 0)
(-1.16671 0.0528111 0)
(-1.15935 0.0366599 0)
(-1.15408 0.0162148 0)
(-1.1514 -0.0056972 0)
(-1.15059 -0.026972 0)
(-1.15411 -0.0468652 0)
(-1.15856 -0.0619809 0)
(-0.0862481 -0.691454 0)
(-0.20079 -0.549944 0)
(-0.364189 -0.408814 0)
(-0.508882 -0.302336 0)
(-0.646599 -0.221652 0)
(-0.772964 -0.161076 0)
(-0.887375 -0.115682 0)
(-0.989829 -0.0819324 0)
(-1.08064 -0.0570176 0)
(-1.16044 -0.0384922 0)
(-1.23005 -0.0243535 0)
(-1.29026 -0.0130724 0)
(-1.34105 -0.00356047 0)
(-1.38349 0.00517068 0)
(-1.41824 0.0137513 0)
(-1.44668 0.0227563 0)
(-1.46973 0.0326912 0)
(-1.48679 0.0431767 0)
(-1.49764 0.0526507 0)
(-1.50278 0.0595526 0)
(-1.50299 0.0630991 0)
(-1.49901 0.0628567 0)
(-1.49188 0.0580644 0)
(-1.48334 0.0479399 0)
(-1.47548 0.0327198 0)
(-1.47012 0.0139478 0)
(-1.4682 -0.00620948 0)
(-1.46991 -0.0260888 0)
(-1.47577 -0.0447821 0)
(-1.4808 -0.0586476 0)
(-0.13694 -0.526257 0)
(-0.310886 -0.376426 0)
(-0.529606 -0.248311 0)
(-0.720648 -0.157704 0)
(-0.892672 -0.0924257 0)
(-1.04262 -0.0469086 0)
(-1.16894 -0.0176827 0)
(-1.27404 0.000336762 0)
(-1.36193 0.0114138 0)
(-1.43586 0.0182294 0)
(-1.49846 0.0225926 0)
(-1.55164 0.0256905 0)
(-1.59755 0.0284512 0)
(-1.63685 0.0314703 0)
(-1.67013 0.0352015 0)
(-1.69775 0.0399306 0)
(-1.71976 0.045639 0)
(-1.73595 0.0517825 0)
(-1.74626 0.0572217 0)
(-1.75108 0.0607693 0)
(-1.75112 0.0616936 0)
(-1.7473 0.0595036 0)
(-1.74088 0.0535841 0)
(-1.73349 0.0434072 0)
(-1.72701 0.0291883 0)
(-1.72315 0.0121505 0)
(-1.72309 -0.00599582 0)
(-1.72757 -0.0239896 0)
(-1.7357 -0.0409692 0)
(-1.74135 -0.0532172 0)
(-0.198456 -0.309807 0)
(-0.442368 -0.162218 0)
(-0.7143 -0.0341793 0)
(-0.926183 0.0296316 0)
(-1.1012 0.0608604 0)
(-1.24411 0.0738077 0)
(-1.36331 0.0778393 0)
(-1.46423 0.077391 0)
(-1.54993 0.074493 0)
(-1.623 0.0705292 0)
(-1.68554 0.0664029 0)
(-1.73918 0.0626165 0)
(-1.78504 0.0594329 0)
(-1.82393 0.0571346 0)
(-1.85653 0.0560977 0)
(-1.88342 0.0565219 0)
(-1.90489 0.0581831 0)
(-1.921 0.0603721 0)
(-1.93177 0.0620895 0)
(-1.93746 0.0624332 0)
(-1.9387 0.060837 0)
(-1.93645 0.0568892 0)
(-1.93205 0.0500945 0)
(-1.92704 0.0400366 0)
(-1.92308 0.0268665 0)
(-1.92172 0.0115527 0)
(-1.9243 -0.00456116 0)
(-1.9318 -0.020576 0)
(-1.94228 -0.0356986 0)
(-1.94866 -0.0464247 0)
(-0.264653 0.0519412 0)
(-0.541615 0.170279 0)
(-0.821958 0.198387 0)
(-1.04313 0.206677 0)
(-1.22563 0.200847 0)
(-1.37584 0.187842 0)
(-1.49985 0.171907 0)
(-1.60272 0.155192 0)
(-1.68863 0.138902 0)
(-1.76091 0.123941 0)
(-1.82226 0.110855 0)
(-1.87466 0.0996692 0)
(-1.91937 0.0901648 0)
(-1.95717 0.0823453 0)
(-1.98876 0.0765004 0)
(-2.0149 0.0727538 0)
(-2.03619 0.0706769 0)
(-2.05282 0.0693408 0)
(-2.06477 0.0677206 0)
(-2.07212 0.0650966 0)
(-2.07535 0.0611366 0)
(-2.07547 0.0556159 0)
(-2.07385 0.0481531 0)
(-2.07198 0.0383389 0)
(-2.07125 0.0261933 0)
(-2.07306 0.0124661 0)
(-2.07877 -0.0017222 0)
(-2.0893 -0.0157345 0)
(-2.10223 -0.0289847 0)
(-2.10945 -0.0383847 0)
(-0.288377 0.422924 0)
(-0.595187 0.467212 0)
(-0.909579 0.441454 0)
(-1.14881 0.399283 0)
(-1.33824 0.35279 0)
(-1.4887 0.307831 0)
(-1.60975 0.267414 0)
(-1.70863 0.232199 0)
(-1.79037 0.201586 0)
(-1.8586 0.175359 0)
(-1.91637 0.153507 0)
(-1.966 0.135354 0)
(-2.00867 0.11989 0)
(-2.04486 0.106743 0)
(-2.07515 0.0962824 0)
(-2.10054 0.0887258 0)
(-2.12193 0.083429 0)
(-2.13962 0.0790985 0)
(-2.15339 0.0745315 0)
(-2.16297 0.0691474 0)
(-2.16869 0.0629436 0)
(-2.17156 0.0559962 0)
(-2.17306 0.0480411 0)
(-2.17465 0.0385841 0)
(-2.17752 0.0274351 0)
(-2.18287 0.0151275 0)
(-2.19215 0.0026644 0)
(-2.20596 -0.0094015 0)
(-2.2215 -0.0207845 0)
(-2.22969 -0.028996 0)
(-0.33279 0.843812 0)
(-0.688455 0.82333 0)
(-1.03139 0.708341 0)
(-1.27137 0.59617 0)
(-1.45181 0.501694 0)
(-1.59027 0.422035 0)
(-1.69912 0.356543 0)
(-1.78744 0.303581 0)
(-1.86055 0.259525 0)
(-1.92151 0.222658 0)
(-1.97341 0.192882 0)
(-2.01897 0.168826 0)
(-2.05909 0.148199 0)
(-2.09343 0.130078 0)
(-2.1222 0.115258 0)
(-2.14675 0.104411 0)
(-2.1685 0.0966354 0)
(-2.18785 0.0899789 0)
(-2.2041 0.0828519 0)
(-2.21646 0.0748221 0)
(-2.22496 0.0663942 0)
(-2.23074 0.0581146 0)
(-2.2355 0.0498492 0)
(-2.24078 0.040905 0)
(-2.24756 0.0307769 0)
(-2.25674 0.0197544 0)
(-2.26975 0.00877707 0)
(-2.28724 -0.00149718 0)
(-2.30541 -0.0110308 0)
(-2.31472 -0.0180642 0)
(-0.421615 1.34544 0)
(-0.851948 1.22929 0)
(-1.21344 0.981154 0)
(-1.42473 0.776418 0)
(-1.57256 0.633294 0)
(-1.68436 0.520141 0)
(-1.77057 0.431692 0)
(-1.8415 0.364899 0)
(-1.9022 0.310365 0)
(-1.95321 0.264005 0)
(-1.99708 0.227594 0)
(-2.03756 0.199526 0)
(-2.07518 0.175109 0)
(-2.10787 0.152409 0)
(-2.13493 0.13336 0)
(-2.1584 0.119877 0)
(-2.18078 0.110681 0)
(-2.20251 0.102572 0)
(-2.22211 0.0932514 0)
(-2.23784 0.0825161 0)
(-2.24934 0.0717019 0)
(-2.25799 0.0621059 0)
(-2.26601 0.0537333 0)
(-2.2751 0.0455022 0)
(-2.28603 0.0364269 0)
(-2.29931 0.0265232 0)
(-2.31618 0.0167644 0)
(-2.33745 0.00806231 0)
(-2.35862 0.000392209 0)
(-2.3691 -0.0053469 0)
(-0.60838 2.22817 0)
(-1.12674 1.83917 0)
(-1.49506 1.27081 0)
(-1.62252 0.889525 0)
(-1.69933 0.722467 0)
(-1.76984 0.593542 0)
(-1.82236 0.488292 0)
(-1.86922 0.413602 0)
(-1.91606 0.352403 0)
(-1.95589 0.296539 0)
(-1.98935 0.255102 0)
(-2.02389 0.226799 0)
(-2.06006 0.201198 0)
(-2.09208 0.174107 0)
(-2.1172 0.150255 0)
(-2.139 0.134749 0)
(-2.1622 0.125663 0)
(-2.18742 0.117278 0)
(-2.21161 0.106059 0)
(-2.23144 0.09225 0)
(-2.246 0.07858 0)
(-2.25724 0.0675798 0)
(-2.26831 0.0593958 0)
(-2.28128 0.0522147 0)
(-2.29659 0.0443068 0)
(-2.31416 0.0353708 0)
(-2.33491 0.0265386 0)
(-2.35976 0.0192423 0)
(-2.38415 0.0136992 0)
(-2.39625 0.00970724 0)
(9.9959 0.138469 0)
(9.98224 0.275286 0)
(9.95809 0.412597 0)
(9.9245 0.55237 0)
(9.88237 0.696283 0)
(9.83209 0.845887 0)
(9.77389 1.00269 0)
(9.70801 1.16816 0)
(9.63475 1.34377 0)
(9.55437 1.53097 0)
(9.46714 1.73126 0)
(9.37332 1.94619 0)
(9.27319 2.17738 0)
(9.167 2.42658 0)
(9.055 2.69569 0)
(8.93741 2.98685 0)
(8.81443 3.3025 0)
(8.68619 3.64554 0)
(8.55276 4.01948 0)
(8.41416 4.42869 0)
(8.27032 4.87881 0)
(8.12113 5.37729 0)
(7.96656 5.9343 0)
(7.80689 6.5642 0)
(7.64339 7.28805 0)
(7.4811 8.13844 0)
(7.33344 9.16939 0)
(7.29088 10.4745 0)
(7.75306 12.1988 0)
(7.94331 14.9186 0)
(9.99638 0.143431 0)
(9.98433 0.285145 0)
(9.96304 0.427332 0)
(9.93348 0.57199 0)
(9.89651 0.72081 0)
(9.85254 0.87535 0)
(9.80186 1.03712 0)
(9.74478 1.20759 0)
(9.68166 1.38821 0)
(9.61286 1.58045 0)
(9.53879 1.78578 0)
(9.45985 2.00573 0)
(9.37649 2.24191 0)
(9.28917 2.49604 0)
(9.19843 2.77002 0)
(9.10485 3.06593 0)
(9.00906 3.38623 0)
(8.91184 3.73374 0)
(8.81409 4.11191 0)
(8.717 4.52501 0)
(8.62218 4.97844 0)
(8.532 5.47923 0)
(8.4502 6.03667 0)
(8.38305 6.66335 0)
(8.34178 7.37645 0)
(8.34853 8.19935 0)
(8.44227 9.16209 0)
(8.67908 10.2978 0)
(9.32804 11.5505 0)
(9.82147 12.6332 0)
(9.99688 0.14787 0)
(9.9865 0.293961 0)
(9.96817 0.44049 0)
(9.94279 0.58947 0)
(9.91115 0.742596 0)
(9.87369 0.90142 0)
(9.83074 1.06744 0)
(9.78268 1.24211 0)
(9.72994 1.42686 0)
(9.67299 1.62312 0)
(9.61233 1.83233 0)
(9.54853 2.05598 0)
(9.48219 2.29562 0)
(9.41402 2.55289 0)
(9.34482 2.82961 0)
(9.2755 3.12777 0)
(9.20717 3.44964 0)
(9.14116 3.79785 0)
(9.07916 4.17551 0)
(9.0234 4.58638 0)
(8.97688 5.03505 0)
(8.9439 5.52718 0)
(8.93074 6.06973 0)
(8.94695 6.67108 0)
(9.00702 7.34061 0)
(9.13312 8.08689 0)
(9.35624 8.91165 0)
(9.68577 9.80351 0)
(10.2511 10.7106 0)
(10.9378 11.422 0)
(9.9974 0.151734 0)
(9.98873 0.301628 0)
(9.97345 0.451904 0)
(9.95235 0.604579 0)
(9.92617 0.76134 0)
(9.89536 0.923722 0)
(9.8603 1.0932 0)
(9.82142 1.27119 0)
(9.77922 1.45909 0)
(9.73426 1.65828 0)
(9.68716 1.87014 0)
(9.6386 2.09608 0)
(9.58937 2.33755 0)
(9.54037 2.59609 0)
(9.49265 2.87336 0)
(9.44744 3.17115 0)
(9.40622 3.49147 0)
(9.37082 3.83657 0)
(9.34353 4.20903 0)
(9.32734 4.61181 0)
(9.32617 5.04831 0)
(9.34532 5.52235 0)
(9.39203 6.03804 0)
(9.47621 6.59932 0)
(9.61103 7.20892 0)
(9.81332 7.86643 0)
(10.1058 8.56467 0)
(10.4969 9.28886 0)
(11.0533 10.0288 0)
(11.8447 10.6713 0)
(9.99792 0.154976 0)
(9.991 0.308052 0)
(9.97882 0.461439 0)
(9.96208 0.617141 0)
(9.94144 0.776825 0)
(9.91736 0.941995 0)
(9.89027 1.11409 0)
(9.86065 1.29448 0)
(9.82906 1.48452 0)
(9.79614 1.6855 0)
(9.76259 1.89872 0)
(9.72923 2.12549 0)
(9.69697 2.36714 0)
(9.6669 2.62504 0)
(9.64027 2.90065 0)
(9.61855 3.19549 0)
(9.60353 3.51121 0)
(9.59738 3.8496 0)
(9.6028 4.21255 0)
(9.62316 4.60212 0)
(9.66279 5.02038 0)
(9.7272 5.46936 0)
(9.82346 5.95064 0)
(9.96052 6.46489 0)
(10.1494 7.01102 0)
(10.4031 7.58511 0)
(10.739 8.179 0)
(11.1684 8.778 0)
(11.7144 9.37055 0)
(12.4655 9.88182 0)
(9.99845 0.157553 0)
(9.99329 0.313148 0)
(9.98425 0.468969 0)
(9.9719 0.62699 0)
(9.95683 0.788845 0)
(9.93952 0.955999 0)
(9.92042 1.12984 0)
(9.90005 1.31168 0)
(9.87902 1.5028 0)
(9.85804 1.7044 0)
(9.8379 1.91769 0)
(9.8195 2.14383 0)
(9.80386 2.38401 0)
(9.79221 2.63941 0)
(9.78594 2.91122 0)
(9.7867 3.20067 0)
(9.79646 3.50899 0)
(9.81758 3.83743 0)
(9.85293 4.18721 0)
(9.90598 4.55945 0)
(9.98102 4.95503 0)
(10.0833 5.37443 0)
(10.219 5.81737 0)
(10.3958 6.28238 0)
(10.6225 6.76619 0)
(10.9086 7.26303 0)
(11.2655 7.76366 0)
(11.7008 8.25255 0)
(12.2155 8.71301 0)
(12.8892 9.10362 0)
(9.99898 0.159425 0)
(9.99559 0.316839 0)
(9.98969 0.47438 0)
(9.98172 0.633978 0)
(9.97222 0.797221 0)
(9.96164 0.965524 0)
(9.95046 1.14021 0)
(9.93924 1.32253 0)
(9.92864 1.51366 0)
(9.91939 1.71471 0)
(9.91235 1.92677 0)
(9.90848 2.15086 0)
(9.90891 2.38797 0)
(9.9149 2.63908 0)
(9.92797 2.9051 0)
(9.94984 3.18693 0)
(9.98254 3.48538 0)
(10.0285 3.80117 0)
(10.0905 4.13486 0)
(10.1719 4.48675 0)
(10.2767 4.85672 0)
(10.4094 5.24407 0)
(10.5754 5.64723 0)
(10.7805 6.06337 0)
(11.0312 6.48802 0)
(11.3338 6.91448 0)
(11.6943 7.33342 0)
(12.117 7.73144 0)
(12.5956 8.09401 0)
(13.1992 8.4007 0)
(9.99951 0.160559 0)
(9.99788 0.319059 0)
(9.99508 0.477575 0)
(9.99147 0.637979 0)
(9.98746 0.801802 0)
(9.98352 0.970397 0)
(9.98014 1.14501 0)
(9.97789 1.32682 0)
(9.97745 1.5169 0)
(9.97959 1.71625 0)
(9.9852 1.92581 0)
(9.99528 2.14646 0)
(10.011 2.37899 0)
(10.0336 2.62415 0)
(10.0648 2.88259 0)
(10.1061 3.15486 0)
(10.1596 3.44137 0)
(10.2276 3.74237 0)
(10.3128 4.05782 0)
(10.4181 4.38735 0)
(10.5471 4.7301 0)
(10.7034 5.08455 0)
(10.8913 5.44831 0)
(11.115 5.81785 0)
(11.3789 6.18828 0)
(11.6866 6.55306 0)
(12.041 6.90392 0)
(12.4436 7.23058 0)
(12.8867 7.52194 0)
(13.4282 7.76675 0)
(10 0.160926 0)
(10.0001 0.319753 0)
(10.0004 0.478474 0)
(10.001 0.638891 0)
(10.0024 0.80247 0)
(10.005 0.970488 0)
(10.0092 1.14412 0)
(10.0156 1.32443 0)
(10.025 1.5124 0)
(10.0381 1.70892 0)
(10.0557 1.91477 0)
(10.079 2.13067 0)
(10.1091 2.35723 0)
(10.1472 2.59496 0)
(10.1949 2.84425 0)
(10.2537 3.10534 0)
(10.3257 3.37828 0)
(10.4129 3.66289 0)
(10.5177 3.95869 0)
(10.6426 4.26479 0)
(10.7905 4.57981 0)
(10.9643 4.90174 0)
(11.1671 5.22777 0)
(11.4018 5.55422 0)
(11.671 5.87633 0)
(11.9765 6.18827 0)
(12.3191 6.48319 0)
(12.6987 6.75329 0)
(13.1074 6.99025 0)
(13.594 7.18727 0)
(10.0005 0.160506 0)
(10.0023 0.318877 0)
(10.0056 0.477017 0)
(10.0104 0.636642 0)
(10.017 0.799141 0)
(10.0258 0.965713 0)
(10.0373 1.13744 0)
(10.0521 1.31529 0)
(10.0708 1.50014 0)
(10.0943 1.69275 0)
(10.1233 1.89375 0)
(10.1589 2.10371 0)
(10.2022 2.32304 0)
(10.2545 2.55205 0)
(10.3171 2.79087 0)
(10.3915 3.03949 0)
(10.4795 3.29764 0)
(10.583 3.56483 0)
(10.7038 3.8402 0)
(10.8443 4.12256 0)
(11.0064 4.41019 0)
(11.1925 4.70085 0)
(11.4045 4.99166 0)
(11.6443 5.27905 0)
(11.9132 5.55875 0)
(12.2117 5.82578 0)
(12.5394 6.07463 0)
(12.895 6.29944 0)
(13.2715 6.49417 0)
(13.7104 6.6547 0)
(10.001 0.159283 0)
(10.0044 0.316405 0)
(10.0106 0.473164 0)
(10.0194 0.631185 0)
(10.031 0.79177 0)
(10.0458 0.956033 0)
(10.0643 1.12496 0)
(10.087 1.29942 0)
(10.1146 1.48018 0)
(10.1477 1.66785 0)
(10.1873 1.86296 0)
(10.2343 2.0659 0)
(10.2897 2.27691 0)
(10.3546 2.49611 0)
(10.4304 2.72343 0)
(10.5183 2.95861 0)
(10.62 3.20116 0)
(10.7368 3.45034 0)
(10.8706 3.70508 0)
(11.0228 3.96396 0)
(11.1951 4.22515 0)
(11.3891 4.48636 0)
(11.6058 4.74484 0)
(11.8464 4.99733 0)
(12.1111 5.24012 0)
(12.3996 5.46913 0)
(12.7109 5.68005 0)
(13.0431 5.86854 0)
(13.3901 6.03037 0)
(13.7882 6.16304 0)
(10.0015 0.157249 0)
(10.0065 0.31232 0)
(10.0153 0.466897 0)
(10.028 0.622502 0)
(10.0444 0.780348 0)
(10.0649 0.941455 0)
(10.09 1.10671 0)
(10.1201 1.27689 0)
(10.1559 1.45264 0)
(10.198 1.63445 0)
(10.2473 1.82272 0)
(10.3045 2.01769 0)
(10.3707 2.21946 0)
(10.4468 2.42797 0)
(10.5341 2.64299 0)
(10.6335 2.86409 0)
(10.7464 3.09059 0)
(10.8741 3.3216 0)
(11.0177 3.55593 0)
(11.1785 3.79205 0)
(11.3576 4.02815 0)
(11.5558 4.26204 0)
(11.7738 4.49119 0)
(12.0119 4.71276 0)
(12.2698 4.92363 0)
(12.5468 5.12055 0)
(12.8413 5.3002 0)
(13.1514 5.45944 0)
(13.4718 5.59535 0)
(13.8348 5.70644 0)
(10.0019 0.154404 0)
(10.0084 0.306622 0)
(10.0199 0.458219 0)
(10.0361 0.610607 0)
(10.0571 0.764903 0)
(10.0829 0.922034 0)
(10.1141 1.08279 0)
(10.1511 1.24785 0)
(10.1945 1.41773 0)
(10.2448 1.59284 0)
(10.3028 1.77343 0)
(10.3692 1.95963 0)
(10.4449 2.15141 0)
(10.5307 2.34857 0)
(10.6277 2.55074 0)
(10.7367 2.75737 0)
(10.8587 2.96769 0)
(10.9947 3.18069 0)
(11.1456 3.39514 0)
(11.3121 3.60955 0)
(11.495 3.82215 0)
(11.6947 4.03096 0)
(11.9113 4.23374 0)
(12.1447 4.42807 0)
(12.3943 4.61142 0)
(12.6589 4.78123 0)
(12.937 4.935 0)
(13.2266 5.07048 0)
(13.5233 5.18569 0)
(13.856 5.27977 0)
(10.0024 0.150753 0)
(10.0102 0.299325 0)
(10.0241 0.447153 0)
(10.0437 0.595539 0)
(10.0689 0.7455 0)
(10.0997 0.897869 0)
(10.1365 1.05334 0)
(10.1798 1.21249 0)
(10.2301 1.37574 0)
(10.2878 1.54339 0)
(10.3535 1.7156 0)
(10.428 1.89236 0)
(10.5119 2.07356 0)
(10.606 2.25889 0)
(10.711 2.44789 0)
(10.8277 2.63992 0)
(10.9568 2.83415 0)
(11.099 3.02956 0)
(11.2548 3.22492 0)
(11.4248 3.41882 0)
(11.6092 3.60964 0)
(11.8082 3.79561 0)
(12.0216 3.9748 0)
(12.2488 4.14523 0)
(12.489 4.30485 0)
(12.7411 4.45169 0)
(13.0035 4.58391 0)
(13.2743 4.6999 0)
(13.5498 4.79834 0)
(13.8562 4.87881 0)
(10.0027 0.146308 0)
(10.0119 0.290453 0)
(10.0281 0.433744 0)
(10.0508 0.577364 0)
(10.0798 0.722235 0)
(10.1151 0.869096 0)
(10.1571 1.01855 0)
(10.2062 1.17107 0)
(10.2625 1.327 0)
(10.3268 1.48654 0)
(10.3994 1.64975 0)
(10.4808 1.81656 0)
(10.5717 1.98675 0)
(10.6726 2.15994 0)
(10.7842 2.33562 0)
(10.9069 2.51311 0)
(11.0412 2.69157 0)
(11.1877 2.86998 0)
(11.3465 3.04719 0)
(11.518 3.2219 0)
(11.7021 3.39266 0)
(11.8988 3.55793 0)
(12.1074 3.71611 0)
(12.3275 3.86557 0)
(12.5581 4.0047 0)
(12.7979 4.132 0)
(13.0454 4.24613 0)
(13.2991 4.34597 0)
(13.5557 4.43066 0)
(13.8393 4.50003 0)
(10.0031 0.141089 0)
(10.0134 0.280046 0)
(10.0317 0.41805 0)
(10.0573 0.556173 0)
(10.0898 0.695234 0)
(10.1293 0.835885 0)
(10.1759 0.978642 0)
(10.23 1.12389 0)
(10.2918 1.27189 0)
(10.3617 1.42276 0)
(10.4402 1.57649 0)
(10.5275 1.73293 0)
(10.6242 1.89182 0)
(10.7307 2.05273 0)
(10.8473 2.21511 0)
(10.9745 2.37828 0)
(11.1125 2.54141 0)
(11.2616 2.70355 0)
(11.4219 2.86364 0)
(11.5934 3.0205 0)
(11.7758 3.17287 0)
(11.9688 3.31945 0)
(12.1719 3.45892 0)
(12.3844 3.58997 0)
(12.6051 3.71136 0)
(12.833 3.82195 0)
(13.0668 3.92078 0)
(13.3048 4.00709 0)
(13.5446 4.08033 0)
(13.8081 4.1405 0)
(10.0034 0.135117 0)
(10.0148 0.26815 0)
(10.035 0.40015 0)
(10.0631 0.532074 0)
(10.0988 0.664649 0)
(10.142 0.798438 0)
(10.1927 0.933875 0)
(10.2513 1.07127 0)
(10.3178 1.21081 0)
(10.3927 1.35254 0)