/*--------------------------------*- C++ -*----------------------------------*\
  =========                 |
  \\      /  F ield         | OpenFOAM: The Open Source CFD Toolbox
   \\    /   O peration     | Website:  https://openfoam.org
    \\  /    A nd           | Version:  7
     \\/     M anipulation  |
\*---------------------------------------------------------------------------*/
FoamFile
{
    version     2.0;
    format      ascii;
    class       surfaceVectorField;
    location    "2.8";
    object      Uf;
}
// * * * * * * * * * * * * * * * * * * * * * * * * * * * * * * * * * * * * * //

dimensions      [0 1 -1 0 0 0 0];

internalField   nonuniform List<vector> 
5457
(
(9.92088 0.0251105 0)
(9.97124 0.038747 0)
(9.82401 0.0328284 0)
(9.92858 0.0485877 0)
(9.7096 0.0393143 0)
(9.85547 0.058772 0)
(9.57541 0.0460145 0)
(9.75678 0.0705985 0)
(9.42134 0.0529525 0)
(9.6375 0.0830198 0)
(9.2475 0.0601704 0)
(9.49857 0.0959441 0)
(9.05356 0.0678156 0)
(9.33925 0.109621 0)
(8.83884 0.0760396 0)
(9.15867 0.124298 0)
(8.60242 0.0849756 0)
(8.956 0.140177 0)
(8.34315 0.0947504 0)
(8.73028 0.157444 0)
(8.05972 0.105493 0)
(8.48028 0.17628 0)
(7.75066 0.117333 0)
(8.20463 0.196867 0)
(7.4144 0.1304 0)
(7.9018 0.219371 0)
(7.04933 0.144815 0)
(7.57014 0.243931 0)
(6.65386 0.160676 0)
(7.20801 0.270639 0)
(6.22654 0.178047 0)
(6.81382 0.299505 0)
(5.76625 0.196929 0)
(6.38615 0.330416 0)
(5.27241 0.217233 0)
(5.92399 0.363083 0)
(4.74522 0.238734 0)
(5.42694 0.396973 0)
(4.18606 0.261029 0)
(4.8955 0.431231 0)
(3.59784 0.283483 0)
(4.3315 0.46461 0)
(2.98545 0.305196 0)
(3.73848 0.495413 0)
(2.35603 0.325061 0)
(3.12217 0.521499 0)
(1.71904 0.342539 0)
(2.49099 0.540543 0)
(1.0843 0.361872 0)
(1.85579 0.551658 0)
(0.451801 0.348654 0)
(1.24544 0.563007 0)
(-0.145834 0.102442 0)
(0.60887 0.544844 0)
(-0.423593 -0.207068 0)
(0.0946848 0.259348 0)
(-0.402131 -0.361213 0)
(-0.133695 -0.0205239 0)
(-0.119665 -0.393862 0)
(9.99641 0.0516752 0)
(9.99705 0.0405071 0)
(9.95878 0.0708663 0)
(9.9785 0.0674595 0)
(9.89823 0.0879935 0)
(9.93376 0.0898776 0)
(9.81656 0.105993 0)
(9.86451 0.113565 0)
(9.71355 0.124932 0)
(9.77435 0.138528 0)
(9.58904 0.144866 0)
(9.66431 0.164661 0)
(9.44268 0.166103 0)
(9.53391 0.192349 0)
(9.27382 0.188982 0)
(9.38242 0.22205 0)
(9.08156 0.213798 0)
(9.2091 0.254169 0)
(8.86478 0.240831 0)
(9.01305 0.289085 0)
(8.62217 0.270352 0)
(8.79319 0.327173 0)
(8.35224 0.302621 0)
(8.54822 0.368806 0)
(8.0534 0.33787 0)
(8.27668 0.414335 0)
(7.72395 0.376273 0)
(7.977 0.464063 0)
(7.36219 0.41791 0)
(7.64754 0.518202 0)
(6.96654 0.462712 0)
(7.28665 0.576815 0)
(6.53565 0.510387 0)
(6.89277 0.63973 0)
(6.06865 0.560329 0)
(6.46463 0.706426 0)
(5.56542 0.611513 0)
(6.00143 0.775902 0)
(5.02695 0.662372 0)
(5.5031 0.84651 0)
(4.45574 0.710692 0)
(4.97075 0.915787 0)
(3.85638 0.753521 0)
(4.40706 0.980283 0)
(3.2361 0.787174 0)
(3.81693 1.03543 0)
(2.60574 0.807478 0)
(3.20837 1.07545 0)
(1.98274 0.810444 0)
(2.59333 1.09312 0)
(1.40525 0.77687 0)
(1.99616 1.07705 0)
(0.929712 0.646372 0)
(1.41946 0.978373 0)
(0.439812 0.384303 0)
(0.937552 0.716778 0)
(0.0591511 -0.118631 0)
(0.443747 0.343504 0)
(0.174915 -0.335928 0)
(9.98903 0.0594356 0)
(9.99481 0.0458812 0)
(9.95433 0.0894845 0)
(9.97368 0.0848618 0)
(9.89728 0.118043 0)
(9.92983 0.119185 0)
(9.82044 0.147913 0)
(9.86355 0.153992 0)
(9.72412 0.179439 0)
(9.77733 0.190427 0)
(9.60816 0.212796 0)
(9.67222 0.228659 0)
(9.47228 0.248415 0)
(9.54804 0.269155 0)
(9.31599 0.286798 0)
(9.40424 0.312525 0)
(9.13859 0.328422 0)
(9.24025 0.359355 0)
(8.93913 0.373747 0)
(9.05538 0.410205 0)
(8.71652 0.423231 0)
(8.84877 0.465628 0)
(8.46946 0.477318 0)
(8.61937 0.526181 0)
(8.19652 0.536418 0)
(8.366 0.592397 0)
(7.89616 0.600857 0)
(8.08735 0.664758 0)
(7.56674 0.670819 0)
(7.78202 0.743632 0)
(7.20666 0.746259 0)
(7.44856 0.829197 0)
(6.81439 0.826778 0)
(7.0855 0.921318 0)
(6.38871 0.911471 0)
(6.69153 1.0194 0)
(5.92887 0.998739 0)
(6.26555 1.12215 0)
(5.43499 1.08607 0)
(5.80697 1.2274 0)
(4.90842 1.16979 0)
(5.31594 1.33171 0)
(4.35232 1.24486 0)
(4.79386 1.43015 0)
(3.7725 1.30451 0)
(4.24388 1.51583 0)
(3.17866 1.3398 0)
(3.67174 1.57938 0)
(2.58658 1.33808 0)
(3.08627 1.6077 0)
(2.01983 1.27294 0)
(2.50289 1.58154 0)
(1.48692 1.09538 0)
(1.92872 1.46421 0)
(0.958282 0.769152 0)
(1.38524 1.21038 0)
(0.479862 0.202437 0)
(0.829533 0.80102 0)
(0.43372 0.134068 0)
(9.98515 0.0716205 0)
(9.99367 0.0531528 0)
(9.95038 0.113641 0)
(9.97087 0.102301 0)
(9.89435 0.154149 0)
(9.92689 0.147969 0)
(9.8188 0.195593 0)
(9.86183 0.193742 0)
(9.72438 0.238835 0)
(9.77743 0.241303 0)
(9.61107 0.284352 0)
(9.67462 0.291194 0)
(9.47868 0.332752 0)
(9.55337 0.34399 0)
(9.32686 0.384708 0)
(9.41328 0.400409 0)
(9.15513 0.440881 0)
(9.25391 0.461179 0)
(8.96279 0.501918 0)
(9.07473 0.527001 0)
(8.74903 0.568461 0)
(8.87507 0.598575 0)
(8.51289 0.641142 0)
(8.65415 0.676599 0)
(8.2533 0.720556 0)
(8.41107 0.761753 0)
(7.96909 0.80721 0)
(8.14483 0.854663 0)
(7.659 0.901449 0)
(7.85437 0.955837 0)
(7.32175 1.00335 0)
(7.53857 1.06558 0)
(6.95603 1.11257 0)
(7.19628 1.18384 0)
(6.56068 1.22812 0)
(6.82635 1.31007 0)
(6.13473 1.34814 0)
(6.42772 1.44289 0)
(5.6777 1.46956 0)
(5.99951 1.57986 0)
(5.18987 1.58772 0)
(5.54121 1.71703 0)
(4.67276 1.69597 0)
(5.05294 1.84848 0)
(4.12972 1.78509 0)
(4.53587 1.96577 0)
(3.5666 1.84247 0)
(3.99267 2.05724 0)
(2.99201 1.85067 0)
(3.42756 2.10708 0)
(2.41582 1.78244 0)
(2.84761 2.09442 0)
(1.84053 1.60042 0)
(2.25622 1.98868 0)
(1.25938 1.2784 0)
(1.66031 1.753 0)
(0.666774 0.789522 0)
(1.02397 1.36774 0)
(0.523038 0.787131 0)
(9.98337 0.0844159 0)
(9.99316 0.0612976 0)
(9.9482 0.136851 0)
(9.96958 0.11994 0)
(9.89313 0.188052 0)
(9.92574 0.176259 0)
(9.81904 0.240195 0)
(9.86197 0.232724 0)
(9.72659 0.294498 0)
(9.7796 0.291119 0)
(9.61584 0.351695 0)
(9.67935 0.352311 0)
(9.48664 0.41251 0)
(9.56121 0.417019 0)
(9.3387 0.477718 0)
(9.42489 0.486054 0)
(9.1716 0.548094 0)
(9.26999 0.560253 0)
(8.9848 0.624397 0)
(9.09609 0.640435 0)
(8.77765 0.707385 0)
(8.90261 0.727415 0)
(8.54938 0.797801 0)
(8.68892 0.822001 0)
(8.29919 0.896357 0)
(8.45428 0.92498 0)
(8.02617 1.00368 0)
(8.1979 1.03709 0)
(7.72939 1.12022 0)
(7.91893 1.15893 0)
(7.40787 1.24617 0)
(7.6165 1.29093 0)
(7.06058 1.38126 0)
(7.28966 1.43314 0)
(6.68652 1.52456 0)
(6.93744 1.58508 0)
(6.28469 1.67415 0)
(6.55881 1.74547 0)
(5.85424 1.82674 0)
(6.15271 1.91183 0)
(5.39458 1.97719 0)
(5.71808 2.0801 0)
(4.90565 2.11798 0)
(5.25396 2.24401 0)
(4.38817 2.23853 0)
(4.75965 2.39452 0)
(3.84389 2.32447 0)
(4.23489 2.51911 0)
(3.27541 2.35688 0)
(3.67986 2.60115 0)
(2.68538 2.31053 0)
(3.09571 2.61963 0)
(2.07269 2.15496 0)
(2.4817 2.54726 0)
(1.42938 1.86736 0)
(1.83993 2.35367 0)
(0.742616 1.41954 0)
(1.13138 2.02449 0)
(0.543312 1.51448 0)
(9.98264 0.0975081 0)
(9.99299 0.0698003 0)
(9.94743 0.159792 0)
(9.96924 0.137599 0)
(9.89353 0.221372 0)
(9.92596 0.20395 0)
(9.82131 0.284123 0)
(9.86379 0.270719 0)
(9.7313 0.349386 0)
(9.78382 0.339621 0)
(9.62361 0.418062 0)
(9.6866 0.411742 0)
(9.49812 0.490986 0)
(9.57212 0.487954 0)
(9.35456 0.569026 0)
(9.44013 0.56916 0)
(9.19258 0.653057 0)
(9.29033 0.656292 0)
(9.01171 0.743951 0)
(9.1223 0.750273 0)
(8.81137 0.842567 0)
(8.93557 0.852015 0)
(8.59092 0.949755 0)
(8.72957 0.962421 0)
(8.34967 1.06632 0)
(8.50364 1.08237 0)
(8.08687 1.19299 0)
(8.25709 1.21268 0)
(7.80172 1.33032 0)
(7.98917 1.35407 0)
(7.4934 1.4786 0)
(7.69909 1.50704 0)
(7.16099 1.63767 0)
(7.38596 1.67176 0)
(6.80353 1.80672 0)
(7.04882 1.84789 0)
(6.41993 1.98392 0)
(6.68656 2.03432 0)
(6.00897 2.16607 0)
(6.29783 2.22877 0)
(5.56927 2.34803 0)
(5.88104 2.4274 0)
(5.09936 2.52212 0)
(5.43421 2.62416 0)
(4.59767 2.67747 0)
(4.95502 2.81019 0)
(4.06265 2.7994 0)
(4.44079 2.97311 0)
(3.49268 2.86902 0)
(3.88849 3.09652 0)
(2.88583 2.86284 0)
(3.29523 3.15981 0)
(2.23803 2.75387 0)
(2.65692 3.13783 0)
(1.54246 2.52099 0)
(1.97487 3.00314 0)
(0.793659 2.13132 0)
(1.20727 2.74058 0)
(0.556748 2.29182 0)
(9.9825 0.110639 0)
(9.99301 0.0783702 0)
(9.9477 0.182345 0)
(9.96953 0.155055 0)
(9.89521 0.253846 0)
(9.92721 0.230913 0)
(9.82521 0.326804 0)
(9.86694 0.307545 0)
(9.73809 0.4026 0)
(9.78974 0.386567 0)
(9.63398 0.482286 0)
(9.696 0.469201 0)
(9.51278 0.566815 0)
(9.58572 0.556457 0)
(9.37428 0.657154 0)
(9.45871 0.649336 0)
(9.21817 0.754277 0)
(9.3147 0.748856 0)
(9.04401 0.859149 0)
(9.15334 0.856033 0)
(8.85129 0.972724 0)
(8.97419 0.971871 0)
(8.63945 1.09594 0)
(8.77674 1.09736 0)
(8.40784 1.22969 0)
(8.56039 1.23348 0)
(8.15575 1.37479 0)
(8.32449 1.38112 0)
(7.88243 1.53189 0)
(8.06831 1.54111 0)
(7.58705 1.70139 0)
(7.79103 1.71407 0)
(7.26868 1.88328 0)
(7.49173 1.9003 0)
(6.92621 2.07694 0)
(7.16931 2.09968 0)
(6.55832 2.2808 0)
(6.82244 2.31134 0)
(6.1633 2.49198 0)
(6.44939 2.53342 0)
(5.73898 2.70574 0)
(6.04793 2.76255 0)
(5.28262 2.91488 0)
(5.61511 2.99335 0)
(4.79076 3.10904 0)
(5.14715 3.21772 0)
(4.25926 3.27408 0)
(4.63933 3.42413 0)
(3.68339 3.39175 0)
(4.08605 3.59702 0)
(3.05807 3.43959 0)
(3.48134 3.71642 0)
(2.37777 3.39173 0)
(2.81841 3.75804 0)
(1.63795 3.22614 0)
(2.09921 3.69393 0)
(0.839153 2.90084 0)
(1.27897 3.50446 0)
(0.573382 3.11372 0)
(9.98273 0.123596 0)
(9.99316 0.0868276 0)
(9.94872 0.204334 0)
(9.97026 0.172114 0)
(9.89792 0.285286 0)
(9.92925 0.257007 0)
(9.83048 0.368009 0)
(9.87121 0.34303 0)
(9.74666 0.453904 0)
(9.79712 0.43173 0)
(9.64662 0.544138 0)
(9.7073 0.524412 0)
(9.5303 0.639775 0)
(9.60174 0.622205 0)
(9.39752 0.741873 0)
(9.48029 0.726202 0)
(9.24801 0.85149 0)
(9.34275 0.837506 0)
(9.08139 0.969683 0)
(9.18881 0.957216 0)
(8.8972 1.09749 0)
(9.01808 1.08642 0)
(8.69492 1.23595 0)
(8.83011 1.22621 0)
(8.47393 1.38604 0)
(8.62434 1.37765 0)
(8.23354 1.54867 0)
(8.40014 1.54174 0)
(7.97299 1.72463 0)
(8.15678 1.71942 0)
(7.69137 1.91445 0)
(7.89339 1.91145 0)
(7.38762 2.11833 0)
(7.60895 2.11835 0)
(7.06039 2.33592 0)
(7.30217 2.34026 0)
(6.70799 2.56605 0)
(6.97141 2.5767 0)
(6.32817 2.80638 0)
(6.6145 2.82634 0)
(5.91794 3.05292 0)
(6.22853 3.08658 0)
(5.47334 3.29939 0)
(5.80959 3.35302 0)
(4.98924 3.5365 0)
(5.35255 3.61881 0)
(4.45931 3.75126 0)
(4.85083 3.87382 0)
(3.87624 3.92633 0)
(4.29643 4.10377 0)
(3.23238 4.03975 0)
(3.68061 4.28954 0)
(2.5209 4.06492 0)
(2.9936 4.40667 0)
(1.73844 3.97611 0)
(2.23747 4.42453 0)
(0.889512 3.71877 0)
(1.36344 4.3163 0)
(0.59879 3.98494 0)
(9.98321 0.13622 0)
(9.99339 0.095052 0)
(9.95031 0.2256 0)
(9.97131 0.188613 0)
(9.90149 0.315536 0)
(9.93192 0.282085 0)
(9.83691 0.407554 0)
(9.87641 0.377008 0)
(9.75679 0.503073 0)
(9.80575 0.4749 0)
(9.66129 0.603347 0)
(9.72025 0.577121 0)
(9.55038 0.709537 0)
(9.61988 0.684895 0)
(9.42393 0.822786 0)
(9.50455 0.799404 0)
(9.28171 0.944234 0)
(9.3741 0.921828 0)
(9.12341 1.07502 0)
(9.22829 1.05335 0)
(8.94862 1.21628 0)
(9.06679 1.19513 0)
(8.75685 1.36912 0)
(8.88919 1.34837 0)
(8.54754 1.53465 0)
(8.69499 1.5142 0)
(8.32001 1.71389 0)
(8.48358 1.69377 0)
(8.07345 1.90777 0)
(8.25425 1.88815 0)
(7.80687 2.11703 0)
(8.00609 2.09829 0)
(7.51906 2.34213 0)
(7.73797 2.32496 0)
(7.20842 2.5831 0)
(7.44845 2.56864 0)
(6.87286 2.8393 0)
(7.13558 2.82937 0)
(6.50956 3.10914 0)
(6.79676 3.10652 0)
(6.11471 3.38965 0)
(6.42846 3.39846 0)
(5.68319 3.67584 0)
(6.02588 3.70211 0)
(5.20831 3.96001 0)
(5.58257 4.01227 0)
(4.68164 4.23079 0)
(5.09017 4.32074 0)
(4.09323 4.47214 0)
(4.53819 4.61517 0)
(3.43251 4.6624 0)
(3.91468 4.87768 0)
(2.69016 4.77306 0)
(3.20572 5.08345 0)
(1.86189 4.77237 0)
(2.41134 5.1979 0)
(0.954211 4.58975 0)
(1.47634 5.18432 0)
(0.639227 4.91953 0)
(9.98386 0.148388 0)
(9.99368 0.102957 0)
(9.95234 0.246003 0)
(9.9726 0.204421 0)
(9.90577 0.344444 0)
(9.93509 0.306011 0)
(9.84434 0.445256 0)
(9.88239 0.409325 0)
(9.76828 0.549881 0)
(9.81548 0.515885 0)
(9.67773 0.65964 0)
(9.73465 0.627092 0)
(9.57272 0.775778 0)
(9.63991 0.74425 0)
(9.45317 0.899516 0)
(9.5312 0.868618 0)
(9.31888 1.03207 0)
(9.40841 1.00145 0)
(9.16962 1.17466 0)
(9.27136 1.14399 0)
(9.00504 1.3285 0)
(9.11981 1.2975 0)
(8.82471 1.49481 0)
(8.9534 1.46323 0)
(8.62811 1.67479 0)
(8.77171 1.64246 0)
(8.41459 1.86961 0)
(8.57417 1.83645 0)
(8.18333 2.08037 0)
(8.36009 2.04641 0)
(7.93331 2.30806 0)
(8.12859 2.27353 0)
(7.66318 2.55348 0)
(7.87849 2.51887 0)
(7.37114 2.81712 0)
(7.60822 2.78335 0)
(7.05477 3.09901 0)
(7.31566 3.0676 0)
(6.71076 3.3985 0)
(6.9979 3.37182 0)
(6.33458 3.71388 0)
(6.65092 3.69559 0)
(5.92008 4.04187 0)
(6.26918 4.03743 0)
(5.45906 4.37681 0)
(5.84514 4.39425 0)
(4.94091 4.70963 0)
(5.36869 4.76043 0)
(4.35264 5.02629 0)
(4.82668 5.12645 0)
(3.67956 5.30599 0)
(4.20314 5.4768 0)
(2.90754 5.51805 0)
(3.47793 5.78728 0)
(2.02771 5.62297 0)
(2.64512 6.01941 0)
(1.04514 5.5295 0)
(1.63781 6.12395 0)
(0.704522 5.94318 0)
(9.98464 0.160003 0)
(9.99402 0.110477 0)
(9.95472 0.265418 0)
(9.97408 0.219431 0)
(9.91063 0.371872 0)
(9.93866 0.328659 0)
(9.85263 0.48095 0)
(9.88902 0.439839 0)
(9.78095 0.594125 0)
(9.82614 0.554511 0)
(9.69574 0.712774 0)
(9.75032 0.674117 0)
(9.59707 0.838212 0)
(9.66158 0.800022 0)
(9.4849 0.971729 0)
(9.55992 0.933552 0)
(9.35913 1.11461 0)
(9.4453 1.07602 0)
(9.21956 1.26815 0)
(9.3176 1.22874 0)
(9.06593 1.43364 0)
(9.17665 1.39305 0)
(8.89788 1.61239 0)
(9.02218 1.57028 0)
(8.71495 1.80573 0)
(8.85384 1.7618 0)
(8.51657 2.01497 0)
(8.67117 1.969 0)
(8.30195 2.24141 0)
(8.47353 2.19328 0)
(8.07007 2.48632 0)
(8.26011 2.43605 0)
(7.81954 2.75088 0)
(8.02976 2.69871 0)
(7.54849 3.03612 0)
(7.78093 2.98263 0)
(7.25431 3.34286 0)
(7.51146 3.28912 0)
(6.93337 3.67153 0)
(7.21833 3.61933 0)
(6.58067 4.02194 0)
(6.8973 3.97418 0)
(6.18926 4.39287 0)
(6.54246 4.35407 0)
(5.74964 4.78132 0)
(6.14551 4.75849 0)
(5.24907 5.18142 0)
(5.69496 5.18521 0)
(4.67098 5.58252 0)
(5.17506 5.62887 0)
(3.99502 5.96632 0)
(4.56518 6.07849 0)
(3.19859 6.30158 0)
(3.83651 6.51336 0)
(2.26195 6.54067 0)
(2.97106 6.89397 0)
(1.18072 6.56522 0)
(1.87935 7.15793 0)
(0.812924 7.09963 0)
(9.98553 0.170987 0)
(9.9944 0.117563 0)
(9.95737 0.283739 0)
(9.97571 0.233553 0)
(9.91598 0.397693 0)
(9.94257 0.349921 0)
(9.86166 0.514486 0)
(9.89621 0.468421 0)
(9.79463 0.635625 0)
(9.8376 0.590627 0)
(9.7151 0.762533 0)
(9.76707 0.718013 0)
(9.62315 0.896585 0)
(9.68467 0.851994 0)
(9.51882 1.03913 0)
(9.59044 0.99395 0)
(9.40206 1.19151 0)
(9.48442 1.14525 0)
(9.27275 1.35508 0)
(9.36656 1.30726 0)
(9.13072 1.53122 0)
(9.23678 1.48138 0)
(8.97571 1.72132 0)
(9.0949 1.66902 0)
(8.80735 1.92682 0)
(8.94068 1.87164 0)
(8.62514 2.14918 0)
(8.77377 2.09075 0)
(8.42842 2.3899 0)
(8.59365 2.32791 0)
(8.21624 2.65055 0)
(8.39964 2.58477 0)
(7.9873 2.9327 0)
(8.19073 2.86305 0)
(7.73978 3.23797 0)
(7.96552 3.16462 0)
(7.4711 3.56803 0)
(7.722 3.49144 0)
(7.17763 3.92449 0)
(7.45733 3.84566 0)
(6.85423 4.30886 0)
(7.16745 4.22962 0)
(6.49364 4.7223 0)
(6.84654 4.64577 0)
(6.08559 5.16513 0)
(6.48626 5.09657 0)
(5.61565 5.63588 0)
(6.0746 5.584 0)
(5.06371 6.1294 0)
(5.59407 6.10857 0)
(4.40246 6.63342 0)
(5.01981 6.66709 0)
(3.59646 7.12099 0)
(4.31292 7.24816 0)
(2.60467 7.54061 0)
(3.43615 7.82002 0)
(1.39455 7.74066 0)
(2.25691 8.31518 0)
(1.00288 8.4655 0)
(9.9865 0.181279 0)
(9.9948 0.124174 0)
(9.96025 0.300877 0)
(9.97747 0.246717 0)
(9.92174 0.421797 0)
(9.94674 0.369704 0)
(9.8713 0.545732 0)
(9.90385 0.494962 0)
(9.80918 0.674223 0)
(9.84973 0.6241 0)
(9.7356 0.80873 0)
(9.78472 0.75862 0)
(9.65071 0.950675 0)
(9.70893 0.899978 0)
(9.55459 1.10146 0)
(9.62247 1.04959 0)
(9.44726 1.26246 0)
(9.52541 1.20888 0)
(9.32871 1.43511 0)
(9.41781 1.37925 0)
(9.19885 1.62083 0)
(9.29967 1.56215 0)
(9.05753 1.82109 0)
(9.17093 1.75904 0)
(8.9045 2.03743 0)
(9.03147 1.97148 0)
(8.7394 2.27146 0)
(8.88108 2.20106 0)
(8.56172 2.52487 0)
(8.71942 2.4495 0)
(8.37069 2.79949 0)
(8.546 2.71866 0)
(8.16521 3.09729 0)
(8.36005 3.01056 0)
(7.94369 3.42046 0)
(8.16046 3.32748 0)
(7.70385 3.77148 0)
(7.9456 3.67203 0)
(7.44241 4.15317 0)
(7.71311 4.04729 0)
(7.15463 4.56879 0)
(7.45954 4.45693 0)
(6.83364 5.02206 0)
(7.1799 4.90545 0)
(6.46937 5.51714 0)
(6.86678 5.39838 0)
(6.04698 6.05816 0)
(6.50916 5.94243 0)
(5.54422 6.64818 0)
(6.09008 6.54553 0)
(4.92744 7.28649 0)
(5.5834 7.21611 0)
(4.14556 7.96109 0)
(4.94306 7.96098 0)
(3.12241 8.63357 0)
(4.11011 8.77535 0)
(1.75676 9.1283 0)
(2.87934 9.62116 0)
(1.36532 10.1861 0)
(9.98753 0.190828 0)
(9.99523 0.13028 0)
(9.96331 0.316756 0)
(9.97931 0.258865 0)
(9.92783 0.444092 0)
(9.95113 0.387931 0)
(9.88144 0.57458 0)
(9.91185 0.519369 0)
(9.82443 0.70979 0)
(9.86238 0.65482 0)
(9.75704 0.851216 0)
(9.8031 0.79581 0)
(9.67947 1.00031 0)
(9.73416 0.943822 0)
(9.59187 1.15851 0)
(9.6557 1.10031 0)
(9.49434 1.32725 0)
(9.5679 1.26671 0)
(9.38694 1.50796 0)
(9.47088 1.44447 0)
(9.26971 1.70214 0)
(9.36475 1.63506 0)
(9.1426 1.91132 0)
(9.24958 1.84001 0)
(9.00554 2.13711 0)
(9.12539 2.0609 0)
(8.85833 2.38123 0)
(8.99213 2.29942 0)
(8.70065 2.64554 0)
(8.84969 2.5574 0)
(8.53201 2.93209 0)
(8.69781 2.83686 0)
(8.35162 3.2432 0)
(8.53606 3.14005 0)
(8.15832 3.58154 0)
(8.36376 3.4696 0)
(7.95038 3.95031 0)
(8.17986 3.82861 0)
(7.72525 4.35338 0)
(7.98275 4.22091 0)
(7.4792 4.79563 0)
(7.7701 4.65128 0)
(7.20666 5.28323 0)
(7.53842 5.12592 0)
(6.89928 5.82417 0)
(7.28248 5.65306 0)
(6.54409 6.42884 0)
(6.9943 6.24384 0)
(6.12037 7.11066 0)
(6.66121 6.91379 0)
(5.59339 7.88684 0)
(6.26264 7.68519 0)
(4.90162 8.77731 0)
(5.75818 8.59164 0)
(3.92796 9.80146 0)
(5.08855 9.68448 0)
(2.43431 10.8576 0)
(3.98128 11.0495 0)
(2.14765 12.5704 0)
(9.98861 0.199595 0)
(9.99567 0.135858 0)
(9.96651 0.331316 0)
(9.98123 0.269951 0)
(9.93417 0.464496 0)
(9.95569 0.404541 0)
(9.89198 0.600921 0)
(9.92013 0.541569 0)
(9.84024 0.742189 0)
(9.87547 0.6827 0)
(9.77924 0.889814 0)
(9.82209 0.829479 0)
(9.7092 1.04528 0)
(9.76018 0.983406 0)
(9.63036 1.21003 0)
(9.68997 1.14595 0)
(9.54289 1.38554 0)
(9.61169 1.31857 0)
(9.44695 1.57326 0)
(9.52556 1.50273 0)
(9.34268 1.77472 0)
(9.43181 1.69991 0)
(9.2302 1.99148 0)
(9.33062 1.91166 0)
(9.10958 2.22521 0)
(9.22217 2.13959 0)
(8.98083 2.47771 0)
(9.10663 2.38545 0)
(8.8439 2.75095 0)
(8.98409 2.65111 0)
(8.6986 3.04714 0)
(8.85463 2.9387 0)
(8.54458 3.36884 0)
(8.7182 3.25061 0)
(8.38125 3.71908 0)
(8.57465 3.58968 0)
(8.20764 4.10157 0)
(8.42366 3.95934 0)
(8.02231 4.52097 0)
(8.26463 4.36383 0)
(7.82309 4.98332 0)
(8.09669 4.80864 0)
(7.60668 5.49666 0)
(7.91847 5.30099 0)
(7.36809 6.07204 0)
(7.72801 5.85075 0)
(7.09941 6.72513 0)
(7.52247 6.47184 0)
(6.78753 7.47916 0)
(7.29764 7.18485 0)
(6.40893 8.37091 0)
(7.04811 8.0222 0)
(5.91664 9.46495 0)
(6.76377 9.04044 0)
(5.19807 10.9079 0)
(6.46387 10.3554 0)
(3.88717 13.1809 0)
(6.19409 12.3032 0)
(5.26705 16.3776 0)
(0.249615 -0.158945 0)
(0.14291 -0.244483 0)
(0.482322 -0.135129 0)
(0.342286 -0.222539 0)
(0.680475 -0.109217 0)
(0.545203 -0.18502 0)
(0.846845 -0.0876663 0)
(0.724201 -0.151674 0)
(0.987127 -0.0706357 0)
(0.874679 -0.12487 0)
(1.1064 -0.0572746 0)
(1.00182 -0.103663 0)
(1.20889 -0.0468064 0)
(1.11128 -0.0869728 0)
(1.29804 -0.0385788 0)
(1.20719 -0.0738647 0)
(1.37648 -0.0320254 0)
(1.29238 -0.0634551 0)
(1.44608 -0.0266899 0)
(1.36886 -0.0549711 0)
(1.50812 -0.022247 0)
(1.43799 -0.04785 0)
(1.56358 -0.0184563 0)
(1.50074 -0.0417563 0)
(1.61312 -0.0150281 0)
(1.55788 -0.0364268 0)
(1.65677 -0.0115027 0)
(1.60999 -0.031332 0)
(1.69318 -0.00737848 0)
(1.65706 -0.0255188 0)
(1.7198 -0.00256291 0)
(1.69773 -0.0182155 0)
(1.73479 0.00227596 0)
(1.72959 -0.0100175 0)
(1.73927 0.00590155 0)
(1.75108 -0.00292091 0)
(1.73581 0.0077266 0)
(1.76351 0.0022041 0)
(1.72667 0.0082006 0)
(1.77018 0.00568401 0)
(1.71266 0.00794199 0)
(1.7726 0.00850514 0)
(1.69578 0.00698411 0)
(1.77012 0.0100084 0)
(1.68136 0.00510641 0)
(1.76562 0.0083472 0)
(1.67504 0.00245849 0)
(1.76404 0.00357287 0)
(1.6808 -0.000563127 0)
(1.76844 -0.00317708 0)
(1.69969 -0.00353152 0)
(1.78083 -0.0101789 0)
(1.73076 -0.00628859 0)
(1.80107 -0.0163458 0)
(1.77227 -0.0085996 0)
(1.82808 -0.0213264 0)
(1.82047 -0.00945252 0)
(1.86045 -0.0241775 0)
(1.90483 -0.022279 0)
(0.214411 -0.347598 0)
(0.108088 -0.454485 0)
(0.422085 -0.306005 0)
(0.285677 -0.421138 0)
(0.602567 -0.253749 0)
(0.454519 -0.353539 0)
(0.756856 -0.208968 0)
(0.605012 -0.292334 0)
(0.889832 -0.173327 0)
(0.732748 -0.243237 0)
(1.00585 -0.145335 0)
(0.842221 -0.204492 0)
(1.10841 -0.123412 0)
(0.937757 -0.174004 0)
(1.20029 -0.106164 0)
(1.02248 -0.149994 0)
(1.28358 -0.0923511 0)
(1.0986 -0.130831 0)
(1.3597 -0.0809781 0)
(1.16767 -0.115101 0)
(1.42963 -0.0713801 0)
(1.23069 -0.101778 0)
(1.49413 -0.0631481 0)
(1.28826 -0.0903263 0)
(1.55407 -0.0557724 0)
(1.34089 -0.0804975 0)
(1.61019 -0.0482237 0)
(1.38937 -0.0716143 0)
(1.66215 -0.0391956 0)
(1.43464 -0.0619343 0)
(1.70792 -0.0284026 0)
(1.47646 -0.04954 0)
(1.74513 -0.0174033 0)
(1.51276 -0.0348787 0)
(1.77348 -0.0080455 0)
(1.54022 -0.0214172 0)
(1.79652 -2.03995e-06 0)
(1.55904 -0.0124738 0)
(1.81541 0.00737953 0)
(1.57483 -0.00606144 0)
(1.82939 0.0121586 0)
(1.58451 1.03101e-05 0)
(1.83788 0.0122043 0)
(1.58279 0.00497674 0)
(1.84616 0.00731788 0)
(1.5707 0.00355233 0)
(1.85591 -0.00123689 0)
(1.55288 -0.0019385 0)
(1.86801 -0.011469 0)
(1.53425 -0.00985354 0)
(1.88214 -0.0217328 0)
(1.51816 -0.0177896 0)
(1.89834 -0.0308012 0)
(1.50601 -0.0248709 0)
(1.91683 -0.0374005 0)
(1.49682 -0.0308253 0)
(1.93872 -0.0390019 0)
(1.49323 -0.0351549 0)
(1.50524 -0.0342509 0)
(0.169396 -0.537612 0)
(0.075986 -0.620398 0)
(0.329837 -0.478261 0)
(0.215382 -0.574569 0)
(0.467552 -0.400853 0)
(0.332717 -0.482126 0)
(0.584915 -0.333954 0)
(0.439057 -0.399331 0)
(0.685866 -0.280393 0)
(0.527388 -0.333096 0)
(0.773636 -0.238029 0)
(0.602426 -0.280774 0)
(0.850906 -0.20457 0)
(0.666953 -0.239573 0)
(0.919759 -0.177955 0)
(0.723048 -0.207042 0)
(0.981722 -0.156346 0)
(0.772297 -0.180957 0)
(1.03778 -0.13826 0)
(0.81586 -0.159378 0)
(1.08844 -0.122763 0)
(0.854422 -0.140853 0)
(1.13408 -0.109491 0)
(0.888182 -0.124688 0)
(1.17547 -0.0980849 0)
(0.917002 -0.11093 0)
(1.21397 -0.0870727 0)
(0.940924 -0.0992494 0)
(1.2501 -0.0735755 0)
(0.961966 -0.0872568 0)
(1.28198 -0.0560422 0)
(0.981676 -0.07136 0)
(1.30648 -0.0383776 0)
(1.00086 -0.0512462 0)
(1.32306 -0.0270008 0)
(1.01227 -0.0322367 0)
(1.33661 -0.0216491 0)
(0.994322 -0.0211064 0)
(1.34328 -0.016198 0)
(0.962385 -0.010209 0)
(1.33636 -0.00925751 0)
(0.932662 0.00421451 0)
(1.31278 -0.00484087 0)
(0.900415 0.0189582 0)
(1.27488 -0.00525131 0)
(0.858595 0.0254947 0)
(1.22992 -0.00917265 0)
(0.810406 0.0234712 0)
(1.18448 -0.0137047 0)
(0.762729 0.0152274 0)
(1.14221 -0.0170045 0)
(0.720964 0.00498452 0)
(1.10456 -0.0198467 0)
(0.694543 -0.00506133 0)
(1.07348 -0.0231484 0)
(0.677369 -0.0148617 0)
(1.05634 -0.0259998 0)
(0.67203 -0.0265566 0)
(0.688941 -0.0396365 0)
(0.121668 -0.671668 0)
(0.0453026 -0.739564 0)
(0.227179 -0.59304 0)
(0.137842 -0.675469 0)
(0.313177 -0.495162 0)
(0.194999 -0.562424 0)
(0.384969 -0.412084 0)
(0.251127 -0.464781 0)
(0.445203 -0.345759 0)
(0.292362 -0.386713 0)
(0.495839 -0.293241 0)
(0.325073 -0.324782 0)
(0.538638 -0.251717 0)
(0.350154 -0.275892 0)
(0.574981 -0.218637 0)
(0.368765 -0.237154 0)
(0.605913 -0.191701 0)
(0.38194 -0.20598 0)
(0.632094 -0.168966 0)
(0.390567 -0.180058 0)
(0.653657 -0.149119 0)
(0.395292 -0.157483 0)
(0.670236 -0.131779 0)
(0.396314 -0.137172 0)
(0.681742 -0.117223 0)
(0.393038 -0.11939 0)
(0.689827 -0.105065 0)
(0.381841 -0.105053 0)
(0.696959 -0.0928441 0)
(0.362975 -0.0922556 0)
(0.703133 -0.0770099 0)
(0.337771 -0.0755852 0)
(0.702772 -0.054831 0)
(0.311005 -0.0510049 0)
(0.67765 -0.0286707 0)
(0.284814 -0.0158472 0)
(0.621064 -0.00559274 0)
(0.246743 0.0149381 0)
(0.553246 0.0143439 0)
(0.19421 0.0319699 0)
(0.492824 0.0334857 0)
(0.150139 0.0409061 0)
(0.440263 0.0472468 0)
(0.113776 0.0501224 0)
(0.389272 0.0515012 0)
(0.0781992 0.0550134 0)
(0.340737 0.0457828 0)
(0.0448832 0.0509052 0)
(0.299886 0.0321592 0)
(0.0157733 0.0377726 0)
(0.27498 0.0145969 0)
(-0.00688765 0.0184049 0)
(0.265862 -0.00313593 0)
(-0.0132554 -0.000264181 0)
(0.276111 -0.0216666 0)
(-0.00747733 -0.0201263 0)
(0.302 -0.0420444 0)
(0.00470726 -0.0395418 0)
(0.026938 -0.0555171 0)
(0.0677512 -0.753633 0)
(0.0134499 -0.805922 0)
(0.112261 -0.655048 0)
(0.0515727 -0.718035 0)
(0.141425 -0.541657 0)
(0.0436252 -0.589655 0)
(0.161753 -0.447944 0)
(0.0448979 -0.483314 0)
(0.174379 -0.373005 0)
(0.0334019 -0.397951 0)
(0.180332 -0.313478 0)
(0.0174804 -0.329956 0)
(0.180532 -0.266299 0)
(-0.00363956 -0.276061 0)
(0.175773 -0.228691 0)
(-0.0292792 -0.233211 0)
(0.166774 -0.198158 0)
(-0.0588739 -0.1987 0)
(0.154159 -0.172449 0)
(-0.0918055 -0.170094 0)
(0.138255 -0.149684 0)
(-0.127264 -0.145217 0)
(0.118536 -0.128603 0)
(-0.164322 -0.122324 0)
(0.0925674 -0.10871 0)
(-0.202532 -0.100297 0)
(0.0562053 -0.0891942 0)
(-0.244649 -0.0789505 0)
(0.00709235 -0.0671849 0)
(-0.291112 -0.0578326 0)
(-0.0504074 -0.0390266 0)
(-0.341188 -0.0362358 0)
(-0.109696 -0.00519177 0)
(-0.391295 -0.0113896 0)
(-0.154166 0.0253243 0)
(-0.429446 0.0131648 0)
(-0.182226 0.0437745 0)
(-0.452245 0.0328122 0)
(-0.207113 0.0526946 0)
(-0.474474 0.0474482 0)
(-0.233801 0.0589835 0)
(-0.492918 0.0571126 0)
(-0.256338 0.0629424 0)
(-0.507207 0.0634845 0)
(-0.272907 0.0600888 0)
(-0.517542 0.0646056 0)
(-0.284095 0.0483299 0)
(-0.523748 0.0572289 0)
(-0.290608 0.0291778 0)
(-0.527168 0.0413673 0)
(-0.293343 0.00676359 0)
(-0.529092 0.0198786 0)
(-0.287604 -0.0147048 0)
(-0.527699 -0.00328369 0)
(-0.278662 -0.0348374 0)
(-0.520633 -0.0247197 0)
(-0.267747 -0.0528899 0)
(-0.516342 -0.0450166 0)
(-0.514824 -0.0604905 0)
(0.00365389 -0.775492 0)
(-0.0223704 -0.809501 0)
(-0.0142422 -0.657009 0)
(-0.0448395 -0.70092 0)
(-0.0446964 -0.532432 0)
(-0.116968 -0.56122 0)
(-0.0799557 -0.432563 0)
(-0.175024 -0.451169 0)
(-0.120326 -0.35251 0)
(-0.240902 -0.362017 0)
(-0.164688 -0.288989 0)
(-0.307231 -0.2914 0)
(-0.212491 -0.238519 0)
(-0.374398 -0.235496 0)
(-0.263307 -0.197971 0)
(-0.441469 -0.191108 0)
(-0.316779 -0.164648 0)
(-0.507712 -0.155443 0)
(-0.372327 -0.136307 0)
(-0.572516 -0.126218 0)
(-0.428926 -0.111155 0)
(-0.635156 -0.101567 0)
(-0.485184 -0.0880004 0)
(-0.694674 -0.079962 0)
(-0.539485 -0.066424 0)
(-0.750178 -0.0603747 0)
(-0.590583 -0.0464073 0)
(-0.801178 -0.0422702 0)
(-0.637486 -0.0277845 0)
(-0.847301 -0.0249581 0)
(-0.679459 -0.00952634 0)
(-0.887193 -0.00751254 0)
(-0.711135 0.00904793 0)
(-0.919125 0.00977569 0)
(-0.732511 0.0279304 0)
(-0.939971 0.0271103 0)
(-0.748536 0.0453785 0)
(-0.95545 0.04302 0)
(-0.760719 0.0577824 0)
(-0.966558 0.0550255 0)
(-0.769838 0.064509 0)
(-0.97342 0.0626498 0)
(-0.774328 0.0661243 0)
(-0.97563 0.0661467 0)
(-0.773717 0.0610818 0)
(-0.973551 0.0642523 0)
(-0.770064 0.0484288 0)
(-0.96862 0.0551637 0)
(-0.765833 0.0296249 0)
(-0.963199 0.0390324 0)
(-0.76252 0.00771106 0)
(-0.959174 0.0180932 0)
(-0.760059 -0.0149943 0)
(-0.956754 -0.00457834 0)
(-0.757275 -0.0365531 0)
(-0.954412 -0.0261498 0)
(-0.754819 -0.0544768 0)
(-0.956172 -0.0462481 0)
(-0.959818 -0.0619827 0)
(-0.0605723 -0.730393 0)
(-0.0639934 -0.750174 0)
(-0.146903 -0.597295 0)
(-0.148305 -0.618362 0)
(-0.238067 -0.469753 0)
(-0.28156 -0.476098 0)
(-0.331562 -0.369279 0)
(-0.398305 -0.365932 0)
(-0.424226 -0.289771 0)
(-0.513539 -0.279533 0)
(-0.51482 -0.227455 0)
(-0.62224 -0.212664 0)
(-0.602109 -0.178757 0)
(-0.723798 -0.161424 0)
(-0.685014 -0.140607 0)
(-0.817567 -0.122418 0)
(-0.762685 -0.110362 0)
(-0.903148 -0.0926089 0)
(-0.834521 -0.0858705 0)
(-0.980473 -0.0694779 0)
(-0.900083 -0.0654125 0)
(-1.04967 -0.0510046 0)
(-0.959031 -0.0476622 0)
(-1.11091 -0.0355739 0)
(-1.01114 -0.0316725 0)
(-1.16405 -0.022063 0)
(-1.05655 -0.0167016 0)
(-1.20964 -0.00967246 0)
(-1.095 -0.00215622 0)
(-1.24826 0.00198731 0)
(-1.12544 0.0123368 0)
(-1.28004 0.0133232 0)
(-1.14849 0.0268523 0)
(-1.30424 0.0251775 0)
(-1.16491 0.0407804 0)
(-1.32224 0.0378229 0)
(-1.1751 0.0526217 0)
(-1.33414 0.049508 0)
(-1.1803 0.0608982 0)
(-1.34054 0.0582622 0)
(-1.18139 0.0649925 0)
(-1.34213 0.0633129 0)
(-1.17838 0.064333 0)
(-1.33936 0.0643605 0)
(-1.17189 0.0577928 0)
(-1.33308 0.0604951 0)
(-1.16398 0.044832 0)
(-1.32502 0.0506915 0)
(-1.15697 0.0265595 0)
(-1.31742 0.0351617 0)
(-1.15237 0.00538973 0)
(-1.3121 0.0156159 0)
(-1.15058 -0.0162075 0)
(-1.3098 -0.00551986 0)
(-1.15087 -0.0367997 0)
(-1.31025 -0.025999 0)
(-1.15268 -0.0543328 0)
(-1.31494 -0.045343 0)
(-1.31968 -0.0602989 0)
(-0.130448 -0.621545 0)
(-0.111594 -0.622408 0)
(-0.280697 -0.480222 0)
(-0.255838 -0.474678 0)
(-0.431164 -0.356211 0)
(-0.446897 -0.335605 0)
(-0.574916 -0.262476 0)
(-0.614765 -0.234878 0)
(-0.707984 -0.191726 0)
(-0.769635 -0.161085 0)
(-0.82915 -0.13865 0)
(-0.907794 -0.107358 0)
(-0.938022 -0.0990087 0)
(-1.02816 -0.0690374 0)
(-1.03484 -0.0696238 0)
(-1.13193 -0.042197 0)
(-1.12023 -0.0478656 0)
(-1.22129 -0.0235356 0)
(-1.19497 -0.0315074 0)
(-1.29815 -0.0104424 0)
(-1.25988 -0.0187804 0)
(-1.36425 -0.000942218 0)
(-1.3154 -0.00837328 0)
(-1.42095 0.00622899 0)
(-1.36202 0.000752937 0)
(-1.4693 0.0122167 0)
(-1.40053 0.0094097 0)
(-1.51017 0.0179688 0)
(-1.43204 0.0182 0)
(-1.54418 0.024071 0)
(-1.45786 0.0276644 0)
(-1.57222 0.0309956 0)
(-1.47834 0.0378713 0)
(-1.59475 0.0388584 0)
(-1.49264 0.0478571 0)
(-1.61137 0.0471556 0)
(-1.50069 0.0560604 0)
(-1.62195 0.0546362 0)
(-1.5034 0.0613047 0)
(-1.62693 0.0599445 0)
(-1.50174 0.0629793 0)
(-1.62706 0.0623061 0)
(-1.49644 0.0604892 0)
(-1.62316 0.0612205 0)
(-1.48862 0.0530627 0)
(-1.61638 0.055968 0)
(-1.48015 0.0404208 0)
(-1.60841 0.0459054 0)
(-1.47309 0.0234459 0)
(-1.60125 0.0312601 0)
(-1.46894 0.00398958 0)
(-1.59664 0.0133828 0)
(-1.46839 -0.0160303 0)
(-1.59565 -0.00581207 0)
(-1.47095 -0.0353238 0)
(-1.59874 -0.0246827 0)
(-1.47639 -0.051632 0)
(-1.60573 -0.0426131 0)
(-1.61108 -0.0557618 0)
(-0.20405 -0.452237 0)
(-0.167698 -0.422554 0)
(-0.416125 -0.313134 0)
(-0.376627 -0.271869 0)
(-0.619663 -0.203549 0)
(-0.621953 -0.145558 0)
(-0.804104 -0.125455 0)
(-0.823416 -0.0667292 0)
(-0.96626 -0.0699391 0)
(-0.996934 -0.0167436 0)