/*--------------------------------*- C++ -*----------------------------------*\
  =========                 |
  \\      /  F ield         | OpenFOAM: The Open Source CFD Toolbox
   \\    /   O peration     | Website:  https://openfoam.org
    \\  /    A nd           | Version:  7
     \\/     M anipulation  |
\*---------------------------------------------------------------------------*/
FoamFile
{
    version     2.0;
    format      ascii;
    class       surfaceScalarField;
    location    "6.06";
    object      phi;
}
// * * * * * * * * * * * * * * * * * * * * * * * * * * * * * * * * * * * * * //

dimensions      [1 0 -1 0 0 0 0];

internalField   nonuniform List<scalar> 
23692
(
1.18924e-05
-2.57739e-07
1.23379e-05
-4.45247e-07
1.2942e-05
-6.03551e-07
1.36808e-05
-7.38045e-07
1.45371e-05
-8.55429e-07
1.54985e-05
-9.60314e-07
1.65557e-05
-1.05599e-06
1.7702e-05
-1.14485e-06
1.89319e-05
-1.22837e-06
2.02409e-05
-1.30725e-06
2.16241e-05
-1.38143e-06
2.30764e-05
-1.45029e-06
2.45912e-05
-1.51276e-06
2.61609e-05
-1.56758e-06
2.77766e-05
-1.61349e-06
2.94283e-05
-1.64939e-06
3.11052e-05
-1.67447e-06
3.27959e-05
-1.6883e-06
3.44892e-05
-1.69082e-06
3.61741e-05
-1.68234e-06
3.78401e-05
-1.66347e-06
3.94777e-05
-1.63505e-06
4.10784e-05
-1.59809e-06
4.26348e-05
-1.5537e-06
4.41404e-05
-1.50303e-06
4.55902e-05
-1.44719e-06
4.69801e-05
-1.38729e-06
4.83071e-05
-1.32433e-06
4.95689e-05
-1.25924e-06
5.07643e-05
-1.19283e-06
5.18927e-05
-1.12585e-06
5.29542e-05
-1.05892e-06
5.39492e-05
-9.92572e-07
5.48789e-05
-9.27265e-07
5.57447e-05
-8.63371e-07
5.65482e-05
-8.01193e-07
5.72914e-05
-7.4097e-07
5.79765e-05
-6.8289e-07
5.86057e-05
-6.27091e-07
5.91814e-05
-5.73671e-07
5.97061e-05
-5.22689e-07
6.01821e-05
-4.74176e-07
6.0612e-05
-4.28137e-07
6.09983e-05
-3.84552e-07
6.13432e-05
-3.43381e-07
6.16492e-05
-3.04567e-07
6.19186e-05
-2.68038e-07
6.21535e-05
-2.33705e-07
6.2356e-05
-2.01472e-07
6.25281e-05
-1.71224e-07
6.26718e-05
-1.4284e-07
6.27886e-05
-1.16185e-07
6.28802e-05
-9.11143e-08
6.29479e-05
-6.7471e-08
6.29932e-05
-4.50879e-08
6.3017e-05
-2.37859e-08
6.30202e-05
-3.37474e-09
6.30035e-05
1.63387e-08
6.29675e-05
3.55745e-08
6.29122e-05
5.45753e-08
6.28378e-05
7.36171e-08
6.27438e-05
9.30104e-08
6.26296e-05
1.13106e-07
6.2494e-05
1.3431e-07
6.23355e-05
1.57093e-07
6.21519e-05
1.8202e-07
6.19405e-05
2.09775e-07
6.16975e-05
2.41214e-07
6.14181e-05
2.77433e-07
6.10963e-05
3.19876e-07
6.07237e-05
3.70515e-07
6.02894e-05
4.32137e-07
5.97783e-05
5.08839e-07
5.91692e-05
6.06901e-07
5.84305e-05
7.36399e-07
5.75139e-05
9.14284e-07
5.63411e-05
1.17053e-06
5.47775e-05
1.56128e-06
5.25723e-05
2.20299e-06
4.91838e-05
3.38636e-06
6.36015e-06
4.28215e-05
1.27166e-05
-5.25679e-07
1.31904e-05
-9.18666e-07
1.38345e-05
-1.24712e-06
1.46229e-05
-1.52566e-06
1.55374e-05
-1.76892e-06
1.65645e-05
-1.98627e-06
1.76944e-05
-2.18454e-06
1.89197e-05
-2.3687e-06
2.02349e-05
-2.54186e-06
2.16349e-05
-2.70543e-06
2.31148e-05
-2.85934e-06
2.46689e-05
-3.00226e-06
2.62903e-05
-3.132e-06
2.79709e-05
-3.24593e-06
2.97012e-05
-3.34139e-06
3.14704e-05
-3.41611e-06
3.32669e-05
-3.46839e-06
3.50785e-05
-3.49733e-06
3.68932e-05
-3.50281e-06
3.8699e-05
-3.48544e-06
4.04848e-05
-3.44649e-06
4.22402e-05
-3.38771e-06
4.39561e-05
-3.3112e-06
4.56244e-05
-3.21925e-06
4.72385e-05
-3.11425e-06
4.87926e-05
-2.99854e-06
5.02825e-05
-2.87439e-06
5.17049e-05
-2.74388e-06
5.30573e-05
-2.60894e-06
5.43386e-05
-2.47128e-06
5.55478e-05
-2.33242e-06
5.66853e-05
-2.19366e-06
5.77515e-05
-2.05611e-06
5.87475e-05
-1.92072e-06
5.9675e-05
-1.78825e-06
6.05356e-05
-1.65934e-06
6.13315e-05
-1.53448e-06
6.2065e-05
-1.41405e-06
6.27386e-05
-1.29835e-06
6.33547e-05
-1.18757e-06
6.39159e-05
-1.08184e-06
6.4425e-05
-9.81226e-07
6.48845e-05
-8.85723e-07
6.5297e-05
-7.95296e-07
6.56651e-05
-7.09861e-07
6.59914e-05
-6.29299e-07
6.62783e-05
-5.53458e-07
6.6528e-05
-4.82157e-07
6.67428e-05
-4.15189e-07
6.69249e-05
-3.52323e-07
6.70762e-05
-2.93303e-07
6.71985e-05
-2.3785e-07
6.72936e-05
-1.85664e-07
6.73629e-05
-1.36422e-07
6.74078e-05
-8.97758e-08
6.74293e-05
-4.53565e-08
6.74286e-05
-2.77223e-09
6.74062e-05
3.83716e-08
6.73627e-05
7.85269e-08
6.72984e-05
1.18191e-07
6.72132e-05
1.57926e-07
6.71068e-05
1.98365e-07
6.69785e-05
2.40218e-07
6.68272e-05
2.84301e-07
6.66512e-05
3.31561e-07
6.64484e-05
3.83122e-07
6.62161e-05
4.40339e-07
6.59505e-05
5.04884e-07
6.5647e-05
5.78879e-07
6.52996e-05
6.65078e-07
6.49008e-05
7.67172e-07
6.44403e-05
8.90248e-07
6.39053e-05
1.04155e-06
6.3278e-05
1.23174e-06
6.2535e-05
1.47701e-06
6.16441e-05
1.80271e-06
6.05625e-05
2.24962e-06
5.92366e-05
2.88474e-06
5.76144e-05
3.82285e-06
5.5734e-05
5.26443e-06
7.47497e-06
5.46169e-05
1.35952e-05
-8.0136e-07
1.40958e-05
-1.41884e-06
1.47791e-05
-1.92988e-06
1.56178e-05
-2.36353e-06
1.65921e-05
-2.74217e-06
1.76875e-05
-3.08042e-06
1.88934e-05
-3.38901e-06
2.0202e-05
-3.6757e-06
2.16073e-05
-3.94538e-06
2.31041e-05
-4.20029e-06
2.46872e-05
-4.4403e-06
2.63505e-05
-4.66336e-06
2.80869e-05
-4.86602e-06
2.98876e-05
-5.04415e-06
3.17423e-05
-5.19359e-06
3.36396e-05
-5.31073e-06
3.55669e-05
-5.39292e-06
3.7511e-05
-5.4387e-06
3.94589e-05
-5.44785e-06
4.13977e-05
-5.42134e-06
4.33153e-05
-5.36112e-06
4.52005e-05
-5.26994e-06
4.70433e-05
-5.15106e-06
4.88352e-05
-5.00808e-06
5.05686e-05
-4.84471e-06
5.22377e-05
-4.66463e-06
5.38377e-05
-4.47136e-06
5.5365e-05
-4.26817e-06
5.68171e-05
-4.05807e-06
5.81925e-05
-3.84374e-06
5.94905e-05
-3.62752e-06
6.07112e-05
-3.41145e-06
6.18552e-05
-3.19728e-06
6.29237e-05
-2.98645e-06
6.39184e-05
-2.78018e-06
6.48412e-05
-2.57944e-06
6.56943e-05
-2.385e-06
6.64802e-05
-2.19746e-06
6.72016e-05
-2.01726e-06
6.78611e-05
-1.84472e-06
6.84615e-05
-1.68002e-06
6.90057e-05
-1.52326e-06
6.94964e-05
-1.37444e-06
6.99365e-05
-1.2335e-06
7.03287e-05
-1.1003e-06
7.06758e-05
-9.7466e-07
7.09802e-05
-8.56338e-07
7.12444e-05
-7.45051e-07
7.14709e-05
-6.40475e-07
7.16619e-05
-5.4225e-07
7.18195e-05
-4.49976e-07
7.19456e-05
-3.63221e-07
7.2042e-05
-2.81516e-07
7.21103e-05
-2.04362e-07
7.21519e-05
-1.31219e-07
7.21681e-05
-6.15175e-08
7.21598e-05
5.34361e-09
7.21278e-05
6.99599e-08
7.20728e-05
1.3303e-07
7.19949e-05
1.9531e-07
7.18943e-05
2.57655e-07
7.17705e-05
3.21015e-07
7.1623e-05
3.86453e-07
7.14507e-05
4.55179e-07
7.1252e-05
5.28589e-07
7.1025e-05
6.08314e-07
7.07672e-05
6.963e-07
7.04751e-05
7.94913e-07
7.01447e-05
9.0709e-07
6.97709e-05
1.03656e-06
6.93476e-05
1.18815e-06
6.88671e-05
1.3683e-06
6.83204e-05
1.58571e-06
6.76972e-05
1.8524e-06
6.69863e-05
2.18522e-06
6.61785e-05
2.60791e-06
6.52717e-05
3.15377e-06
6.42856e-05
3.86827e-06
6.32962e-05
4.80969e-06
6.25223e-05
6.03579e-06
7.52786e-06
6.2467e-05
1.45333e-05
-1.08349e-06
1.50588e-05
-1.94401e-06
1.57808e-05
-2.65125e-06
1.66703e-05
-3.25215e-06
1.7706e-05
-3.77671e-06
1.88721e-05
-4.24526e-06
2.01575e-05
-4.67281e-06
2.15537e-05
-5.07018e-06
2.30544e-05
-5.44422e-06
2.46543e-05
-5.79808e-06
2.63479e-05
-6.13162e-06
2.81289e-05
-6.44196e-06
2.99897e-05
-6.7243e-06
3.1921e-05
-6.97283e-06
3.39119e-05
-7.18168e-06
3.59497e-05
-7.34576e-06
3.8021e-05
-7.4613e-06
4.01115e-05
-7.52621e-06
4.22069e-05
-7.54014e-06
4.42931e-05
-7.50442e-06
4.63568e-05
-7.42176e-06
4.8386e-05
-7.29596e-06
5.03698e-05
-7.1316e-06
5.22986e-05
-6.93368e-06
5.41645e-05
-6.70738e-06
5.59609e-05
-6.45782e-06
5.76827e-05
-6.18992e-06
5.9326e-05
-5.90824e-06
6.0888e-05
-5.61696e-06
6.23673e-05
-5.31979e-06
6.37629e-05
-5.02001e-06
6.5075e-05
-4.72045e-06
6.63043e-05
-4.42353e-06
6.7452e-05
-4.13125e-06
6.85201e-05
-3.84529e-06
6.95105e-05
-3.56699e-06
7.04257e-05
-3.29743e-06
7.12684e-05
-3.03743e-06
7.20413e-05
-2.78759e-06
7.27475e-05
-2.54834e-06
7.33898e-05
-2.31994e-06
7.39714e-05
-2.10251e-06
7.44952e-05
-1.89605e-06
7.49642e-05
-1.70048e-06
7.53814e-05
-1.51559e-06
7.57497e-05
-1.34113e-06
7.60717e-05
-1.17676e-06
7.63502e-05
-1.02208e-06
7.65877e-05
-8.76654e-07
7.67866e-05
-7.3997e-07
7.6949e-05
-6.11477e-07
7.70772e-05
-4.90578e-07
7.71729e-05
-3.76627e-07
7.72379e-05
-2.68936e-07
7.72736e-05
-1.66767e-07
7.72814e-05
-6.93371e-08
7.72624e-05
2.41521e-08
7.72175e-05
1.14517e-07
7.71473e-05
2.02687e-07
7.70521e-05
2.8969e-07
7.69321e-05
3.76662e-07
7.67871e-05
4.64852e-07
7.66165e-05
5.5565e-07
7.64195e-05
6.50615e-07
7.61949e-05
7.51524e-07
7.59409e-05
8.6042e-07
7.56555e-05
9.79694e-07
7.5336e-05
1.11218e-06
7.49795e-05
1.26132e-06
7.45823e-05
1.43129e-06
7.41406e-05
1.62733e-06
7.36502e-05
1.85601e-06
7.31075e-05
2.12569e-06
7.25102e-05
2.44697e-06
7.18594e-05
2.83325e-06
7.11635e-05
3.30099e-06
7.04451e-05
3.86934e-06
6.97525e-05
4.5581e-06
6.91775e-05
5.382e-06
6.88738e-05
6.33674e-06
7.36551e-06
6.90336e-05
1.55357e-05
-1.37157e-06
1.60851e-05
-2.49297e-06
1.68453e-05
-3.41079e-06
1.77861e-05
-4.192e-06
1.88847e-05
-4.8741e-06
2.01243e-05
-5.48341e-06
2.14927e-05
-6.03959e-06
2.29812e-05
-6.55685e-06
2.45833e-05
-7.04421e-06
2.62934e-05
-7.50589e-06
2.81059e-05
-7.94172e-06
3.00144e-05
-8.34794e-06
3.2011e-05
-8.71819e-06
3.40857e-05
-9.04473e-06
3.62268e-05
-9.31977e-06
3.84205e-05
-9.53647e-06
4.06521e-05
-9.68976e-06
4.29059e-05
-9.77679e-06
4.51661e-05
-9.79706e-06
4.74172e-05
-9.75223e-06
4.96447e-05
-9.64587e-06
5.18351e-05
-9.48296e-06
5.39765e-05
-9.26952e-06
5.60584e-05
-9.01212e-06
5.80721e-05
-8.71758e-06
6.00103e-05
-8.39263e-06
6.18676e-05
-8.0437e-06
6.36396e-05
-7.6768e-06
6.53234e-05
-7.29738e-06
6.69173e-05
-6.91032e-06
6.84206e-05
-6.51989e-06
6.98332e-05
-6.12977e-06
7.11561e-05
-5.74312e-06
7.23906e-05
-5.36255e-06
7.35386e-05
-4.99023e-06
7.46026e-05
-4.62792e-06
7.55852e-05
-4.27699e-06
7.64892e-05
-3.9385e-06
7.73176e-05
-3.61323e-06
7.80737e-05
-3.30173e-06
7.87607e-05
-3.00432e-06
7.93818e-05
-2.72116e-06
7.99403e-05
-2.45223e-06
8.04395e-05
-2.19741e-06
8.08824e-05
-1.95644e-06
8.12721e-05
-1.72897e-06
8.16117e-05
-1.51456e-06
8.19039e-05
-1.3127e-06
8.21515e-05
-1.1228e-06
8.23569e-05
-9.44195e-07
8.25226e-05
-7.76178e-07
8.26509e-05
-6.17975e-07
8.27437e-05
-4.68753e-07
8.28028e-05
-3.27624e-07
8.28299e-05
-1.93646e-07
8.28264e-05
-6.58243e-08
8.27935e-05
5.6836e-08
8.27323e-05
1.75358e-07
8.26435e-05
2.90911e-07
8.25275e-05
4.04784e-07
8.23848e-05
5.18368e-07
8.22152e-05
6.3318e-07
8.20185e-05
7.50883e-07
8.17942e-05
8.73319e-07
8.15413e-05
1.00254e-06
8.12589e-05
1.14086e-06
8.09455e-05
1.29092e-06
8.05996e-05
1.45575e-06
8.02196e-05
1.63888e-06
7.98038e-05
1.84443e-06
7.93512e-05
2.07725e-06
7.88614e-05
2.34305e-06
7.83357e-05
2.64848e-06
7.77786e-05
3.00112e-06
7.71996e-05
3.40927e-06
7.66164e-05
3.88125e-06
7.60588e-05
4.42396e-06
7.55737e-05
5.04015e-06
7.5229e-05
5.72381e-06
7.51099e-05
6.45295e-06
7.17801e-06
7.52946e-05
1.66078e-05
-1.66578e-06
1.71804e-05
-3.06513e-06
1.79789e-05
-4.20852e-06
1.89718e-05
-5.18389e-06
2.01351e-05
-6.03619e-06
2.14511e-05
-6.7978e-06
2.29067e-05
-7.49343e-06
2.44929e-05
-8.14105e-06
2.6203e-05
-8.75212e-06
2.80316e-05
-9.33205e-06
2.99731e-05
-9.88071e-06
3.20212e-05
-1.03933e-05
3.41676e-05
-1.08616e-05
3.64016e-05
-1.12757e-05
3.87105e-05
-1.16255e-05
4.10793e-05
-1.1902e-05
4.34916e-05
-1.20987e-05
4.59299e-05
-1.22117e-05
4.83766e-05
-1.22402e-05
5.08145e-05
-1.21865e-05
5.32271e-05
-1.20549e-05
5.55997e-05
-1.18519e-05
5.79188e-05
-1.1585e-05
6.0173e-05
-1.12626e-05
6.23526e-05
-1.08935e-05
6.44498e-05
-1.0486e-05
6.64583e-05
-1.00485e-05
6.83736e-05
-9.58844e-06
7.01927e-05
-9.11275e-06
7.19135e-05
-8.62755e-06
7.35355e-05
-8.13822e-06
7.50587e-05
-7.64939e-06
7.6484e-05
-7.165e-06
7.78133e-05
-6.68832e-06
7.90485e-05
-6.22205e-06
8.01922e-05
-5.76837e-06
8.12474e-05
-5.329e-06
8.22173e-05
-4.90522e-06
8.31051e-05
-4.49802e-06
8.39143e-05
-4.10804e-06
8.46485e-05
-3.73568e-06
8.53111e-05
-3.38111e-06
8.59057e-05
-3.04431e-06
8.64357e-05
-2.7251e-06
8.69047e-05
-2.42316e-06
8.73158e-05
-2.13803e-06
8.76723e-05
-1.86916e-06
8.79772e-05
-1.61589e-06
8.82334e-05
-1.3775e-06
8.84437e-05
-1.15315e-06
8.86106e-05
-9.41975e-07
8.87366e-05
-7.42998e-07
8.88237e-05
-5.55198e-07
8.88741e-05
-3.77483e-07
8.88894e-05
-2.08695e-07
8.88713e-05
-4.76515e-08
8.88211e-05
1.06832e-07
8.874e-05
2.55984e-07
8.86291e-05
4.01217e-07
8.8489e-05
5.44047e-07
8.83201e-05
6.86089e-07
8.81229e-05
8.29076e-07
8.78974e-05
9.74875e-07
8.76435e-05
1.12551e-06
8.73609e-05
1.2832e-06
8.70493e-05
1.45034e-06
8.67083e-05
1.62962e-06
8.63376e-05
1.82396e-06
8.59372e-05
2.03662e-06
8.55077e-05
2.27119e-06
8.50505e-05
2.53159e-06
8.45686e-05
2.82201e-06
8.40672e-05
3.14681e-06
8.3555e-05
3.51018e-06
8.30454e-05
3.91564e-06
8.25583e-05
4.36518e-06
8.21212e-05
4.85792e-06
8.17699e-05
5.38824e-06
8.15471e-05
5.94345e-06
8.14958e-05
6.5011e-06
7.02691e-06
8.16439e-05
1.77549e-05
-1.96688e-06
1.83509e-05
-3.66057e-06
1.91882e-05
-5.04506e-06
2.02345e-05
-6.22915e-06
2.1465e-05
-7.26528e-06
2.28607e-05
-8.19191e-06
2.44084e-05
-9.03915e-06
2.60986e-05
-9.82911e-06
2.79249e-05
-1.0576e-05
2.98821e-05
-1.12867e-05
3.19653e-05
-1.19611e-05
3.4168e-05
-1.25931e-05
3.64819e-05
-1.31723e-05
3.88955e-05
-1.36861e-05
4.13949e-05
-1.41215e-05
4.39633e-05
-1.4467e-05
4.65822e-05
-1.4714e-05
4.92319e-05
-1.48576e-05
5.18923e-05
-1.48969e-05
5.45438e-05
-1.48342e-05
5.7168e-05
-1.46753e-05
5.97482e-05
-1.44281e-05
6.22693e-05
-1.41021e-05
6.47186e-05
-1.37079e-05
6.70854e-05
-1.32562e-05
6.9361e-05
-1.27577e-05
7.15388e-05
-1.22223e-05
7.3614e-05
-1.16596e-05
7.55831e-05
-1.10779e-05
7.74444e-05
-1.04849e-05
7.91971e-05
-9.88703e-06
8.08415e-05
-9.29002e-06
8.23789e-05
-8.69863e-06
8.38111e-05
-8.11685e-06
8.51407e-05
-7.54796e-06
8.63704e-05
-6.99456e-06
8.75036e-05
-6.45872e-06
8.85437e-05
-5.94199e-06
8.94945e-05
-5.44552e-06
9.03596e-05
-4.97008e-06
9.11431e-05
-4.51612e-06
9.18487e-05
-4.08382e-06
9.24802e-05
-3.67313e-06
9.30415e-05
-3.28382e-06
9.35362e-05
-2.91548e-06
9.39679e-05
-2.56753e-06
9.43401e-05
-2.2393e-06
9.46561e-05
-1.92999e-06
9.49189e-05
-1.6387e-06
9.51317e-05
-1.36443e-06
9.5297e-05
-1.10611e-06
9.54176e-05
-8.62599e-07
9.54959e-05
-6.32656e-07
9.55339e-05
-4.1498e-07
9.55337e-05
-2.08198e-07
9.54971e-05
-1.09897e-08
9.54258e-05
1.78001e-07
9.53211e-05
3.60266e-07
9.51842e-05
5.37417e-07
9.50162e-05
7.11161e-07
9.48179e-05
8.83287e-07
9.45899e-05
1.05568e-06
9.43328e-05
1.23033e-06
9.40471e-05
1.40934e-06
9.37334e-05
1.59494e-06
9.3392e-05
1.78948e-06
9.30237e-05
1.99545e-06
9.26296e-05
2.21545e-06
9.22112e-05
2.4522e-06
9.17711e-05
2.70844e-06
9.13127e-05
2.9869e-06
9.08415e-05
3.29009e-06
9.03649e-05
3.62012e-06
8.98935e-05
3.9783e-06
8.94411e-05
4.36468e-06
8.90255e-05
4.77738e-06
8.86682e-05
5.21175e-06
8.83935e-05
5.65954e-06
8.82255e-05
6.10808e-06
8.81834e-05
6.53993e-06
6.93382e-06
8.82732e-05
1.89826e-05
-2.2761e-06
1.96027e-05
-4.28012e-06
2.04803e-05
-5.92179e-06
2.15821e-05
-7.32983e-06
2.28828e-05
-8.56446e-06
2.43627e-05
-9.67009e-06
2.60082e-05
-1.06826e-05
2.78101e-05
-1.16287e-05
2.97626e-05
-1.2526e-05
3.18614e-05
-1.33827e-05
3.41022e-05
-1.41989e-05
3.64791e-05
-1.49668e-05
3.89835e-05
-1.56734e-05
4.16033e-05
-1.63024e-05
4.43225e-05
-1.68371e-05
4.71223e-05
-1.72629e-05
4.99811e-05
-1.75689e-05
5.2876e-05
-1.77486e-05
5.5784e-05
-1.78007e-05
5.86824e-05
-1.77285e-05
6.15501e-05
-1.75389e-05
6.43682e-05
-1.72419e-05
6.71197e-05
-1.68494e-05
6.97904e-05
-1.63744e-05
7.23685e-05
-1.58301e-05
7.48448e-05
-1.52296e-05
7.72119e-05
-1.45852e-05
7.94647e-05
-1.39082e-05
8.16e-05
-1.3209e-05
8.36159e-05
-1.24966e-05
8.55119e-05
-1.17789e-05
8.72887e-05
-1.10626e-05
8.89477e-05
-1.03536e-05
9.04912e-05
-9.6564e-06
9.19222e-05
-8.97498e-06
9.32438e-05
-8.31239e-06
9.44599e-05
-7.67104e-06
9.55742e-05
-7.05274e-06
9.6591e-05
-6.45881e-06
9.75144e-05
-5.89011e-06
9.83487e-05
-5.34715e-06
9.90981e-05
-4.8301e-06
9.97668e-05
-4.33888e-06
0.000100359
-3.87316e-06
0.000100878
-3.43243e-06
0.000101329
-3.01601e-06
0.000101715
-2.62306e-06
0.00010204
-2.25262e-06
0.000102307
-1.90362e-06
0.000102519
-1.57488e-06
0.000102679
-1.26514e-06
0.000102791
-9.73045e-07
0.000102856
-6.97161e-07
0.000102878
-4.35979e-07
0.000102858
-1.87928e-07
0.000102798
4.84724e-08
0.000102701
2.74717e-07
0.000102569
4.92534e-07
0.000102402
7.03728e-07
0.000102202
9.10151e-07
0.00010197
1.11371e-06
0.000101708
1.31638e-06
0.000101417
1.52017e-06
0.000101097
1.72718e-06
0.00010075
1.93952e-06
0.000100378
2.15936e-06
9.99819e-05
2.38884e-06
9.95645e-05
2.63009e-06
9.91286e-05
2.88512e-06
9.86782e-05
3.15577e-06
9.82183e-05
3.44355e-06
9.77556e-05
3.74951e-06
9.72983e-05
4.07397e-06
9.68568e-05
4.41627e-06
9.64435e-05
4.77445e-06
9.60724e-05
5.14483e-06
9.57588e-05
5.52175e-06
9.55175e-05
5.89727e-06
9.53608e-05
6.26119e-06
9.52956e-05
6.6015e-06
6.90573e-06
9.53202e-05
2.02968e-05
-2.59502e-06
2.09425e-05
-4.9253e-06
2.18625e-05
-6.84087e-06
2.30228e-05
-8.4889e-06
2.43976e-05
-9.93774e-06
2.59672e-05
-1.12378e-05
2.77179e-05
-1.24311e-05
2.96413e-05
-1.35497e-05
3.17328e-05
-1.46148e-05
3.39898e-05
-1.56367e-05
3.64093e-05
-1.66152e-05
3.89863e-05
-1.75404e-05
4.17119e-05
-1.83954e-05
4.45727e-05
-1.91594e-05
4.75504e-05
-1.98108e-05
5.06224e-05
-2.03309e-05
5.37632e-05
-2.07056e-05
5.69458e-05
-2.09269e-05
6.01429e-05
-2.09934e-05
6.33281e-05
-2.09092e-05
6.6477e-05
-2.06833e-05
6.9568e-05
-2.03283e-05
7.25822e-05
-1.9859e-05
7.55037e-05
-1.92913e-05
7.83196e-05
-1.86415e-05
8.10201e-05
-1.79254e-05
8.35976e-05
-1.7158e-05
8.60468e-05
-1.63528e-05
8.83646e-05
-1.55222e-05
9.05494e-05
-1.46768e-05
9.26011e-05
-1.38261e-05
9.45209e-05
-1.29779e-05
9.63106e-05
-1.21389e-05
9.79731e-05
-1.13146e-05
9.95118e-05
-1.05095e-05
0.000100931
-9.72708e-06
0.000102234
-8.97012e-06
0.000103426
-8.24066e-06
0.000104511
-7.54018e-06
0.000105494
-6.86963e-06
0.00010638
-6.22953e-06
0.000107173
-5.62003e-06
0.000107878
-5.04098e-06
0.0001085
-4.49197e-06
0.000109043
-3.97235e-06
0.000109511
-3.48129e-06
0.000109908
-3.0178e-06
0.000110238
-2.58074e-06
0.000110505
-2.16885e-06
0.000110713
-1.78076e-06
0.000110864
-1.41501e-06
0.000110963
-1.07004e-06
0.000111011
-7.44209e-07
0.000111011
-4.35826e-07
0.000110967
-1.43156e-07
0.00011088
1.35471e-07
0.000110753
4.01693e-07
0.000110588
6.57435e-07
0.000110386
9.04658e-07
0.00011015
1.14532e-06
0.000109881
1.38139e-06
0.000109581
1.61485e-06
0.000109252
1.84769e-06
0.000108895
2.08188e-06
0.000108513
2.31935e-06
0.000108108
2.56198e-06
0.000107683
2.8115e-06
0.00010724
3.06949e-06
0.000106785
3.33729e-06
0.000106322
3.61589e-06
0.000105856
3.90583e-06
0.000105395
4.20704e-06
0.000104947
4.51872e-06
0.00010452
4.83914e-06
0.000104125
5.1655e-06
0.000103772
5.49378e-06
0.000103472
5.81872e-06
0.000103231
6.13391e-06
0.000103057
6.432e-06
0.000102949
6.70523e-06
6.94666e-06
0.000102904
2.17034e-05
-2.92551e-06
2.2377e-05
-5.59832e-06
2.33425e-05
-7.80534e-06
2.45652e-05
-9.71032e-06
2.60195e-05
-1.13903e-05
2.76857e-05
-1.29019e-05
2.95509e-05
-1.42939e-05
3.16083e-05
-1.56044e-05
3.38558e-05
-1.68593e-05
3.62932e-05
-1.80708e-05
3.89198e-05
-1.92383e-05
4.17317e-05
-2.03487e-05
4.47197e-05
-2.13795e-05
4.78679e-05
-2.23035e-05
5.11539e-05
-2.30927e-05
5.45503e-05
-2.37229e-05
5.80259e-05
-2.41766e-05
6.15477e-05
-2.44441e-05
6.50831e-05
-2.45241e-05
6.86013e-05
-2.44226e-05
7.2074e-05
-2.41512e-05
7.54767e-05
-2.3726e-05
7.87882e-05
-2.31655e-05
8.19913e-05
-2.24894e-05
8.50724e-05
-2.17176e-05
8.8021e-05
-2.0869e-05
9.08296e-05
-1.99616e-05
9.34932e-05
-1.90114e-05
9.60089e-05
-1.8033e-05
9.83758e-05
-1.70389e-05
0.000100594
-1.60399e-05
0.000102666
-1.50452e-05
0.000104595
-1.40624e-05
0.000106383
-1.30979e-05
0.000108034
-1.21566e-05
0.000109554
-1.12426e-05
0.000110947
-1.03589e-05
0.000112219
-9.50784e-06
0.000113374
-8.69092e-06
0.000114417
-7.90917e-06
0.000115355
-7.16311e-06
0.000116191
-6.45284e-06
0.000116932
-5.77812e-06
0.000117581
-5.1384e-06
0.000118145
-4.5329e-06
0.000118627
-3.9606e-06
0.000119032
-3.42035e-06
0.000119365
-2.91081e-06
0.000119629
-2.43052e-06
0.000119828
-1.97791e-06
0.000119966
-1.55132e-06
0.000120046
-1.14897e-06
0.000120072
-7.69042e-07
0.000120047
-4.09624e-07
0.000119973
-6.89309e-08
0.000119854
2.54886e-07
0.000119692
5.63728e-07
0.000119489
8.59675e-07
0.000119248
1.14477e-06
0.000118972
1.42104e-06
0.000118661
1.69045e-06
0.00011832
1.95496e-06
0.000117949
2.21646e-06
0.000117552
2.47675e-06
0.000117132
2.73754e-06
0.000116691
3.00036e-06
0.000116233
3.26655e-06
0.000115762
3.5372e-06
0.000115283
3.81306e-06
0.000114801
4.09449e-06
0.000114322
4.38134e-06
0.000113852
4.67291e-06
0.0001134
4.96783e-06
0.000112971
5.26404e-06
0.000112574
5.55868e-06
0.000112215
5.8482e-06
0.000111901
6.12836e-06
0.000111637
6.39446e-06
0.000111423
6.64158e-06
0.000111259
6.86502e-06
7.06113e-06
0.000111141
2.32091e-05
-3.26968e-06
2.39135e-05
-6.30212e-06
2.49283e-05
-8.8191e-06
2.62187e-05
-1.09992e-05
2.77591e-05
-1.29289e-05
2.95307e-05
-1.46713e-05
3.15225e-05
-1.62831e-05
3.37308e-05
-1.78098e-05
3.61571e-05
-1.92824e-05
3.88054e-05
-2.07157e-05
4.16782e-05
-2.21074e-05
4.47726e-05
-2.34391e-05
4.80778e-05
-2.46806e-05
5.15739e-05
-2.57952e-05
5.52323e-05
-2.67465e-05
5.90178e-05
-2.75037e-05
6.28913e-05
-2.80453e-05
6.68126e-05
-2.83603e-05
7.07423e-05
-2.84488e-05
7.46442e-05
-2.83194e-05
7.84861e-05
-2.79879e-05
8.22405e-05
-2.74751e-05
8.58843e-05
-2.6804e-05
8.93993e-05
-2.5999e-05
9.27713e-05
-2.50842e-05
9.59899e-05
-2.40823e-05
9.90481e-05
-2.30144e-05
0.000101942
-2.18994e-05
0.000104668
-2.07542e-05
0.000107228
-1.95932e-05
0.000109622
-1.84288e-05
0.000111853
-1.72714e-05
0.000113926
-1.61296e-05
0.000115843
-1.50104e-05
0.000117611
-1.39195e-05
0.000119234
-1.28612e-05
0.000120719
-1.18388e-05
0.000122071
-1.08549e-05
0.000123295
-9.91095e-06
0.000124398
-9.00808e-06
0.000125386
-8.14672e-06
0.000126264
-7.32689e-06
0.000127038
-6.54821e-06
0.000127713
-5.80998e-06
0.000128295
-5.11123e-06
0.000128788
-4.45077e-06
0.000129198
-3.82724e-06
0.000129529
-3.23909e-06
0.000129785
-2.68466e-06
0.000129972
-2.16216e-06
0.000130092
-1.66973e-06
0.00013015
-1.2054e-06
0.000130149
-7.67132e-07
0.000130094
-3.5284e-07
0.000129986
3.92919e-08
0.00012983
4.11248e-07
0.000129628
7.65323e-07
0.000129384
1.10367e-06
0.0001291
1.42836e-06
0.000128779
1.74144e-06
0.000128423
2.04487e-06
0.000128036
2.34052e-06
0.00012762
2.63016e-06
0.00012718
2.91542e-06
0.000126717
3.19776e-06
0.000126236
3.47842e-06
0.000125741
3.7584e-06
0.000125237
4.0384e-06
0.000124728
4.31876e-06
0.00012422
4.59945e-06
0.000123717
4.87997e-06
0.000123227
5.15936e-06
0.000122755
5.43616e-06
0.000122306
5.70841e-06
0.000121887
5.97371e-06
0.000121502
6.22924e-06
0.000121154
6.47194e-06
0.000120846
6.69863e-06
0.000120577
6.90624e-06
0.000120345
7.0921e-06
7.25454e-06
0.000120148
2.48206e-05
-3.62989e-06
2.55595e-05
-7.04036e-06
2.66286e-05
-9.8871e-06
2.79931e-05
-1.23621e-05
2.96281e-05
-1.4562e-05
3.15169e-05
-1.65577e-05
3.36516e-05
-1.84151e-05
3.60335e-05
-2.01886e-05
3.86705e-05
-2.19159e-05
4.15723e-05
-2.36137e-05
4.4745e-05
-2.52761e-05
4.81862e-05
-2.6876e-05
5.18813e-05
-2.83711e-05
5.58028e-05
-2.9712e-05
5.99125e-05
-3.08512e-05
6.41643e-05
-3.17504e-05
6.85085e-05
-3.23842e-05
7.28957e-05
-3.27421e-05
7.7279e-05
-3.28267e-05
8.16167e-05
-3.26515e-05
8.58726e-05
-3.22381e-05
9.00165e-05
-3.16133e-05
9.40244e-05
-3.08061e-05
9.78775e-05
-2.98463e-05
0.000101562
-2.87628e-05
0.000105068
-2.75827e-05
0.00010839
-2.63304e-05
0.000111524
-2.50279e-05
0.00011447
-2.36945e-05
0.000117229
-2.23464e-05
0.000119804
-2.09977e-05
0.000122198
-1.96599e-05
0.000124417
-1.83426e-05
0.000126465
-1.70535e-05
0.00012835
-1.57985e-05
0.000130077
-1.45825e-05
0.000131652
-1.3409e-05
0.000133082
-1.22805e-05
0.000134375
-1.11986e-05
0.000135536
-1.01644e-05
0.000136572
-9.17806e-06
0.000137489
-8.23961e-06
0.000138293
-7.34845e-06
0.000138991
-6.50369e-06
0.000139587
-5.70416e-06
0.000140089
-4.94845e-06
0.0001405
-4.23498e-06
0.000140825
-3.56197e-06
0.000141071
-2.92755e-06
0.000141241
-2.32972e-06
0.00014134
-1.76641e-06
0.000141371
-1.23547e-06
0.00014134
-7.34714e-07
0.000141251
-2.61942e-07
0.000141106
1.85042e-07
0.000140909
6.08293e-07
0.000140665
1.01019e-06
0.000140375
1.39303e-06
0.000140044
1.75894e-06
0.000139674
2.10996e-06
0.00013927
2.448e-06
0.000138834
2.77486e-06
0.00013837
3.09219e-06
0.000137882
3.40145e-06
0.000137374
3.7039e-06
0.000136849
4.00056e-06
0.000136312
4.29218e-06
0.000135768
4.57923e-06
0.000135222
4.86184e-06
0.000134678
5.13981e-06
0.000134141
5.41256e-06
0.000133618
5.67918e-06
0.000133111
5.9384e-06
0.000132627
6.18866e-06
0.000132168
6.42815e-06
0.000131738
6.6549e-06
0.000131339
6.8669e-06
0.000130971
7.06218e-06
0.000130633
7.23901e-06
0.000130325
7.39603e-06
7.53275e-06
0.000130042
2.65452e-05
-4.00874e-06
2.73231e-05
-7.81751e-06
2.84527e-05
-1.10155e-05
2.98995e-05
-1.38072e-05
3.16403e-05
-1.63006e-05
3.36616e-05
-1.85764e-05
3.59616e-05
-2.0712e-05
3.85495e-05
-2.27732e-05
4.14423e-05
-2.4805e-05
4.46572e-05
-2.68245e-05
4.82038e-05
-2.88184e-05
5.20775e-05
-3.0745e-05
5.62555e-05
-3.25442e-05
6.0698e-05
-3.41493e-05
6.53519e-05
-3.54998e-05
7.01567e-05
-3.65496e-05
7.50498e-05
-3.72716e-05
7.9971e-05
-3.76575e-05
8.48661e-05
-3.77158e-05
8.96878e-05
-3.74671e-05
9.4397e-05
-3.69412e-05
9.89622e-05
-3.61722e-05
0.000103359
-3.51966e-05
0.000107569
-3.40504e-05
0.000111581
-3.27678e-05
0.000115385
-3.13805e-05
0.000118978
-2.99168e-05
0.000122358
-2.84015e-05
0.000125526
-2.68563e-05
0.000128485
-2.52995e-05
0.00013124
-2.37463e-05
0.000133796
-2.22096e-05
0.000136159
-2.06996e-05
0.000138336
-1.92245e-05
0.000140334
-1.77909e-05
0.000142161
-1.64035e-05
0.000143824
-1.50661e-05
0.00014533
-1.37812e-05
0.000146687
-1.25504e-05
0.000147902
-1.13744e-05
0.000148982
-1.02536e-05
0.000149935
-9.18745e-06
0.000150766
-8.17534e-06
0.000151483
-7.21609e-06
0.000152091
-6.3083e-06
0.000152597
-5.45032e-06
0.000153006
-4.64031e-06
0.000153323
-3.87627e-06
0.000153555
-3.1561e-06
0.000153706
-2.47758e-06
0.00015378
-1.83844e-06
0.000153783
-1.23634e-06
0.000153719
-6.68941e-07
0.000153592
-1.33992e-07
0.000153407
3.70978e-07
0.000153168
8.48321e-07
0.000152878
1.30052e-06
0.000152541
1.72989e-06
0.000152161
2.1386e-06
0.000151742
2.52866e-06
0.000151286
2.90196e-06
0.0001508
3.26023e-06
0.000150285
3.60501e-06
0.000149747
3.93765e-06
0.000149189
4.25929e-06
0.000148616
4.57081e-06
0.000148032
4.87284e-06
0.000147443
5.16577e-06
0.000146851
5.44968e-06
0.000146263
5.72439e-06
0.000145682
5.98946e-06
0.000145113
6.2442e-06
0.00014456
6.48771e-06
0.000144025
6.71892e-06
0.000143512
6.93667e-06
0.000143023
7.13975e-06
0.000142558
7.32701e-06
0.000142118
7.49741e-06
0.000141703
7.65014e-06
0.000141309
7.7847e-06
7.90132e-06
0.000140936
2.83908e-05
-4.40922e-06
2.92131e-05
-8.63903e-06
3.04108e-05
-1.22119e-05
3.19504e-05
-1.5345e-05
3.38117e-05
-1.81595e-05
3.59869e-05
-2.07489e-05
3.84838e-05
-2.32057e-05
4.13241e-05
-2.56098e-05
4.45369e-05
-2.80137e-05
4.8148e-05
-3.04312e-05
5.21681e-05
-3.28338e-05
5.65848e-05
-3.51566e-05
6.13602e-05
-3.73142e-05
6.64349e-05
-3.92185e-05
7.17359e-05
-4.0795e-05
7.71843e-05
-4.1992e-05
8.27031e-05
-4.27842e-05
8.82216e-05
-4.31698e-05
9.36787e-05
-4.31663e-05
9.90233e-05
-4.28052e-05
0.000104215
-4.21261e-05
0.000109222
-4.11727e-05
0.000114022
-3.99896e-05
0.000118598
-3.86198e-05
0.000122941
-3.71035e-05
0.000127044
-3.54769e-05
0.000130906
-3.3772e-05
0.000134528
-3.20167e-05
0.000137914
-3.02349e-05
0.000141068
-2.84465e-05
0.000143996
-2.66682e-05
0.000146707
-2.49135e-05
0.000149207
-2.31935e-05
0.000151506
-2.15166e-05
0.000153611
-1.98896e-05
0.000155531
-1.83175e-05
0.000157275
-1.68038e-05
0.000158851
-1.5351e-05
0.000160267
-1.39605e-05
0.000161531
-1.2633e-05
0.000162651
-1.13683e-05
0.000163635
-1.01659e-05
0.000164489
-9.02468e-06
0.000165221
-7.94335e-06
0.000165838
-6.92017e-06
0.000166345
-5.95322e-06
0.000166749
-5.04041e-06
0.000167056
-4.17948e-06
0.000167271
-3.36809e-06
0.0001674
-2.60382e-06
0.000167449
-1.88418e-06
0.000167421
-1.20666e-06
0.000167323
-5.6872e-07
0.000167159
3.18929e-08
0.000166933
5.97842e-07
0.000166651
1.13201e-06
0.000166315
1.63687e-06
0.00016593
2.11472e-06
0.000165501
2.56776e-06
0.000165031
2.998e-06
0.000164525
3.40731e-06
0.000163986
3.79739e-06
0.00016342
4.16973e-06
0.00016283
4.52562e-06
0.000162221
4.86615e-06
0.000161597
5.19218e-06
0.000160962
5.50433e-06
0.000160322
5.80303e-06
0.000159679
6.08845e-06
0.00015904
6.3606e-06
0.000158406
6.61925e-06
0.000157782
6.86407e-06
0.000157171
7.09458e-06
0.000156575
7.31021e-06
0.000155997
7.5104e-06
0.000155437
7.69459e-06
0.000154897
7.86229e-06
0.000154377
8.01316e-06
0.000153875
8.14702e-06
0.000153391
8.26393e-06
8.36454e-06
0.000152923
3.03656e-05
-4.83474e-06
3.1239e-05
-9.51157e-06
3.25146e-05
-1.34859e-05
3.41608e-05
-1.69892e-05
3.61624e-05
-2.01586e-05
3.85219e-05
-2.31053e-05
4.12616e-05
-2.59419e-05
4.4421e-05
-2.87653e-05
4.80448e-05
-3.1633e-05
5.21655e-05
-3.45471e-05
5.67886e-05
-3.74517e-05
6.18842e-05
-4.02468e-05
6.73893e-05
-4.28135e-05
7.32171e-05
-4.50402e-05
7.92692e-05
-4.68407e-05
8.54468e-05
-4.81631e-05
9.16584e-05
-4.89891e-05
9.78245e-05
-4.9329e-05
0.000103879
-4.92141e-05
0.000109771
-4.86893e-05
0.000115458
-4.78066e-05
0.000120914
-4.66206e-05
0.000126117
-4.51849e-05
0.000131054
-4.355e-05
0.00013572
-4.17619e-05
0.000140112
-3.98613e-05
0.000144232
-3.7884e-05
0.000148083
-3.58606e-05
0.000151672
-3.38167e-05
0.000155007
-3.17739e-05
0.000158096
-2.97497e-05
0.000160949
-2.77585e-05
0.000163574
-2.58115e-05
0.000165982
-2.39176e-05
0.000168183
-2.20833e-05
0.000170186
-2.03137e-05
0.000172001
-1.86122e-05
0.000173638
-1.69809e-05
0.000175104
-1.54209e-05
0.00017641
-1.39326e-05
0.000177564
-1.25156e-05
0.000178573
-1.1169e-05
0.000179445
-9.89146e-06
0.000180188
-8.68115e-06
0.000180809
-7.53613e-06
0.000181315
-6.45418e-06
0.000181712
-5.4329e-06
0.000182006
-4.46981e-06
0.000182204
-3.5623e-06
0.000182312
-2.70775e-06
0.000182334
-1.90348e-06
0.000182277
-1.14685e-06
0.000182146
-4.35196e-07
0.000181945
2.34379e-07
0.00018168
8.64555e-07
0.000181355
1.45816e-06
0.000180975
2.01784e-06
0.000180544
2.546e-06
0.000180067
3.04485e-06
0.000179549
3.51645e-06
0.000178993
3.96268e-06
0.000178404
4.38524e-06
0.000177786
4.78562e-06