/*--------------------------------*- C++ -*----------------------------------*\
| =========                 |                                                 |
| \\      /  F ield         | OpenFOAM: The Open Source CFD Toolbox           |
|  \\    /   O peration     | Version:  2012                                  |
|   \\  /    A nd           | Website:  www.openfoam.com                      |
|    \\/     M anipulation  |                                                 |
\*---------------------------------------------------------------------------*/
FoamFile
{
    version     2.0;
    format      ascii;
    class       volScalarField;
    location    "0";
    object      T;
}
// * * * * * * * * * * * * * * * * * * * * * * * * * * * * * * * * * * * * * //

dimensions      [0 0 0 1 0 0 0];


internalField   nonuniform List<scalar> 
10000
(
2.0101
2.0303
2.0507
2.0713
2.0921
2.1131
2.1343
2.1557
2.1773
2.1991
2.2211
2.2433
2.2657
2.2883
2.3111
2.3341
2.3573
2.3807
2.4043
2.4281
2.4521
2.4763
2.5007
2.5253
2.5501
2.5751
2.6003
2.6257
2.6513
2.6771
2.7031
2.7293
2.7557
2.7823
2.8091
2.8361
2.8633
2.8907
2.9183
2.9461
2.9741
3.0023
3.0307
3.0593
3.0881
3.1171
3.1463
3.1757
3.2053
3.2351
3.2651
3.2953
3.3257
3.3563
3.3871
3.4181
3.4493
3.4807
3.5123
3.5441
3.5761
3.6083
3.6407
3.6733
3.7061
3.7391
3.7723
3.8057
3.8393
3.8731
3.9071
3.9413
3.9757
4.0103
4.0451
4.0801
4.1153
4.1507
4.1863
4.2221
4.2581
4.2943
4.3307
4.3673
4.4041
4.4411
4.4783
4.5157
4.5533
4.5911
4.6291
4.6673
4.7057
4.7443
4.7831
4.8221
4.8613
4.9007
4.9403
4.9801
2.0107
2.0309
2.0513
2.0719
2.0927
2.1137
2.1349
2.1563
2.1779
2.1997
2.2217
2.2439
2.2663
2.2889
2.3117
2.3347
2.3579
2.3813
2.4049
2.4287
2.4527
2.4769
2.5013
2.5259
2.5507
2.5757
2.6009
2.6263
2.6519
2.6777
2.7037
2.7299
2.7563
2.7829
2.8097
2.8367
2.8639
2.8913
2.9189
2.9467
2.9747
3.0029
3.0313
3.0599
3.0887
3.1177
3.1469
3.1763
3.2059
3.2357
3.2657
3.2959
3.3263
3.3569
3.3877
3.4187
3.4499
3.4813
3.5129
3.5447
3.5767
3.6089
3.6413
3.6739
3.7067
3.7397
3.7729
3.8063
3.8399
3.8737
3.9077
3.9419
3.9763
4.0109
4.0457
4.0807
4.1159
4.1513
4.1869
4.2227
4.2587
4.2949
4.3313
4.3679
4.4047
4.4417
4.4789
4.5163
4.5539
4.5917
4.6297
4.6679
4.7063
4.7449
4.7837
4.8227
4.8619
4.9013
4.9409
4.9807
2.0119
2.0321
2.0525
2.0731
2.0939
2.1149
2.1361
2.1575
2.1791
2.2009
2.2229
2.2451
2.2675
2.2901
2.3129
2.3359
2.3591
2.3825
2.4061
2.4299
2.4539
2.4781
2.5025
2.5271
2.5519
2.5769
2.6021
2.6275
2.6531
2.6789
2.7049
2.7311
2.7575
2.7841
2.8109
2.8379
2.8651
2.8925
2.9201
2.9479
2.9759
3.0041
3.0325
3.0611
3.0899
3.1189
3.1481
3.1775
3.2071
3.2369
3.2669
3.2971
3.3275
3.3581
3.3889
3.4199
3.4511
3.4825
3.5141
3.5459
3.5779
3.6101
3.6425
3.6751
3.7079
3.7409
3.7741
3.8075
3.8411
3.8749
3.9089
3.9431
3.9775
4.0121
4.0469
4.0819
4.1171
4.1525
4.1881
4.2239
4.2599
4.2961
4.3325
4.3691
4.4059
4.4429
4.4801
4.5175
4.5551
4.5929
4.6309
4.6691
4.7075
4.7461
4.7849
4.8239
4.8631
4.9025
4.9421
4.9819
2.0137
2.0339
2.0543
2.0749
2.0957
2.1167
2.1379
2.1593
2.1809
2.2027
2.2247
2.2469
2.2693
2.2919
2.3147
2.3377
2.3609
2.3843
2.4079
2.4317
2.4557
2.4799
2.5043
2.5289
2.5537
2.5787
2.6039
2.6293
2.6549
2.6807
2.7067
2.7329
2.7593
2.7859
2.8127
2.8397
2.8669
2.8943
2.9219
2.9497
2.9777
3.0059
3.0343
3.0629
3.0917
3.1207
3.1499
3.1793
3.2089
3.2387
3.2687
3.2989
3.3293
3.3599
3.3907
3.4217
3.4529
3.4843
3.5159
3.5477
3.5797
3.6119
3.6443
3.6769
3.7097
3.7427
3.7759
3.8093
3.8429
3.8767
3.9107
3.9449
3.9793
4.0139
4.0487
4.0837
4.1189
4.1543
4.1899
4.2257
4.2617
4.2979
4.3343
4.3709
4.4077
4.4447
4.4819
4.5193
4.5569
4.5947
4.6327
4.6709
4.7093
4.7479
4.7867
4.8257
4.8649
4.9043
4.9439
4.9837
2.0161
2.0363
2.0567
2.0773
2.0981
2.1191
2.1403
2.1617
2.1833
2.2051
2.2271
2.2493
2.2717
2.2943
2.3171
2.3401
2.3633
2.3867
2.4103
2.4341
2.4581
2.4823
2.5067
2.5313
2.5561
2.5811
2.6063
2.6317
2.6573
2.6831
2.7091
2.7353
2.7617
2.7883
2.8151
2.8421
2.8693
2.8967
2.9243
2.9521
2.9801
3.0083
3.0367
3.0653
3.0941
3.1231
3.1523
3.1817
3.2113
3.2411
3.2711
3.3013
3.3317
3.3623
3.3931
3.4241
3.4553
3.4867
3.5183
3.5501
3.5821
3.6143
3.6467
3.6793
3.7121
3.7451
3.7783
3.8117
3.8453
3.8791
3.9131
3.9473
3.9817
4.0163
4.0511
4.0861
4.1213
4.1567
4.1923
4.2281
4.2641
4.3003
4.3367
4.3733
4.4101
4.4471
4.4843
4.5217
4.5593
4.5971
4.6351
4.6733
4.7117
4.7503
4.7891
4.8281
4.8673
4.9067
4.9463
4.9861
2.0191
2.0393
2.0597
2.0803
2.1011
2.1221
2.1433
2.1647
2.1863
2.2081
2.2301
2.2523
2.2747
2.2973
2.3201
2.3431
2.3663
2.3897
2.4133
2.4371
2.4611
2.4853
2.5097
2.5343
2.5591
2.5841
2.6093
2.6347
2.6603
2.6861
2.7121
2.7383
2.7647
2.7913
2.8181
2.8451
2.8723
2.8997
2.9273
2.9551
2.9831
3.0113
3.0397
3.0683
3.0971
3.1261
3.1553
3.1847
3.2143
3.2441
3.2741
3.3043
3.3347
3.3653
3.3961
3.4271
3.4583
3.4897
3.5213
3.5531
3.5851
3.6173
3.6497
3.6823
3.7151
3.7481
3.7813
3.8147
3.8483
3.8821
3.9161
3.9503
3.9847
4.0193
4.0541
4.0891
4.1243
4.1597
4.1953
4.2311
4.2671
4.3033
4.3397
4.3763
4.4131
4.4501
4.4873
4.5247
4.5623
4.6001
4.6381
4.6763
4.7147
4.7533
4.7921
4.8311
4.8703
4.9097
4.9493
4.9891
2.0227
2.0429
2.0633
2.0839
2.1047
2.1257
2.1469
2.1683
2.1899
2.2117
2.2337
2.2559
2.2783
2.3009
2.3237
2.3467
2.3699
2.3933
2.4169
2.4407
2.4647
2.4889
2.5133
2.5379
2.5627
2.5877
2.6129
2.6383
2.6639
2.6897
2.7157
2.7419
2.7683
2.7949
2.8217
2.8487
2.8759
2.9033
2.9309
2.9587
2.9867
3.0149
3.0433
3.0719
3.1007
3.1297
3.1589
3.1883
3.2179
3.2477
3.2777
3.3079
3.3383
3.3689
3.3997
3.4307
3.4619
3.4933
3.5249
3.5567
3.5887
3.6209
3.6533
3.6859
3.7187
3.7517
3.7849
3.8183
3.8519
3.8857
3.9197
3.9539
3.9883
4.0229
4.0577
4.0927
4.1279
4.1633
4.1989
4.2347
4.2707
4.3069
4.3433
4.3799
4.4167
4.4537
4.4909
4.5283
4.5659
4.6037
4.6417
4.6799
4.7183
4.7569
4.7957
4.8347
4.8739
4.9133
4.9529
4.9927
2.0269
2.0471
2.0675
2.0881
2.1089
2.1299
2.1511
2.1725
2.1941
2.2159
2.2379
2.2601
2.2825
2.3051
2.3279
2.3509
2.3741
2.3975
2.4211
2.4449
2.4689
2.4931
2.5175
2.5421
2.5669
2.5919
2.6171
2.6425
2.6681
2.6939
2.7199
2.7461
2.7725
2.7991
2.8259
2.8529
2.8801
2.9075
2.9351
2.9629
2.9909
3.0191
3.0475
3.0761
3.1049
3.1339
3.1631
3.1925
3.2221
3.2519
3.2819
3.3121
3.3425
3.3731
3.4039
3.4349
3.4661
3.4975
3.5291
3.5609
3.5929
3.6251
3.6575
3.6901
3.7229
3.7559
3.7891
3.8225
3.8561
3.8899
3.9239
3.9581
3.9925
4.0271
4.0619
4.0969
4.1321
4.1675
4.2031
4.2389
4.2749
4.3111
4.3475
4.3841
4.4209
4.4579
4.4951
4.5325
4.5701
4.6079
4.6459
4.6841
4.7225
4.7611
4.7999
4.8389
4.8781
4.9175
4.9571
4.9969
2.0317
2.0519
2.0723
2.0929
2.1137
2.1347
2.1559
2.1773
2.1989
2.2207
2.2427
2.2649
2.2873
2.3099
2.3327
2.3557
2.3789
2.4023
2.4259
2.4497
2.4737
2.4979
2.5223
2.5469
2.5717
2.5967
2.6219
2.6473
2.6729
2.6987
2.7247
2.7509
2.7773
2.8039
2.8307
2.8577
2.8849
2.9123
2.9399
2.9677
2.9957
3.0239
3.0523
3.0809
3.1097
3.1387
3.1679
3.1973
3.2269
3.2567
3.2867
3.3169
3.3473
3.3779
3.4087
3.4397
3.4709
3.5023
3.5339
3.5657
3.5977
3.6299
3.6623
3.6949
3.7277
3.7607
3.7939
3.8273
3.8609
3.8947
3.9287
3.9629
3.9973
4.0319
4.0667
4.1017
4.1369
4.1723
4.2079
4.2437
4.2797
4.3159
4.3523
4.3889
4.4257
4.4627
4.4999
4.5373
4.5749
4.6127
4.6507
4.6889
4.7273
4.7659
4.8047
4.8437
4.8829
4.9223
4.9619
5.0017
2.0371
2.0573
2.0777
2.0983
2.1191
2.1401
2.1613
2.1827
2.2043
2.2261
2.2481
2.2703
2.2927
2.3153
2.3381
2.3611
2.3843
2.4077
2.4313
2.4551
2.4791
2.5033
2.5277
2.5523
2.5771
2.6021
2.6273
2.6527
2.6783
2.7041
2.7301
2.7563
2.7827
2.8093
2.8361
2.8631
2.8903
2.9177
2.9453
2.9731
3.0011
3.0293
3.0577
3.0863
3.1151
3.1441
3.1733
3.2027
3.2323
3.2621
3.2921
3.3223
3.3527
3.3833
3.4141
3.4451
3.4763
3.5077
3.5393
3.5711
3.6031
3.6353
3.6677
3.7003
3.7331
3.7661
3.7993
3.8327
3.8663
3.9001
3.9341
3.9683
4.0027
4.0373
4.0721
4.1071
4.1423
4.1777
4.2133
4.2491
4.2851
4.3213
4.3577
4.3943
4.4311
4.4681
4.5053
4.5427
4.5803
4.6181
4.6561
4.6943
4.7327
4.7713
4.8101
4.8491
4.8883
4.9277
4.9673
5.0071
2.0431
2.0633
2.0837
2.1043
2.1251
2.1461
2.1673
2.1887
2.2103
2.2321
2.2541
2.2763
2.2987
2.3213
2.3441
2.3671
2.3903
2.4137
2.4373
2.4611
2.4851
2.5093
2.5337
2.5583
2.5831
2.6081
2.6333
2.6587
2.6843
2.7101
2.7361
2.7623
2.7887
2.8153
2.8421
2.8691
2.8963
2.9237
2.9513
2.9791
3.0071
3.0353
3.0637
3.0923
3.1211
3.1501
3.1793
3.2087
3.2383
3.2681
3.2981
3.3283
3.3587
3.3893
3.4201
3.4511
3.4823
3.5137
3.5453
3.5771
3.6091
3.6413
3.6737
3.7063
3.7391
3.7721
3.8053
3.8387
3.8723
3.9061
3.9401
3.9743
4.0087
4.0433
4.0781
4.1131
4.1483
4.1837
4.2193
4.2551
4.2911
4.3273
4.3637
4.4003
4.4371
4.4741
4.5113
4.5487
4.5863
4.6241
4.6621
4.7003
4.7387
4.7773
4.8161
4.8551
4.8943
4.9337
4.9733
5.0131
2.0497
2.0699
2.0903
2.1109
2.1317
2.1527
2.1739
2.1953
2.2169
2.2387
2.2607
2.2829
2.3053
2.3279
2.3507
2.3737
2.3969
2.4203
2.4439
2.4677
2.4917
2.5159
2.5403
2.5649
2.5897
2.6147
2.6399
2.6653
2.6909
2.7167
2.7427
2.7689
2.7953
2.8219
2.8487
2.8757
2.9029
2.9303
2.9579
2.9857
3.0137
3.0419
3.0703
3.0989
3.1277
3.1567
3.1859
3.2153
3.2449
3.2747
3.3047
3.3349
3.3653
3.3959
3.4267
3.4577
3.4889
3.5203
3.5519
3.5837
3.6157
3.6479
3.6803
3.7129
3.7457
3.7787
3.8119
3.8453
3.8789
3.9127
3.9467
3.9809
4.0153
4.0499
4.0847
4.1197
4.1549
4.1903
4.2259
4.2617
4.2977
4.3339
4.3703
4.4069
4.4437
4.4807
4.5179
4.5553
4.5929
4.6307
4.6687
4.7069
4.7453
4.7839
4.8227
4.8617
4.9009
4.9403
4.9799
5.0197
2.0569
2.0771
2.0975
2.1181
2.1389
2.1599
2.1811
2.2025
2.2241
2.2459
2.2679
2.2901
2.3125
2.3351
2.3579
2.3809
2.4041
2.4275
2.4511
2.4749
2.4989
2.5231
2.5475
2.5721
2.5969
2.6219
2.6471
2.6725
2.6981
2.7239
2.7499
2.7761
2.8025
2.8291
2.8559
2.8829
2.9101
2.9375
2.9651
2.9929
3.0209
3.0491
3.0775
3.1061
3.1349
3.1639
3.1931
3.2225
3.2521
3.2819
3.3119
3.3421
3.3725
3.4031
3.4339
3.4649
3.4961
3.5275
3.5591
3.5909
3.6229
3.6551
3.6875
3.7201
3.7529
3.7859
3.8191
3.8525
3.8861
3.9199
3.9539
3.9881
4.0225
4.0571
4.0919
4.1269
4.1621
4.1975
4.2331
4.2689
4.3049
4.3411
4.3775
4.4141
4.4509
4.4879
4.5251
4.5625
4.6001
4.6379
4.6759
4.7141
4.7525
4.7911
4.8299
4.8689
4.9081
4.9475
4.9871
5.0269
2.0647
2.0849
2.1053
2.1259
2.1467
2.1677
2.1889
2.2103
2.2319
2.2537
2.2757
2.2979
2.3203
2.3429
2.3657
2.3887
2.4119
2.4353
2.4589
2.4827
2.5067
2.5309
2.5553
2.5799
2.6047
2.6297
2.6549
2.6803
2.7059
2.7317
2.7577
2.7839
2.8103
2.8369
2.8637
2.8907
2.9179
2.9453
2.9729
3.0007
3.0287
3.0569
3.0853
3.1139
3.1427
3.1717
3.2009
3.2303
3.2599
3.2897
3.3197
3.3499
3.3803
3.4109
3.4417
3.4727
3.5039
3.5353
3.5669
3.5987
3.6307
3.6629
3.6953
3.7279
3.7607
3.7937
3.8269
3.8603
3.8939
3.9277
3.9617
3.9959
4.0303
4.0649
4.0997
4.1347
4.1699
4.2053
4.2409
4.2767
4.3127
4.3489
4.3853
4.4219
4.4587
4.4957
4.5329
4.5703
4.6079
4.6457
4.6837
4.7219
4.7603
4.7989
4.8377
4.8767
4.9159
4.9553
4.9949
5.0347
2.0731
2.0933
2.1137
2.1343
2.1551
2.1761
2.1973
2.2187
2.2403
2.2621
2.2841
2.3063
2.3287
2.3513
2.3741
2.3971
2.4203
2.4437
2.4673
2.4911
2.5151
2.5393
2.5637
2.5883
2.6131
2.6381
2.6633
2.6887
2.7143
2.7401
2.7661
2.7923
2.8187
2.8453
2.8721
2.8991
2.9263
2.9537
2.9813
3.0091
3.0371
3.0653
3.0937
3.1223
3.1511
3.1801
3.2093
3.2387
3.2683
3.2981
3.3281
3.3583
3.3887
3.4193
3.4501
3.4811
3.5123
3.5437
3.5753
3.6071
3.6391
3.6713
3.7037
3.7363
3.7691
3.8021
3.8353
3.8687
3.9023
3.9361
3.9701
4.0043
4.0387
4.0733
4.1081
4.1431
4.1783
4.2137
4.2493
4.2851
4.3211
4.3573
4.3937
4.4303
4.4671
4.5041
4.5413
4.5787
4.6163
4.6541
4.6921
4.7303
4.7687
4.8073
4.8461
4.8851
4.9243
4.9637
5.0033
5.0431
2.0821
2.1023
2.1227
2.1433
2.1641
2.1851
2.2063
2.2277
2.2493
2.2711
2.2931
2.3153
2.3377
2.3603
2.3831
2.4061
2.4293
2.4527
2.4763
2.5001
2.5241
2.5483
2.5727
2.5973
2.6221
2.6471
2.6723
2.6977
2.7233
2.7491
2.7751
2.8013
2.8277
2.8543
2.8811
2.9081
2.9353
2.9627
2.9903
3.0181
3.0461
3.0743
3.1027
3.1313
3.1601
3.1891
3.2183
3.2477
3.2773
3.3071
3.3371
3.3673
3.3977
3.4283
3.4591
3.4901
3.5213
3.5527
3.5843
3.6161
3.6481
3.6803
3.7127
3.7453
3.7781
3.8111
3.8443
3.8777
3.9113
3.9451
3.9791
4.0133
4.0477
4.0823
4.1171
4.1521
4.1873
4.2227
4.2583
4.2941
4.3301
4.3663
4.4027
4.4393
4.4761
4.5131
4.5503
4.5877
4.6253
4.6631
4.7011
4.7393
4.7777
4.8163
4.8551
4.8941
4.9333
4.9727
5.0123
5.0521
2.0917
2.1119
2.1323
2.1529
2.1737
2.1947
2.2159
2.2373
2.2589
2.2807
2.3027
2.3249
2.3473
2.3699
2.3927
2.4157
2.4389
2.4623
2.4859
2.5097
2.5337
2.5579
2.5823
2.6069
2.6317
2.6567
2.6819
2.7073
2.7329
2.7587
2.7847
2.8109
2.8373
2.8639
2.8907
2.9177
2.9449
2.9723
2.9999
3.0277
3.0557
3.0839
3.1123
3.1409
3.1697
3.1987
3.2279
3.2573
3.2869
3.3167
3.3467
3.3769
3.4073
3.4379
3.4687
3.4997
3.5309
3.5623
3.5939
3.6257
3.6577
3.6899
3.7223
3.7549
3.7877
3.8207
3.8539
3.8873
3.9209
3.9547
3.9887
4.0229
4.0573
4.0919
4.1267
4.1617
4.1969
4.2323
4.2679
4.3037
4.3397
4.3759
4.4123
4.4489
4.4857
4.5227
4.5599
4.5973
4.6349
4.6727
4.7107
4.7489
4.7873
4.8259
4.8647
4.9037
4.9429
4.9823
5.0219
5.0617
2.1019
2.1221
2.1425
2.1631
2.1839
2.2049
2.2261
2.2475
2.2691
2.2909
2.3129
2.3351
2.3575
2.3801
2.4029
2.4259
2.4491
2.4725
2.4961
2.5199
2.5439
2.5681
2.5925
2.6171
2.6419
2.6669
2.6921
2.7175
2.7431
2.7689
2.7949
2.8211
2.8475
2.8741
2.9009
2.9279
2.9551
2.9825
3.0101
3.0379
3.0659
3.0941
3.1225
3.1511
3.1799
3.2089
3.2381
3.2675
3.2971
3.3269
3.3569
3.3871
3.4175
3.4481
3.4789
3.5099
3.5411
3.5725
3.6041
3.6359
3.6679
3.7001
3.7325
3.7651
3.7979
3.8309
3.8641
3.8975
3.9311
3.9649
3.9989
4.0331
4.0675
4.1021
4.1369
4.1719
4.2071
4.2425
4.2781
4.3139
4.3499
4.3861
4.4225
4.4591
4.4959
4.5329
4.5701
4.6075
4.6451
4.6829
4.7209
4.7591
4.7975
4.8361
4.8749
4.9139
4.9531
4.9925
5.0321
5.0719
2.1127
2.1329
2.1533
2.1739
2.1947
2.2157
2.2369
2.2583
2.2799
2.3017
2.3237
2.3459
2.3683
2.3909
2.4137
2.4367
2.4599
2.4833
2.5069
2.5307
2.5547
2.5789
2.6033
2.6279
2.6527
2.6777
2.7029
2.7283
2.7539
2.7797
2.8057
2.8319
2.8583
2.8849
2.9117
2.9387
2.9659
2.9933
3.0209
3.0487
3.0767
3.1049
3.1333
3.1619
3.1907
3.2197
3.2489
3.2783
3.3079
3.3377
3.3677
3.3979
3.4283
3.4589
3.4897
3.5207
3.5519
3.5833
3.6149
3.6467
3.6787
3.7109
3.7433
3.7759
3.8087
3.8417
3.8749
3.9083
3.9419
3.9757
4.0097
4.0439
4.0783
4.1129
4.1477
4.1827
4.2179
4.2533
4.2889
4.3247
4.3607
4.3969
4.4333
4.4699
4.5067
4.5437
4.5809
4.6183
4.6559
4.6937
4.7317
4.7699
4.8083
4.8469
4.8857
4.9247
4.9639
5.0033
5.0429
5.0827
2.1241
2.1443
2.1647
2.1853
2.2061
2.2271
2.2483
2.2697
2.2913
2.3131
2.3351
2.3573
2.3797
2.4023
2.4251
2.4481
2.4713
2.4947
2.5183
2.5421
2.5661
2.5903
2.6147
2.6393
2.6641
2.6891
2.7143
2.7397
2.7653
2.7911
2.8171
2.8433
2.8697
2.8963
2.9231
2.9501
2.9773
3.0047
3.0323
3.0601
3.0881
3.1163
3.1447
3.1733
3.2021
3.2311
3.2603
3.2897
3.3193
3.3491
3.3791
3.4093
3.4397
3.4703
3.5011
3.5321
3.5633
3.5947
3.6263
3.6581
3.6901
3.7223
3.7547
3.7873
3.8201
3.8531
3.8863
3.9197
3.9533
3.9871
4.0211
4.0553
4.0897
4.1243
4.1591
4.1941
4.2293
4.2647
4.3003
4.3361
4.3721
4.4083
4.4447
4.4813
4.5181
4.5551
4.5923
4.6297
4.6673
4.7051
4.7431
4.7813
4.8197
4.8583
4.8971
4.9361
4.9753
5.0147
5.0543
5.0941
2.1361
2.1563
2.1767
2.1973
2.2181
2.2391
2.2603
2.2817
2.3033
2.3251
2.3471
2.3693
2.3917
2.4143
2.4371
2.4601
2.4833
2.5067
2.5303
2.5541
2.5781
2.6023
2.6267
2.6513
2.6761
2.7011
2.7263
2.7517
2.7773
2.8031
2.8291
2.8553
2.8817
2.9083
2.9351
2.9621
2.9893
3.0167
3.0443
3.0721
3.1001
3.1283
3.1567
3.1853
3.2141
3.2431
3.2723
3.3017
3.3313
3.3611
3.3911
3.4213
3.4517
3.4823
3.5131
3.5441
3.5753
3.6067
3.6383
3.6701
3.7021
3.7343
3.7667
3.7993
3.8321
3.8651
3.8983
3.9317
3.9653
3.9991
4.0331
4.0673
4.1017
4.1363
4.1711
4.2061
4.2413
4.2767
4.3123
4.3481
4.3841
4.4203
4.4567
4.4933
4.5301
4.5671
4.6043
4.6417
4.6793
4.7171
4.7551
4.7933
4.8317
4.8703
4.9091
4.9481
4.9873
5.0267
5.0663
5.1061
2.1487
2.1689
2.1893
2.2099
2.2307
2.2517
2.2729
2.2943
2.3159
2.3377
2.3597
2.3819
2.4043
2.4269
2.4497
2.4727
2.4959
2.5193
2.5429
2.5667
2.5907
2.6149
2.6393
2.6639
2.6887
2.7137
2.7389
2.7643
2.7899
2.8157
2.8417
2.8679
2.8943
2.9209
2.9477
2.9747
3.0019
3.0293
3.0569
3.0847
3.1127
3.1409
3.1693
3.1979
3.2267
3.2557
3.2849
3.3143
3.3439
3.3737
3.4037
3.4339
3.4643
3.4949
3.5257
3.5567
3.5879
3.6193
3.6509
3.6827
3.7147
3.7469
3.7793
3.8119
3.8447
3.8777
3.9109
3.9443
3.9779
4.0117
4.0457
4.0799
4.1143
4.1489
4.1837
4.2187
4.2539
4.2893
4.3249
4.3607
4.3967
4.4329
4.4693
4.5059
4.5427
4.5797
4.6169
4.6543
4.6919
4.7297
4.7677
4.8059
4.8443
4.8829
4.9217
4.9607
4.9999
5.0393
5.0789
5.1187
2.1619
2.1821
2.2025
2.2231
2.2439
2.2649
2.2861
2.3075
2.3291
2.3509
2.3729
2.3951
2.4175
2.4401
2.4629
2.4859
2.5091
2.5325
2.5561
2.5799
2.6039
2.6281
2.6525
2.6771
2.7019
2.7269
2.7521
2.7775
2.8031
2.8289
2.8549
2.8811
2.9075
2.9341
2.9609
2.9879
3.0151
3.0425
3.0701
3.0979
3.1259
3.1541
3.1825
3.2111
3.2399
3.2689
3.2981
3.3275
3.3571
3.3869
3.4169
3.4471
3.4775
3.5081
3.5389
3.5699
3.6011
3.6325
3.6641
3.6959
3.7279
3.7601
3.7925
3.8251
3.8579
3.8909
3.9241
3.9575
3.9911
4.0249
4.0589
4.0931
4.1275
4.1621
4.1969
4.2319
4.2671
4.3025
4.3381
4.3739
4.4099
4.4461
4.4825
4.5191
4.5559
4.5929
4.6301
4.6675
4.7051
4.7429
4.7809
4.8191
4.8575
4.8961
4.9349
4.9739
5.0131
5.0525
5.0921
5.1319
2.1757
2.1959
2.2163
2.2369
2.2577
2.2787
2.2999
2.3213
2.3429
2.3647
2.3867
2.4089
2.4313
2.4539
2.4767
2.4997
2.5229
2.5463
2.5699
2.5937
2.6177
2.6419
2.6663
2.6909
2.7157
2.7407
2.7659
2.7913
2.8169
2.8427
2.8687
2.8949
2.9213
2.9479
2.9747
3.0017
3.0289
3.0563
3.0839
3.1117
3.1397
3.1679
3.1963
3.2249
3.2537
3.2827
3.3119
3.3413
3.3709
3.4007
3.4307
3.4609
3.4913
3.5219
3.5527
3.5837
3.6149
3.6463
3.6779
3.7097
3.7417
3.7739
3.8063
3.8389
3.8717
3.9047
3.9379
3.9713
4.0049
4.0387
4.0727
4.1069
4.1413
4.1759
4.2107
4.2457
4.2809
4.3163
4.3519
4.3877
4.4237
4.4599
4.4963
4.5329
4.5697
4.6067
4.6439
4.6813
4.7189
4.7567
4.7947
4.8329
4.8713
4.9099
4.9487
4.9877
5.0269
5.0663
5.1059
5.1457
2.1901
2.2103
2.2307
2.2513
2.2721
2.2931
2.3143
2.3357
2.3573
2.3791
2.4011
2.4233
2.4457
2.4683
2.4911
2.5141
2.5373
2.5607
2.5843
2.6081
2.6321
2.6563
2.6807
2.7053
2.7301
2.7551
2.7803
2.8057
2.8313
2.8571
2.8831
2.9093
2.9357
2.9623
2.9891
3.0161
3.0433
3.0707
3.0983
3.1261
3.1541
3.1823
3.2107
3.2393
3.2681
3.2971
3.3263
3.3557
3.3853
3.4151
3.4451
3.4753
3.5057
3.5363
3.5671
3.5981
3.6293
3.6607
3.6923
3.7241
3.7561
3.7883
3.8207
3.8533
3.8861
3.9191
3.9523
3.9857
4.0193
4.0531
4.0871
4.1213
4.1557
4.1903
4.2251
4.2601
4.2953
4.3307
4.3663
4.4021
4.4381
4.4743
4.5107
4.5473
4.5841
4.6211
4.6583
4.6957
4.7333
4.7711
4.8091
4.8473
4.8857
4.9243
4.9631
5.0021
5.0413
5.0807
5.1203
5.1601
2.2051
2.2253
2.2457
2.2663
2.2871
2.3081
2.3293
2.3507
2.3723
2.3941
2.4161
2.4383
2.4607
2.4833
2.5061
2.5291
2.5523
2.5757
2.5993
2.6231
2.6471
2.6713
2.6957
2.7203
2.7451
2.7701
2.7953
2.8207
2.8463
2.8721
2.8981
2.9243
2.9507
2.9773
3.0041
3.0311
3.0583
3.0857
3.1133
3.1411
3.1691
3.1973
3.2257
3.2543
3.2831
3.3121
3.3413
3.3707
3.4003
3.4301
3.4601
3.4903
3.5207
3.5513
3.5821
3.6131
3.6443
3.6757
3.7073
3.7391
3.7711
3.8033
3.8357
3.8683
3.9011
3.9341
3.9673
4.0007
4.0343
4.0681
4.1021
4.1363
4.1707
4.2053
4.2401
4.2751
4.3103
4.3457
4.3813
4.4171
4.4531
4.4893
4.5257
4.5623
4.5991
4.6361
4.6733
4.7107
4.7483
4.7861
4.8241
4.8623
4.9007
4.9393
4.9781
5.0171
5.0563
5.0957
5.1353
5.1751
2.2207
2.2409
2.2613
2.2819
2.3027
2.3237
2.3449
2.3663
2.3879
2.4097
2.4317
2.4539
2.4763
2.4989
2.5217
2.5447
2.5679
2.5913
2.6149
2.6387
2.6627
2.6869
2.7113
2.7359
2.7607
2.7857
2.8109
2.8363
2.8619
2.8877
2.9137
2.9399
2.9663
2.9929
3.0197
3.0467
3.0739
3.1013
3.1289
3.1567
3.1847
3.2129
3.2413
3.2699
3.2987
3.3277
3.3569
3.3863
3.4159
3.4457
3.4757
3.5059
3.5363
3.5669
3.5977
3.6287
3.6599
3.6913
3.7229
3.7547
3.7867
3.8189
3.8513
3.8839
3.9167
3.9497
3.9829
4.0163
4.0499
4.0837
4.1177
4.1519
4.1863
4.2209
4.2557
4.2907
4.3259
4.3613
4.3969
4.4327
4.4687
4.5049
4.5413
4.5779
4.6147
4.6517
4.6889
4.7263
4.7639
4.8017
4.8397
4.8779
4.9163
4.9549
4.9937
5.0327
5.0719
5.1113
5.1509
5.1907
2.2369
2.2571
2.2775
2.2981
2.3189
2.3399
2.3611
2.3825
2.4041
2.4259
2.4479
2.4701
2.4925
2.5151
2.5379
2.5609
2.5841
2.6075
2.6311
2.6549
2.6789
2.7031
2.7275
2.7521
2.7769
2.8019
2.8271
2.8525
2.8781
2.9039
2.9299
2.9561
2.9825
3.0091
3.0359
3.0629
3.0901
3.1175
3.1451
3.1729
3.2009
3.2291
3.2575
3.2861
3.3149
3.3439
3.3731
3.4025
3.4321
3.4619
3.4919
3.5221
3.5525
3.5831
3.6139
3.6449
3.6761
3.7075
3.7391
3.7709
3.8029
3.8351
3.8675
3.9001
3.9329
3.9659
3.9991
4.0325
4.0661
4.0999
4.1339
4.1681
4.2025
4.2371
4.2719
4.3069
4.3421
4.3775
4.4131
4.4489
4.4849
4.5211
4.5575
4.5941
4.6309
4.6679
4.7051
4.7425
4.7801
4.8179
4.8559
4.8941
4.9325
4.9711
5.0099
5.0489
5.0881
5.1275
5.1671
5.2069
2.2537
2.2739
2.2943
2.3149
2.3357
2.3567
2.3779
2.3993
2.4209
2.4427
2.4647
2.4869
2.5093
2.5319
2.5547
2.5777
2.6009
2.6243
2.6479
2.6717
2.6957
2.7199
2.7443
2.7689
2.7937
2.8187
2.8439
2.8693
2.8949
2.9207
2.9467
2.9729
2.9993
3.0259
3.0527
3.0797
3.1069
3.1343
3.1619
3.1897
3.2177
3.2459
3.2743
3.3029
3.3317
3.3607
3.3899
3.4193
3.4489
3.4787
3.5087
3.5389
3.5693
3.5999
3.6307
3.6617
3.6929
3.7243
3.7559
3.7877
3.8197
3.8519
3.8843
3.9169
3.9497
3.9827
4.0159
4.0493
4.0829
4.1167
4.1507
4.1849
4.2193
4.2539
4.2887
4.3237
4.3589
4.3943
4.4299
4.4657
4.5017
4.5379
4.5743
4.6109
4.6477
4.6847
4.7219
4.7593
4.7969
4.8347
4.8727
4.9109
4.9493
4.9879
5.0267
5.0657
5.1049
5.1443
5.1839
5.2237
2.2711
2.2913
2.3117
2.3323
2.3531
2.3741
2.3953
2.4167
2.4383
2.4601
2.4821
2.5043
2.5267
2.5493
2.5721
2.5951
2.6183
2.6417
2.6653
2.6891
2.7131
2.7373
2.7617
2.7863
2.8111
2.8361
2.8613
2.8867
2.9123
2.9381
2.9641
2.9903
3.0167
3.0433
3.0701
3.0971
3.1243
3.1517
3.1793
3.2071
3.2351
3.2633
3.2917
3.3203
3.3491
3.3781
3.4073
3.4367
3.4663
3.4961
3.5261
3.5563
3.5867
3.6173
3.6481
3.6791
3.7103
3.7417
3.7733
3.8051
3.8371
3.8693
3.9017
3.9343
3.9671
4.0001
4.0333
4.0667
4.1003
4.1341
4.1681
4.2023
4.2367
4.2713
4.3061
4.3411
4.3763
4.4117
4.4473
4.4831
4.5191
4.5553
4.5917
4.6283
4.6651
4.7021
4.7393
4.7767
4.8143
4.8521
4.8901
4.9283
4.9667
5.0053
5.0441
5.0831
5.1223
5.1617
5.2013
5.2411
2.2891
2.3093
2.3297
2.3503
2.3711
2.3921
2.4133
2.4347
2.4563
2.4781
2.5001
2.5223
2.5447
2.5673
2.5901
2.6131
2.6363
2.6597
2.6833
2.7071
2.7311
2.7553
2.7797
2.8043
2.8291
2.8541
2.8793
2.9047
2.9303
2.9561
2.9821
3.0083
3.0347
3.0613
3.0881
3.1151
3.1423
3.1697
3.1973
3.2251
3.2531
3.2813
3.3097
3.3383
3.3671
3.3961
3.4253
3.4547
3.4843
3.5141
3.5441
3.5743
3.6047
3.6353
3.6661
3.6971
3.7283
3.7597
3.7913
3.8231
3.8551
3.8873
3.9197
3.9523
3.9851
4.0181
4.0513
4.0847
4.1183
4.1521
4.1861
4.2203
4.2547
4.2893
4.3241
4.3591
4.3943
4.4297
4.4653
4.5011
4.5371
4.5733
4.6097
4.6463
4.6831
4.7201
4.7573
4.7947
4.8323
4.8701
4.9081
4.9463
4.9847
5.0233
5.0621
5.1011
5.1403
5.1797
5.2193
5.2591
2.3077
2.3279
2.3483
2.3689
2.3897
2.4107
2.4319
2.4533
2.4749
2.4967
2.5187
2.5409
2.5633
2.5859
2.6087
2.6317
2.6549
2.6783
2.7019
2.7257
2.7497
2.7739
2.7983
2.8229
2.8477
2.8727
2.8979
2.9233
2.9489
2.9747
3.0007
3.0269
3.0533
3.0799
3.1067
3.1337
3.1609
3.1883
3.2159
3.2437
3.2717
3.2999
3.3283
3.3569
3.3857
3.4147
3.4439
3.4733
3.5029
3.5327
3.5627
3.5929
3.6233
3.6539
3.6847
3.7157
3.7469
3.7783
3.8099
3.8417
3.8737
3.9059
3.9383
3.9709
4.0037
4.0367
4.0699
4.1033
4.1369
4.1707
4.2047
4.2389
4.2733
4.3079
4.3427
4.3777
4.4129
4.4483
4.4839
4.5197
4.5557
4.5919
4.6283
4.6649
4.7017
4.7387
4.7759
4.8133
4.8509
4.8887
4.9267
4.9649
5.0033
5.0419
5.0807
5.1197
5.1589
5.1983
5.2379
5.2777
2.3269
2.3471
2.3675
2.3881
2.4089
2.4299
2.4511
2.4725
2.4941
2.5159
2.5379
2.5601
2.5825
2.6051
2.6279
2.6509
2.6741
2.6975
2.7211
2.7449
2.7689
2.7931
2.8175
2.8421
2.8669
2.8919
2.9171
2.9425
2.9681
2.9939
3.0199
3.0461
3.0725
3.0991
3.1259
3.1529
3.1801
3.2075
3.2351
3.2629
3.2909
3.3191
3.3475
3.3761
3.4049
3.4339
3.4631
3.4925
3.5221
3.5519
3.5819
3.6121
3.6425
3.6731
3.7039
3.7349
3.7661
3.7975
3.8291
3.8609
3.8929
3.9251
3.9575
3.9901
4.0229
4.0559
4.0891
4.1225
4.1561
4.1899
4.2239
4.2581
4.2925
4.3271
4.3619
4.3969
4.4321
4.4675
4.5031
4.5389
4.5749
4.6111
4.6475
4.6841
4.7209
4.7579
4.7951
4.8325
4.8701
4.9079
4.9459
4.9841
5.0225
5.0611
5.0999
5.1389
5.1781
5.2175
5.2571
5.2969
2.3467
2.3669
2.3873
2.4079
2.4287
2.4497
2.4709
2.4923
2.5139
2.5357
2.5577
2.5799
2.6023
2.6249
2.6477
2.6707
2.6939
2.7173
2.7409
2.7647
2.7887
2.8129
2.8373
2.8619
2.8867
2.9117
2.9369
2.9623
2.9879
3.0137
3.0397
3.0659
3.0923
3.1189
3.1457
3.1727
3.1999
3.2273
3.2549
3.2827
3.3107
3.3389
3.3673
3.3959
3.4247
3.4537
3.4829
3.5123
3.5419
3.5717
3.6017
3.6319
3.6623
3.6929
3.7237
3.7547
3.7859
3.8173
3.8489
3.8807
3.9127
3.9449
3.9773
4.0099
4.0427
4.0757
4.1089
4.1423
4.1759
4.2097
4.2437
4.2779
4.3123
4.3469
4.3817
4.4167
4.4519
4.4873
4.5229
4.5587
4.5947
4.6309
4.6673
4.7039
4.7407
4.7777
4.8149
4.8523
4.8899
4.9277
4.9657
5.0039
5.0423
5.0809
5.1197
5.1587
5.1979
5.2373
5.2769
5.3167
2.3671
2.3873
2.4077
2.4283
2.4491
2.4701
2.4913
2.5127
2.5343
2.5561
2.5781
2.6003
2.6227
2.6453
2.6681
2.6911
2.7143
2.7377
2.7613
2.7851
2.8091
2.8333
2.8577
2.8823
2.9071
2.9321
2.9573
2.9827
3.0083
3.0341
3.0601
3.0863
3.1127
3.1393
3.1661
3.1931
3.2203
3.2477
3.2753
3.3031
3.3311
3.3593
3.3877
3.4163
3.4451
3.4741
3.5033
3.5327
3.5623
3.5921
3.6221
3.6523
3.6827
3.7133
3.7441
3.7751
3.8063
3.8377
3.8693
3.9011
3.9331
3.9653
3.9977
4.0303
4.0631
4.0961
4.1293
4.1627
4.1963
4.2301
4.2641
4.2983
4.3327
4.3673
4.4021
4.4371
4.4723
4.5077
4.5433
4.5791
4.6151
4.6513
4.6877
4.7243
4.7611
4.7981
4.8353
4.8727
4.9103
4.9481
4.9861
5.0243
5.0627
5.1013
5.1401
5.1791
5.2183
5.2577
5.2973
5.3371
2.3881
2.4083
2.4287
2.4493
2.4701
2.4911
2.5123
2.5337
2.5553
2.5771
2.5991
2.6213
2.6437
2.6663
2.6891
2.7121
2.7353
2.7587
2.7823
2.8061
2.8301
2.8543
2.8787
2.9033
2.9281
2.9531
2.9783
3.0037
3.0293
3.0551
3.0811
3.1073
3.1337
3.1603
3.1871
3.2141
3.2413
3.2687
3.2963
3.3241
3.3521
3.3803
3.4087
3.4373
3.4661
3.4951
3.5243
3.5537
3.5833
3.6131
3.6431
3.6733
3.7037
3.7343
3.7651
3.7961
3.8273
3.8587
3.8903
3.9221
3.9541
3.9863
4.0187
4.0513
4.0841
4.1171
4.1503
4.1837
4.2173
4.2511
4.2851
4.3193
4.3537
4.3883
4.4231
4.4581
4.4933
4.5287
4.5643
4.6001
4.6361
4.6723
4.7087
4.7453
4.7821
4.8191
4.8563
4.8937
4.9313
4.9691
5.0071
5.0453
5.0837
5.1223
5.1611
5.2001
5.2393
5.2787
5.3183
5.3581
2.4097
2.4299
2.4503
2.4709
2.4917
2.5127
2.5339
2.5553
2.5769
2.5987
2.6207
2.6429
2.6653
2.6879
2.7107
2.7337
2.7569
2.7803
2.8039
2.8277
2.8517
2.8759
2.9003
2.9249
2.9497
2.9747
2.9999
3.0253
3.0509
3.0767
3.1027
3.1289
3.1553
3.1819
3.2087
3.2357
3.2629
3.2903
3.3179
3.3457
3.3737
3.4019
3.4303
3.4589
3.4877
3.5167
3.5459
3.5753
3.6049
3.6347
3.6647
3.6949
3.7253
3.7559
3.7867
3.8177
3.8489
3.8803
3.9119
3.9437
3.9757
4.0079
4.0403
4.0729
4.1057
4.1387
4.1719
4.2053
4.2389
4.2727
4.3067
4.3409
4.3753
4.4099
4.4447
4.4797
4.5149
4.5503
4.5859
4.6217
4.6577
4.6939
4.7303
4.7669
4.8037
4.8407
4.8779
4.9153
4.9529
4.9907
5.0287
5.0669
5.1053
5.1439
5.1827
5.2217
5.2609
5.3003
5.3399
5.3797
2.4319
2.4521
2.4725
2.4931
2.5139
2.5349
2.5561
2.5775
2.5991
2.6209
2.6429
2.6651
2.6875
2.7101
2.7329
2.7559
2.7791
2.8025
2.8261
2.8499
2.8739
2.8981
2.9225
2.9471
2.9719
2.9969
3.0221
3.0475
3.0731
3.0989
3.1249
3.1511
3.1775
3.2041
3.2309
3.2579
3.2851
3.3125
3.3401
3.3679
3.3959
3.4241
3.4525
3.4811
3.5099
3.5389
3.5681
3.5975
3.6271
3.6569
3.6869
3.7171
3.7475
3.7781
3.8089
3.8399
3.8711
3.9025
3.9341
3.9659
3.9979
4.0301
4.0625
4.0951
4.1279
4.1609
4.1941
4.2275
4.2611
4.2949
4.3289
4.3631
4.3975
4.4321
4.4669
4.5019
4.5371
4.5725
4.6081
4.6439
4.6799
4.7161
4.7525
4.7891
4.8259
4.8629
4.9001
4.9375
4.9751
5.0129
5.0509
5.0891
5.1275
5.1661
5.2049
5.2439
5.2831
5.3225
5.3621
5.4019
2.4547
2.4749
2.4953
2.5159
2.5367
2.5577
2.5789
2.6003
2.6219
2.6437
2.6657
2.6879
2.7103
2.7329
2.7557
2.7787
2.8019
2.8253
2.8489
2.8727
2.8967
2.9209
2.9453
2.9699
2.9947
3.0197
3.0449
3.0703
3.0959
3.1217
3.1477
3.1739
3.2003
3.2269
3.2537
3.2807
3.3079
3.3353
3.3629
3.3907
3.4187
3.4469
3.4753
3.5039
3.5327
3.5617
3.5909
3.6203
3.6499
3.6797
3.7097
3.7399
3.7703
3.8009
3.8317
3.8627
3.8939
3.9253
3.9569
3.9887
4.0207
4.0529
4.0853
4.1179
4.1507
4.1837
4.2169
4.2503
4.2839
4.3177
4.3517
4.3859
4.4203
4.4549
4.4897
4.5247
4.5599
4.5953
4.6309
4.6667
4.7027
4.7389
4.7753
4.8119
4.8487
4.8857
4.9229
4.9603
4.9979
5.0357
5.0737
5.1119
5.1503
5.1889
5.2277
5.2667
5.3059
5.3453
5.3849
5.4247
2.4781
2.4983
2.5187
2.5393
2.5601
2.5811
2.6023
2.6237
2.6453
2.6671
2.6891
2.7113
2.7337
2.7563
2.7791
2.8021
2.8253
2.8487
2.8723
2.8961
2.9201
2.9443
2.9687
2.9933
3.0181
3.0431
3.0683
3.0937
3.1193
3.1451
3.1711
3.1973
3.2237
3.2503
3.2771
3.3041
3.3313
3.3587
3.3863
3.4141
3.4421
3.4703
3.4987
3.5273
3.5561
3.5851
3.6143
3.6437
3.6733
3.7031
3.7331
3.7633
3.7937
3.8243
3.8551
3.8861
3.9173
3.9487
3.9803
4.0121
4.0441
4.0763
4.1087
4.1413
4.1741
4.2071
4.2403
4.2737
4.3073
4.3411
4.3751
4.4093
4.4437
4.4783
4.5131
4.5481
4.5833
4.6187
4.6543
4.6901
4.7261
4.7623
4.7987
4.8353
4.8721
4.9091
4.9463
4.9837
5.0213
5.0591
5.0971
5.1353
5.1737
5.2123
5.2511
5.2901
5.3293
5.3687
5.4083
5.4481
2.5021
2.5223
2.5427
2.5633
2.5841
2.6051
2.6263
2.6477
2.6693
2.6911
2.7131
2.7353
2.7577
2.7803
2.8031
2.8261
2.8493
2.8727
2.8963
2.9201
2.9441
2.9683
2.9927
3.0173
3.0421
3.0671
3.0923
3.1177
3.1433
3.1691
3.1951
3.2213
3.2477
3.2743
3.3011
3.3281
3.3553
3.3827
3.4103
3.4381
3.4661
3.4943
3.5227
3.5513
3.5801
3.6091
3.6383
3.6677
3.6973
3.7271
3.7571
3.7873
3.8177
3.8483
3.8791
3.9101
3.9413
3.9727
4.0043
4.0361
4.0681
4.1003
4.1327
4.1653
4.1981
4.2311
4.2643
4.2977
4.3313
4.3651
4.3991
4.4333
4.4677
4.5023
4.5371
4.5721
4.6073
4.6427
4.6783
4.7141
4.7501
4.7863
4.8227
4.8593
4.8961
4.9331
4.9703
5.0077
5.0453
5.0831
5.1211
5.1593
5.1977
5.2363
5.2751
5.3141
5.3533
5.3927
5.4323
5.4721
2.5267
2.5469
2.5673
2.5879
2.6087
2.6297
2.6509
2.6723
2.6939
2.7157
2.7377
2.7599
2.7823
2.8049
2.8277
2.8507
2.8739
2.8973
2.9209
2.9447
2.9687
2.9929
3.0173
3.0419
3.0667
3.0917
3.1169
3.1423
3.1679
3.1937
3.2197
3.2459
3.2723
3.2989
3.3257
3.3527
3.3799
3.4073
3.4349
3.4627
3.4907
3.5189
3.5473
3.5759
3.6047
3.6337
3.6629
3.6923
3.7219
3.7517
3.7817
3.8119
3.8423
3.8729
3.9037
3.9347
3.9659
3.9973
4.0289
4.0607
4.0927
4.1249
4.1573