/*--------------------------------*- C++ -*----------------------------------*\
  =========                 |
  \\      /  F ield         | OpenFOAM: The Open Source CFD Toolbox
   \\    /   O peration     | Website:  https://openfoam.org
    \\  /    A nd           | Version:  7
     \\/     M anipulation  |
\*---------------------------------------------------------------------------*/
FoamFile
{
    version     2.0;
    format      ascii;
    class       volVectorField;
    location    "0.17";
    object      U;
}
// * * * * * * * * * * * * * * * * * * * * * * * * * * * * * * * * * * * * * //

dimensions      [0 1 -1 0 0 0 0];

internalField   nonuniform List<vector> 
12013
(
(0.0999006 2.83272e-05 0)
(0.0994876 4.40036e-05 0)
(0.099011 3.96503e-05 0)
(0.098668 2.96102e-05 0)
(0.0984157 2.43376e-05 0)
(0.0981885 2.39128e-05 0)
(0.0979543 2.55659e-05 0)
(0.0977058 2.74963e-05 0)
(0.0974459 2.9088e-05 0)
(0.0971789 3.02928e-05 0)
(0.0969082 3.12177e-05 0)
(0.0966359 3.19737e-05 0)
(0.0963633 3.26379e-05 0)
(0.0960909 3.32637e-05 0)
(0.0958191 3.38843e-05 0)
(0.095548 3.45263e-05 0)
(0.0952773 3.52066e-05 0)
(0.0950071 3.59351e-05 0)
(0.094737 3.67178e-05 0)
(0.0944671 3.75504e-05 0)
(0.0941973 3.84249e-05 0)
(0.0939278 3.93265e-05 0)
(0.0936588 4.02317e-05 0)
(0.0933911 4.11128e-05 0)
(0.0931255 4.19295e-05 0)
(0.0928632 4.26383e-05 0)
(0.0926059 4.31912e-05 0)
(0.0923556 4.35371e-05 0)
(0.0921146 4.3621e-05 0)
(0.0918858 4.33871e-05 0)
(0.0916723 4.27741e-05 0)
(0.0914778 4.17189e-05 0)
(0.091306 4.01554e-05 0)
(0.0911614 3.80189e-05 0)
(0.0910487 3.52407e-05 0)
(0.0909728 3.17504e-05 0)
(0.0909391 2.74744e-05 0)
(0.0909533 2.23317e-05 0)
(0.0910212 1.62462e-05 0)
(0.091149 9.12941e-06 0)
(0.0913431 9.02663e-07 0)
(0.0916101 -8.51699e-06 0)
(0.0919566 -1.92087e-05 0)
(0.0923893 -3.1217e-05 0)
(0.0929147 -4.46131e-05 0)
(0.0935393 -5.94361e-05 0)
(0.0942693 -7.57004e-05 0)
(0.0951106 -9.34255e-05 0)
(0.0960685 -0.000112538 0)
(0.097148 -0.000133046 0)
(0.0983533 -0.000154871 0)
(0.099688 -0.000177915 0)
(0.101155 -0.000202051 0)
(0.102757 -0.000227118 0)
(0.104494 -0.00025291 0)
(0.106366 -0.000279185 0)
(0.108374 -0.000305652 0)
(0.110514 -0.000331958 0)
(0.112785 -0.000357686 0)
(0.11518 -0.000382345 0)
(0.117695 -0.000405355 0)
(0.120323 -0.000426015 0)
(0.123053 -0.000443484 0)
(0.125874 -0.000456754 0)
(0.128774 -0.000464575 0)
(0.131736 -0.000465379 0)
(0.13474 -0.000457193 0)
(0.137762 -0.000437457 0)
(0.140771 -0.000402745 0)
(0.143731 -0.000348428 0)
(0.146593 -0.000268083 0)
(0.149293 -0.000152492 0)
(0.151748 1.21534e-05 0)
(0.153838 0.00024716 0)
(0.155396 0.000586002 0)
(0.156176 0.00108345 0)
(0.155804 0.0018328 0)
(0.153671 0.00300317 0)
(0.148777 0.00495295 0)
(0.139805 0.00871704 0)
(0.128769 0.0190579 0)
(0.0999097 8.59626e-05 0)
(0.0995062 0.000134388 0)
(0.0990347 0.000121586 0)
(0.0986902 9.11088e-05 0)
(0.0984344 7.49876e-05 0)
(0.0982043 7.36073e-05 0)
(0.0979684 7.85751e-05 0)
(0.0977192 8.44199e-05 0)
(0.0974593 8.92597e-05 0)
(0.0971927 9.29317e-05 0)
(0.0969226 9.57562e-05 0)
(0.096651 9.80648e-05 0)
(0.096379 0.000100099 0)
(0.0961073 0.000102019 0)
(0.0958361 0.000103928 0)
(0.0955654 0.0001059 0)
(0.0952953 0.000107987 0)
(0.0950255 0.000110226 0)
(0.0947559 0.000112629 0)
(0.0944864 0.000115185 0)
(0.0942169 0.000117868 0)
(0.0939477 0.000120634 0)
(0.093679 0.000123414 0)
(0.0934114 0.000126117 0)
(0.0931459 0.000128623 0)
(0.0928837 0.000130802 0)
(0.0926264 0.00013251 0)
(0.0923759 0.000133585 0)
(0.0921347 0.000133857 0)
(0.0919053 0.000133161 0)
(0.0916911 0.00013132 0)
(0.0914953 0.000128139 0)
(0.091322 0.00012341 0)
(0.0911753 0.000116927 0)
(0.0910599 0.000108492 0)
(0.0909806 9.79102e-05 0)
(0.0909426 8.49497e-05 0)
(0.0909515 6.93576e-05 0)
(0.091013 5.08859e-05 0)
(0.0911331 2.92955e-05 0)
(0.0913181 4.35437e-06 0)
(0.0915743 -2.41959e-05 0)
(0.0919081 -5.65863e-05 0)
(0.092326 -9.29829e-05 0)
(0.0928344 -0.000133562 0)
(0.0934394 -0.000178431 0)
(0.094147 -0.000227652 0)
(0.0949628 -0.000281241 0)
(0.0958919 -0.000339041 0)
(0.096939 -0.000400988 0)
(0.098108 -0.000466877 0)
(0.0994023 -0.000536391 0)
(0.100824 -0.000609125 0)
(0.102376 -0.000684575 0)
(0.104059 -0.000762127 0)
(0.105871 -0.000841032 0)
(0.107813 -0.000920375 0)
(0.109883 -0.000999083 0)
(0.112075 -0.00107589 0)
(0.114387 -0.0011493 0)
(0.116812 -0.00121751 0)
(0.119342 -0.0012784 0)
(0.121969 -0.00132944 0)
(0.12468 -0.00136755 0)
(0.127462 -0.00138895 0)
(0.1303 -0.00138895 0)
(0.133173 -0.00136163 0)
(0.136059 -0.0012993 0)
(0.13893 -0.00119185 0)
(0.141749 -0.00102565 0)
(0.144472 -0.000781857 0)
(0.147045 -0.000433747 0)
(0.149394 5.81597e-05 0)
(0.151419 0.000752472 0)
(0.152995 0.00173781 0)
(0.153951 0.00315361 0)
(0.154058 0.0052223 0)
(0.153006 0.00830138 0)
(0.150422 0.0129696 0)
(0.146297 0.0200554 0)
(0.14332 0.0298971 0)
(0.0999217 0.000143647 0)
(0.0995435 0.000228201 0)
(0.0990857 0.000208593 0)
(0.0987383 0.000157839 0)
(0.0984742 0.000130399 0)
(0.0982375 0.000127649 0)
(0.0979978 0.00013573 0)
(0.0977474 0.000145442 0)
(0.0974877 0.000153557 0)
(0.097222 0.000159759 0)
(0.0969531 0.000164563 0)
(0.0966829 0.000168514 0)
(0.0964123 0.000172012 0)
(0.096142 0.000175323 0)
(0.0958721 0.000178619 0)
(0.0956026 0.000182028 0)
(0.0953336 0.000185639 0)
(0.0950648 0.000189509 0)
(0.0947961 0.000193661 0)
(0.0945274 0.000198073 0)
(0.0942586 0.000202703 0)
(0.09399 0.000207476 0)
(0.0937219 0.000212273 0)
(0.093455 0.000216939 0)
(0.0931899 0.000221274 0)
(0.0929281 0.000225057 0)
(0.0926711 0.00022804 0)
(0.0924207 0.000229955 0)
(0.0921792 0.000230518 0)
(0.0919494 0.000229448 0)
(0.0917342 0.000226442 0)
(0.0915371 0.000221175 0)
(0.0913616 0.000213303 0)
(0.091212 0.000202489 0)
(0.0910926 0.0001884 0)
(0.0910082 0.000170696 0)
(0.0909638 0.000148991 0)
(0.0909645 0.000122878 0)
(0.0910161 9.19516e-05 0)
(0.0911242 5.58119e-05 0)
(0.0912947 1.40601e-05 0)
(0.0915337 -3.37145e-05 0)
(0.0918472 -8.78751e-05 0)
(0.0922414 -0.00014872 0)
(0.0927222 -0.000216505 0)
(0.0932954 -0.0002914 0)
(0.0939664 -0.000373473 0)
(0.0947404 -0.000462698 0)
(0.0956221 -0.000558927 0)
(0.0966155 -0.000661911 0)
(0.0977243 -0.000771279 0)
(0.0989511 -0.000886474 0)
(0.100298 -0.00100679 0)
(0.101767 -0.00113135 0)
(0.103357 -0.00125908 0)
(0.105069 -0.00138867 0)
(0.1069 -0.00151854 0)
(0.108848 -0.00164686 0)
(0.110909 -0.00177144 0)
(0.113078 -0.00188969 0)
(0.115348 -0.00199856 0)
(0.117712 -0.00209447 0)
(0.12016 -0.00217311 0)
(0.122681 -0.0022293 0)
(0.125261 -0.00225674 0)
(0.127884 -0.00224765 0)
(0.130533 -0.00219226 0)
(0.133184 -0.00207811 0)
(0.135812 -0.00188902 0)
(0.138386 -0.00160352 0)
(0.140868 -0.00119247 0)
(0.143214 -0.00061542 0)
(0.145367 0.000185123 0)
(0.147263 0.00128959 0)
(0.148828 0.00281257 0)
(0.149983 0.00492174 0)
(0.150661 0.00785798 0)
(0.150831 0.0119524 0)
(0.150588 0.0176187 0)
(0.15041 0.0251742 0)
(0.151766 0.0338577 0)
(0.0999364 0.000198506 0)
(0.0995971 0.00032295 0)
(0.0991613 0.000300105 0)
(0.0988106 0.000230887 0)
(0.0985349 0.000191996 0)
(0.0982882 0.000187134 0)
(0.0980432 0.000197719 0)
(0.0977909 0.000210962 0)
(0.0975315 0.000222222 0)
(0.0972672 0.000230941 0)
(0.0970003 0.000237771 0)
(0.0967323 0.000243445 0)
(0.0964639 0.000248507 0)
(0.0961957 0.00025332 0)
(0.0959278 0.000258126 0)
(0.0956603 0.000263104 0)
(0.0953929 0.000268381 0)
(0.0951256 0.000274031 0)
(0.0948583 0.000280085 0)
(0.0945908 0.000286512 0)
(0.0943232 0.000293251 0)
(0.0940556 0.000300192 0)
(0.0937885 0.000307167 0)
(0.0935225 0.000313958 0)
(0.0932583 0.000320283 0)
(0.0929972 0.000325826 0)
(0.0927407 0.000330237 0)
(0.0924907 0.000333144 0)
(0.0922494 0.000334149 0)
(0.0920193 0.000332857 0)
(0.0918032 0.00032884 0)
(0.0916046 0.000321642 0)
(0.0914268 0.000310791 0)
(0.0912738 0.000295826 0)
(0.0911498 0.000276282 0)
(0.0910592 0.000251669 0)
(0.091007 0.000221459 0)
(0.0909979 0.0001851 0)
(0.0910372 0.000142044 0)
(0.0911304 9.17358e-05 0)
(0.091283 3.36217e-05 0)
(0.0915006 -3.28417e-05 0)
(0.0917888 -0.000108134 0)
(0.0921533 -0.000192647 0)
(0.0925995 -0.000286698 0)
(0.0931326 -0.000390506 0)
(0.0937575 -0.000504107 0)
(0.0944789 -0.000627419 0)
(0.0953007 -0.000760213 0)
(0.0962264 -0.000902063 0)
(0.0972589 -0.00105239 0)
(0.0984004 -0.00121035 0)
(0.0996522 -0.0013749 0)
(0.101015 -0.00154475 0)
(0.102489 -0.00171829 0)
(0.104072 -0.00189358 0)
(0.105762 -0.00206839 0)
(0.107556 -0.00224003 0)
(0.109449 -0.00240533 0)
(0.111437 -0.00256059 0)
(0.113511 -0.00270146 0)
(0.115664 -0.00282285 0)
(0.117886 -0.00291867 0)
(0.120165 -0.00298169 0)
(0.122489 -0.0030032 0)
(0.124842 -0.00297251 0)
(0.127207 -0.00287643 0)
(0.129564 -0.00269843 0)
(0.13189 -0.00241743 0)
(0.13416 -0.00200611 0)
(0.136345 -0.00142846 0)
(0.138413 -0.000636024 0)
(0.140328 0.000435885 0)
(0.142061 0.0018714 0)
(0.143587 0.00378272 0)
(0.144903 0.0063189 0)
(0.146042 0.00966701 0)
(0.147115 0.0140347 0)
(0.148357 0.0195834 0)
(0.150195 0.0262218 0)
(0.153239 0.0330498 0)
(0.0999525 0.000248068 0)
(0.099661 0.000415783 0)
(0.0992544 0.000395282 0)
(0.0989018 0.000311074 0)
(0.0986129 0.000261053 0)
(0.0983546 0.000253085 0)
(0.098103 0.000265171 0)
(0.0978486 0.000281313 0)
(0.0975896 0.000295412 0)
(0.0973273 0.000306545 0)
(0.0970631 0.000315412 0)
(0.0967979 0.000322877 0)
(0.0965325 0.000329605 0)
(0.0962671 0.000336047 0)
(0.0960018 0.000342508 0)
(0.0957367 0.000349212 0)
(0.0954715 0.000356323 0)
(0.0952062 0.000363927 0)
(0.0949407 0.00037206 0)
(0.0946748 0.00038068 0)
(0.0944086 0.000389704 0)
(0.0941424 0.00039899 0)
(0.0938766 0.000408316 0)
(0.0936117 0.000417401 0)
(0.0933486 0.000425879 0)
(0.0930884 0.000433345 0)
(0.0928328 0.00043935 0)
(0.0925833 0.000443417 0)
(0.0923422 0.000445042 0)
(0.0921118 0.000443715 0)
(0.0918949 0.000438891 0)
(0.0916946 0.000429991 0)
(0.0915142 0.000416423 0)
(0.0913573 0.000397605 0)
(0.091228 0.000372943 0)
(0.0911304 0.000341811 0)
(0.0910691 0.00030355 0)
(0.0910485 0.000257477 0)
(0.0910738 0.000202911 0)
(0.0911497 0.000139157 0)
(0.0912816 6.55379e-05 0)
(0.0914745 -1.85943e-05 0)
(0.0917335 -0.00011381 0)
(0.0920638 -0.000220569 0)
(0.0924701 -0.000339209 0)
(0.0929572 -0.000469951 0)
(0.0935293 -0.000612782 0)
(0.0941902 -0.000767512 0)
(0.0949433 -0.000933774 0)
(0.0957914 -0.00111093 0)
(0.0967367 -0.00129814 0)
(0.0977806 -0.00149423 0)
(0.0989237 -0.00169776 0)
(0.100166 -0.00190696 0)
(0.101507 -0.00211965 0)
(0.102943 -0.00233325 0)
(0.104473 -0.00254473 0)
(0.106093 -0.00275055 0)
(0.107797 -0.00294654 0)
(0.109579 -0.00312783 0)
(0.111433 -0.00328878 0)
(0.113348 -0.00342277 0)
(0.115317 -0.00352204 0)
(0.117327 -0.00357743 0)
(0.119366 -0.00357802 0)
(0.12142 -0.00351067 0)
(0.123473 -0.00335944 0)
(0.125508 -0.00310474 0)
(0.127507 -0.00272225 0)
(0.12945 -0.00218146 0)
(0.131317 -0.0014435 0)
(0.133091 -0.000458296 0)
(0.134753 0.00083543 0)
(0.136304 0.00251119 0)
(0.137753 0.00466103 0)
(0.139137 0.00739337 0)
(0.140534 0.010823 0)
(0.142083 0.0150424 0)
(0.143995 0.0200558 0)
(0.14654 0.0256447 0)
(0.149938 0.0311478 0)
(0.0999683 0.000290406 0)
(0.0997278 0.000504153 0)
(0.0993553 0.000493062 0)
(0.0990039 0.000398706 0)
(0.0987028 0.000338416 0)
(0.0984329 0.000326277 0)
(0.0981745 0.000338598 0)
(0.0979179 0.000356771 0)
(0.0976598 0.000373246 0)
(0.0973999 0.000386604 0)
(0.0971388 0.000397474 0)
(0.0968771 0.000406788 0)
(0.0966151 0.000415294 0)
(0.0963531 0.00042351 0)
(0.096091 0.000431794 0)
(0.0958287 0.000440413 0)
(0.0955662 0.000449556 0)
(0.0953032 0.000459321 0)
(0.0950398 0.000469738 0)
(0.0947758 0.000480758 0)
(0.0945114 0.00049227 0)
(0.0942468 0.000504096 0)
(0.0939823 0.000515966 0)
(0.0937188 0.000527529 0)
(0.0934569 0.000538344 0)
(0.0931978 0.000547917 0)
(0.092943 0.000555705 0)
(0.0926942 0.000561136 0)
(0.0924532 0.000563603 0)
(0.0922225 0.000562488 0)
(0.0920045 0.000557137 0)
(0.0918022 0.000546859 0)
(0.0916187 0.000530952 0)
(0.0914574 0.00050872 0)
(0.0913219 0.000479448 0)
(0.0912163 0.00044239 0)
(0.0911445 0.000396768 0)
(0.091111 0.000341787 0)
(0.0911202 0.00027665 0)
(0.0911768 0.000200551 0)
(0.0912853 0.000112717 0)
(0.0914505 1.24294e-05 0)
(0.091677 -0.000100935 0)
(0.0919691 -0.000227866 0)
(0.0923313 -0.000368691 0)
(0.0927674 -0.000523559 0)
(0.093281 -0.000692386 0)
(0.0938753 -0.000874811 0)
(0.094553 -0.00107029 0)
(0.0953161 -0.00127795 0)
(0.0961661 -0.00149653 0)
(0.0971036 -0.00172455 0)
(0.0981286 -0.00196016 0)
(0.0992403 -0.00220099 0)
(0.100437 -0.00244425 0)
(0.101716 -0.00268669 0)
(0.103074 -0.00292448 0)
(0.104507 -0.00315313 0)
(0.106009 -0.00336746 0)
(0.107573 -0.00356148 0)
(0.109192 -0.00372829 0)
(0.110858 -0.00385984 0)
(0.112561 -0.00394682 0)
(0.11429 -0.00397841 0)
(0.116034 -0.00394186 0)
(0.11778 -0.00382215 0)
(0.119515 -0.00360149 0)
(0.121225 -0.00325856 0)
(0.122895 -0.00276767 0)
(0.124513 -0.00209773 0)
(0.126069 -0.00121081 0)
(0.12755 -6.14918e-05 0)
(0.128965 0.00140017 0)
(0.130322 0.00323138 0)
(0.131652 0.00549728 0)
(0.133005 0.0082638 0)
(0.134463 0.0115853 0)
(0.136144 0.0154804 0)
(0.138195 0.0198889 0)
(0.140762 0.0246065 0)
(0.143905 0.0292148 0)
(0.0999823 0.000324605 0)
(0.0997904 0.000586374 0)
(0.0994541 0.000592351 0)
(0.0991082 0.000493549 0)
(0.0987983 0.000424443 0)
(0.0985185 0.00040723 0)
(0.0982543 0.000418449 0)
(0.0979959 0.000437655 0)
(0.0977388 0.000455934 0)
(0.0974816 0.000471258 0)
(0.0972241 0.000484065 0)
(0.0969663 0.000495277 0)
(0.0967082 0.000505678 0)
(0.09645 0.000515829 0)
(0.0961914 0.000526132 0)
(0.0959324 0.000536882 0)
(0.0956729 0.000548289 0)
(0.0954126 0.000560452 0)
(0.0951515 0.000573393 0)
(0.0948896 0.000587048 0)
(0.0946271 0.000601279 0)
(0.0943642 0.000615871 0)
(0.0941014 0.000630502 0)
(0.0938393 0.000644756 0)
(0.0935787 0.000658118 0)
(0.0933207 0.000670015 0)
(0.0930667 0.000679817 0)
(0.0928184 0.000686864 0)
(0.0925774 0.000690456 0)
(0.0923461 0.000689878 0)
(0.0921267 0.000684373 0)
(0.0919219 0.000673157 0)
(0.0917347 0.000655429 0)
(0.091568 0.000630388 0)
(0.0914255 0.000597212 0)
(0.0913105 0.000555049 0)
(0.091227 0.000503025 0)
(0.0911789 0.00044025 0)
(0.0911702 0.000365836 0)
(0.0912051 0.000278898 0)
(0.0912878 0.000178603 0)
(0.0914224 6.42005e-05 0)
(0.091613 -6.4947e-05 0)
(0.0918634 -0.000209315 0)
(0.0921773 -0.000369174 0)
(0.092558 -0.00054452 0)
(0.0930083 -0.000735179 0)
(0.0935309 -0.000940596 0)
(0.0941275 -0.00115992 0)
(0.0947996 -0.00139201 0)
(0.0955479 -0.00163523 0)
(0.0963724 -0.00188763 0)
(0.0972724 -0.00214693 0)
(0.0982464 -0.00241013 0)
(0.0992923 -0.00267382 0)
(0.100407 -0.00293399 0)
(0.101586 -0.00318603 0)
(0.102825 -0.00342451 0)
(0.104118 -0.00364327 0)
(0.105459 -0.00383524 0)
(0.10684 -0.00399234 0)
(0.108253 -0.0041053 0)
(0.109688 -0.00416352 0)
(0.111137 -0.00415486 0)
(0.112589 -0.00406529 0)
(0.114032 -0.00387865 0)
(0.115457 -0.00357625 0)
(0.116854 -0.00313646 0)
(0.118212 -0.00253407 0)
(0.119525 -0.00173967 0)
(0.120788 -0.00071945 0)
(0.122 0.000562362 0)
(0.123178 0.00214192 0)
(0.12434 0.00405997 0)
(0.125519 0.00635599 0)
(0.126765 0.00906159 0)
(0.128145 0.0121908 0)
(0.129744 0.0157244 0)
(0.131651 0.0195881 0)
(0.133938 0.0236268 0)
(0.136606 0.0275901 0)
(0.0999933 0.000350835 0)
(0.099844 0.000661743 0)
(0.0995438 0.000692131 0)
(0.0992078 0.000594863 0)
(0.0988937 0.000518943 0)
(0.0986072 0.00049612 0)
(0.0983387 0.000505032 0)
(0.0980793 0.000524267 0)
(0.0978238 0.000543734 0)
(0.0975696 0.000560722 0)
(0.097316 0.000575375 0)
(0.0970623 0.000588521 0)
(0.0968085 0.000600938 0)
(0.0965543 0.000613203 0)
(0.0962996 0.00062574 0)
(0.0960441 0.000638864 0)
(0.0957877 0.000652793 0)
(0.0955303 0.000667621 0)
(0.0952718 0.000683354 0)
(0.0950123 0.000699911 0)
(0.0947519 0.000717125 0)
(0.0944909 0.000734737 0)
(0.0942297 0.000752377 0)
(0.0939691 0.000769566 0)
(0.0937098 0.000785722 0)
(0.0934529 0.000800202 0)
(0.0931997 0.000812301 0)
(0.0929516 0.000821279 0)
(0.0927104 0.000826355 0)
(0.0924781 0.000826728 0)
(0.0922567 0.000821558 0)
(0.0920489 0.000809978 0)
(0.0918571 0.000791104 0)
(0.0916843 0.000764042 0)
(0.0915335 0.000727883 0)
(0.091408 0.000681691 0)
(0.0913112 0.000624518 0)
(0.0912467 0.000555402 0)
(0.0912181 0.000473391 0)
(0.0912291 0.000377562 0)
(0.0912835 0.00026706 0)
(0.0913847 0.00014114 0)
(0.0915363 -8.00758e-07 0)
(0.0917416 -0.000159169 0)
(0.0920036 -0.000334122 0)
(0.0923249 -0.000525517 0)
(0.0927077 -0.000732895 0)
(0.0931539 -0.000955559 0)
(0.0936648 -0.00119231 0)
(0.094241 -0.00144162 0)
(0.0948827 -0.00170158 0)
(0.0955892 -0.00196971 0)
(0.0963593 -0.00224296 0)
(0.097191 -0.00251794 0)
(0.0980816 -0.00279059 0)
(0.0990275 -0.00305615 0)
(0.100024 -0.00330915 0)
(0.101068 -0.00354335 0)
(0.102151 -0.00375166 0)
(0.103269 -0.00392604 0)
(0.104413 -0.00405746 0)
(0.105577 -0.00413566 0)
(0.106751 -0.00414906 0)
(0.107929 -0.00408474 0)
(0.1091 -0.00392801 0)
(0.110258 -0.00366236 0)
(0.111393 -0.00326926 0)
(0.1125 -0.00272789 0)
(0.113572 -0.00201505 0)
(0.114608 -0.00110496 0)
(0.115606 2.91346e-05 0)
(0.116582 0.0014108 0)
(0.117546 0.00306627 0)
(0.11852 0.00502066 0)
(0.119536 0.0072929 0)
(0.120634 0.00989109 0)
(0.121864 0.0128065 0)
(0.123282 0.0160053 0)
(0.124937 0.0194197 0)
(0.12686 0.0229405 0)
(0.129038 0.0264202 0)
(0.100001 0.000370014 0)
(0.0998866 0.000730278 0)
(0.0996204 0.00079148 0)
(0.0992983 0.000701519 0)
(0.098985 0.000621199 0)
(0.0986955 0.000592702 0)
(0.0984249 0.000598381 0)
(0.0981656 0.000616747 0)
(0.0979121 0.000636806 0)
(0.0976613 0.000655145 0)
(0.0974117 0.000671537 0)
(0.0971624 0.000686653 0)
(0.096913 0.000701212 0)
(0.0966631 0.000715777 0)
(0.0964124 0.000730784 0)
(0.0961606 0.000746547 0)
(0.0959077 0.000763281 0)
(0.0956534 0.000781067 0)
(0.0953977 0.000799889 0)
(0.0951406 0.000819644 0)
(0.0948825 0.000840133 0)
(0.0946235 0.000861054 0)
(0.0943641 0.000881986 0)
(0.094105 0.000902395 0)
(0.0938471 0.000921641 0)
(0.0935912 0.00093902 0)
(0.0933385 0.000953764 0)
(0.0930905 0.000965065 0)
(0.0928488 0.000972078 0)
(0.092615 0.000973929 0)
(0.0923912 0.000969714 0)
(0.0921796 0.0009585 0)
(0.0919825 0.000939333 0)
(0.0918025 0.00091125 0)
(0.0916423 0.000873275 0)
(0.091505 0.000824415 0)
(0.0913934 0.000763668 0)
(0.0913108 0.000690031 0)
(0.0912604 0.000602524 0)
(0.0912454 0.000500225 0)
(0.091269 0.000382301 0)
(0.0913343 0.000248053 0)
(0.0914441 9.69655e-05 0)
(0.0916011 -7.12412e-05 0)
(0.0918079 -0.00025656 0)
(0.0920663 -0.000458674 0)
(0.0923781 -0.000676843 0)
(0.0927443 -0.000910018 0)
(0.0931657 -0.00115679 0)
(0.0936424 -0.00141517 0)
(0.0941739 -0.00168272 0)
(0.0947593 -0.00195661 0)
(0.0953967 -0.00223314 0)
(0.0960838 -0.00250835 0)
(0.0968174 -0.00277751 0)
(0.0975941 -0.00303519 0)
(0.0984094 -0.00327518 0)
(0.0992586 -0.00349052 0)
(0.100136 -0.00367334 0)
(0.101036 -0.00381482 0)
(0.101951 -0.00390505 0)
(0.102876 -0.00393323 0)
(0.103803 -0.00388735 0)
(0.104725 -0.00375403 0)
(0.105637 -0.00351872 0)
(0.106531 -0.00316541 0)
(0.107404 -0.00267664 0)
(0.108251 -0.00203344 0)
(0.109071 -0.00121572 0)
(0.109864 -0.000203333 0)
(0.110642 0.00102007 0)
(0.111412 0.00247222 0)
(0.11219 0.00416983 0)
(0.112996 0.00612473 0)
(0.113855 0.00834122 0)
(0.114799 0.0108134 0)
(0.115863 0.0135219 0)
(0.117079 0.0164305 0)
(0.118475 0.0194834 0)
(0.120063 0.0226056 0)
(0.12183 0.0257091 0)
(0.100006 0.000383436 0)
(0.0999182 0.000792481 0)
(0.0996828 0.000889683 0)
(0.0993774 0.000812251 0)
(0.0990697 0.000730184 0)
(0.0987809 0.000696434 0)
(0.0985105 0.000698312 0)
(0.0982526 0.00071511 0)
(0.0980018 0.000735241 0)
(0.0977547 0.000754639 0)
(0.0975093 0.000772673 0)
(0.0972646 0.000789794 0)
(0.0970197 0.000806626 0)
(0.0967741 0.000823697 0)
(0.0965276 0.000841425 0)
(0.0962798 0.000860114 0)
(0.0960304 0.000879957 0)
(0.0957793 0.000901019 0)
(0.0955266 0.000923254 0)
(0.0952723 0.000946533 0)
(0.0950166 0.000970625 0)
(0.0947597 0.00099518 0)
(0.0945023 0.00101973 0)
(0.0942449 0.00104369 0)
(0.0939882 0.00106638 0)
(0.0937333 0.00108704 0)
(0.0934811 0.00110486 0)
(0.0932329 0.00111897 0)
(0.0929902 0.00112848 0)
(0.0927546 0.00113247 0)
(0.0925278 0.00112999 0)
(0.0923117 0.00112004 0)
(0.0921084 0.00110164 0)
(0.0919203 0.00107377 0)
(0.0917497 0.00103542 0)
(0.0915992 0.000985563 0)
(0.0914714 0.000923169 0)
(0.0913692 0.000847227 0)
(0.0912952 0.000756773 0)
(0.0912522 0.000650922 0)
(0.0912429 0.000528907 0)
(0.0912699 0.000390127 0)
(0.0913355 0.000234203 0)
(0.0914418 6.10336e-05 0)
(0.0915906 -0.000129164 0)
(0.0917834 -0.000335818 0)
(0.0920214 -0.000557975 0)
(0.0923051 -0.000794176 0)
(0.0926346 -0.00104252 0)
(0.0930097 -0.00130081 0)
(0.0934295 -0.00156608 0)
(0.0938924 -0.00183482 0)
(0.0943965 -0.00210313 0)
(0.0949393 -0.00236631 0)
(0.0955176 -0.00261905 0)
(0.0961277 -0.00285526 0)
(0.0967656 -0.00306809 0)
(0.0974265 -0.00324999 0)
(0.0981056 -0.00339255 0)
(0.0987978 -0.00348645 0)
(0.0994975 -0.00352137 0)
(0.100199 -0.00348627 0)
(0.100898 -0.00336909 0)
(0.101588 -0.00315681 0)
(0.102265 -0.00283536 0)
(0.102927 -0.00239004 0)
(0.103569 -0.00180513 0)
(0.104193 -0.00106462 0)
(0.104799 -0.000153382 0)
(0.105396 0.000940603 0)
(0.105991 0.0022303 0)
(0.106594 0.00372715 0)
(0.107218 0.00543877 0)
(0.107883 0.00736726 0)
(0.108608 0.00950782 0)
(0.109416 0.0118472 0)
(0.11033 0.0143625 0)
(0.111371 0.0170201 0)
(0.112553 0.019776 0)
(0.113879 0.0225784 0)
(0.115339 0.0253727 0)
(0.100009 0.000392522 0)
(0.0999404 0.000849197 0)
(0.099732 0.000986308 0)
(0.099445 0.000925875 0)
(0.0991464 0.000844797 0)
(0.0988618 0.000806638 0)
(0.0985939 0.000804536 0)
(0.0983387 0.000819308 0)
(0.0980913 0.000839108 0)
(0.0978482 0.000859329 0)
(0.0976073 0.000878927 0)
(0.0973672 0.000898102 0)
(0.0971269 0.000917356 0)
(0.0968859 0.000937149 0)
(0.0966436 0.000957867 0)
(0.0963998 0.000979784 0)
(0.0961542 0.00100306 0)
(0.0959066 0.00102774 0)
(0.095657 0.00105374 0)
(0.0954056 0.0010809 0)
(0.0951525 0.00110896 0)
(0.094898 0.00113751 0)
(0.0946427 0.00116605 0)
(0.094387 0.00119396 0)
(0.0941317 0.00122052 0)
(0.0938776 0.00124492 0)
(0.0936258 0.00126633 0)
(0.0933773 0.00128385 0)
(0.0931334 0.00129655 0)
(0.0928955 0.00130348 0)
(0.092665 0.00130367 0)
(0.0924438 0.0012961 0)
(0.0922337 0.00127975 0)
(0.0920365 0.00125359 0)
(0.0918544 0.00121659 0)
(0.0916897 0.00116772 0)
(0.0915445 0.00110596 0)
(0.0914212 0.00103034 0)
(0.0913221 0.000939936 0)
(0.0912495 0.000833949 0)
(0.0912057 0.000711722 0)
(0.0911925 0.000572802 0)
(0.091212 0.000416997 0)
(0.0912657 0.000244424 0)
(0.0913548 5.55466e-05 0)
(0.0914804 -0.00014878 0)
(0.0916431 -0.000367271 0)
(0.091843 -0.000598169 0)
(0.0920799 -0.0008392 0)
(0.092353 -0.00108748 0)
(0.0926612 -0.00133981 0)
(0.093003 -0.00159229 0)
(0.0933761 -0.00184046 0)
(0.0937779 -0.00207905 0)
(0.0942055 -0.00230218 0)
(0.0946554 -0.00250338 0)
(0.0951241 -0.00267539 0)
(0.0956073 -0.00281023 0)
(0.0961011 -0.00289912 0)
(0.096601 -0.00293258 0)
(0.097103 -0.0029004 0)
(0.097603 -0.00279155 0)
(0.0980972 -0.00259437 0)
(0.0985826 -0.00229709 0)
(0.0990571 -0.00188644 0)
(0.0995195 -0.00134952 0)
(0.0999695 -0.000673461 0)
(0.100411 0.000152643 0)
(0.100851 0.00113881 0)
(0.101292 0.002295 0)
(0.101744 0.00362918 0)
(0.102217 0.00514615 0)
(0.102724 0.00684663 0)
(0.103281 0.00872644 0)
(0.103902 0.0107756 0)
(0.104606 0.0129778 0)
(0.105406 0.01531 0)
(0.106316 0.0177428 0)
(0.107342 0.0202421 0)
(0.108486 0.022771 0)
(0.10974 0.0252946 0)
(0.100009 0.000398621 0)
(0.099955 0.000901449 0)
(0.0997698 0.00108118 0)
(0.0995017 0.00104141 0)
(0.0992149 0.000963985 0)
(0.0989372 0.000922578 0)
(0.098674 0.000916691 0)
(0.0984227 0.000929226 0)
(0.0981794 0.00094844 0)
(0.0979408 0.000969325 0)
(0.0977045 0.000990443 0)
(0.0974691 0.00101174 0)
(0.0972336 0.00103358 0)
(0.0969972 0.00105633 0)
(0.0967593 0.00108031 0)
(0.0965197 0.00110577 0)
(0.0962779 0.00113282 0)
(0.096034 0.00116147 0)
(0.0957879 0.00119161 0)
(0.0955395 0.00122304 0)
(0.0952893 0.00125546 0)
(0.0950374 0.00128842 0)
(0.0947843 0.00132138 0)
(0.0945304 0.00135369 0)
(0.0942766 0.00138461 0)
(0.0940235 0.00141332 0)
(0.0937719 0.00143895 0)
(0.0935229 0.00146059 0)
(0.0932776 0.00147732 0)
(0.093037 0.00148816 0)
(0.0928026 0.00149215 0)
(0.0925757 0.00148826 0)
(0.092358 0.00147547 0)
(0.0921511 0.00145277 0)
(0.0919567 0.00141914 0)
(0.0917768 0.00137357 0)
(0.0916131 0.0013151 0)
(0.0914677 0.00124281 0)
(0.0913425 0.00115589 0)
(0.0912392 0.00105366 0)
(0.0911596 0.000935616 0)
(0.0911052 0.0008015 0)
(0.0910776 0.000651347 0)
(0.0910777 0.000485524 0)
(0.0911065 0.000304775 0)
(0.0911644 0.000110269 0)
(0.0912517 -9.63643e-05 0)
(0.0913682 -0.000313015 0)
(0.0915135 -0.000537075 0)
(0.0916867 -0.000765302 0)
(0.0918863 -0.000994024 0)
(0.0921107 -0.00121885 0)
(0.0923577 -0.00143483 0)
(0.0926253 -0.00163646 0)
(0.0929106 -0.00181755 0)
(0.0932106 -0.00197129 0)
(0.0935224 -0.00209021 0)
(0.0938426 -0.00216612 0)
(0.0941681 -0.00219025 0)
(0.0944959 -0.00215326 0)
(0.094823 -0.0020453 0)
(0.0951472 -0.00185607 0)
(0.095466 -0.00157488 0)
(0.095778 -0.00119009 0)
(0.0960849 -0.000691897 0)
(0.0963871 -7.01711e-05 0)
(0.0966885 0.00068401 0)
(0.096992 0.00157945 0)
(0.0973031 0.00262355 0)
(0.0976286 0.00382186 0)
(0.0979773 0.00517733 0)
(0.0983593 0.00668978 0)
(0.098786 0.0083554 0)
(0.0992696 0.0101662 0)
(0.0998226 0.0121095 0)
(0.100457 0.0141683 0)
(0.101182 0.0163212 0)
(0.102006 0.0185431 0)
(0.102934 0.0208073 0)
(0.103964 0.023087 0)
(0.10509 0.025359 0)
(0.100009 0.0004029 0)
(0.0999638 0.000950323 0)
(0.099798 0.00117434 0)
(0.0995486 0.00115814 0)
(0.0992753 0.00108682 0)
(0.0990067 0.00104355 0)
(0.0987499 0.00103438 0)
(0.0985038 0.00104471 0)
(0.0982654 0.00106325 0)
(0.0980316 0.00108473 0)
(0.0978003 0.00110738 0)
(0.0975698 0.0011309 0)
(0.0973391 0.00115549 0)
(0.0971074 0.00118143 0)
(0.096874 0.00120897 0)
(0.0966387 0.00123829 0)
(0.0964011 0.00126947 0)
(0.096161 0.00130246 0)
(0.0959185 0.00133713 0)
(0.0956736 0.00137324 0)
(0.0954265 0.00141043 0)
(0.0951774 0.00144825 0)
(0.0949267 0.00148611 0)
(0.094675 0.00152335 0)
(0.0944228 0.00155921 0)
(0.0941707 0.00159287 0)
(0.0939194 0.00162347 0)
(0.0936699 0.0016501 0)
(0.0934229 0.00167184 0)
(0.0931795 0.00168775 0)
(0.0929408 0.00169685 0)
(0.0927079 0.00169815 0)
(0.0924822 0.00169067 0)
(0.0922651 0.00167343 0)
(0.0920579 0.00164545 0)
(0.0918622 0.00160581 0)
(0.0916795 0.00155361 0)
(0.0915114 0.00148805 0)
(0.0913594 0.00140846 0)
(0.0912248 0.00131431 0)
(0.0911091 0.00120529 0)
(0.0910133 0.00108138 0)
(0.0909385 0.000942868 0)
(0.0908853 0.000790387 0)
(0.0908543 0.000624985 0)
(0.0908457 0.000448156 0)
(0.0908595 0.000261862 0)
(0.0908951 6.85556e-05 0)
(0.0909521 -0.000128786 0)
(0.0910293 -0.000326689 0)
(0.0911256 -0.000521021 0)
(0.0912395 -0.000707152 0)
(0.0913692 -0.00087988 0)
(0.0915125 -0.00103342 0)
(0.0916674 -0.00116139 0)
(0.0918316 -0.00125683 0)
(0.0920027 -0.00131223 0)
(0.0921785 -0.00131959 0)
(0.092357 -0.00127048 0)
(0.0925364 -0.00115609 0)
(0.0927153 -0.000967344 0)
(0.0928929 -0.000695046 0)
(0.0930697 -0.000330009 0)
(0.0932468 0.000136722 0)
(0.0934247 0.000713242 0)
(0.0936069 0.00140732 0)
(0.0937971 0.00222583 0)
(0.0940002 0.00317432 0)
(0.0942223 0.00425655 0)
(0.0944707 0.00547423 0)
(0.0947539 0.00682664 0)
(0.095081 0.00831018 0)
(0.0954616 0.00991811 0)
(0.0959055 0.0116403 0)
(0.0964222 0.0134633 0)
(0.09702 0.0153704 0)
(0.0977058 0.0173424 0)
(0.0984843 0.0193582 0)
(0.0993576 0.0213968 0)
(0.100325 0.0234383 0)
(0.101381 0.0254671 0)
(0.100008 0.000406317 0)
(0.0999686 0.000996852 0)
(0.0998187 0.00126601 0)
(0.0995871 0.00127555 0)
(0.0993283 0.00121251 0)
(0.0990703 0.00116888 0)
(0.0988213 0.00115713 0)
(0.0985815 0.00116553 0)
(0.0983487 0.00118348 0)
(0.0981203 0.00120558 0)
(0.0978941 0.00122984 0)
(0.0976688 0.00125573 0)
(0.0974431 0.00128327 0)
(0.0972163 0.00131266 0)
(0.0969876 0.00134405 0)
(0.0967568 0.00137757 0)
(0.0965236 0.00141323 0)
(0.0962877 0.00145095 0)
(0.0960491 0.00149055 0)
(0.0958078 0.00153176 0)
(0.0955641 0.00157418 0)
(0.0953182 0.00161734 0)
(0.0950703 0.00166063 0)
(0.094821 0.00170338 0)
(0.0945706 0.00174485 0)
(0.0943197 0.00178421 0)
(0.0940689 0.00182063 0)
(0.0938189 0.00185323 0)
(0.0935703 0.00188112 0)
(0.093324 0.00190339 0)
(0.0930809 0.00191911 0)
(0.092842 0.00192733 0)
(0.0926081 0.00192714 0)
(0.0923806 0.00191761 0)
(0.0921604 0.00189786 0)
(0.0919488 0.00186704 0)
(0.0917471 0.0018244 0)
(0.0915563 0.00176928 0)
(0.0913776 0.00170117 0)
(0.0912121 0.00161975 0)
(0.0910608 0.00152494 0)
(0.0909244 0.00141695 0)
(0.0908036 0.00129635 0)
(0.0906989 0.00116403 0)
(0.0906104 0.00102137 0)
(0.0905381 0.000870137 0)
(0.090482 0.000712609 0)
(0.0904415 0.000551534 0)
(0.0904159 0.000390181 0)
(0.0904044 0.000232321 0)
(0.0904058 8.22695e-05 0)
(0.090419 -5.51712e-05 0)
(0.0904426 -0.000174647 0)
(0.090475 -0.000270282 0)
(0.0905149 -0.000335756 0)
(0.0905607 -0.000364277 0)
(0.0906112 -0.000348658 0)
(0.0906652 -0.000281392 0)
(0.090722 -0.000154714 0)
(0.090781 3.92817e-05 0)
(0.0908425 0.000308504 0)
(0.090907 0.00066077 0)
(0.090976 0.00110356 0)
(0.0910516 0.00164345 0)
(0.0911366 0.0022871 0)
(0.0912348 0.00303979 0)
(0.091351 0.00390549 0)
(0.0914907 0.00488684 0)
(0.0916603 0.00598465 0)
(0.0918669 0.00719778 0)
(0.0921181 0.00852279 0)
(0.0924219 0.0099538 0)
(0.0927862 0.0114824 0)
(0.0932185 0.0130975 0)
(0.093726 0.0147858 0)
(0.0943143 0.0165317 0)
(0.0949881 0.0183183 0)
(0.0957501 0.0201281 0)
(0.0966009 0.0219444 0)
(0.0975391 0.0237525 0)
(0.0985608 0.0255418 0)
(0.100007 0.000409621 0)
(0.0999705 0.00104194 0)
(0.0998336 0.00135645 0)
(0.0996187 0.00139324 0)
(0.0993745 0.00134036 0)
(0.0991282 0.00129784 0)
(0.0988882 0.00128441 0)
(0.0986557 0.00129136 0)
(0.0984292 0.00130892 0)
(0.0982066 0.0013318 0)
(0.097986 0.00135782 0)
(0.0977661 0.00138625 0)
(0.0975457 0.00141698 0)
(0.0973239 0.00145009 0)
(0.0971003 0.00148564 0)
(0.0968743 0.00152369 0)
(0.0966457 0.0015642 0)
(0.0964142 0.00160705 0)
(0.0961799 0.00165201 0)
(0.0959428 0.00169877 0)
(0.0957029 0.00174691 0)
(0.0954605 0.00179594 0)
(0.0952158 0.00184525 0)