/*--------------------------------*- C++ -*----------------------------------*\
  =========                 |
  \\      /  F ield         | OpenFOAM: The Open Source CFD Toolbox
   \\    /   O peration     | Website:  https://openfoam.org
    \\  /    A nd           | Version:  7
     \\/     M anipulation  |
\*---------------------------------------------------------------------------*/
FoamFile
{
    version     2.0;
    format      ascii;
    class       volScalarField;
    location    "3.78";
    object      T;
}
// * * * * * * * * * * * * * * * * * * * * * * * * * * * * * * * * * * * * * //

dimensions      [0 0 0 1 0 0 0];

internalField   nonuniform List<scalar> 
12013
(
300.033
300.101
300.171
300.242
300.316
300.392
300.469
300.547
300.627
300.709
300.791
300.876
300.961
301.047
301.135
301.225
301.315
301.407
301.501
301.596
301.694
301.793
301.894
301.998
302.104
302.213
302.325
302.441
302.561
302.685
302.814
302.949
303.089
303.236
303.391
303.554
303.726
303.908
304.101
304.307
304.526
304.759
305.009
305.278
305.565
305.875
306.208
306.567
306.954
307.372
307.824
308.312
308.84
309.412
310.031
310.702
311.428
312.216
313.07
313.995
314.999
316.088
317.269
318.551
319.944
321.456
323.099
324.887
326.832
328.953
331.266
333.796
336.567
339.612
342.97
346.692
350.847
355.528
360.881
367.147
374.786
300.033
300.101
300.171
300.243
300.316
300.392
300.469
300.548
300.628
300.709
300.792
300.876
300.961
301.048
301.136
301.225
301.316
301.408
301.502
301.597
301.694
301.793
301.895
301.998
302.104
302.214
302.326
302.442
302.562
302.686
302.815
302.95
303.09
303.237
303.392
303.555
303.727
303.909
304.102
304.307
304.526
304.76
305.01
305.278
305.566
305.875
306.208
306.567
306.954
307.371
307.823
308.311
308.839
309.41
310.029
310.699
311.424
312.211
313.064
313.988
314.99
316.077
317.257
318.536
319.925
321.434
323.072
324.854
326.792
328.904
331.206
333.721
336.473
339.492
342.815
346.487
350.566
355.128
360.269
366.113
372.77
300.033
300.101
300.171
300.243
300.317
300.392
300.469
300.548
300.628
300.71
300.792
300.876
300.962
301.049
301.137
301.226
301.317
301.409
301.503
301.598
301.695
301.795
301.896
302
302.106
302.215
302.328
302.443
302.563
302.688
302.817
302.951
303.092
303.239
303.394
303.557
303.728
303.91
304.104
304.309
304.528
304.761
305.011
305.279
305.566
305.875
306.208
306.566
306.953
307.37
307.821
308.308
308.835
309.406
310.023
310.692
311.416
312.2
313.051
313.972
314.971
316.054
317.229
318.503
319.885
321.385
323.013
324.782
326.705
328.797
331.074
333.557
336.268
339.233
342.482
346.052
349.983
354.321
359.113
364.383
370.092
300.033
300.101
300.171
300.243
300.317
300.393
300.47
300.549
300.629
300.71
300.793
300.878
300.963
301.05
301.138
301.227
301.318
301.411
301.505
301.6
301.697
301.797
301.898
302.002
302.108
302.218
302.33
302.446
302.566
302.69
302.82
302.954
303.095
303.242
303.397
303.559
303.731
303.913
304.106
304.311
304.53
304.763
305.013
305.281
305.568
305.876
306.208
306.566
306.952
307.368
307.818
308.304
308.83
309.398
310.014
310.68
311.401
312.183
313.029
313.946
314.939
316.016
317.183
318.447
319.818
321.304
322.916
324.664
326.562
328.622
330.86
333.293
335.94
338.821
341.959
345.379
349.104
353.154
357.536
362.231
367.165
300.033
300.101
300.171
300.243
300.317
300.393
300.471
300.55
300.63
300.712
300.795
300.879
300.965
301.052
301.14
301.23
301.321
301.413
301.507
301.603
301.701
301.8
301.902
302.006
302.112
302.222
302.334
302.45
302.57
302.695
302.824
302.959
303.099
303.246
303.401
303.564
303.736
303.917
304.11
304.315
304.533
304.767
305.016
305.283
305.569
305.877
306.209
306.565
306.95
307.365
307.813
308.298
308.821
309.387
310
310.663
311.38
312.157
312.997
313.908
314.893
315.96
317.115
318.366
319.72
321.187
322.774
324.494
326.355
328.371
330.554
332.918
335.478
338.247
341.243
344.476
347.958
351.688
355.656
359.825
364.13
300.033
300.101
300.172
300.244
300.318
300.394
300.472
300.551
300.632
300.713
300.797
300.881
300.967
301.055
301.143
301.233
301.324
301.417
301.511
301.607
301.705
301.805
301.906
302.011
302.117
302.227
302.34
302.456
302.576
302.701
302.83
302.965
303.105
303.252
303.407
303.57
303.741
303.923
304.116
304.32
304.538
304.771
305.02
305.286
305.572
305.879
306.209
306.565
306.948
307.361
307.807
308.289
308.81
309.372
309.981
310.639
311.351
312.121
312.954
313.855
314.829
315.883
317.023
318.256
319.588
321.028
322.583
324.264
326.079
328.037
330.15
332.427
334.879
337.514
340.342
343.365
346.584
349.99
353.562
357.265
361.047
300.033
300.102
300.172
300.245
300.319
300.395
300.473
300.553
300.634
300.716
300.799
300.884
300.971
301.058
301.147
301.237
301.329
301.422
301.516
301.613
301.711
301.811
301.913
302.017
302.124
302.234
302.347
302.463
302.584
302.708
302.838
302.972
303.113
303.26
303.415
303.578
303.749
303.931
304.123
304.327
304.545
304.777
305.025
305.29
305.575
305.881
306.21
306.564
306.945
307.356
307.799
308.278
308.794
309.353
309.956
310.608
311.312
312.074
312.896
313.785
314.746
315.783
316.903
318.112
319.416
320.822
322.338
323.97
325.727
327.616
329.644
331.818
334.145
336.629
339.272
342.073
345.025
348.116
351.322
354.614
357.953
300.034
300.102
300.173
300.246
300.321
300.397
300.475
300.555
300.636
300.719
300.803
300.888
300.975
301.063
301.152
301.243
301.335
301.428
301.523
301.62
301.718
301.818
301.921
302.026
302.133
302.243
302.356
302.473
302.594
302.718
302.848
302.983
303.124
303.271
303.425
303.588
303.759
303.94
304.132
304.336
304.553
304.784
305.032
305.296
305.58
305.884
306.211
306.562
306.941
307.349
307.789
308.263
308.775
309.327
309.924
310.568
311.263
312.014
312.824
313.698
314.64
315.657
316.752
317.932
319.202
320.567
322.035
323.609
325.298
327.105
329.036
331.094
333.284
335.604
338.055
340.63
343.321
346.113
348.986
351.915
354.871
300.034
300.103
300.174
300.247
300.322
300.399
300.478
300.558
300.64
300.723
300.807
300.893
300.98
301.069
301.159
301.25
301.342
301.436
301.532
301.629
301.728
301.828
301.931
302.036
302.144
302.255
302.368
302.485
302.606
302.731
302.861
302.996
303.137
303.284
303.438
303.601
303.772
303.953
304.144
304.347
304.564
304.794
305.04
305.303
305.585
305.887
306.212
306.561
306.936
307.34
307.776
308.245
308.751
309.296
309.884
310.518
311.202
311.939
312.734
313.589
314.511
315.502
316.568
317.713
318.942
320.26
321.671
323.179
324.79
326.506
328.33
330.263
332.306
334.458
336.714
339.067
341.507
344.022
346.593
349.2
351.822
300.034
300.103
300.175
300.249
300.324
300.402
300.481
300.562
300.644
300.728
300.813
300.899
300.987
301.076
301.167
301.258
301.351
301.446
301.542
301.64
301.739
301.841
301.944
302.05
302.158
302.269
302.383
302.5
302.622
302.747
302.877
303.012
303.153
303.3
303.455
303.617
303.788
303.968
304.159
304.361
304.577
304.806
305.051
305.312
305.592
305.892
306.213
306.559
306.93
307.33
307.76
308.223
308.721
309.258
309.836
310.458
311.128
311.85
312.625
313.459
314.355
315.317
316.348
317.453
318.635
319.898
321.246
322.681
324.206
325.823
327.533
329.335
331.228
333.21
335.274
337.413
339.618
341.876
344.174
346.496
348.824
300.034
300.104
300.176
300.251
300.327
300.405
300.485
300.566
300.649
300.734
300.82
300.907
300.995
301.085
301.177
301.269
301.363
301.458
301.555
301.654
301.754
301.856
301.96
302.067
302.175
302.287
302.401
302.519
302.641
302.767
302.897
303.032
303.173
303.321
303.475
303.637
303.807
303.987
304.177
304.379
304.593
304.821
305.064
305.323
305.6
305.897
306.216
306.557
306.924
307.318
307.741
308.196
308.686
309.212
309.778
310.387
311.041
311.743
312.497
313.306
314.172
315.1
316.092
317.152
318.281
319.484
320.762
322.118
323.551
325.064
326.655
328.324
330.067
331.881
333.759
335.696
337.681
339.706
341.757
343.824
345.892
300.035
300.105
300.178
300.253
300.33
300.409
300.49
300.572
300.656
300.741
300.828
300.916
301.006
301.096
301.189
301.282
301.377
301.473
301.571
301.671
301.772
301.875
301.98
302.087
302.196
302.309
302.424
302.542
302.664
302.79
302.921
303.057
303.198
303.345
303.499
303.661
303.831
304.01
304.2
304.4
304.613
304.839
305.08
305.337
305.611
305.905
306.219
306.555
306.916
307.304
307.72
308.166
308.645
309.159
309.711
310.304
310.939
311.62
312.349
313.129
313.962
314.852
315.8
316.81
317.882
319.02
320.224
321.495
322.833
324.239
325.71
327.245
328.84
330.492
332.194
333.941
335.724
337.535
339.365
341.204
343.041
300.035
300.106
300.18
300.256
300.334
300.414
300.495
300.579
300.664
300.75
300.838
300.927
301.018
301.11
301.203
301.298
301.394
301.492
301.591
301.691
301.793
301.897
302.003
302.111
302.222
302.335
302.451
302.57
302.693
302.82
302.951
303.087
303.228
303.375
303.529
303.691
303.86
304.039
304.227
304.426
304.637
304.861
305.1
305.354
305.625
305.914
306.223
306.554
306.909
307.288
307.695
308.131
308.598
309.099
309.635
310.209
310.823
311.479
312.18
312.928
313.725
314.573
315.474
316.43
317.442
318.51
319.636
320.82
322.062
323.359
324.711
326.115
327.568
329.065
330.602
332.172
333.77
335.388
337.018
338.654
340.286
300.035
300.108
300.182
300.259
300.338
300.419
300.502
300.587
300.673
300.761
300.85
300.941
301.033
301.126
301.221
301.317
301.415
301.514
301.614
301.716
301.819
301.925
302.032
302.141
302.253
302.367
302.484
302.604
302.727
302.855
302.986
303.122
303.264
303.411
303.565
303.726
303.895
304.073
304.26
304.458
304.667
304.889
305.124
305.375
305.642
305.927
306.23
306.555
306.902
307.272
307.669
308.093
308.546
309.031
309.549
310.103
310.693
311.323
311.993
312.706
313.464
314.267
315.118
316.016
316.964
317.962
319.008
320.104
321.248
322.439
323.675
324.953
326.269
327.621
329.004
330.412
331.84
333.283
334.734
336.188
337.638
300.036
300.109
300.185
300.263
300.344
300.426
300.511
300.597
300.684
300.774
300.865
300.957
301.051
301.146
301.242
301.34
301.439
301.54
301.642
301.745
301.851
301.957
302.066
302.177
302.29
302.405
302.523
302.644
302.769
302.897
303.029
303.166
303.307
303.455
303.609
303.769
303.938
304.114
304.3
304.496
304.703
304.922
305.155
305.401
305.664
305.943
306.24
306.557
306.895
307.256
307.641
308.052
308.491
308.958
309.456
309.987
310.552
311.152
311.789
312.465
313.181
313.937
314.735
315.575
316.457
317.382
318.349
319.357
320.406
321.493
322.617
323.774
324.963
326.179
327.419
328.679
329.954
331.239
332.53
333.822
335.109
300.037
300.111
300.189
300.268
300.35
300.434
300.52
300.608
300.698
300.789
300.882
300.976
301.072
301.169
301.268
301.368
301.469
301.571
301.675
301.781
301.888
301.997
302.107
302.219
302.334
302.451
302.57
302.692
302.818
302.947
303.08
303.217
303.36
303.507
303.661
303.821
303.989
304.164
304.348
304.542
304.747
304.963
305.192
305.434
305.691
305.964
306.255
306.563
306.892
307.242
307.614
308.01
308.432
308.881
309.357
309.864
310.401
310.97
311.573
312.209
312.881
313.589
314.332
315.112
315.929
316.782
317.67
318.593
319.549
320.537
321.554
322.598
323.668
324.759
325.868
326.993
328.128
329.272
330.419
331.566
332.709
300.037
300.114
300.193
300.274
300.358
300.444
300.532
300.622
300.714
300.808
300.903
300.999
301.097
301.197
301.298
301.4
301.504
301.609
301.715
301.823
301.932
302.043
302.156
302.27
302.386
302.505
302.626
302.75
302.877
303.007
303.141
303.279
303.422
303.57
303.723
303.883
304.05
304.224
304.407
304.599
304.8
305.013
305.238
305.475
305.727
305.993
306.275
306.575
306.893
307.231
307.589
307.97
308.373
308.802
309.255
309.736
310.244
310.781
311.347
311.943
312.57
313.228
313.918
314.638
315.39
316.172
316.983
317.824
318.691
319.585
320.502
321.441
322.4
323.376
324.367
325.369
326.379
327.396
328.414
329.433
330.448
300.038
300.117
300.198
300.281
300.367
300.456
300.546
300.639
300.733
300.829
300.927
301.027
301.128
301.23
301.334
301.439
301.545
301.653
301.762
301.873
301.985
302.098
302.213
302.33
302.449
302.57
302.693
302.818
302.947
303.078
303.213
303.352
303.496
303.644
303.797
303.957
304.123
304.296
304.477
304.666
304.865
305.074
305.295
305.527
305.772
306.031
306.305
306.594
306.901
307.226
307.569
307.933
308.318
308.725
309.154
309.608
310.086
310.589
311.118
311.674
312.256
312.864
313.5
314.162
314.85
315.563
316.301
317.063
317.848
318.653
319.477
320.32
321.177
322.049
322.931
323.823
324.721
325.623
326.528
327.431
328.332
300.04
300.12
300.203
300.29
300.378
300.469
300.563
300.658
300.756
300.855
300.956
301.059
301.163
301.269
301.376
301.485
301.595
301.706
301.819
301.932
302.047
302.164
302.282
302.402
302.523
302.646
302.772
302.9
303.03
303.163
303.3
303.44
303.584
303.733
303.886
304.045
304.21
304.382
304.561
304.748
304.944
305.149
305.365
305.591
305.829
306.081
306.345
306.625
306.919
307.23
307.558
307.904
308.269
308.654
309.059
309.485
309.932
310.402
310.894
311.408
311.946
312.506
313.089
313.694
314.321
314.969
315.638
316.326
317.032
317.756
318.495
319.248
320.014
320.79
321.575
322.368
323.165
323.966
324.768
325.57
326.369
300.041
300.124
300.21
300.299
300.391
300.486
300.582
300.681
300.782
300.885
300.99
301.097
301.205
301.315
301.427
301.539
301.653
301.768
301.885
302.002
302.121
302.242
302.363
302.486
302.611
302.737
302.865
302.996
303.128
303.264
303.402
303.544
303.689
303.838
303.992
304.151
304.315
304.486
304.663
304.847
305.04
305.241
305.451
305.672
305.903
306.146
306.401
306.669
306.951
307.248
307.56
307.888
308.233
308.595
308.975
309.373
309.79
310.226
310.681
311.156
311.65
312.163
312.695
313.246
313.816
314.402
315.006
315.625
316.26
316.908
317.569
318.241
318.923
319.614
320.312
321.016
321.723
322.434
323.145
323.856
324.565
300.042
300.129
300.218
300.311
300.406
300.505
300.605
300.708
300.814
300.921
301.031
301.142
301.255
301.37
301.486
301.603
301.722
301.842
301.963
302.085
302.209
302.333
302.459
302.586
302.715
302.845
302.976
303.11
303.245
303.383
303.523
303.667
303.813
303.963
304.118
304.277
304.44
304.61
304.785
304.967
305.156
305.353
305.558
305.773
305.997
306.231
306.476
306.733
307.003
307.285
307.58
307.89
308.215
308.554
308.909
309.28
309.667
310.07
310.489
310.925
311.378
311.846
312.331
312.831
313.346
313.875
314.418
314.975
315.543
316.123
316.713
317.312
317.919
318.533
319.153
319.777
320.405
321.035
321.666
322.296
322.926
300.044
300.134
300.228
300.325
300.424
300.527
300.632
300.741
300.851
300.964
301.079
301.195
301.314
301.434
301.556
301.679
301.803
301.929
302.056
302.183
302.312
302.442
302.572
302.704
302.837
302.971
303.107
303.244
303.383
303.524
303.667
303.813
303.961
304.112
304.268
304.427
304.59
304.758
304.932
305.111
305.297
305.49
305.69
305.898
306.115
306.341
306.576
306.822
307.078
307.346
307.625
307.917
308.221
308.539
308.869
309.213
309.571
309.943
310.328
310.727
311.14
311.566
312.006
312.458
312.923
313.4
313.888
314.387
314.895
315.413
315.939
316.472
317.012
317.558
318.108
318.662
319.219
319.777
320.337
320.896
321.454
300.046
300.141
300.239
300.341
300.445
300.553
300.665
300.778
300.895
301.014
301.135
301.258
301.383
301.51
301.638
301.768
301.899
302.031
302.165
302.299
302.434
302.57
302.706
302.844
302.982
303.121
303.262
303.403
303.546
303.691
303.837
303.985
304.136
304.289
304.446
304.605
304.769
304.936
305.109
305.286
305.468
305.657
305.852
306.054
306.264
306.481
306.707
306.941
307.185
307.439
307.702
307.976
308.261
308.557
308.864
309.182
309.513
309.854
310.207
310.572
310.948
311.335
311.733
312.142
312.561
312.99
313.427
313.874
314.328
314.79
315.259
315.734
316.214
316.699
317.187
317.678
318.172
318.668
319.164
319.66
320.156
300.049
300.149
300.252
300.359
300.47
300.585
300.702
300.823
300.946
301.072
301.201
301.332
301.465
301.6
301.736
301.873
302.012
302.152
302.293
302.435
302.577
302.72
302.864
303.008
303.153
303.298
303.444
303.591
303.739
303.888
304.038
304.19
304.344
304.499
304.658
304.818
304.982
305.149
305.321
305.496
305.676
305.861
306.051
306.247
306.45
306.659
306.875
307.099
307.331
307.571
307.819
308.076
308.343
308.618
308.903
309.197
309.501
309.815
310.138
310.471
310.813
311.164
311.524
311.893
312.27
312.655
313.048
313.448
313.854
314.266
314.684
315.106
315.533
315.964
316.398
316.834
317.272
317.712
318.152
318.592
319.033
300.052
300.158
300.268
300.382
300.5
300.621
300.747
300.875
301.007
301.142
301.279
301.419
301.561
301.705
301.851
301.998
302.146
302.295
302.445
302.596
302.747
302.898
303.05
303.202
303.355
303.507
303.66
303.813
303.967
304.121
304.276
304.433
304.59
304.749
304.909
305.072
305.236
305.404
305.574
305.748
305.926
306.108
306.294
306.485
306.681
306.882
307.09
307.304
307.524
307.751
307.985
308.226
308.475
308.732
308.996
309.268
309.548
309.836
310.132
310.435
310.746
311.065
311.391
311.724
312.063
312.409
312.761
313.119
313.482
313.85
314.223
314.599
314.979
315.362
315.748
316.135
316.525
316.915
317.306
317.698
318.089
300.055
300.168
300.286
300.408
300.534
300.664
300.799
300.937
301.078
301.223
301.371
301.522
301.674
301.829
301.986
302.144
302.303
302.463
302.624
302.785
302.947
303.108
303.27
303.431
303.593
303.754
303.915
304.075
304.236
304.397
304.558
304.719
304.881
305.044
305.208
305.373
305.539
305.708
305.878
306.051
306.227
306.406
306.589
306.775
306.965
307.16
307.36
307.564
307.774
307.989
308.21
308.437
308.67
308.909
309.154
309.406
309.664
309.928
310.199
310.476
310.759
311.049
311.344
311.645
311.951
312.262
312.578
312.899
313.224
313.553
313.886
314.222
314.56
314.901
315.245
315.59
315.936
316.283
316.631
316.979
317.327
300.059
300.181
300.307
300.438
300.574
300.715
300.86
301.009
301.163
301.32
301.48
301.643
301.808
301.976
302.146
302.317
302.489
302.662
302.835
303.009
303.183
303.356
303.529
303.702
303.873
304.045
304.215
304.385
304.554
304.722
304.89
305.058
305.226
305.393
305.561
305.73
305.899
306.069
306.24
306.413
306.588
306.766
306.945
307.128
307.313
307.502
307.694
307.891
308.091
308.295
308.504
308.718
308.937
309.16
309.388
309.622
309.86
310.104
310.352
310.606
310.864
311.127
311.395
311.668
311.944
312.225
312.51
312.798
313.09
313.384
313.682
313.982
314.285
314.589
314.895
315.203
315.511
315.82
316.13
316.44
316.75
300.064
300.196
300.332
300.475
300.622
300.775
300.933
301.095
301.262
301.433
301.608
301.785
301.966
302.149
302.334
302.521
302.708
302.896
303.085
303.273
303.461
303.649
303.835
304.021
304.205
304.388
304.569
304.75
304.929
305.106
305.283
305.458
305.633
305.806
305.979
306.152
306.325
306.498
306.671
306.845
307.02
307.196
307.374
307.554
307.735
307.919
308.105
308.294
308.487
308.682
308.88
309.083
309.288
309.498
309.711
309.928
310.149
310.374
310.603
310.836
311.072
311.312
311.556
311.804
312.054
312.308
312.565
312.825
313.088
313.353
313.62
313.889
314.16
314.432
314.706
314.98
315.256
315.532
315.808
316.085
316.361
300.07
300.213
300.362
300.517
300.678
300.845
301.018
301.196
301.379
301.567
301.758
301.954
302.152
302.353
302.557
302.761
302.967
303.173
303.379
303.585
303.79
303.994
304.196
304.397
304.596
304.792
304.987
305.18
305.37
305.559
305.745
305.93
306.112
306.294
306.473
306.652
306.829
307.006
307.182
307.358
307.534
307.71
307.887
308.065
308.243
308.423
308.605
308.788
308.973
309.16
309.35
309.542
309.737
309.934
310.134
310.337
310.543
310.752
310.964
311.178
311.396
311.616
311.839
312.064
312.293
312.523
312.756
312.991
313.228
313.467
313.708
313.95
314.193
314.438
314.683
314.929
315.176
315.423
315.67
315.917
316.164
300.077
300.233
300.397
300.567
300.744
300.928
301.118
301.315
301.517
301.724
301.936
302.153
302.372
302.595
302.819
303.046
303.273
303.5
303.727
303.953
304.178
304.401
304.622
304.84
305.056
305.269
305.479
305.686
305.891
306.092
306.29
306.485
306.677
306.867
307.055
307.24
307.423
307.605
307.785
307.964
308.142
308.32
308.497
308.673
308.85
309.028
309.205
309.384
309.564
309.744
309.926
310.11
310.295
310.482
310.671
310.862
311.055
311.249
311.446
311.645
311.846
312.049
312.254
312.461
312.669
312.88
313.092
313.306
313.521
313.737
313.955
314.173
314.393
314.613
314.834
315.055
315.277
315.498
315.72
315.941
316.162
300.085
300.257
300.438
300.626
300.822
301.025
301.236
301.455
301.679
301.91
302.147
302.387
302.632
302.88
303.13
303.381
303.634
303.886
304.137
304.387
304.635
304.88
305.123
305.362
305.598
305.83
306.058
306.282
306.501
306.717
306.929
307.136
307.34
307.541
307.737
307.931
308.121
308.309
308.495
308.678
308.859
309.039
309.217
309.394
309.57
309.746
309.921
310.096
310.271
310.447
310.623
310.8
310.977
311.155
311.335
311.515
311.697
311.879
312.064
312.249
312.436
312.624
312.813
313.004
313.196
313.389
313.583
313.778
313.974
314.171
314.369
314.567
314.766
314.965
315.164
315.364
315.563
315.763
315.962
316.161
316.359
300.094
300.286
300.486
300.695
300.913
301.14
301.376
301.619
301.871
302.13
302.394
302.664
302.939
303.216
303.496
303.778
304.059
304.341
304.621
304.898
305.173
305.445
305.713
305.976
306.234
306.488
306.736
306.979
307.217
307.45
307.677
307.899
308.116
308.328
308.535
308.738
308.937
309.133
309.324
309.513
309.698
309.881
310.062
310.24
310.417
310.592
310.766
310.938
311.111
311.282
311.453
311.624
311.795
311.966
312.138
312.309
312.482
312.654
312.828
313.001
313.176
313.351
313.527
313.704
313.882
314.06
314.238
314.417
314.597
314.777
314.957
315.138
315.319
315.499
315.68
315.86
316.041
316.22
316.4
316.579
316.757
300.105
300.318
300.542
300.776
301.02
301.274
301.539
301.813
302.096
302.388
302.686
302.991
303.3
303.613
303.928
304.244
304.561
304.876
305.19
305.5
305.806
306.108
306.404
306.695
306.98
307.258
307.529
307.794
308.052
308.303
308.548
308.786
309.018
309.243
309.463
309.677
309.886
310.089
310.288
310.483
310.674
310.861
311.045
311.225
311.403
311.579
311.752
311.924
312.094
312.262
312.43
312.596
312.762
312.927
313.092
313.256
313.421
313.585
313.749
313.913
314.077
314.242
314.406
314.571
314.736
314.901
315.066
315.231
315.397
315.562
315.727
315.892
316.056
316.221
316.385
316.548
316.711
316.874
317.035
317.196
317.356
300.117
300.357
300.607
300.87
301.145
301.431
301.73
302.04
302.361
302.691
303.029
303.374
303.725
304.079
304.436
304.793
305.15
305.505
305.857
306.204
306.546
306.882
307.211
307.533
307.847
308.153
308.451
308.74
309.021
309.293
309.557
309.812
310.06
310.301
310.534
310.76
310.979
311.192
311.399
311.601
311.798
311.99
312.178
312.361
312.541
312.718
312.892
313.063
313.231
313.398
313.563
313.726
313.887
314.047
314.207
314.365
314.522
314.679
314.835
314.991
315.146
315.301
315.455
315.61
315.764
315.917
316.071
316.224
316.376
316.528
316.679
316.83
316.98
317.13
317.279
317.427
317.574
317.721
317.866
318.011
318.155
300.132
300.401
300.683
300.979
301.29
301.614
301.953
302.305
302.67
303.045
303.43
303.823
304.222
304.624
305.029
305.434
305.838
306.238
306.634
307.024
307.407
307.781
308.147
308.504
308.85
309.187
309.513
309.828
310.134
310.428
310.713
310.988
311.253
311.509
311.756
311.995
312.226
312.449
312.665
312.874
313.077
313.275
313.467
313.654
313.836
314.015
314.189
314.36
314.528
314.693
314.856
315.016
315.174
315.33
315.484
315.637
315.789
315.939
316.088
316.236
316.383
316.53
316.675
316.82
316.964
317.107
317.249
317.39
317.531
317.67
317.809
317.947
318.083
318.219
318.354
318.488
318.621
318.753
318.884
319.014
319.142
300.148
300.452
300.77
301.105
301.456
301.825
302.21
302.611
303.027
303.456
303.896
304.344
304.799
305.258
305.718
306.177
306.634
307.086
307.532
307.969
308.397
308.814
309.22
309.615
309.996
310.366
310.722
311.065
311.396
311.715
312.021
312.315
312.598
312.87
313.132
313.383
313.625
313.858
314.083
314.3
314.509
314.712
314.908
315.099
315.284
315.464
315.639
315.81
315.978
316.141
316.302
316.459
316.614
316.766
316.916
317.064
317.21
317.354
317.496
317.637
317.777
317.915
318.052
318.187
318.321
318.454
318.585
318.715
318.844
318.971
319.098
319.223
319.347
319.469
319.591
319.711
319.83
319.948
320.064
320.18
320.294
300.167
300.509
300.868
301.247
301.645
302.064
302.503
302.961
303.436
303.927
304.429
304.942
305.461
305.983
306.507
307.028
307.544
308.053
308.554
309.043
309.519
309.982
310.431
310.865
311.283
311.685
312.072
312.444
312.8
313.142
313.469
313.783
314.082
314.369
314.644
314.907
315.159
315.401
315.633
315.856
316.071
316.278
316.478
316.671
316.858
317.039
317.215
317.386
317.552
317.714
317.872
318.026
318.177
318.325
318.47
318.612
318.752
318.89
319.026
319.159
319.291
319.42
319.547
319.673
319.796
319.918
320.038
320.157
320.274
320.389
320.503
320.616
320.727
320.836
320.944
321.051
321.156
321.26
321.363
321.464
321.564
300.187
300.571
300.975
301.402
301.854
302.329
302.829
303.351
303.894
304.455
305.029
305.614
306.205
306.798
307.391
307.979
308.561
309.132
309.691
310.234
310.76
311.27
311.761
312.233
312.686
313.12
313.536
313.933
314.312
314.673
315.018
315.346
315.66
315.958
316.243
316.515
316.774
317.023
317.26
317.488
317.706
317.915
318.117
318.311
318.498
318.679
318.853
319.022
319.186
319.345
319.499
319.649
319.796
319.938
320.078
320.214
320.347
320.477
320.604
320.728
320.85
320.969
321.086
321.201
321.313
321.424
321.532
321.639
321.744
321.847
321.948
322.048
322.146
322.243
322.338
322.431
322.523
322.613
322.702
322.789
322.875
300.208
300.636
301.087
301.565
302.073
302.61
303.176
303.769
304.387
305.025
305.68
306.344
307.012
307.681
308.346
309.003
309.649
310.28
310.894
311.488
312.062
312.614
313.143
313.649
314.133
314.593
315.032
315.449
315.845
316.221
316.578
316.917
317.239
317.544
317.835
318.111
318.374
318.625
318.864
319.092
319.31
319.519
319.719
319.911
320.095
320.272
320.443
320.608
320.767
320.921
321.069
321.213
321.353
321.488
321.619
321.747
321.871
321.992
322.109
322.223
322.335
322.444
322.55
322.654
322.755
322.855
322.952
323.047
323.14
323.231
323.32
323.407
323.493
323.577
323.659
323.739
323.818
323.896
323.971
324.046
324.119
300.228
300.695
301.191
301.718
302.28
302.879
303.514
304.183
304.876
305.59
306.32
307.06
307.803
308.545
309.28
310.002
310.708
311.394
312.057
312.695
313.308
313.893
314.451
314.981
315.484
315.961
316.413
316.84
317.244
317.626
317.986
318.328
318.651
318.956
319.246
319.52
319.781
320.028
320.263
320.487
320.701
320.905
321.1
321.286
321.465
321.636
321.801
321.959
322.111
322.257
322.398
322.535
322.666
322.793
322.916
323.035
323.15
323.262
323.37
323.475
323.577
323.677
323.773
323.867
323.959
324.048
324.135
324.219
324.302
324.382
324.461
324.537
324.612
324.685
324.756
324.826
324.894
324.96
325.025
325.088
325.15
300.241
300.736
301.262
301.825
302.429
303.077
303.765
304.487
305.239
306.014
306.807
307.609
308.415
309.215
310.004
310.775
311.524
312.247
312.942
313.606
314.239
314.839
315.409
315.947
316.455
316.935
317.386
317.812
318.213
318.591
318.948
319.284
319.601
319.901
320.184
320.452
320.706
320.948
321.177
321.394
321.602
321.799
321.988
322.168
322.34
322.506
322.664
322.816
322.962
323.102
323.237
323.367
323.492
323.613
323.729
323.842
323.951
324.056
324.158
324.257
324.353
324.446
324.536
324.623
324.708
324.791
324.871
324.949
325.024
325.098
325.17
325.239
325.307
325.373
325.437
325.5
325.561
325.62
325.678
325.734
325.788
384.97
392.92
399.596
405.407
410.557
415.154
419.263
422.919
426.137
428.921
431.261
433.134
434.508
435.336
435.552
435.067
433.751
431.408
427.706
421.988
412.603
406.235
401.344
397.331
393.906
390.907
388.234
385.817
383.607
381.568
379.672
377.897
376.224
374.639
373.13
371.686
370.299
368.961
367.666
366.408
365.183
363.985
362.812
361.659
360.525
359.406
358.301
357.206
356.122
355.045
353.976
352.912
351.854
350.801
349.751
348.705
347.663
346.624
345.588
344.555
343.524
342.497
341.473
340.452
339.434
338.42
337.41
336.403
335.402
334.406
333.417
332.434
331.459
330.493
329.537
328.592
327.659
326.739
325.834
324.944
324.072
323.217
322.381
321.565
320.77
319.997
319.247
318.52
317.817
317.139
316.486
315.857
315.254
314.677
314.125
313.598
313.095
312.618
312.164
311.735
311.328
310.943
310.58
310.238
309.916
309.613
309.327
309.059
308.807
308.571
308.348
308.139
307.943
307.757
307.582
307.417
307.26
307.111
306.969
306.834
306.704
306.579
306.459
306.342
306.228
306.117
306.008
305.9
305.794
305.689
305.585
305.481
305.377
305.273
305.169
305.064
304.958
304.852
304.744
304.636
304.526
304.416
304.304
304.191
304.077
303.962
303.846
303.729
303.611
303.492
303.373
303.253
303.133
303.012
302.892
302.771
302.651
302.532
302.413
302.297
302.182
380.219
387.129
393.338
398.907
403.916
408.426
412.48
416.1
419.298
422.072
424.411
426.293
427.685
428.542
428.803
428.385
427.176
425.021
421.701
416.947
410.713
405.314
400.8
396.968
393.644
390.71
388.079
385.693
383.506
381.485
379.602
377.838
376.174
374.596
373.093
371.654
370.272
368.937
367.646
366.39
365.167
363.971
362.8
361.649
360.516
359.398
358.293
357.2
356.116
355.04
353.971
352.908
351.851
350.797
349.748
348.702
347.66
346.621
345.585
344.552
343.522
342.495
341.471
340.45
339.432
338.418
337.408
336.402
335.4
334.404
333.415
332.432
331.457
330.491
329.535
328.589
327.656
326.736
325.831
324.941
324.069
323.214
322.378
321.562
320.767
319.994
319.244
318.517
317.814
317.136
316.482
315.854
315.251
314.674
314.122
313.595
313.093
312.616
312.162
311.733
311.326
310.942
310.579
310.237
309.915
309.611
309.326
309.058
308.807
308.57
308.348
308.139
307.942
307.757
307.582
307.417
307.26
307.111
306.97
306.834
306.704
306.58
306.459
306.342
306.228
306.117
306.008
305.901
305.795
305.69
305.586
305.482
305.378
305.274
305.169
305.065
304.959
304.853
304.745
304.637
304.527
304.417
304.305
304.192
304.078
303.963
303.847
303.73
303.612
303.493
303.374
303.254
303.134
303.013
302.892
302.772
302.652
302.533
302.414
302.298
302.183
376.113
382.027
387.607
392.774
397.52
401.853
405.784
409.322
412.467
415.211
417.54
419.431
420.853
421.764
422.109
421.82
420.812
418.982
416.224
412.492
408
403.638
399.696
396.192
393.072
390.271
387.733
385.415
383.278
381.296
379.445
377.705
376.061
374.5
373.01
371.584
370.211
368.885
367.6
366.351
365.133
363.942
362.774
361.627
360.496
359.381
358.279
357.187
356.105
355.03
353.963
352.901
351.844
350.791
349.742
348.697
347.656
346.617
345.581
344.549
343.519
342.492
341.468
340.447
339.429
338.415
337.404
336.398
335.397
334.401
333.411