/*--------------------------------*- C++ -*----------------------------------*\
  =========                 |
  \\      /  F ield         | OpenFOAM: The Open Source CFD Toolbox
   \\    /   O peration     | Website:  https://openfoam.org
    \\  /    A nd           | Version:  7
     \\/     M anipulation  |
\*---------------------------------------------------------------------------*/
FoamFile
{
    version     2.0;
    format      ascii;
    class       volScalarField;
    location    "3.2";
    object      p;
}
// * * * * * * * * * * * * * * * * * * * * * * * * * * * * * * * * * * * * * //

dimensions      [0 2 -2 0 0 0 0];

internalField   nonuniform List<scalar> 
2790
(
147.402
147.31
147.577
148.148
148.928
149.885
151.018
152.324
153.801
155.442
157.241
159.192
161.286
163.51
165.851
168.286
170.791
173.329
175.861
178.335
180.693
182.871
184.801
186.422
187.681
188.556
188.992
189.047
189.098
189.311
147.199
147.217
147.509
148.078
148.854
149.808
150.936
152.236
153.706
155.338
157.128
159.069
161.152
163.365
165.695
168.12
170.616
173.149
175.679
178.157
180.525
182.72
184.675
186.323
187.608
188.482
188.879
188.934
189.066
189.351
147.001
147.088
147.4
147.958
148.721
149.662
150.775
152.057
153.505
155.113
156.875
158.785
160.832
163.008
165.296
167.678
170.13
172.621
175.112
177.56
179.909
182.102
184.074
185.764
187.115
188.091
188.684
189.039
189.354
189.653
146.776
146.894
147.218
147.767
148.516
149.441
150.534
151.792
153.212
154.786
156.509
158.375
160.373
162.494
164.722
167.04
169.424
171.847
174.274
176.665
178.972
181.143
183.125
184.864
186.319
187.471
188.339
189.01
189.563
190.082
146.515
146.647
146.98
147.522
148.254
149.158
150.225
151.452
152.834
154.365
156.039
157.849
159.784
161.835
163.987
166.222
168.52
170.855
173.196
175.509
177.754
179.889
181.871
183.662
185.232
186.575
187.705
188.668
189.478
190.225
146.214
146.352
146.687
147.219
147.931
148.809
149.845
151.034
152.371
153.851
155.466
157.209
159.069
161.037
163.098
165.236
167.431
169.66
171.897
174.112
176.274
178.352
180.314
182.134
183.797
185.299
186.645
187.851
188.871
189.789
145.872
146.011
146.342
146.861
147.55
148.398
149.397
150.543
151.828
153.248
154.795
156.461
158.236
160.109
162.066
164.091
166.167
168.273
170.386
172.481
174.536
176.527
178.435
180.245
181.95
183.551
185.045
186.424
187.589
188.635
145.487
145.624
145.948
146.451
147.114
147.928
148.885
149.981
151.209
152.562
154.032
155.612
157.29
159.056
160.896
162.795
164.736
166.7
168.668
170.619
172.536
174.404
176.211
177.952
179.631
181.25
182.804
184.277
185.526
186.677
145.061
145.194
145.508
145.991
146.625
147.401
148.312
149.353
150.516
151.795
153.182
154.666
156.238
157.886
159.597
161.355
163.145
164.948
166.747
168.526
170.269
171.967
173.615
175.215
176.776
178.311
179.819
181.289
182.561
183.799
144.594
144.722
145.023
145.483
146.086
146.821
147.682
148.662
149.756
150.955
152.25
153.631
155.088
156.608
158.178
159.781
161.403
163.025
164.631
166.204
167.732
169.206
170.624
171.992
173.324
174.642
175.962
177.3
178.5
179.804
144.089
144.21
144.496
144.931
145.499
146.19
146.997
147.914
148.933
150.046
151.243
152.514
153.847
155.23
156.648
158.084
159.521
160.942
162.328
163.663
164.931
166.12
167.227
168.254
169.218
170.146
171.076
172.074
173.036
174.354
143.547
143.661
143.929
144.338
144.869
145.512
146.262
147.111
148.052
149.074
150.168
151.323
152.526
153.763
155.018
156.274
157.513
158.714
159.856
160.918
161.879
162.721
163.429
163.994
164.42
164.729
164.971
165.278
165.659
166.832
142.97
143.076
143.326
143.706
144.198
144.792
145.482
146.26
147.118
148.046
149.032
150.066
151.132
152.217
153.302
154.368
155.395
156.359
157.234
157.993
158.606
159.04
159.262
159.236
158.932
158.333
157.457
156.463
155.513
156.017
142.36
142.459
142.689
143.038
143.489
144.032
144.66
145.365
146.138
146.968
147.843
148.751
149.677
150.604
151.512
152.381
153.187
153.901
154.492
154.924
155.154
155.131
154.792
154.059
152.835
151.005
148.44
145.135
141.183
139.143
141.721
141.811
142.021
142.339
142.747
143.238
143.802
144.431
145.117
145.847
146.609
147.389
148.17
148.936
149.664
150.331
150.908
151.365
151.661
151.752
151.578
151.068
150.123
148.608
146.328
142.995
138.149
131.128
120.656
108.418
2.02286
1.99498
1.90101
1.76993
1.62942
1.49226
1.36251
1.24103
1.12756
1.02126
0.921113
0.826318
0.73651
0.651761
0.572326
0.498419
0.430415
0.36964
0.318844
0.28086
0.256456
0.241829
0.230868
0.220331
0.207895
0.190082
0.165582
0.132193
0.0895997
0.0388644
1.95241
1.92038
1.83263
1.71233
1.58267
1.45475
1.33256
1.21722
1.1086
1.00603
0.908635
0.815798
0.727383
0.643688
0.565095
0.491686
0.423519
0.361916
0.310474
0.27371
0.252189
0.240448
0.232026
0.223109
0.211766
0.195166
0.17007
0.13607
0.0919163
0.0375015
1.87984
1.84183
1.75784
1.6471
1.5284
1.41033
1.29647
1.18804
1.08503
0.986823
0.892688
0.802177
0.715401
0.632981
0.555543
0.483067
0.41514
0.353003
0.301273
0.265671
0.246255
0.234752
0.226413
0.219373
0.212002
0.197388
0.173131
0.139906
0.0958898
0.0371392
1.81611
1.77213
1.6903
1.58694
1.47754
1.36809
1.26174
1.1597
1.06195
0.967941
0.877008
0.788814
0.703658
0.622477
0.546252
0.475042
0.407717
0.344355
0.289708
0.25478
0.242214
0.23854
0.233569
0.227648
0.217983
0.201089
0.175082
0.140399
0.0950459
0.036136
1.7816
1.73176
1.65204
1.55323
1.44965
1.34543
1.24361
1.14537
1.05074
0.959232
0.870239
0.783485
0.699327
0.618787
0.543034
0.472566
0.407021
0.34738
0.297193
0.259547
0.239871
0.234181
0.232036
0.228862
0.220506
0.203803
0.177732
0.141681
0.094715
0.0346847
1.79238
1.73485
1.65623
1.5571
1.45363
1.34924
1.24723
1.14881
1.05412
0.962691
0.873968
0.787652
0.704007
0.62384
0.548088
0.477325
0.411898
0.353336
0.305399
0.271189
0.250855
0.241127
0.235911
0.230853
0.221122
0.202682
0.174259
0.137013
0.0891346
0.0306087
1.85623
1.78957
1.7041
1.59843
1.48758
1.37685
1.26946
1.16663
1.06842
0.974374
0.883927
0.796766
0.713007
0.633156
0.557835
0.487513
0.422752
0.365029
0.316616
0.280918
0.258841
0.246315
0.238378
0.23075
0.218891
0.199026
0.169573
0.130505
0.0818394
0.0271046
1.97033
1.88779
1.78487
1.66356
1.5384
1.41566
1.29858
1.18833
1.08472
0.986934
0.894136
0.805771
0.7217
0.642108
0.567309
0.49766
0.433789
0.376835
0.328892
0.292318
0.267484
0.251438
0.240016
0.229101
0.214539
0.1928
0.161784
0.121201
0.072709
0.0235982
2.1104
2.00187
1.87172
1.72783
1.58509
1.44908
1.32221
1.20428
1.09535
0.994264
0.899725
0.810813
0.72707
0.648315
0.574477
0.505673
0.442522
0.386417
0.339141
0.302093
0.275129
0.255909
0.240973
0.226649
0.209293
0.185588
0.152936
0.110739
0.063029
0.020124
2.23536
2.09374
1.93979
1.77405
1.61309
1.46422
1.32908
1.20705
1.09596
0.993909
0.899206
0.810773
0.728093
0.650817
0.578551
0.511121
0.449051
0.393732
0.346878
0.309482
0.281
0.259236
0.241151
0.223595
0.203525
0.177867
0.143575
0.0998416
0.0533724
0.0167676
2.3252
2.1504
1.96863
1.78524
1.61307
1.45707
1.31781
1.19411
1.08343
0.982912
0.890085
0.803641
0.723232
0.648515
0.578704
0.51316
0.452288
0.397699
0.351313
0.313988
0.28479
0.261315
0.240675
0.220237
0.19763
0.170097
0.134247
0.0892551
0.0441493
0.0135919
2.34756
2.14065
1.93326
1.73581
1.56092
1.40854
1.27521
1.15767
1.05327
0.958734
0.870801
0.788203
0.711451
0.640673
0.574537
0.511538
0.451874
0.397769
0.35189
0.315249
0.286362
0.262185
0.239694
0.216757
0.191804
0.162544
0.125374
0.0794449
0.0354809
0.0106426
2.22372
1.97386
1.77207
1.59522
1.44312
1.31292
1.19868
1.09617
1.00469
0.921436
0.841762
0.764541
0.692479
0.62713
0.566243
0.50656
0.447857
0.393615
0.348144
0.312991
0.285756
0.262095
0.238489
0.213354
0.18616
0.155339
0.117211
0.0707342
0.0280447
0.00805981
1.83657
1.55616
1.4363
1.34599
1.2527
1.16925
1.09093
1.0122
0.939443
0.873244
0.805244
0.733729
0.66631
0.607973
0.554623
0.499275
0.440778
0.385039
0.339523
0.306915
0.283176
0.261531
0.23749
0.210233
0.180701
0.148454
0.109893
0.0634298
0.0219039
0.00592377
1.01621
0.716794
0.855979
0.994638
0.998363
0.988537
0.965385
0.912824
0.858639
0.816503
0.765179
0.697934
0.633042
0.583356
0.541238
0.49168
0.431606
0.371636
0.324984
0.296422
0.278898
0.261205
0.237247
0.207557
0.175282
0.141678
0.103471
0.0579933
0.0176343
0.00442378
141.042
141.123
141.311
141.596
141.961
142.396
142.894
143.446
144.041
144.668
145.313
145.961
146.595
147.195
147.738
148.197
148.541
148.733
148.727
148.467
147.88
146.872
145.308
142.994
139.632
134.724
127.351
115.594
93.413
33.5307
140.315
140.386
140.552
140.802
141.121
141.499
141.928
142.399
142.901
143.421
143.946
144.458
144.94
145.37
145.724
145.971
146.077
146.001
145.691
145.081
144.089
142.599
140.454
137.422
133.145
127.039
118.071
104.507
84.9847
56.5539
139.545
139.607
139.749
139.963
140.235
140.554
140.912
141.301
141.707
142.119
142.52
142.895
143.223
143.482
143.645
143.681
143.552
143.213
142.608
141.666
140.296
138.377
135.746
132.172
127.329
120.764
111.887
100.064
85.8521
69.2853
138.735
138.786
138.904
139.082
139.305
139.564
139.85
140.155
140.464
140.766
141.044
141.281
141.456
141.546
141.521
141.35
140.993
140.403
139.521
138.276
136.576
134.304
131.308
127.393
122.31
115.768
107.473
97.0943
84.5728
69.4734
137.885
137.926
138.02
138.16
138.333
138.532
138.746
138.965
139.178
139.37
139.526
139.626
139.651
139.574
139.368
138.999
138.427
137.604
136.473
134.964
132.991
130.448
127.205
123.108
117.975
111.609
103.809
94.3352
83.0202
70.0723
136.998
137.028
137.098
137.2
137.324
137.462
137.603
137.738
137.855
137.939
137.974
137.941
137.819
137.583
137.204
136.649
135.879
134.847
133.499
131.769
129.582
126.846
123.456
119.293
114.227
108.125
100.865
92.3469
82.5636
71.928
136.077
136.097
136.142
136.206
136.281
136.358
136.427
136.479
136.501
136.479
136.397
136.235
135.973
135.586
135.046
134.321
133.372
132.158
130.627
128.721
126.376
123.517
120.062
115.923
111.015
105.259
98.6004
91.0289
82.5885
73.6147
135.125
135.134
135.155
135.182
135.207
135.225
135.224
135.194
135.125
135
134.805
134.521
134.127
133.6
132.912
132.033
130.928
129.558
127.879
125.841
123.39
120.467
117.012
112.966
108.275
102.901
96.8286
90.079
82.7023
74.97
134.145
134.144
134.141
134.131
134.109
134.068
133.998
133.89
133.732
133.51
133.208
132.808
132.292
131.636
130.816
129.802
128.564
127.067
125.273
123.141
120.628
117.691
114.287
110.377
105.934
100.942
95.4083
89.3662
82.8698
76.1459
133.142
133.131
133.104
133.058
132.99
132.893
132.757
132.574
132.331
132.016
131.614
131.109
130.48
129.709
128.771
127.641
126.293
124.695
122.817
120.626
118.09
115.176
111.857
108.112
103.927
99.303
94.2586
88.8327
83.0783
77.18
132.119
132.099
132.049
131.97
131.857
131.705
131.507
131.252
130.93
130.529
130.035
129.432
128.703
127.829
126.79
125.563
124.125
122.452
120.518
118.297
115.767
112.905
109.696
106.128
102.2
97.9227
93.3186
88.4272
83.2964
78.0743
131.083
131.054
130.983
130.87
130.715
130.512
130.254
129.932
129.537
129.056
128.478
127.787
126.969
126.006
124.882
123.576
122.069
120.342
118.375
116.15
113.649
110.859
107.773
104.388
100.709
96.7511
92.5391
88.1094
83.5038
78.8413
130.039
130
129.909
129.765
129.57
129.319
129.006
128.622
128.159
127.606
126.951
126.183
125.287
124.25
123.055
121.686
120.13
118.368
116.388
114.176
111.722
109.019
106.063
102.859
99.4147
95.748
91.883
87.8522
83.6912
79.4961
128.991
128.944
128.834
128.661
128.428
128.133
127.769
127.328
126.804
126.186
125.464
124.628
123.666
122.566
121.314
119.899
118.308
116.529
114.552
112.369
109.974
107.364
104.54
101.51
98.285
94.8815
91.3227
87.6368
83.8541
80.0521
127.947
127.893
127.764
127.564
127.297
126.961
126.55
126.058
125.479
124.803
124.023
123.129
122.112
120.961
119.666
118.217
116.605
114.822
112.861
110.718
108.389
105.876
103.183
100.318
97.294
94.127
90.8377
87.4504
83.9906
80.5216
126.912
126.851
126.706
126.482
126.183
125.81
125.357
124.82
124.191
123.466
122.635
121.693
120.63
119.439
118.112
116.641
115.02
113.244
111.309
109.212
106.954
104.539
101.971
99.2612
96.4205
93.4647
90.4122
87.2839
84.101
80.9153
125.894
125.826
125.666
125.42
125.093
124.687
124.196
123.618
122.948
122.179
121.306
120.324
119.225
118.004
116.654
115.172
113.551
111.791
109.888
107.843
105.658
103.338
100.889
98.3218
95.6471
92.8795
90.035
87.1313
84.1865
81.243
124.899
124.825
124.652
124.386
124.034
123.598
123.075
122.462
121.755
120.949
120.042
119.027
117.9
116.657
115.294
113.808
112.196
110.457
108.591
106.6
104.488
102.259
99.9219
97.4852
94.9601
92.3595
89.6973
86.9889
84.2493
81.5135
123.934
123.856
123.671
123.386
123.012
122.551
121.999
121.356
120.618
119.783
118.847
117.807
116.66
115.402
114.033
112.549
110.951
109.238
107.412
105.476
103.434
101.292
99.0574
96.7396
94.3485
91.8956
89.3931
86.8542
84.2917
81.7345
123.008
122.924
122.729
122.429
122.036
121.552
120.976
120.308
119.544
118.684
117.726
116.667
115.506
114.24
112.87
111.394
109.813
108.129
106.344
104.462
102.487
100.426
98.2859
96.0753
93.8035
91.4809
89.1181
86.7264
84.3167
81.9132
122.127
122.039
121.835
121.522
121.112
120.609
120.013
119.323
118.539
117.659
116.684
115.611
114.441
113.172
111.805
110.341
108.781
107.127
105.383
103.552
101.64
99.6536
97.5991
95.4845
93.3186
91.1103
88.8692
86.605
84.3272
82.0557
121.298
121.208
120.995
120.671
120.246
119.728
119.115
118.408
117.607
116.712
115.724
114.643
113.467
112.199
110.839
109.389
107.851
106.227
104.522
102.741
100.887
98.9685
96.9907
94.9615
92.8886
90.7803
88.6448
86.4908
84.3263
82.1683
120.532
120.438
120.219
119.884
119.448
118.916
118.289
117.568
116.754
115.849
114.852
113.764
112.588
111.323
109.972
108.537
107.021
105.427
103.76
102.023
100.223
98.3651
96.4556
94.5014
92.5098
90.4881
88.4438
86.3843
84.3169
82.2556
119.834
119.738
119.513
119.169
118.723
118.18
117.542
116.81
115.987
115.073
114.07
112.98
111.804
110.545
109.205
107.786
106.291
104.726
103.093
101.397
99.6445
97.8403
95.9906
94.1018
92.1804
90.2332
88.2668
86.2879
84.3029
82.3236
119.215
119.116
118.885
118.534
118.079
117.527
116.88
116.14
115.309
114.389
113.383
112.292
111.119
109.867
108.537
107.134
105.66
104.12
102.518
100.859
99.1478
97.3903
95.5922
93.7592
91.8976
90.0133
88.1126
86.2014
84.2854
82.3745
118.683
118.581
118.345
117.987
117.524
116.965
116.311
115.565
114.729
113.805
112.798
111.708
110.538
109.292
107.973
106.584
105.129
103.612
102.037
100.409
98.7342
97.0164
95.2617
93.4756
91.6638
89.832
87.9857
86.1305
84.2716
82.4174
118.248
118.143
117.899
117.533
117.064
116.499
115.839
115.088
114.248
113.322
112.314
111.226
110.06
108.821
107.512
106.135
104.696
103.198
101.646
100.045
98.3989
96.7136
94.9941
93.2458
91.474
89.684
87.881
86.07
84.256
82.4459
117.922
117.811
117.558
117.186
116.712
116.142
115.478
114.723
113.881
112.954
111.946
110.859
109.697
108.464
107.163
105.797
104.371
102.889
101.355
99.7741
98.1514
96.4915
94.7996
93.0807
91.34
89.5825
87.8131
86.0366
84.2578
82.4828
117.72
117.585
117.315
116.937
116.461
115.888
115.222
114.465
113.622
112.695
111.688
110.603
109.445
108.216
106.921
105.563
104.146
102.675
101.153
99.587
97.98
96.3372
94.6637
92.9644
91.2442
89.508
87.7604
86.0061
84.2496
82.4957
117.702
117.503
117.204
116.82
116.341
115.765
115.096
114.338
113.493
112.566
111.56
110.477
109.321
108.096
106.805
105.453
104.043
102.579
101.067
99.5096
97.9129
96.2812
94.6195
92.9326
91.2253
89.5022
87.7681
86.0275
84.2846
82.5436
-50.6079
-30.4359
-10.9841
36.2763
29.0197
17.3652
51.8947
39.9086
28.8323
53.2563
42.8775
34.8868
57.562
49.3086
42.5873
61.9285
55.0462
49.179
65.1774
59.3144
54.2809
67.75
62.7379
58.4392
69.9182
65.5947
61.8928
71.7477
67.975
64.7524
73.2855
69.9591
67.1249
74.5806
71.6206
69.1036
75.6734
73.0169
70.7614
76.5958
74.1932
72.1553
77.3743
75.1858
73.3307
78.0306
76.024
74.3237
78.5826
76.7317
75.1632
79.0456
77.3284
75.8726
79.4324
77.8304
76.4713
79.754
78.2513
76.9754
80.0197
78.6029
77.3983
80.2383
78.8954
77.7519
80.4163
79.1367
78.0455
80.5617
79.336
78.289
80.6771
79.4966
78.4867
80.7741
79.631
78.6512
80.8441
79.7309
78.7757
80.9157
79.8252
78.8873
80.9489
79.8746
78.9508
81.0178
79.9576
79.0402
-1.92041
-1.75456
-0.346435
0.68321
0.754188
0.786486
0.827756
0.796222
0.757541
0.759605
0.735815
0.663988
0.59142
0.550248
0.52669
0.486224
0.421378
0.352356
0.302563
0.28047
0.273585
0.262566
0.238798
0.205627
0.169663
0.134592
0.097816
0.054856
0.015845
0.00375937
3.69533
0.547011
1.56847
1.26934
0.234786
0.241421
0.691344
0.762499
0.688257
0.723881
0.718777
0.614911
0.517301
0.496
0.51748
0.494894
0.416671
0.327732
0.269152
0.256158
0.267477
0.267464
0.243122
0.204218
0.162944
0.126177
0.0924442
0.0545342
0.0172901
0.00416981
14.6345
6.17721
3.26982
1.15093
0.610443
1.2773
1.51293
0.731985
0.229352
0.418483
0.720138
0.62982
0.478387
0.475533
0.54689
0.521233
0.405432
0.278319
0.205084
0.212132
0.262516
0.282716
0.254052
0.204822
0.155649
0.116607
0.0876958
0.0584106
0.0236414
0.00590945
24.1979
14.3578
8.53206
4.80689
2.88096
2.0442
1.16638
0.525376
0.460054
1.25953
1.42431
0.617969
0.164999
0.152235
0.406079
0.565271
0.430892
0.24857
0.154936
0.193108
0.295364
0.314395
0.267152
0.200233
0.140692
0.0995976
0.0784125
0.0644813
0.0359036
0.00908819
33.2891
23.5602
16.255
10.9438
7.25673
4.74931
2.96096
1.87176
1.36908
1.33825
0.949257
0.480921
0.194098
0.408976
1.02225
0.978154
0.427884
0.0909746
-0.0585674
0.00223253
0.206064
0.338147
0.29581
0.204809
0.133161
0.0916832
0.0812105
0.0903724
0.0730087
0.0168777
41.2072
32.3008
24.4208
17.9872
13.0497
9.37857
6.68113
4.75009
3.40913
2.49958
1.7414
1.14768
0.745035
0.686445
0.80072
0.711493
0.410049
0.0999877
-0.044656
0.127851
0.529285
0.566789
0.311043
0.158454
0.0783283
0.044741
0.0456867
0.081927
0.102794
0.0121987
47.6636
39.871
32.1042
25.2172
19.5826
15.0986
11.5523
8.77447
6.64039
5.03127
3.78348
2.78928
2.04407
1.58646
1.3186
1.0618
0.709475
0.349124
0.15498
0.200623
0.350805
0.402238
0.312316
0.200451
0.131783
0.100972
0.10679
0.166334
0.258266
0.044907
52.9235
46.2
38.9488
32.1203
26.2303
21.2699
17.1136
13.6702
10.8671
8.61584
6.79664
5.31522
4.14444
3.27356
2.63178
2.08633
1.5463
1.06415
0.746733
0.62362
0.61154
0.586507
0.469572
0.319495
0.213755
0.160342
0.152514
0.182438
0.234637
-0.0405595
57.2154
51.4024
44.8211
38.3473
32.5239
27.4017
22.9179
19.0366
15.7269
12.9373
10.5945
8.63424
7.01824
5.71432
4.66229
3.77211
2.98312
2.31124
1.80482
1.47456
1.26577
1.08354
0.866234
0.646085
0.475496
0.363001
0.296279
0.253681
0.183548
-0.293643
60.718
55.6514
49.7493
43.7627
38.2037
33.1495
28.5718
24.4665
20.835
17.6599
14.9049
12.5299
10.5004
8.78314
7.33194
6.08892
5.01057
4.08987
3.34075
2.76127
2.31167
1.92731
1.56467
1.23134
0.952187
0.730913
0.551276
0.378567
0.131377
-0.515044
63.5945
59.1344
53.8531
48.382
43.1802
38.3305
33.8205
29.6618
25.8754
22.4671
19.4256
16.7303
14.3588
12.2861
10.4804
8.90388
7.52432
6.32635
5.30709
4.45718
3.747
3.13303
2.58146
2.08481
1.64934
1.27212
0.932925
0.589448
0.16039
-0.598261
65.9769
62.0116
57.2711
52.2884
47.4679
42.888
38.5416
34.4461
30.6311
27.1155
23.9034
20.9892
18.3626
16.009
13.9088
12.038
10.3738
8.90071
7.60919
6.48697
5.5113
4.65128
3.8796
3.18228
2.55442
1.98677
1.45662
0.922412
0.318641
-0.529561
67.964
64.4063
60.128
55.5847
51.1324
46.8414
42.7054
38.7416
34.9818
31.4507
28.1612
25.1177
22.319
19.7596
17.4296
15.3151
13.4014
11.6759
10.1283
8.74636
7.5123
6.40335
5.39748
4.47887
3.63658
2.85719
2.11802
1.38335
0.60599
-0.334673
69.6306
66.4121
62.5269
58.3696
54.2557
50.2471
46.3363
42.5379
38.8824
35.3961
32.0962
28.9927
26.0908
23.3916
20.8922
18.5863
16.4655
14.5213
12.7448
11.1258
9.65054
8.30192
7.06226
5.91619
4.85036
3.84975
2.89356
1.95337
0.997377
-0.0528931
71.034
68.1005
64.5499
60.7285
56.918
53.173
49.484
45.8625
42.3359
38.93
35.6635
32.5492
29.5961
26.8097
24.192
21.742
19.4561
17.3294
15.3559
13.5278
11.8346
10.2636
8.80068
7.43199
6.14409
4.92223
3.74831
2.60047
1.45781
0.273919
72.2192
69.5264
66.2617
62.7316
59.1899
55.6848
52.2052
48.7591
45.3706
42.0638
38.857
35.7645
32.797
29.9627
27.2668
24.7119
22.2979
20.0232
17.8843
15.8758
13.9903
12.2183
10.5486
8.96934
7.46822
6.03166
4.64426
3.28909
1.9518
0.609262
73.2216
70.7331
67.7133
64.4358
61.1307
57.841
54.5543
51.2754
48.025
44.8249
41.6925
38.642
35.6848
32.8308
30.0869
27.4581
24.9469
22.5541
20.2783
18.1166
16.0638
14.1131
12.2558
10.482
8.78077
7.14011
5.54677
3.98703
2.44955
0.926903
74.0696
71.7552
68.9458
65.8871
62.7896
59.6918
56.5801
53.4568
50.3392
47.2468
44.1955
41.1987
38.2682
35.4139
32.6443
29.9654
27.3818
24.8957
22.5079
20.2171
18.0203
15.9125
13.8871
11.936
10.0498
8.21776
6.42825
4.66917
2.92981
1.21209
74.7864
72.6206
69.992
67.1232
64.2073
61.2792
58.3249
55.344
52.3511
49.3631
46.3945
43.4576
40.5636
37.7226
34.9432
32.2325
29.5959
27.0372
24.5582
22.1594
19.8391
17.5942
15.4195
13.3085
11.253
9.24341
7.26901
5.31828
3.3797
1.45976
75.3914
73.3524
70.8794
68.175
65.4175
62.6389
59.8247
56.9726
54.0946
51.2055
48.3179
45.443
42.5912
39.7721
36.9944
34.2656
31.5915
28.9767
26.4242
23.9354
21.51
19.146
16.8396
14.5854
12.3762
10.2032
8.05638
5.92393
3.79299
1.67139
75.9005
73.9696
71.6304
69.068
66.4482
63.8006
61.1102
58.3734
55.5999
52.8024
49.9919
47.1783
44.3712
41.5794
38.8113
36.0744
33.3747
30.7174
28.1061
25.5429
23.0284
20.5616
18.1397
15.7581
13.4105
11.0887
8.7827
6.48043
4.16756
1.85138
76.3275
74.4886
72.2639
69.8239
67.3232
64.7896
62.208
59.5733
56.8935
54.1793
51.4405
48.6857
45.9233
43.1615
40.4082
37.6704
34.9545
32.2655
29.6075
26.9832
24.3937
21.8388
19.3163
16.8224
14.3513
11.8952
9.44406
6.98546
4.50384
2.00495
76.6834
74.9224
72.7954
70.4602
68.062
65.6268
63.1396
60.5944
57.9975
55.3581
52.6846
49.9845
47.2651
44.534
41.7983
39.0647
36.3394
33.6273
30.9328
28.2587
25.6066
22.9768
20.3675
17.7755
15.1953
12.6194
10.0377
7.43743
4.80219
2.13574
76.979
75.2835
73.2392
70.9931
68.682
66.3309
63.9249
61.4571
58.9325
56.359
53.7437
51.0932
48.414
45.7126
42.9957
40.2695
37.5396
34.8112
32.0883
29.3741
26.6703
23.9774
21.2942
18.6175
15.9423
13.2611
10.5638
7.83739
5.0649
2.24767
77.2206
75.5795
73.6042
71.4327
69.1948
66.9145
64.5771
62.1752
59.7125
57.1957
54.6313
52.0246
49.3815
46.7077
44.0093
41.2919
38.561
35.8212
33.0767
30.3304
27.5844
24.8392
22.0938
19.3452
16.5886
13.8165
11.0189
8.18242
5.28997
2.34042
77.4199
75.823
73.9045
71.7942
69.6166
67.3947
65.1141
62.7669
60.3558
57.8869
55.3655
52.7964
50.1846
47.5353
44.854
42.1459
39.4159
36.6685
33.9077
31.1365
28.3566
25.5689
22.7723
19.964
17.1393
14.2906
11.408
8.47792
5.48308
2.41919
77.5737
76.0116
74.1379
72.0764
69.9466
67.7712
65.536
63.2325
60.863
58.4326
55.9461
53.4078
50.8219
48.1932
45.5266
42.8269
40.0988
37.3465
34.5737
31.7833
28.9771
26.1558
23.3184
20.4623
17.5825
14.6717
11.7197
8.71297
5.63429
2.47697
77.7042
76.1678
74.3283
72.3036
70.21
68.0698
65.8689
63.5987
61.2608
58.8599
56.4002
53.8856
51.3198
48.7072
46.0523
43.3597
40.6335
37.878
35.0965
32.2919
29.466
26.6193
23.7509
20.8582
17.9361
14.9773
11.9715
8.90487
5.76007
2.52646
77.7844
76.2642
74.447
72.4474
70.3782
68.2615
66.0836
63.8357
61.5191
59.1379
56.6963
54.1976
51.6454
49.0438
46.397
43.7092
40.9847
38.2272
35.4402
32.6263
29.7872
26.9236
24.0344
21.1169
18.1662
15.1746
12.1317
9.02353
5.83245
2.54618
77.8732
76.3541
74.5491
72.5645
70.5091
68.405
66.2392
64.0031
61.6975
59.3265
56.894
54.4031
51.8575
49.2608
46.6174
43.9312
41.2065
38.4469
35.6558
32.8358
29.9886
27.1149
24.2136
21.282
18.315
15.3051
12.2413
9.10872
5.88728
2.55288
)
;

boundaryField
{
    inlet
    {
        type            zeroGradient;
    }
    outlet
    {
        type            fixedValue;
        value           uniform 0;
    }
    flap
    {
        type            zeroGradient;
    }
    upperWall
    {
        type            zeroGradient;
    }
    lowerWall
    {
        type            zeroGradient;
    }
    frontAndBack
    {
        type            empty;
    }
}


// ************************************************************************* //
