/*--------------------------------*- C++ -*----------------------------------*\
  =========                 |
  \\      /  F ield         | OpenFOAM: The Open Source CFD Toolbox
   \\    /   O peration     | Website:  https://openfoam.org
    \\  /    A nd           | Version:  7
     \\/     M anipulation  |
\*---------------------------------------------------------------------------*/
FoamFile
{
    version     2.0;
    format      ascii;
    class       volVectorField;
    location    "3.2";
    object      U;
}
// * * * * * * * * * * * * * * * * * * * * * * * * * * * * * * * * * * * * * //

dimensions      [0 1 -1 0 0 0 0];

internalField   nonuniform List<vector> 
2790
(
(9.94399 0.0205233 0)
(9.87572 0.029588 0)
(9.77521 0.03599 0)
(9.64943 0.0425568 0)
(9.50408 0.0493862 0)
(9.34006 0.0564292 0)
(9.15653 0.0638168 0)
(8.95261 0.0717126 0)
(8.72745 0.0802562 0)
(8.48007 0.0895745 0)
(8.20926 0.0997943 0)
(7.91363 0.111046 0)
(7.59167 0.123461 0)
(7.24177 0.137165 0)
(6.86232 0.152273 0)
(6.45179 0.16887 0)
(6.00888 0.186997 0)
(5.53269 0.206619 0)
(5.02299 0.22759 0)
(4.48047 0.249611 0)
(3.90719 0.272176 0)
(3.30688 0.294525 0)
(2.68534 0.31562 0)
(2.05068 0.334289 0)
(1.41186 0.350608 0)
(0.798101 0.372885 0)
(0.110796 0.32508 0)
(-0.469525 -0.11484 0)
(-0.453755 -0.297142 0)
(-0.231151 -0.423843 0)
(9.9985 0.0407035 0)
(9.98145 0.0623837 0)
(9.93574 0.0791415 0)
(9.86416 0.0966266 0)
(9.77097 0.115126 0)
(9.65714 0.134491 0)
(9.52204 0.154977 0)
(9.36484 0.176946 0)
(9.1847 0.20071 0)
(8.98065 0.226552 0)
(8.75151 0.254746 0)
(8.49587 0.285561 0)
(8.21219 0.31925 0)
(7.89881 0.356022 0)
(7.55403 0.396019 0)
(7.17619 0.439261 0)
(6.76379 0.485589 0)
(6.31567 0.534583 0)
(5.83128 0.585457 0)
(5.31092 0.636949 0)
(4.7562 0.687199 0)
(4.17047 0.733643 0)
(3.55936 0.772951 0)
(2.93163 0.801094 0)
(2.30003 0.813754 0)
(1.69303 0.807262 0)
(1.10723 0.747271 0)
(0.658946 0.547956 0)
(0.186503 0.224649 0)
(-0.00819244 -0.453703 0)
(9.99559 0.0432077 0)
(9.97556 0.0752732 0)
(9.9318 0.103348 0)
(9.86489 0.132374 0)
(9.77777 0.163063 0)
(9.67154 0.195403 0)
(9.54587 0.229747 0)
(9.40012 0.266607 0)
(9.23364 0.306474 0)
(9.04562 0.34981 0)
(8.83507 0.397074 0)
(8.60079 0.448722 0)
(8.34143 0.505191 0)
(8.05549 0.56686 0)
(7.74137 0.634005 0)
(7.39744 0.706723 0)
(7.02211 0.784826 0)
(6.61397 0.867711 0)
(6.17196 0.954179 0)
(5.69568 1.04224 0)
(5.18568 1.12887 0)
(4.64402 1.20977 0)
(4.07487 1.27915 0)
(3.48545 1.32933 0)
(2.88693 1.3501 0)
(2.29955 1.32645 0)
(1.73192 1.22081 0)
(1.21631 0.973052 0)
(0.701182 0.570206 0)
(0.358058 -0.156484 0)
(9.99403 0.0495003 0)
(9.97181 0.0932085 0)
(9.92788 0.133575 0)
(9.86224 0.174213 0)
(9.77693 0.216438 0)
(9.67297 0.260667 0)
(9.5503 0.307436 0)
(9.40847 0.357421 0)
(9.247 0.411296 0)
(9.06531 0.469709 0)
(8.86266 0.533304 0)
(8.63817 0.602723 0)
(8.39083 0.678589 0)
(8.1195 0.761467 0)
(7.82299 0.851809 0)
(7.5 0.949859 0)
(7.14925 1.05553 0)
(6.76946 1.16822 0)
(6.35952 1.28658 0)
(5.91864 1.40824 0)
(5.44658 1.52944 0)
(4.94407 1.64466 0)
(4.41324 1.74613 0)
(3.85835 1.82321 0)
(3.28591 1.86137 0)
(2.70649 1.84035 0)
(2.12572 1.72605 0)
(1.55432 1.47793 0)
(0.957989 1.08378 0)
(0.50944 0.502411 0)
(9.99331 0.0572151 0)
(9.96994 0.110962 0)
(9.92593 0.162108 0)
(9.86145 0.213353 0)
(9.77798 0.266363 0)
(9.67634 0.321922 0)
(9.55652 0.38071 0)
(9.4182 0.443496 0)
(9.26095 0.511063 0)
(9.08431 0.584175 0)
(8.88768 0.66359 0)
(8.67036 0.750062 0)
(8.43156 0.844329 0)
(8.17043 0.947073 0)
(7.88606 1.05886 0)
(7.57747 1.18005 0)
(7.24366 1.31066 0)
(6.88361 1.45015 0)
(6.4963 1.59718 0)
(6.08076 1.74928 0)
(5.63621 1.90237 0)
(5.16218 2.05028 0)
(4.65885 2.18415 0)
(4.1273 2.29173 0)
(3.5695 2.35657 0)
(2.98899 2.35735 0)
(2.38692 2.26501 0)
(1.76646 2.04773 0)
(1.09004 1.69151 0)
(0.536672 1.15426 0)
(9.99302 0.0655405 0)
(9.96923 0.128705 0)
(9.92556 0.190119 0)
(9.86252 0.251851 0)
(9.78128 0.315587 0)
(9.68243 0.382328 0)
(9.56599 0.452885 0)
(9.43169 0.528111 0)
(9.27918 0.608888 0)
(9.10803 0.69609 0)
(8.91774 0.790582 0)
(8.70771 0.893223 0)
(8.47725 1.00485 0)
(8.22564 1.12624 0)
(7.95212 1.25807 0)
(7.65587 1.40078 0)
(7.33602 1.5545 0)
(6.99164 1.71882 0)
(6.6217 1.8925 0)
(6.22504 2.07317 0)
(5.80033 2.25679 0)
(5.34611 2.43715 0)
(4.86079 2.60515 0)
(4.3428 2.7482 0)
(3.79051 2.84955 0)
(3.20269 2.88823 0)
(2.57667 2.83829 0)
(1.91355 2.67171 0)
(1.1728 2.37413 0)
(0.549993 1.89455 0)
(9.99297 0.0740771 0)
(9.96926 0.146319 0)
(9.92637 0.21749 0)
(9.86508 0.289301 0)
(9.78641 0.363366 0)
(9.69083 0.440839 0)
(9.57833 0.522673 0)
(9.44869 0.609823 0)
(9.30162 0.703266 0)
(9.13674 0.803973 0)
(8.95361 0.912904 0)
(8.75166 1.03101 0)
(8.53029 1.15921 0)
(8.28883 1.29838 0)
(8.02655 1.44927 0)
(7.74266 1.61244 0)
(7.43627 1.78814 0)
(7.10639 1.97611 0)
(6.75181 2.17534 0)
(6.37103 2.38375 0)
(5.96215 2.59767 0)
(5.52271 2.81131 0)
(5.04962 3.01609 0)
(4.53912 3.19993 0)
(3.98679 3.34667 0)
(3.38804 3.436 0)
(2.73738 3.44339 0)
(2.03635 3.34162 0)
(1.24182 3.11374 0)
(0.563546 2.69334 0)
(9.99306 0.0825908 0)
(9.96981 0.163612 0)
(9.92807 0.244058 0)
(9.86884 0.32549 0)
(9.79311 0.409459 0)
(9.70124 0.497221 0)
(9.59321 0.589854 0)
(9.46885 0.688411 0)
(9.32792 0.793953 0)
(9.1701 0.90754 0)
(8.99498 1.03022 0)
(8.80206 1.16304 0)
(8.59076 1.307 0)
(8.36045 1.46307 0)
(8.1104 1.63212 0)
(7.83976 1.81483 0)
(7.54757 2.01161 0)
(7.23265 2.22245 0)
(6.8935 2.44665 0)
(6.52818 2.6826 0)
(6.13413 2.92726 0)
(5.70792 3.17568 0)
(5.24507 3.42028 0)
(4.73991 3.65014 0)
(4.18563 3.85022 0)
(3.57492 4.00092 0)
(2.89968 4.07799 0)
(2.16225 4.05253 0)
(1.31621 3.9019 0)
(0.583261 3.54039 0)
(9.99326 0.0909315 0)
(9.97072 0.180415 0)
(9.93046 0.269677 0)
(9.87361 0.360254 0)
(9.80117 0.453662 0)
(9.71342 0.551227 0)
(9.61035 0.65413 0)
(9.49185 0.763514 0)
(9.35772 0.880522 0)
(9.20769 1.00629 0)
(9.0414 1.14197 0)
(8.85842 1.28867 0)
(8.65821 1.44751 0)
(8.44015 1.61957 0)
(8.20351 1.80583 0)
(7.9474 2.00716 0)
(7.67073 2.22418 0)
(7.37213 2.4572 0)
(7.04978 2.70596 0)
(6.70128 2.96946 0)
(6.32339 3.24554 0)
(5.91172 3.53042 0)
(5.46047 3.81796 0)
(4.96216 4.0989 0)
(4.40759 4.35982 0)
(3.7866 4.58212 0)
(3.08777 4.74117 0)
(2.31288 4.80464 0)
(1.41077 4.74135 0)
(0.614366 4.44224 0)
(9.99352 0.098996 0)
(9.9719 0.196587 0)
(9.9334 0.294207 0)
(9.87923 0.393432 0)
(9.81039 0.495774 0)
(9.72715 0.602609 0)
(9.6295 0.715204 0)
(9.51738 0.834784 0)
(9.39064 0.962565 0)
(9.24908 1.09977 0)
(9.0924 1.2476 0)
(8.92021 1.4073 0)
(8.73206 1.58006 0)
(8.52734 1.76709 0)
(8.30536 1.96952 0)
(8.06518 2.18843 0)
(7.80566 2.42472 0)
(7.52524 2.67908 0)
(7.22188 2.95181 0)
(6.89276 3.24269 0)
(6.53405 3.55064 0)
(6.14054 3.87334 0)
(5.70517 4.20656 0)
(5.21865 4.54327 0)
(4.66921 4.87236 0)
(4.04312 5.17697 0)
(3.32395 5.43241 0)
(2.51001 5.60218 0)
(1.54204 5.64383 0)
(0.664139 5.41845 0)
(9.99384 0.106708 0)
(9.9733 0.212009 0)
(9.93679 0.317516 0)
(9.88557 0.424873 0)
(9.82062 0.53561 0)
(9.74223 0.651145 0)
(9.65041 0.772814 0)
(9.54514 0.901912 0)
(9.42633 1.03972 0)
(9.29384 1.18754 0)
(9.14746 1.34665 0)
(8.98686 1.51836 0)
(8.81166 1.70399 0)
(8.62134 1.90485 0)
(8.41522 2.12228 0)
(8.19243 2.35754 0)
(7.95179 2.61189 0)
(7.69171 2.88644 0)
(7.40999 3.18215 0)
(7.10361 3.49971 0)
(6.76835 3.8393 0)
(6.39839 4.20035 0)
(5.98567 4.58099 0)
(5.51926 4.97716 0)
(4.98463 5.3812 0)
(4.36357 5.77952 0)
(3.63225 6.14923 0)
(2.78046 6.45092 0)
(1.73371 6.62895 0)
(0.744959 6.50367 0)
(9.9942 0.114011 0)
(9.97487 0.226585 0)
(9.94055 0.339489 0)
(9.89251 0.454444 0)
(9.83172 0.573008 0)
(9.75848 0.696637 0)
(9.67285 0.826724 0)
(9.57484 0.964625 0)
(9.46443 1.11168 0)
(9.34156 1.26924 0)
(9.20608 1.43867 0)
(9.05778 1.62135 0)
(8.89634 1.81869 0)
(8.72136 2.03215 0)
(8.53226 2.2632 0)
(8.32825 2.51338 0)
(8.10823 2.78426 0)
(7.8707 3.07745 0)
(7.61352 3.39458 0)
(7.33367 3.73731 0)
(7.02689 4.10724 0)
(6.68718 4.50579 0)
(6.30598 4.93386 0)
(5.87127 5.39121 0)
(5.36606 5.87516 0)
(4.76727 6.37814 0)
(4.04117 6.88328 0)
(3.16194 7.35379 0)
(2.02515 7.72378 0)
(0.880943 7.75792 0)
(9.99459 0.120859 0)
(9.97657 0.240236 0)
(9.94461 0.360025 0)
(9.89994 0.482024 0)
(9.84354 0.607824 0)
(9.77573 0.738915 0)
(9.69658 0.876733 0)
(9.60618 1.02268 0)
(9.50458 1.17816 0)
(9.39177 1.34455 0)
(9.26773 1.52328 0)
(9.13232 1.7158 0)
(8.98536 1.92362 0)
(8.82656 2.14828 0)
(8.65549 2.39145 0)
(8.47153 2.65488 0)
(8.27378 2.94044 0)
(8.06093 3.25022 0)
(7.83113 3.58652 0)
(7.58168 3.95197 0)
(7.30871 4.34959 0)
(7.00663 4.78287 0)
(6.66727 5.25578 0)
(6.27864 5.77262 0)
(5.82275 6.33739 0)
(5.27293 6.9522 0)
(4.58513 7.6136 0)
(3.71067 8.3012 0)
(2.48884 8.95898 0)
(1.12486 9.2945 0)
(9.99501 0.127217 0)
(9.97837 0.252898 0)
(9.9489 0.379041 0)
(9.90778 0.507513 0)
(9.85596 0.63994 0)
(9.79379 0.77784 0)
(9.72138 0.92268 0)
(9.63888 1.0759 0)
(9.5464 1.23894 0)
(9.44405 1.41321 0)
(9.33186 1.6002 0)
(9.20983 1.80139 0)
(9.07792 2.01835 0)
(8.936 2.25275 0)
(8.78382 2.50636 0)
(8.62099 2.78113 0)
(8.4469 3.0792 0)
(8.26062 3.40306 0)
(8.06077 3.75559 0)
(7.84528 4.14027 0)
(7.61117 4.56139 0)
(7.35399 5.02436 0)
(7.06714 5.53613 0)
(6.74052 6.10571 0)
(6.3582 6.7448 0)
(5.89458 7.46853 0)
(5.30156 8.2961 0)
(4.50992 9.24815 0)
(3.26999 10.3428 0)
(1.60579 11.3613 0)
(9.99544 0.133058 0)
(9.98026 0.264519 0)
(9.95338 0.396465 0)
(9.91594 0.530819 0)
(9.86886 0.669236 0)
(9.81249 0.813256 0)
(9.74703 0.964371 0)
(9.67265 1.12405 0)
(9.58956 1.29373 0)
(9.49793 1.47489 0)
(9.39791 1.669 0)
(9.28965 1.87761 0)
(9.17322 2.10232 0)
(9.04869 2.34485 0)
(8.91605 2.60708 0)
(8.77518 2.89107 0)
(8.62584 3.19919 0)
(8.46759 3.53418 0)
(8.29971 3.89936 0)
(8.12105 4.29882 0)
(7.92993 4.73777 0)
(7.72378 5.22306 0)
(7.49879 5.76392 0)
(7.24908 6.37317 0)
(6.96517 7.06928 0)
(6.63157 7.88009 0)
(6.21552 8.85112 0)
(5.66761 10.0655 0)
(4.69263 11.7318 0)
(2.68938 14.5967 0)
(0.148748 -0.154168 0)
(0.33993 -0.136508 0)
(0.53843 -0.1099 0)
(0.710219 -0.0866193 0)
(0.850659 -0.0681318 0)
(0.965433 -0.0537392 0)
(1.06092 -0.0426334 0)
(1.14193 -0.0341459 0)
(1.21189 -0.0276809 0)
(1.27336 -0.022698 0)
(1.32813 -0.0187314 0)
(1.37731 -0.0154167 0)
(1.42147 -0.0125199 0)
(1.46088 -0.00993238 0)
(1.49577 -0.00756957 0)
(1.52616 -0.00518619 0)
(1.55137 -0.00230479 0)
(1.56953 0.00146212 0)
(1.57834 0.00579695 0)
(1.57709 0.00919805 0)
(1.56778 0.010669 0)
(1.55427 0.0103578 0)
(1.5395 0.00885794 0)
(1.52518 0.00662866 0)
(1.51378 0.00371696 0)
(1.50855 -7.83155e-05 0)
(1.51371 -0.00366187 0)
(1.5304 -0.00689505 0)
(1.55729 -0.0089724 0)
(1.59798 -0.00843834 0)
(0.117678 -0.337146 0)
(0.300457 -0.311325 0)
(0.480359 -0.257704 0)
(0.638513 -0.208843 0)
(0.771426 -0.169693 0)
(0.883865 -0.139154 0)
(0.980922 -0.115604 0)
(1.06639 -0.0976361 0)
(1.14301 -0.0839688 0)
(1.21284 -0.0734244 0)
(1.27735 -0.0649702 0)
(1.33746 -0.0577835 0)
(1.39361 -0.0513453 0)
(1.44599 -0.0454765 0)
(1.49482 -0.0401339 0)
(1.54057 -0.034924 0)
(1.58358 -0.028795 0)
(1.62326 -0.0207731 0)
(1.65758 -0.0114592 0)
(1.68426 -0.0032353 0)
(1.7039 0.00258378 0)
(1.71987 0.0071914 0)
(1.73411 0.0102471 0)
(1.74767 0.0102462 0)
(1.76119 0.00679176 0)
(1.77583 0.000723858 0)
(1.79095 -0.00636067 0)
(1.80674 -0.0142646 0)
(1.82376 -0.0216076 0)
(1.84861 -0.023929 0)
(0.087119 -0.520963 0)
(0.239304 -0.485529 0)
(0.376888 -0.405741 0)
(0.498244 -0.332679 0)
(0.599741 -0.273992 0)
(0.685788 -0.227954 0)
(0.7601 -0.192195 0)
(0.825399 -0.16464 0)
(0.883736 -0.143427 0)
(0.936682 -0.126861 0)
(0.985388 -0.113431 0)
(1.03057 -0.101887 0)
(1.0725 -0.0914186 0)
(1.1111 -0.0818222 0)
(1.14627 -0.0733104 0)
(1.17851 -0.0656692 0)
(1.20898 -0.0571745 0)
(1.2383 -0.0452592 0)
(1.26491 -0.0299607 0)
(1.28526 -0.0171687 0)
(1.29883 -0.0116972 0)
(1.31048 -0.0107306 0)
(1.32049 -0.0107328 0)
(1.32329 -0.0121241 0)
(1.32049 -0.0152931 0)
(1.31374 -0.0185085 0)
(1.30282 -0.0210875 0)
(1.28699 -0.0233653 0)
(1.26812 -0.0253549 0)
(1.24893 -0.0247367 0)
(0.0591352 -0.656699 0)
(0.172038 -0.606018 0)
(0.257997 -0.503195 0)
(0.335662 -0.412069 0)
(0.3979 -0.339544 0)
(0.44983 -0.282678 0)
(0.493484 -0.238487 0)
(0.53048 -0.204366 0)
(0.562154 -0.178042 0)
(0.58958 -0.157481 0)
(0.613623 -0.140835 0)
(0.634923 -0.126491 0)
(0.653847 -0.113281 0)
(0.670034 -0.100836 0)
(0.68256 -0.089675 0)
(0.690923 -0.0804274 0)
(0.696792 -0.0722817 0)
(0.703899 -0.0627092 0)
(0.714231 -0.0485766 0)
(0.717831 -0.0291438 0)
(0.685463 -0.0111613 0)
(0.635109 -0.000534303 0)
(0.586618 0.00713295 0)
(0.542566 0.0127346 0)
(0.500308 0.0142233 0)
(0.463982 0.0118871 0)
(0.446203 0.00639998 0)
(0.436013 -0.000300972 0)
(0.433563 -0.00896395 0)
(0.443377 -0.0224247 0)
(0.030867 -0.747253 0)
(0.096946 -0.676465 0)
(0.124503 -0.554084 0)
(0.15449 -0.451336 0)
(0.171598 -0.369884 0)
(0.183308 -0.305931 0)
(0.189563 -0.256134 0)
(0.191198 -0.217572 0)
(0.188951 -0.187756 0)
(0.183445 -0.16452 0)
(0.175315 -0.145893 0)
(0.165333 -0.130044 0)
(0.154476 -0.115364 0)
(0.142352 -0.100899 0)
(0.127737 -0.0867845 0)
(0.1074 -0.0735401 0)
(0.0764423 -0.0600707 0)
(0.0407549 -0.0428598 0)
(-0.00237476 -0.0179586 0)
(-0.0380388 0.00969073 0)
(-0.0556868 0.0288761 0)
(-0.0741701 0.0361469 0)
(-0.0902598 0.0363941 0)
(-0.105443 0.0327243 0)
(-0.119969 0.0241162 0)
(-0.132366 0.0110211 0)
(-0.134626 -0.00157252 0)
(-0.132079 -0.0123015 0)
(-0.128551 -0.0233755 0)
(-0.127478 -0.0356536 0)
(0.000706283 -0.784724 0)
(0.0133409 -0.690297 0)
(-0.0203395 -0.551558 0)
(-0.0418398 -0.442807 0)
(-0.0739856 -0.35627 0)
(-0.107428 -0.288735 0)
(-0.14364 -0.236345 0)
(-0.181881 -0.19588 0)
(-0.221701 -0.164524 0)
(-0.262725 -0.139918 0)
(-0.304465 -0.120093 0)
(-0.346155 -0.103365 0)
(-0.386786 -0.0883254 0)
(-0.425317 -0.0739752 0)
(-0.461014 -0.0598904 0)
(-0.493795 -0.0461777 0)
(-0.523898 -0.0329533 0)
(-0.550383 -0.0196763 0)
(-0.571641 -0.00577916 0)
(-0.583275 0.00854061 0)
(-0.589766 0.0226787 0)
(-0.59427 0.0326037 0)
(-0.596815 0.0358716 0)
(-0.598362 0.0335191 0)
(-0.600327 0.0262549 0)
(-0.60338 0.0156345 0)
(-0.606178 0.00407434 0)
(-0.606955 -0.00823984 0)
(-0.610119 -0.0208353 0)
(-0.614727 -0.0320387 0)
(-0.0345457 -0.760856 0)
(-0.0808388 -0.640198 0)
(-0.172078 -0.498018 0)
(-0.249543 -0.388381 0)
(-0.33021 -0.302491 0)
(-0.408252 -0.236493 0)
(-0.483221 -0.186139 0)
(-0.554109 -0.148176 0)
(-0.620077 -0.119786 0)
(-0.680634 -0.0985336 0)
(-0.735644 -0.0823928 0)
(-0.785173 -0.0696435 0)
(-0.829328 -0.0588223 0)
(-0.868211 -0.0487832 0)
(-0.901987 -0.038813 0)
(-0.930986 -0.0286139 0)
(-0.955594 -0.0180276 0)
(-0.975796 -0.006746 0)
(-0.991125 0.00522262 0)
(-0.998576 0.0167885 0)
(-1.00187 0.0266532 0)
(-1.00188 0.0331106 0)
(-1.00003 0.0350352 0)
(-0.997688 0.0323226 0)
(-0.996264 0.0251792 0)
(-0.99668 0.0147895 0)
(-0.998714 0.00321685 0)
(-1.00162 -0.00844162 0)
(-1.00715 -0.0206886 0)
(-1.01214 -0.0313091 0)
(-0.0759834 -0.673846 0)
(-0.179322 -0.534913 0)
(-0.326754 -0.394326 0)
(-0.456338 -0.289769 0)
(-0.579045 -0.212003 0)
(-0.690139 -0.155214 0)
(-0.789137 -0.114224 0)
(-0.876265 -0.0850662 0)
(-0.952409 -0.0648698 0)
(-1.01864 -0.051067 0)
(-1.07614 -0.0415497 0)
(-1.12598 -0.0346602 0)
(-1.16903 -0.0290965 0)
(-1.20598 -0.0238619 0)
(-1.23747 -0.0183012 0)
(-1.26415 -0.0121169 0)
(-1.28653 -0.00523802 0)
(-1.30422 0.00239744 0)
(-1.31615 0.0107883 0)
(-1.32366 0.0194274 0)
(-1.32675 0.027112 0)
(-1.32642 0.0321681 0)
(-1.32417 0.0336453 0)
(-1.32148 0.0311935 0)
(-1.31971 0.0249098 0)
(-1.31983 0.0157233 0)
(-1.32223 0.00513031 0)
(-1.32668 -0.00611753 0)
(-1.33356 -0.0179237 0)
(-1.33847 -0.0275742 0)
(-0.123684 -0.524044 0)
(-0.284438 -0.375994 0)
(-0.485348 -0.247601 0)
(-0.658921 -0.159118 0)
(-0.814506 -0.0972685 0)
(-0.948774 -0.0559204 0)
(-1.06266 -0.0295789 0)
(-1.15578 -0.0147704 0)
(-1.23266 -0.00686343 0)
(-1.29666 -0.00309884 0)
(-1.35061 -0.00166278 0)
(-1.39657 -0.00132517 0)
(-1.43598 -0.0011843 0)
(-1.4698 -0.000536676 0)
(-1.49873 0.00108289 0)
(-1.52328 0.00382101 0)
(-1.54363 0.00755672 0)
(-1.55996 0.012103 0)
(-1.57237 0.0172901 0)
(-1.58053 0.0228864 0)
(-1.58457 0.028006 0)
(-1.58543 0.0314651 0)
(-1.58448 0.0323162 0)
(-1.58312 0.0299952 0)
(-1.5826 0.0244461 0)
(-1.58385 0.0163749 0)
(-1.58755 0.00693688 0)
(-1.59386 -0.00322745 0)
(-1.6022 -0.013942 0)
(-1.60734 -0.0223191 0)
(-0.18225 -0.319926 0)
(-0.411568 -0.175722 0)
(-0.670741 -0.050945 0)
(-0.871463 0.0131677 0)
(-1.03492 0.043643 0)
(-1.16664 0.0556061 0)
(-1.27292 0.0571898 0)
(-1.36159 0.0540508 0)
(-1.43566 0.0485133 0)
(-1.49799 0.0421027 0)
(-1.55092 0.0357463 0)
(-1.59617 0.0299259 0)
(-1.63495 0.0249761 0)
(-1.66813 0.0212898 0)
(-1.69654 0.0192131 0)
(-1.72095 0.0188037 0)
(-1.74183 0.0197823 0)
(-1.7592 0.0217205 0)
(-1.77273 0.0242569 0)
(-1.78216 0.0271581 0)
(-1.78775 0.0299682 0)
(-1.79044 0.0319351 0)
(-1.79157 0.032196 0)
(-1.79243 0.0300264 0)
(-1.7941 0.0251691 0)
(-1.79739 0.0180943 0)
(-1.80313 0.00971059 0)
(-1.81165 0.000585213 0)
(-1.82115 -0.00895833 0)
(-1.82665 -0.016202 0)
(-0.253442 0.00755053 0)
(-0.522356 0.141409 0)
(-0.790768 0.173779 0)
(-0.99888 0.180939 0)
(-1.16857 0.173319 0)
(-1.30626 0.158228 0)
(-1.41822 0.140214 0)
(-1.50974 0.121652 0)
(-1.585 0.103762 0)
(-1.64759 0.0875472 0)
(-1.70046 0.0735121 0)
(-1.7457 0.061561 0)
(-1.78455 0.0514851 0)
(-1.81782 0.0434348 0)
(-1.84643 0.0377457 0)
(-1.87131 0.0343979 0)
(-1.89309 0.0328185 0)
(-1.91172 0.0322268 0)
(-1.92672 0.0321188 0)
(-1.93773 0.0324036 0)
(-1.94507 0.033044 0)
(-1.9498 0.0336526 0)
(-1.95329 0.0334253 0)
(-1.95679 0.0314549 0)
(-1.96112 0.0272345 0)
(-1.96691 0.0209982 0)
(-1.97498 0.0134986 0)
(-1.98571 0.00533175 0)
(-1.99657 -0.00301003 0)
(-2.0025 -0.00926683 0)
(-0.285477 0.381189 0)
(-0.583342 0.429012 0)
(-0.886414 0.404834 0)
(-1.11443 0.362302 0)
(-1.29273 0.314735 0)
(-1.43218 0.268397 0)
(-1.54263 0.226597 0)
(-1.63145 0.190185 0)
(-1.70378 0.158729 0)
(-1.76356 0.132241 0)
(-1.81416 0.11062 0)
(-1.85795 0.0928668 0)
(-1.89596 0.0778816 0)
(-1.92864 0.0655315 0)
(-1.95685 0.0563531 0)
(-1.98185 0.0503774 0)
(-2.00448 0.0466304 0)
(-2.02461 0.0437814 0)
(-2.04136 0.0410979 0)
(-2.0541 0.0387565 0)
(-2.06316 0.0372769 0)
(-2.06983 0.0366706 0)
(-2.07571 0.0361282 0)
(-2.08198 0.0344578 0)
(-2.08924 0.0308269 0)
(-2.09783 0.0252464 0)
(-2.10848 0.0184238 0)
(-2.1216 0.0110989 0)
(-2.13444 0.00388258 0)
(-2.14044 -0.00145236 0)
(-0.333642 0.795363 0)
(-0.683637 0.777697 0)
(-1.01916 0.663007 0)
(-1.25087 0.550214 0)
(-1.42254 0.454733 0)
(-1.55208 0.373927 0)
(-1.65225 0.307643 0)
(-1.73225 0.254136 0)
(-1.79738 0.209911 0)
(-1.85111 0.173754 0)
(-1.89713 0.145471 0)
(-1.93818 0.122968 0)
(-1.97474 0.103661 0)
(-2.00629 0.0871215 0)
(-2.03347 0.0745966 0)
(-2.05814 0.0664853 0)
(-2.08164 0.061215 0)
(-2.10361 0.0565294 0)
(-2.12248 0.0513148 0)
(-2.13703 0.0461889 0)
(-2.1476 0.042525 0)
(-2.15595 0.0408687 0)
(-2.1641 0.0402986 0)
(-2.17328 0.0391446 0)
(-2.18373 0.0361309 0)
(-2.19542 0.0310518 0)
(-2.20883 0.0246891 0)
(-2.22437 0.0180616 0)
(-2.23914 0.0118906 0)
(-2.24623 0.00752567 0)
(-0.428595 1.29571 0)
(-0.857899 1.18006 0)
(-1.21624 0.930573 0)
(-1.42256 0.724149 0)
(-1.56468 0.57958 0)
(-1.67009 0.464815 0)
(-1.74977 0.376242 0)
(-1.8144 0.309801 0)
(-1.86861 0.255499 0)
(-1.9134 0.210427 0)
(-1.95255 0.176702 0)
(-1.98996 0.151254 0)
(-2.02508 0.12861 0)
(-2.05531 0.107883 0)
(-2.08074 0.0920397 0)
(-2.10445 0.0825458 0)
(-2.12886 0.0768188 0)
(-2.15329 0.0709242 0)
(-2.17484 0.0631094 0)
(-2.19127 0.0547487 0)
(-2.20293 0.0486302 0)
(-2.21244 0.0461068 0)
(-2.22261 0.0459424 0)
(-2.23474 0.0456386 0)
(-2.24863 0.0432924 0)
(-2.26357 0.0384862 0)
(-2.27963 0.0322225 0)
(-2.29716 0.0260246 0)
(-2.31326 0.020851 0)
(-2.32084 0.0174533 0)
(-0.625084 2.19795 0)
(-1.14742 1.79968 0)
(-1.51766 1.22024 0)
(-1.64408 0.830544 0)
(-1.71876 0.663973 0)
(-1.78536 0.533563 0)
(-1.83312 0.429478 0)
(-1.87628 0.355524 0)
(-1.91859 0.292721 0)
(-1.95285 0.237167 0)
(-1.98236 0.200206 0)
(-2.01535 0.176671 0)
(-2.05002 0.15338 0)
(-2.07924 0.128276 0)
(-2.10184 0.108335 0)
(-2.12346 0.0982201 0)
(-2.1489 0.0935894 0)
(-2.17682 0.0873107 0)
(-2.20198 0.0765851 0)
(-2.22027 0.0640767 0)
(-2.23214 0.0549376 0)
(-2.24179 0.0518237 0)
(-2.25339 0.0527923 0)
(-2.26839 0.0538832 0)
(-2.2858 0.0523139 0)
(-2.30399 0.0474913 0)
(-2.3224 0.040826 0)
(-2.34136 0.034665 0)
(-2.35829 0.0304616 0)
(-2.36619 0.0282181 0)
(9.9959 0.138454 0)
(9.98225 0.275255 0)
(9.9581 0.412551 0)
(9.92452 0.552307 0)
(9.88239 0.696203 0)
(9.83212 0.845789 0)
(9.77394 1.00257 0)
(9.70808 1.16803 0)
(9.63484 1.34362 0)
(9.55448 1.53081 0)
(9.46727 1.73109 0)
(9.37349 1.94601 0)
(9.27338 2.17719 0)
(9.16723 2.42638 0)
(9.05526 2.69548 0)
(8.93771 2.98664 0)
(8.81477 3.30231 0)
(8.68657 3.64537 0)
(8.55319 4.01933 0)
(8.41464 4.42858 0)
(8.27084 4.87874 0)
(8.1217 5.37729 0)
(7.96717 5.93439 0)
(7.80753 6.56439 0)
(7.64404 7.28837 0)
(7.48173 8.13893 0)
(7.33399 9.17008 0)
(7.29121 10.4754 0)
(7.75275 12.2 0)
(7.94144 14.92 0)
(9.99638 0.143415 0)
(9.98433 0.285112 0)
(9.96304 0.427282 0)
(9.9335 0.571922 0)
(9.89654 0.720724 0)
(9.85258 0.875245 0)
(9.80191 1.03699 0)
(9.74485 1.20744 0)
(9.68175 1.38805 0)
(9.61298 1.58027 0)
(9.53893 1.78559 0)
(9.46002 2.00553 0)
(9.37668 2.24169 0)
(9.2894 2.49582 0)
(9.1987 2.76978 0)
(9.10516 3.0657 0)
(9.00942 3.386 0)
(8.91225 3.73353 0)
(8.81455 4.11172 0)
(8.71752 4.52486 0)
(8.62276 4.97833 0)
(8.53264 5.47918 0)
(8.4509 6.03671 0)
(8.38381 6.6635 0)
(8.34259 7.37676 0)
(8.34937 8.19986 0)
(8.4431 9.16288 0)
(8.67984 10.299 0)
(9.32864 11.5523 0)
(9.82168 12.6365 0)
(9.99688 0.147853 0)
(9.9865 0.293927 0)
(9.96818 0.440436 0)
(9.94281 0.589397 0)
(9.91118 0.742503 0)
(9.87373 0.901307 0)
(9.83079 1.0673 0)
(9.78275 1.24195 0)
(9.73003 1.42668 0)
(9.6731 1.62293 0)
(9.61247 1.83212 0)
(9.54869 2.05575 0)
(9.48239 2.29537 0)
(9.41426 2.55264 0)
(9.3451 2.82935 0)
(9.27583 3.12751 0)
(9.20755 3.44938 0)
(9.14159 3.79759 0)
(9.07966 4.17527 0)
(9.02396 4.58617 0)
(8.97752 5.03488 0)
(8.94461 5.52707 0)
(8.93155 6.06971 0)
(8.94785 6.67117 0)
(9.00803 7.34085 0)
(9.13423 8.08735 0)
(9.35748 8.91242 0)
(9.68719 9.80473 0)
(10.2529 10.7126 0)
(10.9401 11.4251 0)
(9.9974 0.151716 0)
(9.98873 0.301591 0)
(9.97346 0.451847 0)
(9.95237 0.604502 0)
(9.9262 0.761241 0)
(9.8954 0.923601 0)
(9.86035 1.09305 0)
(9.82148 1.27102 0)
(9.77931 1.4589 0)
(9.73437 1.65807 0)
(9.6873 1.86991 0)
(9.63877 2.09582 0)
(9.58958 2.33728 0)
(9.54062 2.59581 0)
(9.49294 2.87306 0)
(9.44777 3.17085 0)
(9.40661 3.49116 0)
(9.37127 3.83627 0)
(9.34406 4.20874 0)
(9.32795 4.61154 0)
(9.32686 5.04807 0)
(9.34611 5.52216 0)
(9.39293 6.03792 0)
(9.47724 6.5993 0)
(9.61222 7.20903 0)
(9.81469 7.86673 0)
(10.1074 8.56522 0)
(10.4988 9.28976 0)
(11.0558 10.0301 0)
(11.8479 10.6732 0)
(9.99792 0.154957 0)
(9.991 0.308013 0)
(9.97883 0.461379 0)
(9.9621 0.617059 0)
(9.94146 0.776719 0)
(9.9174 0.941866 0)
(9.89032 1.11393 0)
(9.86072 1.2943 0)
(9.82915 1.48431 0)
(9.79625 1.68527 0)
(9.76273 1.89847 0)
(9.7294 2.12521 0)
(9.69718 2.36684 0)
(9.66715 2.62472 0)
(9.64056 2.90031 0)
(9.61889 3.19514 0)
(9.60393 3.51086 0)
(9.59785 3.84923 0)
(9.60334 4.21219 0)
(9.62379 4.60177 0)
(9.66352 5.02005 0)
(9.72805 5.46906 0)
(9.82444 5.95039 0)
(9.96166 6.46472 0)
(10.1507 7.01094 0)
(10.4047 7.58515 0)
(10.7409 8.17921 0)
(11.1707 8.77841 0)
(11.7172 9.37117 0)
(12.469 9.88266 0)
(9.99845 0.157532 0)
(9.9933 0.313106 0)
(9.98426 0.468905 0)
(9.97191 0.626903 0)
(9.95686 0.788733 0)
(9.93956 0.955861 0)
(9.92047 1.12967 0)
(9.90011 1.31149 0)
(9.87911 1.50258 0)
(9.85815 1.70416 0)
(9.83804 1.91741 0)
(9.81966 2.14353 0)
(9.80407 2.38369 0)
(9.79246 2.63906 0)
(9.78623 2.91085 0)
(9.78705 3.20027 0)
(9.79687 3.50858 0)
(9.81806 3.83701 0)
(9.85349 4.18678 0)
(9.90664 4.55901 0)
(9.98178 4.9546 0)
(10.0842 5.37401 0)
(10.2201 5.81697 0)
(10.3971 6.28202 0)
(10.6239 6.76588 0)
(10.9103 7.26278 0)
(11.2675 7.76348 0)
(11.7033 8.25244 0)
(12.2184 8.71296 0)
(12.8929 9.10359 0)
(9.99898 0.159403 0)
(9.9956 0.316795 0)
(9.98969 0.474312 0)
(9.98174 0.633885 0)
(9.97224 0.797102 0)
(9.96167 0.965378 0)
(9.95051 1.14004 0)
(9.93931 1.32232 0)
(9.92872 1.51342 0)
(9.9195 1.71445 0)
(9.91248 1.92648 0)
(9.90865 2.15053 0)
(9.90911 2.38762 0)
(9.91515 2.63869 0)
(9.92826 2.90468 0)
(9.95018 3.18648 0)
(9.98295 3.48491 0)
(10.029 3.80068 0)
(10.0911 4.13435 0)
(10.1726 4.48621 0)
(10.2775 4.85617 0)
(10.4104 5.24352 0)
(10.5765 5.64667 0)
(10.7818 6.06281 0)
(11.0326 6.48746 0)
(11.3355 6.91392 0)
(11.6964 7.33284 0)
(12.1194 7.73083 0)
(12.5985 8.09335 0)
(13.2026 8.39992 0)
(9.99951 0.160536 0)
(9.99788 0.319013 0)
(9.99509 0.477504 0)
(9.99148 0.637881 0)
(9.98749 0.801677 0)
(9.98356 0.970243 0)
(9.98018 1.14483 0)
(9.97795 1.3266 0)
(9.97753 1.51665 0)
(9.97969 1.71597 0)
(9.98533 1.92549 0)
(9.99544 2.1461 0)
(10.0112 2.3786 0)
(10.0339 2.62373 0)
(10.065 2.88213 0)
(10.1064 3.15436 0)
(10.16 3.44084 0)
(10.2281 3.7418 0)
(10.3133 4.05722 0)
(10.4188 4.38672 0)
(10.5478 4.72944 0)
(10.7043 5.08386 0)
(10.8924 5.44757 0)
(11.1163 5.81708 0)
(11.3803 6.18747 0)
(11.6883 6.55219 0)
(12.043 6.90298 0)
(12.4459 7.22953 0)
(12.8894 7.52074 0)
(13.4314 7.76534 0)
(10 0.160903 0)
(10.0001 0.319704 0)
(10.0004 0.4784 0)
(10.0011 0.63879 0)
(10.0025 0.802339 0)
(10.005 0.970327 0)
(10.0092 1.14392 0)
(10.0157 1.3242 0)
(10.0251 1.51214 0)
(10.0382 1.70862 0)
(10.0559 1.91443 0)
(10.0792 2.1303 0)
(10.1093 2.35682 0)
(10.1474 2.5945 0)
(10.1951 2.84375 0)
(10.2541 3.10479 0)
(10.3261 3.37769 0)
(10.4134 3.66225 0)
(10.5182 3.95801 0)
(10.6432 4.26406 0)
(10.7912 4.57903 0)
(10.9652 4.9009 0)
(11.1681 5.22687 0)
(11.403 5.55325 0)
(11.6724 5.87528 0)
(11.9781 6.18712 0)
(12.321 6.48191 0)
(12.7008 6.75185 0)
(13.1099 6.98861 0)
(13.5968 7.18536 0)
(10.0005 0.160482 0)
(10.0023 0.318827 0)
(10.0056 0.476939 0)
(10.0104 0.636536 0)
(10.017 0.799005 0)
(10.0258 0.965544 0)
(10.0374 1.13724 0)
(10.0522 1.31506 0)
(10.0709 1.49987 0)
(10.0944 1.69243 0)
(10.1234 1.89339 0)
(10.1591 2.10331 0)
(10.2024 2.32259 0)
(10.2547 2.55155 0)
(10.3173 2.79033 0)
(10.3918 3.03889 0)
(10.4799 3.29699 0)
(10.5834 3.56412 0)
(10.7043 3.83944 0)
(10.8449 4.12173 0)
(11.0071 4.40929 0)
(11.1933 4.69987 0)
(11.4055 4.9906 0)
(11.6454 5.2779 0)
(11.9145 5.55748 0)
(12.2132 5.82437 0)
(12.5411 6.07306 0)
(12.8969 6.29767 0)
(13.2736 6.49217 0)
(13.7128 6.65241 0)
(10.001 0.159258 0)
(10.0044 0.316353 0)
(10.0106 0.473084 0)
(10.0194 0.631075 0)
(10.031 0.791628 0)
(10.0459 0.955857 0)
(10.0644 1.12475 0)
(10.0871 1.29917 0)
(10.1147 1.47989 0)
(10.1478 1.66752 0)
(10.1874 1.86258 0)
(10.2344 2.06547 0)
(10.2898 2.27643 0)
(10.3548 2.49558 0)
(10.4306 2.72284 0)
(10.5186 2.95796 0)
(10.6203 3.20046 0)
(10.7372 3.44957 0)
(10.871 3.70424 0)
(11.0233 3.96304 0)
(11.1958 4.22415 0)
(11.3898 4.48526 0)
(11.6067 4.74363 0)
(11.8474 4.996 0)
(12.1122 5.23866 0)
(12.4009 5.46751 0)
(12.7124 5.67825 0)
(13.0448 5.86652 0)
(13.3919 6.02809 0)
(13.7902 6.16048 0)
(10.0015 0.157223 0)
(10.0065 0.312267 0)
(10.0154 0.466814 0)
(10.028 0.622389 0)
(10.0444 0.780201 0)
(10.0649 0.941273 0)
(10.09 1.10649 0)
(10.1202 1.27663 0)
(10.156 1.45233 0)
(10.1981 1.6341 0)
(10.2474 1.82232 0)
(10.3046 2.01724 0)
(10.3708 2.21896 0)
(10.447 2.42741 0)
(10.5343 2.64237 0)
(10.6338 2.8634 0)
(10.7467 3.08984 0)
(10.8744 3.32077 0)
(11.0181 3.55501 0)
(11.179 3.79105 0)
(11.3581 4.02705 0)
(11.5564 4.26083 0)
(11.7745 4.48986 0)
(12.0127 4.71129 0)
(12.2707 4.92201 0)
(12.5478 5.11875 0)
(12.8425 5.29821 0)
(13.1528 5.45722 0)
(13.4733 5.59287 0)
(13.8364 5.70368 0)
(10.0019 0.154377 0)
(10.0084 0.306568 0)
(10.0199 0.458134 0)
(10.0361 0.61049 0)
(10.0571 0.764752 0)
(10.0829 0.921847 0)
(10.1141 1.08257 0)
(10.1511 1.24758 0)
(10.1945 1.41742 0)
(10.2448 1.59248 0)
(10.3029 1.77302 0)
(10.3693 1.95917 0)
(10.445 2.15089 0)
(10.5309 2.34798 0)
(10.6278 2.55009 0)
(10.7369 2.75665 0)
(10.8589 2.96689 0)
(10.995 3.17981 0)
(11.1459 3.39417 0)
(11.3125 3.60847 0)
(11.4955 3.82097 0)
(11.6952 4.02966 0)
(11.9119 4.23231 0)
(12.1454 4.42649 0)
(12.3951 4.60968 0)
(12.6598 4.7793 0)
(12.938 4.93287 0)
(13.2277 5.06812 0)
(13.5244 5.18308 0)
(13.8572 5.27689 0)
(10.0024 0.150726 0)
(10.0102 0.299269 0)
(10.0241 0.447067 0)
(10.0437 0.59542 0)
(10.0689 0.745346 0)
(10.0997 0.897678 0)
(10.1365 1.05311 0)
(10.1799 1.21222 0)
(10.2301 1.37542 0)
(10.2878 1.54302 0)
(10.3536 1.71517 0)
(10.4281 1.89188 0)
(10.512 2.07302 0)
(10.6061 2.25828 0)
(10.7112 2.44721 0)
(10.8279 2.63916 0)
(10.957 2.83331 0)
(11.0992 3.02863 0)
(11.2551 3.22389 0)
(11.4251 3.41769 0)
(11.6096 3.60839 0)
(11.8086 3.79423 0)
(12.022 3.97329 0)
(12.2493 4.14356 0)
(12.4896 4.30302 0)
(12.7418 4.44967 0)
(13.0042 4.58168 0)
(13.2751 4.69745 0)
(13.5506 4.79565 0)
(13.8571 4.87585 0)
(10.0027 0.146281 0)
(10.0119 0.290397 0)
(10.0281 0.433656 0)
(10.0508 0.577244 0)
(10.0798 0.722079 0)
(10.1152 0.868901 0)
(10.1572 1.01832 0)
(10.2062 1.17079 0)
(10.2626 1.32667 0)
(10.3268 1.48616 0)
(10.3994 1.64932 0)
(10.4808 1.81607 0)
(10.5718 1.98619 0)
(10.6727 2.15931 0)
(10.7843 2.33492 0)
(10.907 2.51233 0)
(11.0413 2.6907 0)
(11.1878 2.86902 0)
(11.3467 3.04613 0)
(11.5182 3.22072 0)
(11.7024 3.39136 0)
(11.899 3.55651 0)
(12.1077 3.71454 0)
(12.3279 3.86384 0)
(12.5584 4.00281 0)
(12.7983 4.12992 0)
(13.0459 4.24385 0)
(13.2995 4.34348 0)
(13.5561 4.42793 0)
(13.8397 4.49705 0)
(10.0031 0.141061 0)
(10.0134 0.279989 0)
(10.0317 0.417963 0)
(10.0573 0.556052 0)
(10.0898 0.695077 0)
(10.1293 0.83569 0)
(10.1759 0.978404 0)
(10.23 1.12361 0)
(10.2918 1.27156 0)
(10.3618 1.42237 0)
(10.4402 1.57604 0)
(10.5275 1.73243 0)
(10.6242 1.89125 0)
(10.7307 2.05209 0)
(10.8474 2.2144 0)
(10.9746 2.37748 0)
(11.1126 2.54053 0)
(11.2617 2.70257 0)
(11.422 2.86255 0)
(11.5935 3.0193 0)
(11.7759 3.17155 0)
(11.969 3.318 0)
(12.1721 3.45733 0)
(12.3845 3.58822 0)
(12.6053 3.70943 0)
(12.8332 3.81985 0)
(13.067 3.91849 0)
(13.305 4.00459 0)
(13.5447 4.07762 0)
(13.8083 4.13755 0)
(10.0034 0.13509 0)
(10.0148 0.268094 0)
(10.035 0.400063 0)
(10.0631 0.531954 0)
(10.0988 0.664492 0)