/*--------------------------------*- C++ -*----------------------------------*\
  =========                 |
  \\      /  F ield         | OpenFOAM: The Open Source CFD Toolbox
   \\    /   O peration     | Website:  https://openfoam.org
    \\  /    A nd           | Version:  7
     \\/     M anipulation  |
\*---------------------------------------------------------------------------*/
FoamFile
{
    version     2.0;
    format      ascii;
    class       surfaceVectorField;
    location    "3.2";
    object      Uf;
}
// * * * * * * * * * * * * * * * * * * * * * * * * * * * * * * * * * * * * * //

dimensions      [0 1 -1 0 0 0 0];

internalField   nonuniform List<vector> 
5457
(
(9.92088 0.0251098 0)
(9.97125 0.0387461 0)
(9.82401 0.0328272 0)
(9.92859 0.0485858 0)
(9.70961 0.0393126 0)
(9.85547 0.0587691 0)
(9.57543 0.0460123 0)
(9.7568 0.0705947 0)
(9.42137 0.0529498 0)
(9.63752 0.083015 0)
(9.24753 0.0601672 0)
(9.4986 0.0959383 0)
(9.05361 0.0678119 0)
(9.33929 0.109614 0)
(8.83891 0.0760355 0)
(9.15872 0.124291 0)
(8.6025 0.084971 0)
(8.95607 0.140169 0)
(8.34324 0.0947455 0)
(8.73036 0.157435 0)
(8.05982 0.105487 0)
(8.48038 0.176271 0)
(7.75078 0.117328 0)
(8.20475 0.196857 0)
(7.41454 0.130395 0)
(7.90193 0.219361 0)
(7.04948 0.144809 0)
(7.57029 0.243922 0)
(6.65402 0.160671 0)
(7.20817 0.27063 0)
(6.22672 0.178042 0)
(6.81399 0.299497 0)
(5.76644 0.196926 0)
(6.38633 0.33041 0)
(5.2726 0.21723 0)
(5.92418 0.363079 0)
(4.74541 0.238732 0)
(5.42713 0.39697 0)
(4.18625 0.261029 0)
(4.8957 0.431231 0)
(3.59803 0.283484 0)
(4.3317 0.464613 0)
(2.98563 0.305199 0)
(3.73867 0.495419 0)
(2.3562 0.325066 0)
(3.12235 0.521508 0)
(1.71919 0.342546 0)
(2.49116 0.540555 0)
(1.08444 0.361879 0)
(1.85595 0.551673 0)
(0.451923 0.348697 0)
(1.24556 0.563021 0)
(-0.145772 0.102492 0)
(0.609012 0.544899 0)
(-0.423584 -0.20708 0)
(0.0947107 0.259398 0)
(-0.402137 -0.361249 0)
(-0.133626 -0.0205099 0)
(-0.119671 -0.393868 0)
(9.99641 0.0516731 0)
(9.99705 0.0405052 0)
(9.95879 0.0708627 0)
(9.97851 0.0674557 0)
(9.89824 0.0879885 0)
(9.93377 0.0898719 0)
(9.81658 0.105987 0)
(9.86452 0.113557 0)
(9.71358 0.124924 0)
(9.77437 0.138518 0)
(9.58907 0.144856 0)
(9.66434 0.16465 0)
(9.44273 0.166093 0)
(9.53396 0.192336 0)
(9.27388 0.18897 0)
(9.38248 0.222034 0)
(9.08164 0.213785 0)
(9.20917 0.254152 0)
(8.86488 0.240817 0)
(9.01314 0.289067 0)
(8.62227 0.270338 0)
(8.79329 0.327155 0)
(8.35236 0.302607 0)
(8.54833 0.368787 0)
(8.05354 0.337856 0)
(8.27681 0.414316 0)
(7.7241 0.376259 0)
(7.97715 0.464044 0)
(7.36236 0.417898 0)
(7.6477 0.518184 0)
(6.96672 0.462702 0)
(7.28682 0.576799 0)
(6.53584 0.510379 0)
(6.89295 0.639716 0)
(6.06885 0.560324 0)
(6.46482 0.706416 0)
(5.56562 0.611511 0)
(6.00162 0.775896 0)
(5.02715 0.662375 0)
(5.5033 0.84651 0)
(4.45594 0.710699 0)
(4.97094 0.915793 0)
(3.85657 0.753532 0)
(4.40725 0.980294 0)
(3.23627 0.787191 0)
(3.81712 1.03545 0)
(2.6059 0.8075 0)
(3.20854 1.07548 0)
(1.98288 0.810469 0)
(2.59348 1.09315 0)
(1.40536 0.776908 0)
(1.99629 1.07709 0)
(0.929819 0.646423 0)
(1.41957 0.978433 0)
(0.439914 0.384371 0)
(0.937629 0.716831 0)
(0.0592007 -0.11858 0)
(0.443843 0.343569 0)
(0.174933 -0.335885 0)
(9.98903 0.0594321 0)
(9.99481 0.0458784 0)
(9.95434 0.0894786 0)
(9.97368 0.0848562 0)
(9.89729 0.118035 0)
(9.92984 0.119177 0)
(9.82046 0.147902 0)
(9.86357 0.15398 0)
(9.72415 0.179426 0)
(9.77735 0.190413 0)
(9.6082 0.21278 0)
(9.67226 0.228642 0)
(9.47233 0.248397 0)
(9.54808 0.269135 0)
(9.31606 0.286778 0)
(9.4043 0.312502 0)
(9.13866 0.328401 0)
(9.24032 0.35933 0)
(8.93922 0.373724 0)
(9.05547 0.410178 0)
(8.71662 0.423207 0)
(8.84887 0.4656 0)
(8.46957 0.477294 0)
(8.61948 0.526152 0)
(8.19665 0.536394 0)
(8.36613 0.592369 0)
(7.8963 0.600834 0)
(8.08749 0.66473 0)
(7.5669 0.670798 0)
(7.78218 0.743606 0)
(7.20683 0.746241 0)
(7.44872 0.829173 0)
(6.81457 0.826764 0)
(7.08568 0.921298 0)
(6.38889 0.911462 0)
(6.69171 1.01938 0)
(5.92907 0.998735 0)
(6.26574 1.12214 0)
(5.43519 1.08607 0)
(5.80716 1.2274 0)
(4.90861 1.1698 0)
(5.31613 1.33172 0)
(4.3525 1.24488 0)
(4.79404 1.43017 0)
(3.77267 1.30454 0)
(4.24405 1.51586 0)
(3.17882 1.33984 0)
(3.6719 1.57942 0)
(2.58672 1.33813 0)
(3.08642 1.60775 0)
(2.01994 1.27299 0)
(2.50302 1.5816 0)
(1.48702 1.09545 0)
(1.92882 1.46428 0)
(0.958351 0.769222 0)
(1.38532 1.21046 0)
(0.479907 0.202519 0)
(0.829586 0.801107 0)
(0.433749 0.134154 0)
(9.98515 0.0716156 0)
(9.99367 0.0531492 0)
(9.95039 0.113633 0)
(9.97087 0.102293 0)
(9.89436 0.154137 0)
(9.9269 0.147958 0)
(9.81881 0.195578 0)
(9.86185 0.193727 0)
(9.72441 0.238817 0)
(9.77745 0.241284 0)
(9.61111 0.284331 0)
(9.67465 0.291171 0)
(9.47872 0.332727 0)
(9.55341 0.343963 0)
(9.32693 0.38468 0)
(9.41334 0.400379 0)
(9.1552 0.440851 0)
(9.25398 0.461146 0)
(8.96288 0.501886 0)
(9.07481 0.526966 0)
(8.74914 0.568428 0)
(8.87517 0.598538 0)
(8.51301 0.641109 0)
(8.65427 0.676561 0)
(8.25343 0.720523 0)
(8.41119 0.761715 0)
(7.96923 0.807178 0)
(8.14497 0.854626 0)
(7.65916 0.90142 0)
(7.85452 0.955803 0)
(7.32191 1.00333 0)
(7.53873 1.06555 0)
(6.95621 1.11255 0)
(7.19645 1.18382 0)
(6.56086 1.2281 0)
(6.82653 1.31005 0)
(6.13492 1.34813 0)
(6.42791 1.44288 0)
(5.67789 1.46956 0)
(5.9997 1.57986 0)
(5.19006 1.58774 0)
(5.54139 1.71704 0)
(4.67294 1.696 0)
(5.05312 1.8485 0)
(4.12989 1.78513 0)
(4.53605 1.9658 0)
(3.56675 1.84252 0)
(3.99283 2.05729 0)
(2.99215 1.85073 0)
(3.4277 2.10714 0)
(2.41593 1.78252 0)
(2.84774 2.0945 0)
(1.84062 1.60051 0)
(2.25632 1.98878 0)
(1.25944 1.2785 0)
(1.66039 1.75311 0)
(0.666804 0.78962 0)
(1.02401 1.36785 0)
(0.523056 0.787248 0)
(9.98337 0.0844096 0)
(9.99316 0.061293 0)
(9.94821 0.136841 0)
(9.96958 0.11993 0)
(9.89314 0.188037 0)
(9.92574 0.176245 0)
(9.81906 0.240175 0)
(9.86199 0.232705 0)
(9.72662 0.294474 0)
(9.77963 0.291095 0)
(9.61588 0.351667 0)
(9.67938 0.352283 0)
(9.48669 0.412478 0)
(9.56126 0.416986 0)
(9.33876 0.477683 0)
(9.42494 0.486017 0)
(9.17168 0.548056 0)
(9.27006 0.560211 0)
(8.98489 0.624357 0)
(9.09617 0.640391 0)
(8.77775 0.707342 0)
(8.90271 0.727369 0)
(8.5495 0.797759 0)
(8.68903 0.821953 0)
(8.29932 0.896315 0)
(8.45441 0.924933 0)
(8.02632 1.00364 0)
(8.19804 1.03704 0)
(7.72955 1.12018 0)
(7.91909 1.15889 0)
(7.40804 1.24613 0)
(7.61667 1.29089 0)
(7.06076 1.38123 0)
(7.28984 1.43311 0)
(6.6867 1.52454 0)
(6.93763 1.58506 0)
(6.28487 1.67414 0)
(6.559 1.74545 0)
(5.85442 1.82674 0)
(6.1529 1.91183 0)
(5.39477 1.97721 0)
(5.71827 2.08011 0)
(4.90583 2.11801 0)
(5.25415 2.24404 0)
(4.38834 2.23858 0)
(4.75982 2.39456 0)
(3.84404 2.32453 0)
(4.23505 2.51917 0)
(3.27554 2.35696 0)
(3.68 2.60123 0)
(2.6855 2.31063 0)
(3.09584 2.61973 0)
(2.07278 2.15507 0)
(2.4818 2.54737 0)
(1.42944 1.86749 0)
(1.84001 2.35381 0)
(0.742647 1.41968 0)
(1.13142 2.02464 0)
(0.543333 1.51463 0)
(9.98264 0.0975003 0)
(9.99299 0.0697948 0)
(9.94744 0.159779 0)
(9.96925 0.137587 0)
(9.89354 0.221354 0)
(9.92596 0.203933 0)
(9.82133 0.2841 0)
(9.8638 0.270696 0)
(9.73133 0.349356 0)
(9.78385 0.339592 0)
(9.62365 0.418028 0)
(9.68663 0.411707 0)
(9.49817 0.490947 0)
(9.57216 0.487913 0)
(9.35463 0.568982 0)
(9.44019 0.569115 0)
(9.19266 0.653011 0)
(9.2904 0.656243 0)
(9.0118 0.743901 0)
(9.12239 0.75022 0)
(8.81147 0.842516 0)
(8.93567 0.851959 0)
(8.59105 0.949703 0)
(8.72968 0.962364 0)
(8.34981 1.06627 0)
(8.50377 1.08231 0)
(8.08702 1.19294 0)
(8.25724 1.21263 0)
(7.80189 1.33028 0)
(7.98934 1.35402 0)
(7.49357 1.47856 0)
(7.69926 1.50699 0)
(7.16118 1.63764 0)
(7.38614 1.67172 0)
(6.80372 1.8067 0)
(7.04901 1.84786 0)
(6.42013 1.98391 0)
(6.68675 2.0343 0)
(6.00916 2.16608 0)
(6.29803 2.22877 0)
(5.56946 2.34805 0)
(5.88124 2.42741 0)
(5.09954 2.52216 0)
(5.43441 2.62419 0)
(4.59784 2.67753 0)
(4.95521 2.81024 0)
(4.06281 2.79948 0)
(4.44096 2.97319 0)
(3.49282 2.86912 0)
(3.88865 3.09662 0)
(2.88595 2.86296 0)
(3.29536 3.15993 0)
(2.23812 2.75401 0)
(2.65702 3.13798 0)
(1.54252 2.52115 0)
(1.97495 3.0033 0)
(0.79369 2.13148 0)
(1.20731 2.74075 0)
(0.556769 2.292 0)
(9.9825 0.110629 0)
(9.99302 0.0783637 0)
(9.9477 0.18233 0)
(9.96954 0.155042 0)
(9.89522 0.253825 0)
(9.92722 0.230893 0)
(9.82523 0.326776 0)
(9.86696 0.307518 0)
(9.73812 0.402565 0)
(9.78976 0.386533 0)
(9.63401 0.482245 0)
(9.69604 0.46916 0)
(9.51283 0.566769 0)
(9.58577 0.55641 0)
(9.37435 0.657103 0)
(9.45877 0.649283 0)
(9.21825 0.754221 0)
(9.31477 0.748798 0)
(9.0441 0.85909 0)
(9.15342 0.855971 0)
(8.8514 0.972663 0)
(8.97429 0.971805 0)
(8.63958 1.09588 0)
(8.77686 1.09729 0)
(8.40798 1.22963 0)
(8.56053 1.23341 0)
(8.15591 1.37473 0)
(8.32464 1.38106 0)
(7.8826 1.53183 0)
(8.06847 1.54105 0)
(7.58724 1.70134 0)
(7.79121 1.71401 0)
(7.26887 1.88325 0)
(7.49192 1.90026 0)
(6.92642 2.07691 0)
(7.16952 2.09964 0)
(6.55852 2.28079 0)
(6.82265 2.31132 0)
(6.1635 2.49198 0)
(6.44961 2.53341 0)
(5.73919 2.70577 0)
(6.04814 2.76257 0)
(5.28282 2.91493 0)
(5.61532 2.99339 0)
(4.79094 3.10911 0)
(5.14735 3.21778 0)
(4.25943 3.27418 0)
(4.63952 3.42422 0)
(3.68354 3.39187 0)
(4.08621 3.59713 0)
(3.05819 3.43974 0)
(3.48148 3.71657 0)
(2.37786 3.39189 0)
(2.81853 3.75821 0)
(1.63801 3.22632 0)
(2.0993 3.69412 0)
(0.839185 2.90103 0)
(1.27902 3.50467 0)
(0.573404 3.11393 0)
(9.98273 0.123585 0)
(9.99316 0.0868202 0)
(9.94873 0.204316 0)
(9.97026 0.172099 0)
(9.89794 0.285261 0)
(9.92926 0.256984 0)
(9.8305 0.367976 0)
(9.87123 0.342999 0)
(9.74669 0.453864 0)
(9.79714 0.431691 0)
(9.64666 0.544091 0)
(9.70733 0.524366 0)
(9.53035 0.639721 0)
(9.60178 0.622151 0)
(9.39759 0.741813 0)
(9.48035 0.726141 0)
(9.24809 0.851425 0)
(9.34282 0.837439 0)
(9.08148 0.969614 0)
(9.1889 0.957143 0)
(8.89731 1.09742 0)
(9.01819 1.08635 0)
(8.69505 1.23588 0)
(8.83024 1.22614 0)
(8.47407 1.38597 0)
(8.62449 1.37757 0)
(8.23371 1.54861 0)
(8.4003 1.54167 0)
(7.97317 1.72457 0)
(8.15695 1.71935 0)
(7.69157 1.9144 0)
(7.89358 1.91139 0)
(7.38782 2.11829 0)
(7.60915 2.1183 0)
(7.0606 2.33589 0)
(7.30239 2.34022 0)
(6.70821 2.56604 0)
(6.97164 2.57667 0)
(6.3284 2.80639 0)
(6.61473 2.82633 0)
(5.91816 3.05295 0)
(6.22876 3.0866 0)
(5.47355 3.29944 0)
(5.80982 3.35307 0)
(4.98944 3.53659 0)
(5.35277 3.61889 0)
(4.4595 3.75137 0)
(4.85104 3.87392 0)
(3.8764 3.92647 0)
(4.29661 4.10391 0)
(3.23251 4.03992 0)
(3.68076 4.28971 0)
(2.521 4.06511 0)
(2.99372 4.40687 0)
(1.73851 3.97632 0)
(2.23757 4.42475 0)
(0.889547 3.71899 0)
(1.36349 4.31654 0)
(0.598813 3.98518 0)
(9.98321 0.136208 0)
(9.99339 0.0950436 0)
(9.95032 0.22558 0)
(9.97131 0.188596 0)
(9.9015 0.315507 0)
(9.93193 0.282059 0)
(9.83693 0.407516 0)
(9.87642 0.376973 0)
(9.75682 0.503028 0)
(9.80578 0.474856 0)
(9.66133 0.603293 0)
(9.72028 0.577068 0)
(9.55043 0.709476 0)
(9.61993 0.684833 0)
(9.424 0.822717 0)
(9.50462 0.799335 0)
(9.2818 0.944159 0)
(9.37418 0.921752 0)
(9.12351 1.07494 0)
(9.22838 1.05326 0)
(8.94874 1.21619 0)
(9.0669 1.19505 0)
(8.75699 1.36904 0)
(8.88932 1.34828 0)
(8.5477 1.53457 0)
(8.69513 1.51411 0)
(8.32018 1.71381 0)
(8.48375 1.69369 0)
(8.07364 1.9077 0)
(8.25443 1.88807 0)
(7.80708 2.11697 0)
(8.00629 2.09821 0)
(7.51928 2.34208 0)
(7.7382 2.3249 0)
(7.20865 2.58306 0)
(7.44868 2.56859 0)
(6.8731 2.83928 0)
(7.13583 2.82934 0)
(6.50981 3.10915 0)
(6.79702 3.10651 0)
(6.11495 3.38968 0)
(6.42872 3.39848 0)
(5.68343 3.67591 0)
(6.02613 3.70216 0)
(5.20853 3.96011 0)
(5.58282 4.01236 0)
(4.68185 4.23092 0)
(5.0904 4.32086 0)
(4.09341 4.4723 0)
(4.5384 4.61533 0)
(3.43265 4.6626 0)
(3.91486 4.87787 0)
(2.69027 4.77329 0)
(3.20586 5.08367 0)
(1.86197 4.77262 0)
(2.41145 5.19816 0)
(0.954249 4.59 0)
(1.4764 5.18459 0)
(0.639252 4.91981 0)
(9.98386 0.148374 0)
(9.99368 0.102948 0)
(9.95235 0.24598 0)
(9.9726 0.204402 0)
(9.90578 0.344412 0)
(9.93509 0.305982 0)
(9.84436 0.445214 0)
(9.8824 0.409286 0)
(9.76831 0.54983 0)
(9.8155 0.515835 0)
(9.67778 0.659579 0)
(9.73469 0.627033 0)
(9.57278 0.775709 0)
(9.63996 0.744181 0)
(9.45324 0.899438 0)
(9.53126 0.86854 0)
(9.31897 1.03199 0)
(9.40848 1.00136 0)
(9.16972 1.17457 0)
(9.27146 1.14389 0)
(9.00516 1.3284 0)
(9.11993 1.2974 0)
(8.82485 1.49471 0)
(8.95354 1.46313 0)
(8.62827 1.67469 0)
(8.77186 1.64236 0)
(8.41477 1.86951 0)
(8.57434 1.83634 0)
(8.18353 2.08028 0)
(8.36029 2.04631 0)
(7.93353 2.30799 0)
(8.12881 2.27344 0)
(7.66342 2.55342 0)
(7.87872 2.5188 0)
(7.37139 2.81707 0)
(7.60847 2.78329 0)
(7.05503 3.09899 0)
(7.31593 3.06756 0)
(6.71103 3.39851 0)
(6.99818 3.37181 0)
(6.33485 3.71392 0)
(6.6512 3.69561 0)
(5.92035 4.04194 0)
(6.26947 4.03748 0)
(5.45931 4.37692 0)
(5.84542 4.39434 0)
(4.94115 4.70978 0)
(5.36896 4.76057 0)
(4.35284 5.02648 0)
(4.82692 5.12663 0)
(3.67973 5.30621 0)
(4.20335 5.47703 0)
(2.90767 5.51831 0)
(3.4781 5.78754 0)
(2.0278 5.62326 0)
(2.64523 6.01971 0)
(1.04519 5.5298 0)
(1.63788 6.12427 0)
(0.704549 5.94351 0)
(9.98465 0.159988 0)
(9.99402 0.110467 0)
(9.95472 0.265393 0)
(9.97408 0.21941 0)
(9.91064 0.371836 0)
(9.93867 0.328627 0)
(9.85265 0.480903 0)
(9.88904 0.439795 0)
(9.78098 0.594068 0)
(9.82617 0.554457 0)
(9.69578 0.712706 0)
(9.75036 0.674051 0)
(9.59713 0.838134 0)
(9.66163 0.799945 0)
(9.48498 0.971642 0)
(9.55999 0.933464 0)
(9.35922 1.11452 0)
(9.44538 1.07592 0)
(9.21967 1.26805 0)
(9.3177 1.22864 0)
(9.06605 1.43353 0)
(9.17677 1.39294 0)
(8.89802 1.61228 0)
(9.02232 1.57016 0)
(8.71512 1.80562 0)
(8.854 1.76168 0)
(8.51676 2.01486 0)
(8.67135 1.96889 0)
(8.30216 2.24131 0)
(8.47374 2.19317 0)
(8.0703 2.48623 0)
(8.26034 2.43595 0)
(7.8198 2.7508 0)
(8.03001 2.69862 0)
(7.54877 3.03606 0)
(7.78121 2.98256 0)
(7.25459 3.34283 0)
(7.51175 3.28907 0)
(6.93367 3.67153 0)
(7.21864 3.61931 0)
(6.58097 4.02198 0)
(6.89762 3.97419 0)
(6.18956 4.39295 0)
(6.54278 4.35413 0)
(5.74993 4.78144 0)
(6.14583 4.75859 0)
(5.24934 5.18159 0)
(5.69527 5.18536 0)
(4.67122 5.58274 0)
(5.17534 5.62908 0)
(3.99522 5.96658 0)
(4.56542 6.07875 0)
(3.19874 6.30188 0)
(3.83671 6.51367 0)
(2.26204 6.541 0)
(2.9712 6.89431 0)
(1.18077 6.56556 0)
(1.87943 7.1583 0)
(0.812951 7.1 0)
(9.98553 0.170971 0)
(9.9944 0.117552 0)
(9.95738 0.283711 0)
(9.97572 0.23353 0)
(9.916 0.397653 0)
(9.94258 0.349885 0)
(9.86168 0.514434 0)
(9.89622 0.468373 0)
(9.79467 0.635561 0)
(9.83763 0.590567 0)
(9.71514 0.762458 0)
(9.76711 0.71794 0)
(9.62321 0.896499 0)
(9.68472 0.851909 0)
(9.51889 1.03903 0)
(9.59051 0.993853 0)
(9.40215 1.1914 0)
(9.4845 1.14514 0)
(9.27286 1.35497 0)
(9.36667 1.30715 0)
(9.13085 1.5311 0)
(9.2369 1.48126 0)
(8.97586 1.7212 0)
(9.09505 1.66889 0)
(8.80753 1.92669 0)
(8.94085 1.87151 0)
(8.62535 2.14905 0)
(8.77396 2.09061 0)
(8.42865 2.38979 0)
(8.59387 2.32778 0)
(8.21649 2.65044 0)
(8.39989 2.58465 0)
(7.98758 2.93261 0)
(8.19101 2.86295 0)
(7.74008 3.23791 0)
(7.96582 3.16453 0)
(7.47141 3.56799 0)
(7.72232 3.49137 0)
(7.17796 3.92448 0)
(7.45767 3.84563 0)
(6.85457 4.3089 0)
(7.1678 4.22963 0)
(6.49398 4.72238 0)
(6.8469 4.64583 0)
(6.08593 5.16527 0)
(6.48663 5.09668 0)
(5.61596 5.63608 0)
(6.07495 5.58417 0)
(5.06399 6.12965 0)
(5.5944 6.10881 0)
(4.40269 6.63373 0)
(5.0201 6.6674 0)
(3.59664 7.12134 0)
(4.31315 7.24852 0)
(2.60478 7.54099 0)
(3.4363 7.82043 0)
(1.39459 7.74105 0)
(2.25699 8.31561 0)
(1.0029 8.46592 0)
(9.9865 0.181261 0)
(9.9948 0.124162 0)
(9.96026 0.300846 0)
(9.97747 0.246692 0)
(9.92176 0.421753 0)
(9.94675 0.369665 0)
(9.87132 0.545676 0)
(9.90386 0.49491 0)
(9.80921 0.674153 0)
(9.84975 0.624034 0)
(9.73564 0.808648 0)
(9.78476 0.758541 0)
(9.65076 0.95058 0)
(9.70898 0.899885 0)
(9.55466 1.10135 0)
(9.62253 1.04949 0)
(9.44736 1.26235 0)
(9.52549 1.20876 0)
(9.32883 1.43498 0)
(9.41791 1.37912 0)
(9.19899 1.62069 0)
(9.29979 1.56201 0)
(9.05769 1.82095 0)
(9.17108 1.7589 0)
(8.90468 2.03729 0)
(9.03164 1.97133 0)
(8.73962 2.27132 0)
(8.88128 2.20091 0)
(8.56196 2.52474 0)
(8.71965 2.44935 0)
(8.37096 2.79936 0)
(8.54626 2.71852 0)
(8.1655 3.09718 0)
(8.36034 3.01043 0)
(7.94401 3.42038 0)
(8.16078 3.32737 0)
(7.7042 3.77143 0)
(7.94595 3.67195 0)
(7.44278 4.15315 0)
(7.71348 4.04724 0)
(7.15501 4.56881 0)
(7.45994 4.45692 0)
(6.83403 5.02215 0)
(7.18031 4.9055 0)
(6.46976 5.51729 0)
(6.86721 5.39849 0)
(6.04735 6.05838 0)
(6.50958 5.94262 0)
(5.54456 6.64846 0)
(6.09048 6.54579 0)
(4.92772 7.28685 0)
(5.58375 7.21646 0)
(4.14577 7.96151 0)
(4.94334 7.9614 0)
(3.12253 8.63402 0)
(4.11029 8.77584 0)
(1.75681 9.12875 0)
(2.87941 9.62166 0)
(1.36533 10.1866 0)
(9.98753 0.190809 0)
(9.99523 0.130267 0)
(9.96332 0.316723 0)
(9.97932 0.258838 0)
(9.92784 0.444045 0)
(9.95114 0.387889 0)
(9.88146 0.574518 0)
(9.91186 0.519313 0)
(9.82446 0.709714 0)
(9.86241 0.654749 0)
(9.75709 0.851125 0)
(9.80314 0.795724 0)
(9.67953 1.00021 0)
(9.73421 0.94372 0)
(9.59195 1.15839 0)
(9.65577 1.10019 0)
(9.49444 1.32712 0)
(9.56798 1.26658 0)
(9.38706 1.50782 0)
(9.47099 1.44433 0)
(9.26985 1.70199 0)
(9.36488 1.63491 0)
(9.14277 1.91117 0)
(9.24974 1.83985 0)
(9.00573 2.13695 0)
(9.12557 2.06073 0)
(8.85855 2.38107 0)
(8.99234 2.29925 0)
(8.70091 2.64539 0)
(8.84993 2.55724 0)
(8.5323 2.93195 0)
(8.69808 2.8367 0)
(8.35194 3.24307 0)
(8.53637 3.1399 0)
(8.15867 3.58144 0)
(8.36411 3.46946 0)
(7.95076 3.95023 0)
(8.18024 3.82851 0)
(7.72566 4.35335 0)
(7.98317 4.22084 0)
(7.47963 4.79564 0)
(7.77055 4.65126 0)
(7.20711 5.2833 0)
(7.53889 5.12596 0)
(6.89973 5.82432 0)
(7.28296 5.65317 0)
(6.54453 6.42907 0)
(6.9948 6.24404 0)
(6.12078 7.11099 0)
(6.66169 6.91408 0)
(5.59374 7.88726 0)
(6.26307 7.6856 0)
(4.90188 8.77781 0)
(5.75854 8.59215 0)
(3.92809 9.802 0)
(5.08877 9.68509 0)
(2.43431 10.8581 0)
(3.98131 11.0502 0)
(2.14759 12.5709 0)
(9.98861 0.199574 0)
(9.99567 0.135843 0)
(9.96651 0.33128 0)
(9.98123 0.269922 0)
(9.93419 0.464445 0)
(9.9557 0.404496 0)
(9.892 0.600855 0)
(9.92015 0.541508 0)
(9.84027 0.742107 0)
(9.8755 0.682622 0)
(9.77928 0.889716 0)
(9.82213 0.829385 0)
(9.70926 1.04516 0)
(9.76023 0.983296 0)
(9.63044 1.2099 0)
(9.69004 1.14583 0)
(9.54299 1.38539 0)
(9.61177 1.31843 0)
(9.44707 1.57311 0)
(9.52567 1.50257 0)
(9.34283 1.77455 0)
(9.43194 1.69974 0)
(9.23037 1.99131 0)
(9.33078 1.91148 0)
(9.10978 2.22504 0)
(9.22236 2.1394 0)
(8.98106 2.47753 0)
(9.10685 2.38525 0)
(8.84417 2.75077 0)
(8.98435 2.65092 0)
(8.6989 3.04697 0)
(8.85492 2.93851 0)
(8.54492 3.36869 0)
(8.71853 3.25043 0)
(8.38162 3.71895 0)
(8.57503 3.58952 0)
(8.20805 4.10148 0)
(8.42407 3.9592 0)
(8.02276 4.52092 0)
(8.26509 4.36374 0)
(7.82357 4.98331 0)
(8.09718 4.80859 0)
(7.60719 5.49672 0)
(7.919 5.30101 0)
(7.36862 6.07219 0)
(7.72858 5.85084 0)
(7.09994 6.72539 0)
(7.52306 6.47203 0)
(6.78804 7.47953 0)
(7.29823 7.18516 0)
(6.40937 8.37141 0)
(7.04867 8.02266 0)
(5.91697 9.46558 0)
(6.76425 9.04106 0)
(5.1982 10.9086 0)
(6.46416 10.3562 0)
(3.88704 13.1814 0)
(6.19394 12.304 0)
(5.26607 16.378 0)
(0.231889 -0.145444 0)
(0.133213 -0.227121 0)
(0.448847 -0.123363 0)
(0.320194 -0.207478 0)
(0.631769 -0.0983985 0)
(0.509394 -0.170798 0)
(0.782992 -0.077486 0)
(0.674366 -0.137864 0)
(0.908203 -0.0610215 0)
(0.811043 -0.111455 0)
(1.01264 -0.0482527 0)
(0.924649 -0.0907695 0)
(1.10074 -0.0384403 0)
(1.02092 -0.0747616 0)
(1.17621 -0.030952 0)
(1.10416 -0.0625248 0)
(1.24197 -0.0252192 0)
(1.17745 -0.0532012 0)
(1.30019 -0.0207384 0)
(1.2431 -0.0459865 0)
(1.35229 -0.0170938 0)
(1.30274 -0.0401757 0)
(1.39905 -0.0139856 0)
(1.35738 -0.0352142 0)
(1.44089 -0.0112416 0)
(1.40754 -0.0307593 0)
(1.47807 -0.00876509 0)
(1.45344 -0.0266883 0)
(1.51079 -0.00639212 0)
(1.4953 -0.0229357 0)
(1.5388 -0.00376271 0)
(1.53336 -0.0191659 0)
(1.56069 -0.000443843 0)
(1.56747 -0.0146271 0)
(1.57408 0.00360363 0)
(1.5964 -0.00873563 0)
(1.57757 0.00747718 0)
(1.61796 -0.00222139 0)
(1.57166 0.00992472 0)
(1.63068 0.00367437 0)
(1.56027 0.0105153 0)
(1.63584 0.0069144 0)
(1.54653 0.00961685 0)
(1.63707 0.00814753 0)
(1.53195 0.00775662 0)
(1.6368 0.00843821 0)
(1.51901 0.00519021 0)
(1.63642 0.0073178 0)
(1.51099 0.001842 0)
(1.63749 0.00442516 0)
(1.51088 -0.00184868 0)
(1.64219 6.08107e-05 0)
(1.522 -0.00525914 0)
(1.65233 -0.00585463 0)
(1.54401 -0.00792131 0)
(1.66857 -0.0113035 0)
(1.57449 -0.00870857 0)
(1.69053 -0.0152901 0)
(1.72329 -0.0155301 0)
(0.201768 -0.32439 0)
(0.102398 -0.424741 0)
(0.39704 -0.284835 0)
(0.26988 -0.394218 0)
(0.565078 -0.233565 0)
(0.428624 -0.327698 0)
(0.707026 -0.189502 0)
(0.568379 -0.267274 0)
(0.827826 -0.154606 0)
(0.685584 -0.218984 0)
(0.931934 -0.12752 0)
(0.784827 -0.181251 0)
(1.023 -0.106727 0)
(0.870511 -0.152041 0)
(1.104 -0.0908841 0)
(0.945893 -0.129634 0)
(1.17726 -0.0787596 0)
(1.01337 -0.112469 0)
(1.24453 -0.0692478 0)
(1.07476 -0.0991178 0)
(1.30695 -0.0614198 0)
(1.13137 -0.0883182 0)
(1.36517 -0.0546029 0)
(1.18401 -0.0790496 0)
(1.41945 -0.048446 0)
(1.23306 -0.0706687 0)
(1.47004 -0.0428371 0)
(1.27854 -0.0630023 0)
(1.51739 -0.0375601 0)
(1.32055 -0.0561274 0)
(1.56203 -0.0318961 0)
(1.35954 -0.0497127 0)
(1.60367 -0.024832 0)
(1.39628 -0.0424499 0)
(1.64065 -0.0161718 0)
(1.43078 -0.0328597 0)
(1.67043 -0.00739638 0)
(1.46124 -0.0211915 0)
(1.69298 -0.000360529 0)
(1.48476 -0.0103502 0)
(1.71094 0.00486006 0)
(1.50137 -0.00398973 0)
(1.72654 0.008701 0)
(1.51517 -0.00110259 0)
(1.74042 0.0102467 0)
(1.5273 0.000403701 0)
(1.75394 0.00853964 0)
(1.53548 -0.000324535 0)
(1.768 0.00379407 0)
(1.54084 -0.00333587 0)
(1.7833 -0.00277607 0)
(1.54478 -0.00818257 0)
(1.7987 -0.0102654 0)
(1.54688 -0.0139589 0)
(1.81527 -0.0178922 0)
(1.54687 -0.0198155 0)
(1.83473 -0.0227544 0)
(1.54594 -0.0250515 0)
(1.54877 -0.0249859 0)
(0.160904 -0.503458 0)
(0.0731271 -0.582336 0)
(0.313062 -0.446112 0)
(0.205671 -0.539727 0)
(0.442063 -0.369646 0)
(0.317443 -0.448149 0)
(0.550691 -0.303686 0)
(0.416953 -0.366306 0)
(0.64311 -0.251248 0)
(0.498821 -0.30125 0)
(0.722702 -0.210288 0)
(0.567809 -0.250425 0)
(0.792253 -0.178582 0)
(0.626792 -0.211061 0)
(0.853989 -0.15416 0)
(0.67794 -0.180785 0)
(0.90966 -0.135243 0)
(0.722945 -0.157505 0)
(0.960592 -0.120226 0)
(0.763131 -0.139347 0)
(1.00767 -0.107728 0)
(0.799506 -0.124627 0)
(1.05132 -0.0967154 0)
(0.832746 -0.111914 0)
(1.09155 -0.0866777 0)
(0.863175 -0.10025 0)
(1.12834 -0.0776171 0)
(0.890566 -0.0894103 0)
(1.16211 -0.0695354 0)
(0.914416 -0.0798003 0)
(1.19393 -0.0614726 0)
(0.934716 -0.0714875 0)
(1.22431 -0.0512881 0)
(0.952887 -0.0627494 0)
(1.25199 -0.0377014 0)
(0.971099 -0.0509152 0)
(1.27424 -0.0236411 0)
(0.98957 -0.0353621 0)
(1.2905 -0.0144656 0)
(1.00155 -0.0204635 0)
(1.30407 -0.0112197 0)
(0.992149 -0.0122335 0)
(1.31492 -0.0107317 0)
(0.972793 -0.00753239 0)
(1.32101 -0.0114202 0)
(0.953552 -0.00312504 0)
(1.32106 -0.0136897 0)
(0.932929 -0.000349062 0)
(1.31674 -0.0168816 0)
(0.910401 -0.000955733 0)
(1.30846 -0.0197826 0)
(0.88886 -0.00372093 0)
(1.29479 -0.0222128 0)
(0.874511 -0.0067652 0)
(1.27715 -0.0243482 0)
(0.861503 -0.0107525 0)
(1.25857 -0.0250495 0)
(0.85084 -0.0157351 0)
(0.846152 -0.0232902 0)
(0.117359 -0.631662 0)
(0.0450011 -0.697282 0)
(0.219099 -0.555221 0)
(0.134492 -0.637021 0)
(0.300755 -0.458176 0)
(0.19125 -0.524393 0)
(0.368206 -0.37624 0)
(0.245076 -0.427799 0)
(0.424466 -0.311451 0)
(0.284749 -0.351328 0)
(0.471679 -0.260846 0)
(0.316569 -0.291458 0)
(0.511672 -0.22163 0)
(0.341524 -0.244999 0)
(0.545881 -0.191362 0)
(0.360839 -0.209128 0)
(0.575456 -0.167885 0)
(0.375553 -0.181431 0)
(0.601329 -0.149258 0)
(0.386512 -0.159783 0)
(0.624192 -0.133749 0)
(0.394469 -0.142259 0)
(0.644409 -0.119965 0)
(0.400128 -0.127138 0)
(0.661855 -0.107133 0)
(0.404161 -0.113076 0)
(0.675955 -0.0953223 0)
(0.406193 -0.0995319 0)
(0.68643 -0.0851064 0)
(0.405149 -0.0871426 0)
(0.694504 -0.0764032 0)
(0.399162 -0.0770128 0)
(0.702268 -0.0675526 0)
(0.386617 -0.0679369 0)
(0.710612 -0.0557273 0)
(0.372327 -0.0563586 0)
(0.713793 -0.0389763 0)
(0.355928 -0.0373883 0)
(0.698194 -0.02026 0)
(0.339896 -0.0107623 0)
(0.659572 -0.00591129 0)
(0.314888 0.0112199 0)
(0.61062 0.00325351 0)
(0.28047 0.0214919 0)
(0.56251 0.00990031 0)
(0.248179 0.0247265 0)
(0.519194 0.0134701 0)
(0.218561 0.0241345 0)
(0.48247 0.0130692 0)
(0.190169 0.0193117 0)
(0.456276 0.00917634 0)
(0.165808 0.0103939 0)
(0.44011 0.00308954 0)
(0.155788 0.00174013 0)
(0.434102 -0.0045807 0)
(0.151967 -0.00766624 0)
(0.438673 -0.0156139 0)
(0.152506 -0.0180278 0)
(0.15795 -0.0299925 0)
(0.0679147 -0.712282 0)
(0.0157866 -0.763801 0)
(0.113592 -0.616006 0)
(0.0551435 -0.680703 0)
(0.143372 -0.503324 0)
(0.0520817 -0.552198 0)
(0.164435 -0.411097 0)
(0.0563253 -0.447002 0)
(0.178541 -0.338289 0)
(0.0488064 -0.363885 0)
(0.186846 -0.28133 0)
(0.03794 -0.298676 0)
(0.190328 -0.237084 0)
(0.0229614 -0.247954 0)
(0.189798 -0.202842 0)
(0.0046586 -0.208689 0)
(0.18594 -0.176276 0)
(-0.0163748 -0.17831 0)
(0.179358 -0.155318 0)
(-0.0396402 -0.154584 0)
(0.170627 -0.138063 0)
(-0.0645748 -0.135525 0)
(0.160269 -0.122792 0)
(-0.090411 -0.119338 0)
(0.148537 -0.108218 0)
(-0.116155 -0.10445 0)
(0.134951 -0.093926 0)
(-0.141482 -0.0897794 0)
(0.117622 -0.0802414 0)
(-0.166638 -0.0749967 0)
(0.09306 -0.0668859 0)
(-0.193197 -0.0602042 0)
(0.0599615 -0.0515681 0)
(-0.223728 -0.0458213 0)
(0.0199251 -0.030558 0)
(-0.254814 -0.030239 0)
(-0.0206089 -0.00429913 0)
(-0.287008 -0.0115687 0)
(-0.049833 0.0191688 0)
(-0.310657 0.00741338 0)
(-0.0679777 0.0324681 0)
(-0.322726 0.0222384 0)
(-0.084184 0.036269 0)
(-0.33422 0.0311008 0)
(-0.100501 0.0345811 0)
(-0.343537 0.0341727 0)
(-0.115093 0.0284717 0)
(-0.351903 0.0323822 0)
(-0.126105 0.0176469 0)
(-0.360148 0.0253889 0)
(-0.133123 0.00479954 0)
(-0.367873 0.0141757 0)
(-0.133293 -0.00687291 0)
(-0.370402 0.00182949 0)
(-0.130418 -0.0177724 0)
(-0.369517 -0.00914286 0)
(-0.125073 -0.0294412 0)
(-0.369335 -0.0207089 0)
(-0.371102 -0.0320253 0)
(0.0101416 -0.738075 0)
(-0.0169197 -0.773734 0)
(-0.00299812 -0.621757 0)
(-0.0337489 -0.668137 0)
(-0.0278936 -0.497832 0)
(-0.0962088 -0.528953 0)
(-0.0564276 -0.400055 0)
(-0.145691 -0.420988 0)
(-0.0891915 -0.322906 0)
(-0.202098 -0.33472 0)
(-0.124799 -0.262853 0)
(-0.25784 -0.267729 0)
(-0.162548 -0.216354 0)
(-0.313431 -0.215921 0)
(-0.201846 -0.180389 0)
(-0.367995 -0.176129 0)
(-0.242283 -0.152368 0)
(-0.420889 -0.145598 0)
(-0.2835 -0.130124 0)
(-0.471679 -0.122028 0)
(-0.325005 -0.111829 0)
(-0.520055 -0.103516 0)
(-0.366065 -0.0959349 0)
(-0.565664 -0.0884199 0)
(-0.405698 -0.081236 0)
(-0.608057 -0.075312 0)
(-0.442898 -0.067017 0)
(-0.646764 -0.0630753 0)
(-0.477042 -0.053116 0)
(-0.6815 -0.051065 0)
(-0.507907 -0.0396445 0)
(-0.712391 -0.0390822 0)
(-0.536066 -0.0263941 0)
(-0.739746 -0.0270063 0)
(-0.560648 -0.0128107 0)
(-0.76309 -0.0142014 0)
(-0.578199 0.00129517 0)
(-0.781383 -0.000389417 0)
(-0.588173 0.0155252 0)
(-0.790926 0.0136171 0)
(-0.593586 0.0275819 0)
(-0.795817 0.0255253 0)
(-0.596919 0.0342181 0)
(-0.798073 0.033077 0)
(-0.599321 0.0347094 0)
(-0.79842 0.0355634 0)
(-0.600771 0.0299304 0)
(-0.798025 0.0332013 0)
(-0.602012 0.0210082 0)
(-0.798295 0.0260741 0)
(-0.604114 0.00992352 0)
(-0.80003 0.0153082 0)
(-0.606871 -0.00200917 0)
(-0.802446 0.00327981 0)
(-0.607991 -0.0144623 0)
(-0.804289 -0.00856726 0)
(-0.608149 -0.0263701 0)
(-0.808634 -0.0206297 0)
(-0.813433 -0.0319399 0)
(-0.0503537 -0.701248 0)
(-0.0552645 -0.724415 0)
(-0.126006 -0.569957 0)
(-0.13008 -0.595791 0)
(-0.205904 -0.443855 0)
(-0.249416 -0.45435 0)
(-0.287617 -0.345949 0)
(-0.35294 -0.346494 0)
(-0.367734 -0.269886 0)
(-0.454627 -0.263405 0)
(-0.44498 -0.211617 0)
(-0.549196 -0.200594 0)
(-0.518327 -0.167385 0)
(-0.636179 -0.15368 0)
(-0.586939 -0.134151 0)
(-0.715187 -0.119281 0)
(-0.650233 -0.109287 0)
(-0.786243 -0.0943947 0)
(-0.707963 -0.0905597 0)
(-0.849636 -0.0764292 0)
(-0.760157 -0.0760943 0)
(-0.905891 -0.0632631 0)
(-0.806966 -0.0642976 0)
(-0.955576 -0.0531731 0)
(-0.848522 -0.0538627 0)
(-0.999178 -0.0447594 0)
(-0.884909 -0.0438577 0)
(-1.03709 -0.036955 0)
(-0.916251 -0.0337744 0)
(-1.06973 -0.0290975 0)
(-0.94282 -0.023384 0)
(-1.09757 -0.0209001 0)
(-0.965033 -0.0124542 0)
(-1.12106 -0.0121638 0)
(-0.983071 -0.000833201 0)
(-1.14001 -0.0024335 0)
(-0.995218 0.0109364 0)
(-1.15364 0.00734803 0)
(-1.0013 0.0216619 0)
(-1.16112 0.0173969 0)
(-1.00288 0.0298433 0)
(-1.16431 0.0264896 0)
(-1.0019 0.0340614 0)
(-1.16415 0.0324924 0)
(-0.999914 0.0336951 0)
(-1.1621 0.0344153 0)
(-0.997832 0.0287936 0)
(-1.15958 0.0320244 0)
(-0.996701 0.0200464 0)
(-1.15798 0.0254497 0)
(-0.997491 0.00907232 0)
(-1.15825 0.0157338 0)
(-0.999976 -0.00254273 0)
(-1.16047 0.00458721 0)
(-1.00329 -0.0144919 0)
(-1.16415 -0.00686506 0)
(-1.00676 -0.0259354 0)
(-1.17035 -0.0188898 0)
(-1.17531 -0.0294171 0)
(-0.115811 -0.605209 0)
(-0.0998335 -0.610985 0)
(-0.251183 -0.465459 0)
(-0.23188 -0.466335 0)
(-0.386482 -0.342672 0)
(-0.406051 -0.328018 0)
(-0.515157 -0.251351 0)
(-0.557629 -0.229185 0)
(-0.633119 -0.183948 0)
(-0.696775 -0.158403 0)
(-0.738878 -0.134964 0)
(-0.819457 -0.108678 0)
(-0.832362 -0.0998193 0)
(-0.9259 -0.0743508 0)
(-0.914189 -0.0750887 0)
(-1.01602 -0.0514832 0)
(-0.985412 -0.0580509 0)
(-1.09253 -0.0367771 0)
(-1.04724 -0.0463652 0)
(-1.15765 -0.0275911 0)
(-1.10087 -0.0381461 0)
(-1.21337 -0.0219068 0)
(-1.1473 -0.0319116 0)
(-1.26127 -0.0182115 0)
(-1.18732 -0.0265105 0)
(-1.3025 -0.0153342 0)
(-1.22157 -0.0211148 0)
(-1.33789 -0.0123722 0)
(-1.25062 -0.015246 0)
(-1.3681 -0.00873558 0)
(-1.27504 -0.00871858 0)
(-1.39372 -0.00418969 0)
(-1.29502 -0.00146591 0)
(-1.41508 0.00119007 0)
(-1.30989 0.00654276 0)
(-1.43209 0.00726669 0)
(-1.32015 0.0150562 0)
(-1.44426 0.0138816 0)
(-1.32587 0.0232238 0)
(-1.45209 0.0209552 0)
(-1.32733 0.0296098 0)
(-1.45566 0.0273761 0)
(-1.32602 0.0328979 0)
(-1.45593 0.0317193 0)
(-1.32356 0.0324341 0)
(-1.45432 0.0329905 0)
(-1.32119 0.0280892 0)
(-1.4523 0.030684 0)
(-1.32004 0.0203714 0)
(-1.45115 0.0248129 0)
(-1.32093 0.0104901 0)
(-1.45184 0.0162136 0)
(-1.32399 -0.000426401 0)
(-1.45489 0.00620074 0)
(-1.32864 -0.0119501 0)
(-1.46027 -0.00447766 0)
(-1.33489 -0.0226913 0)
(-1.46788 -0.0157565 0)
(-1.47291 -0.0247627 0)
(-0.185969 -0.450904 0)
(-0.152967 -0.42884 0)
(-0.380838 -0.312565 0)
(-0.348003 -0.279981 0)
(-0.566832 -0.203888 0)
(-0.578045 -0.154352 0)
(-0.734403 -0.128563 0)
(-0.765192 -0.0764157 0)