/*--------------------------------*- C++ -*----------------------------------*\
  =========                 |
  \\      /  F ield         | OpenFOAM: The Open Source CFD Toolbox
   \\    /   O peration     | Website:  https://openfoam.org
    \\  /    A nd           | Version:  7
     \\/     M anipulation  |
\*---------------------------------------------------------------------------*/
FoamFile
{
    version     2.0;
    format      ascii;
    class       volScalarField;
    location    "5.8";
    object      T;
}
// * * * * * * * * * * * * * * * * * * * * * * * * * * * * * * * * * * * * * //

dimensions      [0 0 0 1 0 0 0];

internalField   nonuniform List<scalar> 
12013
(
300.093
300.28
300.473
300.669
300.866
301.064
301.261
301.456
301.649
301.838
302.024
302.206
302.383
302.554
302.721
302.883
303.039
303.191
303.337
303.478
303.615
303.747
303.875
303.999
304.12
304.238
304.352
304.464
304.575
304.684
304.792
304.899
305.007
305.116
305.226
305.34
305.456
305.577
305.703
305.837
305.978
306.128
306.29
306.464
306.653
306.859
307.083
307.329
307.599
307.895
308.222
308.582
308.979
309.416
309.899
310.432
311.019
311.667
312.38
313.166
314.031
314.982
316.028
317.177
318.439
319.825
321.347
323.018
324.852
326.867
329.081
331.518
334.205
337.172
340.462
344.124
348.226
352.866
358.186
364.428
372.054
300.093
300.281
300.473
300.669
300.866
301.064
301.261
301.457
301.65
301.839
302.025
302.207
302.384
302.556
302.723
302.884
303.041
303.192
303.339
303.48
303.617
303.749
303.877
304.001
304.122
304.24
304.354
304.466
304.577
304.686
304.794
304.901
305.009
305.118
305.228
305.341
305.458
305.579
305.705
305.838
305.979
306.13
306.291
306.465
306.654
306.86
307.084
307.329
307.599
307.895
308.222
308.581
308.977
309.415
309.897
310.429
311.016
311.662
312.375
313.159
314.022
314.972
316.015
317.162
318.421
319.803
321.32
322.985
324.812
326.818
329.021
331.444
334.111
337.053
340.308
343.92
347.947
352.467
357.576
363.397
370.041
300.093
300.281
300.474
300.67
300.867
301.065
301.263
301.458
301.652
301.842
302.028
302.209
302.387
302.559
302.726
302.888
303.044
303.196
303.342
303.484
303.621
303.753
303.881
304.006
304.126
304.244
304.359
304.471
304.581
304.69
304.798
304.906
305.013
305.122
305.233
305.345
305.462
305.583
305.709
305.842
305.983
306.133
306.294
306.468
306.656
306.862
307.085
307.331
307.6
307.895
308.221
308.579
308.975
309.411
309.892
310.422
311.007
311.652
312.362
313.143
314.003
314.948
315.987
317.128
318.38
319.754
321.261
322.913
324.725
326.711
328.89
331.281
333.907
336.795
339.976
343.486
347.367
351.664
356.424
361.673
367.37
300.093
300.281
300.475
300.671
300.869
301.067
301.265
301.461
301.655
301.845
302.032
302.214
302.391
302.564
302.731
302.893
303.05
303.202
303.349
303.49
303.627
303.76
303.888
304.013
304.133
304.251
304.366
304.478
304.588
304.697
304.805
304.913
305.02
305.129
305.239
305.352
305.468
305.589
305.715
305.848
305.988
306.138
306.299
306.472
306.66
306.865
307.088
307.332
307.6
307.895
308.219
308.577
308.971
309.405
309.884
310.412
310.994
311.635
312.341
313.117
313.972
314.91
315.941
317.073
318.313
319.673
321.163
322.795
324.581
326.537
328.676
331.017
333.58
336.385
339.456
342.817
346.492
350.502
354.854
359.528
364.451
300.093
300.282
300.476
300.673
300.871
301.07
301.269
301.465
301.66
301.85
302.037
302.22
302.398
302.571
302.739
302.901
303.059
303.211
303.358
303.5
303.637
303.77
303.898
304.023
304.144
304.262
304.377
304.489
304.599
304.708
304.816
304.923
305.031
305.139
305.25
305.362
305.478
305.598
305.724
305.856
305.996
306.146
306.306
306.479
306.666
306.87
307.092
307.335
307.602
307.895
308.218
308.573
308.964
309.396
309.872
310.396
310.974
311.61
312.31
313.08
313.926
314.855
315.874
316.992
318.216
319.556
321.022
322.625
324.376
326.287
328.371
330.644
333.12
335.815
338.744
341.919
345.352
349.044
352.982
357.132
361.426
300.093
300.283
300.478
300.675
300.875
301.074
301.274
301.471
301.666
301.858
302.046
302.229
302.408
302.581
302.75
302.913
303.071
303.223
303.371
303.513
303.651
303.784
303.913
304.037
304.159
304.276
304.391
304.504
304.614
304.723
304.831
304.938
305.046
305.154
305.264
305.376
305.492
305.611
305.737
305.868
306.008
306.157
306.316
306.488
306.674
306.876
307.097
307.339
307.604
307.895
308.215
308.568
308.956
309.384
309.855
310.374
310.946
311.575
312.267
313.028
313.863
314.779
315.783
316.882
318.084
319.398
320.832
322.396
324.1
325.954
327.969
330.156
332.525
335.087
337.848
340.815
343.987
347.355
350.898
354.582
358.354
300.094
300.285
300.48
300.679
300.879
301.08
301.28
301.479
301.675
301.867
302.056
302.241
302.42
302.595
302.764
302.928
303.086
303.24
303.388
303.531
303.669
303.802
303.931
304.057
304.178
304.296
304.411
304.524
304.634
304.743
304.85
304.958
305.065
305.173
305.283
305.394
305.51
305.629
305.754
305.885
306.023
306.171
306.329
306.5
306.685
306.886
307.105
307.344
307.607
307.895
308.212
308.561
308.945
309.368
309.834
310.346
310.911
311.531
312.212
312.961
313.781
314.68
315.664
316.74
317.914
319.194
320.588
322.105
323.751
325.536
327.467
329.551
331.797
334.207
336.786
339.531
342.437
345.49
348.669
351.942
355.271
300.095
300.286
300.483
300.683
300.885
301.087
301.289
301.489
301.686
301.88
302.07
302.256
302.436
302.612
302.782
302.947
303.107
303.261
303.41
303.553
303.692
303.826
303.956
304.081
304.203
304.321
304.437
304.549
304.66
304.768
304.876
304.983
305.09
305.198
305.307
305.418
305.533
305.652
305.775
305.905
306.043
306.19
306.347
306.516
306.699
306.898
307.114
307.351
307.611
307.896
308.209
308.553
308.932
309.348
309.807
310.311
310.866
311.475
312.143
312.876
313.679
314.557
315.516
316.562
317.702
318.942
320.288
321.747
323.326
325.029
326.864
328.834
330.942
333.191
335.578
338.098
340.743
343.499
346.345
349.255
352.201
300.095
300.289
300.487
300.689
300.892
301.096
301.299
301.501
301.7
301.896
302.088
302.275
302.457
302.634
302.806
302.972
303.133
303.288
303.438
303.582
303.722
303.857
303.987
304.113
304.235
304.354
304.469
304.582
304.692
304.801
304.908
305.015
305.122
305.229
305.338
305.449
305.563
305.68
305.803
305.932
306.069
306.214
306.369
306.536
306.717
306.913
307.127
307.361
307.616
307.897
308.205
308.543
308.915
309.325
309.774
310.269
310.811
311.406
312.059
312.773
313.554
314.407
315.336
316.348
317.447
318.639
319.93
321.323
322.824
324.437
326.165
328.011
329.975
332.055
334.248
336.547
338.943
341.421
343.965
346.553
349.164
300.096
300.292
300.492
300.696
300.901
301.107
301.313
301.517
301.718
301.916
302.109
302.299
302.483
302.662
302.835
303.003
303.165
303.321
303.472
303.618
303.759
303.894
304.025
304.152
304.275
304.394
304.509
304.622
304.733
304.842
304.949
305.055
305.162
305.269
305.377
305.487
305.6
305.717
305.838
305.966
306.1
306.244
306.397
306.562
306.74
306.933
307.143
307.373
307.624
307.899
308.201
308.533
308.897
309.297
309.736
310.218
310.746
311.325
311.959
312.651
313.406
314.229
315.124
316.096
317.148
318.286
319.513
320.834
322.25
323.765
325.38
327.095
328.909
330.82
332.822
334.908
337.068
339.291
341.561
343.864
346.18
300.097
300.295
300.498
300.704
300.912
301.121
301.329
301.536
301.739
301.94
302.136
302.328
302.514
302.695
302.871
303.041
303.205
303.363
303.515
303.662
303.804
303.941
304.073
304.2
304.323
304.443
304.559
304.672
304.783
304.892
304.999
305.105
305.211
305.317
305.425
305.534
305.646
305.761
305.881
306.007
306.14
306.281
306.432
306.594
306.769
306.958
307.165
307.389
307.635
307.904
308.199
308.522
308.876
309.265
309.692
310.16
310.671
311.231
311.842
312.509
313.235
314.024
314.88
315.806
316.807
317.885
319.043
320.284
321.609
323.021
324.518
326.1
327.765
329.508
331.325
333.209
335.15
337.139
339.163
341.209
343.265
300.099
300.299
300.505
300.714
300.926
301.138
301.349
301.559
301.766
301.97
302.169
302.363
302.553
302.737
302.915
303.087
303.253
303.413
303.568
303.716
303.86
303.998
304.131
304.259
304.383
304.503
304.62
304.734
304.844
304.953
305.06
305.166
305.271
305.377
305.483
305.592
305.702
305.816
305.935
306.059
306.189
306.328
306.476
306.634
306.805
306.991
307.192
307.411
307.65
307.912
308.198
308.511
308.855
309.231
309.644
310.094
310.587
311.125
311.711
312.349
313.042
313.793
314.605
315.482
316.425
317.438
318.523
319.68
320.911
322.216
323.594
325.043
326.561
328.143
329.784
331.477
333.216
334.991
336.792
338.61
340.434
300.1
300.305
300.514
300.727
300.942
301.158
301.373
301.587
301.798
302.005
302.208
302.407
302.599
302.786
302.968
303.143
303.311
303.474
303.631
303.782
303.927
304.066
304.201
304.331
304.456
304.577
304.694
304.808
304.919
305.028
305.134
305.24
305.345
305.45
305.555
305.662
305.771
305.884
306
306.122
306.25
306.385
306.53
306.684
306.851
307.031
307.227
307.439
307.671
307.924
308.201
308.503
308.834
309.196
309.592
310.024
310.495
311.008
311.566
312.172
312.829
313.538
314.303
315.127
316.01
316.954
317.962
319.033
320.167
321.365
322.624
323.943
325.318
326.746
328.221
329.738
331.291
332.871
334.472
336.085
337.702
300.103
300.311
300.525
300.742
300.962
301.182
301.403
301.621
301.836
302.048
302.256
302.458
302.655
302.846
303.031
303.21
303.382
303.547
303.707
303.86
304.007
304.149
304.285
304.416
304.543
304.665
304.783
304.897
305.009
305.117
305.224
305.329
305.433
305.537
305.642
305.747
305.855
305.965
306.079
306.198
306.323
306.456
306.596
306.746
306.908
307.082
307.271
307.476
307.7
307.943
308.209
308.499
308.816
309.162
309.539
309.95
310.398
310.884
311.412
311.983
312.6
313.265
313.98
314.747
315.567
316.441
317.37
318.353
319.391
320.483
321.626
322.819
324.059
325.341
326.662
328.016
329.398
330.803
332.223
333.653
335.086
300.105
300.318
300.537
300.76
300.985
301.212
301.437
301.661
301.882
302.1
302.313
302.52
302.722
302.918
303.107
303.29
303.466
303.635
303.798
303.954
304.104
304.248
304.386
304.519
304.647
304.77
304.889
305.004
305.116
305.225
305.331
305.436
305.54
305.643
305.746
305.85
305.955
306.064
306.175
306.291
306.413
306.541
306.677
306.823
306.979
307.147
307.328
307.525
307.739
307.972
308.225
308.502
308.803
309.131
309.488
309.877
310.299
310.756
311.251
311.785
312.361
312.979
313.643
314.351
315.107
315.909
316.759
317.656
318.599
319.587
320.619
321.692
322.803
323.95
325.127
326.332
327.56
328.805
330.063
331.329
332.597
300.108
300.327
300.552
300.782
301.014
301.246
301.479
301.709
301.937
302.161
302.38
302.594
302.802
303.003
303.197
303.385
303.565
303.739
303.906
304.066
304.219
304.366
304.507
304.642
304.772
304.896
305.016
305.132
305.244
305.353
305.46
305.564
305.667
305.769
305.871
305.973
306.076
306.182
306.291
306.404
306.522
306.646
306.777
306.917
307.066
307.227
307.401
307.588
307.792
308.013
308.253
308.515
308.799
309.108
309.444
309.809
310.203
310.63
311.09
311.586
312.119
312.69
313.299
313.949
314.64
315.371
316.143
316.955
317.806
318.696
319.621
320.581
321.573
322.594
323.64
324.709
325.796
326.898
328.01
329.129
330.25
300.111
300.338
300.57
300.807
301.047
301.287
301.528
301.766
302.002
302.233
302.46
302.681
302.896
303.103
303.304
303.498
303.684
303.862
304.034
304.198
304.355
304.505
304.649
304.787
304.919
305.045
305.167
305.284
305.397
305.506
305.612
305.716
305.818
305.919
306.019
306.12
306.221
306.324
306.43
306.539
306.653
306.772
306.898
307.031
307.174
307.327
307.492
307.67
307.862
308.071
308.297
308.543
308.809
309.098
309.412
309.751
310.117
310.512
310.937
311.393
311.882
312.405
312.961
313.553
314.179
314.841
315.537
316.268
317.031
317.827
318.653
319.508
320.389
321.294
322.22
323.165
324.125
325.098
326.079
327.067
328.056
300.116
300.35
300.591
300.837
301.086
301.336
301.586
301.833
302.078
302.319
302.554
302.784
303.006
303.222
303.43
303.631
303.823
304.008
304.185
304.354
304.516
304.67
304.818
304.959
305.093
305.222
305.345
305.463
305.577
305.687
305.793
305.896
305.997
306.097
306.196
306.294
306.393
306.493
306.595
306.701
306.81
306.924
307.044
307.172
307.307
307.452
307.607
307.775
307.955
308.151
308.362
308.591
308.839
309.107
309.397
309.71
310.047
310.409
310.799
311.216
311.661
312.136
312.64
313.174
313.739
314.333
314.957
315.61
316.291
316.999
317.733
318.49
319.269
320.069
320.886
321.719
322.565
323.421
324.286
325.156
326.028
300.12
300.365
300.616
300.873
301.132
301.393
301.654
301.912
302.168
302.419
302.665
302.905
303.137
303.362
303.579
303.787
303.988
304.179
304.363
304.538
304.705
304.864
305.016
305.16
305.298
305.429
305.554
305.674
305.789
305.899
306.005
306.109
306.209
306.307
306.404
306.5
306.597
306.694
306.792
306.894
306.998
307.107
307.221
307.341
307.469
307.605
307.751
307.907
308.076
308.257
308.453
308.665
308.894
309.141
309.407
309.693
310.001
310.332
310.686
311.063
311.466
311.894
312.348
312.827
313.332
313.863
314.419
314.999
315.603
316.23
316.878
317.546
318.233
318.937
319.655
320.387
321.131
321.883
322.643
323.407
324.175
300.126
300.382
300.646
300.914
301.186
301.46
301.734
302.005
302.274
302.537
302.795
303.046
303.29
303.526
303.753
303.971
304.18
304.38
304.571
304.753
304.927
305.091
305.248
305.397
305.538
305.672
305.799
305.921
306.037
306.148
306.255
306.357
306.457
306.554
306.649
306.743
306.837
306.931
307.026
307.122
307.222
307.325
307.433
307.546
307.665
307.793
307.928
308.073
308.229
308.397
308.578
308.772
308.981
309.207
309.449
309.71
309.989
310.288
310.607
310.947
311.309
311.692
312.097
312.524
312.973
313.444
313.937
314.45
314.983
315.535
316.105
316.692
317.295
317.913
318.543
319.185
319.836
320.496
321.162
321.833
322.507
300.133
300.403
300.68
300.963
301.25
301.539
301.827
302.114
302.397
302.675
302.947
303.212
303.469
303.717
303.956
304.186
304.405
304.615
304.815
305.005
305.185
305.356
305.518
305.672
305.817
305.955
306.085
306.209
306.326
306.438
306.545
306.648
306.747
306.843
306.936
307.028
307.118
307.209
307.3
307.392
307.486
307.584
307.685
307.791
307.902
308.02
308.145
308.279
308.423
308.576
308.741
308.918
309.109
309.313
309.533
309.768
310.019
310.288
310.573
310.877
311.2
311.541
311.9
312.279
312.676
313.092
313.526
313.977
314.445
314.93
315.43
315.944
316.472
317.012
317.563
318.123
318.693
319.27
319.853
320.44
321.031
300.141
300.426
300.72
301.02
301.325
301.631
301.937
302.241
302.541
302.837
303.125
303.406
303.678
303.941
304.193
304.436
304.667
304.888
305.098
305.297
305.486
305.664
305.833
305.992
306.142
306.283
306.417
306.543
306.662
306.775
306.883
306.985
307.083
307.178
307.27
307.359
307.447
307.534
307.621
307.708
307.797
307.889
307.983
308.082
308.185
308.294
308.409
308.531
308.662
308.802
308.952
309.112
309.284
309.468
309.665
309.876
310.101
310.34
310.595
310.865
311.151
311.452
311.77
312.104
312.453
312.818
313.199
313.594
314.004
314.428
314.864
315.313
315.773
316.244
316.725
317.214
317.711
318.214
318.723
319.236
319.753
300.15
300.454
300.767
301.087
301.412
301.738
302.065
302.389
302.71
303.025
303.332
303.632
303.921
304.201
304.469
304.726
304.971
305.205
305.426
305.636
305.834
306.02
306.196
306.361
306.516
306.662
306.799
306.928
307.05
307.164
307.272
307.375
307.472
307.566
307.655
307.742
307.827
307.911
307.994
308.077
308.16
308.246
308.334
308.425
308.52
308.619
308.725
308.836
308.955
309.081
309.216
309.36
309.515
309.679
309.855
310.043
310.243
310.455
310.681
310.919
311.172
311.437
311.716
312.009
312.316
312.635
312.968
313.313
313.67
314.039
314.42
314.81
315.211
315.621
316.039
316.464
316.897
317.335
317.779
318.226
318.678
300.16
300.486
300.822
301.165
301.513
301.863
302.214
302.562
302.906
303.244
303.573
303.894
304.204
304.502
304.789
305.063
305.323
305.571
305.805
306.026
306.234
306.43
306.614
306.786
306.947
307.098
307.239
307.371
307.494
307.61
307.719
307.822
307.919
308.011
308.099
308.183
308.265
308.345
308.424
308.503
308.581
308.661
308.742
308.826
308.913
309.004
309.099
309.2
309.307
309.42
309.541
309.67
309.808
309.955
310.111
310.278
310.454
310.642
310.841
311.051
311.272
311.505
311.75
312.006
312.273
312.552
312.842
313.142
313.453
313.774
314.105
314.444
314.792
315.148
315.511
315.881
316.257
316.638
317.024
317.414
317.807
300.173
300.524
300.886
301.256
301.631
302.009
302.387
302.763
303.134
303.498
303.853
304.198
304.531
304.851
305.158
305.45
305.728
305.992
306.24
306.474
306.694
306.899
307.092
307.272
307.439
307.595
307.74
307.876
308.002
308.119
308.229
308.331
308.428
308.519
308.605
308.687
308.766
308.843
308.918
308.992
309.065
309.139
309.214
309.291
309.37
309.452
309.538
309.629
309.725
309.827
309.935
310.05
310.172
310.302
310.44
310.587
310.743
310.908
311.082
311.266
311.46
311.664
311.878
312.101
312.334
312.577
312.829
313.091
313.361
313.639
313.926
314.221
314.523
314.832
315.147
315.468
315.794
316.125
316.46
316.799
317.141
300.187
300.568
300.961
301.362
301.769
302.179
302.589
302.996
303.398
303.792
304.176
304.549
304.908
305.253
305.582
305.896
306.193
306.474
306.738
306.986
307.218
307.435
307.636
307.824
307.998
308.16
308.31
308.448
308.577
308.696
308.806
308.909
309.005
309.095
309.179
309.259
309.335
309.409
309.479
309.549
309.617
309.685
309.754
309.824
309.896
309.971
310.048
310.13
310.215
310.306
310.402
310.504
310.612
310.727
310.849
310.978
311.115
311.26
311.413
311.574
311.744
311.922
312.108
312.303
312.506
312.717
312.936
313.164
313.398
313.64
313.889
314.145
314.407
314.674
314.948
315.226
315.509
315.797
316.088
316.383
316.68
300.204
300.62
301.048
301.485
301.929
302.376
302.823
303.267
303.704
304.133
304.55
304.954
305.342
305.715
306.069
306.406
306.724
307.024
307.305
307.568
307.813
308.041
308.253
308.449
308.63
308.797
308.951
309.094
309.225
309.345
309.457
309.559
309.655
309.743
309.826
309.903
309.977
310.046
310.114
310.179
310.242
310.305
310.368
310.432
310.497
310.565
310.634
310.707
310.783
310.864
310.949
311.039
311.135
311.236
311.344
311.457
311.578
311.705
311.839
311.98
312.129
312.284
312.447
312.617
312.794
312.977
313.168
313.366
313.57
313.78
313.996
314.218
314.446
314.678
314.915
315.157
315.403
315.653
315.906
316.162
316.421
300.224
300.679
301.149
301.629
302.115
302.605
303.095
303.58
304.059
304.526
304.98
305.419
305.84
306.243
306.625
306.987
307.328
307.648
307.947
308.226
308.485
308.725
308.947
309.151
309.339
309.512
309.67
309.816
309.949
310.071
310.183
310.286
310.38
310.467
310.548
310.623
310.694
310.76
310.824
310.885
310.944
311.002
311.06
311.118
311.177
311.238
311.3
311.365
311.433
311.505
311.581
311.661
311.745
311.835
311.93
312.03
312.136
312.248
312.366
312.489
312.62
312.756
312.898
313.047
313.201
313.362
313.528
313.701
313.878
314.062
314.25
314.443
314.641
314.843
315.05
315.26
315.474
315.692
315.912
316.135
316.361
300.247
300.749
301.266
301.795
302.332
302.871
303.41
303.943
304.467
304.979
305.474
305.952
306.41
306.845
307.258
307.647
308.012
308.353
308.671
308.966
309.239
309.49
309.722
309.934
310.129
310.307
310.47
310.618
310.753
310.876
310.988
311.091
311.184
311.27
311.349
311.422
311.49
311.553
311.613
311.67
311.726
311.78
311.833
311.886
311.94
311.994
312.051
312.109
312.17
312.234
312.301
312.373
312.448
312.527
312.612
312.7
312.794
312.893
312.997
313.107
313.221
313.341
313.466
313.597
313.733
313.874
314.02
314.171
314.326
314.486
314.651
314.82
314.993
315.17
315.35
315.534
315.721
315.91
316.103
316.297
316.494
300.274
300.83
301.403
301.989
302.582
303.179
303.773
304.361
304.937
305.498
306.04
306.561
307.058
307.529
307.974
308.391
308.781
309.144
309.481
309.792
310.078
310.341
310.582
310.802
311.003
311.185
311.351
311.502
311.638
311.762
311.874
311.976
312.068
312.152
312.229
312.3
312.365
312.426
312.483
312.537
312.589
312.639
312.688
312.737
312.787
312.837
312.888
312.941
312.996
313.054
313.115
313.179
313.246
313.318
313.393
313.473
313.557
313.645
313.738
313.835
313.937
314.043
314.155
314.27
314.39
314.515
314.644
314.777
314.914
315.056
315.201
315.349
315.501
315.656
315.815
315.976
316.14
316.306
316.474
316.645
316.817
300.305
300.924
301.562
302.213
302.873
303.535
304.193
304.842
305.477
306.093
306.686
307.253
307.792
308.301
308.779
309.226
309.641
310.026
310.381
310.707
311.007
311.28
311.529
311.755
311.961
312.147
312.315
312.467
312.604
312.728
312.839
312.94
313.031
313.114
313.189
313.258
313.321
313.379
313.434
313.485
313.534
313.582
313.628
313.674
313.72
313.767
313.814
313.863
313.914
313.968
314.023
314.082
314.144
314.209
314.278
314.35
314.426
314.506
314.59
314.678
314.77
314.865
314.965
315.069
315.176
315.288
315.403
315.522
315.644
315.769
315.898
316.029
316.164
316.301
316.441
316.584
316.728
316.875
317.023
317.173
317.325
300.341
301.034
301.747
302.474
303.209
303.946
304.676
305.395
306.095
306.771
307.419
308.036
308.62
309.168
309.68
310.156
310.596
311.001
311.373
311.713
312.023
312.304
312.56
312.791
313
313.188
313.357
313.51
313.647
313.77
313.881
313.98
314.07
314.151
314.225
314.292
314.354
314.411
314.464
314.514
314.561
314.607
314.652
314.696
314.74
314.785
314.831
314.877
314.926
314.976
315.029
315.084
315.142
315.203
315.268
315.335
315.405
315.479
315.556
315.637
315.721
315.809
315.9
315.994
316.092
316.193
316.297
316.404
316.513
316.626
316.741
316.859
316.98
317.102
317.227
317.353
317.482
317.612
317.743
317.876
318.01
300.383
301.161
301.96
302.775
303.598
304.419
305.231
306.027
306.798
307.54
308.248
308.917
309.546
310.133
310.678
311.181
311.644
312.067
312.453
312.804
313.122
313.41
313.67
313.903
314.114
314.303
314.472
314.624
314.76
314.882
314.992
315.091
315.18
315.26
315.333
315.399
315.46
315.517
315.57
315.62
315.667
315.713
315.758
315.802
315.847
315.891
315.937
315.983
316.031
316.081
316.132
316.186
316.243
316.301
316.363
316.427
316.494
316.564
316.637
316.713
316.792
316.874
316.958
317.045
317.135
317.228
317.323
317.421
317.521
317.624
317.728
317.835
317.943
318.053
318.165
318.279
318.394
318.51
318.627
318.745
318.864
300.431
301.308
302.208
303.123
304.045
304.963
305.866
306.747
307.596
308.407
309.176
309.899
310.572
311.197
311.772
312.3
312.781
313.218
313.615
313.973
314.296
314.587
314.848
315.082
315.292
315.48
315.648
315.799
315.934
316.055
316.164
316.262
316.351
316.431
316.504
316.572
316.634
316.692
316.746
316.798
316.847
316.895
316.942
316.989
317.035
317.082
317.129
317.177
317.227
317.278
317.331
317.385
317.442
317.501
317.562
317.625
317.691
317.759
317.83
317.902
317.978
318.055
318.135
318.218
318.302
318.389
318.477
318.568
318.66
318.754
318.85
318.947
319.046
319.146
319.247
319.35
319.453
319.557
319.662
319.768
319.874
300.487
301.478
302.493
303.524
304.558
305.584
306.588
307.561
308.493
309.377
310.207
310.981
311.696
312.353
312.954
313.5
313.994
314.441
314.842
315.203
315.527
315.817
316.077
316.309
316.517
316.703
316.87
317.019
317.153
317.274
317.383
317.481
317.571
317.653
317.729
317.799
317.864
317.925
317.984
318.039
318.093
318.145
318.197
318.248
318.298
318.349
318.401
318.453
318.507
318.561
318.617
318.674
318.733
318.794
318.856
318.92
318.986
319.054
319.124
319.195
319.269
319.344
319.421
319.5
319.58
319.662
319.745
319.83
319.916
320.003
320.092
320.181
320.272
320.363
320.455
320.548
320.641
320.735
320.829
320.924
321.018
300.552
301.673
302.821
303.983
305.145
306.29
307.404
308.475
309.492
310.447
311.336
312.155
312.905
313.587
314.206
314.764
315.264
315.712
316.113
316.471
316.791
317.077
317.332
317.561
317.765
317.949
318.114
318.262
318.396
318.518
318.629
318.73
318.823
318.909
318.989
319.065
319.135
319.203
319.267
319.329
319.39
319.449
319.507
319.565
319.622
319.68
319.737
319.796
319.854
319.914
319.974
320.036
320.098
320.162
320.227
320.293
320.361
320.429
320.499
320.571
320.643
320.717
320.792
320.868
320.945
321.023
321.102
321.182
321.263
321.344
321.426
321.509
321.592
321.676
321.76
321.844
321.928
322.013
322.097
322.182
322.266
300.626
301.897
303.196
304.507
305.809
307.085
308.316
309.487
310.587
311.609
312.55
313.404
314.175
314.869
315.492
316.048
316.545
316.989
317.384
317.736
318.05
318.33
318.581
318.806
319.008
319.189
319.354
319.503
319.639
319.764
319.878
319.985
320.083
320.176
320.263
320.345
320.424
320.5
320.573
320.643
320.712
320.78
320.847
320.913
320.978
321.044
321.109
321.174
321.239
321.305
321.371
321.437
321.504
321.572
321.64
321.709
321.778
321.848
321.919
321.99
322.062
322.135
322.208
322.282
322.357
322.431
322.506
322.582
322.658
322.734
322.81
322.886
322.962
323.039
323.115
323.191
323.267
323.343
323.419
323.494
323.569
300.711
302.152
303.622
305.098
306.555
307.97
309.322
310.592
311.762
312.828
313.795
314.665
315.444
316.139
316.758
317.308
317.796
318.23
318.616
318.96
319.266
319.54
319.785
320.006
320.206
320.388
320.553
320.705
320.844
320.974
321.094
321.207
321.313
321.414
321.509
321.601
321.689
321.774
321.857
321.937
322.016
322.093
322.169
322.244
322.318
322.391
322.464
322.537
322.609
322.68
322.752
322.823
322.894
322.965
323.036
323.108
323.179
323.25
323.322
323.393
323.465
323.536
323.608
323.679
323.751
323.822
323.893
323.964
324.035
324.106
324.176
324.246
324.316
324.385
324.454
324.522
324.59
324.658
324.725
324.791
324.857
300.805
302.437
304.098
305.757
307.382
308.936
310.385
311.718
312.931
314.025
315.006
315.879
316.654
317.341
317.947
318.484
318.959
319.379
319.752
320.085
320.382
320.648
320.889
321.106
321.304
321.486
321.653
321.808
321.952
322.087
322.214
322.334
322.449
322.558
322.663
322.764
322.861
322.956
323.048
323.138
323.226
323.312
323.396
323.48
323.561
323.642
323.722
323.8
323.878
323.955
324.031
324.106
324.181
324.255
324.329
324.401
324.474
324.546
324.617
324.688
324.758
324.828
324.898
324.966
325.035
325.102
325.169
325.236
325.302
325.367
325.432
325.496
325.559
325.622
325.684
325.745
325.805
325.865
325.924
325.982
326.04
300.905
302.743
304.611
306.465
308.231
309.881
311.398
312.775
314.012
315.114
316.091
316.954
317.713
318.38
318.967
319.484
319.94
320.343
320.701
321.021
321.308
321.566
321.801
322.015
322.211
322.393
322.561
322.719
322.867
323.006
323.139
323.266
323.387
323.503
323.616
323.724
323.83
323.932
324.032
324.129
324.224
324.317
324.408
324.498
324.585
324.672
324.756
324.84
324.921
325.002
325.081
325.159
325.236
325.312
325.387
325.46
325.533
325.605
325.676
325.746
325.815
325.883
325.95
326.016
326.081
326.145
326.208
326.271
326.332
326.393
326.452
326.511
326.569
326.625
326.681
326.736
326.79
326.843
326.896
326.947
326.997
300.993
303.019
305.081
307.064
308.923
310.634
312.186
313.577
314.813
315.904
316.864
317.704
318.44
319.084
319.649
320.145
320.582
320.969
321.313
321.621
321.898
322.149
322.378
322.588
322.782
322.962
323.13
323.288
323.438
323.58
323.716
323.846
323.97
324.091
324.207
324.32
324.429
324.536
324.64
324.741
324.84
324.937
325.031
325.124
325.215
325.304
325.391
325.477
325.561
325.643
325.724
325.804
325.882
325.958
326.034
326.108
326.181
326.252
326.322
326.392
326.459
326.526
326.591
326.656
326.719
326.781
326.842
326.901
326.96
327.017
327.073
327.129
327.183
327.236
327.288
327.339
327.389
327.438
327.486
327.533
327.579
382.235
390.196
396.891
402.727
407.905
412.535
416.678
420.369
423.623
426.442
428.814
430.719
432.122
432.976
433.215
432.748
431.447
429.117
425.427
419.718
410.345
403.994
399.125
395.136
391.739
388.773
386.135
383.757
381.59
379.599
377.754
376.034
374.422
372.903
371.464
370.097
368.791
367.541
366.339
365.181
364.061
362.975
361.92
360.892
359.889
358.907
357.944
356.999
356.069
355.153
354.249
353.356
352.473
351.599
350.733
349.873
349.021
348.173
347.332
346.495
345.662
344.834
344.011
343.191
342.375
341.564
340.756
339.953
339.154
338.36
337.57
336.785
336.006
335.232
334.463
333.701
332.946
332.197
331.456
330.723
329.999
329.283
328.576
327.879
327.193
326.517
325.853
325.2
324.559
323.931
323.316
322.715
322.127
321.553
320.993
320.448
319.918
319.402
318.901
318.415
317.944
317.488
317.048
316.621
316.21
315.813
315.431
315.063
314.708
314.367
314.04
313.726
313.424
313.135
312.857
312.591
312.337
312.093
311.86
311.637
311.423
311.219
311.023
310.836
310.657
310.485
310.321
310.164
310.013
309.868
309.729
309.596
309.467
309.344
309.224
309.109
308.998
308.891
308.787
308.685
308.587
308.491
308.398
308.307
308.217
308.13
308.044
307.959
307.875
307.793
307.711
307.63
307.55
307.47
307.39
307.311
307.231
307.152
307.072
306.993
306.915
377.489
384.408
390.635
396.227
401.264
405.807
409.894
413.55
416.784
419.593
421.966
423.88
425.301
426.184
426.468
426.069
424.875
422.732
419.423
414.679
408.456
403.074
398.581
394.773
391.478
388.575
385.98
383.632
381.489
379.514
377.683
375.974
374.371
372.858
371.426
370.063
368.762
367.515
366.317
365.161
364.043
362.96
361.906
360.88
359.877
358.896
357.935
356.99
356.061
355.146
354.243
353.35
352.468
351.594
350.728
349.869
349.017
348.17
347.328
346.492
345.659
344.832
344.008
343.188
342.373
341.561
340.754
339.951
339.152
338.357
337.568
336.783
336.003
335.229
334.461
333.699
332.944
332.195
331.454
330.721
329.996
329.28
328.574
327.877
327.19
326.515
325.85
325.198
324.557
323.929
323.314
322.713
322.125
321.551
320.991
320.446
319.916
319.4
318.899
318.413
317.943
317.487
317.046
316.62
316.209
315.812
315.43
315.061
314.707
314.366
314.039
313.725
313.423
313.134
312.856
312.591
312.336
312.093
311.859
311.636
311.423
311.218
311.023
310.836
310.657
310.485
310.321
310.164
310.013
309.868
309.729
309.596
309.467
309.344
309.225
309.11
308.999
308.891
308.787
308.686
308.587
308.492
308.398
308.307
308.218
308.13
308.044
307.959
307.876
307.793
307.712
307.631
307.55
307.47
307.39
307.311
307.231
307.152
307.073
306.994
306.916
373.389
379.312
384.907
390.098
394.871
399.235
403.201
406.774
409.955
412.734
415.098
417.022
418.473
419.411
419.779
419.51
418.517
416.7
413.953
410.231
405.75
401.404
397.481
394.001
390.908
388.137
385.635
383.354
381.26
379.324
377.524
375.839
374.255
372.759
371.34
369.989
368.697
367.459
366.267
365.117
364.005
362.925
361.876
360.853
359.853
358.875
357.915
356.973
356.046
355.132
354.23
353.339
352.457
351.585
350.719
349.861
349.009
348.163
347.322
346.485
345.654
344.826
344.003
343.183
342.368
341.557
340.749
339.946