/*--------------------------------*- C++ -*----------------------------------*\
  =========                 |
  \\      /  F ield         | OpenFOAM: The Open Source CFD Toolbox
   \\    /   O peration     | Website:  https://openfoam.org
    \\  /    A nd           | Version:  7
     \\/     M anipulation  |
\*---------------------------------------------------------------------------*/
FoamFile
{
    version     2.0;
    format      ascii;
    class       volVectorField;
    location    "0.24";
    object      U;
}
// * * * * * * * * * * * * * * * * * * * * * * * * * * * * * * * * * * * * * //

dimensions      [0 1 -1 0 0 0 0];

internalField   nonuniform List<vector> 
12013
(
(0.0999592 1.44935e-05 0)
(0.0997288 2.78589e-05 0)
(0.0993919 3.06374e-05 0)
(0.0991 2.50684e-05 0)
(0.0988888 1.86695e-05 0)
(0.0987322 1.51602e-05 0)
(0.0985959 1.44288e-05 0)
(0.0984594 1.51596e-05 0)
(0.0983153 1.63181e-05 0)
(0.0981636 1.74165e-05 0)
(0.098006 1.83232e-05 0)
(0.0978447 1.90549e-05 0)
(0.0976811 1.96631e-05 0)
(0.097516 2.01952e-05 0)
(0.0973503 2.06837e-05 0)
(0.097184 2.11512e-05 0)
(0.0970175 2.16119e-05 0)
(0.0968507 2.20766e-05 0)
(0.0966838 2.25531e-05 0)
(0.0965166 2.30479e-05 0)
(0.0963492 2.35671e-05 0)
(0.0961813 2.41151e-05 0)
(0.0960129 2.46972e-05 0)
(0.0958437 2.53169e-05 0)
(0.0956737 2.59774e-05 0)
(0.0955026 2.668e-05 0)
(0.0953304 2.74253e-05 0)
(0.0951567 2.8213e-05 0)
(0.0949816 2.90417e-05 0)
(0.0948049 2.99095e-05 0)
(0.0946265 3.0814e-05 0)
(0.0944463 3.1753e-05 0)
(0.0942644 3.27244e-05 0)
(0.0940806 3.37263e-05 0)
(0.0938949 3.47568e-05 0)
(0.0937074 3.58149e-05 0)
(0.0935181 3.69003e-05 0)
(0.0933269 3.80131e-05 0)
(0.0931338 3.91546e-05 0)
(0.092939 4.03264e-05 0)
(0.0927423 4.1531e-05 0)
(0.0925439 4.2771e-05 0)
(0.0923435 4.40503e-05 0)
(0.0921413 4.53738e-05 0)
(0.0919371 4.67477e-05 0)
(0.0917309 4.81792e-05 0)
(0.0915226 4.96779e-05 0)
(0.0913121 5.12547e-05 0)
(0.0910991 5.29233e-05 0)
(0.0908835 5.46988e-05 0)
(0.090665 5.66006e-05 0)
(0.0904432 5.86522e-05 0)
(0.0902179 6.08812e-05 0)
(0.0899884 6.33208e-05 0)
(0.0897543 6.6012e-05 0)
(0.0895148 6.90045e-05 0)
(0.0892691 7.2359e-05 0)
(0.0890162 7.61509e-05 0)
(0.0887549 8.04743e-05 0)
(0.0884838 8.54474e-05 0)
(0.088201 9.12203e-05 0)
(0.0879043 9.79846e-05 0)
(0.0875911 0.000105988 0)
(0.0872579 0.000115554 0)
(0.0869007 0.000127109 0)
(0.086514 0.000141223 0)
(0.086091 0.00015867 0)
(0.0856231 0.000180513 0)
(0.0850985 0.000208239 0)
(0.0845022 0.00024397 0)
(0.0838132 0.000290779 0)
(0.0830034 0.00035322 0)
(0.082033 0.000438163 0)
(0.0808453 0.00055619 0)
(0.0793581 0.000723911 0)
(0.0774506 0.000967867 0)
(0.0749411 0.00133124 0)
(0.07154 0.00188749 0)
(0.0667965 0.00278305 0)
(0.0601749 0.00442239 0)
(0.0526837 0.00861739 0)
(0.0999634 4.40213e-05 0)
(0.0997382 8.50659e-05 0)
(0.0994064 9.37868e-05 0)
(0.0991161 7.69234e-05 0)
(0.0989042 5.74219e-05 0)
(0.0987459 4.66834e-05 0)
(0.0986081 4.44099e-05 0)
(0.0984705 4.66061e-05 0)
(0.0983261 5.01193e-05 0)
(0.0981743 5.34598e-05 0)
(0.0980169 5.62227e-05 0)
(0.097856 5.84549e-05 0)
(0.0976928 6.0314e-05 0)
(0.0975283 6.19417e-05 0)
(0.0973631 6.34385e-05 0)
(0.0971974 6.48714e-05 0)
(0.0970314 6.62847e-05 0)
(0.0968652 6.77109e-05 0)
(0.0966988 6.91736e-05 0)
(0.0965322 7.06931e-05 0)
(0.0963652 7.22867e-05 0)
(0.0961978 7.397e-05 0)
(0.0960299 7.57569e-05 0)
(0.0958612 7.76597e-05 0)
(0.0956917 7.9687e-05 0)
(0.0955211 8.18433e-05 0)
(0.0953493 8.41303e-05 0)
(0.0951761 8.65468e-05 0)
(0.0950014 8.90891e-05 0)
(0.0948252 9.17508e-05 0)
(0.0946472 9.45248e-05 0)
(0.0944676 9.74043e-05 0)
(0.0942861 0.000100383 0)
(0.0941028 0.000103454 0)
(0.0939176 0.000106614 0)
(0.0937307 0.000109857 0)
(0.0935419 0.000113184 0)
(0.0933513 0.000116595 0)
(0.0931588 0.000120093 0)
(0.0929646 0.000123684 0)
(0.0927686 0.000127375 0)
(0.0925708 0.000131174 0)
(0.0923711 0.000135093 0)
(0.0921696 0.000139148 0)
(0.0919662 0.000143355 0)
(0.0917608 0.000147739 0)
(0.0915533 0.000152328 0)
(0.0913436 0.000157154 0)
(0.0911316 0.00016226 0)
(0.090917 0.000167692 0)
(0.0906995 0.00017351 0)
(0.0904789 0.000179783 0)
(0.0902548 0.000186596 0)
(0.0900266 0.000194051 0)
(0.089794 0.00020227 0)
(0.0895561 0.000211406 0)
(0.0893122 0.000221642 0)
(0.0890613 0.000233205 0)
(0.0888023 0.000246382 0)
(0.0885338 0.000261528 0)
(0.088254 0.000279095 0)
(0.0879609 0.00029966 0)
(0.087652 0.000323966 0)
(0.087324 0.000352979 0)
(0.086973 0.000387971 0)
(0.0865942 0.000430636 0)
(0.0861813 0.000483257 0)
(0.0857264 0.000548957 0)
(0.0852192 0.000632077 0)
(0.0846463 0.000738744 0)
(0.0839902 0.000877756 0)
(0.0832273 0.00106196 0)
(0.0823259 0.00131045 0)
(0.0812429 0.00165194 0)
(0.0799198 0.00213027 0)
(0.0782771 0.00281254 0)
(0.0762103 0.00380075 0)
(0.0735796 0.00524693 0)
(0.070229 0.00737148 0)
(0.0662073 0.0104242 0)
(0.0627549 0.0142603 0)
(0.0999681 7.37487e-05 0)
(0.0997563 0.000144323 0)
(0.0994373 0.000160114 0)
(0.0991516 0.00013224 0)
(0.0989378 9.93703e-05 0)
(0.0987755 8.10408e-05 0)
(0.0986341 7.69798e-05 0)
(0.0984943 8.05319e-05 0)
(0.0983488 8.63802e-05 0)
(0.098197 9.19902e-05 0)
(0.0980402 9.66564e-05 0)
(0.0978801 0.000100443 0)
(0.0977179 0.00010361 0)
(0.0975546 0.000106391 0)
(0.0973905 0.000108955 0)
(0.0972259 0.000111413 0)
(0.0970611 0.000113842 0)
(0.0968961 0.000116295 0)
(0.0967309 0.000118813 0)
(0.0965654 0.000121431 0)
(0.0963995 0.000124176 0)
(0.0962332 0.000127076 0)
(0.0960663 0.000130154 0)
(0.0958987 0.000133431 0)
(0.0957301 0.00013692 0)
(0.0955605 0.00014063 0)
(0.0953896 0.000144563 0)
(0.0952174 0.000148717 0)
(0.0950437 0.000153086 0)
(0.0948684 0.000157658 0)
(0.0946915 0.000162422 0)
(0.0945128 0.000167366 0)
(0.0943324 0.000172479 0)
(0.0941501 0.00017775 0)
(0.0939661 0.000183171 0)
(0.0937803 0.000188735 0)
(0.0935927 0.000194441 0)
(0.0934033 0.00020029 0)
(0.0932121 0.000206289 0)
(0.0930192 0.000212444 0)
(0.0928245 0.000218769 0)
(0.0926281 0.000225279 0)
(0.0924299 0.000231992 0)
(0.0922299 0.000238935 0)
(0.0920281 0.000246137 0)
(0.0918244 0.000253639 0)
(0.0916186 0.000261488 0)
(0.0914108 0.00026974 0)
(0.0912007 0.000278464 0)
(0.0909881 0.000287742 0)
(0.0907729 0.000297671 0)
(0.0905546 0.00030837 0)
(0.090333 0.000319981 0)
(0.0901076 0.000332675 0)
(0.0898779 0.00034666 0)
(0.0896433 0.000362187 0)
(0.089403 0.000379565 0)
(0.0891562 0.000399175 0)
(0.0889018 0.00042149 0)
(0.0886384 0.000447101 0)
(0.0883646 0.000476756 0)
(0.0880785 0.000511404 0)
(0.0877777 0.000552261 0)
(0.0874594 0.000600902 0)
(0.0871204 0.000659382 0)
(0.0867562 0.000730415 0)
(0.0863617 0.000817623 0)
(0.0859304 0.000925903 0)
(0.085454 0.00106196 0)
(0.0849224 0.00123508 0)
(0.0843227 0.00145832 0)
(0.0836388 0.00175023 0)
(0.0828508 0.00213745 0)
(0.0819347 0.0026584 0)
(0.080863 0.0033684 0)
(0.0796075 0.00434576 0)
(0.0781478 0.00569664 0)
(0.0764868 0.007552 0)
(0.0746922 0.010042 0)
(0.0730223 0.0131754 0)
(0.0721527 0.0163687 0)
(0.0999736 0.00010236 0)
(0.0997826 0.000203891 0)
(0.0994841 0.000228473 0)
(0.0992061 0.000190984 0)
(0.09899 0.000145161 0)
(0.0988215 0.000119017 0)
(0.0986745 0.000112771 0)
(0.0985313 0.000117353 0)
(0.0983845 0.000125342 0)
(0.0982326 0.000133134 0)
(0.0980767 0.000139682 0)
(0.0979179 0.00014504 0)
(0.0977574 0.000149549 0)
(0.0975958 0.000153529 0)
(0.0974335 0.000157213 0)
(0.0972709 0.000160756 0)
(0.0971079 0.000164265 0)
(0.0969448 0.000167815 0)
(0.0967813 0.000171463 0)
(0.0966176 0.000175257 0)
(0.0964535 0.000179239 0)
(0.0962888 0.000183445 0)
(0.0961235 0.000187908 0)
(0.0959575 0.000192655 0)
(0.0957904 0.000197708 0)
(0.0956223 0.000203077 0)
(0.095453 0.000208765 0)
(0.0952823 0.000214769 0)
(0.0951101 0.000221078 0)
(0.0949364 0.000227678 0)
(0.094761 0.000234551 0)
(0.0945839 0.00024168 0)
(0.0944051 0.000249049 0)
(0.0942246 0.000256645 0)
(0.0940423 0.000264453 0)
(0.0938583 0.000272467 0)
(0.0936725 0.000280682 0)
(0.093485 0.000289101 0)
(0.0932958 0.000297731 0)
(0.093105 0.000306585 0)
(0.0929124 0.000315678 0)
(0.0927182 0.000325034 0)
(0.0925224 0.000334678 0)
(0.0923248 0.000344647 0)
(0.0921255 0.000354983 0)
(0.0919244 0.000365744 0)
(0.0917214 0.000376993 0)
(0.0915165 0.000388813 0)
(0.0913094 0.000401299 0)
(0.0911001 0.000414564 0)
(0.0908883 0.000428748 0)
(0.0906737 0.000444014 0)
(0.0904561 0.000460563 0)
(0.090235 0.000478632 0)
(0.09001 0.00049851 0)
(0.0897805 0.000520548 0)
(0.0895459 0.000545172 0)
(0.0893054 0.000572908 0)
(0.089058 0.000604407 0)
(0.0888027 0.000640479 0)
(0.0885381 0.000682141 0)
(0.0882627 0.000730677 0)
(0.0879744 0.000787722 0)
(0.0876711 0.000855369 0)
(0.08735 0.000936327 0)
(0.0870078 0.00103413 0)
(0.0866407 0.00115341 0)
(0.086244 0.00130034 0)
(0.0858122 0.00148318 0)
(0.0853389 0.00171308 0)
(0.0848172 0.00200525 0)
(0.0842394 0.00238048 0)
(0.0835982 0.00286723 0)
(0.0828887 0.00350423 0)
(0.0821111 0.0043431 0)
(0.0812778 0.00544962 0)
(0.0804236 0.00689979 0)
(0.0796223 0.00876229 0)
(0.0790093 0.0110521 0)
(0.078806 0.0136186 0)
(0.0792801 0.0159034 0)
(0.0999796 0.000128651 0)
(0.0998151 0.000261749 0)
(0.0995437 0.000297498 0)
(0.0992768 0.000252973 0)
(0.0990585 0.0001954 0)
(0.0988826 0.000161419 0)
(0.0987288 0.000152454 0)
(0.0985814 0.000157515 0)
(0.0984328 0.000167257 0)
(0.098281 0.000177011 0)
(0.0981262 0.000185339 0)
(0.0979693 0.000192236 0)
(0.097811 0.000198096 0)
(0.0976518 0.000203308 0)
(0.097492 0.000208158 0)
(0.0973319 0.000212843 0)
(0.0971716 0.000217497 0)
(0.0970109 0.000222216 0)
(0.09685 0.000227075 0)
(0.0966886 0.000232133 0)
(0.0965269 0.000237443 0)
(0.0963645 0.000243052 0)
(0.0962014 0.000249001 0)
(0.0960375 0.000255326 0)
(0.0958726 0.000262051 0)
(0.0957066 0.000269189 0)
(0.0955393 0.000276744 0)
(0.0953707 0.00028471 0)
(0.0952006 0.000293074 0)
(0.095029 0.000301816 0)
(0.0948557 0.000310914 0)
(0.0946809 0.000320345 0)
(0.0945043 0.000330088 0)
(0.0943261 0.000340125 0)
(0.0941462 0.000350439 0)
(0.0939646 0.000361019 0)
(0.0937814 0.000371861 0)
(0.0935965 0.000382967 0)
(0.0934101 0.000394347 0)
(0.0932221 0.000406016 0)
(0.0930325 0.000417994 0)
(0.0928414 0.00043031 0)
(0.0926487 0.000443 0)
(0.0924544 0.000456106 0)
(0.0922586 0.000469687 0)
(0.0920611 0.000483812 0)
(0.0918619 0.000498566 0)
(0.091661 0.000514051 0)
(0.0914582 0.000530389 0)
(0.0912533 0.000547726 0)
(0.0910463 0.000566236 0)
(0.0908368 0.000586129 0)
(0.0906247 0.000607655 0)
(0.0904095 0.000631117 0)
(0.090191 0.000656877 0)
(0.0899686 0.000685374 0)
(0.0897418 0.000717143 0)
(0.08951 0.000752835 0)
(0.0892725 0.000793256 0)
(0.0890283 0.000839401 0)
(0.0887763 0.000892511 0)
(0.0885155 0.000954137 0)
(0.0882444 0.00102624 0)
(0.0879613 0.00111128 0)
(0.0876644 0.00121243 0)
(0.0873516 0.00133373 0)
(0.0870205 0.00148039 0)
(0.0866686 0.00165918 0)
(0.0862935 0.00187891 0)
(0.085893 0.00215108 0)
(0.0854654 0.00249073 0)
(0.0850113 0.00291749 0)
(0.084534 0.00345663 0)
(0.0840428 0.00414011 0)
(0.0835565 0.00500654 0)
(0.083109 0.00609877 0)
(0.0827571 0.00745558 0)
(0.0825874 0.0090919 0)
(0.0827191 0.01096 0)
(0.0832881 0.0128838 0)
(0.0843732 0.0144783 0)
(0.0999858 0.000151532 0)
(0.0998508 0.000315959 0)
(0.099611 0.000365761 0)
(0.0993584 0.00031782 0)
(0.0991392 0.000250484 0)
(0.098956 0.000208913 0)
(0.0987949 0.000196626 0)
(0.0986428 0.000201428 0)
(0.0984924 0.000212359 0)
(0.0983409 0.000223726 0)
(0.0981877 0.00023365 0)
(0.0980331 0.000242005 0)
(0.0978775 0.000249195 0)
(0.0977213 0.000255652 0)
(0.0975647 0.000261706 0)
(0.0974077 0.000267585 0)
(0.0972505 0.000273451 0)
(0.097093 0.000279416 0)
(0.0969351 0.00028557 0)
(0.0967768 0.000291985 0)
(0.0966179 0.000298724 0)
(0.0964584 0.000305842 0)
(0.0962981 0.000313388 0)
(0.0961369 0.000321403 0)
(0.0959747 0.000329914 0)
(0.0958113 0.000338936 0)
(0.0956467 0.000348473 0)
(0.0954806 0.000358516 0)
(0.0953132 0.000369048 0)
(0.0951442 0.000380045 0)
(0.0949737 0.000391478 0)
(0.0948015 0.00040332 0)
(0.0946278 0.000415544 0)
(0.0944525 0.000428128 0)
(0.0942756 0.000441052 0)
(0.0940972 0.000454303 0)
(0.0939172 0.000467874 0)
(0.0937357 0.000481768 0)
(0.0935527 0.000495995 0)
(0.0933683 0.000510574 0)
(0.0931825 0.000525529 0)
(0.0929952 0.000540893 0)
(0.0928066 0.00055671 0)
(0.0926166 0.000573032 0)
(0.0924251 0.000589928 0)
(0.0922323 0.00060748 0)
(0.092038 0.000625791 0)
(0.0918421 0.000644981 0)
(0.0916447 0.000665196 0)
(0.0914456 0.000686608 0)
(0.0912447 0.000709426 0)
(0.0910417 0.000733896 0)
(0.0908366 0.000760315 0)
(0.0906291 0.000789037 0)
(0.0904188 0.000820487 0)
(0.0902055 0.000855178 0)
(0.0899888 0.000893729 0)
(0.0897682 0.000936892 0)
(0.0895431 0.00098559 0)
(0.089313 0.00104095 0)
(0.0890772 0.00110437 0)
(0.0888349 0.00117757 0)
(0.0885854 0.0012627 0)
(0.0883276 0.00136242 0)
(0.0880607 0.00148008 0)
(0.0877838 0.00161988 0)
(0.0874963 0.00178708 0)
(0.0871977 0.00198831 0)
(0.0868885 0.00223191 0)
(0.0865699 0.0025283 0)
(0.0862453 0.00289048 0)
(0.0859207 0.00333432 0)
(0.0856069 0.00387884 0)
(0.0853209 0.00454583 0)
(0.0850896 0.00535833 0)
(0.0849524 0.0063367 0)
(0.0849647 0.00749054 0)
(0.0851979 0.00880397 0)
(0.0857328 0.0102126 0)
(0.0866376 0.0115755 0)
(0.0879176 0.0126589 0)
(0.0999915 0.000170258 0)
(0.0998861 0.000364993 0)
(0.0996798 0.000431945 0)
(0.0994443 0.000384913 0)
(0.0992264 0.000310468 0)
(0.0990372 0.000261883 0)
(0.0988695 0.000245709 0)
(0.0987132 0.000249416 0)
(0.0985612 0.000260844 0)
(0.0984101 0.00027337 0)
(0.0982588 0.000284629 0)
(0.098107 0.000294311 0)
(0.0979546 0.000302779 0)
(0.0978019 0.000310479 0)
(0.0976489 0.000317764 0)
(0.0974956 0.000324887 0)
(0.0973421 0.000332028 0)
(0.0971882 0.000339319 0)
(0.0970339 0.00034686 0)
(0.0968791 0.000354732 0)
(0.0967237 0.000363007 0)
(0.0965675 0.000371748 0)
(0.0964105 0.000381008 0)
(0.0962525 0.00039083 0)
(0.0960934 0.000401247 0)
(0.0959331 0.000412272 0)
(0.0957715 0.000423907 0)
(0.0956086 0.00043614 0)
(0.0954443 0.00044895 0)
(0.0952785 0.000462308 0)
(0.0951112 0.00047618 0)
(0.0949424 0.000490532 0)
(0.0947721 0.000505334 0)
(0.0946003 0.000520557 0)
(0.094427 0.00053618 0)
(0.0942523 0.000552187 0)
(0.0940762 0.000568569 0)
(0.0938987 0.000585329 0)
(0.0937199 0.000602477 0)
(0.0935398 0.000620033 0)
(0.0933585 0.000638025 0)
(0.0931759 0.000656492 0)
(0.0929921 0.000675481 0)
(0.0928072 0.000695054 0)
(0.0926211 0.000715287 0)
(0.0924338 0.000736275 0)
(0.0922453 0.000758132 0)
(0.0920557 0.000780995 0)
(0.0918648 0.000805028 0)
(0.0916726 0.000830425 0)
(0.0914791 0.000857418 0)
(0.0912841 0.000886286 0)
(0.0910875 0.000917357 0)
(0.0908892 0.000951026 0)
(0.090689 0.00098776 0)
(0.0904868 0.00102812 0)
(0.0902822 0.00107279 0)
(0.0900751 0.00112257 0)
(0.0898652 0.00117846 0)
(0.0896521 0.00124166 0)
(0.0894357 0.00131361 0)
(0.0892155 0.0013961 0)
(0.0889915 0.0014913 0)
(0.0887635 0.00160187 0)
(0.0885314 0.00173104 0)
(0.0882958 0.00188278 0)
(0.0880573 0.0020619 0)
(0.0878176 0.00227425 0)
(0.0875791 0.00252685 0)
(0.087346 0.00282803 0)
(0.0871246 0.0031875 0)
(0.0869244 0.00361622 0)
(0.0867593 0.00412599 0)
(0.0866486 0.00472845 0)
(0.0866189 0.00543308 0)
(0.0867053 0.00624367 0)
(0.0869508 0.00715252 0)
(0.0874043 0.00813197 0)
(0.0881117 0.00912392 0)
(0.0891003 0.0100313 0)
(0.0903524 0.0107214 0)
(0.0999963 0.000184587 0)
(0.0999179 0.00040795 0)
(0.0997444 0.000494992 0)
(0.0995278 0.000453458 0)
(0.0993143 0.000375009 0)
(0.0991217 0.000320337 0)
(0.098949 0.000299869 0)
(0.0987893 0.00030166 0)
(0.0986363 0.000312844 0)
(0.0984862 0.00032601 0)
(0.0983371 0.00033829 0)
(0.0981883 0.000349127 0)
(0.0980395 0.000358796 0)
(0.0978907 0.000367717 0)
(0.0977417 0.00037625 0)
(0.0975925 0.000384661 0)
(0.097443 0.000393144 0)
(0.0972932 0.000401841 0)
(0.0971429 0.000410862 0)
(0.096992 0.000420295 0)
(0.0968404 0.000430219 0)
(0.0966879 0.000440701 0)
(0.0965346 0.000451795 0)
(0.0963802 0.000463549 0)
(0.0962246 0.000475992 0)
(0.0960679 0.000489139 0)
(0.0959098 0.000502986 0)
(0.0957505 0.000517519 0)
(0.0955897 0.000532712 0)
(0.0954275 0.000548529 0)
(0.0952639 0.000564932 0)
(0.0950989 0.000581882 0)
(0.0949326 0.000599342 0)
(0.0947648 0.000617281 0)
(0.0945957 0.000635673 0)
(0.0944253 0.0006545 0)
(0.0942537 0.000673751 0)
(0.0940808 0.000693428 0)
(0.0939068 0.000713541 0)
(0.0937317 0.000734109 0)
(0.0935556 0.000755164 0)
(0.0933784 0.000776745 0)
(0.0932003 0.000798907 0)
(0.0930213 0.000821714 0)
(0.0928413 0.00084525 0)
(0.0926606 0.000869615 0)
(0.0924789 0.000894933 0)
(0.0922965 0.000921351 0)
(0.0921132 0.000949044 0)
(0.0919291 0.00097822 0)
(0.0917443 0.00100913 0)
(0.0915585 0.00104206 0)
(0.0913719 0.00107736 0)
(0.0911844 0.00111546 0)
(0.090996 0.00115682 0)
(0.0908067 0.00120205 0)
(0.0906163 0.00125183 0)
(0.0904249 0.00130699 0)
(0.0902325 0.00136852 0)
(0.0900391 0.00143761 0)
(0.0898448 0.00151567 0)
(0.0896499 0.00160442 0)
(0.0894547 0.00170587 0)
(0.0892598 0.00182246 0)
(0.0890661 0.00195705 0)
(0.0888751 0.00211305 0)
(0.0886886 0.00229441 0)
(0.0885096 0.00250571 0)
(0.0883422 0.00275215 0)
(0.0881921 0.00303945 0)
(0.088067 0.00337371 0)
(0.0879774 0.00376096 0)
(0.087937 0.00420656 0)
(0.0879637 0.00471404 0)
(0.0880793 0.00528347 0)
(0.0883101 0.00590898 0)
(0.0886849 0.0065755 0)
(0.0892321 0.00725498 0)
(0.0899739 0.00790297 0)
(0.0909164 0.008458 0)
(0.092038 0.00884772 0)
(0.0999998 0.00019477 0)
(0.0999442 0.000444607 0)
(0.0998007 0.000554204 0)
(0.0996042 0.00052256 0)
(0.0993981 0.000443405 0)
(0.0992052 0.000383899 0)
(0.0990299 0.000358984 0)
(0.0988684 0.000358169 0)
(0.0987152 0.000368403 0)
(0.0985664 0.000381678 0)
(0.0984199 0.000394635 0)
(0.0982745 0.000406431 0)
(0.0981295 0.0004172 0)
(0.0979848 0.000427308 0)
(0.09784 0.000437099 0)
(0.0976952 0.000446838 0)
(0.09755 0.000456726 0)
(0.0974045 0.00046691 0)
(0.0972584 0.000477505 0)
(0.0971117 0.000488606 0)
(0.0969643 0.000500294 0)
(0.0968159 0.000512635 0)
(0.0966665 0.000525687 0)
(0.096516 0.000539494 0)
(0.0963644 0.000554083 0)
(0.0962115 0.000569466 0)
(0.0960574 0.000585636 0)
(0.095902 0.000602572 0)
(0.0957452 0.000620242 0)
(0.0955871 0.000638606 0)
(0.0954276 0.000657619 0)
(0.0952669 0.000677238 0)
(0.0951049 0.00069742 0)
(0.0949417 0.00071813 0)
(0.0947773 0.000739339 0)
(0.0946118 0.000761024 0)
(0.0944451 0.000783175 0)
(0.0942775 0.000805789 0)
(0.0941089 0.000828876 0)
(0.0939395 0.000852454 0)
(0.0937692 0.000876553 0)
(0.0935982 0.000901215 0)
(0.0934264 0.000926495 0)
(0.0932541 0.000952461 0)
(0.0930811 0.000979195 0)
(0.0929077 0.0010068 0)
(0.0927338 0.00103541 0)
(0.0925595 0.00106516 0)
(0.0923849 0.00109624 0)
(0.0922101 0.00112886 0)
(0.092035 0.00116327 0)
(0.0918598 0.00119976 0)
(0.0916846 0.00123868 0)
(0.0915094 0.00128044 0)
(0.0913343 0.00132553 0)
(0.0911595 0.0013745 0)
(0.0909851 0.00142804 0)
(0.0908114 0.00148692 0)
(0.0906385 0.00155207 0)
(0.090467 0.00162459 0)
(0.0902971 0.00170576 0)
(0.0901298 0.00179706 0)
(0.0899657 0.00190025 0)
(0.0898061 0.00201732 0)
(0.0896526 0.00215058 0)
(0.0895073 0.00230261 0)
(0.089373 0.00247627 0)
(0.0892533 0.00267466 0)
(0.0891531 0.00290098 0)
(0.0890785 0.00315838 0)
(0.0890373 0.00344965 0)
(0.0890392 0.00377677 0)
(0.089096 0.00414027 0)
(0.0892216 0.00453839 0)
(0.0894321 0.00496594 0)
(0.0897444 0.005413 0)
(0.0901755 0.0058635 0)
(0.0907395 0.00629413 0)
(0.0914439 0.00667399 0)
(0.0922856 0.00696629 0)
(0.0932456 0.00713297 0)
(0.100002 0.000201414 0)
(0.0999642 0.000475302 0)
(0.0998469 0.000609246 0)
(0.0996704 0.000591346 0)
(0.0994743 0.00051472 0)
(0.0992845 0.000451888 0)
(0.0991093 0.000422678 0)
(0.0989476 0.000418783 0)
(0.0987952 0.000427471 0)
(0.0986485 0.000440361 0)
(0.0985049 0.000453656 0)
(0.098363 0.000466203 0)
(0.0982221 0.00047796 0)
(0.0980816 0.00048921 0)
(0.0979413 0.000500261 0)
(0.0978009 0.000511364 0)
(0.0976603 0.000522717 0)
(0.0975193 0.000534468 0)
(0.0973777 0.000546733 0)
(0.0972354 0.000559607 0)
(0.0970922 0.00057317 0)
(0.0969481 0.000587489 0)
(0.096803 0.000602618 0)
(0.0966567 0.000618595 0)
(0.0965093 0.000635444 0)
(0.0963606 0.000653172 0)
(0.0962107 0.000671764 0)
(0.0960596 0.000691194 0)
(0.0959071 0.000711423 0)
(0.0957535 0.000732406 0)
(0.0955986 0.000754092 0)
(0.0954426 0.000776431 0)
(0.0952854 0.000799377 0)
(0.0951272 0.00082289 0)
(0.094968 0.000846936 0)
(0.0948078 0.000871491 0)
(0.0946468 0.000896539 0)
(0.0944849 0.000922075 0)
(0.0943223 0.000948105 0)
(0.0941591 0.000974644 0)
(0.0939953 0.00100172 0)
(0.093831 0.00102937 0)
(0.0936664 0.00105766 0)
(0.0935014 0.00108663 0)
(0.0933363 0.00111638 0)
(0.093171 0.00114701 0)
(0.0930057 0.00117862 0)
(0.0928405 0.00121138 0)
(0.0926756 0.00124544 0)
(0.092511 0.00128102 0)
(0.0923469 0.00131834 0)
(0.0921834 0.00135769 0)
(0.0920208 0.0013994 0)
(0.0918592 0.00144383 0)
(0.0916989 0.00149145 0)
(0.0915402 0.00154275 0)
(0.0913833 0.00159834 0)
(0.0912288 0.0016589 0)
(0.0910772 0.00172524 0)
(0.0909291 0.00179828 0)
(0.0907853 0.00187905 0)
(0.0906468 0.00196875 0)
(0.090515 0.00206871 0)
(0.0903914 0.00218039 0)
(0.090278 0.00230538 0)
(0.0901775 0.00244536 0)
(0.0900928 0.00260201 0)
(0.090028 0.00277695 0)
(0.0899878 0.00297158 0)
(0.0899779 0.00318685 0)
(0.0900053 0.00342297 0)
(0.0900778 0.00367907 0)
(0.0902044 0.00395271 0)
(0.090395 0.00423935 0)
(0.0906599 0.00453177 0)
(0.0910088 0.00481958 0)
(0.0914501 0.00508888 0)
(0.091989 0.00532233 0)
(0.0926258 0.00549994 0)
(0.093354 0.00560073 0)
(0.0941585 0.00560559 0)
(0.100003 0.000205304 0)
(0.0999783 0.000500753 0)
(0.0998828 0.000660106 0)
(0.0997255 0.000659067 0)
(0.0995415 0.000587937 0)
(0.0993577 0.000523445 0)
(0.0991852 0.00049039 0)
(0.0990251 0.000483197 0)
(0.0988747 0.000489906 0)
(0.0987305 0.000502001 0)
(0.0985902 0.000515325 0)
(0.0984522 0.00052842 0)
(0.0983154 0.000541052 0)
(0.0981793 0.000553396 0)
(0.0980435 0.000565704 0)
(0.0979077 0.000578204 0)
(0.0977717 0.000591079 0)
(0.0976352 0.000604474 0)
(0.0974982 0.0006185 0)
(0.0973604 0.000633248 0)
(0.0972217 0.000648795 0)
(0.0970821 0.000665203 0)
(0.0969414 0.000682519 0)
(0.0967996 0.000700775 0)
(0.0966566 0.000719987 0)
(0.0965124 0.000740153 0)
(0.0963671 0.000761254 0)
(0.0962205 0.000783254 0)
(0.0960728 0.000806107 0)
(0.095924 0.000829761 0)
(0.0957741 0.000854159 0)
(0.0956231 0.000879248 0)
(0.0954713 0.000904975 0)
(0.0953185 0.000931294 0)
(0.0951649 0.000958167 0)
(0.0950106 0.000985566 0)
(0.0948556 0.00101347 0)
(0.0947 0.00104187 0)
(0.094544 0.00107077 0)
(0.0943876 0.00110017 0)
(0.0942309 0.0011301 0)
(0.094074 0.00116059 0)
(0.0939171 0.00119168 0)
(0.0937603 0.00122344 0)
(0.0936036 0.00125593 0)
(0.0934473 0.00128924 0)
(0.0932915 0.00132348 0)
(0.0931363 0.00135877 0)
(0.0929819 0.00139528 0)
(0.0928285 0.00143316 0)
(0.0926764 0.00147264 0)
(0.0925258 0.00151396 0)
(0.0923769 0.00155739 0)
(0.0922301 0.00160326 0)
(0.0920857 0.00165194 0)
(0.0919443 0.00170386 0)
(0.0918062 0.00175948 0)
(0.0916721 0.00181937 0)
(0.0915428 0.00188412 0)
(0.0914191 0.00195442 0)
(0.0913021 0.00203102 0)
(0.0911929 0.00211472 0)
(0.0910933 0.00220638 0)
(0.0910049 0.00230686 0)
(0.0909299 0.00241701 0)
(0.0908711 0.00253761 0)
(0.0908315 0.00266927 0)
(0.0908148 0.00281235 0)
(0.0908252 0.00296676 0)
(0.0908676 0.00313186 0)
(0.0909473 0.00330616 0)
(0.0910703 0.00348711 0)
(0.0912427 0.00367086 0)
(0.0914708 0.00385193 0)
(0.0917603 0.00402311 0)
(0.0921159 0.00417534 0)
(0.0925409 0.0042979 0)
(0.0930356 0.00437891 0)
(0.0935972 0.00440618 0)
(0.0942187 0.00436848 0)
(0.0948887 0.00425706 0)
(0.100004 0.00020724 0)
(0.0999875 0.00052187 0)
(0.0999095 0.000707011 0)
(0.09977 0.000725148 0)
(0.0995993 0.000662086 0)
(0.0994237 0.000597648 0)
(0.0992562 0.000561454 0)
(0.0990995 0.000551007 0)
(0.0989521 0.000555492 0)
(0.0988112 0.000566489 0)
(0.0986745 0.000579587 0)
(0.0985404 0.000593053 0)
(0.0984079 0.000606453 0)
(0.0982763 0.000619842 0)
(0.0981451 0.000633405 0)
(0.0980139 0.000647332 0)
(0.0978825 0.000661785 0)
(0.0977507 0.000676896 0)
(0.0976183 0.000692768 0)
(0.0974851 0.000709484 0)
(0.0973511 0.000727114 0)
(0.0972161 0.000745711 0)
(0.09708 0.000765313 0)
(0.0969428 0.000785941 0)
(0.0968045 0.000807601 0)
(0.0966651 0.000830283 0)
(0.0965245 0.000853958 0)
(0.0963829 0.000878581 0)
(0.0962402 0.0009041 0)
(0.0960966 0.000930453 0)
(0.095952 0.000957579 0)
(0.0958066 0.000985417 0)
(0.0956604 0.00101391 0)
(0.0955135 0.001043 0)
(0.095366 0.00107266 0)
(0.0952179 0.00110284 0)
(0.0950695 0.00113351 0)
(0.0949207 0.00116467 0)
(0.0947718 0.0011963 0)
(0.0946227 0.0012284 0)
(0.0944737 0.00126099 0)
(0.0943249 0.00129409 0)
(0.0941764 0.00132772 0)
(0.0940283 0.00136194 0)
(0.0938809 0.00139679 0)
(0.0937343 0.00143235 0)
(0.0935887 0.0014687 0)
(0.0934443 0.00150593 0)
(0.0933013 0.00154417 0)
(0.0931601 0.00158356 0)
(0.0930209 0.00162426 0)
(0.092884 0.00166645 0)
(0.0927497 0.00171034 0)
(0.0926187 0.00175618 0)
(0.0924912 0.00180424 0)
(0.0923679 0.0018548 0)
(0.0922494 0.0019082 0)
(0.0921364 0.0019648 0)
(0.0920299 0.00202499 0)
(0.0919309 0.00208916 0)
(0.0918404 0.00215772 0)
(0.09176 0.00223107 0)
(0.0916912 0.00230957 0)
(0.0916359 0.00239352 0)
(0.0915962 0.00248308 0)
(0.0915747 0.00257826 0)
(0.091574 0.00267877 0)
(0.0915973 0.00278402 0)
(0.091648 0.00289291 0)
(0.0917299 0.00300379 0)
(0.0918468 0.00311426 0)
(0.0920027 0.00322107 0)
(0.0922013 0.00332001 0)
(0.0924461 0.00340584 0)
(0.0927398 0.00347231 0)
(0.093084 0.00351233 0)
(0.0934789 0.00351828 0)
(0.0939229 0.00348253 0)
(0.0944122 0.00339816 0)
(0.0949407 0.00325978 0)
(0.0955 0.00306433 0)
(0.100004 0.000207937 0)
(0.099993 0.000539601 0)
(0.0999285 0.000750349 0)
(0.0998051 0.000789214 0)
(0.0996481 0.000736331 0)
(0.0994824 0.000673614 0)
(0.0993216 0.000635169 0)
(0.0991697 0.000621744 0)
(0.0990263 0.000623949 0)
(0.0988893 0.000633671 0)
(0.0987567 0.000646359 0)
(0.0986269 0.000660053 0)
(0.0984988 0.000674133 0)
(0.0983717 0.000688528 0)
(0.098245 0.000703345 0)
(0.0981185 0.000718726 0)
(0.0979918 0.000734808 0)
(0.0978647 0.000751702 0)
(0.097737 0.000769498 0)
(0.0976085 0.000788266 0)
(0.0974791 0.000808063 0)
(0.0973488 0.000828933 0)
(0.0972175 0.000850901 0)
(0.0970852 0.000873975 0)
(0.0969518 0.000898148 0)
(0.0968173 0.000923398 0)
(0.0966819 0.000949687 0)
(0.0965455 0.000976961 0)
(0.0964082 0.00100516 0)
(0.0962701 0.00103421 0)
(0.0961312 0.00106404 0)
(0.0959916 0.0010946 0)
(0.0958515 0.00112581 0)
(0.0957109 0.00115761 0)
(0.0955699 0.00118996 0)
(0.0954286 0.0012228 0)
(0.0952872 0.00125612 0)
(0.0951457 0.00128987 0)
(0.0950044 0.00132404 0)
(0.0948632 0.00135862 0)
(0.0947224 0.0013936 0)
(0.0945822 0.00142899 0)
(0.0944427 0.0014648 0)
(0.0943041 0.00150106 0)
(0.0941665 0.00153779 0)
(0.0940303 0.00157503 0)
(0.0938956 0.00161284 0)
(0.0937627 0.00165127 0)
(0.093632 0.0016904 0)
(0.0935036 0.00173032 0)
(0.093378 0.00177112 0)
(0.0932556 0.00181291 0)
(0.0931367 0.00185581 0)
(0.0930221 0.00189996 0)
(0.092912 0.0019455 0)
(0.0928074 0.00199257 0)
(0.0927088 0.00204134 0)
(0.092617 0.00209194 0)
(0.0925332 0.00214452 0)
(0.0924582 0.00219919 0)
(0.0923934 0.002256 0)
(0.0923401 0.00231498 0)
(0.0922999 0.00237603 0)
(0.0922745 0.00243895 0)
(0.0922658 0.00250334 0)
(0.0922759 0.00256859 0)
(0.0923072 0.00263382 0)
(0.092362 0.00269779 0)
(0.0924429 0.00275882 0)
(0.0925525 0.00281477 0)
(0.0926933 0.00286294 0)
(0.0928677 0.00290002 0)
(0.0930776 0.00292212 0)
(0.0933245 0.00292474 0)
(0.0936094 0.00290296 0)
(0.093932 0.00285161 0)
(0.0942912 0.00276558 0)
(0.0946847 0.00264033 0)
(0.0951088 0.00247235 0)
(0.0955586 0.00225971 0)
(0.096028 0.00200242 0)
(0.100003 0.000207975 0)
(0.0999957 0.00055485 0)
(0.0999417 0.000790607 0)
(0.0998324 0.000851088 0)
(0.0996889 0.000810023 0)
(0.099534 0.000750558 0)
(0.0993812 0.000710853 0)
(0.0992354 0.000694913 0)
(0.0990969 0.000694955 0)
(0.0989644 0.000703349 0)
(0.0988362 0.000715524 0)
(0.0987108 0.000729353 0)
(0.0985872 0.000744049 0)
(0.0984647 0.000759421 0)
(0.0983427 0.000775494 0)
(0.0982209 0.000792359 0)
(0.0980989 0.000810116 0)
(0.0979765 0.000828851 0)
(0.0978535 0.000848636 0)
(0.0977298 0.000869524 0)
(0.0976053 0.000891558 0)
(0.0974799 0.000914764 0)
(0.0973535 0.000939153 0)
(0.0972262 0.000964721 0)
(0.0970979 0.000991444 0)
(0.0969687 0.00101929 0)
(0.0968386 0.0010482 0)
(0.0967078 0.00107812 0)
(0.0965761 0.00110898 0)
(0.0964439 0.00114069 0)
(0.096311 0.00117318 0)
(0.0961777 0.00120638 0)
(0.0960441 0.00124021 0)
(0.0959101 0.00127461 0)
(0.0957761 0.00130951 0)
(0.095642 0.00134487 0)
(0.095508 0.00138063 0)
(0.0953743 0.00141675 0)
(0.095241 0.0014532 0)
(0.0951083 0.00148994 0)
(0.0949763 0.00152697 0)
(0.0948452 0.00156425 0)
(0.0947152 0.00160178 0)
(0.0945866 0.00163955 0)
(0.0944595 0.00167756 0)
(0.0943342 0.0017158 0)
(0.0942111 0.0017543 0)
(0.0940903 0.00179305 0)
(0.0939723 0.00183208 0)
(0.0938574 0.00187141 0)
(0.0937459 0.00191104 0)
(0.0936385 0.001951 0)
(0.0935355 0.00199131 0)
(0.0934375 0.00203198 0)
(0.0933451 0.00207301 0)
(0.0932591 0.00211438 0)
(0.0931802 0.00215606 0)
(0.0931093 0.00219798 0)
(0.0930472 0.00224003 0)
(0.0929951 0.00228206 0)
(0.0929542 0.00232381 0)
(0.0929256 0.00236496 0)
(0.0929108 0.00240505 0)
(0.0929113 0.00244347 0)
(0.0929286 0.00247944 0)
(0.0929645 0.00251194 0)
(0.0930206 0.00253971 0)
(0.0930987 0.00256118 0)
(0.0932005 0.00257446 0)
(0.0933276 0.00257729 0)
(0.0934815 0.00256706 0)
(0.0936633 0.00254078 0)
(0.0938737 0.00249516 0)
(0.0941133 0.00242664 0)
(0.0943816 0.00233156 0)
(0.0946777 0.00220635 0)
(0.0950001 0.00204781 0)
(0.0953463 0.00185347 0)
(0.0957132 0.00162197 0)
(0.0960972 0.00135339 0)
(0.0964937 0.00104943 0)
(0.100002 0.000207802 0)
(0.0999967 0.000568416 0)
(0.0999504 0.000828304 0)
(0.0998534 0.000910744 0)
(0.0997227 0.000882679 0)
(0.0995791 0.0008278 0)
(0.0994351 0.000787858 0)
(0.0992962 0.000769998 0)
(0.0991635 0.000768138 0)
(0.0990361 0.000775272 0)
(0.0989126 0.000786914 0)
(0.0987919 0.000800837 0)
(0.098673 0.000816118 0)
(0.0985552 0.000832454 0)
(0.0984379 0.000849792 0)
(0.0983208 0.000868166 0)
(0.0982036 0.000887636 0)
(0.098086 0.000908259 0)
(0.0979678 0.000930083 0)
(0.097849 0.000953142 0)