/*--------------------------------*- C++ -*----------------------------------*\
  =========                 |
  \\      /  F ield         | OpenFOAM: The Open Source CFD Toolbox
   \\    /   O peration     | Website:  https://openfoam.org
    \\  /    A nd           | Version:  7
     \\/     M anipulation  |
\*---------------------------------------------------------------------------*/
FoamFile
{
    version     2.0;
    format      ascii;
    class       volVectorField;
    location    "5.32";
    object      U;
}
// * * * * * * * * * * * * * * * * * * * * * * * * * * * * * * * * * * * * * //

dimensions      [0 1 -1 0 0 0 0];

internalField   nonuniform List<vector> 
12013
(
(0.100681 -0.000186255 0)
(0.103405 -0.000335328 0)
(0.107694 -0.000469831 0)
(0.113152 -0.000591935 0)
(0.119664 -0.000705471 0)
(0.127121 -0.000812855 0)
(0.135431 -0.000915655 0)
(0.144518 -0.00101487 0)
(0.15432 -0.0011109 0)
(0.164777 -0.00120365 0)
(0.175827 -0.00129259 0)
(0.187407 -0.00137686 0)
(0.199447 -0.00145539 0)
(0.211874 -0.00152705 0)
(0.224605 -0.00159073 0)
(0.237558 -0.00164551 0)
(0.250647 -0.00169065 0)
(0.263784 -0.0017257 0)
(0.276888 -0.00175045 0)
(0.289879 -0.00176497 0)
(0.302684 -0.00176956 0)
(0.315237 -0.00176471 0)
(0.327482 -0.00175107 0)
(0.339368 -0.00172939 0)
(0.350854 -0.00170048 0)
(0.36191 -0.0016652 0)
(0.372508 -0.00162441 0)
(0.382633 -0.00157894 0)
(0.392273 -0.00152961 0)
(0.401424 -0.00147719 0)
(0.410085 -0.00142237 0)
(0.418262 -0.0013658 0)
(0.425963 -0.00130808 0)
(0.4332 -0.00124975 0)
(0.439988 -0.00119126 0)
(0.446344 -0.00113301 0)
(0.452286 -0.0010754 0)
(0.457834 -0.00101873 0)
(0.463008 -0.000963238 0)
(0.467831 -0.000909142 0)
(0.472324 -0.000856638 0)
(0.47651 -0.000805874 0)
(0.48041 -0.000756937 0)
(0.484046 -0.000709883 0)
(0.48744 -0.00066475 0)
(0.490613 -0.000621549 0)
(0.493586 -0.000580257 0)
(0.496379 -0.000540807 0)
(0.499011 -0.000503097 0)
(0.501502 -0.000466996 0)
(0.503868 -0.000432345 0)
(0.506127 -0.000398944 0)
(0.508296 -0.00036655 0)
(0.510389 -0.00033487 0)
(0.51242 -0.000303559 0)
(0.514403 -0.000272211 0)
(0.516351 -0.000240354 0)
(0.518272 -0.00020744 0)
(0.520179 -0.000172826 0)
(0.522077 -0.000135755 0)
(0.523975 -9.53401e-05 0)
(0.525876 -5.05333e-05 0)
(0.527785 -7.93678e-08 0)
(0.5297 5.76815e-05 0)
(0.53162 0.000124609 0)
(0.533538 0.000203067 0)
(0.535445 0.000296081 0)
(0.537324 0.000407533 0)
(0.539152 0.000542547 0)
(0.540895 0.000708055 0)
(0.542507 0.000913725 0)
(0.54392 0.00117349 0)
(0.545038 0.00150823 0)
(0.545717 0.00195059 0)
(0.545742 0.00255415 0)
(0.544773 0.00341162 0)
(0.542253 0.00469317 0)
(0.537207 0.00673696 0)
(0.527883 0.0103434 0)
(0.511239 0.0183418 0)
(0.494064 0.0495391 0)
(0.100625 -0.000568096 0)
(0.103338 -0.00102707 0)
(0.10761 -0.00143931 0)
(0.113054 -0.00181298 0)
(0.119555 -0.00216021 0)
(0.127003 -0.00248842 0)
(0.135304 -0.00280241 0)
(0.144386 -0.00310529 0)
(0.154184 -0.00339832 0)
(0.164638 -0.00368121 0)
(0.175688 -0.00395237 0)
(0.187269 -0.00420918 0)
(0.199314 -0.00444842 0)
(0.211746 -0.00466665 0)
(0.224485 -0.00486056 0)
(0.237447 -0.00502731 0)
(0.250546 -0.0051647 0)
(0.263695 -0.00527134 0)
(0.276811 -0.00534667 0)
(0.289815 -0.00539088 0)
(0.302633 -0.00540489 0)
(0.315199 -0.00539021 0)
(0.327456 -0.00534876 0)
(0.339353 -0.00528285 0)
(0.350851 -0.00519494 0)
(0.361916 -0.00508762 0)
(0.372524 -0.0049635 0)
(0.382657 -0.00482513 0)
(0.392304 -0.00467494 0)
(0.401461 -0.00451527 0)
(0.410127 -0.00434826 0)
(0.418307 -0.00417587 0)
(0.426011 -0.00399991 0)
(0.433249 -0.00382197 0)
(0.440037 -0.00364349 0)
(0.446392 -0.00346574 0)
(0.452331 -0.00328981 0)
(0.457875 -0.00311663 0)
(0.463045 -0.00294701 0)
(0.467862 -0.00278163 0)
(0.472347 -0.00262104 0)
(0.476524 -0.00246563 0)
(0.480413 -0.00231572 0)
(0.484038 -0.00217153 0)
(0.487418 -0.00203317 0)
(0.490577 -0.00190065 0)
(0.493533 -0.00177387 0)
(0.496307 -0.00165264 0)
(0.498919 -0.00153666 0)
(0.501386 -0.00142554 0)
(0.503728 -0.0013188 0)
(0.50596 -0.00121581 0)
(0.508098 -0.00111582 0)
(0.510159 -0.00101793 0)
(0.512155 -0.000921074 0)
(0.5141 -0.000824029 0)
(0.516007 -0.000725354 0)
(0.517884 -0.000623368 0)
(0.519743 -0.000516104 0)
(0.521591 -0.000401252 0)
(0.523435 -0.000276096 0)
(0.52528 -0.000137427 0)
(0.527128 1.86375e-05 0)
(0.52898 0.000196943 0)
(0.530835 0.000403165 0)
(0.532685 0.000644417 0)
(0.534524 0.000929694 0)
(0.536335 0.00127053 0)
(0.538099 0.00168201 0)
(0.539786 0.00218442 0)
(0.541356 0.00280565 0)
(0.542752 0.00358534 0)
(0.543895 0.00458168 0)
(0.544678 0.00588327 0)
(0.544944 0.00763049 0)
(0.544479 0.010055 0)
(0.542976 0.0135551 0)
(0.54001 0.0188446 0)
(0.535036 0.0272763 0)
(0.527974 0.0414675 0)
(0.526372 0.0661376 0)
(0.100566 -0.000964519 0)
(0.103247 -0.00176144 0)
(0.107481 -0.00247201 0)
(0.112896 -0.00311579 0)
(0.119373 -0.00371395 0)
(0.1268 -0.00427924 0)
(0.135085 -0.00482006 0)
(0.144155 -0.00534174 0)
(0.153944 -0.00584654 0)
(0.164394 -0.00633395 0)
(0.175443 -0.00680122 0)
(0.187028 -0.00724385 0)
(0.199081 -0.00765628 0)
(0.211524 -0.00803255 0)
(0.224279 -0.00836696 0)
(0.23726 -0.00865456 0)
(0.25038 -0.0088916 0)
(0.263553 -0.00907563 0)
(0.276693 -0.00920568 0)
(0.289722 -0.00928208 0)
(0.302566 -0.00930642 0)
(0.315157 -0.00928127 0)
(0.327438 -0.00920999 0)
(0.339359 -0.0090965 0)
(0.350879 -0.00894508 0)
(0.361964 -0.00876019 0)
(0.37259 -0.0085463 0)
(0.382739 -0.00830782 0)
(0.3924 -0.00804897 0)
(0.401568 -0.00777373 0)
(0.410243 -0.0074858 0)
(0.418431 -0.00718858 0)
(0.42614 -0.00688515 0)
(0.433381 -0.00657827 0)
(0.440169 -0.00627042 0)
(0.446522 -0.00596376 0)
(0.452457 -0.00566016 0)
(0.457995 -0.00536125 0)
(0.463156 -0.00506842 0)
(0.467962 -0.00478281 0)
(0.472434 -0.00450532 0)
(0.476595 -0.00423667 0)
(0.480466 -0.00397742 0)
(0.484069 -0.00372791 0)
(0.487426 -0.00348833 0)
(0.490558 -0.00325866 0)
(0.493484 -0.00303871 0)
(0.496226 -0.00282816 0)
(0.498802 -0.00262652 0)
(0.50123 -0.0024331 0)
(0.503528 -0.00224703 0)
(0.505712 -0.00206721 0)
(0.5078 -0.00189235 0)
(0.509805 -0.0017209 0)
(0.511741 -0.00155105 0)
(0.513622 -0.0013807 0)
(0.515458 -0.00120737 0)
(0.517262 -0.0010282 0)
(0.519041 -0.000839828 0)
(0.520805 -0.000638331 0)
(0.522559 -0.000419111 0)
(0.524309 -0.000176734 0)
(0.526059 9.53882e-05 0)
(0.527808 0.000405153 0)
(0.529556 0.00076207 0)
(0.531299 0.00117786 0)
(0.533031 0.00166716 0)
(0.534738 0.0022486 0)
(0.536407 0.00294621 0)
(0.538015 0.00379169 0)
(0.539532 0.00482777 0)
(0.540921 0.00611343 0)
(0.542133 0.00773208 0)
(0.543108 0.00980478 0)
(0.543779 0.0125115 0)
(0.544079 0.0161259 0)
(0.543973 0.0210706 0)
(0.543533 0.0280038 0)
(0.543115 0.0379562 0)
(0.543808 0.0524442 0)
(0.549369 0.0726831 0)
(0.100505 -0.00137171 0)
(0.103142 -0.00253643 0)
(0.107321 -0.00356742 0)
(0.112692 -0.00450205 0)
(0.119133 -0.00537024 0)
(0.12653 -0.0061906 0)
(0.134791 -0.0069755 0)
(0.143842 -0.00773277 0)
(0.15362 -0.00846569 0)
(0.164063 -0.00917358 0)
(0.175114 -0.00985242 0)
(0.186707 -0.0104957 0)
(0.198774 -0.0110952 0)
(0.211238 -0.0116423 0)
(0.22402 -0.0121286 0)
(0.237032 -0.012547 0)
(0.250187 -0.0128918 0)
(0.263398 -0.0131596 0)
(0.276579 -0.0133489 0)
(0.28965 -0.0134601 0)
(0.302535 -0.0134957 0)
(0.315167 -0.0134592 0)
(0.327487 -0.0133557 0)
(0.339446 -0.0131908 0)
(0.351 -0.0129708 0)
(0.362117 -0.012702 0)
(0.372772 -0.0123912 0)
(0.382946 -0.0120446 0)
(0.392629 -0.0116683 0)
(0.401816 -0.0112683 0)
(0.410506 -0.0108498 0)
(0.418705 -0.0104177 0)
(0.426422 -0.0099766 0)
(0.433668 -0.00953045 0)
(0.440457 -0.00908281 0)
(0.446808 -0.00863682 0)
(0.452738 -0.00819522 0)
(0.458267 -0.00776033 0)
(0.463416 -0.00733412 0)
(0.468206 -0.00691824 0)
(0.47266 -0.00651401 0)
(0.476798 -0.00612249 0)
(0.480644 -0.00574442 0)
(0.484218 -0.00538028 0)
(0.487543 -0.00503027 0)
(0.490638 -0.00469439 0)
(0.493524 -0.00437239 0)
(0.496221 -0.00406378 0)
(0.498748 -0.00376779 0)
(0.501123 -0.0034834 0)
(0.503363 -0.00320933 0)
(0.505485 -0.00294399 0)
(0.507505 -0.00268552 0)
(0.509437 -0.00243167 0)
(0.511295 -0.00217986 0)
(0.513092 -0.00192703 0)
(0.514839 -0.00166966 0)
(0.516547 -0.00140363 0)
(0.518226 -0.00112419 0)
(0.519883 -0.000825797 0)
(0.521525 -0.000501985 0)
(0.523159 -0.000145123 0)
(0.524787 0.000253943 0)
(0.526412 0.000706015 0)
(0.528034 0.00122406 0)
(0.529652 0.00182388 0)
(0.531262 0.00252495 0)
(0.532857 0.00335162 0)
(0.534429 0.00433469 0)
(0.535965 0.00551378 0)
(0.537451 0.00694058 0)
(0.538872 0.00868366 0)
(0.540212 0.0108352 0)
(0.541463 0.0135205 0)
(0.542633 0.016911 0)
(0.54377 0.0212407 0)
(0.544997 0.0268232 0)
(0.546587 0.034061 0)
(0.549069 0.0434203 0)
(0.553366 0.0552825 0)
(0.561066 0.0693395 0)
(0.100443 -0.00178983 0)
(0.103031 -0.00335093 0)
(0.107145 -0.00472571 0)
(0.11246 -0.00597354 0)
(0.118852 -0.00713256 0)
(0.126211 -0.00822764 0)
(0.134441 -0.00927554 0)
(0.14347 -0.0102868 0)
(0.153234 -0.0112659 0)
(0.163674 -0.0122119 0)
(0.174729 -0.0131195 0)
(0.186337 -0.0139798 0)
(0.198428 -0.014782 0)
(0.210926 -0.0155142 0)
(0.223749 -0.0161653 0)
(0.23681 -0.0167255 0)
(0.250019 -0.0171873 0)
(0.263289 -0.017546 0)
(0.276531 -0.0177995 0)
(0.289664 -0.0179486 0)
(0.30261 -0.0179962 0)
(0.315303 -0.0179475 0)
(0.327682 -0.017809 0)
(0.339695 -0.0175883 0)
(0.3513 -0.0172938 0)
(0.362464 -0.0169343 0)
(0.37316 -0.0165183 0)
(0.383371 -0.0160546 0)
(0.393086 -0.0155512 0)
(0.402299 -0.015016 0)
(0.41101 -0.0144561 0)
(0.419226 -0.0138781 0)
(0.426953 -0.0132879 0)
(0.434206 -0.0126909 0)
(0.440997 -0.0120919 0)
(0.447345 -0.011495 0)
(0.453268 -0.0109038 0)
(0.458786 -0.0103214 0)
(0.463919 -0.0097505 0)
(0.468689 -0.00919317 0)
(0.473118 -0.00865119 0)
(0.477229 -0.00812589 0)
(0.481042 -0.00761824 0)
(0.484579 -0.00712885 0)
(0.487862 -0.00665802 0)
(0.490911 -0.0062057 0)
(0.493746 -0.00577153 0)
(0.496388 -0.00535478 0)
(0.498855 -0.00495442 0)
(0.501165 -0.00456906 0)
(0.503334 -0.00419701 0)
(0.505381 -0.00383616 0)
(0.507319 -0.00348401 0)
(0.509164 -0.00313761 0)
(0.510929 -0.00279353 0)
(0.512628 -0.00244777 0)
(0.51427 -0.00209572 0)
(0.515868 -0.00173206 0)
(0.517431 -0.00135065 0)
(0.518966 -0.000944393 0)
(0.520483 -0.000505064 0)
(0.521986 -2.29733e-05 0)
(0.523481 0.000513328 0)
(0.524972 0.00111706 0)
(0.52646 0.00180405 0)
(0.527949 0.00259327 0)
(0.529437 0.0035077 0)
(0.530925 0.00457535 0)
(0.532411 0.00583074 0)
(0.533895 0.0073168 0)
(0.535378 0.00908729 0)
(0.536865 0.01121 0)
(0.53837 0.0137703 0)
(0.539924 0.0168758 0)
(0.541583 0.020659 0)
(0.54345 0.025279 0)
(0.545697 0.0309136 0)
(0.548597 0.0377357 0)
(0.552561 0.0458535 0)
(0.55814 0.0551865 0)
(0.565981 0.0652265 0)
(0.100381 -0.0022195 0)
(0.102922 -0.00420452 0)
(0.106963 -0.00594773 0)
(0.112212 -0.00753262 0)
(0.11855 -0.00900516 0)
(0.125862 -0.0103966 0)
(0.134058 -0.0117284 0)
(0.143063 -0.0130142 0)
(0.152815 -0.0142597 0)
(0.163255 -0.0154638 0)
(0.174323 -0.0166196 0)
(0.185957 -0.0177158 0)
(0.198087 -0.0187385 0)
(0.210636 -0.0196724 0)
(0.223521 -0.020503 0)
(0.236654 -0.0212178 0)
(0.249943 -0.0218072 0)
(0.263297 -0.022265 0)
(0.276627 -0.0225886 0)
(0.289848 -0.0227788 0)
(0.302883 -0.0228395 0)
(0.315662 -0.0227772 0)
(0.328122 -0.0226004 0)
(0.340211 -0.0223188 0)
(0.351887 -0.0219431 0)
(0.363114 -0.0214845 0)
(0.373867 -0.020954 0)
(0.384128 -0.0203627 0)
(0.393885 -0.019721 0)
(0.403133 -0.0190388 0)
(0.411874 -0.0183251 0)
(0.42011 -0.0175884 0)
(0.427853 -0.0168362 0)
(0.435114 -0.0160753 0)
(0.441908 -0.0153117 0)
(0.448252 -0.0145506 0)
(0.454165 -0.0137967 0)
(0.459668 -0.0130538 0)
(0.464781 -0.0123253 0)
(0.469526 -0.0116138 0)
(0.473924 -0.0109215 0)
(0.477999 -0.0102501 0)
(0.481771 -0.00960067 0)
(0.485262 -0.0089741 0)
(0.488494 -0.00837066 0)
(0.491487 -0.00779024 0)
(0.494262 -0.00723232 0)
(0.496837 -0.00669597 0)
(0.499232 -0.00617986 0)
(0.501465 -0.00568224 0)
(0.503552 -0.00520093 0)
(0.50551 -0.00473329 0)
(0.507354 -0.00427616 0)
(0.509099 -0.00382584 0)
(0.510759 -0.00337807 0)
(0.512346 -0.00292791 0)
(0.513872 -0.00246972 0)
(0.515347 -0.001997 0)
(0.516782 -0.00150234 0)
(0.518186 -0.000977206 0)
(0.519567 -0.000411797 0)
(0.520932 0.000205336 0)
(0.522288 0.000887313 0)
(0.52364 0.00164928 0)
(0.524994 0.00250904 0)
(0.526355 0.00348751 0)
(0.527727 0.00460939 0)
(0.529117 0.00590397 0)
(0.530531 0.00740611 0)
(0.531979 0.00915738 0)
(0.533475 0.0112073 0)
(0.535041 0.0136145 0)
(0.536711 0.0164476 0)
(0.538535 0.0197848 0)
(0.540591 0.0237114 0)
(0.54299 0.0283131 0)
(0.545886 0.0336617 0)
(0.549488 0.0397902 0)
(0.554051 0.0466517 0)
(0.559853 0.0540608 0)
(0.56712 0.0616238 0)
(0.100318 -0.00266184 0)
(0.102818 -0.0050977 0)
(0.106784 -0.00723519 0)
(0.111964 -0.00918248 0)
(0.118241 -0.0109932 0)
(0.125505 -0.0127048 0)
(0.133665 -0.0143438 0)
(0.142647 -0.0159271 0)
(0.152391 -0.0174619 0)
(0.162839 -0.0189469 0)
(0.173933 -0.0203734 0)
(0.18561 -0.0217274 0)
(0.197799 -0.0229913 0)
(0.210425 -0.024146 0)
(0.2234 -0.0251735 0)
(0.236636 -0.026058 0)
(0.250037 -0.0267873 0)
(0.26351 -0.0273536 0)
(0.276962 -0.0277537 0)
(0.290306 -0.0279886 0)
(0.303462 -0.0280632 0)
(0.316356 -0.0279856 0)
(0.328926 -0.0277663 0)
(0.341118 -0.0274174 0)
(0.352888 -0.0269523 0)
(0.3642 -0.0263848 0)
(0.375028 -0.0257287 0)
(0.385354 -0.0249975 0)
(0.395166 -0.0242043 0)
(0.40446 -0.0233611 0)
(0.413236 -0.0224793 0)
(0.4215 -0.0215691 0)
(0.429261 -0.0206399 0)
(0.436532 -0.0196999 0)
(0.443327 -0.0187566 0)
(0.449666 -0.0178163 0)
(0.455567 -0.0168847 0)
(0.46105 -0.0159665 0)
(0.466137 -0.0150657 0)
(0.470849 -0.0141856 0)
(0.475209 -0.0133287 0)
(0.479239 -0.0124971 0)
(0.482961 -0.0116923 0)
(0.486396 -0.0109149 0)
(0.489566 -0.0101655 0)
(0.492492 -0.00944376 0)
(0.495194 -0.00874905 0)
(0.497691 -0.00808022 0)
(0.500001 -0.00743562 0)
(0.502144 -0.00681309 0)
(0.504136 -0.00620995 0)
(0.505993 -0.00562298 0)
(0.50773 -0.00504838 0)
(0.509363 -0.00448172 0)
(0.510905 -0.00391793 0)
(0.512369 -0.00335119 0)
(0.513766 -0.00277486 0)
(0.515109 -0.00218141 0)
(0.516407 -0.00156227 0)
(0.51767 -0.000907706 0)
(0.518908 -0.000206667 0)
(0.520129 0.000553579 0)
(0.521342 0.00138719 0)
(0.522554 0.0023105 0)
(0.523774 0.00334225 0)
(0.52501 0.00450389 0)
(0.526272 0.00582002 0)
(0.52757 0.00731878 0)
(0.52892 0.00903233 0)
(0.530337 0.0109971 0)
(0.531846 0.013254 0)
(0.533478 0.0158478 0)
(0.535276 0.0188263 0)
(0.537295 0.0222374 0)
(0.539611 0.0261246 0)
(0.542319 0.0305187 0)
(0.545533 0.0354267 0)
(0.549387 0.0408148 0)
(0.554019 0.0465887 0)
(0.559544 0.0525738 0)
(0.566006 0.058507 0)
(0.100254 -0.00311853 0)
(0.10272 -0.00603199 0)
(0.106615 -0.00859086 0)
(0.111724 -0.0109274 0)
(0.11794 -0.0131029 0)
(0.125156 -0.0151609 0)
(0.133282 -0.0171331 0)
(0.142248 -0.01904 0)
(0.151993 -0.0208902 0)
(0.162462 -0.0226822 0)
(0.173599 -0.0244055 0)
(0.185342 -0.0260428 0)
(0.19762 -0.0275723 0)
(0.210355 -0.0289707 0)
(0.223459 -0.0302154 0)
(0.236838 -0.031287 0)
(0.250394 -0.0321705 0)
(0.264029 -0.0328562 0)
(0.277647 -0.0333401 0)
(0.291156 -0.0336235 0)
(0.304473 -0.0337125 0)
(0.317521 -0.0336168 0)
(0.330236 -0.0333494 0)
(0.342562 -0.0329252 0)
(0.354453 -0.0323605 0)
(0.365874 -0.031672 0)
(0.376797 -0.0308768 0)
(0.387205 -0.0299911 0)
(0.397086 -0.0290306 0)
(0.406436 -0.0280101 0)
(0.415255 -0.0269433 0)
(0.423551 -0.0258424 0)
(0.431333 -0.0247187 0)
(0.438614 -0.0235822 0)
(0.445411 -0.0224416 0)
(0.451741 -0.0213048 0)
(0.457624 -0.0201783 0)
(0.463081 -0.0190677 0)
(0.468134 -0.0179779 0)
(0.472805 -0.0169127 0)
(0.477117 -0.0158751 0)
(0.481092 -0.0148675 0)
(0.484752 -0.0138915 0)
(0.48812 -0.012948 0)
(0.491216 -0.0120375 0)
(0.494061 -0.0111596 0)
(0.496677 -0.0103135 0)
(0.499082 -0.00949777 0)
(0.501295 -0.00871045 0)
(0.503334 -0.00794894 0)
(0.505217 -0.00721006 0)
(0.506959 -0.00649001 0)
(0.508576 -0.00578438 0)
(0.510084 -0.00508804 0)
(0.511495 -0.00439517 0)
(0.512823 -0.00369911 0)
(0.514081 -0.00299238 0)
(0.51528 -0.00226653 0)
(0.516432 -0.00151209 0)
(0.517547 -0.000718434 0)
(0.518635 0.000126328 0)
(0.519708 0.0010355 0)
(0.520774 0.0020238 0)
(0.521844 0.00310786 0)
(0.52293 0.00430625 0)
(0.524042 0.0056396 0)
(0.525194 0.00713073 0)
(0.526402 0.0088047 0)
(0.527684 0.0106887 0)
(0.529062 0.0128118 0)
(0.530564 0.0152042 0)
(0.532225 0.0178959 0)
(0.534088 0.020915 0)
(0.536202 0.0242841 0)
(0.538631 0.0280163 0)
(0.541443 0.0321093 0)
(0.544713 0.0365376 0)
(0.548515 0.0412453 0)
(0.55291 0.0461385 0)
(0.557932 0.0510832 0)
(0.563554 0.0559137 0)
(0.100187 -0.00359185 0)
(0.10263 -0.00700993 0)
(0.106461 -0.0100187 0)
(0.1115 -0.012773 0)
(0.117659 -0.0153422 0)
(0.124831 -0.0177754 0)
(0.13293 -0.0201099 0)
(0.141888 -0.0223697 0)
(0.151649 -0.0245654 0)
(0.162159 -0.026695 0)
(0.173365 -0.0287457 0)
(0.185206 -0.0306965 0)
(0.197611 -0.0325208 0)
(0.2105 -0.0341898 0)
(0.223781 -0.0356761 0)
(0.237356 -0.0369555 0)
(0.251122 -0.0380099 0)
(0.264974 -0.0388273 0)
(0.278812 -0.0394029 0)
(0.292538 -0.0397384 0)
(0.306064 -0.0398411 0)
(0.319311 -0.0397231 0)
(0.332211 -0.0394 0)
(0.344706 -0.0388901 0)
(0.356749 -0.0382128 0)
(0.368305 -0.0373885 0)
(0.379345 -0.0364374 0)
(0.389852 -0.0353793 0)
(0.399816 -0.0342328 0)
(0.409232 -0.0330155 0)
(0.418102 -0.0317435 0)
(0.426434 -0.0304316 0)
(0.434238 -0.029093 0)
(0.441528 -0.0277395 0)
(0.448321 -0.0263815 0)
(0.454637 -0.025028 0)
(0.460496 -0.0236868 0)
(0.465919 -0.0223644 0)
(0.470929 -0.0210665 0)
(0.475548 -0.0197974 0)
(0.4798 -0.0185606 0)
(0.483707 -0.0173589 0)
(0.487292 -0.0161941 0)
(0.490578 -0.0150672 0)
(0.493586 -0.0139786 0)
(0.496337 -0.0129279 0)
(0.498851 -0.0119141 0)
(0.501149 -0.0109354 0)
(0.503249 -0.00998958 0)
(0.50517 -0.00907356 0)
(0.506928 -0.0081837 0)
(0.508541 -0.00731567 0)
(0.510024 -0.00646444 0)
(0.511392 -0.00562426 0)
(0.51266 -0.0047886 0)
(0.51384 -0.00395012 0)
(0.514947 -0.00310063 0)
(0.515992 -0.00223101 0)
(0.516988 -0.00133115 0)
(0.517945 -0.000390013 0)
(0.518877 0.000604798 0)
(0.519795 0.00166641 0)
(0.52071 0.00280957 0)
(0.521634 0.00405038 0)
(0.522582 0.00540624 0)
(0.523567 0.00689582 0)
(0.524604 0.00853891 0)
(0.525713 0.0103562 0)
(0.526913 0.0123689 0)
(0.52823 0.0145979 0)
(0.52969 0.0170629 0)
(0.531327 0.0197807 0)
(0.533178 0.0227637 0)
(0.535283 0.0260169 0)
(0.537687 0.0295349 0)
(0.540436 0.0332986 0)
(0.543571 0.0372719 0)
(0.547127 0.0413986 0)
(0.551122 0.0456021 0)
(0.55555 0.0497879 0)
(0.560366 0.0538549 0)
(0.100117 -0.00408452 0)
(0.102548 -0.00803509 0)
(0.106324 -0.0115241 0)
(0.111301 -0.0147267 0)
(0.117407 -0.0177209 0)
(0.124543 -0.0205612 0)
(0.132626 -0.0232905 0)
(0.141591 -0.025937 0)
(0.151388 -0.0285131 0)
(0.161967 -0.0310163 0)
(0.173277 -0.0334311 0)
(0.185259 -0.0357318 0)
(0.197842 -0.0378858 0)
(0.210943 -0.0398581 0)
(0.224464 -0.0416148 0)
(0.238302 -0.0431266 0)
(0.252346 -0.044371 0)
(0.266484 -0.0453338 0)
(0.280607 -0.0460093 0)
(0.294611 -0.0463996 0)
(0.308403 -0.0465138 0)
(0.321899 -0.0463667 0)
(0.335029 -0.0459773 0)
(0.347732 -0.0453676 0)
(0.35996 -0.0445611 0)
(0.371677 -0.043582 0)
(0.382856 -0.0424545 0)
(0.393479 -0.041202 0)
(0.403537 -0.0398465 0)
(0.413027 -0.0384088 0)
(0.421952 -0.0369079 0)
(0.430321 -0.035361 0)
(0.438145 -0.0337836 0)
(0.44544 -0.0321893 0)
(0.452225 -0.0305903 0)
(0.458518 -0.0289969 0)
(0.464343 -0.0274182 0)
(0.46972 -0.0258617 0)
(0.474674 -0.0243337 0)
(0.479228 -0.0228393 0)
(0.483406 -0.0213825 0)
(0.48723 -0.0199663 0)
(0.490725 -0.0185927 0)
(0.493913 -0.0172629 0)
(0.496816 -0.0159772 0)
(0.499456 -0.014735 0)
(0.501852 -0.0135352 0)
(0.504026 -0.0123758 0)
(0.505997 -0.011254 0)
(0.507783 -0.0101665 0)
(0.509401 -0.00910916 0)
(0.510869 -0.00807709 0)
(0.512202 -0.00706474 0)
(0.513416 -0.00606578 0)
(0.514526 -0.00507314 0)
(0.515546 -0.00407892 0)
(0.516489 -0.00307443 0)
(0.517369 -0.00205013 0)
(0.518198 -0.00099565 0)
(0.51899 0.000100096 0)
(0.519757 0.00124926 0)
(0.520512 0.00246471 0)
(0.521269 0.00376052 0)
(0.522041 0.00515151 0)
(0.522843 0.00665315 0)
(0.523691 0.00828137 0)
(0.524602 0.0100523 0)
(0.525594 0.0119818 0)
(0.52669 0.0140848 0)
(0.527911 0.0163749 0)
(0.529284 0.0188626 0)
(0.530836 0.021555 0)
(0.532596 0.0244534 0)
(0.534594 0.0275523 0)
(0.536859 0.0308372 0)
(0.539417 0.0342837 0)
(0.542287 0.0378557 0)
(0.54548 0.0415061 0)
(0.548992 0.0451775 0)
(0.552804 0.0488062 0)
(0.556869 0.0523312 0)
(0.100041 -0.00459963 0)
(0.102472 -0.00911211 0)
(0.106205 -0.0131136 0)
(0.111129 -0.0167975 0)
(0.117193 -0.0202509 0)
(0.124305 -0.0235338 0)
(0.132387 -0.0266951 0)
(0.141381 -0.0297674 0)
(0.151242 -0.0327651 0)
(0.161927 -0.035685 0)
(0.173388 -0.0385083 0)
(0.185569 -0.0412032 0)
(0.198398 -0.0437298 0)
(0.211785 -0.0460448 0)
(0.225629 -0.0481065 0)
(0.239814 -0.0498791 0)
(0.25422 -0.0513353 0)
(0.268724 -0.0524581 0)
(0.283208 -0.0532408 0)
(0.29756 -0.0536866 0)
(0.31168 -0.053807 0)
(0.32548 -0.0536202 0)
(0.338886 -0.0531493 0)
(0.351836 -0.052421 0)
(0.36428 -0.0514633 0)
(0.376184 -0.0503053 0)
(0.387519 -0.0489756 0)
(0.398272 -0.0475016 0)
(0.408432 -0.0459094 0)
(0.417999 -0.0442231 0)
(0.426979 -0.0424648 0)
(0.435381 -0.0406546 0)
(0.44322 -0.0388102 0)
(0.450511 -0.0369474 0)
(0.457276 -0.03508 0)
(0.463535 -0.0332201 0)
(0.469311 -0.0313777 0)
(0.474629 -0.0295615 0)
(0.479511 -0.0277785 0)
(0.483983 -0.0260346 0)
(0.48807 -0.0243341 0)
(0.491794 -0.0226803 0)
(0.495181 -0.0210756 0)
(0.498253 -0.019521 0)
(0.501032 -0.0180168 0)
(0.503542 -0.0165626 0)
(0.505803 -0.0151566 0)
(0.507835 -0.0137969 0)
(0.509658 -0.0124801 0)
(0.511292 -0.0112027 0)
(0.512753 -0.00996001 0)
(0.514059 -0.00874673 0)
(0.515227 -0.00755683 0)
(0.516272 -0.00638353 0)
(0.51721 -0.00521932 0)
(0.518055 -0.00405598 0)
(0.518823 -0.0028845 0)
(0.519526 -0.0016952 0)
(0.520177 -0.000477992 0)
(0.520793 0.000778293 0)
(0.521386 0.00208479 0)
(0.52197 0.00345393 0)
(0.522559 0.00489856 0)
(0.523168 0.00643171 0)
(0.523812 0.00806648 0)
(0.524508 0.00981577 0)
(0.525273 0.0116919 0)
(0.526126 0.013706 0)
(0.527085 0.0158679 0)
(0.528172 0.0181847 0)
(0.529408 0.0206605 0)
(0.530814 0.0232955 0)
(0.532411 0.0260848 0)
(0.534219 0.0290179 0)
(0.536255 0.0320775 0)
(0.53853 0.0352397 0)
(0.541051 0.0384738 0)
(0.543816 0.0417432 0)
(0.546811 0.0450072 0)
(0.550014 0.0482238 0)
(0.553383 0.0513564 0)
(0.0999591 -0.00514069 0)
(0.102404 -0.0102467 0)
(0.106108 -0.0147956 0)
(0.110988 -0.0189967 0)
(0.117023 -0.0229471 0)
(0.124128 -0.0267127 0)
(0.132231 -0.0303486 0)
(0.141282 -0.0338926 0)
(0.151245 -0.0373615 0)
(0.162086 -0.040751 0)
(0.173763 -0.0440374 0)
(0.18622 -0.0471813 0)
(0.199382 -0.0501329 0)
(0.213154 -0.0528383 0)
(0.227421 -0.0552461 0)
(0.242056 -0.0573121 0)
(0.256923 -0.0590035 0)
(0.271886 -0.0603003 0)
(0.286816 -0.0611953 0)
(0.301591 -0.0616933 0)
(0.316104 -0.0618094 0)
(0.330263 -0.0615662 0)
(0.343988 -0.0609923 0)
(0.357219 -0.0601197 0)
(0.369906 -0.0589823 0)
(0.382013 -0.0576146 0)
(0.393517 -0.0560503 0)
(0.404404 -0.0543216 0)
(0.414667 -0.0524589 0)
(0.424309 -0.0504901 0)
(0.433336 -0.0484408 0)
(0.441762 -0.0463339 0)
(0.449603 -0.0441897 0)
(0.456876 -0.0420263 0)
(0.463606 -0.0398592 0)
(0.469813 -0.037702 0)
(0.475524 -0.0355662 0)
(0.480762 -0.0334613 0)
(0.485553 -0.0313953 0)
(0.489924 -0.0293745 0)
(0.493899 -0.0274037 0)
(0.497503 -0.0254867 0)
(0.500761 -0.0236258 0)
(0.503696 -0.0218222 0)
(0.506333 -0.0200762 0)
(0.508693 -0.018387 0)
(0.510799 -0.0167529 0)
(0.51267 -0.0151714 0)
(0.514327 -0.0136391 0)
(0.51579 -0.0121519 0)
(0.517076 -0.0107048 0)
(0.518204 -0.0092921 0)
(0.519191 -0.00790745 0)
(0.520052 -0.00654373 0)
(0.520804 -0.00519316 0)
(0.521461 -0.00384731 0)
(0.52204 -0.00249715 0)
(0.522553 -0.00113318 0)
(0.523017 0.000254343 0)
(0.523446 0.00167562 0)
(0.523853 0.00314152 0)
(0.524254 0.00466337 0)
(0.524664 0.00625242 0)
(0.525096 0.00791968 0)
(0.525567 0.00967579 0)
(0.526092 0.0115307 0)
(0.526689 0.0134931 0)
(0.527373 0.0155705 0)
(0.528163 0.0177681 0)
(0.529074 0.0200889 0)
(0.530124 0.0225326 0)
(0.531328 0.0250955 0)
(0.532701 0.02777 0)
(0.534253 0.030544 0)
(0.535994 0.0334013 0)
(0.537926 0.0363214 0)
(0.540048 0.03928 0)
(0.542352 0.0422502 0)
(0.544823 0.0452041 0)
(0.547438 0.0481141 0)
(0.550164 0.0509589 0)
(0.0998688 -0.00571159 0)
(0.102341 -0.011446 0)
(0.106032 -0.0165801 0)
(0.110883 -0.0213381 0)
(0.116905 -0.0258277 0)
(0.124025 -0.0301218 0)
(0.132176 -0.0342824 0)
(0.141323 -0.0383534 0)
(0.151442 -0.0423544 0)
(0.162507 -0.046279 0)
(0.174484 -0.0500969 0)
(0.187318 -0.053758 0)
(0.200929 -0.057199 0)
(0.215207 -0.0603522 0)
(0.230021 -0.0631533 0)
(0.245226 -0.0655484 0)
(0.260667 -0.0674983 0)
(0.276191 -0.0689799 0)
(0.291655 -0.0699869 0)
(0.306927 -0.0705271 0)
(0.321893 -0.0706203 0)
(0.336457 -0.0702955 0)
(0.350537 -0.069588 0)
(0.364073 -0.0685367 0)
(0.377016 -0.0671825 0)
(0.389335 -0.065566 0)
(0.401007 -0.0637271 0)
(0.412023 -0.0617032 0)
(0.422379 -0.0595294 0)
(0.432082 -0.0572381 0)
(0.441141 -0.0548582 0)
(0.449572 -0.0524158 0)
(0.457394 -0.0499341 0)
(0.464629 -0.0474333 0)
(0.4713 -0.0449309 0)
(0.477434 -0.0424419 0)
(0.483055 -0.0399791 0)
(0.488191 -0.0375531 0)
(0.492868 -0.0351726 0)
(0.497114 -0.0328446 0)
(0.500954 -0.0305743 0)
(0.504415 -0.0283656 0)
(0.507523 -0.026221 0)
(0.5103 -0.0241418 0)
(0.512773 -0.0221282 0)
(0.514963 -0.0201792 0)
(0.516893 -0.018293 0)
(0.518584 -0.0164667 0)
(0.520057 -0.0146967 0)
(0.521331 -0.0129786 0)
(0.522426 -0.0113069 0)
(0.52336 -0.00967583 0)
(0.524149 -0.00807865 0)
(0.524812 -0.00650804 0)
(0.525364 -0.00495612 0)
(0.525821 -0.00341439 0)
(0.526198 -0.00187403 0)
(0.52651 -0.000326592 0)
(0.526776 0.00123799 0)
(0.527006 0.00282874 0)
(0.527217 0.00445596 0)
(0.527423 0.00612961 0)
(0.527638 0.00785921 0)
(0.527879 0.00965383 0)
(0.528158 0.0115218 0)
(0.528492 0.0134704 0)
(0.528895 0.0155056 0)
(0.529383 0.0176318 0)
(0.529968 0.0198514 0)
(0.530665 0.0221645 0)
(0.531486 0.0245685 0)
(0.532442 0.0270581 0)
(0.533541 0.0296252 0)
(0.53479 0.0322586 0)
(0.53619 0.0349444 0)
(0.537742 0.0376664 0)
(0.539439 0.0404065 0)
(0.541271 0.0431458 0)
(0.543225 0.0458652 0)
(0.54528 0.0485472 0)
(0.547412 0.0511795 0)
(0.0997684 -0.00631677 0)
(0.102283 -0.0127183 0)
(0.105978 -0.0184795 0)
(0.110818 -0.0238387 0)
(0.116848 -0.0289157 0)
(0.124009 -0.0337913 0)
(0.132248 -0.0385367 0)
(0.141544 -0.043203 0)
(0.151888 -0.0478123 0)
(0.16327 -0.0523552 0)
(0.175661 -0.0567911 0)
(0.189005 -0.0610543 0)
(0.203207 -0.065063 0)
(0.218139 -0.0687307 0)
(0.233645 -0.0719773 0)
(0.249554 -0.0747373 0)
(0.265688 -0.0769648 0)
(0.281875 -0.0786353 0)
(0.297955 -0.0797445 0)
(0.313789 -0.0803056 0)
(0.329255 -0.0803459 0)
(0.344254 -0.0799024 0)
(0.358708 -0.0790193 0)
(0.372555 -0.0777439 0)
(0.385753 -0.0761253 0)
(0.398273 -0.0742115 0)
(0.410098 -0.0720489 0)
(0.421222 -0.0696812 0)
(0.431648 -0.0671486 0)
(0.441385 -0.0644878 0)
(0.450447 -0.0617318 0)
(0.458855 -0.0589098 0)
(0.46663 -0.0560478 0)
(0.473796 -0.0531683 0)
(0.48038 -0.0502906 0)
(0.486411 -0.0474313 0)
(0.491915 -0.0446045 0)
(0.496921 -0.0418216 0)
(0.501457 -0.0390922 0)
(0.505552 -0.0364237 0)
(0.509233 -0.0338217 0)
(0.512527 -0.0312904 0)
(0.51546 -0.0288324 0)
(0.518058 -0.0264489 0)
(0.520345 -0.02414 0)
(0.522344 -0.0219046 0)
(0.524079 -0.0197407 0)
(0.525572 -0.0176452 0)
(0.526843 -0.0156141 0)
(0.527913 -0.0136427 0)
(0.528801 -0.0117255 0)
(0.529525 -0.00985634 0)
(0.530104 -0.00802834 0)
(0.530555 -0.00623411 0)
(0.530895 -0.00446574 0)
(0.53114 -0.00271493 0)
(0.531305 -0.000973648 0)
(0.531409 0.000766987 0)
(0.531464 0.00251492 0)
(0.531485 0.00427982 0)
(0.531487 0.00607075 0)
(0.531486 0.0078962 0)
(0.531494 0.00976411 0)
(0.531526 0.0116818 0)
(0.531596 0.0136555 0)
(0.531718 0.0156907 0)
(0.531904 0.0177912 0)
(0.532166 0.0199593 0)
(0.532517 0.0221957 0)
(0.532967 0.024499 0)
(0.533524 0.0268659 0)
(0.534196 0.029291 0)
(0.534987 0.0317668 0)
(0.535899 0.0342841 0)
(0.536933 0.036832 0)
(0.538085 0.0393984 0)
(0.539347 0.0419704 0)
(0.540712 0.0445351 0)
(0.542165 0.0470797 0)
(0.543692 0.0495931 0)
(0.545272 0.0520692 0)
(0.0996557 -0.00696133 0)
(0.102229 -0.0140737 0)
(0.10595 -0.0205089 0)
(0.110797 -0.0265197 0)
(0.11686 -0.0322396 0)
(0.1241 -0.0377605 0)
(0.132478 -0.0431646 0)
(0.141993 -0.0485122 0)
(0.152661 -0.0538279 0)
(0.164484 -0.0590957 0)
(0.17744 -0.0642589 0)
(0.19146 -0.0692289 0)
(0.206428 -0.0738976 0)
(0.222186 -0.0781542 0)
(0.238542 -0.0818991 0)
(0.255294 -0.0850543 0)
(0.272235 -0.0875687 0)
(0.289173 -0.0894185 0)
(0.305935 -0.0906052 0)
(0.322372 -0.0911504 0)
(0.33836 -0.0910918 0)
(0.353801 -0.0904775 0)
(0.36862 -0.0893626 0)
(0.382761 -0.0878047 0)
(0.396187 -0.0858623 0)
(0.408876 -0.083592 0)
(0.420818 -0.0810476 0)
(0.432012 -0.0782792 0)
(0.442467 -0.0753324 0)
(0.452198 -0.0722488 0)
(0.461224 -0.0690652 0)
(0.469568 -0.0658143 0)
(0.477256 -0.0625246 0)
(0.484316 -0.0592208 0)
(0.490778 -0.0559242 0)
(0.49667 -0.0526528 0)
(0.502024 -0.0494217 0)
(0.506868 -0.0462434 0)
(0.511234 -0.043128 0)
(0.515151 -0.0400833 0)
(0.518646 -0.0371155 0)
(0.521748 -0.0342286 0)
(0.524484 -0.0314254 0)
(0.52688 -0.0287071 0)
(0.528961 -0.0260736 0)
(0.530751 -0.0235238 0)
(0.532274 -0.0210553 0)
(0.533551 -0.0186649 0)
(0.534606 -0.0163484 0)
(0.535457 -0.0141008 0)
(0.536125 -0.0119164 0)
(0.536629 -0.00978904 0)
(0.536987 -0.00771166 0)
(0.537217 -0.00567692 0)
(0.537335 -0.00367703 0)
(0.537359 -0.00170422 0)
(0.537306 0.000249189 0)
(0.537191 0.00219139 0)
(0.537027 0.00413059 0)
(0.53683 0.00607538 0)
(0.536615 0.00803364 0)
(0.536395 0.0100126 0)
(0.536183 0.012019 0)
(0.535994 0.0140586 0)
(0.535838 0.0161364 0)
(0.535729 0.0182561 0)
(0.535677 0.0204204 0)
(0.535693 0.0226304 0)
(0.535786 0.024886 0)
(0.535963 0.0271853 0)
(0.536231 0.0295253 0)
(0.536594 0.0319012 0)
(0.537055 0.0343071 0)
(0.537613 0.0367359 0)
(0.538268 0.0391796 0)
(0.539014 0.0416296 0)
(0.539846 0.0440772 0)
(0.540755 0.0465137 0)
(0.541731 0.048931 0)
(0.542761 0.0513224 0)
(0.543831 0.0536852 0)
(0.0995282 -0.00765123 0)
(0.10218 -0.0155247 0)
(0.105948 -0.0226869 0)
(0.110828 -0.0294075 0)
(0.116958 -0.0358367 0)