/*--------------------------------*- C++ -*----------------------------------*\
  =========                 |
  \\      /  F ield         | OpenFOAM: The Open Source CFD Toolbox
   \\    /   O peration     | Website:  https://openfoam.org
    \\  /    A nd           | Version:  7
     \\/     M anipulation  |
\*---------------------------------------------------------------------------*/
FoamFile
{
    version     2.0;
    format      ascii;
    class       volVectorField;
    location    "6.11";
    object      U;
}
// * * * * * * * * * * * * * * * * * * * * * * * * * * * * * * * * * * * * * //

dimensions      [0 1 -1 0 0 0 0];

internalField   nonuniform List<vector> 
12013
(
(0.100775 -0.000209608 0)
(0.103827 -0.000370238 0)
(0.108539 -0.000512117 0)
(0.114466 -0.000639167 0)
(0.121479 -0.000756239 0)
(0.129456 -0.000866689 0)
(0.138305 -0.000973015 0)
(0.14796 -0.00107709 0)
(0.15837 -0.00118012 0)
(0.169497 -0.00128258 0)
(0.181302 -0.00138428 0)
(0.193745 -0.00148438 0)
(0.206777 -0.00158154 0)
(0.220339 -0.00167406 0)
(0.234359 -0.00176009 0)
(0.248756 -0.00183785 0)
(0.263438 -0.00190575 0)
(0.278308 -0.00196254 0)
(0.293265 -0.00200733 0)
(0.308212 -0.00203968 0)
(0.323053 -0.00205949 0)
(0.337699 -0.00206702 0)
(0.35207 -0.00206281 0)
(0.366093 -0.00204761 0)
(0.379708 -0.00202229 0)
(0.392863 -0.00198785 0)
(0.405517 -0.0019453 0)
(0.417637 -0.00189567 0)
(0.429201 -0.00183998 0)
(0.440191 -0.00177915 0)
(0.4506 -0.00171409 0)
(0.460425 -0.00164562 0)
(0.469669 -0.00157449 0)
(0.478339 -0.00150137 0)
(0.486446 -0.00142686 0)
(0.494004 -0.00135153 0)
(0.50103 -0.00127583 0)
(0.507543 -0.00120017 0)
(0.513564 -0.00112491 0)
(0.519115 -0.00105038 0)
(0.524218 -0.000976835 0)
(0.528897 -0.000904497 0)
(0.533175 -0.000833543 0)
(0.537078 -0.000764128 0)
(0.54063 -0.000696368 0)
(0.543854 -0.000630341 0)
(0.546775 -0.000566088 0)
(0.549416 -0.00050362 0)
(0.551802 -0.000442915 0)
(0.553954 -0.000383918 0)
(0.555894 -0.000326531 0)
(0.557646 -0.000270616 0)
(0.559229 -0.000215987 0)
(0.560663 -0.000162413 0)
(0.561969 -0.000109608 0)
(0.563163 -5.72288e-05 0)
(0.564264 -4.87158e-06 0)
(0.565287 4.79396e-05 0)
(0.566247 0.000101786 0)
(0.567159 0.000157354 0)
(0.568035 0.000215515 0)
(0.568884 0.000277309 0)
(0.569716 0.000343999 0)
(0.570536 0.000417134 0)
(0.571346 0.000498627 0)
(0.572147 0.000590876 0)
(0.572932 0.000696929 0)
(0.57369 0.000820726 0)
(0.574404 0.000967475 0)
(0.575043 0.00114422 0)
(0.575564 0.00136079 0)
(0.575905 0.00163132 0)
(0.575971 0.00197696 0)
(0.575622 0.00243075 0)
(0.574645 0.00304686 0)
(0.5727 0.00391896 0)
(0.569233 0.00521895 0)
(0.563262 0.0072884 0)
(0.553027 0.0109353 0)
(0.535449 0.0190294 0)
(0.51758 0.0510293 0)
(0.100708 -0.000638893 0)
(0.103745 -0.00113358 0)
(0.108434 -0.00156831 0)
(0.114343 -0.00195698 0)
(0.121339 -0.00231491 0)
(0.129302 -0.00265236 0)
(0.138139 -0.002977 0)
(0.147783 -0.00329461 0)
(0.158184 -0.00360885 0)
(0.169304 -0.00392125 0)
(0.181105 -0.00423121 0)
(0.193547 -0.0045362 0)
(0.206582 -0.00483211 0)
(0.22015 -0.00511378 0)
(0.23418 -0.00537564 0)
(0.24859 -0.00561226 0)
(0.263289 -0.00581883 0)
(0.278178 -0.00599157 0)
(0.293158 -0.00612785 0)
(0.308129 -0.00622627 0)
(0.322995 -0.0062866 0)
(0.337667 -0.00630962 0)
(0.352064 -0.00629697 0)
(0.366113 -0.00625089 0)
(0.379754 -0.00617409 0)
(0.392933 -0.00606954 0)
(0.40561 -0.00594033 0)
(0.417752 -0.00578957 0)
(0.429335 -0.00562027 0)
(0.440344 -0.00543532 0)
(0.45077 -0.00523742 0)
(0.46061 -0.00502905 0)
(0.469867 -0.00481249 0)
(0.478549 -0.00458979 0)
(0.486665 -0.00436279 0)
(0.494232 -0.00413311 0)
(0.501265 -0.0039022 0)
(0.507783 -0.00367132 0)
(0.513807 -0.00344158 0)
(0.519359 -0.00321393 0)
(0.524462 -0.00298916 0)
(0.52914 -0.00276796 0)
(0.533415 -0.0025509 0)
(0.537313 -0.00233844 0)
(0.540858 -0.00213092 0)
(0.544074 -0.00192858 0)
(0.546984 -0.00173155 0)
(0.549614 -0.00153989 0)
(0.551985 -0.00135352 0)
(0.55412 -0.00117227 0)
(0.556043 -0.000995831 0)
(0.557773 -0.000823789 0)
(0.559333 -0.000655581 0)
(0.560741 -0.000490498 0)
(0.562018 -0.000327663 0)
(0.563181 -0.00016602 0)
(0.564247 -4.35354e-06 0)
(0.565232 0.000158847 0)
(0.566151 0.000325245 0)
(0.567019 0.000496977 0)
(0.567847 0.000676655 0)
(0.568645 0.000867441 0)
(0.569422 0.00107316 0)
(0.570184 0.00129849 0)
(0.570934 0.00154919 0)
(0.571672 0.00183245 0)
(0.572393 0.00215736 0)
(0.573089 0.0025356 0)
(0.573742 0.00298252 0)
(0.574328 0.00351867 0)
(0.574811 0.00417239 0)
(0.575136 0.00498384 0)
(0.575231 0.00601194 0)
(0.574987 0.00734632 0)
(0.574253 0.00912879 0)
(0.572814 0.0115933 0)
(0.570366 0.015142 0)
(0.566481 0.0204963 0)
(0.560615 0.0290248 0)
(0.552677 0.0433896 0)
(0.550396 0.0684946 0)
(0.100634 -0.0010832 0)
(0.103629 -0.00194271 0)
(0.108269 -0.00269207 0)
(0.114137 -0.0033617 0)
(0.121099 -0.00397827 0)
(0.129032 -0.00455944 0)
(0.137843 -0.00511853 0)
(0.147464 -0.00566556 0)
(0.157848 -0.00620691 0)
(0.168955 -0.00674524 0)
(0.180749 -0.00727957 0)
(0.19319 -0.00780554 0)
(0.206231 -0.00831606 0)
(0.219813 -0.00880223 0)
(0.233865 -0.00925438 0)
(0.248304 -0.00966311 0)
(0.263038 -0.0100201 0)
(0.277969 -0.0103187 0)
(0.292995 -0.0105545 0)
(0.308016 -0.0107249 0)
(0.322935 -0.0108296 0)
(0.337661 -0.0108699 0)
(0.352111 -0.0108486 0)
(0.366214 -0.0107695 0)
(0.379906 -0.0106375 0)
(0.393135 -0.0104575 0)
(0.405859 -0.0102349 0)
(0.418045 -0.00997508 0)
(0.429669 -0.00968328 0)
(0.440716 -0.00936444 0)
(0.451176 -0.00902323 0)
(0.461047 -0.00866394 0)
(0.470331 -0.00829048 0)
(0.479036 -0.00790639 0)
(0.487173 -0.00751485 0)
(0.494757 -0.00711865 0)
(0.501803 -0.00672028 0)
(0.508332 -0.00632192 0)
(0.514364 -0.00592546 0)
(0.51992 -0.00553252 0)
(0.525025 -0.00514448 0)
(0.5297 -0.00476254 0)
(0.533971 -0.00438765 0)
(0.537861 -0.00402057 0)
(0.541395 -0.00366189 0)
(0.544596 -0.00331201 0)
(0.54749 -0.00297118 0)
(0.550098 -0.00263944 0)
(0.552445 -0.00231667 0)
(0.554553 -0.00200255 0)
(0.556443 -0.00169654 0)
(0.558138 -0.00139792 0)
(0.559658 -0.00110572 0)
(0.561023 -0.000818692 0)
(0.562251 -0.000535327 0)
(0.56336 -0.000253789 0)
(0.564368 2.80087e-05 0)
(0.565291 0.000312562 0)
(0.566142 0.00060277 0)
(0.566936 0.000902274 0)
(0.567686 0.00121549 0)
(0.5684 0.00154775 0)
(0.569089 0.00190546 0)
(0.569759 0.00229643 0)
(0.570413 0.00273022 0)
(0.571053 0.00321867 0)
(0.571677 0.0037766 0)
(0.572278 0.00442289 0)
(0.572845 0.00518195 0)
(0.573359 0.00608599 0)
(0.573797 0.00717842 0)
(0.574122 0.00851909 0)
(0.574291 0.0101926 0)
(0.574247 0.0123216 0)
(0.573924 0.0150882 0)
(0.573258 0.0187693 0)
(0.572216 0.0237924 0)
(0.570874 0.0308237 0)
(0.569595 0.0409071 0)
(0.569479 0.0555891 0)
(0.574341 0.0761761 0)
(0.100556 -0.00153736 0)
(0.103494 -0.00279429 0)
(0.108062 -0.00388169 0)
(0.11387 -0.00485392 0)
(0.120779 -0.00574884 0)
(0.128666 -0.00659221 0)
(0.137437 -0.00740358 0)
(0.147026 -0.00819764 0)
(0.157383 -0.00898375 0)
(0.168473 -0.0097659 0)
(0.180258 -0.0105427 0)
(0.192701 -0.0113079 0)
(0.205756 -0.0120511 0)
(0.219365 -0.0127593 0)
(0.233455 -0.0134184 0)
(0.247945 -0.0140145 0)
(0.262741 -0.0145354 0)
(0.277743 -0.0149714 0)
(0.292847 -0.0153158 0)
(0.307952 -0.015565 0)
(0.322957 -0.0157184 0)
(0.337772 -0.0157778 0)
(0.352311 -0.0157475 0)
(0.3665 -0.015633 0)
(0.380276 -0.0154412 0)
(0.393585 -0.0151797 0)
(0.406384 -0.0148561 0)
(0.41864 -0.0144783 0)
(0.430329 -0.0140539 0)
(0.441435 -0.0135902 0)
(0.451948 -0.013094 0)
(0.461866 -0.0125714 0)
(0.471193 -0.0120283 0)
(0.479934 -0.0114697 0)
(0.488102 -0.0109003 0)
(0.495712 -0.0103241 0)
(0.502779 -0.0097447 0)
(0.509324 -0.00916526 0)
(0.515367 -0.00858852 0)
(0.520931 -0.00801683 0)
(0.526037 -0.00745219 0)
(0.530711 -0.00689627 0)
(0.534975 -0.00635044 0)
(0.538855 -0.00581579 0)
(0.542374 -0.00529318 0)
(0.545556 -0.00478315 0)
(0.548425 -0.00428603 0)
(0.551006 -0.00380186 0)
(0.55332 -0.00333044 0)
(0.55539 -0.00287127 0)
(0.557238 -0.00242359 0)
(0.558886 -0.00198632 0)
(0.560354 -0.00155802 0)
(0.56166 -0.00113689 0)
(0.562825 -0.00072073 0)
(0.563866 -0.000306881 0)
(0.564799 0.000107633 0)
(0.565641 0.000526227 0)
(0.566407 0.000953141 0)
(0.567109 0.00139354 0)
(0.567762 0.00185365 0)
(0.568374 0.0023409 0)
(0.568956 0.0028642 0)
(0.569516 0.00343427 0)
(0.570058 0.00406416 0)
(0.570587 0.00476979 0)
(0.571102 0.00557091 0)
(0.571603 0.0064922 0)
(0.572084 0.00756497 0)
(0.572538 0.0088295 0)
(0.572955 0.0103384 0)
(0.573323 0.0121613 0)
(0.57363 0.014392 0)
(0.57387 0.0171575 0)
(0.574056 0.0206317 0)
(0.574237 0.0250519 0)
(0.574541 0.0307359 0)
(0.575245 0.0380914 0)
(0.576882 0.0475912 0)
(0.580382 0.0596269 0)
(0.58735 0.073919 0)
(0.100477 -0.00200081 0)
(0.10335 -0.00368592 0)
(0.107831 -0.00513597 0)
(0.11356 -0.00643403 0)
(0.120401 -0.00762872 0)
(0.128228 -0.00875443 0)
(0.136948 -0.00983759 0)
(0.146494 -0.010898 0)
(0.15682 -0.0119485 0)
(0.167889 -0.0129945 0)
(0.179669 -0.0140343 0)
(0.192122 -0.0150595 0)
(0.205204 -0.0160562 0)
(0.218858 -0.0170069 0)
(0.233013 -0.0178922 0)
(0.247585 -0.0186935 0)
(0.262478 -0.0193942 0)
(0.277591 -0.019981 0)
(0.292816 -0.0204448 0)
(0.308049 -0.0207807 0)
(0.323186 -0.0209878 0)
(0.338133 -0.0210686 0)
(0.352804 -0.0210288 0)
(0.36712 -0.020876 0)
(0.381018 -0.0206193 0)
(0.394442 -0.0202691 0)
(0.407349 -0.0198356 0)
(0.419705 -0.0193296 0)
(0.431485 -0.0187611 0)
(0.442673 -0.0181401 0)
(0.45326 -0.0174755 0)
(0.463243 -0.0167758 0)
(0.472626 -0.0160486 0)
(0.481417 -0.0153007 0)
(0.489627 -0.0145383 0)
(0.49727 -0.0137669 0)
(0.504365 -0.0129913 0)
(0.51093 -0.0122155 0)
(0.516987 -0.0114433 0)
(0.522559 -0.0106778 0)
(0.527667 -0.00992148 0)
(0.532337 -0.0091767 0)
(0.536593 -0.00844522 0)
(0.540457 -0.00772847 0)
(0.543956 -0.00702753 0)
(0.547113 -0.00634311 0)
(0.549952 -0.00567558 0)
(0.552496 -0.00502499 0)
(0.554769 -0.00439103 0)
(0.556792 -0.00377303 0)
(0.558588 -0.00316994 0)
(0.560177 -0.00258029 0)
(0.561581 -0.00200215 0)
(0.562818 -0.00143314 0)
(0.563907 -0.000870331 0)
(0.564866 -0.000310249 0)
(0.565712 0.0002509 0)
(0.56646 0.000817559 0)
(0.567126 0.00139524 0)
(0.567724 0.00199061 0)
(0.568267 0.00261159 0)
(0.568766 0.00326753 0)
(0.569232 0.00396956 0)
(0.569673 0.00473093 0)
(0.570097 0.00556752 0)
(0.570511 0.00649846 0)
(0.570919 0.007547 0)
(0.571327 0.00874158 0)
(0.571736 0.0101173 0)
(0.57215 0.0117179 0)
(0.572575 0.0135982 0)
(0.573021 0.0158271 0)
(0.573503 0.0184916 0)
(0.574057 0.0217011 0)
(0.574742 0.0255905 0)
(0.575664 0.0303213 0)
(0.576998 0.0360743 0)
(0.57902 0.0430249 0)
(0.582144 0.0512842 0)
(0.586923 0.0607744 0)
(0.594009 0.0709956 0)
(0.100396 -0.00247374 0)
(0.103207 -0.00461603 0)
(0.10759 -0.00645441 0)
(0.113228 -0.00810291 0)
(0.119988 -0.00962063 0)
(0.127744 -0.0110508 0)
(0.136403 -0.0124273 0)
(0.145901 -0.0137757 0)
(0.156192 -0.0151127 0)
(0.167243 -0.0164455 0)
(0.179024 -0.0177721 0)
(0.191502 -0.019082 0)
(0.204634 -0.0203571 0)
(0.218364 -0.0215746 0)
(0.232621 -0.0227098 0)
(0.247319 -0.023738 0)
(0.26236 -0.0246377 0)
(0.277637 -0.0253915 0)
(0.29304 -0.0259876 0)
(0.308458 -0.0264194 0)
(0.323785 -0.0266859 0)
(0.33892 -0.0267904 0)
(0.353773 -0.0267402 0)
(0.368266 -0.0265451 0)
(0.382331 -0.0262172 0)
(0.395912 -0.0257694 0)
(0.408963 -0.0252153 0)
(0.42145 -0.0245686 0)
(0.433349 -0.0238424 0)
(0.444643 -0.0230491 0)
(0.455324 -0.0222006 0)
(0.46539 -0.0213073 0)
(0.474844 -0.0203792 0)
(0.483695 -0.0194249 0)
(0.491955 -0.0184523 0)
(0.499638 -0.0174683 0)
(0.506764 -0.0164789 0)
(0.513352 -0.0154894 0)
(0.519424 -0.0145043 0)
(0.525002 -0.0135277 0)
(0.53011 -0.0125628 0)
(0.534773 -0.0116123 0)
(0.539014 -0.0106785 0)
(0.542858 -0.0097632 0)
(0.54633 -0.00886764 0)
(0.549453 -0.0079927 0)
(0.552252 -0.00713884 0)
(0.554751 -0.00630606 0)
(0.556972 -0.00549394 0)
(0.558937 -0.00470158 0)
(0.56067 -0.00392763 0)
(0.562189 -0.00317021 0)
(0.563517 -0.0024269 0)
(0.564672 -0.0016947 0)
(0.565673 -0.000969953 0)
(0.566538 -0.000248424 0)
(0.567284 0.000474419 0)
(0.567927 0.00120404 0)
(0.568483 0.0019472 0)
(0.568967 0.00271191 0)
(0.569391 0.00350758 0)
(0.569769 0.00434518 0)
(0.570112 0.00523762 0)
(0.570431 0.00620004 0)
(0.570736 0.00725027 0)
(0.571037 0.00840939 0)
(0.571344 0.0097024 0)
(0.571667 0.011159 0)
(0.572017 0.0128148 0)
(0.572407 0.0147121 0)
(0.572858 0.0169014 0)
(0.573393 0.0194427 0)
(0.57405 0.0224059 0)
(0.574883 0.025871 0)
(0.575973 0.0299249 0)
(0.577433 0.0346552 0)
(0.579422 0.0401356 0)
(0.582148 0.0464003 0)
(0.585869 0.0534035 0)
(0.590863 0.0609605 0)
(0.597357 0.0686805 0)
(0.100314 -0.00295699 0)
(0.103069 -0.00558418 0)
(0.107352 -0.00783747 0)
(0.112891 -0.00986229 0)
(0.11956 -0.0117281 0)
(0.127238 -0.0134869 0)
(0.135832 -0.0151808 0)
(0.145279 -0.0168416 0)
(0.155537 -0.0184905 0)
(0.166578 -0.0201369 0)
(0.178376 -0.0217788 0)
(0.190902 -0.0234029 0)
(0.204118 -0.0249867 0)
(0.217968 -0.0265013 0)
(0.232381 -0.027915 0)
(0.247267 -0.0291967 0)
(0.262523 -0.0303187 0)
(0.278037 -0.031259 0)
(0.293691 -0.0320024 0)
(0.309367 -0.0325408 0)
(0.324953 -0.0328728 0)
(0.340342 -0.0330028 0)
(0.355441 -0.0329399 0)
(0.370167 -0.0326968 0)
(0.384449 -0.0322886 0)
(0.39823 -0.0317319 0)
(0.411464 -0.0310437 0)
(0.424116 -0.0302409 0)
(0.436162 -0.02934 0)
(0.447587 -0.0283566 0)
(0.458381 -0.0273052 0)
(0.468544 -0.0261991 0)
(0.478081 -0.0250503 0)
(0.487 -0.0238696 0)
(0.495315 -0.0226666 0)
(0.503042 -0.0214497 0)
(0.5102 -0.0202264 0)
(0.516809 -0.0190032 0)
(0.522893 -0.0177856 0)
(0.528474 -0.0165783 0)
(0.533576 -0.0153854 0)
(0.538224 -0.0142101 0)
(0.542443 -0.0130552 0)
(0.546257 -0.0119226 0)
(0.549692 -0.0108141 0)
(0.552772 -0.00973057 0)
(0.555521 -0.00867249 0)
(0.557962 -0.00763984 0)
(0.56012 -0.00663204 0)
(0.562015 -0.00564798 0)
(0.563671 -0.00468598 0)
(0.565108 -0.00374376 0)
(0.566347 -0.0028184 0)
(0.567407 -0.00190626 0)
(0.568308 -0.00100298 0)
(0.569066 -0.000103911 0)
(0.569701 0.000796546 0)
(0.570228 0.00170467 0)
(0.570664 0.00262828 0)
(0.571024 0.00357656 0)
(0.571322 0.00456006 0)
(0.571572 0.00559098 0)
(0.571788 0.00668339 0)
(0.571982 0.00785354 0)
(0.572168 0.00912013 0)
(0.572359 0.0105048 0)
(0.572568 0.0120323 0)
(0.572812 0.0137314 0)
(0.573109 0.0156347 0)
(0.573479 0.0177795 0)
(0.573952 0.0202076 0)
(0.574561 0.0229651 0)
(0.575353 0.0261008 0)
(0.576387 0.0296639 0)
(0.577741 0.0336993 0)
(0.579512 0.0382392 0)
(0.581818 0.0432915 0)
(0.584793 0.0488231 0)
(0.588574 0.0547404 0)
(0.593277 0.0608689 0)
(0.598946 0.0669463 0)
(0.100231 -0.00345217 0)
(0.10294 -0.0065911 0)
(0.107124 -0.00928678 0)
(0.112561 -0.011715 0)
(0.119137 -0.0139558 0)
(0.126734 -0.0160697 0)
(0.135261 -0.0181076 0)
(0.144659 -0.0201086 0)
(0.154893 -0.022099 0)
(0.165939 -0.0240911 0)
(0.17778 -0.0260827 0)
(0.190393 -0.0280575 0)
(0.203743 -0.0299875 0)
(0.217777 -0.0318365 0)
(0.232419 -0.0335646 0)
(0.247577 -0.0351324 0)
(0.263138 -0.036505 0)
(0.27898 -0.0376547 0)
(0.294976 -0.0385626 0)
(0.310998 -0.0392187 0)
(0.326925 -0.0396215 0)
(0.342645 -0.039777 0)
(0.358058 -0.0396967 0)
(0.373076 -0.0393967 0)
(0.387628 -0.038896 0)
(0.401654 -0.038215 0)
(0.415109 -0.0373749 0)
(0.427957 -0.0363965 0)
(0.440175 -0.0353001 0)
(0.451748 -0.0341047 0)
(0.46267 -0.0328279 0)
(0.472941 -0.0314858 0)
(0.482567 -0.0300929 0)
(0.491558 -0.0286623 0)
(0.49993 -0.0272054 0)
(0.507699 -0.0257324 0)
(0.514886 -0.0242522 0)
(0.521512 -0.0227724 0)
(0.5276 -0.0212996 0)
(0.533176 -0.0198395 0)
(0.538263 -0.0183966 0)
(0.542887 -0.016975 0)
(0.547073 -0.0155777 0)
(0.550846 -0.0142071 0)
(0.554232 -0.012865 0)
(0.557256 -0.0115526 0)
(0.559942 -0.0102703 0)
(0.562313 -0.00901809 0)
(0.564393 -0.00779516 0)
(0.566205 -0.0066002 0)
(0.567771 -0.00543122 0)
(0.569112 -0.00428553 0)
(0.570249 -0.00315971 0)
(0.571201 -0.00204955 0)
(0.571988 -0.000950025 0)
(0.572629 0.000143974 0)
(0.573141 0.0012385 0)
(0.573542 0.00234088 0)
(0.573848 0.00345983 0)
(0.574076 0.00460536 0)
(0.574241 0.00578879 0)
(0.574358 0.007023 0)
(0.574442 0.00832253 0)
(0.574508 0.00970383 0)
(0.574573 0.0111854 0)
(0.574652 0.0127879 0)
(0.574764 0.0145344 0)
(0.574927 0.0164504 0)
(0.575166 0.0185637 0)
(0.575505 0.0209038 0)
(0.575978 0.0235019 0)
(0.576621 0.026389 0)
(0.577482 0.029594 0)
(0.578613 0.0331407 0)
(0.580079 0.0370432 0)
(0.581951 0.0412998 0)
(0.584306 0.0458861 0)
(0.587218 0.0507464 0)
(0.590748 0.0557874 0)
(0.594929 0.0608753 0)
(0.599734 0.0658449 0)
(0.100144 -0.00396159 0)
(0.102819 -0.00763873 0)
(0.106914 -0.0108053 0)
(0.112249 -0.0136653 0)
(0.118733 -0.0163098 0)
(0.12625 -0.0188079 0)
(0.134714 -0.0212198 0)
(0.144072 -0.023593 0)
(0.154297 -0.02596 0)
(0.165376 -0.0283366 0)
(0.177301 -0.0307204 0)
(0.190056 -0.0330917 0)
(0.203613 -0.0354154 0)
(0.217917 -0.037646 0)
(0.23289 -0.0397329 0)
(0.248428 -0.0416265 0)
(0.264406 -0.0432831 0)
(0.280688 -0.0446682 0)
(0.297134 -0.0457587 0)
(0.313602 -0.0465429 0)
(0.329962 -0.0470197 0)
(0.346092 -0.0471972 0)
(0.361887 -0.0470904 0)
(0.377257 -0.0467198 0)
(0.392127 -0.0461088 0)
(0.406438 -0.0452828 0)
(0.420144 -0.0442678 0)
(0.433211 -0.0430891 0)
(0.445617 -0.0417713 0)
(0.457351 -0.040337 0)
(0.468408 -0.0388075 0)
(0.478789 -0.0372019 0)
(0.488504 -0.0355375 0)
(0.497564 -0.0338296 0)
(0.505986 -0.0320918 0)
(0.51379 -0.030336 0)
(0.520997 -0.0285725 0)
(0.527629 -0.0268102 0)
(0.533712 -0.0250568 0)
(0.53927 -0.0233188 0)
(0.54433 -0.0216014 0)
(0.548917 -0.0199093 0)
(0.553057 -0.018246 0)
(0.556776 -0.0166141 0)
(0.5601 -0.0150156 0)
(0.563053 -0.0134519 0)
(0.565662 -0.0119233 0)
(0.567949 -0.0104297 0)
(0.569938 -0.00897019 0)
(0.571653 -0.00754329 0)
(0.573116 -0.00614664 0)
(0.574347 -0.00477718 0)
(0.575369 -0.00343104 0)
(0.576202 -0.00210353 0)
(0.576863 -0.000789202 0)
(0.577375 0.000517682 0)
(0.577755 0.0018233 0)
(0.57802 0.00313589 0)
(0.578189 0.00446488 0)
(0.578277 0.0058207 0)
(0.578302 0.007215 0)
(0.57828 0.00866073 0)
(0.578228 0.0101722 0)
(0.578163 0.0117653 0)
(0.578103 0.0134571 0)
(0.578067 0.0152665 0)
(0.578074 0.0172132 0)
(0.578148 0.0193183 0)
(0.578313 0.0216034 0)
(0.578598 0.0240901 0)
(0.579033 0.0267985 0)
(0.579655 0.0297464 0)
(0.580504 0.0329468 0)
(0.581624 0.0364056 0)
(0.583061 0.0401181 0)
(0.584862 0.0440659 0)
(0.587071 0.0482135 0)
(0.589721 0.0525053 0)
(0.592832 0.0568651 0)
(0.596396 0.0611989 0)
(0.600369 0.0654062 0)
(0.100052 -0.00448809 0)
(0.102708 -0.00873019 0)
(0.106723 -0.0123974 0)
(0.111963 -0.015719 0)
(0.118359 -0.0187981 0)
(0.125803 -0.0217123 0)
(0.134214 -0.0245323 0)
(0.143548 -0.0273153 0)
(0.153792 -0.0301015 0)
(0.164944 -0.0329109 0)
(0.177012 -0.0357413 0)
(0.189991 -0.0385676 0)
(0.203855 -0.0413454 0)
(0.218548 -0.0440167 0)
(0.233981 -0.046517 0)
(0.250033 -0.0487837 0)
(0.266563 -0.0507622 0)
(0.283415 -0.0524103 0)
(0.300428 -0.0537004 0)
(0.317447 -0.0546197 0)
(0.33433 -0.0551686 0)
(0.350946 -0.0553585 0)
(0.367186 -0.0552094 0)
(0.382956 -0.0547471 0)
(0.398181 -0.054001 0)
(0.412802 -0.0530023 0)
(0.426775 -0.0517825 0)
(0.440071 -0.0503724 0)
(0.45267 -0.048801 0)
(0.464563 -0.0470956 0)
(0.475749 -0.045281 0)
(0.486232 -0.0433798 0)
(0.496025 -0.0414119 0)
(0.505142 -0.0393954 0)
(0.513601 -0.0373458 0)
(0.521425 -0.0352769 0)
(0.528636 -0.0332005 0)
(0.535259 -0.0311267 0)
(0.54132 -0.0290644 0)
(0.546846 -0.0270207 0)
(0.551862 -0.0250018 0)
(0.556397 -0.0230126 0)
(0.560476 -0.0210572 0)
(0.564126 -0.0191384 0)
(0.567373 -0.0172585 0)
(0.570242 -0.0154188 0)
(0.57276 -0.0136197 0)
(0.57495 -0.011861 0)
(0.576836 -0.0101418 0)
(0.578441 -0.00846015 0)
(0.579789 -0.00681352 0)
(0.5809 -0.0051985 0)
(0.581796 -0.00361084 0)
(0.582499 -0.00204546 0)
(0.583025 -0.000496987 0)
(0.583401 0.00104078 0)
(0.583641 0.00257477 0)
(0.583764 0.00411365 0)
(0.583788 0.00566709 0)
(0.583732 0.00724559 0)
(0.583613 0.00886063 0)
(0.583448 0.0105247 0)
(0.583257 0.0122512 0)
(0.583056 0.0140547 0)
(0.582866 0.0159503 0)
(0.582707 0.0179539 0)
(0.5826 0.0200815 0)
(0.582568 0.0223494 0)
(0.582637 0.0247727 0)
(0.582833 0.0273652 0)
(0.583186 0.0301384 0)
(0.583725 0.0330994 0)
(0.584484 0.0362505 0)
(0.585493 0.0395867 0)
(0.586785 0.0430942 0)
(0.588385 0.0467491 0)
(0.590315 0.050516 0)
(0.592585 0.0543484 0)
(0.595192 0.0581897 0)
(0.598116 0.0619767 0)
(0.601309 0.0656493 0)
(0.0999546 -0.00503492 0)
(0.102605 -0.00986975 0)
(0.106555 -0.0140689 0)
(0.111708 -0.0178841 0)
(0.118026 -0.0214311 0)
(0.125408 -0.0247972 0)
(0.133781 -0.0280645 0)
(0.143118 -0.0313026 0)
(0.153421 -0.0345612 0)
(0.164709 -0.0378655 0)
(0.177007 -0.0412124 0)
(0.190321 -0.0445693 0)
(0.204628 -0.0478782 0)
(0.219862 -0.0510635 0)
(0.235915 -0.0540426 0)
(0.252643 -0.0567362 0)
(0.269876 -0.0590766 0)
(0.287432 -0.0610134 0)
(0.305131 -0.0625152 0)
(0.3228 -0.0635693 0)
(0.340284 -0.0641796 0)
(0.357446 -0.0643628 0)
(0.374172 -0.0641456 0)
(0.390369 -0.0635609 0)
(0.405964 -0.0626456 0)
(0.4209 -0.0614377 0)
(0.435139 -0.0599754 0)
(0.448654 -0.0582954 0)
(0.461431 -0.056432 0)
(0.473465 -0.0544171 0)
(0.484759 -0.0522797 0)
(0.495322 -0.0500457 0)
(0.50517 -0.0477382 0)
(0.514319 -0.0453777 0)
(0.522793 -0.042982 0)
(0.530613 -0.0405665 0)
(0.537806 -0.0381446 0)
(0.544399 -0.0357276 0)
(0.550418 -0.0333254 0)
(0.555891 -0.030946 0)
(0.560846 -0.0285961 0)
(0.565311 -0.0262812 0)
(0.569312 -0.0240055 0)
(0.572878 -0.0217724 0)
(0.576034 -0.0195841 0)
(0.578806 -0.017442 0)
(0.58122 -0.0153466 0)
(0.583302 -0.0132975 0)
(0.585074 -0.0112937 0)
(0.58656 -0.00933299 0)
(0.587784 -0.00741273 0)
(0.588767 -0.00552923 0)
(0.589532 -0.00367794 0)
(0.590098 -0.00185345 0)
(0.590487 -5.07335e-05 0)
(0.590722 0.00173655 0)
(0.590818 0.00351626 0)
(0.590796 0.00529732 0)
(0.590674 0.00708925 0)
(0.590472 0.00890219 0)
(0.590207 0.010747 0)
(0.589898 0.0126352 0)
(0.589564 0.014579 0)
(0.589224 0.0165908 0)
(0.588899 0.0186834 0)
(0.588608 0.0208695 0)
(0.588374 0.0231612 0)
(0.588218 0.0255698 0)
(0.588165 0.0281051 0)
(0.588239 0.0307746 0)
(0.588463 0.0335828 0)
(0.588862 0.0365303 0)
(0.58946 0.0396126 0)
(0.590279 0.0428197 0)
(0.591337 0.046135 0)
(0.592647 0.0495353 0)
(0.594216 0.0529904 0)
(0.596042 0.0564646 0)
(0.598113 0.059918 0)
(0.600405 0.0633093 0)
(0.602877 0.0666033 0)
(0.0998486 -0.00560569 0)
(0.10251 -0.0110629 0)
(0.106411 -0.0158273 0)
(0.111489 -0.0201703 0)
(0.11774 -0.024222 0)
(0.125077 -0.0280805 0)
(0.13344 -0.0318422 0)
(0.142818 -0.0355917 0)
(0.153241 -0.039391 0)
(0.164756 -0.0432713 0)
(0.177405 -0.0472265 0)
(0.191207 -0.0512115 0)
(0.206131 -0.055148 0)
(0.222093 -0.0589359 0)
(0.238954 -0.0624681 0)
(0.256531 -0.065645 0)
(0.274622 -0.0683844 0)
(0.293013 -0.0706281 0)
(0.3115 -0.072343 0)
(0.329894 -0.0735193 0)
(0.34803 -0.0741669 0)
(0.365767 -0.074311 0)
(0.382992 -0.073987 0)
(0.399613 -0.0732375 0)
(0.415563 -0.0721078 0)
(0.430792 -0.0706447 0)
(0.445266 -0.0688934 0)
(0.458967 -0.0668973 0)
(0.471885 -0.0646966 0)
(0.484023 -0.0623281 0)
(0.495387 -0.0598249 0)
(0.505993 -0.0572167 0)
(0.515858 -0.0545295 0)
(0.525005 -0.0517864 0)
(0.533459 -0.0490071 0)
(0.541245 -0.0462089 0)
(0.54839 -0.0434066 0)
(0.554925 -0.0406127 0)
(0.560876 -0.0378378 0)
(0.566274 -0.0350908 0)
(0.571146 -0.0323789 0)
(0.575522 -0.029708 0)
(0.579429 -0.0270826 0)
(0.582894 -0.0245062 0)
(0.585946 -0.0219813 0)
(0.58861 -0.0195092 0)
(0.590911 -0.0170904 0)
(0.592875 -0.0147244 0)
(0.594527 -0.0124101 0)
(0.595889 -0.0101452 0)
(0.596985 -0.00792686 0)
(0.597837 -0.00575131 0)
(0.598468 -0.00361394 0)
(0.598898 -0.00150933 0)
(0.599152 0.000567989 0)
(0.599246 0.00262411 0)
(0.599201 0.00466734 0)
(0.599036 0.00670653 0)
(0.598772 0.00875075 0)
(0.598426 0.0108095 0)
(0.598018 0.0128928 0)
(0.597566 0.0150107 0)
(0.597091 0.0171739 0)
(0.596611 0.0193925 0)
(0.596146 0.0216769 0)
(0.595717 0.0240364 0)
(0.595344 0.0264798 0)
(0.595048 0.0290141 0)
(0.594849 0.0316448 0)
(0.594768 0.0343748 0)
(0.594824 0.0372041 0)
(0.595036 0.0401294 0)
(0.595421 0.0431435 0)
(0.595991 0.0462347 0)
(0.596757 0.0493874 0)
(0.597723 0.0525818 0)
(0.598889 0.0557943 0)
(0.600246 0.0589991 0)
(0.60178 0.0621689 0)
(0.603469 0.0652774 0)
(0.605279 0.0683044 0)
(0.0997322 -0.00620443 0)
(0.102421 -0.0123162 0)
(0.106291 -0.0176818 0)
(0.111308 -0.0225904 0)
(0.117511 -0.0271879 0)
(0.124827 -0.0315864 0)
(0.133215 -0.0359003 0)
(0.142695 -0.0402338 0)
(0.153329 -0.0446642 0)
(0.165197 -0.0492281 0)
(0.178364 -0.0539119 0)
(0.192851 -0.0586491 0)
(0.208609 -0.0633305 0)
(0.225515 -0.0678219 0)
(0.243383 -0.0719851 0)
(0.261983 -0.075697 0)
(0.28107 -0.0788614 0)
(0.300398 -0.0814149 0)
(0.31974 -0.0833266 0)
(0.338894 -0.0845939 0)
(0.357691 -0.085237 0)
(0.375992 -0.0852926 0)
(0.393686 -0.0848084 0)
(0.410691 -0.0838378 0)
(0.426947 -0.0824372 0)
(0.442413 -0.0806624 0)
(0.457065 -0.0785671 0)
(0.470892 -0.0762016 0)
(0.483893 -0.0736122 0)
(0.496076 -0.0708407 0)
(0.507455 -0.0679246 0)
(0.518049 -0.0648971 0)
(0.527882 -0.0617872 0)
(0.53698 -0.0586202 0)
(0.545369 -0.055418 0)
(0.55308 -0.0521994 0)
(0.560142 -0.0489804 0)
(0.566585 -0.0457746 0)
(0.572439 -0.0425933 0)
(0.577735 -0.0394459 0)
(0.582501 -0.0363403 0)
(0.586768 -0.0332824 0)
(0.590563 -0.0302773 0)
(0.593914 -0.0273283 0)
(0.596849 -0.0244381 0)
(0.599395 -0.0216079 0)
(0.601576 -0.0188382 0)
(0.603418 -0.0161285 0)
(0.604945 -0.0134775 0)
(0.606182 -0.010883 0)
(0.607151 -0.00834197 0)
(0.607875 -0.00585071 0)
(0.608376 -0.00340468 0)
(0.608674 -0.000998999 0)
(0.608797 0.00137263 0)
(0.608758 0.00371661 0)
(0.60858 0.00604094 0)
(0.608281 0.00835395 0)
(0.607882 0.0106641 0)
(0.607402 0.01298 0)
(0.606859 0.0153104 0)
(0.606272 0.0176641 0)
(0.605661 0.0200498 0)
(0.605044 0.0224756 0)
(0.604441 0.0249493 0)
(0.603871 0.0274777 0)
(0.603352 0.0300662 0)
(0.602903 0.0327191 0)
(0.60254 0.0354385 0)
(0.602282 0.0382245 0)
(0.602143 0.0410748 0)
(0.602137 0.0439843 0)
(0.602274 0.046945 0)
(0.602562 0.0499464 0)
(0.603006 0.0529751 0)
(0.603604 0.0560156 0)
(0.604354 0.0590507 0)
(0.605244 0.0620624 0)
(0.606262 0.0650328 0)
(0.607388 0.0679452 0)
(0.608598 0.070789 0)
(0.0996031 -0.00683565 0)
(0.102337 -0.013638 0)
(0.106196 -0.019644 0)
(0.111171 -0.0251602 0)
(0.117348 -0.0303511 0)
(0.124678 -0.0353474 0)
(0.133147 -0.0402877 0)
(0.142814 -0.0453018 0)
(0.153787 -0.0504849 0)
(0.166185 -0.0558761 0)
(0.18009 -0.0614437 0)
(0.195506 -0.0670857 0)
(0.212344 -0.0726468 0)
(0.230421 -0.0779474 0)
(0.249487 -0.0828124 0)
(0.269256 -0.0870948 0)
(0.289436 -0.0906882 0)
(0.309753 -0.0935298 0)
(0.329963 -0.0955972 0)
(0.349859 -0.0969009 0)
(0.369275 -0.0974762 0)
(0.388077 -0.0973754 0)
(0.406168 -0.0966608 0)
(0.423475 -0.0953996 0)
(0.439951 -0.0936598 0)
(0.455568 -0.0915075 0)
(0.470311 -0.0890053 0)
(0.484179 -0.0862107 0)
(0.497181 -0.0831761 0)
(0.509332 -0.0799485 0)
(0.520652 -0.0765693 0)
(0.531168 -0.0730752 0)
(0.540906 -0.0694979 0)
(0.549896 -0.0658648 0)
(0.558169 -0.0621996 0)
(0.565757 -0.0585224 0)
(0.572692 -0.0548503 0)
(0.579005 -0.0511976 0)
(0.584729 -0.0475763 0)
(0.589893 -0.0439962 0)
(0.594528 -0.0404655 0)
(0.598664 -0.0369904 0)
(0.60233 -0.0335758 0)
(0.605553 -0.0302255 0)
(0.608362 -0.0269417 0)
(0.610781 -0.0237259 0)
(0.612837 -0.0205785 0)
(0.614555 -0.0174989 0)
(0.61596 -0.0144858 0)
(0.617074 -0.0115369 0)
(0.617921 -0.00864937 0)
(0.618524 -0.00581935 0)
(0.618904 -0.00304246 0)
(0.619082 -0.000314764 0)
(0.619085 0.00237031 0)
(0.618927 0.00501997 0)
(0.618629 0.00764194 0)
(0.61821 0.0102437 0)
(0.617691 0.0128329 0)
(0.617089 0.0154171 0)
(0.616424 0.0180037 0)
(0.615714 0.0206 0)
(0.614978 0.023213 0)
(0.614233 0.0258489 0)
(0.613498 0.0285134 0)
(0.612789 0.0312108 0)
(0.612123 0.0339447 0)
(0.611517 0.036717 0)
(0.610984 0.0395279 0)
(0.610538 0.042376 0)
(0.610191 0.0452581 0)
(0.609952 0.0481688 0)
(0.609827 0.051101 0)
(0.609822 0.054046 0)
(0.609936 0.0569933 0)
(0.610168 0.0599317 0)
(0.610512 0.0628491 0)
(0.610959 0.0657336 0)
(0.611497 0.0685736 0)
(0.612111 0.0713592 0)
(0.612782 0.0740854 0)
(0.0994589 -0.0075045 0)
(0.102258 -0.0150382 0)
(0.106129 -0.0217283 0)
(0.111084 -0.0279004 0)
(0.117265 -0.0337417 0)
(0.124658 -0.0394091 0)
(0.133286 -0.0450747 0)
(0.143266 -0.050901 0)
(0.15476 -0.0570019 0)
(0.167923 -0.0634092 0)
(0.182835 -0.0700547 0)
(0.199461 -0.0767785 0)
(0.217637 -0.0833611 0)
(0.237096 -0.0895665 0)
(0.257512 -0.0951813 0)
(0.278539 -0.100039 0)
(0.299845 -0.104033 0)
(0.321134 -0.107108 0)
(0.342159 -0.109259 0)
(0.362716 -0.110518 0)
(0.38265 -0.110939 0)
(0.401842 -0.110594 0)
(0.42021 -0.109564 0)
(0.437699 -0.107929 0)
(0.454275 -0.105772 0)
(0.469924 -0.103168 0)
(0.484646 -0.10019 0)
(0.498449 -0.0969021 0)
(0.511351 -0.0933627 0)
(0.523376 -0.0896235 0)
(0.534551 -0.0857298 0)
(0.544907 -0.0817211 0)
(0.554476 -0.0776316 0)
(0.563292 -0.0734905 0)
(0.571389 -0.0693229 0)
(0.5788 -0.06515 0)
(0.58556 -0.0609895 0)
(0.591702 -0.0568564 0)
(0.597258 -0.0527631 0)
(0.602259 -0.0487197 0)
(0.606736 -0.0447342 0)
(0.61072 -0.0408132 0)
(0.614239 -0.0369615 0)
(0.61732 -0.0331826 0)
(0.619992 -0.029479 0)
(0.622279 -0.025852 0)
(0.624208 -0.0223018 0)
(0.625803 -0.0188279 0)
(0.627089 -0.015429 0)
(0.628087 -0.0121029 0)
(0.628822 -0.00884675 0)
(0.629316 -0.00565711 0)
(0.629588 -0.0025299 0)
(0.629667 0.000539538 0)
(0.629565 0.00355687 0)
(0.629303 0.00652976 0)
(0.628903 0.00946535 0)
(0.628383 0.0123703 0)
(0.627761 0.0152513 0)
(0.627057 0.0181148 0)
(0.626288 0.0209671 0)
(0.625472 0.0238141 0)
(0.624625 0.026661 0)
(0.623766 0.0295127 0)
(0.62291 0.0323731 0)
(0.622072 0.035245 0)
(0.621268 0.0381304 0)
(0.620509 0.0410299 0)
(0.619809 0.0439429 0)
(0.619178 0.0468674 0)
(0.618624 0.0498002 0)
(0.618154 0.0527366 0)
(0.617773 0.055671 0)
(0.617482 0.0585967 0)
(0.617281 0.0615063 0)
(0.617166 0.0643919 0)
(0.617134 0.0672457 0)
(0.617175 0.0700601 0)
(0.617281 0.0728279 0)
(0.617439 0.0755437 0)
(0.617638 0.0782063 0)
(0.0992963 -0.00821699 0)
(0.102182 -0.016529 0)
(0.106092 -0.0239532 0)
(0.111055 -0.0308382 0)
(0.117282 -0.0374012 0)
(0.124807 -0.0438371 0)
(0.133711 -0.050364 0)
(0.144179 -0.0571841 0)
(0.156438 -0.0644243 0)
(0.170662 -0.0720882 0)
(0.186897 -0.0800406 0)