/*--------------------------------*- C++ -*----------------------------------*\
  =========                 |
  \\      /  F ield         | OpenFOAM: The Open Source CFD Toolbox
   \\    /   O peration     | Website:  https://openfoam.org
    \\  /    A nd           | Version:  7
     \\/     M anipulation  |
\*---------------------------------------------------------------------------*/
FoamFile
{
    version     2.0;
    format      ascii;
    class       volScalarField;
    location    "3.3";
    object      p;
}
// * * * * * * * * * * * * * * * * * * * * * * * * * * * * * * * * * * * * * //

dimensions      [0 2 -2 0 0 0 0];

internalField   nonuniform List<scalar> 
2790
(
147.338
147.245
147.513
148.084
148.864
149.821
150.954
152.26
153.737
155.378
157.177
159.128
161.222
163.447
165.787
168.223
170.727
173.266
175.798
178.272
180.63
182.808
184.738
186.359
187.619
188.493
188.929
188.984
189.035
189.248
147.135
147.153
147.445
148.013
148.79
149.744
150.872
152.172
153.642
155.274
157.064
159.005
161.088
163.302
165.631
168.057
170.552
173.086
175.616
178.094
180.462
182.657
184.612
186.261
187.545
188.419
188.816
188.871
189.003
189.288
146.937
147.024
147.335
147.893
148.657
149.598
150.711
151.993
153.441
155.049
156.811
158.721
160.769
162.944
165.232
167.615
170.066
172.557
175.049
177.496
179.846
182.039
184.011
185.701
187.052
188.028
188.621
188.976
189.292
189.59
146.712
146.83
147.154
147.703
148.452
149.377
150.47
151.728
153.147
154.722
156.445
158.311
160.31
162.43
164.658
166.976
169.361
171.784
174.211
176.601
178.908
181.08
183.062
184.802
186.256
187.408
188.276
188.947
189.5
190.019
146.451
146.583
146.916
147.457
148.189
149.093
150.161
151.388
152.77
154.301
155.975
157.785
159.72
161.771
163.923
166.158
168.456
170.791
173.133
175.446
177.691
179.826
181.808
183.599
185.169
186.512
187.642
188.605
189.416
190.163
146.15
146.288
146.623
147.155
147.867
148.745
149.781
150.97
152.307
153.787
155.402
157.145
159.005
160.973
163.034
165.172
167.367
169.597
171.833
174.049
176.211
178.289
180.25
182.071
183.734
185.236
186.582
187.788
188.808
189.726
145.807
145.946
146.278
146.797
147.486
148.334
149.333
150.478
151.764
153.184
154.731
156.397
158.172
160.045
162.002
164.028
166.104
168.209
170.322
172.418
174.473
176.464
178.372
180.182
181.888
183.488
184.982
186.361
187.526
188.573
145.423
145.56
145.884
146.387
147.05
147.864
148.821
149.917
151.145
152.498
153.968
155.548
157.226
158.992
160.832
162.731
164.672
166.637
168.604
170.556
172.473
174.341
176.148
177.89
179.568
181.187
182.742
184.214
185.464
186.615
144.996
145.13
145.443
145.926
146.561
147.337
148.248
149.289
150.452
151.731
153.117
154.602
156.174
157.822
159.533
161.292
163.081
164.884
166.684
168.462
170.206
171.904
173.551
175.152
176.713
178.248
179.756
181.227
182.498
183.736
144.53
144.658
144.958
145.419
146.022
146.756
147.617
148.598
149.692
150.891
152.186
153.567
155.024
156.544
158.114
159.718
161.339
162.961
164.567
166.141
167.669
169.143
170.561
171.929
173.261
174.58
175.9
177.237
178.438
179.742
144.025
144.146
144.431
144.867
145.435
146.126
146.933
147.85
148.869
149.982
151.179
152.45
153.784
155.166
156.584
158.02
159.457
160.878
162.265
163.599
164.867
166.057
167.164
168.191
169.155
170.083
171.013
172.011
172.973
174.292
143.482
143.597
143.865
144.274
144.805
145.448
146.198
147.047
147.987
149.01
150.104
151.259
152.462
153.699
154.954
156.211
157.449
158.65
159.792
160.854
161.816
162.658
163.366
163.931
164.357
164.666
164.908
165.215
165.596
166.769
142.905
143.012
143.262
143.642
144.134
144.728
145.418
146.196
147.054
147.982
148.968
150.002
151.068
152.153
153.238
154.305
155.332
156.295
157.171
157.93
158.543
158.977
159.199
159.173
158.869
158.27
157.394
156.401
155.451
155.955
142.296
142.395
142.625
142.974
143.425
143.968
144.596
145.301
146.074
146.904
147.779
148.687
149.613
150.54
151.448
152.318
153.123
153.837
154.428
154.86
155.09
155.067
154.728
153.996
152.772
150.942
148.377
145.073
141.12
139.081
141.657
141.747
141.957
142.274
142.683
143.173
143.737
144.367
145.053
145.783
146.545
147.325
148.106
148.872
149.6
150.267
150.845
151.301
151.597
151.688
151.515
151.005
150.059
148.544
146.265
142.931
138.086
131.065
120.594
108.357
1.92696
1.90003
1.80887
1.68184
1.54599
1.41379
1.28917
1.17285
1.06448
0.963098
0.867579
0.776969
0.690765
0.608963
0.53188
0.459867
0.393244
0.332795
0.280469
0.239085
0.210571
0.193521
0.181967
0.171266
0.159272
0.144158
0.124294
0.0989947
0.067351
0.0296836
1.85884
1.82789
1.74275
1.6262
1.50094
1.37777
1.26052
1.15018
1.04654
0.948799
0.855964
0.767251
0.682351
0.601478
0.52513
0.453648
0.387105
0.326078
0.272933
0.231765
0.20538
0.191142
0.182159
0.173099
0.161865
0.147319
0.12788
0.10233
0.0695229
0.02905
1.78852
1.75172
1.67021
1.56301
1.44848
1.33495
1.22586
1.12229
1.02413
0.930674
0.841049
0.754619
0.671272
0.591508
0.516112
0.445505
0.379445
0.31816
0.264426
0.223634
0.199009
0.186403
0.177853
0.170355
0.16147
0.148457
0.12975
0.104809
0.0722993
0.0284519
1.72656
1.68395
1.60454
1.5046
1.39922
1.29417
1.19246
1.09515
1.00215
0.912823
0.826369
0.742245
0.660482
0.58182
0.507376
0.437804
0.372587
0.310996
0.255029
0.2124
0.191858
0.18603
0.182421
0.176028
0.166307
0.151773
0.131534
0.105523
0.0720086
0.0276648
1.6927
1.64439
1.56703
1.47163
1.37201
1.27213
1.17488
1.0813
0.991376
0.904506
0.819969
0.737286
0.656543
0.578548
0.504517
0.435373
0.371055
0.311762
0.259636
0.218348
0.192663
0.18185
0.178691
0.174814
0.166815
0.152485
0.131952
0.105607
0.0713028
0.0264295
1.7025
1.6468
1.57054
1.47491
1.3755
1.27553
1.17814
1.08442
0.994424
0.907614
0.823296
0.740995
0.660756
0.583232
0.509398
0.440027
0.375495
0.316555
0.266064
0.227473
0.201855
0.188742
0.181862
0.175597
0.166069
0.150505
0.128524
0.10085
0.0658302
0.0224955
1.76385
1.69914
1.61644
1.5145
1.40797
1.30187
1.19929
1.10131
1.00793
0.918571
0.832545
0.749372
0.66899
0.591793
0.518426
0.449465
0.38539
0.327028
0.27629
0.23637
0.209038
0.192893
0.182766
0.173845
0.16236
0.14565
0.12286
0.094072
0.0586052
0.0191296
1.87442
1.79432
1.69466
1.57747
1.45702
1.33929
1.2273
1.12212
1.02346
0.930438
0.842098
0.757745
0.67709
0.600211
0.527396
0.459014
0.395578
0.337945
0.287696
0.246895
0.217191
0.197144
0.182925
0.170458
0.156319
0.137983
0.11404
0.0840844
0.0492539
0.0156038
2.01166
1.90605
1.77972
1.64025
1.50246
1.37177
1.25007
1.13742
1.03358
0.937329
0.847294
0.762438
0.682179
0.606232
0.534469
0.466936
0.404058
0.346895
0.29704
0.255956
0.224273
0.200694
0.182351
0.166051
0.148983
0.128829
0.103658
0.0724705
0.0390297
0.0119807
2.13624
1.9976
1.84737
1.68628
1.5303
1.3865
1.25672
1.13993
1.03397
0.936796
0.846631
0.762301
0.683175
0.608789
0.53865
0.472468
0.410566
0.354065
0.304512
0.26304
0.229674
0.203026
0.180798
0.160633
0.140498
0.118382
0.0919221
0.0600562
0.0285545
0.00834291
2.22634
2.05471
1.8766
1.69773
1.53063
1.37988
1.24597
1.12752
1.02194
0.926277
0.837981
0.755672
0.678898
0.607166
0.53953
0.475193
0.414377
0.358484
0.309277
0.267687
0.233184
0.204056
0.178293
0.154329
0.131045
0.106899
0.0792767
0.0471681
0.0180227
0.00471675
2.25104
2.04703
1.84345
1.65032
1.48017
1.33277
1.20453
1.09209
0.992716
0.902981
0.819544
0.741112
0.668117
0.600484
0.536631
0.474848
0.41517
0.359656
0.310808
0.269584
0.234733
0.203839
0.174904
0.14716
0.120611
0.0944285
0.0659072
0.034009
0.00768466
0.00117509
2.13344
1.88515
1.6861
1.51287
1.36496
1.23927
1.12969
1.032
0.945456
0.866961
0.791721
0.718681
0.65055
0.5886
0.530182
0.471769
0.413009
0.357276
0.30868
0.268535
0.234455
0.202661
0.17084
0.13914
0.109048
0.0808302
0.0518723
0.0208375
-0.00237276
-0.00224882
1.75341
1.47316
1.35492
1.26715
1.17724
1.09785
1.02373
0.949513
0.881704
0.820308
0.756636
0.689252
0.626029
0.57154
0.520995
0.467031
0.40845
0.351156
0.302395
0.264359
0.232687
0.201074
0.166478
0.130282
0.096052
0.0657316
0.0370171
0.00783171
-0.0118201
-0.00545106
0.939958
0.63863
0.777892
0.918254
0.924634
0.919196
0.899835
0.851158
0.802
0.765055
0.718037
0.654803
0.594576
0.549564
0.510813
0.462761
0.402499
0.340881
0.290943
0.256596
0.229895
0.199905
0.162344
0.120553
0.0811399
0.0485368
0.0210584
-0.00480995
-0.0202786
-0.00828364
140.978
141.058
141.247
141.531
141.896
142.332
142.83
143.382
143.977
144.604
145.249
145.897
146.531
147.131
147.674
148.133
148.477
148.669
148.663
148.403
147.817
146.808
145.244
142.931
139.568
134.661
127.288
115.53
93.3504
33.4723
140.25
140.322
140.488
140.738
141.057
141.435
141.864
142.335
142.837
143.357
143.882
144.394
144.876
145.306
145.659
145.907
146.013
145.937
145.627
145.018
144.025
142.535
140.39
137.358
133.081
126.975
118.007
104.442
84.919
56.4852
139.481
139.542
139.685
139.899
140.17
140.49
140.848
141.236
141.643
142.054
142.456
142.831
143.159
143.418
143.581
143.617
143.488
143.149
142.544
141.602
140.232
138.313
135.682
132.107
127.265
120.699
111.822
99.9974
85.7833
69.2116
138.67
138.721
138.84
139.017
139.24
139.499
139.786
140.09
140.4
140.702
140.98
141.217
141.392
141.481
141.457
141.286
140.929
140.339
139.457
138.212
136.512
134.24
131.244
127.328
122.245
115.703
107.407
97.027
84.5033
69.4005
137.82
137.861
137.955
138.095
138.269
138.467
138.681
138.901
139.114
139.306
139.462
139.562
139.586
139.51
139.304
138.935
138.363
137.54
136.409
134.9
132.927
130.384
127.141
123.043
117.91
111.543
103.743
94.2678
82.9512
70.001
136.933
136.964
137.034
137.136
137.26
137.397
137.539
137.674
137.791
137.875
137.909
137.877
137.754
137.518
137.14
136.585
135.815
134.783
133.435
131.705
129.518
126.782
123.391
119.228
114.163
108.06
100.799
92.2799
82.4952
71.8579
136.012
136.032
136.077
136.142
136.216
136.293
136.363
136.415
136.437
136.415
136.333
136.171
135.909
135.522
134.982
134.257
133.308
132.093
130.562
128.657
126.312
123.453
119.997
115.859
110.95
105.194
98.5345
90.9622
82.5209
73.5458
135.06
135.069
135.09
135.117
135.143
135.16
135.159
135.13
135.06
134.936
134.741
134.456
134.063
133.535
132.848
131.969
130.864
129.494
127.815
125.777
123.325
120.403
116.948
112.901
108.21
102.836
96.7629
90.0129
82.6354
74.9024
134.08
134.079
134.076
134.066
134.044
134.003
133.934
133.826
133.667
133.445
133.143
132.744
132.228
131.572
130.751
129.737
128.499
127.002
125.208
123.076
120.564
117.627
114.222
110.313
105.869
100.877
95.3429
89.3006
82.8037
76.0794
133.077
133.066
133.039
132.994
132.926
132.828
132.692
132.509
132.267
131.952
131.55
131.044
130.416
129.644
128.706
127.577
126.228
124.631
122.753
120.562
118.025
115.112
111.793
108.047
103.862
99.2382
94.1936
88.7675
83.0129
77.1144
132.055
132.034
131.985
131.905
131.792
131.641
131.442
131.187
130.866
130.464
129.97
129.367
128.638
127.764
126.725
125.499
124.061
122.388
120.453
118.233
115.702
112.841
109.631
106.064
102.136
97.8581
93.2539
88.3625
83.2317
78.0095
131.019
130.989
130.918
130.805
130.65
130.447
130.189
129.868
129.472
128.992
128.413
127.722
126.904
125.942
124.817
123.511
122.005
120.278
118.311
116.085
113.584
110.795
107.709
104.324
100.645
96.6867
92.4747
88.0451
83.4395
78.7771
129.974
129.936
129.844
129.7
129.505
129.254
128.941
128.557
128.094
127.541
126.887
126.119
125.223
124.185
122.99
121.622
120.065
118.304
116.324
114.112
111.658
108.954
105.999
102.794
99.3504
95.6837
91.8189
87.7881
83.6273
79.4323
128.927
128.88
128.769
128.596
128.364
128.068
127.704
127.264
126.739
126.121
125.4
124.564
123.602
122.501
121.25
119.835
118.243
116.465
114.488
112.304
109.909
107.299
104.476
101.446
98.2208
94.8174
91.2587
87.573
83.7904
79.9887
127.882
127.828
127.699
127.5
127.233
126.896
126.486
125.994
125.414
124.739
123.959
123.065
122.047
120.896
119.601
118.152
116.541
114.758
112.797
110.653
108.324
105.811
103.119
100.254
97.2299
94.0629
90.7738
87.3867
83.9271
80.4583
126.848
126.786
126.641
126.417
126.119
125.745
125.292
124.755
124.126
123.401
122.571
121.628
120.565
119.374
118.047
116.576
114.956
113.18
111.244
109.147
106.89
104.474
101.907
99.197
96.3563
93.4007
90.3484
87.2202
84.0376
80.8521
125.829
125.761
125.602
125.355
125.028
124.622
124.132
123.554
122.883
122.114
121.241
120.259
119.16
117.939
116.589
115.107
113.487
111.726
109.823
107.778
105.593
103.273
100.825
98.2575
95.583
92.8155
89.9711
87.0677
84.1231
81.1798
124.834
124.761
124.587
124.321
123.969
123.533
123.01
122.397
121.69
120.885
119.977
118.962
117.835
116.593
115.23
113.743
112.131
110.392
108.526
106.535
104.423
102.195
99.8574
97.4209
94.8959
92.2954
89.6334
86.9251
84.1857
81.4502
123.87
123.791
123.606
123.322
122.948
122.486
121.935
121.291
120.553
119.718
118.782
117.742
116.595
115.338
113.968
112.484
110.886
109.173
107.347
105.411
103.369
101.227
98.9929
96.6752
94.2842
91.8314
89.3291
86.7904
84.2281
81.6711
122.943
122.86
122.664
122.364
121.971
121.487
120.912
120.243
119.479
118.62
117.661
116.602
115.441
114.175
112.805
111.329
109.748
108.064
106.279
104.397
102.422
100.361
98.2212
96.0108
93.7391
91.4166
89.0539
86.6624
84.2529
81.8495
122.062
121.974
121.77
121.457
121.047
120.544
119.948
119.258
118.474
117.594
116.619
115.546
114.376
113.107
111.74
110.276
108.716
107.062
105.318
103.487
101.575
99.5888
97.5343
95.4199
93.254
91.0458
88.8049
86.5408
84.2631
81.9919
121.234
121.143
120.93
120.606
120.182
119.663
119.05
118.343
117.542
116.647
115.659
114.578
113.402
112.134
110.774
109.324
107.786
106.162
104.457
102.676
100.822
98.9035
96.9259
94.8967
92.8239
90.7156
88.5803
86.4264
84.2621
82.1041
120.467
120.373
120.154
119.819
119.383
118.851
118.224
117.503
116.689
115.784
114.787
113.699
112.523
111.258
109.907
108.472
106.956
105.362
103.695
101.958
100.158
98.3
96.3906
94.4365
92.4449
90.4233
88.3791
86.3197
84.2524
82.1912
119.769
119.673
119.448
119.105
118.658
118.115
117.477
116.745
115.922
115.008
114.005
112.915
111.739
110.48
109.139
107.72
106.226
104.66
103.027
101.332
99.5793
97.7751
95.9255
94.0367
92.1154
90.1682
88.2018
86.223
84.2381
82.259
119.15
119.051
118.82
118.469
118.014
117.462
116.815
116.075
115.244
114.324
113.318
112.227
111.054
109.802
108.472
107.068
105.594
104.054
102.452
100.793
99.0825
97.325
95.5269
93.694
91.8324
89.9482
88.0475
86.1363
84.2204
82.3096
118.618
118.516
118.28
117.922
117.459
116.9
116.246
115.5
114.664
113.74
112.732
111.642
110.473
109.227
107.908
106.519
105.064
103.546
101.972
100.344
98.6687
96.951
95.1963
93.4103
91.5985
89.7667
87.9204
86.0652
84.2064
82.3523
118.183
118.078
117.834
117.468
116.999
116.434
115.774
115.023
114.183
113.257
112.249
111.16
109.995
108.756
107.446
106.07
104.631
103.133
101.581
99.9794
98.3334
96.6481
94.9286
93.1803
91.4085
89.6185
87.8155
86.0046
84.1906
82.3805
117.857
117.746
117.493
117.121
116.647
116.077
115.413
114.658
113.816
112.889
111.88
110.794
109.632
108.399
107.097
105.731
104.305
102.823
101.289
99.7086
98.0858
96.4259
94.734
93.0151
91.2744
89.5169
87.7475
85.9711
84.1923
82.4173
117.655
117.52
117.25
116.872
116.396
115.823
115.157
114.4
113.557
112.63
111.622
110.538
109.379
108.151
106.855
105.497
104.08
102.609
101.088
99.5214
97.9143
96.2716
94.598
92.8987
91.1785
89.4423
87.6947
85.9405
84.1839
82.4301
117.637
117.438
117.139
116.755
116.276
115.7
115.031
114.272
113.428
112.501
111.494
110.411
109.256
108.031
106.74
105.387
103.977
102.514
101.001
99.4439
97.8472
96.2156
94.5538
92.8669
91.1595
89.4365
87.7024
85.9617
84.2188
82.4779
-50.6522
-30.4752
-11.0351
36.2017
28.9358
17.2621
51.8138
39.8215
28.7374
53.1793
42.7975
34.8035
57.4878
49.2322
42.5088
61.8563
54.9724
49.1038
65.1071
59.243
54.2088
67.6815
62.6687
58.3696
69.8512
65.5273
61.8252
71.6819
67.909
64.6864
73.2206
69.8942
67.0601
74.5164
71.5565
69.0397
75.6098
72.9534
70.698
76.5326
74.1301
72.0924
77.3113
75.1229
73.268
77.9676
75.9612
74.2611
78.5196
76.6689
75.1006
78.9825
77.2655
75.8099
79.3692
77.7673
76.4084
79.6905
78.188
76.9122
79.956
78.5393
77.3349
80.1743
78.8315
77.6882
80.3521
79.0726
77.9815
80.4972
79.2716
78.2246
80.6123
79.4319
78.4221
80.7091
79.5661
78.5863
80.7789
79.6657
78.7106
80.8503
79.7598
78.822
80.8834
79.8092
78.8854
80.9522
79.8921
78.9747
-2.00559
-1.84214
-0.429322
0.609958
0.680957
0.718508
0.762419
0.733022
0.700503
0.710182
0.69102
0.622228
0.554605
0.519264
0.499969
0.461093
0.395925
0.325277
0.272475
0.244574
0.227179
0.200849
0.159449
0.109892
0.0634078
0.0280424
0.00320725
-0.01709
-0.0274182
-0.0106301
3.58407
0.445303
1.49945
1.19592
0.14505
0.16533
0.627327
0.698879
0.634354
0.68084
0.676722
0.571799
0.479799
0.46782
0.496586
0.475743
0.396856
0.306077
0.244711
0.225973
0.225238
0.205839
0.158512
0.0973721
0.0408263
0.00196616
-0.0179815
-0.0289967
-0.0327264
-0.0123442
14.5347
6.08128
3.18262
1.0464
0.516785
1.23017
1.46699
0.654884
0.15652
0.364193
0.678514
0.585543
0.44288
0.455136
0.535975
0.507914
0.389836
0.260182
0.185134
0.188781
0.227121
0.222612
0.164087
0.084744
0.0136157
-0.0301409
-0.0425928
-0.0391541
-0.0344926
-0.01323
24.1108
14.2687
8.44151
4.7133
2.79843
1.98064
1.08284
0.431524
0.38736
1.2585
1.42395
0.560809
0.113324
0.123775
0.401715
0.558539
0.422539
0.237833
0.144286
0.181966
0.267882
0.25564
0.170543
0.0626986
-0.0285418
-0.0785222
-0.0792367
-0.0515107
-0.0327796
-0.0134602
33.208
23.4771
16.1716
10.8617
7.17824
4.67352
2.87875
1.79312
1.30989
1.31081
0.903362
0.415262
0.142838
0.413937
1.04641
0.982591
0.426625
0.0844791
-0.0679955
-0.00405097
0.198585
0.294601
0.195115
0.048792
-0.0676132
-0.123584
-0.106586
-0.0414856
-0.00390601
-0.00914065
41.1305
32.2231
24.343
17.91
12.9738
9.30489
6.60961
4.68408
3.35332
2.45378
1.69157
1.096
0.70811
0.682246
0.801933
0.722817
0.417163
0.100088
-0.0440515
0.159888
0.549989
0.513018
0.201965
-0.0224254
-0.168576
-0.229248
-0.194693
-0.0831906
0.00893532
-0.0192095
47.5907
39.7977
32.0308
25.1441
19.5108
15.0295
11.4864
8.71275
6.58506
4.9834
3.73995
2.74949
2.01544
1.57593
1.32007
1.07384
0.719473
0.355165
0.164276
0.222504
0.34977
0.359134
0.19347
-0.0142112
-0.17093
-0.232101
-0.1737
-0.00196903
0.171577
0.00518624
52.8536
46.1301
38.879
32.0512
26.1626
21.2045
17.0509
13.6114
10.8136
8.56902
6.75545
5.27933
4.11773
3.26027
2.63056
2.09199
1.55167
1.06729
0.749487
0.623177
0.58721
0.516037
0.320983
0.0784861
-0.106716
-0.18819
-0.153193
-0.0274134
0.12018
-0.0805015
57.1477
51.335
44.7541
38.2811
32.4592
27.339
22.858
18.9801
15.6751
12.8909
10.5534
8.59885
6.99063
5.69658
4.65325
3.76766
2.97856
2.30337
1.79121
1.44909
1.21297
0.981434
0.69249
0.392659
0.158126
0.0261635
-0.000753867
0.0419462
0.065038
-0.331581
60.6521
55.586
49.6844
43.6988
38.1411
33.0889
28.5137
24.4115
20.7838
17.6132
14.8629
12.4931
10.4698
8.75924
7.31362
6.07325
4.99364
4.06766
3.30884
2.71257
2.23338
1.80262
1.37908
0.981644
0.654245
0.421655
0.278116
0.178801
0.0160534
-0.550639
63.5299
59.0704
53.7897
48.3195
43.119
38.2712
33.7633
29.6073
25.8241
22.4195
19.3819
16.6909
14.3238
12.2554
10.4529
8.8772
7.49493
6.29013
5.25908
4.39049
3.65163
2.99734
2.3966
1.85085
1.38067
0.998067
0.690135
0.408006
0.0529654
-0.631493
65.9132
61.9485
57.2087
52.2269
47.4077
42.8293
38.4848
34.3915
30.5792
27.0665
23.8574
20.9464
18.3228
15.9718
13.8731
12.0016
10.3336
8.85289
7.54911
6.40872
5.40745
4.51416
3.70428
2.97071
2.3189
1.74995
1.24638
0.762693
0.22192
-0.560891
67.901
64.3438
60.0663
55.5238
51.0726
46.7829
42.6485
38.6866
34.9289
31.4
28.1128
25.0715
22.2748
19.7168
17.3869
15.2707
13.3527
11.6196
10.0604
8.66223
7.40663
6.27129
5.23666
4.29211
3.43397
2.65598
1.93915
1.24558
0.520527
-0.364537
69.568
66.3501
62.4655
58.309
54.196
50.1886
46.2791
42.4822
38.8282
35.3437
32.0454
28.9434
26.0427
23.344
20.844
18.5358
16.4107
14.4594
12.6728
11.04
9.54738
8.1785
6.91779
5.75367
4.67789
3.68033
2.74284
1.83584
0.922621
-0.0813641
70.9717
68.0386
64.4886
60.6679
56.8582
53.1141
49.4262
45.8058
42.2805
38.8759
35.6105
32.4972
29.5447
26.7582
24.1395
21.6871
19.3972
17.2644
15.2823
13.443
11.7363
10.1502
8.67225
7.2914
5.99775
4.7799
3.62166
2.50063
1.39273
0.246954
72.1569
69.4645
66.2003
62.6708
59.1298
55.6255
52.1468
48.7016
45.314
42.0081
38.8022
35.7102
32.7429
29.9082
27.2112
24.654
22.2365
19.9566
17.8107
15.7935
13.8978
12.1148
10.4347
8.84761
7.34367
5.91166
4.53754
3.20416
1.89517
0.58396
73.1592
70.6711
67.6518
64.3747
61.0702
57.7812
54.4952
51.217
47.9673
44.7678
41.636
38.5857
35.6286
32.774
30.029
27.3982
24.884
22.487
20.2058
18.0374
15.9772
14.0188
12.1545
10.3759
8.67396
7.03812
5.4562
3.9144
2.40016
0.903407
74.007
71.693
68.8839
65.8258
62.7287
59.6314
56.5203
53.3975
50.2805
47.1885
44.1375
41.1409
38.2102
35.3554
32.5847
29.9042
27.3181
24.8288
22.4369
20.1412
17.9391
15.8261
13.7963
11.8427
9.95717
8.13011
6.35059
4.60656
2.88655
1.19049
74.7237
72.5581
69.9299
67.0614
64.1459
61.2183
58.2643
55.2838
52.2913
49.3037
46.3353
43.3985
40.5043
37.6628
34.8825
32.1705
29.532
26.9708
24.4889
22.0866
19.7628
17.5145
15.3374
13.2255
11.1717
9.16711
7.20162
5.26377
3.34159
1.44009
75.3284
73.2895
70.8169
68.1128
65.3555
62.5773
59.7634
56.9117
54.034
51.1451
48.2577
45.3828
42.5308
39.7114
36.933
34.2031
31.5276
28.9111
26.3565
23.8655
21.4378
19.0719
16.7644
14.5106
12.3038
10.1359
7.99714
5.87596
3.75921
1.65357
75.8372
73.9064
71.5674
69.0053
66.3857
63.7384
61.0483
58.3118
55.5385
52.7412
49.9308
47.1172
44.3099
41.5179
38.7493
36.0117
33.3111
30.6526
28.04
25.4754
22.9597
20.4921
18.0702
15.6899
13.3452
11.0285
8.72994
6.43774
4.13738
1.83529
76.2638
74.425
72.2005
69.7608
67.2603
64.7269
62.1454
59.511
56.8314
54.1174
51.3787
48.6239
45.8614
43.0994
40.3458
37.6076
34.8911
32.2015
29.5428
26.9179
24.328
21.7732
19.2515
16.7594
14.2916
11.8406
9.39644
6.94701
4.47663
1.99041
76.6194
74.8584
72.7316
70.3966
67.9985
65.5635
63.0765
60.5315
57.9347
55.2955
52.6221
49.922
47.2027
44.4715
41.7357
39.0019
36.2763
33.564
30.8693
28.1951
25.5433
22.9142
20.3063
17.7166
15.14
12.5691
9.99415
7.40238
4.77742
2.12254
76.9147
75.2192
73.175
70.929
68.6181
66.2672
63.8613
61.3937
58.8692
56.2958
53.6807
51.0303
48.3511
45.6498
42.9329
40.2067
37.4769
34.7485
32.0259
29.312
26.609
23.9173
21.2359
18.5619
15.8905
13.2143
10.5235
7.80505
5.04211
2.23561
77.156
75.5149
73.5397
71.3683
69.1305
66.8504
64.5131
62.1113
59.6487
57.1321
54.5678
51.9613
49.3182
46.6446
43.9463
41.2292
38.4985
35.7591
33.015
30.2696
27.5247
24.781
22.0378
19.2922
16.5395
13.7724
10.9811
8.15222
5.26877
2.32931
77.3551
75.7581
73.8396
71.7295
69.552
67.3302
65.0497
62.7026
60.2917
57.8228
55.3016
52.7327
50.1211
47.472
44.791
42.0831
39.3536
36.6068
33.8468
31.0765
28.2981
25.5122
22.718
19.9129
17.0922
14.2486
11.3721
8.44938
5.46313
2.40885
77.5086
75.9465
74.0728
72.0113
69.8817
67.7064
65.4712
63.1679
60.7985
58.3682
55.8819
53.3438
50.7581
48.1297
45.4635
42.7642
40.0367
37.2851
34.5133
31.7241
28.9195
26.1002
23.2655
20.4126
17.5369
14.6312
11.6853
8.6857
5.6153
2.46723
77.6389
76.1025
74.2629
72.2383
70.1448
68.0047
65.8038
63.5338
61.196
58.7953
56.3358
53.8213
51.2558
48.6436
45.9891
43.2969
40.5715
37.8168
35.0364
32.2332
29.409
26.5645
23.6989
20.8096
17.8917
14.9379
11.9381
8.87848
5.74174
2.51716
77.719
76.1987
74.3815
72.3819
70.3129
68.1962
66.0183
63.7706
61.4541
59.0731
56.6316
54.1332
51.5813
48.9801
46.3337
43.6465
40.9227
38.1662
35.3803
32.5679
29.7307
26.8693
23.983
21.069
18.1224
15.1359
12.099
8.99773
5.81458
2.53721
77.8076
76.2885
74.4835
72.499
70.4436
68.3396
66.1739
63.9379
61.6324
59.2616
56.8292
54.3386
51.7932
49.197
46.554
43.8685
41.1445
38.3858
35.5959
32.7774
29.9322
27.0608
24.1624
21.2343
18.2715
15.2666
12.2087
9.08306
5.8695
2.544
)
;

boundaryField
{
    inlet
    {
        type            zeroGradient;
    }
    outlet
    {
        type            fixedValue;
        value           uniform 0;
    }
    flap
    {
        type            zeroGradient;
    }
    upperWall
    {
        type            zeroGradient;
    }
    lowerWall
    {
        type            zeroGradient;
    }
    frontAndBack
    {
        type            empty;
    }
}


// ************************************************************************* //
