/*--------------------------------*- C++ -*----------------------------------*\
  =========                 |
  \\      /  F ield         | OpenFOAM: The Open Source CFD Toolbox
   \\    /   O peration     | Website:  https://openfoam.org
    \\  /    A nd           | Version:  7
     \\/     M anipulation  |
\*---------------------------------------------------------------------------*/
FoamFile
{
    version     2.0;
    format      ascii;
    class       volVectorField;
    location    "3.3";
    object      U;
}
// * * * * * * * * * * * * * * * * * * * * * * * * * * * * * * * * * * * * * //

dimensions      [0 1 -1 0 0 0 0];

internalField   nonuniform List<vector> 
2790
(
(9.94399 0.0205234 0)
(9.87572 0.0295881 0)
(9.7752 0.0359901 0)
(9.64943 0.0425569 0)
(9.50408 0.0493862 0)
(9.34006 0.0564291 0)
(9.15653 0.0638166 0)
(8.95261 0.0717122 0)
(8.72745 0.0802557 0)
(8.48007 0.0895737 0)
(8.20926 0.0997935 0)
(7.91364 0.111045 0)
(7.59168 0.12346 0)
(7.24178 0.137164 0)
(6.86233 0.152272 0)
(6.45181 0.168869 0)
(6.0089 0.186996 0)
(5.53272 0.206618 0)
(5.02301 0.227589 0)
(4.4805 0.24961 0)
(3.90722 0.272176 0)
(3.3069 0.294525 0)
(2.68537 0.315621 0)
(2.05071 0.33429 0)
(1.41189 0.350609 0)
(0.798118 0.372886 0)
(0.110825 0.325097 0)
(-0.469535 -0.114834 0)
(-0.453758 -0.297151 0)
(-0.231153 -0.423849 0)
(9.9985 0.0407037 0)
(9.98145 0.0623841 0)
(9.93574 0.0791419 0)
(9.86416 0.0966268 0)
(9.77096 0.115126 0)
(9.65714 0.13449 0)
(9.52204 0.154977 0)
(9.36484 0.176945 0)
(9.1847 0.200708 0)
(8.98066 0.22655 0)
(8.75151 0.254744 0)
(8.49588 0.285559 0)
(8.2122 0.319247 0)
(7.89882 0.356019 0)
(7.55405 0.396016 0)
(7.17621 0.439258 0)
(6.76381 0.485587 0)
(6.3157 0.534581 0)
(5.8313 0.585456 0)
(5.31095 0.636949 0)
(4.75623 0.687199 0)
(4.1705 0.733644 0)
(3.55939 0.772953 0)
(2.93165 0.801097 0)
(2.30005 0.813758 0)
(1.69305 0.807266 0)
(1.10725 0.747279 0)
(0.658955 0.547965 0)
(0.186528 0.224662 0)
(-0.00819528 -0.453703 0)
(9.99559 0.0432081 0)
(9.97556 0.0752738 0)
(9.9318 0.103349 0)
(9.86489 0.132374 0)
(9.77777 0.163063 0)
(9.67154 0.195402 0)
(9.54587 0.229745 0)
(9.40012 0.266605 0)
(9.23364 0.306471 0)
(9.04562 0.349807 0)
(8.83508 0.39707 0)
(8.6008 0.448718 0)
(8.34144 0.505186 0)
(8.0555 0.566855 0)
(7.74138 0.634 0)
(7.39746 0.706718 0)
(7.02213 0.784822 0)
(6.61399 0.867707 0)
(6.17199 0.954177 0)
(5.6957 1.04224 0)
(5.18571 1.12887 0)
(4.64405 1.20978 0)
(4.07489 1.27915 0)
(3.48548 1.32934 0)
(2.88695 1.3501 0)
(2.29956 1.32645 0)
(1.73193 1.22082 0)
(1.21632 0.973062 0)
(0.70119 0.570215 0)
(0.358065 -0.15647 0)
(9.99403 0.0495009 0)
(9.97181 0.0932093 0)
(9.92788 0.133576 0)
(9.86224 0.174214 0)
(9.77692 0.216438 0)
(9.67297 0.260666 0)
(9.5503 0.307434 0)
(9.40847 0.357418 0)
(9.24701 0.411292 0)
(9.06531 0.469705 0)
(8.86267 0.533299 0)
(8.63818 0.602717 0)
(8.39084 0.678582 0)
(8.11951 0.761461 0)
(7.823 0.851803 0)
(7.50002 0.949853 0)
(7.14927 1.05552 0)
(6.76948 1.16821 0)
(6.35954 1.28657 0)
(5.91866 1.40824 0)
(5.4466 1.52944 0)
(4.94409 1.64466 0)
(4.41327 1.74613 0)
(3.85837 1.82322 0)
(3.28593 1.86138 0)
(2.7065 1.84036 0)
(2.12574 1.72606 0)
(1.55433 1.47794 0)
(0.957995 1.08379 0)
(0.509442 0.502423 0)
(9.99331 0.0572158 0)
(9.96994 0.110963 0)
(9.92593 0.162109 0)
(9.86145 0.213354 0)
(9.77798 0.266363 0)
(9.67634 0.321921 0)
(9.55652 0.380708 0)
(9.4182 0.443493 0)
(9.26095 0.511058 0)
(9.08431 0.584169 0)
(8.88768 0.663583 0)
(8.67037 0.750055 0)
(8.43157 0.844321 0)
(8.17045 0.947065 0)
(7.88607 1.05885 0)
(7.57748 1.18004 0)
(7.24368 1.31065 0)
(6.88363 1.45014 0)
(6.49632 1.59718 0)
(6.08079 1.74928 0)
(5.63623 1.90237 0)
(5.16221 2.05028 0)
(4.65888 2.18415 0)
(4.12732 2.29173 0)
(3.56952 2.35658 0)
(2.989 2.35736 0)
(2.38693 2.26503 0)
(1.76647 2.04774 0)
(1.09004 1.69152 0)
(0.536675 1.15428 0)
(9.99302 0.0655413 0)
(9.96923 0.128707 0)
(9.92556 0.19012 0)
(9.86252 0.251851 0)
(9.78127 0.315587 0)
(9.68243 0.382327 0)
(9.56599 0.452882 0)
(9.43169 0.528107 0)
(9.27918 0.608883 0)
(9.10804 0.696084 0)
(8.91775 0.790574 0)
(8.70771 0.893214 0)
(8.47726 1.00484 0)
(8.22566 1.12623 0)
(7.95214 1.25806 0)
(7.65588 1.40077 0)
(7.33604 1.5545 0)
(6.99166 1.71881 0)
(6.62172 1.8925 0)
(6.22506 2.07316 0)
(5.80035 2.25679 0)
(5.34613 2.43715 0)
(4.86082 2.60516 0)
(4.34282 2.74821 0)
(3.79052 2.84956 0)
(3.2027 2.88824 0)
(2.57669 2.83831 0)
(1.91356 2.67174 0)
(1.17281 2.37415 0)
(0.549996 1.89457 0)
(9.99297 0.0740781 0)
(9.96926 0.14632 0)
(9.92637 0.217492 0)
(9.86508 0.289302 0)
(9.78641 0.363366 0)
(9.69083 0.440838 0)
(9.57833 0.52267 0)
(9.44869 0.609818 0)
(9.30162 0.70326 0)
(9.13675 0.803965 0)
(8.95361 0.912895 0)
(8.75167 1.031 0)
(8.53031 1.1592 0)
(8.28885 1.29837 0)
(8.02657 1.44926 0)
(7.74268 1.61243 0)
(7.43629 1.78813 0)
(7.10642 1.9761 0)
(6.75184 2.17534 0)
(6.37106 2.38374 0)
(5.96217 2.59767 0)
(5.52273 2.81132 0)
(5.04964 3.0161 0)
(4.53914 3.19994 0)
(3.98681 3.34669 0)
(3.38806 3.43602 0)
(2.73739 3.44341 0)
(2.03635 3.34164 0)
(1.24182 3.11377 0)
(0.563549 2.69336 0)
(9.99306 0.0825919 0)
(9.96981 0.163613 0)
(9.92806 0.24406 0)
(9.86884 0.325491 0)
(9.79311 0.409459 0)
(9.70124 0.497219 0)
(9.59321 0.589851 0)
(9.46885 0.688406 0)
(9.32793 0.793946 0)
(9.17011 0.907531 0)
(8.99499 1.03021 0)
(8.80207 1.16302 0)
(8.59078 1.30699 0)
(8.36047 1.46306 0)
(8.11042 1.63211 0)
(7.83978 1.81482 0)
(7.5476 2.0116 0)
(7.23267 2.22244 0)
(6.89353 2.44665 0)
(6.52821 2.6826 0)
(6.13416 2.92726 0)
(5.70795 3.17568 0)
(5.2451 3.42029 0)
(4.73994 3.65016 0)
(4.18565 3.85023 0)
(3.57494 4.00094 0)
(2.89969 4.07802 0)
(2.16226 4.05256 0)
(1.31622 3.90193 0)
(0.583264 3.54042 0)
(9.99326 0.0909328 0)
(9.97072 0.180417 0)
(9.93045 0.269679 0)
(9.87361 0.360255 0)
(9.80116 0.453662 0)
(9.71342 0.551225 0)
(9.61035 0.654126 0)
(9.49185 0.763508 0)
(9.35772 0.880513 0)
(9.20769 1.00628 0)
(9.04141 1.14195 0)
(8.85843 1.28865 0)
(8.65823 1.4475 0)
(8.44017 1.61955 0)
(8.20353 1.80582 0)
(7.94742 2.00714 0)
(7.67076 2.22417 0)
(7.37216 2.45718 0)
(7.04981 2.70595 0)
(6.70131 2.96946 0)
(6.32342 3.24555 0)
(5.91175 3.53042 0)
(5.4605 3.81797 0)
(4.96219 4.09892 0)
(4.40762 4.35985 0)
(3.78662 4.58215 0)
(3.08778 4.7412 0)
(2.31289 4.80467 0)
(1.41077 4.74138 0)
(0.614369 4.44227 0)
(9.99352 0.0989974 0)
(9.9719 0.196589 0)
(9.9334 0.294209 0)
(9.87923 0.393433 0)
(9.81039 0.495773 0)
(9.72715 0.602607 0)
(9.6295 0.7152 0)
(9.51738 0.834777 0)
(9.39064 0.962555 0)
(9.24908 1.09975 0)
(9.0924 1.24759 0)
(8.92022 1.40728 0)
(8.73207 1.58004 0)
(8.52736 1.76707 0)
(8.30538 1.9695 0)
(8.06521 2.18841 0)
(7.80569 2.42471 0)
(7.52528 2.67906 0)
(7.22191 2.9518 0)
(6.89279 3.24268 0)
(6.53409 3.55065 0)
(6.14058 3.87335 0)
(5.7052 4.20657 0)
(5.21868 4.54328 0)
(4.66923 4.87239 0)
(4.04314 5.177 0)
(3.32397 5.43244 0)
(2.51002 5.60222 0)
(1.54205 5.64387 0)
(0.664142 5.41849 0)
(9.99384 0.10671 0)
(9.9733 0.212011 0)
(9.93679 0.317518 0)
(9.88557 0.424874 0)
(9.82062 0.53561 0)
(9.74223 0.651142 0)
(9.65042 0.772808 0)
(9.54514 0.901904 0)
(9.42633 1.03971 0)
(9.29385 1.18753 0)
(9.14747 1.34663 0)
(8.98688 1.51834 0)
(8.81168 1.70397 0)
(8.62136 1.90483 0)
(8.41525 2.12225 0)
(8.19246 2.35752 0)
(7.95182 2.61187 0)
(7.69174 2.88642 0)
(7.41003 3.18214 0)
(7.10365 3.4997 0)
(6.7684 3.8393 0)
(6.39843 4.20036 0)
(5.98571 4.58101 0)
(5.5193 4.97718 0)
(4.98466 5.38123 0)
(4.3636 5.77955 0)
(3.63226 6.14927 0)
(2.78047 6.45096 0)
(1.73371 6.62899 0)
(0.744961 6.5037 0)
(9.9942 0.114013 0)
(9.97487 0.226588 0)
(9.94055 0.339491 0)
(9.89251 0.454445 0)
(9.83172 0.573007 0)
(9.75848 0.696634 0)
(9.67285 0.826718 0)
(9.57484 0.964616 0)
(9.46443 1.11167 0)
(9.34156 1.26923 0)
(9.20609 1.43865 0)
(9.05779 1.62133 0)
(8.89636 1.81867 0)
(8.72139 2.03212 0)
(8.53229 2.26318 0)
(8.32828 2.51336 0)
(8.10827 2.78424 0)
(7.87074 3.07743 0)
(7.61356 3.39456 0)
(7.33371 3.7373 0)
(7.02694 4.10724 0)
(6.68723 4.5058 0)
(6.30603 4.93388 0)
(5.87131 5.39124 0)
(5.36609 5.87519 0)
(4.7673 6.37818 0)
(4.04119 6.88333 0)
(3.16195 7.35384 0)
(2.02515 7.72382 0)
(0.880943 7.75796 0)
(9.99459 0.120861 0)
(9.97657 0.240239 0)
(9.94461 0.360027 0)
(9.89994 0.482025 0)
(9.84354 0.607823 0)
(9.77573 0.738912 0)
(9.69659 0.876726 0)
(9.60618 1.02267 0)
(9.50458 1.17814 0)
(9.39178 1.34453 0)
(9.26774 1.52326 0)
(9.13234 1.71578 0)
(8.98538 1.92359 0)
(8.82659 2.14826 0)
(8.65552 2.39143 0)
(8.47156 2.65485 0)
(8.27382 2.94042 0)
(8.06098 3.2502 0)
(7.83118 3.58651 0)
(7.58173 3.95196 0)
(7.30877 4.34958 0)
(7.00669 4.78287 0)
(6.66733 5.2558 0)
(6.27869 5.77265 0)
(5.8228 6.33743 0)
(5.27296 6.95225 0)
(4.58515 7.61366 0)
(3.71067 8.30126 0)
(2.48883 8.95903 0)
(1.12485 9.29454 0)
(9.99501 0.127219 0)
(9.97837 0.2529 0)
(9.9489 0.379043 0)
(9.90778 0.507514 0)
(9.85596 0.639939 0)
(9.79379 0.777835 0)
(9.72139 0.922673 0)
(9.63888 1.07589 0)
(9.54641 1.23892 0)
(9.44405 1.4132 0)
(9.33187 1.60017 0)
(9.20985 1.80136 0)
(9.07795 2.01832 0)
(8.93602 2.25272 0)
(8.78385 2.50633 0)
(8.62103 2.7811 0)
(8.44695 3.07918 0)
(8.26067 3.40304 0)
(8.06082 3.75558 0)
(7.84535 4.14026 0)
(7.61124 4.56139 0)
(7.35406 5.02437 0)
(7.06721 5.53615 0)
(6.74059 6.10574 0)
(6.35826 6.74485 0)
(5.89462 7.4686 0)
(5.30159 8.29618 0)
(4.50993 9.24823 0)
(3.26997 10.3428 0)
(1.60577 11.3613 0)
(9.99544 0.13306 0)
(9.98026 0.264522 0)
(9.95338 0.396467 0)
(9.91594 0.53082 0)
(9.86886 0.669235 0)
(9.8125 0.813251 0)
(9.74703 0.964362 0)
(9.67266 1.12403 0)
(9.58957 1.29372 0)
(9.49794 1.47487 0)
(9.39793 1.66898 0)
(9.28967 1.87758 0)
(9.17325 2.10229 0)
(9.04872 2.34482 0)
(8.91608 2.60704 0)
(8.77522 2.89104 0)
(8.62589 3.19916 0)
(8.46765 3.53415 0)
(8.29977 3.89934 0)
(8.12112 4.2988 0)
(7.93 4.73776 0)
(7.72386 5.22307 0)
(7.49887 5.76394 0)
(7.24916 6.37321 0)
(6.96525 7.06934 0)
(6.63163 7.88017 0)
(6.21555 8.85122 0)
(5.66761 10.0656 0)
(4.69257 11.7319 0)
(2.68931 14.5967 0)
(0.145982 -0.150997 0)
(0.334267 -0.13394 0)
(0.529518 -0.107617 0)
(0.698061 -0.0844905 0)
(0.835332 -0.0661147 0)
(0.946989 -0.0518262 0)
(1.03941 -0.040828 0)
(1.11741 -0.0324581 0)
(1.18449 -0.0261286 0)
(1.24325 -0.0213061 0)
(1.29557 -0.017524 0)
(1.34261 -0.0144009 0)
(1.38497 -0.0116685 0)
(1.42284 -0.00919135 0)
(1.45631 -0.00691741 0)
(1.48545 -0.00472387 0)
(1.50995 -0.0022625 0)
(1.52854 0.000923431 0)
(1.53904 0.00487164 0)
(1.53993 0.00857976 0)
(1.53198 0.0107336 0)
(1.51859 0.0109913 0)
(1.50366 0.00966047 0)
(1.48932 0.00739853 0)
(1.47723 0.00465168 0)
(1.46962 0.00133407 0)
(1.47028 -0.00220465 0)
(1.4812 -0.00547258 0)
(1.50195 -0.00778649 0)
(1.53594 -0.00789848 0)
(0.115967 -0.331511 0)
(0.296119 -0.306589 0)
(0.473346 -0.25335 0)
(0.628802 -0.204696 0)
(0.759093 -0.165703 0)
(0.868981 -0.135322 0)
(0.963554 -0.111946 0)
(1.04661 -0.0941786 0)
(1.12093 -0.0807569 0)
(1.18859 -0.0705239 0)
(1.25112 -0.0624532 0)
(1.3095 -0.0556879 0)
(1.36423 -0.0496201 0)
(1.41545 -0.0439724 0)
(1.46322 -0.03873 0)
(1.5078 -0.0337805 0)
(1.54962 -0.0284538 0)
(1.58862 -0.0216913 0)
(1.62352 -0.0132478 0)
(1.65197 -0.00477833 0)
(1.67295 0.00154919 0)
(1.6889 0.0057728 0)
(1.70321 0.00863243 0)
(1.71735 0.00946917 0)
(1.73163 0.00758868 0)
(1.74665 0.00327407 0)
(1.76205 -0.00264691 0)
(1.77771 -0.00951562 0)
(1.79412 -0.0162771 0)
(1.81705 -0.0191379 0)
(0.086157 -0.512774 0)
(0.236263 -0.478341 0)
(0.372002 -0.398965 0)
(0.491364 -0.326177 0)
(0.590942 -0.267739 0)
(0.67516 -0.221964 0)
(0.747734 -0.186491 0)
(0.811393 -0.159257 0)
(0.868195 -0.138424 0)
(0.919727 -0.122335 0)
(0.967182 -0.109504 0)
(1.01134 -0.0986494 0)
(1.05257 -0.0888215 0)
(1.09083 -0.0796017 0)
(1.1259 -0.0711215 0)
(1.15786 -0.0635559 0)
(1.18753 -0.0560815 0)
(1.21592 -0.0465345 0)
(1.24273 -0.0332501 0)
(1.26541 -0.0191149 0)
(1.2811 -0.0106523 0)
(1.29236 -0.00874064 0)
(1.30273 -0.00968812 0)
(1.31106 -0.0116016 0)
(1.31534 -0.0144945 0)
(1.31511 -0.0175381 0)
(1.31061 -0.0201573 0)
(1.30125 -0.0225271 0)
(1.2883 -0.0245055 0)
(1.2731 -0.0239288 0)
(0.0587875 -0.647017 0)
(0.170343 -0.597451 0)
(0.255478 -0.49503 0)
(0.332006 -0.404224 0)
(0.393231 -0.332046 0)
(0.444273 -0.275562 0)
(0.487173 -0.231775 0)
(0.523547 -0.198086 0)
(0.554728 -0.172246 0)
(0.581784 -0.152271 0)
(0.605576 -0.136364 0)
(0.626769 -0.122917 0)
(0.64582 -0.110635 0)
(0.662643 -0.0988477 0)
(0.67654 -0.0877566 0)
(0.68659 -0.0781085 0)
(0.693166 -0.0699184 0)
(0.699215 -0.0617035 0)
(0.707624 -0.0506861 0)
(0.717124 -0.0344562 0)
(0.704593 -0.0166305 0)
(0.663682 -0.00422469 0)
(0.616789 0.00208066 0)
(0.572334 0.00606613 0)
(0.531524 0.00835311 0)
(0.497147 0.00816298 0)
(0.477843 0.00502059 0)
(0.46484 5.30527e-05 0)
(0.458786 -0.00661075 0)
(0.462493 -0.017653 0)
(0.0310911 -0.737052 0)
(0.0967335 -0.667478 0)
(0.124624 -0.545454 0)
(0.15451 -0.443079 0)
(0.171726 -0.362105 0)
(0.183729 -0.298684 0)
(0.190468 -0.249432 0)
(0.192777 -0.211424 0)
(0.191395 -0.182188 0)
(0.186928 -0.159601 0)
(0.179948 -0.141758 0)
(0.171134 -0.126888 0)
(0.161398 -0.113366 0)
(0.150881 -0.100033 0)
(0.13898 -0.0866659 0)
(0.123442 -0.0738166 0)
(0.0992863 -0.0614354 0)
(0.0694453 -0.0474659 0)
(0.0318002 -0.0278045 0)
(-0.00543577 -0.00188363 0)
(-0.0299962 0.0211357 0)
(-0.046108 0.0326534 0)
(-0.062449 0.0343162 0)
(-0.0779497 0.0302134 0)
(-0.0934897 0.0218224 0)
(-0.107385 0.0103013 0)
(-0.111117 -0.000386785 0)
(-0.110209 -0.00957213 0)
(-0.107989 -0.0193165 0)
(-0.108187 -0.0309714 0)
(0.00152691 -0.775173 0)
(0.0148048 -0.682016 0)
(-0.0173717 -0.543592 0)
(-0.0377024 -0.435314 0)
(-0.0684535 -0.349401 0)
(-0.100241 -0.282566 0)
(-0.134575 -0.230889 0)
(-0.170698 -0.191166 0)
(-0.208142 -0.160608 0)
(-0.246529 -0.136885 0)
(-0.285448 -0.118066 0)
(-0.324282 -0.10248 0)
(-0.362181 -0.0886725 0)
(-0.398211 -0.0755119 0)
(-0.431659 -0.0624048 0)
(-0.462364 -0.0493737 0)
(-0.490541 -0.0367455 0)
(-0.515872 -0.0242549 0)
(-0.537059 -0.0112598 0)
(-0.553002 0.00214481 0)
(-0.558984 0.0159931 0)
(-0.563803 0.0269473 0)
(-0.567076 0.0317548 0)
(-0.569947 0.0303723 0)
(-0.57376 0.0242104 0)
(-0.578705 0.0152185 0)
(-0.583086 0.00544581 0)
(-0.585225 -0.00494609 0)
(-0.589521 -0.0159901 0)
(-0.594707 -0.0264019 0)
(-0.0329635 -0.753244 0)
(-0.0775135 -0.63354 0)
(-0.166151 -0.491926 0)
(-0.241056 -0.382838 0)
(-0.319082 -0.29765 0)
(-0.394326 -0.232465 0)
(-0.466391 -0.182925 0)
(-0.534333 -0.145768 0)
(-0.597387 -0.118181 0)
(-0.655124 -0.097731 0)
(-0.707495 -0.0824097 0)
(-0.754651 -0.0705147 0)
(-0.796771 -0.0605771 0)
(-0.833982 -0.051403 0)
(-0.866439 -0.0422052 0)
(-0.89445 -0.032644 0)
(-0.918446 -0.0226171 0)
(-0.938742 -0.0119094 0)
(-0.955216 -0.000352719 0)
(-0.964694 0.0112328 0)
(-0.969231 0.0214744 0)
(-0.970549 0.028991 0)
(-0.970109 0.0320152 0)
(-0.969544 0.0302432 0)
(-0.97018 0.0242459 0)
(-0.972593 0.0153673 0)
(-0.976306 0.00546721 0)
(-0.980526 -0.00466361 0)
(-0.986863 -0.0157212 0)
(-0.992129 -0.0257766 0)
(-0.0736558 -0.669213 0)
(-0.174275 -0.531225 0)
(-0.318002 -0.391152 0)
(-0.443953 -0.287052 0)
(-0.563235 -0.209863 0)
(-0.671022 -0.153774 0)
(-0.766854 -0.113452 0)
(-0.85098 -0.0849701 0)
(-0.924328 -0.0654129 0)
(-0.988006 -0.0522272 0)
(-1.04324 -0.0433172 0)
(-1.09116 -0.0370278 0)
(-1.13269 -0.0320332 0)
(-1.16857 -0.0272897 0)
(-1.19942 -0.0220998 0)
(-1.22582 -0.0161589 0)
(-1.24823 -0.00944915 0)
(-1.2669 -0.00204334 0)
(-1.28054 0.00600846 0)
(-1.28926 0.0146265 0)
(-1.29408 0.0228564 0)
(-1.29558 0.0290292 0)
(-1.29521 0.0316809 0)
(-1.29457 0.0303178 0)
(-1.29495 0.0252193 0)
(-1.29709 0.017409 0)
(-1.30115 0.00825341 0)
(-1.30681 -0.00168407 0)
(-1.31429 -0.012625 0)
(-1.31935 -0.021959 0)
(-0.120597 -0.523094 0)
(-0.277919 -0.375862 0)
(-0.4745 -0.247895 0)
(-0.643669 -0.159802 0)
(-0.795277 -0.0984191 0)
(-0.925986 -0.0575175 0)
(-1.03685 -0.0316284 0)
(-1.12752 -0.01714 0)
(-1.20219 -0.00954081 0)
(-1.26429 -0.00604579 0)
(-1.31664 -0.00484953 0)
(-1.36137 -0.00473333 0)
(-1.39992 -0.00479018 0)
(-1.43327 -0.00429413 0)
(-1.46211 -0.00276044 0)
(-1.4869 -4.54299e-05 0)
(-1.50786 0.0036964 0)
(-1.52479 0.00820793 0)
(-1.5381 0.013414 0)
(-1.54767 0.0191896 0)
(-1.55355 0.0249571 0)
(-1.55644 0.0294781 0)
(-1.5576 0.0314979 0)
(-1.55846 0.0303056 0)
(-1.56013 0.025907 0)
(-1.56338 0.0190567 0)
(-1.56868 0.0108214 0)
(-1.57622 0.00164582 0)
(-1.58472 -0.00850206 0)
(-1.58993 -0.0167551 0)
(-0.178496 -0.322027 0)
(-0.403959 -0.178675 0)
(-0.659917 -0.0555909 0)
(-0.85828 0.00893161 0)
(-1.01926 0.0396518 0)
(-1.14859 0.0517791 0)
(-1.25251 0.0533586 0)
(-1.33872 0.0501067 0)
(-1.41055 0.0444747 0)
(-1.47091 0.0380079 0)
(-1.52212 0.0316256 0)
(-1.56592 0.0257971 0)
(-1.60354 0.0208619 0)
(-1.63586 0.0172336 0)
(-1.66371 0.0152706 0)
(-1.68789 0.0150138 0)
(-1.7089 0.0161506 0)
(-1.72682 0.0182716 0)
(-1.74136 0.0211105 0)
(-1.75225 0.0245175 0)
(-1.75969 0.0281613 0)
(-1.76448 0.0312319 0)
(-1.76785 0.0326675 0)
(-1.77102 0.0316174 0)
(-1.7749 0.0278262 0)
(-1.78013 0.0217774 0)
(-1.78732 0.0142948 0)
(-1.79673 0.0057639 0)
(-1.80622 -0.0035062 0)
(-1.81169 -0.010793 0)
(-0.250372 -0.00306223 0)
(-0.517182 0.133603 0)
(-0.783133 0.167747 0)
(-0.988478 0.174888 0)
(-1.15549 0.167235 0)
(-1.29063 0.152118 0)
(-1.40021 0.134161 0)
(-1.48951 0.115685 0)
(-1.56275 0.0979319 0)
(-1.62355 0.0819096 0)
(-1.67488 0.0681053 0)
(-1.71885 0.0563983 0)
(-1.75668 0.046585 0)
(-1.78921 0.0388474 0)
(-1.81738 0.033538 0)
(-1.84215 0.0306121 0)
(-1.86418 0.0294566 0)
(-1.88343 0.0293042 0)
(-1.89944 0.0297407 0)
(-1.91185 0.0307783 0)
(-1.92097 0.0324374 0)
(-1.92777 0.0342466 0)
(-1.93354 0.0352242 0)
(-1.93935 0.0343322 0)
(-1.94585 0.031035 0)
(-1.95342 0.0255747 0)
(-1.96268 0.0186504 0)
(-1.97399 0.0107393 0)
(-1.98509 0.00235159 0)
(-1.99056 -0.0041278 0)
(-0.284572 0.371147 0)
(-0.580441 0.419721 0)
(-0.88095 0.396145 0)
(-1.10653 0.353842 0)
(-1.28251 0.306474 0)
(-1.41976 0.260339 0)
(-1.52814 0.218788 0)
(-1.61505 0.18264 0)
(-1.68562 0.151495 0)
(-1.74383 0.125401 0)
(-1.7931 0.104233 0)
(-1.83581 0.0869347 0)
(-1.87295 0.0724019 0)
(-1.90498 0.0605589 0)
(-1.93281 0.0519787 0)
(-1.95776 0.0466591 0)
(-1.98068 0.0435689 0)
(-2.00142 0.0413791 0)
(-2.01908 0.0394477 0)
(-2.03307 0.0380696 0)
(-2.04375 0.0378013 0)
(-2.05242 0.0385359 0)
(-2.06057 0.0392572 0)
(-2.0692 0.0386138 0)
(-2.07863 0.0357264 0)
(-2.08892 0.030634 0)
(-2.1006 0.0240534 0)
(-2.11402 0.0166684 0)
(-2.1267 0.00908878 0)
(-2.13275 0.00335508 0)
(-0.333673 0.783577 0)
(-0.682519 0.766693 0)
(-1.01638 0.652391 0)
(-1.24631 0.539867 0)
(-1.4162 0.444667 0)
(-1.54398 0.364157 0)
(-1.64249 0.298267 0)
(-1.72092 0.245177 0)
(-1.78456 0.201406 0)
(-1.83693 0.165834 0)
(-1.88181 0.138236 0)
(-1.92195 0.11639 0)
(-1.95773 0.0976801 0)
(-1.98865 0.0817947 0)
(-2.01545 0.0700674 0)
(-2.04006 0.0628421 0)
(-2.06383 0.0584432 0)
(-2.08633 0.0545943 0)
(-2.10593 0.0502912 0)
(-2.12149 0.0463138 0)
(-2.13348 0.0440827 0)
(-2.14373 0.0439759 0)
(-2.15416 0.0447877 0)
(-2.16576 0.0446283 0)
(-2.17841 0.0421501 0)
(-2.19171 0.0372068 0)
(-2.20588 0.030677 0)
(-2.22132 0.0236227 0)
(-2.23547 0.0168136 0)
(-2.24216 0.0118286 0)
(-0.430188 1.2836 0)
(-0.859405 1.16826 0)
(-1.21704 0.918823 0)
(-1.4223 0.71249 0)
(-1.56329 0.568163 0)
(-1.66747 0.453631 0)
(-1.74591 0.36563 0)
(-1.80936 0.299814 0)
(-1.86233 0.246032 0)
(-1.90589 0.201615 0)
(-1.94405 0.168748 0)
(-1.98071 0.1441 0)
(-2.01512 0.122095 0)
(-2.04464 0.102097 0)
(-2.06955 0.0872524 0)
(-2.0931 0.0789125 0)
(-2.11771 0.0742854 0)
(-2.14253 0.0693733 0)
(-2.16457 0.0625718 0)
(-2.18165 0.055515 0)
(-2.19442 0.0510923 0)
(-2.20566 0.0504146 0)
(-2.21811 0.0518144 0)
(-2.23271 0.0524764 0)
(-2.24874 0.0503958 0)
(-2.26502 0.0452704 0)
(-2.28134 0.038333 0)
(-2.29812 0.0312785 0)
(-2.31304 0.0251567 0)
(-2.31995 0.0209621 0)
(-0.629082 2.19064 0)
(-1.15244 1.79029 0)
(-1.5231 1.20852 0)
(-1.64929 0.817363 0)
(-1.72355 0.651613 0)
(-1.78938 0.521528 0)
(-1.83621 0.418346 0)
(-1.87867 0.345076 0)
(-1.92009 0.282299 0)
(-1.95316 0.227093 0)
(-1.9817 0.191316 0)
(-2.01405 0.169008 0)
(-2.04801 0.146464 0)
(-2.07626 0.122139 0)
(-2.09801 0.103386 0)
(-2.11927 0.0946999 0)
(-2.14475 0.0913277 0)
(-2.17287 0.0860455 0)
(-2.19813 0.0762941 0)
(-2.21656 0.065178 0)
(-2.22905 0.0580623 0)
(-2.24019 0.0572283 0)
(-2.25409 0.0600371 0)
(-2.27169 0.0620738 0)
(-2.29128 0.0604206 0)
(-2.31059 0.0546925 0)
(-2.32874 0.0467394 0)
(-2.34628 0.0392741 0)
(-2.36146 0.033848 0)
(-2.36842 0.0306198 0)
(9.9959 0.138456 0)
(9.98225 0.275258 0)
(9.9581 0.412553 0)
(9.92452 0.552308 0)
(9.88239 0.696201 0)
(9.83213 0.845784 0)
(9.77394 1.00256 0)
(9.70809 1.16801 0)
(9.63484 1.3436 0)
(9.55449 1.53078 0)
(9.46729 1.73106 0)
(9.37351 1.94597 0)
(9.27341 2.17715 0)
(9.16726 2.42634 0)
(9.0553 2.69544 0)
(8.93776 2.98661 0)
(8.81482 3.30227 0)
(8.68663 3.64533 0)
(8.55326 4.0193 0)
(8.41472 4.42856 0)
(8.27093 4.87873 0)
(8.12179 5.37729 0)
(7.96727 5.9344 0)
(7.80763 6.56443 0)
(7.64414 7.28843 0)
(7.48182 8.13903 0)
(7.33405 9.17021 0)
(7.2912 10.4756 0)
(7.75257 12.2002 0)
(7.94086 14.9203 0)
(9.99638 0.143417 0)
(9.98433 0.285115 0)
(9.96304 0.427284 0)
(9.9335 0.571922 0)
(9.89654 0.720721 0)
(9.85258 0.875239 0)
(9.80192 1.03698 0)
(9.74485 1.20743 0)
(9.68175 1.38803 0)
(9.61299 1.58025 0)
(9.53895 1.78556 0)
(9.46004 2.00549 0)
(9.37671 2.24165 0)
(9.28944 2.49577 0)
(9.19875 2.76974 0)
(9.10521 3.06566 0)
(9.00948 3.38596 0)
(8.91232 3.73348 0)
(8.81463 4.11169 0)
(8.71761 4.52483 0)
(8.62286 4.97832 0)
(8.53275 5.47918 0)
(8.45102 6.03673 0)
(8.38394 6.66354 0)
(8.34272 7.37683 0)
(8.3495 8.19997 0)
(8.44322 9.16305 0)
(8.67992 10.2992 0)
(9.32865 11.5527 0)
(9.82157 12.6372 0)
(9.99688 0.147855 0)
(9.9865 0.29393 0)
(9.96818 0.440439 0)
(9.94281 0.589397 0)
(9.91118 0.742501 0)
(9.87373 0.9013 0)
(9.8308 1.06729 0)
(9.78276 1.24194 0)
(9.73004 1.42666 0)
(9.67311 1.6229 0)
(9.61249 1.83209 0)
(9.54872 2.05571 0)
(9.48242 2.29533 0)
(9.4143 2.55259 0)
(9.34514 2.8293 0)
(9.27588 3.12745 0)
(9.20761 3.44932 0)
(9.14167 3.79754 0)
(9.07974 4.17523 0)
(9.02406 4.58613 0)
(8.97763 5.03485 0)
(8.94474 5.52705 0)
(8.93169 6.06971 0)
(8.948 6.67119 0)
(9.0082 7.34092 0)
(9.13442 8.08746 0)
(9.35769 8.9126 0)
(9.68743 9.80502 0)
(10.2532 10.713 0)
(10.9405 11.4258 0)
(9.9974 0.151718 0)
(9.98873 0.301594 0)
(9.97346 0.451849 0)
(9.95237 0.604502 0)
(9.9262 0.761238 0)
(9.8954 0.923593 0)
(9.86035 1.09304 0)
(9.82149 1.271 0)
(9.77932 1.45888 0)
(9.73439 1.65804 0)
(9.68732 1.86987 0)
(9.63879 2.09578 0)
(9.58961 2.33723 0)
(9.54066 2.59575 0)
(9.49298 2.87301 0)
(9.44783 3.17079 0)
(9.40667 3.4911 0)
(9.37135 3.83621 0)
(9.34415 4.20868 0)
(9.32805 4.61149 0)
(9.32698 5.04803 0)
(9.34625 5.52213 0)
(9.39309 6.03791 0)
(9.47742 6.59931 0)
(9.61243 7.20907 0)
(9.81494 7.86681 0)
(10.1077 8.56537 0)
(10.4992 9.28998 0)
(11.0562 10.0305 0)
(11.8485 10.6737 0)
(9.99792 0.154959 0)
(9.991 0.308016 0)
(9.97883 0.461381 0)
(9.9621 0.617059 0)
(9.94147 0.776715 0)
(9.9174 0.941857 0)
(9.89033 1.11392 0)
(9.86073 1.29428 0)
(9.82916 1.48429 0)
(9.79626 1.68523 0)
(9.76275 1.89842 0)
(9.72942 2.12516 0)
(9.69721 2.36678 0)
(9.66719 2.62466 0)
(9.64061 2.90025 0)
(9.61895 3.19507 0)
(9.604 3.51078 0)
(9.59793 3.84916 0)
(9.60344 4.21212 0)
(9.62391 4.6017 0)
(9.66365 5.01999 0)
(9.7282 5.46901 0)
(9.82463 5.95035 0)
(9.96187 6.4647 0)
(10.151 7.01094 0)
(10.405 7.58519 0)
(10.7412 8.17929 0)
(11.1711 8.77854 0)
(11.7178 9.37136 0)
(12.4697 9.8829 0)
(9.99845 0.157535 0)
(9.9933 0.31311 0)
(9.98426 0.468907 0)
(9.97191 0.626902 0)
(9.95686 0.788729 0)
(9.93956 0.955852 0)
(9.92047 1.12966 0)
(9.90012 1.31147 0)
(9.87912 1.50255 0)
(9.85817 1.70412 0)
(9.83806 1.91737 0)
(9.81969 2.14348 0)
(9.8041 2.38363 0)
(9.7925 2.63899 0)
(9.78628 2.91077 0)
(9.78711 3.20019 0)
(9.79694 3.5085 0)
(9.81815 3.83692 0)
(9.85359 4.18669 0)
(9.90676 4.55893 0)
(9.98193 4.95452 0)
(10.0843 5.37394 0)
(10.2203 5.81691 0)
(10.3973 6.28196 0)
(10.6242 6.76584 0)
(10.9107 7.26275 0)
(11.2679 7.76348 0)
(11.7037 8.25246 0)
(12.219 8.713 0)
(12.8936 9.10365 0)
(9.99898 0.159406 0)
(9.9956 0.316799 0)
(9.98969 0.474314 0)
(9.98174 0.633885 0)
(9.97225 0.797098 0)
(9.96168 0.965367 0)
(9.95051 1.14002 0)
(9.93932 1.3223 0)
(9.92873 1.51339 0)
(9.91951 1.71441 0)
(9.9125 1.92643 0)
(9.90867 2.15048 0)
(9.90914 2.38755 0)
(9.91519 2.63862 0)
(9.92831 2.9046 0)
(9.95024 3.1864 0)
(9.98302 3.48482 0)
(10.0291 3.80058 0)
(10.0912 4.13425 0)
(10.1727 4.48611 0)
(10.2776 4.85607 0)
(10.4105 5.24341 0)
(10.5767 5.64657 0)
(10.782 6.06271 0)
(11.0329 6.48737 0)
(11.3358 6.91383 0)
(11.6968 7.33276 0)
(12.1199 7.73075 0)
(12.5991 8.09326 0)
(13.2034 8.39982 0)
(9.99951 0.160539 0)
(9.99788 0.319016 0)
(9.99509 0.477506 0)
(9.99148 0.63788 0)
(9.98749 0.801672 0)
(9.98356 0.970232 0)
(9.98019 1.14481 0)
(9.97796 1.32658 0)
(9.97754 1.51661 0)
(9.97971 1.71592 0)
(9.98535 1.92544 0)
(9.99547 2.14604 0)
(10.0112 2.37853 0)
(10.0339 2.62365 0)
(10.0651 2.88204 0)
(10.1065 3.15426 0)
(10.16 3.44074 0)
(10.2282 3.74169 0)
(10.3134 4.0571 0)
(10.4189 4.3866 0)
(10.548 4.72931 0)
(10.7045 5.08373 0)
(10.8926 5.44744 0)
(11.1165 5.81694 0)
(11.3806 6.18732 0)
(11.6886 6.55204 0)
(12.0434 6.90282 0)
(12.4464 7.22935 0)
(12.89 7.52054 0)
(13.4321 7.7651 0)
(10 0.160905 0)
(10.0001 0.319707 0)
(10.0004 0.478401 0)
(10.0011 0.638788 0)
(10.0025 0.802333 0)
(10.005 0.970314 0)
(10.0092 1.1439 0)
(10.0157 1.32417 0)
(10.0251 1.5121 0)
(10.0382 1.70857 0)
(10.0559 1.91438 0)
(10.0792 2.13023 0)
(10.1093 2.35674 0)
(10.1475 2.59442 0)
(10.1952 2.84365 0)
(10.2541 3.10468 0)
(10.3262 3.37757 0)
(10.4134 3.66213 0)
(10.5183 3.95787 0)
(10.6433 4.26392 0)
(10.7914 4.57888 0)
(10.9654 4.90074 0)
(11.1684 5.2267 0)
(11.4033 5.55307 0)
(11.6727 5.87508 0)
(11.9784 6.18691 0)
(12.3214 6.48168 0)
(12.7013 6.75159 0)
(13.1104 6.98831 0)
(13.5974 7.18502 0)
(10.0005 0.160484 0)
(10.0023 0.31883 0)
(10.0056 0.476941 0)
(10.0104 0.636534 0)
(10.017 0.798998 0)
(10.0258 0.965531 0)
(10.0374 1.13721 0)
(10.0522 1.31502 0)
(10.0709 1.49983 0)
(10.0944 1.69238 0)
(10.1234 1.89333 0)
(10.1591 2.10323 0)
(10.2024 2.32251 0)
(10.2547 2.55146 0)
(10.3174 2.79022 0)
(10.3919 3.03878 0)
(10.4799 3.29686 0)
(10.5835 3.56398 0)
(10.7044 3.83929 0)
(10.845 4.12156 0)
(11.0072 4.40911 0)
(11.1935 4.69968 0)
(11.4057 4.99039 0)
(11.6457 5.27768 0)
(11.9147 5.55724 0)
(12.2135 5.82411 0)
(12.5415 6.07277 0)
(12.8973 6.29734 0)
(13.2741 6.4918 0)
(13.7134 6.65199 0)
(10.001 0.15926 0)
(10.0044 0.316356 0)
(10.0106 0.473085 0)
(10.0194 0.631072 0)
(10.031 0.791621 0)
(10.0459 0.955842 0)
(10.0644 1.12473 0)
(10.0871 1.29914 0)
(10.1147 1.47984 0)
(10.1478 1.66746 0)
(10.1874 1.86252 0)
(10.2344 2.06539 0)
(10.2898 2.27634 0)
(10.3548 2.49548 0)
(10.4306 2.72273 0)
(10.5187 2.95783 0)
(10.6204 3.20032 0)
(10.7373 3.44942 0)
(10.8711 3.70407 0)
(11.0235 3.96286 0)
(11.1959 4.22395 0)
(11.3899 4.48505 0)
(11.6069 4.7434 0)
(11.8476 4.99575 0)
(12.1124 5.23838 0)
(12.4012 5.46721 0)
(12.7127 5.6779 0)
(13.0451 5.86613 0)
(13.3923 6.02766 0)
(13.7906 6.15999 0)
(10.0015 0.157226 0)
(10.0065 0.31227 0)
(10.0154 0.466816 0)
(10.028 0.622386 0)
(10.0444 0.780193 0)
(10.065 0.941258 0)
(10.09 1.10647 0)
(10.1202 1.2766 0)
(10.156 1.45229 0)
(10.1981 1.63404 0)
(10.2474 1.82225 0)
(10.3047 2.01716 0)
(10.3709 2.21886 0)
(10.447 2.4273 0)
(10.5343 2.64225 0)
(10.6338 2.86326 0)
(10.7468 3.08968 0)
(10.8745 3.3206 0)
(11.0182 3.55483 0)
(11.1791 3.79085 0)
(11.3582 4.02683 0)
(11.5565 4.26059 0)
(11.7747 4.4896 0)
(12.0129 4.711 0)
(12.2709 4.9217 0)
(12.5481 5.11841 0)
(12.8428 5.29782 0)
(13.1531 5.45679 0)
(13.4736 5.5924 0)
(13.8367 5.70315 0)
(10.0019 0.15438 0)
(10.0084 0.30657 0)
(10.0199 0.458135 0)
(10.0361 0.610488 0)
(10.0571 0.764744 0)
(10.0829 0.921831 0)
(10.1141 1.08254 0)
(10.1511 1.24755 0)
(10.1945 1.41737 0)
(10.2449 1.59242 0)
(10.3029 1.77295 0)
(10.3693 1.95908 0)
(10.445 2.15078 0)
(10.5309 2.34787 0)
(10.6279 2.54996 0)
(10.7369 2.7565 0)
(10.859 2.96672 0)
(10.995 3.17963 0)
(11.146 3.39397 0)
(11.3126 3.60826 0)
(11.4956 3.82074 0)
(11.6953 4.0294 0)
(11.9121 4.23202 0)
(12.1456 4.42618 0)
(12.3952 4.60934 0)
(12.66 4.77892 0)
(12.9382 4.93245 0)
(13.2279 5.06766 0)
(13.5247 5.18257 0)
(13.8575 5.27633 0)
(10.0024 0.150728 0)
(10.0102 0.299272 0)
(10.0241 0.447068 0)
(10.0437 0.595417 0)
(10.0689 0.745337 0)
(10.0997 0.897661 0)
(10.1366 1.05309 0)
(10.1799 1.21218 0)
(10.2301 1.37537 0)
(10.2878 1.54296 0)
(10.3536 1.71509 0)
(10.4281 1.89179 0)
(10.512 2.07291 0)
(10.6062 2.25816 0)
(10.7112 2.44707 0)
(10.8279 2.63901 0)
(10.957 2.83314 0)
(11.0992 3.02844 0)
(11.2551 3.22368 0)
(11.4252 3.41745 0)
(11.6097 3.60814 0)
(11.8087 3.79396 0)
(12.0221 3.97299 0)
(12.2494 4.14323 0)
(12.4897 4.30265 0)
(12.7419 4.44927 0)
(13.0044 4.58124 0)
(13.2753 4.69697 0)
(13.5508 4.79512 0)
(13.8573 4.87528 0)
(10.0027 0.146283 0)
(10.0119 0.2904 0)
(10.0281 0.433657 0)
(10.0508 0.57724 0)
(10.0798 0.722069 0)
(10.1152 0.868884 0)
(10.1572 1.01829 0)
(10.2062 1.17076 0)
(10.2626 1.32662 0)
(10.3268 1.4861 0)
(10.3994 1.64924 0)
(10.4809 1.81597 0)
(10.5718 1.98608 0)
(10.6727 2.15919 0)
(10.7843 2.33478 0)
(10.907 2.51217 0)
(11.0414 2.69052 0)
(11.1878 2.86882 0)
(11.3467 3.04591 0)
(11.5183 3.22048 0)
(11.7024 3.3911 0)
(11.8991 3.55622 0)
(12.1078 3.71423 0)
(12.3279 3.8635 0)
(12.5585 4.00243 0)
(12.7984 4.12951 0)
(13.046 4.2434 0)
(13.2997 4.34299 0)
(13.5563 4.4274 0)
(13.8399 4.49647 0)
(10.0031 0.141063 0)
(10.0134 0.279992 0)
(10.0317 0.417963 0)
(10.0573 0.556048 0)
(10.0898 0.695068 0)
(10.1293 0.835672 0)
(10.1759 0.978377 0)
(10.23 1.12357 0)
(10.2918 1.27151 0)
(10.3618 1.42231 0)
(10.4402 1.57597 0)
(10.5276 1.73234 0)
(10.6243 1.89114 0)
(10.7307 2.05196 0)
(10.8474 2.21425 0)
(10.9746 2.37732 0)
(11.1126 2.54034 0)
(11.2617 2.70237 0)
(11.422 2.86233 0)
(11.5935 3.01905 0)
(11.7759 3.17127 0)
(11.969 3.3177 0)
(12.1721 3.457 0)
(12.3846 3.58786 0)
(12.6054 3.70905 0)
(12.8333 3.81943 0)
(13.067 3.91803 0)
(13.3051 4.0041 0)
(13.5448 4.07708 0)
(13.8084 4.13697 0)
(10.0034 0.135092 0)
(10.0148 0.268096 0)
(10.035 0.400064 0)
(10.0631 0.53195 0)
(10.0988 0.664482 0)