/*--------------------------------*- C++ -*----------------------------------*\
  =========                 |
  \\      /  F ield         | OpenFOAM: The Open Source CFD Toolbox
   \\    /   O peration     | Website:  https://openfoam.org
    \\  /    A nd           | Version:  7
     \\/     M anipulation  |
\*---------------------------------------------------------------------------*/
FoamFile
{
    version     2.0;
    format      ascii;
    class       surfaceVectorField;
    location    "3.3";
    object      Uf;
}
// * * * * * * * * * * * * * * * * * * * * * * * * * * * * * * * * * * * * * //

dimensions      [0 1 -1 0 0 0 0];

internalField   nonuniform List<vector> 
5457
(
(9.92088 0.0251099 0)
(9.97125 0.0387463 0)
(9.82401 0.0328273 0)
(9.92859 0.048586 0)
(9.70961 0.0393127 0)
(9.85547 0.0587693 0)
(9.57543 0.0460123 0)
(9.75679 0.0705948 0)
(9.42137 0.0529497 0)
(9.63752 0.083015 0)
(9.24753 0.060167 0)
(9.4986 0.0959381 0)
(9.05361 0.0678116 0)
(9.33929 0.109614 0)
(8.83891 0.076035 0)
(9.15873 0.12429 0)
(8.6025 0.0849704 0)
(8.95608 0.140168 0)
(8.34325 0.0947447 0)
(8.73036 0.157433 0)
(8.05983 0.105487 0)
(8.48039 0.176269 0)
(7.75079 0.117327 0)
(8.20476 0.196855 0)
(7.41455 0.130394 0)
(7.90194 0.219359 0)
(7.0495 0.144808 0)
(7.5703 0.24392 0)
(6.65404 0.16067 0)
(7.20819 0.270628 0)
(6.22674 0.178041 0)
(6.81401 0.299495 0)
(5.76646 0.196924 0)
(6.38636 0.330408 0)
(5.27262 0.217229 0)
(5.92421 0.363077 0)
(4.74544 0.238732 0)
(5.42716 0.396969 0)
(4.18628 0.261028 0)
(4.89572 0.43123 0)
(3.59806 0.283484 0)
(4.33172 0.464613 0)
(2.98565 0.305199 0)
(3.7387 0.49542 0)
(2.35622 0.325067 0)
(3.12238 0.521509 0)
(1.71921 0.342547 0)
(2.49118 0.540557 0)
(1.08446 0.36188 0)
(1.85597 0.551676 0)
(0.451942 0.348706 0)
(1.24558 0.563022 0)
(-0.145765 0.102502 0)
(0.609036 0.544909 0)
(-0.423586 -0.207082 0)
(0.0947103 0.259407 0)
(-0.40214 -0.361257 0)
(-0.133615 -0.0205086 0)
(-0.119674 -0.393871 0)
(9.99641 0.0516734 0)
(9.99705 0.0405056 0)
(9.95878 0.0708631 0)
(9.97851 0.0674562 0)
(9.89824 0.0879888 0)
(9.93377 0.0898724 0)
(9.81658 0.105987 0)
(9.86452 0.113558 0)
(9.71358 0.124924 0)
(9.77437 0.138518 0)
(9.58907 0.144856 0)
(9.66434 0.164649 0)
(9.44273 0.166092 0)
(9.53395 0.192335 0)
(9.27389 0.188968 0)
(9.38248 0.222033 0)
(9.08164 0.213783 0)
(9.20917 0.25415 0)
(8.86488 0.240815 0)
(9.01314 0.289064 0)
(8.62228 0.270335 0)
(8.79329 0.327151 0)
(8.35237 0.302604 0)
(8.54834 0.368783 0)
(8.05355 0.337853 0)
(8.27682 0.414312 0)
(7.72412 0.376257 0)
(7.97716 0.46404 0)
(7.36238 0.417895 0)
(7.64772 0.51818 0)
(6.96674 0.462699 0)
(7.28683 0.576796 0)
(6.53586 0.510377 0)
(6.89297 0.639713 0)
(6.06887 0.560322 0)
(6.46485 0.706413 0)
(5.56565 0.61151 0)
(6.00165 0.775894 0)
(5.02717 0.662374 0)
(5.50332 0.846509 0)
(4.45596 0.710699 0)
(4.97097 0.915793 0)
(3.85659 0.753534 0)
(4.40727 0.980296 0)
(3.2363 0.787193 0)
(3.81714 1.03545 0)
(2.60592 0.807503 0)
(3.20856 1.07548 0)
(1.9829 0.810473 0)
(2.5935 1.09315 0)
(1.40537 0.776914 0)
(1.9963 1.0771 0)
(0.929834 0.646431 0)
(1.41959 0.978443 0)
(0.439931 0.384382 0)
(0.937639 0.716839 0)
(0.0592089 -0.118574 0)
(0.443859 0.343578 0)
(0.174935 -0.33588 0)
(9.98903 0.0594326 0)
(9.99481 0.0458789 0)
(9.95434 0.0894791 0)
(9.97368 0.0848569 0)
(9.89729 0.118035 0)
(9.92984 0.119177 0)
(9.82046 0.147902 0)
(9.86356 0.15398 0)
(9.72415 0.179426 0)
(9.77735 0.190413 0)
(9.6082 0.212779 0)
(9.67225 0.228641 0)
(9.47233 0.248395 0)
(9.54808 0.269133 0)
(9.31606 0.286776 0)
(9.4043 0.3125 0)
(9.13866 0.328398 0)
(9.24032 0.359327 0)
(8.93923 0.373721 0)
(9.05547 0.410174 0)
(8.71663 0.423203 0)
(8.84887 0.465596 0)
(8.46958 0.477289 0)
(8.61949 0.526147 0)
(8.19666 0.536389 0)
(8.36614 0.592363 0)
(7.89632 0.600829 0)
(8.08751 0.664724 0)
(7.56692 0.670794 0)
(7.78219 0.7436 0)
(7.20685 0.746237 0)
(7.44874 0.829168 0)
(6.81459 0.82676 0)
(7.0857 0.921293 0)
(6.38892 0.911459 0)
(6.69174 1.01938 0)
(5.92909 0.998733 0)
(6.26576 1.12214 0)
(5.43521 1.08607 0)
(5.80718 1.22739 0)
(4.90863 1.16981 0)
(5.31616 1.33172 0)
(4.35253 1.24488 0)
(4.79407 1.43017 0)
(3.7727 1.30454 0)
(4.24408 1.51586 0)
(3.17884 1.33984 0)
(3.67193 1.57942 0)
(2.58674 1.33814 0)
(3.08644 1.60776 0)
(2.01996 1.273 0)
(2.50303 1.58161 0)
(1.48703 1.09546 0)
(1.92883 1.4643 0)
(0.95836 0.769232 0)
(1.38533 1.21047 0)
(0.479913 0.202531 0)
(0.829593 0.801119 0)
(0.433754 0.134166 0)
(9.98515 0.0716163 0)
(9.99367 0.0531498 0)
(9.95039 0.113634 0)
(9.97087 0.102294 0)
(9.89436 0.154138 0)
(9.9269 0.147958 0)
(9.81881 0.195578 0)
(9.86184 0.193727 0)
(9.72441 0.238816 0)
(9.77745 0.241284 0)
(9.61111 0.284329 0)
(9.67465 0.29117 0)
(9.47872 0.332725 0)
(9.55341 0.343961 0)
(9.32693 0.384677 0)
(9.41334 0.400376 0)
(9.15521 0.440847 0)
(9.25398 0.461142 0)
(8.96289 0.501882 0)
(9.07481 0.526961 0)
(8.74914 0.568423 0)
(8.87517 0.598532 0)
(8.51302 0.641103 0)
(8.65427 0.676555 0)
(8.25345 0.720517 0)
(8.4112 0.761708 0)
(7.96925 0.807172 0)
(8.14498 0.854619 0)
(7.65918 0.901414 0)
(7.85454 0.955795 0)
(7.32193 1.00332 0)
(7.53875 1.06554 0)
(6.95623 1.11254 0)
(7.19647 1.18381 0)
(6.56088 1.2281 0)
(6.82656 1.31004 0)
(6.13494 1.34813 0)
(6.42793 1.44287 0)
(5.67791 1.46956 0)
(5.99972 1.57986 0)
(5.19008 1.58774 0)
(5.54142 1.71704 0)
(4.67297 1.696 0)
(5.05315 1.8485 0)
(4.12991 1.78513 0)
(4.53607 1.96581 0)
(3.56677 1.84253 0)
(3.99285 2.05729 0)
(2.99217 1.85074 0)
(3.42772 2.10715 0)
(2.41595 1.78253 0)
(2.84775 2.09452 0)
(1.84063 1.60052 0)
(2.25634 1.98879 0)
(1.25945 1.27851 0)
(1.6604 1.75313 0)
(0.666808 0.789633 0)
(1.02402 1.36787 0)
(0.523059 0.787262 0)
(9.98337 0.0844105 0)
(9.99316 0.0612938 0)
(9.94821 0.136842 0)
(9.96958 0.119931 0)
(9.89314 0.188038 0)
(9.92574 0.176246 0)
(9.81905 0.240175 0)
(9.86199 0.232705 0)
(9.72661 0.294474 0)
(9.77963 0.291095 0)
(9.61588 0.351665 0)
(9.67938 0.352282 0)
(9.48669 0.412475 0)
(9.56126 0.416984 0)
(9.33876 0.477679 0)
(9.42494 0.486013 0)
(9.17168 0.548051 0)
(9.27007 0.560207 0)
(8.9849 0.624351 0)
(9.09617 0.640385 0)
(8.77776 0.707336 0)
(8.90272 0.727362 0)
(8.54951 0.797751 0)
(8.68904 0.821945 0)
(8.29933 0.896307 0)
(8.45442 0.924924 0)
(8.02633 1.00363 0)
(8.19805 1.03703 0)
(7.72957 1.12017 0)
(7.9191 1.15888 0)
(7.40805 1.24613 0)
(7.61668 1.29089 0)
(7.06078 1.38123 0)
(7.28986 1.4331 0)
(6.68672 1.52454 0)
(6.93765 1.58505 0)
(6.2849 1.67414 0)
(6.55902 1.74545 0)
(5.85445 1.82674 0)
(6.15292 1.91183 0)
(5.39479 1.97721 0)
(5.71829 2.08011 0)
(4.90585 2.11802 0)
(5.25417 2.24404 0)
(4.38836 2.23859 0)
(4.75985 2.39457 0)
(3.84406 2.32454 0)
(4.23507 2.51918 0)
(3.27556 2.35697 0)
(3.68002 2.60124 0)
(2.68551 2.31064 0)
(3.09585 2.61974 0)
(2.07279 2.15509 0)
(2.48181 2.54739 0)
(1.42945 1.86751 0)
(1.84001 2.35383 0)
(0.742651 1.41969 0)
(1.13143 2.02466 0)
(0.543336 1.51464 0)
(9.98264 0.0975014 0)
(9.99299 0.0697957 0)
(9.94744 0.15978 0)
(9.96924 0.137589 0)
(9.89354 0.221355 0)
(9.92596 0.203934 0)
(9.82133 0.2841 0)
(9.8638 0.270697 0)
(9.73133 0.349356 0)
(9.78384 0.339592 0)
(9.62365 0.418026 0)
(9.68663 0.411706 0)
(9.49817 0.490944 0)
(9.57216 0.487911 0)
(9.35463 0.568978 0)
(9.44019 0.56911 0)
(9.19266 0.653005 0)
(9.2904 0.656237 0)
(9.0118 0.743894 0)
(9.12239 0.750213 0)
(8.81148 0.842507 0)
(8.93568 0.851951 0)
(8.59106 0.949694 0)
(8.72969 0.962354 0)
(8.34982 1.06626 0)
(8.50378 1.0823 0)
(8.08704 1.19293 0)
(8.25725 1.21262 0)
(7.80191 1.33027 0)
(7.98935 1.35401 0)
(7.49359 1.47855 0)
(7.69928 1.50698 0)
(7.1612 1.63764 0)
(7.38617 1.67171 0)
(6.80375 1.80669 0)
(7.04904 1.84786 0)
(6.42015 1.98391 0)
(6.68678 2.03429 0)
(6.00919 2.16608 0)
(6.29806 2.22877 0)
(5.56949 2.34805 0)
(5.88126 2.42741 0)
(5.09956 2.52216 0)
(5.43443 2.6242 0)
(4.59786 2.67754 0)
(4.95523 2.81025 0)
(4.06283 2.79949 0)
(4.44098 2.9732 0)
(3.49284 2.86913 0)
(3.88867 3.09663 0)
(2.88596 2.86298 0)
(3.29538 3.15994 0)
(2.23813 2.75403 0)
(2.65704 3.138 0)
(1.54253 2.52117 0)
(1.97496 3.00332 0)
(0.793694 2.1315 0)
(1.20732 2.74077 0)
(0.556773 2.29202 0)
(9.9825 0.110631 0)
(9.99301 0.0783648 0)
(9.9477 0.182331 0)
(9.96954 0.155043 0)
(9.89522 0.253826 0)
(9.92722 0.230894 0)
(9.82523 0.326776 0)
(9.86696 0.307519 0)
(9.73812 0.402565 0)
(9.78976 0.386533 0)
(9.63401 0.482243 0)
(9.69604 0.469159 0)
(9.51283 0.566765 0)
(9.58577 0.556407 0)
(9.37435 0.657097 0)
(9.45877 0.649278 0)
(9.21825 0.754214 0)
(9.31477 0.748791 0)
(9.04411 0.859081 0)
(9.15343 0.855962 0)
(8.85141 0.972653 0)
(8.9743 0.971795 0)
(8.63959 1.09587 0)
(8.77687 1.09728 0)
(8.40799 1.22962 0)
(8.56054 1.2334 0)
(8.15592 1.37472 0)
(8.32466 1.38105 0)
(7.88262 1.53182 0)
(8.06849 1.54104 0)
(7.58726 1.70133 0)
(7.79123 1.714 0)
(7.2689 1.88324 0)
(7.49195 1.90025 0)
(6.92644 2.07691 0)
(7.16955 2.09963 0)
(6.55855 2.28078 0)
(6.82268 2.31132 0)
(6.16353 2.49198 0)
(6.44964 2.53341 0)
(5.73921 2.70577 0)
(6.04817 2.76257 0)
(5.28284 2.91493 0)
(5.61534 2.99339 0)
(4.79097 3.10912 0)
(5.14737 3.21779 0)
(4.25945 3.27419 0)
(4.63954 3.42424 0)
(3.68355 3.39189 0)
(4.08623 3.59715 0)
(3.05821 3.43976 0)
(3.4815 3.71659 0)
(2.37788 3.39192 0)
(2.81854 3.75823 0)
(1.63802 3.22634 0)
(2.09931 3.69415 0)
(0.839189 2.90105 0)
(1.27902 3.50469 0)
(0.573407 3.11395 0)
(9.98273 0.123587 0)
(9.99316 0.0868214 0)
(9.94872 0.204317 0)
(9.97026 0.1721 0)
(9.89793 0.285262 0)
(9.92926 0.256985 0)
(9.8305 0.367977 0)
(9.87123 0.343 0)
(9.74669 0.453863 0)
(9.79714 0.431691 0)
(9.64666 0.544088 0)
(9.70733 0.524364 0)
(9.53036 0.639717 0)
(9.60178 0.622147 0)
(9.39759 0.741806 0)
(9.48035 0.726136 0)
(9.24809 0.851417 0)
(9.34283 0.837431 0)
(9.08149 0.969604 0)
(9.1889 0.957133 0)
(8.89732 1.09741 0)
(9.0182 1.08634 0)
(8.69506 1.23587 0)
(8.83025 1.22612 0)
(8.47409 1.38596 0)
(8.6245 1.37756 0)
(8.23373 1.54859 0)
(8.40032 1.54165 0)
(7.97319 1.72455 0)
(8.15697 1.71933 0)
(7.69159 1.91438 0)
(7.8936 1.91137 0)
(7.38785 2.11828 0)
(7.60918 2.11829 0)
(7.06063 2.33588 0)
(7.30242 2.34021 0)
(6.70824 2.56603 0)
(6.97167 2.57667 0)
(6.32843 2.80639 0)
(6.61476 2.82633 0)
(5.91819 3.05296 0)
(6.22879 3.0866 0)
(5.47358 3.29945 0)
(5.80985 3.35307 0)
(4.98946 3.5366 0)
(5.3528 3.6189 0)
(4.45952 3.75139 0)
(4.85106 3.87394 0)
(3.87642 3.92649 0)
(4.29664 4.10393 0)
(3.23253 4.03994 0)
(3.68078 4.28973 0)
(2.52101 4.06514 0)
(2.99374 4.4069 0)
(1.73852 3.97635 0)
(2.23758 4.42478 0)
(0.889551 3.71902 0)
(1.36349 4.31657 0)
(0.598816 3.98521 0)
(9.98321 0.13621 0)
(9.99339 0.095045 0)
(9.95032 0.225581 0)
(9.97131 0.188598 0)
(9.9015 0.315508 0)
(9.93193 0.282061 0)
(9.83693 0.407517 0)
(9.87642 0.376974 0)
(9.75682 0.503026 0)
(9.80578 0.474856 0)
(9.66133 0.60329 0)
(9.72028 0.577065 0)
(9.55043 0.709471 0)
(9.61993 0.684829 0)
(9.424 0.82271 0)
(9.50462 0.799328 0)
(9.2818 0.94415 0)
(9.37418 0.921743 0)
(9.12352 1.07493 0)
(9.22839 1.05325 0)
(8.94875 1.21618 0)
(9.06691 1.19503 0)
(8.757 1.36903 0)
(8.88933 1.34826 0)
(8.54771 1.53455 0)
(8.69515 1.5141 0)
(8.3202 1.7138 0)
(8.48377 1.69367 0)
(8.07366 1.90768 0)
(8.25446 1.88805 0)
(7.80711 2.11695 0)
(8.00632 2.0982 0)
(7.51931 2.34207 0)
(7.73822 2.32488 0)
(7.20869 2.58305 0)
(7.44872 2.56858 0)
(6.87313 2.83928 0)
(7.13586 2.82933 0)
(6.50984 3.10915 0)
(6.79705 3.10651 0)
(6.11498 3.38969 0)
(6.42876 3.39848 0)
(5.68346 3.67591 0)
(6.02617 3.70217 0)
(5.20856 3.96012 0)
(5.58285 4.01237 0)
(4.68187 4.23094 0)
(5.09043 4.32088 0)
(4.09343 4.47232 0)
(4.53843 4.61535 0)
(3.43267 4.66262 0)
(3.91488 4.8779 0)
(2.69029 4.77332 0)
(3.20588 5.0837 0)
(1.86198 4.77265 0)
(2.41146 5.19819 0)
(0.954253 4.59004 0)
(1.47641 5.18463 0)
(0.639255 4.91984 0)
(9.98386 0.148376 0)
(9.99368 0.102949 0)
(9.95235 0.245982 0)
(9.9726 0.204404 0)
(9.90578 0.344414 0)
(9.93509 0.305984 0)
(9.84436 0.445215 0)
(9.8824 0.409287 0)
(9.76831 0.549828 0)
(9.8155 0.515835 0)
(9.67778 0.659576 0)
(9.73469 0.62703 0)
(9.57278 0.775703 0)
(9.63996 0.744176 0)
(9.45324 0.89943 0)
(9.53126 0.868532 0)
(9.31897 1.03197 0)
(9.40849 1.00135 0)
(9.16973 1.17455 0)
(9.27147 1.14388 0)
(9.00517 1.32839 0)
(9.11994 1.29738 0)
(8.82487 1.49469 0)
(8.95355 1.46311 0)
(8.62829 1.67467 0)
(8.77188 1.64234 0)
(8.41479 1.8695 0)
(8.57436 1.83632 0)
(8.18356 2.08027 0)
(8.36031 2.04629 0)
(7.93356 2.30797 0)
(8.12883 2.27342 0)
(7.66345 2.5534 0)
(7.87876 2.51878 0)
(7.37142 2.81706 0)
(7.60851 2.78328 0)
(7.05507 3.09898 0)
(7.31597 3.06755 0)
(6.71107 3.3985 0)
(6.99822 3.37181 0)
(6.33489 3.71393 0)
(6.65124 3.69561 0)
(5.92038 4.04195 0)
(6.26951 4.03749 0)
(5.45935 4.37694 0)
(5.84546 4.39436 0)
(4.94118 4.7098 0)
(5.36899 4.76059 0)
(4.35287 5.02651 0)
(4.82695 5.12666 0)
(3.67975 5.30625 0)
(4.20337 5.47706 0)
(2.90768 5.51834 0)
(3.47812 5.78758 0)
(2.02781 5.62329 0)
(2.64524 6.01974 0)
(1.04519 5.52983 0)
(1.63788 6.12431 0)
(0.704551 5.94354 0)
(9.98465 0.15999 0)
(9.99402 0.110469 0)
(9.95472 0.265395 0)
(9.97408 0.219412 0)
(9.91064 0.371837 0)
(9.93867 0.328629 0)
(9.85265 0.480904 0)
(9.88904 0.439796 0)
(9.78098 0.594066 0)
(9.82617 0.554456 0)
(9.69578 0.712702 0)
(9.75036 0.674049 0)
(9.59713 0.838127 0)
(9.66163 0.79994 0)
(9.48498 0.971632 0)
(9.55999 0.933456 0)
(9.35922 1.1145 0)
(9.44538 1.07591 0)
(9.21967 1.26803 0)
(9.31771 1.22862 0)
(9.06606 1.43351 0)
(9.17678 1.39292 0)
(8.89804 1.61226 0)
(9.02233 1.57014 0)
(8.71514 1.8056 0)
(8.85402 1.76166 0)
(8.51678 2.01484 0)
(8.67137 1.96886 0)
(8.30219 2.24129 0)
(8.47377 2.19315 0)
(8.07033 2.48621 0)
(8.26037 2.43593 0)
(7.81983 2.75079 0)
(8.03005 2.6986 0)
(7.5488 3.03605 0)
(7.78124 2.98254 0)
(7.25464 3.34282 0)
(7.5118 3.28906 0)
(6.93371 3.67153 0)
(7.21868 3.61931 0)
(6.58102 4.02199 0)
(6.89767 3.97419 0)
(6.1896 4.39296 0)
(6.54283 4.35413 0)
(5.74997 4.78146 0)
(6.14587 4.75861 0)
(5.24937 5.18162 0)
(5.69531 5.18539 0)
(4.67125 5.58277 0)
(5.17538 5.62911 0)
(3.99524 5.96662 0)
(4.56545 6.07879 0)
(3.19875 6.30192 0)
(3.83673 6.51371 0)
(2.26205 6.54104 0)
(2.97121 6.89436 0)
(1.18077 6.5656 0)
(1.87943 7.15834 0)
(0.812952 7.10004 0)
(9.98553 0.170973 0)
(9.9944 0.117553 0)
(9.95738 0.283714 0)
(9.97572 0.233533 0)
(9.916 0.397655 0)
(9.94258 0.349888 0)
(9.86168 0.514434 0)
(9.89622 0.468374 0)
(9.79466 0.635559 0)
(9.83763 0.590566 0)
(9.71514 0.762454 0)
(9.76711 0.717937 0)
(9.62321 0.896491 0)
(9.68472 0.851902 0)
(9.5189 1.03902 0)
(9.59051 0.993844 0)
(9.40215 1.19139 0)
(9.48451 1.14513 0)
(9.27287 1.35495 0)
(9.36667 1.30713 0)
(9.13087 1.53108 0)
(9.23691 1.48124 0)
(8.97588 1.72118 0)
(9.09506 1.66887 0)
(8.80755 1.92667 0)
(8.94087 1.87148 0)
(8.62537 2.14903 0)
(8.77399 2.09059 0)
(8.42868 2.38976 0)
(8.5939 2.32775 0)
(8.21653 2.65042 0)
(8.39992 2.58462 0)
(7.98762 2.93259 0)
(8.19104 2.86292 0)
(7.74012 3.23789 0)
(7.96586 3.16451 0)
(7.47146 3.56798 0)
(7.72237 3.49136 0)
(7.178 3.92448 0)
(7.45772 3.84562 0)
(6.85462 4.3089 0)
(7.16786 4.22963 0)
(6.49403 4.7224 0)
(6.84696 4.64584 0)
(6.08597 5.16529 0)
(6.48668 5.0967 0)
(5.616 5.63611 0)
(6.075 5.5842 0)
(5.06402 6.12969 0)
(5.59445 6.10884 0)
(4.40272 6.63377 0)
(5.02013 6.66744 0)
(3.59665 7.12139 0)
(4.31317 7.24857 0)
(2.60479 7.54104 0)
(3.43631 7.82048 0)
(1.39459 7.74109 0)
(2.25699 8.31566 0)
(1.0029 8.46596 0)
(9.9865 0.181263 0)
(9.9948 0.124164 0)
(9.96026 0.300849 0)
(9.97747 0.246695 0)
(9.92176 0.421755 0)
(9.94675 0.369667 0)
(9.87132 0.545676 0)
(9.90386 0.494911 0)
(9.80921 0.674151 0)
(9.84975 0.624033 0)
(9.73564 0.808642 0)
(9.78476 0.758537 0)
(9.65077 0.950572 0)
(9.70899 0.899878 0)
(9.55466 1.10134 0)
(9.62253 1.04948 0)
(9.44736 1.26233 0)
(9.5255 1.20875 0)
(9.32884 1.43496 0)
(9.41792 1.3791 0)
(9.199 1.62067 0)
(9.2998 1.56199 0)
(9.0577 1.82093 0)
(9.17109 1.75887 0)
(8.9047 2.03727 0)
(9.03166 1.9713 0)
(8.73964 2.27129 0)
(8.8813 2.20088 0)
(8.56199 2.52471 0)
(8.71968 2.44933 0)
(8.371 2.79934 0)
(8.5463 2.71849 0)
(8.16555 3.09716 0)
(8.36038 3.01041 0)
(7.94406 3.42036 0)
(8.16083 3.32735 0)
(7.70425 3.77142 0)
(7.946 3.67193 0)
(7.44284 4.15315 0)
(7.71354 4.04723 0)
(7.15507 4.56882 0)
(7.46 4.45692 0)
(6.83408 5.02216 0)
(7.18038 4.90551 0)
(6.46982 5.51731 0)
(6.86727 5.39851 0)
(6.0474 6.05841 0)
(6.50964 5.94265 0)
(5.5446 6.64851 0)
(6.09053 6.54584 0)
(4.92775 7.28691 0)
(5.58379 7.21652 0)
(4.14578 7.96157 0)
(4.94337 7.96147 0)
(3.12254 8.63408 0)
(4.1103 8.77591 0)
(1.7568 9.12879 0)
(2.8794 9.62172 0)
(1.36531 10.1866 0)
(9.98753 0.190811 0)
(9.99523 0.130269 0)
(9.96332 0.316726 0)
(9.97932 0.25884 0)
(9.92784 0.444046 0)
(9.95114 0.387891 0)
(9.88146 0.574518 0)
(9.91186 0.519314 0)
(9.82446 0.709711 0)
(9.86241 0.654747 0)
(9.75709 0.851119 0)
(9.80314 0.795719 0)
(9.67954 1.0002 0)
(9.73421 0.943712 0)
(9.59195 1.15838 0)
(9.65577 1.10018 0)
(9.49444 1.3271 0)
(9.56799 1.26656 0)
(9.38707 1.5078 0)
(9.471 1.44431 0)
(9.26986 1.70197 0)
(9.3649 1.63488 0)
(9.14279 1.91114 0)
(9.24976 1.83982 0)
(9.00576 2.13692 0)
(9.1256 2.0607 0)
(8.85858 2.38104 0)
(8.99237 2.29922 0)
(8.70094 2.64536 0)
(8.84997 2.5572 0)
(8.53234 2.93192 0)
(8.69812 2.83666 0)
(8.35199 3.24304 0)
(8.53642 3.13987 0)
(8.15873 3.58141 0)
(8.36416 3.46944 0)
(7.95082 3.95022 0)
(8.1803 3.82849 0)
(7.72573 4.35334 0)
(7.98323 4.22082 0)
(7.4797 4.79564 0)
(7.77062 4.65125 0)
(7.20718 5.28332 0)
(7.53896 5.12597 0)
(6.8998 5.82435 0)
(7.28304 5.65319 0)
(6.54459 6.42912 0)
(6.99487 6.24407 0)
(6.12083 7.11105 0)
(6.66175 6.91414 0)
(5.59378 7.88733 0)
(6.26313 7.68567 0)
(4.90189 8.77789 0)
(5.75857 8.59224 0)
(3.92808 9.80207 0)
(5.08877 9.68518 0)
(2.43429 10.8582 0)
(3.98127 11.0502 0)
(2.14754 12.5709 0)
(9.98861 0.199576 0)
(9.99567 0.135845 0)
(9.96651 0.331283 0)
(9.98123 0.269924 0)
(9.93419 0.464446 0)
(9.9557 0.404498 0)
(9.892 0.600854 0)
(9.92015 0.541508 0)
(9.84027 0.742104 0)
(9.8755 0.682621 0)
(9.77928 0.889709 0)
(9.82213 0.82938 0)
(9.70927 1.04515 0)
(9.76023 0.983287 0)
(9.63044 1.20989 0)
(9.69004 1.14581 0)
(9.54299 1.38538 0)
(9.61178 1.31841 0)
(9.44708 1.57308 0)
(9.52568 1.50255 0)
(9.34284 1.77453 0)
(9.43196 1.69971 0)
(9.23039 1.99128 0)
(9.3308 1.91145 0)
(9.1098 2.225 0)
(9.22239 2.13937 0)
(8.9811 2.4775 0)
(9.10688 2.38522 0)
(8.84421 2.75074 0)
(8.98438 2.65088 0)
(8.69895 3.04694 0)
(8.85496 2.93847 0)
(8.54498 3.36866 0)
(8.71858 3.2504 0)
(8.38168 3.71893 0)
(8.57508 3.58949 0)
(8.20812 4.10146 0)
(8.42414 3.95918 0)
(8.02284 4.5209 0)
(8.26516 4.36372 0)
(7.82365 4.98331 0)
(8.09726 4.80858 0)
(7.60727 5.49674 0)
(7.91909 5.30101 0)
(7.3687 6.07222 0)
(7.72867 5.85086 0)
(7.10002 6.72543 0)
(7.52315 6.47207 0)
(6.7881 7.4796 0)
(7.29832 7.18523 0)
(6.40942 8.3715 0)
(7.04874 8.02275 0)
(5.91698 9.46569 0)
(6.76429 9.04118 0)
(5.19817 10.9087 0)
(6.46415 10.3564 0)
(3.88696 13.1814 0)
(6.19382 12.3042 0)
(5.26575 16.3779 0)
(0.227877 -0.14257 0)
(0.130975 -0.223192 0)
(0.441442 -0.120936 0)
(0.315193 -0.204234 0)
(0.621163 -0.0961918 0)
(0.501432 -0.167809 0)
(0.769231 -0.0754124 0)
(0.663432 -0.134989 0)
(0.891311 -0.0590558 0)
(0.797212 -0.108668 0)
(0.992655 -0.0463928 0)
(0.907985 -0.0880794 0)
(1.07772 -0.036693 0)
(1.00148 -0.072186 0)
(1.15024 -0.0293311 0)
(1.08201 -0.0600873 0)
(1.21321 -0.0237461 0)
(1.15271 -0.0509381 0)
(1.26885 -0.0194376 0)
(1.21592 -0.043947 0)
(1.31865 -0.0159811 0)
(1.27334 -0.0384098 0)
(1.36347 -0.013051 0)
(1.32605 -0.0337436 0)
(1.40365 -0.0104447 0)
(1.3746 -0.029543 0)
(1.43935 -0.00806797 0)
(1.41914 -0.0256273 0)
(1.4707 -0.00583375 0)
(1.45977 -0.0219717 0)
(1.49765 -0.00350789 0)
(1.49663 -0.0184459 0)
(1.5194 -0.000688569 0)
(1.52978 -0.0145342 0)
(1.53402 0.00287394 0)
(1.55858 -0.00953525 0)
(1.53953 0.00670354 0)
(1.58128 -0.00350892 0)
(1.53545 0.00964381 0)
(1.59595 0.00253406 0)
(1.52439 0.0108609 0)
(1.60246 0.00671735 0)
(1.51061 0.0103338 0)
(1.60375 0.00817364 0)
(1.49621 0.00854302 0)
(1.60343 0.0083318 0)
(1.48296 0.00604152 0)
(1.60334 0.00749021 0)
(1.47324 0.0030127 0)
(1.60443 0.00536758 0)
(1.46981 -0.000414148 0)
(1.60813 0.00184602 0)
(1.47565 -0.00381909 0)
(1.61616 -0.00307246 0)
(1.49166 -0.00661571 0)
(1.62946 -0.00822265 0)
(1.51614 -0.00784181 0)
(1.64804 -0.0122807 0)
(1.67649 -0.0131695 0)
(0.198816 -0.319199 0)
(0.101062 -0.417919 0)
(0.391321 -0.280288 0)
(0.266191 -0.388328 0)
(0.556665 -0.229314 0)
(0.422674 -0.322193 0)
(0.695981 -0.185432 0)
(0.560083 -0.261998 0)
(0.814204 -0.150694 0)
(0.675017 -0.213902 0)
(0.915797 -0.123774 0)
(0.772071 -0.176375 0)
(1.00442 -0.103168 0)
(0.855644 -0.147392 0)
(1.08306 -0.087548 0)
(0.929003 -0.125244 0)
(1.15408 -0.0757015 0)
(0.994562 -0.108392 0)
(1.21927 -0.0665368 0)
(1.05416 -0.0954363 0)
(1.27985 -0.059111 0)
(1.10915 -0.085128 0)
(1.33651 -0.0526903 0)
(1.16042 -0.0764108 0)
(1.38953 -0.04683 0)
(1.2084 -0.0685253 0)
(1.43901 -0.0413825 0)
(1.25314 -0.0611456 0)
(1.48519 -0.0362848 0)
(1.29456 -0.0543386 0)
(1.52854 -0.031149 0)
(1.33283 -0.0481132 0)
(1.56924 -0.025113 0)
(1.36857 -0.0417289 0)
(1.60635 -0.01752 0)
(1.40227 -0.0337454 0)
(1.63763 -0.00906367 0)
(1.43313 -0.0234349 0)
(1.66162 -0.00165238 0)
(1.45869 -0.0123857 0)
(1.67982 0.00363576 0)
(1.47703 -0.00433517 0)
(1.69535 0.00718553 0)
(1.49063 -0.00103238 0)
(1.70989 0.0090458 0)
(1.50297 -8.45537e-05 0)
(1.72416 0.00854016 0)
(1.51421 -0.000577982 0)
(1.73876 0.00545715 0)
(1.52348 -0.00269073 0)
(1.75419 0.000348956 0)
(1.53088 -0.00646417 0)
(1.76971 -0.00604022 0)
(1.53633 -0.0112399 0)
(1.78587 -0.012856 0)
(1.53948 -0.0165241 0)
(1.80415 -0.0176904 0)
(1.54121 -0.0214496 0)
(1.54507 -0.0218347 0)
(0.158885 -0.495763 0)
(0.0724722 -0.573538 0)
(0.309096 -0.439127 0)
(0.203303 -0.531975 0)
(0.43613 -0.363006 0)
(0.31374 -0.440807 0)
(0.542823 -0.297307 0)
(0.411685 -0.359267 0)
(0.633375 -0.245125 0)
(0.492086 -0.294506 0)
(0.711186 -0.204439 0)
(0.559716 -0.244001 0)
(0.77905 -0.173037 0)
(0.617453 -0.20498 0)
(0.839197 -0.148965 0)
(0.66747 -0.175078 0)
(0.893388 -0.130476 0)
(0.711461 -0.152232 0)
(0.942982 -0.115996 0)
(0.750756 -0.134609 0)
(0.988932 -0.104142 0)
(0.786379 -0.120565 0)
(1.03175 -0.0937941 0)
(0.819056 -0.108652 0)
(1.07152 -0.0842666 0)
(0.849196 -0.0977642 0)
(1.1081 -0.0754123 0)
(0.876736 -0.0874022 0)
(1.14156 -0.0673839 0)
(0.901218 -0.0777947 0)
(1.17264 -0.0598634 0)
(0.922223 -0.0693785 0)
(1.20218 -0.0513651 0)
(0.940348 -0.061469 0)
(1.22994 -0.0399717 0)
(0.95757 -0.0518589 0)
(1.25386 -0.0262669 0)
(0.975176 -0.0386698 0)
(1.27189 -0.0149341 0)
(0.991265 -0.0235976 0)
(1.28556 -0.00970789 0)
(0.992849 -0.0126356 0)
(1.29701 -0.00920872 0)
(0.978018 -0.00782022 0)
(1.30626 -0.0106334 0)
(0.959757 -0.0054421 0)
(1.31245 -0.0130308 0)
(0.941697 -0.00407516 0)
(1.31492 -0.0159981 0)
(0.923431 -0.00405716 0)
(1.31294 -0.018832 0)
(0.906128 -0.00539791 0)
(1.3058 -0.0213281 0)
(0.894225 -0.00748014 0)
(1.29431 -0.0235045 0)
(0.883047 -0.0106209 0)
(1.28062 -0.0242206 0)
(0.873545 -0.0145835 0)
(0.867795 -0.0206871 0)
(0.116276 -0.622531 0)
(0.0449393 -0.687422 0)
(0.217015 -0.546852 0)
(0.133538 -0.628313 0)
(0.297601 -0.45017 0)
(0.190051 -0.516052 0)
(0.364006 -0.368566 0)
(0.243258 -0.419806 0)
(0.419318 -0.304141 0)
(0.282479 -0.343741 0)
(0.465713 -0.25393 0)
(0.314001 -0.284324 0)
(0.50502 -0.215132 0)
(0.33882 -0.238336 0)
(0.538668 -0.18532 0)
(0.358162 -0.202957 0)
(0.567801 -0.162378 0)
(0.373062 -0.175799 0)
(0.59335 -0.144412 0)
(0.384356 -0.15479 0)
(0.616039 -0.129721 0)
(0.392762 -0.138063 0)
(0.636327 -0.116849 0)
(0.398952 -0.123929 0)
(0.65426 -0.104812 0)
(0.403609 -0.110949 0)
(0.669405 -0.0933684 0)
(0.406762 -0.0982734 0)
(0.681203 -0.0829902 0)
(0.40776 -0.0860641 0)
(0.689993 -0.0740624 0)
(0.405016 -0.0753942 0)
(0.697419 -0.06586 0)
(0.396226 -0.0664308 0)
(0.705389 -0.0562606 0)
(0.38433 -0.057058 0)
(0.712157 -0.0426681 0)
(0.369712 -0.0429811 0)
(0.707493 -0.0256498 0)
(0.355844 -0.0206971 0)
(0.681913 -0.0105017 0)
(0.337298 0.0028981 0)
(0.639744 -0.00110969 0)
(0.308787 0.017182 0)
(0.593456 0.00404958 0)
(0.27717 0.0213547 0)
(0.550374 0.00719596 0)
(0.247192 0.0202764 0)
(0.514463 0.00825918 0)
(0.219017 0.0157615 0)
(0.488368 0.00661056 0)
(0.194881 0.00866345 0)
(0.470537 0.00256651 0)
(0.183363 0.00190121 0)
(0.461019 -0.00323903 0)
(0.177315 -0.0057318 0)
(0.460783 -0.0120659 0)
(0.175399 -0.0144649 0)
(0.177153 -0.0254461 0)
(0.067837 -0.70268 0)
(0.016309 -0.753865 0)
(0.113599 -0.607195 0)
(0.0557691 -0.672075 0)
(0.143361 -0.494878 0)
(0.0536263 -0.543841 0)
(0.164455 -0.403076 0)
(0.0584038 -0.439037 0)
(0.178763 -0.330773 0)
(0.0516363 -0.356477 0)
(0.187454 -0.274352 0)
(0.0417439 -0.291878 0)
(0.191511 -0.230655 0)
(0.0279465 -0.241778 0)
(0.191738 -0.19698 0)
(0.0110395 -0.203145 0)
(0.188807 -0.171029 0)
(-0.00837342 -0.173428 0)
(0.183293 -0.150786 0)
(-0.0298004 -0.150434 0)
(0.175739 -0.134412 0)
(-0.0527503 -0.132237 0)
(0.16666 -0.120208 0)
(-0.0765739 -0.117093 0)
(0.156432 -0.106779 0)
(-0.100391 -0.103429 0)
(0.144956 -0.0934294 0)
(-0.123665 -0.0900352 0)
(0.131118 -0.080318 0)
(-0.14634 -0.0763655 0)
(0.112204 -0.0676999 0)
(-0.169461 -0.0624502 0)
(0.0858008 -0.0545341 0)
(-0.195627 -0.0487889 0)
(0.0517338 -0.0377527 0)
(-0.223214 -0.0348328 0)
(0.0137617 -0.0149989 0)
(-0.252629 -0.0187933 0)
(-0.0193429 0.00948852 0)
(-0.279219 -0.000107883 0)
(-0.0409901 0.0268257 0)
(-0.29449 0.0160434 0)
(-0.0566624 0.0334748 0)
(-0.304955 0.0264743 0)
(-0.072386 0.0322893 0)
(-0.314762 0.0304572 0)
(-0.0876786 0.026068 0)
(-0.323948 0.0289204 0)
(-0.100352 0.0161307 0)
(-0.333625 0.022756 0)
(-0.108841 0.0050211 0)
(-0.343045 0.0132377 0)
(-0.110811 -0.00492457 0)
(-0.347102 0.00293724 0)
(-0.109478 -0.0143861 0)
(-0.347717 -0.00641631 0)
(-0.105608 -0.0250743 0)
(-0.348755 -0.0164063 0)
(-0.351447 -0.0269178 0)
(0.0113783 -0.729151 0)
(-0.0157183 -0.765009 0)
(-0.000840466 -0.613631 0)
(-0.0313544 -0.660391 0)
(-0.0245334 -0.4901 0)
(-0.0917612 -0.521718 0)
(-0.0516768 -0.392871 0)
(-0.139379 -0.414291 0)
(-0.0828919 -0.316383 0)
(-0.193768 -0.328691 0)
(-0.116736 -0.257036 0)
(-0.247284 -0.262464 0)
(-0.152495 -0.211265 0)
(-0.300483 -0.211433 0)
(-0.189555 -0.17607 0)
(-0.352516 -0.17244 0)
(-0.227495 -0.148888 0)
(-0.402765 -0.142736 0)
(-0.265989 -0.127588 0)
(-0.450827 -0.12003 0)
(-0.304629 -0.110366 0)
(-0.496472 -0.102438 0)
(-0.342826 -0.0956589 0)
(-0.539467 -0.0883299 0)
(-0.379789 -0.0821708 0)
(-0.579476 -0.0762538 0)
(-0.414647 -0.0690367 0)
(-0.616097 -0.0650124 0)
(-0.446753 -0.0559671 0)
(-0.649049 -0.0538627 0)
(-0.475777 -0.0431351 0)
(-0.678407 -0.042588 0)
(-0.502083 -0.0305749 0)
(-0.704493 -0.0312118 0)
(-0.525771 -0.017835 0)
(-0.727307 -0.0193785 0)
(-0.54539 -0.00463759 0)
(-0.746138 -0.00629662 0)
(-0.557318 0.0089862 0)
(-0.758848 0.00731081 0)
(-0.563338 0.0214047 0)
(-0.764108 0.0196995 0)
(-0.566998 0.0293223 0)
(-0.767176 0.0286439 0)
(-0.570054 0.0310718 0)
(-0.768592 0.0322267 0)
(-0.573077 0.0273282 0)
(-0.769746 0.030629 0)
(-0.576346 0.0197682 0)
(-0.77197 0.0245602 0)
(-0.580291 0.0103906 0)
(-0.775649 0.0153633 0)
(-0.584505 0.000311952 0)
(-0.779696 0.00515432 0)
(-0.587044 -0.0104021 0)
(-0.782876 -0.00511219 0)
(-0.588153 -0.0211338 0)
(-0.788192 -0.0158499 0)
(-0.793418 -0.026527 0)
(-0.0481074 -0.694107 0)
(-0.0533096 -0.717891 0)
(-0.121379 -0.563579 0)
(-0.125894 -0.590321 0)
(-0.198779 -0.438034 0)
(-0.242077 -0.449448 0)
(-0.277881 -0.340753 0)
(-0.342505 -0.342176 0)
(-0.355263 -0.265447 0)
(-0.441159 -0.259811 0)
(-0.429653 -0.207991 0)
(-0.532674 -0.197811 0)
(-0.500077 -0.164569 0)
(-0.616623 -0.151672 0)
(-0.565761 -0.132139 0)
(-0.692657 -0.118018 0)
(-0.626191 -0.108078 0)
(-0.760858 -0.0938496 0)
(-0.68119 -0.0901619 0)
(-0.821565 -0.0765873 0)
(-0.730862 -0.0765333 0)
(-0.875367 -0.0641301 0)
(-0.775432 -0.0656053 0)
(-0.922906 -0.0547691 0)
(-0.815102 -0.0560449 0)
(-0.964732 -0.0470878 0)
(-0.849997 -0.0468591 0)
(-1.00128 -0.0399637 0)
(-0.880238 -0.0374817 0)
(-1.03293 -0.0326664 0)
(-0.906098 -0.0276905 0)
(-1.06013 -0.0248909 0)
(-0.928043 -0.0173272 0)
(-1.08334 -0.0165489 0)
(-0.946386 -0.00620011 0)
(-1.10282 -0.00741189 0)
(-0.959955 0.00537083 0)
(-1.11788 0.00234706 0)
(-0.967832 0.0162924 0)
(-1.12698 0.0122096 0)
(-0.971069 0.0251878 0)
(-1.13166 0.0216651 0)
(-0.971348 0.030485 0)
(-1.13307 0.0288096 0)
(-0.97077 0.0311398 0)
(-1.13266 0.0318918 0)
(-0.970576 0.0272804 0)
(-1.13206 0.0305194 0)
(-0.971564 0.0198597 0)
(-1.13257 0.0251054 0)
(-0.974284 0.0104764 0)
(-1.13484 0.016829 0)
(-0.978299 0.000462329 0)
(-1.13873 0.00726716 0)
(-0.98277 -0.0101263 0)
(-1.14367 -0.00281582 0)
(-0.986926 -0.0206888 0)
(-1.15057 -0.0137654 0)
(-1.15574 -0.0238283 0)
(-0.112403 -0.601043 0)
(-0.0971262 -0.607799 0)
(-0.244305 -0.462025 0)
(-0.226097 -0.464183 0)
(-0.375973 -0.339724 0)
(-0.396251 -0.326507 0)
(-0.501132 -0.248919 0)
(-0.543811 -0.228072 0)
(-0.615726 -0.182153 0)
(-0.679256 -0.157807 0)
(-0.718222 -0.133854 0)
(-0.798504 -0.10873 0)
(-0.808621 -0.099381 0)
(-0.901853 -0.0749612 0)
(-0.88755 -0.0753084 0)
(-0.98925 -0.0526227 0)
(-0.956098 -0.0588988 0)
(-1.06326 -0.0383957 0)
(-1.01552 -0.0478255 0)
(-1.12615 -0.0296541 0)
(-1.06704 -0.0402101 0)
(-1.17994 -0.0243958 0)
(-1.11173 -0.0345603 0)
(-1.22626 -0.0211157 0)
(-1.15044 -0.0296898 0)
(-1.26631 -0.0186293 0)
(-1.18382 -0.0247257 0)
(-1.30092 -0.0160013 0)
(-1.21243 -0.0191648 0)
(-1.33076 -0.0126146 0)
(-1.23678 -0.0128441 0)
(-1.35636 -0.00822693 0)
(-1.25722 -0.0057905 0)
(-1.37805 -0.00288938 0)
(-1.27337 0.00193445 0)
(-1.39585 0.00312366 0)
(-1.28487 0.010266 0)
(-1.40932 0.00967406 0)
(-1.29219 0.0186923 0)
(-1.41847 0.0167574 0)
(-1.2956 0.0259059 0)
(-1.42382 0.0237376 0)
(-1.29614 0.0303392 0)
(-1.42601 0.0291298 0)
(-1.29556 0.0310075 0)
(-1.42641 0.0315541 0)
(-1.29526 0.027799 0)
(-1.42651 0.0303542 0)
(-1.29625 0.0213608 0)
(-1.42754 0.0256501 0)
(-1.29906 0.0128859 0)
(-1.43023 0.0183441 0)
(-1.3036 0.00334405 0)
(-1.43492 0.00965344 0)
(-1.30925 -0.00708918 0)
(-1.44152 9.00068e-05 0)
(-1.31597 -0.0172362 0)
(-1.4495 -0.0103958 0)
(-1.45464 -0.0191722 0)
(-0.18155 -0.450358 0)
(-0.149546 -0.429981 0)
(-0.372262 -0.312643 0)
(-0.340939 -0.281804 0)
(-0.553792 -0.204375 0)
(-0.567208 -0.157008 0)
(-0.717214 -0.129478 0)