/*--------------------------------*- C++ -*----------------------------------*\
  =========                 |
  \\      /  F ield         | OpenFOAM: The Open Source CFD Toolbox
   \\    /   O peration     | Website:  https://openfoam.org
    \\  /    A nd           | Version:  7
     \\/     M anipulation  |
\*---------------------------------------------------------------------------*/
FoamFile
{
    version     2.0;
    format      ascii;
    class       volScalarField;
    location    "4.31";
    object      T;
}
// * * * * * * * * * * * * * * * * * * * * * * * * * * * * * * * * * * * * * //

dimensions      [0 0 0 1 0 0 0];

internalField   nonuniform List<scalar> 
12013
(
300.045
300.135
300.229
300.325
300.422
300.521
300.621
300.722
300.823
300.925
301.026
301.128
301.23
301.331
301.432
301.533
301.634
301.735
301.835
301.936
302.037
302.138
302.24
302.342
302.446
302.551
302.658
302.766
302.878
302.992
303.11
303.232
303.359
303.492
303.631
303.777
303.93
304.093
304.267
304.451
304.649
304.86
305.087
305.332
305.596
305.88
306.189
306.522
306.884
307.277
307.703
308.166
308.669
309.216
309.81
310.456
311.159
311.924
312.755
313.659
314.642
315.71
316.873
318.137
319.512
321.008
322.637
324.41
326.343
328.452
330.756
333.276
336.039
339.077
342.429
346.147
350.297
354.975
360.326
366.589
374.227
300.045
300.136
300.229
300.325
300.422
300.521
300.621
300.722
300.824
300.925
301.027
301.129
301.23
301.332
301.433
301.534
301.635
301.735
301.836
301.937
302.038
302.139
302.241
302.343
302.447
302.552
302.659
302.768
302.879
302.993
303.111
303.234
303.361
303.493
303.632
303.778
303.932
304.095
304.268
304.452
304.65
304.861
305.088
305.332
305.596
305.881
306.189
306.522
306.884
307.276
307.702
308.165
308.667
309.214
309.808
310.453
311.155
311.919
312.749
313.652
314.633
315.7
316.86
318.122
319.493
320.986
322.61
324.378
326.303
328.403
330.695
333.201
335.945
338.957
342.274
345.941
350.016
354.574
359.713
365.555
372.21
300.045
300.136
300.229
300.325
300.423
300.522
300.622
300.723
300.824
300.926
301.028
301.13
301.232
301.333
301.434
301.536
301.637
301.737
301.838
301.939
302.04
302.141
302.243
302.345
302.449
302.554
302.661
302.77
302.881
302.996
303.114
303.236
303.363
303.496
303.634
303.78
303.934
304.097
304.27
304.454
304.652
304.863
305.09
305.334
305.597
305.882
306.189
306.523
306.884
307.275
307.701
308.162
308.664
309.209
309.802
310.446
311.147
311.908
312.736
313.636
314.614
315.677
316.832
318.088
319.453
320.937
322.55
324.306
326.216
328.296
330.563
333.037
335.74
338.698
341.941
345.505
349.432
353.768
358.556
363.824
369.532
300.045
300.136
300.23
300.326
300.424
300.523
300.623
300.724
300.826
300.928
301.03
301.132
301.234
301.336
301.437
301.538
301.639
301.74
301.841
301.942
302.043
302.145
302.247
302.349
302.453
302.558
302.665
302.774
302.886
303
303.118
303.24
303.367
303.5
303.638
303.784
303.938
304.101
304.274
304.458
304.655
304.866
305.092
305.336
305.599
305.883
306.19
306.523
306.883
307.274
307.698
308.159
308.659
309.202
309.793
310.435
311.133
311.891
312.715
313.61
314.582
315.639
316.786
318.032
319.386
320.856
322.453
324.187
326.072
328.121
330.349
332.772
335.411
338.285
341.417
344.832
348.552
352.599
356.979
361.671
366.604
300.045
300.136
300.23
300.327
300.425
300.524
300.625
300.726
300.828
300.93
301.033
301.135
301.237
301.339
301.441
301.542
301.644
301.745
301.846
301.947
302.048
302.15
302.252
302.355
302.459
302.564
302.671
302.78
302.892
303.006
303.124
303.246
303.373
303.506
303.644
303.79
303.944
304.106
304.279
304.463
304.66
304.87
305.096
305.34
305.602
305.885
306.192
306.523
306.882
307.272
307.694
308.153
308.651
309.192
309.78
310.418
311.112
311.865
312.683
313.571
314.536
315.583
316.719
317.951
319.288
320.738
322.311
324.016
325.865
327.87
330.042
332.397
334.948
337.711
340.7
343.928
347.406
351.133
355.098
359.264
363.567
300.045
300.137
300.231
300.328
300.426
300.526
300.627
300.729
300.831
300.934
301.036
301.139
301.242
301.344
301.446
301.548
301.65
301.751
301.852
301.954
302.055
302.157
302.26
302.363
302.467
302.572
302.679
302.788
302.9
303.015
303.133
303.255
303.382
303.514
303.653
303.798
303.952
304.114
304.287
304.47
304.666
304.877
305.102
305.345
305.606
305.888
306.194
306.524
306.881
307.269
307.689
308.145
308.64
309.178
309.762
310.395
311.083
311.83
312.64
313.519
314.472
315.506
316.627
317.841
319.156
320.579
322.12
323.786
325.588
327.535
329.637
331.905
334.348
336.977
339.798
342.816
346.031
349.433
353.002
356.703
360.483
300.045
300.137
300.232
300.329
300.428
300.529
300.63
300.732
300.835
300.938
301.041
301.145
301.248
301.351
301.453
301.555
301.658
301.759
301.861
301.963
302.065
302.167
302.27
302.373
302.477
302.583
302.69
302.8
302.911
303.026
303.144
303.266
303.393
303.525
303.664
303.809
303.962
304.124
304.297
304.48
304.675
304.885
305.11
305.351
305.612
305.892
306.196
306.524
306.88
307.265
307.682
308.135
308.626
309.159
309.738
310.365
311.045
311.783
312.583
313.45
314.389
315.406
316.507
317.697
318.984
320.374
321.874
323.493
325.236
327.113
329.13
331.295
333.614
336.09
338.727
341.523
344.47
347.557
350.76
354.05
357.386
300.046
300.138
300.234
300.331
300.431
300.532
300.634
300.737
300.84
300.944
301.048
301.152
301.256
301.359
301.462
301.565
301.668
301.77
301.872
301.975
302.077
302.18
302.283
302.386
302.491
302.597
302.704
302.814
302.926
303.041
303.159
303.281
303.408
303.54
303.678
303.823
303.976
304.138
304.309
304.492
304.687
304.895
305.119
305.36
305.618
305.898
306.199
306.525
306.878
307.26
307.674
308.122
308.608
309.135
309.707
310.326
310.997
311.724
312.511
313.363
314.284
315.28
316.356
317.517
318.77
320.119
321.571
323.131
324.806
326.602
328.522
330.571
332.751
335.065
337.509
340.078
342.764
345.552
348.422
351.348
354.302
300.046
300.139
300.235
300.334
300.434
300.536
300.639
300.743
300.847
300.952
301.056
301.161
301.265
301.37
301.474
301.577
301.681
301.784
301.887
301.99
302.092
302.196
302.299
302.403
302.508
302.615
302.722
302.832
302.944
303.059
303.178
303.3
303.426
303.558
303.696
303.841
303.994
304.155
304.326
304.508
304.702
304.909
305.131
305.37
305.627
305.904
306.203
306.527
306.876
307.254
307.663
308.106
308.586
309.106
309.669
310.278
310.938
311.651
312.422
313.256
314.155
315.126
316.172
317.299
318.51
319.811
321.207
322.701
324.298
326.002
327.815
329.739
331.773
333.917
336.166
338.513
340.949
343.459
346.026
348.631
351.25
300.046
300.14
300.238
300.337
300.438
300.541
300.645
300.75
300.855
300.961
301.067
301.172
301.278
301.383
301.488
301.593
301.697
301.801
301.905
302.008
302.112
302.216
302.32
302.424
302.53
302.637
302.745
302.855
302.967
303.082
303.201
303.323
303.45
303.581
303.719
303.864
304.016
304.176
304.346
304.527
304.72
304.926
305.147
305.384
305.639
305.913
306.209
306.528
306.874
307.247
307.65
308.087
308.559
309.07
309.623
310.22
310.866
311.563
312.315
313.127
314.001
314.942
315.953
317.04
318.204
319.45
320.782
322.203
323.715
325.319
327.018
328.81
330.694
332.668
334.724
336.858
339.057
341.311
343.605
345.923
348.248
300.047
300.142
300.24
300.341
300.443
300.547
300.653
300.759
300.865
300.972
301.079
301.186
301.293
301.4
301.506
301.612
301.717
301.822
301.927
302.031
302.136
302.24
302.345
302.451
302.557
302.664
302.773
302.883
302.996
303.111
303.229
303.352
303.478
303.61
303.747
303.891
304.043
304.202
304.372
304.551
304.743
304.947
305.166
305.4
305.653
305.924
306.216
306.531
306.871
307.239
307.636
308.064
308.528
309.028
309.568
310.152
310.781
311.459
312.189
312.975
313.82
314.727
315.699
316.74
317.851
319.037
320.3
321.64
323.06
324.56
326.14
327.798
329.532
331.337
333.209
335.139
337.119
339.138
341.185
343.248
345.313
300.047
300.144
300.244
300.346
300.45
300.555
300.662
300.77
300.878
300.986
301.095
301.203
301.312
301.42
301.527
301.635
301.741
301.848
301.954
302.059
302.165
302.27
302.376
302.482
302.589
302.697
302.806
302.917
303.03
303.146
303.265
303.387
303.513
303.645
303.782
303.925
304.076
304.234
304.402
304.581
304.77
304.973
305.189
305.421
305.67
305.937
306.225
306.535
306.87
307.23
307.619
308.038
308.491
308.979
309.505
310.072
310.682
311.339
312.044
312.801
313.613
314.481
315.409
316.4
317.454
318.575
319.762
321.018
322.343
323.736
325.195
326.719
328.305
329.948
331.643
333.382
335.159
336.965
338.791
340.625
342.459
300.048
300.146
300.248
300.351
300.457
300.565
300.673
300.783
300.893
301.003
301.114
301.224
301.335
301.444
301.554
301.663
301.771
301.879
301.986
302.093
302.2
302.307
302.414
302.521
302.629
302.738
302.847
302.959
303.072
303.188
303.307
303.429
303.556
303.687
303.823
303.966
304.116
304.274
304.44
304.617
304.804
305.005
305.218
305.447
305.692
305.955
306.237
306.541
306.869
307.221
307.601
308.01
308.45
308.924
309.434
309.982
310.571
311.202
311.88
312.604
313.379
314.206
315.086
316.023
317.016
318.067
319.177
320.346
321.573
322.857
324.197
325.59
327.033
328.521
330.049
331.612
333.203
334.815
336.441
338.071
339.7
300.049
300.149
300.253
300.358
300.466
300.576
300.687
300.799
300.911
301.024
301.137
301.249
301.362
301.474
301.585
301.696
301.807
301.916
302.026
302.134
302.243
302.351
302.459
302.568
302.677
302.786
302.897
303.009
303.123
303.239
303.358
303.481
303.607
303.738
303.874
304.016
304.164
304.321
304.486
304.66
304.846
305.043
305.253
305.478
305.719
305.977
306.253
306.55
306.87
307.213
307.582
307.979
308.405
308.863
309.354
309.882
310.447
311.051
311.698
312.387
313.122
313.904
314.734
315.613
316.542
317.521
318.552
319.632
320.762
321.939
323.162
324.429
325.735
327.077
328.451
329.851
331.272
332.709
334.154
335.603
337.048
300.05
300.153
300.258
300.367
300.477
300.589
300.703
300.818
300.933
301.048
301.164
301.28
301.395
301.509
301.623
301.737
301.849
301.961
302.073
302.184
302.294
302.404
302.514
302.623
302.734
302.844
302.956
303.069
303.184
303.3
303.42
303.542
303.668
303.799
303.934
304.075
304.223
304.378
304.541
304.713
304.896
305.09
305.297
305.517
305.753
306.005
306.274
306.564
306.874
307.207
307.564
307.947
308.358
308.798
309.269
309.774
310.312
310.888
311.5
312.153
312.845
313.579
314.356
315.176
316.039
316.946
317.896
318.889
319.923
320.996
322.107
323.252
324.43
325.636
326.867
328.118
329.385
330.663
331.948
333.234
334.516
300.052
300.157
300.265
300.377
300.49
300.606
300.723
300.84
300.959
301.078
301.197
301.316
301.434
301.552
301.669
301.785
301.901
302.015
302.129
302.242
302.355
302.467
302.579
302.69
302.802
302.914
303.027
303.141
303.256
303.374
303.493
303.616
303.742
303.872
304.006
304.147
304.293
304.446
304.607
304.777
304.957
305.147
305.35
305.565
305.795
306.04
306.302
306.583
306.883
307.204
307.548
307.916
308.31
308.731
309.18
309.66
310.171
310.714
311.292
311.904
312.553
313.238
313.961
314.72
315.518
316.352
317.223
318.129
319.07
320.043
321.047
322.079
323.137
324.217
325.317
326.432
327.56
328.696
329.836
330.976
332.114
300.053
300.162
300.274
300.389
300.506
300.625
300.746
300.868
300.99
301.113
301.236
301.358
301.481
301.602
301.723
301.843
301.961
302.079
302.196
302.312
302.427
302.542
302.656
302.769
302.883
302.997
303.111
303.226
303.342
303.46
303.581
303.703
303.829
303.959
304.093
304.232
304.377
304.528
304.687
304.854
305.03
305.216
305.414
305.624
305.847
306.085
306.339
306.61
306.899
307.208
307.537
307.889
308.264
308.664
309.09
309.544
310.025
310.536
311.077
311.649
312.252
312.887
313.555
314.254
314.986
315.749
316.543
317.366
318.218
319.097
320
320.927
321.874
322.838
323.818
324.811
325.812
326.82
327.831
328.842
329.851
300.055
300.168
300.284
300.403
300.524
300.648
300.773
300.9
301.027
301.154
301.282
301.409
301.536
301.662
301.787
301.911
302.033
302.155
302.276
302.395
302.513
302.631
302.747
302.863
302.979
303.095
303.211
303.327
303.445
303.564
303.684
303.807
303.933
304.062
304.195
304.333
304.477
304.626
304.782
304.946
305.119
305.301
305.493
305.697
305.913
306.143
306.388
306.648
306.925
307.22
307.534
307.869
308.224
308.603
309.004
309.43
309.881
310.358
310.861
311.392
311.95
312.535
313.148
313.789
314.457
315.151
315.87
316.615
317.383
318.173
318.983
319.811
320.656
321.516
322.387
323.268
324.157
325.05
325.946
326.842
327.735
300.057
300.175
300.295
300.419
300.546
300.675
300.806
300.938
301.071
301.204
301.337
301.469
301.601
301.732
301.863
301.991
302.119
302.245
302.37
302.493
302.615
302.736
302.856
302.975
303.093
303.211
303.329
303.447
303.566
303.686
303.807
303.931
304.056
304.185
304.318
304.454
304.596
304.743
304.896
305.057
305.225
305.402
305.589
305.787
305.995
306.217
306.451
306.7
306.965
307.245
307.543
307.86
308.195
308.55
308.927
309.324
309.744
310.187
310.653
311.142
311.655
312.191
312.751
313.335
313.941
314.569
315.219
315.889
316.578
317.286
318.009
318.748
319.501
320.264
321.038
321.819
322.606
323.397
324.19
324.983
325.774
300.06
300.183
300.309
300.439
300.572
300.707
300.845
300.983
301.122
301.262
301.401
301.54
301.679
301.816
301.952
302.087
302.22
302.351
302.48
302.608
302.735
302.86
302.983
303.106
303.227
303.348
303.468
303.588
303.709
303.83
303.952
304.076
304.202
304.331
304.462
304.598
304.737
304.882
305.033
305.189
305.354
305.526
305.706
305.897
306.098
306.31
306.534
306.771
307.022
307.288
307.569
307.867
308.181
308.514
308.864
309.234
309.622
310.031
310.459
310.908
311.377
311.866
312.375
312.904
313.452
314.018
314.602
315.203
315.819
316.451
317.096
317.753
318.421
319.099
319.784
320.476
321.172
321.872
322.573
323.275
323.975
300.063
300.192
300.326
300.463
300.603
300.745
300.89
301.036
301.183
301.331
301.478
301.624
301.77
301.915
302.058
302.199
302.338
302.476
302.611
302.745
302.876
303.006
303.134
303.26
303.385
303.509
303.632
303.755
303.877
304
304.124
304.248
304.374
304.503
304.634
304.768
304.906
305.048
305.195
305.348
305.508
305.675
305.849
306.033
306.225
306.428
306.641
306.866
307.104
307.354
307.618
307.897
308.19
308.499
308.824
309.166
309.524
309.899
310.291
310.701
311.127
311.571
312.032
312.509
313.002
313.51
314.033
314.57
315.12
315.682
316.256
316.839
317.431
318.031
318.638
319.25
319.865
320.484
321.104
321.725
322.344
300.067
300.204
300.345
300.49
300.639
300.79
300.944
301.099
301.255
301.412
301.568
301.723
301.878
302.031
302.182
302.331
302.478
302.623
302.765
302.905
303.042
303.178
303.311
303.442
303.571
303.699
303.825
303.951
304.076
304.2
304.325
304.451
304.577
304.706
304.836
304.969
305.105
305.245
305.389
305.539
305.694
305.855
306.023
306.199
306.383
306.576
306.778
306.991
307.215
307.45
307.697
307.956
308.229
308.515
308.815
309.129
309.457
309.8
310.158
310.53
310.917
311.318
311.733
312.162
312.604
313.059
313.526
314.005
314.494
314.994
315.502
316.019
316.544
317.074
317.61
318.151
318.695
319.241
319.789
320.337
320.885
300.072
300.217
300.368
300.523
300.682
300.843
301.007
301.173
301.34
301.507
301.674
301.84
302.004
302.167
302.328
302.487
302.642
302.796
302.946
303.093
303.238
303.379
303.518
303.655
303.789
303.921
304.052
304.181
304.309
304.436
304.562
304.689
304.817
304.945
305.075
305.207
305.341
305.479
305.62
305.766
305.916
306.072
306.233
306.402
306.577
306.76
306.952
307.152
307.362
307.582
307.813
308.054
308.306
308.57
308.845
309.133
309.433
309.746
310.07
310.407
310.757
311.118
311.491
311.875
312.271
312.677
313.093
313.519
313.954
314.397
314.848
315.306
315.769
316.238
316.712
317.189
317.67
318.152
318.636
319.121
319.605
300.077
300.233
300.395
300.561
300.732
300.906
301.082
301.26
301.44
301.619
301.799
301.977
302.153
302.328
302.5
302.669
302.836
302.998
303.158
303.314
303.467
303.616
303.762
303.905
304.045
304.182
304.317
304.45
304.582
304.712
304.841
304.969
305.098
305.227
305.356
305.487
305.62
305.756
305.894
306.036
306.182
306.332
306.487
306.648
306.815
306.989
307.17
307.358
307.555
307.76
307.974
308.198
308.43
308.673
308.926
309.189
309.462
309.746
310.04
310.344
310.659
310.984
311.318
311.662
312.015
312.377
312.748
313.126
313.512
313.905
314.304
314.709
315.119
315.533
315.951
316.373
316.797
317.223
317.65
318.078
318.506
300.083
300.252
300.427
300.607
300.791
300.979
301.17
301.363
301.558
301.752
301.946
302.138
302.329
302.517
302.702
302.884
303.062
303.237
303.407
303.573
303.735
303.893
304.047
304.198
304.345
304.488
304.629
304.766
304.902
305.035
305.167
305.298
305.428
305.557
305.687
305.818
305.95
306.083
306.219
306.357
306.498
306.643
306.793
306.947
307.106
307.27
307.441
307.618
307.802
307.993
308.191
308.398
308.612
308.835
309.066
309.306
309.555
309.812
310.078
310.353
310.636
310.927
311.227
311.534
311.85
312.172
312.502
312.838
313.18
313.528
313.882
314.24
314.602
314.968
315.338
315.71
316.084
316.46
316.838
317.216
317.594
300.09
300.274
300.464
300.66
300.861
301.066
301.274
301.485
301.696
301.908
302.119
302.328
302.535
302.739
302.939
303.136
303.328
303.516
303.699
303.877
304.05
304.218
304.381
304.54
304.695
304.846
304.992
305.136
305.276
305.413
305.549
305.682
305.814
305.945
306.076
306.206
306.337
306.469
306.602
306.737
306.874
307.015
307.158
307.306
307.457
307.613
307.774
307.94
308.112
308.29
308.474
308.665
308.863
309.067
309.279
309.497
309.723
309.956
310.197
310.444
310.699
310.961
311.229
311.504
311.786
312.073
312.366
312.665
312.969
313.277
313.59
313.907
314.228
314.551
314.878
315.207
315.538
315.87
316.203
316.537
316.872
300.099
300.3
300.508
300.723
300.944
301.169
301.397
301.628
301.86
302.091
302.322
302.551
302.777
303
303.218
303.432
303.64
303.843
304.04
304.232
304.417
304.597
304.772
304.941
305.104
305.263
305.417
305.567
305.713
305.855
305.994
306.131
306.266
306.398
306.53
306.661
306.791
306.922
307.053
307.185
307.319
307.455
307.594
307.735
307.879
308.027
308.179
308.336
308.497
308.663
308.834
309.01
309.192
309.38
309.574
309.773
309.979
310.19
310.408
310.632
310.861
311.096
311.337
311.583
311.835
312.091
312.353
312.619
312.889
313.163
313.44
313.721
314.005
314.292
314.581
314.871
315.164
315.458
315.753
316.048
316.344
300.109
300.331
300.561
300.798
301.041
301.289
301.542
301.796
302.052
302.308
302.562
302.814
303.062
303.306
303.545
303.778
304.006
304.226
304.44
304.647
304.847
305.041
305.227
305.408
305.582
305.75
305.912
306.069
306.222
306.37
306.514
306.654
306.792
306.927
307.06
307.192
307.323
307.453
307.582
307.713
307.844
307.976
308.109
308.245
308.383
308.524
308.668
308.816
308.967
309.122
309.281
309.445
309.613
309.786
309.964
310.146
310.334
310.527
310.724
310.926
311.134
311.346
311.562
311.783
312.009
312.238
312.472
312.709
312.949
313.193
313.44
313.69
313.942
314.196
314.452
314.71
314.969
315.229
315.49
315.752
316.014
300.121
300.367
300.622
300.886
301.156
301.432
301.713
301.995
302.279
302.563
302.844
303.123
303.397
303.666
303.929
304.185
304.434
304.675
304.908
305.132
305.349
305.558
305.759
305.952
306.137
306.316
306.488
306.653
306.813
306.968
307.117
307.263
307.404
307.542
307.678
307.811
307.942
308.072
308.201
308.329
308.458
308.587
308.717
308.848
308.981
309.116
309.253
309.392
309.535
309.68
309.829
309.982
310.138
310.298
310.461
310.629
310.801
310.977
311.157
311.341
311.529
311.721
311.917
312.116
312.318
312.525
312.734
312.946
313.161
313.379
313.599
313.821
314.045
314.272
314.499
314.728
314.958
315.189
315.421
315.653
315.886
300.135
300.41
300.696
300.99
301.293
301.601
301.914
302.23
302.547
302.863
303.177
303.487
303.791
304.089
304.379
304.661
304.935
305.199
305.453
305.699
305.934
306.16
306.376
306.584
306.783
306.973
307.156
307.331
307.499
307.661
307.817
307.968
308.114
308.255
308.393
308.529
308.661
308.791
308.92
309.048
309.174
309.301
309.428
309.555
309.684
309.813
309.944
310.077
310.212
310.35
310.49
310.633
310.778
310.927
311.079
311.234
311.392
311.554
311.719
311.888
312.059
312.233
312.411
312.591
312.775
312.96
313.149
313.34
313.533
313.728
313.925
314.124
314.324
314.526
314.729
314.933
315.138
315.343
315.549
315.756
315.962
300.152
300.461
300.782
301.114
301.454
301.801
302.153
302.508
302.863
303.218
303.568
303.914
304.253
304.584
304.906
305.218
305.52
305.81
306.09
306.357
306.614
306.859
307.093
307.316
307.53
307.733
307.928
308.113
308.291
308.461
308.624
308.781
308.932
309.078
309.219
309.357
309.491
309.623
309.752
309.879
310.005
310.13
310.255
310.379
310.504
310.629
310.755
310.883
311.012
311.143
311.275
311.41
311.547
311.687
311.829
311.973
312.12
312.27
312.422
312.577
312.735
312.894
313.056
313.22
313.387
313.555
313.726
313.898
314.073
314.248
314.425
314.604
314.784
314.964
315.146
315.329
315.512
315.695
315.879
316.063
316.247
300.172
300.522
300.885
301.26
301.645
302.037
302.435
302.836
303.236
303.635
304.029
304.416
304.796
305.165
305.523
305.869
306.202
306.522
306.829
307.122
307.401
307.668
307.921
308.162
308.391
308.609
308.816
309.013
309.201
309.38
309.55
309.714
309.871
310.022
310.167
310.308
310.445
310.578
310.708
310.836
310.961
311.085
311.209
311.331
311.453
311.575
311.698
311.821
311.946
312.071
312.198
312.326
312.456
312.588
312.722
312.858
312.996
313.135
313.277
313.42
313.565
313.712
313.861
314.012
314.164
314.318
314.473
314.63
314.788
314.947
315.107
315.268
315.43
315.592
315.755
315.919
316.083
316.247
316.411
316.576
316.74
300.195
300.594
301.007
301.433
301.87
302.317
302.768
303.222
303.676
304.126
304.57
305.006
305.43
305.843
306.242
306.626
306.995
307.347
307.684
308.005
308.31
308.599
308.873
309.133
309.379
309.612
309.832
310.041
310.24
310.428
310.607
310.778
310.941
311.097
311.247
311.391
311.531
311.666
311.798
311.927
312.053
312.177
312.3
312.421
312.542
312.662
312.782
312.902
313.023
313.144
313.267
313.39
313.515
313.641
313.768
313.897
314.026
314.157
314.29
314.424
314.559
314.695
314.833
314.972
315.112
315.253
315.395
315.538
315.682
315.826
315.972
316.117
316.264
316.41
316.557
316.705
316.852
316.999
317.146
317.293
317.44
300.223
300.678
301.15
301.638
302.137
302.647
303.161
303.678
304.193
304.703
305.205
305.695
306.171
306.632
307.077
307.503
307.91
308.299
308.668
309.018
309.35
309.663
309.959
310.239
310.502
310.75
310.985
311.206
311.415
311.613
311.8
311.978
312.148
312.309
312.464
312.613
312.756
312.894
313.028
313.158
313.286
313.411
313.534
313.655
313.775
313.894
314.013
314.131
314.25
314.368
314.487
314.607
314.728
314.849
314.97
315.093
315.216
315.34
315.465
315.59
315.717
315.844
315.972
316.101
316.23
316.36
316.491
316.622
316.753
316.885
317.017
317.15
317.282
317.415
317.547
317.68
317.812
317.944
318.076
318.207
318.338
300.256
300.779
301.32
301.879
302.452
303.035
303.624
304.214
304.8
305.378
305.944
306.496
307.031
307.545
308.039
308.511
308.96
309.386
309.789
310.17
310.529
310.867
311.185
311.483
311.764
312.027
312.275
312.508
312.727
312.934
313.13
313.315
313.491
313.658
313.818
313.971
314.118
314.26
314.396
314.529
314.659
314.785
314.909
315.031
315.151
315.27
315.388
315.506
315.623
315.74
315.857
315.974
316.09
316.207
316.324
316.441
316.559
316.676
316.794
316.913
317.032
317.151
317.27
317.39
317.51
317.63
317.75
317.87
317.991
318.111
318.231
318.352
318.472
318.591
318.711
318.83
318.949
319.067
319.184
319.301
319.418
300.295
300.896
301.52
302.163
302.822
303.492
304.166
304.84
305.507
306.162
306.801
307.421
308.019
308.591
309.137
309.657
310.148
310.613
311.05
311.46
311.846
312.207
312.545
312.861
313.157
313.434
313.694
313.937
314.166
314.381
314.584
314.776
314.958
315.131
315.295
315.453
315.603
315.749
315.889
316.024
316.156
316.285
316.41
316.534
316.655
316.774
316.892
317.009
317.126
317.241
317.356
317.47
317.584
317.697
317.809
317.922
318.034
318.146
318.258
318.369
318.481
318.592
318.704
318.815
318.926
319.036
319.147
319.257
319.367
319.477
319.586
319.695
319.803
319.911
320.018
320.124
320.23
320.335
320.439
320.543
320.646
300.34
301.033
301.752
302.494
303.253
304.023
304.796
305.564
306.322
307.063
307.782
308.475
309.139
309.771
310.37
310.936
311.468
311.968
312.436
312.874
313.282
313.662
314.017
314.347
314.655
314.942
315.211
315.463
315.699
315.921
316.13
316.327
316.514
316.691
316.86
317.022
317.176
317.325
317.468
317.607
317.741
317.872
318
318.124
318.247
318.367
318.485
318.602
318.717
318.831
318.943
319.054
319.164
319.274
319.382
319.489
319.596
319.703
319.808
319.913
320.018
320.122
320.225
320.328
320.43
320.532
320.633
320.733
320.833
320.932
321.03
321.128
321.225
321.321
321.416
321.51
321.604
321.696
321.788
321.878
321.968
300.392
301.191
302.02
302.875
303.749
304.632
305.516
306.39
307.247
308.08
308.882
309.651
310.381
311.07
311.716
312.321
312.886
313.413
313.903
314.358
314.782
315.175
315.54
315.879
316.195
316.489
316.764
317.022
317.263
317.489
317.703
317.904
318.095
318.276
318.449
318.614
318.772
318.924
319.07
319.211
319.348
319.48
319.609
319.735
319.858
319.978
320.096
320.211
320.324
320.435
320.545
320.653
320.759
320.864
320.968
321.07
321.172
321.272
321.372
321.47
321.567
321.664
321.759
321.853
321.947
322.039
322.131
322.221
322.311
322.4
322.487
322.574
322.659
322.744
322.827
322.91
322.991
323.072
323.151
323.229
323.306
300.449
301.365
302.318
303.3
304.303
305.313
306.318
307.31
308.269
309.19
310.068
310.898
311.678
312.409
313.09
313.723
314.311
314.855
315.358
315.824
316.254
316.653
317.022
317.365
317.684
317.981
318.258
318.517
318.76
318.988
319.203
319.407
319.6
319.783
319.958
320.125
320.284
320.438
320.586
320.728
320.866
320.999
321.128
321.254
321.376
321.495
321.611
321.725
321.835
321.944
322.05
322.154
322.257
322.357
322.456
322.554
322.649
322.744
322.836
322.928
323.018
323.106
323.194
323.28
323.365
323.448
323.53
323.611
323.691
323.77
323.847
323.923
323.998
324.072
324.144
324.215
324.286
324.354
324.422
324.489
324.554
300.507
301.544
302.625
303.744
304.889
306.03
307.151
308.239
309.283
310.276
311.211
312.087
312.904
313.661
314.361
315.007
315.603
316.151
316.656
317.121
317.55
317.946
318.312
318.652
318.967
319.261
319.535
319.792
320.033
320.26
320.474
320.677
320.869
321.052
321.226
321.393
321.553
321.706
321.854
321.996
322.133
322.265
322.394
322.518
322.639
322.756
322.87
322.981
323.089
323.195
323.298
323.398
323.497
323.593
323.687
323.779
323.87
323.958
324.045
324.13
324.213
324.295
324.375
324.454
324.531
324.607
324.681
324.753
324.824
324.894
324.963
325.03
325.095
325.16
325.223
325.285
325.345
325.404
325.462
325.519
325.575
300.551
301.684
302.873
304.117
305.371
306.612
307.821
308.982
310.083
311.118
312.084
312.98
313.808
314.57
315.271
315.914
316.503
317.044
317.541
317.997
318.417
318.805
319.163
319.495
319.804
320.092
320.36
320.612
320.849
321.072
321.283
321.482
321.672
321.853
322.025
322.19
322.348
322.5
322.646
322.787
322.922
323.053
323.18
323.303
323.422
323.537
323.65
323.759
323.865
323.968
324.068
324.166
324.262
324.355
324.446
324.535
324.622
324.707
324.789
324.87
324.949
325.026
325.102
325.176
325.248
325.318
325.387
325.454
325.52
325.584
325.647
325.708
325.768
325.826
325.883
325.939
325.994
326.047
326.099
326.149
326.199
384.409
392.356
399.03
404.838
409.984
414.577
418.681
422.332
425.545
428.322
430.655
432.521
433.888
434.708
434.917
434.424
433.101
430.752
427.046
421.324
411.937
405.57
400.682
396.673
393.254
390.265
387.602
385.199
383.005
380.985
379.11
377.358
375.712
374.156
372.679
371.27
369.921
368.624
367.373
366.162
364.987
363.842
362.724
361.63
360.557
359.502
358.463
357.437
356.424
355.42
354.426
353.439
352.459
351.484
350.515
349.55
348.588
347.63
346.676
345.725
344.776
343.831
342.889
341.95
341.014
340.081
339.152
338.227
337.305
336.388
335.475
334.568
333.666
332.77
331.881
331
330.127
329.262
328.408
327.563
326.731
325.911
325.103
324.31
323.532
322.77
322.024
321.295
320.584
319.892
319.219
318.566
317.933
317.321
316.729
316.158
315.609
315.081
314.574
314.088
313.624
313.18
312.757
312.354
311.971
311.607
311.262
310.935
310.626
310.333
310.058
309.797
309.552
309.321
309.103
308.898
308.705
308.523
308.352
308.19
308.037
307.892
307.754
307.624
307.499
307.38
307.266
307.156
307.05
306.947
306.847
306.75
306.654
306.559
306.466
306.373
306.281
306.189
306.097
306.004
305.911
305.817
305.722
305.626
305.528
305.43
305.329
305.228
305.124
305.019
304.912
304.804
304.694
304.582
304.468
304.353
304.237
304.119
304
303.881
303.761
379.657
386.565
392.772
398.338
403.343
407.849
411.898
415.514
418.706
421.474
423.806
425.681
427.065
427.915
428.168
427.742
426.527
424.365
421.04
416.283
410.046
404.648
400.137
396.309
392.992
390.067
387.447
385.075
382.904
380.901
379.039
377.298
375.661
374.112
372.641
371.238
369.893
368.599
367.352
366.143
364.97
363.827
362.711
361.619
360.547
359.493
358.455
357.43
356.418
355.415
354.421
353.435
352.455
351.481
350.511
349.546
348.585
347.628
346.673
345.722
344.774
343.829
342.887
341.948
341.012
340.079
339.15
338.225
337.303
336.386
335.473
334.566
333.664
332.768
331.879
330.998
330.124
329.26
328.405
327.561
326.729
325.908
325.101
324.308
323.53
322.767
322.021
321.293
320.582
319.89
319.217
318.564
317.931
317.318
316.727
316.156
315.607
315.079
314.572
314.086
313.622
313.178
312.755
312.352
311.969
311.605
311.26
310.934
310.625
310.333
310.057
309.797
309.551
309.32
309.103
308.898
308.705
308.523
308.351
308.19
308.037
307.892
307.754
307.624
307.499
307.38
307.266
307.157
307.051
306.948
306.848
306.75
306.654
306.56
306.467
306.374
306.282
306.19
306.098
306.005
305.912
305.818
305.723
305.627
305.529
305.43
305.33
305.228
305.125
305.02
304.913
304.805
304.694
304.582
304.469
304.354
304.237
304.12
304.001
303.881
303.762
375.55
381.463
387.04
392.205
396.947
401.276
405.203
408.736
411.875
414.613
416.935
418.819
420.234
421.137
421.474
421.178
420.162
418.326
415.563
411.827
407.333
402.972
399.032
395.532
392.418
389.626
387.1
384.794
382.674
380.71
378.879
377.163
375.545
374.014
372.556
371.164
369.83
368.545
367.304
366.102
364.934
363.796
362.684
361.595
360.526
359.475
358.439
357.416
356.405
355.404
354.411
353.426
352.447
351.474
350.505
349.541
348.58
347.623
346.669
345.718
344.77
343.825
342.883
341.944
341.009
340.076
339.147
338.222
337.3
336.383
335.47
334.563
333.661
332.765
331.876
330.994
330.12