/*--------------------------------*- C++ -*----------------------------------*\
  =========                 |
  \\      /  F ield         | OpenFOAM: The Open Source CFD Toolbox
   \\    /   O peration     | Website:  https://openfoam.org
    \\  /    A nd           | Version:  7
     \\/     M anipulation  |
\*---------------------------------------------------------------------------*/
FoamFile
{
    version     2.0;
    format      ascii;
    class       volVectorField;
    location    "8.14";
    object      U;
}
// * * * * * * * * * * * * * * * * * * * * * * * * * * * * * * * * * * * * * //

dimensions      [0 1 -1 0 0 0 0];

internalField   nonuniform List<vector> 
12013
(
(0.100923 -0.000247858 0)
(0.104522 -0.000431305 0)
(0.109993 -0.000591043 0)
(0.116818 -0.00073297 0)
(0.124848 -0.000863103 0)
(0.133945 -0.000985895 0)
(0.144008 -0.00110487 0)
(0.154974 -0.00122276 0)
(0.166804 -0.00134136 0)
(0.179471 -0.00146137 0)
(0.192949 -0.0015824 0)
(0.207203 -0.00170302 0)
(0.222187 -0.00182101 0)
(0.237834 -0.00193366 0)
(0.254055 -0.00203811 0)
(0.270746 -0.00213169 0)
(0.287788 -0.00221216 0)
(0.305054 -0.00227783 0)
(0.322413 -0.00232767 0)
(0.339737 -0.00236127 0)
(0.356905 -0.00237877 0)
(0.373804 -0.0023808 0)
(0.390337 -0.00236829 0)
(0.406416 -0.00234243 0)
(0.42197 -0.00230457 0)
(0.436939 -0.00225609 0)
(0.451279 -0.00219838 0)
(0.464955 -0.00213281 0)
(0.477944 -0.00206062 0)
(0.490233 -0.00198299 0)
(0.501815 -0.00190101 0)
(0.512692 -0.0018156 0)
(0.52287 -0.0017276 0)
(0.532362 -0.0016378 0)
(0.541184 -0.00154681 0)
(0.549353 -0.00145518 0)
(0.556893 -0.00136341 0)
(0.563826 -0.00127192 0)
(0.570176 -0.00118102 0)
(0.57597 -0.00109102 0)
(0.581235 -0.00100216 0)
(0.585997 -0.000914639 0)
(0.590283 -0.000828599 0)
(0.594122 -0.000744166 0)
(0.597539 -0.000661437 0)
(0.600562 -0.000580463 0)
(0.603218 -0.000501262 0)
(0.605532 -0.000423831 0)
(0.607531 -0.000348136 0)
(0.609239 -0.000274104 0)
(0.610681 -0.000201619 0)
(0.611881 -0.000130526 0)
(0.612861 -6.06246e-05 0)
(0.613645 8.31243e-06 0)
(0.614253 7.65252e-05 0)
(0.614707 0.00014428 0)
(0.615027 0.00021194 0)
(0.615231 0.000279973 0)
(0.615339 0.000348947 0)
(0.615366 0.000419547 0)
(0.615329 0.000492609 0)
(0.61524 0.000569149 0)
(0.615113 0.000650411 0)
(0.614955 0.000737928 0)
(0.614773 0.000833607 0)
(0.614571 0.000939846 0)
(0.614346 0.00105971 0)
(0.614091 0.00119717 0)
(0.613791 0.0013575 0)
(0.61342 0.00154783 0)
(0.612939 0.00177813 0)
(0.612287 0.00206273 0)
(0.611374 0.00242308 0)
(0.610062 0.00289267 0)
(0.60814 0.00352636 0)
(0.60527 0.004419 0)
(0.600894 0.00574465 0)
(0.594028 0.00784919 0)
(0.582899 0.0115501 0)
(0.564382 0.0197659 0)
(0.545839 0.0527447 0)
(0.10084 -0.000754953 0)
(0.104418 -0.00131996 0)
(0.109858 -0.00180918 0)
(0.116658 -0.00224312 0)
(0.124665 -0.00264074 0)
(0.133741 -0.00301563 0)
(0.143785 -0.00337862 0)
(0.154735 -0.00373813 0)
(0.166552 -0.00409961 0)
(0.179209 -0.00446526 0)
(0.19268 -0.00483387 0)
(0.206934 -0.00520111 0)
(0.221924 -0.00556021 0)
(0.237581 -0.00590294 0)
(0.253821 -0.00622063 0)
(0.270536 -0.00650518 0)
(0.287608 -0.00674978 0)
(0.304908 -0.00694937 0)
(0.322306 -0.00710086 0)
(0.339671 -0.00720303 0)
(0.356881 -0.00725634 0)
(0.373824 -0.00726266 0)
(0.390399 -0.00722486 0)
(0.40652 -0.00714657 0)
(0.422113 -0.0070318 0)
(0.437121 -0.00688477 0)
(0.451497 -0.00670969 0)
(0.465206 -0.00651063 0)
(0.478226 -0.00629142 0)
(0.490543 -0.00605559 0)
(0.50215 -0.00580637 0)
(0.51305 -0.00554665 0)
(0.523249 -0.00527897 0)
(0.532759 -0.00500559 0)
(0.541596 -0.00472847 0)
(0.549779 -0.00444931 0)
(0.55733 -0.00416955 0)
(0.564272 -0.00389045 0)
(0.57063 -0.00361307 0)
(0.576429 -0.00333827 0)
(0.581698 -0.0030668 0)
(0.586462 -0.00279926 0)
(0.590748 -0.00253612 0)
(0.594585 -0.00227777 0)
(0.597999 -0.00202447 0)
(0.601017 -0.00177638 0)
(0.603666 -0.0015336 0)
(0.605972 -0.00129612 0)
(0.60796 -0.00106381 0)
(0.609656 -0.00083645 0)
(0.611084 -0.000613701 0)
(0.612268 -0.000395095 0)
(0.61323 -0.000180013 0)
(0.613992 3.22344e-05 0)
(0.614578 0.000242342 0)
(0.615006 0.000451093 0)
(0.615297 0.000659585 0)
(0.61547 0.000869237 0)
(0.615543 0.00108179 0)
(0.615533 0.00129933 0)
(0.615456 0.0015244 0)
(0.615324 0.00176009 0)
(0.615149 0.00201016 0)
(0.614941 0.00227923 0)
(0.614707 0.00257303 0)
(0.61445 0.00289874 0)
(0.614169 0.00326548 0)
(0.613859 0.00368504 0)
(0.613506 0.00417288 0)
(0.61309 0.00474984 0)
(0.612577 0.00544458 0)
(0.611917 0.00629781 0)
(0.611039 0.00736921 0)
(0.60984 0.00874954 0)
(0.608169 0.0105824 0)
(0.605812 0.0131044 0)
(0.602466 0.0167228 0)
(0.597703 0.0221683 0)
(0.590977 0.0308295 0)
(0.58219 0.0454209 0)
(0.579284 0.0710593 0)
(0.100744 -0.00127827 0)
(0.104267 -0.00226061 0)
(0.109642 -0.00310393 0)
(0.116386 -0.00385151 0)
(0.124345 -0.00453641 0)
(0.133378 -0.00518203 0)
(0.143384 -0.00580715 0)
(0.154301 -0.00642643 0)
(0.16609 -0.00704937 0)
(0.178727 -0.00767982 0)
(0.192189 -0.00831579 0)
(0.206444 -0.0089498 0)
(0.221448 -0.00957016 0)
(0.237133 -0.0101626 0)
(0.253412 -0.010712 0)
(0.270181 -0.0112044 0)
(0.287318 -0.0116278 0)
(0.304692 -0.0119735 0)
(0.32217 -0.0122361 0)
(0.339621 -0.0124135 0)
(0.35692 -0.0125063 0)
(0.373952 -0.012518 0)
(0.390615 -0.0124533 0)
(0.406821 -0.0123187 0)
(0.422497 -0.012121 0)
(0.437583 -0.0118676 0)
(0.452031 -0.0115657 0)
(0.465808 -0.0112223 0)
(0.47889 -0.0108442 0)
(0.491263 -0.0104374 0)
(0.502922 -0.0100075 0)
(0.513868 -0.00955944 0)
(0.524107 -0.00909766 0)
(0.533653 -0.00862603 0)
(0.542522 -0.00814793 0)
(0.550732 -0.0076663 0)
(0.558306 -0.00718364 0)
(0.565266 -0.0067021 0)
(0.571639 -0.00622347 0)
(0.57745 -0.00574928 0)
(0.582727 -0.00528078 0)
(0.587495 -0.00481901 0)
(0.591783 -0.00436478 0)
(0.595618 -0.00391873 0)
(0.599027 -0.0034813 0)
(0.602038 -0.00305278 0)
(0.604675 -0.00263332 0)
(0.606967 -0.00222285 0)
(0.608938 -0.00182118 0)
(0.610613 -0.0014279 0)
(0.612016 -0.00104243 0)
(0.613172 -0.000663952 0)
(0.614103 -0.000291374 0)
(0.614831 7.64712e-05 0)
(0.615377 0.000440771 0)
(0.615763 0.000802921 0)
(0.616007 0.00116484 0)
(0.616129 0.00152896 0)
(0.616146 0.00189825 0)
(0.616076 0.00227629 0)
(0.615933 0.00266737 0)
(0.615731 0.00307668 0)
(0.615482 0.00351054 0)
(0.615196 0.00397666 0)
(0.614881 0.00448455 0)
(0.61454 0.00504602 0)
(0.614176 0.00567596 0)
(0.613786 0.00639339 0)
(0.613361 0.00722297 0)
(0.612888 0.00819729 0)
(0.612345 0.00936033 0)
(0.6117 0.0107728 0)
(0.610912 0.0125204 0)
(0.609927 0.0147275 0)
(0.608683 0.0175788 0)
(0.607118 0.0213549 0)
(0.605202 0.0264891 0)
(0.603017 0.0336572 0)
(0.600936 0.0439195 0)
(0.600073 0.0588566 0)
(0.604317 0.0798768 0)
(0.100642 -0.0018108 0)
(0.104089 -0.00324818 0)
(0.109368 -0.00447212 0)
(0.11603 -0.0055576 0)
(0.123915 -0.00655176 0)
(0.132882 -0.00748871 0)
(0.142831 -0.00839607 0)
(0.153698 -0.00929534 0)
(0.165449 -0.0102006 0)
(0.17806 -0.0111177 0)
(0.191511 -0.0120437 0)
(0.205775 -0.0129679 0)
(0.220808 -0.0138731 0)
(0.236544 -0.0147383 0)
(0.252898 -0.0155413 0)
(0.26976 -0.0162613 0)
(0.287009 -0.0168809 0)
(0.304509 -0.017387 0)
(0.322123 -0.0177717 0)
(0.339717 -0.0180317 0)
(0.357161 -0.0181682 0)
(0.374338 -0.018186 0)
(0.391144 -0.0180924 0)
(0.407487 -0.0178965 0)
(0.423292 -0.0176087 0)
(0.4385 -0.0172396 0)
(0.453061 -0.0167999 0)
(0.466942 -0.0163 0)
(0.480119 -0.0157494 0)
(0.492578 -0.0151571 0)
(0.504314 -0.0145313 0)
(0.515328 -0.0138791 0)
(0.525628 -0.0132071 0)
(0.535227 -0.0125209 0)
(0.544142 -0.0118254 0)
(0.552391 -0.0111248 0)
(0.559997 -0.0104227 0)
(0.566984 -0.00972236 0)
(0.573379 -0.00902624 0)
(0.579206 -0.00833659 0)
(0.584493 -0.0076552 0)
(0.589267 -0.00698353 0)
(0.593557 -0.00632276 0)
(0.597389 -0.00567377 0)
(0.600791 -0.00503722 0)
(0.60379 -0.00441348 0)
(0.606412 -0.0038027 0)
(0.608684 -0.00320481 0)
(0.610631 -0.00261949 0)
(0.612278 -0.00204615 0)
(0.613649 -0.00148389 0)
(0.614768 -0.000931522 0)
(0.615657 -0.000387458 0)
(0.616339 0.000149952 0)
(0.616835 0.000682409 0)
(0.617165 0.00121202 0)
(0.617349 0.00174159 0)
(0.617406 0.00227464 0)
(0.617354 0.00281537 0)
(0.617209 0.00336883 0)
(0.616986 0.00394108 0)
(0.6167 0.00453936 0)
(0.616363 0.00517243 0)
(0.615986 0.00585091 0)
(0.615578 0.00658775 0)
(0.615146 0.00739886 0)
(0.614693 0.00830405 0)
(0.614223 0.00932816 0)
(0.613733 0.0105028 0)
(0.61322 0.0118688 0)
(0.612676 0.0134794 0)
(0.612094 0.0154052 0)
(0.611465 0.0177414 0)
(0.610787 0.0206169 0)
(0.610075 0.0242083 0)
(0.609384 0.0287562 0)
(0.608845 0.034583 0)
(0.60874 0.0421026 0)
(0.609613 0.0517947 0)
(0.612405 0.0640614 0)
(0.618739 0.0786511 0)
(0.100537 -0.00235114 0)
(0.1039 -0.00427869 0)
(0.109061 -0.00591096 0)
(0.115616 -0.00736031 0)
(0.123405 -0.00868758 0)
(0.132287 -0.00993833 0)
(0.14216 -0.01115 0)
(0.152965 -0.0123517 0)
(0.164669 -0.0135628 0)
(0.177252 -0.0147914 0)
(0.190699 -0.016034 0)
(0.204988 -0.0172759 0)
(0.220078 -0.0184941 0)
(0.235905 -0.0196597 0)
(0.25238 -0.0207426 0)
(0.269395 -0.0217143 0)
(0.286819 -0.0225507 0)
(0.304514 -0.0232341 0)
(0.322337 -0.0237535 0)
(0.340145 -0.0241047 0)
(0.357804 -0.0242893 0)
(0.375193 -0.0243138 0)
(0.392203 -0.0241882 0)
(0.40874 -0.023925 0)
(0.424728 -0.0235382 0)
(0.440104 -0.0230424 0)
(0.454821 -0.0224519 0)
(0.468843 -0.0217807 0)
(0.482148 -0.0210418 0)
(0.49472 -0.0202474 0)
(0.506557 -0.0194082 0)
(0.51766 -0.0185341 0)
(0.528038 -0.0176336 0)
(0.537703 -0.0167143 0)
(0.546674 -0.0157828 0)
(0.554971 -0.0148446 0)
(0.562616 -0.0139048 0)
(0.569635 -0.0129672 0)
(0.576053 -0.0120355 0)
(0.581897 -0.0111124 0)
(0.587195 -0.0102004 0)
(0.591974 -0.00930138 0)
(0.596263 -0.00841685 0)
(0.600089 -0.00754797 0)
(0.603479 -0.00669554 0)
(0.606461 -0.00586004 0)
(0.609061 -0.00504165 0)
(0.611306 -0.00424023 0)
(0.613221 -0.00345531 0)
(0.614832 -0.00268607 0)
(0.616161 -0.00193131 0)
(0.617234 -0.00118941 0)
(0.618072 -0.000458306 0)
(0.618698 0.000264165 0)
(0.619133 0.000980247 0)
(0.619398 0.00169283 0)
(0.619511 0.00240566 0)
(0.619493 0.00312331 0)
(0.619361 0.00385124 0)
(0.619132 0.00459592 0)
(0.61882 0.00536504 0)
(0.618442 0.00616775 0)
(0.618011 0.00701499 0)
(0.617538 0.00791984 0)
(0.617035 0.00889807 0)
(0.616511 0.00996877 0)
(0.615976 0.0111552 0)
(0.615435 0.0124861 0)
(0.614898 0.0139967 0)
(0.614369 0.0157314 0)
(0.613859 0.0177456 0)
(0.613379 0.0201093 0)
(0.612952 0.0229108 0)
(0.612614 0.026261 0)
(0.612429 0.0302971 0)
(0.612507 0.0351828 0)
(0.613028 0.0411018 0)
(0.614273 0.0482321 0)
(0.616659 0.0566864 0)
(0.620746 0.0663883 0)
(0.62719 0.0768443 0)
(0.100431 -0.00289898 0)
(0.103709 -0.00534926 0)
(0.108741 -0.00741854 0)
(0.11517 -0.00925911 0)
(0.122846 -0.0109453 0)
(0.131626 -0.0125345 0)
(0.141411 -0.014075 0)
(0.152145 -0.0156047 0)
(0.163798 -0.0171489 0)
(0.176359 -0.0187187 0)
(0.18982 -0.0203098 0)
(0.204164 -0.0219034 0)
(0.219355 -0.0234693 0)
(0.23533 -0.0249698 0)
(0.251999 -0.0263652 0)
(0.269245 -0.0276178 0)
(0.286932 -0.0286962 0)
(0.304912 -0.029577 0)
(0.323032 -0.030246 0)
(0.341141 -0.0306976 0)
(0.359099 -0.0309344 0)
(0.376776 -0.0309649 0)
(0.39406 -0.0308024 0)
(0.410854 -0.0304633 0)
(0.42708 -0.029966 0)
(0.442673 -0.0293291 0)
(0.457585 -0.0285716 0)
(0.471783 -0.0277113 0)
(0.485243 -0.0267651 0)
(0.497953 -0.0257485 0)
(0.50991 -0.0246754 0)
(0.521116 -0.0235582 0)
(0.531582 -0.022408 0)
(0.541323 -0.0212343 0)
(0.550356 -0.0200454 0)
(0.558704 -0.0188486 0)
(0.566389 -0.0176499 0)
(0.573439 -0.0164544 0)
(0.579878 -0.0152665 0)
(0.585736 -0.0140899 0)
(0.59104 -0.0129274 0)
(0.595818 -0.0117814 0)
(0.600099 -0.0106539 0)
(0.603911 -0.00954616 0)
(0.607282 -0.0084592 0)
(0.610239 -0.00739357 0)
(0.612808 -0.00634944 0)
(0.615017 -0.00532657 0)
(0.616891 -0.00432433 0)
(0.618455 -0.00334166 0)
(0.619733 -0.00237703 0)
(0.620749 -0.00142843 0)
(0.621525 -0.000493233 0)
(0.622085 0.000431204 0)
(0.622449 0.00134768 0)
(0.622638 0.00225992 0)
(0.622672 0.00317263 0)
(0.62257 0.00409143 0)
(0.62235 0.00502292 0)
(0.622028 0.00597488 0)
(0.621622 0.00695643 0)
(0.621147 0.00797832 0)
(0.620618 0.00905317 0)
(0.620049 0.0101959 0)
(0.619453 0.0114243 0)
(0.618843 0.0127592 0)
(0.618233 0.0142257 0)
(0.617636 0.0158537 0)
(0.617066 0.0176788 0)
(0.616542 0.019744 0)
(0.616085 0.0221004 0)
(0.615724 0.0248086 0)
(0.6155 0.0279398 0)
(0.615471 0.0315748 0)
(0.61572 0.0358022 0)
(0.616366 0.0407107 0)
(0.61757 0.046375 0)
(0.619544 0.0528301 0)
(0.622549 0.0600298 0)
(0.626864 0.0677886 0)
(0.632717 0.0757161 0)
(0.100322 -0.00345498 0)
(0.103526 -0.00645843 0)
(0.108422 -0.0089941 0)
(0.114715 -0.0112544 0)
(0.122266 -0.0133273 0)
(0.130934 -0.0152822 0)
(0.140623 -0.0171791 0)
(0.151281 -0.0190661 0)
(0.16289 -0.0209758 0)
(0.175447 -0.0229228 0)
(0.188954 -0.0249021 0)
(0.203403 -0.02689 0)
(0.218763 -0.0288475 0)
(0.234969 -0.0307261 0)
(0.251928 -0.0324744 0)
(0.269512 -0.034044 0)
(0.287573 -0.0353942 0)
(0.30595 -0.0364954 0)
(0.324475 -0.0373297 0)
(0.342987 -0.0378908 0)
(0.361335 -0.038182 0)
(0.379383 -0.038215 0)
(0.397013 -0.0380071 0)
(0.414125 -0.0375796 0)
(0.43064 -0.0369555 0)
(0.446492 -0.036159 0)
(0.461635 -0.0352137 0)
(0.476036 -0.034142 0)
(0.489673 -0.0329651 0)
(0.502535 -0.0317022 0)
(0.514622 -0.0303706 0)
(0.525939 -0.0289857 0)
(0.536497 -0.0275609 0)
(0.546313 -0.0261081 0)
(0.555406 -0.0246376 0)
(0.563801 -0.0231579 0)
(0.571521 -0.0216765 0)
(0.578594 -0.0201997 0)
(0.585048 -0.0187327 0)
(0.59091 -0.0172798 0)
(0.596211 -0.0158447 0)
(0.600978 -0.0144301 0)
(0.605241 -0.0130381 0)
(0.609029 -0.0116706 0)
(0.612369 -0.0103285 0)
(0.615289 -0.00901242 0)
(0.617816 -0.00772255 0)
(0.619977 -0.00645854 0)
(0.621798 -0.00521955 0)
(0.623304 -0.00400429 0)
(0.624519 -0.00281088 0)
(0.625468 -0.00163686 0)
(0.626171 -0.000479163 0)
(0.626655 0.000665373 0)
(0.626938 0.00180013 0)
(0.627043 0.00292968 0)
(0.626988 0.00405967 0)
(0.626794 0.00519667 0)
(0.626478 0.0063483 0)
(0.626059 0.00752339 0)
(0.625554 0.00873219 0)
(0.624979 0.00998658 0)
(0.624351 0.0113003 0)
(0.623686 0.0126894 0)
(0.623 0.0141723 0)
(0.622311 0.0157704 0)
(0.621634 0.0175086 0)
(0.620989 0.0194155 0)
(0.620398 0.021524 0)
(0.619885 0.0238716 0)
(0.619482 0.0265005 0)
(0.619227 0.0294572 0)
(0.619169 0.0327913 0)
(0.619372 0.0365525 0)
(0.619916 0.0407862 0)
(0.620902 0.0455251 0)
(0.62245 0.0507771 0)
(0.624696 0.0565088 0)
(0.627779 0.0626255 0)
(0.631815 0.0689516 0)
(0.636847 0.0752239 0)
(0.100211 -0.00402084 0)
(0.103353 -0.00760625 0)
(0.108118 -0.0106383 0)
(0.114269 -0.0133481 0)
(0.121688 -0.0158373 0)
(0.130239 -0.0181876 0)
(0.139831 -0.0204724 0)
(0.150421 -0.0227513 0)
(0.162002 -0.0250657 0)
(0.174587 -0.0274348 0)
(0.188194 -0.0298526 0)
(0.202823 -0.0322889 0)
(0.218447 -0.0346938 0)
(0.235001 -0.037005 0)
(0.252378 -0.0391561 0)
(0.270436 -0.0410854 0)
(0.289007 -0.0427417 0)
(0.307909 -0.0440879 0)
(0.32696 -0.0451027 0)
(0.345983 -0.0457792 0)
(0.364815 -0.046123 0)
(0.383313 -0.04615 0)
(0.401355 -0.0458825 0)
(0.418839 -0.0453477 0)
(0.435683 -0.0445749 0)
(0.451826 -0.043594 0)
(0.467221 -0.0424343 0)
(0.481839 -0.0411235 0)
(0.495661 -0.0396874 0)
(0.508679 -0.0381492 0)
(0.520896 -0.0365301 0)
(0.532318 -0.0348484 0)
(0.54296 -0.0331205 0)
(0.552842 -0.0313605 0)
(0.561985 -0.0295803 0)
(0.570414 -0.0277906 0)
(0.578156 -0.0259999 0)
(0.585239 -0.0242156 0)
(0.591693 -0.022444 0)
(0.597546 -0.02069 0)
(0.602829 -0.0189578 0)
(0.607571 -0.0172506 0)
(0.611803 -0.0155709 0)
(0.615552 -0.0139205 0)
(0.618848 -0.0123008 0)
(0.621718 -0.0107122 0)
(0.62419 -0.00915482 0)
(0.626292 -0.00762827 0)
(0.628048 -0.0061315 0)
(0.629484 -0.00466291 0)
(0.630625 -0.00322028 0)
(0.631495 -0.00180079 0)
(0.632116 -0.000401008 0)
(0.632513 0.000982747 0)
(0.632708 0.00235454 0)
(0.632719 0.0037198 0)
(0.632569 0.00508498 0)
(0.632276 0.00645746 0)
(0.63186 0.00784563 0)
(0.63134 0.00925909 0)
(0.630733 0.0107088 0)
(0.630057 0.0122072 0)
(0.629331 0.0137686 0)
(0.628572 0.015409 0)
(0.6278 0.0171466 0)
(0.627034 0.0190019 0)
(0.626295 0.0209977 0)
(0.625606 0.0231594 0)
(0.624993 0.0255146 0)
(0.624485 0.0280933 0)
(0.624118 0.0309264 0)
(0.623934 0.0340451 0)
(0.623979 0.0374787 0)
(0.624314 0.0412508 0)
(0.625003 0.0453757 0)
(0.626121 0.0498515 0)
(0.627745 0.0546531 0)
(0.629952 0.0597243 0)
(0.632803 0.0649708 0)
(0.636328 0.0702574 0)
(0.640503 0.0754184 0)
(0.100096 -0.00459915 0)
(0.103192 -0.00879429 0)
(0.107834 -0.0123536 0)
(0.113846 -0.0155435 0)
(0.121134 -0.0184808 0)
(0.12957 -0.0212596 0)
(0.13907 -0.0239682 0)
(0.149608 -0.0266805 0)
(0.161194 -0.0294487 0)
(0.173862 -0.0322972 0)
(0.187648 -0.0352183 0)
(0.202565 -0.0381731 0)
(0.218588 -0.0410964 0)
(0.23564 -0.0439075 0)
(0.253595 -0.0465213 0)
(0.272287 -0.0488593 0)
(0.291521 -0.050858 0)
(0.31109 -0.0524727 0)
(0.330789 -0.053679 0)
(0.350426 -0.054471 0)
(0.369826 -0.0548584 0)
(0.38884 -0.0548626 0)
(0.407343 -0.054513 0)
(0.425231 -0.053844 0)
(0.442428 -0.0528924 0)
(0.458872 -0.0516949 0)
(0.474523 -0.0502874 0)
(0.489354 -0.0487033 0)
(0.503352 -0.0469736 0)
(0.516512 -0.045126 0)
(0.528841 -0.0431855 0)
(0.54035 -0.0411739 0)
(0.551058 -0.0391103 0)
(0.560985 -0.0370111 0)
(0.570156 -0.0348905 0)
(0.578598 -0.0327605 0)
(0.586341 -0.0306311 0)
(0.593414 -0.0285108 0)
(0.599848 -0.0264066 0)
(0.605673 -0.0243244 0)
(0.61092 -0.0222686 0)
(0.61562 -0.020243 0)
(0.619803 -0.0182503 0)
(0.623498 -0.0162925 0)
(0.626735 -0.0143708 0)
(0.629542 -0.012486 0)
(0.631946 -0.0106379 0)
(0.633975 -0.00882596 0)
(0.635655 -0.00704893 0)
(0.637011 -0.00530495 0)
(0.638069 -0.00359146 0)
(0.638852 -0.00190527 0)
(0.639382 -0.000242898 0)
(0.639687 0.00139991 0)
(0.639786 0.00302813 0)
(0.6397 0.00464796 0)
(0.63945 0.00626648 0)
(0.639056 0.00789159 0)
(0.638537 0.00953221 0)
(0.637914 0.0111983 0)
(0.637206 0.0129012 0)
(0.636431 0.0146533 0)
(0.635609 0.0164685 0)
(0.63476 0.0183622 0)
(0.633904 0.0203511 0)
(0.633065 0.0224537 0)
(0.632265 0.0246894 0)
(0.631529 0.0270791 0)
(0.630885 0.029644 0)
(0.630365 0.0324055 0)
(0.630004 0.0353836 0)
(0.62984 0.0385959 0)
(0.629915 0.0420552 0)
(0.630277 0.045767 0)
(0.630975 0.0497262 0)
(0.632056 0.053914 0)
(0.633565 0.0582941 0)
(0.635537 0.06281 0)
(0.63799 0.067385 0)
(0.640917 0.0719242 0)
(0.644272 0.0763265 0)
(0.099975 -0.00519313 0)
(0.103043 -0.0100255 0)
(0.107577 -0.0141437 0)
(0.113455 -0.0178461 0)
(0.120618 -0.0212656 0)
(0.128947 -0.02451 0)
(0.138373 -0.0276852 0)
(0.148888 -0.0308823 0)
(0.160533 -0.0341669 0)
(0.173367 -0.0375695 0)
(0.187449 -0.0410788 0)
(0.202802 -0.044642 0)
(0.219396 -0.0481729 0)
(0.237133 -0.0515654 0)
(0.255856 -0.0547103 0)
(0.275361 -0.0575091 0)
(0.295418 -0.0598846 0)
(0.315788 -0.0617852 0)
(0.336244 -0.0631853 0)
(0.356578 -0.0640826 0)
(0.376605 -0.0644931 0)
(0.396174 -0.0644464 0)
(0.415157 -0.0639812 0)
(0.433457 -0.0631409 0)
(0.450998 -0.061971 0)
(0.467729 -0.0605163 0)
(0.483614 -0.0588198 0)
(0.498631 -0.0569215 0)
(0.512774 -0.0548577 0)
(0.526045 -0.0526613 0)
(0.538453 -0.0503609 0)
(0.550016 -0.047982 0)
(0.560754 -0.0455465 0)
(0.570694 -0.0430733 0)
(0.579862 -0.0405783 0)
(0.588288 -0.0380752 0)
(0.596003 -0.0355755 0)
(0.603039 -0.0330885 0)
(0.609427 -0.0306221 0)
(0.615201 -0.0281827 0)
(0.62039 -0.0257754 0)
(0.625028 -0.023404 0)
(0.629144 -0.0210716 0)
(0.632769 -0.0187803 0)
(0.635932 -0.0165313 0)
(0.638661 -0.0143253 0)
(0.640986 -0.0121621 0)
(0.642932 -0.0100408 0)
(0.644526 -0.00796009 0)
(0.645795 -0.00591779 0)
(0.646762 -0.00391105 0)
(0.647452 -0.0019363 0)
(0.647889 9.85127e-06 0)
(0.648099 0.0019321 0)
(0.6481 0.0038365 0)
(0.647915 0.00572986 0)
(0.647566 0.00761966 0)
(0.647072 0.0095141 0)
(0.646454 0.0114223 0)
(0.645731 0.0133542 0)
(0.644925 0.0153209 0)
(0.644056 0.0173342 0)
(0.643143 0.0194072 0)
(0.642208 0.0215537 0)
(0.641274 0.0237883 0)
(0.640364 0.0261264 0)
(0.639501 0.0285836 0)
(0.638712 0.0311755 0)
(0.638024 0.033917 0)
(0.637469 0.0368213 0)
(0.637076 0.0398993 0)
(0.636879 0.0431579 0)
(0.636913 0.0465986 0)
(0.637212 0.050216 0)
(0.637808 0.0539957 0)
(0.63873 0.057913 0)
(0.639998 0.0619319 0)
(0.641624 0.0660052 0)
(0.643603 0.0700756 0)
(0.645915 0.0740798 0)
(0.648511 0.0779572 0)
(0.0998454 -0.00580649 0)
(0.102905 -0.0113044 0)
(0.107348 -0.0160146 0)
(0.113103 -0.0202636 0)
(0.120151 -0.0242026 0)
(0.128391 -0.0279555 0)
(0.137771 -0.0316491 0)
(0.148315 -0.0353966 0)
(0.160099 -0.0392801 0)
(0.173219 -0.0433357 0)
(0.187758 -0.047544 0)
(0.203742 -0.0518304 0)
(0.221122 -0.0560773 0)
(0.239762 -0.060145 0)
(0.259457 -0.0638935 0)
(0.279954 -0.067202 0)
(0.300979 -0.0699799 0)
(0.322263 -0.0721712 0)
(0.343553 -0.0737528 0)
(0.36463 -0.0747295 0)
(0.385306 -0.0751274 0)
(0.405427 -0.0749877 0)
(0.424874 -0.0743603 0)
(0.443555 -0.0732998 0)
(0.461404 -0.0718617 0)
(0.478376 -0.0701001 0)
(0.494444 -0.0680658 0)
(0.509596 -0.0658057 0)
(0.523832 -0.0633619 0)
(0.53716 -0.0607721 0)
(0.549597 -0.0580693 0)
(0.561164 -0.0552823 0)
(0.571887 -0.0524357 0)
(0.581794 -0.0495508 0)
(0.590917 -0.0466455 0)
(0.599288 -0.0437348 0)
(0.606939 -0.0408314 0)
(0.613905 -0.0379457 0)
(0.620219 -0.0350862 0)
(0.625913 -0.0322597 0)
(0.63102 -0.0294717 0)
(0.635573 -0.0267265 0)
(0.639603 -0.024027 0)
(0.64314 -0.0213755 0)
(0.646214 -0.0187732 0)
(0.648854 -0.0162205 0)
(0.651088 -0.0137172 0)
(0.652943 -0.0112622 0)
(0.654446 -0.00885404 0)
(0.655622 -0.0064902 0)
(0.656497 -0.00416769 0)
(0.657093 -0.00188276 0)
(0.657439 0.0003684 0)
(0.657554 0.00259083 0)
(0.657461 0.00479121 0)
(0.657182 0.00697681 0)
(0.656738 0.00915531 0)
(0.65615 0.011335 0)
(0.655439 0.0135247 0)
(0.654626 0.0157342 0)
(0.653731 0.0179738 0)
(0.652776 0.0202543 0)
(0.651781 0.0225873 0)
(0.650768 0.0249846 0)
(0.649761 0.0274582 0)
(0.648782 0.0300202 0)
(0.647855 0.0326821 0)
(0.647006 0.0354544 0)
(0.64626 0.0383463 0)
(0.645644 0.0413646 0)
(0.645185 0.0445131 0)
(0.64491 0.0477916 0)
(0.644843 0.0511951 0)
(0.645008 0.0547126 0)
(0.645425 0.0583271 0)
(0.646108 0.0620144 0)
(0.647064 0.0657439 0)
(0.648291 0.0694793 0)
(0.649775 0.0731803 0)
(0.651491 0.0768056 0)
(0.6534 0.0803197 0)
(0.099705 -0.00644335 0)
(0.102777 -0.0126365 0)
(0.107149 -0.0179738 0)
(0.112795 -0.0228065 0)
(0.119747 -0.027307 0)
(0.127923 -0.0316192 0)
(0.137302 -0.0358971 0)
(0.147951 -0.0402817 0)
(0.159994 -0.0448744 0)
(0.173569 -0.0497143 0)
(0.188778 -0.0547647 0)
(0.205636 -0.0599155 0)
(0.22405 -0.0650043 0)
(0.243826 -0.0698466 0)
(0.264693 -0.074267 0)
(0.286337 -0.0781214 0)
(0.308441 -0.0813096 0)
(0.330703 -0.083776 0)
(0.352857 -0.0855057 0)
(0.374674 -0.086516 0)
(0.39597 -0.0868475 0)
(0.416598 -0.086556 0)
(0.436449 -0.0857056 0)
(0.455442 -0.0843639 0)
(0.473524 -0.0825977 0)
(0.49066 -0.0804708 0)
(0.506836 -0.0780426 0)
(0.522047 -0.075367 0)
(0.536302 -0.0724923 0)
(0.549618 -0.0694608 0)
(0.562016 -0.0663098 0)
(0.573524 -0.0630712 0)
(0.584172 -0.0597723 0)
(0.593992 -0.0564367 0)
(0.60302 -0.0530837 0)
(0.611288 -0.04973 0)
(0.618834 -0.046389 0)
(0.625691 -0.043072 0)
(0.631894 -0.0397881 0)
(0.637479 -0.0365445 0)
(0.642477 -0.0333468 0)
(0.646922 -0.0301995 0)
(0.650845 -0.0271057 0)
(0.654277 -0.0240674 0)
(0.657248 -0.0210857 0)
(0.659787 -0.0181611 0)
(0.661921 -0.0152931 0)
(0.663679 -0.0124804 0)
(0.665085 -0.00972125 0)
(0.666167 -0.00701312 0)
(0.66695 -0.00435283 0)
(0.667455 -0.00173663 0)
(0.667712 0.000840004 0)
(0.667739 0.0033826 0)
(0.667559 0.00589802 0)
(0.667195 0.00839365 0)
(0.666667 0.0108772 0)
(0.665997 0.0133566 0)
(0.665206 0.0158405 0)
(0.664315 0.0183379 0)
(0.663345 0.0208579 0)
(0.662316 0.0234101 0)
(0.661251 0.0260042 0)
(0.660171 0.0286499 0)
(0.659099 0.0313564 0)
(0.658056 0.0341324 0)
(0.657066 0.0369857 0)
(0.656152 0.0399227 0)
(0.655336 0.0429479 0)
(0.654641 0.0460633 0)
(0.654089 0.0492681 0)
(0.653699 0.0525582 0)
(0.65349 0.0559254 0)
(0.653476 0.0593575 0)
(0.653668 0.0628379 0)
(0.654071 0.0663461 0)
(0.654684 0.0698583 0)
(0.655499 0.0733481 0)
(0.6565 0.076788 0)
(0.657664 0.0801519 0)
(0.658959 0.0834196 0)
(0.099551 -0.00710823 0)
(0.102656 -0.0140292 0)
(0.10698 -0.0200311 0)
(0.112537 -0.0254888 0)
(0.119416 -0.0305995 0)
(0.127569 -0.0355345 0)
(0.137017 -0.0404834 0)
(0.147883 -0.0456222 0)
(0.160355 -0.0510731 0)
(0.174611 -0.0568699 0)
(0.190757 -0.0629416 0)
(0.208769 -0.0691227 0)
(0.228483 -0.075188 0)
(0.249617 -0.0808988 0)
(0.271821 -0.0860416 0)
(0.29472 -0.0904537 0)
(0.317954 -0.0940322 0)
(0.341199 -0.0967304 0)
(0.364181 -0.098549 0)
(0.386677 -0.0995239 0)
(0.408512 -0.099715 0)
(0.429553 -0.0991962 0)
(0.449706 -0.098048 0)
(0.468907 -0.0963524 0)
(0.487115 -0.0941885 0)
(0.504312 -0.0916305 0)
(0.520493 -0.0887464 0)
(0.535667 -0.0855971 0)
(0.54985 -0.0822368 0)
(0.563066 -0.0787127 0)
(0.575345 -0.0750655 0)
(0.586718 -0.0713305 0)
(0.597222 -0.0675373 0)
(0.606892 -0.0637112 0)
(0.615765 -0.0598733 0)
(0.623879 -0.0560411 0)
(0.631271 -0.0522289 0)
(0.637976 -0.0484487 0)
(0.644032 -0.0447097 0)
(0.649472 -0.0410196 0)
(0.654332 -0.0373841 0)
(0.658643 -0.0338075 0)
(0.662438 -0.0302929 0)
(0.665748 -0.0268422 0)
(0.668601 -0.0234565 0)
(0.671028 -0.0201358 0)
(0.673055 -0.0168795 0)
(0.67471 -0.0136862 0)
(0.67602 -0.0105539 0)
(0.677008 -0.00747998 0)
(0.677701 -0.00446114 0)
(0.678121 -0.00149361 0)
(0.678296 0.00142769 0)
(0.678244 0.00430873 0)
(0.677989 0.00715644 0)
(0.677552 0.00997812 0)
(0.676954 0.0127812 0)
(0.676218 0.0155732 0)
(0.675363 0.018362 0)
(0.67441 0.0211557 0)
(0.67338 0.0239621 0)
(0.672295 0.0267895 0)
(0.671175 0.0296454 0)
(0.670041 0.0325374 0)
(0.668914 0.035472 0)
(0.667816 0.0384552 0)
(0.666766 0.0414916 0)
(0.665785 0.0445843 0)
(0.664893 0.0477345 0)
(0.664108 0.0509413 0)
(0.663446 0.0542014 0)
(0.662923 0.0575089 0)
(0.662549 0.0608548 0)
(0.662334 0.0642279 0)
(0.662282 0.067614 0)
(0.662393 0.0709971 0)
(0.662663 0.0743596 0)
(0.663082 0.0776831 0)
(0.663634 0.0809496 0)
(0.664301 0.0841427 0)
(0.665057 0.087252 0)
(0.0993805 -0.00780619 0)
(0.102541 -0.0154914 0)
(0.106843 -0.0221994 0)
(0.112334 -0.0283292 0)
(0.119176 -0.0341096 0)
(0.127366 -0.0397502 0)
(0.136983 -0.0454878 0)
(0.148229 -0.0515417 0)
(0.16136 -0.0580505 0)
(0.176586 -0.065025 0)
(0.193984 -0.072332 0)
(0.21345 -0.0797233 0)
(0.234711 -0.0868933 0)
(0.257382 -0.0935429 0)
(0.281026 -0.0994257 0)
(0.305213 -0.10437 0)
(0.329553 -0.108283 0)
(0.353713 -0.111137 0)
(0.377424 -0.112956 0)
(0.400479 -0.113803 0)
(0.42272 -0.11376 0)
(0.444035 -0.112922 0)
(0.464351 -0.111388 0)
(0.483621 -0.109256 0)
(0.501823 -0.106617 0)
(0.518953 -0.103556 0)
(0.535019 -0.10015 0)
(0.550041 -0.0964655 0)
(0.564045 -0.092563 0)
(0.577063 -0.0884937 0)
(0.589131 -0.0843021 0)
(0.600286 -0.0800257 0)
(0.610568 -0.0756965 0)
(0.620017 -0.0713411 0)
(0.628673 -0.0669819 0)
(0.636574 -0.062637 0)
(0.64376 -0.0583216 0)
(0.650268 -0.0540476 0)
(0.656134 -0.0498248 0)
(0.661396 -0.0456606 0)
(0.666085 -0.0415608 0)
(0.670236 -0.0375296 0)
(0.673881 -0.0335698 0)
(0.677049 -0.0296833 0)
(0.679771 -0.0258707 0)
(0.682075 -0.0221319 0)
(0.683988 -0.018466 0)
(0.685538 -0.0148714 0)
(0.686748 -0.0113459 0)
(0.687646 -0.00788674 0)
(0.688254 -0.00449072 0)
(0.688596 -0.00115402 0)
(0.688699 0.00212897 0)
(0.68858 0.00536449 0)
(0.688262 0.00855946 0)
(0.687767 0.0117208 0)
(0.687117 0.0148556 0)
(0.68633 0.0179707 0)
(0.685429 0.0210731 0)
(0.684433 0.0241697 0)
(0.683363 0.0272672 0)
(0.682239 0.0303722 0)
(0.681081 0.0334905 0)
(0.679908 0.0366274 0)
(0.67874 0.0397877 0)
(0.677596 0.0429746 0)
(0.676493 0.0461907 0)
(0.67545 0.0494366 0)
(0.674482 0.0527117 0)
(0.673604 0.0560136 0)
(0.672829 0.0593378 0)
(0.672165 0.0626781 0)
(0.671622 0.0660267 0)
(0.671204 0.0693738 0)
(0.670912 0.0727086 0)
(0.670743 0.076019 0)
(0.670692 0.0792929 0)
(0.670749 0.0825178 0)
(0.670901 0.0856825 0)
(0.671133 0.088777 0)
(0.671426 0.0917969 0)
(0.09919 -0.00854302 0)
(0.102432 -0.0170343 0)
(0.106741 -0.0244952 0)
(0.112197 -0.0313535 0)
(0.11905 -0.03788 0)
(0.127363 -0.0443383 0)
(0.137296 -0.0510286 0)
(0.149148 -0.0582177 0)
(0.16324 -0.0660464 0)
(0.179781 -0.0744682 0)
(0.198769 -0.083248 0)
(0.21997 -0.0920236 0)
(0.242975 -0.100397 0)
(0.267283 -0.108012 0)
(0.292382 -0.114604 0)
(0.3178 -0.120009 0)
(0.343138 -0.124158 0)
(0.368071 -0.127056 0)
(0.392349 -0.12876 0)
(0.415789 -0.129362 0)
(0.438259 -0.128973 0)
(0.459674 -0.127711 0)
(0.479982 -0.125694 0)
(0.499158 -0.123034 0)
(0.517199 -0.119838 0)
(0.534116 -0.116198 0)
(0.549931 -0.1122 0)
(0.564675 -0.107918 0)
(0.578383 -0.103416 0)
(0.591095 -0.0987497 0)
(0.602852 -0.093966 0)
(0.613699 -0.0891048 0)
(0.623677 -0.0841996 0)
(0.632829 -0.0792781 0)
(0.641199 -0.0743635 0)
(0.648827 -0.0694743 0)
(0.655752 -0.064626 0)
(0.662014 -0.0598307 0)
(0.667649 -0.0550978 0)
(0.672693 -0.0504349 0)
(0.677181 -0.0458474 0)
(0.681144 -0.0413393 0)
(0.684616 -0.036913 0)
(0.687625 -0.0325701 0)
(0.690201 -0.0283108 0)
(0.692372 -0.0241349 0)
(0.694164 -0.020041 0)
(0.695603 -0.0160275 0)
(0.696716 -0.0120918 0)
(0.697525 -0.00823128 0)
(0.698054 -0.0044425 0)
(0.698327 -0.000721845 0)
(0.698367 0.00293678 0)
(0.698193 0.00653984 0)
(0.697828 0.010094 0)
(0.697292 0.0136059 0)
(0.696605 0.0170816 0)
(0.695788 0.0205276 0)
(0.69486 0.0239499 0)
(0.69384 0.0273542 0)
(0.692749 0.030746 0)
(0.691604 0.0341303 0)
(0.690425 0.0375115 0)
(0.68923 0.0408934 0)
(0.688035 0.0442787 0)
(0.686858 0.0476694 0)
(0.685713 0.0510661 0)
(0.684617 0.0544684 0)
(0.68358 0.0578747 0)
(0.682616 0.0612819 0)
(0.681732 0.0646858 0)
(0.680937 0.0680807 0)
(0.680235 0.0714602 0)
(0.679628 0.0748169 0)
(0.679115 0.0781427 0)
(0.678693 0.0814294 0)
(0.678357 0.0846686 0)
(0.678099 0.0878528 0)
(0.677907 0.0909748 0)
(0.677771 0.0940292 0)
(0.677676 0.0970153 0)
(0.0989757 -0.00932558 0)
(0.102327 -0.0186718 0)
(0.106678 -0.0269409 0)
(0.112141 -0.0345983 0)
(0.119074 -0.0419733 0)
(0.127635 -0.0494066 0)
(0.138093 -0.0572789 0)
(0.150851 -0.0659 0)
(0.166273 -0.075378 0)
(0.184508 -0.0855545 0)
(0.205408 -0.0960428 0)
(0.228565 -0.106341 0)
(0.253416 -0.11596 0)
(0.279357 -0.124505 0)
(0.305821 -0.131715 0)
(0.332322 -0.137457 0)
(0.358471 -0.141702 0)
(0.383968 -0.144499 0)