/*--------------------------------*- C++ -*----------------------------------*\
  =========                 |
  \\      /  F ield         | OpenFOAM: The Open Source CFD Toolbox
   \\    /   O peration     | Website:  https://openfoam.org
    \\  /    A nd           | Version:  7
     \\/     M anipulation  |
\*---------------------------------------------------------------------------*/
FoamFile
{
    version     2.0;
    format      ascii;
    class       volScalarField;
    location    "2.6";
    object      p;
}
// * * * * * * * * * * * * * * * * * * * * * * * * * * * * * * * * * * * * * //

dimensions      [0 2 -2 0 0 0 0];

internalField   nonuniform List<scalar> 
2790
(
147.908
147.816
148.083
148.654
149.435
150.392
151.525
152.832
154.309
155.95
157.75
159.701
161.795
164.02
166.36
168.796
171.3
173.839
176.371
178.845
181.203
183.38
185.311
186.931
188.19
189.064
189.5
189.556
189.607
189.819
147.706
147.723
148.016
148.584
149.361
150.315
151.443
152.744
154.214
155.846
157.637
159.578
161.661
163.875
166.204
168.63
171.126
173.659
176.189
178.667
181.035
183.23
185.184
186.833
188.117
188.991
189.388
189.442
189.575
189.86
147.507
147.595
147.906
148.464
149.227
150.169
151.282
152.565
154.013
155.621
157.384
159.293
161.341
163.517
165.806
168.188
170.64
173.13
175.622
178.069
180.419
182.612
184.584
186.273
187.624
188.599
189.192
189.548
189.863
190.162
147.282
147.4
147.724
148.274
149.023
149.948
151.041
152.3
153.719
155.294
157.018
158.884
160.882
163.003
165.232
167.55
169.934
172.357
174.784
177.175
179.481
181.653
183.635
185.374
186.828
187.98
188.848
189.519
190.071
190.59
147.021
147.154
147.486
148.028
148.76
149.664
150.732
151.96
153.342
154.873
156.548
158.357
160.293
162.344
164.496
166.732
169.03
171.365
173.706
176.019
178.264
180.399
182.381
184.172
185.742
187.084
188.214
189.177
189.987
190.734
146.72
146.858
147.193
147.725
148.437
149.316
150.352
151.541
152.879
154.359
155.974
157.717
159.578
161.546
163.608
165.746
167.941
170.17
172.407
174.622
176.785
178.862
180.824
182.644
184.307
185.808
187.155
188.36
189.38
190.298
146.377
146.517
146.848
147.367
148.057
148.905
149.904
151.05
152.336
153.756
155.304
156.97
158.745
160.618
162.575
164.601
166.677
168.783
170.896
172.992
175.047
177.038
178.945
180.755
182.461
184.061
185.555
186.934
188.098
189.145
145.993
146.13
146.454
146.957
147.621
148.435
149.392
150.488
151.716
153.07
154.54
156.12
157.799
159.565
161.406
163.305
165.246
167.211
169.178
171.13
173.047
174.915
176.722
178.463
180.142
181.76
183.315
184.787
186.037
187.187
145.566
145.7
146.014
146.497
147.131
147.908
148.819
149.86
151.024
152.303
153.69
155.175
156.747
158.396
160.107
161.865
163.655
165.459
167.258
169.037
170.78
172.478
174.126
175.726
177.288
178.822
180.33
181.8
183.072
184.31
145.1
145.228
145.528
145.989
146.592
147.327
148.188
149.169
150.264
151.463
152.758
154.14
155.597
157.117
158.687
160.291
161.913
163.536
165.142
166.716
168.244
169.718
171.136
172.504
173.836
175.155
176.475
177.812
179.012
180.316
144.594
144.716
145.001
145.437
146.005
146.696
147.503
148.421
149.44
150.553
151.751
153.022
154.356
155.74
157.157
158.594
160.032
161.453
162.84
164.175
165.443
166.633
167.74
168.768
169.731
170.66
171.589
172.588
173.549
174.868
144.052
144.166
144.435
144.843
145.375
146.018
146.769
147.618
148.559
149.581
150.676
151.831
153.035
154.272
155.528
156.785
158.024
159.225
160.368
161.43
162.392
163.234
163.943
164.508
164.934
165.244
165.486
165.793
166.174
167.347
143.475
143.582
143.831
144.211
144.703
145.298
145.988
146.767
147.625
148.553
149.54
150.574
151.641
152.726
153.812
154.879
155.906
156.871
157.746
158.506
159.119
159.554
159.777
159.752
159.448
158.85
157.974
156.981
156.031
156.535
142.865
142.964
143.194
143.544
143.995
144.538
145.166
145.872
146.645
147.475
148.351
149.259
150.186
151.113
152.022
152.892
153.698
154.413
155.004
155.437
155.668
155.646
155.308
154.576
153.353
151.524
148.96
145.656
141.704
139.664
142.226
142.316
142.526
142.843
143.253
143.743
144.307
144.937
145.623
146.354
147.116
147.897
148.679
149.445
150.174
150.841
151.42
151.877
152.174
152.265
152.093
151.584
150.64
149.126
146.848
143.517
138.673
131.653
121.182
108.942
2.77086
2.73597
2.61991
2.45595
2.27647
2.09666
1.92185
1.75406
1.59426
1.44283
1.29983
1.16517
1.03876
0.921079
0.814241
0.722504
0.6502
0.597838
0.561157
0.537063
0.524655
0.522566
0.523591
0.518532
0.499755
0.462325
0.403784
0.322726
0.217702
0.0910454
2.68224
2.64185
2.53347
2.38257
2.21602
2.04715
1.88134
1.72089
1.56695
1.42012
1.28073
1.14887
1.02439
0.907519
0.800482
0.708522
0.637344
0.588104
0.555049
0.5334
0.52196
0.522118
0.52474
0.521497
0.505156
0.468111
0.409288
0.3278
0.221133
0.0882198
2.59352
2.54596
2.44218
2.30241
2.14852
1.99097
1.83473
1.68226
1.53478
1.3931
1.25785
1.1294
1.00749
0.891807
0.784634
0.69283
0.623805
0.57641
0.540883
0.518955
0.513964
0.522043
0.532623
0.533541
0.516518
0.478635
0.419046
0.336779
0.22746
0.088795
2.51823
2.46367
2.36245
2.23079
2.08728
1.9394
1.79163
1.64633
1.50474
1.36778
1.23643
1.11152
0.992939
0.878981
0.770015
0.67388
0.607636
0.573056
0.547098
0.521517
0.511441
0.518936
0.530488
0.533427
0.518908
0.481489
0.419999
0.336615
0.225693
0.0857804
2.48194
2.42038
2.32157
2.19476
2.05756
1.91547
1.77281
1.63188
1.49389
1.35975
1.23054
1.1075
0.991769
0.882863
0.781031
0.692135
0.618387
0.568319
0.542835
0.525499
0.518947
0.525022
0.533952
0.534697
0.518469
0.479683
0.417555
0.330622
0.218556
0.07894
2.5039
2.4324
2.33418
2.20679
2.06931
1.92688
1.78408
1.64333
1.50594
1.37273
1.24446
1.12201
1.00642
0.898341
0.799195
0.712219
0.642195
0.592278
0.558844
0.537877
0.528697
0.529502
0.532429
0.528003
0.508058
0.467
0.402899
0.315867
0.204811
0.0707414
2.58883
2.50753
2.40024
2.26473
2.11861
1.96881
1.81996
1.67454
1.53387
1.39872
1.2697
1.14732
1.0321
0.924042
0.824331
0.737203
0.667132
0.614806
0.577364
0.552092
0.537657
0.531226
0.526327
0.515044
0.490094
0.446095
0.380627
0.293903
0.185788
0.0622191
2.72987
2.62919
2.50187
2.34863
2.18632
2.02296
1.86365
1.71079
1.56518
1.42686
1.2957
1.17197
1.05609
0.948817
0.851217
0.765303
0.694053
0.63819
0.596004
0.565335
0.544312
0.52978
0.516323
0.49742
0.466814
0.419549
0.352946
0.266817
0.163249
0.0534941
2.89075
2.76043
2.60319
2.42646
2.24639
2.06982
1.89994
1.7392
1.58838
1.44731
1.31555
1.19243
1.07766
0.971738
0.875674
0.790765
0.718549
0.659438
0.612432
0.575893
0.547796
0.525005
0.50295
0.476325
0.439947
0.389394
0.32174
0.236547
0.138875
0.0445713
3.0201
2.85913
2.67829
2.47907
2.28088
2.09272
1.91697
1.75324
1.601
1.45955
1.32816
1.20617
1.09321
0.989451
0.89538
0.811586
0.738678
0.676775
0.625276
0.582964
0.547912
0.517178
0.486888
0.452824
0.410885
0.357198
0.288556
0.204574
0.113717
0.035537
3.10843
2.9164
2.70978
2.4939
2.28452
2.08891
1.90954
1.74551
1.59518
1.45684
1.32885
1.21014
1.10045
0.999989
0.908829
0.826786
0.753714
0.689538
0.634014
0.586357
0.544863
0.5068
0.468849
0.427773
0.38059
0.324004
0.254458
0.171865
0.0882806
0.0264622
3.11872
2.89385
2.66285
2.43586
2.22689
2.03771
1.86647
1.7105
1.5681
1.4375
1.31638
1.2033
1.09847
1.00263
0.915599
0.836287
0.763743
0.697796
0.63871
0.586274
0.539069
0.494472
0.449512
0.401841
0.349683
0.290439
0.220067
0.139016
0.0628194
0.0173909
2.95782
2.69934
2.48026
2.27899
2.09731
1.93426
1.78571
1.6475
1.51968
1.40204
1.29159
1.1863
1.08756
0.997559
0.916122
0.840797
0.769507
0.702124
0.639776
0.583122
0.531055
0.480819
0.42949
0.375502
0.31844
0.256644
0.185864
0.106465
0.0374745
0.00834806
2.52769
2.24865
2.11885
2.01148
1.89438
1.78162
1.67285
1.56139
1.45311
1.35336
1.25747
1.16139
1.06888
0.985551
0.911483
0.841751
0.772366
0.703499
0.637849
0.577425
0.521438
0.466559
0.409424
0.349126
0.286907
0.222539
0.151786
0.0744131
0.012386
-0.000663315
1.66739
1.38286
1.52261
1.65024
1.63513
1.59419
1.54352
1.46314
1.37323
1.29552
1.21897
1.13231
1.04403
0.967346
0.903053
0.841151
0.774102
0.703009
0.633435
0.569503
0.510675
0.452315
0.389839
0.322858
0.254791
0.18762
0.117514
0.0430771
-0.0121503
-0.00966868
141.546
141.627
141.816
142.1
142.466
142.901
143.4
143.952
144.547
145.175
145.82
146.469
147.103
147.704
148.247
148.707
149.052
149.245
149.24
148.981
148.396
147.389
145.826
143.515
140.154
135.25
127.88
116.126
93.948
34.0537
140.819
140.89
141.056
141.306
141.626
142.004
142.433
142.905
143.407
143.928
144.453
144.966
145.448
145.879
146.233
146.481
146.588
146.513
146.204
145.596
144.605
143.117
140.974
137.944
133.671
127.569
118.607
105.05
85.5417
57.1406
140.049
140.11
140.253
140.467
140.739
141.059
141.417
141.806
142.213
142.625
143.027
143.402
143.731
143.991
144.155
144.191
144.063
143.725
143.121
142.18
140.812
138.896
136.267
132.696
127.857
121.298
112.43
100.619
86.4287
69.9014
139.238
139.289
139.408
139.585
139.809
140.068
140.355
140.659
140.97
141.272
141.551
141.788
141.964
142.054
142.03
141.86
141.504
140.915
140.035
138.791
137.093
134.824
131.83
127.918
122.84
116.305
108.019
97.6545
85.1532
70.0824
138.388
138.429
138.523
138.663
138.837
139.036
139.25
139.47
139.683
139.876
140.032
140.133
140.158
140.082
139.877
139.508
138.937
138.116
136.987
135.479
133.508
130.967
127.728
123.634
118.507
112.147
104.356
94.8945
83.5958
70.6685
137.501
137.531
137.601
137.703
137.827
137.965
138.107
138.243
138.36
138.444
138.479
138.447
138.325
138.09
137.712
137.158
136.389
135.358
134.012
132.284
130.099
127.365
123.978
119.819
114.758
108.663
101.41
92.9028
83.1326
72.5131
136.579
136.599
136.644
136.709
136.784
136.861
136.931
136.983
137.006
136.984
136.902
136.741
136.479
136.093
135.554
134.83
133.882
132.669
131.139
129.235
126.892
124.035
120.583
116.448
111.545
105.794
99.1427
91.5798
83.1499
74.1882
135.627
135.636
135.657
135.684
135.71
135.727
135.727
135.698
135.628
135.504
135.309
135.026
134.633
134.106
133.419
132.541
131.437
130.069
128.391
126.354
123.905
120.984
117.532
113.489
108.803
103.433
97.3666
90.624
83.2552
75.5316
134.646
134.645
134.642
134.633
134.611
134.57
134.501
134.393
134.235
134.013
133.711
133.313
132.797
132.142
131.322
130.309
129.072
127.576
125.783
123.653
121.142
118.207
114.805
110.898
106.458
101.471
95.9413
89.9045
83.4139
76.6961
133.643
133.632
133.605
133.56
133.492
133.394
133.259
133.076
132.833
132.519
132.117
131.612
130.984
130.213
129.276
128.147
126.8
125.203
123.326
121.137
118.602
115.69
112.373
108.63
104.448
99.827
94.7861
89.364
83.6137
77.7194
132.62
132.6
132.55
132.47
132.358
132.206
132.008
131.753
131.432
131.031
130.537
129.934
129.206
128.333
127.294
126.068
124.631
122.958
121.025
118.806
116.277
113.417
110.209
106.643
102.717
98.4419
93.8403
88.9515
83.8233
78.6037
131.583
131.554
131.483
131.37
131.215
131.012
130.754
130.433
130.038
129.557
128.979
128.289
127.471
126.509
125.385
124.08
122.574
120.847
118.881
116.656
114.156
111.368
108.283
104.899
101.222
97.2653
93.0549
88.6267
84.0226
79.3612
130.538
130.5
130.408
130.265
130.069
129.819
129.505
129.122
128.659
128.106
127.452
126.684
125.789
124.751
123.556
122.189
120.632
118.872
116.892
114.681
112.227
109.524
106.57
103.366
99.9229
96.257
92.3929
88.3627
84.2022
80.0073
129.49
129.443
129.333
129.16
128.927
128.632
128.268
127.828
127.303
126.685
125.964
125.128
124.166
123.066
121.815
120.4
118.809
117.03
115.054
112.871
110.476
107.866
105.043
102.014
98.7887
95.3855
91.8268
88.1408
84.3577
80.5552
128.445
128.391
128.262
128.063
127.796
127.459
127.049
126.557
125.977
125.302
124.522
123.628
122.611
121.46
120.165
118.716
117.104
115.321
113.361
111.217
108.888
106.375
103.682
100.818
97.7932
94.6258
91.336
87.948
84.4873
81.017
127.41
127.349
127.204
126.979
126.681
126.308
125.855
125.317
124.689
123.963
123.133
122.19
121.127
119.936
118.609
117.138
115.518
113.741
111.806
109.709
107.451
105.035
102.467
99.7565
96.9151
93.9585
90.9051
87.7755
84.5911
81.4036
126.391
126.323
126.163
125.917
125.59
125.183
124.693
124.115
123.444
122.675
121.803
120.82
119.721
118.5
117.15
115.667
114.047
112.285
110.382
108.337
106.151
103.831
101.381
98.813
96.1373
93.3685
90.5225
87.6172
84.6705
81.7247
125.396
125.322
125.149
124.882
124.53
124.094
123.571
122.958
122.25
121.445
120.537
119.522
118.395
117.152
115.788
114.302
112.689
110.949
109.083
107.091
104.978
102.749
100.41
97.9725
95.446
92.8438
90.1798
87.4693
84.7274
81.989
124.43
124.351
124.166
123.882
123.508
123.046
122.495
121.851
121.113
120.277
119.341
118.301
117.153
115.895
114.525
113.041
111.442
109.728
107.901
105.964
103.921
101.778
99.5424
97.2231
94.8303
92.3754
89.8708
87.3295
84.7644
82.2043
123.503
123.42
123.224
122.924
122.531
122.047
121.471
120.802
120.038
119.178
118.219
117.16
115.998
114.732
113.361
111.884
110.303
108.618
106.831
104.948
102.972
100.909
98.7675
96.5551
94.2814
91.9565
89.5913
87.1969
84.7843
82.3776
122.621
122.534
122.329
122.016
121.606
121.102
120.506
119.816
119.032
118.152
117.176
116.103
114.932
113.662
112.294
110.829
109.268
107.613
105.867
104.035
102.122
100.134
98.0775
95.9609
93.7927
91.5819
89.3382
87.0711
84.7901
82.5153
121.792
121.702
121.489
121.164
120.74
120.221
119.607
118.9
118.099
117.204
116.215
115.133
113.957
112.688
111.327
109.876
108.336
106.711
105.005
103.222
101.367
99.4459
97.4661
95.4346
93.3592
91.2482
89.1099
86.9527
84.785
82.6233
121.025
120.931
120.712
120.377
119.941
119.408
118.781
118.06
117.245
116.339
115.341
114.253
113.076
111.81
110.458
109.022
107.505
105.91
104.24
102.502
100.7
98.8399
96.9281
94.9715
92.9772
90.9527
88.9053
86.8425
84.7716
82.7066
120.327
120.231
120.005
119.662
119.215
118.672
118.033
117.301
116.477
115.562
114.559
113.468
112.291
111.031
109.689
108.269
106.773
105.206
103.571
101.874
100.119
98.3127
96.4606
94.5691
92.6449
90.6947
88.725
86.7427
84.7541
82.771
119.707
119.608
119.377
119.026
118.571
118.018
117.371
116.63
115.799
114.878
113.871
112.779
111.605
110.352
109.02
107.616
106.14
104.598
102.995
101.334
99.6204
97.8606
96.0598
94.2241
92.3595
90.4721
88.5681
86.6533
84.7335
82.8187
119.175
119.073
118.836
118.478
118.016
117.456
116.801
116.055
115.218
114.294
113.285
112.194
111.023
109.776
108.456
107.065
105.608
104.089
102.512
100.883
99.2051
97.4848
95.7274
93.9385
92.1236
90.2885
88.4387
86.5798
84.7171
82.8589
118.74
118.634
118.39
118.024
117.555
116.989
116.329
115.577
114.736
113.81
112.8
111.711
110.545
109.304
107.993
106.615
105.174
103.674
102.12
100.517
98.8684
97.1804
95.4582
93.7069
91.9319
90.1386
88.332
86.5173
84.6994
82.8851
118.413
118.302
118.049
117.676
117.202
116.632
115.967
115.212
114.369
113.441
112.432
111.344
110.181
108.946
107.643
106.276
104.848
103.364
101.828
100.245
98.6197
96.9572
95.2624
93.5405
91.7966
90.0356
88.2626
86.4824
84.6996
82.9204
118.211
118.076
117.806
117.427
116.951
116.378
115.711
114.954
114.11
113.182
112.173
111.087
109.928
108.698
107.401
106.041
104.623
103.149
101.626
100.057
98.4475
96.8021
95.1257
93.4233
91.6998
89.9601
88.2089
86.4508
84.6902
82.9321
118.193
117.994
117.695
117.31
116.831
116.254
115.585
114.826
113.981
113.053
112.045
110.961
109.804
108.578
107.285
105.931
104.519
103.054
101.539
99.9794
98.3801
96.7457
95.0811
93.3911
91.6805
89.9539
88.2162
86.4717
84.7247
82.9796
-50.1551
-30.0131
-10.4888
36.9096
29.7179
18.1892
52.5652
40.6244
29.6032
53.8985
43.5439
35.5782
58.1823
49.9473
43.2435
62.5323
55.6639
49.8088
65.7643
59.911
54.8856
68.321
63.3155
59.0221
70.4747
66.1558
62.4573
72.2913
68.5215
65.301
73.8173
70.4927
67.6595
75.1017
72.1425
69.6258
76.1847
73.5283
71.2726
77.0983
74.6951
72.6565
77.8685
75.679
73.823
78.5171
76.5093
74.8077
79.0622
77.2096
75.6397
79.5187
77.7996
76.3422
79.8994
78.2954
76.9345
80.2154
78.7107
77.4328
80.4761
79.057
77.8504
80.6901
79.3447
78.1992
80.8639
79.5818
78.4884
81.0056
79.7773
78.7281
81.1177
79.9347
78.9225
81.212
80.0662
79.0841
81.2797
80.1638
79.2063
81.3496
80.2564
79.3161
81.3816
80.3047
79.3784
81.45
80.3872
79.4674
-1.2081
-1.02238
0.360084
1.32887
1.39643
1.39134
1.41123
1.36292
1.28118
1.23281
1.18464
1.10502
1.01388
0.942168
0.891968
0.841865
0.777302
0.701991
0.626894
0.559422
0.49913
0.438809
0.371323
0.296621
0.221241
0.150591
0.0820144
0.0121663
-0.0359402
-0.0187284
4.57828
1.37939
2.20262
1.92411
0.990947
0.91194
1.27774
1.34138
1.20636
1.17242
1.16123
1.08235
0.973804
0.906015
0.880274
0.849602
0.786198
0.701626
0.617611
0.546327
0.486809
0.426989
0.35475
0.270155
0.184715
0.109166
0.0434171
-0.0186923
-0.0585837
-0.0278073
15.4441
6.97203
4.01713
2.01245
1.4166
1.78376
1.98743
1.39448
0.879045
0.935059
1.15015
1.1125
0.948133
0.868247
0.871624
0.869436
0.802512
0.699908
0.603136
0.529043
0.4744
0.419127
0.342349
0.244045
0.144391
0.061838
0.000709229
-0.0484727
-0.0777035
-0.0365464
24.9203
15.1014
9.29358
5.59666
3.60914
2.64597
1.88198
1.31355
1.1271
1.46002
1.60879
1.1791
0.777757
0.678957
0.793513
0.913752
0.848821
0.709763
0.590944
0.511192
0.463654
0.418319
0.337539
0.219378
0.099906
0.00736502
-0.047635
-0.0772177
-0.0910614
-0.0447913
33.9676
24.2583
16.9635
11.6499
7.94458
5.41877
3.67038
2.56505
1.94521
1.69685
1.42581
1.1348
0.887601
0.859642
1.09264
1.1549
0.895155
0.661206
0.522391
0.455115
0.439533
0.430413
0.351519
0.201367
0.052539
-0.0561021
-0.106273
-0.109914
-0.0971221
-0.0528321
41.8514
32.9572
25.0845
18.6532
13.7125
10.03
7.32178
5.36052
3.96012
2.98924
2.27868
1.75488
1.35211
1.1401
1.11799
1.05586
0.9266
0.756122
0.618938
0.543234
0.525354
0.509773
0.378351
0.164845
-0.0214782
-0.147275
-0.189477
-0.155954
-0.086745
-0.0613863
48.2772
40.4926
32.7327
25.8493
20.2117
15.7158
12.155
9.35772
7.19345
5.55235
4.30604
3.3373
2.58285
2.05226
1.71831
1.46677
1.22873
0.977662
0.767974
0.631102
0.556549
0.494586
0.364739
0.162062
-0.0411151
-0.181955
-0.221907
-0.170324
-0.03438
-0.0622936
53.5118
46.7932
39.5465
32.7199
26.8268
21.8581
17.6912
14.2337
11.4099
9.13575
7.30928
5.8349
4.65458
3.74248
3.05738
2.51731
2.04797
1.62629
1.27797
1.01778
0.828426
0.66485
0.470062
0.232801
0.00335855
-0.160604
-0.226106
-0.199919
-0.0916318
-0.189579
57.783
51.9723
45.3931
38.9195
33.0931
27.9645
23.4717
19.5782
16.2531
13.4476
11.096
9.13269
7.50569
6.17588
5.09848
4.21081
3.45473
2.80363
2.25745
1.81455
1.45497
1.14125
0.832796
0.519606
0.234239
0.0193816
-0.101448
-0.13853
-0.138476
-0.428693
61.268
56.2021
50.3002
44.3126
38.7502
33.69
29.1039
24.988
21.3442
18.1564
15.3911
13.0074
10.9659
9.23053
7.76215
6.51412
5.44185
4.51586
3.722
3.04874
2.47584
1.97342
1.51201
1.08164
0.699328
0.391157
0.168751
0.0111048
-0.154697
-0.623125
64.1295
59.6689
54.3865
48.9133
43.7075
38.8519
34.3339
30.1656
26.3682
22.9483
19.8953
17.1888
14.8043
12.7159
10.8942
9.30529
7.91522
6.69656
5.63044
4.70103
3.88887
3.16983
2.52119
1.93213
1.40816
0.960902
0.590479
0.268019
-0.0799453
-0.686697
66.4988
62.5321
57.7896
52.8039
47.979
43.393
39.039
34.9343
31.1088
27.5818
24.3575
21.4307
18.7901
16.4206
14.3031
12.4146
10.7304
9.22831
7.88995
6.69895
5.63753
4.68595
3.82579
3.04563
2.34329
1.7198
1.16707
0.654739
0.122414
-0.604529
68.4743
64.9146
60.6337
56.0867
51.6296
47.3323
43.1887
39.216
35.4459
31.9034
28.6014
25.5443
22.7306
20.1545
17.8055
15.6699
13.7312
11.9731
10.3803
8.93817
7.63152
6.44421
5.36098
4.37035
3.46562
2.64121
1.88481
1.16898
0.4493
-0.398999
70.1305
66.9097
63.0212
58.8598
54.7407
50.7257
46.8073
43
39.3343
35.8366
32.5239
29.4064
26.4888
23.772
21.2526
18.9238
16.7759
14.7982
12.9792
11.3073
9.77024
8.35504
7.04903
5.84127
4.72293
3.68511
2.71431
1.78784
0.875106
-0.107813
71.5246
68.5883
65.0341
61.2081
57.3922
53.6406
49.944
46.3136
42.7769
39.3596
36.0802
32.9517
29.9826
27.1782
24.54
22.0664
19.7531
17.5937
15.5809
13.7061
11.9599
10.3323
8.81279
7.39147
6.05896
4.80528
3.61748
2.47751
1.36487
0.227778
72.7013
70.0054
66.7367
63.2018
59.6544
56.1426
52.6553
49.2003
45.8018
42.4836
39.2641
36.1572
33.1737
30.3213
27.605
25.0267
22.586
20.2802
18.1052
16.0553
14.124
12.3035
10.5854
8.96103
7.42138
5.95662
4.55496
3.20202
1.88346
0.571457
73.6959
71.2042
68.1801
64.8974
61.5865
58.29
54.9956
51.7078
48.4474
45.236
42.091
39.0262
36.0532
33.1813
30.4174
27.766
25.2291
22.8071
20.4983
18.2998
16.207
14.2143
12.3152
10.5021
8.76699
7.10049
5.49202
3.92954
2.4016
0.896944
74.5368
72.219
69.405
66.3411
63.2375
60.1328
57.0134
53.8812
50.7537
47.6501
44.5863
41.5756
38.6294
35.7578
32.9687
30.2681
27.6601
25.1468
22.7288
20.4049
18.1727
16.0281
13.966
11.9803
10.0636
8.20731
6.40165
4.63568
2.89859
1.18934
75.2472
73.0777
70.4445
67.5702
64.648
61.713
58.7508
55.7611
52.7583
49.7594
46.7785
43.8279
40.9187
38.0608
35.2627
32.5312
29.8716
27.2875
24.7808
22.352
20
17.7223
15.515
13.3729
11.2894
9.25655
7.26501
5.30406
3.36211
1.44343
75.8462
73.8034
71.3256
68.6155
65.8517
63.0661
60.244
57.3832
54.4954
51.5954
48.6958
45.8075
42.9409
40.1055
37.3098
34.5611
31.8652
29.2268
26.6486
24.1324
21.6782
19.2845
16.9486
14.6659
12.4307
10.2352
8.07036
5.92507
3.78642
1.66061
76.3499
74.4151
72.0709
69.5028
66.8765
64.2219
61.5237
58.7781
55.9949
53.1866
50.3643
47.5377
44.7161
41.9085
39.1232
36.3673
33.6471
30.9675
28.3323
25.7437
23.2027
20.7088
18.2597
15.8517
13.4795
11.1356
8.81091
6.49375
4.16984
1.84528
76.7719
74.929
72.6993
70.2534
67.7463
65.2056
62.616
59.9727
57.2833
54.5586
51.8081
49.0405
46.2641
43.487
40.717
37.9612
35.2256
32.5156
29.8352
27.1872
24.5731
21.9929
19.4451
16.9264
14.4317
11.9539
9.48346
7.0084
4.51317
2.00271
77.1233
75.3583
73.2261
70.8851
68.4803
66.0379
63.5429
60.9891
58.3827
55.7328
53.0479
50.3353
47.6023
44.8563
42.1045
39.3536
36.6095
33.8775
31.1617
28.4653
25.79
23.1364
20.5033
17.8876
15.2847
12.6873
10.0859
7.46793
4.81713
2.13665
77.4151
75.7154
73.6659
71.4137
69.0961
66.7379
64.324
61.8476
59.3136
56.7298
54.1033
51.4405
48.748
46.0322
43.2996
40.5566
37.8088
35.0613
32.3182
29.5827
26.8569
24.1414
21.4354
18.736
16.0386
13.3361
10.6188
7.87379
5.08426
2.2511
77.6533
76.0079
74.0273
71.8497
69.6053
67.3179
64.9726
62.5621
60.09
57.5631
54.9876
52.3689
49.7127
47.0248
44.3112
41.5776
38.8293
36.0711
33.3071
30.5405
27.7734
25.0066
22.2392
19.4686
16.6902
13.897
11.0791
8.2234
5.31277
2.34585
77.8497
76.2484
74.3246
72.2082
70.024
67.795
65.5065
63.1508
60.7304
58.2514
55.719
53.1381
50.5135
47.8504
45.1543
42.4303
39.6834
36.9182
34.1386
31.3477
28.5475
25.7388
22.9208
20.0911
17.245
14.3753
11.4722
8.52242
5.50857
2.42621
78.0011
76.4346
74.5556
72.4879
70.3515
68.1689
65.9259
63.6139
61.2352
58.7948
56.2975
53.7474
51.1489
48.5066
45.8255
43.1103
40.3657
37.596
34.8049
31.9953
29.1692
26.3275
23.4693
20.5921
17.6912
14.7595
11.7869
8.76009
5.66177
2.48517
78.1299
76.589
74.7441
72.7133
70.613
68.4656
66.2569
63.9783
61.6312
59.2204
56.7499
54.2237
51.6454
49.0194
46.3502
43.6423
40.9
38.1273
35.3279
32.5045
29.6591
26.7924
23.9035
20.99
18.047
15.0674
12.0409
8.95391
5.78903
2.53556
78.2088
76.6841
74.8615
72.8558
70.78
68.6561
66.4703
64.214
61.8882
59.4972
57.0448
54.5346
51.9701
49.3552
46.6942
43.9913
41.2507
38.4764
35.6716
32.8392
29.9809
27.0975
24.188
21.2499
18.2784
15.2661
12.2025
9.07376
5.86232
2.55584
78.2971
76.7735
74.9631
72.9724
70.9104
68.7991
66.6255
64.381
62.0662
59.6854
57.2421
54.7398
52.1818
49.572
46.9144
44.2132
41.4725
38.6961
35.8874
33.049
30.1828
27.2893
24.3679
21.4158
18.4281
15.3974
12.3128
9.15961
5.91767
2.56287
)
;

boundaryField
{
    inlet
    {
        type            zeroGradient;
    }
    outlet
    {
        type            fixedValue;
        value           uniform 0;
    }
    flap
    {
        type            zeroGradient;
    }
    upperWall
    {
        type            zeroGradient;
    }
    lowerWall
    {
        type            zeroGradient;
    }
    frontAndBack
    {
        type            empty;
    }
}


// ************************************************************************* //
