/*--------------------------------*- C++ -*----------------------------------*\
  =========                 |
  \\      /  F ield         | OpenFOAM: The Open Source CFD Toolbox
   \\    /   O peration     | Website:  https://openfoam.org
    \\  /    A nd           | Version:  7
     \\/     M anipulation  |
\*---------------------------------------------------------------------------*/
FoamFile
{
    version     2.0;
    format      ascii;
    class       surfaceScalarField;
    location    "2.6";
    object      phi;
}
// * * * * * * * * * * * * * * * * * * * * * * * * * * * * * * * * * * * * * //

dimensions      [0 3 -1 0 0 0 0];

internalField   nonuniform List<scalar> 
5457
(
0.198417
0.00158251
0.19648
0.00193761
0.194191
0.00228842
0.191507
0.002684
0.188426
0.00308169
0.184948
0.0034773
0.181069
0.00387914
0.176775
0.0042946
0.172046
0.0047288
0.16686
0.00518578
0.161191
0.00566901
0.15501
0.00618148
0.148284
0.00672533
0.140983
0.0073016
0.133073
0.00790966
0.124527
0.00854648
0.115321
0.0092058
0.105444
0.00987696
0.0949001
0.0105437
0.083717
0.0111831
0.071953
0.0117641
0.0597053
0.0122477
0.0471172
0.012588
0.0343777
0.0127395
0.0216834
0.0126944
0.00903387
0.0126495
-0.00291796
0.0119518
-0.00847242
0.00555446
-0.00804282
-0.000429599
-0.00804282
0.199928
0.00165448
0.199175
0.00269029
0.197964
0.0034997
0.19633
0.00431761
0.19427
0.00514224
0.191779
0.00596793
0.188852
0.00680671
0.185474
0.00767206
0.181629
0.00857431
0.177293
0.00952175
0.17244
0.0105217
0.167041
0.0115803
0.161064
0.0127025
0.154475
0.0138908
0.14724
0.0151449
0.139327
0.0164597
0.130709
0.0178237
0.121369
0.0192169
0.111304
0.0206082
0.100535
0.0219525
0.0891108
0.023188
0.0771238
0.0242347
0.0647184
0.0249934
0.0521116
0.0253463
0.039652
0.025154
0.0281027
0.0241988
0.0185923
0.0214622
0.0087946
0.0153521
0.00118228
0.00718272
-0.00686054
0.19978
0.00187404
0.199086
0.00338438
0.197945
0.00464098
0.196408
0.00585466
0.194481
0.00706887
0.192162
0.00828752
0.189444
0.00952472
0.186318
0.0107981
0.182769
0.0121228
0.17878
0.0135112
0.174327
0.0149743
0.169386
0.0165218
0.163927
0.0181615
0.157919
0.0198983
0.151331
0.0217333
0.144129
0.0236615
0.136283
0.0256691
0.12777
0.0277306
0.118573
0.0298048
0.108696
0.03183
0.0981643
0.0337194
0.0870426
0.0353565
0.0754465
0.0365895
0.06357
0.0372228
0.0517288
0.0369952
0.0403942
0.0355334
0.0297364
0.03212
0.0191643
0.0259242
0.00959643
0.0167506
0.00273588
0.199703
0.0021711
0.199007
0.00407993
0.197887
0.00576185
0.196375
0.007366
0.194487
0.00895748
0.19222
0.0105541
0.189572
0.012173
0.186535
0.0138347
0.1831
0.0155579
0.179253
0.0173583
0.174977
0.0192499
0.170254
0.0212449
0.165062
0.0233535
0.159378
0.0255828
0.153176
0.0279353
0.146431
0.0304068
0.139116
0.0329834
0.131209
0.0356378
0.12269
0.0383237
0.11355
0.0409705
0.103793
0.0434758
0.0934513
0.0456985
0.0825907
0.0474501
0.0713286
0.0484849
0.0598374
0.0484864
0.048314
0.0470567
0.0368087
0.0436254
0.0251863
0.0375466
0.0133348
0.0286022
0.0160706
0.199667
0.00250382
0.198964
0.00478344
0.197862
0.00686352
0.19638
0.00884812
0.194531
0.0108068
0.192315
0.0127693
0.189731
0.0147574
0.186772
0.0167939
0.18343
0.0189002
0.179693
0.0210946
0.17555
0.0233934
0.170984
0.0258105
0.16598
0.0283577
0.160519
0.0310434
0.154584
0.0338711
0.148153
0.0368374
0.141207
0.0399292
0.133726
0.0431191
0.125689
0.0463603
0.11708
0.0495794
0.107887
0.0526687
0.0981089
0.0554768
0.0877597
0.0577993
0.0768744
0.0593702
0.0655052
0.0598557
0.0537052
0.0588567
0.0414519
0.0558787
0.0285863
0.0504122
0.0148516
0.0423369
0.0309223
0.199653
0.00285116
0.198948
0.00548776
0.19787
0.00794183
0.196425
0.0102928
0.194625
0.0126073
0.192471
0.0149234
0.189961
0.0172677
0.187089
0.0196654
0.183849
0.0221401
0.180231
0.0247125
0.176224
0.0274005
0.171815
0.0302197
0.16699
0.033183
0.161733
0.0362997
0.15603
0.0395742
0.149863
0.0430042
0.143215
0.0465774
0.136066
0.0502684
0.128394
0.0540323
0.120175
0.0577986
0.111381
0.0614625
0.101983
0.0648749
0.0919494
0.0678327
0.0812495
0.0700701
0.0698505
0.0712546
0.057714
0.0709932
0.0447586
0.0688341
0.0308478
0.064323
0.0158725
0.0573122
0.0467947
0.19965
0.00320124
0.198954
0.006184
0.197904
0.00899182
0.196503
0.0116929
0.194761
0.0143501
0.192678
0.017006
0.190254
0.0196919
0.187484
0.0224357
0.184361
0.0252629
0.180877
0.0281961
0.177023
0.0312551
0.172785
0.0344569
0.168153
0.0378157
0.163111
0.0413417
0.157644
0.0450408
0.151736
0.0489119
0.145369
0.052945
0.138519
0.0571178
0.131161
0.0613903
0.123261
0.065699
0.114775
0.0699486
0.105648
0.074002
0.0958109
0.0776696
0.0851814
0.0806997
0.0736644
0.0827716
0.0611586
0.083499
0.0475533
0.0824395
0.0327574
0.0791188
0.0167823
0.0732873
0.0635771
0.199655
0.00354673
0.198974
0.00686438
0.197958
0.010008
0.196609
0.0130421
0.194932
0.0160267
0.192931
0.0190072
0.190604
0.0220187
0.187948
0.0250917
0.184958
0.0282536
0.181625
0.0315289
0.177941
0.0349392
0.173895
0.038503
0.169474
0.0422358
0.164667
0.0461497
0.159455
0.0502521
0.153823
0.0545445
0.147747
0.0590204
0.141203
0.0636624
0.134155
0.0684383
0.126558
0.0732953
0.118354
0.0781531
0.109462
0.0828939
0.0997801
0.0873514
0.0891821
0.0912978
0.0775211
0.0944325
0.0646446
0.0963756
0.0504156
0.0966684
0.0347672
0.0947673
0.0177894
0.090265
0.0813665
0.199664
0.0038827
0.199006
0.00752246
0.198029
0.0109846
0.196737
0.0143341
0.195135
0.0176293
0.193224
0.0209176
0.191006
0.0242373
0.188476
0.027621
0.185632
0.0310983
0.182465
0.0346954
0.178969
0.0384354
0.175133
0.0423386
0.170947
0.0464224
0.166396
0.0507007
0.161464
0.0551836
0.156132
0.0598762
0.150376
0.0647769
0.144163
0.0698754
0.137452
0.0751496
0.130186
0.0805614
0.122289
0.0860501
0.113658
0.0915241
0.104161
0.0968487
0.0936282
0.101831
0.0818605
0.1062
0.0686467
0.109589
0.0538005
0.111515
0.037236
0.111332
0.0190833
0.108418
0.10045
0.199677
0.00420562
0.199047
0.00815298
0.198115
0.0119163
0.196886
0.0155628
0.195365
0.0191508
0.193553
0.0227289
0.191453
0.0263378
0.189061
0.0300126
0.186375
0.0337844
0.183389
0.037681
0.180097
0.0417274
0.17649
0.0459456
0.172558
0.0503548
0.168287
0.0549715
0.163662
0.0598091
0.158661
0.0648769
0.153258
0.0701798
0.147417
0.0757163
0.14109
0.0814771
0.134209
0.0874417
0.126686
0.0935737
0.118396
0.099814
0.109176
0.106069
0.0988131
0.112193
0.0870481
0.117965
0.0735873
0.12305
0.0581476
0.126954
0.0405521
0.128927
0.0209018
0.128068
0.121352
0.199693
0.00451284
0.199094
0.00875165
0.198212
0.0127983
0.197052
0.016723
0.195618
0.0205848
0.193913
0.0244335
0.19194
0.0283117
0.189696
0.0322563
0.18718
0.0363003
0.184388
0.0404729
0.181315
0.0448005
0.177954
0.049307
0.174295
0.0540136
0.170327
0.0589396
0.166034
0.0641019
0.161396
0.0695149
0.156385
0.0751906
0.150964
0.0811376
0.14508
0.0873611
0.138661
0.0938605
0.131607
0.100628
0.123779
0.107642
0.114987
0.114861
0.104976
0.122204
0.0934143
0.129527
0.0798959
0.136569
0.0639681
0.142882
0.0452364
0.147659
0.0236132
0.149691
0.144965
0.199711
0.00480231
0.199147
0.00931496
0.198319
0.0136264
0.197232
0.0178099
0.195892
0.0219256
0.1943
0.0260246
0.192461
0.030151
0.190374
0.0343434
0.188038
0.0386359
0.185452
0.0430594
0.182611
0.0476416
0.17951
0.0524077
0.176143
0.0573813
0.172498
0.0625841
0.168563
0.0680367
0.164319
0.0737589
0.15974
0.0797697
0.154789
0.0860885
0.149415
0.092735
0.143546
0.0997302
0.137078
0.107096
0.129866
0.114854
0.121705
0.123022
0.112306
0.131603
0.101268
0.140565
0.0880438
0.149793
0.071925
0.159001
0.0520905
0.167493
0.0278894
0.173892
0.172854
0.19973
0.0050724
0.199205
0.00984004
0.198434
0.0143968
0.197425
0.0188191
0.196182
0.0231683
0.194711
0.0274965
0.193012
0.0318492
0.191089
0.0362662
0.188943
0.0407828
0.186571
0.0454309
0.183973
0.0502392
0.181146
0.0552347
0.178085
0.0604424
0.174783
0.0658864
0.171229
0.0715908
0.167408
0.0775799
0.163298
0.0838798
0.158867
0.0905193
0.15407
0.0975321
0.148841
0.104959
0.143085
0.112852
0.136665
0.121274
0.12938
0.130307
0.120932
0.140051
0.110877
0.15062
0.0985424
0.162128
0.0829059
0.174637
0.0624446
0.187955
0.0351335
0.201203
0.207988
0.199751
0.00532185
0.199266
0.0103246
0.198556
0.0151067
0.197628
0.0197472
0.196487
0.0243088
0.195139
0.0288446
0.193588
0.033401
0.191835
0.0380186
0.189884
0.0427339
0.187736
0.0475792
0.185391
0.0525845
0.182848
0.0577773
0.180106
0.0631842
0.177161
0.0688312
0.174007
0.0747448
0.170634
0.0809533
0.167026
0.087488
0.163159
0.0943858
0.159
0.101691
0.154497
0.109462
0.149575
0.117773
0.144124
0.126725
0.137977
0.136455
0.130873
0.147154
0.122399
0.159094
0.11186
0.172666
0.0980259
0.188471
0.0785546
0.207426
0.0486841
0.231074
0.256672
0.199772
0.00554971
0.19933
0.0107668
0.198683
0.0157536
0.197839
0.0205913
0.196804
0.0253439
0.195583
0.0300651
0.194182
0.034802
0.192605
0.0395959
0.190855
0.0444838
0.188936
0.0494985
0.18685
0.0546703
0.1846
0.0600274
0.182187
0.0655972
0.179611
0.0714066
0.176872
0.077484
0.173966
0.0838598
0.170885
0.090569
0.167617
0.0976531
0.164145
0.105164
0.160438
0.113169
0.156452
0.121758
0.152124
0.131054
0.147352
0.141227
0.141978
0.152528
0.13574
0.165331
0.128169
0.180238
0.118324
0.198316
0.103956
0.221795
0.0777412
0.257288
0.334413
0.00521421
-0.00521421
0.0100688
-0.00485458
0.0142225
-0.00415373
0.0177372
-0.00351463
0.0207272
-0.00299005
0.0232922
-0.00256499
0.0255136
-0.00222137
0.0274569
-0.00194329
0.0291721
-0.00171523
0.0306961
-0.00152404
0.0320564
-0.00136025
0.0332709
-0.00121453
0.0343411
-0.0010702
0.0352408
-0.00089973
0.0359235
-0.000682632
0.0363595
-0.000436061
0.0365738
-0.000214228
0.0366201
-4.62997e-05
0.036513
0.000107027
0.0362651
0.000247915
0.0359131
0.000352035
0.0355691
0.000344014
0.0353351
0.000233993
0.0353019
3.31534e-05
0.0354988
-0.000196874
0.0359411
-0.000442321
0.0366198
-0.000678686
0.0375246
-0.000904813
0.0386089
-0.00108424
-0.00103519
0.00442817
-0.00964238
0.00873357
-0.00915999
0.0124959
-0.00791606
0.0157322
-0.00675089
0.0185393
-0.00579716
0.0210025
-0.00502822
0.0231892
-0.00440811
0.0251515
-0.00390553
0.0269275
-0.00349123
0.028545
-0.00314154
0.0300266
-0.00284184
0.0313933
-0.00258128
0.0326597
-0.00233656
0.0338155
-0.00205554
0.0348196
-0.00168672
0.0356283
-0.00124478
0.0362485
-0.000834449
0.0367507
-0.000548498
0.0371587
-0.000300963
0.0374458
-3.91592e-05
0.0375758
0.000222038
0.0376716
0.000248206
0.0377741
0.000131536
0.0378838
-7.66443e-05
0.0380206
-0.000333607
0.0381518
-0.000573546
0.038282
-0.000808907
0.0384286
-0.00105142
0.0386232
-0.00127884
-0.00146697
0.00347121
-0.0131136
0.00677245
-0.0124612
0.00962706
-0.0107707
0.0120756
-0.00919943
0.0141935
-0.00791506
0.016043
-0.00687771
0.0176749
-0.00604001
0.0191271
-0.00535779
0.0204254
-0.00478952
0.0215858
-0.00430193
0.0226215
-0.00387756
0.0235523
-0.00351203
0.0244049
-0.00318914
0.025182
-0.00283271
0.0258462
-0.00235085
0.0263286
-0.00172719
0.0266374
-0.00114326
0.0268788
-0.000789917
0.0269104
-0.00033253
0.0265536
0.000317652
0.0257428
0.00103282
0.0245432
0.00144783
0.0231024
0.00157229
0.0216069
0.00141884
0.0202431
0.00103024
0.0191899
0.000479567
0.0184283
-4.72276e-05
0.018008
-0.000631142
0.0180681
-0.00133893
-0.00212109
0.00246537
-0.015579
0.00460593
-0.0146018
0.0063668
-0.0125315
0.00784477
-0.0106774
0.00908782
-0.0091581
0.0101322
-0.00792209
0.0110111
-0.00691896
0.0117496
-0.0060962
0.0123629
-0.00540289
0.0128555
-0.00479455
0.0132232
-0.00424521
0.0134689
-0.0037577
0.0136317
-0.00335194
0.0137419
-0.00294294
0.0138175
-0.00242642
0.013715
-0.00162471
0.013005
-0.000433318
0.0115421
0.000672991
0.0098773
0.00133231
0.00844974
0.00174521
0.00722522
0.00225735
0.00604269
0.00263035
0.00491414
0.00270085
0.00390838
0.0024246
0.00311843
0.0018202
0.00265078
0.000947218
0.00262678
-2.32278e-05
0.00302126
-0.00102563
0.00378727
-0.00210494
-0.00297752
0.00133416
-0.0169131
0.00219074
-0.0154584
0.00275078
-0.0130916
0.00313385
-0.0110605
0.00335437
-0.00937862
0.00343069
-0.00799841
0.00337981
-0.00686807
0.00321711
-0.0059335
0.00295488
-0.00514066
0.00259732
-0.00443698
0.00213037
-0.00377826
0.00150205
-0.00312938
0.000611373
-0.00246126
-0.000548408
-0.00178316
-0.00194657
-0.00102826
-0.00342188
-0.0001494
-0.00454269
0.000687492
-0.00526569
0.00139599
-0.00594873
0.00201535
-0.00669418
0.00249066
-0.00733053
0.0028937
-0.00782912
0.00312894
-0.00819564
0.00306736
-0.00843363
0.00266259
-0.00854922
0.00193579
-0.00855836
0.00095636
-0.00842568
-0.000155915
-0.00815809
-0.00129321
-0.00786599
-0.00239705
-0.00327497
-2.01727e-05
-0.016893
-0.000457503
-0.015021
-0.00115037
-0.0123987
-0.00195233
-0.0102585
-0.00286649
-0.00846446
-0.00387564
-0.00698926
-0.00497158
-0.00577213
-0.00614726
-0.00475782
-0.00739503
-0.00389289
-0.00870021
-0.0031318
-0.0100351
-0.00244334
-0.011365
-0.00179948
-0.0126563
-0.00116995
-0.0138985
-0.00054096
-0.0150048
7.80391e-05
-0.0158406
0.00068636
-0.0164641
0.00131103
-0.0169973
0.00192913
-0.0174391
0.0024572
-0.0178107
0.00286229
-0.0180634
0.00314631
-0.0181805
0.00324608
-0.0181914
0.00307828
-0.0181361
0.00260727
-0.0180513
0.001851
-0.0179627
0.000867797
-0.0178727
-0.0002459
-0.017781
-0.00138497
-0.0176879
-0.00249009
-0.00338793
-0.0013463
-0.0155467
-0.00321964
-0.0131477
-0.00518983
-0.0104285
-0.0072075
-0.00824086
-0.00921483
-0.00645712
-0.0111884
-0.00501574
-0.0131012
-0.00385933
-0.0149294
-0.00292953
-0.0166535
-0.00216887
-0.0182637
-0.00152153
-0.0197557
-0.000951349
-0.0211184
-0.000436833
-0.0223197
3.13725e-05
-0.0233217
0.000461052
-0.0241312
0.000887494
-0.0247945
0.00134965
-0.0253294
0.001846
-0.0257307
0.00233038
-0.0260148
0.00274131
-0.0261947
0.00304222
-0.0262601
0.00321168
-0.0262166
0.0032026
-0.0260985
0.00296014
-0.0259496
0.00245835
-0.0258093
0.00171073
-0.0257064
0.000764891
-0.0256545
-0.000297791
-0.0256441
-0.00139541
-0.0256592
-0.00247499
-0.00334611
-0.00278942
-0.0127572
-0.00598391
-0.00995319
-0.00916846
-0.00724398
-0.0122118
-0.00519754
-0.0150396
-0.00362931
-0.0176341
-0.00242119
-0.0199868
-0.00150667
-0.0221055
-0.000810824
-0.0239985
-0.000275834
-0.0256582
0.000138163
-0.0270777
0.000468152
-0.0282712
0.000756656
-0.029272
0.00103217
-0.0301268
0.00131579
-0.0308622
0.00162292
-0.0314721
0.00195954
-0.0319437
0.0023176
-0.0322757
0.00266245
-0.0324823
0.00294792
-0.0325779
0.00313781
-0.0325695
0.00320321
-0.0324737
0.00310684
-0.0323244
0.00281081
-0.0321625
0.00229647
-0.0320264
0.00157467
-0.0319461
0.000684602
-0.0319374
-0.000306553
-0.0319911
-0.00134172
-0.0320968
-0.00236928
-0.00316937
-0.00429119
-0.00846605
-0.00873329
-0.00551109
-0.0129814
-0.00299584
-0.0168397
-0.00133926
-0.020249
-0.000219982
-0.0231715
0.000501284
-0.0256343
0.000956124
-0.0277017
0.00125659
-0.0294428
0.00146527
-0.0309263
0.00162159
-0.0322135
0.00175538
-0.0333377
0.00188089
-0.0343139
0.00200837
-0.0351496
0.00215146
-0.035849
0.00232234
-0.036414
0.00252457
-0.0368435
0.00274708
-0.0371413
0.00296022
-0.037319
0.00312565
-0.0373906
0.00320938
-0.03737
0.0031826
-0.0372789
0.00301577
-0.0371498
0.00268173
-0.0370199
0.00216652
-0.0369241
0.00147884
-0.0368915
0.000652003
-0.0369373
-0.000260732
-0.0370569
-0.00122213
-0.037244
-0.00218211
-0.00291083
-0.00606282
-0.00240323
-0.011898
0.000324112
-0.0167908
0.00189693
-0.0208614
0.00273137
-0.0242091
0.00312773
-0.0269871
0.00327923
-0.0293454
0.00331444
-0.0313666
0.00327778
-0.0331049
0.0032036
-0.0346036
0.0031203
-0.035896
0.00304773
-0.0370089
0.0029938
-0.0379616
0.00296105
-0.0387655
0.00295542
-0.039429
0.00298585
-0.0399597
0.00305527
-0.0403642
0.00315158
-0.0406502
0.00324622
-0.040828
0.00330344
-0.04091
0.00329132
-0.0409119
0.00318459
-0.0408574
0.00296126
-0.0407776
0.00260195
-0.0407065
0.00209533
-0.0406749
0.00144729
-0.0407082
0.000685346
-0.0408201
-0.000148867
-0.0410099
-0.00103232
-0.0412722
-0.00191986
-0.00258838
-0.0074213
0.00501807
-0.0138038
0.00670662
-0.0189424
0.00703549
-0.0231728
0.00696176
-0.0266712
0.00662622
-0.029576
0.00618396
-0.0319953
0.00573382
-0.0340284
0.0053108
-0.0357491
0.00492436
-0.037213
0.00458419
-0.0384641
0.00429885
-0.0395355
0.00406512
-0.0404472
0.0038728
-0.0412112
0.00371938
-0.0418382
0.00361292
-0.0423415
0.0035585
-0.0427335
0.00354359
-0.0430244
0.00353709
-0.0432225
0.00350157
-0.0433375
0.00340636
-0.0433846
0.00323165
-0.0433872
0.00296391
-0.0433756
0.00259033
-0.0433806
0.00210029
-0.0434284
0.00149508
-0.0435392
0.000796187
-0.0437247
3.66253e-05
-0.0439882
-0.000768862
-0.0443233
-0.00158477
-0.00220183
-0.00810404
0.0131221
-0.0151369
0.0137395
-0.0207999
0.0126985
-0.0252573
0.0114191
-0.0288005
0.0101694
-0.0316526
0.00903615
-0.0339826
0.00806378
-0.0359188
0.00724694
-0.0375432
0.0065488
-0.0389134
0.00595438
-0.0400807
0.00546619
-0.0410842
0.00506857
-0.0419421
0.00473072
-0.042661
0.00443831
-0.0432513
0.00420325
-0.0437318
0.00403892
-0.0441213
0.00393308
-0.0444314
0.00384723
-0.044667
0.00373717
-0.0448329
0.00357227
-0.0449416
0.0033403
-0.045016
0.00303831
-0.0450857
0.00266003
-0.0451787
0.00219338
-0.0453163
0.00163261
-0.0455126
0.000992506
-0.0457766
0.00030064
-0.0461152
-0.000430224
-0.046525
-0.001175
-0.00174596
-0.00937886
0.022501
-0.0172928
0.0216534
-0.0231478
0.0185535
-0.0274602
0.0157316
-0.0307644
0.0134736
-0.0333485
0.0116202
-0.0354214
0.0101366
-0.0371456
0.00897119
-0.0385978
0.00800098
-0.0398185
0.00717507
-0.0408627
0.00651038
-0.0417781
0.00598397
-0.0425764
0.0055291
-0.0432498
0.00511165
-0.0438035
0.00475695
-0.0442642
0.00449962
-0.0446602
0.00432915
-0.0450042
0.00419117
-0.0452941
0.00402706
-0.0455267
0.00380487
-0.0457099
0.00352355
-0.0458667
0.00319508
-0.0460274
0.00282076
-0.0462181
0.00238401
-0.0464536
0.0018681
-0.0467406
0.00127954
-0.0470859
0.000645973
-0.047502
-1.41909e-05
-0.047991
-0.000685941
-0.00121346
-0.0117185
0.0342195
-0.0208227
0.0307575
-0.0263931
0.0241239
-0.0299508
0.0192892
-0.0326526
0.0161754
-0.0347278
0.0136954
-0.0363556
0.0117645
-0.0377572
0.0103728
-0.0389809
0.00922468
-0.0400048
0.00819898
-0.0408876
0.00739313
-0.0417019
0.00679823
-0.0424469
0.0062741
-0.0430816
0.0057464
-0.0435989
0.00527425
-0.0440406
0.00494126
-0.0444523
0.00474092
-0.044847
0.00458581
-0.0452099
0.00439003
-0.0455248
0.0041197
-0.0457932
0.00379195
-0.0460398
0.00344171
-0.0462992
0.00308017
-0.0465963
0.00268116
-0.0469383
0.00221004
-0.0473218
0.00166305
-0.0477507
0.00107483
-0.0482446
0.00047974
-0.048818
-0.000112568
-0.000593401
-0.0159772
0.0501967
-0.0266441
0.0414243
-0.0311182
0.0285981
-0.0327282
0.0208992
-0.0344256
0.0178728
-0.035779
0.0150488
-0.0367433
0.0127288
-0.037727
0.0113565
-0.0387231
0.0102208
-0.0395182
0.00899409
-0.0401915
0.00806642
-0.0408984
0.00750513
-0.0416173
0.00699304
-0.0422342
0.00636334
-0.0427144
0.00575437
-0.0431327
0.00535965
-0.0435709
0.0051791
-0.0440396
0.00505449
-0.0445001
0.0048505
-0.0449145
0.0045341
-0.0452766
0.00415409
-0.0456173
0.00378236
-0.0459813
0.00344421
-0.0463947
0.00309449
-0.0468534
0.00266877
-0.0473401
0.00214975
-0.0478516
0.00158633
-0.0484198
0.00104795
-0.0490818
0.000549417
0.000139317
0.207447
0.00576264
0.207034
0.0111797
0.206431
0.0163566
0.205646
0.0213764
0.204686
0.0263039
0.203557
0.0311935
0.202267
0.0360925
0.20082
0.0410428
0.199222
0.0460813
0.19748
0.0512412
0.195597
0.0565526
0.193581
0.0620438
0.191436
0.0677423
0.189167
0.0736753
0.18678
0.0798714
0.184278
0.0863618
0.181664
0.0931824
0.178941
0.100376
0.176109
0.107997
0.173166
0.116113
0.170107
0.124817
0.16693
0.134231
0.163628
0.144529
0.160205
0.155951
0.156685
0.168852
0.153163
0.18376
0.150009
0.201469
0.148913
0.222891
0.160706
0.245495
0.258535
0.236583
0.21249
0.00595524
0.212117
0.0115529
0.211573
0.0169007
0.210866
0.0220829
0.210005
0.0271652
0.208997
0.0322019
0.207849
0.0372406
0.206568
0.0423232
0.205163
0.0474863
0.203642
0.0527627
0.202012
0.0581822
0.200283
0.0637725
0.198465
0.0695603
0.196569
0.075572
0.194605
0.0818352
0.192587
0.0883799
0.190529
0.0952401
0.188449
0.102456
0.186368
0.110077
0.184316
0.118166
0.182331
0.126801
0.180476
0.136087
0.178849
0.146155
0.177624
0.157176
0.177123
0.169353
0.178002
0.182881
0.181682
0.197789
0.190774
0.213799
0.20629
0.229979
0.24539
0.219435
0.217657
0.00612536
0.217328
0.0118823
0.216849
0.0173798
0.216229
0.0227033
0.215475
0.0279184
0.214598
0.0330795
0.213604
0.038234
0.212504
0.0434231
0.211308
0.0486831
0.210025
0.0540459
0.208667
0.0595402
0.207246
0.0651925
0.205779
0.0710281
0.204279
0.0770714
0.202767
0.0833476
0.201263
0.0898834
0.199795
0.0967085
0.198394
0.103857
0.197103
0.111368
0.195978
0.119291
0.195096
0.127683
0.194571
0.136611
0.194574
0.146152
0.195368
0.156382
0.197364
0.167357
0.201173
0.179072
0.207563
0.191399
0.217191
0.204171
0.229763
0.217407
0.228526
0.246628
0.222951
0.006271
0.222669
0.0121639
0.222261
0.0177885
0.221734
0.0232303
0.221097
0.0285548
0.220361
0.0338161
0.219534
0.0390608
0.218628
0.0443295
0.217653
0.0496573
0.216624
0.0550749
0.215555
0.0606096
0.214462
0.0662858
0.213363
0.0721265
0.212281
0.0781534
0.211241
0.0843878
0.210273
0.0908517
0.209413
0.0975682
0.208708
0.104562
0.208215
0.111861
0.208012
0.119494
0.208201
0.127494
0.208922
0.13589
0.210368
0.144706
0.212802
0.153948
0.216571
0.163589
0.222091
0.173552
0.229811
0.18368
0.240295
0.193687
0.254457
0.203245
0.210098
0.272885
0.228374
0.0063903
0.228144
0.0123943
0.227811
0.0181216
0.227384
0.0236573
0.226872
0.0290664
0.226286
0.0344023
0.225636
0.0397106
0.224935
0.0450306
0.224196
0.0503962
0.223434
0.0558363
0.222668
0.0613761
0.221916
0.0670378
0.221201
0.0728411
0.220551
0.0788041
0.219995
0.0849435
0.219572
0.0912751
0.219325
0.0978143
0.219312
0.104576
0.219601
0.111572
0.220279
0.118816
0.221461
0.126313
0.223289
0.134061
0.22595
0.142045
0.229673
0.150225
0.234737
0.158525
0.241469
0.166819
0.250245
0.174903
0.26151
0.182422
0.275732
0.189023
0.193619
0.292211
0.233929
0.00648159
0.233753
0.0125702
0.233501
0.0183744
0.23318
0.0239783
0.2328
0.0294461
0.232372
0.0348299
0.231909
0.0401742
0.231423
0.0455167
0.230929
0.0508894
0.230446
0.0563194
0.229993
0.0618292
0.229593
0.0674382
0.229271
0.0731626
0.229059
0.0790163
0.228992
0.0850107
0.229112
0.0911551
0.22947
0.0974564
0.230127
0.103919
0.231157
0.110542
0.232652
0.117321
0.234722
0.124242
0.237505
0.131279
0.241162
0.138388
0.245886
0.145501
0.251896
0.152515
0.259433
0.159282
0.268738
0.165599
0.279986
0.171174
0.293271
0.175738
0.178779
0.308111
0.23962
0.00654336
0.239501
0.0126886
0.239333
0.0185427
0.239123
0.0241882
0.238881
0.0296877
0.238619
0.0350921
0.238349
0.0404441
0.238086
0.0457797
0.237847
0.0511289
0.23765
0.0565162
0.237517
0.0619616
0.237474
0.0674813
0.237549
0.0730876
0.237776
0.07879
0.238192
0.0845943
0.238844
0.0905034
0.239784
0.0965163
0.241075
0.102627
0.242792
0.108825
0.245021
0.115091
0.247867
0.121397
0.251447
0.127699
0.255897
0.133938
0.261366
0.140032
0.268008
0.145872
0.275974
0.151316
0.285382
0.156191
0.296276
0.160281
0.308642
0.163371
0.165198
0.322223
0.245448
0.00657435
0.245389
0.0127473
0.245309
0.0186232
0.245215
0.0242825
0.245116
0.0297862
0.245025
0.0351833
0.244955
0.0405146
0.24492
0.0458141
0.24494
0.0511094
0.245034
0.0564225
0.245225
0.0617705
0.24554
0.0671662
0.246009
0.0726184
0.246667
0.0781317
0.247555
0.0837071
0.248717
0.0893412
0.250207
0.0950262
0.252086
0.100748
0.254423
0.106488
0.257299
0.112216
0.260802
0.117894
0.26503
0.123471
0.270087
0.128881
0.27608
0.13404
0.283107
0.138845
0.291249
0.143174
0.300552
0.146888
0.311004
0.149828
0.322539
0.151837
0.152784
0.334952
0.251418
0.00657354
0.251421
0.0127441
0.251431
0.018613
0.251456
0.0242579
0.251504
0.0297378
0.251588
0.0350995
0.251721
0.0403818
0.251918
0.0456164
0.252199
0.0508283
0.252585
0.056037
0.253099
0.0612567
0.253768
0.0664969
0.254624
0.0717626
0.255701
0.0770544
0.257039
0.0823688
0.258683
0.0876971
0.260684
0.0930259
0.263096
0.0983356
0.265984
0.1036
0.269415
0.108785
0.273462
0.113847
0.2782
0.118732
0.283706
0.123375
0.290048
0.127698
0.297281
0.131612
0.305441
0.135015
0.314527
0.137801
0.324495
0.13986
0.335244
0.141087
0.141423
0.346605
0.257532
0.00654018
0.257598
0.0126778
0.257701
0.0185102
0.257847
0.0241122
0.258045
0.0295402
0.258305
0.0348387
0.258643
0.0400441
0.259074
0.0451857
0.259616
0.0502862
0.260291
0.0553622
0.261122
0.0604252
0.262138
0.0654816
0.263367
0.070533
0.264845
0.0755767
0.266609
0.080605
0.2687
0.0856055
0.271166
0.0905606
0.274054
0.0954469
0.27742
0.100235
0.281318
0.104887
0.285804
0.10936
0.290934
0.113602
0.296757
0.117552
0.303314
0.121142
0.310626
0.124299
0.318698
0.126943
0.327501
0.128998
0.336972
0.13039
0.347006
0.131053
0.130968
0.357461
0.263794
0.00647379
0.263924
0.0125474
0.264121
0.0183138
0.264389
0.0238442
0.264737
0.0291923
0.265175
0.0344001
0.265718
0.0395016
0.26638
0.0445236
0.26718
0.0494862
0.268139
0.0544036
0.269279
0.0592845
0.270628
0.0641326
0.272215
0.0689468
0.27407
0.0737213
0.276229
0.0784457
0.27873
0.0831047
0.281612
0.0876783
0.284918
0.0921409
0.288691
0.0964618
0.292973
0.100605
0.297807
0.104527
0.303227
0.108182
0.309262
0.111516
0.31593
0.114474
0.323232
0.116997
0.331149
0.119027
0.339638
0.120509
0.34863
0.121398
0.358026
0.121657
0.121286
0.367708
0.270207
0.0063742
0.270401
0.0123526
0.270692
0.0180233
0.271082
0.0234537
0.27158
0.0286944
0.272195
0.0337849
0.27294
0.0387566
0.27383
0.0436338
0.274882
0.0484342
0.276116
0.0531695
0.277554
0.0578463
0.279221
0.0624658
0.281144
0.0670246
0.28335
0.0715148
0.285872
0.075924
0.288741
0.0802354
0.291992
0.0844278
0.295657
0.0884754
0.299771
0.0923482
0.304363
0.0960119
0.309462
0.0994285
0.315088
0.102556
0.321252
0.105352
0.327956
0.10777
0.335185
0.109768
0.342909
0.111303
0.351078
0.11234
0.359622
0.112854
0.368454
0.112825
0.112266
0.377474
0.276774
0.0062415
0.277032
0.0120937
0.277416
0.0176393
0.277928
0.0229417
0.278574
0.0280484
0.279363
0.0329959
0.280307
0.0378133
0.281418
0.0425223
0.282714
0.0471383
0.284212
0.0516712
0.285934
0.0561251
0.2879
0.0604996
0.290135
0.0647896
0.292664
0.0689857
0.295513
0.0730746
0.29871
0.0770388
0.302281
0.0808572
0.306251
0.0845051
0.310645
0.0879546
0.315482
0.0911749
0.320777
0.0941328
0.32654
0.0967938
0.332769
0.0991229
0.339453
0.101086
0.34657
0.102651
0.354081
0.103792
0.361936
0.104486
0.370069
0.10472
0.378404
0.10449
0.103814
0.386856
0.283498
0.00607607
0.28382
0.0117715
0.284297
0.0171631
0.284928
0.0223103
0.285719
0.0272571
0.286678
0.0320374
0.287814
0.0366774
0.289139
0.0411969
0.290668
0.045609
0.292418
0.0499217
0.294405
0.0541375
0.29665
0.0582546
0.299173
0.0622668
0.301995
0.066164
0.305137
0.0699325
0.308621
0.0735553
0.312465
0.0770123
0.31669
0.0802808
0.321309
0.0833358
0.326333
0.0861506
0.331768
0.0886976
0.337613
0.0909491
0.343858
0.092878
0.350484
0.0944597
0.357463
0.0956726
0.364754
0.0964998
0.37231
0.0969304
0.380069
0.0969607
0.387965
0.096594
0.0958507
0.395929
0.290384
0.00587854
0.290768
0.0113871
0.291335
0.0165968
0.292082
0.0215624
0.293015
0.0263247
0.294137
0.0309148
0.295458
0.0353565
0.296988
0.0396671
0.298739
0.0438582
0.300725
0.047936
0.302961
0.0519017
0.305462
0.0557527
0.308247
0.0594821
0.311331
0.0630797
0.314732
0.0665323
0.318463
0.0698237
0.32254
0.0729358
0.326972
0.0758483
0.331768
0.0785396
0.336931
0.0809875
0.342459
0.0831699
0.348343
0.0850651
0.354568
0.0866535
0.361109
0.087918
0.367937
0.0888451
0.375011
0.0894259
0.382284
0.0896567
0.389705
0.08954
0.397215
0.089084
0.0883098
0.404756
0.297435
0.00564978
0.297879
0.0109424
0.298533
0.0159429
0.299394
0.0207018
0.300462
0.0252563
0.301742
0.0296349
0.30324
0.0338589
0.304963
0.0379437
0.306922
0.0418991
0.309128
0.04573
0.311593
0.0494369
0.314329
0.0530163
0.31735
0.0564614
0.320667
0.0597624
0.324293
0.0629068
0.328236
0.0658803
0.332506
0.0686665
0.337106
0.0712481
0.342038
0.0736073
0.3473
0.075726
0.352882
0.0775871
0.358773
0.0791748
0.364951
0.0804752
0.371391
0.0814776
0.378062
0.0821746
0.384925
0.0825631
0.391937
0.0826444
0.399052
0.0824249
0.40622
0.0819154
0.0811365
0.413394
0.304654
0.00539083
0.305157
0.0104394
0.305895
0.0152048
0.306864
0.019733
0.308062
0.0240579
0.309492
0.0282053
0.311157
0.0321943
0.313062
0.0360383
0.315215
0.0397457
0.317625
0.0433204
0.320299
0.0467623
0.323248
0.0500677
0.326479
0.05323
0.330002
0.0562402
0.333821
0.059087
0.337944
0.0617578
0.342372
0.0642387
0.347105
0.0665154
0.352138
0.0685733
0.357466
0.0703987
0.363074
0.0719788
0.368946
0.0733024
0.375061
0.0743608
0.38139
0.075148
0.387904
0.0756612
0.394566
0.0759013
0.401337
0.0758729
0.408177
0.0755847
0.415044
0.0750487
0.0742844
0.421896
0.312046
0.00510293
0.312605
0.00988046
0.313424
0.014386
0.314496
0.0186609
0.315818
0.022736
0.317389
0.0266343
0.31921
0.0303727
0.321286
0.033963
0.323619
0.0374125
0.326215
0.0407241
0.32908
0.0438973
0.33222
0.0469286
0.335638
0.0498119
0.339339
0.0525392
0.343325
0.0551006
0.347597
0.0574855
0.352154
0.0596823
0.356989
0.0616796
0.362097
0.0634661
0.367464
0.0650315
0.373076
0.0663669
0.378913
0.0674651
0.384953
0.0683212
0.391168
0.0689328
0.397528
0.0693005
0.404002
0.0694278
0.410553
0.0693215
0.417147
0.0689912
0.423746
0.0684492
0.0677136
0.430317
0.319615
0.00478737
0.320227
0.00926829
0.321123
0.0134905
0.322293
0.017491
0.323731
0.0212975
0.325435
0.0249303
0.327403
0.0284045
0.329636
0.0317302
0.332135
0.0349136
0.334902
0.0379572
0.337939
0.0408602
0.341248
0.0436193
0.344831
0.0462293
0.348687
0.0486831
0.352815
0.0509725
0.357212
0.0530887
0.361872
0.0550225
0.366786
0.056765
0.371944
0.0583079
0.377332
0.059644
0.382932
0.0607673
0.388723
0.0616739
0.394682
0.0623617
0.400784
0.0628312
0.406999
0.063085
0.413299
0.0631285
0.419651
0.0629695
0.426024
0.0626178
0.432388
0.0620857
0.0613893
0.438712
0.327365
0.00444552
0.328028
0.00860551
0.328996
0.0125223
0.330258
0.0162288
0.331806
0.0197494
0.333635
0.0231022
0.335739
0.0263001
0.338117
0.029352
0.340768
0.0322631
0.34369
0.0350354
0.346882
0.0376682
0.350342
0.0401586
0.35407
0.042502
0.35806
0.0446927
0.362309
0.0467239
0.366809
0.0485886
0.371552
0.0502797
0.376526
0.0517907
0.381718
0.0531157
0.387112
0.0542499
0.392689
0.05519
0.398429
0.0559343
0.404308
0.0564831
0.4103
0.0568385
0.416381
0.0570046
0.422521