/*--------------------------------*- C++ -*----------------------------------*\
  =========                 |
  \\      /  F ield         | OpenFOAM: The Open Source CFD Toolbox
   \\    /   O peration     | Website:  https://openfoam.org
    \\  /    A nd           | Version:  7
     \\/     M anipulation  |
\*---------------------------------------------------------------------------*/
FoamFile
{
    version     2.0;
    format      ascii;
    class       volVectorField;
    location    "2.6";
    object      U;
}
// * * * * * * * * * * * * * * * * * * * * * * * * * * * * * * * * * * * * * //

dimensions      [0 1 -1 0 0 0 0];

internalField   nonuniform List<vector> 
2790
(
(9.94399 0.0205248 0)
(9.87571 0.029591 0)
(9.77518 0.0359944 0)
(9.64939 0.0425625 0)
(9.50401 0.0493931 0)
(9.33996 0.0564371 0)
(9.15641 0.0638256 0)
(8.95246 0.071722 0)
(8.72726 0.0802662 0)
(8.47985 0.0895847 0)
(8.209 0.0998047 0)
(7.91335 0.111056 0)
(7.59136 0.123471 0)
(7.24143 0.137174 0)
(6.86196 0.152281 0)
(6.45141 0.168877 0)
(6.00849 0.187003 0)
(5.53229 0.206623 0)
(5.02258 0.227591 0)
(4.48007 0.24961 0)
(3.9068 0.272172 0)
(3.3065 0.294518 0)
(2.68499 0.315609 0)
(2.05036 0.334275 0)
(1.41158 0.350591 0)
(0.797862 0.372868 0)
(0.110517 0.324965 0)
(-0.469529 -0.114869 0)
(-0.45378 -0.297072 0)
(-0.231144 -0.423801 0)
(9.9985 0.0407081 0)
(9.98144 0.0623927 0)
(9.93572 0.0791546 0)
(9.86411 0.0966434 0)
(9.7709 0.115146 0)
(9.65705 0.134514 0)
(9.52192 0.155003 0)
(9.36468 0.176973 0)
(9.18451 0.200738 0)
(8.98043 0.226581 0)
(8.75126 0.254775 0)
(8.49558 0.28559 0)
(8.21187 0.319277 0)
(7.89847 0.356047 0)
(7.55367 0.39604 0)
(7.17581 0.439278 0)
(6.76339 0.485602 0)
(6.31527 0.53459 0)
(5.83086 0.585457 0)
(5.3105 0.636942 0)
(4.7558 0.687184 0)
(4.17008 0.733619 0)
(3.559 0.772919 0)
(2.93129 0.801052 0)
(2.29973 0.813704 0)
(1.69277 0.807204 0)
(1.107 0.747181 0)
(0.658795 0.547857 0)
(0.186285 0.224496 0)
(-0.00819379 -0.453755 0)
(9.99559 0.0432155 0)
(9.97555 0.0752884 0)
(9.93177 0.10337 0)
(9.86485 0.132402 0)
(9.77771 0.163097 0)
(9.67145 0.195441 0)
(9.54574 0.229789 0)
(9.39997 0.266652 0)
(9.23345 0.306521 0)
(9.0454 0.349859 0)
(8.83482 0.397123 0)
(8.60052 0.44877 0)
(8.34112 0.505236 0)
(8.05515 0.566902 0)
(7.74101 0.634042 0)
(7.39706 0.706753 0)
(7.02172 0.784848 0)
(6.61357 0.867723 0)
(6.17156 0.954181 0)
(5.69527 1.04223 0)
(5.18528 1.12884 0)
(4.64364 1.20974 0)
(4.0745 1.27909 0)
(3.48512 1.32926 0)
(2.88663 1.35001 0)
(2.29929 1.32634 0)
(1.7317 1.22068 0)
(1.21615 0.972918 0)
(0.701071 0.570069 0)
(0.357982 -0.156658 0)
(9.99402 0.0495112 0)
(9.9718 0.0932296 0)
(9.92785 0.133606 0)
(9.8622 0.174253 0)
(9.77686 0.216485 0)
(9.67288 0.26072 0)
(9.55018 0.307495 0)
(9.40832 0.357484 0)
(9.24682 0.411362 0)
(9.0651 0.469777 0)
(8.86242 0.533372 0)
(8.63789 0.602789 0)
(8.39052 0.678652 0)
(8.11917 0.761526 0)
(7.82263 0.851861 0)
(7.49963 0.949902 0)
(7.14885 1.05556 0)
(6.76905 1.16823 0)
(6.35911 1.28658 0)
(5.91823 1.40822 0)
(5.44618 1.52941 0)
(4.94368 1.64461 0)
(4.41288 1.74605 0)
(3.85802 1.82311 0)
(3.28561 1.86125 0)
(2.70623 1.84021 0)
(2.12551 1.72588 0)
(1.55416 1.47774 0)
(0.95789 1.08358 0)
(0.509402 0.502209 0)
(9.99331 0.057229 0)
(9.96993 0.110989 0)
(9.9259 0.162148 0)
(9.86141 0.213404 0)
(9.77791 0.266424 0)
(9.67624 0.32199 0)
(9.5564 0.380785 0)
(9.41804 0.443577 0)
(9.26077 0.511148 0)
(9.08409 0.584262 0)
(8.88743 0.663677 0)
(8.67008 0.750147 0)
(8.43125 0.844411 0)
(8.1701 0.947148 0)
(7.88569 1.05893 0)
(7.57708 1.18011 0)
(7.24326 1.3107 0)
(6.8832 1.45017 0)
(6.49589 1.59719 0)
(6.08035 1.74927 0)
(5.6358 1.90233 0)
(5.16179 2.05021 0)
(4.65848 2.18405 0)
(4.12696 2.2916 0)
(3.56919 2.35641 0)
(2.98872 2.35717 0)
(2.38671 2.2648 0)
(1.7663 2.04749 0)
(1.08994 1.69125 0)
(0.536631 1.15399 0)
(9.99302 0.0655575 0)
(9.96922 0.128738 0)
(9.92553 0.190167 0)
(9.86248 0.251912 0)
(9.78121 0.315661 0)
(9.68234 0.382413 0)
(9.56587 0.452977 0)
(9.43154 0.528211 0)
(9.27899 0.608993 0)
(9.10781 0.696197 0)
(8.91749 0.790689 0)
(8.70742 0.893328 0)
(8.47693 1.00495 0)
(8.2253 1.12634 0)
(7.95175 1.25815 0)
(7.65547 1.40085 0)
(7.3356 1.55456 0)
(6.99121 1.71885 0)
(6.62127 1.89251 0)
(6.2246 2.07315 0)
(5.79991 2.25674 0)
(5.3457 2.43707 0)
(4.86041 2.60504 0)
(4.34244 2.74804 0)
(3.79019 2.84936 0)
(3.20241 2.888 0)
(2.57645 2.83803 0)
(1.91339 2.67142 0)
(1.17271 2.37381 0)
(0.549951 1.89422 0)
(9.99296 0.0740972 0)
(9.96925 0.146358 0)
(9.92634 0.217547 0)
(9.86503 0.289374 0)
(9.78635 0.363453 0)
(9.69074 0.440939 0)
(9.5782 0.522783 0)
(9.44853 0.609941 0)
(9.30143 0.70339 0)
(9.13652 0.8041 0)
(8.95335 0.913032 0)
(8.75137 1.03114 0)
(8.52997 1.15933 0)
(8.28848 1.29849 0)
(8.02617 1.44937 0)
(7.74225 1.61253 0)
(7.43584 1.7882 0)
(7.10595 1.97614 0)
(6.75136 2.17535 0)
(6.37058 2.38372 0)
(5.9617 2.59761 0)
(5.52227 2.81122 0)
(5.04921 3.01595 0)
(4.53874 3.19974 0)
(3.98645 3.34644 0)
(3.38775 3.43573 0)
(2.73714 3.44307 0)
(2.03617 3.34127 0)
(1.24172 3.11336 0)
(0.563504 2.69294 0)
(9.99306 0.082614 0)
(9.9698 0.163657 0)
(9.92804 0.244124 0)
(9.8688 0.325575 0)
(9.79305 0.40956 0)
(9.70115 0.497336 0)
(9.59308 0.589982 0)
(9.46869 0.688548 0)
(9.32773 0.794098 0)
(9.16988 0.907689 0)
(8.99472 1.03037 0)
(8.80176 1.16318 0)
(8.59043 1.30714 0)
(8.36009 1.4632 0)
(8.11 1.63224 0)
(7.83934 1.81493 0)
(7.54713 2.01169 0)
(7.23218 2.22249 0)
(6.89302 2.44667 0)
(6.5277 2.68258 0)
(6.13365 2.9272 0)
(5.70746 3.17557 0)
(5.24463 3.42012 0)
(4.7395 3.64993 0)
(4.18526 3.84995 0)
(3.5746 4.0006 0)
(2.89942 4.07762 0)
(2.16206 4.05212 0)
(1.3161 3.90145 0)
(0.583216 3.53992 0)
(9.99326 0.0909579 0)
(9.97071 0.180466 0)
(9.93043 0.269752 0)
(9.87357 0.36035 0)
(9.8011 0.453777 0)
(9.71332 0.551358 0)
(9.61023 0.654276 0)
(9.49169 0.763671 0)
(9.35752 0.880687 0)
(9.20746 1.00646 0)
(9.04113 1.14214 0)
(8.85811 1.28884 0)
(8.65787 1.44768 0)
(8.43977 1.61972 0)
(8.2031 1.80597 0)
(7.94696 2.00728 0)
(7.67026 2.22428 0)
(7.37163 2.45726 0)
(7.04927 2.70598 0)
(6.70076 2.96944 0)
(6.32287 3.24547 0)
(5.91121 3.53029 0)
(5.45998 3.81777 0)
(4.9617 4.09866 0)
(4.40718 4.35951 0)
(3.78625 4.58175 0)
(3.08748 4.74074 0)
(2.31267 4.80416 0)
(1.41064 4.74082 0)
(0.614316 4.44169 0)
(9.99352 0.0990255 0)
(9.97189 0.196644 0)
(9.93337 0.29429 0)
(9.87919 0.393539 0)
(9.81032 0.495903 0)
(9.72705 0.602757 0)
(9.62937 0.715368 0)
(9.51722 0.834961 0)
(9.39044 0.962752 0)
(9.24884 1.09996 0)
(9.09212 1.2478 0)
(8.9199 1.40749 0)
(8.7317 1.58025 0)
(8.52695 1.76726 0)
(8.30493 1.96968 0)
(8.06472 2.18857 0)
(7.80516 2.42483 0)
(7.52472 2.67915 0)
(7.22133 2.95184 0)
(6.8922 3.24267 0)
(6.53349 3.55057 0)
(6.13998 3.87321 0)
(5.70462 4.20635 0)
(5.21813 4.54298 0)
(4.66874 4.872 0)
(4.04271 5.17653 0)
(3.32362 5.4319 0)
(2.50977 5.60162 0)
(1.5419 5.64322 0)
(0.664083 5.41782 0)
(9.99384 0.106741 0)
(9.97329 0.212073 0)
(9.93677 0.317608 0)
(9.88552 0.424992 0)
(9.82055 0.535753 0)
(9.74213 0.651309 0)
(9.65028 0.772996 0)
(9.54497 0.902109 0)
(9.42613 1.03993 0)
(9.2936 1.18776 0)
(9.14718 1.34687 0)
(8.98654 1.51858 0)
(8.8113 1.7042 0)
(8.62093 1.90506 0)
(8.41477 2.12246 0)
(8.19194 2.35771 0)
(7.95127 2.61202 0)
(7.69115 2.88654 0)
(7.4094 3.1822 0)
(7.103 3.4997 0)
(6.76773 3.83923 0)
(6.39776 4.20021 0)
(5.98506 4.58077 0)
(5.51868 4.97685 0)
(4.98409 5.38079 0)
(4.3631 5.77902 0)
(3.63186 6.14864 0)
(2.78018 6.45027 0)
(1.73355 6.62824 0)
(0.744897 6.50293 0)
(9.9942 0.114047 0)
(9.97486 0.226655 0)
(9.94052 0.33959 0)
(9.89246 0.454574 0)
(9.83165 0.573165 0)
(9.75838 0.696818 0)
(9.67272 0.826925 0)
(9.57467 0.964843 0)
(9.46422 1.11191 0)
(9.34131 1.26949 0)
(9.20579 1.43892 0)
(9.05745 1.6216 0)
(8.89597 1.81893 0)
(8.72094 2.03238 0)
(8.53179 2.26342 0)
(8.32773 2.51358 0)
(8.10768 2.78443 0)
(7.87011 3.07757 0)
(7.61288 3.39465 0)
(7.333 3.73732 0)
(7.02621 4.10718 0)
(6.68648 4.50565 0)
(6.30529 4.93362 0)
(5.8706 5.39086 0)
(5.36543 5.8747 0)
(4.76672 6.37757 0)
(4.04072 6.8826 0)
(3.16161 7.35302 0)
(2.02496 7.72295 0)
(0.880875 7.75707 0)
(9.99459 0.120898 0)
(9.97656 0.240312 0)
(9.94458 0.360136 0)
(9.8999 0.482166 0)
(9.84347 0.607996 0)
(9.77563 0.739113 0)
(9.69645 0.876953 0)
(9.60601 1.02292 0)
(9.50437 1.17841 0)
(9.39153 1.34482 0)
(9.26744 1.52356 0)
(9.13198 1.71608 0)
(8.98497 1.92389 0)
(8.82612 2.14855 0)
(8.655 2.3917 0)
(8.47099 2.6551 0)
(8.27319 2.94064 0)
(8.0603 3.25037 0)
(7.83045 3.58662 0)
(7.58096 3.95201 0)
(7.30796 4.34954 0)
(7.00585 4.78273 0)
(6.66648 5.25553 0)
(6.27786 5.77225 0)
(5.82201 6.33688 0)
(5.27227 6.95154 0)
(4.58458 7.61281 0)
(3.71027 8.3003 0)
(2.48862 8.95801 0)
(1.12479 9.29353 0)
(9.99501 0.127259 0)
(9.97836 0.25298 0)
(9.94888 0.379161 0)
(9.90774 0.507668 0)
(9.85589 0.640126 0)
(9.79369 0.778054 0)
(9.72125 0.92292 0)
(9.63871 1.07616 0)
(9.5462 1.23922 0)
(9.44379 1.41351 0)
(9.33156 1.6005 0)
(9.20949 1.80169 0)
(9.07753 2.01866 0)
(8.93555 2.25305 0)
(8.78331 2.50665 0)
(8.62043 2.78139 0)
(8.44628 3.07944 0)
(8.25994 3.40326 0)
(8.06003 3.75573 0)
(7.84449 4.14034 0)
(7.61033 4.56138 0)
(7.35312 5.02424 0)
(7.06624 5.53589 0)
(6.73962 6.10532 0)
(6.35733 6.74425 0)
(5.89377 7.46779 0)
(5.30089 8.29518 0)
(4.50944 9.24706 0)
(3.26976 10.3416 0)
(1.60575 11.3603 0)
(9.99544 0.133103 0)
(9.98025 0.264607 0)
(9.95336 0.396593 0)
(9.9159 0.530985 0)
(9.86879 0.669437 0)
(9.8124 0.813487 0)
(9.7469 0.96463 0)
(9.67248 1.12433 0)
(9.58935 1.29404 0)
(9.49767 1.47521 0)
(9.39761 1.66934 0)
(9.28929 1.87795 0)
(9.17281 2.10266 0)
(9.04823 2.34519 0)
(8.91552 2.60741 0)
(8.77459 2.89138 0)
(8.62519 3.19947 0)
(8.46687 3.53442 0)
(8.29892 3.89955 0)
(8.12019 4.29893 0)
(7.929 4.73779 0)
(7.7228 5.22297 0)
(7.49777 5.7637 0)
(7.24803 6.37278 0)
(6.96412 7.06869 0)
(6.63058 7.87927 0)
(6.21466 8.85003 0)
(5.66701 10.0642 0)
(4.69243 11.7303 0)
(2.68945 14.5957 0)
(0.168463 -0.178635 0)
(0.381277 -0.157078 0)
(0.604667 -0.128308 0)
(0.801624 -0.103731 0)
(0.966698 -0.0842362 0)
(1.10557 -0.0688569 0)
(1.22451 -0.0566915 0)
(1.32796 -0.0470367 0)
(1.41891 -0.0392978 0)
(1.49948 -0.0329928 0)
(1.57124 -0.0277552 0)
(1.63536 -0.0232492 0)
(1.69238 -0.0190313 0)
(1.74182 -0.0145289 0)
(1.78186 -0.00938134 0)
(1.81027 -0.0039192 0)
(1.82644 0.000858481 0)
(1.83237 0.00402047 0)
(1.83039 0.00570717 0)
(1.82133 0.00658895 0)
(1.80589 0.00718525 0)
(1.78739 0.00707976 0)
(1.77156 0.00678733 0)
(1.76368 0.00614379 0)
(1.76733 0.00395508 0)
(1.78327 0.000834911 0)
(1.81136 -0.00318779 0)
(1.85112 -0.00815517 0)
(1.9011 -0.0132734 0)
(1.96902 -0.0156719 0)
(0.12852 -0.376797 0)
(0.33004 -0.346835 0)
(0.529598 -0.291062 0)
(0.70797 -0.240836 0)
(0.86075 -0.20047 0)
(0.992551 -0.168502 0)
(1.10833 -0.143171 0)
(1.21158 -0.123003 0)
(1.30466 -0.10672 0)
(1.3892 -0.0933097 0)
(1.46641 -0.0820756 0)
(1.5373 -0.072422 0)
(1.60279 -0.0634182 0)
(1.66325 -0.0535731 0)
(1.71773 -0.041818 0)
(1.76393 -0.0290191 0)
(1.79993 -0.0176476 0)
(1.82708 -0.00809564 0)
(1.84922 0.00184355 0)
(1.86743 0.0106611 0)
(1.87771 0.0146493 0)
(1.88242 0.012494 0)
(1.88666 0.0051125 0)
(1.8923 -0.00497401 0)
(1.89789 -0.0153475 0)
(1.90431 -0.0244994 0)
(1.91098 -0.0318344 0)
(1.91761 -0.0373198 0)
(1.92554 -0.0400256 0)
(1.94167 -0.0370939 0)
(0.0929332 -0.577421 0)
(0.258564 -0.538419 0)
(0.408804 -0.45694 0)
(0.544215 -0.382319 0)
(0.659476 -0.321906 0)
(0.758756 -0.273696 0)
(0.84558 -0.235178 0)
(0.922415 -0.204157 0)
(0.990954 -0.178715 0)
(1.05229 -0.157384 0)
(1.10708 -0.13931 0)
(1.15593 -0.124009 0)
(1.19984 -0.1105 0)
(1.24 -0.0960217 0)
(1.2765 -0.077435 0)
(1.30737 -0.055349 0)
(1.32789 -0.0384021 0)
(1.33822 -0.0314373 0)
(1.34849 -0.0261143 0)
(1.34326 -0.0150376 0)
(1.31464 -0.00330361 0)
(1.26304 0.00379475 0)
(1.19435 0.00510729 0)
(1.11752 0.00300916 0)
(1.04351 0.000500916 0)
(0.980513 -0.00258758 0)
(0.938191 -0.00647906 0)
(0.906496 -0.0122183 0)
(0.895066 -0.0202702 0)
(0.919048 -0.0316583 0)
(0.0610426 -0.721945 0)
(0.181137 -0.667138 0)
(0.271643 -0.563225 0)
(0.35626 -0.470492 0)
(0.424765 -0.395715 0)
(0.482172 -0.335908 0)
(0.530308 -0.288055 0)
(0.570633 -0.249415 0)
(0.604307 -0.217534 0)
(0.632016 -0.190439 0)
(0.653781 -0.166981 0)
(0.669178 -0.146905 0)
(0.678353 -0.130256 0)
(0.682807 -0.115216 0)
(0.686067 -0.0986137 0)
(0.691199 -0.0764988 0)
(0.687182 -0.0462819 0)
(0.622214 -0.0147287 0)
(0.527679 0.0106537 0)
(0.455353 0.0381079 0)
(0.396138 0.0615158 0)
(0.335195 0.0748324 0)
(0.275572 0.0776172 0)
(0.220337 0.0699851 0)
(0.173688 0.0527219 0)
(0.138642 0.0284061 0)
(0.125704 0.00326364 0)
(0.138962 -0.0199009 0)
(0.164288 -0.0466737 0)
(0.218959 -0.0720351 0)
(0.0290208 -0.81421 0)
(0.0953647 -0.73828 0)
(0.118709 -0.615631 0)
(0.147572 -0.511088 0)
(0.162217 -0.426567 0)
(0.170104 -0.358635 0)
(0.171001 -0.304121 0)
(0.16566 -0.260037 0)
(0.154911 -0.223659 0)
(0.139433 -0.192561 0)
(0.119226 -0.16491 0)
(0.0930704 -0.139401 0)
(0.0574584 -0.114722 0)
(0.00248525 -0.0889895 0)
(-0.0618275 -0.0591581 0)
(-0.135983 -0.0210078 0)
(-0.20798 0.0200702 0)
(-0.240194 0.0486943 0)
(-0.279935 0.0627023 0)
(-0.316446 0.0724391 0)
(-0.34901 0.0835283 0)
(-0.377577 0.0900375 0)
(-0.399873 0.0872325 0)
(-0.415495 0.0743271 0)
(-0.424668 0.0529058 0)
(-0.428757 0.0258112 0)
(-0.427696 -0.00340001 0)
(-0.414076 -0.0322492 0)
(-0.40139 -0.0589511 0)
(-0.392729 -0.0785788 0)
(-0.00523538 -0.844706 0)
(0.000220254 -0.744492 0)
(-0.046039 -0.606673 0)
(-0.0777947 -0.495376 0)
(-0.121656 -0.404701 0)
(-0.168996 -0.331779 0)
(-0.221172 -0.273017 0)
(-0.277722 -0.225052 0)
(-0.338298 -0.184838 0)
(-0.402349 -0.149878 0)
(-0.468813 -0.118461 0)
(-0.53591 -0.0894395 0)
(-0.601785 -0.0621322 0)
(-0.665618 -0.0367182 0)
(-0.726396 -0.0126317 0)
(-0.776091 0.0103276 0)
(-0.807911 0.0322964 0)
(-0.836711 0.0547081 0)
(-0.861382 0.0739818 0)
(-0.88201 0.0861979 0)
(-0.897012 0.0941392 0)
(-0.905826 0.0962576 0)
(-0.9088 0.0899639 0)
(-0.907503 0.0747576 0)
(-0.903989 0.0519029 0)
(-0.900243 0.0238154 0)
(-0.896695 -0.00629696 0)
(-0.890619 -0.0359446 0)
(-0.888599 -0.0628442 0)
(-0.890245 -0.0828693 0)
(-0.0461032 -0.805538 0)
(-0.106121 -0.68152 0)
(-0.21695 -0.538914 0)
(-0.312942 -0.426164 0)
(-0.413208 -0.335423 0)
(-0.512182 -0.263109 0)
(-0.60914 -0.205532 0)
(-0.702664 -0.15952 0)
(-0.791534 -0.122111 0)
(-0.874919 -0.0907779 0)
(-0.952402 -0.0637386 0)
(-1.02382 -0.0398648 0)
(-1.08872 -0.0183133 0)
(-1.14475 0.00130536 0)
(-1.18927 0.0195004 0)
(-1.22484 0.0371329 0)
(-1.25441 0.0546045 0)
(-1.27756 0.0710183 0)
(-1.29466 0.0843438 0)
(-1.30618 0.093281 0)
(-1.31186 0.0976696 0)
(-1.31188 0.0963065 0)
(-1.30738 0.0876731 0)
(-1.30034 0.0714558 0)
(-1.29299 0.0486706 0)
(-1.28725 0.0213354 0)
(-1.28383 -0.00794079 0)
(-1.28207 -0.0368136 0)
(-1.28478 -0.0635048 0)
(-1.28901 -0.0834096 0)
(-0.0924387 -0.697521 0)
(-0.214355 -0.555601 0)
(-0.387422 -0.415251 0)
(-0.540561 -0.30806 0)
(-0.686587 -0.225828 0)
(-0.821389 -0.162938 0)
(-0.9444 -0.11451 0)
(-1.05573 -0.0771375 0)
(-1.15572 -0.0481262 0)
(-1.24489 -0.0252242 0)
(-1.32182 -0.00703549 0)
(-1.38674 0.00789547 0)
(-1.44103 0.0207706 0)
(-1.48689 0.0327092 0)
(-1.52673 0.0448316 0)
(-1.56024 0.0575995 0)
(-1.58701 0.070532 0)
(-1.60684 0.0822918 0)
(-1.62013 0.0913244 0)
(-1.62745 0.0966551 0)
(-1.62922 0.0977149 0)
(-1.62611 0.0935853 0)
(-1.61949 0.0833281 0)
(-1.61129 0.0667708 0)
(-1.60364 0.0447231 0)
(-1.59838 0.0188418 0)
(-1.59646 -0.00872121 0)
(-1.59826 -0.0360616 0)
(-1.6043 -0.061681 0)
(-1.6097 -0.0804753 0)
(-0.145067 -0.523368 0)
(-0.326299 -0.373949 0)
(-0.554797 -0.247721 0)
(-0.754575 -0.156448 0)
(-0.934825 -0.0892276 0)
(-1.09308 -0.0407501 0)
(-1.22637 -0.0089097 0)
(-1.33838 0.0122069 0)
(-1.43264 0.0264172 0)
(-1.51214 0.0361758 0)
(-1.58085 0.0436849 0)
(-1.64099 0.0502615 0)
(-1.6934 0.0565246 0)
(-1.73863 0.0629063 0)
(-1.77694 0.0697738 0)
(-1.80842 0.0772836 0)
(-1.83308 0.0850703 0)
(-1.85102 0.0920575 0)
(-1.86268 0.0969463 0)
(-1.86863 0.0987659 0)
(-1.86951 0.0968434 0)
(-1.86626 0.0904728 0)
(-1.86029 0.0790533 0)
(-1.8534 0.0625026 0)
(-1.8475 0.041478 0)
(-1.8443 0.0173478 0)
(-1.84495 -0.00816701 0)
(-1.85037 -0.0336715 0)
(-1.85946 -0.0577382 0)
(-1.86588 -0.0750374 0)
(-0.209475 -0.2997 0)
(-0.459678 -0.146578 0)
(-0.736264 -0.0237287 0)
(-0.954996 0.0392103 0)
(-1.13679 0.0710541 0)
(-1.28636 0.0852103 0)
(-1.41336 0.0918391 0)
(-1.522 0.0944127 0)
(-1.61532 0.0947665 0)
(-1.6957 0.0940926 0)
(-1.76509 0.0931309 0)
(-1.82497 0.092292 0)
(-1.87644 0.0918635 0)
(-1.92021 0.0921576 0)
(-1.95675 0.0934537 0)
(-1.98644 0.0957858 0)
(-2.00963 0.0987167 0)
(-2.02669 0.101275 0)
(-2.03806 0.102305 0)
(-2.04426 0.100871 0)
(-2.04599 0.0963209 0)
(-2.04426 0.0881239 0)
(-2.04048 0.0758872 0)
(-2.03631 0.0595661 0)
(-2.03344 0.0396824 0)
(-2.03342 0.0173619 0)
(-2.0375 -0.006052 0)
(-2.04674 -0.0296077 0)
(-2.05886 -0.0519839 0)
(-2.06636 -0.0678899 0)
(-0.269397 0.0827415 0)
(-0.549748 0.185793 0)
(-0.837469 0.213088 0)
(-1.06587 0.221645 0)
(-1.25582 0.217162 0)
(-1.41352 0.206232 0)
(-1.54497 0.192758 0)
(-1.65513 0.178691 0)
(-1.74813 0.165124 0)
(-1.82711 0.152817 0)
(-1.89455 0.14224 0)
(-1.95233 0.133397 0)
(-2.00171 0.126059 0)
(-2.0434 0.120174 0)
(-2.07796 0.115911 0)
(-2.10602 0.11329 0)
(-2.12823 0.111813 0)
(-2.14514 0.110463 0)
(-2.15717 0.108074 0)
(-2.16472 0.103739 0)
(-2.16843 0.0969048 0)
(-2.16929 0.0872324 0)
(-2.1687 0.0744812 0)
(-2.16817 0.0585893 0)
(-2.16915 0.039907 0)
(-2.173 0.0193237 0)
(-2.18105 -0.00209357 0)
(-2.1943 -0.0237327 0)
(-2.20955 -0.0444586 0)
(-2.21821 -0.0592159 0)
(-0.288306 0.449093 0)
(-0.600181 0.489445 0)
(-0.920866 0.462644 0)
(-1.16612 0.420667 0)
(-1.36197 0.375363 0)
(-1.51905 0.332286 0)
(-1.64672 0.294132 0)
(-1.75211 0.261345 0)
(-1.84018 0.233127 0)
(-1.91432 0.209023 0)
(-1.97729 0.188977 0)
(-2.03132 0.172456 0)
(-2.07768 0.158536 0)
(-2.11686 0.146716 0)
(-2.14931 0.137149 0)
(-2.17585 0.129992 0)
(-2.19746 0.124712 0)
(-2.21484 0.120097 0)
(-2.22834 0.114821 0)
(-2.23813 0.107971 0)
(-2.24467 0.0991614 0)
(-2.2489 0.0882922 0)
(-2.2522 0.0752631 0)
(-2.25595 0.0599448 0)
(-2.26133 0.0424676 0)
(-2.26951 0.0234837 0)
(-2.28192 0.00386655 0)
(-2.29924 -0.0159712 0)
(-2.31779 -0.0351282 0)
(-2.32775 -0.048949 0)
(-0.330795 0.872523 0)
(-0.689809 0.849289 0)
(-1.03664 0.734094 0)
(-1.28108 0.622591 0)
(-1.46654 0.529517 0)
(-1.61037 0.451799 0)
(-1.72467 0.388396 0)
(-1.8184 0.337618 0)
(-1.8969 0.295676 0)
(-1.96291 0.260434 0)
(-2.01906 0.231711 0)
(-2.06794 0.208531 0)
(-2.11072 0.188884 0)
(-2.14724 0.17162 0)
(-2.17755 0.15711 0)
(-2.20264 0.145967 0)
(-2.22396 0.137665 0)
(-2.24246 0.130581 0)
(-2.25823 0.123021 0)
(-2.27108 0.114032 0)
(-2.28116 0.103488 0)
(-2.28934 0.0916332 0)
(-2.29704 0.0785285 0)
(-2.30557 0.063909 0)
(-2.31582 0.0476041 0)
(-2.32865 0.0300098 0)
(-2.34556 0.011902 0)
(-2.36716 -0.00629119 0)
(-2.38918 -0.0239185 0)
(-2.40057 -0.0369144 0)
(-0.416513 1.37397 0)
(-0.847625 1.25689 0)
(-1.21051 1.00961 0)
(-1.42441 0.806338 0)
(-1.57546 0.665057 0)
(-1.69108 0.554285 0)
(-1.78133 0.467746 0)
(-1.85629 0.402787 0)
(-1.92126 0.350239 0)
(-1.97648 0.305186 0)
(-2.02366 0.26903 0)
(-2.06627 0.241001 0)
(-2.10543 0.217123 0)
(-2.13963 0.195063 0)
(-2.16788 0.175889 0)
(-2.1915 0.161369 0)
(-2.21284 0.151057 0)
(-2.23316 0.142506 0)
(-2.25214 0.13333 0)
(-2.2689 0.122509 0)
(-2.28313 0.110351 0)
(-2.2957 0.0976334 0)
(-2.30819 0.0846253 0)
(-2.32195 0.0708174 0)
(-2.33752 0.055599 0)
(-2.35535 0.0390887 0)
(-2.37683 0.0221313 0)
(-2.40292 0.00541395 0)
(-2.42853 -0.0106634 0)
(-2.44151 -0.0227722 0)
(-0.598079 2.24521 0)
(-1.11452 1.86125 0)
(-1.48146 1.29903 0)
(-1.60928 0.92295 0)
(-1.68714 0.756911 0)
(-1.75978 0.630524 0)
(-1.81501 0.526651 0)
(-1.86407 0.453543 0)
(-1.91365 0.395179 0)
(-1.95698 0.341025 0)
(-1.99298 0.298773 0)
(-2.02823 0.269148 0)
(-2.06461 0.243683 0)
(-2.09765 0.21745 0)
(-2.12414 0.193372 0)
(-2.1461 0.175946 0)
(-2.1677 0.164952 0)
(-2.19081 0.156238 0)
(-2.21426 0.146148 0)
(-2.23594 0.133633 0)
(-2.25491 0.119755 0)
(-2.27213 0.106157 0)
(-2.28968 0.0934259 0)
(-2.30912 0.0806206 0)
(-2.33056 0.0664434 0)
(-2.35377 0.0506887 0)
(-2.3799 0.0344611 0)
(-2.41028 0.0190224 0)
(-2.43973 0.00472916 0)
(-2.45454 -0.00629467 0)
(9.9959 0.138502 0)
(9.98223 0.27535 0)
(9.95807 0.412688 0)
(9.92447 0.552485 0)
(9.88232 0.696418 0)
(9.83203 0.846038 0)
(9.77381 1.00285 0)
(9.70791 1.16834 0)
(9.63463 1.34395 0)
(9.55422 1.53116 0)
(9.46697 1.73145 0)
(9.37313 1.94638 0)
(9.27297 2.17757 0)
(9.16675 2.42676 0)
(9.05472 2.69586 0)
(8.9371 2.987 0)
(8.81408 3.30264 0)
(8.68581 3.64566 0)
(8.55235 4.01957 0)
(8.41371 4.42875 0)
(8.26983 4.87883 0)
(8.1206 5.37726 0)
(7.966 5.9342 0)
(7.8063 6.56402 0)
(7.64277 7.28776 0)
(7.48048 8.13803 0)
(7.33284 9.16881 0)
(7.29038 10.4737 0)
(7.75286 12.1977 0)
(7.94395 14.9173 0)
(9.99638 0.143466 0)
(9.98432 0.285213 0)
(9.96302 0.427429 0)
(9.93345 0.572112 0)
(9.89647 0.720954 0)
(9.85248 0.875512 0)
(9.80178 1.03729 0)
(9.74468 1.20777 0)
(9.68153 1.38841 0)
(9.61272 1.58065 0)
(9.53862 1.78599 0)
(9.45966 2.00594 0)
(9.37626 2.24212 0)
(9.28892 2.49624 0)
(9.19815 2.77021 0)
(9.10453 3.06612 0)
(9.00871 3.38639 0)
(8.91144 3.73389 0)
(8.81365 4.11204 0)
(8.71652 4.52511 0)
(8.62165 4.9785 0)
(8.53142 5.47923 0)
(8.44957 6.03661 0)
(8.38237 6.6632 0)
(8.34105 7.37619 0)
(8.34775 8.19894 0)
(8.44146 9.16149 0)
(8.67827 10.2969 0)
(9.32725 11.5492 0)
(9.82082 12.631 0)
(9.99688 0.147908 0)
(9.98649 0.294034 0)
(9.96815 0.440592 0)
(9.94276 0.589599 0)
(9.91111 0.742749 0)
(9.87363 0.901593 0)
(9.83066 1.06763 0)
(9.78258 1.24231 0)
(9.72982 1.42707 0)
(9.67284 1.62334 0)
(9.61216 1.83256 0)
(9.54833 2.05621 0)
(9.48196 2.29584 0)
(9.41376 2.55312 0)
(9.34453 2.82983 0)
(9.27517 3.12798 0)
(9.2068 3.44984 0)
(9.14075 3.79803 0)
(9.07871 4.17567 0)
(9.02289 4.58651 0)
(8.97631 5.03515 0)
(8.94327 5.52723 0)
(8.93004 6.06972 0)
(8.94618 6.67099 0)
(9.00617 7.34042 0)
(9.13216 8.08655 0)
(9.35516 8.91111 0)
(9.68454 9.80267 0)
(10.2496 10.7094 0)
(10.936 11.4201 0)
(9.9974 0.151774 0)
(9.98872 0.301704 0)
(9.97343 0.452013 0)
(9.95232 0.604717 0)
(9.92613 0.761503 0)
(9.8953 0.923905 0)
(9.86022 1.0934 0)
(9.82132 1.2714 0)
(9.7791 1.45932 0)
(9.73412 1.65852 0)
(9.68699 1.87038 0)
(9.63841 2.09632 0)
(9.58915 2.33779 0)
(9.54012 2.59634 0)
(9.49236 2.8736 0)
(9.4471 3.17139 0)
(9.40584 3.4917 0)
(9.37039 3.83679 0)
(9.34306 4.20924 0)
(9.32681 4.612 0)
(9.32557 5.04847 0)
(9.34465 5.52247 0)
(9.39127 6.03811 0)
(9.47535 6.59932 0)
(9.61006 7.20883 0)
(9.81219 7.86622 0)
(10.1044 8.5643 0)
(10.4953 9.28827 0)
(11.0514 10.0279 0)
(11.8423 10.6701 0)
(9.99792 0.155018 0)
(9.99099 0.308132 0)
(9.97881 0.461554 0)
(9.96205 0.617286 0)
(9.9414 0.776996 0)
(9.91731 0.942189 0)
(9.8902 1.1143 0)
(9.86056 1.29471 0)
(9.82895 1.48476 0)
(9.796 1.68575 0)
(9.76243 1.89898 0)
(9.72903 2.12575 0)
(9.69675 2.36741 0)
(9.66665 2.62531 0)
(9.63997 2.90092 0)
(9.61822 3.19576 0)
(9.60315 3.51148 0)
(9.59695 3.84986 0)
(9.60231 4.21281 0)
(9.62261 4.60236 0)
(9.66216 5.02061 0)
(9.72649 5.46956 0)
(9.82265 5.9508 0)
(9.95959 6.46501 0)
(10.1483 7.01107 0)
(10.4019 7.58508 0)
(10.7375 8.17888 0)
(11.1667 8.77776 0)
(11.7123 9.37017 0)
(12.4629 9.88132 0)
(9.99845 0.157597 0)
(9.99329 0.313232 0)
(9.98424 0.469089 0)
(9.97187 0.627142 0)
(9.9568 0.789025 0)
(9.93947 0.956204 0)
(9.92035 1.13006 0)
(9.89996 1.31192 0)
(9.87891 1.50305 0)
(9.85791 1.70467 0)
(9.83774 1.91797 0)
(9.81931 2.14412 0)
(9.80365 2.38431 0)
(9.79196 2.63971 0)
(9.78565 2.91152 0)
(9.78637 3.20097 0)
(9.79608 3.5093 0)
(9.81715 3.83774 0)
(9.85244 4.18752 0)
(9.90542 4.55976 0)
(9.98038 4.95533 0)
(10.0825 5.37472 0)
(10.2182 5.81764 0)
(10.3949 6.28263 0)
(10.6214 6.76641 0)
(10.9073 7.26321 0)
(11.2639 7.76381 0)
(11.699 8.25266 0)
(12.2134 8.71309 0)
(12.8866 9.10369 0)
(9.99898 0.159471 0)
(9.99559 0.316927 0)
(9.98967 0.474506 0)
(9.9817 0.634137 0)
(9.97219 0.79741 0)
(9.96159 0.965738 0)
(9.95039 1.14045 0)
(9.93916 1.32278 0)
(9.92853 1.51393 0)
(9.91926 1.715 0)
(9.9122 1.92707 0)
(9.9083 2.15117 0)
(9.9087 2.38829 0)
(9.91466 2.6394 0)
(9.92769 2.90544 0)
(9.94951 3.18727 0)
(9.98217 3.48573 0)
(10.0281 3.80153 0)
(10.09 4.13523 0)
(10.1714 4.48712 0)
(10.2761 4.8571 0)
(10.4087 5.24446 0)
(10.5746 5.64762 0)
(10.7795 6.06377 0)
(11.03 6.48842 0)
(11.3324 6.91489 0)
(11.6928 7.33384 0)
(12.1152 7.73188 0)
(12.5935 8.09451 0)
(13.1966 8.40128 0)
(9.99951 0.160606 0)
(9.99787 0.319151 0)
(9.99507 0.477706 0)
(9.99144 0.638145 0)
(9.98743 0.802 0)
(9.98348 0.970622 0)
(9.98007 1.14526 0)
(9.97781 1.32709 0)
(9.97735 1.51718 0)
(9.97947 1.71655 0)
(9.98506 1.92613 0)
(9.99511 2.14679 0)
(10.0108 2.37933 0)
(10.0334 2.62451 0)
(10.0645 2.88296 0)
(10.1058 3.15524 0)
(10.1592 3.44177 0)
(10.2272 3.74278 0)
(10.3123 4.05825 0)
(10.4176 4.3878 0)
(10.5464 4.73057 0)
(10.7027 5.08504 0)
(10.8905 5.44882 0)
(11.1141 5.81839 0)
(11.3778 6.18886 0)
(11.6853 6.55368 0)
(12.0395 6.9046 0)
(12.4419 7.23134 0)
(12.8847 7.52281 0)
(13.4259 7.76776 0)
(10 0.160976 0)
(10.0001 0.319848 0)
(10.0004 0.47861 0)
(10.001 0.639064 0)
(10.0024 0.802676 0)
(10.0049 0.970723 0)
(10.0091 1.14438 0)
(10.0155 1.32471 0)
(10.0249 1.5127 0)
(10.038 1.70924 0)
(10.0556 1.91511 0)
(10.0789 2.13103 0)
(10.1089 2.3576 0)
(10.147 2.59535 0)
(10.1946 2.84465 0)
(10.2534 3.10576 0)
(10.3254 3.37872 0)
(10.4125 3.66335 0)
(10.5172 3.95918 0)
(10.6421 4.26531 0)
(10.7899 4.58036 0)
(10.9636 4.90233 0)
(11.1663 5.22841 0)
(11.4009 5.5549 0)
(11.67 5.87707 0)
(11.9753 6.18909 0)
(12.3178 6.4841 0)
(12.6971 6.75432 0)
(13.1056 6.99143 0)
(13.5919 7.18863 0)
(10.0005 0.160557 0)
(10.0023 0.318976 0)
(10.0056 0.477157 0)
(10.0104 0.636821 0)
(10.017 0.799354 0)
(10.0258 0.965957 0)
(10.0373 1.13771 0)
(10.052 1.31559 0)
(10.0708 1.50046 0)
(10.0942 1.69308 0)
(10.1232 1.89411 0)
(10.1588 2.10408 0)
(10.2021 2.32344 0)
(10.2543 2.55246 0)
(10.3168 2.79131 0)
(10.3912 3.03995 0)
(10.4792 3.29813 0)
(10.5826 3.56534 0)
(10.7034 3.84075 0)
(10.8438 4.12315 0)
(11.0059 4.41082 0)
(11.1918 4.70153 0)
(11.4038 4.9924 0)
(11.6435 5.27987 0)
(11.9123 5.55965 0)
(12.2106 5.82678 0)
(12.5382 6.07575 0)
(12.8936 6.30069 0)
(13.2699 6.4956 0)
(13.7086 6.65633 0)
(10.001 0.159336 0)
(10.0044 0.316506 0)
(10.0106 0.473309 0)
(10.0194 0.631369 0)
(10.031 0.79199 0)
(10.0458 0.956284 0)
(10.0643 1.12524 0)
(10.087 1.29973 0)
(10.1145 1.4805 0)
(10.1477 1.6682 0)
(10.1872 1.86333 0)
(10.2342 2.06629 0)
(10.2895 2.27733 0)
(10.3544 2.49655 0)
(10.4302 2.72389 0)
(10.5181 2.9591 0)
(10.6197 3.20169 0)
(10.7365 3.45091 0)
(10.8702 3.70569 0)
(11.0224 3.96462 0)
(11.1946 4.22586 0)
(11.3885 4.48714 0)
(11.6052 4.74569 0)
(11.8456 4.99826 0)
(12.1102 5.24115 0)
(12.3987 5.47028 0)
(12.7098 5.68134 0)
(13.0419 5.86998 0)
(13.3887 6.032 0)
(13.7867 6.16489 0)
(10.0015 0.157303 0)
(10.0065 0.312424 0)
(10.0153 0.467045 0)
(10.028 0.622691 0)
(10.0444 0.780574 0)
(10.0649 0.941713 0)
(10.09 1.107 0)
(10.1201 1.27721 0)
(10.1558 1.45298 0)
(10.198 1.63481 0)
(10.2472 1.82311 0)
(10.3044 2.0181 0)
(10.3706 2.21989 0)
(10.4467 2.42843 0)
(10.5339 2.64349 0)
(10.6333 2.86461 0)
(10.7462 3.09116 0)
(10.8738 3.32221 0)
(11.0174 3.55658 0)
(11.1781 3.79277 0)
(11.3571 4.02893 0)
(11.5553 4.26289 0)
(11.7732 4.49213 0)
(12.0112 4.71379 0)
(12.2691 4.92478 0)
(12.546 5.12182 0)
(12.8404 5.30162 0)
(13.1504 5.46102 0)
(13.4707 5.59713 0)
(13.8336 5.70843 0)
(10.0019 0.154459 0)
(10.0084 0.306728 0)
(10.0199 0.45837 0)
(10.0361 0.6108 0)
(10.057 0.765133 0)
(10.0829 0.922299 0)
(10.1141 1.08309 0)
(10.1511 1.24817 0)
(10.1944 1.41808 0)
(10.2447 1.59321 0)
(10.3027 1.77383 0)
(10.3691 1.96006 0)
(10.4448 2.15186 0)
(10.5306 2.34905 0)
(10.6275 2.55126 0)
(10.7365 2.75793 0)
(10.8585 2.96829 0)
(10.9944 3.18134 0)
(11.1453 3.39584 0)
(11.3118 3.61031 0)
(11.4947 3.82299 0)
(11.6943 4.03188 0)
(11.9109 4.23475 0)
(12.1442 4.42919 0)
(12.3937 4.61266 0)
(12.6583 4.7826 0)
(12.9363 4.93652 0)
(13.2259 5.07217 0)
(13.5225 5.18757 0)
(13.8551 5.28187 0)
(10.0024 0.150809 0)
(10.0102 0.299432 0)
(10.0241 0.447307 0)
(10.0437 0.595735 0)
(10.0689 0.745734 0)
(10.0997 0.898138 0)
(10.1365 1.05364 0)
(10.1798 1.21282 0)
(10.23 1.3761 0)
(10.2877 1.54378 0)
(10.3535 1.71601 0)
(10.428 1.8928 0)
(10.5119 2.07403 0)
(10.6059 2.25939 0)
(10.7109 2.44843 0)
(10.8276 2.6405 0)
(10.9567 2.83477 0)
(11.0988 3.03023 0)
(11.2546 3.22566 0)
(11.4246 3.41962 0)
(11.609 3.61052 0)
(11.8079 3.79657 0)
(12.0212 3.97587 0)
(12.2484 4.1464 0)
(12.4886 4.30615 0)
(12.7407 4.45312 0)
(13.003 4.58549 0)
(13.2738 4.70165 0)
(13.5492 4.80028 0)
(13.8556 4.88095 0)
(10.0027 0.146364 0)
(10.0119 0.290561 0)
(10.0281 0.433898 0)
(10.0508 0.577562 0)
(10.0798 0.722471 0)
(10.1151 0.869367 0)
(10.1571 1.01885 0)
(10.2061 1.17141 0)
(10.2625 1.32737 0)
(10.3268 1.48693 0)
(10.3993 1.65017 0)
(10.4808 1.81701 0)
(10.5717 1.98723 0)
(10.6726 2.16046 0)
(10.7841 2.33618 0)
(10.9068 2.51371 0)
(11.0411 2.69221 0)
(11.1875 2.87068 0)
(11.3464 3.04795 0)
(11.5179 3.22273 0)
(11.702 3.39357 0)
(11.8986 3.55893 0)
(12.1072 3.71721 0)
(12.3273 3.86678 0)
(12.5578 4.00603 0)
(12.7976 4.13347 0)
(13.0451 4.24775 0)
(13.2988 4.34776 0)
(13.5553 4.43262 0)
(13.8389 4.50218 0)
(10.0031 0.141145 0)
(10.0134 0.280153 0)
(10.0317 0.418205 0)
(10.0573 0.55637 0)
(10.0898 0.695471 0)
(10.1293 0.836158 0)
(10.1759 0.978947 0)
(10.23 1.12423 0)
(10.2918 1.27225 0)
(10.3617 1.42315 0)
(10.4402 1.57691 0)
(10.5275 1.73339 0)
(10.6242 1.89231 0)
(10.7307 2.05325 0)
(10.8473 2.21568 0)
(10.9745 2.37889 0)
(11.1125 2.54207 0)
(11.2616 2.70427 0)
(11.4219 2.86442 0)
(11.5933 3.02134 0)
(11.7757 3.1738 0)
(11.9687 3.32047 0)
(12.1718 3.46004 0)
(12.3843 3.5912 0)
(12.605 3.71271 0)
(12.8329 3.82343 0)
(13.0667 3.92241 0)
(13.3047 4.00888 0)
(13.5445 4.08228 0)
(13.8081 4.14263 0)
(10.0034 0.135173 0)
(10.0148 0.268257 0)
(10.035 0.400304 0)
(10.0632 0.532271 0)
(10.0988 0.664884 0)
(10.142 0.798709 0)
(10.1927 0.934179 0)
(10.2513 1.07161 0)
(10.3178 1.21117 0)
(10.3927 1.35293 0)
(10.4761 1.49683 0)
(10.5683 1.64266 0)