/*--------------------------------*- C++ -*----------------------------------*\
  =========                 |
  \\      /  F ield         | OpenFOAM: The Open Source CFD Toolbox
   \\    /   O peration     | Website:  https://openfoam.org
    \\  /    A nd           | Version:  7
     \\/     M anipulation  |
\*---------------------------------------------------------------------------*/
FoamFile
{
    version     2.0;
    format      ascii;
    class       surfaceVectorField;
    location    "2.6";
    object      Uf;
}
// * * * * * * * * * * * * * * * * * * * * * * * * * * * * * * * * * * * * * //

dimensions      [0 1 -1 0 0 0 0];

internalField   nonuniform List<vector> 
5457
(
(9.92087 0.0251121 0)
(9.97124 0.0387492 0)
(9.82399 0.0328309 0)
(9.92858 0.0485918 0)
(9.70957 0.0393177 0)
(9.85545 0.0587779 0)
(9.57537 0.0460186 0)
(9.75675 0.0706059 0)
(9.42129 0.0529572 0)
(9.63746 0.0830284 0)
(9.24742 0.0601755 0)
(9.49851 0.0959537 0)
(9.05347 0.067821 0)
(9.33917 0.109631 0)
(8.83874 0.0760452 0)
(9.15857 0.124309 0)
(8.6023 0.0849811 0)
(8.95589 0.140188 0)
(8.34301 0.0947558 0)
(8.73014 0.157454 0)
(8.05956 0.105498 0)
(8.48013 0.17629 0)
(7.75048 0.117338 0)
(8.20447 0.196876 0)
(7.41422 0.130404 0)
(7.90161 0.219379 0)
(7.04914 0.144818 0)
(7.56995 0.243938 0)
(6.65365 0.160678 0)
(7.20781 0.270645 0)
(6.22633 0.178048 0)
(6.81361 0.299509 0)
(5.76604 0.19693 0)
(6.38594 0.330418 0)
(5.27219 0.217232 0)
(5.92378 0.363083 0)
(4.745 0.238732 0)
(5.42672 0.39697 0)
(4.18585 0.261026 0)
(4.89529 0.431226 0)
(3.59765 0.283478 0)
(4.3313 0.464603 0)
(2.98526 0.30519 0)
(3.73829 0.495403 0)
(2.35586 0.325054 0)
(3.12199 0.521486 0)
(1.71889 0.34253 0)
(2.49082 0.540527 0)
(1.08417 0.361862 0)
(1.85565 0.551641 0)
(0.451694 0.34863 0)
(1.24532 0.562987 0)
(-0.145898 0.10242 0)
(0.60876 0.544804 0)
(-0.423621 -0.207059 0)
(0.0946328 0.259315 0)
(-0.402141 -0.361194 0)
(-0.133748 -0.0205414 0)
(-0.119669 -0.393872 0)
(9.9964 0.05168 0)
(9.99704 0.0405115 0)
(9.95877 0.0708738 0)
(9.97849 0.0674678 0)
(9.8982 0.0880035 0)
(9.93375 0.0898895 0)
(9.81652 0.106005 0)
(9.86448 0.11358 0)
(9.7135 0.124946 0)
(9.7743 0.138545 0)
(9.58896 0.144881 0)
(9.66425 0.164681 0)
(9.44259 0.166119 0)
(9.53383 0.19237 0)
(9.27371 0.188998 0)
(9.38233 0.222071 0)
(9.08144 0.213814 0)
(9.20898 0.25419 0)
(8.86464 0.240846 0)
(9.01292 0.289106 0)
(8.62201 0.270366 0)
(8.79304 0.327194 0)
(8.35207 0.302634 0)
(8.54805 0.368825 0)
(8.05321 0.337881 0)
(8.2765 0.414352 0)
(7.72375 0.376282 0)
(7.97681 0.464077 0)
(7.36198 0.417917 0)
(7.64734 0.518213 0)
(6.96633 0.462717 0)
(7.28643 0.576823 0)
(6.53543 0.510389 0)
(6.89256 0.639734 0)
(6.06843 0.560328 0)
(6.46442 0.706426 0)
(5.56521 0.611507 0)
(6.00121 0.775897 0)
(5.02674 0.662363 0)
(5.50289 0.846501 0)
(4.45554 0.710679 0)
(4.97054 0.915773 0)
(3.85619 0.753504 0)
(4.40686 0.980263 0)
(3.23592 0.787154 0)
(3.81675 1.0354 0)
(2.60558 0.807454 0)
(3.2082 1.07542 0)
(1.9826 0.810415 0)
(2.59318 1.09308 0)
(1.40513 0.776834 0)
(1.99603 1.07701 0)
(0.929613 0.646328 0)
(1.41935 0.978321 0)
(0.43973 0.384244 0)
(0.937471 0.716729 0)
(0.0591139 -0.118682 0)
(0.443678 0.343444 0)
(0.174894 -0.335974 0)
(9.98902 0.0594436 0)
(9.99481 0.0458877 0)
(9.95432 0.0894972 0)
(9.97367 0.0848743 0)
(9.89725 0.11806 0)
(9.92981 0.119203 0)
(9.8204 0.147933 0)
(9.86352 0.154014 0)
(9.72407 0.179462 0)
(9.77728 0.190453 0)
(9.60809 0.21282 0)
(9.67216 0.228688 0)
(9.47219 0.248441 0)
(9.54796 0.269185 0)
(9.31589 0.286825 0)
(9.40414 0.312556 0)
(9.13846 0.328449 0)
(9.24014 0.359387 0)
(8.93899 0.373773 0)
(9.05525 0.410236 0)
(8.71636 0.423255 0)
(8.84862 0.465658 0)
(8.46928 0.47734 0)
(8.61921 0.526209 0)
(8.19633 0.536437 0)
(8.36582 0.592423 0)
(7.89596 0.600873 0)
(8.08716 0.66478 0)
(7.56654 0.670832 0)
(7.78182 0.74365 0)
(7.20644 0.746267 0)
(7.44834 0.829209 0)
(6.81417 0.826781 0)
(7.08529 0.921325 0)
(6.38849 0.911469 0)
(6.69131 1.0194 0)
(5.92866 0.998731 0)
(6.26533 1.12215 0)
(5.43478 1.08605 0)
(5.80675 1.22738 0)
(4.90821 1.16977 0)
(5.31573 1.33169 0)
(4.35213 1.24483 0)
(4.79366 1.43012 0)
(3.77232 1.30448 0)
(4.24369 1.5158 0)
(3.1785 1.33976 0)
(3.67157 1.57933 0)
(2.58644 1.33804 0)
(3.08612 1.60765 0)
(2.01971 1.27288 0)
(2.50276 1.58148 0)
(1.48682 1.09532 0)
(1.92861 1.46414 0)
(0.958215 0.769087 0)
(1.38515 1.2103 0)
(0.479821 0.202363 0)
(0.82948 0.800935 0)
(0.433692 0.133982 0)
(9.98515 0.0716316 0)
(9.99367 0.0531615 0)
(9.95037 0.113659 0)
(9.97086 0.102318 0)
(9.89433 0.154172 0)
(9.92688 0.147993 0)
(9.81876 0.195621 0)
(9.8618 0.193771 0)
(9.72433 0.238867 0)
(9.77738 0.241337 0)
(9.611 0.284387 0)
(9.67456 0.291232 0)
(9.47859 0.332788 0)
(9.55329 0.34403 0)
(9.32676 0.384745 0)
(9.41318 0.400452 0)
(9.155 0.440918 0)
(9.25379 0.461222 0)
(8.96265 0.501954 0)
(9.07459 0.527043 0)
(8.74887 0.568495 0)
(8.87492 0.598616 0)
(8.51272 0.641174 0)
(8.65399 0.676637 0)
(8.25311 0.720584 0)
(8.41089 0.761788 0)
(7.96889 0.807233 0)
(8.14463 0.854693 0)
(7.65879 0.901467 0)
(7.85416 0.955862 0)
(7.32153 1.00336 0)
(7.53835 1.0656 0)
(6.95581 1.11257 0)
(7.19606 1.18385 0)
(6.56045 1.22811 0)
(6.82613 1.31007 0)
(6.13451 1.34813 0)
(6.4275 1.44288 0)
(5.67749 1.46954 0)
(5.99929 1.57985 0)
(5.18967 1.5877 0)
(5.54099 1.717 0)
(4.67257 1.69594 0)
(5.05273 1.84844 0)
(4.12954 1.78504 0)
(4.53568 1.96572 0)
(3.56643 1.84241 0)
(3.99249 2.05718 0)
(2.99187 1.8506 0)
(3.4274 2.107 0)
(2.4157 1.78236 0)
(2.84748 2.09434 0)
(1.84044 1.60033 0)
(2.25611 1.98859 0)
(1.25932 1.27831 0)
(1.66023 1.7529 0)
(0.666738 0.789421 0)
(1.02392 1.36762 0)
(0.523017 0.78701 0)
(9.98336 0.0844302 0)
(9.99316 0.0613085 0)
(9.94819 0.136874 0)
(9.96957 0.11996 0)
(9.8931 0.188082 0)
(9.92572 0.176289 0)
(9.819 0.240231 0)
(9.86194 0.232761 0)
(9.72653 0.294539 0)
(9.77956 0.291162 0)
(9.61577 0.351739 0)
(9.67929 0.352359 0)
(9.48655 0.412556 0)
(9.56113 0.41707 0)
(9.33859 0.477766 0)
(9.42479 0.486107 0)
(9.17148 0.548142 0)
(9.26988 0.560306 0)
(8.98466 0.624444 0)
(9.09595 0.640489 0)
(8.77749 0.707429 0)
(8.90246 0.727467 0)
(8.54921 0.797842 0)
(8.68875 0.822049 0)
(8.29899 0.896393 0)
(8.45409 0.925024 0)
(8.02597 1.00371 0)
(8.1977 1.03712 0)
(7.72918 1.12024 0)
(7.91872 1.15897 0)
(7.40764 1.24618 0)
(7.61628 1.29096 0)
(7.06036 1.38127 0)
(7.28943 1.43316 0)
(6.68629 1.52456 0)
(6.93721 1.58509 0)
(6.28446 1.67414 0)
(6.55858 1.74546 0)
(5.85401 1.82671 0)
(6.15248 1.91181 0)
(5.39437 1.97715 0)
(5.71785 2.08006 0)
(4.90545 2.11793 0)
(5.25374 2.24396 0)
(4.38798 2.23847 0)
(4.75944 2.39446 0)
(3.84372 2.32439 0)
(4.2347 2.51903 0)
(3.27526 2.35679 0)
(3.67969 2.60106 0)
(2.68526 2.31043 0)
(3.09557 2.61952 0)
(2.07259 2.15484 0)
(2.48158 2.54714 0)
(1.42932 1.86724 0)
(1.83985 2.35354 0)
(0.742581 1.41941 0)
(1.13132 2.02435 0)
(0.543291 1.51432 0)
(9.98263 0.0975255 0)
(9.99299 0.0698133 0)
(9.94742 0.15982 0)
(9.96923 0.137623 0)
(9.8935 0.221409 0)
(9.92594 0.203985 0)
(9.82127 0.284167 0)
(9.86376 0.270763 0)
(9.73125 0.349435 0)
(9.78378 0.339672 0)
(9.62354 0.418117 0)
(9.68654 0.411799 0)
(9.49803 0.491044 0)
(9.57204 0.488015 0)
(9.35445 0.569084 0)
(9.44003 0.569224 0)
(9.19246 0.653116 0)
(9.29021 0.656357 0)
(9.01156 0.744008 0)
(9.12217 0.750337 0)
(8.8112 0.842622 0)
(8.93542 0.852077 0)
(8.59074 0.949806 0)
(8.72939 0.962479 0)
(8.34948 1.06637 0)
(8.50345 1.08242 0)
(8.08666 1.19303 0)
(8.25689 1.21273 0)
(7.80151 1.33035 0)
(7.98896 1.35411 0)
(7.49317 1.47862 0)
(7.69886 1.50707 0)
(7.16076 1.63768 0)
(7.38572 1.67178 0)
(6.8033 1.80672 0)
(7.04858 1.8479 0)
(6.4197 1.98391 0)
(6.68631 2.03431 0)
(6.00874 2.16604 0)
(6.29759 2.22875 0)
(5.56905 2.34798 0)
(5.8808 2.42736 0)
(5.09914 2.52206 0)
(5.43399 2.62411 0)
(4.59747 2.6774 0)
(4.95481 2.81011 0)
(4.06247 2.79931 0)
(4.44059 2.97302 0)
(3.49253 2.86891 0)
(3.88832 3.09641 0)
(2.8857 2.86272 0)
(3.29508 3.15968 0)
(2.23793 2.75373 0)
(2.6568 3.13769 0)
(1.54239 2.52084 0)
(1.97478 3.00298 0)
(0.793624 2.13115 0)
(1.20721 2.7404 0)
(0.556727 2.29163 0)
(9.9825 0.110659 0)
(9.99301 0.0783854 0)
(9.94768 0.182378 0)
(9.96952 0.155084 0)
(9.89518 0.25389 0)
(9.92719 0.230954 0)
(9.82517 0.326856 0)
(9.86691 0.307597 0)
(9.73804 0.402659 0)
(9.7897 0.386627 0)
(9.6339 0.48235 0)
(9.69594 0.469268 0)
(9.51269 0.566883 0)
(9.58564 0.556529 0)
(9.37418 0.657224 0)
(9.45861 0.649411 0)
(9.21804 0.754347 0)
(9.31458 0.748932 0)
(9.04386 0.859217 0)
(9.1532 0.856109 0)
(8.85113 0.97279 0)
(8.97403 0.971944 0)
(8.63927 1.096 0)
(8.77656 1.09743 0)
(8.40764 1.22975 0)
(8.5602 1.23354 0)
(8.15554 1.37483 0)
(8.32428 1.38118 0)
(7.88221 1.53192 0)
(8.06808 1.54116 0)
(7.58682 1.70141 0)
(7.79079 1.7141 0)
(7.26844 1.8833 0)
(7.49149 1.90033 0)
(6.92597 2.07694 0)
(7.16907 2.09969 0)
(6.55807 2.28078 0)
(6.82219 2.31133 0)
(6.16305 2.49194 0)
(6.44914 2.53339 0)
(5.73875 2.70569 0)
(6.04768 2.7625 0)
(5.28239 2.91481 0)
(5.61487 2.99328 0)
(4.79055 3.10895 0)
(5.14692 3.21763 0)
(4.25907 3.27397 0)
(4.63912 3.42403 0)
(3.68322 3.39162 0)
(4.08586 3.59688 0)
(3.05793 3.43944 0)
(3.48118 3.71627 0)
(2.37766 3.39156 0)
(2.81828 3.75787 0)
(1.63787 3.22595 0)
(2.09912 3.69374 0)
(0.839116 2.90064 0)
(1.27891 3.50425 0)
(0.57336 3.11349 0)
(9.98273 0.12362 0)
(9.99316 0.086845 0)
(9.94871 0.204371 0)
(9.97025 0.172147 0)
(9.8979 0.285336 0)
(9.92923 0.257054 0)
(9.83044 0.368069 0)
(9.87118 0.343089 0)
(9.74661 0.453973 0)
(9.79707 0.431799 0)
(9.64655 0.544213 0)
(9.70723 0.524489 0)
(9.53021 0.639854 0)
(9.60165 0.622287 0)
(9.39741 0.741954 0)
(9.48019 0.726288 0)
(9.24788 0.851572 0)
(9.34263 0.837593 0)
(9.08124 0.969763 0)
(9.18867 0.957303 0)
(8.89703 1.09757 0)
(9.01793 1.08651 0)
(8.69473 1.23602 0)
(8.82994 1.2263 0)
(8.47372 1.38611 0)
(8.62415 1.37772 0)
(8.23333 1.54873 0)
(8.39993 1.54181 0)
(7.97276 1.72467 0)
(8.15655 1.71948 0)
(7.69113 1.91448 0)
(7.89315 1.9115 0)
(7.38736 2.11835 0)
(7.60869 2.11838 0)
(7.06013 2.33592 0)
(7.30191 2.34027 0)
(6.70773 2.56603 0)
(6.97114 2.57669 0)
(6.32791 2.80635 0)
(6.61423 2.82631 0)
(5.91769 3.05287 0)
(6.22826 3.08653 0)
(5.47309 3.29931 0)
(5.80933 3.35295 0)
(4.98901 3.5364 0)
(5.3523 3.61871 0)
(4.4591 3.75113 0)
(4.8506 3.87369 0)
(3.87606 3.92617 0)
(4.29622 4.10362 0)
(3.23223 4.03957 0)
(3.68043 4.28936 0)
(2.52078 4.06472 0)
(2.99345 4.40647 0)
(1.73836 3.97589 0)
(2.23737 4.4243 0)
(0.889471 3.71853 0)
(1.36337 4.31605 0)
(0.598766 3.98467 0)
(9.9832 0.136247 0)
(9.99339 0.0950716 0)
(9.9503 0.225643 0)
(9.9713 0.18865 0)
(9.90147 0.315592 0)
(9.9319 0.282138 0)
(9.83687 0.407622 0)
(9.87638 0.377075 0)
(9.75674 0.503151 0)
(9.80571 0.474978 0)
(9.66122 0.603432 0)
(9.72018 0.577207 0)
(9.55029 0.709627 0)
(9.6198 0.684988 0)
(9.42382 0.822878 0)
(9.50445 0.799502 0)
(9.28158 0.944327 0)
(9.37398 0.921928 0)
(9.12326 1.07511 0)
(9.22815 1.05345 0)
(8.94845 1.21637 0)
(9.06663 1.19523 0)
(8.75667 1.36921 0)
(8.88901 1.34846 0)
(8.54734 1.53473 0)
(8.69479 1.51429 0)
(8.31979 1.71396 0)
(8.48336 1.69385 0)
(8.07321 1.90783 0)
(8.25401 1.88822 0)
(7.80662 2.11707 0)
(8.00584 2.09834 0)
(7.5188 2.34216 0)
(7.73771 2.325 0)
(7.20815 2.58311 0)
(7.44818 2.56866 0)
(6.87259 2.83928 0)
(7.1353 2.82937 0)
(6.50929 3.10911 0)
(6.79648 3.10649 0)
(6.11443 3.38958 0)
(6.42818 3.39841 0)
(5.68292 3.67575 0)
(6.02559 3.70203 0)
(5.20806 3.95989 0)
(5.5823 4.01216 0)
(4.68141 4.23064 0)
(5.08992 4.3206 0)
(4.09302 4.47196 0)
(4.53796 4.61499 0)
(3.43233 4.66219 0)
(3.91448 4.87747 0)
(2.69003 4.77283 0)
(3.20555 5.0832 0)
(1.8618 4.77211 0)
(2.41122 5.19763 0)
(0.954165 4.58947 0)
(1.47627 5.18403 0)
(0.639199 4.91922 0)
(9.98385 0.148418 0)
(9.99368 0.102979 0)
(9.95233 0.246051 0)
(9.97259 0.204463 0)
(9.90574 0.344508 0)
(9.93507 0.30607 0)
(9.8443 0.445332 0)
(9.88236 0.409399 0)
(9.76823 0.549968 0)
(9.81543 0.515971 0)
(9.67766 0.659735 0)
(9.73459 0.627188 0)
(9.57263 0.775879 0)
(9.63983 0.744354 0)
(9.45305 0.89962 0)
(9.5311 0.868727 0)
(9.31875 1.03217 0)
(9.40828 1.00156 0)
(9.16947 1.17476 0)
(9.27122 1.1441 0)
(9.00487 1.3286 0)
(9.11965 1.2976 0)
(8.82452 1.4949 0)
(8.95322 1.46334 0)
(8.6279 1.67487 0)
(8.7715 1.64256 0)
(8.41436 1.86968 0)
(8.57394 1.83653 0)
(8.18309 2.08044 0)
(8.35985 2.04649 0)
(7.93305 2.30811 0)
(8.12833 2.27359 0)
(7.6629 2.55351 0)
(7.87821 2.51892 0)
(7.37085 2.81713 0)
(7.60793 2.78338 0)
(7.05448 3.099 0)
(7.31537 3.0676 0)
(6.71046 3.39846 0)
(6.9976 3.3718 0)
(6.33429 3.71382 0)
(6.65061 3.69554 0)
(5.91979 4.04177 0)
(6.26887 4.03734 0)
(5.45878 4.37668 0)
(5.84484 4.39413 0)
(4.94066 4.70946 0)
(5.36841 4.76027 0)
(4.3524 5.02609 0)
(4.82642 5.12625 0)
(3.67937 5.30574 0)
(4.20291 5.47656 0)
(2.90738 5.51778 0)
(3.47774 5.787 0)
(2.02761 5.62267 0)
(2.64497 6.0191 0)
(1.04509 5.52917 0)
(1.63772 6.12361 0)
(0.70449 5.94282 0)
(9.98464 0.160036 0)
(9.99402 0.110501 0)
(9.95471 0.265471 0)
(9.97407 0.219476 0)
(9.91061 0.371942 0)
(9.93864 0.328724 0)
(9.85259 0.481034 0)
(9.88899 0.43992 0)
(9.7809 0.594221 0)
(9.8261 0.554607 0)
(9.69567 0.712879 0)
(9.75026 0.674224 0)
(9.59698 0.838324 0)
(9.6615 0.800137 0)
(9.48479 0.971845 0)
(9.55982 0.933672 0)
(9.359 1.11473 0)
(9.44518 1.07614 0)
(9.21941 1.26826 0)
(9.31746 1.22887 0)
(9.06575 1.43375 0)
(9.17648 1.39317 0)
(8.89768 1.6125 0)
(9.02199 1.5704 0)
(8.71474 1.80583 0)
(8.85363 1.76191 0)
(8.51633 2.01506 0)
(8.67094 1.9691 0)
(8.30169 2.24149 0)
(8.47328 2.19337 0)
(8.06979 2.48638 0)
(8.25984 2.43613 0)
(7.81926 2.75092 0)
(8.02947 2.69877 0)
(7.54819 3.03614 0)
(7.78063 2.98267 0)
(7.254 3.34285 0)
(7.51114 3.28913 0)
(6.93305 3.67149 0)
(7.218 3.61932 0)
(6.58035 4.02188 0)
(6.89697 3.97413 0)
(6.18894 4.39276 0)
(6.54212 4.35398 0)
(5.74933 4.78117 0)
(6.14517 4.75836 0)
(5.24878 5.18123 0)
(5.69464 5.18503 0)
(4.67071 5.58228 0)
(5.17476 5.62865 0)
(3.99479 5.96604 0)
(4.56491 6.07822 0)
(3.19841 6.30126 0)
(3.83629 6.51304 0)
(2.26182 6.54031 0)
(2.97089 6.8936 0)
(1.18066 6.56483 0)
(1.87925 7.15753 0)
(0.812886 7.09921 0)
(9.98553 0.171024 0)
(9.99439 0.117589 0)
(9.95736 0.283797 0)
(9.97571 0.233603 0)
(9.91596 0.397769 0)
(9.94255 0.349991 0)
(9.86162 0.514578 0)
(9.89618 0.46851 0)
(9.79458 0.63573 0)
(9.83756 0.590731 0)
(9.71502 0.762649 0)
(9.76701 0.718129 0)
(9.62306 0.896708 0)
(9.68459 0.852119 0)
(9.51871 1.03926 0)
(9.59034 0.994082 0)
(9.40192 1.19164 0)
(9.4843 1.14538 0)
(9.2726 1.35521 0)
(9.36642 1.3074 0)
(9.13055 1.53135 0)
(9.23661 1.48152 0)
(8.97551 1.72145 0)
(9.09471 1.66915 0)
(8.80713 1.92693 0)
(8.94047 1.87177 0)
(8.6249 2.14928 0)
(8.77353 2.09086 0)
(8.42816 2.38999 0)
(8.5934 2.32801 0)
(8.21596 2.65062 0)
(8.39936 2.58486 0)
(7.987 2.93275 0)
(8.19043 2.86313 0)
(7.73946 3.23801 0)
(7.9652 3.16467 0)
(7.47076 3.56803 0)
(7.72167 3.49146 0)
(7.17728 3.92446 0)
(7.45698 3.84565 0)
(6.85388 4.30879 0)
(7.16708 4.22958 0)
(6.49329 4.72219 0)
(6.84616 4.64569 0)
(6.08525 5.16498 0)
(6.48589 5.09644 0)
(5.61531 5.63567 0)
(6.07423 5.58381 0)
(5.0634 6.12914 0)
(5.59372 6.10832 0)
(4.40219 6.6331 0)
(5.01949 6.66679 0)
(3.59625 7.12062 0)
(4.31265 7.24779 0)
(2.60452 7.5402 0)
(3.43594 7.81959 0)
(1.39447 7.74021 0)
(2.25679 8.31471 0)
(1.00283 8.46501 0)
(9.9865 0.181319 0)
(9.9948 0.124202 0)
(9.96024 0.30094 0)
(9.97746 0.246771 0)
(9.92172 0.42188 0)
(9.94673 0.36978 0)
(9.87126 0.545833 0)
(9.90382 0.495058 0)
(9.80912 0.674338 0)
(9.84968 0.624213 0)
(9.73553 0.808857 0)
(9.78466 0.758747 0)
(9.65061 0.95081 0)
(9.70885 0.900115 0)
(9.55447 1.1016 0)
(9.62236 1.04974 0)
(9.44713 1.26261 0)
(9.52528 1.20903 0)
(9.32856 1.43525 0)
(9.41766 1.3794 0)
(9.19867 1.62097 0)
(9.2995 1.5623 0)
(9.05732 1.82123 0)
(9.17073 1.75919 0)
(8.90427 2.03756 0)
(9.03125 1.97162 0)
(8.73915 2.27158 0)
(8.88084 2.20119 0)
(8.56145 2.52498 0)
(8.71916 2.44962 0)
(8.3704 2.79958 0)
(8.54571 2.71877 0)
(8.16489 3.09736 0)
(8.35973 3.01065 0)
(7.94335 3.42051 0)
(8.16012 3.32755 0)
(7.7035 3.7715 0)
(7.94524 3.67207 0)
(7.44204 4.15315 0)
(7.71273 4.04729 0)
(7.15424 4.56872 0)
(7.45914 4.45689 0)
(6.83324 5.02196 0)
(7.17948 4.90537 0)
(6.46898 5.51698 0)
(6.86636 5.39825 0)
(6.0466 6.05794 0)
(6.50874 5.94224 0)
(5.54386 6.64788 0)
(6.08967 6.54526 0)
(4.92712 7.28613 0)
(5.58302 7.21577 0)
(4.14529 7.96066 0)
(4.94273 7.96055 0)
(3.12223 8.63308 0)
(4.10986 8.77485 0)
(1.75667 9.12777 0)
(2.87919 9.6206 0)
(1.36527 10.1856 0)
(9.98753 0.190871 0)
(9.99522 0.130311 0)
(9.9633 0.316824 0)
(9.97931 0.258923 0)
(9.92781 0.444182 0)
(9.95112 0.388013 0)
(9.8814 0.574688 0)
(9.91182 0.519473 0)
(9.82437 0.709914 0)
(9.86234 0.654942 0)
(9.75697 0.851353 0)
(9.80304 0.795947 0)
(9.67938 1.00046 0)
(9.73408 0.94397 0)
(9.59176 1.15866 0)
(9.6556 1.10046 0)
(9.49421 1.3274 0)
(9.56777 1.26687 0)
(9.38679 1.50812 0)
(9.47073 1.44463 0)
(9.26953 1.7023 0)
(9.36458 1.63523 0)
(9.1424 1.91147 0)
(9.24939 1.84017 0)
(9.00531 2.13726 0)
(9.12517 2.06105 0)
(8.85807 2.38137 0)
(8.99189 2.29957 0)
(8.70037 2.64566 0)
(8.84942 2.55754 0)
(8.5317 2.9322 0)
(8.69751 2.83698 0)
(8.35129 3.24328 0)
(8.53573 3.14016 0)
(8.15797 3.5816 0)
(8.36341 3.46968 0)
(7.95 3.95034 0)
(8.17947 3.82867 0)
(7.72485 4.35338 0)
(7.98234 4.22093 0)
(7.47877 4.79558 0)
(7.76967 4.65126 0)
(7.20622 5.28312 0)
(7.53796 5.12586 0)
(6.89883 5.82401 0)
(7.282 5.65294 0)
(6.54364 6.4286 0)
(6.99382 6.24364 0)
(6.11994 7.11034 0)
(6.66073 6.91351 0)
(5.593 7.88643 0)
(6.26218 7.68482 0)
(4.9013 8.77681 0)
(5.75777 8.59115 0)
(3.92773 9.80087 0)
(5.08823 9.68389 0)
(2.4342 10.857 0)
(3.98109 11.0489 0)
(2.1476 12.5697 0)
(9.98861 0.199641 0)
(9.99567 0.13589 0)
(9.9665 0.331389 0)
(9.98122 0.270013 0)
(9.93415 0.464592 0)
(9.95567 0.404629 0)
(9.89194 0.601038 0)
(9.9201 0.541679 0)
(9.84019 0.742323 0)
(9.87543 0.68283 0)
(9.77916 0.889962 0)
(9.82203 0.829625 0)
(9.70911 1.04543 0)
(9.7601 0.983565 0)
(9.63025 1.2102 0)
(9.68987 1.14612 0)
(9.54275 1.38571 0)
(9.61156 1.31875 0)
(9.44679 1.57343 0)
(9.52542 1.50291 0)
(9.3425 1.77489 0)
(9.43164 1.70009 0)
(9.22999 1.99165 0)
(9.33042 1.91184 0)
(9.10934 2.22538 0)
(9.22195 2.13977 0)
(8.98057 2.47787 0)
(9.10638 2.38561 0)
(8.84361 2.75109 0)
(8.98381 2.65127 0)
(8.69828 3.04727 0)
(8.85432 2.93884 0)
(8.54423 3.36895 0)
(8.71786 3.25074 0)
(8.38087 3.71917 0)
(8.57428 3.58979 0)
(8.20723 4.10162 0)
(8.42325 3.95942 0)
(8.02188 4.52098 0)
(8.2642 4.36388 0)
(7.82262 4.98328 0)
(8.09622 4.80865 0)
(7.60619 5.49657 0)
(7.91797 5.30094 0)
(7.36758 6.07188 0)
(7.72748 5.85064 0)
(7.09889 6.72489 0)
(7.52192 6.47165 0)
(6.78701 7.47882 0)
(7.29707 7.18457 0)
(6.40844 8.37045 0)
(7.04754 8.0218 0)
(5.91622 9.46437 0)
(6.76325 9.03989 0)
(5.19778 10.9072 0)
(6.46344 10.3547 0)
(3.88706 13.1802 0)
(6.19389 12.3023 0)
(5.26734 16.3769 0)
(0.260711 -0.167985 0)
(0.148492 -0.25535 0)
(0.50344 -0.142865 0)
(0.355659 -0.232123 0)
(0.711126 -0.116166 0)
(0.567133 -0.193921 0)
(0.886858 -0.0941002 0)
(0.754797 -0.160208 0)
(1.03636 -0.0766384 0)
(0.913724 -0.133077 0)
(1.16461 -0.0628469 0)
(1.04906 -0.111463 0)
(1.27568 -0.0519218 0)
(1.16642 -0.0942512 0)
(1.37284 -0.0432135 0)
(1.26977 -0.0805051 0)
(1.4586 -0.036183 0)
(1.36179 -0.0693788 0)
(1.53481 -0.0304053 0)
(1.44434 -0.0601895 0)
(1.60282 -0.0255291 0)
(1.51883 -0.052452 0)
(1.66355 -0.0211654 0)
(1.58633 -0.045727 0)
(1.71706 -0.016807 0)
(1.64759 -0.039341 0)
(1.76204 -0.0119859 0)
(1.70253 -0.0322935 0)
(1.79617 -0.00668291 0)
(1.74979 -0.0239226 0)
(1.81798 -0.0015589 0)
(1.7871 -0.0149207 0)
(1.82869 0.00242058 0)
(1.81318 -0.00715711 0)
(1.831 0.00485374 0)
(1.82973 -0.00151029 0)
(1.82565 0.00614279 0)
(1.8398 0.00340875 0)
(1.81326 0.00688354 0)
(1.84438 0.00770946 0)
(1.79565 0.00713314 0)
(1.8418 0.0106887 0)
(1.77845 0.00693529 0)
(1.83491 0.0101985 0)
(1.76675 0.0064694 0)
(1.82911 0.00677302 0)
(1.7651 0.00506251 0)
(1.82799 0.000936973 0)
(1.77494 0.00241364 0)
(1.83261 -0.0054326 0)
(1.79706 -0.0011524 0)
(1.84379 -0.0119172 0)
(1.83099 -0.0056418 0)
(1.86117 -0.0178536 0)
(1.87623 -0.0106837 0)
(1.88437 -0.02324 0)
(1.93044 -0.0144583 0)
(1.91332 -0.0271909 0)
(1.95535 -0.0253475 0)
(0.221408 -0.361995 0)
(0.110727 -0.472206 0)
(0.436679 -0.319282 0)
(0.294302 -0.437988 0)
(0.624795 -0.266249 0)
(0.469201 -0.369569 0)
(0.786609 -0.220894 0)
(0.626093 -0.307728 0)
(0.926964 -0.184677 0)
(0.760113 -0.258012 0)
(1.05013 -0.155988 0)
(0.875654 -0.218504 0)
(1.15946 -0.133208 0)
(0.976955 -0.187033 0)
(1.25757 -0.114959 0)
(1.067 -0.161795 0)
(1.34637 -0.100095 0)
(1.14781 -0.141216 0)
(1.42725 -0.0877598 0)
(1.22075 -0.12407 0)
(1.50133 -0.0773065 0)
(1.28674 -0.109583 0)
(1.56967 -0.0679739 0)
(1.34662 -0.0971848 0)
(1.63298 -0.0585545 0)
(1.40132 -0.0858935 0)
(1.69078 -0.0477658 0)
(1.45163 -0.0737781 0)
(1.74098 -0.035495 0)
(1.49712 -0.0591106 0)
(1.78142 -0.0234013 0)
(1.53565 -0.0425925 0)
(1.81243 -0.0129287 0)
(1.56391 -0.027878 0)
(1.83754 -0.00318543 0)
(1.58265 -0.0178919 0)
(1.85794 0.00619964 0)
(1.59886 -0.00958549 0)
(1.87229 0.0126314 0)
(1.60535 -0.00121774 0)
(1.87879 0.0135845 0)
(1.59618 0.00674168 0)
(1.88358 0.00884737 0)
(1.57273 0.00735821 0)
(1.8887 0.000129515 0)
(1.54051 0.00380736 0)
(1.89419 -0.0100988 0)
(1.50491 -0.0021661 0)
(1.90103 -0.0198688 0)
(1.4707 -0.00920565 0)
(1.90759 -0.0281231 0)
(1.44241 -0.0154528 0)
(1.9141 -0.0345443 0)
(1.42458 -0.0212793 0)
(1.92143 -0.0386565 0)
(1.41206 -0.0270057 0)
(1.93116 -0.0385773 0)
(1.4103 -0.032071 0)
(1.43036 -0.0359202 0)
(0.17356 -0.558153 0)
(0.0769879 -0.642198 0)
(0.338623 -0.498167 0)
(0.21985 -0.595838 0)
(0.481353 -0.420075 0)
(0.340224 -0.502839 0)
(0.60378 -0.352474 0)
(0.450238 -0.419341 0)
(0.709675 -0.298089 0)
(0.542121 -0.352273 0)
(0.802149 -0.254667 0)
(0.620464 -0.298875 0)
(0.883744 -0.219853 0)
(0.687944 -0.256273 0)
(0.956357 -0.191588 0)
(0.746524 -0.221958 0)
(1.02127 -0.168177 0)
(0.797631 -0.19373 0)
(1.07929 -0.148455 0)
(0.842153 -0.169898 0)
(1.13108 -0.131751 0)
(0.880431 -0.149521 0)
(1.17761 -0.117335 0)
(0.912554 -0.132227 0)
(1.22024 -0.103347 0)
(0.939099 -0.117235 0)
(1.2591 -0.0868394 0)
(0.961403 -0.101673 0)
(1.29231 -0.066524 0)
(0.981286 -0.0823848 0)
(1.31643 -0.0469768 0)
(0.999286 -0.0590991 0)
(1.33187 -0.0349613 0)
(1.00754 -0.038195 0)
(1.34394 -0.0288076 0)
(0.980219 -0.0257669 0)
(1.34552 -0.0206421 0)
(0.938086 -0.0105909 0)
(1.32768 -0.00924073 0)
(0.899307 0.00987806 0)
(1.28714 0.000203156 0)
(0.85539 0.0313592 0)
(1.22716 0.00444318 0)
(0.79912 0.0429218 0)
(1.15512 0.00407076 0)
(0.734963 0.0455105 0)
(1.08035 0.00177003 0)
(0.668928 0.0400991 0)
(1.01215 -0.00102488 0)
(0.608597 0.0284288 0)
(0.959497 -0.00451006 0)
(0.559577 0.0129208 0)
(0.921413 -0.00931437 0)
(0.531947 -0.00124238 0)
(0.900399 -0.0161961 0)
(0.522729 -0.0162108 0)
(0.903404 -0.0258962 0)
(0.529677 -0.0335781 0)
(0.569004 -0.0519368 0)
(0.123269 -0.694869 0)
(0.0450317 -0.762932 0)
(0.230296 -0.615803 0)
(0.138251 -0.698189 0)
(0.31834 -0.517413 0)
(0.195176 -0.585047 0)
(0.392239 -0.43355 0)
(0.251916 -0.486712 0)
(0.454391 -0.366169 0)
(0.293491 -0.407597 0)
(0.50661 -0.312268 0)
(0.326138 -0.344259 0)
(0.550557 -0.268966 0)
(0.350654 -0.293566 0)
(0.587478 -0.233665 0)
(0.368146 -0.252548 0)
(0.618146 -0.204149 0)
(0.379609 -0.21854 0)
(0.642777 -0.17885 0)
(0.385725 -0.189353 0)
(0.66116 -0.157063 0)
(0.386503 -0.163698 0)
(0.673443 -0.13868 0)
(0.381124 -0.141477 0)
(0.681583 -0.122826 0)
(0.367906 -0.123219 0)
(0.687095 -0.107014 0)
(0.342646 -0.105629 0)
(0.690873 -0.0876884 0)
(0.31212 -0.0850331 0)
(0.685749 -0.0615709 0)
(0.277608 -0.0555928 0)
(0.650252 -0.0306938 0)
(0.239601 -0.0144767 0)
(0.577107 -0.00218915 0)
(0.19101 0.0219528 0)
(0.493865 0.0242168 0)
(0.123872 0.0424332 0)
(0.422487 0.049672 0)
(0.0694535 0.0542711 0)
(0.361261 0.0680946 0)
(0.023564 0.0685391 0)
(0.302135 0.0762082 0)
(-0.0211913 0.0779782 0)
(0.245707 0.0738467 0)
(-0.0621504 0.0781771 0)
(0.195419 0.0614567 0)
(-0.0975789 0.0685234 0)
(0.155921 0.0407093 0)
(-0.12549 0.050227 0)
(0.132539 0.0159851 0)
(-0.145057 0.0255205 0)
(0.131339 -0.00818021 0)
(-0.150996 -0.000611036 0)
(0.151063 -0.0331273 0)
(-0.137557 -0.0263431 0)
(0.189364 -0.0592029 0)
(-0.118551 -0.0527883 0)
(-0.0868849 -0.0729075 0)
(0.0667082 -0.776699 0)
(0.0118927 -0.828268 0)
(0.109537 -0.677688 0)
(0.0477925 -0.739146 0)
(0.137539 -0.563984 0)
(0.0363349 -0.611194 0)
(0.156692 -0.469332 0)
(0.0348887 -0.504173 0)
(0.167719 -0.393007 0)
(0.0202803 -0.417412 0)
(0.171535 -0.331704 0)
(0.000553687 -0.347575 0)
(0.16899 -0.282343 0)
(-0.0250858 -0.291407 0)
(0.160856 -0.242065 0)
(-0.0560314 -0.245808 0)
(0.147744 -0.208296 0)
(-0.0916938 -0.207933 0)
(0.129866 -0.178901 0)
(-0.131458 -0.175231 0)
(0.106518 -0.152308 0)
(-0.174793 -0.145692 0)
(0.0751025 -0.127209 0)
(-0.22142 -0.117821 0)
(0.0305686 -0.102009 0)
(-0.272163 -0.0904776 0)
(-0.0274204 -0.074252 0)
(-0.331567 -0.064002 0)
(-0.0973284 -0.0403109 0)
(-0.394112 -0.036035 0)
(-0.171094 -0.000714223 0)
(-0.456037 -0.00511202 0)
(-0.227135 0.0342112 0)
(-0.507945 0.0229683 0)
(-0.263285 0.0556146 0)
(-0.538452 0.045537 0)
(-0.297437 0.0675125 0)
(-0.570658 0.0641876 0)
(-0.334709 0.0779174 0)
(-0.599228 0.0774524 0)
(-0.366527 0.086744 0)
(-0.623011 0.0878604 0)
(-0.391456 0.0886518 0)
(-0.641702 0.0927593 0)
(-0.409782 0.0808569 0)
(-0.654337 0.088786 0)
(-0.421681 0.0637444 0)
(-0.661499 0.0752495 0)
(-0.427461 0.0395204 0)
(-0.664328 0.0534167 0)
(-0.427918 0.0113801 0)
(-0.6645 0.0257668 0)
(-0.421284 -0.0176522 0)
(-0.662195 -0.00410153 0)
(-0.407905 -0.0454406 0)
(-0.652348 -0.033216 0)
(-0.3933 -0.0686477 0)
(-0.644995 -0.0601137 0)
(-0.641487 -0.0801908 0)
(-0.00100864 -0.795197 0)
(-0.0256693 -0.82728 0)
(-0.0228751 -0.676406 0)
(-0.0529503 -0.718235 0)
(-0.0575186 -0.55169 0)
(-0.131495 -0.578846 0)
(-0.0976163 -0.45058 0)
(-0.195368 -0.467618 0)
(-0.143325 -0.368676 0)
(-0.267432 -0.376725 0)
(-0.193782 -0.302749 0)
(-0.340589 -0.303722 0)
(-0.248579 -0.249321 0)
(-0.415156 -0.244907 0)
(-0.307363 -0.205185 0)
(-0.490193 -0.197103 0)
(-0.369752 -0.167567 0)
(-0.564916 -0.157462 0)
(-0.435011 -0.134357 0)
(-0.638634 -0.123685 0)
(-0.501757 -0.104123 0)
(-0.710608 -0.0942168 0)
(-0.568251 -0.075949 0)
(-0.779864 -0.0677503 0)
(-0.632817 -0.0495771 0)
(-0.845253 -0.0430083 0)
(-0.694927 -0.0248189 0)
(-0.905182 -0.0194164 0)
(-0.750242 -0.0012892 0)
(-0.957832 0.00273486 0)
(-0.79203 0.0211808 0)
(-1.00046 0.0234852 0)
(-0.823207 0.0433683 0)
(-1.03116 0.0438 0)
(-0.849863 0.0642298 0)
(-1.05714 0.0629277 0)
(-0.871956 0.0800169 0)
(-1.07802 0.0782604 0)
(-0.890537 0.0901211 0)
(-1.09409 0.0890089 0)
(-0.903168 0.0951858 0)
(-1.10444 0.0955303 0)
(-0.909025 0.0931484 0)
(-1.10885 0.0962318 0)
(-0.90957 0.0824516 0)
(-1.10809 0.0891019 0)
(-0.906804 0.0634668 0)
(-1.10392 0.0736861 0)
(-0.902565 0.038027 0)
(-1.09849 0.0510769 0)
(-0.898137 0.00893914 0)
(-1.09375 0.0233807 0)
(-0.893637 -0.0209436 0)
(-1.09026 -0.00646871 0)
(-0.889049 -0.0492336 0)
(-1.08634 -0.0355728 0)
(-0.884397 -0.0727371 0)
(-1.08669 -0.0624471 0)
(-1.08963 -0.0829567 0)
(-0.0673149 -0.74427 0)
(-0.0692709 -0.761349 0)
(-0.160982 -0.611069 0)
(-0.160238 -0.62866 0)
(-0.259492 -0.483213 0)
(-0.302186 -0.486866 0)
(-0.360375 -0.381336 0)
(-0.426751 -0.375646 0)
(-0.460742 -0.299698 0)
(-0.549897 -0.287385 0)
(-0.559418 -0.234665 0)
(-0.666785 -0.217962 0)
(-0.655058 -0.182801 0)
(-0.77677 -0.163748 0)
(-0.746472 -0.141039 0)
(-0.879196 -0.121362 0)
(-0.832673 -0.106632 0)
(-0.973628 -0.087728 0)
(-0.913187 -0.0774198 0)
(-1.05991 -0.0600903 0)
(-0.987786 -0.0519443 0)
(-1.13711 -0.0366846 0)
(-1.05592 -0.0292178 0)
(-1.20528 -0.0164467 0)
(-1.11599 -0.0086212 0)
(-1.26488 0.00115327 0)
(-1.16609 0.0102942 0)
(-1.31582 0.0165483 0)
(-1.20656 0.0282113 0)
(-1.358 0.0311019 0)
(-1.23972 0.0457643 0)
(-1.39254 0.0461811 0)
(-1.26647 0.0627133 0)
(-1.42071 0.0616727 0)
(-1.28653 0.0776014 0)
(-1.4422 0.0760166 0)
(-1.30074 0.088759 0)
(-1.45739 0.0873089 0)
(-1.30974 0.0954491 0)
(-1.46681 0.0946045 0)
(-1.31301 0.0969962 0)
(-1.47054 0.0975153 0)
(-1.31083 0.0920414 0)
(-1.46899 0.0949429 0)
(-1.30492 0.0796613 0)
(-1.46343 0.0856825 0)
(-1.29748 0.0601993 0)
(-1.45582 0.0694774 0)
(-1.29047 0.0351663 0)
(-1.44832 0.0472065 0)
(-1.28532 0.00687224 0)
(-1.44282 0.0206081 0)
(-1.28273 -0.0222047 0)
(-1.44015 -0.00783375 0)
(-1.2822 -0.0499997 0)
(-1.44017 -0.035841 0)
(-1.28296 -0.0733383 0)
(-1.44454 -0.0620684 0)
(-1.44936 -0.0819326 0)
(-0.139471 -0.627409 0)
(-0.118753 -0.624746 0)
(-0.299195 -0.486265 0)
(-0.270327 -0.475915 0)
(-0.458423 -0.362296 0)
(-0.47111 -0.338192 0)
(-0.610589 -0.267435 0)
(-0.647568 -0.236921 0)
(-0.751979 -0.194759 0)
(-0.810706 -0.161529 0)
(-0.881706 -0.139013 0)
(-0.957235 -0.105214 0)
(-0.99934 -0.0960469 0)
(-1.08538 -0.0639269 0)
(-1.10527 -0.0628052 0)
(-1.19705 -0.0335901 0)
(-1.19993 -0.036812 0)
(-1.29418 -0.0111571 0)
(-1.28291 -0.0162385 0)
(-1.37852 0.00545651 0)
(-1.35389 0.000340772 0)
(-1.45133 0.0180522 0)
(-1.41356 0.0142561 0)
(-1.51387 0.028488 0)
(-1.4636 0.0266686 0)
(-1.56722 0.0379431 0)
(-1.50634 0.038698 0)
(-1.61276 0.0472269 0)
(-1.54311 0.0511393 0)
(-1.65184 0.0568748 0)
(-1.5736 0.0639885 0)
(-1.68433 0.0670495 0)
(-1.59718 0.0763416 0)
(-1.71004 0.0774285 0)
(-1.61379 0.0867541 0)
(-1.72893 0.0868486 0)
(-1.62412 0.0939579 0)
(-1.7414 0.0938893 0)
(-1.6289 0.0971787 0)
(-1.74804 0.097577 0)
(-1.62847 0.0956748 0)
(-1.74936 0.0972582 0)
(-1.62368 0.088518 0)
(-1.74618 0.092104 0)
(-1.61622 0.0751484 0)
(-1.73989 0.08136 0)
(-1.60812 0.0558787 0)
(-1.73235 0.0649023 0)
(-1.60132 0.0319371 0)
(-1.72557 0.043452 0)
(-1.59731 0.00522498 0)
(-1.72134 0.0184449 0)
(-1.59687 -0.022228 0)
(-1.72071 -0.00806424 0)
(-1.59955 -0.0487182 0)
(-1.72432 -0.0344619 0)
(-1.60484 -0.0709658 0)
(-1.73188 -0.0594174 0)
(-1.73779 -0.077605 0)
(-0.214559 -0.449551 0)
(-0.177271 -0.414599 0)
(-0.436664 -0.311589 0)
(-0.392989 -0.263514 0)
(-0.649071 -0.20263 0)
(-0.645531 -0.139864 0)
(-0.841985 -0.123239 0)
(-0.854786 -0.0610478 0)
(-1.01245 -0.0652785 0)
(-1.03581 -0.00979068 0)
(-1.15858 -0.0250202 0)
(-1.18972 0.0217836 0)
(-1.28172 0.00152243 0)