/*--------------------------------*- C++ -*----------------------------------*\
  =========                 |
  \\      /  F ield         | OpenFOAM: The Open Source CFD Toolbox
   \\    /   O peration     | Website:  https://openfoam.org
    \\  /    A nd           | Version:  7
     \\/     M anipulation  |
\*---------------------------------------------------------------------------*/
FoamFile
{
    version     2.0;
    format      ascii;
    class       volScalarField;
    location    "3.8";
    object      p;
}
// * * * * * * * * * * * * * * * * * * * * * * * * * * * * * * * * * * * * * //

dimensions      [0 2 -2 0 0 0 0];

internalField   nonuniform List<scalar> 
2790
(
147.31
147.217
147.484
148.055
148.835
149.793
150.925
152.232
153.708
155.349
157.149
159.099
161.193
163.418
165.758
168.194
170.698
173.237
175.769
178.243
180.601
182.779
184.71
186.33
187.59
188.464
188.9
188.956
189.007
189.219
147.107
147.125
147.417
147.985
148.761
149.715
150.843
152.144
153.613
155.246
157.036
158.976
161.059
163.273
165.602
168.028
170.524
173.057
175.587
178.065
180.434
182.629
184.583
186.232
187.516
188.391
188.788
188.842
188.975
189.26
146.908
146.996
147.307
147.865
148.628
149.57
150.683
151.965
153.413
155.021
156.783
158.692
160.74
162.915
165.204
167.586
170.038
172.528
175.02
177.468
179.817
182.01
183.983
185.672
187.023
187.999
188.592
188.948
189.263
189.562
146.683
146.802
147.126
147.675
148.423
149.348
150.442
151.7
153.119
154.693
156.417
158.282
160.281
162.401
164.63
166.947
169.332
171.755
174.182
176.572
178.88
181.051
183.033
184.773
186.227
187.379
188.247
188.918
189.471
189.99
146.422
146.555
146.887
147.429
148.161
149.065
150.133
151.359
152.741
154.273
155.947
157.756
159.692
161.742
163.894
166.13
168.428
170.763
173.104
175.417
177.662
179.797
181.78
183.57
185.141
186.483
187.614
188.576
189.387
190.134
146.122
146.26
146.594
147.126
147.838
148.716
149.752
150.941
152.279
153.758
155.373
157.116
158.977
160.945
163.006
165.144
167.339
169.568
171.805
174.02
176.182
178.26
180.222
182.043
183.706
185.207
186.554
187.759
188.779
189.698
145.779
145.918
146.25
146.768
147.458
148.306
149.305
150.45
151.736
153.156
154.703
156.368
158.143
160.016
161.973
163.999
166.075
168.181
170.293
172.389
174.444
176.435
178.343
180.153
181.859
183.46
184.954
186.333
187.497
188.544
145.394
145.532
145.856
146.358
147.022
147.835
148.793
149.888
151.116
152.469
153.939
155.519
157.197
158.963
160.804
162.703
164.644
166.608
168.575
170.527
172.444
174.312
176.119
177.861
179.539
181.158
182.713
184.185
185.435
186.586
144.968
145.102
145.415
145.898
146.533
147.309
148.22
149.26
150.424
151.703
153.089
154.573
156.146
157.794
159.505
161.263
163.052
164.856
166.655
168.434
170.177
171.875
173.523
175.123
176.684
178.219
179.728
181.198
182.469
183.708
144.502
144.63
144.93
145.391
145.993
146.728
147.589
148.57
149.664
150.862
152.157
153.538
154.995
156.515
158.085
159.689
161.31
162.932
164.538
166.112
167.64
169.114
170.532
171.9
173.232
174.551
175.871
177.209
178.409
179.714
143.996
144.118
144.403
144.839
145.407
146.097
146.904
147.821
148.84
149.953
151.15
152.421
153.755
155.137
156.555
157.991
159.428
160.849
162.236
163.57
164.838
166.028
167.135
168.162
169.126
170.055
170.985
171.983
172.945
174.264
143.454
143.569
143.837
144.245
144.776
145.42
146.17
147.019
147.959
148.981
150.075
151.23
152.433
153.67
154.925
156.182
157.42
158.621
159.763
160.825
161.786
162.629
163.337
163.902
164.328
164.637
164.88
165.187
165.568
166.742
142.877
142.984
143.234
143.613
144.105
144.7
145.389
146.168
147.025
147.953
148.94
149.973
151.039
152.124
153.209
154.276
155.302
156.266
157.142
157.9
158.513
158.947
159.169
159.144
158.84
158.242
157.366
156.373
155.424
155.929
142.268
142.366
142.597
142.946
143.397
143.94
144.568
145.273
146.045
146.875
147.751
148.659
149.584
150.511
151.419
152.289
153.094
153.808
154.399
154.831
155.061
155.038
154.699
153.966
152.743
150.913
148.349
145.045
141.095
139.057
141.629
141.719
141.929
142.246
142.655
143.145
143.709
144.339
145.024
145.754
146.516
147.296
148.078
148.843
149.571
150.238
150.815
151.272
151.568
151.658
151.485
150.975
150.029
148.514
146.235
142.902
138.057
131.038
120.571
108.34
1.74644
1.72391
1.6453
1.53572
1.41945
1.30774
1.204
1.10868
1.02114
0.940261
0.864673
0.79307
0.724417
0.658097
0.593963
0.53229
0.473595
0.418396
0.367057
0.319932
0.277742
0.241041
0.211587
0.187947
0.166581
0.143694
0.117577
0.0881687
0.0558471
0.0210645
1.68829
1.66217
1.58854
1.48802
1.38109
1.2774
1.1802
1.09014
1.00677
0.92912
0.855961
0.786116
0.718661
0.653082
0.589363
0.527932
0.469437
0.414416
0.363115
0.315761
0.273171
0.237395
0.208942
0.186784
0.166794
0.14464
0.118777
0.0896058
0.0573543
0.0227398
1.62744
1.59602
1.52537
1.43305
1.33574
1.24075
1.15087
1.06685
0.988367
0.914564
0.844359
0.776695
0.710752
0.646133
0.582973
0.521898
0.463751
0.409154
0.358236
0.311041
0.268526
0.233052
0.20602
0.185713
0.16725
0.145424
0.119273
0.0900242
0.0577002
0.0215976
1.57285
1.53622
1.4674
1.38163
1.29272
1.20549
1.1223
1.0439
0.970031
0.899934
0.832636
0.76718
0.702836
0.639299
0.576826
0.516208
0.45848
0.404403
0.354052
0.307096
0.264034
0.227544
0.201209
0.184146
0.168169
0.147662
0.122143
0.0927883
0.0599186
0.0219572
1.54128
1.49963
1.43274
1.35119
1.2678
1.18543
1.10638
1.03138
0.960254
0.892344
0.826757
0.762612
0.699258
0.636469
0.574566
0.514386
0.457
0.403253
0.35341
0.307593
0.266607
0.23253
0.206122
0.186078
0.168145
0.146307
0.119518
0.0901922
0.059021
0.0218197
1.54619
1.49822
1.43258
1.35118
1.26856
1.18647
1.10753
1.03252
0.961346
0.893398
0.827815
0.763752
0.700598
0.63816
0.576747
0.517106
0.460151
0.406611
0.356892
0.311368
0.271082
0.237845
0.212319
0.191765
0.171928
0.148826
0.121662
0.0911342
0.0570161
0.0192788
1.59572
1.5397
1.4687
1.38257
1.29401
1.20685
1.1236
1.04502
0.970951
0.900708
0.833419
0.768248
0.704575
0.64215
0.581167
0.522194
0.465956
0.413065
0.363928
0.319003
0.279122
0.245188
0.217785
0.195117
0.173276
0.148708
0.120449
0.088785
0.0537966
0.0176793
1.69009
1.6207
1.53513
1.43545
1.33471
1.23753
1.14626
1.06143
0.982613
0.90891
0.839246
0.772658
0.708397
0.646034
0.585558
0.527329
0.471923
0.419903
0.371691
0.327676
0.288385
0.254165
0.224807
0.199473
0.175044
0.148665
0.118961
0.0854904
0.0493345
0.015812
1.81513
1.72207
1.61227
1.49144
1.37419
1.2649
1.16481
1.07351
0.989908
0.913005
0.841426
0.773988
0.70974
0.647975
0.588436
0.531267
0.476944
0.426064
0.379072
0.336188
0.297343
0.262633
0.231864
0.203986
0.176899
0.148447
0.116945
0.0815581
0.0448769
0.0141764
1.93973
1.81318
1.67856
1.53737
1.40226
1.27969
1.17079
1.07442
0.988443
0.910314
0.838134
0.770617
0.706978
0.646539
0.588606
0.532939
0.47999
0.430574
0.38525
0.343902
0.306058
0.271285
0.239037
0.208573
0.178725
0.147976
0.114448
0.0771628
0.0402413
0.0125029
2.03244
1.87467
1.71133
1.55068
1.40425
1.2748
1.16189
1.06359
0.977339
0.899983
0.828905
0.762702
0.700775
0.642392
0.586481
0.532445
0.480836
0.432965
0.389717
0.350701
0.314606
0.28012
0.246432
0.213278
0.180485
0.147242
0.111614
0.0725937
0.0356474
0.0108758
2.07106
1.87835
1.68998
1.51372
1.36212
1.23408
1.12522
1.03174
0.95064
0.878118
0.810797
0.747568
0.688784
0.633954
0.581254
0.529347
0.47904
0.432726
0.392089
0.35638
0.322971
0.289289
0.254182
0.218056
0.181977
0.146066
0.108466
0.0680673
0.031322
0.00934723
1.98603
1.7414
1.55149
1.39138
1.25903
1.15017
1.05763
0.977149
0.907608
0.845038
0.784467
0.725429
0.670799
0.6211
0.573053
0.523701
0.474227
0.429105
0.391689
0.360751
0.331452
0.299278
0.262648
0.222966
0.182987
0.144186
0.104923
0.0636904
0.0274083
0.00795301
1.64041
1.35694
1.24226
1.16231
1.08393
1.01904
0.959535
0.900605
0.848805
0.802125
0.751254
0.696282
0.646029
0.603624
0.562615
0.516361
0.466479
0.421368
0.387745
0.363761
0.340721
0.310942
0.272398
0.228086
0.183181
0.141165
0.100776
0.0595114
0.023986
0.00671517
0.859944
0.545605
0.681435
0.825873
0.840226
0.850703
0.844061
0.80742
0.773456
0.750951
0.714846
0.662023
0.614784
0.582594
0.55246
0.509547
0.456067
0.407979
0.378499
0.365006
0.351628
0.325403
0.284109
0.233437
0.182031
0.136321
0.0956802
0.0555729
0.0210933
0.00563848
140.95
141.03
141.219
141.503
141.868
142.304
142.801
143.353
143.948
144.575
145.22
145.868
146.502
147.102
147.645
148.104
148.448
148.639
148.633
148.373
147.787
146.778
145.214
142.9
139.537
134.63
127.257
115.502
93.3293
33.485
140.222
140.294
140.46
140.71
141.028
141.407
141.836
142.307
142.809
143.329
143.853
144.365
144.847
145.277
145.63
145.877
145.984
145.907
145.597
144.987
143.994
142.505
140.359
137.327
133.049
126.942
117.973
104.408
84.8826
56.438
139.453
139.514
139.657
139.871
140.142
140.462
140.82
141.208
141.615
142.026
142.428
142.802
143.131
143.389
143.552
143.588
143.459
143.119
142.514
141.571
140.201
138.282
135.65
132.075
127.231
120.664
111.784
99.954
85.7297
69.1353
138.642
138.693
138.812
138.989
139.212
139.471
139.758
140.062
140.372
140.673
140.952
141.188
141.363
141.452
141.428
141.256
140.899
140.309
139.427
138.182
136.481
134.209
131.212
127.294
122.21
115.665
107.365
96.9789
84.4451
69.3273
137.792
137.833
137.928
138.067
138.241
138.439
138.653
138.873
139.086
139.278
139.433
139.534
139.558
139.481
139.275
138.905
138.333
137.51
136.379
134.869
132.896
130.352
127.108
123.009
117.874
111.504
103.7
94.219
82.8946
69.9342
136.906
136.936
137.006
137.108
137.232
137.369
137.511
137.646
137.763
137.846
137.881
137.848
137.726
137.49
137.111
136.556
135.785
134.753
133.404
131.674
129.486
126.749
123.358
119.193
114.126
108.02
100.755
92.2319
82.4409
71.7957
135.985
136.004
136.05
136.114
136.189
136.265
136.335
136.387
136.409
136.387
136.304
136.142
135.88
135.493
134.953
134.227
133.279
132.063
130.532
128.626
126.28
123.42
119.963
115.824
110.913
105.154
98.492
90.9158
82.4693
73.4884
135.032
135.042
135.062
135.089
135.115
135.132
135.131
135.102
135.032
134.908
134.712
134.428
134.034
133.507
132.819
131.939
130.834
129.464
127.785
125.746
123.294
120.37
116.914
112.866
108.174
102.797
96.7217
89.9684
82.5872
74.85
134.053
134.052
134.048
134.039
134.017
133.975
133.906
133.798
133.639
133.417
133.115
132.716
132.199
131.543
130.722
129.708
128.47
126.973
125.178
123.046
120.532
117.594
114.189
110.278
105.833
100.84
95.3033
89.2586
82.759
76.0319
133.05
133.039
133.012
132.966
132.898
132.8
132.665
132.481
132.239
131.924
131.522
131.016
130.388
129.616
128.678
127.548
126.199
124.601
122.723
120.531
117.994
115.08
111.76
108.014
103.827
99.202
94.1559
88.728
82.9716
77.0712
132.028
132.007
131.958
131.878
131.765
131.613
131.415
131.16
130.838
130.437
129.942
129.339
128.61
127.736
126.697
125.47
124.032
122.358
120.423
118.203
115.672
112.81
109.599
106.031
102.102
97.8235
93.2182
88.3255
83.1935
77.9703
130.992
130.962
130.891
130.778
130.623
130.42
130.162
129.84
129.445
128.964
128.385
127.695
126.876
125.914
124.789
123.483
121.976
120.249
118.282
116.055
113.554
110.764
107.678
104.292
100.612
96.6537
92.441
88.0106
83.4043
78.7414
129.947
129.908
129.817
129.673
129.478
129.227
128.914
128.53
128.067
127.514
126.859
126.091
125.195
124.157
122.962
121.594
120.037
118.275
116.295
114.083
111.628
108.924
105.969
102.764
99.3194
95.6523
91.787
87.7559
83.5948
79.3997
128.9
128.853
128.742
128.569
128.337
128.041
127.677
127.236
126.712
126.094
125.372
124.536
123.574
122.474
121.222
119.807
118.215
116.436
114.459
112.276
109.88
107.27
104.447
101.417
98.1911
94.7876
91.2288
87.543
83.7604
79.9589
127.855
127.801
127.672
127.473
127.206
126.869
126.458
125.967
125.387
124.711
123.931
123.038
122.02
120.869
119.574
118.125
116.513
114.73
112.769
110.625
108.296
105.783
103.09
100.226
97.2015
94.0346
90.7455
87.3587
83.8994
80.431
126.821
126.759
126.614
126.39
126.092
125.718
125.266
124.728
124.1
123.374
122.544
121.601
120.538
119.347
118.02
116.549
114.928
113.152
111.217
109.12
106.863
104.447
101.88
99.1698
96.3293
93.3739
90.3218
87.194
84.0119
80.827
125.803
125.735
125.575
125.328
125.002
124.595
124.105
123.527
122.856
122.087
121.215
120.232
119.133
117.912
116.563
115.08
113.46
111.699
109.796
107.751
105.567
103.247
100.799
98.2314
95.5571
92.79
89.946
87.0431
84.0992
81.1566
124.808
124.734
124.561
124.294
123.942
123.506
122.984
122.37
121.663
120.858
119.95
118.936
117.809
116.566
115.203
113.717
112.105
110.366
108.5
106.509
104.397
102.169
99.8321
97.3958
94.8712
92.2712
89.6097
86.902
84.1634
81.4287
123.843
123.764
123.579
123.295
122.921
122.459
121.908
121.265
120.527
119.692
118.756
117.716
116.569
115.311
113.942
112.459
110.86
109.147
107.321
105.386
103.344
101.202
98.9684
96.6511
94.2606
91.8083
89.3066
86.7686
84.2071
81.651
122.917
122.833
122.638
122.338
121.945
121.461
120.885
120.217
119.453
118.593
117.635
116.576
115.415
114.15
112.779
111.304
109.723
108.039
106.254
104.372
102.398
100.337
98.1976
95.9876
93.7165
91.3945
89.0325
86.6417
84.2331
81.8307
122.035
121.948
121.743
121.43
121.02
120.518
119.922
119.232
118.448
117.569
116.593
115.521
114.35
113.082
111.715
110.251
108.691
107.037
105.293
103.463
101.552
99.5655
97.5115
95.3975
93.2322
91.0247
88.7844
86.5212
84.2444
81.9741
121.207
121.117
120.904
120.58
120.155
119.637
119.024
118.317
117.516
116.622
115.634
114.552
113.377
112.109
110.749
109.299
107.761
106.138
104.434
102.652
100.799
98.8809
96.9037
94.8751
92.8029
90.6953
88.5607
86.4076
84.2442
82.0873
120.441
120.347
120.128
119.793
119.357
118.825
118.198
117.477
116.664
115.758
114.761
113.674
112.498
111.233
109.882
108.448
106.932
105.339
103.671
101.935
100.135
98.2779
96.369
94.4155
92.4246
90.4037
88.3602
86.3017
84.2353
82.175
119.743
119.647
119.422
119.079
118.632
118.089
117.451
116.72
115.896
114.982
113.98
112.89
111.714
110.455
109.115
107.696
106.203
104.637
103.004
101.309
99.5572
97.7536
95.9045
94.0163
92.0956
90.1492
88.1836
86.2056
84.2217
82.2435
119.124
119.025
118.794
118.444
117.989
117.437
116.79
116.05
115.219
114.299
113.293
112.203
111.03
109.777
108.448
107.045
105.571
104.031
102.43
100.771
99.0608
97.3039
95.5063
93.6741
91.8131
89.9297
88.0298
86.1195
84.2044
82.2946
118.592
118.491
118.254
117.896
117.434
116.875
116.221
115.475
114.639
113.715
112.708
111.618
110.449
109.203
107.884
106.495
105.04
103.524
101.949
100.322
98.6474
96.9303
95.1762
93.3907
91.5797
89.7486
87.9031
86.0488
84.1908
82.3377
118.157
118.052
117.808
117.443
116.974
116.408
115.749
114.998
114.158
113.232
112.224
111.136
109.971
108.732
107.423
106.047
104.608
103.11
101.559
99.9578
98.3124
96.6276
94.9088
93.1611
91.39
89.6008
87.7986
85.9885
84.1754
82.3662
117.832
117.72
117.467
117.095
116.621
116.051
115.388
114.633
113.791
112.864
111.856
110.769
109.608
108.375
107.074
105.708
104.283
102.801
101.267
99.6872
98.065
96.4057
94.7144
92.9962
91.2562
89.4994
87.7308
85.9552
84.1773
82.4032
117.629
117.495
117.224
116.846
116.37
115.798
115.132
114.375
113.532
112.605
111.598
110.513
109.355
108.127
106.832
105.474
104.058
102.587
101.066
99.5002
97.8937
96.2515
94.5786
92.8799
91.1604
89.4249
87.6782
85.9248
84.1691
82.4161
117.611
117.412
117.114
116.729
116.25
115.675
115.006
114.247
113.403
112.476
111.47
110.387
109.232
108.007
106.717
105.364
103.955
102.491
100.979
99.4228
97.8266
96.1955
94.5344
92.8482
91.1415
89.4192
87.6859
85.9461
84.204
82.464
-50.5457
-30.3491
-10.9783
36.1285
28.8147
17.0446
51.7047
39.6842
28.5634
53.0891
42.6948
34.6867
57.4089
49.1439
42.411
61.7845
54.8936
49.0187
65.043
59.1742
54.1361
67.6247
62.6088
58.3072
69.8006
65.4747
61.7711
71.6368
67.8626
64.6392
73.1803
69.8531
67.0186
74.4802
71.52
69.003
75.5771
72.9207
70.6655
76.5031
74.1008
72.0634
77.2845
75.0965
73.242
77.9431
75.9372
74.2377
78.4972
76.647
75.0793
78.9619
77.2454
75.7904
79.35
77.7487
76.3904
79.6726
78.1708
76.8956
79.9392
78.5232
77.3193
80.1584
78.8162
77.6735
80.3369
79.058
77.9675
80.4826
79.2576
78.2113
80.5982
79.4184
78.4092
80.6954
79.5529
78.5737
80.7654
79.6528
78.6983
80.837
79.7472
78.8098
80.8702
79.7966
78.8733
80.939
79.8795
78.9627
-2.13054
-1.97819
-0.544449
0.536303
0.601195
0.658491
0.70996
0.68438
0.670434
0.70162
0.692126
0.628428
0.573073
0.552448
0.541307
0.503199
0.4413
0.385733
0.361608
0.365144
0.367179
0.345778
0.299734
0.239633
0.179046
0.128669
0.0890809
0.0520245
0.0188243
0.00469456
3.33591
0.248838
1.46022
1.12267
-0.00992253
0.0734968
0.585695
0.651002
0.619115
0.696102
0.683729
0.567872
0.489799
0.503563
0.545551
0.517212
0.43438
0.358186
0.335761
0.362921
0.388992
0.373617
0.31909
0.244905
0.171428
0.115284
0.0794328
0.0491801
0.0175235
0.00381737
14.3418
5.91106
3.05373
0.833795
0.3601
1.28206
1.50937
0.551039
0.0766995
0.345155
0.691075
0.572654
0.453802
0.508585
0.597038
0.540055
0.401888
0.28069
0.259825
0.339434
0.425505
0.420691
0.349911
0.254594
0.162885
0.0982929
0.0686062
0.0501959
0.0193762
0.00288281
23.977
14.1268
8.29284
4.55222
2.69057
1.95418
0.962118
0.275879
0.336963
1.43882
1.53466
0.486599
0.0498763
0.13431
0.488282
0.605319
0.417084
0.234588
0.226668
0.401191
0.517567
0.485049
0.378951
0.252149
0.13501
0.0578304
0.0396564
0.0480497
0.0228359
0.000974677
33.0982
23.3588
16.052
10.7496
7.08206
4.58742
2.76394
1.69545
1.28737
1.36594
0.881867
0.313713
0.0958229
0.608139
1.23634
0.966682
0.363176
-0.0119801
-0.100848
0.150722
0.5534
0.583641
0.429745
0.264814
0.12041
0.0305847
0.0329526
0.0871909
0.0548737
-0.000355362
41.0381
32.126
24.2455
17.8148
12.8833
9.22245
6.53364
4.62522
3.32441
2.44235
1.65819
1.04336
0.703819
0.789966
0.857365
0.712321
0.312017
-0.0458818
-0.0400906
0.64336
1.02771
0.706575
0.432422
0.221143
0.048275
-0.0692168
-0.06848
0.0460245
0.0799047
-0.0105788
47.5137
39.7176
31.9491
25.0629
19.4338
14.9611
11.4265
8.66274
6.55051
4.96387
3.7235
2.73199
2.02204
1.62039
1.35056
1.06429
0.642917
0.279168
0.234292
0.550601
0.714423
0.672663
0.490384
0.277608
0.0736249
-0.0683855
-0.0443564
0.226277
0.280656
-0.0173156
52.7887
46.0634
38.8112
31.9841
26.0991
21.147
16.9999
13.5684
10.7827
8.55128
6.74458
5.27187
4.12375
3.28648
2.65722
2.09265
1.52478
1.06795
0.865149
0.898787
0.94077
0.859015
0.63109
0.372381
0.145745
-0.00100839
-0.00658151
0.125841
0.220583
-0.0880352
57.0923
51.2788
44.6977
38.2258
32.4068
27.2912
22.816
18.9456
15.6502
12.8758
10.5457
8.59736
6.99976
5.71922
4.67959
3.78546
2.99504
2.35532
1.93075
1.70309
1.53838
1.30683
0.993182
0.672949
0.401162
0.214252
0.143657
0.16682
0.14625
-0.324363
60.6042
55.5382
49.6371
43.6528
38.0978
33.0497
28.4799
24.3843
20.7645
17.6021
14.8597
12.4976
10.4839
8.78391
7.34542
6.10936
5.04195
4.15141
3.45854
2.94279
2.51881
2.09818
1.6608
1.24197
0.879419
0.598754
0.411794
0.28237
0.0782458
-0.538841
63.4883
59.0293
53.7495
48.281
43.0832
38.2392
33.7363
29.5862
25.8098
22.4128
19.3831
16.7004
14.3425
12.2844
10.4919
8.92739
7.56284
6.39015
5.40841
4.59633
3.89953
3.25945
2.65116
2.08529
1.58324
1.15923
0.810409
0.493785
0.101821
-0.617504
65.8768
61.9129
57.1744
52.1945
47.3779
42.8031
38.4632
34.3753
30.5693
27.0636
23.8623
20.9596
18.3453
16.0048
13.9177
12.06
10.4109
8.95776
7.69098
6.59089
5.62121
4.74153
3.92752
3.17696
2.49788
1.894
1.35379
0.83644
0.263766
-0.54496
67.8689
64.3128
60.0367
55.4962
51.0477
46.7614
42.6312
38.6744
34.9225
31.4003
28.1205
25.0874
22.2998
19.7522
17.4343
15.3323
13.4321
11.7221
10.1909
8.82184
7.58962
6.46569
5.42903
4.47112
3.59063
2.78372
2.03536
1.31147
0.558825
-0.34742
69.5396
66.3228
62.4398
58.2854
54.1751
50.1709
46.2653
42.4731
38.8247
35.3463
32.055
28.9609
26.0689
23.3803
20.8917
18.5969
16.4877
14.5553
12.79
11.1787
9.70338
8.3436
7.08207
5.90786
4.81428
3.7932
2.82931
1.89602
0.958761
-0.0639282
70.9463
68.0145
64.4662
60.6475
56.8405
53.0995
49.4153
45.7993
42.279
38.8802
35.6213
32.5153
29.5711
26.7939
24.1858
21.7454
19.4691
17.3517
15.3862
13.5629
11.8691
10.2901
8.812
7.42366
6.11609
4.87939
3.6994
2.55598
1.427
0.263909
72.1342
69.443
66.1806
62.6532
59.1147
55.6133
52.1381
48.6969
45.3141
42.0135
38.8136
35.7283
32.7686
29.9423
27.2548
24.7081
22.3022
20.0348
17.9019
15.8968
14.0109
12.2334
10.5534
8.96085
7.44614
5.99912
4.6072
3.25487
1.92732
0.59975
73.1387
70.6519
67.6342
64.3593
61.0572
57.771
54.4882
51.2138
47.9684
44.7739
41.6475
38.6033
35.653
32.806
30.0693
27.4475
24.9431
22.5563
20.2853
18.1264
16.0736
14.1195
12.2555
10.4728
8.76249
7.11471
5.51821
3.96037
2.42975
0.917553
73.9884
71.6756
68.8682
65.812
62.7173
59.6227
56.5146
53.3953
50.2823
47.1947
44.1487
41.1576
38.233
35.3849
32.6214
29.9487
27.3708
24.8898
22.506
20.2177
18.0214
15.9117
13.8823
11.9256
10.0335
8.19686
6.40534
4.64769
2.91323
1.20275
74.7066
72.5422
69.9156
67.0491
64.1358
61.2107
58.2596
55.2823
52.2934
49.3099
46.346
43.4141
40.5253
37.6896
34.9156
32.2102
29.5786
27.0242
24.5489
22.1524
19.8331
17.5875
15.4106
13.2963
11.2373
9.22496
7.24952
5.30007
3.36518
1.45042
75.3126
73.2749
70.8038
68.1016
65.3464
62.5706
59.7594
56.9106
54.0362
51.151
48.2676
45.3971
42.5499
39.7355
36.9626
34.2383
31.5686
28.9577
26.4085
23.9221
21.498
19.1342
16.8269
14.571
12.36
10.1858
8.03868
5.90759
3.77969
1.66206
75.8224
73.8928
71.5553
68.995
66.3774
63.7323
61.0447
58.3109
55.5406
52.7465
49.9398
47.1302
44.3271
41.5394
38.7756
36.0427
33.347
30.6932
28.0849
25.5241
23.0112
20.5453
18.1234
15.7414
13.3933
11.0712
8.76566
6.46496
4.15488
1.84212
76.2499
74.4122
72.1892
69.7511
67.2525
64.7212
62.142
59.5101
56.8332
54.1222
51.3867
48.6354
45.8766
43.1185
40.3689
37.6349
34.9224
32.2367
29.5816
26.9597
24.3721
21.8185
19.2968
16.8034
14.3326
11.877
9.42693
6.97019
4.49138
1.99576
76.6062
74.8463
72.7209
70.3875
67.9912
65.558
63.0731
60.5305
57.9362
55.2997
52.6292
49.9322
47.2161
44.4883
41.756
39.0258
36.3036
33.5946
30.9028
28.2311
25.5811
22.9529
20.345
17.754
15.1749
12.6001
10.02
7.42194
4.78968
2.12662
76.9021
75.2076
73.1647
70.9203
68.611
66.2619
63.8579
61.3924
58.8702
56.2993
53.6868
51.0392
48.3629
45.6645
42.9507
40.2275
37.5006
34.775
32.0548
29.343
26.6414
23.9504
21.2689
18.5937
15.92
13.2405
10.5453
7.82142
5.05217
2.23859
77.1438
75.5036
73.5297
71.3597
69.1236
66.8451
64.5097
62.1098
59.6493
57.135
54.573
51.969
49.3285
46.6575
43.9619
41.2473
38.5192
35.7821
33.0401
30.2963
27.5526
24.8095
22.066
19.3193
16.5646
13.7946
10.9994
8.16586
5.27693
2.33136
77.3432
75.7471
73.8299
71.7211
69.5451
67.3249
65.0461
62.7008
60.2918
57.8251
55.306
52.7393
50.13
47.4833
44.8046
42.0991
39.3717
36.627
33.8687
31.0998
28.3223
25.5368
22.7423
19.9362
17.1137
14.2675
11.3876
8.46072
5.4697
2.41015
77.4969
75.9357
74.0632
72.0031
69.8748
67.701
65.4675
63.1659
60.7983
58.3699
55.8856
53.3495
50.766
48.1397
45.4756
42.7784
40.0528
37.303
34.5326
31.7446
28.9407
26.1217
23.2867
20.4329
17.5555
14.6474
11.6984
8.69519
5.6206
2.46794
77.6274
76.0918
74.2534
72.2301
70.138
67.9992
65.7999
63.5315
61.1955
58.7965
56.3389
53.8263
51.2628
48.6525
46
43.3097
40.586
37.8328
35.0538
32.2516
29.428
26.5837
23.7177
20.8275
17.908
14.9521
11.9494
8.88654
5.74604
2.51739
77.7076
76.1882
74.372
72.3737
70.306
68.1907
66.0143
63.7682
61.4533
59.074
56.6344
54.1377
51.5877
48.9883
46.3438
43.6583
40.9361
38.181
35.3964
32.5848
29.7482
26.8869
24.0002
21.0853
18.1373
15.1488
12.1092
9.00485
5.81824
2.53716
77.7962
76.2779
74.474
72.4907
70.4367
68.334
66.1698
63.9353
61.6314
59.2623
56.8316
54.3428
51.7992
49.2048
46.5636
43.8797
41.1572
38.4
35.6112
32.7936
29.9489
27.0776
24.1788
21.2497
18.2856
15.2787
12.2183
9.08962
5.87274
2.54371
)
;

boundaryField
{
    inlet
    {
        type            zeroGradient;
    }
    outlet
    {
        type            fixedValue;
        value           uniform 0;
    }
    flap
    {
        type            zeroGradient;
    }
    upperWall
    {
        type            zeroGradient;
    }
    lowerWall
    {
        type            zeroGradient;
    }
    frontAndBack
    {
        type            empty;
    }
}


// ************************************************************************* //
