/*--------------------------------*- C++ -*----------------------------------*\
  =========                 |
  \\      /  F ield         | OpenFOAM: The Open Source CFD Toolbox
   \\    /   O peration     | Website:  https://openfoam.org
    \\  /    A nd           | Version:  7
     \\/     M anipulation  |
\*---------------------------------------------------------------------------*/
FoamFile
{
    version     2.0;
    format      ascii;
    class       surfaceScalarField;
    location    "3.8";
    object      phi;
}
// * * * * * * * * * * * * * * * * * * * * * * * * * * * * * * * * * * * * * //

dimensions      [0 3 -1 0 0 0 0];

internalField   nonuniform List<scalar> 
5457
(
0.198418
0.00158237
0.19648
0.00193735
0.194192
0.00228806
0.191509
0.00268354
0.188428
0.00308115
0.184951
0.0034767
0.181072
0.00387849
0.176778
0.00429391
0.17205
0.00472809
0.166865
0.00518507
0.161197
0.00566832
0.155016
0.00618081
0.148291
0.00672472
0.14099
0.00730106
0.133081
0.00790919
0.124535
0.00854611
0.11533
0.00920554
0.105453
0.00987683
0.0949089
0.0105437
0.0837257
0.0111832
0.0719613
0.0117644
0.0597132
0.0122481
0.0471246
0.0125886
0.0343843
0.0127402
0.0216891
0.0126952
0.00903885
0.0126503
-0.00291544
0.0119543
-0.00847194
0.00555651
-0.00804298
-0.000428963
-0.00804298
0.199928
0.00165421
0.199176
0.00268978
0.197965
0.00349897
0.196332
0.00431669
0.194272
0.00514116
0.191782
0.00596671
0.188855
0.0068054
0.185478
0.00767068
0.181633
0.00857288
0.177298
0.00952032
0.172446
0.0105203
0.167048
0.011579
0.161071
0.0127012
0.154483
0.0138897
0.147248
0.015144
0.139335
0.0164589
0.130718
0.0178231
0.121378
0.0192166
0.111313
0.0206082
0.100544
0.0219528
0.0891195
0.0231886
0.077132
0.0242356
0.0647261
0.0249945
0.0521185
0.0253478
0.039658
0.0251557
0.0281075
0.0242008
0.0185968
0.021465
0.00879884
0.0153545
0.00118432
0.00718556
-0.00685866
0.199781
0.00187364
0.199087
0.00338361
0.197946
0.00463988
0.196409
0.00585328
0.194483
0.00706725
0.192164
0.00828571
0.189447
0.00952276
0.186321
0.0107961
0.182774
0.0121207
0.178785
0.0135091
0.174333
0.0149722
0.169392
0.0165198
0.163934
0.0181596
0.157927
0.0198966
0.151339
0.0217319
0.144137
0.0236603
0.136292
0.0256683
0.127779
0.0277302
0.118582
0.0298048
0.108704
0.0318304
0.0981728
0.0337202
0.0870507
0.0353578
0.075454
0.0365912
0.0635768
0.037225
0.0517348
0.0369978
0.0403992
0.0355364
0.0297406
0.0321235
0.0191672
0.0259279
0.00959835
0.0167544
0.00273969
0.199703
0.00217057
0.199008
0.00407891
0.197887
0.0057604
0.196376
0.00736417
0.194488
0.00895534
0.192222
0.0105517
0.189575
0.0121704
0.186539
0.013832
0.183104
0.015555
0.179258
0.0173554
0.174983
0.0192471
0.170261
0.0212422
0.165069
0.0233511
0.159385
0.0255806
0.153184
0.0279334
0.146439
0.0304052
0.139125
0.0329823
0.131218
0.0356372
0.122699
0.0383237
0.113558
0.040971
0.103802
0.0434769
0.0934593
0.0457002
0.0825982
0.0474524
0.0713354
0.0484878
0.0598432
0.0484899
0.0483189
0.0470607
0.0368126
0.0436299
0.025189
0.0375515
0.0133361
0.0286073
0.0160758
0.199667
0.00250315
0.198964
0.00478216
0.197863
0.0068617
0.196381
0.00884583
0.194532
0.0108041
0.192318
0.0127663
0.189734
0.0147542
0.186776
0.0167905
0.183434
0.0188966
0.179698
0.021091
0.175556
0.0233899
0.170991
0.0258072
0.165987
0.0283546
0.160527
0.0310406
0.154592
0.0338687
0.148161
0.0368355
0.141216
0.0399279
0.133735
0.0431184
0.125698
0.0463602
0.117089
0.0495801
0.107896
0.0526701
0.098117
0.055479
0.0877672
0.0578022
0.0768811
0.0593739
0.065511
0.05986
0.05371
0.0588617
0.0414556
0.0558843
0.0285889
0.0504182
0.0148529
0.0423432
0.0309287
0.199653
0.00285035
0.198949
0.00548622
0.197871
0.00793964
0.196427
0.01029
0.194627
0.0126041
0.192473
0.0149197
0.189964
0.0172638
0.187093
0.0196613
0.183854
0.0221359
0.180236
0.0247082
0.17623
0.0273963
0.171822
0.0302157
0.166997
0.0331793
0.161741
0.0362963
0.156039
0.0395713
0.149872
0.0430018
0.143224
0.0465758
0.136075
0.0502675
0.128403
0.0540322
0.120184
0.0577994
0.11139
0.0614642
0.101991
0.0648776
0.0919571
0.0678363
0.0812564
0.0700746
0.0698564
0.0712599
0.0577189
0.0709993
0.0447623
0.0688408
0.0308503
0.0643302
0.0158737
0.0573198
0.0468025
0.19965
0.00320029
0.198954
0.0061822
0.197904
0.00898926
0.196505
0.0116897
0.194762
0.0143463
0.19268
0.0170017
0.190257
0.0196873
0.187487
0.0224309
0.184365
0.0252579
0.180883
0.028191
0.177029
0.0312501
0.172792
0.0344521
0.16816
0.0378112
0.163119
0.0413377
0.157653
0.0450373
0.151746
0.0489091
0.145378
0.052943
0.138529
0.0571167
0.131171
0.0613902
0.123271
0.0656999
0.114784
0.0699507
0.105657
0.0740052
0.0958191
0.077674
0.0851886
0.0807051
0.0736706
0.0827779
0.0611637
0.0835063
0.0475571
0.0824474
0.03276
0.0791273
0.0167836
0.0732962
0.063586
0.199655
0.00354564
0.198975
0.00686232
0.197959
0.010005
0.19661
0.0130384
0.194934
0.0160223
0.192933
0.0190023
0.190607
0.0220134
0.187952
0.0250861
0.184962
0.0282478
0.18163
0.0315231
0.177947
0.0349334
0.173902
0.0384974
0.169482
0.0422306
0.164675
0.0461449
0.159464
0.050248
0.153832
0.0545411
0.147757
0.059018
0.141213
0.063661
0.134165
0.0684381
0.126569
0.0732964
0.118364
0.0781555
0.109471
0.0828977
0.099789
0.0873564
0.08919
0.0913041
0.0775278
0.0944401
0.0646499
0.0963842
0.0504196
0.0966777
0.0347698
0.0947772
0.0177907
0.0902752
0.0813768
0.199664
0.00388148
0.199006
0.00752013
0.19803
0.0109813
0.196739
0.0143299
0.195137
0.0176244
0.193227
0.0209121
0.191009
0.0242312
0.18848
0.0276146
0.185636
0.0310917
0.182471
0.0346887
0.178975
0.0384287
0.175141
0.0423322
0.170955
0.0464163
0.166405
0.0506951
0.161474
0.0551788
0.156143
0.0598722
0.150387
0.0647739
0.144174
0.0698736
0.137463
0.0751492
0.130197
0.0805624
0.1223
0.0860528
0.113669
0.0915284
0.104171
0.0968546
0.0936369
0.101838
0.0818678
0.106209
0.0686525
0.109599
0.0538048
0.111525
0.0372387
0.111343
0.0190846
0.108429
0.100461
0.199677
0.00420426
0.199047
0.00815039
0.198116
0.0119126
0.196887
0.0155582
0.195366
0.0191453
0.193556
0.0227227
0.191456
0.0263311
0.189065
0.0300054
0.18638
0.0337769
0.183395
0.0376735
0.180104
0.0417199
0.176498
0.0459382
0.172566
0.0503478
0.168297
0.0549651
0.163672
0.0598034
0.158672
0.0648722
0.15327
0.0701762
0.147429
0.0757141
0.141102
0.0814764
0.134222
0.0874426
0.126698
0.0935765
0.118408
0.0998188
0.109187
0.106076
0.0988229
0.112202
0.0870564
0.117976
0.0735939
0.123062
0.0581523
0.126967
0.040555
0.128941
0.0209031
0.128081
0.121364
0.199693
0.00451134
0.199095
0.00874879
0.198213
0.0127942
0.197053
0.0167179
0.19562
0.0205787
0.193916
0.0244266
0.191943
0.0283041
0.1897
0.0322483
0.187185
0.0362919
0.184394
0.0404644
0.181322
0.044792
0.177962
0.0492986
0.174304
0.0540056
0.170337
0.0589322
0.166045
0.0640952
0.161408
0.0695093
0.156398
0.0751862
0.150977
0.0811347
0.145093
0.0873599
0.138675
0.0938613
0.131621
0.100631
0.123792
0.107647
0.114999
0.114869
0.104987
0.122214
0.0934237
0.129539
0.0799032
0.136582
0.0639731
0.142897
0.0452393
0.147674
0.0236143
0.149706
0.144979
0.199711
0.00480066
0.199148
0.00931182
0.19832
0.0136219
0.197234
0.0178042
0.195894
0.0219189
0.194303
0.026017
0.192465
0.0301427
0.190378
0.0343345
0.188044
0.0386267
0.185458
0.0430499
0.182618
0.047632
0.179518
0.0523983
0.176152
0.0573722
0.172508
0.0625756
0.168575
0.068029
0.164332
0.0737522
0.159753
0.0797644
0.154803
0.0860848
0.14943
0.0927332
0.143561
0.0997305
0.137093
0.107099
0.129881
0.114859
0.121719
0.12303
0.112319
0.131614
0.101279
0.140579
0.0880522
0.149809
0.0719304
0.159019
0.052093
0.167512
0.02789
0.173909
0.172869
0.19973
0.00507061
0.199205
0.00983662
0.198435
0.0143919
0.197427
0.0188129
0.196184
0.023161
0.194713
0.0274883
0.193016
0.0318401
0.191094
0.0362564
0.188948
0.0407726
0.186577
0.0454204
0.183981
0.0502286
0.181155
0.0552242
0.178095
0.0604321
0.174794
0.0658767
0.171241
0.0715819
0.167421
0.0775721
0.163312
0.0838733
0.158883
0.0905145
0.154086
0.0975294
0.148858
0.104959
0.143102
0.112854
0.136682
0.12128
0.129396
0.130316
0.120947
0.140063
0.11089
0.150636
0.0985521
0.162147
0.0829117
0.174659
0.0624462
0.187977
0.0351324
0.201223
0.208001
0.199751
0.00531992
0.199266
0.0103209
0.198557
0.0151014
0.197629
0.0197405
0.196489
0.0243009
0.195142
0.0288356
0.193591
0.0333911
0.19184
0.038008
0.189889
0.0427227
0.187742
0.0475677
0.185398
0.0525727
0.182857
0.0577655
0.180116
0.0631727
0.177173
0.0688201
0.17402
0.0747345
0.170648
0.0809441
0.167041
0.0874802
0.163176
0.0943797
0.159018
0.101688
0.154516
0.109461
0.149595
0.117775
0.144144
0.12673
0.137996
0.136464
0.130891
0.147168
0.122415
0.159113
0.111872
0.17269
0.0980321
0.188499
0.0785541
0.207455
0.0486786
0.231098
0.25668
0.199772
0.00554763
0.19933
0.0107628
0.198684
0.0157479
0.19784
0.0205841
0.196806
0.0253354
0.195586
0.0300554
0.194186
0.0347912
0.192609
0.0395844
0.190861
0.0444716
0.188942
0.0494858
0.186858
0.0546573
0.184609
0.0600144
0.182197
0.0655843
0.179623
0.0713942
0.176886
0.0774722
0.173981
0.083849
0.170901
0.0905595
0.167636
0.0976454
0.164164
0.105159
0.160459
0.113167
0.156475
0.121759
0.152147
0.131058
0.147375
0.141237
0.142
0.152543
0.13576
0.165353
0.128184
0.180266
0.118332
0.198351
0.103951
0.221836
0.0777229
0.257326
0.334403
0.00418867
-0.00418867
0.0081586
-0.00396993
0.0114827
-0.00332405
0.0141855
-0.00270282
0.016375
-0.00218948
0.0181553
-0.00178035
0.0196156
-0.00146027
0.0208308
-0.00121525
0.0218627
-0.00103187
0.0227598
-0.000897116
0.0235585
-0.000798706
0.0242834
-0.000724868
0.0249476
-0.000664237
0.0255542
-0.000606624
0.026099
-0.000544748
0.0265749
-0.000475895
0.0269762
-0.000401307
0.0272979
-0.000321706
0.0275294
-0.000231458
0.02765
-0.0001206
0.0276417
8.25576e-06
0.027492
0.000149715
0.0272459
0.000246062
0.0269745
0.000271426
0.026739
0.000235546
0.0265635
0.000175427
0.0264548
0.000108736
0.0264254
2.93732e-05
0.0264955
-7.01125e-05
-0.000162264
0.00370811
-0.00789678
0.00731
-0.00757182
0.0103873
-0.00640134
0.0129542
-0.00526975
0.0151074
-0.00434271
0.0169357
-0.00360862
0.0185118
-0.00303637
0.019895
-0.0025984
0.0211327
-0.00226965
0.0222626
-0.00202702
0.0233132
-0.00184925
0.0243045
-0.00171617
0.0252486
-0.0016083
0.0261497
-0.00150779
0.0270063
-0.00140135
0.0278143
-0.00128382
0.0285715
-0.00115856
0.0292806
-0.00103076
0.0299439
-0.000894752
0.0305521
-0.000728814
0.0310747
-0.000514401
0.0314947
-0.000270213
0.0318224
-8.17063e-05
0.0321114
-1.75512e-05
0.0324082
-6.12775e-05
0.0327303
-0.000146646
0.0330768
-0.00023774
0.0334402
-0.000334043
0.0338028
-0.000432706
-0.000455398
0.0029978
-0.0108946
0.005827
-0.010401
0.00820244
-0.00877679
0.0101734
-0.00724072
0.0118287
-0.00599804
0.0132383
-0.00501815
0.0144578
-0.00425588
0.0155311
-0.00367175
0.016493
-0.00323154
0.0173711
-0.00290514
0.0181871
-0.00266522
0.0189567
-0.00248577
0.0196897
-0.00234127
0.0203895
-0.00220758
0.0210538
-0.00206569
0.0216774
-0.00190739
0.0222572
-0.00173835
0.0227978
-0.00157144
0.0233096
-0.00140649
0.0237955
-0.00121476
0.0242395
-0.000958347
0.0246172
-0.000647982
0.0249163
-0.000380715
0.0251619
-0.000263154
0.0253887
-0.000288131
0.0256019
-0.000359818
0.0257925
-0.0004284
0.0259608
-0.000502259
0.0261159
-0.000587877
-0.000598742
0.00223455
-0.0131291
0.00416099
-0.0123275
0.00569084
-0.0103066
0.00692962
-0.0084795
0.00795433
-0.00702275
0.00881228
-0.0058761
0.00954002
-0.00498363
0.010165
-0.00429674
0.010709
-0.00377552
0.0111897
-0.00338583
0.0116216
-0.00309709
0.0120161
-0.00288028
0.0123816
-0.00270676
0.0127224
-0.0025484
0.0130378
-0.00238112
0.0133213
-0.00219093
0.0135641
-0.00198114
0.0137645
-0.00177176
0.0139367
-0.00157872
0.0141053
-0.00138336
0.0142698
-0.00112284
0.0143663
-0.000744501
0.014274
-0.000288385
0.013977
3.3776e-05
0.0135854
0.000103463
0.013175
5.0639e-05
0.0127561
-9.52282e-06
0.0123383
-8.44087e-05
0.0119938
-0.000243392
-0.000502615
0.00136403
-0.0144932
0.00229262
-0.013256
0.00290541
-0.0109194
0.00332729
-0.00890139
0.00362734
-0.0073228
0.00382962
-0.00607837
0.003954
-0.00510801
0.00401549
-0.00435824
0.00402642
-0.00378644
0.00399676
-0.00335617
0.00393511
-0.00303544
0.00384929
-0.00279446
0.00374635
-0.00260382
0.00363264
-0.00243469
0.00351247
-0.00226095
0.00338451
-0.00206297
0.00323579
-0.00183243
0.00303669
-0.00157266
0.00275192
-0.00129395
0.00236514
-0.00099658
0.00190053
-0.000658234
0.00141983
-0.000263794
0.00103656
9.48779e-05
0.000772444
0.000297896
0.000552614
0.000323293
0.000387931
0.000215322
0.000287155
9.12538e-05
0.000216356
-1.36098e-05
0.000123541
-0.000150576
-0.000426135
0.000361337
-0.0148545
0.000233752
-0.0131285
-0.000137622
-0.0105481
-0.000555714
-0.0084833
-0.00105048
-0.00682803
-0.00158558
-0.00554328
-0.00214496
-0.00454863
-0.00271521
-0.00378798
-0.0032879
-0.00321376
-0.00385735
-0.00278671
-0.00441901
-0.00247378
-0.00496827
-0.0022452
-0.00550046
-0.00207162
-0.00601053
-0.00192462
-0.00649199
-0.0017795
-0.00693668
-0.00161827
-0.00733724
-0.00143188
-0.0076907
-0.00121919
-0.00800304
-0.000981611
-0.00828369
-0.000715935
-0.00852515
-0.000416767
-0.00869588
-9.30709e-05
-0.00880169
0.000200685
-0.00888935
0.000385558
-0.00899183
0.000425774
-0.00912341
0.000346903
-0.00926439
0.00023223
-0.00939412
0.000116127
-0.00947688
-6.78208e-05
-0.000341678
-0.000723923
-0.0141306
-0.00194075
-0.0119116
-0.00325932
-0.00922949
-0.00460775
-0.00713486
-0.00592464
-0.00551114
-0.00718354
-0.00428438
-0.00836342
-0.00336875
-0.00945362
-0.00269778
-0.0104486
-0.00221878
-0.0113482
-0.00188709
-0.0121573
-0.00166475
-0.0128832
-0.00151923
-0.0135346
-0.00142028
-0.0141188
-0.00134038
-0.0146406
-0.00125769
-0.0151011
-0.00115782
-0.0154992
-0.00103377
-0.0158354
-0.000883008
-0.0161146
-0.000702388
-0.0163452
-0.000485292
-0.0165346
-0.000227386
-0.0166725
4.47705e-05
-0.0167616
0.000289785
-0.0168391
0.000463064
-0.0169345
0.000521214
-0.0170639
0.000476343
-0.0172112
0.000379437
-0.0173426
0.000247563
-0.0174477
3.72679e-05
-0.000202285
-0.00189269
-0.0122379
-0.00418405
-0.00962027
-0.00647267
-0.00694086
-0.00865987
-0.00494767
-0.0106683
-0.00350273
-0.0124656
-0.00248707
-0.0140442
-0.00179016
-0.0154168
-0.0013252
-0.0166051
-0.00103049
-0.0176339
-0.000858247
-0.0185278
-0.000770894
-0.0193078
-0.000739176
-0.0199917
-0.000736421
-0.0205942
-0.000737895
-0.0211261
-0.0007257
-0.0215938
-0.000690131
-0.0219996
-0.000628032
-0.0223446
-0.000537979
-0.0226319
-0.000415062
-0.0228663
-0.000250949
-0.0230503
-4.33905e-05
-0.0231921
0.00018659
-0.0233049
0.000402637
-0.023407
0.000565088
-0.0235194
0.000633644
-0.023654
0.000610984
-0.0238023
0.000527724
-0.0239472
0.000392459
-0.0240925
0.000182547
-2.39975e-05
-0.00317862
-0.00905926
-0.00659026
-0.00620863
-0.0097975
-0.00373362
-0.0126864
-0.00205876
-0.0152023
-0.000986852
-0.0173532
-0.000336157
-0.0191644
2.0998e-05
-0.0206642
0.000174644
-0.0219028
0.000208118
-0.0229399
0.000178802
-0.0238263
0.000115535
-0.0245996
3.41274e-05
-0.0252821
-5.39536e-05
-0.0258858
-0.000134174
-0.0264208
-0.000190634
-0.0268956
-0.000215335
-0.0273131
-0.000210523
-0.0276724
-0.000178684
-0.0279732
-0.000114303
-0.0282179
-6.27153e-06
-0.028411
0.00014975
-0.0285686
0.00034418
-0.0287102
0.000544184
-0.0288458
0.000700762
-0.0289884
0.000776221
-0.0291442
0.000766733
-0.029308
0.000691523
-0.0294732
0.000557657
-0.0296535
0.000362909
0.000187308
-0.0047526
-0.00430667
-0.00969775
-0.00126347
-0.0139488
0.000517458
-0.0174082
0.00140057
-0.0201578
0.0017628
-0.0223313
0.00183732
-0.0240629
0.00175265
-0.0254709
0.00158262
-0.0266388
0.00137605
-0.0276203
0.00116027
-0.0284563
0.000951475
-0.0291758
0.00075369
-0.0298019
0.000572118
-0.030356
0.000419916
-0.0308552
0.000308554
-0.031308
0.000237481
-0.031714
0.00019548
-0.0320669
0.000174201
-0.032362
0.000180813
-0.0326038
0.000235518
-0.0328082
0.000354197
-0.0329927
0.000528653
-0.0331691
0.000720564
-0.0333456
0.000877257
-0.0335274
0.000958018
-0.0337148
0.000954141
-0.0339045
0.000881245
-0.0340981
0.000751289
-0.0343103
0.00057508
0.000426511
-0.00661754
0.00231087
-0.0123826
0.00450163
-0.0168887
0.00502351
-0.0204345
0.00494633
-0.0232615
0.0045898
-0.0255206
0.00409647
-0.0273369
0.0035689
-0.0288095
0.00305522
-0.0300142
0.00258078
-0.0310184
0.00216452
-0.031876
0.00180902
-0.0326206
0.00149825
-0.0332701
0.00122165
-0.0338396
0.000989473
-0.034348
0.000816919
-0.0348107
0.000700195
-0.0352306
0.000615333
-0.0355989
0.000542485
-0.035908
0.000489953
-0.0361639
0.00049146
-0.036386
0.00057626
-0.036596
0.000738675
-0.0368091
0.000933604
-0.03703
0.00109819
-0.0372555
0.00118355
-0.0374783
0.00117693
-0.0376939
0.0010968
-0.0379084
0.000965806
-0.0381386
0.000805314
0.000683031
-0.00776473
0.0100756
-0.0142371
0.010974
-0.0192919
0.0100783
-0.0231705
0.00882497
-0.0261384
0.00755764
-0.0284298
0.0063879
-0.0302323
0.00537142
-0.0316766
0.00449951
-0.0328473
0.00375146
-0.0338187
0.00313594
-0.0346561
0.00264635
-0.0353943
0.00223648
-0.0360418
0.00186921
-0.0366082
0.00155582
-0.0371173
0.00132598
-0.0375924
0.00117534
-0.0380362
0.00105915
-0.0384304
0.000936621
-0.0387571
0.000816675
-0.0390214
0.000755743
-0.0392516
0.000806514
-0.0394803
0.000967402
-0.0397263
0.00117961
-0.0399898
0.0013616
-0.0402572
0.001451
-0.0405124
0.0014321
-0.040749
0.0013334
-0.0409783
0.00119511
-0.0412214
0.00104848
0.00095133
-0.00928391
0.0193595
-0.0169317
0.0186219
-0.0223744
0.0155209
-0.0262469
0.0126975
-0.029099
0.0104097
-0.0312279
0.00851679
-0.0328722
0.00701572
-0.0341915
0.00581889
-0.0352553
0.00481523
-0.0361334
0.00401404
-0.0369099
0.00342288
-0.0376224
0.00294897
-0.0382558
0.00250259
-0.0388028
0.00210278
-0.0392955
0.00181874
-0.0397738
0.00165357
-0.040241
0.00152645
-0.0406622
0.00135779
-0.0410008
0.00115527
-0.0412594
0.00101436
-0.0414822
0.00102933
-0.0417191
0.00120423
-0.0419941
0.00145463
-0.0423006
0.00166811
-0.0426123
0.00176267
-0.0429008
0.0017206
-0.0431562
0.00158887
-0.0433961
0.00143495
-0.0436479
0.00130027
0.00122702
-0.0120772
0.0314368
-0.021214
0.0277587
-0.0265585
0.0208654
-0.0298445
0.0159835
-0.0322588
0.012824
-0.0339885
0.0102464
-0.035294
0.0083213
-0.0363917
0.00691657
-0.037288
0.00571146
-0.0380098
0.0047359
-0.0386836
0.00409664
-0.0393627
0.00362806
-0.0399796
0.00311954
-0.0404879
0.00261104
-0.0409375
0.00226838
-0.0414044
0.00212043
-0.0418973
0.00201938
-0.0423517
0.00181221
-0.042697
0.00150054
-0.0429299
0.00124726
-0.0431227
0.00122209
-0.0433546
0.00143616
-0.0436568
0.00175688
-0.0440113
0.00202258
-0.0443733
0.00212468
-0.0446977
0.00204499
-0.0449684
0.00185955
-0.0452119
0.00167848
-0.045467
0.00155536
0.00150504
-0.0170173
0.0484541
-0.0280045
0.0387459
-0.0325055
0.0253664
-0.033991
0.017469
-0.0356255
0.0144585
-0.0366853
0.0113063
-0.0374163
0.00905228
-0.0382454
0.00774568
-0.0389878
0.00645388
-0.0394813
0.00522939
-0.0399831
0.0045984
-0.0406312
0.00427621
-0.0412455
0.00373383
-0.0416926
0.00305816
-0.0420572
0.00263296
-0.0424952
0.00255847
-0.0430292
0.00255331
-0.0435391
0.00232213
-0.0438924
0.00185387
-0.0440716
0.00142649
-0.0442016
0.00135204
-0.0444131
0.00164773
-0.0447447
0.00208842
-0.0451573
0.00243518
-0.04558
0.00254739
-0.0459443
0.0024093
-0.0462239
0.00213913
-0.0464598
0.00191435
-0.0467122
0.00180784
0.00178062
0.207447
0.00576042
0.207034
0.0111755
0.206432
0.0163505
0.205647
0.0213687
0.204688
0.0262947
0.20356
0.031183
0.202271
0.0360809
0.200825
0.0410302
0.199228
0.046068
0.197487
0.0512273
0.195606
0.0565383
0.193591
0.0620294
0.191447
0.0677279
0.18918
0.0736612
0.186794
0.0798578
0.184294
0.0863492
0.181683
0.093171
0.178962
0.100366
0.176132
0.107989
0.17319
0.116108
0.170134
0.124815
0.166957
0.134234
0.163657
0.144537
0.160234
0.155966
0.156712
0.168875
0.153185
0.183793
0.150021
0.201515
0.148902
0.222955
0.160639
0.24559
0.258708
0.236333
0.21249
0.00595287
0.212118
0.0115484
0.211574
0.0168942
0.210868
0.0220747
0.210007
0.0271553
0.209
0.0321906
0.207852
0.0372281
0.206573
0.0423096
0.205169
0.0474718
0.203649
0.0527475
0.202021
0.0581665
0.200294
0.0637565
0.198477
0.0695441
0.196583
0.075556
0.194621
0.0818197
0.192605
0.0883651
0.190549
0.0952264
0.188472
0.102444
0.186394
0.110067
0.184343
0.118158
0.182361
0.126797
0.180509
0.136087
0.178885
0.146161
0.177661
0.15719
0.17716
0.169376
0.178037
0.182916
0.18171
0.197842
0.190786
0.213879
0.206275
0.230101
0.245578
0.219405
0.217658
0.00612283
0.217329
0.0118774
0.21685
0.0173729
0.21623
0.0226945
0.215477
0.0279078
0.214601
0.0330674
0.213608
0.0382205
0.212509
0.0434085
0.211314
0.0486674
0.210032
0.0540293
0.208676
0.059523
0.207257
0.0651748
0.205791
0.0710101
0.204294
0.0770534
0.202784
0.0833298
0.201283
0.0898662
0.199817
0.0966922
0.198419
0.103842
0.197131
0.111355
0.196009
0.119281
0.195131
0.127675
0.19461
0.136608
0.194617
0.146154
0.195416
0.156391
0.197416
0.167376
0.201229
0.179103
0.207624
0.191447
0.217261
0.204242
0.229855
0.217507
0.228662
0.246771
0.222951
0.00626832
0.22267
0.0121588
0.222262
0.0177812
0.221735
0.0232209
0.221099
0.0285435
0.220364
0.0338031
0.219538
0.0390463
0.218633
0.0443137
0.21766
0.0496404
0.216632
0.055057
0.215564
0.0605907
0.214473
0.0662663
0.213376
0.0721066
0.212296
0.0781332
0.211259
0.0843676
0.210293
0.0908317
0.209437
0.0975488
0.208735
0.104544
0.208246
0.111844
0.208047
0.119479
0.208241
0.127482
0.208967
0.135881
0.210419
0.144702
0.21286
0.15395
0.216637
0.163599
0.222169
0.173571
0.229904
0.183712
0.240412
0.193735
0.254608
0.203311
0.210186
0.273084
0.228374
0.00638747
0.228144
0.0123889
0.227811
0.0181138
0.227385
0.0236473
0.226874
0.0290545
0.226289
0.0343885
0.22564
0.0396951
0.22494
0.0450137
0.224202
0.050378
0.223442
0.0558169
0.222677
0.0613557
0.221927
0.0670164
0.221215
0.072819
0.220566
0.0787815
0.220013
0.0849206
0.219593
0.0912521
0.21935
0.0977915
0.219341
0.104553
0.219634
0.111551
0.220317
0.118796
0.221505
0.126295
0.22334
0.134046
0.226009
0.142033
0.229741
0.150217
0.234817
0.158523
0.241564
0.166824
0.250361
0.174915
0.261652
0.182443
0.275909
0.189053
0.193659
0.292436
0.233929
0.00647861
0.233754
0.0125644
0.233501
0.0183662
0.233181
0.0239678
0.232802
0.0294335
0.232375
0.0348153
0.231913
0.0401578
0.231428
0.0454986
0.230936
0.0508699
0.230454
0.0562984
0.230003
0.061807
0.229605
0.0674149
0.229285
0.0731383
0.229075
0.0789912
0.229011
0.0849849
0.229134
0.0911288
0.229496
0.0974299
0.230157
0.103892
0.231192
0.110516
0.232693
0.117295
0.23477
0.124217
0.23756
0.131256
0.241227
0.138367
0.245962
0.145482
0.251986
0.152499
0.25954
0.15927
0.268867
0.165589
0.280142
0.171168
0.293462
0.175733
0.178774
0.308348
0.23962
0.00654023
0.239502
0.0126826
0.239334
0.0185341
0.239124
0.0241771
0.238883
0.0296744
0.238622
0.0350766
0.238353
0.0404267
0.238091
0.0457605
0.237853
0.051108
0.237658
0.0564937
0.237527
0.0619377
0.237486
0.067456
0.237563
0.0730611
0.237792
0.0787622
0.238212
0.0845656
0.238867
0.0904738
0.239811
0.0964858
0.241107
0.102596
0.242829
0.108794
0.245064
0.11506
0.247917
0.121365
0.251506
0.127667
0.255966
0.133907
0.261446
0.140001
0.268104
0.145842
0.276088
0.151286
0.285517
0.15616
0.296437
0.160247
0.308836
0.163334
0.165154
0.322455
0.245448
0.00657108
0.24539
0.012741
0.24531
0.0186141
0.245216
0.0242709
0.245118
0.0297722
0.245028
0.035167
0.244958
0.0404962
0.244925
0.0457937
0.244946
0.0510872
0.245041
0.0563985
0.245234
0.0617448
0.245551
0.0671389
0.246023
0.0725894
0.246684
0.0781013
0.247574
0.0836752
0.24874
0.089308
0.250234
0.0949916
0.252118
0.100713
0.254461
0.106451
0.257343
0.112178
0.260853
0.117855
0.26509
0.12343
0.270158
0.128839
0.276162
0.133997
0.283204
0.1388
0.291363
0.143127
0.300687
0.146836
0.311163
0.149771
0.322725
0.151773
0.15271
0.335169
0.251418
0.00657014
0.251421
0.0127376
0.251432
0.0186035
0.251457
0.0242458
0.251506
0.0297232
0.251591
0.0350825
0.251724
0.0403626
0.251923
0.045595
0.252205
0.0508048
0.252592
0.0560115
0.253108
0.0612293
0.253779
0.0664675
0.254637
0.0717313
0.255717
0.0770213
0.257059
0.0823338
0.258706
0.0876603
0.260711
0.0929872
0.263128
0.0982951
0.266021
0.103558
0.269459
0.10874
0.273513
0.1138
0.27826
0.118683
0.283776
0.123323
0.290129
0.127643
0.297377
0.131553
0.305552
0.134951
0.314656
0.137732
0.324644
0.139783
0.335416
0.141001
0.141325
0.346801
0.257532
0.00653665
0.257599
0.012671
0.257702
0.0185004
0.257848
0.0240996
0.258046
0.0295249
0.258308
0.0348209
0.258647
0.0400239
0.259078
0.0451632
0.259622
0.0502615
0.260298
0.0553353
0.261131
0.0603961
0.262148
0.0654503
0.26338
0.0704995
0.26486
0.075541
0.266627
0.080567
0.268722
0.0855652
0.271192
0.0905179
0.274085
0.0954017
0.277456
0.100187
0.28136
0.104836
0.285854
0.109307
0.290992
0.113545
0.296825
0.117491
0.303391
0.121076
0.310717
0.124228
0.318802
0.126866
0.32762
0.128913
0.337108
0.130296
0.347159
0.130949
0.130851
0.357633
0.263794
0.00647015
0.263925
0.0125404
0.264121
0.0183036
0.26439
0.0238312
0.264738
0.0291765
0.265178
0.0343817
0.265721
0.0394806
0.266384
0.0445001
0.267185
0.0494603
0.268145
0.0543753
0.269288
0.0592538
0.270638
0.0640995
0.272227
0.0689112
0.274084
0.0736832
0.276247
0.0784049
0.278751
0.0830612
0.281637
0.0876318
0.284947
0.0920913
0.288725
0.0964089
0.293013
0.100548
0.297853
0.104467
0.30328
0.108117
0.309324
0.111447
0.316002
0.114399
0.323314
0.116915
0.331242
0.118938
0.339744
0.120412
0.348749
0.121291
0.358158
0.121539
0.121156
0.367854
0.270207
0.00637047
0.270402
0.0123455
0.270692
0.0180129
0.271083
0.0234403
0.271582
0.0286781
0.272197
0.0337659
0.272943
0.0387349
0.273834
0.0436095
0.274887
0.0484073
0.276122
0.0531401
0.277562
0.0578142
0.27923
0.062431
0.281154
0.066987
0.283363
0.0714744
0.285887
0.0758806
0.28876
0.0801889
0.292014
0.0843779
0.295683
0.0884219
0.299801
0.0922908
0.304399
0.0959503
0.309504
0.0993623
0.315136
0.102485
0.321307
0.105275
0.328019
0.107687
0.335257
0.109678
0.34299
0.111205
0.351168
0.112234
0.359722
0.112737
0.368564
0.112698
0.112127
0.377593
0.276774
0.00623769
0.277033
0.0120864
0.277417
0.0176287
0.277929
0.022928
0.278576
0.0280317
0.279365
0.0329764
0.280309
0.037791
0.281421
0.0424972
0.282718
0.0471106
0.284217
0.0516407
0.28594
0.0560918
0.287907
0.0604634
0.290144
0.0647503
0.292675
0.0689434
0.295527
0.0730289
0.298726
0.0769896
0.3023
0.0808043
0.306273
0.0844482
0.310671
0.0878934
0.315512
0.091109
0.320813
0.0940618
0.326581
0.0967172
0.332815
0.0990402
0.339506
0.100997
0.346629
0.102555
0.354147
0.103687
0.362008
0.104372
0.370149
0.104597
0.37849
0.104357
0.10367
0.386947
0.283498
0.00607221
0.283821
0.011764
0.284297
0.0171524
0.284928
0.0222963
0.28572
0.0272401
0.286679
0.0320175
0.287815
0.0366547
0.289141
0.0411713
0.290671
0.0455806
0.292422
0.0498903
0.29441
0.0541032
0.296656
0.0582172
0.29918
0.0622262
0.302004
0.06612
0.305148
0.069885
0.308633
0.073504
0.312481
0.076957
0.316708
0.0802212
0.32133
0.0832715
0.326357
0.0860813
0.331796
0.0886229
0.337645
0.0908685
0.343894
0.0927911
0.350525
0.0943659
0.357508
0.0955713
0.364804
0.0963905
0.372364
0.0968124
0.380127
0.0968335
0.388027
0.0964571
0.0957036
0.395993
0.290384
0.00587465
0.290768
0.0113796
0.291335
0.0165859
0.292083
0.0215483
0.293015
0.0263075
0.294138
0.0308947
0.295459
0.0353334
0.29699
0.0396411
0.298741
0.0438293
0.300727
0.047904
0.302964
0.0518667
0.305466
0.0557144
0.308252
0.0594405
0.311338
0.0630346
0.314739
0.0664834
0.318472
0.0697709
0.322551
0.0728787
0.326985
0.0757867
0.331783
0.0784731
0.336949
0.0809159
0.342479
0.0830926
0.348366
0.0849818
0.354593
0.0865638
0.361138
0.0878214
0.367968
0.0887412
0.375044
0.0893141
0.38232
0.0895367
0.389742
0.0894114
0.397253
0.0889464
0.0881628
0.404793
0.297435
0.00564588
0.297879
0.0109349
0.298533
0.015932
0.299394
0.0206877
0.300462
0.0252391
0.301742
0.0296147
0.30324
0.0338357
0.304963
0.0379175
0.306923
0.0418699
0.309129
0.0456978
0.311594
0.0494015
0.314331
0.0529776
0.317352
0.0564192
0.32067
0.0597166
0.324297
0.0628572
0.328241
0.0658265
0.332511
0.0686083
0.337113
0.0711853
0.342046
0.0735395
0.347309
0.075653
0.352893
0.0775085
0.358785
0.0790901
0.364965
0.0803842
0.371406
0.0813799
0.378077
0.0820699
0.384941
0.0824509
0.391953
0.0825245
0.399067
0.082297
0.406234
0.0817792
0.0809919
0.413405
0.304654
0.00538697
0.305157
0.0104319
0.305895
0.015194
0.306864
0.0197189
0.308062
0.0240408
0.309492
0.0281852
0.311156
0.0321712
0.313061
0.0360122
0.315215
0.0397166
0.317624
0.0432882
0.320299
0.0467269
0.323247
0.0500289
0.326479
0.0531877
0.330001
0.0561942
0.333821
0.0590371
0.337944
0.0617037
0.342372
0.0641802
0.347105
0.0664522
0.35214
0.0685053
0.357467
0.0703254
0.363076
0.0718999
0.368948
0.0732177
0.375062
0.07427
0.381392
0.0750507
0.387904
0.0755572
0.394565
0.0757904
0.401334
0.0757549
0.408172
0.0754594
0.415035
0.0749159
0.0741441
0.421883
0.312046
0.00509913
0.312605
0.00987315
0.313423
0.0143754
0.314495
0.0186471
0.315817
0.0227192
0.317388
0.0266145
0.319209
0.0303499
0.321284
0.0339373
0.323617
0.0373837
0.326213
0.0406922
0.329078
0.0438622
0.332216
0.0468902
0.335634
0.04977
0.339335
0.0524936
0.343321
0.0550511
0.347592
0.0574319
0.352148
0.0596243
0.356984
0.061617
0.36209
0.0633987
0.367457
0.064959
0.373067
0.0662891
0.378904
0.0673817
0.384942
0.0682319
0.391155
0.0688374
0.397513
0.0691989
0.403984
0.0693198
0.410532
0.069207
0.417121
0.0688701
0.423715
0.0683215
0.0675793
0.43028
0.319615
0.00478367
0.320227
0.00926117
0.321122
0.0134801
0.322292
0.0174776
0.32373
0.0212811
0.325433
0.024911
0.327401
0.0283822
0.329633
0.0317051
0.332131
0.0348855
0.334897
0.037926
0.337934
0.0408258
0.341242
0.0435817
0.344824
0.0461882
0.348679
0.0486384
0.352806
0.050924
0.357202
0.0530362
0.361861
0.0549658
0.366774
0.0567039
0.37193
0.0582421
0.377316
0.0595733
0.382914
0.0606915
0.388702
0.0615928
0.394659
0.0622752
0.400757
0.0627391
0.406969
0.0629872
0.413264
0.0630249
0.419611
0.0628599
0.425979
0.0625024
0.432336
0.0619644
0.0612622
0.438653
0.327365
0.00444196
0.328027
0.00859865
0.328995
0.0125123
0.330257
0.0162158
0.331805
0.0197336
0.333632
0.0230835
0.335736
0.0262786
0.338113
0.0293277
0.340763
0.032236
0.343683
0.0350053
0.346874
0.037635
0.350334
0.0401223
0.354059
0.0424624
0.358048
0.0446495
0.362295
0.0466771
0.366793
0.0485379
0.371534
0.0502251
0.376506