/*--------------------------------*- C++ -*----------------------------------*\
  =========                 |
  \\      /  F ield         | OpenFOAM: The Open Source CFD Toolbox
   \\    /   O peration     | Website:  https://openfoam.org
    \\  /    A nd           | Version:  7
     \\/     M anipulation  |
\*---------------------------------------------------------------------------*/
FoamFile
{
    version     2.0;
    format      ascii;
    class       volVectorField;
    location    "3.8";
    object      U;
}
// * * * * * * * * * * * * * * * * * * * * * * * * * * * * * * * * * * * * * //

dimensions      [0 1 -1 0 0 0 0];

internalField   nonuniform List<vector> 
2790
(
(9.94399 0.0205232 0)
(9.87572 0.0295878 0)
(9.77521 0.0359897 0)
(9.64943 0.0425564 0)
(9.50409 0.0493857 0)
(9.34007 0.0564285 0)
(9.15654 0.063816 0)
(8.95262 0.0717117 0)
(8.72746 0.0802552 0)
(8.48008 0.0895733 0)
(8.20928 0.0997931 0)
(7.91365 0.111045 0)
(7.5917 0.12346 0)
(7.2418 0.137164 0)
(6.86235 0.152272 0)
(6.45183 0.16887 0)
(6.00892 0.186997 0)
(5.53273 0.206619 0)
(5.02302 0.22759 0)
(4.48051 0.249611 0)
(3.90723 0.272177 0)
(3.30691 0.294526 0)
(2.68537 0.315621 0)
(2.05071 0.334291 0)
(1.41189 0.350609 0)
(0.798118 0.372886 0)
(0.110834 0.325108 0)
(-0.469558 -0.114837 0)
(-0.453764 -0.297171 0)
(-0.231162 -0.423865 0)
(9.9985 0.0407032 0)
(9.98145 0.0623831 0)
(9.93574 0.0791406 0)
(9.86416 0.0966253 0)
(9.77097 0.115124 0)
(9.65715 0.134489 0)
(9.52205 0.154975 0)
(9.36485 0.176943 0)
(9.18472 0.200707 0)
(8.98067 0.226549 0)
(8.75153 0.254742 0)
(8.4959 0.285558 0)
(8.21222 0.319247 0)
(7.89884 0.356019 0)
(7.55407 0.396016 0)
(7.17623 0.439259 0)
(6.76383 0.485588 0)
(6.31572 0.534583 0)
(5.83132 0.585458 0)
(5.31096 0.636951 0)
(4.75624 0.687202 0)
(4.17051 0.733647 0)
(3.5594 0.772956 0)
(2.93166 0.801099 0)
(2.30005 0.813759 0)
(1.69305 0.807268 0)
(1.10725 0.747283 0)
(0.658955 0.547969 0)
(0.186552 0.224674 0)
(-0.00820012 -0.453705 0)
(9.99559 0.0432072 0)
(9.97556 0.0752723 0)
(9.9318 0.103347 0)
(9.86489 0.132372 0)
(9.77778 0.16306 0)
(9.67155 0.195399 0)
(9.54588 0.229743 0)
(9.40013 0.266602 0)
(9.23365 0.306469 0)
(9.04564 0.349804 0)
(8.83509 0.397068 0)
(8.60082 0.448717 0)
(8.34146 0.505185 0)
(8.05552 0.566855 0)
(7.7414 0.634001 0)
(7.39748 0.706719 0)
(7.02215 0.784824 0)
(6.61401 0.86771 0)
(6.172 0.954181 0)
(5.69571 1.04224 0)
(5.18571 1.12887 0)
(4.64405 1.20978 0)
(4.07489 1.27916 0)
(3.48548 1.32934 0)
(2.88695 1.3501 0)
(2.29956 1.32645 0)
(1.73193 1.22082 0)
(1.21632 0.973062 0)
(0.701194 0.570213 0)
(0.358071 -0.156465 0)
(9.99403 0.0494997 0)
(9.97181 0.0932072 0)
(9.92788 0.133573 0)
(9.86224 0.17421 0)
(9.77693 0.216435 0)
(9.67298 0.260662 0)
(9.55031 0.30743 0)
(9.40849 0.357415 0)
(9.24702 0.411289 0)
(9.06533 0.469702 0)
(8.86269 0.533296 0)
(8.6382 0.602715 0)
(8.39085 0.678581 0)
(8.11953 0.761461 0)
(7.82302 0.851804 0)
(7.50004 0.949855 0)
(7.14928 1.05553 0)
(6.76949 1.16822 0)
(6.35955 1.28658 0)
(5.91867 1.40824 0)
(5.44661 1.52945 0)
(4.94409 1.64467 0)
(4.41327 1.74614 0)
(3.85837 1.82322 0)
(3.28592 1.86138 0)
(2.7065 1.84036 0)
(2.12573 1.72606 0)
(1.55433 1.47794 0)
(0.957993 1.08379 0)
(0.50944 0.502422 0)
(9.99331 0.0572142 0)
(9.96994 0.11096 0)
(9.92593 0.162106 0)
(9.86145 0.21335 0)
(9.77798 0.266359 0)
(9.67635 0.321916 0)
(9.55653 0.380703 0)
(9.41821 0.443488 0)
(9.26097 0.511054 0)
(9.08433 0.584165 0)
(8.8877 0.66358 0)
(8.67039 0.750052 0)
(8.43159 0.84432 0)
(8.17047 0.947065 0)
(7.88609 1.05885 0)
(7.5775 1.18005 0)
(7.2437 1.31065 0)
(6.88365 1.45015 0)
(6.49634 1.59719 0)
(6.0808 1.74929 0)
(5.63624 1.90238 0)
(5.16221 2.05029 0)
(4.65887 2.18416 0)
(4.12732 2.29174 0)
(3.56951 2.35658 0)
(2.98899 2.35736 0)
(2.38692 2.26503 0)
(1.76646 2.04774 0)
(1.09004 1.69152 0)
(0.536672 1.15428 0)
(9.99302 0.0655394 0)
(9.96923 0.128703 0)
(9.92556 0.190116 0)
(9.86253 0.251846 0)
(9.78128 0.315581 0)
(9.68244 0.382321 0)
(9.566 0.452876 0)
(9.43171 0.528101 0)
(9.2792 0.608878 0)
(9.10805 0.696079 0)
(8.91777 0.79057 0)
(8.70774 0.893211 0)
(8.47728 1.00484 0)
(8.22568 1.12623 0)
(7.95216 1.25806 0)
(7.65591 1.40078 0)
(7.33606 1.5545 0)
(6.99168 1.71882 0)
(6.62174 1.89251 0)
(6.22507 2.07318 0)
(5.80036 2.25681 0)
(5.34613 2.43717 0)
(4.86081 2.60517 0)
(4.34281 2.74822 0)
(3.79051 2.84957 0)
(3.20268 2.88825 0)
(2.57667 2.83831 0)
(1.91355 2.67173 0)
(1.1728 2.37415 0)
(0.549991 1.89456 0)
(9.99297 0.0740758 0)
(9.96926 0.146316 0)
(9.92637 0.217486 0)
(9.86508 0.289295 0)
(9.78642 0.363359 0)
(9.69084 0.44083 0)
(9.57834 0.522662 0)
(9.44871 0.609811 0)
(9.30164 0.703253 0)
(9.13677 0.803959 0)
(8.95363 0.91289 0)
(8.75169 1.031 0)
(8.53033 1.1592 0)
(8.28887 1.29837 0)
(8.02659 1.44926 0)
(7.7427 1.61244 0)
(7.43632 1.78814 0)
(7.10644 1.97611 0)
(6.75185 2.17535 0)
(6.37107 2.38376 0)
(5.96218 2.59768 0)
(5.52273 2.81133 0)
(5.04964 3.01612 0)
(4.53913 3.19995 0)
(3.98679 3.3467 0)
(3.38804 3.43602 0)
(2.73736 3.44341 0)
(2.03633 3.34163 0)
(1.24181 3.11375 0)
(0.563542 2.69335 0)
(9.99306 0.0825892 0)
(9.96981 0.163609 0)
(9.92807 0.244053 0)
(9.86884 0.325484 0)
(9.79312 0.40945 0)
(9.70125 0.49721 0)
(9.59322 0.589842 0)
(9.46887 0.688397 0)
(9.32795 0.793938 0)
(9.17013 0.907523 0)
(8.99501 1.0302 0)
(8.80209 1.16302 0)
(8.5908 1.30698 0)
(8.3605 1.46306 0)
(8.11045 1.63211 0)
(7.83981 1.81482 0)
(7.54763 2.01161 0)
(7.2327 2.22245 0)
(6.89355 2.44666 0)
(6.52823 2.68262 0)
(6.13417 2.92728 0)
(5.70795 3.17571 0)
(5.24509 3.42032 0)
(4.73992 3.65018 0)
(4.18563 3.85025 0)
(3.57491 4.00095 0)
(2.89966 4.07801 0)
(2.16222 4.05255 0)
(1.3162 3.90191 0)
(0.583254 3.54039 0)
(9.99326 0.0909297 0)
(9.97072 0.180411 0)
(9.93046 0.269672 0)
(9.87362 0.360247 0)
(9.80117 0.453652 0)
(9.71343 0.551215 0)
(9.61037 0.654116 0)
(9.49187 0.763498 0)
(9.35774 0.880503 0)
(9.20772 1.00627 0)
(9.04144 1.14195 0)
(8.85846 1.28865 0)
(8.65826 1.44749 0)
(8.4402 1.61955 0)
(8.20357 1.80582 0)
(7.94746 2.00715 0)
(7.67079 2.22418 0)
(7.37219 2.4572 0)
(7.04983 2.70597 0)
(6.70133 2.96948 0)
(6.32343 3.24557 0)
(5.91176 3.53045 0)
(5.4605 3.818 0)
(4.96217 4.09895 0)
(4.40758 4.35987 0)
(3.78658 4.58216 0)
(3.08774 4.7412 0)
(2.31285 4.80465 0)
(1.41074 4.74134 0)
(0.614353 4.44222 0)
(9.99352 0.0989939 0)
(9.9719 0.196582 0)
(9.9334 0.2942 0)
(9.87924 0.393423 0)
(9.81039 0.495762 0)
(9.72716 0.602595 0)
(9.62952 0.715187 0)
(9.5174 0.834764 0)
(9.39067 0.962543 0)
(9.24911 1.09974 0)
(9.09243 1.24758 0)
(8.92026 1.40727 0)
(8.73211 1.58004 0)
(8.5274 1.76707 0)
(8.30542 1.96951 0)
(8.06525 2.18842 0)
(7.80573 2.42472 0)
(7.52531 2.67908 0)
(7.22194 2.95182 0)
(6.89282 3.24272 0)
(6.53411 3.55068 0)
(6.14059 3.87339 0)
(5.7052 4.20662 0)
(5.21866 4.54333 0)
(4.66919 4.87242 0)
(4.04308 5.17702 0)
(3.3239 5.43244 0)
(2.50995 5.60219 0)
(1.542 5.64381 0)
(0.664118 5.41842 0)
(9.99384 0.106706 0)
(9.9733 0.212004 0)
(9.93679 0.317508 0)
(9.88557 0.424863 0)
(9.82063 0.535597 0)
(9.74224 0.651128 0)
(9.65043 0.772794 0)
(9.54516 0.901889 0)
(9.42636 1.0397 0)
(9.29388 1.18751 0)
(9.1475 1.34662 0)
(8.98691 1.51833 0)
(8.81172 1.70396 0)
(8.6214 1.90483 0)
(8.41529 2.12225 0)
(8.19251 2.35753 0)
(7.95187 2.61188 0)
(7.69179 2.88644 0)
(7.41007 3.18217 0)
(7.10368 3.49974 0)
(6.76842 3.83934 0)
(6.39844 4.20041 0)
(5.98571 4.58107 0)
(5.51928 4.97724 0)
(4.98461 5.38128 0)
(4.36353 5.77959 0)
(3.63217 6.14927 0)
(2.78038 6.45093 0)
(1.73364 6.62891 0)
(0.744922 6.50359 0)
(9.9942 0.114008 0)
(9.97487 0.22658 0)
(9.94055 0.33948 0)
(9.89251 0.454432 0)
(9.83173 0.572993 0)
(9.7585 0.696619 0)
(9.67287 0.826702 0)
(9.57486 0.964599 0)
(9.46446 1.11165 0)
(9.34159 1.26921 0)
(9.20612 1.43864 0)
(9.05783 1.62132 0)
(8.89641 1.81866 0)
(8.72143 2.03211 0)
(8.53234 2.26317 0)
(8.32833 2.51336 0)
(8.10833 2.78425 0)
(7.8708 3.07745 0)
(7.61362 3.3946 0)
(7.33376 3.73734 0)
(7.02698 4.10729 0)
(6.68725 4.50586 0)
(6.30603 4.93395 0)
(5.87129 5.39132 0)
(5.36604 5.87527 0)
(4.76721 6.37824 0)
(4.04106 6.88335 0)
(3.16181 7.3538 0)
(2.02502 7.72371 0)
(0.880875 7.75777 0)
(9.99459 0.120856 0)
(9.97657 0.24023 0)
(9.94461 0.360015 0)
(9.89995 0.482011 0)
(9.84355 0.607807 0)
(9.77574 0.738894 0)
(9.6966 0.876708 0)
(9.60621 1.02265 0)
(9.50461 1.17812 0)
(9.39181 1.34451 0)
(9.26778 1.52324 0)
(9.13238 1.71576 0)
(8.98543 1.92358 0)
(8.82664 2.14825 0)
(8.65558 2.39142 0)
(8.47163 2.65485 0)
(8.27388 2.94043 0)
(8.06105 3.25022 0)
(7.83125 3.58654 0)
(7.5818 3.95201 0)
(7.30882 4.34965 0)
(7.00672 4.78296 0)
(6.66734 5.2559 0)
(6.27867 5.77276 0)
(5.82273 6.33754 0)
(5.27285 6.95235 0)
(4.58498 7.61372 0)
(3.71045 8.30124 0)
(2.48862 8.95887 0)
(1.12472 9.29421 0)
(9.99501 0.127214 0)
(9.97837 0.252891 0)
(9.9489 0.37903 0)
(9.90779 0.507498 0)
(9.85597 0.639921 0)
(9.7938 0.777816 0)
(9.7214 0.922651 0)
(9.63891 1.07587 0)
(9.54644 1.2389 0)
(9.44409 1.41317 0)
(9.33191 1.60015 0)
(9.2099 1.80134 0)
(9.078 2.01831 0)
(8.93608 2.25271 0)
(8.78392 2.50632 0)
(8.6211 2.78109 0)
(8.44702 3.07918 0)
(8.26075 3.40306 0)
(8.0609 3.75561 0)
(7.84542 4.14031 0)
(7.61131 4.56146 0)
(7.35412 5.02447 0)
(7.06724 5.53627 0)
(6.74058 6.10589 0)
(6.3582 6.74501 0)
(5.89448 7.46876 0)
(5.30135 8.2963 0)
(4.50959 9.24825 0)
(3.26958 10.3426 0)
(1.60551 11.3607 0)
(9.99544 0.133054 0)
(9.98026 0.264511 0)
(9.95339 0.396453 0)
(9.91595 0.530802 0)
(9.86887 0.669215 0)
(9.81251 0.813229 0)
(9.74705 0.964338 0)
(9.67268 1.12401 0)
(9.58959 1.29369 0)
(9.49797 1.47484 0)
(9.39797 1.66895 0)
(9.28972 1.87756 0)
(9.1733 2.10226 0)
(9.04879 2.3448 0)
(8.91616 2.60703 0)
(8.7753 2.89103 0)
(8.62598 3.19916 0)
(8.46775 3.53417 0)
(8.29987 3.89937 0)
(8.12122 4.29886 0)
(7.9301 4.73784 0)
(7.72395 5.22318 0)
(7.49893 5.76409 0)
(7.24918 6.3734 0)
(6.9652 7.06956 0)
(6.63148 7.88043 0)
(6.21525 8.85147 0)
(5.66709 10.0658 0)
(4.6918 11.7318 0)
(2.68869 14.5954 0)
(0.133219 -0.136537 0)
(0.308457 -0.122683 0)
(0.489615 -0.0980586 0)
(0.644604 -0.0758374 0)
(0.768999 -0.0580638 0)
(0.868202 -0.0442706 0)
(0.948437 -0.0337185 0)
(1.01451 -0.0257755 0)
(1.06999 -0.0198943 0)
(1.11762 -0.0155925 0)
(1.15954 -0.0124497 0)
(1.19727 -0.0100985 0)
(1.23178 -0.00821769 0)
(1.26347 -0.0065435 0)
(1.29227 -0.00489871 0)
(1.31785 -0.00321548 0)
(1.33984 -0.00150707 0)
(1.35798 0.000235852 0)
(1.37192 0.00215976 0)
(1.38092 0.00448708 0)
(1.38388 0.00715414 0)
(1.38013 0.00935287 0)
(1.36989 0.0106677 0)
(1.35603 0.0105876 0)
(1.34243 0.00926293 0)
(1.33169 0.00727422 0)
(1.32446 0.00501281 0)
(1.32072 0.002434 0)
(1.32173 -8.29302e-05 0)
(1.3301 -0.00237342 0)
(0.108222 -0.30563 0)
(0.276478 -0.28547 0)
(0.441982 -0.234884 0)
(0.586047 -0.187619 0)
(0.705492 -0.14958 0)
(0.804998 -0.120017 0)
(0.889568 -0.0973904 0)
(0.962968 -0.0803432 0)
(1.02797 -0.0676924 0)
(1.0867 -0.0583994 0)
(1.14082 -0.0515619 0)
(1.19155 -0.0463881 0)
(1.23972 -0.0421786 0)
(1.28574 -0.0383496 0)
(1.32967 -0.0345026 0)
(1.37134 -0.0304928 0)
(1.41051 -0.0263948 0)
(1.44711 -0.0222898 0)
(1.48131 -0.017974 0)
(1.51316 -0.0129669 0)
(1.54192 -0.00711182 0)
(1.56592 -0.001436 0)
(1.58461 0.00269365 0)
(1.59933 0.00434644 0)
(1.6131 0.00393584 0)
(1.62813 0.00271748 0)
(1.64487 0.00133068 0)
(1.66297 -0.000511212 0)
(1.68105 -0.00274669 0)
(1.70188 -0.00433033 0)
(0.0819556 -0.475434 0)
(0.22271 -0.446223 0)
(0.350361 -0.370176 0)
(0.46137 -0.299218 0)
(0.552888 -0.242249 0)
(0.629508 -0.19784 0)
(0.694954 -0.163653 0)
(0.751926 -0.137644 0)
(0.80245 -0.118074 0)
(0.848105 -0.103453 0)
(0.890137 -0.0924976 0)
(0.929494 -0.0840791 0)
(0.966834 -0.0771865 0)
(1.00252 -0.0709544 0)
(1.03662 -0.0647665 0)
(1.06893 -0.0583897 0)
(1.09911 -0.051989 0)
(1.12704 -0.0458536 0)
(1.15301 -0.0398361 0)
(1.17771 -0.0329819 0)
(1.20134 -0.0241778 0)
(1.22292 -0.0141864 0)
(1.24051 -0.00695206 0)
(1.25353 -0.00522825 0)
(1.26425 -0.0075487 0)
(1.27474 -0.011319 0)
(1.28504 -0.0150065 0)
(1.29433 -0.0179779 0)
(1.30219 -0.0202058 0)
(1.31059 -0.0196064 0)
(0.0574741 -0.603115 0)
(0.163172 -0.559109 0)
(0.244874 -0.460493 0)
(0.31687 -0.371532 0)
(0.373693 -0.30125 0)
(0.420891 -0.246685 0)
(0.460554 -0.204725 0)
(0.49427 -0.172738 0)
(0.523313 -0.148573 0)
(0.548705 -0.130438 0)
(0.571263 -0.116805 0)
(0.59164 -0.106325 0)
(0.61036 -0.0977799 0)
(0.627811 -0.090093 0)
(0.644184 -0.0824491 0)
(0.659382 -0.0744765 0)
(0.672843 -0.0663644 0)
(0.683948 -0.0586769 0)
(0.69257 -0.0517346 0)
(0.700138 -0.0451535 0)
(0.708628 -0.0377518 0)
(0.718281 -0.0285844 0)
(0.722148 -0.0184354 0)
(0.71008 -0.0105901 0)
(0.68949 -0.00728481 0)
(0.668238 -0.00595139 0)
(0.647974 -0.00458704 0)
(0.627252 -0.00488036 0)
(0.608004 -0.00697922 0)
(0.591121 -0.0084646 0)
(0.0325433 -0.691228 0)
(0.0967386 -0.627372 0)
(0.126689 -0.509514 0)
(0.156629 -0.408563 0)
(0.174042 -0.329992 0)
(0.187058 -0.269128 0)
(0.195557 -0.222305 0)
(0.200369 -0.186508 0)
(0.202196 -0.15935 0)
(0.201624 -0.138884 0)
(0.199102 -0.123478 0)
(0.195028 -0.111697 0)
(0.189861 -0.102225 0)
(0.184094 -0.0938471 0)
(0.178171 -0.0855556 0)
(0.172311 -0.0767296 0)
(0.165678 -0.0673343 0)
(0.157456 -0.0578251 0)
(0.14479 -0.0484574 0)
(0.128173 -0.0385203 0)
(0.106153 -0.0262077 0)
(0.0838647 -0.0107891 0)
(0.0605099 0.00413969 0)
(0.0466554 0.0118902 0)
(0.0335438 0.0115358 0)
(0.0214879 0.00742732 0)
(0.0161166 0.00334122 0)
(0.0128324 -0.00110865 0)
(0.00970214 -0.0059181 0)
(0.0021344 -0.0149087 0)
(0.00595235 -0.733162 0)
(0.0230511 -0.645599 0)
(-0.00120357 -0.511826 0)
(-0.0161619 -0.404098 0)
(-0.0412162 -0.321046 0)
(-0.0662666 -0.257333 0)
(-0.0932046 -0.208654 0)
(-0.121153 -0.171729 0)
(-0.149637 -0.143898 0)
(-0.178255 -0.123024 0)
(-0.206742 -0.10738 0)
(-0.234835 -0.0954991 0)
(-0.262215 -0.0860451 0)
(-0.288535 -0.0778274 0)
(-0.313441 -0.0698887 0)
(-0.336573 -0.0616063 0)
(-0.357639 -0.0527659 0)
(-0.376545 -0.0435205 0)
(-0.393443 -0.0341669 0)
(-0.408263 -0.0247543 0)
(-0.420737 -0.0152359 0)
(-0.430336 -0.00563849 0)
(-0.435607 0.00258981 0)
(-0.440144 0.00781325 0)
(-0.446146 0.00902961 0)
(-0.453524 0.00643311 0)
(-0.460253 0.00313514 0)
(-0.465936 0.00104788 0)
(-0.472988 -0.00213548 0)
(-0.480532 -0.00799237 0)
(-0.0247856 -0.721624 0)
(-0.059606 -0.607037 0)
(-0.135738 -0.467568 0)
(-0.198895 -0.360454 0)
(-0.265571 -0.277943 0)
(-0.329387 -0.215955 0)
(-0.390005 -0.169583 0)
(-0.446585 -0.135282 0)
(-0.498645 -0.110264 0)
(-0.545973 -0.0922909 0)
(-0.588667 -0.0795287 0)
(-0.627045 -0.070448 0)
(-0.661498 -0.0636909 0)
(-0.692406 -0.0580772 0)
(-0.72005 -0.0527025 0)
(-0.744559 -0.0469917 0)
(-0.765954 -0.0406887 0)
(-0.784277 -0.0337519 0)
(-0.799687 -0.0261717 0)
(-0.812396 -0.01786 0)
(-0.82255 -0.00885825 0)
(-0.830612 0.000167034 0)
(-0.834884 0.00768826 0)
(-0.838788 0.0121114 0)
(-0.843564 0.0128967 0)
(-0.849861 0.0109118 0)
(-0.85705 0.00784318 0)
(-0.864311 0.00420888 0)
(-0.871039 -0.00108541 0)
(-0.876507 -0.00750714 0)
(-0.0616138 -0.653225 0)
(-0.14797 -0.519476 0)
(-0.273888 -0.380919 0)
(-0.382854 -0.277512 0)
(-0.487332 -0.20169 0)
(-0.581854 -0.147587 0)
(-0.665716 -0.109486 0)
(-0.73903 -0.0830797 0)
(-0.802644 -0.0652464 0)
(-0.857757 -0.0536803 0)
(-0.905577 -0.0464672 0)
(-0.947239 -0.0420855 0)
(-0.983706 -0.0392677 0)
(-1.01577 -0.0369777 0)
(-1.04406 -0.0345011 0)
(-1.06899 -0.0314431 0)
(-1.09077 -0.0276652 0)
(-1.10949 -0.0231442 0)
(-1.12525 -0.017808 0)
(-1.13823 -0.0115144 0)
(-1.14853 -0.00429223 0)
(-1.15637 0.00319435 0)
(-1.16198 0.00991031 0)
(-1.16711 0.0144423 0)
(-1.1726 0.0158755 0)
(-1.17906 0.0146482 0)
(-1.18642 0.0119372 0)
(-1.19445 0.00813742 0)
(-1.20237 0.00267948 0)
(-1.2065 -0.00302802 0)
(-0.104872 -0.526083 0)
(-0.244751 -0.381708 0)
(-0.420906 -0.253927 0)
(-0.569424 -0.16537 0)
(-0.703116 -0.104021 0)
(-0.818794 -0.063465 0)
(-0.91711 -0.0381508 0)
(-0.999497 -0.0234926 0)
(-1.06698 -0.0160797 0)
(-1.12316 -0.0128803 0)
(-1.17075 -0.0121649 0)
(-1.21188 -0.0128559 0)
(-1.24815 -0.0141418 0)
(-1.28026 -0.015318 0)
(-1.30863 -0.0157887 0)
(-1.33383 -0.0152661 0)
(-1.35611 -0.0137913 0)
(-1.3755 -0.0114661 0)
(-1.39194 -0.00822772 0)
(-1.4055 -0.00388286 0)
(-1.41638 0.00158344 0)
(-1.42459 0.00766962 0)
(-1.43176 0.0134204 0)
(-1.43851 0.0175812 0)
(-1.44546 0.0191751 0)
(-1.45301 0.0183231 0)
(-1.46134 0.0157964 0)
(-1.47047 0.0119109 0)
(-1.47923 0.00658888 0)
(-1.48378 0.00180829 0)
(-0.160145 -0.340867 0)
(-0.366489 -0.199675 0)
(-0.607529 -0.0826838 0)
(-0.796943 -0.0127352 0)
(-0.948392 0.0215881 0)
(-1.06881 0.0364837 0)
(-1.16454 0.0403588 0)
(-1.24146 0.0381687 0)
(-1.30521 0.0332661 0)
(-1.35844 0.0273479 0)
(-1.40353 0.0212769 0)
(-1.44217 0.0153966 0)
(-1.47549 0.00995978 0)
(-1.50474 0.00542902 0)
(-1.53101 0.00225256 0)
(-1.55485 0.000479607 0)
(-1.57637 -0.000193161 0)
(-1.59534 -3.09589e-05 0)
(-1.61146 0.00107735 0)
(-1.62472 0.00353095 0)
(-1.63559 0.00753785 0)
(-1.6451 0.0127377 0)
(-1.65394 0.0180349 0)
(-1.66266 0.0220156 0)
(-1.67156 0.0236809 0)
(-1.6808 0.0229771 0)
(-1.69059 0.0204821 0)
(-1.70116 0.0165809 0)
(-1.71111 0.0115593 0)
(-1.71628 0.00734743 0)
(-0.236194 -0.0643544 0)
(-0.49466 0.0899088 0)
(-0.751264 0.137204 0)
(-0.944875 0.147016 0)
(-1.10101 0.141837 0)
(-1.22594 0.128871 0)
(-1.32623 0.112826 0)
(-1.40724 0.0961354 0)
(-1.47325 0.0801034 0)
(-1.52784 0.0656382 0)
(-1.574 0.0531111 0)
(-1.61379 0.0422734 0)
(-1.64838 0.0329139 0)
(-1.67861 0.0252701 0)
(-1.70544 0.0196587 0)
(-1.72974 0.015922 0)
(-1.75188 0.0134125 0)
(-1.77158 0.0115955 0)
(-1.78836 0.0106261 0)
(-1.80223 0.0112343 0)
(-1.81393 0.0139795 0)
(-1.82455 0.0185401 0)
(-1.83506 0.023629 0)
(-1.8459 0.0276055 0)
(-1.85702 0.0292994 0)
(-1.8682 0.0285325 0)
(-1.87956 0.0258754 0)
(-1.89134 0.0219065 0)
(-1.90199 0.0171693 0)
(-1.90726 0.013411 0)
(-0.282746 0.317721 0)
(-0.570176 0.371653 0)
(-0.859996 0.353959 0)
(-1.07558 0.315725 0)
(-1.24243 0.272101 0)
(-1.37109 0.22935 0)
(-1.4716 0.190872 0)
(-1.55143 0.157449 0)
(-1.61573 0.128831 0)
(-1.66856 0.105153 0)
(-1.71344 0.0861232 0)
(-1.75263 0.0704268 0)
(-1.78699 0.0569427 0)
(-1.81701 0.0457773 0)
(-1.84373 0.0375238 0)
(-1.86843 0.0319399 0)
(-1.89161 0.0278033 0)
(-1.91261 0.0240415 0)
(-1.93041 0.0208167 0)
(-1.94481 0.0193996 0)
(-1.95685 0.0208974 0)
(-1.96818 0.0250663 0)
(-1.9801 0.0302809 0)
(-1.99294 0.03446 0)
(-2.00621 0.0361235 0)
(-2.01922 0.0350066 0)
(-2.03191 0.0318645 0)
(-2.0446 0.027646 0)
(-2.05574 0.023139 0)
(-2.06107 0.0198197 0)
(-0.335595 0.722865 0)
(-0.680205 0.712077 0)
(-1.00786 0.602656 0)
(-1.23097 0.494446 0)
(-1.39399 0.403367 0)
(-1.51511 0.326657 0)
(-1.60742 0.26455 0)
(-1.68017 0.21493 0)
(-1.73853 0.17436 0)
(-1.78624 0.142027 0)
(-1.82741 0.117471 0)
(-1.86466 0.0979243 0)
(-1.89803 0.0807082 0)
(-1.92705 0.065954 0)
(-1.95279 0.0551453 0)
(-1.97729 0.0481777 0)
(-2.00135 0.0429075 0)
(-2.02372 0.037294 0)
(-2.04239 0.0314656 0)
(-2.05675 0.0276207 0)
(-2.06834 0.0278337 0)
(-2.07973 0.0319769 0)
(-2.09271 0.0378012 0)
(-2.10752 0.0424891 0)
(-2.12304 0.0441081 0)
(-2.13797 0.0423566 0)
(-2.15192 0.038386 0)
(-2.16531 0.0337251 0)
(-2.1768 0.0294031 0)
(-2.18219 0.0265036 0)
(-0.439559 1.22323 0)
(-0.869095 1.11135 0)
(-1.22451 0.864968 0)
(-1.42591 0.662055 0)
(-1.56276 0.521632 0)
(-1.66236 0.410496 0)
(-1.73621 0.32702 0)
(-1.79534 0.265568 0)
(-1.84386 0.215331 0)
(-1.88323 0.174527 0)
(-1.91821 0.145378 0)
(-1.95255 0.123532 0)
(-1.98473 0.10318 0)
(-2.01203 0.0846614 0)
(-2.03552 0.0715308 0)
(-2.05886 0.0642484 0)
(-2.08368 0.0589542 0)
(-2.10772 0.0517564 0)
(-2.12721 0.0426879 0)
(-2.14075 0.0356045 0)
(-2.15075 0.0343727 0)
(-2.16132 0.0390233 0)
(-2.17507 0.0461677 0)
(-2.19198 0.0518093 0)
(-2.21009 0.0533949 0)
(-2.22713 0.050644 0)
(-2.24225 0.0453631 0)
(-2.25605 0.0399747 0)
(-2.26765 0.0357878 0)
(-2.27305 0.0332765 0)
(-0.64995 2.15537 0)
(-1.17805 1.74565 0)
(-1.55082 1.15521 0)
(-1.67615 0.760584 0)
(-1.74901 0.601894 0)
(-1.81185 0.475698 0)
(-1.85478 0.378646 0)
(-1.89443 0.310189 0)
(-1.93241 0.249092 0)
(-1.96126 0.1965 0)
(-1.98663 0.165784 0)
(-2.01699 0.147754 0)
(-2.04847 0.12705 0)
(-2.07345 0.104216 0)
(-2.09283 0.0877553 0)
(-2.11367 0.080785 0)
(-2.13954 0.0763583 0)
(-2.16637 0.0673027 0)
(-2.18712 0.053541 0)
(-2.19891 0.0417779 0)
(-2.20569 0.0389637 0)
(-2.21429 0.0452178 0)
(-2.22859 0.0549765 0)
(-2.24801 0.0623645 0)
(-2.26926 0.0640564 0)
(-2.28874 0.0598925 0)
(-2.30487 0.0526592 0)
(-2.3186 0.0461706 0)
(-2.32995 0.042156 0)
(-2.3353 0.0400597 0)
(9.9959 0.13845 0)
(9.98225 0.275247 0)
(9.9581 0.412537 0)
(9.92452 0.552289 0)
(9.88241 0.696179 0)
(9.83214 0.845759 0)
(9.77396 1.00254 0)
(9.70811 1.16799 0)
(9.63488 1.34357 0)
(9.55453 1.53075 0)
(9.46733 1.73103 0)
(9.37356 1.94594 0)
(9.27347 2.17712 0)
(9.16733 2.42631 0)
(9.05538 2.69542 0)
(8.93785 2.98659 0)
(8.81493 3.30227 0)
(8.68675 3.64535 0)
(8.55339 4.01933 0)
(8.41485 4.42861 0)
(8.27106 4.87882 0)
(8.12191 5.37742 0)
(7.96737 5.93458 0)
(7.8077 6.56466 0)
(7.64414 7.28873 0)
(7.48171 8.13941 0)
(7.33373 9.17067 0)
(7.29048 10.4761 0)
(7.75079 12.2007 0)
(7.93687 14.9204 0)
(9.99638 0.14341 0)
(9.98433 0.285103 0)
(9.96305 0.427267 0)
(9.9335 0.571901 0)
(9.89655 0.720697 0)
(9.8526 0.875211 0)
(9.80194 1.03695 0)
(9.74488 1.2074 0)
(9.68179 1.388 0)
(9.61303 1.58021 0)
(9.53899 1.78552 0)
(9.4601 2.00545 0)
(9.37678 2.24162 0)
(9.28952 2.49574 0)
(9.19884 2.76971 0)
(9.10531 3.06564 0)
(9.0096 3.38595 0)
(8.91245 3.73349 0)
(8.81478 4.11171 0)
(8.71776 4.52488 0)
(8.62302 4.9784 0)
(8.53292 5.47931 0)
(8.45118 6.03692 0)
(8.38408 6.66381 0)
(8.34282 7.3772 0)
(8.3495 8.20049 0)
(8.44305 9.16377 0)
(8.67946 10.3002 0)
(9.3277 11.5543 0)
(9.81978 12.6403 0)
(9.99688 0.147848 0)
(9.9865 0.293916 0)
(9.96818 0.44042 0)
(9.94281 0.589374 0)
(9.91119 0.742474 0)
(9.87375 0.90127 0)
(9.83082 1.06726 0)
(9.78278 1.2419 0)
(9.73007 1.42662 0)
(9.67316 1.62286 0)
(9.61254 1.83204 0)
(9.54878 2.05567 0)
(9.48249 2.29529 0)
(9.41438 2.55255 0)
(9.34524 2.82926 0)
(9.276 3.12742 0)
(9.20774 3.4493 0)
(9.14182 3.79754 0)
(9.07991 4.17524 0)
(9.02425 4.58617 0)
(8.97784 5.03493 0)
(8.94496 5.52718 0)
(8.93192 6.0699 0)
(8.94825 6.67148 0)
(9.00844 7.34133 0)
(9.13465 8.08807 0)
(9.35789 8.91349 0)
(9.68762 9.80635 0)
(10.2535 10.7151 0)
(10.9411 11.4291 0)
(9.9974 0.15171 0)
(9.98873 0.301579 0)
(9.97346 0.451829 0)
(9.95237 0.604477 0)
(9.92621 0.761209 0)
(9.89541 0.92356 0)
(9.86037 1.093 0)
(9.82152 1.27096 0)
(9.77935 1.45883 0)
(9.73443 1.65799 0)
(9.68737 1.86982 0)
(9.63886 2.09573 0)
(9.58969 2.33718 0)
(9.54075 2.5957 0)
(9.49309 2.87295 0)
(9.44796 3.17074 0)
(9.40682 3.49106 0)
(9.37152 3.83618 0)
(9.34435 4.20867 0)
(9.32828 4.61151 0)
(9.32724 5.04808 0)
(9.34654 5.52224 0)
(9.39342 6.03808 0)
(9.47779 6.59958 0)
(9.61285 7.20947 0)
(9.81543 7.8674 0)
(10.1083 8.56622 0)
(10.5 9.2912 0)
(11.0573 10.0322 0)
(11.8501 10.676 0)
(9.99792 0.154951 0)
(9.991 0.308 0)
(9.97883 0.461359 0)
(9.9621 0.617031 0)
(9.94148 0.776683 0)
(9.91742 0.941821 0)
(9.89035 1.11388 0)
(9.86075 1.29424 0)
(9.8292 1.48424 0)
(9.79631 1.68518 0)
(9.7628 1.89837 0)
(9.72949 2.1251 0)
(9.69729 2.36672 0)
(9.66729 2.6246 0)
(9.64072 2.90018 0)
(9.61909 3.19501 0)
(9.60416 3.51073 0)
(9.59812 3.84911 0)
(9.60366 4.21209 0)
(9.62417 4.60169 0)
(9.66395 5.02002 0)
(9.72855 5.46908 0)
(9.82503 5.95048 0)
(9.96235 6.46491 0)
(10.1516 7.01126 0)
(10.4057 7.58566 0)
(10.7421 8.17994 0)
(11.1723 8.77942 0)
(11.7192 9.37252 0)
(12.4718 9.88435 0)
(9.99845 0.157525 0)
(9.9933 0.313093 0)
(9.98426 0.468883 0)
(9.97192 0.626873 0)
(9.95687 0.788694 0)
(9.93958 0.955812 0)
(9.92049 1.12961 0)
(9.90015 1.31142 0)
(9.87916 1.50249 0)
(9.85822 1.70406 0)
(9.83812 1.9173 0)
(9.81976 2.14341 0)
(9.80419 2.38355 0)
(9.7926 2.63891 0)
(9.78641 2.91069 0)
(9.78726 3.20011 0)
(9.79712 3.50842 0)
(9.81836 3.83685 0)
(9.85383 4.18663 0)
(9.90704 4.55888 0)
(9.98226 4.9545 0)
(10.0847 5.37395 0)
(10.2207 5.81696 0)
(10.3979 6.28208 0)
(10.6249 6.76603 0)
(10.9115 7.26304 0)
(11.2689 7.76388 0)
(11.7051 8.25298 0)
(12.2207 8.71366 0)
(12.8958 9.10442 0)
(9.99898 0.159396 0)
(9.9956 0.31678 0)
(9.9897 0.474289 0)
(9.98174 0.633853 0)
(9.97226 0.79706 0)
(9.96169 0.965324 0)
(9.95054 1.13997 0)
(9.93934 1.32224 0)
(9.92877 1.51333 0)
(9.91956 1.71434 0)
(9.91256 1.92635 0)
(9.90875 2.15039 0)
(9.90923 2.38746 0)
(9.91529 2.63852 0)
(9.92844 2.9045 0)
(9.9504 3.18629 0)
(9.98321 3.48471 0)
(10.0293 3.80048 0)
(10.0914 4.13415 0)
(10.173 4.48602 0)
(10.278 4.85599 0)
(10.411 5.24335 0)
(10.5772 5.64653 0)
(10.7826 6.06271 0)
(11.0337 6.4874 0)
(11.3368 6.91392 0)
(11.6979 7.3329 0)
(12.1213 7.73093 0)
(12.6008 8.09346 0)
(13.2056 8.40001 0)
(9.99951 0.160528 0)
(9.99788 0.318997 0)
(9.99509 0.477479 0)
(9.99149 0.637846 0)
(9.9875 0.801631 0)
(9.98357 0.970184 0)
(9.98021 1.14476 0)
(9.97798 1.32652 0)
(9.97758 1.51654 0)
(9.97975 1.71584 0)
(9.98541 1.92536 0)
(9.99554 2.14595 0)
(10.0113 2.37843 0)
(10.034 2.62353 0)
(10.0652 2.88192 0)
(10.1066 3.15414 0)
(10.1602 3.4406 0)
(10.2284 3.74155 0)
(10.3137 4.05696 0)
(10.4192 4.38645 0)
(10.5484 4.72917 0)
(10.7049 5.08358 0)
(10.8931 5.4473 0)
(11.1172 5.81681 0)
(11.3814 6.1872 0)
(11.6896 6.55192 0)
(12.0446 6.90269 0)
(12.4478 7.2292 0)
(12.8917 7.52033 0)
(13.4342 7.76479 0)
(10 0.160894 0)
(10.0001 0.319687 0)
(10.0004 0.478372 0)
(10.0011 0.638752 0)
(10.0025 0.802289 0)
(10.005 0.970263 0)
(10.0092 1.14384 0)
(10.0157 1.32411 0)
(10.0251 1.51203 0)
(10.0382 1.70849 0)
(10.0559 1.91428 0)
(10.0793 2.13012 0)
(10.1094 2.35662 0)
(10.1476 2.59429 0)
(10.1953 2.84351 0)
(10.2543 3.10453 0)
(10.3264 3.3774 0)
(10.4137 3.66195 0)
(10.5186 3.95768 0)
(10.6437 4.26371 0)
(10.7918 4.57866 0)
(10.9658 4.90051 0)
(11.1689 5.22646 0)
(11.4039 5.55281 0)
(11.6735 5.8748 0)
(11.9794 6.18659 0)
(12.3225 6.48131 0)
(12.7026 6.75115 0)
(13.1119 6.98776 0)
(13.5993 7.18432 0)
(10.0005 0.160472 0)
(10.0023 0.318809 0)
(10.0056 0.47691 0)
(10.0104 0.636495 0)
(10.017 0.798951 0)
(10.0259 0.965476 0)
(10.0374 1.13715 0)
(10.0522 1.31495 0)
(10.071 1.49974 0)
(10.0944 1.69229 0)
(10.1235 1.89323 0)
(10.1592 2.10312 0)
(10.2025 2.32238 0)
(10.2548 2.55131 0)
(10.3175 2.79006 0)
(10.392 3.0386 0)
(10.4801 3.29667 0)
(10.5837 3.56376 0)
(10.7047 3.83905 0)
(10.8453 4.1213 0)
(11.0076 4.40883 0)
(11.1939 4.69937 0)
(11.4062 4.99005 0)
(11.6463 5.27729 0)
(11.9155 5.55681 0)
(12.2144 5.82362 0)
(12.5425 6.0722 0)
(12.8986 6.29666 0)
(13.2755 6.49098 0)
(13.715 6.65099 0)
(10.001 0.159248 0)
(10.0044 0.316333 0)
(10.0106 0.473053 0)
(10.0194 0.631031 0)
(10.031 0.791571 0)
(10.0459 0.955784 0)
(10.0644 1.12466 0)
(10.0871 1.29906 0)
(10.1147 1.47975 0)
(10.1479 1.66736 0)
(10.1875 1.8624 0)
(10.2345 2.06526 0)
(10.2899 2.2762 0)
(10.3549 2.49531 0)
(10.4308 2.72254 0)
(10.5188 2.95763 0)
(10.6205 3.20009 0)
(10.7375 3.44916 0)
(10.8714 3.70379 0)
(11.0238 3.96254 0)
(11.1963 4.2236 0)
(11.3904 4.48466 0)
(11.6074 4.74296 0)
(11.8481 4.99525 0)
(12.1131 5.23781 0)
(12.402 5.46656 0)
(12.7136 5.67716 0)
(13.0462 5.86526 0)
(13.3935 6.02664 0)
(13.792 6.15878 0)
(10.0015 0.157213 0)
(10.0065 0.312246 0)
(10.0154 0.466782 0)
(10.028 0.622343 0)
(10.0444 0.780141 0)
(10.065 0.941196 0)
(10.09 1.1064 0)
(10.1202 1.27652 0)
(10.156 1.45219 0)
(10.1981 1.63394 0)
(10.2474 1.82213 0)
(10.3047 2.01702 0)
(10.3709 2.2187 0)
(10.4471 2.42712 0)
(10.5344 2.64204 0)
(10.6339 2.86303 0)
(10.7469 3.08942 0)
(10.8747 3.32031 0)
(11.0184 3.5545 0)
(11.1793 3.79048 0)
(11.3585 4.02642 0)
(11.5569 4.26013 0)
(11.7751 4.48908 0)
(12.0134 4.71041 0)
(12.2716 4.92102 0)
(12.5488 5.11764 0)
(12.8436 5.29694 0)
(13.1539 5.45577 0)
(13.4746 5.59122 0)
(13.8378 5.70179 0)
(10.0019 0.154367 0)
(10.0084 0.306546 0)
(10.0199 0.4581 0)
(10.0361 0.610443 0)
(10.0571 0.764689 0)
(10.0829 0.921766 0)
(10.1141 1.08247 0)
(10.1512 1.24746 0)
(10.1945 1.41727 0)
(10.2449 1.5923 0)
(10.3029 1.77281 0)
(10.3694 1.95893 0)
(10.4451 2.15061 0)
(10.531 2.34767 0)
(10.628 2.54974 0)
(10.737 2.75625 0)
(10.8591 2.96644 0)
(10.9952 3.1793 0)
(11.1462 3.3936 0)
(11.3128 3.60784 0)
(11.4959 3.82027 0)
(11.6957 4.02888 0)
(11.9125 4.23143 0)
(12.146 4.42551 0)
(12.3957 4.60858 0)
(12.6605 4.77806 0)
(12.9388 4.93147 0)
(13.2286 5.06654 0)
(13.5254 5.18129 0)
(13.8583 5.27487 0)
(10.0024 0.150715 0)
(10.0102 0.299246 0)
(10.0241 0.447032 0)
(10.0438 0.59537 0)
(10.0689 0.74528 0)
(10.0997 0.897593 0)
(10.1366 1.05301 0)
(10.1799 1.21209 0)
(10.2301 1.37527 0)
(10.2878 1.54284 0)
(10.3536 1.71495 0)
(10.4282 1.89163 0)
(10.5121 2.07273 0)
(10.6062 2.25795 0)
(10.7113 2.44683 0)
(10.828 2.63873 0)
(10.9572 2.83282 0)
(11.0994 3.02808 0)
(11.2553 3.22328 0)
(11.4254 3.417 0)
(11.6099 3.60763 0)
(11.809 3.79338 0)
(12.0224 3.97234 0)
(12.2498 4.1425 0)
(12.4901 4.30182 0)
(12.7424 4.44833 0)
(13.0049 4.58019 0)
(13.2758 4.69578 0)
(13.5513 4.79378 0)
(13.8579 4.87377 0)
(10.0027 0.146269 0)
(10.0119 0.290373 0)
(10.0281 0.43362 0)
(10.0508 0.577193 0)
(10.0798 0.722011 0)
(10.1152 0.868814 0)
(10.1572 1.01821 0)
(10.2062 1.17066 0)
(10.2626 1.32651 0)
(10.3268 1.48597 0)
(10.3994 1.64909 0)
(10.4809 1.8158 0)
(10.5718 1.98588 0)
(10.6728 2.15897 0)
(10.7843 2.33452 0)
(10.9071 2.51188 0)
(11.0415 2.69019 0)
(11.1879 2.86844 0)
(11.3469 3.04548 0)
(11.5184 3.22 0)
(11.7026 3.39056 0)
(11.8993 3.5556 0)
(12.108 3.71354 0)
(12.3282 3.86272 0)
(12.5588 4.00155 0)
(12.7987 4.12853 0)
(13.0463 4.24231 0)
(13.3 4.34176 0)
(13.5566 4.42603 0)
(13.8402 4.49495 0)
(10.0031 0.141049 0)
(10.0134 0.279965 0)
(10.0317 0.417926 0)
(10.0573 0.555999 0)
(10.0898 0.695008 0)
(10.1293 0.835601 0)
(10.1759 0.978293 0)
(10.23 1.12347 0)
(10.2918 1.27139 0)
(10.3618 1.42217 0)
(10.4402 1.57581 0)
(10.5276 1.73216 0)
(10.6243 1.89094 0)
(10.7308 2.05173 0)
(10.8474 2.21399 0)
(10.9746 2.37702 0)
(11.1127 2.54 0)
(11.2618 2.70197 0)
(11.4221 2.86188 0)
(11.5936 3.01854 0)
(11.776 3.17071 0)
(11.9691 3.31706 0)
(12.1723 3.45628 0)
(12.3847 3.58706 0)
(12.6055 3.70815 0)
(12.8335 3.81843 0)
(13.0672 3.91692 0)
(13.3053 4.00286 0)
(13.545 4.07571 0)
(13.8085 4.13547 0)
(10.0034 0.135078 0)
(10.0148 0.26807 0)
(10.035 0.400025 0)
(10.0631 0.531901 0)