/*--------------------------------*- C++ -*----------------------------------*\
  =========                 |
  \\      /  F ield         | OpenFOAM: The Open Source CFD Toolbox
   \\    /   O peration     | Website:  https://openfoam.org
    \\  /    A nd           | Version:  7
     \\/     M anipulation  |
\*---------------------------------------------------------------------------*/
FoamFile
{
    version     2.0;
    format      ascii;
    class       surfaceVectorField;
    location    "3.8";
    object      Uf;
}
// * * * * * * * * * * * * * * * * * * * * * * * * * * * * * * * * * * * * * //

dimensions      [0 1 -1 0 0 0 0];

internalField   nonuniform List<vector> 
5457
(
(9.92088 0.0251097 0)
(9.97125 0.0387459 0)
(9.82401 0.032827 0)
(9.92859 0.0485854 0)
(9.70961 0.0393123 0)
(9.85548 0.0587685 0)
(9.57543 0.0460118 0)
(9.7568 0.0705939 0)
(9.42138 0.0529492 0)
(9.63753 0.0830139 0)
(9.24754 0.0601664 0)
(9.49861 0.095937 0)
(9.05362 0.067811 0)
(9.3393 0.109613 0)
(8.83892 0.0760345 0)
(9.15874 0.124289 0)
(8.60252 0.0849699 0)
(8.95609 0.140167 0)
(8.34326 0.0947443 0)
(8.73038 0.157433 0)
(8.05985 0.105486 0)
(8.4804 0.176269 0)
(7.75081 0.117326 0)
(8.20478 0.196855 0)
(7.41457 0.130394 0)
(7.90196 0.219359 0)
(7.04952 0.144808 0)
(7.57032 0.24392 0)
(6.65406 0.16067 0)
(7.20821 0.270629 0)
(6.22675 0.178041 0)
(6.81403 0.299496 0)
(5.76648 0.196925 0)
(6.38637 0.330409 0)
(5.27263 0.21723 0)
(5.92422 0.363079 0)
(4.74545 0.238732 0)
(5.42717 0.39697 0)
(4.18629 0.261029 0)
(4.89574 0.431232 0)
(3.59807 0.283485 0)
(4.33173 0.464615 0)
(2.98566 0.3052 0)
(3.73871 0.495422 0)
(2.35623 0.325068 0)
(3.12238 0.521511 0)
(1.71922 0.342548 0)
(2.49118 0.540558 0)
(1.08446 0.361881 0)
(1.85597 0.551677 0)
(0.451942 0.348712 0)
(1.24558 0.563023 0)
(-0.145772 0.102507 0)
(0.609042 0.544916 0)
(-0.423597 -0.207093 0)
(0.0946984 0.259411 0)
(-0.402149 -0.361275 0)
(-0.133606 -0.020511 0)
(-0.119681 -0.39388 0)
(9.99641 0.0516727 0)
(9.99705 0.0405049 0)
(9.95879 0.070862 0)
(9.97851 0.067455 0)
(9.89824 0.0879875 0)
(9.93377 0.0898707 0)
(9.81658 0.105985 0)
(9.86453 0.113556 0)
(9.71358 0.124922 0)
(9.77437 0.138516 0)
(9.58908 0.144854 0)
(9.66435 0.164647 0)
(9.44274 0.16609 0)
(9.53397 0.192332 0)
(9.2739 0.188967 0)
(9.38249 0.222031 0)
(9.08166 0.213782 0)
(9.20918 0.254148 0)
(8.8649 0.240814 0)
(9.01316 0.289063 0)
(8.6223 0.270334 0)
(8.79331 0.32715 0)
(8.35239 0.302604 0)
(8.54836 0.368782 0)
(8.05357 0.337853 0)
(8.27684 0.414311 0)
(7.72413 0.376257 0)
(7.97718 0.46404 0)
(7.3624 0.417896 0)
(7.64773 0.518181 0)
(6.96676 0.4627 0)
(7.28685 0.576797 0)
(6.53588 0.510378 0)
(6.89299 0.639715 0)
(6.06889 0.560324 0)
(6.46486 0.706416 0)
(5.56566 0.611512 0)
(6.00166 0.775897 0)
(5.02719 0.662377 0)
(5.50334 0.846512 0)
(4.45597 0.710702 0)
(4.97098 0.915796 0)
(3.8566 0.753536 0)
(4.40728 0.980299 0)
(3.2363 0.787196 0)
(3.81715 1.03545 0)
(2.60593 0.807505 0)
(3.20857 1.07549 0)
(1.9829 0.810475 0)
(2.5935 1.09316 0)
(1.40538 0.776917 0)
(1.99631 1.0771 0)
(0.929839 0.646435 0)
(1.41959 0.978446 0)
(0.439942 0.384389 0)
(0.937639 0.716838 0)
(0.0592158 -0.118569 0)
(0.443873 0.34358 0)
(0.174936 -0.335882 0)
(9.98903 0.0594314 0)
(9.99481 0.0458778 0)
(9.95434 0.0894773 0)
(9.97368 0.084855 0)
(9.89729 0.118033 0)
(9.92984 0.119175 0)
(9.82046 0.147899 0)
(9.86357 0.153978 0)
(9.72416 0.179423 0)
(9.77735 0.19041 0)
(9.60821 0.212776 0)
(9.67226 0.228638 0)
(9.47234 0.248393 0)
(9.54809 0.26913 0)
(9.31607 0.286774 0)
(9.40431 0.312497 0)
(9.13868 0.328396 0)
(9.24034 0.359324 0)
(8.93924 0.373719 0)
(9.05548 0.410172 0)
(8.71664 0.423201 0)
(8.84889 0.465593 0)
(8.4696 0.477288 0)
(8.61951 0.526145 0)
(8.19668 0.536389 0)
(8.36616 0.592362 0)
(7.89634 0.600829 0)
(8.08753 0.664724 0)
(7.56694 0.670795 0)
(7.78221 0.743601 0)
(7.20687 0.746238 0)
(7.44876 0.829169 0)
(6.81461 0.826762 0)
(7.08572 0.921296 0)
(6.38893 0.911462 0)
(6.69175 1.01938 0)
(5.9291 0.998737 0)
(6.26578 1.12215 0)
(5.43522 1.08607 0)
(5.80719 1.2274 0)
(4.90864 1.16981 0)
(5.31616 1.33173 0)
(4.35253 1.24488 0)
(4.79407 1.43017 0)
(3.7727 1.30455 0)
(4.24408 1.51587 0)
(3.17884 1.33985 0)
(3.67193 1.57943 0)
(2.58674 1.33814 0)
(3.08644 1.60776 0)
(2.01996 1.27301 0)
(2.50303 1.58161 0)
(1.48703 1.09546 0)
(1.92883 1.4643 0)
(0.958361 0.76923 0)
(1.38533 1.21047 0)
(0.479918 0.202532 0)
(0.829594 0.801118 0)
(0.433756 0.134168 0)
(9.98515 0.0716146 0)
(9.99367 0.0531484 0)
(9.95039 0.113631 0)
(9.97087 0.102292 0)
(9.89436 0.154135 0)
(9.9269 0.147955 0)
(9.81882 0.195575 0)
(9.86185 0.193723 0)
(9.72441 0.238813 0)
(9.77746 0.241279 0)
(9.61112 0.284326 0)
(9.67466 0.291165 0)
(9.47874 0.332721 0)
(9.55342 0.343957 0)
(9.32694 0.384674 0)
(9.41335 0.400372 0)
(9.15522 0.440844 0)
(9.25399 0.461138 0)
(8.9629 0.501879 0)
(9.07483 0.526958 0)
(8.74916 0.568421 0)
(8.87519 0.598529 0)
(8.51304 0.641102 0)
(8.65429 0.676552 0)
(8.25346 0.720516 0)
(8.41122 0.761707 0)
(7.96927 0.807172 0)
(8.145 0.854619 0)
(7.65919 0.901415 0)
(7.85456 0.955796 0)
(7.32195 1.00332 0)
(7.53877 1.06554 0)
(6.95625 1.11254 0)
(7.19649 1.18382 0)
(6.5609 1.2281 0)
(6.82657 1.31005 0)
(6.13495 1.34814 0)
(6.42795 1.44288 0)
(5.67792 1.46957 0)
(5.99973 1.57987 0)
(5.19009 1.58775 0)
(5.54142 1.71705 0)
(4.67297 1.69601 0)
(5.05315 1.84851 0)
(4.12991 1.78514 0)
(4.53607 1.96582 0)
(3.56677 1.84253 0)
(3.99285 2.0573 0)
(2.99216 1.85075 0)
(3.42772 2.10716 0)
(2.41595 1.78253 0)
(2.84775 2.09452 0)
(1.84063 1.60052 0)
(2.25633 1.98879 0)
(1.25945 1.27851 0)
(1.66039 1.75313 0)
(0.666805 0.789631 0)
(1.02402 1.36787 0)
(0.523056 0.787263 0)
(9.98337 0.0844083 0)
(9.99316 0.061292 0)
(9.94821 0.136838 0)
(9.96958 0.119928 0)
(9.89314 0.188034 0)
(9.92575 0.176242 0)
(9.81906 0.240171 0)
(9.86199 0.2327 0)
(9.72662 0.294469 0)
(9.77963 0.29109 0)
(9.61589 0.35166 0)
(9.67939 0.352276 0)
(9.4867 0.41247 0)
(9.56127 0.416978 0)
(9.33878 0.477675 0)
(9.42496 0.486008 0)
(9.1717 0.548047 0)
(9.27008 0.560202 0)
(8.98492 0.624347 0)
(9.09619 0.640381 0)
(8.77778 0.707333 0)
(8.90273 0.727358 0)
(8.54953 0.797749 0)
(8.68906 0.821943 0)
(8.29935 0.896306 0)
(8.45444 0.924923 0)
(8.02635 1.00363 0)
(8.19807 1.03703 0)
(7.72959 1.12017 0)
(7.91913 1.15888 0)
(7.40807 1.24613 0)
(7.6167 1.29089 0)
(7.0608 1.38123 0)
(7.28988 1.43311 0)
(6.68674 1.52455 0)
(6.93766 1.58506 0)
(6.28491 1.67415 0)
(6.55904 1.74546 0)
(5.85445 1.82675 0)
(6.15293 1.91184 0)
(5.39479 1.97722 0)
(5.7183 2.08012 0)
(4.90585 2.11803 0)
(5.25417 2.24405 0)
(4.38836 2.23859 0)
(4.75984 2.39458 0)
(3.84406 2.32455 0)
(4.23506 2.51919 0)
(3.27555 2.35698 0)
(3.68001 2.60125 0)
(2.6855 2.31064 0)
(3.09584 2.61974 0)
(2.07278 2.15509 0)
(2.4818 2.54739 0)
(1.42944 1.8675 0)
(1.84 2.35382 0)
(0.742647 1.41969 0)
(1.13142 2.02465 0)
(0.543331 1.51464 0)
(9.98264 0.0974987 0)
(9.99299 0.0697935 0)
(9.94744 0.159776 0)
(9.96925 0.137585 0)
(9.89354 0.22135 0)
(9.92597 0.203929 0)
(9.82133 0.284094 0)
(9.8638 0.270691 0)
(9.73133 0.34935 0)
(9.78385 0.339585 0)
(9.62366 0.41802 0)
(9.68664 0.411699 0)
(9.49818 0.490938 0)
(9.57217 0.487904 0)
(9.35464 0.568972 0)
(9.44021 0.569104 0)
(9.19268 0.652999 0)
(9.29042 0.65623 0)
(9.01182 0.743889 0)
(9.12241 0.750207 0)
(8.8115 0.842504 0)
(8.9357 0.851946 0)
(8.59108 0.949691 0)
(8.72971 0.962351 0)
(8.34985 1.06626 0)
(8.50381 1.0823 0)
(8.08706 1.19293 0)
(8.25728 1.21262 0)
(7.80193 1.33027 0)
(7.98938 1.35401 0)
(7.49361 1.47856 0)
(7.6993 1.50699 0)
(7.16122 1.63764 0)
(7.38619 1.67172 0)
(6.80376 1.8067 0)
(7.04906 1.84786 0)
(6.42016 1.98392 0)
(6.6868 2.0343 0)
(6.0092 2.16609 0)
(6.29807 2.22878 0)
(5.56949 2.34806 0)
(5.88127 2.42743 0)
(5.09956 2.52217 0)
(5.43443 2.62421 0)
(4.59786 2.67755 0)
(4.95522 2.81026 0)
(4.06282 2.7995 0)
(4.44097 2.97321 0)
(3.49282 2.86914 0)
(3.88865 3.09664 0)
(2.88594 2.86298 0)
(3.29536 3.15995 0)
(2.23811 2.75403 0)
(2.65702 3.138 0)
(1.54251 2.52116 0)
(1.97494 3.00332 0)
(0.793687 2.13149 0)
(1.2073 2.74076 0)
(0.556766 2.29201 0)
(9.9825 0.110627 0)
(9.99302 0.0783623 0)
(9.9477 0.182326 0)
(9.96954 0.155039 0)
(9.89522 0.25382 0)
(9.92722 0.230888 0)
(9.82524 0.32677 0)
(9.86696 0.307512 0)
(9.73812 0.402557 0)
(9.78977 0.386525 0)
(9.63402 0.482235 0)
(9.69605 0.469151 0)
(9.51285 0.566757 0)
(9.58578 0.556399 0)
(9.37437 0.65709 0)
(9.45879 0.64927 0)
(9.21827 0.754208 0)
(9.31479 0.748784 0)
(9.04413 0.859075 0)
(9.15345 0.855955 0)
(8.85144 0.972648 0)
(8.97432 0.971789 0)
(8.63961 1.09586 0)
(8.77689 1.09728 0)
(8.40802 1.22962 0)
(8.56057 1.23339 0)
(8.15595 1.37472 0)
(8.32469 1.38105 0)
(7.88265 1.53183 0)
(8.06852 1.54104 0)
(7.58728 1.70134 0)
(7.79126 1.714 0)
(7.26892 1.88325 0)
(7.49197 1.90025 0)
(6.92646 2.07692 0)
(7.16957 2.09964 0)
(6.55856 2.2808 0)
(6.8227 2.31133 0)
(6.16354 2.492 0)
(6.44965 2.53343 0)
(5.73922 2.70579 0)
(6.04818 2.76259 0)
(5.28284 2.91495 0)
(5.61534 2.99341 0)
(4.79096 3.10913 0)
(5.14736 3.21781 0)
(4.25943 3.2742 0)
(4.63952 3.42425 0)
(3.68353 3.39189 0)
(4.08621 3.59716 0)
(3.05818 3.43976 0)
(3.48147 3.71659 0)
(2.37785 3.39191 0)
(2.81851 3.75823 0)
(1.638 3.22633 0)
(2.09928 3.69414 0)
(0.839179 2.90104 0)
(1.279 3.50468 0)
(0.573398 3.11393 0)
(9.98273 0.123583 0)
(9.99316 0.0868185 0)
(9.94873 0.204312 0)
(9.97026 0.172095 0)
(9.89794 0.285255 0)
(9.92926 0.256978 0)
(9.8305 0.367969 0)
(9.87123 0.342992 0)
(9.7467 0.453855 0)
(9.79715 0.431682 0)
(9.64667 0.544079 0)
(9.70734 0.524354 0)
(9.53037 0.639708 0)
(9.6018 0.622137 0)
(9.39761 0.741798 0)
(9.48037 0.726126 0)
(9.24811 0.851409 0)
(9.34284 0.837421 0)
(9.08151 0.969597 0)
(9.18892 0.957125 0)
(8.89735 1.09741 0)
(9.01822 1.08633 0)
(8.69508 1.23586 0)
(8.83028 1.22612 0)
(8.47412 1.38595 0)
(8.62453 1.37755 0)
(8.23376 1.54859 0)
(8.40035 1.54165 0)
(7.97322 1.72456 0)
(8.15701 1.71933 0)
(7.69162 1.91439 0)
(7.89364 1.91138 0)
(7.38787 2.11829 0)
(7.60921 2.1183 0)
(7.06065 2.3359 0)
(7.30244 2.34022 0)
(6.70826 2.56605 0)
(6.97169 2.57668 0)
(6.32844 2.80641 0)
(6.61478 2.82635 0)
(5.9182 3.05298 0)
(6.2288 3.08662 0)
(5.47357 3.29947 0)
(5.80985 3.3531 0)
(4.98945 3.53662 0)
(5.35279 3.61893 0)
(4.4595 3.75141 0)
(4.85104 3.87396 0)
(3.87639 3.9265 0)
(4.29661 4.10395 0)
(3.2325 4.03994 0)
(3.68074 4.28974 0)
(2.52098 4.06513 0)
(2.9937 4.40689 0)
(1.73849 3.97633 0)
(2.23754 4.42476 0)
(0.889535 3.71899 0)
(1.36347 4.31654 0)
(0.598803 3.98518 0)
(9.98321 0.136205 0)
(9.99339 0.0950417 0)
(9.95032 0.225575 0)
(9.97131 0.188592 0)
(9.90151 0.3155 0)
(9.93193 0.282053 0)
(9.83693 0.407508 0)
(9.87643 0.376965 0)
(9.75683 0.503016 0)
(9.80578 0.474845 0)
(9.66134 0.60328 0)
(9.72029 0.577054 0)
(9.55045 0.70946 0)
(9.61994 0.684818 0)
(9.42402 0.8227 0)
(9.50463 0.799317 0)
(9.28182 0.94414 0)
(9.3742 0.921732 0)
(9.12354 1.07492 0)
(9.22841 1.05324 0)
(8.94877 1.21617 0)
(9.06693 1.19502 0)
(8.75703 1.36902 0)
(8.88936 1.34825 0)
(8.54775 1.53455 0)
(8.69518 1.51409 0)
(8.32024 1.7138 0)
(8.4838 1.69367 0)
(8.07369 1.90769 0)
(8.25449 1.88805 0)
(7.80714 2.11696 0)
(8.00635 2.0982 0)
(7.51934 2.34208 0)
(7.73826 2.32489 0)
(7.20871 2.58307 0)
(7.44875 2.5686 0)
(6.87316 2.8393 0)
(7.13589 2.82936 0)
(6.50985 3.10918 0)
(6.79708 3.10654 0)
(6.11499 3.38972 0)
(6.42877 3.39851 0)
(5.68345 3.67595 0)
(6.02617 3.7022 0)
(5.20855 3.96016 0)
(5.58285 4.0124 0)
(4.68185 4.23097 0)
(5.09041 4.32091 0)
(4.09339 4.47234 0)
(4.53839 4.61538 0)
(3.43263 4.66263 0)
(3.91483 4.87791 0)
(2.69024 4.77331 0)
(3.20582 5.0837 0)
(1.86194 4.77262 0)
(2.4114 5.19817 0)
(0.95423 4.58999 0)
(1.47637 5.18458 0)
(0.639235 4.91979 0)
(9.98386 0.148371 0)
(9.99368 0.102945 0)
(9.95235 0.245974 0)
(9.9726 0.204398 0)
(9.90578 0.344404 0)
(9.9351 0.305975 0)
(9.84437 0.445204 0)
(9.88241 0.409276 0)
(9.76832 0.549817 0)
(9.81551 0.515823 0)
(9.67779 0.659564 0)
(9.7347 0.627017 0)
(9.5728 0.77569 0)
(9.63997 0.744163 0)
(9.45326 0.899417 0)
(9.53128 0.868519 0)
(9.319 1.03196 0)
(9.40851 1.00134 0)
(9.16976 1.17454 0)
(9.27149 1.14387 0)
(9.0052 1.32838 0)
(9.11997 1.29737 0)
(8.8249 1.49469 0)
(8.95358 1.4631 0)
(8.62832 1.67467 0)
(8.77191 1.64233 0)
(8.41483 1.8695 0)
(8.5744 1.83632 0)
(8.1836 2.08027 0)
(8.36035 2.04629 0)
(7.9336 2.30798 0)
(8.12888 2.27343 0)
(7.66349 2.55342 0)
(7.8788 2.51879 0)
(7.37146 2.81708 0)
(7.60855 2.7833 0)
(7.0551 3.09901 0)
(7.31601 3.06758 0)
(6.71109 3.39854 0)
(6.99825 3.37184 0)
(6.3349 3.71396 0)
(6.65127 3.69565 0)
(5.92038 4.04199 0)
(6.26952 4.03754 0)
(5.45933 4.37698 0)
(5.84545 4.39441 0)
(4.94115 4.70984 0)
(5.36897 4.76064 0)
(4.35282 5.02654 0)
(4.8269 5.1267 0)
(3.67969 5.30626 0)
(4.20331 5.47709 0)
(2.90761 5.51833 0)
(3.47804 5.78758 0)
(2.02775 5.62325 0)
(2.64516 6.01971 0)
(1.04516 5.52977 0)
(1.63782 6.12424 0)
(0.70452 5.94345 0)
(9.98465 0.159984 0)
(9.99402 0.110465 0)
(9.95473 0.265386 0)
(9.97409 0.219404 0)
(9.91065 0.371827 0)
(9.93867 0.328619 0)
(9.85266 0.480891 0)
(9.88904 0.439784 0)
(9.78099 0.594053 0)
(9.82618 0.554442 0)
(9.6958 0.712688 0)
(9.75037 0.674034 0)
(9.59714 0.838113 0)
(9.66165 0.799925 0)
(9.485 0.971618 0)
(9.56001 0.93344 0)
(9.35925 1.11449 0)
(9.44541 1.0759 0)
(9.2197 1.26802 0)
(9.31773 1.22861 0)
(9.0661 1.4335 0)
(9.17681 1.3929 0)
(8.89808 1.61225 0)
(9.02237 1.57013 0)
(8.71518 1.80559 0)
(8.85406 1.76165 0)
(8.51683 2.01484 0)
(8.67142 1.96886 0)
(8.30223 2.2413 0)
(8.47381 2.19315 0)
(8.07038 2.48622 0)
(8.26042 2.43593 0)
(7.81988 2.7508 0)
(8.0301 2.69861 0)
(7.54885 3.03607 0)
(7.78129 2.98256 0)
(7.25467 3.34285 0)
(7.51184 3.28909 0)
(6.93374 3.67157 0)
(7.21872 3.61935 0)
(6.58104 4.02204 0)
(6.8977 3.97424 0)
(6.18961 4.39301 0)
(6.54285 4.35419 0)
(5.74995 4.78152 0)
(6.14587 4.75868 0)
(5.24933 5.18167 0)
(5.69528 5.18546 0)
(4.67119 5.58281 0)
(5.17532 5.62918 0)
(3.99516 5.96664 0)
(4.56537 6.07884 0)
(3.19866 6.3019 0)
(3.83662 6.51373 0)
(2.26196 6.54098 0)
(2.97109 6.89432 0)
(1.18072 6.5655 0)
(1.87933 7.15824 0)
(0.812898 7.09989 0)
(9.98553 0.170967 0)
(9.9944 0.117549 0)
(9.95738 0.283704 0)
(9.97572 0.233524 0)
(9.916 0.397643 0)
(9.94258 0.349876 0)
(9.86169 0.514421 0)
(9.89623 0.468361 0)
(9.79468 0.635544 0)
(9.83764 0.59055 0)
(9.71516 0.762438 0)
(9.76712 0.71792 0)
(9.62323 0.896474 0)
(9.68474 0.851885 0)
(9.51892 1.039 0)
(9.59053 0.993826 0)
(9.40218 1.19137 0)
(9.48453 1.14511 0)
(9.2729 1.35494 0)
(9.3667 1.30711 0)
(9.1309 1.53107 0)
(9.23695 1.48122 0)
(8.97592 1.72117 0)
(9.0951 1.66885 0)
(8.80759 1.92666 0)
(8.94092 1.87147 0)
(8.62542 2.14903 0)
(8.77404 2.09058 0)
(8.42873 2.38976 0)
(8.59396 2.32775 0)
(8.21658 2.65043 0)
(8.39998 2.58462 0)
(7.98767 2.9326 0)
(8.1911 2.86294 0)
(7.74017 3.23792 0)
(7.96592 3.16453 0)
(7.47151 3.56802 0)
(7.72243 3.49139 0)
(7.17805 3.92453 0)
(7.45778 3.84567 0)
(6.85465 4.30896 0)
(7.1679 4.22969 0)
(6.49404 4.72247 0)
(6.84699 4.64591 0)
(6.08596 5.16537 0)
(6.48669 5.09679 0)
(5.61596 5.63618 0)
(6.07498 5.58429 0)
(5.06395 6.12976 0)
(5.59438 6.10894 0)
(4.40261 6.63381 0)
(5.02003 6.66752 0)
(3.59652 7.12138 0)
(4.31302 7.24861 0)
(2.60465 7.54096 0)
(3.43613 7.82045 0)
(1.3945 7.74094 0)
(2.25682 8.31552 0)
(1.0028 8.46572 0)
(9.9865 0.181256 0)
(9.9948 0.124159 0)
(9.96026 0.300838 0)
(9.97747 0.246685 0)
(9.92176 0.421742 0)
(9.94676 0.369655 0)
(9.87133 0.54566 0)
(9.90387 0.494896 0)
(9.80922 0.674134 0)
(9.84976 0.624016 0)
(9.73566 0.808624 0)
(9.78477 0.758518 0)
(9.65079 0.950553 0)
(9.709 0.899858 0)
(9.55469 1.10132 0)
(9.62256 1.04946 0)
(9.44739 1.26231 0)
(9.52552 1.20873 0)
(9.32887 1.43495 0)
(9.41795 1.37908 0)
(9.19904 1.62065 0)
(9.29984 1.56197 0)
(9.05775 1.82091 0)
(9.17114 1.75885 0)
(8.90475 2.03725 0)
(9.03171 1.97128 0)
(8.7397 2.27129 0)
(8.88136 2.20087 0)
(8.56205 2.52471 0)
(8.71975 2.44932 0)
(8.37106 2.79935 0)
(8.54636 2.71849 0)
(8.16561 3.09718 0)
(8.36045 3.01042 0)
(7.94413 3.42039 0)
(8.1609 3.32737 0)
(7.70432 3.77146 0)
(7.94608 3.67197 0)
(7.44289 4.15321 0)
(7.71361 4.04728 0)
(7.15512 4.56889 0)
(7.46006 4.45699 0)
(6.83411 5.02225 0)
(7.18042 4.9056 0)
(6.46981 5.51742 0)
(6.86729 5.39862 0)
(6.04736 6.05852 0)
(6.50962 5.94278 0)
(5.54451 6.64862 0)
(6.09047 6.54597 0)
(4.92761 7.28698 0)
(5.58367 7.21665 0)
(4.14558 7.96159 0)
(4.94316 7.96156 0)
(3.12231 8.63398 0)
(4.11002 8.7759 0)
(1.75662 9.12854 0)
(2.8791 9.62154 0)
(1.36511 10.1862 0)
(9.98753 0.190803 0)
(9.99523 0.130263 0)
(9.96332 0.316714 0)
(9.97932 0.25883 0)
(9.92785 0.444032 0)
(9.95115 0.387877 0)
(9.88147 0.574501 0)
(9.91187 0.519297 0)
(9.82447 0.709692 0)
(9.86242 0.654728 0)
(9.7571 0.851099 0)
(9.80315 0.795698 0)
(9.67956 1.00018 0)
(9.73423 0.94369 0)
(9.59198 1.15836 0)
(9.65579 1.10016 0)
(9.49447 1.32708 0)
(9.56802 1.26654 0)
(9.38711 1.50778 0)
(9.47103 1.44428 0)
(9.26991 1.70195 0)
(9.36494 1.63486 0)
(9.14284 1.91112 0)
(9.24981 1.8398 0)
(9.00581 2.13691 0)
(9.12565 2.06068 0)
(8.85864 2.38103 0)
(8.99244 2.2992 0)
(8.70101 2.64535 0)
(8.85004 2.55719 0)
(8.53241 2.93192 0)
(8.6982 2.83666 0)
(8.35207 3.24306 0)
(8.5365 3.13988 0)
(8.15881 3.58144 0)
(8.36425 3.46946 0)
(7.9509 3.95026 0)
(8.18039 3.82852 0)
(7.7258 4.3534 0)
(7.98332 4.22088 0)
(7.47976 4.79573 0)
(7.7707 4.65133 0)
(7.20722 5.28343 0)
(7.53903 5.12607 0)
(6.89981 5.82448 0)
(7.28308 5.65333 0)
(6.54456 6.42927 0)
(6.99488 6.24424 0)
(6.12073 7.11121 0)
(6.6617 6.91433 0)
(5.59359 7.88747 0)
(6.26298 7.68587 0)
(4.90161 8.77796 0)
(5.7583 8.59242 0)
(3.9277 9.80198 0)
(5.08834 9.68525 0)
(2.43393 10.8578 0)
(3.98069 11.05 0)
(2.1471 12.5701 0)
(9.98861 0.199568 0)
(9.99567 0.135839 0)
(9.96652 0.33127 0)
(9.98124 0.269913 0)
(9.93419 0.46443 0)
(9.9557 0.404483 0)
(9.89201 0.600836 0)
(9.92016 0.54149 0)
(9.84029 0.742082 0)
(9.87551 0.682599 0)
(9.7793 0.889687 0)
(9.82214 0.829357 0)
(9.70929 1.04513 0)
(9.76025 0.983261 0)
(9.63047 1.20986 0)
(9.69006 1.14579 0)
(9.54303 1.38535 0)
(9.61181 1.31838 0)
(9.44712 1.57306 0)
(9.52572 1.50252 0)
(9.34289 1.7745 0)
(9.432 1.69969 0)
(9.23045 1.99125 0)
(9.33085 1.91142 0)
(9.10987 2.22498 0)
(9.22245 2.13935 0)
(8.98117 2.47748 0)
(9.10695 2.3852 0)
(8.84428 2.75073 0)
(8.98446 2.65087 0)
(8.69904 3.04694 0)
(8.85505 2.93846 0)
(8.54507 3.36867 0)
(8.71868 3.2504 0)
(8.38178 3.71895 0)
(8.57519 3.58951 0)
(8.20822 4.1015 0)
(8.42425 3.95921 0)
(8.02294 4.52097 0)
(8.26527 4.36377 0)
(7.82374 4.98341 0)
(8.09737 4.80867 0)
(7.60735 5.49687 0)
(7.91919 5.30113 0)
(7.36874 6.07239 0)
(7.72875 5.85102 0)
(7.10001 6.72564 0)
(7.52319 6.47228 0)
(6.78801 7.47984 0)
(7.29829 7.18549 0)
(6.40921 8.37175 0)
(7.04861 8.02306 0)
(5.91659 9.46589 0)
(6.76398 9.04152 0)
(5.19754 10.9087 0)
(6.46353 10.3566 0)
(3.88615 13.1807 0)
(6.19256 12.3041 0)
(5.26347 16.3763 0)
(0.209434 -0.129693 0)
(0.120721 -0.205127 0)
(0.40793 -0.110518 0)
(0.292468 -0.189823 0)
(0.574133 -0.0870808 0)
(0.465799 -0.155187 0)
(0.709273 -0.0670568 0)
(0.615326 -0.123203 0)
(0.818748 -0.0512496 0)
(0.737245 -0.0974468 0)
(0.907765 -0.0390576 0)
(0.8366 -0.0773663 0)
(0.980779 -0.0297945 0)
(0.919002 -0.061958 0)
(1.04154 -0.0228701 0)
(0.988741 -0.0503443 0)
(1.09313 -0.0177691 0)
(1.04898 -0.0417378 0)
(1.13799 -0.0140399 0)
(1.10216 -0.0354301 0)
(1.17793 -0.0112881 0)
(1.15018 -0.0307986 0)
(1.21417 -0.00916933 0)
(1.19441 -0.0272912 0)
(1.24738 -0.0073906 0)
(1.23575 -0.0244178 0)
(1.27771 -0.00573093 0)
(1.2746 -0.0217732 0)
(1.30495 -0.00406715 0)
(1.31097 -0.0190905 0)
(1.32874 -0.00237148 0)
(1.34459 -0.0162837 0)
(1.34881 -0.000646021 0)
(1.37517 -0.0134072 0)
(1.3649 0.00118631 0)
(1.40254 -0.010494 0)
(1.37647 0.00330951 0)
(1.42662 -0.00737179 0)
(1.3825 0.00580467 0)
(1.44704 -0.00375033 0)
(1.38209 0.00824037 0)
(1.4629 0.000250667 0)
(1.3746 0.0100024 0)
(1.47303 0.00443839 0)
(1.3623 0.0106281 0)
(1.47725 0.00712238 0)
(1.34873 0.0099332 0)
(1.47768 0.00767099 0)
(1.33695 0.00828046 0)
(1.47776 0.00649972 0)
(1.32818 0.00615703 0)
(1.47991 0.00472645 0)
(1.32274 0.00373881 0)
(1.48467 0.00286044 0)
(1.32127 0.00119057 0)
(1.49184 0.000754447 0)
(1.32478 -0.00121449 0)
(1.50139 -0.0017583 0)
(1.51599 -0.00397319 0)
(0.185405 -0.29567 0)
(0.0950891 -0.38672 0)
(0.3655 -0.260479 0)
(0.249594 -0.362049 0)
(0.519364 -0.211534 0)
(0.396172 -0.298853 0)
(0.647711 -0.168827 0)
(0.523709 -0.240213 0)
(0.755372 -0.134975 0)
(0.62919 -0.19328 0)
(0.846785 -0.108839 0)
(0.717253 -0.156815 0)
(0.92559 -0.0889687 0)
(0.792261 -0.128831 0)
(0.994748 -0.0740934 0)
(0.857447 -0.107644 0)
(1.05664 -0.0631015 0)
(0.915209 -0.0918045 0)
(1.11313 -0.0550215 0)
(0.967403 -0.0800539 0)
(1.16566 -0.0490059 0)
(1.01548 -0.0713081 0)
(1.21522 -0.0443085 0)
(1.06052 -0.0646137 0)
(1.26243 -0.040287 0)
(1.10328 -0.0591222 0)
(1.30749 -0.0364491 0)
(1.14413 -0.0541182 0)
(1.35032 -0.0325217 0)
(1.18315 -0.04911 0)
(1.39071 -0.0284683 0)
(1.22013 -0.0439285 0)
(1.42858 -0.0243668 0)
(1.25481 -0.0387063 0)
(1.46403 -0.0201577 0)
(1.28707 -0.0336232 0)
(1.49719 -0.0155004 0)
(1.31716 -0.0284973 0)
(1.5276 -0.0100744 0)
(1.34544 -0.022664 0)
(1.55374 -0.00430782 0)
(1.37163 -0.0156186 0)
(1.57473 0.000604148 0)
(1.39442 -0.00801061 0)
(1.59112 0.00351017 0)
(1.41256 -0.00236502 0)
(1.60557 0.00414359 0)
(1.42643 -0.000496029 0)
(1.62041 0.00333394 0)
(1.43868 -0.00169091 0)
(1.63652 0.00203236 0)
(1.45143 -0.00395103 0)
(1.65384 0.000420739 0)
(1.46495 -0.00625402 0)
(1.67201 -0.00161559 0)
(1.47865 -0.00857987 0)
(1.69014 -0.00352905 0)
(1.49162 -0.0108515 0)
(1.50624 -0.0111509 0)
(0.14989 -0.461003 0)
(0.0697148 -0.533528 0)
(0.29135 -0.408654 0)
(0.192941 -0.497328 0)
(0.410122 -0.335121 0)
(0.297617 -0.409753 0)
(0.508671 -0.271074 0)
(0.38912 -0.330056 0)
(0.591437 -0.22031 0)
(0.463291 -0.266953 0)
(0.661914 -0.180951 0)
(0.5252 -0.218066 0)
(0.72289 -0.150804 0)
(0.577754 -0.180574 0)
(0.776557 -0.127976 0)
(0.623098 -0.15211 0)
(0.824651 -0.110851 0)
(0.662881 -0.130712 0)
(0.868557 -0.0980407 0)
(0.698405 -0.114734 0)
(0.909356 -0.0883386 0)
(0.7307 -0.102772 0)
(0.947835 -0.080674 0)
(0.760567 -0.0935889 0)
(0.984484 -0.0741077 0)
(0.788597 -0.0860666 0)
(1.01947 -0.0678974 0)
(0.815167 -0.0792355 0)
(1.05269 -0.0616162 0)
(0.840402 -0.0723914 0)
(1.08387 -0.0552276 0)
(0.864154 -0.0652653 0)
(1.11286 -0.0489579 0)
(0.885977 -0.0580764 0)
(1.13989 -0.0428808 0)
(0.905492 -0.05126 0)
(1.16548 -0.03645 0)
(0.922793 -0.0447959 0)
(1.18978 -0.0286324 0)
(0.938925 -0.0377756 0)
(1.21197 -0.0192418 0)
(0.954984 -0.029098 0)
(1.23086 -0.0106124 0)
(0.970598 -0.0192098 0)
(1.24581 -0.00610046 0)
(0.981327 -0.0110199 0)
(1.25809 -0.00637461 0)
(0.981806 -0.00743721 0)
(1.26944 -0.00941132 0)
(0.976872 -0.00795077 0)
(1.28009 -0.0131407 0)
(0.971487 -0.00969441 0)
(1.28963 -0.0164744 0)
(0.966506 -0.0112696 0)
(1.29804 -0.0190786 0)
(0.960792 -0.0129005 0)
(1.3058 -0.0199097 0)
(0.955095 -0.0147429 0)
(0.950855 -0.0146608 0)
(0.111728 -0.581375 0)
(0.0450087 -0.642959 0)
(0.208049 -0.51039 0)
(0.129955 -0.589441 0)
(0.284542 -0.416544 0)
(0.185781 -0.481176 0)
(0.346481 -0.336811 0)
(0.23675 -0.386524 0)
(0.397716 -0.274293 0)
(0.273868 -0.31256 0)
(0.440614 -0.225956 0)
(0.303974 -0.255349 0)
(0.477001 -0.188923 0)
(0.328055 -0.211452 0)
(0.508251 -0.1608 0)
(0.347319 -0.178002 0)
(0.53545 -0.139614 0)
(0.362754 -0.152715 0)
(0.559484 -0.123703 0)
(0.375165 -0.133718 0)
(0.581078 -0.111628 0)
(0.385183 -0.119425 0)
(0.600803 -0.102104 0)
(0.393334 -0.108442 0)
(0.619078 -0.0939824 0)
(0.40011 -0.0995023 0)
(0.636119 -0.0863168 0)
(0.405952 -0.0914684 0)
(0.65189 -0.0785105 0)
(0.411178 -0.0834455 0)
(0.666067 -0.0704689 0)
(0.415846 -0.0749671 0)
(0.678207 -0.0625666 0)
(0.419261 -0.0661877 0)
(0.688223 -0.0552473 0)
(0.420702 -0.0577946 0)
(0.696834 -0.0484834 0)
(0.41868 -0.0502812 0)
(0.705264 -0.0414969 0)
(0.414155 -0.0430186 0)
(0.713489 -0.0332229 0)
(0.40739 -0.0340925 0)
(0.718315 -0.0235705 0)
(0.401073 -0.0220712 0)
(0.713698 -0.0145596 0)
(0.391329 -0.00834741 0)
(0.698852 -0.00895718 0)
(0.378368 0.000954569 0)
(0.679272 -0.00662607 0)
(0.361517 0.00285497 0)
(0.658749 -0.00527737 0)
(0.344863 0.00136434 0)
(0.637806 -0.00473195 0)
(0.332045 -0.000250509 0)
(0.616913 -0.00591725 0)
(0.320042 -0.00216803 0)
(0.599689 -0.00771303 0)
(0.308853 -0.00610384 0)
(0.296628 -0.012307 0)
(0.0682015 -0.659682 0)
(0.0192478 -0.709758 0)
(0.114631 -0.569148 0)
(0.0598948 -0.633841 0)
(0.14527 -0.459642 0)
(0.0627426 -0.509784 0)
(0.166365 -0.369747 0)
(0.0702336 -0.405755 0)
(0.181367 -0.299924 0)
(0.066413 -0.325914 0)
(0.191481 -0.245997 0)
(0.0603955 -0.264139 0)
(0.1977 -0.204621 0)
(0.051176 -0.216729 0)
(0.200775 -0.173091 0)
(0.0396078 -0.180549 0)
(0.201321 -0.149239 0)
(0.0262791 -0.153157 0)
(0.199838 -0.131273 0)
(0.0116844 -0.132546 0)
(0.196756 -0.117658 0)
(-0.00381977 -0.117048 0)
(0.192465 -0.107018 0)
(-0.0199036 -0.105211 0)
(0.187317 -0.0980861 0)
(-0.0361772 -0.0957181 0)
(0.181632 -0.0897509 0)
(-0.0522209 -0.087387 0)
(0.175624 -0.0811954 0)
(-0.0676351 -0.0792345 0)
(0.169225 -0.0720881 0)
(-0.082131 -0.0705885 0)
(0.16179 -0.0626365 0)
(-0.0959801 -0.0612193 0)
(0.151835 -0.0531972 0)
(-0.109545 -0.0512999 0)
(0.137596 -0.0435482 0)
(-0.124326 -0.0412115 0)
(0.118257 -0.0324376 0)
(-0.140045 -0.0309908 0)
(0.0950267 -0.0185906 0)
(-0.157292 -0.0199857 0)
(0.0709913 -0.00341393 0)
(-0.173236 -0.00782033 0)
(0.0518282 0.00796865 0)
(-0.187548 0.00274628 0)
(0.0386222 0.0117151 0)
(-0.196744 0.00841906 0)
(0.0276307 0.00950611 0)
(-0.206301 0.00892103 0)
(0.0193966 0.00540868 0)
(-0.216018 0.00580131 0)
(0.0143577 0.00114287 0)
(-0.222068 0.00240054 0)
(0.0108178 -0.00348464 0)
(-0.226552 -0.000349567 0)
(0.00617703 -0.0103597 0)
(-0.231643 -0.00377619 0)
(-0.239199 -0.0104343 0)
(0.0180669 -0.689904 0)
(-0.00941663 -0.727453 0)
(0.0116876 -0.579512 0)
(-0.0182775 -0.627741 0)
(-0.00688111 -0.458606 0)
(-0.0684709 -0.492446 0)
(-0.0277857 -0.363069 0)
(-0.107529 -0.386697 0)
(-0.0525241 -0.289571 0)
(-0.153394 -0.303893 0)
(-0.0792789 -0.233285 0)
(-0.197827 -0.240886 0)
(-0.107248 -0.190412 0)
(-0.241605 -0.192995 0)
(-0.135761 -0.15798 0)
(-0.283869 -0.156925 0)
(-0.164395 -0.133586 0)
(-0.324141 -0.129992 0)
(-0.192868 -0.115295 0)
(-0.362114 -0.110057 0)
(-0.22095 -0.101511 0)
(-0.397704 -0.0953904 0)
(-0.248413 -0.0908286 0)
(-0.43094 -0.0845316 0)
(-0.275023 -0.0819854 0)
(-0.461857 -0.0761542 0)
(-0.300527 -0.0739055 0)
(-0.490471 -0.0690794 0)
(-0.324599 -0.065797 0)
(-0.516746 -0.062362 0)
(-0.346834 -0.0572389 0)
(-0.540566 -0.0553723 0)
(-0.366862 -0.0481985 0)
(-0.561796 -0.0478374 0)
(-0.384535 -0.0388996 0)
(-0.580411 -0.0397698 0)
(-0.400152 -0.0295168 0)
(-0.596565 -0.0312637 0)
(-0.414184 -0.0200519 0)
(-0.61033 -0.0222635 0)
(-0.426258 -0.0104945 0)
(-0.621644 -0.0126542 0)
(-0.434794 -0.0015735 0)
(-0.630474 -0.00275914 0)
(-0.440084 0.00517032 0)
(-0.635245 0.0058089 0)
(-0.444467 0.00841416 0)
(-0.639466 0.0108966 0)
(-0.449591 0.00774687 0)
(-0.644855 0.0117489 0)
(-0.45617 0.00480383 0)
(-0.651692 0.00934644 0)
(-0.463219 0.00210398 0)
(-0.658651 0.00610909 0)
(-0.469706 -0.00052478 0)
(-0.665124 0.00298271 0)
(-0.473844 -0.00502893 0)
(-0.672014 -0.00170083 0)
(-0.678519 -0.0083663 0)
(-0.0361962 -0.665015 0)
(-0.0431997 -0.692001 0)
(-0.0970375 -0.538136 0)
(-0.103788 -0.569558 0)
(-0.162966 -0.414651 0)
(-0.204813 -0.430888 0)
(-0.230388 -0.319692 0)
(-0.290874 -0.325231 0)
(-0.296232 -0.247319 0)
(-0.376452 -0.245283 0)
(-0.359177 -0.193046 0)
(-0.455621 -0.18618 0)
(-0.418171 -0.152637 0)
(-0.527861 -0.142933 0)
(-0.472681 -0.122923 0)
(-0.592808 -0.111761 0)
(-0.52243 -0.101385 0)
(-0.650645 -0.0897468 0)
(-0.567411 -0.0859861 0)
(-0.701865 -0.0745274 0)
(-0.607863 -0.0750426 0)
(-0.747122 -0.0641937 0)
(-0.644162 -0.0671098 0)
(-0.787142 -0.0571986 0)
(-0.676729 -0.0609176 0)
(-0.822602 -0.0522106 0)
(-0.705941 -0.055422 0)
(-0.854088 -0.0481095 0)
(-0.732032 -0.0498812 0)
(-0.882054 -0.0440753 0)
(-0.755054 -0.0438778 0)
(-0.906774 -0.039617 0)
(-0.774959 -0.0372617 0)
(-0.928361 -0.0345371 0)
(-0.791769 -0.0300071 0)
(-0.946883 -0.0288035 0)
(-0.80573 -0.0220655 0)
(-0.962471 -0.0223706 0)
(-0.817262 -0.0134129 0)
(-0.975311 -0.0150912 0)
(-0.826731 -0.00439953 0)
(-0.985542 -0.00690405 0)
(-0.833623 0.00388271 0)
(-0.993491 0.00132725 0)
(-0.838078 0.00987341 0)
(-0.998433 0.00838795 0)
(-0.841953 0.0124994 0)
(-1.00295 0.013087 0)
(-0.846725 0.0119161 0)
(-1.00808 0.0143825 0)
(-0.853197 0.00939583 0)
(-1.01446 0.0128339 0)
(-0.860558 0.00604775 0)
(-1.02174 0.00998154 0)
(-0.86713 0.00159337 0)
(-1.02938 0.00635862 0)
(-0.872384 -0.0042579 0)
(-1.03671 0.000934613 0)
(-1.0415 -0.00495314 0)
(-0.0946346 -0.587149 0)
(-0.083243 -0.599313 0)
(-0.209202 -0.451025 0)
(-0.196361 -0.459996 0)
(-0.323634 -0.329833 0)
(-0.347397 -0.324041 0)
(-0.432993 -0.240054 0)
(-0.476139 -0.225531 0)
(-0.533414 -0.174962 0)
(-0.595224 -0.155895 0)
(-0.62328 -0.128764 0)
(-0.700324 -0.108077 0)
(-0.702209 -0.0964405 0)
(-0.791413 -0.0759552 0)
(-0.770838 -0.0742696 0)
(-0.869264 -0.0548991 0)
(-0.830253 -0.0595325 0)
(-0.934814 -0.0416818 0)
(-0.881695 -0.0501169 0)
(-0.990458 -0.0338951 0)
(-0.926388 -0.0443025 0)
(-1.03816 -0.0297261 0)
(-0.96539 -0.0406934 0)
(-1.07956 -0.0278299 0)
(-0.999583 -0.0381364 0)
(-1.11593 -0.0270713 0)
(-1.02971 -0.0357542 0)
(-1.14801 -0.0264848 0)
(-1.05631 -0.0329904 0)
(-1.17635 -0.0254319 0)
(-1.07969 -0.0295767 0)
(-1.20141 -0.0236142 0)
(-1.09998 -0.0254317 0)
(-1.22344 -0.0209818 0)
(-1.11723 -0.020508 0)
(-1.2425 -0.0175488 0)
(-1.1316 -0.0146988 0)
(-1.2586 -0.0132195 0)
(-1.14331 -0.00794646 0)
(-1.27186 -0.0078038 0)
(-1.15251 -0.000593676 0)
(-1.28246 -0.00131745 0)
(-1.1596 0.0065122 0)
(-1.29048 0.00553156 0)
(-1.16525 0.0121492 0)
(-1.29687 0.0116545 0)
(-1.17035 0.0151503 0)
(-1.30281 0.0159704 0)
(-1.17597 0.0152692 0)
(-1.30903 0.0174849 0)
(-1.1827 0.0133089 0)
(-1.31603 0.0164615 0)
(-1.19012 0.01006 0)
(-1.32388 0.0138824 0)
(-1.19736 0.00544106 0)
(-1.33246 0.0100803 0)
(-1.20462 -0.000140166 0)
(-1.3408 0.00457797 0)
(-1.34514 -0.000587601 0)
(-0.158931 -0.454758 0)
(-0.132509 -0.44365 0)
(-0.329513 -0.318581 0)
(-0.30562 -0.296867 0)
(-0.489875 -0.210178 0)