/*--------------------------------*- C++ -*----------------------------------*\
  =========                 |
  \\      /  F ield         | OpenFOAM: The Open Source CFD Toolbox
   \\    /   O peration     | Website:  https://openfoam.org
    \\  /    A nd           | Version:  7
     \\/     M anipulation  |
\*---------------------------------------------------------------------------*/
FoamFile
{
    version     2.0;
    format      ascii;
    class       volScalarField;
    location    "7.09";
    object      T;
}
// * * * * * * * * * * * * * * * * * * * * * * * * * * * * * * * * * * * * * //

dimensions      [0 0 0 1 0 0 0];

internalField   nonuniform List<scalar> 
12013
(
300.117
300.353
300.595
300.841
301.089
301.337
301.584
301.829
302.07
302.307
302.538
302.764
302.984
303.197
303.403
303.603
303.796
303.982
304.162
304.335
304.502
304.663
304.819
304.968
305.113
305.253
305.389
305.52
305.648
305.773
305.894
306.013
306.131
306.247
306.362
306.478
306.594
306.711
306.831
306.954
307.082
307.215
307.355
307.504
307.663
307.833
308.018
308.219
308.439
308.68
308.946
309.239
309.564
309.923
310.322
310.765
311.257
311.803
312.41
313.084
313.832
314.662
315.583
316.603
317.733
318.984
320.369
321.902
323.597
325.473
327.55
329.851
332.404
335.242
338.407
341.95
345.941
350.477
355.703
361.863
369.42
300.117
300.353
300.596
300.842
301.09
301.338
301.585
301.83
302.071
302.308
302.539
302.765
302.985
303.199
303.405
303.605
303.798
303.984
304.164
304.337
304.504
304.666
304.821
304.971
305.116
305.256
305.391
305.523
305.651
305.775
305.897
306.016
306.133
306.249
306.365
306.48
306.596
306.713
306.833
306.956
307.084
307.217
307.357
307.506
307.664
307.835
308.02
308.221
308.44
308.681
308.947
309.24
309.564
309.923
310.321
310.763
311.254
311.8
312.406
313.078
313.825
314.653
315.572
316.589
317.716
318.964
320.344
321.871
323.559
325.426
327.492
329.779
332.313
335.127
338.257
341.75
345.667
350.083
355.1
360.84
367.416
300.117
300.354
300.596
300.843
301.091
301.34
301.587
301.832
302.073
302.31
302.542
302.769
302.989
303.202
303.409
303.609
303.802
303.989
304.169
304.342
304.509
304.671
304.826
304.976
305.121
305.261
305.397
305.528
305.656
305.781
305.902
306.022
306.139
306.255
306.37
306.486
306.601
306.719
306.838
306.961
307.089
307.222
307.362
307.51
307.668
307.839
308.023
308.224
308.443
308.683
308.948
309.24
309.563
309.921
310.318
310.759
311.248
311.792
312.396
313.066
313.809
314.633
315.547
316.559
317.679
318.919
320.289
321.803
323.476
325.324
327.366
329.622
332.116
334.876
337.934
341.326
345.097
349.293
353.961
359.13
364.762
300.117
300.354
300.597
300.844
301.093
301.342
301.59
301.835
302.077
302.315
302.547
302.774
302.994
303.208
303.415
303.616
303.809
303.996
304.176
304.35
304.518
304.679
304.835
304.985
305.13
305.27
305.406
305.537
305.665
305.79
305.912
306.031
306.148
306.264
306.379
306.495
306.61
306.727
306.847
306.97
307.097
307.23
307.369
307.517
307.675
307.845
308.029
308.229
308.447
308.686
308.95
309.241
309.563
309.919
310.314
310.752
311.239
311.779
312.379
313.044
313.782
314.601
315.507
316.509
317.619
318.845
320.198
321.693
323.341
325.159
327.162
329.369
331.8
334.478
337.427
340.672
344.239
348.149
352.412
357.009
361.867
300.117
300.355
300.599
300.847
301.096
301.346
301.594
301.84
302.083
302.321
302.554
302.781
303.003
303.217
303.425
303.626
303.82
304.007
304.188
304.362
304.53
304.691
304.847
304.998
305.143
305.283
305.419
305.551
305.679
305.804
305.925
306.045
306.162
306.278
306.393
306.508
306.624
306.74
306.86
306.982
307.109
307.241
307.38
307.528
307.685
307.854
308.037
308.236
308.453
308.691
308.953
309.242
309.562
309.916
310.308
310.743
311.225
311.761
312.355
313.014
313.744
314.553
315.448
316.437
317.53
318.737
320.068
321.534
323.147
324.922
326.871
329.011
331.357
333.926
336.734
339.796
343.123
346.717
350.568
354.642
358.872
300.118
300.357
300.601
300.85
301.1
301.351
301.6
301.847
302.091
302.33
302.564
302.792
303.014
303.229
303.438
303.64
303.834
304.022
304.203
304.378
304.546
304.708
304.865
305.015
305.161
305.302
305.438
305.57
305.698
305.822
305.944
306.064
306.181
306.297
306.412
306.526
306.642
306.758
306.877
306.999
307.126
307.257
307.396
307.542
307.699
307.867
308.049
308.246
308.462
308.698
308.958
309.244
309.561
309.911
310.299
310.73
311.207
311.736
312.322
312.972
313.692
314.488
315.368
316.34
317.412
318.593
319.892
321.321
322.889
324.607
326.488
328.544
330.785
333.222
335.866
338.721
341.789
345.061
348.52
352.13
355.838
300.118
300.358
300.604
300.854
301.105
301.357
301.608
301.856
302.101
302.342
302.577
302.806
303.029
303.246
303.455
303.658
303.853
304.042
304.224
304.399
304.568
304.731
304.888
305.039
305.185
305.326
305.462
305.595
305.723
305.848
305.969
306.089
306.206
306.322
306.437
306.551
306.666
306.782
306.901
307.022
307.148
307.279
307.417
307.562
307.718
307.884
308.064
308.26
308.473
308.707
308.964
309.247
309.56
309.906
310.289
310.713
311.183
311.704
312.28
312.919
313.625
314.404
315.265
316.214
317.259
318.407
319.668
321.05
322.562
324.213
326.012
327.967
330.086
332.375
334.838
337.474
340.278
343.238
346.334
349.535
352.801
300.119
300.36
300.608
300.859
301.112
301.366
301.618
301.868
302.115
302.357
302.594
302.824
303.049
303.267
303.478
303.681
303.878
304.068
304.251
304.427
304.597
304.76
304.918
305.07
305.216
305.358
305.494
305.627
305.755
305.88
306.002
306.121
306.239
306.354
306.469
306.583
306.698
306.813
306.931
307.052
307.177
307.307
307.443
307.588
307.742
307.907
308.085
308.278
308.489
308.72
308.973
309.252
309.56
309.9
310.277
310.693
311.154
311.664
312.228
312.852
313.541
314.301
315.138
316.059
317.071
318.18
319.394
320.72
322.166
323.738
325.442
327.285
329.27
331.399
333.673
336.087
338.633
341.297
344.062
346.901
349.784
300.12
300.363
300.612
300.866
301.121
301.377
301.631
301.883
302.132
302.376
302.615
302.847
303.074
303.293
303.506
303.711
303.91
304.101
304.285
304.462
304.633
304.797
304.956
305.108
305.256
305.398
305.535
305.668
305.796
305.922
306.044
306.163
306.28
306.395
306.51
306.624
306.738
306.853
306.97
307.09
307.214
307.343
307.478
307.621
307.773
307.936
308.111
308.302
308.509
308.736
308.985
309.259
309.561
309.894
310.262
310.67
311.12
311.617
312.166
312.772
313.441
314.177
314.985
315.873
316.846
317.909
319.069
320.332
321.703
323.186
324.787
326.508
328.35
330.314
332.396
334.591
336.89
339.28
341.743
344.262
346.811
300.121
300.367
300.618
300.874
301.132
301.39
301.647
301.902
302.153
302.4
302.641
302.876
303.105
303.326
303.541
303.748
303.949
304.141
304.327
304.506
304.678
304.844
305.003
305.157
305.305
305.448
305.585
305.719
305.848
305.973
306.095
306.215
306.332
306.447
306.561
306.674
306.788
306.902
307.019
307.138
307.26
307.388
307.521
307.662
307.812
307.972
308.145
308.332
308.535
308.758
309.001
309.269
309.564
309.889
310.247
310.643
311.08
311.562
312.094
312.68
313.324
314.032
314.808
315.657
316.585
317.597
318.696
319.888
321.176
322.564
324.054
325.648
327.344
329.141
331.035
333.019
335.085
337.221
339.413
341.645
343.9
300.122
300.371
300.626
300.884
301.145
301.407
301.667
301.925
302.179
302.429
302.673
302.911
303.143
303.367
303.584
303.794
303.996
304.191
304.379
304.56
304.734
304.901
305.062
305.216
305.365
305.509
305.648
305.782
305.911
306.037
306.159
306.279
306.396
306.511
306.624
306.737
306.85
306.964
307.079
307.197
307.318
307.443
307.575
307.714
307.861
308.018
308.187
308.37
308.569
308.786
309.023
309.284
309.57
309.885
310.233
310.615
311.037
311.502
312.013
312.575
313.192
313.867
314.607
315.413
316.292
317.245
318.279
319.394
320.595
321.882
323.258
324.721
326.271
327.904
329.616
331.4
333.249
335.152
337.099
339.076
341.07
300.124
300.376
300.634
300.897
301.162
301.427
301.691
301.953
302.211
302.465
302.713
302.954
303.189
303.417
303.637
303.85
304.055
304.253
304.443
304.626
304.801
304.97
305.133
305.289
305.44
305.584
305.724
305.859
305.989
306.115
306.238
306.357
306.474
306.589
306.702
306.814
306.926
307.039
307.153
307.269
307.388
307.512
307.641
307.777
307.921
308.075
308.24
308.419
308.612
308.822
309.053
309.305
309.581
309.886
310.22
310.588
310.992
311.437
311.925
312.46
313.046
313.687
314.385
315.145
315.969
316.862
317.824
318.859
319.969
321.153
322.413
323.747
325.152
326.627
328.166
329.763
331.411
333.102
334.827
336.576
338.338
300.126
300.382
300.645
300.912
301.181
301.451
301.72
301.987
302.25
302.508
302.76
303.006
303.245
303.477
303.701
303.917
304.126
304.326
304.52
304.705
304.883
305.055
305.219
305.377
305.529
305.676
305.816
305.952
306.083
306.21
306.332
306.452
306.569
306.683
306.796
306.907
307.019
307.13
307.243
307.357
307.475
307.596
307.723
307.856
307.996
308.146
308.306
308.479
308.666
308.87
309.092
309.334
309.6
309.892
310.212
310.563
310.948
311.371
311.833
312.339
312.892
313.494
314.148
314.858
315.625
316.453
317.342
318.295
319.311
320.393
321.537
322.744
324.011
325.335
326.71
328.133
329.598
331.096
332.622
334.166
335.721
300.129
300.39
300.658
300.93
301.205
301.481
301.755
302.027
302.296
302.559
302.817
303.068
303.312
303.549
303.777
303.998
304.211
304.415
304.612
304.801
304.982
305.156
305.323
305.484
305.638
305.785
305.927
306.064
306.196
306.323
306.447
306.567
306.683
306.797
306.91
307.02
307.131
307.241
307.352
307.464
307.58
307.699
307.822
307.952
308.088
308.233
308.388
308.555
308.735
308.931
309.144
309.376
309.629
309.907
310.211
310.544
310.908
311.306
311.742
312.216
312.733
313.294
313.902
314.559
315.268
316.029
316.844
317.713
318.638
319.617
320.65
321.735
322.869
324.051
325.275
326.538
327.834
329.158
330.504
331.865
333.236
300.132
300.399
300.673
300.952
301.233
301.516
301.797
302.076
302.351
302.621
302.885
303.143
303.393
303.635
303.869
304.095
304.312
304.521
304.722
304.915
305.1
305.278
305.448
305.611
305.767
305.917
306.061
306.199
306.332
306.46
306.584
306.704
306.82
306.934
307.046
307.156
307.265
307.374
307.483
307.593
307.706
307.822
307.942
308.068
308.2
308.34
308.489
308.649
308.822
309.009
309.211
309.432
309.672
309.935
310.222
310.535
310.877
311.249
311.655
312.097
312.576
313.095
313.655
314.259
314.907
315.601
316.342
317.129
317.964
318.844
319.77
320.739
321.75
322.799
323.883
324.999
326.142
327.309
328.493
329.691
330.897
300.135
300.409
300.691
300.977
301.267
301.557
301.846
302.133
302.416
302.694
302.966
303.231
303.488
303.737
303.977
304.21
304.433
304.648
304.854
305.051
305.241
305.422
305.596
305.762
305.921
306.073
306.219
306.359
306.493
306.622
306.747
306.867
306.984
307.097
307.208
307.317
307.425
307.532
307.64
307.748
307.858
307.971
308.087
308.209
308.336
308.47
308.613
308.766
308.93
309.107
309.299
309.508
309.734
309.98
310.249
310.541
310.859
311.206
311.581
311.989
312.429
312.905
313.417
313.967
314.555
315.183
315.851
316.559
317.307
318.093
318.918
319.778
320.673
321.6
322.556
323.539
324.544
325.568
326.608
327.659
328.718
300.139
300.422
300.712
301.008
301.306
301.606
301.905
302.201
302.494
302.781
303.061
303.335
303.6
303.858
304.106
304.346
304.576
304.797
305.009
305.213
305.407
305.593
305.771
305.941
306.103
306.258
306.407
306.548
306.684
306.815
306.94
307.061
307.177
307.291
307.401
307.509
307.615
307.721
307.826
307.932
308.039
308.148
308.261
308.377
308.499
308.628
308.764
308.909
309.064
309.232
309.412
309.607
309.819
310.048
310.298
310.569
310.863
311.181
311.526
311.899
312.301
312.734
313.198
313.695
314.225
314.789
315.387
316.018
316.684
317.382
318.111
318.871
319.66
320.475
321.315
322.176
323.057
323.954
324.864
325.784
326.712
300.144
300.437
300.738
301.044
301.353
301.664
301.974
302.281
302.585
302.883
303.174
303.458
303.733
304
304.258
304.506
304.745
304.974
305.193
305.403
305.603
305.795
305.978
306.152
306.318
306.476
306.628
306.772
306.909
307.041
307.167
307.289
307.406
307.519
307.628
307.735
307.84
307.944
308.047
308.15
308.254
308.359
308.467
308.579
308.696
308.818
308.947
309.083
309.23
309.386
309.555
309.736
309.933
310.145
310.375
310.624
310.893
311.185
311.499
311.837
312.201
312.591
313.009
313.454
313.928
314.431
314.962
315.522
316.111
316.726
317.369
318.036
318.728
319.442
320.176
320.929
321.698
322.48
323.275
324.079
324.889
300.15
300.454
300.767
301.086
301.408
301.732
302.055
302.375
302.692
303.002
303.306
303.602
303.889
304.168
304.436
304.694
304.943
305.181
305.408
305.626
305.834
306.032
306.22
306.399
306.57
306.732
306.886
307.033
307.173
307.307
307.434
307.556
307.673
307.786
307.895
308.001
308.104
308.206
308.306
308.406
308.507
308.608
308.712
308.819
308.929
309.045
309.166
309.294
309.431
309.577
309.733
309.901
310.082
310.277
310.487
310.714
310.959
311.223
311.507
311.812
312.139
312.488
312.861
313.258
313.678
314.123
314.593
315.086
315.603
316.144
316.706
317.29
317.893
318.516
319.155
319.811
320.48
321.161
321.852
322.552
323.258
300.157
300.475
300.802
301.135
301.473
301.812
302.15
302.486
302.817
303.143
303.461
303.771
304.072
304.364
304.645
304.915
305.175
305.423
305.661
305.887
306.103
306.308
306.503
306.688
306.864
307.03
307.188
307.338
307.481
307.616
307.744
307.867
307.985
308.097
308.205
308.31
308.412
308.511
308.609
308.706
308.803
308.901
309
309.101
309.206
309.314
309.428
309.547
309.674
309.809
309.953
310.107
310.272
310.45
310.641
310.847
311.068
311.305
311.56
311.833
312.124
312.435
312.765
313.116
313.487
313.879
314.291
314.723
315.176
315.647
316.137
316.645
317.17
317.71
318.265
318.834
319.414
320.005
320.605
321.213
321.827
300.165
300.499
300.843
301.193
301.548
301.905
302.261
302.615
302.964
303.307
303.642
303.969
304.286
304.593
304.889
305.173
305.445
305.706
305.954
306.191
306.416
306.629
306.832
307.023
307.205
307.376
307.538
307.692
307.837
307.974
308.104
308.228
308.346
308.458
308.566
308.669
308.769
308.866
308.962
309.055
309.149
309.242
309.336
309.432
309.53
309.632
309.737
309.848
309.965
310.089
310.22
310.361
310.511
310.672
310.845
311.029
311.228
311.44
311.667
311.909
312.167
312.441
312.733
313.041
313.366
313.709
314.069
314.446
314.839
315.249
315.674
316.114
316.568
317.036
317.516
318.008
318.51
319.021
319.54
320.066
320.598
300.174
300.527
300.89
301.261
301.636
302.014
302.391
302.765
303.135
303.498
303.854
304.2
304.535
304.86
305.172
305.472
305.759
306.033
306.295
306.543
306.778
307.001
307.212
307.411
307.598
307.775
307.942
308.099
308.247
308.387
308.519
308.643
308.761
308.874
308.98
309.083
309.181
309.276
309.368
309.459
309.548
309.637
309.726
309.816
309.908
310.003
310.1
310.203
310.31
310.423
310.542
310.669
310.805
310.95
311.104
311.269
311.446
311.634
311.835
312.048
312.276
312.517
312.772
313.041
313.325
313.624
313.936
314.263
314.604
314.958
315.326
315.706
316.098
316.502
316.916
317.339
317.772
318.213
318.661
319.115
319.575
300.185
300.56
300.946
301.34
301.739
302.14
302.542
302.94
303.334
303.721
304.099
304.468
304.825
305.169
305.501
305.819
306.123
306.412
306.687
306.948
307.195
307.429
307.648
307.855
308.05
308.233
308.405
308.566
308.717
308.859
308.993
309.119
309.237
309.349
309.455
309.556
309.652
309.745
309.834
309.922
310.007
310.091
310.175
310.26
310.345
310.433
310.523
310.616
310.714
310.816
310.924
311.039
311.16
311.289
311.427
311.573
311.729
311.895
312.072
312.26
312.459
312.669
312.892
313.126
313.372
313.631
313.902
314.184
314.478
314.784
315.101
315.428
315.765
316.112
316.468
316.832
317.205
317.584
317.969
318.361
318.757
300.197
300.598
301.01
301.432
301.858
302.288
302.718
303.144
303.566
303.98
304.384
304.778
305.159
305.527
305.88
306.218
306.541
306.848
307.139
307.414
307.673
307.918
308.148
308.364
308.566
308.755
308.932
309.098
309.252
309.397
309.532
309.659
309.778
309.89
309.995
310.094
310.188
310.279
310.365
310.448
310.53
310.609
310.688
310.767
310.846
310.927
311.009
311.094
311.183
311.275
311.372
311.474
311.582
311.697
311.818
311.948
312.085
312.231
312.385
312.549
312.722
312.905
313.099
313.302
313.515
313.738
313.972
314.215
314.468
314.731
315.003
315.284
315.573
315.871
316.176
316.489
316.808
317.134
317.465
317.801
318.142
300.212
300.642
301.086
301.538
301.998
302.46
302.922
303.381
303.834
304.279
304.714
305.137
305.546
305.939
306.317
306.677
307.021
307.346
307.654
307.945
308.218
308.475
308.716
308.941
309.151
309.347
309.529
309.699
309.858
310.005
310.142
310.269
310.388
310.5
310.604
310.702
310.794
310.881
310.964
311.044
311.121
311.196
311.27
311.343
311.416
311.49
311.565
311.641
311.721
311.804
311.89
311.981
312.076
312.177
312.284
312.398
312.518
312.645
312.78
312.922
313.073
313.231
313.398
313.574
313.757
313.95
314.151
314.36
314.577
314.802
315.036
315.276
315.524
315.779
316.041
316.309
316.582
316.861
317.145
317.434
317.726
300.229
300.694
301.173
301.663
302.159
302.659
303.159
303.655
304.145
304.626
305.095
305.55
305.99
306.412
306.817
307.202
307.568
307.914
308.241
308.548
308.836
309.106
309.358
309.592
309.811
310.013
310.202
310.376
310.537
310.687
310.826
310.954
311.073
311.183
311.286
311.382
311.472
311.556
311.636
311.712
311.785
311.855
311.924
311.991
312.058
312.125
312.193
312.262
312.333
312.406
312.483
312.563
312.647
312.736
312.829
312.928
313.033
313.144
313.261
313.384
313.514
313.651
313.795
313.946
314.104
314.269
314.442
314.621
314.808
315.001
315.2
315.406
315.619
315.837
316.061
316.29
316.524
316.763
317.006
317.253
317.504
300.249
300.754
301.275
301.807
302.347
302.89
303.433
303.972
304.504
305.025
305.532
306.024
306.498
306.953
307.387
307.799
308.19
308.558
308.905
309.23
309.533
309.816
310.079
310.324
310.55
310.759
310.953
311.131
311.296
311.447
311.587
311.715
311.834
311.943
312.045
312.138
312.225
312.307
312.383
312.455
312.523
312.589
312.652
312.714
312.775
312.836
312.897
312.958
313.021
313.086
313.154
313.224
313.298
313.375
313.457
313.543
313.634
313.729
313.831
313.937
314.049
314.167
314.291
314.421
314.557
314.699
314.847
315.001
315.16
315.326
315.497
315.673
315.855
316.041
316.233
316.429
316.629
316.834
317.042
317.254
317.469
300.272
300.824
301.393
301.974
302.564
303.157
303.75
304.338
304.917
305.483
306.034
306.567
307.079
307.569
308.035
308.476
308.893
309.285
309.652
309.994
310.314
310.61
310.884
311.138
311.372
311.588
311.786
311.968
312.135
312.288
312.428
312.556
312.674
312.782
312.881
312.972
313.056
313.134
313.207
313.275
313.339
313.399
313.458
313.514
313.569
313.624
313.678
313.733
313.789
313.846
313.905
313.966
314.03
314.098
314.169
314.243
314.322
314.405
314.492
314.584
314.681
314.782
314.889
315.001
315.117
315.239
315.366
315.498
315.635
315.777
315.924
316.075
316.23
316.39
316.554
316.722
316.894
317.069
317.247
317.429
317.613
300.298
300.905
301.53
302.168
302.815
303.466
304.115
304.759
305.391
306.009
306.608
307.186
307.739
308.267
308.767
309.239
309.683
310.099
310.487
310.848
311.182
311.491
311.776
312.039
312.28
312.501
312.703
312.887
313.056
313.209
313.349
313.477
313.593
313.699
313.795
313.883
313.964
314.038
314.107
314.171
314.23
314.286
314.34
314.391
314.44
314.489
314.538
314.586
314.635
314.685
314.737
314.79
314.846
314.905
314.966
315.031
315.099
315.17
315.246
315.325
315.409
315.497
315.589
315.685
315.785
315.89
316
316.113
316.231
316.353
316.479
316.608
316.742
316.879
317.02
317.164
317.312
317.462
317.615
317.771
317.929
300.329
300.999
301.688
302.392
303.106
303.822
304.537
305.243
305.935
306.61
307.262
307.888
308.486
309.054
309.59
310.095
310.566
311.006
311.415
311.793
312.141
312.462
312.757
313.027
313.273
313.498
313.703
313.889
314.058
314.211
314.349
314.475
314.589
314.692
314.785
314.87
314.947
315.018
315.082
315.142
315.197
315.248
315.297
315.343
315.388
315.432
315.475
315.517
315.561
315.605
315.65
315.697
315.745
315.796
315.85
315.906
315.965
316.027
316.093
316.162
316.234
316.31
316.39
316.473
316.56
316.651
316.746
316.844
316.946
317.051
317.16
317.272
317.387
317.505
317.627
317.751
317.878
318.007
318.139
318.273
318.409
300.365
301.108
301.872
302.652
303.441
304.233
305.021
305.797
306.556
307.293
308.003
308.682
309.327
309.937
310.511
311.047
311.546
312.009
312.436
312.83
313.191
313.522
313.824
314.099
314.35
314.577
314.782
314.968
315.136
315.287
315.424
315.547
315.658
315.757
315.847
315.928
316.002
316.068
316.129
316.184
316.235
316.283
316.327
316.369
316.409
316.449
316.487
316.525
316.564
316.603
316.643
316.684
316.727
316.771
316.818
316.868
316.92
316.974
317.032
317.092
317.156
317.222
317.292
317.365
317.441
317.521
317.603
317.689
317.777
317.869
317.963
318.061
318.161
318.264
318.369
318.477
318.587
318.699
318.813
318.929
319.047
300.407
301.234
302.084
302.951
303.828
304.705
305.575
306.43
307.264
308.068
308.84
309.574
310.269
310.921
311.531
312.098
312.623
313.106
313.551
313.957
314.328
314.666
314.973
315.251
315.503
315.73
315.934
316.118
316.284
316.432
316.565
316.685
316.792
316.888
316.974
317.051
317.121
317.183
317.24
317.292
317.34
317.384
317.425
317.463
317.5
317.536
317.571
317.606
317.641
317.676
317.712
317.75
317.788
317.828
317.871
317.915
317.962
318.01
318.062
318.116
318.172
318.232
318.294
318.359
318.426
318.496
318.569
318.645
318.723
318.804
318.887
318.972
319.06
319.15
319.242
319.337
319.433
319.531
319.63
319.731
319.834
300.455
301.38
302.329
303.297
304.272
305.246
306.209
307.151
308.064
308.942
309.779
310.57
311.314
312.008
312.652
313.247
313.794
314.294
314.751
315.167
315.544
315.885
316.194
316.471
316.721
316.946
317.147
317.327
317.489
317.633
317.762
317.877
317.98
318.072
318.155
318.228
318.295
318.354
318.408
318.457
318.503
318.544
318.583
318.62
318.655
318.689
318.722
318.755
318.788
318.821
318.855
318.89
318.926
318.964
319.003
319.044
319.087
319.133
319.18
319.229
319.281
319.335
319.392
319.45
319.512
319.575
319.641
319.709
319.779
319.851
319.925
320.001
320.079
320.159
320.241
320.324
320.409
320.495
320.583
320.672
320.762
300.511
301.548
302.612
303.694
304.782
305.865
306.93
307.967
308.966
309.921
310.824
311.672
312.462
313.194
313.868
314.486
315.049
315.562
316.026
316.445
316.824
317.164
317.47
317.744
317.989
318.208
318.404
318.579
318.736
318.875
318.999
319.11
319.209
319.297
319.377
319.448
319.512
319.569
319.622
319.67
319.714
319.755
319.793
319.83
319.865
319.899
319.932
319.965
319.998
320.031
320.065
320.099
320.135
320.172
320.211
320.251
320.292
320.336
320.381
320.428
320.477
320.528
320.581
320.635
320.692
320.751
320.811
320.874
320.938
321.004
321.071
321.14
321.21
321.282
321.356
321.43
321.506
321.583
321.661
321.739
321.819
300.574
301.741
302.936
304.149
305.364
306.567
307.745
308.884
309.974
311.006
311.974
312.874
313.706
314.47
315.167
315.8
316.373
316.889
317.354
317.771
318.145
318.479
318.778
319.045
319.283
319.495
319.684
319.853
320.003
320.137
320.257
320.364
320.46
320.546
320.623
320.693
320.756
320.814
320.866
320.915
320.96
321.003
321.043
321.081
321.118
321.154
321.19
321.225
321.26
321.296
321.332
321.368
321.406
321.444
321.484
321.524
321.567
321.61
321.655
321.702
321.75
321.799
321.85
321.903
321.957
322.013
322.07
322.128
322.188
322.249
322.312
322.375
322.44
322.505
322.572
322.639
322.708
322.777
322.847
322.917
322.988
300.648
301.962
303.307
304.667
306.025
307.361
308.66
309.906
311.087
312.194
313.221
314.166
315.03
315.816
316.526
317.164
317.736
318.248
318.705
319.112
319.476
319.799
320.088
320.344
320.573
320.777
320.958
321.12
321.265
321.395
321.511
321.616
321.71
321.795
321.873
321.944
322.009
322.068
322.124
322.176
322.225
322.271
322.316
322.358
322.4
322.441
322.481
322.52
322.56
322.6
322.64
322.68
322.721
322.763
322.806
322.849
322.893
322.939
322.985
323.032
323.081
323.131
323.182
323.233
323.286
323.34
323.395
323.451
323.508
323.565
323.624
323.683
323.743
323.804
323.865
323.927
323.989
324.052
324.115
324.178
324.242
300.732
302.215
303.73
305.256
306.771
308.251
309.677
311.03
312.298
313.474
314.549
315.523
316.402
317.191
317.898
318.529
319.09
319.589
320.033
320.427
320.776
321.087
321.363
321.608
321.827
322.022
322.197
322.353
322.494
322.621
322.736
322.84
322.935
323.022
323.102
323.176
323.245
323.31
323.37
323.428
323.483
323.536
323.586
323.636
323.684
323.731
323.778
323.824
323.87
323.916
323.961
324.007
324.053
324.1
324.146
324.193
324.241
324.289
324.338
324.387
324.437
324.488
324.539
324.591
324.643
324.696
324.75
324.804
324.858
324.913
324.969
325.024
325.08
325.136
325.193
325.25
325.306
325.363
325.42
325.477
325.534
300.826
302.502
304.208
305.919
307.605
309.238
310.794
312.246
313.579
314.793
315.89
316.875
317.754
318.537
319.231
319.847
320.391
320.871
321.297
321.673
322.006
322.301
322.564
322.798
323.007
323.194
323.363
323.515
323.654
323.78
323.895
324.001
324.098
324.189
324.274
324.354
324.429
324.5
324.568
324.633
324.696
324.756
324.815
324.873
324.929
324.984
325.038
325.091
325.144
325.197
325.249
325.301
325.352
325.403
325.455
325.506
325.557
325.608
325.66
325.711
325.763
325.815
325.866
325.918
325.97
326.023
326.075
326.127
326.179
326.232
326.284
326.336
326.389
326.441
326.493
326.544
326.596
326.648
326.699
326.75
326.801
300.932
302.823
304.743
306.656
308.527
310.302
311.953
313.468
314.842
316.079
317.182
318.163
319.03
319.794
320.467
321.058
321.578
322.035
322.438
322.794
323.109
323.388
323.638
323.86
324.061
324.241
324.406
324.555
324.692
324.819
324.936
325.045
325.147
325.243
325.334
325.42
325.502
325.581
325.657
325.73
325.8
325.869
325.936
326.001
326.065
326.128
326.189
326.25
326.309
326.368
326.426
326.483
326.54
326.596
326.651
326.706
326.76
326.814
326.868
326.921
326.973
327.026
327.078
327.13
327.181
327.232
327.283
327.333
327.383
327.433
327.482
327.531
327.579
327.627
327.675
327.722
327.769
327.815
327.861
327.906
327.951
301.046
303.168
305.32
307.442
309.458
311.334
313.053
314.609
316.002
317.239
318.331
319.292
320.133
320.868
321.511
322.073
322.564
322.995
323.375
323.709
324.006
324.27
324.506
324.719
324.911
325.086
325.246
325.394
325.531
325.658
325.777
325.889
325.996
326.096
326.192
326.284
326.373
326.458
326.54
326.62
326.698
326.773
326.846
326.918
326.988
327.057
327.124
327.19
327.255
327.318
327.38
327.442
327.502
327.561
327.619
327.676
327.733
327.788
327.843
327.897
327.95
328.003
328.055
328.106
328.156
328.206
328.255
328.303
328.351
328.398
328.444
328.49
328.535
328.58
328.623
328.666
328.709
328.751
328.792
328.832
328.872
301.147
303.483
305.844
308.105
310.217
312.155
313.906
315.471
316.858
318.077
319.144
320.075
320.885
321.59
322.203
322.737
323.203
323.611
323.97
324.287
324.569
324.821
325.047
325.251
325.437
325.608
325.765
325.911
326.046
326.174
326.294
326.408
326.516
326.619
326.718
326.813
326.905
326.994
327.08
327.163
327.244
327.323
327.4
327.475
327.549
327.62
327.691
327.759
327.826
327.892
327.957
328.02
328.082
328.143
328.203
328.261
328.319
328.375
328.43
328.485
328.538
328.591
328.642
328.693
328.742
328.791
328.839
328.886
328.932
328.978
329.022
329.066
329.109
329.151
329.192
329.233
329.272
329.311
329.349
329.387
329.424
379.547
387.475
394.152
399.982
405.163
409.805
413.968
417.685
420.972
423.829
426.245
428.198
429.651
430.557
430.849
430.436
429.189
426.911
423.27
417.609
408.28
401.971
397.142
393.191
389.831
386.9
384.296
381.951
379.817
377.857
376.044
374.356
372.774
371.286
369.879
368.543
367.269
366.052
364.884
363.76
362.675
361.626
360.609
359.62
358.656
357.716
356.796
355.896
355.012
354.144
353.289
352.447
351.616
350.796
349.985
349.183
348.389
347.601
346.821
346.047
345.278
344.515
343.758
343.006
342.258
341.516
340.779
340.046
339.319
338.596
337.879
337.167
336.46
335.759
335.064
334.375
333.692
333.015
332.346
331.683
331.029
330.382
329.743
329.113
328.491
327.88
327.277
326.685
326.103
325.532
324.972
324.423
323.886
323.36
322.847
322.346
321.858
321.382
320.919
320.468
320.031
319.606
319.194
318.795
318.408
318.034
317.673
317.324
316.986
316.661
316.346
316.044
315.752
315.471
315.2
314.939
314.688
314.446
314.213
313.988
313.772
313.564
313.364
313.17
312.984
312.804
312.63
312.462
312.3
312.143
311.99
311.843
311.7
311.561
311.425
311.294
311.166
311.041
310.919
310.799
310.683
310.569
310.457
310.347
310.239
310.133
310.029
309.926
309.825
309.725
309.627
309.53
309.434
309.34
309.246
309.153
309.062
308.972
308.882
308.794
308.709
374.811
381.695
387.901
393.485
398.524
403.077
407.184
410.866
414.133
416.981
419.397
421.358
422.83
423.766
424.103
423.759
422.619
420.528
417.269
412.573
406.394
401.054
396.601
392.831
389.572
386.704
384.143
381.829
379.717
377.774
375.974
374.296
372.724
371.242
369.841
368.51
367.24
366.026
364.861
363.74
362.658
361.61
360.595
359.607
358.645
357.706
356.787
355.887
355.004
354.137
353.283
352.441
351.611
350.791
349.981
349.179
348.385
347.598
346.817
346.043
345.275
344.512
343.755
343.003
342.256
341.514
340.776
340.044
339.316
338.594
337.877
337.165
336.458
335.757
335.062
334.372
333.689
333.013
332.344
331.681
331.027
330.38
329.741
329.111
328.489
327.877
327.275
326.683
326.101
325.53
324.97
324.421
323.884
323.358
322.845
322.344
321.856
321.38
320.917
320.467
320.029
319.605
319.193
318.794
318.407
318.033
317.672
317.322
316.985
316.66
316.346
316.043
315.751
315.47
315.199
314.938
314.687
314.445
314.212
313.988
313.772
313.564
313.364
313.17
312.984
312.804
312.63
312.462
312.3
312.143
311.99
311.843
311.7
311.561
311.426
311.294
311.166
311.041
310.919
310.8
310.683
310.569
310.457
310.347
310.239
310.133
310.029
309.926
309.825
309.726
309.627
309.53
309.435
309.34
309.246
309.154
309.062
308.972
308.883
308.795
308.709
370.729
376.615
382.187
387.365
392.138
396.511
400.494
404.093
407.305
410.123
412.53
414.501
416.004
416.994
417.418
417.204
416.266
414.502
411.805
408.131
403.695
399.391
395.507
392.065
389.007
386.272
383.803
381.555
379.493
377.588
375.818
374.164
372.611
371.145
369.757
368.437
367.177
365.971
364.813
363.697
362.62
361.577
360.564
359.58
358.621
357.684
356.768
355.87
354.988
354.122
353.27
352.429
351.6
350.781
349.972
349.17
348.377
347.59
346.811
346.037
345.269
344.507
343.75
342.998
342.251
341.509
340.772
340.039
339.312