/*--------------------------------*- C++ -*----------------------------------*\
  =========                 |
  \\      /  F ield         | OpenFOAM: The Open Source CFD Toolbox
   \\    /   O peration     | Website:  https://openfoam.org
    \\  /    A nd           | Version:  7
     \\/     M anipulation  |
\*---------------------------------------------------------------------------*/
FoamFile
{
    version     2.0;
    format      ascii;
    class       surfaceScalarField;
    location    "3.77";
    object      phi;
}
// * * * * * * * * * * * * * * * * * * * * * * * * * * * * * * * * * * * * * //

dimensions      [1 0 -1 0 0 0 0];

internalField   nonuniform List<scalar> 
23692
(
1.18001e-05
-1.6519e-07
1.21054e-05
-3.05149e-07
1.25352e-05
-4.29487e-07
1.30723e-05
-5.36641e-07
1.37021e-05
-6.29199e-07
1.44116e-05
-7.08841e-07
1.51892e-05
-7.76814e-07
1.60244e-05
-8.34272e-07
1.69076e-05
-8.82256e-07
1.78303e-05
-9.2171e-07
1.87849e-05
-9.535e-07
1.97645e-05
-9.78418e-07
2.07629e-05
-9.97185e-07
2.17746e-05
-1.01046e-06
2.27947e-05
-1.01885e-06
2.38189e-05
-1.0229e-06
2.48433e-05
-1.02311e-06
2.58646e-05
-1.01993e-06
2.68796e-05
-1.01378e-06
2.78859e-05
-1.00504e-06
2.88812e-05
-9.94039e-07
2.98635e-05
-9.811e-07
3.08312e-05
-9.66506e-07
3.17828e-05
-9.50514e-07
3.27173e-05
-9.33358e-07
3.36335e-05
-9.15252e-07
3.45309e-05
-8.96386e-07
3.54087e-05
-8.76931e-07
3.62665e-05
-8.57046e-07
3.71041e-05
-8.36867e-07
3.79213e-05
-8.16515e-07
3.8718e-05
-7.961e-07
3.94942e-05
-7.75717e-07
4.02501e-05
-7.55447e-07
4.09857e-05
-7.35362e-07
4.17015e-05
-7.15517e-07
4.23976e-05
-6.95962e-07
4.30744e-05
-6.76736e-07
4.37322e-05
-6.57868e-07
4.43714e-05
-6.39376e-07
4.49925e-05
-6.2127e-07
4.55957e-05
-6.03555e-07
4.61815e-05
-5.86227e-07
4.67503e-05
-5.69273e-07
4.73024e-05
-5.52672e-07
4.78381e-05
-5.36397e-07
4.83578e-05
-5.20413e-07
4.88617e-05
-5.04682e-07
4.93499e-05
-4.89154e-07
4.98227e-05
-4.73772e-07
5.02801e-05
-4.58472e-07
5.07222e-05
-4.43183e-07
5.11488e-05
-4.27825e-07
5.15599e-05
-4.12309e-07
5.19552e-05
-3.96534e-07
5.23342e-05
-3.8039e-07
5.26966e-05
-3.63752e-07
5.30416e-05
-3.46481e-07
5.33685e-05
-3.28421e-07
5.36764e-05
-3.09394e-07
5.39641e-05
-2.89197e-07
5.42301e-05
-2.67596e-07
5.44729e-05
-2.44317e-07
5.46903e-05
-2.19035e-07
5.48801e-05
-1.91359e-07
5.50393e-05
-1.60812e-07
5.51645e-05
-1.26799e-07
5.52514e-05
-8.85635e-08
5.52949e-05
-4.513e-08
5.52886e-05
4.79953e-09
5.52239e-05
6.31046e-08
5.50899e-05
1.32476e-07
5.48715e-05
2.1688e-07
5.45475e-05
3.22424e-07
5.40871e-05
4.58957e-07
5.34426e-05
6.4309e-07
5.2537e-05
9.04222e-07
5.12382e-05
1.29741e-06
4.93002e-05
1.9367e-06
4.61936e-05
3.10534e-06
5.99626e-06
4.01962e-05
1.26227e-05
-3.38328e-07
1.29482e-05
-6.30493e-07
1.34075e-05
-8.88377e-07
1.39815e-05
-1.11021e-06
1.46548e-05
-1.30188e-06
1.54135e-05
-1.46681e-06
1.62451e-05
-1.60755e-06
1.71383e-05
-1.72652e-06
1.80829e-05
-1.82587e-06
1.90699e-05
-1.90756e-06
2.0091e-05
-1.97337e-06
2.11387e-05
-2.02496e-06
2.22067e-05
-2.06382e-06
2.32888e-05
-2.0913e-06
2.438e-05
-2.10867e-06
2.54755e-05
-2.11705e-06
2.65713e-05
-2.11747e-06
2.76636e-05
-2.11089e-06
2.87494e-05
-2.09814e-06
2.98257e-05
-2.08002e-06
3.08903e-05
-2.05724e-06
3.19409e-05
-2.03043e-06
3.29758e-05
-2.0002e-06
3.39936e-05
-1.96706e-06
3.49929e-05
-1.93152e-06
3.59727e-05
-1.894e-06
3.69323e-05
-1.85491e-06
3.78709e-05
-1.81459e-06
3.87881e-05
-1.77338e-06
3.96836e-05
-1.73155e-06
4.05571e-05
-1.68936e-06
4.14087e-05
-1.64704e-06
4.22383e-05
-1.60478e-06
4.3046e-05
-1.56274e-06
4.38321e-05
-1.52108e-06
4.45967e-05
-1.47991e-06
4.53402e-05
-1.43934e-06
4.6063e-05
-1.39944e-06
4.67653e-05
-1.36027e-06
4.74477e-05
-1.32187e-06
4.81104e-05
-1.28426e-06
4.8754e-05
-1.24745e-06
4.93788e-05
-1.21144e-06
4.99851e-05
-1.17618e-06
5.05735e-05
-1.14165e-06
5.11442e-05
-1.10778e-06
5.16975e-05
-1.07451e-06
5.22337e-05
-1.04175e-06
5.27529e-05
-1.00939e-06
5.32555e-05
-9.77332e-07
5.37413e-05
-9.4543e-07
5.42105e-05
-9.13543e-07
5.46629e-05
-8.81503e-07
5.50984e-05
-8.49127e-07
5.55167e-05
-8.1621e-07
5.59173e-05
-7.82525e-07
5.62999e-05
-7.47818e-07
5.66637e-05
-7.11805e-07
5.70079e-05
-6.74167e-07
5.73314e-05
-6.34545e-07
5.76331e-05
-5.92526e-07
5.79115e-05
-5.47639e-07
5.81648e-05
-4.99333e-07
5.8391e-05
-4.46957e-07
5.85877e-05
-3.89735e-07
5.87519e-05
-3.26722e-07
5.88801e-05
-2.56747e-07
5.89681e-05
-1.78335e-07
5.90109e-05
-8.95897e-08
5.9002e-05
1.19886e-08
5.89335e-05
1.29884e-07
5.87954e-05
2.68947e-07
5.85745e-05
4.36158e-07
5.82535e-05
6.41842e-07
5.78091e-05
9.01759e-07
5.721e-05
1.24067e-06
5.64143e-05
1.69845e-06
5.53696e-05
2.34063e-06
5.40255e-05
3.27941e-06
5.24199e-05
4.70965e-06
6.87969e-06
5.15352e-05
1.35019e-05
-5.19028e-07
1.38482e-05
-9.76573e-07
1.43376e-05
-1.37735e-06
1.49502e-05
-1.7223e-06
1.56692e-05
-2.02025e-06
1.64797e-05
-2.27656e-06
1.73684e-05
-2.49528e-06
1.8323e-05
-2.68014e-06
1.93328e-05
-2.83451e-06
2.03878e-05
-2.96144e-06
2.14794e-05
-3.0637e-06
2.25997e-05
-3.14386e-06
2.37415e-05
-3.20422e-06
2.48985e-05
-3.24693e-06
2.60652e-05
-3.2739e-06
2.72366e-05
-3.28692e-06
2.84081e-05
-3.28756e-06
2.9576e-05
-3.27732e-06
3.07369e-05
-3.25749e-06
3.18876e-05
-3.22932e-06
3.30257e-05
-3.19388e-06
3.41489e-05
-3.1522e-06
3.52552e-05
-3.10518e-06
3.63431e-05
-3.05365e-06
3.74111e-05
-2.99836e-06
3.84583e-05
-2.94e-06
3.94837e-05
-2.87918e-06
4.04866e-05
-2.81646e-06
4.14664e-05
-2.75233e-06
4.2423e-05
-2.68723e-06
4.33559e-05
-2.62157e-06
4.42652e-05
-2.55568e-06
4.51509e-05
-2.48987e-06
4.6013e-05
-2.4244e-06
4.68518e-05
-2.3595e-06
4.76675e-05
-2.29535e-06
4.84605e-05
-2.2321e-06
4.9231e-05
-2.16988e-06
4.99794e-05
-2.10879e-06
5.07063e-05
-2.04887e-06
5.14119e-05
-1.99016e-06
5.20968e-05
-1.93267e-06
5.27613e-05
-1.87639e-06
5.34058e-05
-1.82127e-06
5.40307e-05
-1.76725e-06
5.46364e-05
-1.71424e-06
5.52232e-05
-1.66213e-06
5.57913e-05
-1.61079e-06
5.6341e-05
-1.56006e-06
5.68723e-05
-1.50977e-06
5.73853e-05
-1.4597e-06
5.78802e-05
-1.40964e-06
5.83566e-05
-1.35932e-06
5.88146e-05
-1.30847e-06
5.92536e-05
-1.25677e-06
5.96735e-05
-1.20388e-06
6.00735e-05
-1.14941e-06
6.04529e-05
-1.09293e-06
6.0811e-05
-1.03396e-06
6.11467e-05
-9.71954e-07
6.14587e-05
-9.06303e-07
6.17456e-05
-8.36302e-07
6.20056e-05
-7.61138e-07
6.22367e-05
-6.79859e-07
6.24365e-05
-5.91335e-07
6.26021e-05
-4.94206e-07
6.27303e-05
-3.86807e-07
6.28172e-05
-2.67066e-07
6.28581e-05
-1.32358e-07
6.28476e-05
2.06914e-08
6.27791e-05
1.96607e-07
6.26448e-05
4.01414e-07
6.24358e-05
6.43434e-07
6.21417e-05
9.34235e-07
6.17517e-05
1.29011e-06
6.12566e-05
1.73413e-06
6.06547e-05
2.2987e-06
5.99656e-05
3.02818e-06
5.92641e-05
3.97943e-06
5.87642e-05
5.20805e-06
6.68988e-06
5.89526e-05
1.44424e-05
-7.07559e-07
1.48096e-05
-1.34357e-06
1.533e-05
-1.89738e-06
1.59828e-05
-2.37455e-06
1.67499e-05
-2.78656e-06
1.7615e-05
-3.14089e-06
1.85639e-05
-3.44322e-06
1.95836e-05
-3.69873e-06
2.06624e-05
-3.91208e-06
2.17897e-05
-4.0875e-06
2.29562e-05
-4.22883e-06
2.41534e-05
-4.3396e-06
2.53737e-05
-4.42302e-06
2.66103e-05
-4.48204e-06
2.78573e-05
-4.51931e-06
2.91093e-05
-4.53729e-06
3.03615e-05
-4.53817e-06
3.16097e-05
-4.52398e-06
3.28504e-05
-4.49656e-06
3.40802e-05
-4.45758e-06
3.52964e-05
-4.40856e-06
3.64966e-05
-4.35089e-06
3.76787e-05
-4.28584e-06
3.8841e-05
-4.21453e-06
3.9982e-05
-4.13803e-06
4.11005e-05
-4.05726e-06
4.21956e-05
-3.97308e-06
4.32665e-05
-3.88625e-06
4.43126e-05
-3.79746e-06
4.53336e-05
-3.70731e-06
4.63292e-05
-3.61635e-06
4.72993e-05
-3.52507e-06
4.8244e-05
-3.43387e-06
4.91632e-05
-3.34312e-06
5.00572e-05
-3.25312e-06
5.09263e-05
-3.16414e-06
5.17708e-05
-3.07638e-06
5.2591e-05
-2.99001e-06
5.33873e-05
-2.90516e-06
5.41602e-05
-2.8219e-06
5.491e-05
-2.74028e-06
5.56373e-05
-2.66032e-06
5.63424e-05
-2.58199e-06
5.70258e-05
-2.50523e-06
5.76878e-05
-2.42995e-06
5.83287e-05
-2.35603e-06
5.8949e-05
-2.28331e-06
5.95488e-05
-2.21163e-06
6.01284e-05
-2.14075e-06
6.06879e-05
-2.07044e-06
6.12273e-05
-2.00042e-06
6.17467e-05
-1.93038e-06
6.22459e-05
-1.85998e-06
6.27248e-05
-1.78882e-06
6.31829e-05
-1.7165e-06
6.36199e-05
-1.64255e-06
6.40353e-05
-1.56644e-06
6.44282e-05
-1.48762e-06
6.47978e-05
-1.40543e-06
6.51432e-05
-1.31917e-06
6.54631e-05
-1.22805e-06
6.5756e-05
-1.13114e-06
6.60203e-05
-1.02742e-06
6.62542e-05
-9.15663e-07
6.64554e-05
-7.9447e-07
6.66213e-05
-6.62163e-07
6.67493e-05
-5.16726e-07
6.68359e-05
-3.55705e-07
6.68777e-05
-1.76064e-07
6.68705e-05
2.59471e-08
6.681e-05
2.55152e-07
6.66919e-05
5.17569e-07
6.65124e-05
8.21074e-07
6.62691e-05
1.17576e-06
6.59629e-05
1.59442e-06
6.56024e-05
2.09289e-06
6.52098e-05
2.68962e-06
6.48326e-05
3.4037e-06
6.45612e-05
4.24918e-06
6.45468e-05
5.22086e-06
6.25971e-06
6.49755e-05
1.54485e-05
-9.04405e-07
1.58372e-05
-1.73199e-06
1.63899e-05
-2.4496e-06
1.70847e-05
-3.06875e-06
1.79021e-05
-3.60323e-06
1.88248e-05
-4.06275e-06
1.98375e-05
-4.4548e-06
2.0926e-05
-4.7861e-06
2.20779e-05
-5.06274e-06
2.3282e-05
-5.29017e-06
2.45281e-05
-5.47341e-06
2.5807e-05
-5.61703e-06
2.71108e-05
-5.7252e-06
2.84322e-05
-5.80171e-06
2.97646e-05
-5.85004e-06
3.11023e-05
-5.87333e-06
3.24404e-05
-5.87446e-06
3.37741e-05
-5.85604e-06
3.50997e-05
-5.82044e-06
3.64137e-05
-5.76985e-06
3.7713e-05
-5.70622e-06
3.89951e-05
-5.63137e-06
4.02578e-05
-5.54691e-06
4.14991e-05
-5.45434e-06
4.27175e-05
-5.355e-06
4.39117e-05
-5.25011e-06
4.50807e-05
-5.14077e-06
4.62236e-05
-5.02796e-06
4.73398e-05
-4.91259e-06
4.84289e-05
-4.79543e-06
4.94906e-05
-4.67719e-06
5.05248e-05
-4.55848e-06
5.15315e-05
-4.43986e-06
5.25107e-05
-4.32178e-06
5.34627e-05
-4.20464e-06
5.43876e-05
-4.08878e-06
5.52859e-05
-3.97446e-06
5.61578e-05
-3.86189e-06
5.70039e-05
-3.75125e-06
5.78245e-05
-3.64263e-06
5.862e-05
-3.53609e-06
5.93909e-05
-3.43164e-06
6.01377e-05
-3.32925e-06
6.08606e-05
-3.22885e-06
6.15603e-05
-3.13033e-06
6.22369e-05
-3.03351e-06
6.28908e-05
-2.93822e-06
6.35223e-05
-2.8442e-06
6.41316e-05
-2.7512e-06
6.47188e-05
-2.65889e-06
6.52839e-05
-2.56693e-06
6.5827e-05
-2.47492e-06
6.63479e-05
-2.38244e-06
6.68464e-05
-2.28899e-06
6.73223e-05
-2.19405e-06
6.7775e-05
-2.09705e-06
6.82041e-05
-1.99733e-06
6.86088e-05
-1.89422e-06
6.89884e-05
-1.78691e-06
6.93418e-05
-1.67457e-06
6.9668e-05
-1.55623e-06
6.99656e-05
-1.43081e-06
7.02332e-05
-1.29711e-06
7.04692e-05
-1.15374e-06
7.06717e-05
-9.99099e-07
7.08388e-05
-8.31351e-07
7.09682e-05
-6.48327e-07
7.10579e-05
-4.47461e-07
7.11054e-05
-2.25695e-07
7.11087e-05
2.05539e-08
7.10661e-05
2.95707e-07
7.09769e-05
6.047e-07
7.08423e-05
9.53686e-07
7.06664e-05
1.34969e-06
7.04584e-05
1.80043e-06
7.02357e-05
2.31367e-06
7.00277e-05
2.89576e-06
6.98806e-05
3.54896e-06
6.98612e-05
4.26682e-06
7.00535e-05
5.02691e-06
5.77884e-06
7.05327e-05
1.65251e-05
-1.11025e-06
1.69361e-05
-2.14262e-06
1.75224e-05
-3.03546e-06
1.82612e-05
-3.80692e-06
1.91317e-05
-4.47289e-06
2.01153e-05
-5.04537e-06
2.11954e-05
-5.53375e-06
2.2357e-05
-5.94644e-06
2.35866e-05
-6.29101e-06
2.48723e-05
-6.5743e-06
2.6203e-05
-6.80255e-06
2.75691e-05
-6.98144e-06
2.89618e-05
-7.11618e-06
3.03734e-05
-7.21149e-06
3.17968e-05
-7.27169e-06
3.32261e-05
-7.3007e-06
3.46555e-05
-7.30208e-06
3.60805e-05
-7.2791e-06
3.74966e-05
-7.23472e-06
3.89002e-05
-7.17162e-06
4.02881e-05
-7.09228e-06
4.16574e-05
-6.99892e-06
4.30057e-05
-6.89357e-06
4.43311e-05
-6.77808e-06
4.56318e-05
-6.65413e-06
4.69064e-05
-6.52323e-06
4.81537e-05
-6.38675e-06
4.9373e-05
-6.24592e-06
5.05634e-05
-6.10185e-06
5.17246e-05
-5.95551e-06
5.28562e-05
-5.80779e-06
5.3958e-05
-5.65944e-06
5.503e-05
-5.51114e-06
5.60723e-05
-5.36347e-06
5.70851e-05
-5.21692e-06
5.80686e-05
-5.07191e-06
5.90231e-05
-4.92875e-06
5.9949e-05
-4.78773e-06
6.08468e-05
-4.64904e-06
6.17168e-05
-4.5128e-06
6.25595e-05
-4.37909e-06
6.33754e-05
-4.24793e-06
6.41649e-05
-4.11927e-06
6.49284e-05
-3.99302e-06
6.56663e-05
-3.86904e-06
6.6379e-05
-3.74714e-06
6.70668e-05
-3.62706e-06
6.773e-05
-3.50854e-06
6.83688e-05
-3.39123e-06
6.89833e-05
-3.27475e-06
6.95736e-05
-3.15869e-06
7.01397e-05
-3.04256e-06
7.06814e-05
-2.92585e-06
7.11987e-05
-2.80798e-06
7.16911e-05
-2.68833e-06
7.21584e-05
-2.56621e-06
7.26e-05
-2.44089e-06
7.30153e-05
-2.31154e-06
7.34036e-05
-2.17728e-06
7.37641e-05
-2.03714e-06
7.40957e-05
-1.89005e-06
7.43976e-05
-1.73482e-06
7.46684e-05
-1.57015e-06
7.49069e-05
-1.39456e-06
7.5112e-05
-1.20641e-06
7.52822e-05
-1.00386e-06
7.54164e-05
-7.84803e-07
7.55136e-05
-5.46852e-07
7.55729e-05
-2.87299e-07
7.55944e-05
-3.14843e-09
7.55788e-05
3.09002e-07
7.55289e-05
6.52455e-07
7.54494e-05
1.03103e-06
7.53486e-05
1.44834e-06
7.52396e-05
1.90736e-06
7.51416e-05
2.40956e-06
7.50818e-05
2.95357e-06
7.50954e-05
3.53338e-06
7.52244e-05
4.13594e-06
7.55109e-05
4.73852e-06
5.30647e-06
7.59815e-05
1.76773e-05
-1.32598e-06
1.81116e-05
-2.57663e-06
1.87334e-05
-3.65673e-06
1.95186e-05
-4.59143e-06
2.04452e-05
-5.39858e-06
2.14932e-05
-6.09236e-06
2.26449e-05
-6.68421e-06
2.38842e-05
-7.18434e-06
2.51966e-05
-7.60191e-06
2.65691e-05
-7.94522e-06
2.79901e-05
-8.22183e-06
2.94491e-05
-8.43865e-06
3.09368e-05
-8.60196e-06
3.24447e-05
-8.71748e-06
3.39655e-05
-8.79044e-06
3.54924e-05
-8.82559e-06
3.70196e-05
-8.82725e-06
3.85418e-05
-8.79936e-06
4.00546e-05
-8.7455e-06
4.15539e-05
-8.66894e-06
4.30363e-05
-8.57265e-06
4.44986e-05
-8.45933e-06
4.59383e-05
-8.33145e-06
4.73532e-05
-8.19123e-06
4.87415e-05
-8.04072e-06
5.01016e-05
-7.88173e-06
5.14323e-05
-7.71594e-06
5.27326e-05
-7.54482e-06
5.40018e-05
-7.36971e-06
5.52392e-05
-7.19181e-06
5.64447e-05
-7.01217e-06
5.76179e-05
-6.83172e-06
5.87588e-05
-6.65126e-06
5.98675e-05
-6.47149e-06
6.09442e-05
-6.29302e-06
6.1989e-05
-6.11634e-06
6.30024e-05
-5.94184e-06
6.39846e-05
-5.76985e-06
6.49362e-05
-5.60061e-06
6.58575e-05
-5.43426e-06
6.6749e-05
-5.27091e-06
6.76112e-05
-5.11056e-06
6.84445e-05
-4.95317e-06
6.92494e-05
-4.79863e-06
7.00263e-05
-4.64677e-06
7.07755e-05
-4.49735e-06
7.14975e-05
-4.3501e-06
7.21924e-05
-4.20467e-06
7.28605e-05
-4.06068e-06
7.3502e-05
-3.91769e-06
7.4117e-05
-3.77519e-06
7.47054e-05
-3.63264e-06
7.52672e-05
-3.48944e-06
7.58023e-05
-3.34493e-06
7.63105e-05
-3.19841e-06
7.67914e-05
-3.0491e-06
7.72446e-05
-2.89617e-06
7.76696e-05
-2.73874e-06
7.80659e-05
-2.57582e-06
7.84329e-05
-2.40638e-06
7.87698e-05
-2.22929e-06
7.9076e-05
-2.04333e-06
7.93506e-05
-1.84718e-06
7.95931e-05
-1.63939e-06
7.98027e-05
-1.41842e-06
7.99789e-05
-1.18257e-06
8.01217e-05
-9.30008e-07
8.02312e-05
-6.58774e-07
8.03082e-05
-3.66779e-07
8.03546e-05
-5.18875e-08
8.03732e-05
2.87918e-07
8.0369e-05
6.54317e-07
8.03489e-05
1.04878e-06
8.03229e-05
1.47202e-06
8.03045e-05
1.92354e-06
8.03109e-05
2.40092e-06
8.03632e-05
2.89908e-06
8.04851e-05
3.40935e-06
8.07003e-05
3.91873e-06
8.10273e-05
4.40948e-06
4.86009e-06
8.14717e-05
1.89103e-05
-1.55265e-06
1.93695e-05
-3.03547e-06
2.0029e-05
-4.31563e-06
2.08634e-05
-5.42511e-06
2.18495e-05
-6.38375e-06
2.29661e-05
-7.20782e-06
2.41941e-05
-7.91085e-06
2.55162e-05
-8.50496e-06
2.69169e-05
-9.00101e-06
2.83824e-05
-9.40887e-06
2.98999e-05
-9.73751e-06
3.14583e-05
-9.99512e-06
3.30476e-05
-1.01892e-05
3.46587e-05
-1.03264e-05
3.62835e-05
-1.04131e-05
3.7915e-05
-1.04549e-05
3.95469e-05
-1.04568e-05
4.11733e-05
-1.04236e-05
4.27896e-05
-1.03596e-05
4.43913e-05
-1.02685e-05
4.59746e-05
-1.01539e-05
4.75363e-05
-1.0019e-05
4.90736e-05
-9.86674e-06
5.05841e-05
-9.69979e-06
5.20658e-05
-9.52055e-06
5.3517e-05
-9.33118e-06
5.49364e-05
-9.13365e-06
5.63228e-05
-8.92974e-06
5.76756e-05
-8.72102e-06
5.8994e-05
-8.50891e-06
6.02776e-05
-8.29465e-06
6.15263e-05
-8.07936e-06
6.27399e-05
-7.86398e-06
6.39185e-05
-7.64935e-06
6.50623e-05
-7.43617e-06
6.61714e-05
-7.22503e-06
6.72463e-05
-7.0164e-06
6.82873e-05
-6.81067e-06
6.92948e-05
-6.6081e-06
7.02693e-05
-6.4089e-06
7.12112e-05
-6.21316e-06
7.21211e-05
-6.0209e-06
7.29994e-05
-5.83208e-06
7.38466e-05
-5.64655e-06
7.46631e-05
-5.46414e-06
7.54493e-05
-5.28457e-06
7.62056e-05
-5.10752e-06
7.69322e-05
-4.93261e-06
7.76295e-05
-4.75938e-06
7.82976e-05
-4.58735e-06
7.89367e-05
-4.41594e-06
7.95469e-05
-4.24454e-06
8.0128e-05
-4.07249e-06
8.06802e-05
-3.89907e-06
8.12032e-05
-3.72349e-06
8.16969e-05
-3.54492e-06
8.21609e-05
-3.36248e-06
8.25951e-05
-3.17521e-06
8.29991e-05
-2.98212e-06
8.33724e-05
-2.78215e-06
8.37148e-05
-2.57416e-06
8.40259e-05
-2.35698e-06
8.43055e-05
-2.12935e-06
8.45536e-05
-1.88999e-06
8.47701e-05
-1.63754e-06
8.49555e-05
-1.3706e-06
8.51106e-05
-1.08778e-06
8.52369e-05
-7.87677e-07
8.53365e-05
-4.68983e-07
8.54126e-05
-1.30545e-07
8.54695e-05
2.2842e-07
8.55132e-05
6.08047e-07
8.55515e-05
1.00797e-06
8.55942e-05
1.42688e-06
8.5653e-05
1.86222e-06
8.57418e-05
2.30978e-06
8.58751e-05
2.76342e-06
8.60674e-05
3.21475e-06
8.63306e-05
3.6532e-06
8.66715e-05
4.06641e-06
4.44166e-06
8.70878e-05
2.023e-05
-1.79147e-06
2.07159e-05
-3.52098e-06
2.14157e-05
-5.01479e-06
2.23027e-05
-6.31131e-06
2.33525e-05
-7.43246e-06
2.45423e-05
-8.39644e-06
2.58519e-05
-9.21897e-06
2.72627e-05
-9.91412e-06
2.8758e-05
-1.04946e-05
3.0323e-05
-1.09719e-05
3.19441e-05
-1.13566e-05
3.36092e-05
-1.16581e-05
3.53076e-05
-1.18852e-05
3.70294e-05
-1.2046e-05
3.8766e-05
-1.21474e-05
4.05098e-05
-1.21963e-05
4.22539e-05
-1.21985e-05
4.39922e-05
-1.21595e-05
4.57194e-05
-1.20844e-05
4.74308e-05
-1.19775e-05
4.91224e-05
-1.18431e-05
5.07906e-05
-1.16849e-05
5.24323e-05
-1.15062e-05
5.40449e-05
-1.13103e-05
5.56264e-05
-1.10999e-05
5.71747e-05
-1.08776e-05
5.86886e-05
-1.06457e-05
6.01667e-05
-1.04062e-05
6.16083e-05
-1.0161e-05
6.30125e-05
-9.91171e-06
6.4379e-05
-9.65985e-06
6.57075e-05
-9.40667e-06
6.69978e-05
-9.15332e-06
6.825e-05
-8.90074e-06
6.94643e-05
-8.64976e-06
7.06409e-05
-8.40107e-06
7.17801e-05
-8.15522e-06
7.28823e-05
-7.91266e-06
7.39479e-05
-7.67371e-06
7.49775e-05
-7.4386e-06
7.59715e-05
-7.20745e-06
7.69304e-05
-6.98028e-06
7.78548e-05
-6.75704e-06
7.87451e-05
-6.53759e-06
7.96017e-05
-6.32171e-06
8.04252e-05
-6.10912e-06
8.12159e-05
-5.89944e-06
8.19742e-05
-5.69225e-06
8.27003e-05
-5.48705e-06
8.33946e-05
-5.28329e-06
8.40573e-05
-5.08036e-06
8.46885e-05
-4.8776e-06
8.52883e-05
-4.67427e-06
8.58567e-05
-4.46962e-06
8.63938e-05
-4.26281e-06
8.68996e-05
-4.05298e-06
8.7374e-05
-3.83921e-06
8.78168e-05
-3.62056e-06
8.82282e-05
-3.39601e-06
8.8608e-05
-3.16456e-06
8.89563e-05
-2.92513e-06
8.92733e-05
-2.67665e-06
8.95593e-05
-2.41805e-06
8.98148e-05
-2.14823e-06
9.00406e-05
-1.86615e-06
9.0238e-05
-1.57081e-06
9.04087e-05
-1.26131e-06
9.05551e-05
-9.36885e-07
9.06803e-05
-5.97011e-07
9.07884e-05
-2.4145e-07
9.08844e-05
1.29637e-07
9.09745e-05
5.15227e-07
9.10661e-05
9.13681e-07
9.11677e-05
1.32257e-06
9.12888e-05
1.73845e-06
9.14393e-05
2.15674e-06
9.16285e-05
2.57163e-06
9.18645e-05
2.97621e-06
9.21526e-05
3.36268e-06
9.24937e-05
3.72292e-06
4.04965e-06
9.28833e-05
2.16425e-05
-2.04382e-06
2.21573e-05
-4.03539e-06
2.29005e-05
-5.75737e-06
2.38441e-05
-7.25399e-06
2.49622e-05
-8.5494e-06
2.62308e-05
-9.66364e-06
2.7628e-05
-1.06146e-05
2.91341e-05
-1.14185e-05
3.07312e-05
-1.20898e-05
3.24033e-05
-1.26419e-05
3.41359e-05
-1.30869e-05
3.59158e-05
-1.34357e-05
3.77316e-05
-1.36985e-05
3.95726e-05
-1.38845e-05
4.14296e-05
-1.40019e-05
4.32943e-05
-1.40583e-05
4.51592e-05
-1.40608e-05
4.70178e-05
-1.40155e-05
4.88643e-05
-1.39282e-05
5.06936e-05
-1.38042e-05
5.25014e-05
-1.36483e-05
5.42837e-05
-1.34647e-05
5.60373e-05
-1.32574e-05
5.77593e-05
-1.303e-05
5.94474e-05
-1.27858e-05
6.10995e-05
-1.25277e-05
6.27142e-05
-1.22583e-05
6.42899e-05
-1.19801e-05
6.58259e-05
-1.16952e-05
6.73212e-05
-1.14054e-05
6.87754e-05
-1.11126e-05
7.01883e-05
-1.08182e-05
7.15595e-05
-1.05234e-05
7.28892e-05
-1.02295e-05
7.41775e-05
-9.93727e-06
7.54247e-05
-9.64759e-06
7.6631e-05
-9.3611e-06
7.77969e-05
-9.07831e-06
7.89229e-05
-8.79959e-06
8.00094e-05
-8.5252e-06
8.1057e-05
-8.2553e-06
8.20662e-05
-7.98992e-06
8.30375e-05
-7.72901e-06
8.39716e-05
-7.47242e-06
8.48688e-05
-7.21992e-06
8.57298e-05
-6.97118e-06
8.65549e-05
-6.72581e-06
8.73445e-05
-6.48335e-06
8.80992e-05
-6.24327e-06
8.88191e-05
-6.00497e-06
8.95047e-05
-5.76781e-06
9.01562e-05
-5.53107e-06
9.07738e-05
-5.29401e-06
9.13578e-05
-5.05581e-06
9.19083e-05
-4.81565e-06
9.24255e-05
-4.57265e-06
9.29096e-05
-4.3259e-06
9.33609e-05
-4.07447e-06
9.37796e-05
-3.81744e-06
9.41662e-05
-3.55386e-06
9.4521e-05
-3.28279e-06
9.48448e-05
-3.00332e-06
9.51384e-05
-2.71459e-06
9.5403e-05
-2.41579e-06
9.56401e-05
-2.10623e-06
9.58516e-05
-1.78532e-06
9.60399e-05
-1.45268e-06
9.62081e-05
-1.10814e-06
9.636e-05
-7.51858e-07
9.64998e-05
-3.8433e-07
9.66328e-05
-6.35176e-09
9.67646e-05
3.80464e-07
9.69018e-05
7.73633e-07
9.70511e-05
1.17035e-06
9.72195e-05
1.56711e-06
9.74138e-05
1.95968e-06
9.76394e-05
2.34323e-06
9.79004e-05
2.7125e-06
9.81983e-05
3.06206e-06
9.85318e-05
3.38677e-06
3.68259e-06
9.88963e-05
2.31542e-05
-2.31124e-06
2.37005e-05
-4.58131e-06
2.44909e-05
-6.54706e-06
2.54957e-05
-8.25777e-06
2.66876e-05
-9.74004e-06
2.80411e-05
-1.10157e-05
2.9533e-05
-1.21047e-05
3.1142e-05
-1.30255e-05
3.28491e-05
-1.37947e-05
3.46369e-05
-1.44274e-05
3.64898e-05
-1.49373e-05
3.83938e-05
-1.53372e-05
4.03364e-05
-1.56384e-05
4.23062e-05
-1.58515e-05
4.42931e-05
-1.59859e-05
4.62882e-05
-1.60505e-05
4.82834e-05
-1.6053e-05
5.02716e-05
-1.60008e-05
5.22466e-05
-1.59003e-05
5.42029e-05
-1.57576e-05
5.61356e-05
-1.55781e-05
5.80406e-05
-1.53669e-05
5.99142e-05
-1.51283e-05
6.17534e-05
-1.48666e-05
6.35556e-05
-1.45855e-05
6.53187e-05
-1.42883e-05
6.70408e-05
-1.39781e-05
6.87205e-05
-1.36577e-05
7.03568e-05
-1.33295e-05
7.19488e-05
-1.29956e-05
7.34959e-05
-1.26581e-05
7.49978e-05
-1.23186e-05
7.64543e-05
-1.19787e-05
7.78654e-05
-1.16395e-05
7.92313e-05
-1.13022e-05
8.05522e-05
-1.09678e-05
8.18285e-05
-1.06368e-05
8.30605e-05
-1.031e-05
8.42489e-05
-9.98777e-06
8.5394e-05
-9.67041e-06
8.64966e-05
-9.3581e-06
8.75571e-05
-9.0509e-06
8.85763e-05
-8.74876e-06
8.95546e-05
-8.45153e-06
9.04927e-05
-8.15897e-06
9.13911e-05
-7.87073e-06
9.22503e-05
-7.58641e-06
9.3071e-05
-7.30551e-06
9.38535e-05
-7.02748e-06
9.45984e-05
-6.7517e-06
9.53061e-05
-6.47748e-06
9.59771e-05
-6.20412e-06
9.66116e-05
-5.93083e-06
9.72103e-05
-5.65681e-06
9.77734e-05
-5.38125e-06
9.83014e-05
-5.10327e-06
9.87948e-05
-4.82204e-06
9.92542e-05
-4.53669e-06
9.96803e-05
-4.24637e-06
0.000100074
-3.95028e-06
0.000100436
-3.64764e-06
0.000100767
-3.33774e-06
0.000101069
-3.01997e-06
0.000101344
-2.69382e-06
0.000101594
-2.35895e-06
0.00010182
-2.01517e-06
0.000102027
-1.66256e-06
0.000102217
-1.30142e-06
0.000102394
-9.3239e-07
0.000102563
-5.56471e-07
0.000102728
-1.75019e-07
0.000102895
2.1029e-07
0.000103069
5.96832e-07
0.000103255
9.81767e-07
0.000103457
1.36188e-06
0.00010368
1.73365e-06
0.000103926
2.09333e-06
0.000104199
2.43714e-06
0.000104497
2.76142e-06
0.000104817
3.06301e-06
3.3398e-06
0.000105157
2.47721e-05
-2.59546e-06
2.53531e-05
-5.16182e-06
2.6195e-05
-7.38814e-06
2.72664e-05
-9.32805e-06
2.85384e-05
-1.10107e-05
2.99842e-05
-1.24597e-05
3.15787e-05
-1.36973e-05
3.32993e-05
-1.4744e-05
3.51255e-05
-1.56186e-05
3.70387e-05
-1.6338e-05
3.90221e-05
-1.6918e-05
4.10606e-05
-1.73728e-05
4.31406e-05
-1.77154e-05
4.52498e-05
-1.79576e-05
4.73774e-05
-1.81104e-05
4.95136e-05
-1.81834e-05
5.16497e-05
-1.81859e-05
5.3778e-05
-1.81258e-05
5.58916e-05
-1.80107e-05
5.79847e-05
-1.78474e-05
6.00519e-05
-1.76422e-05
6.20887e-05
-1.74006e-05
6.40912e-05
-1.71278e-05
6.60561e-05
-1.68285e-05
6.79804e-05
-1.6507e-05
6.98619e-05
-1.61671e-05
7.16986e-05
-1.58123e-05
7.3489e-05
-1.54457e-05
7.52319e-05
-1.50701e-05
7.69263e-05
-1.4688e-05
7.85716e-05
-1.43016e-05
8.01674e-05
-1.39128e-05
8.17136e-05
-1.35234e-05
8.32101e-05
-1.31347e-05
8.4657e-05
-1.27481e-05
8.60548e-05
-1.23646e-05
8.74036e-05
-1.1985e-05
8.87041e-05
-1.161e-05
8.99567e-05
-1.12401e-05
9.1162e-05
-1.08757e-05
9.23207e-05
-1.0517e-05
9.34335e-05
-1.0164e-05
9.45009e-05
-9.81678e-06
9.55237e-05
-9.47513e-06
9.65026e-05
-9.13882e-06
9.74381e-05
-8.8075e-06
9.83311e-05
-8.48075e-06
9.91821e-05
-8.15807e-06
9.99918e-05
-7.83888e-06
0.000100761
-7.52256e-06
0.00010149
-7.20841e-06
0.000102179
-6.89573e-06
0.000102829
-6.58374e-06
0.000103442
-6.27168e-06
0.000104017
-5.95874e-06
0.000104555
-5.64414e-06
0.000105057
-5.32709e-06
0.000105524
-5.00682e-06
0.000105957
-4.68263e-06
0.000106358
-4.35384e-06
0.000106727
-4.01988e-06
0.000107066
-3.68025e-06
0.000107377
-3.33459e-06
0.000107663
-2.98269e-06
0.000107925
-2.6245e-06
0.000108166
-2.26018e-06
0.00010839
-1.89014e-06
0.000108601
-1.51503e-06
0.0001088
-1.13582e-06
0.000108994
-7.53767e-07
0.000109186
-3.70437e-07
0.00010938
1.25945e-08
0.000109581
3.93036e-07
0.000109791
7.68061e-07
0.000110015
1.13504e-06
0.000110254
1.49121e-06
0.00011051
1.83384e-06
0.000110784
2.16026e-06
0.000111074
2.46812e-06
0.000111378
2.75549e-06
3.02142e-06
0.000111693
2.65038e-05
-2.89841e-06
2.7123e-05
-5.7805e-06
2.80214e-05
-8.28561e-06
2.91656e-05
-1.04711e-05
3.05252e-05
-1.23688e-05
3.20715e-05
-1.40041e-05
3.37778e-05
-1.54015e-05
3.562e-05
-1.65838e-05
3.75759e-05
-1.75719e-05
3.96256e-05
-1.83849e-05
4.1751e-05
-1.90403e-05
4.39357e-05
-1.95543e-05
4.6165e-05
-1.99413e-05
4.84257e-05
-2.02148e-05
5.07059e-05
-2.0387e-05
5.29951e-05
-2.0469e-05
5.52838e-05
-2.04709e-05
5.75635e-05
-2.04019e-05
5.9827e-05
-2.02706e-05
6.20677e-05
-2.00845e-05
6.42798e-05
-1.98508e-05
6.64584e-05
-1.95758e-05
6.85993e-05
-1.92653e-05
7.06988e-05
-1.89248e-05
7.27539e-05
-1.85589e-05
7.47618e-05
-1.81721e-05
7.67206e-05
-1.77683e-05
7.86286e-05
-1.7351e-05
8.04844e-05
-1.69234e-05
8.22871e-05
-1.64883e-05
8.4036e-05
-1.60483e-05
8.57306e-05
-1.56055e-05
8.73707e-05
-1.51618e-05
8.89565e-05
-1.4719e-05
9.04879e-05
-1.42783e-05
9.19653e-05
-1.3841e-05
9.33892e-05
-1.34081e-05
9.47601e-05
-1.29803e-05
9.60786e-05
-1.25582e-05
9.73453e-05
-1.21423e-05
9.8561e-05
-1.17328e-05
9.97264e-05
-1.13298e-05
0.000100842
-1.09332e-05
0.000101909
-1.05431e-05
0.000102929
-1.01591e-05
0.000103901
-9.78088e-06
0.000104827
-9.40803e-06
0.000105707
-9.04006e-06
0.000106543
-8.67638e-06
0.000107335
-8.31637e-06
0.000108083
-7.95937e-06
0.00010879
-7.60468e-06
0.000109455
-7.25156e-06
0.00011008
-6.89928e-06
0.000110666
-6.54711e-06
0.000111213
-6.19434e-06
0.000111723
-5.84026e-06
0.000112198
-5.48425e-06
0.000112637
-5.12571e-06
0.000113044
-4.76417e-06
0.00011342
-4.39921e-06
0.000113767
-4.03055e-06
0.000114087
-3.65807e-06
0.000114382
-3.28178e-06
0.000114656
-2.90188e-06
0.000114911
-2.51878e-06
0.00011515
-2.13311e-06
0.000115377
-1.74571e-06
0.000115595
-1.35767e-06
0.000115808
-9.70328e-07
0.000116019
-5.85223e-07
0.000116232
-2.04047e-07
0.00011645
1.71604e-07
0.000116675
5.39434e-07
0.000116909
8.9717e-07
0.000117154
1.24274e-06
0.00011741
1.57418e-06
0.000117677
1.88972e-06
0.000117954
2.18786e-06
0.000118238
2.46748e-06
2.7283e-06
0.000118528
2.83572e-05
-3.22228e-06
2.90188e-05
-6.44152e-06
2.99795e-05
-9.24525e-06
3.12039e-05
-1.16941e-05
3.26595e-05
-1.38228e-05
3.4316e-05
-1.56585e-05
3.61447e-05
-1.72279e-05
3.81198e-05
-1.85562e-05
4.02176e-05
-1.96666e-05
4.24164e-05
-2.05805e-05
4.46967e-05
-2.13172e-05
4.70409e-05
-2.18948e-05
4.94329e-05
-2.23296e-05
5.18585e-05
-2.26366e-05
5.43048e-05
-2.28293e-05
5.67601e-05
-2.29203e-05
5.92143e-05
-2.2921e-05
6.16582e-05
-2.28417e-05
6.40837e-05
-2.26919e-05
6.64837e-05
-2.24804e-05
6.88519e-05
-2.2215e-05
7.11831e-05
-2.1903e-05
7.34725e-05
-2.15509e-05
7.57162e-05
-2.11647e-05
7.79108e-05
-2.075e-05
8.00536e-05
-2.03114e-05
8.21422e-05
-1.98537e-05
8.41749e-05
-1.93806e-05
8.61502e-05
-1.88958e-05
8.8067e-05
-1.84025e-05
8.99247e-05
-1.79036e-05
9.17228e-05
-1.74014e-05
9.34611e-05
-1.68981e-05
9.51397e-05
-1.63957e-05
9.67586e-05
-1.58957e-05
9.83184e-05
-1.53995e-05
9.98194e-05
-1.49081e-05
0.000101262
-1.44225e-05
0.000102648
-1.39433e-05
0.000103977
-1.34709e-05
0.00010525
-1.30058e-05
0.000106468
-1.25481e-05
0.000107632
-1.20978e-05
0.000108743
-1.16549e-05
0.000109802
-1.1219e-05
0.00011081
-1.07898e-05
0.000111767
-1.0367e-05
0.000112676
-9.95014e-06
0.000113536
-9.53854e-06
0.000114349
-9.13166e-06
0.000115117
-8.72885e-06
0.000115839
-8.32946e-06
0.000116517
-7.93281e-06
0.000117154
-7.53822e-06
0.000117749
-7.14503e-06
0.000118304
-6.75263e-06
0.000118821
-6.36044e-06
0.000119301
-5.96793e-06
0.000119746
-5.57466e-06
0.000120159
-5.18031e-06
0.000120541
-4.78463e-06
0.000120894
-4.38753e-06
0.000121221
-3.98905e-06
0.000121525
-3.58938e-06
0.000121808
-3.18889e-06
0.000122073
-2.78813e-06
0.000122324
-2.38784e-06
0.000122563
-1.98893e-06
0.000122794
-1.59249e-06
0.00012302
-1.19977e-06
0.000123242
-8.12187e-07
0.000123466
-4.3121e-07
0.000123691
-5.81471e-08
0.000123921
3.05464e-07
0.000124157
6.57711e-07
0.000124399
9.97097e-07
0.000124647
1.32226e-06
0.000124901
1.63205e-06
0.000125159
1.92553e-06
0.000125421
2.20211e-06
2.46191e-06
0.000125684
3.0341e-05
-3.56959e-06
3.10498e-05
-7.14972e-06
3.20795e-05
-1.02738e-05
3.33925e-05
-1.30056e-05
3.49541e-05
-1.53825e-05
3.67319e-05
-1.74339e-05
3.86953e-05
-1.91886e-05
4.08164e-05
-2.06744e-05
4.30698e-05
-2.19167e-05
4.54321e-05
-2.29392e-05
4.78822e-05
-2.37635e-05
5.04008e-05
-2.44094e-05
5.29707e-05
-2.48953e-05
5.55762e-05
-2.52377e-05
5.82034e-05
-2.54519e-05
6.08395e-05
-2.55518e-05
6.34734e-05
-2.55502e-05
6.60951e-05
-2.54587e-05
6.86958e-05
-2.5288e-05
7.12677e-05
-2.50477e-05
7.38042e-05
-2.47469e-05
7.62992e-05
-2.43935e-05
7.87478e-05
-2.39951e-05
8.11456e-05
-2.35583e-05
8.34891e-05
-2.30893e-05
8.57752e-05
-2.25936e-05
8.80014e-05
-2.20761e-05
9.01658e-05
-2.15415e-05
9.2267e-05
-2.09936e-05
9.43038e-05
-2.04362e-05
9.62754e-05
-1.98723e-05
9.81814e-05
-1.93048e-05
0.000100022
-1.8736e-05
0.000101796
-1.81682e-05
0.000103505
-1.7603e-05
0.000105149
-1.70421e-05
0.000106729
-1.64866e-05
0.000108245
-1.59376e-05
0.000109699
-1.53958e-05
0.00011109
-1.48618e-05
0.00011242
-1.4336e-05
0.000113691
-1.38186e-05
0.000114902
-1.33098e-05
0.000116056
-1.28093e-05
0.000117153
-1.23171e-05
0.000118195
-1.18328e-05
0.000119183
-1.13561e-05
0.000120117
-1.08865e-05
0.000121
-1.04235e-05
0.000121833
-9.96648e-06
0.000122617
-9.51491e-06
0.000123353
-9.06816e-06
0.000124043
-8.62561e-06
0.000124688
-8.18667e-06