/*--------------------------------*- C++ -*----------------------------------*\
  =========                 |
  \\      /  F ield         | OpenFOAM: The Open Source CFD Toolbox
   \\    /   O peration     | Website:  https://openfoam.org
    \\  /    A nd           | Version:  7
     \\/     M anipulation  |
\*---------------------------------------------------------------------------*/
FoamFile
{
    version     2.0;
    format      ascii;
    class       volVectorField;
    location    "3.21";
    object      U;
}
// * * * * * * * * * * * * * * * * * * * * * * * * * * * * * * * * * * * * * //

dimensions      [0 1 -1 0 0 0 0];

internalField   nonuniform List<vector> 
12013
(
(0.100389 -0.000108541 0)
(0.101982 -0.000201391 0)
(0.104562 -0.000285295 0)
(0.107867 -0.00035995 0)
(0.111807 -0.000427482 0)
(0.116297 -0.000489267 0)
(0.121261 -0.000546295 0)
(0.12664 -0.00059939 0)
(0.132382 -0.000649201 0)
(0.138444 -0.00069623 0)
(0.14479 -0.000740855 0)
(0.151385 -0.000783353 0)
(0.158202 -0.000823917 0)
(0.165212 -0.000862674 0)
(0.172393 -0.0008997 0)
(0.179721 -0.000935033 0)
(0.187175 -0.000968688 0)
(0.194734 -0.00100066 0)
(0.202379 -0.00103095 0)
(0.210091 -0.00105954 0)
(0.217854 -0.00108642 0)
(0.22565 -0.00111159 0)
(0.233465 -0.00113506 0)
(0.241282 -0.00115685 0)
(0.24909 -0.00117698 0)
(0.256874 -0.00119549 0)
(0.264623 -0.00121242 0)
(0.272327 -0.00122781 0)
(0.279977 -0.00124173 0)
(0.287563 -0.00125423 0)
(0.295078 -0.00126535 0)
(0.302516 -0.00127521 0)
(0.309871 -0.00128384 0)
(0.317138 -0.00129128 0)
(0.324312 -0.00129763 0)
(0.331392 -0.00130295 0)
(0.338375 -0.00130726 0)
(0.345258 -0.00131062 0)
(0.352041 -0.00131308 0)
(0.358722 -0.00131467 0)
(0.365303 -0.0013154 0)
(0.371784 -0.00131529 0)
(0.378165 -0.00131436 0)
(0.384448 -0.00131258 0)
(0.390635 -0.00130993 0)
(0.396726 -0.00130635 0)
(0.402726 -0.00130181 0)
(0.408634 -0.00129622 0)
(0.414456 -0.00128949 0)
(0.420191 -0.00128147 0)
(0.425845 -0.00127203 0)
(0.431418 -0.00126099 0)
(0.436914 -0.00124811 0)
(0.442334 -0.00123315 0)
(0.447682 -0.0012158 0)
(0.452959 -0.00119568 0)
(0.458167 -0.00117239 0)
(0.463307 -0.00114542 0)
(0.468379 -0.00111417 0)
(0.473384 -0.00107794 0)
(0.478321 -0.00103589 0)
(0.483187 -0.000987021 0)
(0.48798 -0.000930116 0)
(0.492694 -0.000863692 0)
(0.497321 -0.000785918 0)
(0.501852 -0.0006945 0)
(0.506272 -0.000586527 0)
(0.510562 -0.000458244 0)
(0.514696 -0.000304715 0)
(0.518638 -0.000119331 0)
(0.522342 0.000107182 0)
(0.525737 0.000388824 0)
(0.528729 0.000746608 0)
(0.531173 0.00121323 0)
(0.532852 0.00184234 0)
(0.533427 0.00272681 0)
(0.532339 0.00403718 0)
(0.528609 0.00611258 0)
(0.520479 0.00975627 0)
(0.504902 0.0178042 0)
(0.488627 0.0489723 0)
(0.100363 -0.000331657 0)
(0.101952 -0.000617409 0)
(0.104524 -0.000874778 0)
(0.107824 -0.00110348 0)
(0.111759 -0.00131028 0)
(0.116242 -0.0014994 0)
(0.121202 -0.00167389 0)
(0.126575 -0.00183628 0)
(0.132312 -0.00198858 0)
(0.138369 -0.00213232 0)
(0.14471 -0.00226868 0)
(0.1513 -0.0023985 0)
(0.158111 -0.00252238 0)
(0.165116 -0.00264072 0)
(0.172291 -0.00275374 0)
(0.179614 -0.00286157 0)
(0.187062 -0.00296426 0)
(0.194615 -0.0030618 0)
(0.202254 -0.00315417 0)
(0.209961 -0.00324134 0)
(0.217717 -0.00332329 0)
(0.225507 -0.00340003 0)
(0.233314 -0.00347156 0)
(0.241125 -0.00353796 0)
(0.248925 -0.00359928 0)
(0.256701 -0.00365565 0)
(0.264442 -0.00370719 0)
(0.272138 -0.00375404 0)
(0.279779 -0.00379638 0)
(0.287355 -0.0038344 0)
(0.294861 -0.00386827 0)
(0.302288 -0.00389818 0)
(0.309631 -0.00392436 0)
(0.316886 -0.00394698 0)
(0.324049 -0.00396621 0)
(0.331115 -0.00398225 0)
(0.338083 -0.00399524 0)
(0.344952 -0.00400534 0)
(0.351719 -0.00401266 0)
(0.358384 -0.0040173 0)
(0.364947 -0.00401932 0)
(0.371409 -0.00401877 0)
(0.37777 -0.00401565 0)
(0.384031 -0.00400991 0)
(0.390195 -0.00400149 0)
(0.396262 -0.00399025 0)
(0.402235 -0.00397601 0)
(0.408117 -0.00395854 0)
(0.413909 -0.00393751 0)
(0.419613 -0.00391256 0)
(0.425234 -0.00388322 0)
(0.430772 -0.00384892 0)
(0.43623 -0.00380899 0)
(0.441611 -0.00376263 0)
(0.446917 -0.00370892 0)
(0.45215 -0.00364676 0)
(0.457311 -0.00357483 0)
(0.462401 -0.00349161 0)
(0.467421 -0.0033953 0)
(0.472372 -0.00328375 0)
(0.477251 -0.00315442 0)
(0.482058 -0.00300428 0)
(0.486789 -0.00282964 0)
(0.491439 -0.002626 0)
(0.496001 -0.00238785 0)
(0.500466 -0.00210828 0)
(0.504822 -0.00177855 0)
(0.509049 -0.00138743 0)
(0.513127 -0.000920178 0)
(0.517022 -0.000357133 0)
(0.520693 0.000328887 0)
(0.524082 0.00117738 0)
(0.527111 0.00224662 0)
(0.529671 0.00362534 0)
(0.531608 0.00545412 0)
(0.532704 0.00796521 0)
(0.532657 0.0115581 0)
(0.53104 0.0169488 0)
(0.527309 0.0254937 0)
(0.521396 0.0398124 0)
(0.520844 0.0645896 0)
(0.100339 -0.000565018 0)
(0.101913 -0.00106023 0)
(0.10447 -0.00150355 0)
(0.107756 -0.00189734 0)
(0.111679 -0.00225332 0)
(0.116151 -0.00257879 0)
(0.121098 -0.00287904 0)
(0.126461 -0.00315844 0)
(0.132187 -0.00342046 0)
(0.138233 -0.00366774 0)
(0.144563 -0.00390231 0)
(0.151142 -0.00412562 0)
(0.157942 -0.0043387 0)
(0.164937 -0.00454222 0)
(0.172101 -0.0047366 0)
(0.179412 -0.00492204 0)
(0.186848 -0.00509861 0)
(0.19439 -0.00526632 0)
(0.202017 -0.00542511 0)
(0.209711 -0.00557496 0)
(0.217455 -0.0057158 0)
(0.225232 -0.00584765 0)
(0.233026 -0.00597055 0)
(0.240822 -0.00608458 0)
(0.248607 -0.00618987 0)
(0.256368 -0.0062866 0)
(0.264093 -0.006375 0)
(0.271772 -0.00645533 0)
(0.279395 -0.00652786 0)
(0.286953 -0.00659291 0)
(0.294438 -0.0066508 0)
(0.301845 -0.00670187 0)
(0.309167 -0.00674643 0)
(0.316399 -0.00678483 0)
(0.323537 -0.00681738 0)
(0.330578 -0.00684436 0)
(0.33752 -0.00686605 0)
(0.34436 -0.00688269 0)
(0.351097 -0.00689448 0)
(0.35773 -0.00690158 0)
(0.36426 -0.0069041 0)
(0.370686 -0.0069021 0)
(0.37701 -0.00689558 0)
(0.383232 -0.00688446 0)
(0.389353 -0.00686862 0)
(0.395376 -0.00684781 0)
(0.401302 -0.00682171 0)
(0.407134 -0.0067899 0)
(0.412873 -0.00675186 0)
(0.418522 -0.00670691 0)
(0.424083 -0.00665425 0)
(0.429559 -0.00659291 0)
(0.434951 -0.00652173 0)
(0.440262 -0.00643936 0)
(0.445495 -0.00634418 0)
(0.45065 -0.00623432 0)
(0.455729 -0.00610754 0)
(0.460734 -0.00596126 0)
(0.465665 -0.00579242 0)
(0.470522 -0.00559741 0)
(0.475304 -0.00537194 0)
(0.48001 -0.00511091 0)
(0.484637 -0.00480816 0)
(0.489181 -0.00445625 0)
(0.493636 -0.00404603 0)
(0.497995 -0.0035662 0)
(0.502246 -0.00300252 0)
(0.506376 -0.00233688 0)
(0.510366 -0.00154576 0)
(0.514193 -0.000598161 0)
(0.517825 0.000547672 0)
(0.521222 0.0019501 0)
(0.524337 0.0036923 0)
(0.527111 0.00589516 0)
(0.529476 0.00873859 0)
(0.531366 0.0124963 0)
(0.53275 0.0175914 0)
(0.533703 0.0246829 0)
(0.534587 0.0348024 0)
(0.536505 0.0494638 0)
(0.54322 0.0698521 0)
(0.100315 -0.000807334 0)
(0.101871 -0.0015296 0)
(0.104403 -0.00217195 0)
(0.10767 -0.00274287 0)
(0.111573 -0.00325878 0)
(0.116027 -0.00373033 0)
(0.120957 -0.00416527 0)
(0.126302 -0.00456998 0)
(0.132012 -0.00494947 0)
(0.138042 -0.00530759 0)
(0.144354 -0.00564727 0)
(0.150918 -0.00597063 0)
(0.157701 -0.00627915 0)
(0.164679 -0.00657382 0)
(0.171827 -0.0068552 0)
(0.179122 -0.00712362 0)
(0.186541 -0.00737916 0)
(0.194066 -0.00762184 0)
(0.201675 -0.00785158 0)
(0.209351 -0.0080683 0)
(0.217076 -0.00827196 0)
(0.224834 -0.00846255 0)
(0.232608 -0.00864012 0)
(0.240383 -0.0088048 0)
(0.248147 -0.00895677 0)
(0.255885 -0.0090963 0)
(0.263587 -0.0092237 0)
(0.271241 -0.00933933 0)
(0.278839 -0.00944363 0)
(0.28637 -0.00953701 0)
(0.293827 -0.00961994 0)
(0.301204 -0.00969291 0)
(0.308495 -0.00975639 0)
(0.315695 -0.00981082 0)
(0.322798 -0.00985668 0)
(0.329803 -0.00989438 0)
(0.336707 -0.00992429 0)
(0.343507 -0.00994676 0)
(0.350202 -0.00996207 0)
(0.356791 -0.00997043 0)
(0.363274 -0.009972 0)
(0.369651 -0.00996686 0)
(0.375922 -0.00995499 0)
(0.382089 -0.00993628 0)
(0.388153 -0.0099105 0)
(0.394115 -0.00987732 0)
(0.399977 -0.00983626 0)
(0.405741 -0.00978671 0)
(0.411409 -0.00972788 0)
(0.416982 -0.0096588 0)
(0.422464 -0.00957829 0)
(0.427857 -0.00948497 0)
(0.433161 -0.00937718 0)
(0.438381 -0.00925294 0)
(0.443517 -0.00910996 0)
(0.448571 -0.00894554 0)
(0.453545 -0.00875654 0)
(0.458439 -0.00853929 0)
(0.463256 -0.00828947 0)
(0.467994 -0.008002 0)
(0.472654 -0.00767091 0)
(0.477234 -0.00728908 0)
(0.481734 -0.00684805 0)
(0.486149 -0.00633762 0)
(0.490476 -0.0057454 0)
(0.49471 -0.00505621 0)
(0.498843 -0.00425119 0)
(0.502865 -0.00330669 0)
(0.506767 -0.00219252 0)
(0.510534 -0.000869769 0)
(0.51415 0.000712088 0)
(0.517597 0.00262034 0)
(0.520862 0.00494643 0)
(0.523937 0.00781506 0)
(0.52683 0.0113971 0)
(0.529593 0.0159257 0)
(0.532351 0.0217142 0)
(0.535383 0.029164 0)
(0.539223 0.0387398 0)
(0.544807 0.0508183 0)
(0.553732 0.0650722 0)
(0.100292 -0.00105936 0)
(0.101827 -0.00202572 0)
(0.10433 -0.00288083 0)
(0.107569 -0.0036417 0)
(0.111447 -0.00432901 0)
(0.115876 -0.00495702 0)
(0.120783 -0.00553618 0)
(0.126106 -0.006075 0)
(0.131793 -0.00658019 0)
(0.137801 -0.00705689 0)
(0.144093 -0.00750899 0)
(0.150634 -0.00793933 0)
(0.157397 -0.00834988 0)
(0.164354 -0.00874193 0)
(0.17148 -0.00911626 0)
(0.178753 -0.00947327 0)
(0.186151 -0.0098131 0)
(0.193653 -0.0101357 0)
(0.20124 -0.0104411 0)
(0.208893 -0.010729 0)
(0.216595 -0.0109995 0)
(0.224327 -0.0112525 0)
(0.232076 -0.0114881 0)
(0.239825 -0.0117065 0)
(0.247561 -0.0119078 0)
(0.255271 -0.0120925 0)
(0.262943 -0.012261 0)
(0.270566 -0.0124136 0)
(0.27813 -0.0125511 0)
(0.285627 -0.0126739 0)
(0.293049 -0.0127827 0)
(0.300389 -0.0128781 0)
(0.30764 -0.0129608 0)
(0.314798 -0.0130312 0)
(0.321859 -0.0130901 0)
(0.328818 -0.0131379 0)
(0.335674 -0.0131751 0)
(0.342423 -0.0132023 0)
(0.349066 -0.0132197 0)
(0.355599 -0.0132277 0)
(0.362024 -0.0132263 0)
(0.36834 -0.0132158 0)
(0.374547 -0.013196 0)
(0.380647 -0.0131668 0)
(0.38664 -0.0131279 0)
(0.392527 -0.0130789 0)
(0.398311 -0.013019 0)
(0.403993 -0.0129475 0)
(0.409574 -0.0128632 0)
(0.415057 -0.012765 0)
(0.420444 -0.0126512 0)
(0.425737 -0.0125201 0)
(0.430939 -0.0123694 0)
(0.436049 -0.0121965 0)
(0.441072 -0.0119985 0)
(0.446009 -0.0117718 0)
(0.45086 -0.0115124 0)
(0.455628 -0.0112157 0)
(0.460314 -0.0108759 0)
(0.464918 -0.0104867 0)
(0.469441 -0.0100406 0)
(0.473882 -0.00952862 0)
(0.478242 -0.0089403 0)
(0.482518 -0.00826311 0)
(0.48671 -0.00748205 0)
(0.490815 -0.00657902 0)
(0.49483 -0.0055319 0)
(0.498752 -0.00431353 0)
(0.502577 -0.00289013 0)
(0.506305 -0.00121946 0)
(0.509934 0.000750933 0)
(0.513468 0.00308672 0)
(0.516923 0.00587211 0)
(0.520328 0.00921335 0)
(0.523745 0.0132421 0)
(0.527276 0.0181159 0)
(0.531098 0.0240114 0)
(0.535489 0.0310995 0)
(0.540866 0.0394858 0)
(0.547788 0.049085 0)
(0.556907 0.0593779 0)
(0.10027 -0.00132185 0)
(0.101784 -0.00254902 0)
(0.104253 -0.00363127 0)
(0.10746 -0.00459557 0)
(0.111307 -0.00546651 0)
(0.115707 -0.00626209 0)
(0.120585 -0.00699567 0)
(0.12588 -0.00767805 0)
(0.13154 -0.00831775 0)
(0.137522 -0.0089213 0)
(0.143787 -0.00949364 0)
(0.150303 -0.0100384 0)
(0.15704 -0.010558 0)
(0.163971 -0.0110541 0)
(0.171072 -0.0115277 0)
(0.17832 -0.0119792 0)
(0.185692 -0.0124089 0)
(0.193168 -0.0128168 0)
(0.200728 -0.0132027 0)
(0.208354 -0.0135664 0)
(0.216027 -0.0139079 0)
(0.223731 -0.0142271 0)
(0.231449 -0.0145242 0)
(0.239167 -0.0147993 0)
(0.24687 -0.0150528 0)
(0.254546 -0.015285 0)
(0.262183 -0.0154965 0)
(0.269769 -0.0156879 0)
(0.277295 -0.0158598 0)
(0.284751 -0.016013 0)
(0.29213 -0.0161483 0)
(0.299425 -0.0162665 0)
(0.30663 -0.0163682 0)
(0.313739 -0.0164543 0)
(0.320748 -0.0165255 0)
(0.327654 -0.0165825 0)
(0.334453 -0.0166259 0)
(0.341144 -0.0166561 0)
(0.347724 -0.0166737 0)
(0.354193 -0.016679 0)
(0.360549 -0.0166723 0)
(0.366794 -0.0166535 0)
(0.372926 -0.0166226 0)
(0.378948 -0.0165794 0)
(0.384858 -0.0165236 0)
(0.39066 -0.0164544 0)
(0.396354 -0.016371 0)
(0.401941 -0.0162725 0)
(0.407424 -0.0161575 0)
(0.412805 -0.0160243 0)
(0.418085 -0.0158711 0)
(0.423266 -0.0156954 0)
(0.428351 -0.0154947 0)
(0.433341 -0.0152657 0)
(0.438239 -0.0150047 0)
(0.443046 -0.0147076 0)
(0.447763 -0.0143693 0)
(0.452394 -0.0139841 0)
(0.456939 -0.0135455 0)
(0.4614 -0.0130458 0)
(0.465778 -0.0124761 0)
(0.470074 -0.011826 0)
(0.474289 -0.0110836 0)
(0.478424 -0.0102346 0)
(0.482481 -0.00926225 0)
(0.486461 -0.00814682 0)
(0.490366 -0.0068647 0)
(0.494198 -0.00538765 0)
(0.497964 -0.00368174 0)
(0.50167 -0.00170614 0)
(0.505333 0.000587504 0)
(0.50897 0.00325489 0)
(0.512616 0.00636254 0)
(0.516324 0.00998704 0)
(0.520173 0.0142122 0)
(0.524277 0.0191218 0)
(0.528794 0.024786 0)
(0.533935 0.0312354 0)
(0.539963 0.03842 0)
(0.547161 0.0461501 0)
(0.555755 0.0540261 0)
(0.100248 -0.00159562 0)
(0.101741 -0.00310026 0)
(0.104176 -0.00442468 0)
(0.107348 -0.00560648 0)
(0.11116 -0.00667404 0)
(0.115526 -0.00764905 0)
(0.120371 -0.00854795 0)
(0.125634 -0.00938401 0)
(0.131262 -0.0101677 0)
(0.137213 -0.010907 0)
(0.143449 -0.011608 0)
(0.149935 -0.012275 0)
(0.156643 -0.0129112 0)
(0.163546 -0.0135185 0)
(0.170618 -0.0140981 0)
(0.177837 -0.0146506 0)
(0.18518 -0.0151762 0)
(0.192627 -0.0156748 0)
(0.200157 -0.0161464 0)
(0.207752 -0.0165907 0)
(0.215393 -0.0170076 0)
(0.223065 -0.017397 0)
(0.230749 -0.0177591 0)
(0.238432 -0.0180941 0)
(0.246099 -0.0184024 0)
(0.253736 -0.0186844 0)
(0.261333 -0.0189409 0)
(0.268877 -0.0191725 0)
(0.276358 -0.0193801 0)
(0.283769 -0.0195645 0)
(0.291099 -0.0197266 0)
(0.298344 -0.0198675 0)
(0.305495 -0.0199881 0)
(0.312549 -0.0200891 0)
(0.3195 -0.0201716 0)
(0.326344 -0.0202364 0)
(0.33308 -0.0202841 0)
(0.339703 -0.0203154 0)
(0.346213 -0.0203308 0)
(0.352608 -0.0203307 0)
(0.358888 -0.0203153 0)
(0.365052 -0.0202848 0)
(0.371101 -0.020239 0)
(0.377034 -0.0201776 0)
(0.382853 -0.0201001 0)
(0.388559 -0.0200059 0)
(0.394153 -0.0198937 0)
(0.399636 -0.0197625 0)
(0.405011 -0.0196105 0)
(0.410278 -0.0194358 0)
(0.415441 -0.0192361 0)
(0.420501 -0.0190086 0)
(0.42546 -0.0187502 0)
(0.43032 -0.018457 0)
(0.435083 -0.0181248 0)
(0.439751 -0.0177487 0)
(0.444328 -0.0173228 0)
(0.448814 -0.0168407 0)
(0.453212 -0.0162948 0)
(0.457524 -0.0156766 0)
(0.461754 -0.0149762 0)
(0.465903 -0.0141822 0)
(0.469974 -0.0132817 0)
(0.473971 -0.0122595 0)
(0.477897 -0.0110984 0)
(0.481759 -0.00977831 0)
(0.485563 -0.00827593 0)
(0.489316 -0.00656446 0)
(0.493033 -0.00461294 0)
(0.496728 -0.00238589 0)
(0.500427 0.00015695 0)
(0.504157 0.00305686 0)
(0.507962 0.00635833 0)
(0.5119 0.0101072 0)
(0.516048 0.0143451 0)
(0.520503 0.019101 0)
(0.525385 0.0243794 0)
(0.530829 0.0301441 0)
(0.536977 0.0362979 0)
(0.543949 0.0426628 0)
(0.551789 0.0489719 0)
(0.100225 -0.00188167 0)
(0.101702 -0.00368058 0)
(0.1041 -0.00526284 0)
(0.107236 -0.00667682 0)
(0.11101 -0.0079547 0)
(0.115339 -0.00912173 0)
(0.120148 -0.0101976 0)
(0.125375 -0.0111982 0)
(0.13097 -0.012136 0)
(0.136887 -0.0130206 0)
(0.14309 -0.0138592 0)
(0.149544 -0.0146571 0)
(0.156221 -0.015418 0)
(0.163092 -0.0161441 0)
(0.170134 -0.0168369 0)
(0.177321 -0.0174971 0)
(0.184633 -0.0181249 0)
(0.192048 -0.0187203 0)
(0.199546 -0.0192831 0)
(0.207108 -0.0198129 0)
(0.214716 -0.0203097 0)
(0.222351 -0.0207735 0)
(0.229999 -0.0212042 0)
(0.237643 -0.0216023 0)
(0.24527 -0.0219681 0)
(0.252866 -0.0223022 0)
(0.260418 -0.0226054 0)
(0.267916 -0.0228786 0)
(0.275349 -0.0231227 0)
(0.282708 -0.0233388 0)
(0.289985 -0.023528 0)
(0.297173 -0.0236913 0)
(0.304266 -0.0238299 0)
(0.311258 -0.0239448 0)
(0.318144 -0.0240372 0)
(0.32492 -0.0241078 0)
(0.331585 -0.0241576 0)
(0.338134 -0.0241873 0)
(0.344566 -0.0241974 0)
(0.35088 -0.0241885 0)
(0.357075 -0.0241609 0)
(0.36315 -0.0241144 0)
(0.369106 -0.0240492 0)
(0.374943 -0.0239646 0)
(0.380662 -0.0238603 0)
(0.386263 -0.0237352 0)
(0.391748 -0.0235882 0)
(0.397119 -0.0234177 0)
(0.402376 -0.0232219 0)
(0.407522 -0.0229985 0)
(0.412559 -0.0227447 0)
(0.417489 -0.0224575 0)
(0.422314 -0.0221332 0)
(0.427037 -0.0217675 0)
(0.431659 -0.0213556 0)
(0.436183 -0.0208918 0)
(0.440612 -0.02037 0)
(0.44495 -0.0197828 0)
(0.449198 -0.0191222 0)
(0.45336 -0.018379 0)
(0.457441 -0.0175427 0)
(0.461443 -0.0166016 0)
(0.465373 -0.0155422 0)
(0.469235 -0.0143497 0)
(0.473037 -0.0130072 0)
(0.476787 -0.0114957 0)
(0.480496 -0.0097941 0)
(0.484177 -0.00787888 0)
(0.487847 -0.00572435 0)
(0.491527 -0.00330276 0)
(0.495245 -0.00058476 0)
(0.499038 0.00245716 0)
(0.502944 0.0058462 0)
(0.507017 0.00960255 0)
(0.511321 0.0137371 0)
(0.515928 0.0182452 0)
(0.520915 0.0230991 0)
(0.526358 0.0282401 0)
(0.532324 0.0335718 0)
(0.538847 0.0389571 0)
(0.545901 0.0442285 0)
(0.100202 -0.00218118 0)
(0.101664 -0.0042915 0)
(0.104029 -0.00614799 0)
(0.107126 -0.00780946 0)
(0.110862 -0.00931205 0)
(0.115152 -0.0106845 0)
(0.119923 -0.0119498 0)
(0.125113 -0.0131265 0)
(0.130671 -0.0142293 0)
(0.136553 -0.0152694 0)
(0.142722 -0.0162554 0)
(0.149143 -0.0171933 0)
(0.155786 -0.0180875 0)
(0.162625 -0.0189407 0)
(0.169634 -0.0197544 0)
(0.17679 -0.0205296 0)
(0.184069 -0.0212664 0)
(0.191451 -0.0219647 0)
(0.198915 -0.0226244 0)
(0.206442 -0.023245 0)
(0.214014 -0.0238265 0)
(0.221612 -0.0243687 0)
(0.229221 -0.0248718 0)
(0.236824 -0.0253361 0)
(0.244408 -0.025762 0)
(0.251958 -0.0261504 0)
(0.259463 -0.026502 0)
(0.26691 -0.0268179 0)
(0.274291 -0.0270993 0)
(0.281594 -0.0273473 0)
(0.288813 -0.0275631 0)
(0.29594 -0.0277482 0)
(0.302968 -0.0279037 0)
(0.309892 -0.0280309 0)
(0.316707 -0.028131 0)
(0.323409 -0.0282051 0)
(0.329995 -0.0282542 0)
(0.336463 -0.028279 0)
(0.34281 -0.0282803 0)
(0.349035 -0.0282586 0)
(0.355138 -0.0282141 0)
(0.361117 -0.0281469 0)
(0.366972 -0.0280569 0)
(0.372705 -0.0279436 0)
(0.378315 -0.0278063 0)
(0.383804 -0.027644 0)
(0.389172 -0.0274553 0)
(0.394422 -0.0272384 0)
(0.399555 -0.0269912 0)
(0.404572 -0.0267112 0)
(0.409476 -0.0263953 0)
(0.41427 -0.02604 0)
(0.418954 -0.0256413 0)
(0.423533 -0.0251945 0)
(0.428009 -0.0246943 0)
(0.432385 -0.0241347 0)
(0.436664 -0.023509 0)
(0.44085 -0.0228097 0)
(0.444946 -0.0220282 0)
(0.448958 -0.021155 0)
(0.452891 -0.0201798 0)
(0.456749 -0.0190908 0)
(0.46054 -0.0178753 0)
(0.464271 -0.016519 0)
(0.467953 -0.0150067 0)
(0.471595 -0.0133215 0)
(0.475211 -0.0114458 0)
(0.478818 -0.00936068 0)
(0.482435 -0.00704688 0)
(0.486085 -0.00448518 0)
(0.489796 -0.00165734 0)
(0.493604 0.00145265 0)
(0.497541 0.00485132 0)
(0.50165 0.00854018 0)
(0.505978 0.0125113 0)
(0.510573 0.0167431 0)
(0.515478 0.0211969 0)
(0.520732 0.0258141 0)
(0.526355 0.0305154 0)
(0.532343 0.035204 0)
(0.538652 0.0397772 0)
(0.100178 -0.00249552 0)
(0.101629 -0.00493495 0)
(0.103963 -0.00708286 0)
(0.107022 -0.00900783 0)
(0.110719 -0.0107503 0)
(0.11497 -0.0123423 0)
(0.119702 -0.0138102 0)
(0.124854 -0.0151754 0)
(0.130375 -0.0164549 0)
(0.136222 -0.0176616 0)
(0.142355 -0.0188053 0)
(0.148742 -0.0198931 0)
(0.155352 -0.0209299 0)
(0.162158 -0.0219189 0)
(0.169134 -0.0228618 0)
(0.176257 -0.0237597 0)
(0.183503 -0.0246126 0)
(0.190852 -0.0254205 0)
(0.198281 -0.0261831 0)
(0.205773 -0.0269 0)
(0.213307 -0.0275709 0)
(0.220866 -0.0281959 0)
(0.228434 -0.028775 0)
(0.235994 -0.0293085 0)
(0.243532 -0.0297972 0)
(0.251034 -0.0302417 0)
(0.258487 -0.0306432 0)
(0.265881 -0.0310027 0)
(0.273204 -0.0313216 0)
(0.280448 -0.0316012 0)
(0.287603 -0.0318431 0)
(0.294663 -0.0320487 0)
(0.301621 -0.0322195 0)
(0.308471 -0.0323569 0)
(0.315209 -0.0324622 0)
(0.32183 -0.0325367 0)
(0.328332 -0.0325816 0)
(0.334711 -0.0325976 0)
(0.340966 -0.0325857 0)
(0.347095 -0.0325463 0)
(0.353098 -0.0324798 0)
(0.358972 -0.0323863 0)
(0.36472 -0.0322656 0)
(0.370341 -0.0321171 0)
(0.375835 -0.03194 0)
(0.381203 -0.0317333 0)
(0.386447 -0.0314953 0)
(0.391569 -0.0312241 0)
(0.39657 -0.0309174 0)
(0.401452 -0.0305724 0)
(0.406217 -0.0301858 0)
(0.410868 -0.0297537 0)
(0.415407 -0.029272 0)
(0.419838 -0.0287355 0)
(0.424164 -0.0281388 0)
(0.428388 -0.0274756 0)
(0.432514 -0.026739 0)
(0.436547 -0.0259213 0)
(0.440492 -0.0250141 0)
(0.444354 -0.024008 0)
(0.448139 -0.022893 0)
(0.451855 -0.0216582 0)
(0.45551 -0.0202918 0)
(0.459113 -0.0187813 0)
(0.462675 -0.0171136 0)
(0.466209 -0.015275 0)
(0.46973 -0.0132518 0)
(0.473254 -0.0110304 0)
(0.476803 -0.00859794 0)
(0.480397 -0.00594333 0)
(0.484063 -0.00305778 0)
(0.487831 6.54008e-05 0)
(0.491728 0.00342373 0)
(0.495783 0.00700563 0)
(0.500028 0.0107936 0)
(0.504489 0.0147605 0)
(0.509191 0.0188678 0)
(0.514143 0.0230657 0)
(0.519347 0.0272944 0)
(0.524784 0.031488 0)
(0.530406 0.0355843 0)
(0.100152 -0.0028262 0)
(0.101596 -0.00561321 0)
(0.103902 -0.00807065 0)
(0.106926 -0.010276 0)
(0.110584 -0.0122742 0)
(0.114797 -0.0141007 0)
(0.119491 -0.0157854 0)
(0.124605 -0.0173524 0)
(0.13009 -0.018821 0)
(0.1359 -0.020206 0)
(0.141999 -0.0215186 0)
(0.148352 -0.0227669 0)
(0.154929 -0.0239563 0)
(0.161703 -0.0250905 0)
(0.168647 -0.0261714 0)
(0.175737 -0.0272 0)
(0.18295 -0.0281766 0)
(0.190265 -0.029101 0)
(0.197659 -0.0299728 0)
(0.205114 -0.0307915 0)
(0.21261 -0.0315569 0)
(0.220128 -0.0322689 0)
(0.227653 -0.0329276 0)
(0.235167 -0.0335334 0)
(0.242657 -0.034087 0)
(0.250107 -0.0345895 0)
(0.257506 -0.0350418 0)
(0.264842 -0.0354453 0)
(0.272104 -0.0358017 0)
(0.279282 -0.0361124 0)
(0.286369 -0.0363791 0)
(0.293356 -0.0366035 0)
(0.300238 -0.0367872 0)
(0.307008 -0.036932 0)
(0.313662 -0.0370393 0)
(0.320196 -0.0371105 0)
(0.326606 -0.0371469 0)
(0.332889 -0.0371495 0)
(0.339045 -0.0371192 0)
(0.34507 -0.0370566 0)
(0.350965 -0.0369622 0)
(0.356728 -0.0368359 0)
(0.36236 -0.0366776 0)
(0.367861 -0.0364867 0)
(0.373231 -0.0362623 0)
(0.378472 -0.0360032 0)
(0.383585 -0.0357078 0)
(0.388572 -0.0353739 0)
(0.393434 -0.034999 0)
(0.398174 -0.0345801 0)
(0.402795 -0.0341139 0)
(0.407298 -0.0335963 0)
(0.411688 -0.0330228 0)
(0.415967 -0.0323883 0)
(0.42014 -0.0316872 0)
(0.42421 -0.0309132 0)
(0.428182 -0.0300595 0)
(0.432062 -0.0291185 0)
(0.435855 -0.0280822 0)
(0.439568 -0.0269419 0)
(0.443207 -0.0256884 0)
(0.446782 -0.0243118 0)
(0.450301 -0.0228021 0)
(0.453775 -0.0211489 0)
(0.457217 -0.0193417 0)
(0.460638 -0.0173703 0)
(0.464054 -0.015225 0)
(0.467483 -0.0128973 0)
(0.470941 -0.0103803 0)
(0.47445 -0.0076693 0)
(0.478031 -0.00476281 0)
(0.481704 -0.00166224 0)
(0.485499 0.00162838 0)
(0.489425 0.00509012 0)
(0.493504 0.0087015 0)
(0.497749 0.0124355 0)
(0.502169 0.0162588 0)
(0.506763 0.0201322 0)
(0.51152 0.0240126 0)
(0.516419 0.0278557 0)
(0.521418 0.0316241 0)
(0.100125 -0.00317486 0)
(0.101565 -0.00632896 0)
(0.103847 -0.00911507 0)
(0.106837 -0.0116185 0)
(0.11046 -0.0138894 0)
(0.114636 -0.0159664 0)
(0.119293 -0.0178827 0)
(0.124371 -0.0196655 0)
(0.12982 -0.0213366 0)
(0.135597 -0.0229127 0)
(0.141662 -0.0244062 0)
(0.147982 -0.0258262 0)
(0.154527 -0.0271789 0)
(0.161269 -0.0284682 0)
(0.168182 -0.0296964 0)
(0.17524 -0.0308645 0)
(0.182421 -0.0319727 0)
(0.189701 -0.0330207 0)
(0.19706 -0.0340081 0)
(0.204478 -0.0349343 0)
(0.211934 -0.0357991 0)
(0.21941 -0.0366023 0)
(0.22689 -0.037344 0)
(0.234356 -0.0380248 0)
(0.241793 -0.0386455 0)
(0.249189 -0.0392071 0)
(0.256529 -0.0397109 0)
(0.263801 -0.0401586 0)
(0.270997 -0.0405517 0)
(0.278105 -0.0408922 0)
(0.285117 -0.0411818 0)
(0.292025 -0.0414226 0)
(0.298824 -0.0416164 0)
(0.305508 -0.0417651 0)
(0.312071 -0.0418703 0)
(0.318509 -0.0419336 0)
(0.32482 -0.0419565 0)
(0.331 -0.0419402 0)
(0.337048 -0.0418856 0)
(0.342962 -0.0417935 0)
(0.348741 -0.0416642 0)
(0.354385 -0.0414979 0)
(0.359893 -0.0412944 0)
(0.365267 -0.0410531 0)
(0.370506 -0.0407732 0)
(0.375612 -0.0404532 0)
(0.380588 -0.0400914 0)
(0.385433 -0.0396857 0)
(0.390151 -0.0392335 0)
(0.394744 -0.0387317 0)
(0.399215 -0.0381768 0)
(0.403566 -0.0375647 0)
(0.407802 -0.036891 0)
(0.411927 -0.0361504 0)
(0.415944 -0.0353376 0)
(0.419859 -0.0344465 0)
(0.423676 -0.0334704 0)
(0.427402 -0.0324025 0)
(0.431043 -0.0312353 0)
(0.434607 -0.029961 0)
(0.438101 -0.0285715 0)
(0.441534 -0.0270588 0)
(0.444917 -0.0254144 0)
(0.44826 -0.0236305 0)
(0.451575 -0.0216994 0)
(0.454875 -0.0196142 0)
(0.458175 -0.017369 0)
(0.461489 -0.0149597 0)
(0.464834 -0.0123839 0)
(0.468227 -0.00964184 0)
(0.471683 -0.00673673 0)
(0.475218 -0.00367503 0)
(0.478849 -0.000464627 0)
(0.482592 0.00288113 0)
(0.486448 0.00633718 0)
(0.490424 0.00987896 0)
(0.494521 0.0134794 0)
(0.498731 0.0171091 0)
(0.503042 0.0207374 0)
(0.507432 0.0243348 0)
(0.511868 0.0278789 0)
(0.100095 -0.00354328 0)
(0.101536 -0.0070853 0)
(0.103798 -0.0102204 0)
(0.106758 -0.0130408 0)
(0.110347 -0.0156021 0)
(0.114489 -0.0179465 0)
(0.119112 -0.0201104 0)
(0.124156 -0.0221242 0)
(0.129572 -0.0240121 0)
(0.135316 -0.0257926 0)
(0.141349 -0.0274798 0)
(0.147639 -0.0290836 0)
(0.154154 -0.0306109 0)
(0.160866 -0.032066 0)
(0.167748 -0.0334512 0)
(0.174775 -0.0347678 0)
(0.181923 -0.0360158 0)
(0.18917 -0.0371948 0)
(0.196493 -0.0383043 0)
(0.203872 -0.0393438 0)
(0.211287 -0.0403128 0)
(0.218718 -0.0412111 0)
(0.22615 -0.0420391 0)
(0.233564 -0.0427973 0)
(0.240946 -0.0434866 0)
(0.248282 -0.0441082 0)
(0.255557 -0.0446637 0)
(0.262762 -0.0451548 0)
(0.269885 -0.0455834 0)
(0.276915 -0.0459517 0)
(0.283846 -0.0462617 0)
(0.290669 -0.0465157 0)
(0.297378 -0.0467157 0)
(0.303966 -0.0468639 0)
(0.31043 -0.0469622 0)
(0.316766 -0.0470123 0)
(0.322969 -0.0470159 0)
(0.329037 -0.0469742 0)
(0.334969 -0.0468885 0)
(0.340764 -0.0467595 0)
(0.346419 -0.0465877 0)
(0.351935 -0.0463734 0)
(0.357312 -0.0461163 0)
(0.362551 -0.0458159 0)
(0.367652 -0.0454713 0)
(0.372617 -0.0450812 0)
(0.377447 -0.0446437 0)
(0.382145 -0.0441568 0)
(0.386713 -0.0436179 0)
(0.391154 -0.0430238 0)
(0.395471 -0.0423711 0)
(0.399667 -0.0416558 0)
(0.403746 -0.0408735 0)
(0.407714 -0.0400193 0)
(0.411573 -0.0390881 0)
(0.415331 -0.0380742 0)
(0.418993 -0.0369716 0)
(0.422565 -0.0357741 0)
(0.426054 -0.0344752 0)
(0.429468 -0.0330682 0)
(0.432815 -0.0315465 0)
(0.436106 -0.0299037 0)
(0.439349 -0.0281335 0)
(0.442556 -0.0262303 0)
(0.445737 -0.0241892 0)
(0.448906 -0.0220061 0)
(0.452075 -0.0196786 0)
(0.455256 -0.0172057 0)
(0.458464 -0.0145884 0)
(0.461711 -0.01183 0)
(0.465009 -0.00893661 0)
(0.468369 -0.00591676 0)
(0.4718 -0.002781 0)
(0.475316 0.000461 0)
(0.478913 0.00378934 0)
(0.48259 0.0071807 0)
(0.486344 0.0106134 0)
(0.490168 0.0140657 0)
(0.494047 0.0175159 0)
(0.497964 0.0209444 0)
(0.501892 0.0243381 0)
(0.100064 -0.00393339 0)
(0.101508 -0.00788573 0)
(0.103755 -0.0113913 0)
(0.106688 -0.014549 0)
(0.110247 -0.0174197 0)
(0.114358 -0.0200493 0)
(0.11895 -0.0224778 0)
(0.123963 -0.0247387 0)
(0.129348 -0.0268586 0)
(0.135062 -0.028858 0)
(0.141067 -0.0307525 0)
(0.147328 -0.0325529 0)
(0.153815 -0.0342668 0)
(0.160498 -0.0358988 0)
(0.167351 -0.0374514 0)
(0.174347 -0.0389258 0)
(0.181464 -0.0403219 0)
(0.188676 -0.0416394 0)
(0.195962 -0.0428776 0)
(0.2033 -0.0440358 0)
(0.210671 -0.0451136 0)
(0.218055 -0.0461108 0)
(0.225434 -0.0470278 0)
(0.232792 -0.0478653 0)
(0.240114 -0.0486242 0)
(0.247384 -0.049306 0)
(0.254589 -0.0499124 0)
(0.261719 -0.0504456 0)
(0.268762 -0.0509077 0)
(0.275708 -0.051301 0)
(0.282549 -0.0516279 0)
(0.289278 -0.051891 0)
(0.295888 -0.0520927 0)
(0.302374 -0.0522351 0)
(0.30873 -0.0523207 0)
(0.314953 -0.0523512 0)
(0.32104 -0.0523286 0)
(0.326988 -0.0522544 0)
(0.332796 -0.0521298 0)
(0.338461 -0.0519558 0)
(0.343984 -0.051733 0)
(0.349365 -0.0514618 0)
(0.354603 -0.0511419 0)
(0.359699 -0.050773 0)
(0.364654 -0.0503542 0)
(0.369471 -0.0498842 0)
(0.374151 -0.0493613 0)
(0.378695 -0.0487834 0)
(0.383108 -0.048148 0)
(0.387392 -0.0474522 0)
(0.391551 -0.0466926 0)
(0.395588 -0.0458655 0)
(0.399509 -0.0449668 0)
(0.403317 -0.043992 0)
(0.407018 -0.0429364 0)
(0.410617 -0.0417949 0)
(0.414122 -0.0405624 0)
(0.417539 -0.0392334 0)
(0.420875 -0.0378027 0)
(0.424139 -0.0362649 0)
(0.427338 -0.0346149 0)
(0.430483 -0.032848 0)
(0.433582 -0.0309599 0)
(0.436646 -0.0289472 0)
(0.439685 -0.0268071 0)
(0.442711 -0.0245383 0)
(0.445733 -0.0221405 0)
(0.448764 -0.0196152 0)
(0.451813 -0.0169656 0)
(0.45489 -0.0141968 0)
(0.458004 -0.0113159 0)
(0.461161 -0.00833214 0)
(0.464368 -0.00525644 0)
(0.467625 -0.00209975 0)
(0.470945 0.00112976 0)
(0.474312 0.00441032 0)
(0.477722 0.00772331 0)
(0.481168 0.0110522 0)
(0.484639 0.0143819 0)
(0.48812 0.0176989 0)
(0.49159 0.0209963 0)
(0.100029 -0.00434731 0)
(0.101481 -0.00873421 0)
(0.103719 -0.0126335 0)
(0.106628 -0.0161498 0)
(0.110161 -0.0193501 0)
(0.114245 -0.0222842 0)
(0.118809 -0.0249954 0)
(0.123795 -0.0275204 0)
(0.129153 -0.0298885 0)
(0.13484 -0.0321223 0)
(0.140818 -0.0342385 0)
(0.147053 -0.0362491 0)
(0.153514 -0.0381621 0)
(0.16017 -0.0399826 0)
(0.166994 -0.0417132 0)
(0.17396 -0.0433549 0)
(0.181043 -0.0449078 0)
(0.188219 -0.0463711 0)
(0.195466 -0.0477443 0)
(0.202761 -0.0490265 0)
(0.210085 -0.0502173 0)
(0.217417 -0.0513166 0)
(0.224739 -0.0523247 0)
(0.232035 -0.0532426 0)
(0.239289 -0.0540714 0)
(0.246487 -0.0548128 0)
(0.253615 -0.0554688 0)
(0.260662 -0.0560418 0)
(0.267616 -0.0565343 0)
(0.274469 -0.0569489 0)
(0.281212 -0.0572884 0)
(0.287838 -0.0575556 0)
(0.29434 -0.0577531 0)
(0.300712 -0.0578837 0)
(0.306951 -0.0579497 0)
(0.313053 -0.0579534 0)
(0.319014 -0.0578968 0)
(0.324832 -0.0577818 0)
(0.330506 -0.0576097 0)
(0.336034 -0.0573817 0)
(0.341416 -0.0570986 0)
(0.346652 -0.0567608 0)
(0.351743 -0.0563683 0)
(0.356689 -0.0559209 0)
(0.361492 -0.0554177 0)
(0.366154 -0.0548576 0)
(0.370677 -0.0542391 0)
(0.375063 -0.0535603 0)
(0.379316 -0.0528187 0)
(0.38344 -0.0520118 0)
(0.387437 -0.0511365 0)
(0.391313 -0.0501894 0)
(0.395071 -0.0491668 0)
(0.398718 -0.0480649 0)
(0.402259 -0.0468794 0)
(0.4057 -0.0456062 0)
(0.409047 -0.0442409 0)
(0.412308 -0.0427792 0)
(0.41549 -0.041217 0)
(0.418601 -0.0395502 0)
(0.42165 -0.0377754 0)
(0.424644 -0.0358894 0)
(0.427594 -0.0338896 0)
(0.430508 -0.0317745 0)
(0.433396 -0.0295433 0)
(0.436267 -0.0271963 0)
(0.439131 -0.0247351 0)
(0.441995 -0.0221625 0)
(0.444868 -0.019483 0)
(0.447757 -0.0167024 0)
(0.450667 -0.0138279 0)
(0.453604 -0.0108684 0)
(0.45657 -0.00783367 0)
(0.459565 -0.00473451 0)
(0.462588 -0.00158022 0)
(0.465647 0.0016235 0)
(0.468721 0.00485682 0)
(0.471808 0.00810605 0)
(0.474898 0.0113598 0)
(0.47798 0.014609 0)
(0.481037 0.0178503 0)
(0.099992 -0.00478738 0)
(0.101456 -0.0096352 0)
(0.103688 -0.0139528 0)