/*--------------------------------*- C++ -*----------------------------------*\
  =========                 |
  \\      /  F ield         | OpenFOAM: The Open Source CFD Toolbox
   \\    /   O peration     | Website:  https://openfoam.org
    \\  /    A nd           | Version:  7
     \\/     M anipulation  |
\*---------------------------------------------------------------------------*/
FoamFile
{
    version     2.0;
    format      ascii;
    class       volScalarField;
    location    "2.26";
    object      T;
}
// * * * * * * * * * * * * * * * * * * * * * * * * * * * * * * * * * * * * * //

dimensions      [0 0 0 1 0 0 0];

internalField   nonuniform List<scalar> 
12013
(
300.026
300.079
300.135
300.192
300.252
300.315
300.38
300.448
300.519
300.592
300.669
300.749
300.833
300.92
301.011
301.106
301.205
301.309
301.417
301.53
301.648
301.771
301.9
302.035
302.177
302.325
302.48
302.642
302.812
302.991
303.179
303.376
303.583
303.802
304.032
304.274
304.53
304.8
305.085
305.387
305.706
306.045
306.404
306.786
307.191
307.622
308.08
308.568
309.089
309.644
310.237
310.87
311.547
312.27
313.045
313.874
314.763
315.715
316.736
317.833
319.01
320.274
321.634
323.096
324.67
326.366
328.194
330.167
332.298
334.605
337.105
339.819
342.774
346.001
349.538
353.436
357.761
362.607
368.117
374.531
382.306
300.026
300.079
300.135
300.192
300.252
300.315
300.38
300.448
300.519
300.592
300.669
300.749
300.833
300.92
301.011
301.106
301.205
301.309
301.417
301.53
301.648
301.771
301.9
302.036
302.177
302.325
302.48
302.642
302.813
302.991
303.179
303.376
303.584
303.802
304.032
304.274
304.53
304.8
305.085
305.387
305.707
306.045
306.405
306.786
307.191
307.622
308.08
308.568
309.089
309.644
310.236
310.869
311.545
312.268
313.042
313.871
314.759
315.711
316.731
317.826
319.002
320.264
321.622
323.081
324.652
326.344
328.167
330.134
332.259
334.557
337.045
339.745
342.68
345.881
349.383
353.23
357.479
362.204
367.502
373.494
380.285
300.026
300.079
300.135
300.192
300.252
300.315
300.38
300.448
300.519
300.592
300.669
300.749
300.833
300.92
301.011
301.106
301.205
301.309
301.417
301.53
301.648
301.772
301.901
302.036
302.177
302.325
302.48
302.643
302.813
302.992
303.18
303.377
303.584
303.803
304.033
304.275
304.531
304.801
305.086
305.388
305.707
306.046
306.405
306.786
307.191
307.622
308.08
308.568
309.088
309.642
310.234
310.867
311.542
312.265
313.037
313.865
314.751
315.701
316.719
317.811
318.984
320.243
321.595
323.049
324.613
326.296
328.109
330.064
332.173
334.45
336.914
339.581
342.475
345.621
349.049
352.792
356.892
361.394
366.34
371.757
377.6
300.026
300.079
300.135
300.192
300.252
300.315
300.38
300.448
300.519
300.592
300.669
300.749
300.833
300.92
301.011
301.106
301.206
301.309
301.417
301.53
301.649
301.772
301.901
302.036
302.178
302.326
302.481
302.644
302.814
302.993
303.181
303.378
303.586
303.804
304.034
304.276
304.532
304.802
305.087
305.389
305.709
306.047
306.406
306.787
307.192
307.622
308.08
308.567
309.087
309.641
310.232
310.863
311.537
312.258
313.029
313.854
314.738
315.684
316.699
317.787
318.954
320.206
321.551
322.995
324.548
326.217
328.014
329.947
332.031
334.277
336.7
339.317
342.146
345.208
348.523
352.116
356.009
360.22
364.756
369.595
374.662
300.026
300.079
300.135
300.192
300.252
300.315
300.38
300.448
300.519
300.592
300.669
300.75
300.833
300.92
301.012
301.107
301.206
301.31
301.418
301.531
301.649
301.773
301.902
302.037
302.179
302.327
302.482
302.645
302.815
302.994
303.182
303.38
303.587
303.806
304.036
304.278
304.534
304.804
305.089
305.391
305.71
306.048
306.407
306.788
307.192
307.622
308.079
308.566
309.085
309.638
310.227
310.857
311.529
312.248
313.016
313.838
314.718
315.66
316.669
317.75
318.909
320.152
321.486
322.917
324.453
326.102
327.874
329.779
331.826
334.027
336.395
338.942
341.683
344.633
347.804
351.209
354.857
358.747
362.867
367.179
371.615
300.026
300.079
300.135
300.192
300.252
300.315
300.38
300.448
300.519
300.593
300.669
300.75
300.833
300.921
301.012
301.107
301.206
301.31
301.418
301.532
301.65
301.774
301.903
302.038
302.18
302.328
302.483
302.646
302.817
302.996
303.184
303.382
303.589
303.808
304.038
304.28
304.536
304.806
305.091
305.393
305.712
306.05
306.409
306.789
307.193
307.622
308.079
308.564
309.082
309.633
310.221
310.849
311.518
312.234
312.999
313.816
314.691
315.626
316.628
317.7
318.848
320.079
321.397
322.809
324.323
325.946
327.686
329.551
331.551
333.694
335.991
338.451
341.083
343.897
346.898
350.092
353.475
357.039
360.762
364.606
368.52
300.026
300.079
300.135
300.192
300.252
300.315
300.38
300.448
300.519
300.593
300.67
300.75
300.834
300.921
301.012
301.108
301.207
301.311
301.419
301.533
301.651
301.775
301.904
302.04
302.182
302.33
302.485
302.648
302.819
302.998
303.187
303.384
303.592
303.811
304.041
304.283
304.539
304.809
305.094
305.396
305.715
306.053
306.411
306.791
307.194
307.622
308.078
308.562
309.078
309.627
310.213
310.837
311.504
312.215
312.975
313.787
314.654
315.581
316.573
317.634
318.768
319.982
321.28
322.669
324.155
325.744
327.443
329.26
331.201
333.273
335.484
337.84
340.346
343.007
345.823
348.792
351.907
355.153
358.509
361.941
365.41
300.026
300.079
300.135
300.192
300.253
300.315
300.38
300.448
300.519
300.593
300.67
300.75
300.834
300.922
301.013
301.108
301.208
301.312
301.42
301.534
301.652
301.776
301.906
302.042
302.184
302.332
302.488
302.651
302.822
303.001
303.19
303.388
303.596
303.814
304.045
304.287
304.543
304.813
305.098
305.4
305.718
306.056
306.413
306.792
307.195
307.622
308.076
308.559
309.072
309.619
310.202
310.822
311.484
312.191
312.944
313.748
314.607
315.524
316.503
317.549
318.666
319.858
321.132
322.492
323.943
325.491
327.142
328.9
330.772
332.762
334.875
337.114
339.481
341.976
344.598
347.339
350.191
353.137
356.157
359.226
362.312
300.026
300.079
300.135
300.192
300.253
300.315
300.38
300.448
300.519
300.593
300.67
300.751
300.835
300.922
301.014
301.109
301.209
301.313
301.422
301.535
301.654
301.778
301.908
302.044
302.186
302.335
302.491
302.654
302.825
303.005
303.194
303.392
303.6
303.819
304.049
304.292
304.548
304.818
305.103
305.404
305.722
306.059
306.416
306.794
307.195
307.621
308.073
308.554
309.065
309.608
310.187
310.803
311.46
312.159
312.905
313.7
314.547
315.451
316.415
317.443
318.538
319.706
320.95
322.275
323.685
325.185
326.779
328.47
330.263
332.161
334.165
336.277
338.497
340.821
343.246
345.764
348.363
351.03
353.746
356.492
359.244
300.026
300.079
300.135
300.193
300.253
300.315
300.381
300.449
300.52
300.594
300.671
300.751
300.835
300.923
301.014
301.11
301.21
301.314
301.423
301.537
301.656
301.78
301.911
302.047
302.189
302.338
302.495
302.658
302.83
303.01
303.199
303.397
303.605
303.824
304.055
304.298
304.554
304.823
305.108
305.409
305.727
306.063
306.419
306.796
307.196
307.62
308.07
308.547
309.055
309.595
310.169
310.779
311.429
312.12
312.856
313.64
314.474
315.362
316.308
317.314
318.384
319.522
320.732
322.016
323.379
324.824
326.353
327.97
329.676
331.474
333.362
335.342
337.409
339.562
341.792
344.094
346.456
348.865
351.307
353.766
356.223
300.026
300.079
300.135
300.193
300.253
300.315
300.381
300.449
300.52
300.594
300.671
300.752
300.836
300.924
301.015
301.111
301.211
301.316
301.425
301.539
301.658
301.783
301.914
302.05
302.193
302.342
302.499
302.663
302.835
303.015
303.204
303.403
303.612
303.831
304.062
304.305
304.56
304.83
305.115
305.415
305.732
306.068
306.422
306.798
307.196
307.618
308.065
308.539
309.043
309.577
310.145
310.749
311.39
312.072
312.797
313.567
314.385
315.255
316.179
317.16
318.201
319.305
320.475
321.714
323.023
324.407
325.866
327.402
329.015
330.707
332.475
334.319
336.234
338.217
340.26
342.357
344.498
346.672
348.866
351.069
353.265
300.026
300.079
300.135
300.193
300.253
300.316
300.381
300.449
300.52
300.594
300.672
300.752
300.837
300.925
301.017
301.113
301.213
301.318
301.427
301.542
301.661
301.786
301.917
302.054
302.197
302.347
302.504
302.669
302.841
303.022
303.211
303.41
303.619
303.839
304.07
304.312
304.568
304.838
305.122
305.422
305.738
306.072
306.426
306.8
307.195
307.614
308.058
308.528
309.027
309.556
310.117
310.712
311.344
312.014
312.725
313.48
314.28
315.128
316.027
316.98
317.987
319.053
320.179
321.367
322.619
323.936
325.32
326.77
328.287
329.869
331.516
333.224
334.99
336.808
338.673
340.578
342.514
344.473
346.445
348.418
350.384
300.026
300.079
300.135
300.193
300.253
300.316
300.381
300.449
300.521
300.595
300.672
300.753
300.838
300.926
301.018
301.114
301.215
301.32
301.43
301.545
301.665
301.79
301.922
302.059
302.203
302.353
302.51
302.675
302.848
303.029
303.219
303.418
303.628
303.848
304.079
304.322
304.577
304.846
305.13
305.429
305.745
306.078
306.429
306.801
307.194
307.61
308.049
308.515
309.008
309.53
310.082
310.668
311.288
311.945
312.641
313.377
314.157
314.981
315.852
316.772
317.743
318.767
319.845
320.978
322.168
323.415
324.72
326.081
327.499
328.972
330.497
332.072
333.693
335.355
337.052
338.779
340.527
342.291
344.062
345.831
347.591
300.026
300.079
300.135
300.193
300.253
300.316
300.381
300.45
300.521
300.595
300.673
300.754
300.839
300.927
301.02
301.116
301.217
301.323
301.433
301.548
301.669
301.795
301.927
302.064
302.209
302.36
302.518
302.683
302.856
303.038
303.228
303.428
303.638
303.858
304.089
304.332
304.587
304.856
305.139
305.438
305.752
306.083
306.433
306.802
307.192
307.603
308.038
308.498
308.984
309.498
310.041
310.616
311.223
311.865
312.543
313.259
314.015
314.812
315.653
316.538
317.469
318.447
319.474
320.549
321.674
322.849
324.072
325.344
326.663
328.027
329.433
330.88
332.362
333.876
335.417
336.979
338.557
340.144
341.734
343.321
344.898
300.026
300.079
300.135
300.193
300.253
300.316
300.382
300.45
300.522
300.596
300.674
300.755
300.84
300.929
301.022
301.119
301.22
301.326
301.437
301.552
301.673
301.8
301.932
302.071
302.216
302.367
302.526
302.692
302.866
303.048
303.239
303.439
303.649
303.869
304.101
304.344
304.599
304.867
305.15
305.447
305.76
306.089
306.436
306.802
307.188
307.595
308.025
308.478
308.956
309.461
309.993
310.555
311.147
311.772
312.431
313.125
313.855
314.623
315.43
316.278
317.166
318.096
319.069
320.085
321.143
322.243
323.385
324.567
325.788
327.046
328.339
329.662
331.014
332.39
333.787
335.198
336.62
338.048
339.477
340.9
342.314
300.026
300.079
300.135
300.193
300.253
300.316
300.382
300.451
300.522
300.597
300.675
300.756
300.842
300.931
301.024
301.121
301.223
301.329
301.441
301.557
301.679
301.806
301.939
302.078
302.224
302.376
302.535
302.702
302.877
303.059
303.251
303.452
303.662
303.883
304.114
304.357
304.612
304.88
305.161
305.457
305.768
306.095
306.439
306.802
307.183
307.585
308.008
308.454
308.923
309.417
309.937
310.485
311.062
311.668
312.305
312.974
313.677
314.414
315.185
315.993
316.837
317.717
318.635
319.589
320.58
321.606
322.667
323.761
324.888
326.044
327.227
328.435
329.665
330.914
332.177
333.452
334.733
336.017
337.3
338.578
339.847
300.026
300.079
300.135
300.193
300.253
300.316
300.382
300.451
300.523
300.598
300.676
300.758
300.843
300.933
301.026
301.124
301.226
301.333
301.445
301.562
301.685
301.813
301.946
302.086
302.233
302.386
302.546
302.713
302.889
303.072
303.264
303.466
303.676
303.897
304.129
304.371
304.626
304.893
305.173
305.467
305.776
306.101
306.442
306.8
307.177
307.572
307.988
308.425
308.885
309.367
309.874
310.407
310.965
311.551
312.166
312.809
313.482
314.186
314.921
315.687
316.485
317.315
318.176
319.069
319.992
320.946
321.928
322.937
323.973
325.032
326.113
327.214
328.331
329.462
330.603
331.753
332.907
334.063
335.216
336.364
337.504
300.026
300.079
300.135
300.193
300.254
300.317
300.383
300.451
300.523
300.599
300.677
300.759
300.845
300.935
301.029
301.127
301.23
301.338
301.45
301.568
301.691
301.82
301.955
302.095
302.243
302.397
302.558
302.726
302.902
303.086
303.279
303.481
303.692
303.913
304.145
304.387
304.641
304.907
305.186
305.479
305.785
306.107
306.444
306.797
307.168
307.557
307.965
308.393
308.842
309.312
309.804
310.32
310.86
311.424
312.014
312.63
313.272
313.942
314.639
315.363
316.114
316.893
317.699
318.531
319.389
320.271
321.178
322.106
323.056
324.024
325.009
326.01
327.023
328.047
329.078
330.115
331.155
332.195
333.232
334.264
335.288
300.026
300.08
300.135
300.193
300.254
300.317
300.383
300.452
300.524
300.599
300.678
300.761
300.847
300.938
301.032
301.131
301.235
301.343
301.456
301.575
301.699
301.828
301.964
302.106
302.254
302.409
302.571
302.74
302.917
303.102
303.296
303.498
303.71
303.931
304.162
304.404
304.658
304.923
305.2
305.49
305.794
306.112
306.445
306.794
307.158
307.54
307.939
308.357
308.794
309.25
309.727
310.226
310.745
311.287
311.852
312.439
313.05
313.685
314.343
315.025
315.73
316.459
317.21
317.983
318.778
319.592
320.426
321.279
322.147
323.031
323.928
324.837
325.755
326.681
327.613
328.548
329.485
330.421
331.355
332.283
333.205
300.026
300.08
300.135
300.193
300.254
300.317
300.383
300.452
300.525
300.601
300.68
300.763
300.849
300.94
301.035
301.135
301.239
301.348
301.462
301.582
301.707
301.838
301.974
302.117
302.266
302.422
302.585
302.756
302.934
303.12
303.314
303.517
303.729
303.95
304.182
304.423
304.676
304.94
305.215
305.503
305.804
306.118
306.446
306.789
307.147
307.521
307.911
308.318
308.742
309.184
309.645
310.125
310.624
311.142
311.681
312.24
312.819
313.419
314.039
314.679
315.339
316.018
316.716
317.433
318.167
318.918
319.684
320.464
321.258
322.063
322.879
323.704
324.536
325.374
326.215
327.059
327.904
328.748
329.589
330.425
331.256
300.026
300.08
300.135
300.193
300.254
300.317
300.384
300.453
300.526
300.602
300.681
300.764
300.852
300.943
301.039
301.139
301.244
301.354
301.469
301.59
301.716
301.848
301.985
302.129
302.28
302.437
302.601
302.773
302.952
303.138
303.333
303.537
303.749
303.971
304.202
304.443
304.695
304.957
305.231
305.516
305.814
306.124
306.447
306.783
307.134
307.499
307.88
308.275
308.686
309.114
309.558
310.019
310.497
310.992
311.505
312.035
312.582
313.147
313.73
314.329
314.945
315.577
316.225
316.888
317.565
318.255
318.958
319.672
320.397
321.131
321.873
322.621
323.375
324.133
324.894
325.656
326.419
327.18
327.938
328.692
329.442
300.026
300.08
300.135
300.193
300.254
300.318
300.384
300.454
300.526
300.603
300.683
300.766
300.854
300.946
301.043
301.144
301.25
301.361
301.477
301.598
301.725
301.858
301.997
302.143
302.294
302.453
302.618
302.791
302.971
303.159
303.355
303.559
303.772
303.993
304.224
304.465
304.715
304.976
305.247
305.53
305.824
306.129
306.447
306.777
307.121
307.477
307.847
308.231
308.628
309.041
309.468
309.91
310.366
310.838
311.325
311.827
312.344
312.875
313.421
313.981
314.555
315.143
315.743
316.355
316.979
317.614
318.258
318.911
319.573
320.241
320.916
321.596
322.279
322.966
323.654
324.343
325.032
325.719
326.403
327.085
327.761
300.026
300.079
300.135
300.193
300.254
300.318
300.384
300.454
300.527
300.604
300.684
300.768
300.857
300.949
301.047
301.149
301.255
301.367
301.485
301.607
301.736
301.87
302.01
302.157
302.31
302.47
302.636
302.81
302.991
303.18
303.377
303.582
303.795
304.017
304.247
304.487
304.737
304.996
305.265
305.544
305.834
306.135
306.447
306.771
307.106
307.454
307.813
308.185
308.569
308.966
309.376
309.799
310.235
310.684
311.145
311.62
312.107
312.606
313.117
313.641
314.175
314.72
315.276
315.842
316.416
316.999
317.59
318.188
318.792
319.401
320.015
320.633
321.254
321.876
322.5
323.123
323.746
324.368
324.987
325.603
326.215
300.026
300.079
300.135
300.193
300.254
300.318
300.384
300.454
300.528
300.605
300.685
300.77
300.859
300.953
301.051
301.154
301.261
301.374
301.493
301.617
301.746
301.882
302.024
302.172
302.326
302.488
302.656
302.831
303.013
303.203
303.401
303.606
303.82
304.042
304.272
304.511
304.759
305.016
305.283
305.559
305.846
306.142
306.448
306.765
307.092
307.43
307.779
308.139
308.51
308.892
309.286
309.69
310.105
310.532
310.969
311.417
311.876
312.345
312.823
313.312
313.809
314.315
314.83
315.352
315.882
316.418
316.96
317.507
318.06
318.616
319.175
319.737
320.301
320.866
321.432
321.997
322.562
323.125
323.685
324.243
324.797
300.026
300.079
300.135
300.193
300.254
300.318
300.384
300.455
300.528
300.606
300.687
300.772
300.862
300.956
301.055
301.159
301.268
301.382
301.501
301.627
301.758
301.895
302.038
302.187
302.343
302.506
302.676
302.852
303.036
303.227
303.425
303.631
303.845
304.067
304.297
304.536
304.783
305.038
305.302
305.575
305.857
306.149
306.449
306.759
307.079
307.408
307.746
308.095
308.452
308.82
309.197
309.584
309.98
310.385
310.799
311.222
311.654
312.094
312.543
312.999
313.462
313.932
314.409
314.892
315.381
315.874
316.372
316.874
317.38
317.888
318.399
318.911
319.425
319.939
320.453
320.967
321.479
321.99
322.498
323.004
323.507
300.026
300.079
300.135
300.193
300.254
300.317
300.384
300.455
300.529
300.606
300.688
300.774
300.864
300.959
301.059
301.164
301.274
301.389
301.51
301.637
301.769
301.908
302.052
302.203
302.361
302.525
302.696
302.874
303.059
303.251
303.451
303.657
303.872
304.094
304.323
304.561
304.807
305.06
305.322
305.592
305.87
306.156
306.451
306.755
307.066
307.386
307.715
308.052
308.397
308.751
309.112
309.482
309.86
310.245
310.638
311.038
311.445
311.858
312.279
312.705
313.137
313.575
314.017
314.465
314.916
315.371
315.83
316.291
316.755
317.22
317.687
318.155
318.624
319.093
319.561
320.028
320.494
320.958
321.421
321.88
322.337
300.026
300.079
300.134
300.192
300.253
300.317
300.384
300.455
300.529
300.607
300.689
300.775
300.866
300.962
301.063
301.169
301.28
301.396
301.518
301.646
301.78
301.921
302.067
302.22
302.379
302.545
302.717
302.896
303.083
303.276
303.476
303.684
303.898
304.121
304.35
304.587
304.831
305.083
305.342
305.609
305.883
306.165
306.454
306.751
307.055
307.367
307.686
308.012
308.345
308.686
309.033
309.387
309.747
310.114
310.487
310.865
311.249
311.639
312.034
312.433
312.837
313.245
313.656
314.072
314.49
314.91
315.333
315.758
316.185
316.612
317.041
317.469
317.898
318.326
318.753
319.18
319.605
320.028
320.448
320.867
321.282
300.026
300.079
300.134
300.192
300.253
300.316
300.383
300.454
300.528
300.607
300.689
300.776
300.868
300.965
301.066
301.173
301.285
301.403
301.527
301.656
301.792
301.933
302.081
302.236
302.396
302.564
302.738
302.919
303.106
303.3
303.502
303.71
303.925
304.147
304.376
304.612
304.855
305.105
305.362
305.626
305.896
306.174
306.458
306.748
307.046
307.349
307.659
307.975
308.297
308.625
308.959
309.298
309.643
309.992
310.347
310.706
311.07
311.437
311.809
312.184
312.562
312.943
313.327
313.713
314.102
314.492
314.883
315.275
315.669
316.062
316.456
316.85
317.243
317.635
318.026
318.416
318.804
319.191
319.575
319.956
320.335
300.026
300.078
300.133
300.191
300.252
300.315
300.383
300.453
300.528
300.606
300.689
300.777
300.869
300.967
301.069
301.177
301.29
301.409
301.534
301.665
301.802
301.945
302.095
302.251
302.413
302.582
302.758
302.94
303.129
303.324
303.526
303.735
303.951
304.173
304.402
304.637
304.879
305.127
305.382
305.642
305.91
306.183
306.462
306.747
307.037
307.333
307.635
307.942
308.253
308.57
308.891
309.217
309.547
309.881
310.219
310.56
310.905
311.253
311.603
311.956
312.312
312.669
313.028
313.389
313.751
314.113
314.476
314.84
315.204
315.568
315.931
316.293
316.655
317.015
317.374
317.732
318.087
318.441
318.792
319.141
319.487
300.026
300.078
300.133
300.19
300.251
300.314
300.381
300.452
300.527
300.606
300.689
300.777
300.87
300.968
301.071
301.18
301.294
301.415
301.541
301.673
301.812
301.956
302.107
302.265
302.429
302.599
302.776
302.96
303.15
303.347
303.55
303.759
303.975
304.197
304.426
304.66
304.901
305.147
305.4
305.658
305.922
306.191
306.465
306.745
307.029
307.318
307.612
307.91
308.212
308.518
308.828
309.142
309.459
309.779
310.101
310.427
310.755
311.084
311.416
311.75
312.084
312.42
312.757
313.095
313.433
313.771
314.11
314.448
314.785
315.122
315.458
315.793
316.127
316.459
316.789
317.118
317.444
317.769
318.091
318.41
318.727
300.025
300.077
300.132
300.189
300.249
300.313
300.379
300.45
300.525
300.604
300.688
300.776
300.87
300.968
301.072
301.182
301.298
301.419
301.546
301.68
301.82
301.966
302.119
302.278
302.443
302.615
302.793
302.978
303.169
303.367
303.571
303.781
303.997
304.219
304.447
304.681
304.921
305.166
305.416
305.671
305.932
306.197
306.467
306.741
307.02
307.303
307.589
307.879
308.173
308.469
308.769
309.071
309.376
309.683
309.992
310.303
310.615
310.929
311.244
311.56
311.876
312.193
312.51
312.828
313.145
313.461
313.777
314.092
314.407
314.72
315.031
315.342
315.65
315.957
316.262
316.565
316.866
317.164
317.459
317.753
318.043
300.025
300.077
300.131
300.188
300.247
300.31
300.377
300.448
300.523
300.602
300.686
300.774
300.868
300.968
301.072
301.183
301.299
301.422
301.55
301.685
301.826
301.974
302.128
302.288
302.455
302.628
302.808
302.994
303.186
303.384
303.589
303.799
304.016
304.238
304.465
304.698
304.937
305.18
305.428
305.681
305.938
306.2
306.466
306.735
307.008
307.285
307.565
307.847
308.132
308.42
308.71
309.002
309.296
309.591
309.888
310.185
310.484
310.783
311.083
311.382
311.682
311.982
312.281
312.58
312.878
313.175
313.471
313.766
314.059
314.351
314.641
314.929
315.215
315.499
315.781
316.061
316.338
316.613
316.885
317.155
317.421
300.025
300.076
300.13
300.186
300.245
300.308
300.374
300.445
300.52
300.599
300.683
300.772
300.866
300.966
301.071
301.183
301.3
301.423
301.553
301.689
301.831
301.98
302.135
302.296
302.464
302.639
302.819
303.006
303.199
303.398
303.603
303.814
304.03
304.252
304.479
304.711
304.948
305.189
305.435
305.686
305.94
306.198
306.459
306.724
306.992
307.262
307.536
307.811
308.089
308.368
308.649
308.931
309.214
309.499
309.784
310.069
310.355
310.64
310.926
311.211
311.496
311.779
312.062
312.344
312.625
312.904
313.182
313.458
313.732
314.005
314.275
314.543
314.809
315.073
315.334
315.593
315.849
316.103
316.353
316.601
316.846
300.025
300.075
300.128
300.184
300.243
300.305
300.371
300.441
300.516
300.595
300.679
300.768
300.863
300.963
301.069
301.181
301.299
301.423
301.553
301.69
301.833
301.983
302.139
302.302
302.471
302.646
302.827
303.015
303.208
303.408
303.613
303.824
304.04
304.261
304.487
304.718
304.953
305.193
305.436
305.684
305.935
306.189
306.446
306.706
306.968
307.233
307.5
307.768
308.038
308.309
308.581
308.854
309.128
309.401
309.675
309.949
310.223
310.496
310.768
311.039
311.31
311.579
311.846
312.113
312.377
312.64
312.901
313.16
313.417
313.671
313.924
314.174
314.421
314.666
314.908
315.148
315.384
315.618
315.85
316.078
316.304
300.024
300.074
300.127
300.182
300.24
300.302
300.368
300.437
300.512
300.591
300.675
300.764
300.859
300.959
301.065
301.178
301.296
301.421
301.552
301.69
301.834
301.984
302.141
302.304
302.474
302.65
302.832
303.02
303.214
303.413
303.618
303.829
304.044
304.264
304.489
304.718
304.952
305.189
305.43
305.674
305.921
306.172
306.424
306.679
306.936
307.195
307.455
307.716
307.978
308.241
308.505
308.768
309.032
309.295
309.558
309.821
310.082
310.343
310.603
310.861
311.118
311.373
311.626
311.878
312.127
312.374
312.62
312.862
313.103
313.341
313.576
313.809
314.039
314.266
314.491
314.713
314.932
315.148
315.361
315.572
315.779
300.024
300.073
300.125
300.179
300.237
300.298
300.364
300.433
300.507
300.586
300.67
300.759
300.854
300.954
301.061
301.174
301.292
301.418
301.549
301.688
301.832
301.983
302.141
302.305
302.475
302.651
302.834
303.022
303.216
303.415
303.619
303.829
304.044
304.263
304.486
304.713
304.944
305.179
305.417
305.657
305.901
306.146
306.394
306.643
306.894
307.147
307.4
307.654
307.908
308.163
308.417
308.671
308.925
309.178
309.43
309.681
309.931
310.18
310.427
310.672
310.915
311.157
311.396
311.634
311.868
312.101
312.331
312.559
312.784
313.006
313.225
313.442
313.656
313.867
314.076
314.281
314.483
314.683
314.88
315.073
315.264
300.024
300.072
300.123
300.177
300.234
300.295
300.359
300.428
300.502
300.581
300.664
300.754
300.848
300.949
301.056
301.169
301.288
301.414
301.546
301.685
301.83
301.982
302.14
302.304
302.474
302.651
302.833
303.021
303.215
303.414
303.618
303.827
304.04
304.257
304.479
304.704
304.933
305.164
305.398
305.635
305.874
306.114
306.357
306.6
306.844
307.09
307.335
307.581
307.827
308.073
308.318
308.562
308.806
309.049
309.29
309.53
309.768
310.004
310.239
310.472
310.702
310.93
311.156
311.38
311.601
311.819
312.035
312.248
312.458
312.666
312.871
313.072
313.271
313.467
313.66
313.851
314.038
314.222
314.404
314.582
314.758
300.023
300.071
300.121
300.175
300.231
300.291
300.356
300.424
300.497
300.576
300.659
300.748
300.843
300.944
301.051
301.164
301.284
301.41
301.543
301.682
301.828
301.98
302.138
302.303
302.474
302.651
302.833
303.021
303.215
303.413
303.617
303.824
304.036
304.252
304.471
304.693
304.918
305.146
305.376
305.608
305.842
306.077
306.314
306.551
306.789
307.027
307.265
307.502
307.74
307.977
308.212
308.447
308.681
308.913
309.143
309.372
309.599
309.824
310.046
310.267
310.485
310.7
310.913
311.124
311.331
311.536
311.739
311.938
312.135
312.328
312.519
312.707
312.892
313.074
313.253
313.429
313.602
313.772
313.94
314.104
314.266
300.023
300.07
300.12
300.173
300.229
300.288
300.352
300.42
300.494
300.572
300.655
300.744
300.839
300.94
301.047
301.161
301.281
301.408
301.541
301.681
301.827
301.98
302.139
302.304
302.476
302.653
302.836
303.024
303.217
303.415
303.617
303.823
304.033
304.247
304.464
304.683
304.905
305.13
305.356
305.584
305.813
306.043
306.274
306.505
306.736
306.967
307.198
307.428
307.657
307.885
308.112
308.338
308.562
308.784
309.005
309.223
309.439
309.653
309.864
310.073
310.28
310.484
310.685
310.883
311.079
311.272
311.461
311.648
311.832
312.013
312.191
312.366
312.539
312.708
312.874
313.037
313.198
313.355
313.51
313.661
313.81
300.023
300.07
300.119
300.171
300.227
300.286
300.35
300.418
300.491
300.569
300.652
300.741
300.837
300.938
301.046
301.16
301.28
301.407
301.541
301.682
301.829
301.983
302.143
302.309
302.481
302.659
302.842
303.03
303.222
303.42
303.621
303.827
304.036
304.248
304.463
304.68
304.9
305.121
305.344
305.569
305.794
306.02
306.246
306.472
306.698
306.923
307.148
307.372
307.594
307.815
308.035
308.253
308.469
308.683
308.895
309.104
309.312
309.516
309.719
309.918
310.115
310.309
310.5
310.688
310.874
311.056
311.235
311.412
311.585
311.756
311.923
312.088
312.249
312.408
312.563
312.716
312.865
313.012
313.156
313.297
313.435
300.023
300.069
300.118
300.17
300.226
300.285
300.348
300.416
300.489
300.567
300.651
300.74
300.836
300.937
301.045
301.16
301.281
301.409
301.543
301.685
301.833
301.988
302.148
302.315
302.488
302.666
302.849
303.037
303.231
303.428
303.63
303.835
304.043
304.255
304.469
304.686
304.905
305.125
305.347
305.569
305.792
306.016
306.24
306.463
306.686
306.908
307.13
307.35
307.568
307.785
308.001
308.214
308.425
308.635
308.841
309.046
309.247
309.446
309.643
309.836
310.027
310.215
310.4
310.582
310.761
310.936
311.109
311.279
311.446
311.61
311.77
311.928
312.082
312.234
312.383
312.528
312.671
312.811
312.948
313.082
313.213
392.613
400.667
407.432
413.319
418.528
423.17
427.307
430.972
434.18
436.932
439.217
441.011
442.28
442.976
443.033
442.36
440.83
438.249
434.288
428.292
418.62
411.965
406.782
402.471
398.739
395.425
392.427
389.675
387.12
384.725
382.463
380.312
378.254
376.276
374.367
372.516
370.716
368.961
367.245
365.564
363.914
362.292
360.694
359.118
357.563
356.025
354.504
352.998
351.505
350.026
348.559
347.105
345.663
344.235
342.821
341.422
340.039
338.674
337.328
336.003
334.701
333.423
332.171
330.947
329.752
328.588
327.456
326.357
325.292
324.263
323.268
322.31
321.388
320.503
319.653
318.839
318.061
317.317
316.606
315.929
315.283
314.669
314.083
313.526
312.996
312.492
312.012
311.555
311.119
310.705
310.309
309.932
309.571
309.226
308.896
308.58
308.276
307.984
307.703
307.432
307.171
306.918
306.674
306.437
306.208
305.986
305.769
305.559
305.355
305.156
304.962
304.773
304.589
304.41
304.235
304.064
303.898
303.736
303.578
303.424
303.274
303.128
302.986
302.848
302.713
302.583
302.457
302.334
302.215
302.1
301.989
301.881
301.777
301.677
301.581
301.488
301.399
301.313
301.231
301.153
301.078
301.006
300.938
300.873
300.811
300.752
300.697
300.645
300.595
300.548
300.504
300.463
300.424
300.388
300.354
300.322
300.293
300.265
300.24
300.217
300.195
387.856
394.873
401.174
406.82
411.891
416.448
420.531
424.163
427.352
430.095
432.38
434.184
435.472
436.197
436.299
435.694
434.271
431.876
428.295
423.263
416.74
411.052
406.246
402.115
398.485
395.235
392.279
389.558
387.025
384.647
382.398
380.257
378.208
376.237
374.333
372.486
370.69
368.938
367.225
365.546
363.898
362.277
360.681
359.107
357.552
356.016
354.495
352.989
351.497
350.018
348.552
347.098
345.656
344.228
342.814
341.415
340.032
338.667
337.321
335.996
334.693
333.415
332.163
330.939
329.744
328.58
327.448
326.349
325.284
324.255
323.261
322.303
321.381
320.496
319.646
318.833
318.054
317.311
316.601
315.924
315.278
314.664
314.079
313.522
312.992
312.488
312.008
311.552
311.117
310.702
310.307
309.93
309.57
309.225
308.895
308.579
308.275
307.983
307.702
307.431
307.17
306.918
306.674
306.437
306.208
305.985
305.769
305.559
305.355
305.156
304.962
304.773
304.589
304.41
304.235
304.064
303.898
303.736
303.578
303.424
303.274
303.128
302.986
302.848
302.714
302.583
302.457
302.334
302.215
302.1
301.989
301.881
301.777
301.677
301.581
301.488
301.399
301.313
301.231
301.153
301.078
301.006
300.938
300.873
300.811
300.753
300.697
300.645
300.595
300.548
300.504
300.463
300.424
300.388
300.354
300.322
300.293
300.265
300.24
300.217
300.195
383.742
389.765
395.439
400.688
405.499
409.881
413.846
417.398
420.537
423.253
425.532
427.347
428.667
429.449
429.637
429.163
427.942
425.873
422.854
418.843
414.062
409.409
405.171
401.366
397.938
394.819
391.955
389.3
386.816
384.476
382.257
380.139
378.108
376.152
374.259
372.423
370.635
368.89
367.183
365.509
363.865
362.247
360.654
359.082
357.53
355.995
354.476
352.972
351.481
350.003
348.536
347.083
345.641
344.213
342.799
341.399
340.016
338.651
337.304
335.979
334.676
333.398
332.146
330.922
329.727
328.563
327.431