/*--------------------------------*- C++ -*----------------------------------*\
  =========                 |
  \\      /  F ield         | OpenFOAM: The Open Source CFD Toolbox
   \\    /   O peration     | Website:  https://openfoam.org
    \\  /    A nd           | Version:  7
     \\/     M anipulation  |
\*---------------------------------------------------------------------------*/
FoamFile
{
    version     2.0;
    format      ascii;
    class       volScalarField;
    location    "0.35";
    object      T;
}
// * * * * * * * * * * * * * * * * * * * * * * * * * * * * * * * * * * * * * //

dimensions      [0 0 0 1 0 0 0];

internalField   nonuniform List<scalar> 
12013
(
300
300
300
300.001
300.001
300.001
300.002
300.003
300.004
300.005
300.007
300.01
300.014
300.018
300.024
300.032
300.042
300.054
300.069
300.088
300.111
300.139
300.172
300.212
300.26
300.316
300.382
300.459
300.549
300.652
300.77
300.905
301.059
301.232
301.428
301.646
301.89
302.161
302.462
302.793
303.157
303.556
303.991
304.466
304.981
305.539
306.142
306.793
307.493
308.244
309.049
309.911
310.831
311.813
312.858
313.971
315.153
316.409
317.741
319.154
320.652
322.238
323.919
325.699
327.586
329.585
331.704
333.954
336.344
338.886
341.595
344.488
347.586
350.916
354.51
358.413
362.685
367.413
372.729
378.862
386.257
300
300
300
300.001
300.001
300.001
300.002
300.003
300.004
300.005
300.007
300.01
300.014
300.018
300.024
300.032
300.042
300.054
300.069
300.088
300.111
300.139
300.172
300.212
300.26
300.316
300.382
300.459
300.548
300.652
300.77
300.905
301.058
301.232
301.427
301.645
301.889
302.16
302.46
302.791
303.155
303.554
303.989
304.463
304.978
305.536
306.139
306.789
307.488
308.239
309.043
309.904
310.824
311.804
312.849
313.96
315.141
316.395
317.726
319.137
320.632
322.216
323.893
325.67
327.552
329.546
331.659
333.902
336.282
338.814
341.509
344.385
347.462
350.763
354.319
358.168
362.361
366.963
372.062
377.767
384.171
300
300
300
300.001
300.001
300.001
300.002
300.003
300.004
300.005
300.007
300.01
300.014
300.018
300.024
300.032
300.042
300.054
300.069
300.088
300.111
300.138
300.172
300.212
300.259
300.316
300.382
300.459
300.548
300.651
300.769
300.904
301.057
301.23
301.425
301.644
301.887
302.158
302.457
302.788
303.151
303.549
303.984
304.457
304.971
305.528
306.13
306.779
307.477
308.227
309.03
309.889
310.807
311.785
312.827
313.936
315.114
316.365
317.691
319.098
320.588
322.165
323.836
325.605
327.477
329.46
331.56
333.786
336.147
338.655
341.321
344.161
347.191
350.431
353.907
357.646
361.682
366.051
370.79
375.911
381.362
300
300
300
300.001
300.001
300.001
300.002
300.003
300.004
300.005
300.007
300.01
300.014
300.018
300.024
300.032
300.042
300.054
300.069
300.088
300.11
300.138
300.172
300.211
300.259
300.315
300.381
300.458
300.547
300.65
300.768
300.902
301.055
301.228
301.423
301.64
301.883
302.153
302.452
302.782
303.145
303.542
303.975
304.448
304.961
305.516
306.117
306.764
307.46
308.207
309.008
309.864
310.778
311.753
312.792
313.896
315.069
316.314
317.634
319.033
320.514
322.082
323.741
325.496
327.353
329.317
331.396
333.596
335.926
338.395
341.015
343.796
346.753
349.9
353.254
356.831
360.649
364.718
369.035
373.57
378.242
300
300
300
300.001
300.001
300.001
300.002
300.003
300.004
300.005
300.007
300.01
300.014
300.018
300.024
300.032
300.042
300.054
300.069
300.087
300.11
300.138
300.171
300.211
300.258
300.314
300.38
300.457
300.545
300.648
300.766
300.9
301.052
301.225
301.419
301.636
301.878
302.147
302.445
302.774
303.135
303.531
303.963
304.434
304.945
305.498
306.096
306.741
307.434
308.178
308.975
309.827
310.737
311.707
312.739
313.837
315.002
316.239
317.549
318.937
320.406
321.959
323.601
325.337
327.171
329.109
331.156
333.318
335.604
338.019
340.573
343.274
346.132
349.155
352.351
355.728
359.287
363.021
366.91
370.911
374.95
300
300
300
300.001
300.001
300.001
300.002
300.003
300.004
300.005
300.007
300.01
300.014
300.018
300.024
300.032
300.042
300.054
300.069
300.087
300.11
300.137
300.17
300.21
300.257
300.313
300.379
300.455
300.543
300.646
300.763
300.896
301.048
301.22
301.413
301.629
301.87
302.139
302.435
302.762
303.122
303.516
303.946
304.414
304.922
305.473
306.068
306.708
307.398
308.137
308.929
309.775
310.679
311.642
312.666
313.754
314.91
316.135
317.432
318.805
320.256
321.79
323.409
325.119
326.922
328.824
330.829
332.942
335.168
337.514
339.984
342.584
345.318
348.19
351.202
354.351
357.63
361.024
364.505
368.031
371.546
300
300
300
300.001
300.001
300.001
300.002
300.003
300.004
300.005
300.007
300.01
300.014
300.018
300.024
300.032
300.041
300.053
300.068
300.087
300.109
300.137
300.17
300.209
300.256
300.312
300.377
300.453
300.541
300.642
300.759
300.892
301.043
301.214
301.406
301.621
301.861
302.127
302.422
302.747
303.104
303.496
303.923
304.388
304.893
305.44
306.03
306.666
307.35
308.083
308.868
309.707
310.602
311.555
312.569
313.646
314.787
315.997
317.277
318.63
320.059
321.567
323.157
324.832
326.596
328.452
330.404
332.455
334.609
336.868
339.237
341.716
344.306
347.008
349.815
352.723
355.717
358.779
361.882
364.99
368.061
300
300
300
300.001
300.001
300.001
300.002
300.003
300.004
300.005
300.007
300.01
300.014
300.018
300.024
300.032
300.041
300.053
300.068
300.086
300.109
300.136
300.169
300.208
300.255
300.31
300.374
300.45
300.537
300.638
300.754
300.886
301.036
301.206
301.396
301.61
301.848
302.112
302.405
302.727
303.082
303.47
303.894
304.355
304.855
305.397
305.981
306.611
307.288
308.013
308.79
309.619
310.503
311.444
312.445
313.506
314.63
315.82
317.078
318.406
319.807
321.283
322.836
324.469
326.184
327.984
329.872
331.848
333.915
336.074
338.325
340.668
343.099
345.615
348.209
350.87
353.584
356.332
359.089
361.828
364.516
300
300
300
300.001
300.001
300.001
300.002
300.003
300.004
300.005
300.007
300.01
300.013
300.018
300.024
300.031
300.041
300.053
300.067
300.086
300.108
300.135
300.167
300.206
300.253
300.307
300.371
300.446
300.533
300.633
300.748
300.879
301.027
301.195
301.384
301.596
301.832
302.093
302.383
302.702
303.053
303.437
303.856
304.312
304.807
305.342
305.92
306.542
307.21
307.926
308.691
309.509
310.379
311.305
312.288
313.33
314.433
315.599
316.83
318.127
319.493
320.929
322.438
324.02
325.678
327.412
329.224
331.113
333.081
335.127
337.248
339.441
341.703
344.026
346.402
348.82
351.265
353.719
356.163
358.574
360.928
300
300
300
300.001
300.001
300.001
300.002
300.003
300.004
300.005
300.007
300.01
300.013
300.018
300.024
300.031
300.04
300.052
300.067
300.085
300.107
300.134
300.166
300.204
300.25
300.304
300.368
300.442
300.528
300.627
300.74
300.87
301.017
301.183
301.369
301.579
301.812
302.07
302.356
302.672
303.018
303.397
303.811
304.26
304.748
305.275
305.844
306.457
307.114
307.818
308.57
309.372
310.226
311.133
312.095
313.114
314.191
315.328
316.526
317.786
319.111
320.5
321.956
323.479
325.069
326.727
328.453
330.246
332.104
334.025
336.006
338.042
340.128
342.256
344.417
346.599
348.789
350.972
353.132
355.252
357.312
300
300
300
300.001
300.001
300.001
300.002
300.003
300.004
300.005
300.007
300.01
300.013
300.018
300.023
300.031
300.04
300.052
300.066
300.084
300.106
300.132
300.164
300.202
300.247
300.301
300.363
300.437
300.521
300.619
300.731
300.859
301.004
301.167
301.351
301.558
301.787
302.042
302.324
302.634
302.975
303.348
303.755
304.197
304.676
305.194
305.752
306.352
306.996
307.686
308.422
309.206
310.04
310.924
311.862
312.853
313.899
315.001
316.16
317.378
318.654
319.989
321.384
322.839
324.354
325.927
327.557
329.243
330.983
332.772
334.606
336.481
338.389
340.323
342.274
344.232
346.184
348.118
350.022
351.881
353.682
300
300
300
300.001
300.001
300.001
300.002
300.003
300.004
300.005
300.007
300.01
300.013
300.017
300.023
300.03
300.039
300.051
300.065
300.083
300.104
300.13
300.162
300.199
300.244
300.296
300.358
300.43
300.513
300.61
300.72
300.845
300.988
301.149
301.33
301.532
301.758
302.008
302.285
302.589
302.923
303.289
303.687
304.12
304.589
305.096
305.641
306.227
306.856
307.528
308.244
309.007
309.817
310.675
311.583
312.542
313.552
314.614
315.728
316.896
318.117
319.391
320.718
322.097
323.527
325.007
326.535
328.107
329.721
331.373
333.057
334.769
336.501
338.247
339.997
341.743
343.475
345.182
346.854
348.48
350.05
300
300
300
300.001
300.001
300.001
300.002
300.003
300.004
300.005
300.007
300.009
300.013
300.017
300.023
300.03
300.039
300.05
300.064
300.081
300.102
300.128
300.159
300.196
300.239
300.291
300.352
300.422
300.504
300.598
300.706
300.83
300.969
301.127
301.304
301.502
301.723
301.967
302.238
302.535
302.862
303.219
303.607
304.029
304.486
304.979
305.509
306.079
306.689
307.34
308.034
308.772
309.554
310.382
311.256
312.177
313.145
314.161
315.225
316.337
317.496
318.702
319.953
321.25
322.589
323.97
325.388
326.842
328.327
329.838
331.372
332.923
334.484
336.048
337.608
339.156
340.684
342.184
343.647
345.066
346.432
300
300
300
300.001
300.001
300.001
300.002
300.002
300.003
300.005
300.007
300.009
300.013
300.017
300.022
300.029
300.038
300.049
300.063
300.08
300.1
300.125
300.156
300.192
300.234
300.285
300.344
300.413
300.493
300.585
300.691
300.811
300.947
301.101
301.274
301.467
301.681
301.92
302.183
302.472
302.789
303.136
303.513
303.922
304.365
304.842
305.355
305.905
306.494
307.121
307.789
308.498
309.248
310.041
310.876
311.755
312.676
313.641
314.648
315.698
316.789
317.92
319.091
320.299
321.542
322.818
324.123
325.455
326.809
328.181
329.566
330.959
332.355
333.747
335.128
336.493
337.835
339.147
340.422
341.655
342.839
300
300
300
300
300.001
300.001
300.002
300.002
300.003
300.005
300.007
300.009
300.012
300.016
300.022
300.029
300.037
300.048
300.061
300.078
300.098
300.122
300.152
300.187
300.229
300.278
300.335
300.402
300.48
300.57
300.672
300.789
300.921
301.071
301.238
301.425
301.633
301.864
302.119
302.399
302.705
303.04
303.404
303.798
304.224
304.683
305.176
305.704
306.268
306.869
307.507
308.183
308.897
309.65
310.442
311.273
312.143
313.051
313.996
314.978
315.996
317.048
318.133
319.247
320.39
321.558
322.748
323.957
325.181
326.415
327.655
328.897
330.136
331.366
332.581
333.778
334.949
336.091
337.197
338.264
339.286
300
300
300
300
300.001
300.001
300.002
300.002
300.003
300.005
300.006
300.009
300.012
300.016
300.021
300.028
300.036
300.047
300.06
300.076
300.095
300.119
300.147
300.181
300.222
300.269
300.325
300.39
300.465
300.552
300.651
300.764
300.891
301.035
301.197
301.377
301.578
301.8
302.045
302.314
302.608
302.929
303.278
303.655
304.063
304.501
304.971
305.474
306.01
306.58
307.185
307.824
308.499
309.208
309.953
310.732
311.545
312.391
313.27
314.18
315.121
316.089
317.084
318.102
319.143
320.201
321.276
322.363
323.458
324.558
325.66
326.758
327.849
328.927
329.99
331.031
332.048
333.036
333.991
334.91
335.789
300
300
300
300
300.001
300.001
300.002
300.002
300.003
300.005
300.006
300.009
300.012
300.015
300.02
300.027
300.035
300.045
300.058
300.073
300.092
300.115
300.142
300.175
300.214
300.26
300.314
300.376
300.448
300.531
300.627
300.735
300.857
300.995
301.15
301.323
301.515
301.727
301.961
302.217
302.498
302.803
303.135
303.493
303.88
304.295
304.739
305.214
305.72
306.256
306.824
307.423
308.054
308.715
309.408
310.131
310.884
311.665
312.474
313.308
314.168
315.05
315.953
316.874
317.811
318.761
319.721
320.688
321.66
322.632
323.601
324.564
325.516
326.455
327.377
328.278
329.154
330.004
330.824
331.611
332.363
300
300
300
300
300.001
300.001
300.002
300.002
300.003
300.004
300.006
300.008
300.011
300.015
300.02
300.026
300.034
300.043
300.055
300.07
300.088
300.11
300.136
300.168
300.205
300.249
300.3
300.36
300.429
300.508
300.599
300.702
300.819
300.95
301.097
301.261
301.443
301.644
301.866
302.108
302.373
302.662
302.974
303.311
303.675
304.064
304.481
304.925
305.396
305.896
306.424
306.979
307.563
308.174
308.811
309.475
310.164
310.877
311.612
312.369
313.146
313.94
314.75
315.574
316.409
317.252
318.101
318.954
319.807
320.657
321.502
322.338
323.163
323.973
324.766
325.539
326.29
327.016
327.715
328.385
329.025
300
300
300
300
300.001
300.001
300.001
300.002
300.003
300.004
300.006
300.008
300.011
300.014
300.019
300.025
300.032
300.041
300.053
300.067
300.084
300.105
300.13
300.16
300.195
300.237
300.285
300.342
300.407
300.482
300.568
300.665
300.776
300.899
301.038
301.192
301.363
301.552
301.76
301.987
302.235
302.504
302.796
303.11
303.448
303.81
304.196
304.606
305.042
305.502
305.987
306.496
307.03
307.587
308.167
308.768
309.391
310.034
310.695
311.373
312.067
312.773
313.492
314.219
314.954
315.694
316.437
317.18
317.921
318.657
319.386
320.106
320.813
321.507
322.183
322.841
323.479
324.095
324.686
325.253
325.793
300
300
300
300
300.001
300.001
300.001
300.002
300.003
300.004
300.005
300.007
300.01
300.013
300.018
300.023
300.03
300.039
300.05
300.063
300.079
300.099
300.123
300.151
300.184
300.223
300.269
300.322
300.383
300.454
300.534
300.625
300.728
300.843
300.973
301.116
301.275
301.451
301.644
301.854
302.084
302.332
302.601
302.891
303.201
303.533
303.886
304.261
304.658
305.077
305.517
305.978
306.459
306.961
307.481
308.02
308.576
309.148
309.734
310.333
310.944
311.565
312.194
312.829
313.468
314.11
314.752
315.392
316.028
316.658
317.281
317.893
318.494
319.081
319.653
320.208
320.745
321.262
321.759
322.234
322.687
300
300
300
300
300.001
300.001
300.001
300.002
300.003
300.004
300.005
300.007
300.009
300.013
300.017
300.022
300.028
300.037
300.047
300.059
300.074
300.093
300.115
300.141
300.172
300.208
300.251
300.3
300.357
300.422
300.496
300.581
300.676
300.782
300.901
301.034
301.18
301.341
301.518
301.71
301.92
302.147
302.392
302.655
302.936
303.236
303.555
303.894
304.25
304.626
305.019
305.431
305.859
306.304
306.765
307.24
307.729
308.23
308.743
309.265
309.796
310.334
310.877
311.424
311.972
312.521
313.069
313.613
314.153
314.686
315.211
315.727
316.231
316.723
317.202
317.665
318.112
318.543
318.956
319.35
319.726
300
300
300
300
300.001
300.001
300.001
300.002
300.002
300.003
300.005
300.007
300.009
300.012
300.016
300.02
300.026
300.034
300.043
300.055
300.069
300.086
300.106
300.13
300.159
300.192
300.231
300.276
300.328
300.388
300.456
300.533
300.62
300.717
300.825
300.945
301.078
301.224
301.383
301.557
301.746
301.95
302.169
302.405
302.656
302.924
303.208
303.508
303.824
304.155
304.502
304.863
305.239
305.627
306.028
306.441
306.865
307.298
307.739
308.187
308.642
309.1
309.562
310.026
310.491
310.954
311.414
311.871
312.323
312.768
313.205
313.634
314.052
314.459
314.854
315.237
315.605
315.96
316.299
316.623
316.932
300
300
300
300
300
300.001
300.001
300.002
300.002
300.003
300.004
300.006
300.008
300.011
300.014
300.019
300.024
300.031
300.04
300.05
300.063
300.078
300.097
300.119
300.145
300.175
300.21
300.251
300.298
300.352
300.413
300.482
300.56
300.647
300.744
300.852
300.97
301.1
301.242
301.397
301.564
301.744
301.938
302.145
302.366
302.601
302.849
303.111
303.386
303.674
303.974
304.286
304.609
304.943
305.286
305.638
305.999
306.367
306.74
307.119
307.501
307.887
308.273
308.661
309.047
309.432
309.814
310.191
310.563
310.93
311.289
311.64
311.982
312.314
312.637
312.948
313.248
313.536
313.811
314.075
314.325
300
300
300
300
300
300.001
300.001
300.001
300.002
300.003
300.004
300.005
300.007
300.01
300.013
300.017
300.022
300.028
300.036
300.045
300.057
300.071
300.087
300.107
300.13
300.157
300.188
300.225
300.266
300.314
300.368
300.43
300.498
300.575
300.661
300.755
300.859
300.973
301.097
301.231
301.377
301.534
301.702
301.881
302.072
302.273
302.487
302.711
302.945
303.19
303.445
303.71
303.983
304.264
304.552
304.848
305.149
305.456
305.766
306.08
306.397
306.714
307.032
307.35
307.667
307.981
308.291
308.598
308.9
309.197
309.487
309.77
310.046
310.313
310.572
310.822
311.062
311.293
311.513
311.724
311.924
300
300
300
300
300
300.001
300.001
300.001
300.002
300.003
300.004
300.005
300.006
300.009
300.011
300.015
300.019
300.025
300.032
300.04
300.05
300.062
300.077
300.094
300.114
300.138
300.166
300.198
300.234
300.276
300.323
300.376
300.436
300.502
300.576
300.657
300.746
300.844
300.95
301.065
301.19
301.323
301.465
301.617
301.778
301.948
302.128
302.315
302.512
302.716
302.928
303.148
303.374
303.606
303.843
304.086
304.333
304.583
304.836
305.091
305.348
305.605
305.861
306.117
306.371
306.623
306.871
307.116
307.357
307.592
307.823
308.047
308.265
308.477
308.681
308.878
309.068
309.249
309.423
309.589
309.746
300
300
300
300
300
300
300.001
300.001
300.002
300.002
300.003
300.004
300.006
300.008
300.01
300.013
300.017
300.022
300.028
300.035
300.044
300.054
300.067
300.082
300.099
300.119
300.143
300.17
300.201
300.237
300.277
300.322
300.373
300.429
300.491
300.56
300.635
300.717
300.806
300.902
301.006
301.117
301.235
301.36
301.493
301.634
301.781
301.935
302.095
302.262
302.434
302.612
302.795
302.983
303.174
303.369
303.566
303.766
303.968
304.171
304.374
304.578
304.78
304.982
305.181
305.379
305.574
305.765
305.953
306.136
306.316
306.49
306.659
306.823
306.982
307.134
307.281
307.421
307.555
307.683
307.805
300
300
300
300
300
300
300.001
300.001
300.001
300.002
300.003
300.004
300.005
300.006
300.009
300.011
300.014
300.019
300.024
300.03
300.037
300.046
300.057
300.069
300.084
300.101
300.121
300.143
300.169
300.199
300.232
300.27
300.312
300.358
300.409
300.466
300.527
300.595
300.667
300.746
300.83
300.92
301.015
301.117
301.224
301.336
301.454
301.577
301.705
301.838
301.975
302.115
302.26
302.407
302.557
302.71
302.864
303.02
303.177
303.335
303.492
303.649
303.805
303.96
304.114
304.265
304.414
304.56
304.704
304.844
304.98
305.113
305.241
305.365
305.485
305.601
305.712
305.818
305.92
306.017
306.109
300
300
300
300
300
300
300
300.001
300.001
300.002
300.002
300.003
300.004
300.005
300.007
300.009
300.012
300.015
300.02
300.025
300.031
300.038
300.047
300.057
300.069
300.083
300.099
300.118
300.139
300.163
300.19
300.22
300.254
300.291
300.332
300.377
300.427
300.48
300.538
300.6
300.666
300.737
300.813
300.892
300.976
301.064
301.156
301.251
301.351
301.453
301.558
301.667
301.777
301.89
302.005
302.121
302.239
302.357
302.476
302.595
302.713
302.832
302.949
303.065
303.18
303.293
303.404
303.513
303.62
303.724
303.825
303.923
304.019
304.111
304.199
304.285
304.367
304.445
304.52
304.592
304.66
300
300
300
300
300
300
300
300.001
300.001
300.001
300.002
300.002
300.003
300.004
300.006
300.008
300.01
300.012
300.016
300.02
300.025
300.031
300.038
300.046
300.055
300.066
300.079
300.094
300.111
300.129
300.151
300.174
300.201
300.23
300.262
300.297
300.335
300.376
300.421
300.468
300.519
300.573
300.631
300.691
300.755
300.822
300.891
300.963
301.037
301.114
301.193
301.274
301.356
301.44
301.525
301.611
301.698
301.785
301.872
301.959
302.046
302.132
302.218
302.303
302.386
302.468
302.549
302.628
302.705
302.78
302.853
302.924
302.992
303.059
303.122
303.184
303.243
303.299
303.353
303.405
303.454
300
300
300
300
300
300
300
300
300.001
300.001
300.001
300.002
300.002
300.003
300.004
300.006
300.008
300.01
300.012
300.015
300.019
300.024
300.029
300.036
300.043
300.051
300.061
300.072
300.085
300.099
300.116
300.133
300.153
300.175
300.199
300.226
300.254
300.285
300.318
300.353
300.391
300.431
300.473
300.518
300.565
300.613
300.664
300.716
300.77
300.826
300.883
300.941
301
301.061
301.122
301.183
301.245
301.307
301.369
301.431
301.492
301.553
301.614
301.673
301.732
301.79
301.846
301.902
301.956
302.008
302.059
302.109
302.157
302.203
302.248
302.29
302.331
302.371
302.408
302.444
302.478
300
300
300
300
300
300
300
300
300
300.001
300.001
300.001
300.002
300.002
300.003
300.004
300.006
300.007
300.009
300.012
300.014
300.018
300.022
300.027
300.032
300.038
300.046
300.054
300.063
300.074
300.085
300.098
300.113
300.129
300.146
300.165
300.186
300.208
300.231
300.257
300.284
300.312
300.342
300.374
300.407
300.441
300.476
300.513
300.551
300.59
300.629
300.67
300.711
300.752
300.794
300.837
300.879
300.922
300.964
301.007
301.049
301.09
301.131
301.172
301.212
301.251
301.289
301.327
301.363
301.399
301.433
301.467
301.499
301.53
301.56
301.589
301.616
301.643
301.668
301.692
301.715
300
300
300
300
300
300
300
300
300
300
300.001
300.001
300.001
300.002
300.002
300.003
300.004
300.005
300.007
300.008
300.01
300.013
300.016
300.019
300.023
300.027
300.032
300.038
300.045
300.052
300.061
300.07
300.08
300.091
300.103
300.116
300.13
300.145
300.162
300.179
300.197
300.217
300.237
300.258
300.281
300.304
300.328
300.352
300.378
300.404
300.43
300.457
300.484
300.512
300.54
300.568
300.596
300.624
300.652
300.679
300.707
300.734
300.761
300.788
300.814
300.839
300.864
300.888
300.912
300.935
300.958
300.979
301
301.02
301.04
301.058
301.076
301.093
301.11
301.125
301.14
300
300
300
300
300
300
300
300
300
300
300
300.001
300.001
300.001
300.002
300.002
300.003
300.003
300.004
300.006
300.007
300.009
300.011
300.013
300.016
300.019
300.022
300.026
300.03
300.035
300.041
300.047
300.054
300.061
300.069
300.078
300.087
300.097
300.108
300.119
300.131
300.143
300.157
300.17
300.185
300.2
300.215
300.231
300.247
300.264
300.281
300.298
300.315
300.332
300.35
300.368
300.385
300.403
300.421
300.438
300.455
300.472
300.489
300.506
300.522
300.538
300.553
300.568
300.583
300.598
300.611
300.625
300.638
300.65
300.662
300.674
300.685
300.696
300.706
300.715
300.725
300
300
300
300
300
300
300
300
300
300
300
300
300
300.001
300.001
300.001
300.002
300.002
300.003
300.004
300.004
300.006
300.007
300.008
300.01
300.012
300.014
300.017
300.019
300.023
300.026
300.03
300.034
300.039
300.044
300.049
300.055
300.061
300.068
300.075
300.082
300.09
300.098
300.107
300.116
300.125
300.134
300.144
300.153
300.164
300.174
300.184
300.195
300.205
300.216
300.226
300.237
300.247
300.258
300.268
300.279
300.289
300.299
300.309
300.318
300.328
300.337
300.346
300.354
300.363
300.371
300.379
300.387
300.394
300.401
300.408
300.414
300.421
300.427
300.432
300.438
300
300
300
300
300
300
300
300
300
300
300
300
300
300
300
300.001
300.001
300.001
300.002
300.002
300.003
300.003
300.004
300.005
300.006
300.007
300.008
300.01
300.012
300.014
300.016
300.018
300.02
300.023
300.026
300.029
300.033
300.036
300.04
300.044
300.049
300.053
300.058
300.063
300.068
300.073
300.079
300.084
300.09
300.096
300.102
300.107
300.113
300.119
300.125
300.131
300.137
300.143
300.149
300.155
300.161
300.167
300.172
300.178
300.183
300.189
300.194
300.199
300.204
300.208
300.213
300.217
300.222
300.226
300.23
300.233
300.237
300.241
300.244
300.247
300.25
300
300
300
300
300
300
300
300
300
300
300
300
300
300
300
300
300
300
300.001
300.001
300.001
300.002
300.002
300.003
300.003
300.004
300.005
300.005
300.006
300.008
300.009
300.01
300.011
300.013
300.015
300.016
300.018
300.02
300.022
300.025
300.027
300.029
300.032
300.035
300.038
300.04
300.043
300.046
300.049
300.052
300.056
300.059
300.062
300.065
300.068
300.072
300.075
300.078
300.081
300.084
300.087
300.09
300.093
300.096
300.099
300.102
300.105
300.107
300.11
300.112
300.115
300.117
300.119
300.121
300.123
300.125
300.127
300.129
300.131
300.133
300.134
300
300
300
300
300
300
300
300
300
300
300
300
300
300
300
300
300
300
300
300
300
300.001
300.001
300.001
300.001
300.002
300.002
300.003
300.003
300.004
300.004
300.005
300.006
300.007
300.007
300.008
300.009
300.01
300.011
300.013
300.014
300.015
300.016
300.018
300.019
300.021
300.022
300.024
300.025
300.027
300.028
300.03
300.031
300.033
300.035
300.036
300.038
300.039
300.041
300.042
300.044
300.046
300.047
300.048
300.05
300.051
300.053
300.054
300.055
300.056
300.058
300.059
300.06
300.061
300.062
300.063
300.064
300.065
300.066
300.066
300.067
300
300
300
300
300
300
300
300
300
300
300
300
300
300
300
300
300
300
300
300
300
300
300
300
300
300.001
300.001
300.001
300.001
300.001
300.002
300.002
300.002
300.003
300.003
300.004
300.004
300.005
300.005
300.006
300.006
300.007
300.008
300.008
300.009
300.009
300.01
300.011
300.012
300.012
300.013
300.014
300.015
300.015
300.016
300.017
300.018
300.018
300.019
300.02
300.02
300.021
300.022
300.022
300.023
300.024
300.024
300.025
300.025
300.026
300.027
300.027
300.028
300.028
300.029
300.029
300.029
300.03
300.03
300.031
300.031
300
300
300
300
300
300
300
300
300
300
300
300
300
300
299.999
299.999
299.999
300
300
300
300
300
300
300
300
300
300
300
300
300
300
300.001
300.001
300.001
300.001
300.001
300.001
300.002
300.002
300.002
300.002
300.003
300.003
300.003
300.003
300.004
300.004
300.004
300.005
300.005
300.005
300.006
300.006
300.006
300.007
300.007
300.007
300.008
300.008
300.008
300.008
300.009
300.009
300.009
300.01
300.01
300.01
300.01
300.011
300.011
300.011
300.011
300.012
300.012
300.012
300.012
300.012
300.012
300.013
300.013
300.013
300
300
300
300
300
300
300
300
300
300
300
300
299.999
299.999
299.999
299.999
299.999
299.999
299.999
299.999
299.999
299.999
299.999
299.999
299.999
300
300
300
300
300
300
300
300
300
300
300
300
300
300
300
300.001
300.001
300.001
300.001
300.001
300.001
300.001
300.001
300.001
300.002
300.002
300.002
300.002
300.002
300.002
300.002
300.003
300.003
300.003
300.003
300.003
300.003
300.003
300.003
300.003
300.004
300.004
300.004
300.004
300.004
300.004
300.004
300.004
300.004
300.004
300.004
300.005
300.005
300.005
300.005
300.005
300
300
300
300
300
300
300
300
300
300
300
299.999
299.999
299.999
299.999
299.999
299.999
299.999
299.999
299.999
299.999
299.999
299.999
299.999
299.999
299.999
299.999
299.999
299.999
299.999
299.999
299.999
300
300
300
300
300
300
300
300
300
300
300
300
300
300
300
300
300
300
300
300
300.001
300.001
300.001
300.001
300.001
300.001
300.001
300.001
300.001
300.001
300.001
300.001
300.001
300.001
300.001
300.001
300.001
300.001
300.001
300.001
300.002
300.002
300.002
300.002
300.002
300.002
300.002
300.002
300.002
396.053
403.42
409.372
414.342
418.541
422.088
425.049
427.464
429.351
430.717
431.558
431.857
431.588
430.713
429.177
426.902
423.773
419.611
414.104
406.615
395.524
387.54
381.115
375.642
370.829
366.513
362.588
358.984
355.651
352.55
349.652
346.934
344.377
341.965
339.685
337.527
335.481
333.539
331.694
329.939
328.27
326.68
325.166
323.724
322.35
321.04
319.793
318.605
317.473
316.396
315.371
314.396
313.469
312.588
311.751
310.957
310.205
309.493
308.818
308.181
307.579
307.011
306.477
305.973
305.501
305.057
304.641
304.253
303.889
303.551
303.235
302.942
302.671
302.419
302.187
301.972
301.775
301.594
301.428
301.277
301.138
301.013
300.898
300.795
300.702
300.618
300.542
300.475
300.415
300.361
300.313
300.271
300.234
300.201
300.172
300.147
300.125
300.106
300.09
300.076
300.064
300.053
300.044
300.037
300.031
300.025
300.021
300.017
300.014
300.011
300.009
300.007
300.006
300.005
300.004
300.003
300.002
300.002
300.001
300.001
300.001
300
300
300
300
300
300
300
300
300
300
300
300
300
300
300
300
300
300
300
300
300
300
300
300
300
300
300
300
300
300
300
300
300
300
300
300
300
300
300
300
391.231
397.589
403.102
407.849
411.923
415.392
418.304
420.687
422.555
423.912
424.75
425.055
424.801
423.951
422.454
420.24
417.211
413.229
408.096
401.565
393.619
386.6
380.551
375.26
370.55
366.299
362.418
358.846
355.536
352.454
349.57
346.864
344.316
341.912
339.64
337.487
335.446
333.508
331.667
329.915
328.248
326.661
325.149
323.709
322.336
321.029
319.783
318.596
317.465
316.389
315.365
314.39
313.464
312.583
311.747
310.954
310.202
309.49
308.816
308.179
307.578
307.01
306.476
305.973
305.5
305.056
304.641
304.252
303.889
303.55
303.235
302.942
302.671
302.419
302.187
301.972
301.775
301.594
301.428
301.277
301.139
301.013
300.899
300.795
300.702
300.618
300.543
300.475
300.415
300.361
300.313
300.271
300.234
300.201
300.172
300.147
300.125
300.107
300.09
300.076
300.064
300.053
300.044
300.037
300.031
300.025
300.021
300.017
300.014
300.011
300.009
300.007
300.006
300.005
300.004
300.003
300.002
300.002
300.001
300.001
300.001
300
300
300
300
300
300
300
300
300
300
300
300
300
300
300
300
300
300
300
300
300
300
300
300
300
300
300
300
300
300
300
300
300
300
300
300
300
300
300
300
386.997
392.385
397.301
401.678
405.515
408.829
411.636
413.95
415.774
417.107
417.94
418.255
418.03
417.23
415.813
413.722
410.886
407.221
402.642
397.127
390.915
384.924
379.439
374.472
369.963
365.844
362.055
358.55
355.292
352.248
349.396
346.714
344.187
341.801
339.542
337.402
335.371
333.442
331.608
329.863
328.202
326.62
325.113
323.677
322.308
321.003
319.76
318.576
317.448
316.373
315.351
314.378
313.453
312.574
311.739
310.947
310.196
309.485
308.811
308.175
307.574
307.007
306.473
305.971
305.498
305.055
304.64
304.251
303.888
303.55
303.235
302.942
302.671
302.419
302.187
301.973
301.775
301.594
301.429
301.277
301.139
301.013
300.899
300.795
300.702
300.618
300.543
300.475
300.415
300.361
300.313
300.271
300.234
300.201
300.173
300.147
300.126
300.107
300.09
300.076
300.064
300.053
300.045
300.037
300.031
300.025
300.021
300.017
300.014
300.011
300.009
300.007
300.006
300.005
300.004
300.003
300.002
300.002
300.001
300.001
300.001
300
300
300
300
300
300
300
300
300
300
300
300
300
300
300
300
300
300
300
300
300
300
300
300
300
300
300
300
300
300
300
300
300
300
300
300
300
300
300
300
382.955
387.552
391.871
395.818
399.349
402.446
405.1
407.307
409.062
410.356
411.176
411.505
411.321
410.596
409.294
407.377
404.801
401.527
397.541
392.902
387.824
382.724
377.848
373.288
369.054
365.128
361.479
358.078
354.899
351.918
349.115
346.474
343.98
341.621
339.385
337.265
335.25
333.336
331.514
329.78
328.128
326.554
325.054
323.625
322.261
320.962
319.723
318.543
317.418
316.347
315.327
314.357
313.434
312.558
311.725
310.934
310.185
309.475
308.803
308.168
307.568
307.002
306.468
305.966
305.495
305.052
304.637
304.249
303.887
303.549
303.234
302.941
302.67
302.419
302.186
301.972
301.775
301.594
301.429
301.277
301.139
301.013
300.899
300.796
300.702
300.618
300.543
300.475
300.415
300.361
300.314
300.271
300.234
300.201
300.173
300.148
300.126
300.107
300.09
300.076
300.064
300.053
300.045
300.037
300.031
300.025
300.021
300.017
300.014
300.011
300.009
300.007
300.006
300.005
300.004
300.003
300.002
300.002
300.001
300.001
300.001
300
300
300
300
300
300
300
300
300