/*--------------------------------*- C++ -*----------------------------------*\
  =========                 |
  \\      /  F ield         | OpenFOAM: The Open Source CFD Toolbox
   \\    /   O peration     | Website:  https://openfoam.org
    \\  /    A nd           | Version:  7
     \\/     M anipulation  |
\*---------------------------------------------------------------------------*/
FoamFile
{
    version     2.0;
    format      ascii;
    class       volVectorField;
    location    "0.35";
    object      U;
}
// * * * * * * * * * * * * * * * * * * * * * * * * * * * * * * * * * * * * * //

dimensions      [0 1 -1 0 0 0 0];

internalField   nonuniform List<vector> 
12013
(
(0.0999872 6.13372e-06 0)
(0.0998811 1.55024e-05 0)
(0.0996695 2.29675e-05 0)
(0.0994123 2.51629e-05 0)
(0.0991659 2.32205e-05 0)
(0.0989561 2.00073e-05 0)
(0.0987802 1.75565e-05 0)
(0.0986243 1.64633e-05 0)
(0.0984754 1.64486e-05 0)
(0.098326 1.70157e-05 0)
(0.0981731 1.77846e-05 0)
(0.0980164 1.85547e-05 0)
(0.0978566 1.92537e-05 0)
(0.0976945 1.98751e-05 0)
(0.097531 2.04366e-05 0)
(0.0973664 2.09602e-05 0)
(0.0972011 2.14642e-05 0)
(0.0970354 2.1963e-05 0)
(0.0968691 2.24677e-05 0)
(0.0967025 2.29859e-05 0)
(0.0965354 2.35249e-05 0)
(0.0963677 2.40899e-05 0)
(0.0961994 2.46862e-05 0)
(0.0960303 2.53174e-05 0)
(0.0958602 2.59877e-05 0)
(0.0956891 2.66995e-05 0)
(0.0955166 2.74554e-05 0)
(0.0953428 2.82557e-05 0)
(0.0951673 2.91016e-05 0)
(0.0949902 2.9993e-05 0)
(0.0948112 3.09286e-05 0)
(0.0946303 3.19085e-05 0)
(0.0944473 3.29312e-05 0)
(0.0942621 3.3996e-05 0)
(0.0940748 3.51029e-05 0)
(0.0938852 3.62516e-05 0)
(0.0936933 3.74427e-05 0)
(0.0934991 3.86776e-05 0)
(0.0933024 3.99579e-05 0)
(0.0931032 4.12867e-05 0)
(0.0929015 4.26675e-05 0)
(0.0926972 4.41051e-05 0)
(0.0924902 4.56049e-05 0)
(0.0922804 4.71742e-05 0)
(0.0920676 4.88211e-05 0)
(0.0918518 5.05554e-05 0)
(0.0916326 5.23892e-05 0)
(0.09141 5.43364e-05 0)
(0.0911836 5.64141e-05 0)
(0.0909531 5.8642e-05 0)
(0.0907181 6.10441e-05 0)
(0.0904782 6.36483e-05 0)
(0.0902329 6.64887e-05 0)
(0.0899815 6.96058e-05 0)
(0.0897232 7.30482e-05 0)
(0.0894573 7.68751e-05 0)
(0.0891827 8.11582e-05 0)
(0.0888981 8.59858e-05 0)
(0.088602 9.14663e-05 0)
(0.0882928 9.7735e-05 0)
(0.0879683 0.000104961 0)
(0.0876259 0.000113359 0)
(0.0872625 0.000123203 0)
(0.0868744 0.000134846 0)
(0.0864567 0.00014875 0)
(0.0860035 0.000165526 0)
(0.0855074 0.000185992 0)
(0.0849589 0.000211262 0)
(0.0843454 0.000242876 0)
(0.0836508 0.000283003 0)
(0.0828536 0.00033475 0)
(0.0819242 0.000402653 0)
(0.0808222 0.000493475 0)
(0.0794907 0.000617493 0)
(0.0778482 0.000790647 0)
(0.0757763 0.00103814 0)
(0.0730996 0.00140063 0)
(0.0695414 0.00194689 0)
(0.0646746 0.00281395 0)
(0.0580014 0.00438196 0)
(0.0505077 0.00835955 0)
(0.099989 1.86333e-05 0)
(0.0998851 4.7352e-05 0)
(0.0996767 7.02788e-05 0)
(0.0994219 7.7097e-05 0)
(0.0991767 7.1231e-05 0)
(0.0989669 6.14385e-05 0)
(0.0987906 5.39468e-05 0)
(0.0986341 5.05922e-05 0)
(0.0984847 5.05314e-05 0)
(0.098335 5.22511e-05 0)
(0.0981821 5.45925e-05 0)
(0.0980255 5.69414e-05 0)
(0.097866 5.90762e-05 0)
(0.0977043 6.09761e-05 0)
(0.0975411 6.26949e-05 0)
(0.097377 6.42984e-05 0)
(0.0972121 6.58434e-05 0)
(0.0970468 6.73734e-05 0)
(0.0968811 6.89214e-05 0)
(0.0967149 7.05123e-05 0)
(0.0965482 7.21668e-05 0)
(0.096381 7.39013e-05 0)
(0.096213 7.57313e-05 0)
(0.0960443 7.76694e-05 0)
(0.0958747 7.97268e-05 0)
(0.0957039 8.19119e-05 0)
(0.0955319 8.42309e-05 0)
(0.0953584 8.66872e-05 0)
(0.0951833 8.92829e-05 0)
(0.0950066 9.20169e-05 0)
(0.094828 9.48874e-05 0)
(0.0946475 9.78926e-05 0)
(0.0944649 0.000101029 0)
(0.0942802 0.000104295 0)
(0.0940933 0.00010769 0)
(0.0939041 0.000111212 0)
(0.0937127 0.000114864 0)
(0.0935189 0.00011865 0)
(0.0933227 0.000122575 0)
(0.0931241 0.000126649 0)
(0.0929229 0.000130881 0)
(0.0927192 0.000135287 0)
(0.0925127 0.000139884 0)
(0.0923035 0.000144693 0)
(0.0920914 0.000149739 0)
(0.0918763 0.000155052 0)
(0.0916579 0.000160669 0)
(0.091436 0.000166633 0)
(0.0912104 0.000172995 0)
(0.0909808 0.000179816 0)
(0.0907468 0.000187168 0)
(0.0905079 0.000195137 0)
(0.0902637 0.000203826 0)
(0.0900135 0.000213358 0)
(0.0897566 0.000223881 0)
(0.0894922 0.000235575 0)
(0.0892193 0.000248657 0)
(0.0889367 0.000263395 0)
(0.0886429 0.000280116 0)
(0.0883362 0.000299229 0)
(0.0880147 0.000321244 0)
(0.087676 0.000346807 0)
(0.087317 0.00037674 0)
(0.0869341 0.000412101 0)
(0.0865229 0.000454267 0)
(0.086078 0.000505055 0)
(0.0855923 0.000566884 0)
(0.0850573 0.000643032 0)
(0.0844619 0.000738 0)
(0.0837917 0.000858068 0)
(0.0830281 0.00101214 0)
(0.0821467 0.00121307 0)
(0.0811146 0.00147966 0)
(0.079888 0.0018399 0)
(0.0784079 0.00233588 0)
(0.0765956 0.00303132 0)
(0.0743485 0.00402203 0)
(0.0715321 0.00544943 0)
(0.0679985 0.00751669 0)
(0.0638016 0.0104493 0)
(0.0601388 0.0140841 0)
(0.0999905 3.1289e-05 0)
(0.0998919 8.04491e-05 0)
(0.0996911 0.00011988 0)
(0.0994425 0.00013198 0)
(0.0992004 0.000122361 0)
(0.098991 0.000105858 0)
(0.0988134 9.31166e-05 0)
(0.0986553 8.73417e-05 0)
(0.0985047 8.71567e-05 0)
(0.0983544 9.00172e-05 0)
(0.0982014 9.39582e-05 0)
(0.0980451 9.79336e-05 0)
(0.0978862 0.000101561 0)
(0.0977252 0.000104799 0)
(0.0975629 0.000107736 0)
(0.0973997 0.000110483 0)
(0.0972359 0.000113133 0)
(0.0970715 0.000115762 0)
(0.0969067 0.000118424 0)
(0.0967415 0.000121162 0)
(0.0965757 0.000124009 0)
(0.0964094 0.000126996 0)
(0.0962424 0.000130147 0)
(0.0960745 0.000133483 0)
(0.0959057 0.000137025 0)
(0.0957358 0.000140785 0)
(0.0955646 0.000144775 0)
(0.0953919 0.000149 0)
(0.0952177 0.000153463 0)
(0.0950418 0.000158162 0)
(0.094864 0.000163096 0)
(0.0946843 0.000168259 0)
(0.0945026 0.000173647 0)
(0.0943188 0.000179257 0)
(0.0941328 0.000185086 0)
(0.0939446 0.000191134 0)
(0.0937542 0.000197403 0)
(0.0935614 0.000203901 0)
(0.0933663 0.000210637 0)
(0.0931687 0.000217626 0)
(0.0929687 0.000224887 0)
(0.0927661 0.000232444 0)
(0.0925609 0.000240327 0)
(0.092353 0.000248572 0)
(0.0921423 0.00025722 0)
(0.0919285 0.000266325 0)
(0.0917117 0.000275946 0)
(0.0914914 0.000286159 0)
(0.0912675 0.000297048 0)
(0.0910397 0.000308718 0)
(0.0908076 0.000321289 0)
(0.0905708 0.000334909 0)
(0.0903289 0.00034975 0)
(0.0900812 0.000366019 0)
(0.0898271 0.000383967 0)
(0.0895657 0.000403894 0)
(0.0892962 0.000426165 0)
(0.0890174 0.000451227 0)
(0.0887279 0.000479628 0)
(0.0884263 0.000512047 0)
(0.0881107 0.000549329 0)
(0.0877788 0.000592539 0)
(0.0874279 0.000643027 0)
(0.0870549 0.000702521 0)
(0.0866558 0.000773254 0)
(0.0862259 0.000858145 0)
(0.0857592 0.000961051 0)
(0.0852485 0.00108713 0)
(0.0846849 0.00124336 0)
(0.0840573 0.00143933 0)
(0.0833518 0.00168833 0)
(0.0825511 0.00200903 0)
(0.0816342 0.00242789 0)
(0.0805758 0.00298254 0)
(0.0793466 0.00372639 0)
(0.0779172 0.00473396 0)
(0.0762651 0.00610461 0)
(0.0743908 0.00795841 0)
(0.0723575 0.01041 0)
(0.0704125 0.0134517 0)
(0.0692026 0.0165023 0)
(0.099992 4.36878e-05 0)
(0.0999014 0.000113984 0)
(0.0997129 0.000170865 0)
(0.0994745 0.000189251 0)
(0.0992378 0.00017653 0)
(0.0990289 0.000153542 0)
(0.0988494 0.00013549 0)
(0.0986888 0.000127126 0)
(0.0985364 0.000126655 0)
(0.0983851 0.000130548 0)
(0.098232 0.000136037 0)
(0.0980763 0.000141631 0)
(0.0979183 0.00014677 0)
(0.0977586 0.000151385 0)
(0.0975977 0.00015559 0)
(0.097436 0.000159536 0)
(0.0972736 0.000163356 0)
(0.0971108 0.000167152 0)
(0.0969475 0.000171001 0)
(0.0967838 0.000174964 0)
(0.0966195 0.000179088 0)
(0.0964547 0.000183415 0)
(0.0962891 0.00018798 0)
(0.0961226 0.000192814 0)
(0.0959552 0.000197943 0)
(0.0957866 0.000203386 0)
(0.0956167 0.00020916 0)
(0.0954453 0.00021527 0)
(0.0952724 0.000221722 0)
(0.0950978 0.000228513 0)
(0.0949214 0.000235639 0)
(0.094743 0.000243094 0)
(0.0945627 0.000250871 0)
(0.0943803 0.000258965 0)
(0.0941958 0.000267372 0)
(0.0940091 0.000276094 0)
(0.0938202 0.000285133 0)
(0.0936291 0.000294498 0)
(0.0934356 0.000304205 0)
(0.0932398 0.000314274 0)
(0.0930416 0.000324731 0)
(0.0928409 0.000335612 0)
(0.0926377 0.000346957 0)
(0.0924318 0.000358819 0)
(0.0922233 0.000371257 0)
(0.0920118 0.000384346 0)
(0.0917973 0.000398171 0)
(0.0915796 0.000412836 0)
(0.0913584 0.000428465 0)
(0.0911335 0.000445201 0)
(0.0909045 0.000463217 0)
(0.0906711 0.000482719 0)
(0.0904327 0.000503949 0)
(0.090189 0.000527198 0)
(0.0899392 0.000552816 0)
(0.0896826 0.000581222 0)
(0.0894184 0.000612925 0)
(0.0891456 0.000648543 0)
(0.0888629 0.000688831 0)
(0.0885691 0.000734725 0)
(0.0882625 0.000787379 0)
(0.0879412 0.00084824 0)
(0.0876029 0.000919127 0)
(0.0872449 0.00100235 0)
(0.0868641 0.00110087 0)
(0.0864566 0.0012185 0)
(0.086018 0.0013602 0)
(0.0855431 0.00153253 0)
(0.0850255 0.00174415 0)
(0.0844582 0.00200666 0)
(0.0838331 0.00233568 0)
(0.0831415 0.00275236 0)
(0.0823748 0.00328527 0)
(0.0815263 0.00397276 0)
(0.0805943 0.00486509 0)
(0.0795879 0.00602515 0)
(0.0785381 0.00752369 0)
(0.0775125 0.00942131 0)
(0.0766372 0.0117228 0)
(0.07612 0.0142694 0)
(0.0762117 0.0165091 0)
(0.0999936 5.54457e-05 0)
(0.0999134 0.000146972 0)
(0.0997412 0.000222117 0)
(0.0995171 0.000248164 0)
(0.0992879 0.000233554 0)
(0.0990804 0.00020474 0)
(0.0988986 0.000181515 0)
(0.0987349 0.000170395 0)
(0.09858 0.000169386 0)
(0.0984275 0.000174091 0)
(0.0982743 0.000180983 0)
(0.0981194 0.000188117 0)
(0.0979628 0.000194744 0)
(0.0978048 0.000200746 0)
(0.0976459 0.000206252 0)
(0.0974862 0.000211448 0)
(0.097326 0.000216496 0)
(0.0971653 0.000221527 0)
(0.0970042 0.00022664 0)
(0.0968425 0.000231911 0)
(0.0966803 0.000237401 0)
(0.0965175 0.000243164 0)
(0.0963539 0.000249244 0)
(0.0961893 0.000255681 0)
(0.0960238 0.000262507 0)
(0.095857 0.000269749 0)
(0.095689 0.000277423 0)
(0.0955195 0.000285541 0)
(0.0953484 0.000294106 0)
(0.0951756 0.000303115 0)
(0.0950011 0.000312564 0)
(0.0948246 0.000322442 0)
(0.0946462 0.000332742 0)
(0.0944658 0.000343458 0)
(0.0942834 0.000354584 0)
(0.0940988 0.000366121 0)
(0.0939121 0.000378073 0)
(0.0937232 0.000390453 0)
(0.0935321 0.00040328 0)
(0.0933387 0.000416579 0)
(0.0931431 0.000430387 0)
(0.092945 0.000444748 0)
(0.0927446 0.000459714 0)
(0.0925417 0.000475354 0)
(0.0923361 0.000491745 0)
(0.0921279 0.000508982 0)
(0.0919168 0.000527176 0)
(0.0917026 0.00054646 0)
(0.0914853 0.000566993 0)
(0.0912644 0.000588961 0)
(0.0910398 0.000612583 0)
(0.090811 0.000638122 0)
(0.0905778 0.000665887 0)
(0.0903395 0.000696249 0)
(0.0900958 0.000729649 0)
(0.0898459 0.000766617 0)
(0.0895892 0.000807792 0)
(0.0893248 0.000853948 0)
(0.0890517 0.000906025 0)
(0.0887688 0.000965176 0)
(0.0884747 0.00103282 0)
(0.088168 0.00111072 0)
(0.0878469 0.00120106 0)
(0.0875094 0.00130659 0)
(0.0871533 0.00143078 0)
(0.086776 0.00157805 0)
(0.0863746 0.00175401 0)
(0.0859461 0.00196592 0)
(0.0854874 0.00222312 0)
(0.0849956 0.00253771 0)
(0.0844683 0.00292539 0)
(0.0839049 0.00340638 0)
(0.0833076 0.0040065 0)
(0.082684 0.00475792 0)
(0.0820509 0.00569888 0)
(0.0814392 0.00687075 0)
(0.0809011 0.00830932 0)
(0.0805169 0.0100247 0)
(0.0803975 0.0119633 0)
(0.0806677 0.0139448 0)
(0.0813966 0.0155866 0)
(0.0999952 6.6152e-05 0)
(0.0999271 0.000178377 0)
(0.0997745 0.000272426 0)
(0.0995678 0.000307843 0)
(0.0993486 0.000293129 0)
(0.0991434 0.000259619 0)
(0.0989595 0.000231587 0)
(0.0987924 0.000217577 0)
(0.0986349 0.000215697 0)
(0.0984811 0.000220886 0)
(0.098328 0.000228936 0)
(0.0981742 0.00023746 0)
(0.0980193 0.0002455 0)
(0.0978636 0.000252868 0)
(0.0977071 0.00025969 0)
(0.0975501 0.000266172 0)
(0.0973926 0.000272504 0)
(0.0972346 0.000278838 0)
(0.0970762 0.000285292 0)
(0.0969172 0.000291958 0)
(0.0967577 0.00029891 0)
(0.0965974 0.00030621 0)
(0.0964363 0.000313913 0)
(0.0962743 0.000322066 0)
(0.0961111 0.000330707 0)
(0.0959468 0.000339866 0)
(0.0957811 0.000349564 0)
(0.095614 0.000359814 0)
(0.0954453 0.000370618 0)
(0.0952749 0.000381972 0)
(0.0951027 0.00039387 0)
(0.0949287 0.000406301 0)
(0.0947529 0.000419254 0)
(0.094575 0.000432721 0)
(0.0943952 0.000446696 0)
(0.0942134 0.000461179 0)
(0.0940295 0.000476177 0)
(0.0938436 0.000491704 0)
(0.0936556 0.000507783 0)
(0.0934654 0.000524447 0)
(0.093273 0.000541738 0)
(0.0930785 0.00055971 0)
(0.0928817 0.00057843 0)
(0.0926825 0.000597978 0)
(0.092481 0.000618449 0)
(0.0922769 0.000639957 0)
(0.0920702 0.000662639 0)
(0.0918608 0.000686655 0)
(0.0916483 0.000712195 0)
(0.0914328 0.000739483 0)
(0.0912138 0.000768784 0)
(0.0909912 0.000800411 0)
(0.0907646 0.000834733 0)
(0.0905336 0.00087219 0)
(0.0902979 0.000913305 0)
(0.0900568 0.000958703 0)
(0.0898098 0.00100913 0)
(0.0895563 0.00106549 0)
(0.0892956 0.00112886 0)
(0.0890267 0.00120057 0)
(0.0887489 0.00128222 0)
(0.0884609 0.00137579 0)
(0.0881618 0.0014837 0)
(0.0878503 0.00160894 0)
(0.0875251 0.00175524 0)
(0.087185 0.0019272 0)
(0.0868289 0.0021306 0)
(0.0864561 0.00237262 0)
(0.0860663 0.00266225 0)
(0.0856604 0.00301065 0)
(0.085241 0.00343163 0)
(0.0848135 0.00394195 0)
(0.0843876 0.00456154 0)
(0.0839794 0.005313 0)
(0.083614 0.00621985 0)
(0.0833287 0.00730236 0)
(0.0831756 0.00856904 0)
(0.0832217 0.0100017 0)
(0.0835422 0.0115327 0)
(0.0841986 0.0130176 0)
(0.0851908 0.0142215 0)
(0.0999967 7.54467e-05 0)
(0.0999414 0.000207264 0)
(0.0998101 0.00032063 0)
(0.0996233 0.00036736 0)
(0.0994161 0.000354817 0)
(0.0992147 0.000318189 0)
(0.0990295 0.000285973 0)
(0.0988594 0.000269006 0)
(0.0986994 0.000265879 0)
(0.0985445 0.000271138 0)
(0.0983917 0.000280013 0)
(0.0982393 0.000289709 0)
(0.0980867 0.000299037 0)
(0.0979336 0.000307715 0)
(0.0977802 0.000315846 0)
(0.0976263 0.00032364 0)
(0.097472 0.000331305 0)
(0.0973173 0.000339009 0)
(0.0971621 0.000346885 0)
(0.0970064 0.000355037 0)
(0.09685 0.00036355 0)
(0.0966928 0.000372496 0)
(0.0965348 0.000381936 0)
(0.0963757 0.000391922 0)
(0.0962155 0.0004025 0)
(0.0960541 0.000413701 0)
(0.0958913 0.000425549 0)
(0.095727 0.000438055 0)
(0.0955612 0.000451223 0)
(0.0953937 0.000465047 0)
(0.0952245 0.000479518 0)
(0.0950536 0.000494623 0)
(0.0948808 0.000510349 0)
(0.0947061 0.000526686 0)
(0.0945296 0.000543628 0)
(0.0943512 0.000561174 0)
(0.0941708 0.000579332 0)
(0.0939885 0.000598119 0)
(0.0938042 0.000617562 0)
(0.0936179 0.000637698 0)
(0.0934297 0.000658577 0)
(0.0932394 0.000680262 0)
(0.0930471 0.00070283 0)
(0.0928526 0.000726374 0)
(0.092656 0.000751005 0)
(0.0924571 0.000776856 0)
(0.0922559 0.000804082 0)
(0.0920522 0.00083287 0)
(0.091846 0.000863437 0)
(0.091637 0.00089604 0)
(0.0914252 0.00093098 0)
(0.0912102 0.000968612 0)
(0.0909918 0.00100936 0)
(0.0907699 0.00105371 0)
(0.090544 0.00110225 0)
(0.0903138 0.00115568 0)
(0.0900789 0.00121482 0)
(0.0898389 0.00128065 0)
(0.0895934 0.00135436 0)
(0.0893418 0.00143737 0)
(0.0890837 0.00153137 0)
(0.0888185 0.00163842 0)
(0.0885458 0.00176103 0)
(0.0882652 0.00190219 0)
(0.0879764 0.00206558 0)
(0.0876795 0.00225562 0)
(0.0873751 0.00247769 0)
(0.0870643 0.00273824 0)
(0.0867494 0.00304501 0)
(0.0864341 0.00340716 0)
(0.0861245 0.00383531 0)
(0.0858296 0.0043415 0)
(0.0855627 0.00493864 0)
(0.0853427 0.00563954 0)
(0.0851956 0.00645473 0)
(0.0851551 0.00738871 0)
(0.0852632 0.00843384 0)
(0.0855664 0.00956153 0)
(0.0861083 0.0107116 0)
(0.0869134 0.0117838 0)
(0.0879618 0.0126417 0)
(0.0999981 8.31052e-05 0)
(0.0999552 0.000232937 0)
(0.0998454 0.000365769 0)
(0.0996796 0.000425824 0)
(0.0994861 0.000418054 0)
(0.0992902 0.000380254 0)
(0.0991051 0.000344737 0)
(0.098933 0.000324861 0)
(0.0987712 0.000320122 0)
(0.0986157 0.000324988 0)
(0.0984636 0.000334297 0)
(0.098313 0.000344888 0)
(0.0981629 0.000355337 0)
(0.098013 0.000365241 0)
(0.0978629 0.000374654 0)
(0.0977126 0.000383775 0)
(0.097562 0.000392815 0)
(0.0974111 0.000401952 0)
(0.0972596 0.00041133 0)
(0.0971075 0.000421062 0)
(0.0969547 0.00043124 0)
(0.0968011 0.000441944 0)
(0.0966466 0.000453239 0)
(0.096491 0.000465183 0)
(0.0963342 0.000477822 0)
(0.0961761 0.000491192 0)
(0.0960167 0.000505315 0)
(0.0958558 0.000520202 0)
(0.0956933 0.000535856 0)
(0.0955293 0.000552269 0)
(0.0953635 0.000569429 0)
(0.0951961 0.00058732 0)
(0.095027 0.000605928 0)
(0.094856 0.000625239 0)
(0.0946834 0.000645248 0)
(0.0945089 0.000665954 0)
(0.0943327 0.000687364 0)
(0.0941547 0.000709499 0)
(0.0939749 0.000732388 0)
(0.0937933 0.000756072 0)
(0.0936099 0.000780609 0)
(0.0934247 0.000806067 0)
(0.0932376 0.000832533 0)
(0.0930488 0.000860112 0)
(0.092858 0.000888925 0)
(0.0926653 0.000919121 0)
(0.0924706 0.000950873 0)
(0.0922739 0.000984385 0)
(0.092075 0.0010199 0)
(0.0918739 0.00105769 0)
(0.0916705 0.00109809 0)
(0.0914646 0.00114148 0)
(0.0912562 0.00118833 0)
(0.091045 0.00123915 0)
(0.0908308 0.00129457 0)
(0.0906136 0.00135532 0)
(0.0903931 0.00142227 0)
(0.0901692 0.00149643 0)
(0.0899416 0.00157902 0)
(0.0897103 0.00167146 0)
(0.0894752 0.00177544 0)
(0.0892363 0.00189297 0)
(0.0889938 0.00202643 0)
(0.0887482 0.00217863 0)
(0.0885 0.00235288 0)
(0.0882505 0.00255309 0)
(0.0880016 0.00278378 0)
(0.0877559 0.00305018 0)
(0.0875173 0.0033582 0)
(0.0872915 0.00371443 0)
(0.0870861 0.00412589 0)
(0.0869114 0.0045997 0)
(0.0867813 0.00514235 0)
(0.0867136 0.00575864 0)
(0.0867302 0.00644977 0)
(0.0868575 0.00721084 0)
(0.0871244 0.00802718 0)
(0.0875594 0.00887026 0)
(0.0881842 0.00969393 0)
(0.0890049 0.0104335 0)
(0.09 0.011012 0)
(0.0999991 8.9084e-05 0)
(0.0999673 0.000255044 0)
(0.0998777 0.000407207 0)
(0.0997327 0.000482479 0)
(0.0995541 0.000482192 0)
(0.0993656 0.000445401 0)
(0.0991824 0.000407694 0)
(0.0990099 0.000385114 0)
(0.0988473 0.000378467 0)
(0.098692 0.000382491 0)
(0.0985411 0.000391821 0)
(0.0983927 0.000403001 0)
(0.0982456 0.000414375 0)
(0.0980991 0.000425397 0)
(0.0979528 0.000436049 0)
(0.0978065 0.0004465 0)
(0.0976599 0.000456951 0)
(0.097513 0.000467583 0)
(0.0973656 0.000478542 0)
(0.0972176 0.000489948 0)
(0.0970688 0.000501897 0)
(0.0969191 0.000514472 0)
(0.0967685 0.000527744 0)
(0.0966167 0.000541769 0)
(0.0964637 0.000556596 0)
(0.0963094 0.000572259 0)
(0.0961537 0.000588781 0)
(0.0959966 0.000606169 0)
(0.095838 0.000624425 0)
(0.0956778 0.000643536 0)
(0.095516 0.000663489 0)
(0.0953526 0.000684265 0)
(0.0951876 0.000705846 0)
(0.095021 0.000728218 0)
(0.0948528 0.000751373 0)
(0.0946829 0.000775311 0)
(0.0945114 0.000800039 0)
(0.0943383 0.000825579 0)
(0.0941637 0.000851961 0)
(0.0939874 0.000879232 0)
(0.0938096 0.000907451 0)
(0.0936303 0.000936694 0)
(0.0934493 0.000967054 0)
(0.0932669 0.00099864 0)
(0.0930829 0.00103159 0)
(0.0928973 0.00106605 0)
(0.0927102 0.00110222 0)
(0.0925215 0.0011403 0)
(0.0923312 0.00118055 0)
(0.0921392 0.00122326 0)
(0.0919456 0.00126879 0)
(0.0917503 0.00131751 0)
(0.0915533 0.00136992 0)
(0.0913545 0.00142653 0)
(0.091154 0.00148798 0)
(0.0909517 0.00155502 0)
(0.0907477 0.00162848 0)
(0.0905421 0.00170937 0)
(0.090335 0.00179885 0)
(0.0901265 0.00189827 0)
(0.0899172 0.00200919 0)
(0.0897075 0.00213343 0)
(0.0894982 0.0022731 0)
(0.0892902 0.0024306 0)
(0.0890852 0.00260867 0)
(0.0888851 0.00281041 0)
(0.0886927 0.00303922 0)
(0.0885116 0.00329884 0)
(0.0883465 0.00359317 0)
(0.0882037 0.00392614 0)
(0.0880912 0.00430139 0)
(0.0880187 0.00472187 0)
(0.0879986 0.00518914 0)
(0.0880453 0.00570246 0)
(0.0881753 0.00625763 0)
(0.0884066 0.00684547 0)
(0.0887569 0.00745016 0)
(0.0892414 0.00804779 0)
(0.089869 0.00860573 0)
(0.0906373 0.00908395 0)
(0.0915285 0.00943957 0)
(0.0999999 9.35172e-05 0)
(0.0999771 0.0002736 0)
(0.0999052 0.000444688 0)
(0.0997798 0.000536781 0)
(0.0996165 0.000546559 0)
(0.0994371 0.000513023 0)
(0.0992581 0.000474414 0)
(0.099087 0.000449518 0)
(0.0989251 0.000440797 0)
(0.0987709 0.000443599 0)
(0.0986219 0.000452564 0)
(0.0984761 0.000464027 0)
(0.0983323 0.000476117 0)
(0.0981895 0.000488136 0)
(0.0980473 0.000499973 0)
(0.0979051 0.000511748 0)
(0.0977628 0.000523642 0)
(0.0976203 0.000535825 0)
(0.0974772 0.000548444 0)
(0.0973334 0.000561616 0)
(0.0971889 0.000575441 0)
(0.0970435 0.000590002 0)
(0.096897 0.000605368 0)
(0.0967494 0.000621597 0)
(0.0966005 0.000638734 0)
(0.0964504 0.000656811 0)
(0.0962989 0.000675846 0)
(0.0961459 0.000695847 0)
(0.0959915 0.000716808 0)
(0.0958356 0.000738715 0)
(0.0956783 0.000761549 0)
(0.0955194 0.000785289 0)
(0.095359 0.000809916 0)
(0.0951972 0.000835411 0)
(0.0950339 0.000861766 0)
(0.0948692 0.000888978 0)
(0.094703 0.000917056 0)
(0.0945355 0.00094602 0)
(0.0943666 0.000975904 0)
(0.0941964 0.00100675 0)
(0.0940248 0.00103863 0)
(0.0938521 0.00107161 0)
(0.0936781 0.00110579 0)
(0.0935029 0.00114129 0)
(0.0933265 0.00117823 0)
(0.093149 0.00121679 0)
(0.0929705 0.00125715 0)
(0.0927908 0.00129952 0)
(0.0926102 0.00134417 0)
(0.0924286 0.00139138 0)
(0.0922461 0.0014415 0)
(0.0920627 0.00149492 0)
(0.0918786 0.0015521 0)
(0.0916938 0.00161356 0)
(0.0915086 0.00167991 0)
(0.091323 0.00175183 0)
(0.0911374 0.00183012 0)
(0.090952 0.00191569 0)
(0.0907674 0.00200959 0)
(0.0905839 0.00211299 0)
(0.0904024 0.00222725 0)
(0.0902238 0.00235387 0)
(0.0900493 0.00249454 0)
(0.0898804 0.00265112 0)
(0.0897192 0.00282563 0)
(0.0895682 0.00302022 0)
(0.0894306 0.00323709 0)
(0.0893102 0.00347845 0)
(0.0892122 0.00374629 0)
(0.0891423 0.00404224 0)
(0.0891078 0.00436723 0)
(0.0891171 0.00472116 0)
(0.0891796 0.00510234 0)
(0.0893061 0.00550698 0)
(0.0895075 0.00592849 0)
(0.0897949 0.00635684 0)
(0.0901778 0.006778 0)
(0.0906628 0.0071738 0)
(0.0912516 0.0075223 0)
(0.0919391 0.00779935 0)
(0.0927112 0.00798123 0)
(0.1 9.66722e-05 0)
(0.0999843 0.000288934 0)
(0.0999272 0.000478312 0)
(0.0998192 0.00058842 0)
(0.0996712 0.000610525 0)
(0.0995023 0.000582406 0)
(0.0993294 0.000544283 0)
(0.0991617 0.000517633 0)
(0.0990021 0.000506842 0)
(0.09885 0.000508162 0)
(0.0987036 0.000516442 0)
(0.098561 0.000527912 0)
(0.0984208 0.000540521 0)
(0.098282 0.000553414 0)
(0.0981439 0.000566377 0)
(0.0980061 0.000579467 0)
(0.0978683 0.000592829 0)
(0.0977302 0.000606619 0)
(0.0975916 0.000620971 0)
(0.0974524 0.000636 0)
(0.0973123 0.000651803 0)
(0.0971713 0.000668458 0)
(0.0970293 0.000686032 0)
(0.0968861 0.000704578 0)
(0.0967417 0.000724138 0)
(0.0965959 0.000744738 0)
(0.0964489 0.000766392 0)
(0.0963005 0.000789101 0)
(0.0961507 0.000812855 0)
(0.0959995 0.000837636 0)
(0.0958469 0.00086342 0)
(0.095693 0.000890182 0)
(0.0955377 0.000917899 0)
(0.0953812 0.000946552 0)
(0.0952233 0.000976127 0)
(0.0950643 0.00100662 0)
(0.094904 0.00103804 0)
(0.0947426 0.00107041 0)
(0.0945801 0.00110375 0)
(0.0944165 0.00113811 0)
(0.094252 0.00117356 0)
(0.0940865 0.00121016 0)
(0.0939202 0.00124801 0)
(0.093753 0.00128723 0)
(0.0935852 0.00132795 0)
(0.0934167 0.00137032 0)
(0.0932476 0.00141452 0)
(0.093078 0.00146077 0)
(0.0929081 0.00150931 0)
(0.092738 0.00156042 0)
(0.0925678 0.00161442 0)
(0.0923976 0.00167167 0)
(0.0922278 0.0017326 0)
(0.0920584 0.00179768 0)
(0.0918899 0.00186746 0)
(0.0917225 0.00194253 0)
(0.0915568 0.0020236 0)
(0.0913932 0.00211142 0)
(0.0912325 0.00220685 0)
(0.0910754 0.00231085 0)
(0.0909229 0.00242444 0)
(0.0907762 0.00254876 0)
(0.090637 0.00268499 0)
(0.090507 0.00283438 0)
(0.0903884 0.00299817 0)
(0.090284 0.00317757 0)
(0.090197 0.00337364 0)
(0.0901312 0.00358721 0)
(0.0900911 0.00381873 0)
(0.0900819 0.00406805 0)
(0.0901094 0.00433425 0)
(0.0901799 0.00461532 0)
(0.0903003 0.00490787 0)
(0.0904775 0.00520689 0)
(0.0907183 0.00550542 0)
(0.0910284 0.0057944 0)
(0.0914121 0.00606268 0)
(0.091871 0.00629725 0)
(0.0924037 0.00648393 0)
(0.0930041 0.0066084 0)
(0.0936618 0.0066577 0)
(0.1 9.88802e-05 0)
(0.0999893 0.000301576 0)
(0.0999436 0.000508443 0)
(0.0998508 0.000637315 0)
(0.0997173 0.000673568 0)
(0.0995599 0.000652809 0)
(0.0993948 0.000616579 0)
(0.0992322 0.000588892 0)
(0.0990764 0.000576214 0)
(0.0989277 0.000575938 0)
(0.0987846 0.000583312 0)
(0.0986456 0.000594571 0)
(0.0985093 0.000607529 0)
(0.0983746 0.000621186 0)
(0.0982409 0.000635219 0)
(0.0981076 0.000649612 0)
(0.0979743 0.000664467 0)
(0.0978408 0.000679913 0)
(0.0977069 0.000696069 0)
(0.0975722 0.000713039 0)
(0.0974368 0.000730913 0)
(0.0973004 0.000749762 0)
(0.097163 0.000769647 0)
(0.0970244 0.000790614 0)
(0.0968846 0.000812695 0)
(0.0967436 0.000835912 0)
(0.0966013 0.00086027 0)
(0.0964578 0.000885765 0)
(0.0963129 0.000912378 0)
(0.0961668 0.000940087 0)
(0.0960195 0.000968863 0)
(0.0958709 0.000998676 0)
(0.0957212 0.0010295 0)
(0.0955704 0.00106131 0)
(0.0954185 0.00109409 0)
(0.0952656 0.00112783 0)
(0.0951117 0.00116254 0)
(0.094957 0.00119823 0)
(0.0948015 0.00123493 0)
(0.0946452 0.00127268 0)
(0.0944883 0.00131154 0)
(0.0943308 0.00135157 0)
(0.0941728 0.00139286 0)
(0.0940145 0.00143552 0)
(0.0938559 0.00147966 0)
(0.0936972 0.00152543 0)
(0.0935385 0.001573 0)
(0.09338 0.00162256 0)
(0.0932218 0.00167432 0)
(0.0930642 0.00172854 0)
(0.0929073 0.00178549 0)
(0.0927515 0.00184549 0)
(0.092597 0.0019089 0)
(0.0924443 0.00197611 0)
(0.0922936 0.00204758 0)
(0.0921457 0.00212378 0)
(0.0920009 0.00220525 0)
(0.0918601 0.00229258 0)
(0.0917241 0.00238639 0)
(0.0915939 0.00248734 0)
(0.0914707 0.00259612 0)
(0.0913558 0.00271341 0)
(0.0912509 0.00283989 0)
(0.0911579 0.0029762 0)
(0.0910792 0.00312284 0)
(0.0910172 0.00328017 0)
(0.0909749 0.00344831 0)
(0.0909557 0.00362702 0)
(0.0909634 0.00381561 0)
(0.0910019 0.00401279 0)
(0.0910756 0.00421653 0)
(0.0911889 0.00442392 0)
(0.0913462 0.00463102 0)
(0.0915516 0.00483274 0)
(0.0918087 0.00502285 0)
(0.0921198 0.005194 0)
(0.0924862 0.00533791 0)
(0.0929069 0.00544572 0)
(0.0933792 0.00550854 0)
(0.0938975 0.00551807 0)
(0.0944541 0.00546739 0)
(0.1 0.000100472 0)
(0.0999924 0.000312141 0)
(0.0999553 0.000535605 0)
(0.0998752 0.000683568 0)
(0.0997551 0.000735308 0)
(0.0996095 0.000723552 0)
(0.0994535 0.000690564 0)
(0.0992976 0.000662662 0)
(0.0991469 0.000648445 0)
(0.0990025 0.000646615 0)
(0.0988634 0.000652979 0)
(0.0987285 0.000663883 0)
(0.0985964 0.000677062 0)
(0.0984661 0.000691396 0)
(0.0983368 0.000706454 0)
(0.0982081 0.000722142 0)
(0.0980795 0.000738513 0)
(0.0979507 0.00075566 0)
(0.0978214 0.000773684 0)
(0.0976915 0.000792671 0)
(0.0975608 0.000812699 0)
(0.0974291 0.00083383 0)
(0.0972965 0.000856113 0)
(0.0971627 0.000879585 0)
(0.0970278 0.000904268 0)
(0.0968918 0.000930174 0)
(0.0967545 0.000957299 0)
(0.0966161 0.00098563 0)
(0.0964765 0.00101514 0)
(0.0963359 0.0010458 0)
(0.0961941 0.00107758 0)
(0.0960513 0.00111044 0)
(0.0959076 0.00114434 0)
(0.0957629 0.00117927 0)
(0.0956175 0.00121519 0)
(0.0954712 0.0012521 0)
(0.0953243 0.00128999 0)
(0.0951768 0.00132888 0)
(0.0950288 0.00136877 0)
(0.0948804 0.00140971 0)
(0.0947318 0.00145174 0)
(0.0945829 0.00149491 0)
(0.094434 0.00153931 0)
(0.0942852 0.00158501 0)
(0.0941367 0.00163212 0)
(0.0939886 0.00168076 0)
(0.0938411 0.00173108 0)
(0.0936945 0.00178321 0)
(0.0935489 0.00183735 0)
(0.0934046 0.0018937 0)
(0.093262 0.00195247 0)
(0.0931214 0.00201392 0)
(0.0929833 0.00207831 0)
(0.0928479 0.00214593 0)
(0.092716 0.00221712 0)
(0.0925881 0.00229219 0)
(0.0924649 0.00237151 0)
(0.0923473 0.00245544 0)
(0.0922362 0.00254434 0)
(0.0921326 0.00263856 0)
(0.0920379 0.00273844 0)
(0.0919534 0.00284424 0)
(0.0918808 0.00295614 0)
(0.091822 0.00307423 0)
(0.0917789 0.0031984 0)
(0.0917539 0.00332834 0)
(0.0917494 0.00346345 0)
(0.0917682 0.00360276 0)
(0.091813 0.0037449 0)
(0.0918869 0.00388795 0)
(0.0919927 0.00402943 0)
(0.0921332 0.00416621 0)
(0.092311 0.00429447 0)
(0.0925281 0.00440973 0)
(0.0927859 0.0045069 0)
(0.0930849 0.0045804 0)
(0.0934246 0.00462442 0)
(0.0938031 0.00463316 0)
(0.0942174 0.00460121 0)
(0.0946629 0.00452395 0)
(0.0951338 0.00439786 0)
(0.1 0.000101735 0)
(0.099994 0.000321234 0)
(0.0999632 0.000560384 0)
(0.0998935 0.000727412 0)
(0.0997856 0.00079551 0)
(0.0996516 0.00079407 0)
(0.0995054 0.000765553 0)
(0.0993574 0.000738307 0)
(0.0992129 0.000723032 0)
(0.0990736 0.000719833 0)
(0.0989393 0.000725199 0)
(0.0988089 0.000735687 0)
(0.0986813 0.000749015 0)
(0.0985555 0.000763968 0)
(0.0984309 0.00078002 0)
(0.0983068 0.000797003 0)
(0.0981829 0.000814912 0)
(0.0980588 0.000833803 0)
(0.0979343 0.000853749 0)
(0.0978092 0.000874818 0)
(0.0976833 0.00089707 0)
(0.0975566 0.000920552 0)
(0.0974289 0.000945301 0)
(0.0973001 0.000971341 0)
(0.0971703 0.000998681 0)
(0.0970395 0.00102732 0)
(0.0969076 0.00105725 0)
(0.0967746 0.00108843 0)
(0.0966406 0.00112085 0)
(0.0965057 0.00115445 0)
(0.0963699 0.00118921 0)
(0.0962333 0.00122506 0)
(0.096096 0.00126199 0)
(0.0959579 0.00129994 0)
(0.0958193 0.00133889 0)
(0.0956802 0.00137883 0)
(0.0955408 0.00141974 0)
(0.095401 0.00146161 0)
(0.0952611 0.00150446 0)
(0.0951211 0.00154831 0)
(0.0949813 0.00159318 0)
(0.0948417 0.00163912 0)
(0.0947025 0.00168618 0)
(0.0945639 0.00173442 0)
(0.0944261 0.00178391 0)
(0.0942893 0.00183475 0)
(0.0941537 0.00188703 0)
(0.0940197 0.00194087 0)
(0.0938874 0.00199638 0)
(0.0937573 0.00205371 0)
(0.0936296 0.002113 0)
(0.0935049 0.0021744 0)
(0.0933836 0.00223809 0)
(0.0932663 0.00230423 0)
(0.0931535 0.002373 0)
(0.0930459 0.00244455 0)
(0.0929443 0.00251906 0)
(0.0928495 0.00259665 0)
(0.0927627 0.00267742 0)
(0.0926847 0.00276143 0)
(0.0926169 0.00284866 0)
(0.0925606 0.00293901 0)
(0.0925173 0.00303226 0)
(0.0924886 0.00312803 0)
(0.0924762 0.00322575 0)
(0.092482 0.00332465 0)
(0.092508 0.00342367 0)
(0.0925561 0.00352144 0)
(0.0926283 0.00361624 0)
(0.0927266 0.00370595 0)
(0.0928527 0.00378808 0)
(0.0930081 0.00385969 0)
(0.093194 0.00391746 0)
(0.0934112 0.00395774 0)
(0.0936599 0.00397663 0)
(0.0939394 0.00397012 0)
(0.0942486 0.00393429 0)
(0.0945854 0.00386549 0)
(0.094947 0.00376057 0)
(0.0953298 0.00361714 0)
(0.0957293 0.00343359 0)
(0.1 0.000102893 0)
(0.0999947 0.000329388 0)
(0.0999683 0.000583354 0)
(0.0999069 0.000769152 0)
(0.0998099 0.000854075 0)
(0.0996871 0.000863923 0)
(0.0995511 0.000840947 0)
(0.0994116 0.000815225 0)
(0.0992742 0.000799461 0)
(0.0991408 0.000795196 0)
(0.0990118 0.000799686 0)
(0.0988863 0.000809781 0)
(0.0987635 0.00082324 0)
(0.0986425 0.000838792 0)
(0.0985226 0.000855829 0)
(0.0984033 0.000874113 0)
(0.0982841 0.000893583 0)
(0.0981649 0.000914255 0)
(0.0980452 0.000936169 0)
(0.097925 0.00095937 0)
(0.0978041 0.000983897 0)
(0.0976824 0.00100978 0)