/*--------------------------------*- C++ -*----------------------------------*\
  =========                 |
  \\      /  F ield         | OpenFOAM: The Open Source CFD Toolbox
   \\    /   O peration     | Website:  https://openfoam.org
    \\  /    A nd           | Version:  7
     \\/     M anipulation  |
\*---------------------------------------------------------------------------*/
FoamFile
{
    version     2.0;
    format      ascii;
    class       surfaceScalarField;
    location    "8";
    object      phi;
}
// * * * * * * * * * * * * * * * * * * * * * * * * * * * * * * * * * * * * * //

dimensions      [1 0 -1 0 0 0 0];

internalField   nonuniform List<scalar> 
23692
(
1.19393e-05
-3.04866e-07
1.24584e-05
-5.18907e-07
1.31555e-05
-6.96836e-07
1.40024e-05
-8.4644e-07
1.49788e-05
-9.75953e-07
1.60707e-05
-1.09132e-06
1.72684e-05
-1.197e-06
1.85655e-05
-1.29629e-06
1.99576e-05
-1.39126e-06
2.14413e-05
-1.48278e-06
2.30129e-05
-1.5706e-06
2.46674e-05
-1.65352e-06
2.63982e-05
-1.72973e-06
2.81964e-05
-1.79711e-06
3.00512e-05
-1.85363e-06
3.19499e-05
-1.89758e-06
3.38789e-05
-1.92776e-06
3.58237e-05
-1.94357e-06
3.77699e-05
-1.94501e-06
3.97037e-05
-1.93258e-06
4.16122e-05
-1.90724e-06
4.34836e-05
-1.87022e-06
4.53078e-05
-1.82296e-06
4.7076e-05
-1.76697e-06
4.8781e-05
-1.70377e-06
5.04171e-05
-1.63484e-06
5.19798e-05
-1.56155e-06
5.34661e-05
-1.48512e-06
5.4874e-05
-1.40668e-06
5.62024e-05
-1.32719e-06
5.7451e-05
-1.24747e-06
5.86203e-05
-1.16822e-06
5.97115e-05
-1.09002e-06
6.07259e-05
-1.01334e-06
6.16656e-05
-9.38552e-07
6.25326e-05
-8.65961e-07
6.33294e-05
-7.95787e-07
6.40586e-05
-7.28197e-07
6.47229e-05
-6.63302e-07
6.53251e-05
-6.01174e-07
6.58679e-05
-5.41847e-07
6.63542e-05
-4.85325e-07
6.67867e-05
-4.31589e-07
6.71681e-05
-3.80598e-07
6.75013e-05
-3.32292e-07
6.77887e-05
-2.86598e-07
6.80329e-05
-2.4343e-07
6.82364e-05
-2.02689e-07
6.84014e-05
-1.64266e-07
6.85302e-05
-1.28042e-07
6.86248e-05
-9.38856e-08
6.86871e-05
-6.16572e-08
6.87189e-05
-3.12044e-08
6.87219e-05
-2.36392e-09
6.86974e-05
2.50034e-08
6.86469e-05
5.10463e-08
6.85715e-05
7.59339e-08
6.84721e-05
9.98649e-08
6.83495e-05
1.23061e-07
6.82041e-05
1.45765e-07
6.80362e-05
1.68249e-07
6.78458e-05
1.90819e-07
6.76323e-05
2.13826e-07
6.73949e-05
2.37672e-07
6.71323e-05
2.62835e-07
6.68427e-05
2.89884e-07
6.65234e-05
3.19516e-07
6.6171e-05
3.52601e-07
6.57809e-05
3.9026e-07
6.53471e-05
4.33968e-07
6.48615e-05
4.85741e-07
6.43132e-05
5.48424e-07
6.36871e-05
6.26193e-07
6.29617e-05
7.25445e-07
6.21054e-05
8.56432e-07
6.1069e-05
1.0364e-06
5.97732e-05
1.29585e-06
5.80813e-05
1.69201e-06
5.57376e-05
2.34372e-06
5.21885e-05
3.54909e-06
6.61666e-06
4.55719e-05
1.27645e-05
-6.2116e-07
1.3316e-05
-1.07022e-06
1.40589e-05
-1.43939e-06
1.49621e-05
-1.74923e-06
1.60044e-05
-2.01765e-06
1.71704e-05
-2.25674e-06
1.84499e-05
-2.47576e-06
1.9836e-05
-2.68158e-06
2.13242e-05
-2.87854e-06
2.29108e-05
-3.06845e-06
2.45921e-05
-3.2508e-06
2.63628e-05
-3.4231e-06
2.82157e-05
-3.58157e-06
3.01416e-05
-3.72182e-06
3.21288e-05
-3.83957e-06
3.41637e-05
-3.93124e-06
3.62315e-05
-3.99432e-06
3.83168e-05
-4.02755e-06
4.0404e-05
-4.0309e-06
4.24781e-05
-4.00543e-06
4.45253e-05
-3.9531e-06
4.65329e-05
-3.8765e-06
4.84899e-05
-3.77859e-06
5.03868e-05
-3.66255e-06
5.22158e-05
-3.53153e-06
5.39709e-05
-3.38859e-06
5.56472e-05
-3.23659e-06
5.72415e-05
-3.07809e-06
5.87515e-05
-2.91541e-06
6.01761e-05
-2.75055e-06
6.1515e-05
-2.58521e-06
6.27689e-05
-2.42086e-06
6.39388e-05
-2.25869e-06
6.50263e-05
-2.09967e-06
6.60335e-05
-1.9446e-06
6.69628e-05
-1.79407e-06
6.78167e-05
-1.64856e-06
6.8598e-05
-1.50841e-06
6.93096e-05
-1.37385e-06
6.99545e-05
-1.24502e-06
7.05357e-05
-1.122e-06
7.10561e-05
-1.00479e-06
7.15189e-05
-8.93348e-07
7.19268e-05
-7.87589e-07
7.22828e-05
-6.87389e-07
7.25897e-05
-5.92594e-07
7.28502e-05
-5.03023e-07
7.30668e-05
-4.18471e-07
7.3242e-05
-3.38711e-07
7.33782e-05
-2.63494e-07
7.34776e-05
-1.9255e-07
7.35423e-05
-1.25587e-07
7.3574e-05
-6.22878e-08
7.35746e-05
-2.31753e-09
7.35456e-05
5.46023e-08
7.34884e-05
1.08797e-07
7.34043e-05
1.60613e-07
7.32942e-05
2.1046e-07
7.31589e-05
2.58792e-07
7.2999e-05
3.06108e-07
7.28147e-05
3.52962e-07
7.2606e-05
3.99976e-07
7.23723e-05
4.47859e-07
7.21128e-05
4.97426e-07
7.18263e-05
5.49632e-07
7.15109e-05
6.05611e-07
7.11639e-05
6.66741e-07
7.0782e-05
7.34729e-07
7.03607e-05
8.11741e-07
6.98942e-05
9.00595e-07
6.9375e-05
1.00506e-06
6.87932e-05
1.13035e-06
6.81357e-05
1.28385e-06
6.73848e-05
1.47644e-06
6.65167e-05
1.72461e-06
6.54989e-05
2.05423e-06
6.4288e-05
2.50683e-06
6.28292e-05
3.1508e-06
6.10696e-05
4.10341e-06
5.90481e-05
5.57063e-06
7.83559e-06
5.78292e-05
1.3643e-05
-9.45425e-07
1.42245e-05
-1.65155e-06
1.50115e-05
-2.22605e-06
1.59712e-05
-2.7085e-06
1.70805e-05
-3.12635e-06
1.83229e-05
-3.49848e-06
1.96874e-05
-3.83943e-06
2.11667e-05
-4.15999e-06
2.27561e-05
-4.46697e-06
2.4452e-05
-4.76327e-06
2.62504e-05
-5.04808e-06
2.8146e-05
-5.31754e-06
3.01313e-05
-5.56568e-06
3.21963e-05
-5.78559e-06
3.43286e-05
-5.9705e-06
3.65134e-05
-6.11475e-06
3.87348e-05
-6.21434e-06
4.09759e-05
-6.26726e-06
4.32198e-05
-6.27341e-06
4.54503e-05
-6.23448e-06
4.76521e-05
-6.1535e-06
4.98115e-05
-6.03452e-06
5.19165e-05
-5.88221e-06
5.39569e-05
-5.70153e-06
5.59242e-05
-5.49745e-06
5.78118e-05
-5.27474e-06
5.96145e-05
-5.03788e-06
6.13286e-05
-4.79089e-06
6.29519e-05
-4.53738e-06
6.44832e-05
-4.28048e-06
6.59222e-05
-4.02286e-06
6.72694e-05
-3.76679e-06
6.85262e-05
-3.51414e-06
6.96942e-05
-3.26642e-06
7.07757e-05
-3.02486e-06
7.17732e-05
-2.79039e-06
7.26896e-05
-2.56376e-06
7.35278e-05
-2.34547e-06
7.4291e-05
-2.13589e-06
7.49824e-05
-1.93524e-06
7.56051e-05
-1.74363e-06
7.61624e-05
-1.56106e-06
7.66576e-05
-1.38746e-06
7.70937e-05
-1.2227e-06
7.74739e-05
-1.06658e-06
7.78011e-05
-9.18846e-07
7.80782e-05
-7.79225e-07
7.8308e-05
-6.47392e-07
7.84932e-05
-5.22991e-07
7.86361e-05
-4.05633e-07
7.87393e-05
-2.94896e-07
7.88047e-05
-1.90324e-07
7.88346e-05
-9.14289e-08
7.88307e-05
2.31283e-09
7.87946e-05
9.13049e-08
7.87279e-05
1.76092e-07
7.86319e-05
2.57202e-07
7.85076e-05
3.35267e-07
7.8356e-05
4.10982e-07
7.81774e-05
4.85106e-07
7.79724e-05
5.58478e-07
7.77407e-05
6.32037e-07
7.74821e-05
7.0684e-07
7.71958e-05
7.841e-07
7.68805e-05
8.65218e-07
7.65345e-05
9.51847e-07
7.61556e-05
1.04596e-06
7.57405e-05
1.14998e-06
7.52856e-05
1.2669e-06
7.47858e-05
1.40055e-06
7.42351e-05
1.55586e-06
7.36262e-05
1.73942e-06
7.295e-05
1.96014e-06
7.21963e-05
2.2303e-06
7.13539e-05
2.56711e-06
7.04133e-05
2.99481e-06
6.93729e-05
3.54735e-06
6.82526e-05
4.2711e-06
6.71306e-05
5.22555e-06
6.62311e-05
6.47015e-06
7.99103e-06
6.60757e-05
1.458e-05
-1.27564e-06
1.51889e-05
-2.2602e-06
1.60186e-05
-3.05541e-06
1.70346e-05
-3.72403e-06
1.82119e-05
-4.30302e-06
1.95328e-05
-4.81863e-06
2.09854e-05
-5.29118e-06
2.25622e-05
-5.73581e-06
2.42583e-05
-6.16212e-06
2.60704e-05
-6.5742e-06
2.79945e-05
-6.97102e-06
3.00254e-05
-7.34714e-06
3.21552e-05
-7.69416e-06
3.43732e-05
-8.00229e-06
3.66661e-05
-8.26193e-06
3.90178e-05
-8.46502e-06
4.14107e-05
-8.60585e-06
4.38265e-05
-8.6815e-06
4.62464e-05
-8.69182e-06
4.86525e-05
-8.63912e-06
5.10282e-05
-8.52766e-06
5.33583e-05
-8.36312e-06
5.56297e-05
-8.15205e-06
5.7831e-05
-7.90141e-06
5.99533e-05
-7.61816e-06
6.1989e-05
-7.30898e-06
6.39327e-05
-6.98012e-06
6.57805e-05
-6.63722e-06
6.75299e-05
-6.2853e-06
6.91795e-05
-5.92871e-06
7.07293e-05
-5.57118e-06
7.21797e-05
-5.21585e-06
7.35323e-05
-4.86531e-06
7.47889e-05
-4.52168e-06
7.5952e-05
-4.18662e-06
7.70244e-05
-3.86145e-06
7.80091e-05
-3.54717e-06
7.89094e-05
-3.24449e-06
7.97286e-05
-2.9539e-06
8.04703e-05
-2.6757e-06
8.11378e-05
-2.41003e-06
8.17348e-05
-2.15689e-06
8.22646e-05
-1.91617e-06
8.27307e-05
-1.68768e-06
8.31363e-05
-1.47113e-06
8.34846e-05
-1.26618e-06
8.37788e-05
-1.07244e-06
8.40218e-05
-8.89451e-07
8.42165e-05
-7.16717e-07
8.43654e-05
-5.53697e-07
8.44712e-05
-3.99808e-07
8.45361e-05
-2.54417e-07
8.45623e-05
-1.16845e-07
8.45517e-05
1.35841e-08
8.45062e-05
1.37486e-07
8.44274e-05
2.55563e-07
8.43167e-05
3.68575e-07
8.41751e-05
4.7738e-07
8.40038e-05
5.82915e-07
8.38032e-05
6.86196e-07
8.35738e-05
7.8834e-07
8.33157e-05
8.90582e-07
8.30286e-05
9.94305e-07
8.2712e-05
1.10107e-06
8.23649e-05
1.21266e-06
8.19859e-05
1.33114e-06
8.15732e-05
1.45895e-06
8.11244e-05
1.59898e-06
8.06368e-05
1.75474e-06
8.0107e-05
1.93053e-06
7.95313e-05
2.13171e-06
7.89059e-05
2.36502e-06
7.82271e-05
2.63902e-06
7.74929e-05
2.9646e-06
7.67047e-05
3.35545e-06
7.58712e-05
3.82841e-06
7.50156e-05
4.40303e-06
7.41872e-05
5.09953e-06
7.34799e-05
5.93293e-06
7.30508e-05
6.89926e-06
7.94314e-06
7.30988e-05
1.55809e-05
-1.61082e-06
1.6215e-05
-2.8941e-06
1.70862e-05
-3.92619e-06
1.81583e-05
-4.79557e-06
1.94045e-05
-5.54859e-06
2.08059e-05
-6.21928e-06
2.235e-05
-6.83436e-06
2.4029e-05
-7.41378e-06
2.58383e-05
-7.97032e-06
2.77748e-05
-8.50951e-06
2.98351e-05
-9.03002e-06
3.2014e-05
-9.52466e-06
3.43034e-05
-9.98219e-06
3.6692e-05
-1.03895e-05
3.91651e-05
-1.07335e-05
4.17051e-05
-1.10035e-05
4.42924e-05
-1.11916e-05
4.69064e-05
-1.12939e-05
4.95263e-05
-1.13101e-05
5.2132e-05
-1.12433e-05
5.4705e-05
-1.1099e-05
5.72286e-05
-1.0885e-05
5.9688e-05
-1.06098e-05
6.2071e-05
-1.02828e-05
6.43674e-05
-9.91299e-06
6.65693e-05
-9.50934e-06
6.86708e-05
-9.08002e-06
7.06677e-05
-8.63247e-06
7.25572e-05
-8.17326e-06
7.43381e-05
-7.7081e-06
7.60103e-05
-7.24185e-06
7.75745e-05
-6.7786e-06
7.90324e-05
-6.32172e-06
8.03862e-05
-5.87395e-06
8.16384e-05
-5.43747e-06
8.27923e-05
-5.01396e-06
8.38512e-05
-4.60469e-06
8.48187e-05
-4.2106e-06
8.56984e-05
-3.83229e-06
8.64941e-05
-3.47014e-06
8.72097e-05
-3.12432e-06
8.78488e-05
-2.7948e-06
8.84153e-05
-2.48145e-06
8.89128e-05
-2.18398e-06
8.93448e-05
-1.90203e-06
8.97148e-05
-1.63513e-06
9.00262e-05
-1.38276e-06
9.02821e-05
-1.14433e-06
9.04856e-05
-9.1919e-07
9.06395e-05
-7.06628e-07
9.07464e-05
-5.05888e-07
9.0809e-05
-3.16152e-07
9.08296e-05
-1.36543e-07
9.08101e-05
3.37845e-08
9.07527e-05
1.9564e-07
9.06591e-05
3.49921e-07
9.05307e-05
4.97622e-07
9.03689e-05
6.39832e-07
9.01746e-05
7.77722e-07
8.99488e-05
9.12553e-07
8.9692e-05
1.0457e-06
8.94044e-05
1.17865e-06
8.90861e-05
1.31307e-06
8.87367e-05
1.45079e-06
8.83558e-05
1.59389e-06
8.79426e-05
1.74469e-06
8.7496e-05
1.90589e-06
8.70147e-05
2.08057e-06
8.64973e-05
2.27234e-06
8.59426e-05
2.48545e-06
8.53496e-05
2.72488e-06
8.47183e-05
2.99649e-06
8.40503e-05
3.30713e-06
8.33504e-05
3.6646e-06
8.26286e-05
4.07742e-06
8.19029e-05
4.55414e-06
8.12042e-05
5.10185e-06
8.05804e-05
5.72343e-06
8.01005e-05
6.41285e-06
7.98518e-05
7.14806e-06
7.87975e-06
7.99152e-05
1.66511e-05
-1.95096e-06
1.73092e-05
-3.55197e-06
1.82211e-05
-4.83766e-06
1.93492e-05
-5.92314e-06
2.06655e-05
-6.86422e-06
2.215e-05
-7.70286e-06
2.37894e-05
-8.47282e-06
2.55762e-05
-9.19949e-06
2.75064e-05
-9.89929e-06
2.95776e-05
-1.05795e-05
3.17873e-05
-1.12383e-05
3.41306e-05
-1.18666e-05
3.65995e-05
-1.24495e-05
3.91816e-05
-1.297e-05
4.18605e-05
-1.34108e-05
4.46165e-05
-1.37578e-05
4.74273e-05
-1.40007e-05
5.02693e-05
-1.41342e-05
5.31191e-05
-1.41581e-05
5.59538e-05
-1.40763e-05
5.87526e-05
-1.38961e-05
6.14966e-05
-1.36273e-05
6.41696e-05
-1.32811e-05
6.67579e-05
-1.28694e-05
6.92506e-05
-1.2404e-05
7.16391e-05
-1.1896e-05
7.39168e-05
-1.13561e-05
7.60794e-05
-1.07934e-05
7.81243e-05
-1.02164e-05
8.00501e-05
-9.63229e-06
8.1857e-05
-9.04708e-06
8.35459e-05
-8.46592e-06
8.51188e-05
-7.89301e-06
8.65782e-05
-7.33176e-06
8.79271e-05
-6.78487e-06
8.9169e-05
-6.2544e-06
9.03078e-05
-5.74193e-06
9.13472e-05
-5.24858e-06
9.22914e-05
-4.77508e-06
9.31445e-05
-4.32188e-06
9.39107e-05
-3.88915e-06
9.45941e-05
-3.47686e-06
9.51987e-05
-3.08479e-06
9.57285e-05
-2.71258e-06
9.61875e-05
-2.35974e-06
9.65792e-05
-2.02569e-06
9.69073e-05
-1.70977e-06
9.71753e-05
-1.41121e-06
9.73864e-05
-1.12921e-06
9.75436e-05
-8.62872e-07
9.765e-05
-6.11262e-07
9.77081e-05
-3.73366e-07
9.77206e-05
-1.48105e-07
9.76896e-05
6.5549e-08
9.76175e-05
2.68594e-07
9.7506e-05
4.62148e-07
9.73569e-05
6.47445e-07
9.71716e-05
8.25794e-07
9.69514e-05
9.98589e-07
9.66972e-05
1.16731e-06
9.64099e-05
1.33355e-06
9.609e-05
1.49901e-06
9.5738e-05
1.66556e-06
9.5354e-05
1.83521e-06
9.49381e-05
2.01018e-06
9.44902e-05
2.19292e-06
9.40103e-05
2.38612e-06
9.34984e-05
2.5928e-06
9.29547e-05
2.81628e-06
9.23801e-05
3.06026e-06
9.17764e-05
3.32877e-06
9.11469e-05
3.62615e-06
9.04973e-05
3.95691e-06
8.98367e-05
4.3254e-06
8.91789e-05
4.73528e-06
8.85445e-05
5.18866e-06
8.79617e-05
5.68473e-06
8.74674e-05
6.21788e-06
8.7105e-05
6.77532e-06
8.69186e-05
7.33448e-06
7.86102e-06
8.69374e-05
1.7796e-05
-2.29677e-06
1.84777e-05
-4.23343e-06
1.94303e-05
-5.78983e-06
2.06152e-05
-7.10742e-06
2.20034e-05
-8.25165e-06
2.3574e-05
-9.2725e-06
2.53136e-05
-1.02114e-05
2.72153e-05
-1.11e-05
2.92762e-05
-1.19589e-05
3.14956e-05
-1.27974e-05
3.38721e-05
-1.36134e-05
3.64019e-05
-1.43948e-05
3.90765e-05
-1.51225e-05
4.18823e-05
-1.57741e-05
4.48006e-05
-1.63274e-05
4.78084e-05
-1.67638e-05
5.08797e-05
-1.70702e-05
5.39873e-05
-1.72399e-05
5.71036e-05
-1.72726e-05
6.02028e-05
-1.71736e-05
6.3261e-05
-1.69523e-05
6.62569e-05
-1.66213e-05
6.91726e-05
-1.61949e-05
7.1993e-05
-1.5688e-05
7.47062e-05
-1.51153e-05
7.73029e-05
-1.44909e-05
7.97765e-05
-1.38278e-05
8.21225e-05
-1.31376e-05
8.43382e-05
-1.24304e-05
8.64228e-05
-1.17151e-05
8.83765e-05
-1.0999e-05
9.02007e-05
-1.02884e-05
9.18979e-05
-9.58846e-06
9.34709e-05
-8.90315e-06
9.49234e-05
-8.23572e-06
9.62593e-05
-7.58867e-06
9.74828e-05
-6.96384e-06
9.85983e-05
-6.36252e-06
9.96103e-05
-5.78559e-06
0.000100523
-5.23352e-06
0.000101342
-4.70649e-06
0.000102071
-4.2044e-06
0.000102715
-3.72697e-06
0.000103277
-3.27373e-06
0.000103763
-2.84405e-06
0.000104176
-2.43722e-06
0.000104519
-2.05239e-06
0.000104798
-1.68864e-06
0.000105015
-1.34497e-06
0.000105174
-1.02032e-06
0.000105277
-7.13533e-07
0.000105328
-4.23409e-07
0.000105329
-1.48667e-07
0.000105284
1.11914e-07
0.000105194
3.59528e-07
0.000105061
5.95531e-07
0.000104888
8.21385e-07
0.000104676
1.03861e-06
0.000104426
1.2488e-06
0.000104141
1.45362e-06
0.00010382
1.65483e-06
0.000103465
1.85429e-06
0.000103077
2.05396e-06
0.000102657
2.25596e-06
0.000102205
2.46249e-06
0.000101723
2.67595e-06
0.00010121
2.89885e-06
0.000100669
3.13386e-06
0.000100102
3.38374e-06
9.95115e-05
3.65133e-06
9.8901e-05
3.93946e-06
9.82766e-05
4.25075e-06
9.76463e-05
4.58741e-06
9.7021e-05
4.95088e-06
9.64151e-05
5.34127e-06
9.58471e-05
5.75676e-06
9.53392e-05
6.19273e-06
9.49163e-05
6.64092e-06
9.46031e-05
7.08858e-06
9.44195e-05
7.51819e-06
7.90845e-06
9.43722e-05
1.90214e-05
-2.64961e-06
1.97273e-05
-4.93898e-06
2.07215e-05
-6.78361e-06
2.19647e-05
-8.34996e-06
2.34274e-05
-9.71349e-06
2.50882e-05
-1.09323e-05
2.69343e-05
-1.20564e-05
2.89602e-05
-1.31245e-05
3.1165e-05
-1.41624e-05
3.35507e-05
-1.51816e-05
3.61179e-05
-1.6179e-05
3.88638e-05
-1.7139e-05
4.17796e-05
-1.80364e-05
4.48493e-05
-1.8842e-05
4.80508e-05
-1.9527e-05
5.13563e-05
-2.00674e-05
5.47346e-05
-2.04466e-05
5.81532e-05
-2.06566e-05
6.15801e-05
-2.06975e-05
6.4985e-05
-2.05765e-05
6.83408e-05
-2.03061e-05
7.16237e-05
-1.99022e-05
7.48137e-05
-1.93829e-05
7.78945e-05
-1.87668e-05
8.08534e-05
-1.80722e-05
8.36808e-05
-1.73163e-05
8.63699e-05
-1.65149e-05
8.89164e-05
-1.56821e-05
9.1318e-05
-1.48301e-05
9.35742e-05
-1.39694e-05
9.56859e-05
-1.31088e-05
9.76551e-05
-1.22558e-05
9.94847e-05
-1.14163e-05
0.000101178
-1.0595e-05
0.00010274
-9.79583e-06
0.000104175
-9.02155e-06
0.000105487
-8.27428e-06
0.000106682
-7.55549e-06
0.000107764
-6.86614e-06
0.000108739
-6.20672e-06
0.000109611
-5.57736e-06
0.000110386
-4.97792e-06
0.000111069
-4.40799e-06
0.000111663
-3.86696e-06
0.000112175
-3.35406e-06
0.000112607
-2.86841e-06
0.000112965
-2.40896e-06
0.000113252
-1.97462e-06
0.000113473
-1.56419e-06
0.00011363
-1.1764e-06
0.000113727
-8.09895e-07
0.000113768
-4.63275e-07
0.000113756
-1.35063e-07
0.000113693
1.7617e-07
0.000113581
4.71823e-07
0.000113424
7.53499e-07
0.000113223
1.02288e-06
0.000112981
1.28167e-06
0.000112699
1.53162e-06
0.000112379
1.77456e-06
0.000112022
2.01234e-06
0.00011163
2.2469e-06
0.000111204
2.48025e-06
0.000110746
2.71445e-06
0.000110257
2.95163e-06
0.00010974
3.19393e-06
0.000109196
3.44355e-06
0.000108627
3.70264e-06
0.000108038
3.97328e-06
0.000107432
4.25735e-06
0.000106815
4.55645e-06
0.000106195
4.8717e-06
0.000105579
5.2035e-06
0.000104979
5.55126e-06
0.000104407
5.91306e-06
0.000103879
6.28528e-06
0.000103409
6.66227e-06
0.000103014
7.03609e-06
0.000102706
7.39655e-06
0.000102493
7.73164e-06
8.02893e-06
0.000102373
2.03332e-05
-3.01126e-06
2.10646e-05
-5.66999e-06
2.21024e-05
-7.8209e-06
2.34065e-05
-9.65337e-06
2.49474e-05
-1.12535e-05
2.67042e-05
-1.26881e-05
2.86654e-05
-1.40164e-05
3.08279e-05
-1.52857e-05
3.3195e-05
-1.6528e-05
3.5772e-05
-1.7757e-05
3.85627e-05
-1.89681e-05
4.15654e-05
-2.01399e-05
4.47698e-05
-2.12389e-05
4.81564e-05
-2.22266e-05
5.1697e-05
-2.30656e-05
5.53572e-05
-2.37255e-05
5.90986e-05
-2.41859e-05
6.2882e-05
-2.44379e-05
6.66694e-05
-2.44828e-05
7.04259e-05
-2.43309e-05
7.41205e-05
-2.39986e-05
7.7727e-05
-2.35065e-05
8.12236e-05
-2.28773e-05
8.4593e-05
-2.2134e-05
8.7822e-05
-2.1299e-05
9.09011e-05
-2.03932e-05
9.38236e-05
-1.94354e-05
9.6586e-05
-1.84423e-05
9.91865e-05
-1.74285e-05
0.000101625
-1.64062e-05
0.000103904
-1.53857e-05
0.000106026
-1.43756e-05
0.000107994
-1.33827e-05
0.000109814
-1.24125e-05
0.000111489
-1.14693e-05
0.000113026
-1.05562e-05
0.000114429
-9.67565e-06
0.000115704
-8.82918e-06
0.000116858
-8.0178e-06
0.000117895
-7.24198e-06
0.000118821
-6.5018e-06
0.000119642
-5.79699e-06
0.000120362
-5.12701e-06
0.000120988
-4.49107e-06
0.000121524
-3.88824e-06
0.000121974
-3.31742e-06
0.000122344
-2.77738e-06
0.000122637
-2.26681e-06
0.000122859
-1.78429e-06
0.000123012
-1.32834e-06
0.000123101
-8.97406e-07
0.000123128
-4.89883e-07
0.000123099
-1.04119e-07
0.000123014
2.6154e-07
0.000122878
6.08729e-07
0.000122693
9.39296e-07
0.000122462
1.25511e-06
0.000122187
1.55804e-06
0.000121869
1.84996e-06
0.000121512
2.13279e-06
0.000121116
2.40844e-06
0.000120685
2.67887e-06
0.00012022
2.94602e-06
0.000119723
3.21185e-06
0.000119197
3.47827e-06
0.000118644
3.74713e-06
0.000118068
4.02021e-06
0.000117472
4.29908e-06
0.00011686
4.58513e-06
0.000116238
4.87939e-06
0.000115613
5.18243e-06
0.00011499
5.49426e-06
0.00011438
5.81412e-06
0.000113791
6.14033e-06
0.000113234
6.47014e-06
0.00011272
6.79958e-06
0.000112259
7.12345e-06
0.00011186
7.43535e-06
0.000111529
7.72801e-06
0.000111267
7.99376e-06
8.22578e-06
0.00011107
2.17376e-05
-3.38387e-06
2.24966e-05
-6.42871e-06
2.35808e-05
-8.90459e-06
2.49497e-05
-1.10215e-05
2.65743e-05
-1.28771e-05
2.84348e-05
-1.45475e-05
3.05228e-05
-1.6103e-05
3.28397e-05
-1.76012e-05
3.53945e-05
-1.90811e-05
3.81981e-05
-2.05588e-05
4.12579e-05
-2.2026e-05
4.45725e-05
-2.34525e-05
4.81284e-05
-2.47928e-05
5.18995e-05
-2.59956e-05
5.58487e-05
-2.70127e-05
5.99319e-05
-2.78064e-05
6.41012e-05
-2.83529e-05
6.8309e-05
-2.86434e-05
7.25108e-05
-2.86822e-05
7.66663e-05
-2.84841e-05
8.07412e-05
-2.80711e-05
8.47068e-05
-2.74697e-05
8.85402e-05
-2.67083e-05
9.22236e-05
-2.58151e-05
9.5744e-05
-2.48171e-05
9.90923e-05
-2.37392e-05
0.000102263
-2.26037e-05
0.000105253
-2.14301e-05
0.000108062
-2.02352e-05
0.000110691
-1.90331e-05
0.000113143
-1.78357e-05
0.000115422
-1.66525e-05
0.000117533
-1.54913e-05
0.000119481
-1.43581e-05
0.000121271
-1.32578e-05
0.000122911
-1.21937e-05
0.000124406
-1.11684e-05
0.000125762
-1.01836e-05
0.000126986
-9.24012e-06
0.000128084
-8.33851e-06
0.000129063
-7.47868e-06
0.000129928
-6.66021e-06
0.000130685
-5.88238e-06
0.00013134
-5.14421e-06
0.000131898
-4.44453e-06
0.000132364
-3.78204e-06
0.000132743
-3.15528e-06
0.000133041
-2.5627e-06
0.000133261
-2.00266e-06
0.000133407
-1.47346e-06
0.000133484
-9.73327e-07
0.000133496
-5.00445e-07
0.000133446
-5.30431e-08
0.000133338
3.70777e-07
0.000133175
7.72957e-07
0.00013296
1.15556e-06
0.000132695
1.52061e-06
0.000132384
1.87008e-06
0.000132029
2.20596e-06
0.000131632
2.5302e-06
0.000131197
2.84474e-06
0.000130725
3.15146e-06
0.000130219
3.45222e-06
0.000129683
3.74879e-06
0.000129119
4.04283e-06
0.000128531
4.33586e-06
0.000127922
4.62922e-06
0.000127298
4.92399e-06
0.000126662
5.22094e-06
0.000126022
5.52045e-06
0.000125382
5.8224e-06
0.00012475
6.12614e-06
0.000124134
6.43034e-06
0.000123542
6.73297e-06
0.000122981
7.03126e-06
0.000122459
7.32169e-06
0.000121983
7.60012e-06
0.000121556
7.86195e-06
0.000121182
8.10236e-06
0.000120859
8.3168e-06
8.5018e-06
0.000120583
2.32408e-05
-3.76985e-06
2.40306e-05
-7.21819e-06
2.51653e-05
-1.00386e-05
2.66042e-05
-1.24595e-05
2.83196e-05
-1.45915e-05
3.02947e-05
-1.65214e-05
3.25261e-05
-1.83329e-05
3.50226e-05
-2.00962e-05
3.78017e-05
-2.18584e-05
4.08814e-05
-2.36367e-05
4.42729e-05
-2.54155e-05
4.79731e-05
-2.71505e-05
5.19614e-05
-2.87789e-05
5.62006e-05
-3.02325e-05
6.06407e-05
-3.14504e-05
6.52243e-05
-3.23875e-05
6.98919e-05
-3.3018e-05
7.45864e-05
-3.33354e-05
7.9256e-05
-3.33494e-05
8.3856e-05
-3.30815e-05
8.83488e-05
-3.25614e-05
9.27044e-05
-3.18228e-05
9.68995e-05
-3.09009e-05
0.000100917
-2.98299e-05
0.000104744
-2.8642e-05
0.000108374
-2.73664e-05
0.000111802
-2.6029e-05
0.000115026
-2.46521e-05
0.000118048
-2.32549e-05
0.000120871
-2.18534e-05
0.000123498
-2.04606e-05
0.000125935
-1.90873e-05
0.000128188
-1.7742e-05
0.000130264
-1.64313e-05
0.000132169
-1.51603e-05
0.00013391
-1.39326e-05
0.000135494
-1.27508e-05
0.000136929
-1.16166e-05
0.000138222
-1.05309e-05
0.000139379
-9.49396e-06
0.000140408
-8.50558e-06
0.000141315
-7.5651e-06
0.000142106
-6.67159e-06
0.000142787
-5.82384e-06
0.000143365
-5.02042e-06
0.000143845
-4.25977e-06
0.000144231
-3.54019e-06
0.00014453
-2.85987e-06
0.000144746
-2.21694e-06
0.000144883
-1.60947e-06
0.000144947
-1.03544e-06
0.00014494
-4.92828e-07
0.000144868
2.01922e-08
0.000144735
5.05761e-07
0.000144542
9.66273e-07
0.000144295
1.40391e-06
0.000143996
1.8208e-06
0.000143648
2.21901e-06
0.000143254
2.6006e-06
0.000142818
2.96751e-06
0.000142342
3.32167e-06
0.000141829
3.66487e-06
0.000141283
3.99883e-06
0.000140708
4.32513e-06
0.000140106
4.64517e-06
0.000139482
4.96017e-06
0.000138841
5.2711e-06
0.000138187
5.57864e-06
0.000137525
5.88314e-06
0.000136861
6.18456e-06
0.000136201
6.48244e-06
0.000135552
6.77585e-06
0.000134919
7.06337e-06
0.00013431
7.3431e-06
0.000133728
7.61269e-06
0.000133181
7.86945e-06
0.000132671
8.1104e-06
0.0001322
8.3325e-06
0.00013177
8.53286e-06
0.000131378
8.70897e-06
8.85938e-06
0.000131021
2.48497e-05
-4.17187e-06
2.56743e-05
-8.04236e-06
2.68645e-05
-1.12282e-05
2.83804e-05
-1.39746e-05
3.01967e-05
-1.64067e-05
3.23018e-05
-1.86251e-05
3.47004e-05
-2.073e-05
3.74131e-05
-2.28071e-05
4.04687e-05
-2.49121e-05
4.3894e-05
-2.70599e-05
4.77017e-05
-2.9221e-05
5.18827e-05
-3.13292e-05
5.64032e-05
-3.3297e-05
6.12089e-05
-3.50358e-05
6.62318e-05
-3.64707e-05
7.13978e-05
-3.7551e-05
7.66345e-05
-3.8252e-05
8.18749e-05
-3.85731e-05
8.70608e-05
-3.85325e-05
9.21436e-05
-3.81615e-05
9.70842e-05
-3.74993e-05
0.000101853
-3.65884e-05
0.000106426
-3.54717e-05
0.000110789
-3.41902e-05
0.000114931
-3.27815e-05
0.000118847
-3.12794e-05
0.000122534
-2.97134e-05
0.000125993
-2.81086e-05
0.000129228
-2.64864e-05
0.000132241
-2.48645e-05
0.000135041
-2.32573e-05
0.000137632
-2.16763e-05
0.000140023
-2.01308e-05
0.000142222
-1.86276e-05
0.000144236
-1.71721e-05
0.000146074
-1.57682e-05
0.000147744
-1.44182e-05
0.000149254
-1.31239e-05
0.000150611
-1.18859e-05
0.000151823
-1.07043e-05
0.000152898
-9.5786e-06
0.000153843
-8.50799e-06
0.000154665
-7.49121e-06
0.00015537
-6.52675e-06
0.000155964
-5.61292e-06
0.000156454
-4.74785e-06
0.000156845
-3.92958e-06
0.000157143
-3.15604e-06
0.000157353
-2.4251e-06
0.000157479
-1.7346e-06
0.000157528
-1.08232e-06
0.000157503
-4.66062e-07
0.000157408
1.16391e-07
0.000157247
6.67366e-07
0.000157026
1.18935e-06
0.000156746
1.68474e-06
0.000156412
2.15579e-06
0.000156028
2.60466e-06
0.000155596
3.0334e-06
0.00015512
3.44399e-06
0.000154605
3.83826e-06
0.000154052
4.21795e-06
0.000153467
4.58463e-06
0.000152854
4.93968e-06
0.000152215
5.28432e-06
0.000151556
5.61951e-06
0.000150882
5.94596e-06
0.000150197
6.26412e-06
0.000149507
6.5741e-06
0.000148816
6.8757e-06
0.00014813
7.16836e-06
0.000147455
7.4512e-06
0.000146796
7.723e-06
0.000146157
7.98226e-06
0.000145543
8.22727e-06
0.000144957
8.45617e-06
0.0001444
8.66708e-06
0.000143875
8.85821e-06
0.00014338
9.02801e-06
0.000142914
9.17533e-06
9.29992e-06
0.000142473
2.65716e-05
-4.59289e-06
2.74357e-05
-8.90611e-06
2.86882e-05
-1.248e-05
3.02906e-05
-1.5576e-05
3.22217e-05
-1.83366e-05
3.44786e-05
-2.08805e-05
3.70797e-05
-2.33294e-05
4.00616e-05
-2.57871e-05
4.34681e-05
-2.83166e-05
4.73339e-05
-3.09233e-05
5.16683e-05
-3.35531e-05
5.6448e-05
-3.61064e-05
6.16176e-05
-3.8464e-05
6.70982e-05
-4.05136e-05
7.27989e-05
-4.21686e-05
7.86274e-05
-4.33766e-05
8.44976e-05
-4.41194e-05
9.03342e-05
-4.44067e-05
9.60741e-05
-4.42695e-05
0.000101667
-4.37514e-05
0.000107074
-4.29033e-05
0.000112267
-4.17779e-05
0.000117225
-4.04267e-05
0.000121935
-3.88976e-05
0.00012639
-3.7234e-05
0.000130588
-3.54741e-05
0.000134528
-3.36509e-05
0.000138215
-3.17923e-05
0.000141653
-2.99216e-05
0.000144849
-2.80579e-05
0.000147812
-2.62168e-05
0.000150548
-2.44105e-05
0.000153069
-2.26486e-05
0.000155382
-2.09384e-05
0.000157498
-1.92851e-05
0.000159425
-1.76926e-05
0.000161172
-1.61632e-05
0.000162749
-1.46983e-05
0.000164164
-1.32985e-05
0.000165426
-1.19633e-05
0.000166542
-1.06922e-05
0.00016752
-9.48385e-06
0.000168367
-8.33668e-06
0.000169092
-7.24889e-06
0.000169699
-6.21845e-06
0.000170196
-5.2432e-06
0.00017059
-4.32085e-06
0.000170884
-3.44905e-06
0.000171087
-2.62543e-06
0.000171201
-1.84755e-06
0.000171234
-1.11301e-06
0.000171188
-4.19413e-07
0.000171071
2.35787e-07
0.000170884
8.55159e-07
0.000170634
1.44134e-06
0.000170323
1.99685e-06
0.000169956
2.52405e-06
0.000169537
3.02514e-06
0.000169069
3.5022e-06
0.000168557
3.9572e-06
0.000168004
4.39193e-06
0.000167415
4.80802e-06
0.000166793
5.20695e-06
0.000166144
5.58998e-06
0.000165471
5.95817e-06
0.000164779
6.31235e-06
0.000164072
6.6531e-06
0.000163356
6.98075e-06
0.000162635
7.29539e-06
0.000161915
7.59682e-06
0.000161199
7.88461e-06
0.000160493
8.15811e-06
0.0001598
8.41648e-06
0.000159123
8.65872e-06
0.000158467
8.88379e-06
0.000157833
9.09059e-06
0.000157222
9.27814e-06
0.000156635
9.44557e-06
0.000156071
9.59229e-06
0.000155529
9.71801e-06
9.82321e-06
0.000155006
2.84141e-05
-5.03623e-06
2.93239e-05
-9.81547e-06
3.06472e-05
-1.38026e-05
3.23487e-05
-1.72764e-05
3.44146e-05
-2.04011e-05
3.68558e-05
-2.33202e-05
3.97109e-05
-2.61826e-05
4.30388e-05
-2.91129e-05
4.68999e-05
-3.21755e-05
5.13318e-05
-3.53528e-05
5.6331e-05
-3.85496e-05
6.18475e-05
-4.16201e-05
6.77936e-05
-4.44072e-05
7.40591e-05
-4.67761e-05
8.05275e-05
-4.86339e-05
8.70879e-05
-4.9934e-05
9.36429e-05
-5.06711e-05
0.000100111
-5.08715e-05
0.000106427
-5.05825e-05
0.000112542
-4.98631e-05
0.00011842
-4.87775e-05
0.000124034
-4.73893e-05
0.00012937
-4.57591e-05
0.000134418
-4.3942e-05
0.000139174
-4.1987e-05
0.000143639
-3.99364e-05
0.000147818
-3.78265e-05
0.000151716
-3.56876e-05
0.000155343
-3.35446e-05
0.000158706
-3.1418e-05
0.000161816
-2.9324e-05
0.000164684
-2.72753e-05
0.00016732
-2.52816e-05
0.000169734
-2.33503e-05
0.000171939
-2.14867e-05
0.000173943
-1.96942e-05
0.000175758
-1.7975e-05
0.000177392
-1.63301e-05
0.000178856
-1.47596e-05
0.000180158
-1.3263e-05
0.000181307
-1.1839e-05
0.000182312
-1.04861e-05
0.00018318
-9.20223e-06
0.000183918
-7.98526e-06
0.000184535
-6.83279e-06
0.000185036
-5.7423e-06
0.000185428
-4.71118e-06
0.000185718
-3.73679e-06
0.000185911
-2.81645e-06
0.000186013
-1.9475e-06
0.000186029
-1.1273e-06
0.000185965
-3.53248e-07
0.000185824
3.775e-07
0.000185613
1.06776e-06
0.000185336
1.72033e-06
0.000184996
2.33783e-06
0.000184599
2.92268e-06
0.000184148
3.47715e-06
0.000183648
4.00336e-06
0.000183104
4.50324e-06
0.000182518
4.97858e-06
0.000181896
5.43096e-06
0.000181242
5.86179e-06
0.000180561
6.27227e-06
0.000179856
6.66341e-06
0.000179134
7.03598e-06
0.000178397
7.39057e-06
0.000177651
7.72754e-06
0.0001769
8.04705e-06
0.000176148
8.34909e-06
0.0001754
8.63347e-06
0.000174658
8.89988e-06
0.000173928
9.14789e-06
0.00017321
9.37704e-06
0.000172507
9.58687e-06
0.000171821
9.77696e-06
0.000171153
9.947e-06
0.000170502
1.00968e-05
0.000169868
1.02264e-05
0.00016925
1.03362e-05
1.04269e-05
0.000168647
3.03855e-05
-5.5058e-06
3.13485e-05
-1.0778e-05
3.27542e-05
-1.52073e-05
3.45724e-05
-1.90935e-05
3.6802e-05
-2.26292e-05
3.94755e-05
-2.59919e-05
4.26605e-05
-2.93655e-05
4.64435e-05
-3.28937e-05
5.08989e-05
-3.66284e-05
5.60561e-05
-4.05074e-05
6.18821e-05
-4.43728e-05
6.82854e-05
-4.80205e-05
7.51357e-05
-5.12544e-05
8.22871e-05
-5.39243e-05
8.95976e-05
-5.59411e-05
9.69409e-05
-5.72739e-05
0.000104212
-5.79385e-05
0.000111327
-5.7983e-05
0.000118223
-5.74749e-05
0.000124854
-5.64908e-05
0.000131189
-5.51091e-05
0.000137208
-5.34051e-05
0.000142901
-5.14482e-05
0.000148263
-4.93005e-05
0.000153296
-4.70162e-05
0.000158004
-4.46414e-05
0.000162397
-4.22153e-05
0.000166482
-3.977e-05
0.000170273
-3.73318e-05
0.00017378
-3.49218e-05
0.000177016
-3.25569e-05
0.000179994
-3.02497e-05
0.000182726
-2.80101e-05
0.000185224
-2.58452e-05
0.0001875
-2.37599e-05
0.000189566
-2.17573e-05
0.000191433
-1.98392e-05
0.000193112
-1.8006e-05
0.000194613
-1.62575e-05
0.000195945
-1.45926e-05
0.000197118
-1.30096e-05
0.000198141
-1.15064e-05
0.000199022
-1.00807e-05
0.000199769
-8.72979e-06
0.00020039
-7.45089e-06
0.000200891
-6.24111e-06
0.000201279
-5.0975e-06
0.000201562
-4.01708e-06
0.000201744
-2.99688e-06
0.000201833
-2.03399e-06
0.000201833
-1.12551e-06
0.00020175
-2.68643e-07
0.00020159
5.3976e-07
0.000201357
1.30275e-06
0.000201055
2.02327e-06
0.000200691
2.70402e-06
0.000200267
3.34753e-06
0.00019979
3.95611e-06
0.000199263
4.53191e-06
0.00019869
5.0769e-06
0.000198077
5.59287e-06
0.000197428
6.0814e-06
0.000196747
6.5439e-06
0.000196038
6.98158e-06
0.000195307
7.39546e-06
0.000194558
7.7864e-06