/*--------------------------------*- C++ -*----------------------------------*\
  =========                 |
  \\      /  F ield         | OpenFOAM: The Open Source CFD Toolbox
   \\    /   O peration     | Website:  https://openfoam.org
    \\  /    A nd           | Version:  7
     \\/     M anipulation  |
\*---------------------------------------------------------------------------*/
FoamFile
{
    version     2.0;
    format      ascii;
    class       volScalarField;
    location    "8";
    object      T;
}
// * * * * * * * * * * * * * * * * * * * * * * * * * * * * * * * * * * * * * //

dimensions      [0 0 0 1 0 0 0];

internalField   nonuniform List<scalar> 
12013
(
300.129
300.391
300.659
300.932
301.206
301.479
301.751
302.02
302.285
302.545
302.798
303.045
303.284
303.516
303.74
303.957
304.165
304.366
304.56
304.746
304.926
305.098
305.264
305.425
305.579
305.728
305.872
306.011
306.147
306.278
306.406
306.531
306.654
306.774
306.894
307.013
307.132
307.252
307.373
307.498
307.626
307.759
307.898
308.046
308.202
308.37
308.551
308.747
308.961
309.196
309.454
309.739
310.055
310.404
310.792
311.223
311.703
312.236
312.828
313.487
314.22
315.034
315.938
316.941
318.054
319.287
320.654
322.169
323.846
325.705
327.765
330.05
332.587
335.411
338.561
342.092
346.071
350.597
355.815
361.968
369.521
300.129
300.391
300.66
300.932
301.206
301.48
301.752
302.022
302.286
302.546
302.8
303.046
303.286
303.518
303.742
303.959
304.168
304.369
304.562
304.749
304.928
305.101
305.267
305.427
305.582
305.731
305.875
306.014
306.149
306.281
306.409
306.534
306.656
306.777
306.897
307.016
307.135
307.254
307.376
307.5
307.628
307.761
307.901
308.048
308.204
308.372
308.553
308.749
308.963
309.197
309.455
309.74
310.055
310.404
310.791
311.222
311.7
312.232
312.824
313.482
314.213
315.025
315.927
316.928
318.037
319.267
320.63
322.139
323.809
325.659
327.708
329.978
332.497
335.296
338.412
341.893
345.798
350.205
355.213
360.947
367.519
300.129
300.392
300.661
300.933
301.207
301.482
301.754
302.024
302.289
302.549
302.803
303.05
303.29
303.522
303.747
303.963
304.172
304.374
304.567
304.754
304.933
305.106
305.273
305.433
305.587
305.737
305.881
306.02
306.155
306.287
306.415
306.54
306.662
306.783
306.903
307.021
307.14
307.26
307.382
307.506
307.634
307.766
307.906
308.052
308.209
308.376
308.556
308.752
308.966
309.2
309.457
309.741
310.055
310.403
310.789
311.218
311.695
312.225
312.815
313.47
314.198
315.006
315.903
316.898
318.001
319.223
320.576
322.072
323.728
325.559
327.584
329.823
332.302
335.047
338.091
341.471
345.23
349.417
354.077
359.241
364.869
300.13
300.393
300.662
300.935
301.21
301.484
301.758
302.028
302.293
302.554
302.808
303.056
303.296
303.529
303.754
303.971
304.18
304.382
304.576
304.763
304.942
305.115
305.282
305.442
305.597
305.746
305.891
306.03
306.165
306.297
306.425
306.55
306.672
306.793
306.912
307.031
307.15
307.27
307.391
307.515
307.642
307.775
307.914
308.06
308.216
308.383
308.563
308.758
308.97
309.203
309.46
309.742
310.055
310.401
310.786
311.212
311.686
312.213
312.799
313.45
314.172
314.974
315.864
316.85
317.942
319.15
320.487
321.964
323.595
325.395
327.382
329.573
331.989
334.652
337.587
340.82
344.377
348.278
352.533
357.124
361.979
300.13
300.394
300.663
300.937
301.213
301.489
301.762
302.033
302.3
302.561
302.816
303.064
303.305
303.539
303.764
303.982
304.192
304.394
304.588
304.775
304.956
305.129
305.296
305.457
305.611
305.761
305.905
306.045
306.18
306.312
306.44
306.565
306.687
306.808
306.927
307.046
307.164
307.284
307.405
307.528
307.656
307.788
307.926
308.072
308.227
308.393
308.572
308.766
308.978
309.209
309.464
309.745
310.055
310.399
310.781
311.204
311.674
312.196
312.777
313.421
314.136
314.928
315.807
316.78
317.856
319.045
320.359
321.807
323.404
325.161
327.095
329.219
331.55
334.105
336.9
339.95
343.266
346.852
350.696
354.764
358.991
300.13
300.395
300.666
300.941
301.217
301.494
301.769
302.041
302.309
302.571
302.827
303.076
303.318
303.552
303.779
303.997
304.208
304.41
304.605
304.793
304.974
305.148
305.315
305.476
305.631
305.781
305.925
306.065
306.201
306.332
306.46
306.585
306.708
306.828
306.947
307.066
307.184
307.303
307.424
307.547
307.674
307.805
307.943
308.088
308.242
308.407
308.585
308.778
308.988
309.218
309.47
309.749
310.056
310.397
310.774
311.193
311.658
312.174
312.746
313.381
314.086
314.866
315.73
316.685
317.74
318.904
320.187
321.598
323.149
324.852
326.717
328.756
330.983
333.407
336.037
338.881
341.939
345.203
348.655
352.26
355.966
300.131
300.397
300.669
300.945
301.224
301.502
301.778
302.051
302.32
302.584
302.841
303.092
303.335
303.57
303.798
304.017
304.229
304.432
304.628
304.817
304.998
305.173
305.34
305.502
305.658
305.808
305.952
306.092
306.228
306.36
306.488
306.613
306.735
306.855
306.974
307.092
307.21
307.329
307.449
307.572
307.698
307.829
307.965
308.109
308.262
308.426
308.602
308.793
309.001
309.229
309.479
309.754
310.058
310.394
310.766
311.179
311.636
312.144
312.707
313.331
314.022
314.786
315.631
316.564
317.592
318.724
319.968
321.333
322.828
324.463
326.246
328.186
330.291
332.567
335.018
337.643
340.438
343.39
346.479
349.675
352.938
300.132
300.399
300.673
300.951
301.231
301.511
301.79
302.065
302.335
302.601
302.86
303.112
303.357
303.594
303.823
304.043
304.256
304.461
304.658
304.847
305.03
305.205
305.373
305.535
305.692
305.842
305.987
306.127
306.263
306.395
306.523
306.648
306.77
306.89
307.009
307.127
307.244
307.362
307.482
307.604
307.729
307.859
307.995
308.137
308.289
308.451
308.625
308.814
309.019
309.244
309.49
309.761
310.06
310.391
310.757
311.162
311.611
312.108
312.659
313.268
313.943
314.687
315.509
316.414
317.409
318.502
319.7
321.01
322.44
323.996
325.685
327.513
329.484
331.601
333.863
336.266
338.803
341.46
344.219
347.053
349.934
300.133
300.402
300.679
300.959
301.241
301.523
301.804
302.082
302.355
302.622
302.884
303.138
303.384
303.623
303.854
304.076
304.291
304.497
304.695
304.886
305.069
305.246
305.415
305.578
305.735
305.886
306.031
306.172
306.308
306.44
306.568
306.693
306.815
306.935
307.053
307.171
307.288
307.405
307.524
307.645
307.769
307.898
308.032
308.173
308.323
308.483
308.655
308.841
309.043
309.263
309.505
309.771
310.065
310.388
310.746
311.142
311.58
312.065
312.601
313.194
313.848
314.568
315.362
316.234
317.191
318.239
319.383
320.63
321.985
323.453
325.039
326.746
328.576
330.527
332.599
334.784
337.074
339.456
341.914
344.428
346.974
300.134
300.406
300.685
300.968
301.253
301.539
301.822
302.102
302.378
302.649
302.913
303.17
303.419
303.66
303.893
304.118
304.334
304.542
304.742
304.934
305.119
305.296
305.467
305.631
305.788
305.94
306.086
306.228
306.364
306.496
306.624
306.749
306.871
306.991
307.109
307.225
307.342
307.459
307.576
307.696
307.819
307.947
308.079
308.218
308.366
308.523
308.692
308.875
309.073
309.289
309.526
309.786
310.072
310.388
310.736
311.121
311.546
312.016
312.535
313.107
313.737
314.431
315.192
316.026
316.939
317.935
319.019
320.196
321.469
322.843
324.319
325.899
327.582
329.368
331.251
333.226
335.284
337.413
339.599
341.827
344.079
300.136
300.411
300.693
300.98
301.268
301.557
301.844
302.128
302.408
302.682
302.949
303.209
303.461
303.705
303.941
304.168
304.387
304.597
304.799
304.994
305.18
305.359
305.531
305.696
305.855
306.007
306.154
306.296
306.433
306.565
306.694
306.818
306.94
307.06
307.177
307.293
307.409
307.525
307.641
307.76
307.882
308.007
308.138
308.275
308.419
308.574
308.739
308.918
309.111
309.322
309.553
309.806
310.084
310.39
310.727
311.099
311.51
311.963
312.461
313.01
313.613
314.275
315
315.792
316.655
317.594
318.613
319.714
320.9
322.174
323.536
324.987
326.525
328.147
329.849
331.624
333.465
335.362
337.303
339.276
341.267
300.138
300.417
300.703
300.994
301.287
301.58
301.871
302.16
302.443
302.721
302.993
303.257
303.513
303.76
303.999
304.23
304.451
304.665
304.869
305.066
305.254
305.435
305.609
305.776
305.936
306.09
306.237
306.38
306.517
306.65
306.778
306.903
307.025
307.144
307.261
307.376
307.491
307.606
307.721
307.838
307.958
308.081
308.21
308.344
308.486
308.636
308.798
308.972
309.16
309.365
309.588
309.833
310.101
310.397
310.721
311.079
311.473
311.906
312.382
312.904
313.477
314.104
314.789
315.535
316.345
317.223
318.172
319.193
320.289
321.46
322.708
324.029
325.424
326.888
328.417
330.006
331.647
333.332
335.052
336.796
338.555
300.14
300.424
300.715
301.011
301.309
301.607
301.904
302.197
302.486
302.769
303.046
303.314
303.575
303.827
304.07
304.304
304.53
304.746
304.954
305.153
305.345
305.528
305.704
305.872
306.034
306.189
306.338
306.482
306.62
306.753
306.881
307.006
307.128
307.246
307.363
307.477
307.591
307.704
307.818
307.934
308.051
308.172
308.298
308.429
308.567
308.714
308.871
309.039
309.221
309.419
309.635
309.87
310.128
310.411
310.722
311.063
311.438
311.849
312.3
312.794
313.334
313.923
314.564
315.261
316.015
316.829
317.705
318.644
319.649
320.717
321.85
323.046
324.302
325.616
326.983
328.398
329.855
331.348
332.868
334.409
335.961
300.143
300.432
300.729
301.031
301.335
301.64
301.943
302.243
302.538
302.827
303.109
303.384
303.649
303.907
304.155
304.394
304.624
304.844
305.056
305.259
305.453
305.64
305.818
305.989
306.152
306.309
306.459
306.604
306.743
306.876
307.005
307.13
307.252
307.37
307.485
307.599
307.712
307.824
307.936
308.049
308.165
308.283
308.405
308.533
308.667
308.809
308.961
309.123
309.299
309.488
309.695
309.92
310.166
310.435
310.731
311.054
311.408
311.796
312.22
312.683
313.188
313.737
314.333
314.977
315.673
316.421
317.224
318.081
318.994
319.961
320.983
322.058
323.183
324.355
325.571
326.826
328.115
329.434
330.775
332.132
333.499
300.146
300.442
300.746
301.055
301.367
301.679
301.989
302.297
302.599
302.896
303.185
303.466
303.739
304.002
304.256
304.501
304.736
304.961
305.178
305.385
305.583
305.773
305.954
306.128
306.294
306.453
306.605
306.75
306.89
307.024
307.154
307.279
307.4
307.518
307.632
307.745
307.856
307.967
308.077
308.188
308.301
308.416
308.535
308.659
308.789
308.926
309.071
309.227
309.395
309.576
309.773
309.987
310.22
310.474
310.753
311.057
311.389
311.752
312.147
312.578
313.046
313.553
314.102
314.694
315.33
316.013
316.742
317.518
318.341
319.211
320.126
321.086
322.087
323.127
324.204
325.313
326.45
327.611
328.79
329.984
331.187
300.15
300.454
300.767
301.084
301.404
301.725
302.045
302.361
302.672
302.977
303.275
303.564
303.844
304.115
304.376
304.628
304.869
305.101
305.323
305.535
305.738
305.932
306.117
306.293
306.462
306.623
306.777
306.924
307.065
307.201
307.331
307.456
307.576
307.694
307.808
307.919
308.029
308.137
308.246
308.354
308.464
308.576
308.691
308.811
308.935
309.067
309.206
309.355
309.514
309.686
309.872
310.074
310.293
310.532
310.793
311.077
311.386
311.722
312.088
312.485
312.916
313.38
313.882
314.421
314.998
315.615
316.272
316.97
317.707
318.483
319.298
320.15
321.036
321.955
322.904
323.88
324.879
325.898
326.933
327.98
329.036
300.155
300.468
300.791
301.118
301.449
301.78
302.11
302.437
302.758
303.074
303.381
303.68
303.969
304.249
304.519
304.778
305.027
305.266
305.494
305.712
305.921
306.119
306.309
306.489
306.661
306.825
306.982
307.131
307.273
307.409
307.54
307.665
307.785
307.902
308.015
308.125
308.233
308.34
308.446
308.552
308.658
308.767
308.878
308.992
309.112
309.237
309.37
309.511
309.661
309.823
309.998
310.187
310.392
310.615
310.856
311.119
311.404
311.714
312.05
312.413
312.805
313.228
313.682
314.169
314.689
315.243
315.831
316.453
317.108
317.797
318.518
319.27
320.05
320.858
321.691
322.546
323.421
324.313
325.219
326.135
327.059
300.16
300.485
300.819
301.158
301.501
301.845
302.187
302.526
302.86
303.187
303.506
303.816
304.117
304.407
304.687
304.956
305.214
305.46
305.696
305.922
306.136
306.341
306.535
306.72
306.896
307.063
307.222
307.373
307.517
307.654
307.786
307.911
308.031
308.147
308.259
308.368
308.475
308.579
308.682
308.785
308.888
308.993
309.099
309.209
309.323
309.442
309.567
309.699
309.841
309.993
310.155
310.331
310.521
310.727
310.95
311.191
311.452
311.735
312.041
312.37
312.725
313.106
313.514
313.95
314.415
314.908
315.431
315.982
316.561
317.169
317.803
318.463
319.147
319.854
320.582
321.329
322.092
322.87
323.66
324.46
325.267
300.166
300.505
300.852
301.206
301.563
301.921
302.278
302.631
302.979
303.32
303.653
303.977
304.29
304.593
304.884
305.164
305.432
305.689
305.934
306.167
306.389
306.6
306.8
306.99
307.17
307.341
307.503
307.657
307.803
307.941
308.073
308.199
308.319
308.435
308.546
308.653
308.757
308.859
308.96
309.059
309.159
309.259
309.361
309.465
309.573
309.685
309.802
309.926
310.058
310.199
310.35
310.512
310.687
310.876
311.079
311.299
311.537
311.793
312.068
312.365
312.684
313.025
313.389
313.777
314.189
314.626
315.087
315.572
316.081
316.614
317.169
317.745
318.342
318.958
319.592
320.242
320.906
321.582
322.27
322.966
323.669
300.174
300.528
300.891
301.261
301.635
302.01
302.384
302.754
303.119
303.477
303.826
304.165
304.493
304.81
305.115
305.408
305.688
305.956
306.211
306.454
306.684
306.902
307.109
307.305
307.49
307.665
307.831
307.987
308.135
308.275
308.408
308.534
308.654
308.769
308.879
308.984
309.086
309.186
309.283
309.379
309.475
309.57
309.667
309.766
309.867
309.972
310.082
310.197
310.319
310.449
310.588
310.736
310.896
311.067
311.252
311.451
311.665
311.895
312.142
312.407
312.691
312.994
313.317
313.659
314.023
314.407
314.811
315.236
315.681
316.145
316.629
317.13
317.649
318.183
318.733
319.296
319.872
320.458
321.054
321.658
322.269
300.183
300.555
300.937
301.326
301.719
302.114
302.508
302.898
303.283
303.659
304.027
304.385
304.731
305.064
305.385
305.693
305.987
306.267
306.534
306.787
307.027
307.254
307.468
307.67
307.861
308.041
308.21
308.369
308.52
308.661
308.795
308.921
309.041
309.155
309.263
309.367
309.467
309.564
309.658
309.75
309.842
309.932
310.024
310.117
310.211
310.309
310.411
310.517
310.629
310.748
310.875
311.01
311.154
311.309
311.475
311.654
311.845
312.051
312.27
312.506
312.756
313.024
313.308
313.609
313.927
314.263
314.615
314.985
315.372
315.775
316.194
316.629
317.077
317.54
318.015
318.501
318.999
319.506
320.021
320.544
321.072
300.193
300.586
300.99
301.401
301.818
302.236
302.653
303.066
303.473
303.872
304.262
304.64
305.007
305.359
305.698
306.023
306.333
306.627
306.907
307.172
307.423
307.659
307.882
308.091
308.288
308.473
308.646
308.809
308.962
309.105
309.24
309.366
309.486
309.599
309.706
309.808
309.905
309.999
310.089
310.178
310.264
310.35
310.436
310.523
310.611
310.701
310.795
310.892
310.995
311.102
311.217
311.339
311.468
311.607
311.756
311.915
312.085
312.266
312.461
312.668
312.888
313.123
313.371
313.634
313.911
314.203
314.509
314.83
315.165
315.513
315.875
316.25
316.637
317.035
317.444
317.864
318.292
318.729
319.173
319.624
320.081
300.205
300.623
301.052
301.49
301.933
302.377
302.821
303.261
303.695
304.12
304.535
304.938
305.327
305.702
306.061
306.405
306.732
307.043
307.338
307.616
307.878
308.125
308.356
308.574
308.777
308.967
309.145
309.311
309.467
309.612
309.747
309.874
309.993
310.105
310.21
310.31
310.405
310.495
310.582
310.666
310.748
310.829
310.909
310.99
311.071
311.154
311.239
311.328
311.42
311.517
311.62
311.729
311.844
311.968
312.099
312.24
312.39
312.55
312.72
312.902
313.094
313.299
313.515
313.743
313.983
314.236
314.501
314.778
315.066
315.366
315.678
316
316.332
316.675
317.026
317.386
317.755
318.13
318.512
318.9
319.294
300.219
300.666
301.124
301.592
302.066
302.542
303.018
303.489
303.953
304.408
304.851
305.282
305.697
306.097
306.48
306.845
307.192
307.52
307.831
308.124
308.399
308.657
308.898
309.123
309.334
309.53
309.712
309.882
310.04
310.186
310.323
310.449
310.568
310.678
310.782
310.879
310.971
311.058
311.141
311.22
311.298
311.373
311.447
311.521
311.596
311.671
311.748
311.828
311.911
311.997
312.089
312.185
312.288
312.397
312.512
312.636
312.767
312.907
313.055
313.213
313.381
313.558
313.745
313.942
314.15
314.368
314.596
314.834
315.082
315.339
315.606
315.883
316.168
316.461
316.763
317.071
317.387
317.709
318.037
318.37
318.708
300.236
300.715
301.209
301.712
302.222
302.734
303.245
303.752
304.251
304.741
305.217
305.679
306.124
306.551
306.96
307.349
307.717
308.066
308.394
308.702
308.991
309.26
309.512
309.746
309.964
310.165
310.352
310.525
310.685
310.833
310.97
311.097
311.214
311.323
311.424
311.519
311.607
311.69
311.769
311.844
311.916
311.986
312.054
312.122
312.189
312.257
312.326
312.397
312.471
312.548
312.628
312.713
312.803
312.898
312.999
313.107
313.221
313.342
313.471
313.608
313.753
313.905
314.067
314.237
314.415
314.602
314.798
315.002
315.215
315.435
315.664
315.901
316.144
316.395
316.653
316.917
317.187
317.463
317.744
318.029
318.319
300.255
300.773
301.307
301.851
302.402
302.956
303.509
304.057
304.597
305.125
305.639
306.136
306.614
307.072
307.509
307.924
308.316
308.685
309.032
309.357
309.66
309.942
310.204
310.447
310.671
310.878
311.07
311.246
311.408
311.557
311.694
311.82
311.935
312.042
312.141
312.232
312.317
312.396
312.47
312.54
312.607
312.671
312.733
312.794
312.854
312.915
312.976
313.039
313.104
313.171
313.241
313.315
313.393
313.476
313.564
313.657
313.755
313.86
313.971
314.089
314.214
314.345
314.484
314.63
314.783
314.943
315.111
315.285
315.467
315.656
315.851
316.053
316.262
316.476
316.696
316.922
317.153
317.389
317.629
317.873
318.122
300.277
300.841
301.42
302.012
302.612
303.214
303.815
304.41
304.995
305.567
306.123
306.659
307.174
307.667
308.134
308.577
308.994
309.386
309.752
310.094
310.412
310.706
310.978
311.229
311.461
311.673
311.868
312.046
312.21
312.359
312.495
312.62
312.734
312.838
312.933
313.021
313.101
313.176
313.245
313.31
313.371
313.429
313.485
313.54
313.593
313.647
313.7
313.755
313.811
313.87
313.93
313.994
314.061
314.133
314.208
314.288
314.373
314.463
314.558
314.659
314.766
314.879
314.998
315.123
315.254
315.391
315.534
315.684
315.839
316
316.167
316.34
316.518
316.701
316.889
317.082
317.28
317.481
317.687
317.896
318.108
300.303
300.919
301.552
302.199
302.854
303.512
304.168
304.816
305.454
306.075
306.677
307.257
307.813
308.342
308.843
309.315
309.759
310.174
310.56
310.919
311.251
311.557
311.839
312.098
312.335
312.551
312.749
312.929
313.093
313.241
313.376
313.499
313.61
313.71
313.802
313.885
313.961
314.031
314.095
314.154
314.21
314.262
314.312
314.36
314.407
314.453
314.499
314.547
314.595
314.645
314.697
314.751
314.809
314.87
314.934
315.003
315.075
315.152
315.234
315.32
315.412
315.508
315.61
315.717
315.829
315.947
316.069
316.197
316.33
316.468
316.611
316.758
316.91
317.067
317.228
317.393
317.562
317.734
317.91
318.089
318.271
300.333
301.01
301.706
302.416
303.135
303.857
304.575
305.284
305.98
306.657
307.31
307.938
308.537
309.105
309.641
310.145
310.615
311.053
311.459
311.835
312.18
312.497
312.788
313.053
313.295
313.514
313.713
313.893
314.056
314.203
314.335
314.455
314.562
314.658
314.745
314.824
314.895
314.959
315.017
315.071
315.121
315.167
315.211
315.253
315.293
315.333
315.373
315.413
315.454
315.496
315.54
315.587
315.636
315.687
315.742
315.801
315.863
315.928
315.998
316.072
316.151
316.233
316.321
316.412
316.508
316.609
316.714
316.824
316.938
317.056
317.178
317.305
317.435
317.57
317.707
317.849
317.993
318.141
318.292
318.445
318.601
300.368
301.115
301.883
302.667
303.46
304.254
305.043
305.822
306.582
307.32
308.03
308.709
309.355
309.964
310.536
311.071
311.568
312.029
312.454
312.844
313.201
313.528
313.825
314.094
314.338
314.559
314.758
314.936
315.097
315.241
315.369
315.484
315.587
315.678
315.76
315.833
315.898
315.957
316.01
316.058
316.102
316.142
316.18
316.216
316.251
316.285
316.318
316.352
316.387
316.422
316.46
316.499
316.541
316.585
316.632
316.682
316.735
316.791
316.851
316.915
316.982
317.053
317.128
317.207
317.29
317.377
317.468
317.562
317.66
317.762
317.868
317.977
318.089
318.205
318.323
318.445
318.57
318.697
318.826
318.958
319.093
300.408
301.237
302.089
302.957
303.834
304.712
305.582
306.436
307.269
308.074
308.845
309.579
310.272
310.924
311.532
312.098
312.62
313.102
313.543
313.945
314.312
314.645
314.946
315.217
315.461
315.681
315.877
316.052
316.209
316.348
316.471
316.581
316.678
316.764
316.84
316.907
316.966
317.019
317.067
317.109
317.148
317.183
317.216
317.246
317.276
317.305
317.333
317.362
317.391
317.422
317.453
317.487
317.523
317.561
317.601
317.644
317.69
317.739
317.791
317.847
317.905
317.967
318.033
318.101
318.173
318.249
318.328
318.41
318.495
318.584
318.676
318.77
318.868
318.968
319.071
319.176
319.284
319.394
319.506
319.62
319.736
300.455
301.378
302.327
303.292
304.266
305.237
306.198
307.138
308.05
308.926
309.762
310.552
311.295
311.989
312.632
313.225
313.77
314.269
314.723
315.134
315.506
315.842
316.143
316.413
316.655
316.87
317.061
317.231
317.382
317.515
317.632
317.735
317.826
317.906
317.976
318.037
318.091
318.139
318.181
318.219
318.252
318.283
318.312
318.338
318.364
318.389
318.413
318.438
318.464
318.49
318.518
318.548
318.579
318.613
318.648
318.687
318.727
318.771
318.817
318.866
318.918
318.973
319.031
319.092
319.156
319.223
319.292
319.365
319.44
319.518
319.598
319.681
319.767
319.855
319.945
320.037
320.131
320.227
320.325
320.424
320.525
300.509
301.542
302.601
303.678
304.762
305.84
306.901
307.935
308.932
309.884
310.787
311.635
312.426
313.158
313.832
314.45
315.012
315.523
315.984
316.4
316.773
317.106
317.404
317.669
317.905
318.113
318.297
318.46
318.603
318.728
318.839
318.935
319.019
319.093
319.157
319.213
319.262
319.305
319.344
319.377
319.408
319.436
319.461
319.485
319.509
319.531
319.554
319.577
319.6
319.625
319.651
319.678
319.707
319.738
319.771
319.806
319.844
319.884
319.926
319.971
320.019
320.069
320.122
320.177
320.235
320.295
320.357
320.423
320.49
320.56
320.632
320.705
320.781
320.859
320.939
321.02
321.103
321.188
321.274
321.361
321.45
300.571
301.73
302.918
304.122
305.33
306.527
307.699
308.834
309.922
310.953
311.923
312.825
313.66
314.426
315.125
315.76
316.333
316.849
317.312
317.725
318.093
318.42
318.71
318.966
319.192
319.391
319.566
319.72
319.855
319.972
320.075
320.165
320.243
320.311
320.371
320.423
320.468
320.509
320.544
320.576
320.605
320.632
320.657
320.68
320.703
320.726
320.748
320.771
320.795
320.82
320.846
320.873
320.902
320.932
320.965
320.999
321.036
321.074
321.115
321.158
321.203
321.25
321.299
321.351
321.405
321.46
321.518
321.578
321.64
321.703
321.769
321.836
321.904
321.974
322.046
322.119
322.193
322.268
322.344
322.422
322.5
300.643
301.947
303.281
304.631
305.979
307.307
308.6
309.843
311.024
312.134
313.166
314.118
314.989
315.78
316.495
317.137
317.712
318.225
318.68
319.084
319.442
319.757
320.035
320.279
320.494
320.682
320.846
320.99
321.116
321.226
321.322
321.406
321.48
321.544
321.601
321.651
321.695
321.735
321.771
321.803
321.833
321.861
321.888
321.914
321.939
321.964
321.989
322.015
322.041
322.068
322.096
322.125
322.156
322.188
322.222
322.258
322.295
322.334
322.375
322.418
322.462
322.508
322.556
322.606
322.657
322.71
322.765
322.821
322.879
322.938
322.998
323.06
323.122
323.186
323.251
323.317
323.384
323.452
323.52
323.589
323.659
300.725
302.196
303.698
305.211
306.715
308.188
309.61
310.964
312.236
313.418
314.505
315.494
316.39
317.195
317.914
318.552
319.117
319.616
320.057
320.444
320.785
321.084
321.346
321.576
321.777
321.954
322.108
322.243
322.362
322.466
322.558
322.638
322.71
322.773
322.83
322.881
322.927
322.969
323.008
323.044
323.078
323.111
323.142
323.172
323.203
323.233
323.263
323.293
323.324
323.356
323.388
323.422
323.457
323.492
323.529
323.568
323.608
323.649
323.691
323.735
323.78
323.826
323.874
323.923
323.973
324.025
324.078
324.131
324.186
324.242
324.298
324.356
324.414
324.473
324.533
324.593
324.654
324.715
324.777
324.839
324.901
300.82
302.48
304.172
305.869
307.545
309.173
310.728
312.191
313.549
314.793
315.917
316.925
317.824
318.622
319.327
319.949
320.495
320.975
321.395
321.762
322.083
322.365
322.611
322.826
323.015
323.181
323.326
323.455
323.568
323.669
323.759
323.84
323.912
323.978
324.037
324.092
324.143
324.191
324.235
324.278
324.319
324.358
324.397
324.434
324.472
324.509
324.546
324.583
324.621
324.659
324.698
324.737
324.777
324.817
324.859
324.901
324.944
324.988
325.033
325.079
325.125
325.173
325.221
325.27
325.32
325.371
325.422
325.474
325.526
325.579
325.633
325.687
325.741
325.796
325.851
325.906
325.961
326.017
326.072
326.128
326.184
300.927
302.804
304.709
306.611
308.473
310.263
311.953
313.506
314.919
316.191
317.327
318.334
319.223
320.003
320.687
321.284
321.804
322.258
322.653
322.998
323.298
323.561
323.791
323.993
324.17
324.328
324.467
324.591
324.703
324.803
324.894
324.977
325.054
325.124
325.19
325.251
325.31
325.365
325.418
325.469
325.518
325.567
325.614
325.661
325.707
325.752
325.797
325.843
325.888
325.933
325.978
326.023
326.069
326.115
326.161
326.207
326.254
326.301
326.349
326.397
326.445
326.494
326.543
326.592
326.642
326.691
326.741
326.791
326.842
326.892
326.943
326.993
327.044
327.094
327.145
327.195
327.245
327.295
327.345
327.395
327.444
301.047
303.167
305.312
307.437
309.5
311.429
313.204
314.815
316.259
317.542
318.673
319.664
320.529
321.28
321.932
322.497
322.986
323.41
323.778
324.098
324.378
324.623
324.838
325.028
325.197
325.347
325.483
325.605
325.717
325.819
325.914
326.001
326.083
326.161
326.234
326.304
326.37
326.434
326.497
326.557
326.616
326.673
326.73
326.785
326.84
326.894
326.947
327
327.052
327.104
327.155
327.206
327.257
327.307
327.358
327.408
327.458
327.508
327.558
327.607
327.657
327.706
327.755
327.804
327.853
327.901
327.95
327.998
328.046
328.093
328.141
328.188
328.234
328.281
328.327
328.372
328.417
328.462
328.507
328.551
328.594
301.177
303.562
305.97
308.316
310.521
312.551
314.389
316.031
317.482
318.754
319.861
320.82
321.647
322.36
322.974
323.502
323.957
324.351
324.692
324.989
325.248
325.477
325.679
325.859
326.021
326.167
326.3
326.422
326.535
326.64
326.738
326.831
326.919
327.002
327.082
327.159
327.234
327.306
327.376
327.444
327.511
327.576
327.64
327.702
327.764
327.824
327.884
327.943
328.001
328.058
328.114
328.169
328.224
328.278
328.331
328.384
328.436
328.488
328.539
328.589
328.639
328.689
328.738
328.786
328.834
328.881
328.927
328.973
329.019
329.064
329.108
329.152
329.195
329.237
329.279
329.321
329.361
329.402
329.441
329.48
329.518
301.297
303.937
306.567
309.059
311.361
313.447
315.308
316.95
318.383
319.625
320.697
321.617
322.405
323.08
323.658
324.154
324.58
324.949
325.268
325.546
325.791
326.007
326.199
326.372
326.529
326.671
326.802
326.924
327.037
327.143
327.244
327.339
327.43
327.518
327.602
327.683
327.762
327.839
327.913
327.986
328.057
328.126
328.194
328.261
328.326
328.391
328.454
328.516
328.576
328.636
328.695
328.753
328.81
328.866
328.921
328.975
329.028
329.081
329.133
329.183
329.234
329.283
329.331
329.379
329.426
329.472
329.517
329.562
329.606
329.649
329.691
329.733
329.774
329.814
329.853
329.892
329.93
329.967
330.003
330.039
330.074
379.646
387.576
394.257
400.092
405.28
409.929
414.1
417.826
421.122
423.988
426.413
428.374
429.835
430.748
431.047
430.64
429.397
427.122
423.484
417.824
408.497
402.19
397.362
393.413
390.053
387.123
384.52
382.176
380.042
378.083
376.27
374.582
373.001
371.513
370.107
368.771
367.499
366.283
365.117
363.995
362.913
361.866
360.852
359.867
358.908
357.972
357.058
356.164
355.287
354.426
353.58
352.747
351.926
351.116
350.316
349.526
348.745
347.971
347.205
346.446
345.694
344.948
344.208
343.474
342.746
342.024
341.308
340.597
339.892
339.193
338.5
337.813
337.131
336.456
335.787
335.125
334.469
333.82
333.178
332.544
331.917
331.298
330.687
330.084
329.49
328.905
328.328
327.762
327.205
326.658
326.121
325.595
325.08
324.575
324.082
323.6
323.129
322.671
322.224
321.788
321.365
320.953
320.553
320.166
319.789
319.425
319.072
318.731
318.401
318.082
317.773
317.476
317.189
316.911
316.644
316.386
316.138
315.898
315.667
315.444
315.229
315.021
314.821
314.628
314.441
314.26
314.086
313.917
313.753
313.594
313.44
313.29
313.144
313.002
312.864
312.729
312.597
312.468
312.342
312.218
312.096
311.977
311.86
311.744
311.631
311.518
311.408
311.298
311.19
311.083
310.978
310.873
310.769
310.666
310.564
310.463
310.363
310.264
310.166
310.069
309.975
374.912
381.798
388.007
393.596
398.641
403.202
407.317
411.008
414.283
417.14
419.565
421.535
423.015
423.958
424.302
423.963
422.828
420.741
417.484
412.789
406.612
401.273
396.821
393.053
389.795
386.928
384.367
382.053
379.942
378
376.2
374.523
372.95
371.47
370.069
368.738
367.47
366.258
365.094
363.975
362.895
361.851
360.838
359.854
358.896
357.962
357.049
356.155
355.279
354.419
353.573
352.741
351.92
351.111
350.312
349.522
348.741
347.967
347.201
346.443
345.69
344.945
344.205
343.472
342.744
342.022
341.306
340.595
339.89
339.191
338.498
337.81
337.129
336.454
335.785
335.123
334.467
333.818
333.176
332.542
331.915
331.296
330.685
330.082
329.488
328.903
328.327
327.76
327.203
326.656
326.119
325.593
325.078
324.574
324.08
323.598
323.128
322.669
322.222
321.787
321.363
320.952
320.552
320.164
319.788
319.424
319.071
318.73
318.4
318.081
317.772
317.475
317.188
316.911
316.643
316.386
316.137
315.897
315.666
315.443
315.229
315.021
314.821
314.628
314.441
314.26
314.086
313.917
313.753
313.594
313.44
313.29
313.144
313.002
312.864
312.729
312.597
312.468
312.342
312.218
312.097
311.977
311.86
311.745
311.631
311.519
311.408
311.299
311.191
311.084
310.978
310.873
310.769
310.666
310.565
310.463
310.363
310.264
310.166
310.069
309.975
370.834
376.721
382.296
387.479
392.258
396.638
400.629
404.236
407.457
410.284
412.699
414.679
416.19
417.188
417.618
417.41
416.477
414.716
412.023
408.35
403.915
399.612
395.73
392.288
389.232
386.497
384.028
381.781
379.719
377.815
376.045
374.392
372.839
371.374
369.986
368.666
367.408
366.203
365.046
363.932
362.857
361.817
360.808
359.827
358.872
357.94
357.029
356.138
355.263
354.404
353.56
352.729
351.909
351.101
350.302
349.513
348.733
347.96
347.194
346.436
345.684
344.939
344.2
343.466
342.739
342.017
341.301
340.59
339.886
339.187
338.494