/*--------------------------------*- C++ -*----------------------------------*\
  =========                 |
  \\      /  F ield         | OpenFOAM: The Open Source CFD Toolbox
   \\    /   O peration     | Website:  https://openfoam.org
    \\  /    A nd           | Version:  7
     \\/     M anipulation  |
\*---------------------------------------------------------------------------*/
FoamFile
{
    version     2.0;
    format      ascii;
    class       volVectorField;
    location    "8";
    object      U;
}
// * * * * * * * * * * * * * * * * * * * * * * * * * * * * * * * * * * * * * //

dimensions      [0 1 -1 0 0 0 0];

internalField   nonuniform List<vector> 
12013
(
(0.100917 -0.000246372 0)
(0.104496 -0.000429262 0)
(0.109942 -0.000588726 0)
(0.116742 -0.000730481 0)
(0.124745 -0.000860429 0)
(0.133814 -0.000982914 0)
(0.143845 -0.00110136 0)
(0.154774 -0.00121842 0)
(0.166559 -0.00133585 0)
(0.17917 -0.00145435 0)
(0.192577 -0.00157356 0)
(0.206746 -0.00169215 0)
(0.221629 -0.00180801 0)
(0.237158 -0.00191855 0)
(0.253248 -0.00202103 0)
(0.269796 -0.00211289 0)
(0.286685 -0.00219195 0)
(0.303792 -0.00225658 0)
(0.320989 -0.00230578 0)
(0.338151 -0.00233912 0)
(0.35516 -0.00235673 0)
(0.371905 -0.00235919 0)
(0.38829 -0.0023474 0)
(0.404231 -0.0023225 0)
(0.419655 -0.00228579 0)
(0.434507 -0.00223862 0)
(0.448739 -0.00218233 0)
(0.462319 -0.00211825 0)
(0.475223 -0.00204761 0)
(0.487437 -0.00197155 0)
(0.498956 -0.00189114 0)
(0.50978 -0.0018073 0)
(0.519915 -0.00172085 0)
(0.529373 -0.00163255 0)
(0.538169 -0.00154303 0)
(0.546322 -0.00145283 0)
(0.553852 -0.00136244 0)
(0.560783 -0.00127228 0)
(0.567138 -0.00118267 0)
(0.572943 -0.00109389 0)
(0.578224 -0.00100621 0)
(0.583008 -0.00091982 0)
(0.587321 -0.000834858 0)
(0.59119 -0.000751454 0)
(0.594642 -0.000669707 0)
(0.597704 -0.000589673 0)
(0.600401 -0.000511369 0)
(0.60276 -0.000434793 0)
(0.604806 -0.000359915 0)
(0.606564 -0.000286666 0)
(0.608057 -0.000214933 0)
(0.609311 -0.000144564 0)
(0.610347 -7.53651e-05 0)
(0.611188 -7.09347e-06 0)
(0.611854 6.04807e-05 0)
(0.612367 0.000127636 0)
(0.612747 0.000194731 0)
(0.613012 0.000262226 0)
(0.61318 0.000330688 0)
(0.613269 0.000400803 0)
(0.613293 0.000473403 0)
(0.613266 0.000549504 0)
(0.613199 0.000630349 0)
(0.613102 0.000717468 0)
(0.612981 0.000812767 0)
(0.612839 0.000918642 0)
(0.612673 0.00103815 0)
(0.612476 0.00117527 0)
(0.612233 0.00133526 0)
(0.611919 0.00152525 0)
(0.611493 0.0017552 0)
(0.610895 0.00203943 0)
(0.610035 0.00239938 0)
(0.608775 0.00286851 0)
(0.606904 0.00350166 0)
(0.604084 0.00439362 0)
(0.599757 0.00571836 0)
(0.592939 0.00782159 0)
(0.581859 0.0115204 0)
(0.563392 0.0197317 0)
(0.544893 0.0526784 0)
(0.100834 -0.00075046 0)
(0.104393 -0.00131374 0)
(0.109809 -0.00180213 0)
(0.116584 -0.00223555 0)
(0.124565 -0.00263261 0)
(0.133613 -0.00300657 0)
(0.143626 -0.00336795 0)
(0.154539 -0.00372493 0)
(0.166311 -0.00408285 0)
(0.178911 -0.00444389 0)
(0.192312 -0.00480698 0)
(0.206481 -0.00516805 0)
(0.221368 -0.00552068 0)
(0.236908 -0.005857 0)
(0.253016 -0.00616872 0)
(0.269586 -0.00644803 0)
(0.286504 -0.00668838 0)
(0.303644 -0.00688485 0)
(0.320878 -0.00703439 0)
(0.33808 -0.00713579 0)
(0.355129 -0.00718943 0)
(0.371916 -0.00719707 0)
(0.388343 -0.00716146 0)
(0.404324 -0.00708608 0)
(0.419788 -0.0069748 0)
(0.434676 -0.00683173 0)
(0.448944 -0.00666094 0)
(0.462556 -0.00646641 0)
(0.475491 -0.00625189 0)
(0.487733 -0.00602083 0)
(0.499277 -0.00577639 0)
(0.510123 -0.00552142 0)
(0.520278 -0.00525843 0)
(0.529754 -0.00498964 0)
(0.538566 -0.004717 0)
(0.546733 -0.00444219 0)
(0.554274 -0.00416665 0)
(0.561214 -0.00389161 0)
(0.567577 -0.00361813 0)
(0.573388 -0.00334709 0)
(0.578673 -0.00307922 0)
(0.583458 -0.00281513 0)
(0.587772 -0.0025553 0)
(0.59164 -0.00230011 0)
(0.595089 -0.00204982 0)
(0.598146 -0.00180462 0)
(0.600836 -0.00156459 0)
(0.603187 -0.00132974 0)
(0.605223 -0.00109995 0)
(0.606968 -0.000875 0)
(0.608448 -0.000654563 0)
(0.609685 -0.000438188 0)
(0.610703 -0.000225274 0)
(0.611523 -1.50821e-05 0)
(0.612166 0.000193079 0)
(0.612654 0.000400009 0)
(0.613005 0.00060678 0)
(0.613238 0.0008148 0)
(0.613373 0.0010258 0)
(0.613424 0.00124187 0)
(0.613408 0.00146555 0)
(0.613337 0.00169991 0)
(0.613223 0.00194873 0)
(0.613076 0.0022166 0)
(0.612903 0.00250926 0)
(0.612705 0.00283388 0)
(0.612483 0.00319958 0)
(0.612231 0.00361812 0)
(0.611936 0.00410497 0)
(0.611576 0.00468093 0)
(0.611118 0.00537466 0)
(0.610512 0.00622683 0)
(0.609688 0.0072971 0)
(0.60854 0.00867615 0)
(0.606919 0.0105075 0)
(0.604612 0.0130277 0)
(0.601315 0.0166437 0)
(0.5966 0.022086 0)
(0.589921 0.0307423 0)
(0.581181 0.0453253 0)
(0.578315 0.0709451 0)
(0.10074 -0.00127078 0)
(0.104243 -0.00225006 0)
(0.109595 -0.00309195 0)
(0.116316 -0.00383863 0)
(0.124249 -0.00452256 0)
(0.133254 -0.00516657 0)
(0.14323 -0.00578892 0)
(0.154111 -0.00640384 0)
(0.165856 -0.00702061 0)
(0.178437 -0.00764308 0)
(0.191828 -0.00826948 0)
(0.205997 -0.00889279 0)
(0.220897 -0.00950191 0)
(0.236463 -0.0100832 0)
(0.252608 -0.0106222 0)
(0.26923 -0.0111055 0)
(0.28621 -0.0115216 0)
(0.303421 -0.0118619 0)
(0.320733 -0.0121211 0)
(0.338017 -0.0122971 0)
(0.355152 -0.0123906 0)
(0.372026 -0.0124045 0)
(0.388538 -0.0123437 0)
(0.404602 -0.0122141 0)
(0.420146 -0.0120224 0)
(0.435111 -0.0117759 0)
(0.44945 -0.0114814 0)
(0.463129 -0.011146 0)
(0.476125 -0.010776 0)
(0.488423 -0.0103774 0)
(0.500017 -0.00995576 0)
(0.510909 -0.00951592 0)
(0.521105 -0.00906225 0)
(0.530617 -0.00859857 0)
(0.53946 -0.00812821 0)
(0.547654 -0.0076541 0)
(0.555218 -0.00717871 0)
(0.562177 -0.00670418 0)
(0.568555 -0.0062323 0)
(0.574378 -0.00576459 0)
(0.579671 -0.00530231 0)
(0.584462 -0.00484649 0)
(0.588777 -0.00439796 0)
(0.592644 -0.00395735 0)
(0.596088 -0.00352512 0)
(0.599137 -0.00310157 0)
(0.601818 -0.00268685 0)
(0.604154 -0.00228091 0)
(0.606173 -0.00188357 0)
(0.607898 -0.00149443 0)
(0.609354 -0.00111293 0)
(0.610564 -0.00073828 0)
(0.611551 -0.000369419 0)
(0.612336 -5.15368e-06 0)
(0.612941 0.000355851 0)
(0.613385 0.000714904 0)
(0.61369 0.00107388 0)
(0.613872 0.0014352 0)
(0.613951 0.00180184 0)
(0.613942 0.00217735 0)
(0.61386 0.00256604 0)
(0.61372 0.00297308 0)
(0.613532 0.00340479 0)
(0.613307 0.00386886 0)
(0.613051 0.00437478 0)
(0.612771 0.00493439 0)
(0.612466 0.00556253 0)
(0.612133 0.00627822 0)
(0.611766 0.0071061 0)
(0.611349 0.00807872 0)
(0.61086 0.00924003 0)
(0.61027 0.0106507 0)
(0.609534 0.0123964 0)
(0.608601 0.0146013 0)
(0.607407 0.0174502 0)
(0.605891 0.0212234 0)
(0.604024 0.026354 0)
(0.601885 0.0335173 0)
(0.599848 0.043773 0)
(0.599029 0.0587007 0)
(0.603312 0.0797053 0)
(0.100639 -0.00180043 0)
(0.104068 -0.00323327 0)
(0.109325 -0.0044551 0)
(0.115964 -0.00553927 0)
(0.123825 -0.00653202 0)
(0.132766 -0.00746663 0)
(0.142685 -0.00836993 0)
(0.153518 -0.00926283 0)
(0.165224 -0.0101591 0)
(0.177779 -0.0110644 0)
(0.191159 -0.0119764 0)
(0.205335 -0.0128849 0)
(0.220263 -0.0137735 0)
(0.235878 -0.0146223 0)
(0.252093 -0.0154101 0)
(0.268804 -0.0161167 0)
(0.285891 -0.0167255 0)
(0.303223 -0.0172236 0)
(0.320666 -0.0176034 0)
(0.338088 -0.0178614 0)
(0.355364 -0.0179989 0)
(0.372379 -0.0180201 0)
(0.389029 -0.0179321 0)
(0.405227 -0.0177437 0)
(0.420898 -0.0174648 0)
(0.435982 -0.0171058 0)
(0.450432 -0.0166771 0)
(0.464214 -0.0161886 0)
(0.477303 -0.0156499 0)
(0.489686 -0.0150697 0)
(0.501357 -0.014456 0)
(0.512318 -0.0138159 0)
(0.522574 -0.0131557 0)
(0.532139 -0.0124811 0)
(0.541028 -0.0117969 0)
(0.549261 -0.0111072 0)
(0.556859 -0.0104158 0)
(0.563845 -0.00972561 0)
(0.570245 -0.00903932 0)
(0.576084 -0.00835909 0)
(0.581389 -0.00768673 0)
(0.586187 -0.00702372 0)
(0.590504 -0.00637121 0)
(0.594368 -0.00573013 0)
(0.597807 -0.00510111 0)
(0.600845 -0.00448457 0)
(0.60351 -0.00388067 0)
(0.605828 -0.00328933 0)
(0.607823 -0.00271027 0)
(0.609521 -0.00214291 0)
(0.610945 -0.00158639 0)
(0.612119 -0.00103953 0)
(0.613064 -0.000500798 0)
(0.613804 3.14862e-05 0)
(0.614359 0.000559194 0)
(0.614749 0.00108434 0)
(0.614993 0.00160967 0)
(0.615111 0.00213869 0)
(0.61512 0.0026756 0)
(0.615037 0.00322543 0)
(0.614876 0.00379423 0)
(0.614651 0.00438924 0)
(0.614375 0.00501921 0)
(0.614059 0.00569474 0)
(0.613711 0.00642876 0)
(0.613338 0.00723719 0)
(0.612945 0.00813979 0)
(0.612532 0.00916141 0)
(0.612099 0.0103336 0)
(0.611642 0.0116972 0)
(0.611154 0.0133053 0)
(0.610625 0.0152287 0)
(0.610049 0.0175622 0)
(0.609422 0.0204348 0)
(0.60876 0.0240229 0)
(0.608117 0.028567 0)
(0.607625 0.0343894 0)
(0.607566 0.0419035 0)
(0.608482 0.0515888 0)
(0.611315 0.0638471 0)
(0.617688 0.0784257 0)
(0.100536 -0.00233805 0)
(0.103881 -0.00425948 0)
(0.109022 -0.00588892 0)
(0.115556 -0.00733651 0)
(0.123323 -0.00866188 0)
(0.13218 -0.00990948 0)
(0.142025 -0.0111156 0)
(0.152796 -0.0123088 0)
(0.164455 -0.0135076 0)
(0.176982 -0.0147204 0)
(0.190357 -0.0159438 0)
(0.204557 -0.0171644 0)
(0.219538 -0.01836 0)
(0.235237 -0.0195034 0)
(0.25157 -0.0205655 0)
(0.268426 -0.0215189 0)
(0.285682 -0.0223406 0)
(0.303201 -0.0230133 0)
(0.320845 -0.0235262 0)
(0.338474 -0.0238749 0)
(0.355959 -0.0240609 0)
(0.37318 -0.0240901 0)
(0.39003 -0.0239723 0)
(0.406418 -0.0237193 0)
(0.422268 -0.0233448 0)
(0.437518 -0.0228626 0)
(0.452121 -0.022287 0)
(0.466042 -0.0216314 0)
(0.479258 -0.0209086 0)
(0.491754 -0.0201305 0)
(0.503526 -0.0193076 0)
(0.514574 -0.0184497 0)
(0.524909 -0.0175651 0)
(0.534541 -0.0166614 0)
(0.543487 -0.0157451 0)
(0.551768 -0.0148217 0)
(0.559406 -0.013896 0)
(0.566425 -0.0129721 0)
(0.572849 -0.0120535 0)
(0.578706 -0.0111431 0)
(0.584023 -0.0102431 0)
(0.588826 -0.00935564 0)
(0.593144 -0.00848216 0)
(0.597003 -0.00762382 0)
(0.60043 -0.00678145 0)
(0.603453 -0.00595554 0)
(0.606098 -0.00514629 0)
(0.60839 -0.00435359 0)
(0.610354 -0.00357699 0)
(0.612016 -0.0028157 0)
(0.6134 -0.00206854 0)
(0.614528 -0.00133394 0)
(0.615423 -0.000609838 0)
(0.616107 0.000105951 0)
(0.616602 0.000815735 0)
(0.616927 0.00152239 0)
(0.617102 0.00222962 0)
(0.617145 0.00294195 0)
(0.617075 0.00366483 0)
(0.616907 0.00440471 0)
(0.616657 0.00516928 0)
(0.616341 0.00596768 0)
(0.615971 0.00681082 0)
(0.615559 0.00771178 0)
(0.615116 0.0086863 0)
(0.614652 0.00975346 0)
(0.614176 0.0109365 0)
(0.613694 0.0122641 0)
(0.613213 0.0137716 0)
(0.61274 0.0155031 0)
(0.612285 0.0175141 0)
(0.611859 0.0198746 0)
(0.611484 0.0226728 0)
(0.611197 0.0260195 0)
(0.611061 0.0300517 0)
(0.611188 0.0349331 0)
(0.611754 0.0408473 0)
(0.613044 0.0479719 0)
(0.615473 0.0564199 0)
(0.619601 0.0661145 0)
(0.626083 0.0765621 0)
(0.10043 -0.00288341 0)
(0.103693 -0.00532591 0)
(0.108706 -0.00739162 0)
(0.115117 -0.00922993 0)
(0.122772 -0.0109137 0)
(0.131529 -0.0124989 0)
(0.141288 -0.0140323 0)
(0.151988 -0.0155508 0)
(0.163598 -0.0170792 0)
(0.176102 -0.0186283 0)
(0.189489 -0.0201945 0)
(0.203739 -0.0217602 0)
(0.218816 -0.0232967 0)
(0.234656 -0.0247681 0)
(0.251172 -0.0261363 0)
(0.268251 -0.0273653 0)
(0.285759 -0.0284247 0)
(0.303553 -0.0292917 0)
(0.321485 -0.0299524 0)
(0.339407 -0.0304012 0)
(0.357182 -0.0306401 0)
(0.374685 -0.0306771 0)
(0.391803 -0.0305249 0)
(0.408443 -0.0301994 0)
(0.424526 -0.029718 0)
(0.43999 -0.0290991 0)
(0.454787 -0.0283609 0)
(0.468883 -0.0275208 0)
(0.482253 -0.0265954 0)
(0.494886 -0.0255998 0)
(0.506778 -0.0245477 0)
(0.517931 -0.0234513 0)
(0.528354 -0.0223216 0)
(0.538062 -0.0211678 0)
(0.547072 -0.0199984 0)
(0.555405 -0.0188203 0)
(0.563085 -0.0176397 0)
(0.570135 -0.0164617 0)
(0.576583 -0.0152906 0)
(0.582456 -0.01413 0)
(0.58778 -0.0129828 0)
(0.592584 -0.0118516 0)
(0.596895 -0.010738 0)
(0.600742 -0.00964367 0)
(0.604151 -0.00856946 0)
(0.60715 -0.00751598 0)
(0.609765 -0.00648343 0)
(0.612023 -0.00547159 0)
(0.613947 -0.00447987 0)
(0.615564 -0.00350722 0)
(0.616897 -0.00255218 0)
(0.61797 -0.00161273 0)
(0.618805 -0.000686312 0)
(0.619424 0.000229767 0)
(0.619848 0.00113838 0)
(0.620098 0.0020432 0)
(0.620194 0.00294889 0)
(0.620154 0.00386101 0)
(0.619996 0.00478617 0)
(0.619737 0.00573212 0)
(0.619393 0.00670797 0)
(0.61898 0.00772444 0)
(0.618513 0.00879417 0)
(0.618005 0.00993206 0)
(0.617469 0.0111558 0)
(0.61692 0.0124863 0)
(0.616369 0.0139486 0)
(0.61583 0.0155725 0)
(0.615318 0.0173937 0)
(0.61485 0.0194551 0)
(0.614447 0.0218076 0)
(0.61414 0.024512 0)
(0.613968 0.0276393 0)
(0.613989 0.0312703 0)
(0.614288 0.0354934 0)
(0.614981 0.0403973 0)
(0.616231 0.0460567 0)
(0.61825 0.0525064 0)
(0.621296 0.0597003 0)
(0.625652 0.0674527 0)
(0.631543 0.0753736 0)
(0.100324 -0.00343717 0)
(0.103512 -0.00643119 0)
(0.108393 -0.00896253 0)
(0.114669 -0.0112201 0)
(0.1222 -0.01329 0)
(0.130848 -0.0152397 0)
(0.140512 -0.0171278 0)
(0.151138 -0.0190008 0)
(0.162703 -0.0208904 0)
(0.175201 -0.0228111 0)
(0.18863 -0.0247587 0)
(0.20298 -0.0267109 0)
(0.218216 -0.0286308 0)
(0.234278 -0.0304724 0)
(0.251071 -0.0321863 0)
(0.268475 -0.0337261 0)
(0.286344 -0.0350526 0)
(0.304521 -0.0361369 0)
(0.322846 -0.0369613 0)
(0.34116 -0.0375193 0)
(0.359316 -0.0378139 0)
(0.377182 -0.0378558 0)
(0.39464 -0.0376615 0)
(0.411594 -0.0372514 0)
(0.427963 -0.0366479 0)
(0.443684 -0.0358742 0)
(0.45871 -0.0349532 0)
(0.473008 -0.0339071 0)
(0.486555 -0.0327563 0)
(0.499342 -0.0315197 0)
(0.511364 -0.0302143 0)
(0.522629 -0.0288552 0)
(0.533146 -0.0274559 0)
(0.542931 -0.0260279 0)
(0.552003 -0.0245813 0)
(0.560385 -0.0231248 0)
(0.568101 -0.0216658 0)
(0.575178 -0.0202105 0)
(0.581641 -0.0187642 0)
(0.587521 -0.0173311 0)
(0.592843 -0.0159148 0)
(0.597639 -0.0145182 0)
(0.601934 -0.0131435 0)
(0.605758 -0.0117924 0)
(0.609139 -0.0104659 0)
(0.612103 -0.00916475 0)
(0.614678 -0.00788905 0)
(0.616889 -0.00663851 0)
(0.618762 -0.00541237 0)
(0.620323 -0.00420934 0)
(0.621594 -0.0030276 0)
(0.622601 -0.00186471 0)
(0.623364 -0.000717616 0)
(0.623908 0.000416849 0)
(0.624253 0.00154212 0)
(0.624419 0.0026627 0)
(0.624427 0.00378418 0)
(0.624296 0.00491309 0)
(0.624043 0.00605704 0)
(0.623687 0.00722486 0)
(0.623245 0.00842676 0)
(0.622732 0.00967461 0)
(0.622167 0.0109822 0)
(0.621564 0.0123654 0)
(0.620939 0.0138427 0)
(0.62031 0.0154355 0)
(0.619692 0.0171687 0)
(0.619106 0.0190707 0)
(0.618572 0.0211746 0)
(0.618116 0.0235176 0)
(0.617767 0.0261421 0)
(0.617566 0.0290945 0)
(0.617561 0.0324241 0)
(0.617814 0.0361809 0)
(0.618408 0.0404101 0)
(0.619441 0.0451444 0)
(0.621035 0.0503915 0)
(0.623325 0.0561183 0)
(0.62645 0.0622298 0)
(0.630527 0.0685506 0)
(0.635597 0.0748175 0)
(0.100214 -0.00400104 0)
(0.103342 -0.00757545 0)
(0.108093 -0.0106025 0)
(0.11423 -0.0133089 0)
(0.121633 -0.0157945 0)
(0.130165 -0.0181386 0)
(0.139733 -0.0204123 0)
(0.150291 -0.0226737 0)
(0.161828 -0.024963 0)
(0.174351 -0.027299 0)
(0.187873 -0.0296768 0)
(0.202393 -0.0320681 0)
(0.217882 -0.0344258 0)
(0.234276 -0.0366904 0)
(0.251471 -0.0387988 0)
(0.26933 -0.0406915 0)
(0.287692 -0.042319 0)
(0.30638 -0.0436453 0)
(0.325217 -0.044649 0)
(0.34403 -0.045323 0)
(0.362661 -0.0456722 0)
(0.380969 -0.0457112 0)
(0.398834 -0.0454616 0)
(0.416155 -0.0449491 0)
(0.432852 -0.0442022 0)
(0.448863 -0.0432499 0)
(0.464141 -0.0421205 0)
(0.478657 -0.0408412 0)
(0.492391 -0.0394371 0)
(0.505335 -0.0379312 0)
(0.517489 -0.036344 0)
(0.528861 -0.0346939 0)
(0.539465 -0.0329968 0)
(0.549319 -0.0312667 0)
(0.558443 -0.0295156 0)
(0.566863 -0.0277539 0)
(0.574603 -0.0259901 0)
(0.581692 -0.0242318 0)
(0.588159 -0.022485 0)
(0.594031 -0.0207547 0)
(0.599339 -0.0190451 0)
(0.604112 -0.0173595 0)
(0.608378 -0.0157005 0)
(0.612166 -0.0140698 0)
(0.615504 -0.0124687 0)
(0.618421 -0.0108979 0)
(0.620942 -0.00935745 0)
(0.623095 -0.00784699 0)
(0.624906 -0.00636551 0)
(0.626398 -0.00491147 0)
(0.627597 -0.00348271 0)
(0.628527 -0.00207644 0)
(0.629209 -0.000689149 0)
(0.629668 0.000682812 0)
(0.629925 0.00204345 0)
(0.629999 0.00339812 0)
(0.629912 0.00475324 0)
(0.629683 0.00611617 0)
(0.629331 0.00749527 0)
(0.628875 0.00890013 0)
(0.628331 0.0103417 0)
(0.627719 0.0118324 0)
(0.627056 0.0133865 0)
(0.626359 0.01502 0)
(0.625649 0.016751 0)
(0.624944 0.0186001 0)
(0.624264 0.02059 0)
(0.623634 0.0227461 0)
(0.623079 0.025096 0)
(0.622628 0.0276695 0)
(0.622316 0.0304976 0)
(0.622185 0.0336116 0)
(0.622283 0.0370404 0)
(0.622669 0.0408079 0)
(0.623407 0.0449282 0)
(0.624572 0.0493994 0)
(0.626243 0.0541964 0)
(0.628494 0.0592631 0)
(0.631387 0.064505 0)
(0.634954 0.0697872 0)
(0.639168 0.0749438 0)
(0.100101 -0.00457762 0)
(0.103184 -0.00876029 0)
(0.107814 -0.0123138 0)
(0.113813 -0.0154999 0)
(0.121087 -0.0184329 0)
(0.129507 -0.0212041 0)
(0.138985 -0.0238992 0)
(0.149491 -0.0265897 0)
(0.161031 -0.0293264 0)
(0.173631 -0.0321333 0)
(0.187323 -0.0350042 0)
(0.202116 -0.0379025 0)
(0.217985 -0.0407669 0)
(0.234857 -0.0435205 0)
(0.25261 -0.0460821 0)
(0.271082 -0.0483761 0)
(0.290088 -0.0503411 0)
(0.309425 -0.0519332 0)
(0.328896 -0.0531282 0)
(0.348311 -0.0539193 0)
(0.367502 -0.0543153 0)
(0.38632 -0.054336 0)
(0.404642 -0.0540095 0)
(0.422366 -0.053369 0)
(0.439415 -0.0524497 0)
(0.455728 -0.0512875 0)
(0.471264 -0.0499171 0)
(0.485995 -0.0483713 0)
(0.499908 -0.0466803 0)
(0.512997 -0.0448715 0)
(0.525268 -0.0429693 0)
(0.536732 -0.0409953 0)
(0.547404 -0.0389684 0)
(0.557306 -0.0369049 0)
(0.566462 -0.0348187 0)
(0.574899 -0.0327218 0)
(0.582644 -0.0306243 0)
(0.589726 -0.0285346 0)
(0.596176 -0.0264597 0)
(0.602023 -0.0244053 0)
(0.607298 -0.0223762 0)
(0.61203 -0.0203761 0)
(0.61625 -0.0184076 0)
(0.619987 -0.0164728 0)
(0.623269 -0.0145731 0)
(0.626124 -0.012709 0)
(0.628579 -0.0108807 0)
(0.630662 -0.00908762 0)
(0.632398 -0.00732846 0)
(0.633812 -0.00560146 0)
(0.634929 -0.00390417 0)
(0.635773 -0.00223346 0)
(0.636365 -0.000585518 0)
(0.636733 0.00104384 0)
(0.636896 0.00265925 0)
(0.636873 0.00426681 0)
(0.636688 0.00587362 0)
(0.636358 0.00748763 0)
(0.635905 0.00911771 0)
(0.635346 0.0107739 0)
(0.634702 0.0124673 0)
(0.633991 0.0142104 0)
(0.633232 0.0160172 0)
(0.632446 0.0179029 0)
(0.631653 0.0198843 0)
(0.630875 0.0219798 0)
(0.630135 0.0242088 0)
(0.629458 0.0265921 0)
(0.628873 0.029151 0)
(0.62841 0.0319068 0)
(0.628104 0.0348795 0)
(0.627994 0.0380866 0)
(0.628122 0.0415409 0)
(0.628535 0.0452478 0)
(0.629282 0.0492025 0)
(0.630411 0.0533859 0)
(0.631966 0.0577617 0)
(0.633983 0.0622736 0)
(0.63648 0.0668446 0)
(0.639449 0.0713801 0)
(0.642843 0.0757789 0)
(0.0999812 -0.00517014 0)
(0.103037 -0.00998877 0)
(0.107561 -0.0141006 0)
(0.113429 -0.0177987 0)
(0.12058 -0.0212131 0)
(0.128895 -0.0244483 0)
(0.1383 -0.0276067 0)
(0.148783 -0.0307765 0)
(0.160376 -0.0340215 0)
(0.173132 -0.0373717 0)
(0.187105 -0.0408178 0)
(0.202315 -0.0443105 0)
(0.218732 -0.0477684 0)
(0.236264 -0.0510908 0)
(0.254758 -0.0541731 0)
(0.27402 -0.0569205 0)
(0.293827 -0.059258 0)
(0.313949 -0.0611346 0)
(0.334163 -0.0625245 0)
(0.354266 -0.0634242 0)
(0.374078 -0.063848 0)
(0.393448 -0.063824 0)
(0.41225 -0.0633887 0)
(0.430386 -0.0625842 0)
(0.447783 -0.0614543 0)
(0.464386 -0.0600425 0)
(0.480159 -0.0583909 0)
(0.495082 -0.0565384 0)
(0.509145 -0.0545208 0)
(0.522349 -0.0523702 0)
(0.534704 -0.0501151 0)
(0.546226 -0.0477804 0)
(0.556934 -0.0453879 0)
(0.566854 -0.0429563 0)
(0.576011 -0.0405015 0)
(0.584435 -0.038037 0)
(0.592156 -0.0355743 0)
(0.599204 -0.0331227 0)
(0.605612 -0.0306903 0)
(0.611411 -0.0282832 0)
(0.616631 -0.0259068 0)
(0.621304 -0.0235648 0)
(0.62546 -0.0212604 0)
(0.629128 -0.0189957 0)
(0.632338 -0.016772 0)
(0.635118 -0.01459 0)
(0.637495 -0.0124496 0)
(0.639497 -0.01035 0)
(0.641149 -0.00828978 0)
(0.642477 -0.00626695 0)
(0.643505 -0.00427877 0)
(0.644258 -0.00232181 0)
(0.644757 -0.000392209 0)
(0.64503 0.0015148 0)
(0.645096 0.00340463 0)
(0.644976 0.00528401 0)
(0.644692 0.00716045 0)
(0.644263 0.00904221 0)
(0.64371 0.0109383 0)
(0.643054 0.0128589 0)
(0.642312 0.0148147 0)
(0.641507 0.0168179 0)
(0.640659 0.0188813 0)
(0.639787 0.0210187 0)
(0.638916 0.0232448 0)
(0.638067 0.0255748 0)
(0.637265 0.0280245 0)
(0.636535 0.0306093 0)
(0.635906 0.0333441 0)
(0.635407 0.0362421 0)
(0.63507 0.0393142 0)
(0.634928 0.0425673 0)
(0.635015 0.0460029 0)
(0.635365 0.0496154 0)
(0.636011 0.0533906 0)
(0.636981 0.0573036 0)
(0.638296 0.0613186 0)
(0.639967 0.0653883 0)
(0.64199 0.0694553 0)
(0.644344 0.0734564 0)
(0.646982 0.0773311 0)
(0.0998535 -0.0057823 0)
(0.102901 -0.0112653 0)
(0.107336 -0.0159687 0)
(0.113084 -0.0202131 0)
(0.120123 -0.0241461 0)
(0.128349 -0.0278875 0)
(0.137708 -0.0315601 0)
(0.148217 -0.0352732 0)
(0.159941 -0.0391063 0)
(0.172969 -0.0430955 0)
(0.187378 -0.047224 0)
(0.203193 -0.0514224 0)
(0.220366 -0.05558 0)
(0.23877 -0.0595635 0)
(0.258208 -0.063239 0)
(0.278436 -0.0664895 0)
(0.299192 -0.0692267 0)
(0.320212 -0.0713946 0)
(0.341251 -0.0729693 0)
(0.362092 -0.0739537 0)
(0.38255 -0.0743719 0)
(0.402474 -0.0742625 0)
(0.421742 -0.0736736 0)
(0.440265 -0.0726576 0)
(0.457973 -0.0712684 0)
(0.474824 -0.0695585 0)
(0.490788 -0.0675776 0)
(0.505851 -0.0653715 0)
(0.520014 -0.0629819 0)
(0.533283 -0.0604456 0)
(0.545673 -0.0577954 0)
(0.557204 -0.0550595 0)
(0.567902 -0.0522626 0)
(0.577795 -0.0494256 0)
(0.586912 -0.0465664 0)
(0.595285 -0.0437 0)
(0.602947 -0.0408391 0)
(0.609929 -0.0379939 0)
(0.616265 -0.0351731 0)
(0.621987 -0.0323836 0)
(0.627128 -0.0296308 0)
(0.63172 -0.0269191 0)
(0.635791 -0.0242515 0)
(0.639374 -0.0216303 0)
(0.642497 -0.0190568 0)
(0.645189 -0.0165314 0)
(0.647478 -0.014054 0)
(0.64939 -0.0116236 0)
(0.650951 -0.00923865 0)
(0.652187 -0.0068968 0)
(0.653124 -0.00459506 0)
(0.653783 -0.00232974 0)
(0.654189 -9.73043e-05 0)
(0.65437 0.00210747 0)
(0.654342 0.00429108 0)
(0.654128 0.00646074 0)
(0.65375 0.0086241 0)
(0.653228 0.0107894 0)
(0.652583 0.0129656 0)
(0.651836 0.0151622 0)
(0.651006 0.0173896 0)
(0.650116 0.0196587 0)
(0.649185 0.0219809 0)
(0.648236 0.024368 0)
(0.647292 0.0268321 0)
(0.646374 0.0293851 0)
(0.645508 0.0320386 0)
(0.644719 0.0348032 0)
(0.644032 0.0376878 0)
(0.643473 0.0406993 0)
(0.64307 0.0438415 0)
(0.642849 0.0471142 0)
(0.642835 0.0505123 0)
(0.643052 0.054025 0)
(0.643519 0.057635 0)
(0.644251 0.0613183 0)
(0.645254 0.0650441 0)
(0.646526 0.0687763 0)
(0.648055 0.0724744 0)
(0.649814 0.0760972 0)
(0.651765 0.0796092 0)
(0.099715 -0.00641822 0)
(0.102775 -0.0125957 0)
(0.10714 -0.0179258 0)
(0.112782 -0.0227536 0)
(0.119727 -0.0272469 0)
(0.127891 -0.0315448 0)
(0.137248 -0.0357959 0)
(0.147854 -0.0401361 0)
(0.159824 -0.044664 0)
(0.173287 -0.049419 0)
(0.188337 -0.0543688 0)
(0.204991 -0.0594108 0)
(0.223164 -0.0643916 0)
(0.24267 -0.0691354 0)
(0.26325 -0.0734732 0)
(0.284604 -0.0772653 0)
(0.306422 -0.0804125 0)
(0.328411 -0.0828589 0)
(0.350308 -0.0845878 0)
(0.371889 -0.0856138 0)
(0.392969 -0.0859746 0)
(0.413405 -0.0857233 0)
(0.433084 -0.0849214 0)
(0.451927 -0.0836343 0)
(0.469878 -0.0819268 0)
(0.486901 -0.0798613 0)
(0.502981 -0.0774958 0)
(0.518112 -0.0748833 0)
(0.532302 -0.0720711 0)
(0.545566 -0.0691013 0)
(0.557924 -0.0660104 0)
(0.569404 -0.0628302 0)
(0.580033 -0.0595879 0)
(0.589845 -0.0563066 0)
(0.598871 -0.0530059 0)
(0.607147 -0.0497023 0)
(0.614706 -0.0464092 0)
(0.621584 -0.043138 0)
(0.627813 -0.0398978 0)
(0.633429 -0.0366958 0)
(0.638463 -0.0335378 0)
(0.642948 -0.0304282 0)
(0.646915 -0.0273703 0)
(0.650395 -0.024366 0)
(0.653417 -0.0214168 0)
(0.656009 -0.0185228 0)
(0.658199 -0.0156839 0)
(0.660014 -0.0128987 0)
(0.66148 -0.0101656 0)
(0.662623 -0.00748204 0)
(0.663468 -0.00484483 0)
(0.664037 -0.00225019 0)
(0.664357 0.000305724 0)
(0.664449 0.00282831 0)
(0.664334 0.00532472 0)
(0.664035 0.00780237 0)
(0.663573 0.0102689 0)
(0.662969 0.0127322 0)
(0.662243 0.0152009 0)
(0.661418 0.0176838 0)
(0.660512 0.0201902 0)
(0.659548 0.0227296 0)
(0.658547 0.0253117 0)
(0.657531 0.0279461 0)
(0.656521 0.030642 0)
(0.65554 0.0334082 0)
(0.65461 0.0362523 0)
(0.653755 0.0391807 0)
(0.652998 0.042198 0)
(0.65236 0.0453061 0)
(0.651863 0.0485043 0)
(0.651528 0.0517883 0)
(0.651372 0.05515 0)
(0.65141 0.0585771 0)
(0.651652 0.0620531 0)
(0.652104 0.0655574 0)
(0.652764 0.0690662 0)
(0.653625 0.072553 0)
(0.654671 0.0759905 0)
(0.655879 0.0793524 0)
(0.657216 0.0826185 0)
(0.0995632 -0.00708243 0)
(0.102656 -0.0139872 0)
(0.106975 -0.0199818 0)
(0.112529 -0.0254342 0)
(0.119403 -0.0305361 0)
(0.127545 -0.0354528 0)
(0.136966 -0.0403665 0)
(0.147779 -0.0454472 0)
(0.160157 -0.0508137 0)
(0.174272 -0.0565016 0)
(0.190222 -0.062447 0)
(0.207991 -0.0684951 0)
(0.227424 -0.0744331 0)
(0.248254 -0.080032 0)
(0.270146 -0.0850854 0)
(0.292736 -0.0894341 0)
(0.315674 -0.0929752 0)
(0.338642 -0.0956604 0)
(0.36137 -0.0974874 0)
(0.383635 -0.0984887 0)
(0.405262 -0.0987205 0)
(0.42612 -0.0982535 0)
(0.446113 -0.0971654 0)
(0.465174 -0.0955356 0)
(0.483262 -0.0934413 0)
(0.500357 -0.090955 0)
(0.516453 -0.0881434 0)
(0.531557 -0.0850666 0)
(0.545684 -0.0817777 0)
(0.558856 -0.0783234 0)
(0.571103 -0.0747443 0)
(0.582455 -0.0710751 0)
(0.592947 -0.0673454 0)
(0.602614 -0.0635803 0)
(0.611492 -0.0598009 0)
(0.619617 -0.0560246 0)
(0.627026 -0.0522659 0)
(0.633756 -0.0485367 0)
(0.639841 -0.0448464 0)
(0.645315 -0.0412027 0)
(0.650213 -0.0376113 0)
(0.654567 -0.0340766 0)
(0.658407 -0.0306019 0)
(0.661766 -0.0271892 0)
(0.664671 -0.0238394 0)
(0.667151 -0.0205528 0)
(0.669235 -0.0173289 0)
(0.670948 -0.0141662 0)
(0.672317 -0.0110628 0)
(0.673367 -0.00801604 0)
(0.674122 -0.00502282 0)
(0.674606 -0.00207936 0)
(0.674844 0.000818984 0)
(0.674857 0.00367806 0)
(0.674667 0.00650485 0)
(0.674295 0.00930665 0)
(0.673763 0.0120908 0)
(0.673091 0.014865 0)
(0.672301 0.0176369 0)
(0.671413 0.0204145 0)
(0.670448 0.0232059 0)
(0.669426 0.0260191 0)
(0.66837 0.0288617 0)
(0.667298 0.0317412 0)
(0.666233 0.0346642 0)
(0.665196 0.0376366 0)
(0.664206 0.0406629 0)
(0.663284 0.0437463 0)
(0.66245 0.0468879 0)
(0.661721 0.050087 0)
(0.661114 0.05334 0)
(0.660645 0.056641 0)
(0.660324 0.0599813 0)
(0.66016 0.0633492 0)
(0.660158 0.0667309 0)
(0.660318 0.0701102 0)
(0.660635 0.0734694 0)
(0.6611 0.0767902 0)
(0.661698 0.0800545 0)
(0.662408 0.083246 0)
(0.663207 0.0863541 0)
(0.0993951 -0.00778001 0)
(0.102544 -0.0154488 0)
(0.106842 -0.0221495 0)
(0.112332 -0.0282735 0)
(0.119169 -0.0340429 0)
(0.127345 -0.0396589 0)
(0.136928 -0.0453495 0)
(0.148103 -0.0513257 0)
(0.161113 -0.0577238 0)
(0.176158 -0.0645587 0)
(0.193316 -0.0717091 0)
(0.212494 -0.0789417 0)
(0.233436 -0.0859659 0)
(0.255774 -0.0924937 0)
(0.279086 -0.0982846 0)
(0.302954 -0.103169 0)
(0.326995 -0.107053 0)
(0.350882 -0.109904 0)
(0.374346 -0.111745 0)
(0.397181 -0.112631 0)
(0.419227 -0.112642 0)
(0.440374 -0.11187 0)
(0.460543 -0.110409 0)
(0.479687 -0.108355 0)
(0.497783 -0.105797 0)
(0.514823 -0.102819 0)
(0.530816 -0.0994948 0)
(0.545778 -0.0958924 0)
(0.559736 -0.0920703 0)
(0.57272 -0.0880793 0)
(0.584764 -0.0839636 0)
(0.595905 -0.0797604 0)
(0.606182 -0.0755016 0)
(0.615633 -0.0712139 0)
(0.624298 -0.0669193 0)
(0.632215 -0.0626362 0)
(0.639423 -0.0583798 0)
(0.645958 -0.0541621 0)
(0.651856 -0.0499928 0)
(0.657154 -0.0458797 0)
(0.661883 -0.0418285 0)
(0.666078 -0.0378435 0)
(0.66977 -0.0339277 0)
(0.672988 -0.0300828 0)
(0.675762 -0.0263098 0)
(0.67812 -0.0226085 0)
(0.680089 -0.0189782 0)
(0.681696 -0.0154172 0)
(0.682967 -0.0119235 0)
(0.683925 -0.00849436 0)
(0.684595 -0.00512655 0)
(0.684999 -0.00181635 0)
(0.685165 0.0014414 0)
(0.685109 0.00465284 0)
(0.684856 0.00782482 0)
(0.684425 0.0109643 0)
(0.683839 0.0140783 0)
(0.683117 0.0171737 0)
(0.68228 0.0202575 0)
(0.681348 0.0233365 0)
(0.680341 0.0264175 0)
(0.67928 0.0295069 0)
(0.678184 0.0326106 0)
(0.677073 0.0357339 0)
(0.675965 0.0388814 0)
(0.674881 0.0420566 0)
(0.673837 0.0452617 0)
(0.672852 0.0484976 0)
(0.671941 0.0517635 0)
(0.671119 0.055057 0)
(0.670397 0.0583736 0)
(0.669788 0.0617073 0)
(0.669297 0.0650498 0)
(0.668929 0.0683917 0)
(0.668686 0.0717218 0)
(0.668566 0.0750284 0)
(0.668562 0.0782991 0)
(0.668665 0.0815215 0)
(0.668862 0.0846841 0)
(0.669138 0.0877772 0)
(0.669474 0.0907961 0)
(0.0992073 -0.00851675 0)
(0.102436 -0.0169917 0)
(0.106743 -0.0244455 0)
(0.1122 -0.0312972 0)
(0.119048 -0.0378089 0)
(0.127342 -0.0442334 0)
(0.137227 -0.050859 0)
(0.148982 -0.0579433 0)
(0.162914 -0.0656264 0)
(0.179226 -0.0738714 0)
(0.197924 -0.0824609 0)
(0.218793 -0.0910529 0)
(0.241445 -0.0992657 0)
(0.265397 -0.106755 0)
(0.290154 -0.113258 0)
(0.315253 -0.118613 0)
(0.340298 -0.122746 0)
(0.364969 -0.125656 0)
(0.389014 -0.127397 0)
(0.41225 -0.128054 0)
(0.434542 -0.127735 0)
(0.455804 -0.126552 0)
(0.475982 -0.124622 0)
(0.495048 -0.122053 0)
(0.512998 -0.118949 0)
(0.529839 -0.115403 0)
(0.545593 -0.111499 0)
(0.560289 -0.107308 0)
(0.573961 -0.102895 0)
(0.586648 -0.0983157 0)
(0.59839 -0.0936156 0)
(0.609229 -0.0888349 0)
(0.619208 -0.084007 0)
(0.628369 -0.0791595 0)
(0.636752 -0.0743155 0)
(0.6444 -0.0694939 0)
(0.65135 -0.06471 0)
(0.657642 -0.059976 0)
(0.663311 -0.0553016 0)
(0.668393 -0.0506943 0)
(0.672922 -0.0461598 0)
(0.67693 -0.041702 0)
(0.680449 -0.0373236 0)
(0.683508 -0.0330261 0)
(0.686136 -0.02881 0)
(0.68836 -0.024675 0)
(0.690208 -0.02062 0)
(0.691705 -0.0166431 0)
(0.692875 -0.0127422 0)
(0.693744 -0.00891436 0)
(0.694334 -0.00515641 0)
(0.694668 -0.00146468 0)
(0.69477 0.0021664 0)
(0.694658 0.00574315 0)
(0.694355 0.0092722 0)
(0.693882 0.0127601 0)
(0.693258 0.0162132 0)
(0.692504 0.0196376 0)
(0.691638 0.0230395 0)
(0.690681 0.0264246 0)
(0.689651 0.0297983 0)
(0.688568 0.0331657 0)
(0.68745 0.036531 0)
(0.686314 0.039898 0)
(0.685179 0.0432695 0)
(0.68406 0.0466474 0)
(0.682973 0.0500323 0)
(0.681933 0.0534238 0)
(0.680952 0.0568202 0)
(0.680042 0.0602184 0)
(0.679212 0.0636142 0)
(0.678469 0.0670019 0)
(0.677818 0.0703751 0)
(0.677261 0.0737262 0)
(0.676797 0.0770473 0)
(0.676423 0.08033 0)
(0.676134 0.083566 0)
(0.675921 0.0867475 0)
(0.675774 0.0898676 0)
(0.675681 0.0929207 0)
(0.675628 0.095906 0)
(0.0989961 -0.00929952 0)
(0.102334 -0.0186299 0)
(0.106682 -0.0268921 0)
(0.112146 -0.0345413 0)
(0.119072 -0.0418955 0)
(0.127605 -0.0492807 0)
(0.137993 -0.0570623 0)
(0.150618 -0.0655413 0)
(0.165831 -0.0748296 0)
(0.183781 -0.0847867 0)
(0.204341 -0.095051 0)
(0.227127 -0.105145 0)
(0.2516 -0.114596 0)
(0.277174 -0.123018 0)
(0.303296 -0.130151 0)
(0.329486 -0.135857 0)