/*--------------------------------*- C++ -*----------------------------------*\
  =========                 |
  \\      /  F ield         | OpenFOAM: The Open Source CFD Toolbox
   \\    /   O peration     | Website:  https://openfoam.org
    \\  /    A nd           | Version:  7
     \\/     M anipulation  |
\*---------------------------------------------------------------------------*/
FoamFile
{
    version     2.0;
    format      ascii;
    class       volVectorField;
    location    "6.6";
    object      U;
}
// * * * * * * * * * * * * * * * * * * * * * * * * * * * * * * * * * * * * * //

dimensions      [0 1 -1 0 0 0 0];

internalField   nonuniform List<vector> 
12013
(
(0.100824 -0.000222401 0)
(0.104059 -0.00039094 0)
(0.109028 -0.000538714 0)
(0.115254 -0.000670071 0)
(0.122596 -0.000790167 0)
(0.13092 -0.000902699 0)
(0.140125 -0.00101054 0)
(0.150142 -0.00111595 0)
(0.160919 -0.00122049 0)
(0.172421 -0.00132495 0)
(0.184614 -0.00142934 0)
(0.197464 -0.0015329 0)
(0.210927 -0.00163427 0)
(0.22495 -0.00173164 0)
(0.239464 -0.00182299 0)
(0.254388 -0.00190629 0)
(0.26963 -0.00197976 0)
(0.285091 -0.00204192 0)
(0.300667 -0.00209174 0)
(0.316256 -0.00212861 0)
(0.331756 -0.00215238 0)
(0.347075 -0.00216325 0)
(0.362125 -0.00216173 0)
(0.376831 -0.00214859 0)
(0.391127 -0.00212473 0)
(0.404957 -0.00209118 0)
(0.418276 -0.002049 0)
(0.431049 -0.00199926 0)
(0.44325 -0.001943 0)
(0.454861 -0.0018812 0)
(0.465871 -0.00181478 0)
(0.476276 -0.0017446 0)
(0.486077 -0.00167142 0)
(0.49528 -0.00159592 0)
(0.503895 -0.00151874 0)
(0.511936 -0.00144042 0)
(0.519418 -0.0013614 0)
(0.526359 -0.00128214 0)
(0.532779 -0.001203 0)
(0.538699 -0.00112426 0)
(0.544143 -0.0010462 0)
(0.549131 -0.000969056 0)
(0.553689 -0.000893012 0)
(0.557839 -0.000818203 0)
(0.561606 -0.000744747 0)
(0.565014 -0.000672742 0)
(0.568087 -0.000602244 0)
(0.570848 -0.00053327 0)
(0.573321 -0.000465811 0)
(0.575529 -0.000399826 0)
(0.577495 -0.000335237 0)
(0.579239 -0.000271923 0)
(0.580785 -0.000209718 0)
(0.582153 -0.000148406 0)
(0.583362 -8.77162e-05 0)
(0.584433 -2.73191e-05 0)
(0.585382 3.31521e-05 0)
(0.586228 9.41305e-05 0)
(0.586988 0.000156157 0)
(0.587675 0.000219911 0)
(0.588305 0.000286227 0)
(0.58889 0.000356116 0)
(0.589438 0.000430818 0)
(0.589959 0.000511863 0)
(0.590457 0.00060115 0)
(0.590934 0.000701065 0)
(0.591385 0.000814651 0)
(0.591802 0.000945855 0)
(0.592169 0.0010999 0)
(0.592458 0.00128387 0)
(0.592629 0.00150762 0)
(0.59262 0.0017854 0)
(0.592339 0.00213845 0)
(0.591649 0.00260002 0)
(0.590337 0.00322456 0)
(0.588067 0.00410626 0)
(0.584281 0.00541795 0)
(0.578 0.00750313 0)
(0.567457 0.0111741 0)
(0.549555 0.0193242 0)
(0.5315 0.0518064 0)
(0.100752 -0.000677754 0)
(0.103971 -0.0011968 0)
(0.108914 -0.00164952 0)
(0.115119 -0.00205128 0)
(0.122443 -0.00241839 0)
(0.130751 -0.00276212 0)
(0.139942 -0.0030913 0)
(0.149945 -0.00341291 0)
(0.160711 -0.00373171 0)
(0.172205 -0.00405014 0)
(0.184392 -0.00436823 0)
(0.19724 -0.00468373 0)
(0.210706 -0.00499244 0)
(0.224735 -0.00528887 0)
(0.23926 -0.00556688 0)
(0.2542 -0.00582036 0)
(0.269462 -0.00604386 0)
(0.284947 -0.00623295 0)
(0.30055 -0.00638449 0)
(0.316168 -0.00649669 0)
(0.3317 -0.00656905 0)
(0.34705 -0.00660223 0)
(0.362133 -0.00659779 0)
(0.376872 -0.00655802 0)
(0.391199 -0.00648571 0)
(0.40506 -0.00638393 0)
(0.418409 -0.0062559 0)
(0.43121 -0.00610485 0)
(0.443437 -0.00593392 0)
(0.455072 -0.0057461 0)
(0.466104 -0.00554417 0)
(0.476529 -0.00533069 0)
(0.486349 -0.00510799 0)
(0.495568 -0.00487817 0)
(0.504198 -0.00464308 0)
(0.51225 -0.00440438 0)
(0.519743 -0.00416352 0)
(0.526692 -0.00392177 0)
(0.533119 -0.00368023 0)
(0.539045 -0.00343983 0)
(0.544491 -0.0032014 0)
(0.549482 -0.00296562 0)
(0.554039 -0.00273305 0)
(0.558188 -0.00250416 0)
(0.561951 -0.00227931 0)
(0.565354 -0.00205876 0)
(0.56842 -0.00184269 0)
(0.571172 -0.00163116 0)
(0.573633 -0.00142416 0)
(0.575828 -0.00122155 0)
(0.577778 -0.0010231 0)
(0.579505 -0.000828418 0)
(0.581031 -0.000637014 0)
(0.582376 -0.000448227 0)
(0.58356 -0.000261229 0)
(0.584602 -7.50024e-05 0)
(0.585521 0.00011157 0)
(0.586333 0.000299765 0)
(0.587055 0.000491213 0)
(0.587702 0.000687979 0)
(0.588288 0.00089259 0)
(0.588825 0.00110812 0)
(0.589323 0.00133834 0)
(0.58979 0.00158784 0)
(0.590232 0.00186234 0)
(0.590649 0.00216899 0)
(0.591041 0.00251686 0)
(0.591399 0.00291765 0)
(0.591709 0.00338672 0)
(0.591949 0.00394474 0)
(0.592084 0.00462015 0)
(0.592063 0.00545335 0)
(0.591814 0.00650357 0)
(0.591232 0.00786091 0)
(0.590166 0.00966794 0)
(0.588404 0.0121598 0)
(0.585641 0.0157409 0)
(0.581452 0.0211368 0)
(0.575292 0.0297256 0)
(0.567069 0.0441948 0)
(0.564616 0.0695557 0)
(0.100671 -0.00114865 0)
(0.103844 -0.00205065 0)
(0.108733 -0.002831 0)
(0.114894 -0.00352317 0)
(0.122178 -0.00415551 0)
(0.130451 -0.00474746 0)
(0.139611 -0.00531435 0)
(0.149588 -0.00586825 0)
(0.160333 -0.00641747 0)
(0.17181 -0.00696628 0)
(0.183988 -0.00751475 0)
(0.196833 -0.00805902 0)
(0.210305 -0.00859188 0)
(0.22435 -0.0091038 0)
(0.2389 -0.00958414 0)
(0.253874 -0.0100223 0)
(0.269179 -0.0104089 0)
(0.284714 -0.0107361 0)
(0.300375 -0.0109985 0)
(0.316055 -0.011193 0)
(0.331652 -0.0113186 0)
(0.34707 -0.0113766 0)
(0.362221 -0.0113696 0)
(0.377027 -0.0113015 0)
(0.39142 -0.0111772 0)
(0.405344 -0.011002 0)
(0.418753 -0.0107814 0)
(0.431611 -0.0105211 0)
(0.443891 -0.0102264 0)
(0.455576 -0.00990259 0)
(0.466653 -0.00955436 0)
(0.477119 -0.00918618 0)
(0.486975 -0.00880207 0)
(0.496228 -0.00840564 0)
(0.504886 -0.0080001 0)
(0.512964 -0.0075883 0)
(0.520478 -0.00717274 0)
(0.527446 -0.00675559 0)
(0.533887 -0.00633876 0)
(0.539824 -0.00592386 0)
(0.545278 -0.00551229 0)
(0.550273 -0.00510521 0)
(0.554831 -0.0047036 0)
(0.558978 -0.00430824 0)
(0.562736 -0.00391976 0)
(0.566131 -0.00353858 0)
(0.569184 -0.00316499 0)
(0.571921 -0.00279911 0)
(0.574365 -0.00244088 0)
(0.576537 -0.00209007 0)
(0.578461 -0.00174623 0)
(0.580159 -0.00140874 0)
(0.581651 -0.0010767 0)
(0.582958 -0.000748982 0)
(0.584099 -0.000424135 0)
(0.585095 -0.000100418 0)
(0.585962 0.000224068 0)
(0.586718 0.000551505 0)
(0.587378 0.000884702 0)
(0.587959 0.00122718 0)
(0.588474 0.00158322 0)
(0.588935 0.00195801 0)
(0.589353 0.00235784 0)
(0.589735 0.00279042 0)
(0.590088 0.00326521 0)
(0.590415 0.00379397 0)
(0.590716 0.00439151 0)
(0.590987 0.00507671 0)
(0.591218 0.00587406 0)
(0.591393 0.00681589 0)
(0.59149 0.00794581 0)
(0.591476 0.00932403 0)
(0.591308 0.0110356 0)
(0.590932 0.0132039 0)
(0.590284 0.0160122 0)
(0.589301 0.019739 0)
(0.587954 0.0248142 0)
(0.586321 0.0319084 0)
(0.584772 0.042073 0)
(0.584414 0.056871 0)
(0.589097 0.0776604 0)
(0.100586 -0.00162938 0)
(0.103696 -0.00294861 0)
(0.108505 -0.00408099 0)
(0.114598 -0.00508592 0)
(0.121823 -0.00600371 0)
(0.130044 -0.00686269 0)
(0.139158 -0.00768536 0)
(0.149095 -0.00848942 0)
(0.159808 -0.00928708 0)
(0.171262 -0.0100847 0)
(0.183427 -0.0108824 0)
(0.196273 -0.0116747 0)
(0.20976 -0.0124511 0)
(0.223835 -0.0131975 0)
(0.238431 -0.0138984 0)
(0.253466 -0.0145383 0)
(0.268846 -0.0151031 0)
(0.284468 -0.0155815 0)
(0.300226 -0.0159654 0)
(0.31601 -0.0162501 0)
(0.331716 -0.0164345 0)
(0.347245 -0.01652 0)
(0.362507 -0.0165107 0)
(0.377422 -0.0164123 0)
(0.391921 -0.0162318 0)
(0.405946 -0.0159771 0)
(0.419451 -0.0156563 0)
(0.432399 -0.0152776 0)
(0.444762 -0.0148488 0)
(0.456523 -0.0143776 0)
(0.46767 -0.0138709 0)
(0.478199 -0.0133352 0)
(0.488111 -0.0127764 0)
(0.497414 -0.0121996 0)
(0.506116 -0.0116097 0)
(0.514232 -0.0110107 0)
(0.521778 -0.0104061 0)
(0.528773 -0.00979931 0)
(0.535236 -0.00919292 0)
(0.541189 -0.00858928 0)
(0.546655 -0.00799042 0)
(0.551657 -0.00739801 0)
(0.556218 -0.00681345 0)
(0.560362 -0.00623783 0)
(0.564114 -0.00567204 0)
(0.567497 -0.0051167 0)
(0.570535 -0.00457219 0)
(0.573252 -0.00403866 0)
(0.575671 -0.00351598 0)
(0.577814 -0.0030038 0)
(0.579704 -0.00250148 0)
(0.581362 -0.00200807 0)
(0.58281 -0.00152227 0)
(0.584067 -0.0010424 0)
(0.585155 -0.000566381 0)
(0.58609 -9.17335e-05 0)
(0.586891 0.000384225 0)
(0.587576 0.000864647 0)
(0.58816 0.00135357 0)
(0.588659 0.00185599 0)
(0.589087 0.00237793 0)
(0.589455 0.00292663 0)
(0.589776 0.00351083 0)
(0.590058 0.0041411 0)
(0.59031 0.00483034 0)
(0.590535 0.00559441 0)
(0.590738 0.00645298 0)
(0.590918 0.00743076 0)
(0.591074 0.00855912 0)
(0.591198 0.0098785 0)
(0.591285 0.0114418 0)
(0.591322 0.013319 0)
(0.591301 0.0156044 0)
(0.591219 0.0184259 0)
(0.591089 0.0219586 0)
(0.590965 0.026441 0)
(0.590976 0.0321932 0)
(0.591401 0.0396252 0)
(0.59278 0.049213 0)
(0.596049 0.0613528 0)
(0.602821 0.0757794 0)
(0.100499 -0.00211913 0)
(0.103538 -0.0038878 0)
(0.108251 -0.00539777 0)
(0.114256 -0.00673943 0)
(0.121403 -0.0079646 0)
(0.129555 -0.0091111 0)
(0.138608 -0.0102093 0)
(0.148495 -0.0112832 0)
(0.159168 -0.0123493 0)
(0.170596 -0.0134164 0)
(0.182751 -0.014485 0)
(0.195607 -0.0155476 0)
(0.209124 -0.01659 0)
(0.223253 -0.0175935 0)
(0.237925 -0.0185366 0)
(0.25306 -0.0193984 0)
(0.26856 -0.0201595 0)
(0.284319 -0.0208046 0)
(0.300227 -0.0213226 0)
(0.31617 -0.0217072 0)
(0.33204 -0.0219565 0)
(0.347734 -0.0220727 0)
(0.36316 -0.0220612 0)
(0.378234 -0.0219299 0)
(0.392886 -0.0216882 0)
(0.407056 -0.0213468 0)
(0.420696 -0.0209167 0)
(0.433769 -0.0204089 0)
(0.446248 -0.0198341 0)
(0.458113 -0.0192024 0)
(0.469355 -0.0185234 0)
(0.479969 -0.0178056 0)
(0.489956 -0.0170569 0)
(0.499325 -0.0162843 0)
(0.508085 -0.0154942 0)
(0.51625 -0.0146919 0)
(0.523837 -0.0138824 0)
(0.530865 -0.0130699 0)
(0.537355 -0.0122579 0)
(0.543328 -0.0114495 0)
(0.548808 -0.0106475 0)
(0.553817 -0.00985405 0)
(0.55838 -0.0090709 0)
(0.562521 -0.00829955 0)
(0.566263 -0.00754113 0)
(0.569631 -0.00679642 0)
(0.572648 -0.0060659 0)
(0.575339 -0.0053497 0)
(0.577726 -0.00464768 0)
(0.579832 -0.00395931 0)
(0.581679 -0.0032837 0)
(0.58329 -0.00261957 0)
(0.584684 -0.00196518 0)
(0.585882 -0.0013183 0)
(0.586904 -0.000676142 0)
(0.587768 -3.56334e-05 0)
(0.588493 0.000606791 0)
(0.589095 0.00125528 0)
(0.589592 0.00191509 0)
(0.589998 0.00259265 0)
(0.590328 0.00329561 0)
(0.590596 0.00403309 0)
(0.590812 0.00481599 0)
(0.590988 0.00565736 0)
(0.591134 0.00657292 0)
(0.591257 0.00758168 0)
(0.591365 0.00870679 0)
(0.591464 0.00997668 0)
(0.591559 0.0114265 0)
(0.591655 0.0131002 0)
(0.591761 0.0150527 0)
(0.591888 0.0173535 0)
(0.592054 0.02009 0)
(0.592297 0.0233723 0)
(0.592678 0.0273362 0)
(0.593305 0.0321442 0)
(0.594357 0.0379781 0)
(0.596112 0.0450146 0)
(0.598986 0.0533652 0)
(0.603535 0.0629524 0)
(0.610412 0.0732799 0)
(0.100411 -0.00261794 0)
(0.103381 -0.00486625 0)
(0.107985 -0.00678039 0)
(0.113888 -0.00848409 0)
(0.120942 -0.0100404 0)
(0.129012 -0.0114968 0)
(0.137995 -0.0128925 0)
(0.147823 -0.0142582 0)
(0.158452 -0.0156156 0)
(0.169855 -0.0169762 0)
(0.182009 -0.0183411 0)
(0.194891 -0.0197007 0)
(0.208466 -0.0210367 0)
(0.222685 -0.0223246 0)
(0.237482 -0.0235366 0)
(0.252771 -0.024645 0)
(0.268453 -0.0256248 0)
(0.284416 -0.0264555 0)
(0.300543 -0.0271227 0)
(0.316715 -0.0276181 0)
(0.332818 -0.0279394 0)
(0.348744 -0.0280895 0)
(0.364396 -0.0280754 0)
(0.379688 -0.0279073 0)
(0.394545 -0.0275978 0)
(0.408907 -0.0271605 0)
(0.422725 -0.0266098 0)
(0.43596 -0.0259598 0)
(0.448586 -0.0252244 0)
(0.460584 -0.0244167 0)
(0.471944 -0.0235487 0)
(0.482663 -0.0226315 0)
(0.492742 -0.0216753 0)
(0.50219 -0.0206889 0)
(0.511017 -0.0196802 0)
(0.519239 -0.0186564 0)
(0.526873 -0.0176235 0)
(0.533938 -0.0165869 0)
(0.540457 -0.015551 0)
(0.546451 -0.0145199 0)
(0.551943 -0.0134968 0)
(0.556957 -0.0124844 0)
(0.561518 -0.011485 0)
(0.565649 -0.0105005 0)
(0.569376 -0.00953218 0)
(0.572723 -0.00858098 0)
(0.575712 -0.00764747 0)
(0.578369 -0.00673181 0)
(0.580716 -0.00583373 0)
(0.582777 -0.00495254 0)
(0.584572 -0.0040871 0)
(0.586125 -0.00323576 0)
(0.587455 -0.00239634 0)
(0.588584 -0.00156604 0)
(0.58953 -0.000741386 0)
(0.590313 8.13286e-05 0)
(0.590951 0.000906372 0)
(0.591462 0.00173895 0)
(0.591862 0.0025855 0)
(0.592168 0.00345373 0)
(0.592393 0.00435274 0)
(0.592553 0.00529321 0)
(0.592661 0.00628776 0)
(0.592729 0.0073513 0)
(0.59277 0.00850143 0)
(0.592795 0.00975907 0)
(0.592815 0.0111491 0)
(0.592844 0.0127012 0)
(0.592893 0.0144508 0)
(0.59298 0.0164406 0)
(0.593124 0.0187211 0)
(0.593353 0.0213527 0)
(0.593707 0.0244056 0)
(0.594242 0.0279602 0)
(0.59504 0.0321042 0)
(0.596217 0.0369255 0)
(0.597934 0.0424983 0)
(0.600402 0.0488568 0)
(0.603878 0.0559551 0)
(0.608643 0.0636078 0)
(0.614922 0.0714248 0)
(0.100321 -0.0031266 0)
(0.103229 -0.00588319 0)
(0.107721 -0.0082289 0)
(0.113512 -0.0103211 0)
(0.120465 -0.0122341 0)
(0.128444 -0.0140251 0)
(0.137348 -0.0157424 0)
(0.147114 -0.017425 0)
(0.157701 -0.0191001 0)
(0.169088 -0.0207828 0)
(0.181259 -0.0224747 0)
(0.194197 -0.024164 0)
(0.207872 -0.0258276 0)
(0.222236 -0.0274342 0)
(0.237223 -0.0289483 0)
(0.252743 -0.0303341 0)
(0.26869 -0.0315595 0)
(0.284944 -0.0325984 0)
(0.301378 -0.0334324 0)
(0.317866 -0.034051 0)
(0.334285 -0.0344515 0)
(0.35052 -0.0346376 0)
(0.366469 -0.0346186 0)
(0.38204 -0.0344077 0)
(0.397159 -0.0340208 0)
(0.411762 -0.0334753 0)
(0.425799 -0.0327892 0)
(0.439232 -0.0319805 0)
(0.452035 -0.0310665 0)
(0.46419 -0.0300635 0)
(0.475688 -0.0289866 0)
(0.486525 -0.0278496 0)
(0.496707 -0.0266648 0)
(0.506242 -0.0254434 0)
(0.515142 -0.0241951 0)
(0.523424 -0.0229285 0)
(0.531105 -0.0216511 0)
(0.538207 -0.0203694 0)
(0.544751 -0.0190889 0)
(0.550761 -0.0178144 0)
(0.55626 -0.0165498 0)
(0.561273 -0.0152985 0)
(0.565825 -0.0140632 0)
(0.56994 -0.0128459 0)
(0.573644 -0.0116483 0)
(0.576959 -0.0104715 0)
(0.579912 -0.00931611 0)
(0.582525 -0.00818225 0)
(0.584822 -0.00706954 0)
(0.586826 -0.00597711 0)
(0.588559 -0.00490356 0)
(0.590043 -0.00384687 0)
(0.591299 -0.00280443 0)
(0.592347 -0.00177287 0)
(0.593207 -0.000748097 0)
(0.5939 0.000274239 0)
(0.594442 0.00129897 0)
(0.594853 0.00233229 0)
(0.595149 0.00338174 0)
(0.595347 0.00445609 0)
(0.595463 0.00556557 0)
(0.595512 0.00672199 0)
(0.595509 0.00793912 0)
(0.595468 0.00923286 0)
(0.595406 0.0106217 0)
(0.595337 0.0121269 0)
(0.595276 0.0137733 0)
(0.595242 0.0155893 0)
(0.595254 0.0176076 0)
(0.595336 0.0198655 0)
(0.595517 0.0224048 0)
(0.595836 0.0252717 0)
(0.596339 0.0285154 0)
(0.597088 0.0321853 0)
(0.598163 0.0363263 0)
(0.599663 0.0409708 0)
(0.601707 0.0461266 0)
(0.604431 0.0517606 0)
(0.607972 0.0577783 0)
(0.612447 0.0640049 0)
(0.617898 0.0701776 0)
(0.10023 -0.00364675 0)
(0.103086 -0.00693914 0)
(0.107469 -0.00974458 0)
(0.113145 -0.012253 0)
(0.11999 -0.0145499 0)
(0.127874 -0.0167022 0)
(0.136698 -0.0187685 0)
(0.146404 -0.0207965 0)
(0.156958 -0.0228205 0)
(0.168348 -0.0248597 0)
(0.180568 -0.0269166 0)
(0.193608 -0.0289766 0)
(0.207445 -0.0310108 0)
(0.222034 -0.0329793 0)
(0.237302 -0.0348368 0)
(0.253155 -0.0365378 0)
(0.269473 -0.0380415 0)
(0.286126 -0.0393149 0)
(0.302974 -0.0403351 0)
(0.319878 -0.0410893 0)
(0.336705 -0.0415747 0)
(0.353332 -0.0417966 0)
(0.36965 -0.0417672 0)
(0.385566 -0.0415032 0)
(0.400999 -0.0410249 0)
(0.415887 -0.0403542 0)
(0.430179 -0.0395134 0)
(0.443839 -0.0385247 0)
(0.45684 -0.0374096 0)
(0.469168 -0.0361878 0)
(0.480814 -0.0348778 0)
(0.491778 -0.0334964 0)
(0.502066 -0.0320584 0)
(0.511688 -0.0305773 0)
(0.520659 -0.0290647 0)
(0.528996 -0.027531 0)
(0.536719 -0.025985 0)
(0.54385 -0.0244345 0)
(0.550412 -0.0228859 0)
(0.556429 -0.021345 0)
(0.561926 -0.0198162 0)
(0.566928 -0.0183036 0)
(0.57146 -0.0168102 0)
(0.575548 -0.0153384 0)
(0.579216 -0.0138902 0)
(0.58249 -0.0124666 0)
(0.585394 -0.0110685 0)
(0.587952 -0.00969576 0)
(0.590188 -0.00834802 0)
(0.592124 -0.00702417 0)
(0.593783 -0.00572255 0)
(0.595188 -0.00444079 0)
(0.596359 -0.00317585 0)
(0.597317 -0.00192389 0)
(0.598081 -0.000680302 0)
(0.598674 0.000559828 0)
(0.599113 0.00180192 0)
(0.599416 0.00305302 0)
(0.599602 0.00432152 0)
(0.599687 0.00561701 0)
(0.599689 0.00695038 0)
(0.599624 0.0083341 0)
(0.599509 0.00978234 0)
(0.599361 0.0113112 0)
(0.599197 0.0129387 0)
(0.599036 0.0146854 0)
(0.598896 0.0165741 0)
(0.598801 0.0186299 0)
(0.598773 0.0208805 0)
(0.598843 0.0233556 0)
(0.599043 0.026086 0)
(0.599412 0.0291028 0)
(0.6 0.032435 0)
(0.600862 0.0361061 0)
(0.602064 0.0401304 0)
(0.603678 0.0445059 0)
(0.605782 0.0492078 0)
(0.608451 0.0541804 0)
(0.611747 0.0593295 0)
(0.615701 0.0645209 0)
(0.620288 0.0695893 0)
(0.100135 -0.00418079 0)
(0.102952 -0.00803588 0)
(0.107235 -0.0113301 0)
(0.112797 -0.0142835 0)
(0.119535 -0.0169934 0)
(0.127325 -0.0195365 0)
(0.136073 -0.0219824 0)
(0.145727 -0.0243892 0)
(0.156267 -0.0267996 0)
(0.167692 -0.0292381 0)
(0.18001 -0.0317079 0)
(0.193222 -0.0341912 0)
(0.207311 -0.0366507 0)
(0.222231 -0.0390357 0)
(0.237902 -0.041288 0)
(0.254215 -0.0433499 0)
(0.271037 -0.0451696 0)
(0.288216 -0.0467064 0)
(0.305597 -0.0479323 0)
(0.323025 -0.0488326 0)
(0.340354 -0.049405 0)
(0.357455 -0.0496575 0)
(0.37421 -0.0496062 0)
(0.390523 -0.0492729 0)
(0.406314 -0.048683 0)
(0.421518 -0.0478637 0)
(0.436089 -0.0468427 0)
(0.44999 -0.0456471 0)
(0.463198 -0.0443027 0)
(0.475702 -0.0428334 0)
(0.487495 -0.0412615 0)
(0.498581 -0.0396067 0)
(0.508968 -0.0378868 0)
(0.518668 -0.0361175 0)
(0.527699 -0.0343126 0)
(0.536079 -0.0324841 0)
(0.543831 -0.0306424 0)
(0.550978 -0.0287964 0)
(0.557543 -0.0269537 0)
(0.563554 -0.0251207 0)
(0.569034 -0.0233027 0)
(0.574011 -0.021504 0)
(0.57851 -0.0197284 0)
(0.582557 -0.0179783 0)
(0.586177 -0.016256 0)
(0.589396 -0.0145626 0)
(0.592239 -0.0128989 0)
(0.59473 -0.0112649 0)
(0.596893 -0.00966003 0)
(0.598751 -0.00808295 0)
(0.600326 -0.00653175 0)
(0.601642 -0.00500376 0)
(0.602719 -0.00349557 0)
(0.603578 -0.00200295 0)
(0.604239 -0.000521023 0)
(0.604726 0.000955657 0)
(0.605055 0.00243312 0)
(0.605246 0.00391912 0)
(0.605317 0.00542258 0)
(0.605287 0.00695348 0)
(0.605173 0.00852299 0)
(0.604993 0.0101436 0)
(0.604767 0.0118292 0)
(0.604511 0.0135951 0)
(0.604247 0.0154582 0)
(0.603994 0.0174367 0)
(0.603774 0.0195503 0)
(0.603612 0.0218196 0)
(0.603534 0.024266 0)
(0.603571 0.0269107 0)
(0.603755 0.0297739 0)
(0.604125 0.0328729 0)
(0.604722 0.0362207 0)
(0.605591 0.0398227 0)
(0.606781 0.0436743 0)
(0.608339 0.0477567 0)
(0.61031 0.0520338 0)
(0.612729 0.0564497 0)
(0.615614 0.060928 0)
(0.618958 0.0653742 0)
(0.622715 0.0696877 0)
(0.100034 -0.00473166 0)
(0.102829 -0.00917649 0)
(0.107023 -0.0129897 0)
(0.112476 -0.0164182 0)
(0.119113 -0.0195724 0)
(0.126815 -0.0225386 0)
(0.135496 -0.0253992 0)
(0.145118 -0.0282246 0)
(0.155675 -0.031068 0)
(0.167186 -0.0339601 0)
(0.179676 -0.036905 0)
(0.193159 -0.0398792 0)
(0.207622 -0.0428343 0)
(0.223014 -0.0457041 0)
(0.23924 -0.0484137 0)
(0.256169 -0.0508894 0)
(0.273643 -0.0530667 0)
(0.291487 -0.0548956 0)
(0.309523 -0.0563435 0)
(0.327579 -0.0573948 0)
(0.345497 -0.0580492 0)
(0.363138 -0.058319 0)
(0.38038 -0.0582261 0)
(0.397127 -0.0577985 0)
(0.413297 -0.0570683 0)
(0.42883 -0.0560693 0)
(0.443681 -0.0548351 0)
(0.45782 -0.0533987 0)
(0.471226 -0.0517907 0)
(0.483891 -0.0500398 0)
(0.495814 -0.0481718 0)
(0.507003 -0.0462101 0)
(0.517467 -0.0441753 0)
(0.527224 -0.0420856 0)
(0.536292 -0.0399569 0)
(0.544694 -0.037803 0)
(0.552453 -0.0356356 0)
(0.559595 -0.033465 0)
(0.566144 -0.0312996 0)
(0.572128 -0.0291467 0)
(0.577574 -0.0270122 0)
(0.582508 -0.024901 0)
(0.586958 -0.0228169 0)
(0.590949 -0.020763 0)
(0.594507 -0.0187414 0)
(0.597659 -0.0167536 0)
(0.600429 -0.0148001 0)
(0.602842 -0.0128809 0)
(0.604922 -0.0109953 0)
(0.606692 -0.00914185 0)
(0.608176 -0.00731836 0)
(0.609395 -0.0055219 0)
(0.610372 -0.00374873 0)
(0.611127 -0.00199427 0)
(0.611681 -0.000253904 0)
(0.612059 0.00147824 0)
(0.612276 0.00320911 0)
(0.612354 0.0049469 0)
(0.61231 0.00670068 0)
(0.612165 0.00848042 0)
(0.611937 0.0102971 0)
(0.611645 0.0121626 0)
(0.611308 0.0140899 0)
(0.610947 0.0160929 0)
(0.610583 0.0181863 0)
(0.610237 0.0203855 0)
(0.609933 0.0227061 0)
(0.609695 0.0251639 0)
(0.60955 0.0277736 0)
(0.609527 0.0305488 0)
(0.609656 0.0335004 0)
(0.60997 0.0366353 0)
(0.610501 0.0399553 0)
(0.611284 0.0434552 0)
(0.612351 0.0471207 0)
(0.613729 0.0509276 0)
(0.615439 0.0548401 0)
(0.617493 0.0588113 0)
(0.619888 0.0627843 0)
(0.622602 0.0666958 0)
(0.625588 0.0704857 0)
(0.0999273 -0.00530275 0)
(0.102716 -0.0103652 0)
(0.106835 -0.0147291 0)
(0.112188 -0.0186648 0)
(0.118732 -0.0222968 0)
(0.126358 -0.0257227 0)
(0.134992 -0.0290392 0)
(0.144612 -0.0323322 0)
(0.155236 -0.0356679 0)
(0.166909 -0.0390844 0)
(0.179678 -0.0425856 0)
(0.193568 -0.0461386 0)
(0.208567 -0.0496782 0)
(0.224607 -0.0531165 0)
(0.241568 -0.0563561 0)
(0.259287 -0.0593035 0)
(0.277571 -0.0618791 0)
(0.296216 -0.064024 0)
(0.315017 -0.065702 0)
(0.333787 -0.0668989 0)
(0.352354 -0.0676188 0)
(0.370574 -0.0678809 0)
(0.388326 -0.0677148 0)
(0.405511 -0.0671571 0)
(0.422055 -0.066248 0)
(0.437901 -0.0650288 0)
(0.453009 -0.0635404 0)
(0.467356 -0.0618219 0)
(0.480927 -0.0599096 0)
(0.49372 -0.057837 0)
(0.505738 -0.0556339 0)
(0.516993 -0.0533274 0)
(0.5275 -0.0509409 0)
(0.537278 -0.0484953 0)
(0.546351 -0.0460084 0)
(0.554743 -0.0434957 0)
(0.562479 -0.0409705 0)
(0.569587 -0.038444 0)
(0.576094 -0.0359256 0)
(0.582028 -0.0334233 0)
(0.587417 -0.0309436 0)
(0.592288 -0.0284918 0)
(0.59667 -0.026072 0)
(0.600589 -0.0236874 0)
(0.604071 -0.0213404 0)
(0.607142 -0.0190322 0)
(0.609828 -0.0167635 0)
(0.612154 -0.0145343 0)
(0.614143 -0.0123436 0)
(0.61582 -0.0101898 0)
(0.617206 -0.00807067 0)
(0.618326 -0.00598298 0)
(0.619201 -0.00392285 0)
(0.619852 -0.00188551 0)
(0.620302 0.000133643 0)
(0.620572 0.00214052 0)
(0.62068 0.00414284 0)
(0.620647 0.00614895 0)
(0.620494 0.00816776 0)
(0.620238 0.0102088 0)
(0.619901 0.0122825 0)
(0.619501 0.0143996 0)
(0.61906 0.0165716 0)
(0.618598 0.0188106 0)
(0.618136 0.0211287 0)
(0.617696 0.0235378 0)
(0.617302 0.0260497 0)
(0.616977 0.0286752 0)
(0.616747 0.0314233 0)
(0.616636 0.0343012 0)
(0.616672 0.0373129 0)
(0.616879 0.0404583 0)
(0.617283 0.0437327 0)
(0.617907 0.0471255 0)
(0.618769 0.0506198 0)
(0.619885 0.0541917 0)
(0.62126 0.0578109 0)
(0.622893 0.0614414 0)
(0.624772 0.065043 0)
(0.626872 0.0685744 0)
(0.629154 0.0720004 0)
(0.0998112 -0.00589781 0)
(0.10261 -0.0116075 0)
(0.106672 -0.0165556 0)
(0.111937 -0.0210331 0)
(0.118402 -0.0251801 0)
(0.125971 -0.0291074 0)
(0.134586 -0.0329298 0)
(0.144252 -0.0367528 0)
(0.155019 -0.0406587 0)
(0.166964 -0.0446936 0)
(0.180158 -0.0488579 0)
(0.194636 -0.0531025 0)
(0.210371 -0.0573363 0)
(0.227268 -0.0614409 0)
(0.245164 -0.0652895 0)
(0.26385 -0.0687649 0)
(0.283091 -0.0717722 0)
(0.302649 -0.0742448 0)
(0.322296 -0.0761465 0)
(0.341828 -0.0774675 0)
(0.361068 -0.0782206 0)
(0.379868 -0.0784346 0)
(0.39811 -0.07815 0)
(0.415704 -0.0774136 0)
(0.43258 -0.0762755 0)
(0.44869 -0.0747859 0)
(0.464004 -0.0729937 0)
(0.478504 -0.0709448 0)
(0.492184 -0.0686813 0)
(0.505048 -0.0662417 0)
(0.517107 -0.0636602 0)
(0.528375 -0.0609673 0)
(0.538874 -0.0581894 0)
(0.548627 -0.0553496 0)
(0.55766 -0.052468 0)
(0.566 -0.0495615 0)
(0.573675 -0.0466447 0)
(0.580714 -0.0437298 0)
(0.587147 -0.0408271 0)
(0.593002 -0.0379451 0)
(0.598309 -0.0350908 0)
(0.603095 -0.0322697 0)
(0.607389 -0.0294863 0)
(0.611218 -0.0267438 0)
(0.614609 -0.0240445 0)
(0.617588 -0.0213899 0)
(0.62018 -0.0187805 0)
(0.622411 -0.0162161 0)
(0.624304 -0.0136958 0)
(0.625884 -0.0112177 0)
(0.627172 -0.00877953 0)
(0.628193 -0.00637801 0)
(0.628969 -0.00400926 0)
(0.629519 -0.00166864 0)
(0.62987 0.000649 0)
(0.630038 0.0029497 0)
(0.630045 0.00524109 0)
(0.629911 0.00753138 0)
(0.629657 0.00982904 0)
(0.629301 0.012143 0)
(0.628865 0.0144824 0)
(0.628368 0.016857 0)
(0.627831 0.0192763 0)
(0.627274 0.0217503 0)
(0.626719 0.0242882 0)
(0.626187 0.0268989 0)
(0.625699 0.0295904 0)
(0.625279 0.0323691 0)
(0.624948 0.0352399 0)
(0.624728 0.038205 0)
(0.62464 0.0412639 0)
(0.624703 0.0444127 0)
(0.624934 0.0476434 0)
(0.62535 0.0509441 0)
(0.625958 0.0542987 0)
(0.626766 0.0576867 0)
(0.627771 0.0610845 0)
(0.628968 0.0644658 0)
(0.63034 0.0678035 0)
(0.631865 0.071071 0)
(0.633511 0.0742483 0)
(0.0996839 -0.00652102 0)
(0.102511 -0.0129103 0)
(0.106535 -0.0184785 0)
(0.111728 -0.0235356 0)
(0.118131 -0.0282394 0)
(0.125671 -0.0327182 0)
(0.134312 -0.0371096 0)
(0.144094 -0.0415447 0)
(0.155113 -0.0461251 0)
(0.167484 -0.0509039 0)
(0.1813 -0.0558703 0)
(0.196592 -0.0609474 0)
(0.213302 -0.0660047 0)
(0.231281 -0.0708819 0)
(0.250309 -0.0754164 0)
(0.270119 -0.0794653 0)
(0.290431 -0.0829202 0)
(0.310973 -0.0857118 0)
(0.331497 -0.0878087 0)
(0.351789 -0.0892113 0)
(0.371673 -0.0899452 0)
(0.391005 -0.0900531 0)
(0.409677 -0.0895889 0)
(0.427606 -0.0886119 0)
(0.444736 -0.0871836 0)
(0.46103 -0.0853641 0)
(0.476467 -0.0832106 0)
(0.49104 -0.0807763 0)
(0.504751 -0.0781094 0)
(0.517611 -0.0752535 0)
(0.529638 -0.0722469 0)
(0.540852 -0.0691233 0)
(0.55128 -0.0659121 0)
(0.560949 -0.0626387 0)
(0.569887 -0.0593247 0)
(0.578125 -0.0559886 0)
(0.585694 -0.0526461 0)
(0.592623 -0.0493102 0)
(0.598945 -0.0459918 0)
(0.604688 -0.0426998 0)
(0.609883 -0.0394417 0)
(0.614559 -0.0362231 0)
(0.618744 -0.0330486 0)
(0.622465 -0.0299214 0)
(0.62575 -0.0268438 0)
(0.628625 -0.0238173 0)
(0.631115 -0.0208422 0)
(0.633245 -0.0179183 0)
(0.63504 -0.0150445 0)
(0.636521 -0.012219 0)
(0.637714 -0.00943924 0)
(0.63864 -0.00670218 0)
(0.639322 -0.00400401 0)
(0.63978 -0.00134034 0)
(0.64004 0.00129447 0)
(0.640118 0.00390655 0)
(0.640036 0.00650322 0)
(0.639815 0.00909219 0)
(0.639474 0.0116813 0)
(0.639032 0.0142784 0)
(0.638511 0.0168916 0)
(0.63793 0.0195289 0)
(0.637309 0.0221982 0)
(0.636669 0.024907 0)
(0.636028 0.027662 0)
(0.635409 0.0304695 0)
(0.63483 0.033334 0)
(0.63431 0.0362591 0)
(0.63387 0.0392461 0)
(0.633526 0.0422945 0)
(0.633295 0.0454011 0)
(0.633191 0.0485603 0)
(0.633225 0.0517636 0)
(0.633407 0.0549997 0)
(0.63374 0.0582548 0)
(0.634225 0.0615131 0)
(0.634858 0.0647571 0)
(0.63563 0.0679684 0)
(0.636526 0.0711291 0)
(0.637527 0.0742226 0)
(0.638609 0.0772384 0)
(0.099543 -0.00717702 0)
(0.102417 -0.0142818 0)
(0.106425 -0.0205095 0)
(0.111565 -0.0261885 0)
(0.117933 -0.0314984 0)
(0.125482 -0.0365905 0)
(0.134213 -0.0416339 0)
(0.144217 -0.046792 0)
(0.155643 -0.0521886 0)
(0.168648 -0.0578775 0)
(0.183335 -0.0638226 0)
(0.199707 -0.0698998 0)
(0.217647 -0.0759219 0)
(0.236929 -0.0816751 0)
(0.257257 -0.0869565 0)
(0.278303 -0.0916003 0)
(0.299741 -0.0954906 0)
(0.321273 -0.0985631 0)
(0.342641 -0.100799 0)
(0.363633 -0.102216 0)
(0.384076 -0.102856 0)
(0.403843 -0.102781 0)
(0.422837 -0.102061 0)
(0.440991 -0.100769 0)
(0.458263 -0.0989783 0)
(0.47463 -0.0967608 0)
(0.490083 -0.0941821 0)
(0.504625 -0.0913025 0)
(0.518268 -0.0881763 0)
(0.531031 -0.0848518 0)
(0.542939 -0.0813713 0)
(0.554019 -0.0777717 0)
(0.564301 -0.0740848 0)
(0.573816 -0.0703379 0)
(0.582597 -0.0665542 0)
(0.590677 -0.0627532 0)
(0.598087 -0.0589516 0)
(0.604862 -0.0551629 0)
(0.611031 -0.0513986 0)
(0.616626 -0.0476678 0)
(0.621679 -0.043978 0)
(0.626217 -0.040335 0)
(0.63027 -0.0367434 0)
(0.633865 -0.0332063 0)
(0.637029 -0.029726 0)
(0.639789 -0.0263037 0)
(0.642169 -0.0229397 0)
(0.644194 -0.0196336 0)
(0.645888 -0.0163843 0)
(0.647274 -0.0131899 0)
(0.648374 -0.0100479 0)
(0.649213 -0.00695543 0)
(0.64981 -0.00390882 0)
(0.650186 -0.000904055 0)
(0.650368 0.00206477 0)
(0.650371 0.00500386 0)
(0.650215 0.00792017 0)
(0.649922 0.0108206 0)
(0.649511 0.0137122 0)
(0.649002 0.0166016 0)
(0.648413 0.0194956 0)
(0.647765 0.0224008 0)
(0.647076 0.0253231 0)
(0.646365 0.028268 0)
(0.645652 0.0312402 0)
(0.644954 0.0342434 0)
(0.644288 0.0372802 0)
(0.643672 0.0403515 0)
(0.643122 0.0434569 0)
(0.64265 0.0465942 0)
(0.64227 0.0497594 0)
(0.641992 0.0529463 0)
(0.641823 0.0561474 0)
(0.641768 0.0593532 0)
(0.641828 0.0625529 0)
(0.642 0.0657347 0)
(0.642281 0.0688863 0)
(0.64266 0.0719956 0)
(0.643125 0.0750509 0)
(0.643661 0.0780423 0)
(0.644251 0.0809651 0)
(0.0993857 -0.00787112 0)
(0.102328 -0.0157321 0)
(0.106344 -0.0226633 0)
(0.111455 -0.0290134 0)
(0.117821 -0.0349891 0)
(0.125438 -0.0407753 0)
(0.134354 -0.0465833 0)
(0.144728 -0.0526172 0)
(0.156774 -0.0590213 0)
(0.17068 -0.0658351 0)
(0.186535 -0.0729723 0)
(0.204276 -0.0802354 0)
(0.22369 -0.0873604 0)
(0.244456 -0.0940718 0)
(0.266191 -0.100129 0)
(0.28851 -0.10535 0)
(0.311053 -0.109625 0)
(0.333508 -0.112905 0)
(0.35562 -0.115193 0)
(0.377185 -0.116529 0)
(0.398051 -0.11698 0)
(0.418107 -0.116628 0)
(0.437275 -0.11556 0)
(0.455509 -0.113867 0)
(0.472782 -0.111635 0)
(0.489085 -0.108945 0)
(0.504424 -0.105872 0)
(0.518813 -0.102484 0)
(0.532274 -0.0988404 0)
(0.544835 -0.094994 0)
(0.556526 -0.0909907 0)
(0.567381 -0.0868699 0)
(0.577434 -0.0826656 0)
(0.58672 -0.0784066 0)
(0.595275 -0.0741172 0)
(0.603133 -0.069818 0)
(0.61033 -0.0655259 0)
(0.616899 -0.061255 0)
(0.622872 -0.0570168 0)
(0.628281 -0.0528206 0)
(0.633157 -0.0486739 0)
(0.637529 -0.0445824 0)
(0.641427 -0.0405503 0)
(0.644876 -0.0365809 0)
(0.647905 -0.032676 0)
(0.650538 -0.0288368 0)
(0.6528 -0.0250634 0)
(0.654716 -0.0213553 0)
(0.656309 -0.0177112 0)
(0.657602 -0.0141294 0)
(0.658617 -0.0106073 0)
(0.659375 -0.00714221 0)
(0.659899 -0.00373063 0)
(0.660207 -0.000369254 0)
(0.660325 0.00294783 0)
(0.660268 0.00622707 0)
(0.660057 0.00947494 0)
(0.659711 0.0126975 0)
(0.65925 0.0159006 0)
(0.658692 0.01909 0)
(0.658055 0.0222711 0)
(0.657358 0.025449 0)
(0.656619 0.028628 0)
(0.655855 0.031812 0)
(0.655083 0.0350039 0)
(0.654319 0.0382058 0)
(0.653578 0.0414187 0)
(0.652874 0.0446422 0)
(0.652221 0.047875 0)
(0.651629 0.0511141 0)
(0.651106 0.0543556 0)
(0.650662 0.0575942 0)
(0.650299 0.0608234 0)
(0.650021 0.064036 0)
(0.649826 0.0672241 0)
(0.649713 0.0703795 0)
(0.649677 0.0734939 0)
(0.649708 0.0765596 0)
(0.649798 0.0795694 0)
(0.649935 0.0825177 0)
(0.650106 0.0854035 0)
(0.0992086 -0.00860951 0)
(0.102243 -0.0172739 0)
(0.106296 -0.0249589 0)
(0.111408 -0.0320391 0)
(0.117821 -0.0387574 0)
(0.125587 -0.0453469 0)
(0.134825 -0.0520764 0)
(0.145777 -0.0591966 0)
(0.15872 -0.0668608 0)
(0.173852 -0.0750652 0)
(0.191197 -0.0836353 0)
(0.210582 -0.092268 0)
(0.231668 -0.100607 0)
(0.254021 -0.108315 0)