/*--------------------------------*- C++ -*----------------------------------*\
  =========                 |
  \\      /  F ield         | OpenFOAM: The Open Source CFD Toolbox
   \\    /   O peration     | Website:  https://openfoam.org
    \\  /    A nd           | Version:  7
     \\/     M anipulation  |
\*---------------------------------------------------------------------------*/
FoamFile
{
    version     2.0;
    format      ascii;
    class       volVectorField;
    location    "3.11";
    object      U;
}
// * * * * * * * * * * * * * * * * * * * * * * * * * * * * * * * * * * * * * //

dimensions      [0 1 -1 0 0 0 0];

internalField   nonuniform List<vector> 
12013
(
(0.100373 -0.000103628 0)
(0.101891 -0.00019174 0)
(0.104346 -0.00027129 0)
(0.10749 -0.000342207 0)
(0.111236 -0.00040663 0)
(0.115509 -0.000465942 0)
(0.120241 -0.000521124 0)
(0.125377 -0.000572969 0)
(0.130873 -0.000622082 0)
(0.13669 -0.00066891 0)
(0.142795 -0.000713769 0)
(0.149159 -0.000756874 0)
(0.155755 -0.000798356 0)
(0.162558 -0.000838281 0)
(0.169546 -0.000876673 0)
(0.176696 -0.000913522 0)
(0.183987 -0.000948801 0)
(0.1914 -0.000982475 0)
(0.198915 -0.0010145 0)
(0.206512 -0.00104486 0)
(0.214175 -0.00107352 0)
(0.221886 -0.00110046 0)
(0.229629 -0.00112569 0)
(0.237388 -0.00114921 0)
(0.24515 -0.00117105 0)
(0.2529 -0.00119124 0)
(0.260627 -0.00120983 0)
(0.26832 -0.00122684 0)
(0.275968 -0.00124235 0)
(0.283562 -0.00125642 0)
(0.291095 -0.0012691 0)
(0.298559 -0.00128045 0)
(0.305948 -0.00129055 0)
(0.313256 -0.00129946 0)
(0.32048 -0.00130722 0)
(0.327615 -0.00131389 0)
(0.334659 -0.00131953 0)
(0.34161 -0.0013242 0)
(0.348466 -0.0013279 0)
(0.355225 -0.00133067 0)
(0.361888 -0.00133254 0)
(0.368455 -0.00133352 0)
(0.374926 -0.00133359 0)
(0.381301 -0.00133275 0)
(0.387583 -0.00133096 0)
(0.393772 -0.00132818 0)
(0.39987 -0.00132435 0)
(0.405879 -0.00131938 0)
(0.411801 -0.00131316 0)
(0.417638 -0.00130558 0)
(0.423392 -0.00129647 0)
(0.429066 -0.00128565 0)
(0.434661 -0.0012729 0)
(0.44018 -0.00125795 0)
(0.445625 -0.00124049 0)
(0.450996 -0.00122015 0)
(0.456296 -0.00119652 0)
(0.461525 -0.00116909 0)
(0.466684 -0.00113725 0)
(0.471772 -0.00110031 0)
(0.476787 -0.00105742 0)
(0.481728 -0.00100758 0)
(0.486591 -0.000949572 0)
(0.49137 -0.000881912 0)
(0.496058 -0.000802767 0)
(0.500644 -0.000709841 0)
(0.505113 -0.000600223 0)
(0.509446 -0.000470154 0)
(0.513617 -0.000314699 0)
(0.51759 -0.000127247 0)
(0.521317 0.000101461 0)
(0.52473 0.000385426 0)
(0.52773 0.000745684 0)
(0.530175 0.00121496 0)
(0.531847 0.0018469 0)
(0.532405 0.00273441 0)
(0.531292 0.00404805 0)
(0.527525 0.00612694 0)
(0.519347 0.00977424 0)
(0.503711 0.017824 0)
(0.487351 0.0489508 0)
(0.100347 -0.000316616 0)
(0.101862 -0.000587814 0)
(0.10431 -0.000831841 0)
(0.107447 -0.00104911 0)
(0.111188 -0.00124642 0)
(0.115455 -0.00142799 0)
(0.120182 -0.00159685 0)
(0.125313 -0.00175544 0)
(0.130803 -0.00190562 0)
(0.136615 -0.00204878 0)
(0.142715 -0.00218587 0)
(0.149073 -0.00231756 0)
(0.155663 -0.00244427 0)
(0.16246 -0.00256618 0)
(0.169442 -0.00268339 0)
(0.176586 -0.00279586 0)
(0.183872 -0.00290352 0)
(0.191278 -0.00300625 0)
(0.198787 -0.00310395 0)
(0.206378 -0.00319652 0)
(0.214034 -0.00328389 0)
(0.221738 -0.00336603 0)
(0.229473 -0.00344292 0)
(0.237225 -0.0035146 0)
(0.244978 -0.00358113 0)
(0.25272 -0.00364263 0)
(0.260439 -0.00369921 0)
(0.268122 -0.00375101 0)
(0.275761 -0.00379822 0)
(0.283345 -0.00384101 0)
(0.290867 -0.00387957 0)
(0.298319 -0.00391408 0)
(0.305696 -0.00394476 0)
(0.312992 -0.00397177 0)
(0.320203 -0.0039953 0)
(0.327324 -0.00401552 0)
(0.334354 -0.00403257 0)
(0.341289 -0.00404659 0)
(0.348128 -0.00405769 0)
(0.35487 -0.00406595 0)
(0.361514 -0.00407143 0)
(0.368061 -0.00407415 0)
(0.374511 -0.0040741 0)
(0.380864 -0.00407123 0)
(0.387122 -0.00406546 0)
(0.393286 -0.00405662 0)
(0.399358 -0.00404454 0)
(0.405338 -0.00402895 0)
(0.411231 -0.00400954 0)
(0.417036 -0.00398591 0)
(0.422756 -0.00395759 0)
(0.428395 -0.00392399 0)
(0.433952 -0.00388443 0)
(0.439431 -0.00383812 0)
(0.444833 -0.00378411 0)
(0.45016 -0.00372129 0)
(0.455412 -0.00364834 0)
(0.460591 -0.00356374 0)
(0.465697 -0.00346566 0)
(0.47073 -0.00335197 0)
(0.475688 -0.00322011 0)
(0.480569 -0.00306704 0)
(0.48537 -0.00288907 0)
(0.490085 -0.0026817 0)
(0.494708 -0.00243941 0)
(0.499228 -0.00215529 0)
(0.503633 -0.00182058 0)
(0.507904 -0.00142405 0)
(0.512019 -0.000950964 0)
(0.515945 -0.000381644 0)
(0.519641 0.000311063 0)
(0.523047 0.00116665 0)
(0.526086 0.00224345 0)
(0.528648 0.00363022 0)
(0.530578 0.00546758 0)
(0.531659 0.00798782 0)
(0.531587 0.0115904 0)
(0.529935 0.0169914 0)
(0.526158 0.0255466 0)
(0.520187 0.0398736 0)
(0.519555 0.0646448 0)
(0.100323 -0.000539268 0)
(0.101825 -0.00100929 0)
(0.104256 -0.00142962 0)
(0.10738 -0.00180372 0)
(0.111109 -0.00214335 0)
(0.115364 -0.00245583 0)
(0.120078 -0.00274639 0)
(0.125198 -0.00301926 0)
(0.130677 -0.00327764 0)
(0.136478 -0.00352389 0)
(0.142566 -0.00375972 0)
(0.148913 -0.00398625 0)
(0.155492 -0.00420417 0)
(0.162278 -0.00441385 0)
(0.169248 -0.00461541 0)
(0.17638 -0.00480882 0)
(0.183653 -0.00499392 0)
(0.191047 -0.00517055 0)
(0.198543 -0.0053385 0)
(0.206121 -0.00549761 0)
(0.213763 -0.00564776 0)
(0.221453 -0.00578888 0)
(0.229173 -0.00592097 0)
(0.23691 -0.00604407 0)
(0.244647 -0.00615831 0)
(0.252373 -0.00626385 0)
(0.260074 -0.00636091 0)
(0.267739 -0.00644974 0)
(0.275358 -0.00653062 0)
(0.282923 -0.00660387 0)
(0.290424 -0.00666981 0)
(0.297854 -0.00672877 0)
(0.305208 -0.00678106 0)
(0.31248 -0.00682702 0)
(0.319665 -0.00686694 0)
(0.326759 -0.0069011 0)
(0.333761 -0.00692976 0)
(0.340666 -0.00695314 0)
(0.347474 -0.00697142 0)
(0.354183 -0.00698475 0)
(0.360792 -0.00699321 0)
(0.367302 -0.00699683 0)
(0.373713 -0.0069956 0)
(0.380026 -0.00698942 0)
(0.38624 -0.00697812 0)
(0.392358 -0.00696145 0)
(0.398381 -0.00693906 0)
(0.404311 -0.00691051 0)
(0.410149 -0.00687525 0)
(0.415897 -0.00683259 0)
(0.421557 -0.00678169 0)
(0.427132 -0.00672157 0)
(0.432622 -0.00665106 0)
(0.43803 -0.00656878 0)
(0.443357 -0.00647312 0)
(0.448606 -0.00636216 0)
(0.453776 -0.00623368 0)
(0.458868 -0.00608506 0)
(0.463884 -0.00591324 0)
(0.468823 -0.0057146 0)
(0.473683 -0.00548485 0)
(0.478462 -0.00521886 0)
(0.483159 -0.00491047 0)
(0.487768 -0.00455222 0)
(0.492283 -0.00413497 0)
(0.496697 -0.00364741 0)
(0.500998 -0.00307528 0)
(0.505171 -0.00240047 0)
(0.509199 -0.00159946 0)
(0.513057 -0.000641217 0)
(0.516714 0.000515979 0)
(0.52013 0.00193049 0)
(0.523256 0.00368554 0)
(0.526033 0.00590206 0)
(0.528393 0.00876003 0)
(0.53027 0.0125333 0)
(0.531632 0.0176448 0)
(0.532552 0.0247539 0)
(0.533394 0.0348917 0)
(0.535255 0.0495713 0)
(0.5419 0.0699712 0)
(0.1003 -0.00077028 0)
(0.101783 -0.00145582 0)
(0.10419 -0.00206485 0)
(0.107293 -0.00260722 0)
(0.111003 -0.0030994 0)
(0.115239 -0.00355212 0)
(0.119936 -0.00397301 0)
(0.125038 -0.00436822 0)
(0.1305 -0.00474242 0)
(0.136283 -0.00509903 0)
(0.142355 -0.00544051 0)
(0.148685 -0.00576851 0)
(0.155246 -0.00608401 0)
(0.162015 -0.00638756 0)
(0.168968 -0.00667933 0)
(0.176082 -0.00695925 0)
(0.183338 -0.00722712 0)
(0.190713 -0.00748267 0)
(0.19819 -0.00772562 0)
(0.205748 -0.00795573 0)
(0.213371 -0.00817283 0)
(0.221039 -0.0083768 0)
(0.228738 -0.00856764 0)
(0.236452 -0.00874543 0)
(0.244166 -0.00891032 0)
(0.251868 -0.00906256 0)
(0.259543 -0.00920246 0)
(0.267182 -0.00933038 0)
(0.274774 -0.00944673 0)
(0.282309 -0.00955195 0)
(0.28978 -0.00964651 0)
(0.297179 -0.00973088 0)
(0.3045 -0.00980552 0)
(0.311737 -0.00987087 0)
(0.318885 -0.00992739 0)
(0.325942 -0.00997546 0)
(0.332902 -0.0100154 0)
(0.339766 -0.0100477 0)
(0.346529 -0.0100724 0)
(0.353192 -0.0100897 0)
(0.359752 -0.0100999 0)
(0.366211 -0.0101029 0)
(0.372568 -0.0100987 0)
(0.378824 -0.0100871 0)
(0.384978 -0.0100679 0)
(0.391033 -0.0100407 0)
(0.39699 -0.0100051 0)
(0.40285 -0.00996023 0)
(0.408615 -0.00990543 0)
(0.414286 -0.00983966 0)
(0.419866 -0.00976174 0)
(0.425355 -0.00967022 0)
(0.430756 -0.00956343 0)
(0.436071 -0.00943938 0)
(0.4413 -0.00929573 0)
(0.446446 -0.0091298 0)
(0.451509 -0.0089384 0)
(0.456491 -0.00871785 0)
(0.461391 -0.00846381 0)
(0.466209 -0.00817119 0)
(0.470946 -0.007834 0)
(0.4756 -0.00744513 0)
(0.480168 -0.00699609 0)
(0.484648 -0.00647666 0)
(0.489034 -0.00587446 0)
(0.493323 -0.00517429 0)
(0.497505 -0.00435729 0)
(0.501572 -0.00339978 0)
(0.505512 -0.00227157 0)
(0.509311 -0.000933717 0)
(0.512953 0.000664292 0)
(0.516419 0.00258973 0)
(0.519696 0.00493408 0)
(0.522775 0.0078221 0)
(0.525666 0.0114247 0)
(0.528418 0.0159753 0)
(0.531157 0.0217871 0)
(0.534161 0.0292619 0)
(0.537963 0.0388645 0)
(0.543499 0.0509718 0)
(0.552364 0.0652548 0)
(0.100277 -0.0010103 0)
(0.101739 -0.00192751 0)
(0.104117 -0.00273822 0)
(0.107193 -0.003461 0)
(0.110876 -0.00411668 0)
(0.115088 -0.00471956 0)
(0.119761 -0.00527998 0)
(0.12484 -0.00580612 0)
(0.130279 -0.00630423 0)
(0.13604 -0.00677888 0)
(0.142088 -0.00723334 0)
(0.148396 -0.00766979 0)
(0.154935 -0.00808958 0)
(0.161682 -0.00849341 0)
(0.168612 -0.00888149 0)
(0.175703 -0.00925375 0)
(0.182935 -0.00960991 0)
(0.190287 -0.00994961 0)
(0.197739 -0.0102725 0)
(0.205273 -0.0105782 0)
(0.212869 -0.0108665 0)
(0.220511 -0.0111372 0)
(0.228183 -0.0113904 0)
(0.235868 -0.0116261 0)
(0.243552 -0.0118446 0)
(0.251222 -0.0120461 0)
(0.258865 -0.0122312 0)
(0.26647 -0.0124001 0)
(0.274026 -0.0125536 0)
(0.281525 -0.0126921 0)
(0.288957 -0.0128164 0)
(0.296316 -0.0129269 0)
(0.303594 -0.0130243 0)
(0.310787 -0.0131092 0)
(0.317889 -0.0131822 0)
(0.324897 -0.0132438 0)
(0.331808 -0.0132945 0)
(0.338618 -0.0133346 0)
(0.345326 -0.0133645 0)
(0.35193 -0.0133844 0)
(0.35843 -0.0133945 0)
(0.364825 -0.0133947 0)
(0.371115 -0.0133851 0)
(0.3773 -0.0133655 0)
(0.383382 -0.0133354 0)
(0.38936 -0.0132943 0)
(0.395236 -0.0132416 0)
(0.401011 -0.0131763 0)
(0.406687 -0.0130975 0)
(0.412266 -0.0130037 0)
(0.417748 -0.0128935 0)
(0.423136 -0.0127648 0)
(0.428432 -0.0126154 0)
(0.433636 -0.0124429 0)
(0.43875 -0.0122441 0)
(0.443777 -0.0120155 0)
(0.448716 -0.0117531 0)
(0.453569 -0.011452 0)
(0.458337 -0.0111068 0)
(0.463021 -0.0107109 0)
(0.467619 -0.0102569 0)
(0.472133 -0.00973577 0)
(0.47656 -0.00913704 0)
(0.4809 -0.00844818 0)
(0.485151 -0.00765417 0)
(0.48931 -0.00673689 0)
(0.493375 -0.00567422 0)
(0.497341 -0.00443896 0)
(0.501205 -0.00299735 0)
(0.504965 -0.00130709 0)
(0.508622 0.000684294 0)
(0.512176 0.00304244 0)
(0.515644 0.00585156 0)
(0.519057 0.00921793 0)
(0.522473 0.0132733 0)
(0.525996 0.0181754 0)
(0.529803 0.0241011 0)
(0.53417 0.0312213 0)
(0.539515 0.0396423 0)
(0.546397 0.0492788 0)
(0.555467 0.0596115 0)
(0.100255 -0.00126 0)
(0.101695 -0.00242464 0)
(0.10404 -0.00345061 0)
(0.107084 -0.00436657 0)
(0.110736 -0.00519738 0)
(0.114917 -0.00596107 0)
(0.119561 -0.00667085 0)
(0.124611 -0.00733711 0)
(0.130022 -0.00796778 0)
(0.135755 -0.00856867 0)
(0.141776 -0.00914392 0)
(0.148057 -0.00969631 0)
(0.154569 -0.0102275 0)
(0.161288 -0.0107384 0)
(0.168191 -0.0112293 0)
(0.175255 -0.0117001 0)
(0.18246 -0.0121504 0)
(0.189783 -0.0125797 0)
(0.197206 -0.0129877 0)
(0.20471 -0.0133737 0)
(0.212275 -0.0137377 0)
(0.219885 -0.0140792 0)
(0.227524 -0.0143985 0)
(0.235175 -0.0146954 0)
(0.242823 -0.0149705 0)
(0.250456 -0.0152239 0)
(0.25806 -0.0154563 0)
(0.265625 -0.0156682 0)
(0.273139 -0.0158603 0)
(0.280594 -0.0160333 0)
(0.28798 -0.016188 0)
(0.29529 -0.0163252 0)
(0.302518 -0.0164457 0)
(0.309659 -0.0165501 0)
(0.316706 -0.0166391 0)
(0.323657 -0.0167135 0)
(0.330508 -0.0167737 0)
(0.337255 -0.0168203 0)
(0.343898 -0.0168537 0)
(0.350434 -0.0168742 0)
(0.356862 -0.0168818 0)
(0.363183 -0.0168767 0)
(0.369395 -0.0168587 0)
(0.375499 -0.0168276 0)
(0.381495 -0.0167829 0)
(0.387384 -0.0167238 0)
(0.393167 -0.0166496 0)
(0.398846 -0.0165591 0)
(0.404421 -0.016451 0)
(0.409894 -0.0163235 0)
(0.415267 -0.0161747 0)
(0.420541 -0.0160023 0)
(0.425717 -0.0158034 0)
(0.430799 -0.0155749 0)
(0.435786 -0.0153132 0)
(0.44068 -0.0150137 0)
(0.445484 -0.0146717 0)
(0.450198 -0.0142814 0)
(0.454824 -0.0138361 0)
(0.459363 -0.0133282 0)
(0.463815 -0.0127488 0)
(0.468182 -0.0120875 0)
(0.472464 -0.0113322 0)
(0.476663 -0.0104688 0)
(0.480778 -0.00948057 0)
(0.484812 -0.00834761 0)
(0.488766 -0.00704637 0)
(0.492643 -0.00554859 0)
(0.496448 -0.00382032 0)
(0.500188 -0.00182072 0)
(0.503879 0.000498749 0)
(0.507537 0.00319366 0)
(0.511199 0.00633047 0)
(0.514916 0.00998583 0)
(0.518767 0.0142436 0)
(0.522866 0.0191879 0)
(0.527372 0.0248888 0)
(0.532495 0.0313772 0)
(0.538496 0.0386035 0)
(0.545661 0.0463783 0)
(0.554215 0.054302 0)
(0.100233 -0.00152009 0)
(0.101653 -0.00294781 0)
(0.103962 -0.0042032 0)
(0.10697 -0.00532565 0)
(0.110587 -0.00634393 0)
(0.114733 -0.00727977 0)
(0.119343 -0.00814943 0)
(0.12436 -0.00896566 0)
(0.129738 -0.00973817 0)
(0.135439 -0.0104741 0)
(0.14143 -0.0111785 0)
(0.147679 -0.0118548 0)
(0.15416 -0.0125051 0)
(0.160849 -0.0131304 0)
(0.167721 -0.013731 0)
(0.174754 -0.0143069 0)
(0.181926 -0.0148575 0)
(0.189218 -0.0153823 0)
(0.196608 -0.0158807 0)
(0.204078 -0.0163521 0)
(0.211608 -0.0167963 0)
(0.219182 -0.0172129 0)
(0.226783 -0.0176019 0)
(0.234395 -0.0179636 0)
(0.242003 -0.0182981 0)
(0.249593 -0.018606 0)
(0.257154 -0.0188878 0)
(0.264672 -0.0191444 0)
(0.272138 -0.0193765 0)
(0.279542 -0.0195851 0)
(0.286876 -0.0197709 0)
(0.294131 -0.0199351 0)
(0.301302 -0.0200784 0)
(0.308382 -0.0202018 0)
(0.315367 -0.0203061 0)
(0.322253 -0.020392 0)
(0.329035 -0.0204604 0)
(0.335712 -0.0205117 0)
(0.34228 -0.0205463 0)
(0.348739 -0.0205647 0)
(0.355086 -0.0205671 0)
(0.361322 -0.0205533 0)
(0.367447 -0.0205233 0)
(0.373459 -0.0204767 0)
(0.37936 -0.0204129 0)
(0.38515 -0.0203311 0)
(0.39083 -0.0202302 0)
(0.396401 -0.0201088 0)
(0.401865 -0.0199654 0)
(0.407222 -0.0197978 0)
(0.412475 -0.0196037 0)
(0.417625 -0.0193803 0)
(0.422673 -0.0191243 0)
(0.427621 -0.018832 0)
(0.432472 -0.018499 0)
(0.437226 -0.0181203 0)
(0.441886 -0.0176901 0)
(0.446454 -0.017202 0)
(0.450931 -0.0166483 0)
(0.45532 -0.0160205 0)
(0.459623 -0.0153086 0)
(0.463842 -0.0145014 0)
(0.467979 -0.0135857 0)
(0.472038 -0.0125465 0)
(0.476023 -0.0113665 0)
(0.479939 -0.0100256 0)
(0.483792 -0.0085006 0)
(0.48759 -0.00676457 0)
(0.491346 -0.00478656 0)
(0.495076 -0.00253108 0)
(0.498803 4.21978e-05 0)
(0.502557 0.00297466 0)
(0.506379 0.00631063 0)
(0.510329 0.010096 0)
(0.514483 0.0143724 0)
(0.518937 0.019169 0)
(0.523811 0.0244904 0)
(0.529242 0.0303007 0)
(0.53537 0.0365028 0)
(0.542315 0.042919 0)
(0.550123 0.0492826 0)
(0.10021 -0.00179147 0)
(0.101613 -0.003498 0)
(0.103886 -0.00499754 0)
(0.106856 -0.00634031 0)
(0.110434 -0.00755905 0)
(0.114543 -0.00867909 0)
(0.119115 -0.00971984 0)
(0.124095 -0.0106966 0)
(0.129438 -0.0116209 0)
(0.135104 -0.0125013 0)
(0.141059 -0.0133439 0)
(0.147274 -0.0141527 0)
(0.153722 -0.0149301 0)
(0.160377 -0.0156776 0)
(0.167215 -0.0163953 0)
(0.174214 -0.0170832 0)
(0.181352 -0.0177407 0)
(0.188609 -0.0183671 0)
(0.195963 -0.0189616 0)
(0.203396 -0.0195237 0)
(0.210888 -0.0200529 0)
(0.218423 -0.0205489 0)
(0.225982 -0.0210116 0)
(0.233551 -0.0214412 0)
(0.241114 -0.0218382 0)
(0.248658 -0.022203 0)
(0.256169 -0.0225364 0)
(0.263636 -0.0228393 0)
(0.271049 -0.0231126 0)
(0.278397 -0.0233574 0)
(0.285671 -0.0235747 0)
(0.292866 -0.0237657 0)
(0.299973 -0.0239315 0)
(0.306986 -0.024073 0)
(0.313901 -0.0241913 0)
(0.320714 -0.0242873 0)
(0.32742 -0.0243617 0)
(0.334018 -0.0244153 0)
(0.340504 -0.0244485 0)
(0.346876 -0.0244617 0)
(0.353135 -0.0244552 0)
(0.359278 -0.0244289 0)
(0.365306 -0.0243825 0)
(0.371218 -0.0243157 0)
(0.377014 -0.0242278 0)
(0.382696 -0.0241177 0)
(0.388264 -0.0239842 0)
(0.393719 -0.0238257 0)
(0.399062 -0.0236402 0)
(0.404295 -0.0234254 0)
(0.409419 -0.0231786 0)
(0.414435 -0.0228965 0)
(0.419347 -0.0225754 0)
(0.424155 -0.022211 0)
(0.428862 -0.0217984 0)
(0.43347 -0.021332 0)
(0.437982 -0.0208054 0)
(0.442399 -0.0202115 0)
(0.446724 -0.0195421 0)
(0.450962 -0.0187879 0)
(0.455114 -0.0179385 0)
(0.459185 -0.0169821 0)
(0.46318 -0.0159053 0)
(0.467104 -0.0146933 0)
(0.470964 -0.013329 0)
(0.474768 -0.0117936 0)
(0.478527 -0.0100659 0)
(0.482253 -0.00812241 0)
(0.485963 -0.00593735 0)
(0.489679 -0.00348298 0)
(0.493427 -0.000729936 0)
(0.497245 0.00234941 0)
(0.501171 0.00577811 0)
(0.505258 0.00957636 0)
(0.509571 0.0137551 0)
(0.514181 0.0183097 0)
(0.519164 0.0232126 0)
(0.5246 0.0284053 0)
(0.530551 0.0337915 0)
(0.537054 0.0392344 0)
(0.544083 0.0445663 0)
(0.100187 -0.00207524 0)
(0.101575 -0.00407653 0)
(0.103814 -0.00583556 0)
(0.106745 -0.00741306 0)
(0.110283 -0.0088459 0)
(0.114351 -0.0101629 0)
(0.118884 -0.0113867 0)
(0.123825 -0.0125351 0)
(0.129129 -0.0136219 0)
(0.134758 -0.0146569 0)
(0.140676 -0.0156472 0)
(0.146855 -0.0165977 0)
(0.153267 -0.0175112 0)
(0.159887 -0.0183891 0)
(0.166689 -0.0192318 0)
(0.173653 -0.0200392 0)
(0.180754 -0.0208105 0)
(0.187974 -0.0215449 0)
(0.19529 -0.0222416 0)
(0.202683 -0.0228997 0)
(0.210135 -0.0235188 0)
(0.217626 -0.0240986 0)
(0.225142 -0.0246389 0)
(0.232664 -0.0251399 0)
(0.240179 -0.0256022 0)
(0.247671 -0.0260263 0)
(0.255129 -0.0264131 0)
(0.26254 -0.0267636 0)
(0.269894 -0.0270791 0)
(0.27718 -0.0273605 0)
(0.284391 -0.0276094 0)
(0.291517 -0.0278268 0)
(0.298554 -0.0280141 0)
(0.305494 -0.0281725 0)
(0.312332 -0.0283031 0)
(0.319065 -0.0284069 0)
(0.325688 -0.0284848 0)
(0.332199 -0.0285377 0)
(0.338595 -0.0285661 0)
(0.344874 -0.0285704 0)
(0.351035 -0.0285509 0)
(0.357077 -0.0285074 0)
(0.362999 -0.0284397 0)
(0.368802 -0.0283474 0)
(0.374486 -0.0282295 0)
(0.380051 -0.0280849 0)
(0.385499 -0.0279123 0)
(0.390829 -0.0277096 0)
(0.396043 -0.0274748 0)
(0.401144 -0.0272053 0)
(0.406132 -0.0268978 0)
(0.411009 -0.0265488 0)
(0.415778 -0.0261542 0)
(0.42044 -0.0257093 0)
(0.424998 -0.0252088 0)
(0.429456 -0.0246466 0)
(0.433814 -0.024016 0)
(0.438078 -0.0233092 0)
(0.442251 -0.022518 0)
(0.446336 -0.0216327 0)
(0.450339 -0.0206428 0)
(0.454266 -0.0195368 0)
(0.458121 -0.0183017 0)
(0.461914 -0.0169234 0)
(0.465653 -0.0153866 0)
(0.469349 -0.0136745 0)
(0.473016 -0.0117694 0)
(0.476668 -0.00965239 0)
(0.480326 -0.00730424 0)
(0.484013 -0.00470568 0)
(0.487756 -0.00183847 0)
(0.491592 0.00131368 0)
(0.495551 0.0047571 0)
(0.499677 0.00849315 0)
(0.504017 0.0125139 0)
(0.508619 0.0167979 0)
(0.513526 0.0213065 0)
(0.518776 0.0259812 0)
(0.52439 0.0307427 0)
(0.530365 0.0354945 0)
(0.536656 0.040134 0)
(0.100163 -0.00237262 0)
(0.101539 -0.00468509 0)
(0.103746 -0.00671967 0)
(0.106638 -0.00854691 0)
(0.110136 -0.0102081 0)
(0.114163 -0.0117355 0)
(0.118655 -0.0131551 0)
(0.123556 -0.0144873 0)
(0.128821 -0.0157478 0)
(0.13441 -0.0169482 0)
(0.140291 -0.0180967 0)
(0.146433 -0.0191988 0)
(0.152808 -0.0202575 0)
(0.159391 -0.0212748 0)
(0.166157 -0.0222509 0)
(0.173083 -0.0231855 0)
(0.180147 -0.024078 0)
(0.187328 -0.0249272 0)
(0.194604 -0.0257322 0)
(0.201956 -0.026492 0)
(0.209364 -0.0272061 0)
(0.216811 -0.0278741 0)
(0.224279 -0.0284959 0)
(0.231752 -0.0290716 0)
(0.239214 -0.0296019 0)
(0.246651 -0.0300875 0)
(0.254051 -0.0305294 0)
(0.261401 -0.0309287 0)
(0.268691 -0.0312868 0)
(0.275911 -0.0316051 0)
(0.283051 -0.031885 0)
(0.290104 -0.032128 0)
(0.297064 -0.0323354 0)
(0.303924 -0.0325088 0)
(0.310678 -0.0326494 0)
(0.317324 -0.0327584 0)
(0.323856 -0.0328367 0)
(0.330272 -0.0328854 0)
(0.33657 -0.0329049 0)
(0.342747 -0.0328958 0)
(0.348803 -0.0328583 0)
(0.354736 -0.0327924 0)
(0.360545 -0.0326977 0)
(0.366232 -0.0325737 0)
(0.371795 -0.0324194 0)
(0.377235 -0.0322335 0)
(0.382554 -0.0320144 0)
(0.387752 -0.0317601 0)
(0.392831 -0.0314681 0)
(0.397793 -0.0311356 0)
(0.402638 -0.0307591 0)
(0.40737 -0.0303349 0)
(0.411991 -0.0298584 0)
(0.416502 -0.0293248 0)
(0.420908 -0.0287283 0)
(0.425211 -0.0280627 0)
(0.429416 -0.027321 0)
(0.433525 -0.0264956 0)
(0.437544 -0.0255779 0)
(0.441478 -0.0245586 0)
(0.445334 -0.0234277 0)
(0.449117 -0.0221741 0)
(0.452836 -0.0207862 0)
(0.4565 -0.0192515 0)
(0.46012 -0.0175567 0)
(0.463708 -0.0156884 0)
(0.467279 -0.0136326 0)
(0.47085 -0.0113759 0)
(0.474441 -0.00890538 0)
(0.478074 -0.00620997 0)
(0.481774 -0.00328086 0)
(0.48557 -0.000111381 0)
(0.489493 0.00329647 0)
(0.493569 0.00693056 0)
(0.497829 0.0107734 0)
(0.502302 0.0147977 0)
(0.507009 0.0189652 0)
(0.511964 0.0232261 0)
(0.517165 0.0275206 0)
(0.522594 0.0317828 0)
(0.528205 0.0359507 0)
(0.100138 -0.002685 0)
(0.101505 -0.0053257 0)
(0.103683 -0.00765268 0)
(0.106538 -0.00974542 0)
(0.109996 -0.0116501 0)
(0.113983 -0.0134021 0)
(0.118434 -0.0150309 0)
(0.123294 -0.0165596 0)
(0.128519 -0.0180061 0)
(0.13407 -0.0193836 0)
(0.139913 -0.0207012 0)
(0.146017 -0.0219653 0)
(0.152355 -0.0231794 0)
(0.158901 -0.0243454 0)
(0.16563 -0.0254637 0)
(0.172518 -0.026534 0)
(0.179544 -0.0275552 0)
(0.186685 -0.0285263 0)
(0.193919 -0.029446 0)
(0.201228 -0.0303133 0)
(0.208591 -0.0311276 0)
(0.21599 -0.0318882 0)
(0.223408 -0.0325952 0)
(0.230827 -0.0332489 0)
(0.238233 -0.0338497 0)
(0.245612 -0.0343987 0)
(0.252949 -0.034897 0)
(0.260233 -0.0353459 0)
(0.267453 -0.0357468 0)
(0.2746 -0.0361015 0)
(0.281664 -0.0364116 0)
(0.288637 -0.0366786 0)
(0.295513 -0.0369044 0)
(0.302285 -0.0370904 0)
(0.308949 -0.0372381 0)
(0.315499 -0.0373488 0)
(0.321933 -0.0374237 0)
(0.328247 -0.0374637 0)
(0.334439 -0.0374697 0)
(0.340506 -0.037442 0)
(0.346448 -0.037381 0)
(0.352264 -0.0372866 0)
(0.357952 -0.0371585 0)
(0.363514 -0.0369959 0)
(0.368948 -0.036798 0)
(0.374257 -0.0365632 0)
(0.37944 -0.0362899 0)
(0.384499 -0.0359758 0)
(0.389436 -0.0356183 0)
(0.394252 -0.0352143 0)
(0.39895 -0.0347603 0)
(0.403531 -0.0342523 0)
(0.407999 -0.0336856 0)
(0.412356 -0.0330551 0)
(0.416607 -0.032355 0)
(0.420754 -0.0315792 0)
(0.424802 -0.0307206 0)
(0.428757 -0.0297717 0)
(0.432623 -0.0287245 0)
(0.436407 -0.0275702 0)
(0.440116 -0.0262996 0)
(0.443757 -0.0249029 0)
(0.44734 -0.02337 0)
(0.450875 -0.0216904 0)
(0.454375 -0.0198539 0)
(0.457851 -0.01785 0)
(0.461318 -0.0156693 0)
(0.464794 -0.0133031 0)
(0.468297 -0.0107446 0)
(0.471846 -0.0079891 0)
(0.475463 -0.00503509 0)
(0.479168 -0.00188404 0)
(0.482992 0.00146037 0)
(0.486942 0.00497898 0)
(0.491041 0.00865007 0)
(0.495301 0.0124465 0)
(0.499732 0.016335 0)
(0.504333 0.0202765 0)
(0.509093 0.0242277 0)
(0.513991 0.0281445 0)
(0.518985 0.0319895 0)
(0.10011 -0.00301386 0)
(0.101473 -0.00600076 0)
(0.103626 -0.00863789 0)
(0.106445 -0.0110127 0)
(0.109865 -0.0131766 0)
(0.113813 -0.0151684 0)
(0.118224 -0.0170206 0)
(0.123045 -0.0187595 0)
(0.128231 -0.0204049 0)
(0.133744 -0.0219718 0)
(0.139549 -0.0234704 0)
(0.145616 -0.0249077 0)
(0.151917 -0.0262878 0)
(0.158426 -0.0276125 0)
(0.165117 -0.0288825 0)
(0.171968 -0.030097 0)
(0.178954 -0.0312551 0)
(0.186054 -0.0323553 0)
(0.193246 -0.0333963 0)
(0.20051 -0.0343769 0)
(0.207825 -0.0352963 0)
(0.215173 -0.036154 0)
(0.222537 -0.0369499 0)
(0.229899 -0.0376844 0)
(0.237245 -0.0383581 0)
(0.244559 -0.038972 0)
(0.251828 -0.0395276 0)
(0.25904 -0.0400262 0)
(0.266185 -0.0404697 0)
(0.273252 -0.0408599 0)
(0.280232 -0.0411986 0)
(0.287118 -0.0414877 0)
(0.293903 -0.0417292 0)
(0.30058 -0.0419246 0)
(0.307145 -0.0420758 0)
(0.313593 -0.0421842 0)
(0.31992 -0.042251 0)
(0.326123 -0.0422774 0)
(0.3322 -0.0422643 0)
(0.338149 -0.0422121 0)
(0.34397 -0.0421212 0)
(0.349659 -0.0419916 0)
(0.355219 -0.0418228 0)
(0.360648 -0.0416143 0)
(0.365946 -0.0413648 0)
(0.371115 -0.041073 0)
(0.376156 -0.040737 0)
(0.38107 -0.0403545 0)
(0.385858 -0.0399228 0)
(0.390523 -0.0394387 0)
(0.395068 -0.0388985 0)
(0.399494 -0.0382982 0)
(0.403806 -0.0376331 0)
(0.408006 -0.036898 0)
(0.412099 -0.0360874 0)
(0.416089 -0.0351953 0)
(0.419981 -0.0342149 0)
(0.42378 -0.0331392 0)
(0.427493 -0.0319609 0)
(0.431127 -0.0306722 0)
(0.43469 -0.0292649 0)
(0.43819 -0.0277308 0)
(0.441637 -0.0260618 0)
(0.445041 -0.0242499 0)
(0.448415 -0.0222873 0)
(0.451771 -0.0201673 0)
(0.455123 -0.0178841 0)
(0.458487 -0.0154334 0)
(0.461878 -0.0128129 0)
(0.465312 -0.0100229 0)
(0.468807 -0.00706671 0)
(0.472377 -0.00395077 0)
(0.476039 -0.0006831 0)
(0.479811 0.0027239 0)
(0.483691 0.0062443 0)
(0.487687 0.00985331 0)
(0.491799 0.0135238 0)
(0.496022 0.0172263 0)
(0.500342 0.0209302 0)
(0.504737 0.0246059 0)
(0.509175 0.0282313 0)
(0.100081 -0.00336079 0)
(0.101443 -0.00671299 0)
(0.103574 -0.00967903 0)
(0.10636 -0.0123536 0)
(0.109744 -0.0147933 0)
(0.113655 -0.0170408 0)
(0.118028 -0.0191317 0)
(0.122811 -0.0210952 0)
(0.12796 -0.0229534 0)
(0.133436 -0.0247229 0)
(0.139204 -0.026415 0)
(0.145235 -0.0280375 0)
(0.1515 -0.0295947 0)
(0.157973 -0.0310888 0)
(0.164627 -0.0325202 0)
(0.171439 -0.0338881 0)
(0.178385 -0.0351912 0)
(0.185443 -0.036428 0)
(0.19259 -0.0375969 0)
(0.199806 -0.0386966 0)
(0.207071 -0.0397261 0)
(0.214365 -0.040685 0)
(0.221671 -0.0415731 0)
(0.228971 -0.0423909 0)
(0.23625 -0.0431392 0)
(0.243494 -0.0438192 0)
(0.250689 -0.0444324 0)
(0.257823 -0.0449805 0)
(0.264885 -0.0454656 0)
(0.271865 -0.0458896 0)
(0.278754 -0.0462548 0)
(0.285545 -0.0465632 0)
(0.29223 -0.046817 0)
(0.298803 -0.0470181 0)
(0.30526 -0.0471683 0)
(0.311596 -0.0472694 0)
(0.317807 -0.0473228 0)
(0.323891 -0.0473298 0)
(0.329845 -0.0472912 0)
(0.335668 -0.0472078 0)
(0.341357 -0.0470799 0)
(0.346913 -0.0469075 0)
(0.352335 -0.0466903 0)
(0.357623 -0.0464275 0)
(0.362778 -0.0461181 0)
(0.367801 -0.0457606 0)
(0.372693 -0.0453531 0)
(0.377455 -0.0448933 0)
(0.382089 -0.0443784 0)
(0.386599 -0.0438053 0)
(0.390986 -0.0431703 0)
(0.395254 -0.0424693 0)
(0.399407 -0.041698 0)
(0.403447 -0.0408513 0)
(0.407381 -0.039924 0)
(0.411212 -0.0389103 0)
(0.414947 -0.0378043 0)
(0.418591 -0.0365997 0)
(0.422152 -0.0352899 0)
(0.425636 -0.0338684 0)
(0.429052 -0.0323284 0)
(0.432409 -0.0306635 0)
(0.435716 -0.0288676 0)
(0.438985 -0.0269349 0)
(0.442226 -0.0248606 0)
(0.445452 -0.0226408 0)
(0.448675 -0.0202729 0)
(0.451908 -0.017756 0)
(0.455164 -0.0150912 0)
(0.458456 -0.0122818 0)
(0.461795 -0.00933393 0)
(0.465194 -0.00625623 0)
(0.46866 -0.00305936 0)
(0.472207 0.000246917 0)
(0.475833 0.00364356 0)
(0.479535 0.00710641 0)
(0.48331 0.0106135 0)
(0.487152 0.014143 0)
(0.491046 0.0176732 0)
(0.494975 0.0211845 0)
(0.498911 0.0246638 0)
(0.10005 -0.00372754 0)
(0.101414 -0.00746552 0)
(0.103527 -0.0107804 0)
(0.106284 -0.0137732 0)
(0.109634 -0.0165066 0)
(0.11351 -0.0190267 0)
(0.117849 -0.0213724 0)
(0.122596 -0.0235759 0)
(0.127709 -0.0256616 0)
(0.13315 -0.0276477 0)
(0.138884 -0.0295467 0)
(0.14488 -0.0313669 0)
(0.151109 -0.0331132 0)
(0.157546 -0.0347876 0)
(0.164162 -0.0363905 0)
(0.170935 -0.037921 0)
(0.17784 -0.0393776 0)
(0.184854 -0.0407585 0)
(0.191954 -0.0420618 0)
(0.199119 -0.0432862 0)
(0.206329 -0.0444305 0)
(0.213564 -0.0454943 0)
(0.220807 -0.0464776 0)
(0.228039 -0.0473808 0)
(0.235247 -0.048205 0)
(0.242413 -0.0489514 0)
(0.249527 -0.0496219 0)
(0.256574 -0.0502185 0)
(0.263545 -0.0507435 0)
(0.270429 -0.051199 0)
(0.277218 -0.0515876 0)
(0.283904 -0.0519117 0)
(0.29048 -0.0521737 0)
(0.296941 -0.0523756 0)
(0.30328 -0.0525197 0)
(0.309495 -0.0526079 0)
(0.315581 -0.0526416 0)
(0.321536 -0.0526225 0)
(0.327358 -0.0525514 0)
(0.333044 -0.0524292 0)
(0.338595 -0.0522564 0)
(0.344008 -0.0520331 0)
(0.349285 -0.0517588 0)
(0.354425 -0.0514331 0)
(0.359429 -0.0510548 0)
(0.364298 -0.0506225 0)
(0.369034 -0.0501343 0)
(0.373639 -0.049588 0)
(0.378115 -0.0489809 0)
(0.382464 -0.0483099 0)
(0.38669 -0.0475716 0)
(0.390797 -0.0467621 0)
(0.394788 -0.0458772 0)
(0.398667 -0.0449124 0)
(0.40244 -0.0438629 0)
(0.406112 -0.0427235 0)
(0.409689 -0.041489 0)
(0.413178 -0.040154 0)
(0.416585 -0.0387131 0)
(0.419919 -0.0371611 0)
(0.423187 -0.0354928 0)
(0.426398 -0.0337035 0)
(0.429563 -0.031789 0)
(0.43269 -0.0297458 0)
(0.435791 -0.0275713 0)
(0.438875 -0.025264 0)
(0.441954 -0.0228239 0)
(0.445038 -0.0202525 0)
(0.448138 -0.017553 0)
(0.451263 -0.0147305 0)
(0.454422 -0.0117922 0)
(0.457622 -0.00874754 0)
(0.460867 -0.0056074 0)
(0.464161 -0.00238284 0)
(0.467513 0.000917945 0)
(0.47091 0.0042737 0)
(0.474347 0.00766491 0)
(0.477817 0.011075 0)
(0.481309 0.0144886 0)
(0.484808 0.0178924 0)
(0.488292 0.0212793 0)
(0.100016 -0.00411597 0)
(0.101385 -0.00826182 0)
(0.103486 -0.0119467 0)
(0.106217 -0.0152778 0)
(0.109536 -0.0183236 0)
(0.113381 -0.0211341 0)
(0.117687 -0.0237519 0)
(0.122402 -0.0262117 0)
(0.127482 -0.0285405 0)
(0.132889 -0.030758 0)
(0.13859 -0.0328779 0)
(0.144552 -0.0349092 0)
(0.150747 -0.0368567 0)
(0.157147 -0.0387229 0)
(0.163726 -0.0405079 0)
(0.170458 -0.0422105 0)
(0.17732 -0.0438289 0)
(0.184286 -0.0453611 0)
(0.191336 -0.0468051 0)
(0.198446 -0.0481594 0)
(0.205596 -0.0494229 0)
(0.212766 -0.0505949 0)
(0.219939 -0.0516756 0)
(0.227097 -0.0526656 0)
(0.234224 -0.0535661 0)
(0.241305 -0.0543787 0)
(0.248328 -0.0551054 0)
(0.25528 -0.0557486 0)
(0.26215 -0.0563108 0)
(0.268929 -0.0567946 0)
(0.275608 -0.0572029 0)
(0.282179 -0.0575382 0)
(0.288636 -0.0578032 0)
(0.294973 -0.0580005 0)
(0.301185 -0.0581323 0)
(0.307268 -0.0582008 0)
(0.313219 -0.0582079 0)
(0.319035 -0.0581551 0)
(0.324715 -0.0580437 0)
(0.330256 -0.0578746 0)
(0.335658 -0.0576483 0)
(0.34092 -0.0573651 0)
(0.346043 -0.0570248 0)
(0.351028 -0.0566269 0)
(0.355874 -0.0561703 0)
(0.360583 -0.0556538 0)
(0.365158 -0.0550756 0)
(0.369601 -0.0544336 0)
(0.373913 -0.0537253 0)
(0.378099 -0.0529478 0)
(0.382161 -0.0520981 0)
(0.386103 -0.0511724 0)
(0.389931 -0.0501672 0)
(0.393648 -0.0490784 0)
(0.397259 -0.0479018 0)
(0.400772 -0.0466331 0)
(0.404191 -0.0452678 0)
(0.407523 -0.0438018 0)
(0.410776 -0.0422307 0)
(0.413958 -0.0405507 0)
(0.417076 -0.0387581 0)
(0.420138 -0.0368499 0)
(0.423155 -0.0348235 0)
(0.426134 -0.0326774 0)
(0.429085 -0.0304109 0)
(0.432018 -0.0280243 0)
(0.43494 -0.0255193 0)
(0.437861 -0.0228989 0)
(0.440788 -0.0201674 0)
(0.443728 -0.0173309 0)
(0.446687 -0.0143967 0)
(0.44967 -0.0113736 0)
(0.452679 -0.00827173 0)
(0.455716 -0.00510182 0)
(0.458776 -0.00187327 0)
(0.461872 0.00140869 0)
(0.464978 0.00472375 0)
(0.468094 0.00805775 0)
(0.471211 0.0113991 0)
(0.474318 0.0147386 0)
(0.477397 0.0180731 0)
(0.099979 -0.00452814 0)
(0.101358 -0.00910582 0)