/*--------------------------------*- C++ -*----------------------------------*\
  =========                 |
  \\      /  F ield         | OpenFOAM: The Open Source CFD Toolbox
   \\    /   O peration     | Website:  https://openfoam.org
    \\  /    A nd           | Version:  7
     \\/     M anipulation  |
\*---------------------------------------------------------------------------*/
FoamFile
{
    version     2.0;
    format      ascii;
    class       volScalarField;
    location    "4.3";
    object      p;
}
// * * * * * * * * * * * * * * * * * * * * * * * * * * * * * * * * * * * * * //

dimensions      [0 2 -2 0 0 0 0];

internalField   nonuniform List<scalar> 
2790
(
147.111
147.018
147.285
147.856
148.636
149.594
150.726
152.033
153.509
155.15
156.949
158.9
160.994
163.219
165.559
167.995
170.499
173.038
175.57
178.044
180.403
182.58
184.511
186.131
187.391
188.265
188.701
188.757
188.808
189.02
146.908
146.926
147.218
147.786
148.562
149.516
150.644
151.945
153.414
155.047
156.837
158.777
160.86
163.074
165.403
167.829
170.325
172.858
175.388
177.866
180.235
182.43
184.384
186.033
187.317
188.192
188.589
188.643
188.776
189.061
146.709
146.797
147.108
147.666
148.429
149.371
150.484
151.766
153.214
154.822
156.584
158.493
160.541
162.716
165.005
167.387
169.839
172.329
174.821
177.269
179.618
181.811
183.784
185.473
186.824
187.8
188.393
188.749
189.064
189.363
146.484
146.603
146.927
147.476
148.224
149.149
150.243
151.501
152.92
154.494
156.218
158.083
160.082
162.202
164.431
166.748
169.133
171.556
173.983
176.374
178.681
180.852
182.834
184.574
186.029
187.181
188.049
188.72
189.272
189.791
146.224
146.356
146.688
147.23
147.962
148.866
149.933
151.16
152.542
154.074
155.748
157.557
159.493
161.543
163.695
165.931
168.229
170.564
172.905
175.218
177.463
179.599
181.581
183.371
184.942
186.284
187.415
188.377
189.188
189.935
145.923
146.061
146.395
146.927
147.639
148.517
149.553
150.742
152.08
153.559
155.174
156.917
158.778
160.746
162.807
164.945
167.14
169.369
171.606
173.821
175.984
178.061
180.023
181.844
183.507
185.008
186.355
187.561
188.581
189.499
145.58
145.719
146.051
146.569
147.259
148.107
149.106
150.251
151.537
152.957
154.504
156.169
157.944
159.817
161.774
163.8
165.876
167.981
170.094
172.19
174.245
176.236
178.144
179.954
181.66
183.261
184.755
186.134
187.299
188.345
145.195
145.333
145.657
146.159
146.823
147.636
148.594
149.689
150.917
152.27
153.74
155.32
156.998
158.764
160.604
162.503
164.444
166.409
168.376
170.328
172.245
174.113
175.92
177.662
179.34
180.959
182.514
183.987
185.237
186.387
144.769
144.903
145.216
145.699
146.334
147.11
148.021
149.061
150.225
151.504
152.89
154.374
155.946
157.595
159.305
161.064
162.853
164.656
166.456
168.234
169.978
171.676
173.324
174.924
176.486
178.021
179.529
180.999
182.271
183.509
144.303
144.431
144.731
145.192
145.794
146.529
147.39
148.371
149.464
150.663
151.958
153.339
154.796
156.316
157.886
159.49
161.111
162.733
164.339
165.913
167.441
168.915
170.333
171.701
173.034
174.352
175.672
177.01
178.211
179.515
143.797
143.919
144.204
144.64
145.208
145.898
146.705
147.622
148.641
149.754
150.951
152.222
153.556
154.938
156.356
157.792
159.229
160.65
162.037
163.371
164.639
165.829
166.936
167.964
168.927
169.856
170.786
171.785
172.747
174.066
143.255
143.37
143.638
144.046
144.577
145.221
145.971
146.82
147.76
148.782
149.876
151.031
152.234
153.471
154.726
155.982
157.221
158.422
159.564
160.626
161.587
162.429
163.137
163.703
164.129
164.439
164.681
164.989
165.371
166.544
142.678
142.785
143.035
143.414
143.906
144.501
145.19
145.969
146.826
147.754
148.74
149.774
150.84
151.925
153.01
154.076
155.103
156.067
156.942
157.701
158.314
158.748
158.97
158.945
158.641
158.043
157.168
156.176
155.227
155.732
142.069
142.168
142.398
142.747
143.198
143.741
144.369
145.074
145.846
146.676
147.551
148.459
149.385
150.312
151.22
152.089
152.894
153.608
154.199
154.631
154.861
154.838
154.499
153.767
152.544
150.714
148.151
144.848
140.9
138.864
141.43
141.52
141.73
142.047
142.456
142.946
143.51
144.14
144.825
145.555
146.317
147.097
147.878
148.644
149.372
150.038
150.616
151.072
151.368
151.458
151.285
150.775
149.829
148.314
146.035
142.702
137.859
130.841
120.378
108.154
1.40408
1.38472
1.31553
1.21885
1.11672
1.01955
0.930512
0.849869
0.776949
0.71067
0.649766
0.59298
0.53921
0.487597
0.437574
0.388898
0.341661
0.296241
0.253193
0.21306
0.176211
0.142765
0.11284
0.0869399
0.0654063
0.0481642
0.0346584
0.0239073
0.0145171
0.00478547
1.35368
1.33105
1.26593
1.17703
1.08315
0.993178
0.909988
0.834012
0.764763
0.701326
0.642588
0.587421
0.534822
0.484003
0.434457
0.386003
0.338809
0.29335
0.250271
0.210171
0.173406
0.140136
0.110554
0.0848897
0.0635761
0.0467211
0.0337422
0.0236238
0.0149124
0.00669654
1.29998
1.27248
1.20973
1.12801
1.0428
0.960777
0.884248
0.813703
0.748807
0.688795
0.632707
0.57955
0.52843
0.478643
0.429753
0.381652
0.334595
0.289172
0.246159
0.206247
0.169787
0.136819
0.107416
0.0819502
0.0609348
0.0445227
0.032277
0.023103
0.0149739
0.00626365
1.25065
1.2184
1.15716
1.08141
1.00394
0.929182
0.858838
0.793395
0.732636
0.675922
0.622423
0.571264
0.521652
0.472966
0.424839
0.377224
0.33044
0.28516
0.242267
0.202565
0.166439
0.133794
0.104509
0.0789873
0.0579784
0.0418632
0.0302478
0.0220743
0.0150809
0.00592605
1.2202
1.1834
1.12379
1.0523
0.980143
0.910139
0.843745
0.781477
0.723237
0.668497
0.616519
0.566514
0.517766
0.469729
0.4221
0.374877
0.328402
0.283355
0.240631
0.201092
0.16524
0.133173
0.104785
0.0801574
0.0595696
0.0430708
0.0305233
0.0214358
0.0138988
0.005165
1.22063
1.17823
1.11954
1.04914
0.978409
0.909113
0.843135
0.781062
0.722894
0.668151
0.616124
0.566055
0.517266
0.469255
0.421757
0.374786
0.328664
0.284002
0.241593
0.202215
0.166422
0.134421
0.106257
0.0819808
0.0615775
0.0453034
0.0325825
0.0224834
0.0138735
0.00443594
1.26062
1.21071
1.14809
1.07345
0.998299
0.92498
0.855519
0.790546
0.729972
0.673248
0.61962
0.568316
0.518657
0.470135
0.422471
0.375646
0.329943
0.285882
0.244103
0.205217
0.169684
0.137756
0.109539
0.0850803
0.0642174
0.0466247
0.0328352
0.0217334
0.0120438
0.00359122
1.343
1.28101
1.20572
1.11879
1.03271
0.950717
0.874414
0.804049
0.739299
0.67941
0.623423
0.570429
0.519662
0.470542
0.422693
0.37602
0.3308
0.287507
0.246637
0.208581
0.173606
0.141906
0.113597
0.0887166
0.0672417
0.0490567
0.034002
0.0209685
0.00979092
0.00262992
1.46086
1.37574
1.27778
1.17042
1.06843
0.975251
0.891139
0.814964
0.74569
0.682559
0.62434
0.569911
0.518359
0.468962
0.421174
0.374795
0.330219
0.287982
0.248466
0.211752
0.177722
0.146312
0.117549
0.0917962
0.0695857
0.0507874
0.0346045
0.0198309
0.00752826
0.00176501
1.58887
1.46858
1.34406
1.2176
1.09763
0.990472
0.896866
0.815537
0.74395
0.679501
0.620415
0.565464
0.513734
0.464369
0.416787
0.370929
0.327237
0.286467
0.248965
0.21433
0.181737
0.150669
0.121419
0.0948227
0.0716898
0.0520644
0.0347451
0.0183941
0.0052767
0.000974333
1.68604
1.53729
1.38343
1.23454
1.1026
0.988357
0.890443
0.806622
0.734164
0.669858
0.611163
0.556694
0.505704
0.457277
0.410457
0.365066
0.322037
0.282746
0.247651
0.215712
0.185223
0.155009
0.125282
0.0974666
0.0731317
0.0526396
0.0344166
0.0168833
0.00327215
0.000290099
1.74207
1.55346
1.37385
1.20791
1.0685
0.953819
0.858595
0.778518
0.710245
0.649836
0.593935
0.541396
0.492327
0.446
0.400781
0.356091
0.313638
0.276103
0.244397
0.216479
0.189008
0.159812
0.129194
0.0995057
0.0735125
0.0521704
0.0334989
0.015376
0.00160593
-0.000257424
1.68969
1.44092
1.25301
1.09924
0.976203
0.87851
0.797807
0.729272
0.671361
0.61972
0.569375
0.519849
0.473601
0.43066
0.387962
0.343836
0.301216
0.265341
0.238299
0.216408
0.193429
0.165546
0.133345
0.100741
0.0723903
0.0502822
0.0319028
0.0139891
0.000377451
-0.000637774
1.37347
1.0805
0.963082
0.884784
0.812184
0.756623
0.707266
0.658757
0.617427
0.580433
0.538471
0.491876
0.448802
0.411264
0.372891
0.32905
0.284532
0.249533
0.228796
0.215934
0.199549
0.173152
0.138127
0.100941
0.0691477
0.0464385
0.0295188
0.012903
-0.000292988
-0.000817865
0.62045
0.288601
0.416401
0.55937
0.576238
0.597369
0.600049
0.571791
0.547512
0.533859
0.505327
0.459771
0.418611
0.389118
0.357957
0.313191
0.26263
0.22603
0.213827
0.215092
0.208627
0.183779
0.143937
0.0996806
0.0628404
0.0398142
0.0262
0.0124426
-0.00024581
-0.000764003
140.751
140.832
141.02
141.305
141.669
142.105
142.603
143.154
143.749
144.376
145.021
145.669
146.303
146.903
147.445
147.904
148.248
148.439
148.433
148.173
147.587
146.578
145.013
142.699
139.337
134.43
127.058
115.305
93.1397
33.3281
140.024
140.095
140.261
140.511
140.83
141.208
141.637
142.108
142.609
143.13
143.654
144.166
144.648
145.078
145.431
145.678
145.784
145.708
145.397
144.787
143.794
142.304
140.158
137.125
132.847
126.74
117.771
104.205
84.6796
56.2268
139.254
139.315
139.458
139.672
139.943
140.263
140.621
141.009
141.415
141.827
142.228
142.603
142.931
143.19
143.353
143.388
143.259
142.919
142.313
141.371
140
138.081
135.448
131.872
127.028
120.459
111.577
99.7435
85.5109
68.8976
138.444
138.495
138.613
138.791
139.013
139.272
139.559
139.863
140.173
140.474
140.752
140.989
141.164
141.253
141.228
141.057
140.699
140.109
139.227
137.981
136.28
134.007
131.009
127.091
122.005
115.459
107.156
96.7639
84.2219
69.0915
137.594
137.635
137.729
137.869
138.042
138.24
138.454
138.674
138.887
139.079
139.234
139.334
139.358
139.281
139.075
138.705
138.133
137.31
136.178
134.668
132.694
130.149
126.905
122.805
117.668
111.296
103.489
94.003
82.6721
69.7031
136.707
136.737
136.807
136.909
137.033
137.17
137.312
137.447
137.564
137.647
137.682
137.649
137.526
137.29
136.911
136.356
135.585
134.552
133.203
131.473
129.284
126.547
123.154
118.989
113.919
107.812
100.544
92.0161
82.2197
71.5674
135.786
135.806
135.851
135.915
135.99
136.066
136.136
136.188
136.21
136.188
136.105
135.943
135.681
135.294
134.753
134.027
133.078
131.863
130.331
128.425
126.078
123.217
119.76
115.619
110.707
104.945
98.2804
90.7007
82.2498
73.2635
134.834
134.843
134.864
134.891
134.917
134.934
134.933
134.903
134.833
134.709
134.513
134.229
133.835
133.307
132.619
131.74
130.634
129.264
127.584
125.544
123.092
120.167
116.71
112.661
107.967
102.589
96.5108
89.7546
82.37
74.6288
133.854
133.853
133.85
133.84
133.818
133.777
133.707
133.599
133.441
133.218
132.916
132.517
132
131.344
130.523
129.508
128.27
126.772
124.977
122.844
120.33
117.392
113.985
110.073
105.627
100.632
95.0935
89.0464
82.5442
75.8142
132.851
132.84
132.813
132.768
132.7
132.602
132.466
132.283
132.04
131.725
131.323
130.817
130.188
129.416
128.478
127.348
125.999
124.401
122.522
120.33
117.792
114.877
111.557
107.809
103.622
98.995
93.9473
88.5176
82.7592
76.8568
131.829
131.809
131.759
131.679
131.566
131.415
131.216
130.961
130.639
130.238
129.743
129.14
128.411
127.537
126.497
125.27
123.832
122.158
120.223
118.002
115.47
112.607
109.397
105.827
101.897
97.6175
93.011
88.1169
82.9835
77.7588
130.793
130.763
130.692
130.58
130.424
130.221
129.963
129.642
129.246
128.765
128.186
127.496
126.677
125.714
124.59
123.283
121.776
120.049
118.081
115.855
113.353
110.563
107.475
104.089
100.408
96.4489
92.2352
87.8038
83.1965
78.5325
129.749
129.71
129.618
129.475
129.279
129.028
128.715
128.331
127.868
127.315
126.661
125.892
124.996
123.958
122.763
121.394
119.837
118.075
116.095
113.882
111.427
108.723
105.767
102.561
99.1164
95.4487
91.5827
87.5509
83.3891
79.1933
128.701
128.654
128.544
128.371
128.138
127.843
127.478
127.038
126.513
125.895
125.174
124.338
123.375
122.275
121.023
119.608
118.016
116.237
114.26
112.076
109.68
107.069
104.246
101.215
97.9892
94.5852
91.0259
87.3396
83.5567
79.7548
127.657
127.603
127.474
127.274
127.007
126.671
126.26
125.768
125.189
124.513
123.733
122.839
121.821
120.67
119.375
117.926
116.314
114.531
112.569
110.425
108.096
105.583
102.89
100.025
97.0007
93.8335
90.5441
87.1569
83.6975
80.229
126.623
126.561
126.416
126.192
125.894
125.52
125.067
124.53
123.901
123.176
122.345
121.403
120.34
119.149
117.821
116.351
114.73
112.954
111.018
108.921
106.663
104.248
101.68
98.9701
96.1295
93.1739
90.1217
86.9939
83.8117
80.6269
125.605
125.537
125.377
125.13
124.804
124.397
123.907
123.329
122.658
121.889
121.017
120.034
118.935
117.714
116.364
114.882
113.262
111.501
109.598
107.553
105.368
103.048
100.6
98.0326
95.3584
92.5912
89.7473
86.8445
83.9006
80.9583
124.61
124.536
124.363
124.096
123.744
123.308
122.786
122.172
121.465
120.66
119.752
118.738
117.611
116.368
115.005
113.519
111.907
110.168
108.302
106.311
104.199
101.971
99.6342
97.198
94.6735
92.0736
89.4122
86.7048
83.9664
81.232
123.645
123.567
123.381
123.097
122.723
122.262
121.71
121.067
120.329
119.494
118.558
117.518
116.371
115.114
113.744
112.261
110.663
108.95
107.124
105.188
103.147
101.005
98.7714
96.4542
94.0639
91.6118
89.1104
86.5727
84.0116
81.4559
122.719
122.635
122.44
122.14
121.747
121.263
120.688
120.019
119.256
118.396
117.438
116.379
115.217
113.952
112.582
111.106
109.526
107.842
106.057
104.175
102.201
100.141
98.0013
95.7915
93.5207
91.1991
88.8375
86.4471
84.039
81.6371
121.838
121.75
121.546
121.233
120.823
120.32
119.724
119.034
118.25
117.371
116.396
115.323
114.153
112.885
111.518
110.054
108.494
106.841
105.097
103.267
101.356
99.3697
97.316
95.2023
93.0374
90.8303
88.5905
86.3278
84.0515
81.7818
121.01
120.919
120.707
120.382
119.958
119.439
118.826
118.119
117.319
116.425
115.437
114.355
113.18
111.912
110.553
109.103
107.565
105.942
104.238
102.456
100.604
98.6857
96.7089
94.6807
92.609
90.5019
88.3678
86.2153
84.0525
81.8963
120.243
120.149
119.93
119.596
119.16
118.627
118.001
117.28
116.467
115.561
114.564
113.477
112.301
111.036
109.686
108.252
106.736
105.143
103.476
101.74
99.9406
98.0834
96.1749
94.2219
92.2315
90.2111
88.1683
86.1104
84.0447
81.9852
119.546
119.45
119.224
118.881
118.435
117.892
117.254
116.523
115.699
114.786
113.783
112.693
111.518
110.259
108.919
107.501
106.007
104.442
102.809
101.115
99.3629
97.5596
95.711
93.8233
91.9032
89.9574
87.9925
86.0152
84.032
82.0547
118.927
118.828
118.597
118.246
117.792
117.239
116.593
115.853
115.022
114.102
113.096
112.006
110.833
109.581
108.252
106.849
105.376
103.836
102.235
100.577
98.8669
97.1105
95.3134
93.4817
91.6214
89.7386
87.8394
85.9299
84.0157
82.1067
118.395
118.293
118.057
117.699
117.237
116.677
116.024
115.278
114.442
113.519
112.511
111.422
110.253
109.007
107.688
106.3
104.845
103.329
101.755
100.128
98.4539
96.7373
94.9837
93.1989
91.3885
89.5581
87.7134
85.8599
84.0028
82.1506
117.96
117.855
117.611
117.246
116.776
116.211
115.552
114.801
113.961
113.036
112.028
110.94
109.775
108.536
107.227
105.851
104.413
102.916
101.365
99.7642
98.1192
96.435
94.7167
92.9697
91.1993
89.4108
87.6094
85.8002
83.988
82.1797
117.634
117.523
117.27
116.898
116.424
115.854
115.191
114.436
113.594
112.668
111.66
110.573
109.412
108.179
106.878
105.513
104.088
102.607
101.074
99.4938
97.8721
96.2134
94.5227
92.8051
91.0658
89.3098
87.542
85.7673
83.9903
82.2172
117.432
117.297
117.027
116.649
116.173
115.601
114.935
114.179
113.335
112.409
111.402
110.317
109.16
107.931
106.637
105.279
103.863
102.393
100.873
99.307
97.701
96.0594
94.3871
92.6891
90.9703
89.2356
87.4897
85.7372
83.9824
82.2304
117.414
117.215
116.917
116.532
116.053
115.478
114.809
114.051
113.207
112.28
111.274
110.191
109.036
107.812
106.521
105.17
103.76
102.297
100.786
99.2296
97.634
96.0035
94.343
92.6574
90.9515
89.23
87.4975
85.7586
84.0175
82.2785
-50.6145
-30.4011
-11.0938
35.8958
28.5399
16.6854
51.4395
39.3954
28.2436
52.8395
42.435
34.4149
57.1675
48.8946
42.1535
61.5481
54.6511
48.7708
64.8123
58.9394
53.8977
67.3995
62.3806
58.0767
69.5801
65.2521
61.5469
71.4203
67.6447
64.4201
72.9673
69.6392
66.804
74.2704
71.3095
68.7921
75.3701
72.7133
70.4578
76.2986
73.896
71.8585
77.0823
74.8942
73.0397
77.743
75.7372
74.0377
78.2991
76.449
74.8814
78.7655
77.0493
75.5945
79.1553
77.5544
76.1964
79.4795
77.9781
76.7032
79.7475
78.332
77.1285
79.9681
78.6264
77.4841
80.1477
78.8694
77.7794
80.2946
79.0702
78.0243
80.4111
79.232
78.2232
80.5091
79.3673
78.3886
80.5799
79.4679
78.5139
80.6519
79.5627
78.626
80.6855
79.6126
78.6898
80.7544
79.6956
78.7794
-2.41007
-2.27008
-0.820339
0.28937
0.343522
0.415226
0.473564
0.451418
0.448659
0.489852
0.485838
0.427697
0.377707
0.358465
0.342107
0.29607
0.233256
0.191184
0.191752
0.216501
0.225261
0.200947
0.152388
0.0968702
0.0522429
0.0291278
0.0217573
0.0133319
0.000874366
-0.000436189
2.95425
-0.0851799
1.26241
0.875397
-0.329421
-0.192243
0.361516
0.421626
0.407936
0.495297
0.481358
0.369746
0.299667
0.316065
0.345202
0.296927
0.204896
0.143077
0.156967
0.218801
0.250903
0.225075
0.161695
0.0890683
0.033145
0.010938
0.0153647
0.0169368
0.00384559
0.000206486
14.0079
5.59783
2.77349
0.477072
0.050844
1.13406
1.35002
0.287253
-0.154604
0.145954
0.49429
0.377992
0.268326
0.322303
0.383256
0.297312
0.138236
0.0333506
0.0751257
0.221408
0.305538
0.270394
0.180485
0.081965
0.00895071
-0.0129748
0.00949848
0.0276154
0.0114056
0.00119021
23.6907
13.8329
7.99111
4.23927
2.42109
1.74656
0.690638
0.00558408
0.168357
1.30616
1.34541
0.283283
-0.142969
-0.0359959
0.306874
0.360559
0.119869
-0.0477793
0.0570281
0.280401
0.397764
0.323326
0.188096
0.0519607
-0.046405
-0.0691467
-0.0137196
0.0430375
0.0255067
0.0021168
32.8301
23.0827
15.7739
10.4771
6.82281
4.33838
2.50282
1.45826
1.10186
1.16595
0.686238
0.11468
-0.0753584
0.490079
1.05432
0.663929
-0.00289678
-0.419257
-0.409804
0.156019
0.528079
0.417545
0.215864
0.0353397
-0.0879966
-0.103463
0.0148831
0.108676
0.0665764
0.00291638
40.7836
31.8669
23.9856
17.5566
12.6294
8.97707
6.29705
4.4019
3.11715
2.23468
1.46238
0.850801
0.525741
0.62423
0.64407
0.416852
-0.0962874
-0.474378
-0.184918
0.766995
0.971399
0.47069
0.166911
-0.0593562
-0.215874
-0.25918
-0.141214
0.119882
0.12808
-2.16038e-05
47.2713
39.472
31.7018
24.8155
19.1898
14.7246
11.1974
8.44082
6.33819
4.75939
3.52571
2.53626
1.82811
1.41948
1.11433
0.762652
0.269645
-0.0683625
0.0803389
0.527295
0.670169
0.468985
0.204378
-0.040192
-0.22317
-0.247358
0.0500223
0.375316
0.286602
-0.00525584
52.5556
45.8282
38.5744
31.7473
25.8646
20.9171
16.7748
13.3488
10.5703
8.34499
6.54141
5.06863
3.91738
3.06934
2.41235
1.80401
1.20511
0.782231
0.690982
0.817666
0.850933
0.650447
0.341368
0.0625138
-0.125311
-0.151659
0.0281293
0.224326
0.305183
-0.0557924
56.8664
51.0517
44.4695
37.9976
32.18
27.0672
22.5954
18.7292
15.4383
12.6675
10.3388
8.38933
6.7872
5.49638
4.43728
3.51851
2.71666
2.10349
1.74648
1.57911
1.4046
1.09808
0.726548
0.40039
0.177269
0.0976915
0.163271
0.26175
0.23908
-0.293347
60.3842
55.3173
49.4156
43.4314
37.8773
32.831
28.2637
24.171
20.554
17.3937
14.6519
12.2883
10.2704
8.56246
7.11189
5.86334
4.7931
3.92155
3.26937
2.78887
2.36047
1.89924
1.42818
1.01314
0.698523
0.506536
0.423677
0.358939
0.153147
-0.513077
63.273
58.8136
53.5335
48.0651
42.8679
38.0252
33.5241
29.3759
25.6015
22.2058
19.1764
16.4925
14.1317
12.0684
10.2694
8.69929
7.33582
6.1765
5.21923
4.42844
3.73267
3.07417
2.45073
1.89507
1.43583
1.08225
0.811642
0.546069
0.157558
-0.595646
65.6655
61.7014
56.9628
51.9831
47.1671
42.5933
38.2547
34.1683
30.3637
26.8592
23.6582
20.755
18.139
15.7959
13.7059
11.8467
10.2004
8.75696
7.50572
6.41992
5.45485
4.57016
3.75366
3.01729
2.37486
1.8258
1.34416
0.867094
0.302047
-0.527916
67.661
64.1049
59.8289
55.2887
50.8408
46.5554
42.4263
38.4707
34.7201
31.1989
27.9198
24.8868
22.0989
19.5506
17.2322
15.131
13.2344
11.532
10.0118
8.65362
7.42819
6.30707
5.27567
4.33385
3.4842
2.71978
2.01574
1.324
0.581436
-0.33583
69.3347
66.1181
62.2354
58.0813
53.9716
49.9683
46.0638
42.2728
38.6255
35.1483
31.8581
28.7647
25.8734
23.1854
20.698
18.4054
16.3002
14.3744
12.6178
11.0158
9.54859
8.19588
6.9438
5.78609
4.71844
3.73067
2.80098
1.89395
0.968302
-0.057405
70.7441
67.8125
64.2646
60.4465
56.6402
52.9001
49.217
45.6022
42.0832
38.6857
35.4282
32.3235
29.3807
26.6052
23.9992
21.5618
19.29
17.1787
15.2208
13.4061
11.7211
10.1513
8.68452
7.31224
6.02674
4.81674
3.66396
2.54266
1.42635
0.26617
71.9344
69.2436
65.9817
62.4549
58.9172
55.4168
51.9427
48.5029
45.1215
41.8224
38.6241
35.5407
32.5829
29.759
27.0743
24.5312
22.1299
19.8685
17.7428
15.746
13.8691
12.1016
10.4337
8.8563
7.3607
5.93577
4.56628
3.23326
1.91907
0.598619
72.9411
70.4548
67.4378
64.1635
60.8624
57.5772
54.2957
51.0227
47.7789
44.586
41.4616
38.4196
35.4717
32.6274
29.894
27.2763
24.7767
22.3958
20.1318
17.9809
15.9372
13.9934
12.1413
10.373
8.67952
7.05061
5.47334
3.93291
2.41609
0.913849
73.7929
71.4806
68.6739
65.6187
62.5249
59.4315
56.3248
53.207
50.0956
47.01
43.9662
40.9775
38.0556
35.2106
32.4508
29.7823
27.2094
24.7344
22.3575
20.0771
17.8897
15.7902
13.7724
11.8291
9.95224
8.13226
6.3578
4.61627
2.89586
1.19719
74.5129
72.3492
69.7234
66.8579
63.9457
61.0219
58.0722
55.0966
52.1096
49.1281
46.1665
43.2372
40.3514
37.5191
34.749
32.048
29.4216
26.8732
24.4046
22.016
19.7055
17.4698
15.3041
13.2025
11.1574
9.16022
7.20036
5.26612
3.34539
1.44356
75.1207
73.0837
70.6135
67.9124
65.1585
62.384
59.5743
56.7273
53.8549
50.9719
48.0909
45.2233
42.3792
39.5684
36.7995
34.0798
31.4153
28.8104
26.268
23.7893
21.3739
19.0197
16.7232
14.4793
12.2814
10.1212
7.98867
5.87214
3.7584
1.65437
75.6321
73.7033
71.3668
68.8077
66.1914
63.5477
60.8618
58.1298
55.3616
52.5699
49.7657
46.9591
44.1593
41.3753
38.6156
35.8875
33.1971
30.5493
27.9478
25.3946
22.8902
20.4336
18.0222
15.6517
13.3159
11.0071
8.71536
6.42875
4.13274
1.83392
76.0611
74.2243
72.0023
69.5655
67.0683
64.5385
61.961
59.331
56.6563
53.9478
51.2151
48.4668
45.7114
42.9572
40.2118
37.4826
34.7755
32.0958
29.4475
26.833
24.2538
21.7094
19.1978
16.7153
14.2565
11.8135
9.37674
6.9337
4.46882
1.98729
76.4187
74.6597
72.5354
70.2033
67.8085
65.377
62.8939
60.3533
57.7613
55.1273
52.4596
49.7658
47.0532
44.3293
41.6014
38.876
36.1593
33.4563
30.7712
28.107
25.4651
22.8459
20.2478
17.6676
15.0999
12.5374
9.97015
7.38548
4.767
2.11803
76.7158
75.0222
72.9806
70.7375
68.4298
66.0823
63.6803
61.2169
58.6971
56.1287
53.5191
50.8747
48.202
45.5077
42.7983
40.08
37.3586
34.639
31.9255
29.221
26.5275
23.8454
21.1734
18.5087
15.8462
13.1786
10.4959
7.78518
5.02954
2.22998
76.9585
75.3194
73.3467
71.1781
68.9436
66.6669
64.3334
61.9357
59.4776
56.9659
54.407
51.8062
49.1694
46.5025
43.8114
41.1018
38.3791
35.6481
32.9127
30.1763
27.4405
24.7061
21.9721
19.2356
16.4918
13.7335
10.9506
8.12992
5.25445
2.32279
77.1588
75.5638
73.6478
71.5405
69.3662
67.1478
64.871
62.5279
60.1214
57.6574
55.1413
52.578
49.9724
47.3298
44.6557
41.9551
39.2333
36.4946
33.7429
30.9813
28.2117
25.4348
22.6497
19.8536
17.0418
14.207
11.3393
8.42512
5.4474
2.40163
77.3133
75.7531
73.882
71.8233
69.6968
67.5248
65.2933
62.994
60.6289
58.2033
55.7221
53.1894
50.6096
47.9875
45.3279
42.6357
39.9156
37.1719
34.4081
31.6273
28.8314
26.0209
23.195
20.3512
17.4844
14.5876
11.6506
8.65991
5.59848
2.45949
77.4443
75.9098
74.0728
72.051
69.9606
67.8237
65.6265
63.3604
61.0269
58.6307
56.1762
53.6671
51.1073
48.5012
45.8533
43.168
40.4498
37.7027
34.9303
32.1353
29.3196
26.4837
23.6269
20.7464
17.8375
14.8927
11.9019
8.8515
5.72406
2.509
77.5249
76.0066
74.1918
72.1951
70.1291
68.0157
65.8414
63.5976
61.2853
58.9088
56.4723
53.9791
51.4329
48.8377
46.1977
43.5173
40.8007
38.0516
35.2735
32.4692
29.6403
26.7876
23.91
21.0048
18.0672
15.0898
12.062
8.97001
5.79638
2.52884
77.6137
76.0965
74.2939
72.3122
70.2599
68.1592
65.997
63.7649
61.4636
59.0973
56.6698
54.1844
51.6446
49.0544
46.4178
43.7389
41.022
38.2708
35.4886
32.6782
29.8413
26.9784
24.0887
21.1694
18.2156
15.2198
12.1711
9.05481
5.85089
2.5354
)
;

boundaryField
{
    inlet
    {
        type            zeroGradient;
    }
    outlet
    {
        type            fixedValue;
        value           uniform 0;
    }
    flap
    {
        type            zeroGradient;
    }
    upperWall
    {
        type            zeroGradient;
    }
    lowerWall
    {
        type            zeroGradient;
    }
    frontAndBack
    {
        type            empty;
    }
}


// ************************************************************************* //
