/*--------------------------------*- C++ -*----------------------------------*\
  =========                 |
  \\      /  F ield         | OpenFOAM: The Open Source CFD Toolbox
   \\    /   O peration     | Website:  https://openfoam.org
    \\  /    A nd           | Version:  7
     \\/     M anipulation  |
\*---------------------------------------------------------------------------*/
FoamFile
{
    version     2.0;
    format      ascii;
    class       volVectorField;
    location    "4.3";
    object      U;
}
// * * * * * * * * * * * * * * * * * * * * * * * * * * * * * * * * * * * * * //

dimensions      [0 1 -1 0 0 0 0];

internalField   nonuniform List<vector> 
2790
(
(9.94399 0.0205231 0)
(9.87572 0.0295876 0)
(9.77521 0.0359893 0)
(9.64944 0.0425559 0)
(9.50409 0.0493851 0)
(9.34007 0.0564279 0)
(9.15655 0.0638153 0)
(8.95264 0.071711 0)
(8.72748 0.0802545 0)
(8.4801 0.0895728 0)
(8.2093 0.0997927 0)
(7.91367 0.111045 0)
(7.59172 0.12346 0)
(7.24182 0.137164 0)
(6.86237 0.152273 0)
(6.45184 0.168871 0)
(6.00893 0.186998 0)
(5.53274 0.20662 0)
(5.02303 0.227592 0)
(4.48051 0.249613 0)
(3.90722 0.272179 0)
(3.3069 0.294528 0)
(2.68536 0.315623 0)
(2.05069 0.334293 0)
(1.41187 0.350611 0)
(0.7981 0.372888 0)
(0.110802 0.325096 0)
(-0.469559 -0.114844 0)
(-0.453767 -0.297169 0)
(-0.231163 -0.423864 0)
(9.9985 0.0407028 0)
(9.98145 0.0623824 0)
(9.93575 0.0791395 0)
(9.86417 0.0966239 0)
(9.77098 0.115123 0)
(9.65716 0.134487 0)
(9.52207 0.154973 0)
(9.36487 0.176941 0)
(9.18473 0.200705 0)
(8.98069 0.226547 0)
(8.75155 0.254741 0)
(8.49591 0.285558 0)
(8.21224 0.319247 0)
(7.89886 0.35602 0)
(7.55409 0.396018 0)
(7.17625 0.439262 0)
(6.76384 0.485592 0)
(6.31573 0.534587 0)
(5.83132 0.585463 0)
(5.31096 0.636956 0)
(4.75623 0.687207 0)
(4.1705 0.733652 0)
(3.55938 0.77296 0)
(2.93164 0.801102 0)
(2.30004 0.813761 0)
(1.69303 0.807268 0)
(1.10723 0.747278 0)
(0.658944 0.547962 0)
(0.18653 0.224662 0)
(-0.00819992 -0.45371 0)
(9.99559 0.0432066 0)
(9.97556 0.075271 0)
(9.9318 0.103345 0)
(9.8649 0.132369 0)
(9.77778 0.163057 0)
(9.67155 0.195396 0)
(9.54589 0.229739 0)
(9.40015 0.266599 0)
(9.23367 0.306466 0)
(9.04565 0.349802 0)
(8.83511 0.397066 0)
(8.60084 0.448716 0)
(8.34148 0.505186 0)
(8.05554 0.566857 0)
(7.74142 0.634004 0)
(7.39749 0.706724 0)
(7.02216 0.78483 0)
(6.61402 0.867717 0)
(6.17201 0.954189 0)
(5.69571 1.04225 0)
(5.18571 1.12888 0)
(4.64405 1.20979 0)
(4.07488 1.27916 0)
(3.48546 1.32934 0)
(2.88693 1.35011 0)
(2.29955 1.32645 0)
(1.73192 1.22081 0)
(1.21631 0.973052 0)
(0.701185 0.5702 0)
(0.358065 -0.156484 0)
(9.99403 0.0494988 0)
(9.97181 0.0932054 0)
(9.92788 0.133571 0)
(9.86225 0.174207 0)
(9.77694 0.216431 0)
(9.67299 0.260658 0)
(9.55032 0.307425 0)
(9.4085 0.35741 0)
(9.24704 0.411284 0)
(9.06535 0.469698 0)
(8.8627 0.533294 0)
(8.63822 0.602714 0)
(8.39088 0.678582 0)
(8.11955 0.761463 0)
(7.82304 0.851808 0)
(7.50006 0.949861 0)
(7.1493 1.05553 0)
(6.7695 1.16823 0)
(6.35956 1.28659 0)
(5.91867 1.40825 0)
(5.44661 1.52946 0)
(4.94409 1.64468 0)
(4.41326 1.74615 0)
(3.85836 1.82323 0)
(3.28591 1.86139 0)
(2.70648 1.84036 0)
(2.12572 1.72606 0)
(1.55431 1.47793 0)
(0.957984 1.08377 0)
(0.509437 0.502404 0)
(9.99331 0.0572131 0)
(9.96994 0.110958 0)
(9.92593 0.162102 0)
(9.86146 0.213345 0)
(9.77799 0.266353 0)
(9.67635 0.32191 0)
(9.55655 0.380696 0)
(9.41822 0.443482 0)
(9.26098 0.511048 0)
(9.08435 0.584161 0)
(8.88772 0.663576 0)
(8.67041 0.75005 0)
(8.43162 0.84432 0)
(8.17049 0.947067 0)
(7.88611 1.05886 0)
(7.57752 1.18005 0)
(7.24371 1.31066 0)
(6.88366 1.45016 0)
(6.49635 1.5972 0)
(6.0808 1.74931 0)
(5.63624 1.9024 0)
(5.1622 2.05031 0)
(4.65886 2.18417 0)
(4.1273 2.29175 0)
(3.56949 2.35659 0)
(2.98897 2.35736 0)
(2.3869 2.26502 0)
(1.76645 2.04772 0)
(1.09003 1.6915 0)
(0.536667 1.15425 0)
(9.99302 0.065538 0)
(9.96923 0.1287 0)
(9.92556 0.190111 0)
(9.86253 0.25184 0)
(9.78129 0.315574 0)
(9.68245 0.382314 0)
(9.56601 0.452868 0)
(9.43172 0.528093 0)
(9.27921 0.60887 0)
(9.10807 0.696073 0)
(8.91779 0.790565 0)
(8.70776 0.893208 0)
(8.47731 1.00484 0)
(8.2257 1.12624 0)
(7.95218 1.25807 0)
(7.65593 1.40079 0)
(7.33608 1.55451 0)
(6.99169 1.71883 0)
(6.62175 1.89252 0)
(6.22508 2.0732 0)
(5.80036 2.25683 0)
(5.34613 2.43719 0)
(4.8608 2.60519 0)
(4.34279 2.74823 0)
(3.79049 2.84957 0)
(3.20266 2.88825 0)
(2.57665 2.8383 0)
(1.91353 2.67171 0)
(1.17279 2.37412 0)
(0.549984 1.89453 0)
(9.99297 0.0740741 0)
(9.96927 0.146312 0)
(9.92637 0.217481 0)
(9.86509 0.289289 0)
(9.78643 0.363351 0)
(9.69085 0.440821 0)
(9.57835 0.522653 0)
(9.44872 0.609802 0)
(9.30166 0.703244 0)
(9.13679 0.803951 0)
(8.95366 0.912884 0)
(8.75172 1.03099 0)
(8.53036 1.1592 0)
(8.2889 1.29837 0)
(8.02662 1.44927 0)
(7.74273 1.61245 0)
(7.43634 1.78815 0)
(7.10646 1.97613 0)
(6.75187 2.17537 0)
(6.37108 2.38378 0)
(5.96218 2.59771 0)
(5.52273 2.81136 0)
(5.04962 3.01614 0)
(4.53911 3.19997 0)
(3.98676 3.34671 0)
(3.38801 3.43602 0)
(2.73734 3.44339 0)
(2.03631 3.34161 0)
(1.24179 3.11372 0)
(0.563533 2.6933 0)
(9.99306 0.0825872 0)
(9.96981 0.163604 0)
(9.92807 0.244047 0)
(9.86885 0.325476 0)
(9.79313 0.409441 0)
(9.70126 0.4972 0)
(9.59324 0.58983 0)
(9.46888 0.688386 0)
(9.32796 0.793927 0)
(9.17015 0.907514 0)
(8.99504 1.0302 0)
(8.80212 1.16301 0)
(8.59083 1.30698 0)
(8.36053 1.46306 0)
(8.11048 1.63212 0)
(7.83984 1.81483 0)
(7.54765 2.01163 0)
(7.23272 2.22247 0)
(6.89356 2.44669 0)
(6.52824 2.68265 0)
(6.13417 2.92732 0)
(5.70795 3.17574 0)
(5.24507 3.42035 0)
(4.73989 3.6502 0)
(4.1856 3.85026 0)
(3.57487 4.00095 0)
(2.89962 4.078 0)
(2.16219 4.05251 0)
(1.31617 3.90186 0)
(0.583242 3.54034 0)
(9.99326 0.0909274 0)
(9.97072 0.180407 0)
(9.93046 0.269665 0)
(9.87362 0.360237 0)
(9.80118 0.453641 0)
(9.71344 0.551202 0)
(9.61038 0.654103 0)
(9.49189 0.763485 0)
(9.35776 0.880491 0)
(9.20774 1.00626 0)
(9.04146 1.14194 0)
(8.85849 1.28864 0)
(8.65829 1.44749 0)
(8.44024 1.61955 0)
(8.2036 1.80583 0)
(7.94749 2.00716 0)
(7.67082 2.2242 0)
(7.37221 2.45723 0)
(7.04986 2.706 0)
(6.70134 2.96952 0)
(6.32343 3.24561 0)
(5.91175 3.53049 0)
(5.46048 3.81804 0)
(4.96213 4.09898 0)
(4.40754 4.35989 0)
(3.78653 4.58216 0)
(3.08768 4.74118 0)
(2.3128 4.80461 0)
(1.4107 4.74128 0)
(0.614336 4.44214 0)
(9.99352 0.0989913 0)
(9.97191 0.196577 0)
(9.9334 0.294192 0)
(9.87924 0.393412 0)
(9.8104 0.49575 0)
(9.72717 0.602581 0)
(9.62953 0.715172 0)
(9.51742 0.834749 0)
(9.39069 0.962529 0)
(9.24913 1.09973 0)
(9.09246 1.24757 0)
(8.92029 1.40727 0)
(8.73214 1.58003 0)
(8.52744 1.76707 0)
(8.30546 1.96951 0)
(8.06529 2.18843 0)
(7.80576 2.42474 0)
(7.52534 2.67911 0)
(7.22197 2.95186 0)
(6.89284 3.24276 0)
(6.53412 3.55073 0)
(6.14058 3.87344 0)
(5.70517 4.20667 0)
(5.21862 4.54337 0)
(4.66914 4.87245 0)
(4.04302 5.17703 0)
(3.32383 5.43242 0)
(2.50988 5.60214 0)
(1.54194 5.64373 0)
(0.664091 5.41831 0)
(9.99384 0.106703 0)
(9.9733 0.211998 0)
(9.9368 0.317499 0)
(9.88558 0.424851 0)
(9.82064 0.535583 0)
(9.74225 0.651112 0)
(9.65045 0.772777 0)
(9.54518 0.901872 0)
(9.42638 1.03968 0)
(9.2939 1.1875 0)
(9.14753 1.34661 0)
(8.98695 1.51832 0)
(8.81176 1.70395 0)
(8.62144 1.90483 0)
(8.41533 2.12226 0)
(8.19255 2.35754 0)
(7.95191 2.6119 0)
(7.69183 2.88647 0)
(7.4101 3.18221 0)
(7.10371 3.49979 0)
(6.76843 3.8394 0)
(6.39844 4.20048 0)
(5.98568 4.58113 0)
(5.51923 4.9773 0)
(4.98454 5.38132 0)
(4.36344 5.77961 0)
(3.63207 6.14926 0)
(2.78027 6.45087 0)
(1.73355 6.62879 0)
(0.74488 6.50343 0)
(9.9942 0.114005 0)
(9.97487 0.226573 0)
(9.94056 0.33947 0)
(9.89252 0.454419 0)
(9.83173 0.572977 0)
(9.75851 0.696601 0)
(9.67289 0.826683 0)
(9.57488 0.964579 0)
(9.46448 1.11163 0)
(9.34162 1.26919 0)
(9.20616 1.43862 0)
(9.05787 1.6213 0)
(8.89645 1.81865 0)
(8.72148 2.03211 0)
(8.53238 2.26318 0)
(8.32838 2.51338 0)
(8.10837 2.78428 0)
(7.87085 3.07749 0)
(7.61366 3.39464 0)
(7.33379 3.7374 0)
(7.027 4.10736 0)
(6.68725 4.50594 0)
(6.30601 4.93404 0)
(5.87123 5.3914 0)
(5.36595 5.87534 0)
(4.76709 6.37829 0)
(4.04092 6.88335 0)
(3.16165 7.35373 0)
(2.02489 7.72355 0)
(0.880803 7.75753 0)
(9.99459 0.120852 0)
(9.97657 0.240222 0)
(9.94461 0.360004 0)
(9.89995 0.481996 0)
(9.84356 0.607789 0)
(9.77575 0.738874 0)
(9.69662 0.876686 0)
(9.60623 1.02263 0)
(9.50463 1.1781 0)
(9.39185 1.34449 0)
(9.26781 1.52322 0)
(9.13242 1.71575 0)
(8.98548 1.92357 0)
(8.82669 2.14824 0)
(8.65563 2.39143 0)
(8.47168 2.65487 0)
(8.27394 2.94045 0)
(8.0611 3.25026 0)
(7.8313 3.58659 0)
(7.58184 3.95208 0)
(7.30885 4.34973 0)
(7.00673 4.78305 0)
(6.66732 5.256 0)
(6.27862 5.77287 0)
(5.82263 6.33765 0)
(5.2727 6.95243 0)
(4.58477 7.61375 0)
(3.71021 8.30117 0)
(2.48839 8.95866 0)
(1.12459 9.29384 0)
(9.99501 0.12721 0)
(9.97838 0.252883 0)
(9.94891 0.379018 0)
(9.90779 0.507482 0)
(9.85598 0.639901 0)
(9.79381 0.777793 0)
(9.72142 0.922627 0)
(9.63893 1.07584 0)
(9.54647 1.23887 0)
(9.44412 1.41315 0)
(9.33195 1.60013 0)
(9.20994 1.80132 0)
(9.07805 2.01829 0)
(8.93614 2.2527 0)
(8.78398 2.50633 0)
(8.62116 2.78111 0)
(8.44709 3.07921 0)
(8.26082 3.4031 0)
(8.06097 3.75567 0)
(7.84548 4.14039 0)
(7.61135 4.56156 0)
(7.35414 5.02458 0)
(7.06723 5.53641 0)
(6.74053 6.10604 0)
(6.35809 6.74517 0)
(5.8943 7.4689 0)
(5.30107 8.29639 0)
(4.50922 9.24822 0)
(3.26918 10.3424 0)
(1.60523 11.3601 0)
(9.99545 0.13305 0)
(9.98026 0.264502 0)
(9.95339 0.396439 0)
(9.91596 0.530784 0)
(9.86888 0.669193 0)
(9.81252 0.813204 0)
(9.74707 0.964311 0)
(9.67271 1.12398 0)
(9.58963 1.29366 0)
(9.49801 1.47482 0)
(9.39801 1.66893 0)
(9.28976 1.87753 0)
(9.17336 2.10225 0)
(9.04885 2.34479 0)
(8.91622 2.60703 0)
(8.77538 2.89104 0)
(8.62606 3.19919 0)
(8.46782 3.53421 0)
(8.29995 3.89943 0)
(8.12129 4.29894 0)
(7.93016 4.73795 0)
(7.72399 5.22332 0)
(7.49894 5.76426 0)
(7.24914 6.3736 0)
(6.96509 7.06978 0)
(6.63127 7.88066 0)
(6.2149 8.85168 0)
(5.66653 10.0659 0)
(4.69103 11.7315 0)
(2.68806 14.594 0)
(0.122623 -0.124377 0)
(0.287142 -0.113321 0)
(0.456897 -0.0904468 0)
(0.601254 -0.0691661 0)
(0.715789 -0.0519803 0)
(0.805577 -0.0386487 0)
(0.876662 -0.02848 0)
(0.933774 -0.0208461 0)
(0.980408 -0.0152177 0)
(1.01927 -0.0111485 0)
(1.0525 -0.00826711 0)
(1.08179 -0.00626235 0)
(1.10838 -0.0048638 0)
(1.13305 -0.00382894 0)
(1.15617 -0.00294199 0)
(1.17772 -0.00202659 0)
(1.19733 -0.000969262 0)
(1.21444 0.000260679 0)
(1.22851 0.001621 0)
(1.23913 0.00305274 0)
(1.24607 0.00454366 0)
(1.24907 0.00607107 0)
(1.2481 0.00744461 0)
(1.24266 0.00867595 0)
(1.23271 0.00959978 0)
(1.21926 0.00988658 0)
(1.20426 0.00933729 0)
(1.19014 0.00793044 0)
(1.17908 0.00584366 0)
(1.17241 0.00266935 0)
(0.102309 -0.284424 0)
(0.261185 -0.268062 0)
(0.417387 -0.220263 0)
(0.552598 -0.174425 0)
(0.663657 -0.137252 0)
(0.755124 -0.108413 0)
(0.831961 -0.0864009 0)
(0.897895 -0.0698271 0)
(0.955619 -0.057528 0)
(1.00718 -0.0485357 0)
(1.0542 -0.0420546 0)
(1.09793 -0.0374245 0)
(1.13931 -0.0340764 0)
(1.17902 -0.0315027 0)
(1.21745 -0.0292511 0)
(1.25474 -0.0269467 0)
(1.2908 -0.0243388 0)
(1.32538 -0.0213506 0)
(1.35818 -0.018078 0)
(1.38901 -0.0146894 0)
(1.41787 -0.0112634 0)
(1.44481 -0.00774765 0)
(1.46923 -0.0041001 0)
(1.49057 -0.000415531 0)
(1.50836 0.0028555 0)
(1.52245 0.00508664 0)
(1.53397 0.00586413 0)
(1.5449 0.00514823 0)
(1.5562 0.00333172 0)
(1.57099 0.000934571 0)
(0.0793519 -0.445773 0)
(0.213448 -0.420238 0)
(0.335071 -0.347619 0)
(0.439857 -0.278401 0)
(0.52516 -0.22259 0)
(0.595714 -0.179327 0)
(0.655433 -0.146194 0)
(0.707017 -0.12104 0)
(0.752399 -0.10213 0)
(0.79307 -0.088058 0)
(0.830209 -0.0776831 0)
(0.86475 -0.0700634 0)
(0.897409 -0.0643926 0)
(0.928709 -0.0599574 0)
(0.958992 -0.0561226 0)
(0.98843 -0.052351 0)
(1.01701 -0.0482647 0)
(1.04455 -0.0437266 0)
(1.07077 -0.0388761 0)
(1.09546 -0.0340162 0)
(1.11871 -0.0293163 0)
(1.14094 -0.0245225 0)
(1.1626 -0.0191028 0)
(1.1836 -0.0131148 0)
(1.20317 -0.00749596 0)
(1.22067 -0.0035804 0)
(1.23512 -0.00229962 0)
(1.24598 -0.00378366 0)
(1.25417 -0.00708985 0)
(1.26271 -0.00911061 0)
(0.0575391 -0.569725 0)
(0.160203 -0.529049 0)
(0.239973 -0.433986 0)
(0.308999 -0.346511 0)
(0.362513 -0.277364 0)
(0.40637 -0.224278 0)
(0.443129 -0.183762 0)
(0.474364 -0.152957 0)
(0.501223 -0.129693 0)
(0.524634 -0.112274 0)
(0.545348 -0.099336 0)
(0.563966 -0.0897571 0)
(0.580973 -0.0825787 0)
(0.596757 -0.0769621 0)
(0.611631 -0.072162 0)
(0.625849 -0.0675315 0)
(0.639541 -0.06258 0)
(0.652666 -0.0570757 0)
(0.664897 -0.0511413 0)
(0.675775 -0.0452121 0)
(0.685072 -0.0397516 0)
(0.693429 -0.0349046 0)
(0.701893 -0.0302271 0)
(0.710811 -0.0251813 0)
(0.71898 -0.0196186 0)
(0.724673 -0.0137917 0)
(0.726098 -0.0084176 0)
(0.721549 -0.00449596 0)
(0.71208 -0.00341903 0)
(0.694887 -0.00383568 0)
(0.035116 -0.658564 0)
(0.100648 -0.597475 0)
(0.133286 -0.482802 0)
(0.16398 -0.382558 0)
(0.181834 -0.304919 0)
(0.195136 -0.245965 0)
(0.204444 -0.201007 0)
(0.210519 -0.166691 0)
(0.213905 -0.14063 0)
(0.21513 -0.120988 0)
(0.214614 -0.106298 0)
(0.212685 -0.0953574 0)
(0.209639 -0.0871461 0)
(0.205776 -0.0807735 0)
(0.20141 -0.0754455 0)
(0.19689 -0.0704524 0)
(0.192508 -0.0651983 0)
(0.18848 -0.0592903 0)
(0.184442 -0.0526651 0)
(0.179754 -0.0456203 0)
(0.172783 -0.0385632 0)
(0.163457 -0.0316428 0)
(0.15085 -0.0245996 0)
(0.136953 -0.0173745 0)
(0.123003 -0.0104427 0)
(0.110132 -0.00450964 0)
(0.101547 0.000201913 0)
(0.0955705 0.00323347 0)
(0.0923566 0.0038985 0)
(0.0803997 -0.0033356 0)
(0.0111499 -0.706515 0)
(0.0344142 -0.620883 0)
(0.0174579 -0.489656 0)
(0.00773553 -0.381595 0)
(-0.0126724 -0.29851 0)
(-0.0330572 -0.237089 0)
(-0.0551047 -0.190489 0)
(-0.0779184 -0.155157 0)
(-0.101181 -0.128526 0)
(-0.124503 -0.108611 0)
(-0.14763 -0.0938349 0)
(-0.170386 -0.0829427 0)
(-0.1926 -0.0748697 0)
(-0.214117 -0.068691 0)
(-0.234796 -0.0636235 0)
(-0.25444 -0.0590278 0)
(-0.272735 -0.0543697 0)
(-0.289309 -0.049224 0)
(-0.303897 -0.0433533 0)
(-0.316507 -0.0368275 0)
(-0.327511 -0.0300391 0)
(-0.337454 -0.0234822 0)
(-0.347049 -0.0175305 0)
(-0.356801 -0.0121959 0)
(-0.366829 -0.00748235 0)
(-0.376407 -0.00345275 0)
(-0.384105 1.34687e-05 0)
(-0.389773 0.00281847 0)
(-0.395701 0.00359982 0)
(-0.402377 0.000808245 0)
(-0.0164012 -0.706767 0)
(-0.0402803 -0.593196 0)
(-0.105416 -0.452426 0)
(-0.158395 -0.343818 0)
(-0.216322 -0.262083 0)
(-0.271967 -0.201875 0)
(-0.325064 -0.157212 0)
(-0.374686 -0.124119 0)
(-0.420491 -0.0998574 0)
(-0.462334 -0.0823559 0)
(-0.500287 -0.069934 0)
(-0.534628 -0.0612666 0)
(-0.565718 -0.0552662 0)
(-0.593937 -0.0510239 0)
(-0.619618 -0.0477966 0)
(-0.642959 -0.0450368 0)
(-0.663954 -0.0422855 0)
(-0.682473 -0.039099 0)
(-0.698451 -0.0350884 0)
(-0.712081 -0.0300502 0)
(-0.723869 -0.0240898 0)
(-0.734532 -0.0176244 0)
(-0.744772 -0.0112014 0)
(-0.754974 -0.00532215 0)
(-0.765301 -0.000386183 0)
(-0.774526 0.00345732 0)
(-0.78208 0.00611135 0)
(-0.789023 0.0071291 0)
(-0.795697 0.00563776 0)
(-0.800607 0.00206209 0)
(-0.0501451 -0.653953 0)
(-0.122441 -0.519061 0)
(-0.233655 -0.377845 0)
(-0.328319 -0.271696 0)
(-0.421615 -0.194691 0)
(-0.507198 -0.14084 0)
(-0.583881 -0.103344 0)
(-0.651342 -0.0771668 0)
(-0.710179 -0.0591421 0)
(-0.761465 -0.0471871 0)
(-0.806253 -0.039575 0)
(-0.845575 -0.0349839 0)
(-0.880336 -0.0323875 0)
(-0.911297 -0.0309765 0)
(-0.939092 -0.0301306 0)
(-0.964162 -0.0294931 0)
(-0.986644 -0.0287741 0)
(-1.00649 -0.0275891 0)
(-1.02369 -0.025472 0)
(-1.0385 -0.0220566 0)
(-1.0515 -0.0173153 0)
(-1.06336 -0.0116723 0)
(-1.07468 -0.00582889 0)
(-1.08592 -0.000557404 0)
(-1.09594 0.00365294 0)
(-1.10514 0.00689973 0)
(-1.11384 0.00946293 0)
(-1.12224 0.0106821 0)
(-1.13003 0.00956877 0)
(-1.13466 0.00685185 0)
(-0.0909536 -0.544238 0)
(-0.214701 -0.396165 0)
(-0.375621 -0.263892 0)
(-0.508458 -0.170897 0)
(-0.629424 -0.106172 0)
(-0.736068 -0.0631319 0)
(-0.828635 -0.0360829 0)
(-0.907942 -0.020139 0)
(-0.973042 -0.0117784 0)
(-1.02736 -0.0077309 0)
(-1.07341 -0.00631081 0)
(-1.11324 -0.00654238 0)
(-1.14835 -0.00774137 0)
(-1.17985 -0.00936945 0)
(-1.20859 -0.0111018 0)
(-1.23465 -0.0127529 0)
(-1.25811 -0.0141678 0)
(-1.27884 -0.0150394 0)
(-1.29681 -0.0148124 0)
(-1.3123 -0.0129252 0)
(-1.326 -0.00920945 0)
(-1.33876 -0.00415179 0)
(-1.35137 0.00126005 0)
(-1.36275 0.00600675 0)
(-1.3736 0.00963481 0)
(-1.38381 0.0122273 0)
(-1.39334 0.0139954 0)
(-1.40246 0.0145696 0)
(-1.4106 0.0133053 0)
(-1.41491 0.0110741 0)
(-0.145563 -0.373713 0)
(-0.334052 -0.226327 0)
(-0.56346 -0.109699 0)
(-0.748391 -0.0292863 0)
(-0.893318 0.0116181 0)
(-1.00741 0.0311051 0)
(-1.09701 0.0382099 0)
(-1.1681 0.0382059 0)
(-1.22734 0.0350416 0)
(-1.27718 0.0305948 0)
(-1.31983 0.0257419 0)
(-1.35686 0.0207808 0)
(-1.38938 0.0158928 0)
(-1.41831 0.0113308 0)
(-1.44434 0.00722899 0)
(-1.46836 0.00357423 0)
(-1.49044 0.000243687 0)
(-1.51032 -0.0025841 0)
(-1.52779 -0.00423313 0)
(-1.54309 -0.00389473 0)
(-1.55688 -0.00126828 0)
(-1.56979 0.00313708 0)
(-1.58201 0.00813424 0)
(-1.59434 0.0125777 0)
(-1.60628 0.0158115 0)
(-1.61729 0.0178066 0)
(-1.62737 0.0188775 0)
(-1.63695 0.0189516 0)
(-1.64529 0.0176782 0)
(-1.64943 0.0158683 0)
(-0.227485 -0.13625 0)
(-0.481204 0.0440785 0)
(-0.732021 0.109803 0)
(-0.916108 0.125989 0)
(-1.06426 0.126108 0)
(-1.18192 0.117543 0)
(-1.27599 0.10524 0)
(-1.35188 0.0918094 0)
(-1.41379 0.0785889 0)
(-1.4652 0.0665127 0)
(-1.50896 0.0559519 0)
(-1.54704 0.0466146 0)
(-1.58058 0.0382138 0)
(-1.61044 0.0308619 0)
(-1.63749 0.0247101 0)
(-1.66238 0.0194088 0)
(-1.68506 0.0143871 0)
(-1.70493 0.00961359 0)
(-1.72156 0.00597072 0)
(-1.7354 0.00470967 0)
(-1.74773 0.00641198 0)
(-1.75995 0.0104911 0)
(-1.77287 0.015475 0)
(-1.78626 0.0197801 0)
(-1.79927 0.0224795 0)
(-1.81106 0.0236293 0)
(-1.82162 0.0238375 0)
(-1.83151 0.0234045 0)
(-1.83998 0.0222022 0)
(-1.84402 0.0208098 0)
(-0.287664 0.264784 0)
(-0.5681 0.326002 0)
(-0.850476 0.318056 0)
(-1.05894 0.287241 0)
(-1.21956 0.250053 0)
(-1.34242 0.212744 0)
(-1.43775 0.178948 0)
(-1.51311 0.149586 0)
(-1.57368 0.124503 0)
(-1.62349 0.10389 0)
(-1.66599 0.0874269 0)
(-1.70338 0.0737553 0)
(-1.73654 0.0617211 0)
(-1.76603 0.0513063 0)
(-1.79289 0.0428253 0)
(-1.81804 0.0357302 0)
(-1.84136 0.0288358 0)
(-1.86172 0.0217199 0)
(-1.87815 0.0155929 0)
(-1.89115 0.0125049 0)
(-1.9026 0.0135478 0)
(-1.91456 0.0178626 0)
(-1.92804 0.0232945 0)
(-1.9426 0.0276587 0)
(-1.95685 0.0297646 0)
(-1.96951 0.0298306 0)
(-1.98048 0.0289559 0)
(-1.99049 0.0279479 0)
(-1.99895 0.0268321 0)
(-2.00289 0.0258178 0)
(-0.340919 0.66499 0)
(-0.683047 0.663024 0)
(-1.00801 0.56206 0)
(-1.2271 0.461316 0)
(-1.38584 0.37684 0)
(-1.50258 0.305812 0)
(-1.5907 0.248928 0)
(-1.65965 0.203988 0)
(-1.71466 0.167518 0)
(-1.75951 0.138793 0)
(-1.79831 0.117272 0)
(-1.83362 0.100122 0)
(-1.86554 0.0847322 0)
(-1.89383 0.0711809 0)
(-1.91964 0.0605287 0)
(-1.94458 0.0521144 0)
(-1.96852 0.0436822 0)
(-1.98937 0.0340191 0)
(-2.00519 0.0248127 0)
(-2.01647 0.0194819 0)
(-2.02611 0.0200008 0)
(-2.03725 0.0251208 0)
(-2.05125 0.0315916 0)
(-2.06725 0.036321 0)
(-2.08308 0.0377642 0)
(-2.09675 0.0364158 0)
(-2.10797 0.0341388 0)
(-2.11782 0.0324616 0)
(-2.12605 0.0314818 0)
(-2.12985 0.0308422 0)
(-0.450621 1.16894 0)
(-0.881074 1.06282 0)
(-1.2365 0.822683 0)
(-1.43602 0.626209 0)
(-1.57054 0.49194 0)
(-1.66706 0.385821 0)
(-1.73742 0.307837 0)
(-1.79327 0.251585 0)
(-1.83869 0.205716 0)
(-1.87523 0.168856 0)
(-1.90776 0.143167 0)
(-1.93989 0.124118 0)
(-1.97018 0.106094 0)
(-1.99641 0.0894688 0)
(-2.01998 0.0771464 0)
(-2.04403 0.0685954 0)
(-2.06876 0.0595193 0)
(-2.0905 0.0470922 0)
(-2.10542 0.0337234 0)
(-2.11384 0.0252925 0)
(-2.1204 0.025472 0)
(-2.13008 0.032261 0)
(-2.14469 0.040592 0)
(-2.16266 0.0460651 0)
(-2.18058 0.0466978 0)
(-2.19546 0.043414 0)
(-2.20667 0.0392221 0)
(-2.21589 0.0367288 0)
(-2.22361 0.0360079 0)
(-2.22722 0.0357781 0)
(-0.670152 2.12526 0)
(-1.20182 1.7087 0)
(-1.57694 1.11371 0)
(-1.70205 0.719794 0)
(-1.77433 0.56961 0)
(-1.83481 0.448248 0)
(-1.87405 0.357646 0)
(-1.91077 0.294979 0)
(-1.94585 0.237722 0)
(-1.97164 0.189162 0)
(-1.99426 0.162534 0)
(-2.02199 0.147573 0)
(-2.05099 0.129292 0)
(-2.07452 0.108633 0)
(-2.09426 0.0934722 0)
(-2.11669 0.0852349 0)
(-2.14316 0.0759168 0)
(-2.16712 0.0597236 0)
(-2.18116 0.0401393 0)
(-2.18509 0.0272656 0)
(-2.18663 0.0278421 0)
(-2.19396 0.0382007 0)
(-2.20947 0.0499763 0)
(-2.23023 0.0569392 0)
(-2.25105 0.0566792 0)
(-2.26738 0.0507763 0)
(-2.27816 0.0439183 0)
(-2.28604 0.040421 0)
(-2.29288 0.040275 0)
(-2.29626 0.0405872 0)
(9.9959 0.138445 0)
(9.98225 0.275237 0)
(9.9581 0.412522 0)
(9.92453 0.552269 0)
(9.88242 0.696155 0)
(9.83216 0.845732 0)
(9.77398 1.00251 0)
(9.70814 1.16795 0)
(9.63491 1.34354 0)
(9.55457 1.53072 0)
(9.46738 1.731 0)
(9.37361 1.94592 0)
(9.27353 2.1771 0)
(9.1674 2.4263 0)
(9.05546 2.69542 0)
(8.93793 2.9866 0)
(8.81501 3.30229 0)
(8.68684 3.64539 0)
(8.55348 4.0194 0)
(8.41494 4.4287 0)
(8.27114 4.87894 0)
(8.12198 5.37757 0)
(7.96741 5.93478 0)
(7.8077 6.56491 0)
(7.64406 7.28904 0)
(7.48151 8.13977 0)
(7.33332 9.17108 0)
(7.28968 10.4766 0)
(7.74901 12.2011 0)
(7.93309 14.9204 0)
(9.99638 0.143405 0)
(9.98434 0.285092 0)
(9.96305 0.427251 0)
(9.93351 0.57188 0)
(9.89656 0.72067 0)
(9.85261 0.875181 0)
(9.80196 1.03692 0)
(9.74491 1.20736 0)
(9.68182 1.38796 0)
(9.61307 1.58018 0)
(9.53904 1.78549 0)
(9.46015 2.00542 0)
(9.37685 2.24159 0)
(9.28959 2.49572 0)
(9.19892 2.7697 0)
(9.10541 3.06564 0)
(9.0097 3.38596 0)
(8.91256 3.73353 0)
(8.81489 4.11177 0)
(8.71788 4.52497 0)
(8.62314 4.97853 0)
(8.53303 5.47948 0)
(8.45128 6.03715 0)
(8.38414 6.66411 0)
(8.34282 7.37759 0)
(8.3494 8.20099 0)
(8.44276 9.16445 0)
(8.67887 10.3012 0)
(9.32661 11.5557 0)
(9.81788 12.643 0)
(9.99688 0.147842 0)
(9.98651 0.293904 0)
(9.96819 0.440402 0)
(9.94282 0.58935 0)
(9.9112 0.742445 0)
(9.87376 0.901236 0)
(9.83084 1.06722 0)
(9.78281 1.24186 0)
(9.73011 1.42658 0)
(9.6732 1.62282 0)
(9.61259 1.832 0)
(9.54884 2.05563 0)
(9.48256 2.29525 0)
(9.41446 2.55252 0)
(9.34534 2.82924 0)
(9.2761 3.12742 0)
(9.20786 3.44931 0)
(9.14194 3.79757 0)
(9.08005 4.17529 0)
(9.02439 4.58626 0)
(8.97799 5.03505 0)
(8.94512 5.52736 0)
(8.93208 6.07015 0)
(8.9484 6.67181 0)
(9.00856 7.34178 0)
(9.13473 8.08868 0)
(9.35791 8.91435 0)
(9.68759 9.8076 0)
(10.2535 10.7169 0)
(10.9413 11.4321 0)
(9.9974 0.151704 0)
(9.98873 0.301566 0)
(9.97346 0.451809 0)
(9.95238 0.604451 0)
(9.92622 0.761177 0)
(9.89543 0.923523 0)
(9.86039 1.09296 0)
(9.82155 1.27092 0)
(9.77939 1.45879 0)
(9.73448 1.65795 0)
(9.68743 1.86977 0)
(9.63893 2.09568 0)
(9.58976 2.33713 0)
(9.54084 2.59566 0)
(9.4932 2.87293 0)
(9.44807 3.17073 0)
(9.40695 3.49106 0)
(9.37167 3.8362 0)
(9.34451 4.20872 0)
(9.32846 4.61158 0)
(9.32744 5.0482 0)
(9.34675 5.52241 0)
(9.39365 6.03832 0)
(9.47804 6.59991 0)
(9.61312 7.20993 0)
(9.81573 7.86802 0)
(10.1086 8.56708 0)
(10.5004 9.2924 0)
(11.058 10.0338 0)
(11.8511 10.6782 0)
(9.99792 0.154944 0)
(9.99101 0.307986 0)
(9.97884 0.461338 0)
(9.96211 0.617003 0)
(9.94149 0.776649 0)
(9.91744 0.94178 0)
(9.89037 1.11383 0)
(9.86078 1.29419 0)
(9.82924 1.48418 0)
(9.79636 1.68513 0)
(9.76286 1.89831 0)
(9.72956 2.12505 0)
(9.69738 2.36667 0)
(9.66738 2.62455 0)
(9.64083 2.90015 0)
(9.61922 3.19498 0)
(9.60431 3.51071 0)
(9.59829 3.84912 0)
(9.60385 4.21212 0)
(9.62438 4.60175 0)
(9.66419 5.02011 0)
(9.72882 5.46922 0)
(9.82534 5.95069 0)
(9.9627 6.4652 0)
(10.152 7.01167 0)
(10.4062 7.58621 0)
(10.7427 8.18068 0)
(11.173 8.78039 0)
(11.7203 9.37375 0)
(12.4732 9.88587 0)
(9.99845 0.157518 0)
(9.9933 0.313077 0)
(9.98427 0.468861 0)
(9.97193 0.626842 0)
(9.95688 0.788656 0)
(9.93959 0.955768 0)
(9.92052 1.12956 0)
(9.90018 1.31136 0)
(9.8792 1.50243 0)
(9.85826 1.704 0)
(9.83818 1.91724 0)
(9.81983 2.14335 0)
(9.80427 2.38349 0)
(9.7927 2.63886 0)
(9.78652 2.91064 0)
(9.78739 3.20007 0)
(9.79728 3.50838 0)
(9.81854 3.83683 0)
(9.85404 4.18663 0)
(9.90729 4.55891 0)
(9.98254 4.95456 0)
(10.085 5.37405 0)
(10.2211 5.81712 0)
(10.3983 6.28231 0)
(10.6254 6.76635 0)
(10.9121 7.26347 0)
(11.2697 7.76443 0)
(11.7061 8.25368 0)
(12.222 8.71451 0)
(12.8976 9.10543 0)
(9.99898 0.159388 0)
(9.9956 0.316764 0)
(9.9897 0.474265 0)
(9.98175 0.63382 0)
(9.97227 0.797019 0)
(9.96171 0.965276 0)
(9.95056 1.13991 0)
(9.93938 1.32218 0)
(9.92881 1.51326 0)
(9.91961 1.71427 0)
(9.91262 1.92628 0)
(9.90882 2.15032 0)
(9.90932 2.38739 0)
(9.9154 2.63845 0)
(9.92856 2.90444 0)
(9.95054 3.18623 0)
(9.98338 3.48466 0)
(10.0295 3.80044 0)
(10.0917 4.13412 0)
(10.1733 4.48601 0)
(10.2783 4.85601 0)
(10.4113 5.24341 0)
(10.5776 5.64663 0)
(10.7832 6.06286 0)
(11.0343 6.48761 0)
(11.3375 6.91419 0)
(11.6989 7.33324 0)
(12.1224 7.73135 0)
(12.6022 8.09395 0)
(13.2074 8.40053 0)
(9.99951 0.16052 0)
(9.99788 0.318979 0)
(9.9951 0.477452 0)
(9.99149 0.637811 0)
(9.98751 0.801587 0)
(9.98359 0.970132 0)
(9.98023 1.1447 0)
(9.97802 1.32645 0)
(9.97762 1.51647 0)
(9.97981 1.71577 0)
(9.98547 1.92527 0)
(9.99562 2.14586 0)
(10.0114 2.37834 0)
(10.0341 2.62345 0)
(10.0653 2.88183 0)
(10.1068 3.15405 0)
(10.1604 3.44052 0)
(10.2286 3.74148 0)
(10.3139 4.0569 0)
(10.4195 4.38641 0)
(10.5487 4.72914 0)
(10.7054 5.08357 0)
(10.8936 5.44732 0)
(11.1177 5.81686 0)
(11.3821 6.18728 0)
(11.6904 6.55203 0)
(12.0455 6.90283 0)
(12.449 7.22936 0)
(12.8931 7.52049 0)
(13.4359 7.76491 0)
(10 0.160885 0)
(10.0001 0.319668 0)
(10.0004 0.478344 0)
(10.0011 0.638714 0)
(10.0025 0.802242 0)
(10.005 0.970207 0)
(10.0093 1.14378 0)
(10.0157 1.32403 0)
(10.0252 1.51195 0)
(10.0383 1.7084 0)
(10.056 1.91419 0)
(10.0794 2.13003 0)
(10.1095 2.35652 0)
(10.1477 2.59418 0)
(10.1954 2.8434 0)
(10.2544 3.10442 0)
(10.3265 3.3773 0)
(10.4139 3.66185 0)
(10.5188 3.95758 0)
(10.644 4.26362 0)
(10.7921 4.57858 0)
(10.9662 4.90043 0)
(11.1694 5.22639 0)
(11.4045 5.55275 0)
(11.6741 5.87475 0)
(11.9802 6.18654 0)
(12.3235 6.48125 0)
(12.7037 6.75107 0)
(13.1133 6.98763 0)
(13.6008 7.18411 0)
(10.0005 0.160463 0)
(10.0023 0.318789 0)
(10.0056 0.47688 0)
(10.0104 0.636455 0)
(10.017 0.798901 0)
(10.0259 0.965416 0)
(10.0374 1.13708 0)
(10.0522 1.31487 0)
(10.071 1.49966 0)
(10.0945 1.69219 0)
(10.1236 1.89313 0)
(10.1592 2.10301 0)
(10.2026 2.32227 0)
(10.2549 2.55119 0)
(10.3176 2.78994 0)
(10.3922 3.03847 0)
(10.4803 3.29653 0)
(10.5839 3.56363 0)
(10.705 3.83891 0)
(10.8456 4.12116 0)
(11.008 4.40868 0)
(11.1943 4.69922 0)
(11.4067 4.9899 0)
(11.6469 5.27713 0)
(11.9162 5.55663 0)
(12.2152 5.82342 0)
(12.5434 6.07196 0)
(12.8996 6.29637 0)
(13.2767 6.49061 0)
(13.7164 6.65052 0)
(10.001 0.159238 0)
(10.0044 0.316312 0)
(10.0106 0.473021 0)
(10.0194 0.630989 0)
(10.0311 0.791518 0)
(10.0459 0.95572 0)
(10.0644 1.12458 0)
(10.0871 1.29898 0)
(10.1147 1.47966 0)
(10.1479 1.66726 0)
(10.1876 1.86229 0)
(10.2346 2.06514 0)
(10.29 2.27607 0)
(10.355 2.49517 0)
(10.4309 2.7224 0)
(10.519 2.95748 0)
(10.6207 3.19992 0)
(10.7377 3.44899 0)
(10.8716 3.70361 0)
(11.0241 3.96235 0)
(11.1966 4.22339 0)
(11.3908 4.48444 0)
(11.6078 4.74272 0)
(11.8487 4.99499 0)
(12.1138 5.23752 0)
(12.4027 5.46622 0)
(12.7145 5.67676 0)
(13.0472 5.8648 0)
(13.3946 6.02608 0)
(13.7932 6.15811 0)
(10.0015 0.157203 0)
(10.0065 0.312224 0)
(10.0154 0.466749 0)
(10.028 0.622298 0)
(10.0444 0.780084 0)
(10.065 0.941128 0)
(10.0901 1.10632 0)
(10.1202 1.27643 0)
(10.156 1.45209 0)
(10.1982 1.63382 0)
(10.2475 1.82201 0)
(10.3048 2.01688 0)
(10.371 2.21856 0)
(10.4472 2.42697 0)
(10.5345 2.64188 0)
(10.6341 2.86285 0)
(10.7471 3.08923 0)
(10.8749 3.32011 0)
(11.0187 3.55428 0)
(11.1796 3.79024 0)
(11.3589 4.02616 0)
(11.5573 4.25984 0)
(11.7756 4.48876 0)
(12.0139 4.71006 0)
(12.2721 4.92062 0)
(12.5494 5.11718 0)
(12.8443 5.29641 0)
(13.1548 5.45516 0)
(13.4756 5.59051 0)
(13.8389 5.70096 0)
(10.0019 0.154356 0)
(10.0084 0.306523 0)
(10.0199 0.458065 0)
(10.0361 0.610396 0)
(10.0571 0.76463 0)
(10.083 0.921695 0)
(10.1142 1.08238 0)
(10.1512 1.24736 0)
(10.1946 1.41716 0)
(10.2449 1.59218 0)
(10.303 1.77268 0)
(10.3694 1.95878 0)
(10.4452 2.15045 0)
(10.5311 2.3475 0)
(10.6281 2.54955 0)
(10.7372 2.75605 0)
(10.8593 2.96622 0)
(10.9954 3.17906 0)
(11.1464 3.39334 0)
(11.3131 3.60756 0)
(11.4962 3.81996 0)
(11.696 4.02853 0)
(11.9129 4.23104 0)
(12.1465 4.42507 0)
(12.3963 4.60809 0)
(12.6611 4.7775 0)
(12.9395 4.93083 0)
(13.2294 5.06582 0)
(13.5263 5.18046 0)
(13.8592 5.27392 0)
(10.0024 0.150703 0)
(10.0102 0.299223 0)
(10.0241 0.446995 0)
(10.0438 0.595321 0)
(10.0689 0.745218 0)
(10.0997 0.897519 0)
(10.1366 1.05292 0)
(10.1799 1.21199 0)
(10.2302 1.37515 0)
(10.2879 1.54271 0)
(10.3537 1.71481 0)
(10.4282 1.89147 0)
(10.5122 2.07256 0)
(10.6063 2.25776 0)
(10.7114 2.44663 0)
(10.8281 2.63851 0)
(10.9573 2.83258 0)
(11.0995 3.02782 0)
(11.2555 3.22299 0)
(11.4256 3.41668 0)
(11.6102 3.60727 0)
(11.8093 3.79298 0)
(12.0228 3.97189 0)
(12.2502 4.142 0)
(12.4906 4.30126 0)
(12.7429 4.4477 0)
(13.0054 4.57947 0)
(13.2764 4.69497 0)
(13.552 4.79287 0)
(13.8586 4.87274 0)
(10.0027 0.146257 0)
(10.0119 0.290349 0)
(10.0281 0.433582 0)
(10.0508 0.577142 0)
(10.0798 0.721947 0)
(10.1152 0.868737 0)
(10.1572 1.01812 0)
(10.2062 1.17056 0)
(10.2626 1.32639 0)
(10.3269 1.48584 0)
(10.3995 1.64894 0)
(10.4809 1.81564 0)
(10.5719 1.9857 0)
(10.6728 2.15876 0)
(10.7844 2.3343 0)
(10.9072 2.51164 0)
(11.0416 2.68992 0)
(11.1881 2.86815 0)
(11.347 3.04516 0)
(11.5186 3.21964 0)
(11.7028 3.39015 0)
(11.8996 3.55516 0)
(12.1083 3.71304 0)
(12.3285 3.86216 0)
(12.5592 4.00093 0)
(12.7991 4.12783 0)
(13.0468 4.24152 0)
(13.3005 4.34088 0)
(13.5572 4.42505 0)
(13.8408 4.49386 0)
(10.0031 0.141037 0)
(10.0134 0.27994 0)
(10.0317 0.417887 0)
(10.0573 0.555947 0)
(10.0898 0.694942 0)
(10.1293 0.835521 0)
(10.1759 0.978199 0)
(10.23 1.12336 0)
(10.2918 1.27127 0)
(10.3618 1.42204 0)
(10.4402 1.57566 0)
(10.5276 1.73199 0)
(10.6243 1.89074 0)
(10.7308 2.05152 0)
(10.8475 2.21375 0)
(10.9747 2.37676 0)
(11.1128 2.53971 0)
(11.2619 2.70166 0)
(11.4223 2.86153 0)
(11.5937 3.01815 0)
(11.7762 3.17027 0)
(11.9693 3.31658 0)
(12.1725 3.45575 0)
(12.385 3.58646 0)
(12.6058 3.70748 0)
(12.8338 3.81768 0)
(13.0676 3.91609 0)
(13.3056 4.00194 0)
(13.5454 4.07469 0)
(13.8089 4.13434 0)
(10.0034 0.135066 0)