/*--------------------------------*- C++ -*----------------------------------*\
  =========                 |
  \\      /  F ield         | OpenFOAM: The Open Source CFD Toolbox
   \\    /   O peration     | Website:  https://openfoam.org
    \\  /    A nd           | Version:  7
     \\/     M anipulation  |
\*---------------------------------------------------------------------------*/
FoamFile
{
    version     2.0;
    format      ascii;
    class       surfaceVectorField;
    location    "4.3";
    object      Uf;
}
// * * * * * * * * * * * * * * * * * * * * * * * * * * * * * * * * * * * * * //

dimensions      [0 1 -1 0 0 0 0];

internalField   nonuniform List<vector> 
5457
(
(9.92088 0.0251095 0)
(9.97125 0.0387457 0)
(9.82402 0.0328267 0)
(9.92859 0.0485849 0)
(9.70961 0.0393118 0)
(9.85548 0.0587678 0)
(9.57544 0.0460113 0)
(9.7568 0.0705929 0)
(9.42138 0.0529485 0)
(9.63754 0.0830128 0)
(9.24755 0.0601657 0)
(9.49862 0.0959357 0)
(9.05363 0.0678103 0)
(9.33931 0.109612 0)
(8.83894 0.0760338 0)
(9.15875 0.124288 0)
(8.60253 0.0849693 0)
(8.95611 0.140166 0)
(8.34328 0.0947438 0)
(8.7304 0.157432 0)
(8.05987 0.105486 0)
(8.48042 0.176268 0)
(7.75083 0.117326 0)
(8.20479 0.196855 0)
(7.41459 0.130394 0)
(7.90198 0.219359 0)
(7.04954 0.144809 0)
(7.57034 0.243921 0)
(6.65408 0.160671 0)
(7.20823 0.27063 0)
(6.22677 0.178043 0)
(6.81404 0.299498 0)
(5.76649 0.196927 0)
(6.38639 0.330412 0)
(5.27264 0.217232 0)
(5.92423 0.363082 0)
(4.74545 0.238734 0)
(5.42718 0.396974 0)
(4.18628 0.261031 0)
(4.89574 0.431235 0)
(3.59806 0.283487 0)
(4.33173 0.464618 0)
(2.98565 0.305202 0)
(3.7387 0.495425 0)
(2.35621 0.32507 0)
(3.12237 0.521514 0)
(1.7192 0.342549 0)
(2.49117 0.540561 0)
(1.08444 0.361882 0)
(1.85595 0.551678 0)
(0.451922 0.348706 0)
(1.24557 0.563024 0)
(-0.145786 0.102497 0)
(0.609017 0.54491 0)
(-0.423602 -0.207096 0)
(0.0946923 0.259403 0)
(-0.402151 -0.361274 0)
(-0.133618 -0.0205142 0)
(-0.119681 -0.393882 0)
(9.99641 0.0516721 0)
(9.99705 0.0405044 0)
(9.95879 0.0708611 0)
(9.97851 0.067454 0)
(9.89824 0.0879861 0)
(9.93377 0.0898692 0)
(9.81659 0.105984 0)
(9.86453 0.113554 0)
(9.71359 0.12492 0)
(9.77438 0.138513 0)
(9.58909 0.144852 0)
(9.66436 0.164644 0)
(9.44275 0.166088 0)
(9.53398 0.19233 0)
(9.27391 0.188965 0)
(9.38251 0.222028 0)
(9.08168 0.21378 0)
(9.2092 0.254146 0)
(8.86491 0.240813 0)
(9.01317 0.28906 0)
(8.62232 0.270334 0)
(8.79333 0.327149 0)
(8.35241 0.302604 0)
(8.54838 0.368782 0)
(8.05359 0.337853 0)
(8.27686 0.414312 0)
(7.72415 0.376258 0)
(7.9772 0.464041 0)
(7.36241 0.417898 0)
(7.64775 0.518183 0)
(6.96677 0.462704 0)
(7.28687 0.576801 0)
(6.53589 0.510382 0)
(6.893 0.63972 0)
(6.06889 0.560329 0)
(6.46487 0.706422 0)
(5.56567 0.611517 0)
(6.00167 0.775904 0)
(5.02718 0.662382 0)
(5.50334 0.846519 0)
(4.45597 0.710707 0)
(4.97097 0.915803 0)
(3.85659 0.753541 0)
(4.40727 0.980306 0)
(3.23629 0.787199 0)
(3.81713 1.03546 0)
(2.60591 0.807507 0)
(3.20855 1.07549 0)
(1.98288 0.810476 0)
(2.59348 1.09316 0)
(1.40536 0.776915 0)
(1.99629 1.0771 0)
(0.929823 0.646429 0)
(1.41957 0.978441 0)
(0.439925 0.38438 0)
(0.937627 0.71683 0)
(0.0592072 -0.118577 0)
(0.443857 0.343569 0)
(0.174933 -0.335892 0)
(9.98903 0.0594304 0)
(9.99481 0.0458771 0)
(9.95434 0.0894757 0)
(9.97368 0.0848535 0)
(9.89729 0.118031 0)
(9.92984 0.119173 0)
(9.82047 0.147897 0)
(9.86357 0.153975 0)
(9.72416 0.17942 0)
(9.77736 0.190406 0)
(9.60822 0.212773 0)
(9.67227 0.228634 0)
(9.47235 0.248389 0)
(9.5481 0.269126 0)
(9.31608 0.286771 0)
(9.40432 0.312493 0)
(9.1387 0.328393 0)
(9.24035 0.359321 0)
(8.93926 0.373716 0)
(9.0555 0.410168 0)
(8.71666 0.4232 0)
(8.84891 0.465591 0)
(8.46962 0.477288 0)
(8.61953 0.526144 0)
(8.1967 0.53639 0)
(8.36618 0.592362 0)
(7.89636 0.600832 0)
(8.08755 0.664726 0)
(7.56696 0.670798 0)
(7.78223 0.743605 0)
(7.20688 0.746244 0)
(7.44877 0.829175 0)
(6.81462 0.826769 0)
(7.08573 0.921303 0)
(6.38894 0.91147 0)
(6.69176 1.01939 0)
(5.92911 0.998746 0)
(6.26578 1.12216 0)
(5.43522 1.08608 0)
(5.80719 1.22741 0)
(4.90864 1.16982 0)
(5.31616 1.33174 0)
(4.35252 1.24489 0)
(4.79407 1.43018 0)
(3.77269 1.30455 0)
(4.24407 1.51588 0)
(3.17882 1.33985 0)
(3.67191 1.57943 0)
(2.58672 1.33814 0)
(3.08642 1.60776 0)
(2.01994 1.273 0)
(2.50301 1.58161 0)
(1.48702 1.09545 0)
(1.92882 1.46429 0)
(0.95835 0.769219 0)
(1.38531 1.21046 0)
(0.479911 0.202516 0)
(0.829585 0.801103 0)
(0.433751 0.134151 0)
(9.98515 0.0716132 0)
(9.99367 0.0531474 0)
(9.95039 0.113629 0)
(9.97087 0.10229 0)
(9.89437 0.154132 0)
(9.92691 0.147952 0)
(9.81882 0.195571 0)
(9.86185 0.193719 0)
(9.72442 0.238808 0)
(9.77746 0.241275 0)
(9.61113 0.284321 0)
(9.67467 0.29116 0)
(9.47875 0.332716 0)
(9.55343 0.343951 0)
(9.32695 0.384669 0)
(9.41336 0.400367 0)
(9.15524 0.44084 0)
(9.25401 0.461133 0)
(8.96292 0.501876 0)
(9.07485 0.526953 0)
(8.74918 0.568419 0)
(8.87521 0.598526 0)
(8.51306 0.641101 0)
(8.65431 0.676551 0)
(8.25349 0.720517 0)
(8.41125 0.761707 0)
(7.96929 0.807175 0)
(8.14502 0.854621 0)
(7.65921 0.901421 0)
(7.85458 0.955801 0)
(7.32197 1.00333 0)
(7.53879 1.06555 0)
(6.95626 1.11255 0)
(7.19651 1.18383 0)
(6.56091 1.22812 0)
(6.82658 1.31006 0)
(6.13496 1.34815 0)
(6.42795 1.44289 0)
(5.67792 1.46958 0)
(5.99974 1.57988 0)
(5.19008 1.58776 0)
(5.54142 1.71706 0)
(4.67296 1.69602 0)
(5.05314 1.84853 0)
(4.1299 1.78515 0)
(4.53606 1.96583 0)
(3.56675 1.84254 0)
(3.99283 2.05731 0)
(2.99214 1.85075 0)
(3.4277 2.10716 0)
(2.41593 1.78252 0)
(2.84773 2.09452 0)
(1.84061 1.60051 0)
(2.25631 1.98879 0)
(1.25944 1.27849 0)
(1.66038 1.75311 0)
(0.6668 0.789613 0)
(1.02401 1.36785 0)
(0.523052 0.787241 0)
(9.98337 0.0844065 0)
(9.99316 0.0612908 0)
(9.94821 0.136836 0)
(9.96958 0.119926 0)
(9.89315 0.18803 0)
(9.92575 0.176238 0)
(9.81906 0.240166 0)
(9.86199 0.232695 0)
(9.72663 0.294463 0)
(9.77964 0.291083 0)
(9.6159 0.351654 0)
(9.6794 0.352269 0)
(9.48672 0.412464 0)
(9.56128 0.416971 0)
(9.33879 0.477669 0)
(9.42497 0.486001 0)
(9.17172 0.548041 0)
(9.2701 0.560195 0)
(8.98494 0.624343 0)
(9.09621 0.640375 0)
(8.7778 0.70733 0)
(8.90276 0.727354 0)
(8.54955 0.797748 0)
(8.68908 0.82194 0)
(8.29937 0.896308 0)
(8.45446 0.924923 0)
(8.02637 1.00363 0)
(8.1981 1.03703 0)
(7.72961 1.12018 0)
(7.91915 1.15889 0)
(7.40809 1.24614 0)
(7.61673 1.2909 0)
(7.06081 1.38125 0)
(7.2899 1.43312 0)
(6.68675 1.52456 0)
(6.93768 1.58507 0)
(6.28492 1.67416 0)
(6.55905 1.74547 0)
(5.85446 1.82677 0)
(6.15294 1.91186 0)
(5.39479 1.97724 0)
(5.7183 2.08014 0)
(4.90584 2.11804 0)
(5.25416 2.24407 0)
(4.38835 2.23861 0)
(4.75983 2.3946 0)
(3.84404 2.32456 0)
(4.23505 2.5192 0)
(3.27553 2.35698 0)
(3.67999 2.60126 0)
(2.68548 2.31064 0)
(3.09582 2.61974 0)
(2.07276 2.15507 0)
(2.48178 2.54738 0)
(1.42943 1.86748 0)
(1.83999 2.3538 0)
(0.74264 1.41967 0)
(1.13141 2.02463 0)
(0.543326 1.51461 0)
(9.98264 0.0974965 0)
(9.99299 0.069792 0)
(9.94744 0.159773 0)
(9.96925 0.137582 0)
(9.89354 0.221345 0)
(9.92597 0.203924 0)
(9.82134 0.284088 0)
(9.86381 0.270685 0)
(9.73134 0.349343 0)
(9.78386 0.339578 0)
(9.62367 0.418013 0)
(9.68665 0.411691 0)
(9.49819 0.49093 0)
(9.57218 0.487895 0)
(9.35466 0.568965 0)
(9.44022 0.569095 0)
(9.1927 0.652993 0)
(9.29043 0.656222 0)
(9.01184 0.743884 0)
(9.12243 0.7502 0)
(8.81152 0.8425 0)
(8.93572 0.851941 0)
(8.5911 0.94969 0)
(8.72974 0.962348 0)
(8.34987 1.06626 0)
(8.50383 1.0823 0)
(8.08709 1.19294 0)
(8.2573 1.21262 0)
(7.80195 1.33028 0)
(7.9894 1.35402 0)
(7.49363 1.47857 0)
(7.69933 1.507 0)
(7.16123 1.63766 0)
(7.38621 1.67173 0)
(6.80378 1.80672 0)
(7.04907 1.84788 0)
(6.42017 1.98394 0)
(6.68681 2.03433 0)
(6.0092 2.16611 0)
(6.29808 2.2288 0)
(5.56949 2.34808 0)
(5.88127 2.42745 0)
(5.09955 2.52219 0)
(5.43443 2.62424 0)
(4.59784 2.67757 0)
(4.95521 2.81028 0)
(4.0628 2.79951 0)
(4.44095 2.97323 0)
(3.4928 2.86914 0)
(3.88863 3.09665 0)
(2.88592 2.86298 0)
(3.29533 3.15995 0)
(2.23809 2.75401 0)
(2.65699 3.13798 0)
(1.5425 2.52114 0)
(1.97492 3.0033 0)
(0.793678 2.13146 0)
(1.20729 2.74073 0)
(0.556759 2.29197 0)
(9.9825 0.110625 0)
(9.99302 0.0783605 0)
(9.94771 0.182322 0)
(9.96954 0.155035 0)
(9.89523 0.253814 0)
(9.92722 0.230883 0)
(9.82524 0.326762 0)
(9.86697 0.307505 0)
(9.73813 0.402549 0)
(9.78978 0.386517 0)
(9.63404 0.482226 0)
(9.69606 0.469141 0)
(9.51286 0.566748 0)
(9.58579 0.556389 0)
(9.37438 0.657081 0)
(9.4588 0.64926 0)
(9.21829 0.754199 0)
(9.31481 0.748774 0)
(9.04415 0.859068 0)
(9.15347 0.855947 0)
(8.85146 0.972644 0)
(8.97435 0.971782 0)
(8.63964 1.09586 0)
(8.77692 1.09727 0)
(8.40804 1.22962 0)
(8.5606 1.23339 0)
(8.15597 1.37472 0)
(8.32471 1.38105 0)
(7.88267 1.53183 0)
(8.06855 1.54105 0)
(7.58731 1.70135 0)
(7.79128 1.71402 0)
(7.26894 1.88326 0)
(7.492 1.90027 0)
(6.92648 2.07694 0)
(7.16959 2.09967 0)
(6.55857 2.28082 0)
(6.82272 2.31135 0)
(6.16354 2.49202 0)
(6.44966 2.53346 0)
(5.73921 2.70581 0)
(6.04818 2.76262 0)
(5.28283 2.91497 0)
(5.61534 2.99344 0)
(4.79094 3.10916 0)
(5.14735 3.21783 0)
(4.25941 3.27422 0)
(4.6395 3.42428 0)
(3.6835 3.3919 0)
(4.08618 3.59717 0)
(3.05815 3.43975 0)
(3.48144 3.71659 0)
(2.37783 3.39189 0)
(2.81848 3.75821 0)
(1.63798 3.2263 0)
(2.09925 3.69411 0)
(0.839167 2.901 0)
(1.27898 3.50463 0)
(0.573388 3.11388 0)
(9.98273 0.12358 0)
(9.99316 0.0868164 0)
(9.94873 0.204307 0)
(9.97027 0.172091 0)
(9.89794 0.285248 0)
(9.92927 0.256972 0)
(9.83051 0.36796 0)
(9.87124 0.342983 0)
(9.74671 0.453845 0)
(9.79715 0.431672 0)
(9.64668 0.544069 0)
(9.70735 0.524343 0)
(9.53038 0.639697 0)
(9.60181 0.622125 0)
(9.39763 0.741787 0)
(9.48039 0.726114 0)
(9.24813 0.851399 0)
(9.34286 0.83741 0)
(9.08154 0.969589 0)
(9.18895 0.957115 0)
(8.89737 1.0974 0)
(9.01825 1.08632 0)
(8.69511 1.23586 0)
(8.8303 1.22611 0)
(8.47415 1.38595 0)
(8.62456 1.37755 0)
(8.23379 1.5486 0)
(8.40038 1.54165 0)
(7.97325 1.72457 0)
(8.15704 1.71934 0)
(7.69165 1.91441 0)
(7.89367 1.91139 0)
(7.3879 2.11831 0)
(7.60924 2.11832 0)
(7.06067 2.33592 0)
(7.30247 2.34024 0)
(6.70827 2.56608 0)
(6.97171 2.57671 0)
(6.32844 2.80644 0)
(6.61479 2.82638 0)
(5.91819 3.05301 0)
(6.2288 3.08666 0)
(5.47356 3.29951 0)
(5.80985 3.35314 0)
(4.98943 3.53665 0)
(5.35278 3.61896 0)
(4.45947 3.75143 0)
(4.85101 3.87399 0)
(3.87635 3.92651 0)
(4.29657 4.10396 0)
(3.23246 4.03993 0)
(3.6807 4.28975 0)
(2.52095 4.0651 0)
(2.99365 4.40688 0)
(1.73846 3.97629 0)
(2.2375 4.42473 0)
(0.889519 3.71894 0)
(1.36344 4.31648 0)
(0.598789 3.98511 0)
(9.98321 0.136202 0)
(9.99339 0.0950393 0)
(9.95032 0.225569 0)
(9.97131 0.188587 0)
(9.90151 0.315492 0)
(9.93193 0.282045 0)
(9.83694 0.407497 0)
(9.87643 0.376955 0)
(9.75684 0.503005 0)
(9.80579 0.474834 0)
(9.66135 0.603267 0)
(9.7203 0.577041 0)
(9.55046 0.709447 0)
(9.61996 0.684804 0)
(9.42404 0.822687 0)
(9.50465 0.799303 0)
(9.28184 0.944128 0)
(9.37423 0.921718 0)
(9.12357 1.07491 0)
(9.22844 1.05323 0)
(8.9488 1.21617 0)
(9.06696 1.19501 0)
(8.75706 1.36902 0)
(8.88939 1.34825 0)
(8.54778 1.53455 0)
(8.69521 1.51409 0)
(8.32027 1.7138 0)
(8.48384 1.69367 0)
(8.07373 1.9077 0)
(8.25453 1.88806 0)
(7.80717 2.11698 0)
(8.00639 2.09822 0)
(7.51937 2.34211 0)
(7.73829 2.32491 0)
(7.20874 2.5831 0)
(7.44878 2.56863 0)
(6.87318 2.83933 0)
(7.13591 2.82939 0)
(6.50986 3.10922 0)
(6.79709 3.10658 0)
(6.11499 3.38976 0)
(6.42878 3.39856 0)
(5.68344 3.67599 0)
(6.02616 3.70225 0)
(5.20852 3.96019 0)
(5.58283 4.01245 0)
(4.68181 4.231 0)
(5.09038 4.32095 0)
(4.09335 4.47235 0)
(4.53834 4.6154 0)
(3.43257 4.66262 0)
(3.91477 4.87792 0)
(2.69019 4.77328 0)
(3.20576 5.08369 0)
(1.86189 4.77257 0)
(2.41134 5.19812 0)
(0.954206 4.58992 0)
(1.47632 5.18451 0)
(0.639213 4.9197 0)
(9.98386 0.148367 0)
(9.99368 0.102943 0)
(9.95235 0.245968 0)
(9.9726 0.204392 0)
(9.90578 0.344395 0)
(9.9351 0.305966 0)
(9.84437 0.445192 0)
(9.88241 0.409265 0)
(9.76833 0.549804 0)
(9.81552 0.51581 0)
(9.6778 0.659549 0)
(9.73471 0.627002 0)
(9.57281 0.775675 0)
(9.63999 0.744147 0)
(9.45328 0.899403 0)
(9.5313 0.868502 0)
(9.31902 1.03195 0)
(9.40853 1.00132 0)
(9.16979 1.17453 0)
(9.27152 1.14385 0)
(9.00523 1.32837 0)
(9.12 1.29736 0)
(8.82493 1.49468 0)
(8.95362 1.4631 0)
(8.62836 1.67467 0)
(8.77195 1.64233 0)
(8.41486 1.8695 0)
(8.57444 1.83632 0)
(8.18363 2.08028 0)
(8.36039 2.0463 0)
(7.93364 2.308 0)
(8.12892 2.27344 0)
(7.66352 2.55344 0)
(7.87884 2.51882 0)
(7.37149 2.81711 0)
(7.60859 2.78333 0)
(7.05512 3.09905 0)
(7.31604 3.06761 0)
(6.7111 3.39858 0)
(6.99827 3.37189 0)
(6.3349 3.71401 0)
(6.65127 3.6957 0)
(5.92037 4.04204 0)
(6.26951 4.03759 0)
(5.4593 4.37703 0)
(5.84543 4.39446 0)
(4.9411 4.70988 0)
(5.36893 4.76069 0)
(4.35276 5.02656 0)
(4.82684 5.12674 0)
(3.67962 5.30625 0)
(4.20323 5.4771 0)
(2.90754 5.5183 0)
(3.47795 5.78757 0)
(2.02769 5.62318 0)
(2.64508 6.01966 0)
(1.04512 5.52967 0)
(1.63775 6.12414 0)
(0.704486 5.94332 0)
(9.98465 0.15998 0)
(9.99402 0.110461 0)
(9.95473 0.265379 0)
(9.97409 0.219398 0)
(9.91065 0.371817 0)
(9.93868 0.328609 0)
(9.85267 0.480878 0)
(9.88905 0.439772 0)
(9.781 0.594038 0)
(9.82618 0.554427 0)
(9.69581 0.712672 0)
(9.75038 0.674017 0)
(9.59716 0.838096 0)
(9.66167 0.799906 0)
(9.48502 0.971601 0)
(9.56003 0.933422 0)
(9.35927 1.11447 0)
(9.44543 1.07588 0)
(9.21973 1.268 0)
(9.31776 1.22859 0)
(9.06613 1.43349 0)
(9.17684 1.39289 0)
(8.89811 1.61225 0)
(9.02241 1.57012 0)
(8.71522 1.80559 0)
(8.8541 1.76165 0)
(8.51687 2.01484 0)
(8.67146 1.96886 0)
(8.30228 2.24131 0)
(8.47386 2.19315 0)
(8.07042 2.48624 0)
(8.26046 2.43595 0)
(7.81992 2.75083 0)
(8.03014 2.69864 0)
(7.54888 3.03611 0)
(7.78134 2.9826 0)
(7.2547 3.3429 0)
(7.51188 3.28913 0)
(6.93376 3.67162 0)
(7.21875 3.6194 0)
(6.58104 4.0221 0)
(6.89772 3.97431 0)
(6.18959 4.39308 0)
(6.54284 4.35426 0)
(5.74992 4.78158 0)
(6.14585 4.75875 0)
(5.24928 5.18173 0)
(5.69523 5.18553 0)
(4.67111 5.58285 0)
(5.17525 5.62924 0)
(3.99506 5.96665 0)
(4.56527 6.07887 0)
(3.19855 6.30187 0)
(3.83649 6.51372 0)
(2.26187 6.54089 0)
(2.97096 6.89426 0)
(1.18066 6.56536 0)
(1.87922 7.15811 0)
(0.812842 7.09971 0)
(9.98553 0.170962 0)
(9.9944 0.117545 0)
(9.95738 0.283696 0)
(9.97572 0.233517 0)
(9.916 0.397631 0)
(9.94258 0.349866 0)
(9.86169 0.514406 0)
(9.89623 0.468347 0)
(9.79469 0.635527 0)
(9.83765 0.590534 0)
(9.71517 0.762419 0)
(9.76713 0.717901 0)
(9.62325 0.896455 0)
(9.68475 0.851864 0)
(9.51894 1.03899 0)
(9.59055 0.993804 0)
(9.40221 1.19136 0)
(9.48456 1.14509 0)
(9.27294 1.35492 0)
(9.36673 1.30709 0)
(9.13094 1.53106 0)
(9.23699 1.4812 0)
(8.97596 1.72116 0)
(9.09514 1.66884 0)
(8.80764 1.92666 0)
(8.94096 1.87146 0)
(8.62547 2.14903 0)
(8.77408 2.09058 0)
(8.42878 2.38978 0)
(8.59401 2.32776 0)
(8.21663 2.65045 0)
(8.40003 2.58464 0)
(7.98772 2.93263 0)
(8.19116 2.86296 0)
(7.74022 3.23796 0)
(7.96597 3.16457 0)
(7.47154 3.56807 0)
(7.72248 3.49144 0)
(7.17807 3.92459 0)
(7.45781 3.84573 0)
(6.85466 4.30904 0)
(7.16792 4.22976 0)
(6.49403 4.72255 0)
(6.84699 4.646 0)
(6.08593 5.16545 0)
(6.48667 5.09688 0)
(5.61589 5.63626 0)
(6.07493 5.58439 0)
(5.06385 6.12982 0)
(5.59429 6.10903 0)
(4.40248 6.63384 0)
(5.01989 6.66758 0)
(3.59637 7.12135 0)
(4.31285 7.24862 0)
(2.6045 7.54085 0)
(3.43593 7.82038 0)
(1.3944 7.74075 0)
(2.25664 8.31534 0)
(1.0027 8.46543 0)
(9.9865 0.181251 0)
(9.9948 0.124155 0)
(9.96026 0.300829 0)
(9.97747 0.246678 0)
(9.92176 0.421729 0)
(9.94676 0.369643 0)
(9.87133 0.545644 0)
(9.90387 0.49488 0)
(9.80923 0.674115 0)
(9.84977 0.623997 0)
(9.73567 0.808603 0)
(9.78478 0.758497 0)
(9.65081 0.95053 0)
(9.70902 0.899835 0)
(9.55471 1.10129 0)
(9.62258 1.04943 0)
(9.44742 1.26229 0)
(9.52555 1.2087 0)
(9.32891 1.43493 0)
(9.41798 1.37906 0)
(9.19908 1.62064 0)
(9.29988 1.56195 0)
(9.05779 1.8209 0)
(9.17118 1.75884 0)
(8.9048 2.03725 0)
(9.03176 1.97127 0)
(8.73975 2.27129 0)
(8.88141 2.20086 0)
(8.56211 2.52472 0)
(8.7198 2.44932 0)
(8.37112 2.79937 0)
(8.54642 2.71851 0)
(8.16567 3.09721 0)
(8.36051 3.01044 0)
(7.94418 3.42044 0)
(8.16096 3.32741 0)
(7.70436 3.77152 0)
(7.94613 3.67202 0)
(7.44293 4.15328 0)
(7.71366 4.04735 0)
(7.15513 4.56898 0)
(7.4601 4.45708 0)
(6.8341 5.02235 0)
(7.18044 4.9057 0)
(6.46978 5.51753 0)
(6.86728 5.39874 0)
(6.04729 6.05863 0)
(6.50957 5.94291 0)
(5.54438 6.64871 0)
(6.09036 6.5461 0)
(4.92743 7.28704 0)
(5.5835 7.21675 0)
(4.14536 7.96157 0)
(4.94292 7.96161 0)
(3.12207 8.63384 0)
(4.10972 8.77585 0)
(1.75644 9.12825 0)
(2.87878 9.6213 0)
(1.36491 10.1858 0)
(9.98754 0.190797 0)
(9.99523 0.130259 0)
(9.96332 0.316704 0)
(9.97932 0.258822 0)
(9.92785 0.444018 0)
(9.95115 0.387864 0)
(9.88148 0.574483 0)
(9.91187 0.51928 0)
(9.82448 0.709671 0)
(9.86243 0.654707 0)
(9.75712 0.851075 0)
(9.80317 0.795675 0)
(9.67958 1.00015 0)
(9.73425 0.943664 0)
(9.592 1.15833 0)
(9.65582 1.10013 0)
(9.49451 1.32705 0)
(9.56805 1.26651 0)
(9.38715 1.50776 0)
(9.47107 1.44426 0)
(9.26995 1.70193 0)
(9.36498 1.63484 0)
(9.14289 1.9111 0)
(9.24985 1.83978 0)
(9.00587 2.1369 0)
(9.1257 2.06066 0)
(8.8587 2.38103 0)
(8.99249 2.2992 0)
(8.70107 2.64536 0)
(8.8501 2.55719 0)
(8.53248 2.93194 0)
(8.69827 2.83667 0)
(8.35213 3.24309 0)
(8.53657 3.1399 0)
(8.15887 3.58149 0)
(8.36432 3.4695 0)
(7.95096 3.95033 0)
(8.18046 3.82858 0)
(7.72585 4.35349 0)
(7.98339 4.22096 0)
(7.47979 4.79584 0)
(7.77075 4.65143 0)
(7.20723 5.28355 0)
(7.53906 5.1262 0)
(6.89978 5.82463 0)
(7.28309 5.65348 0)
(6.54448 6.42942 0)
(6.99483 6.24441 0)
(6.12059 7.11136 0)
(6.66159 6.91451 0)
(5.59336 7.88759 0)
(6.26279 7.68606 0)
(4.90129 8.77799 0)
(5.75799 8.59256 0)
(3.92731 9.80183 0)
(5.08787 9.68527 0)
(2.43357 10.8573 0)
(3.9801 11.0498 0)
(2.14665 12.5693 0)
(9.98862 0.199561 0)
(9.99567 0.135834 0)
(9.96652 0.331259 0)
(9.98124 0.269904 0)
(9.9342 0.464415 0)
(9.9557 0.404469 0)
(9.89202 0.600816 0)
(9.92016 0.541471 0)
(9.8403 0.742059 0)
(9.87552 0.682577 0)
(9.77932 0.88966 0)
(9.82216 0.82933 0)
(9.70931 1.0451 0)
(9.76027 0.983233 0)
(9.6305 1.20983 0)
(9.69009 1.14576 0)
(9.54306 1.38532 0)
(9.61184 1.31835 0)
(9.44716 1.57303 0)
(9.52576 1.50249 0)
(9.34294 1.77448 0)
(9.43204 1.69966 0)
(9.2305 1.99123 0)
(9.3309 1.9114 0)
(9.10993 2.22497 0)
(9.22251 2.13933 0)
(8.98123 2.47748 0)
(9.10701 2.38519 0)
(8.84435 2.75073 0)
(8.98453 2.65086 0)
(8.69911 3.04696 0)
(8.85513 2.93847 0)
(8.54515 3.3687 0)
(8.71876 3.25042 0)
(8.38186 3.71901 0)
(8.57527 3.58955 0)
(8.20829 4.10157 0)
(8.42433 3.95927 0)
(8.023 4.52107 0)
(8.26536 4.36386 0)
(7.82379 4.98353 0)
(8.09745 4.80878 0)
(7.60737 5.49702 0)
(7.91925 5.30128 0)
(7.36873 6.07257 0)
(7.72878 5.8512 0)
(7.09994 6.72585 0)
(7.52317 6.4725 0)
(6.78786 7.48007 0)
(7.2982 7.18575 0)
(6.40893 8.37197 0)
(7.0484 8.02335 0)
(5.91614 9.46604 0)
(6.7636 9.04181 0)
(5.19688 10.9087 0)
(6.46286 10.3569 0)
(3.88533 13.1799 0)
(6.19129 12.304 0)
(5.2613 16.3747 0)
(0.194202 -0.118915 0)
(0.112466 -0.190209 0)
(0.380265 -0.102021 0)
(0.274163 -0.177933 0)
(0.535789 -0.0799336 0)
(0.437142 -0.145216 0)
(0.660978 -0.0606759 0)
(0.576926 -0.114131 0)
(0.760858 -0.0453942 0)
(0.689723 -0.0889069 0)
(0.840579 -0.0336251 0)
(0.78035 -0.0692857 0)
(0.904542 -0.0247087 0)
(0.854311 -0.0542782 0)
(0.956414 -0.0180655 0)
(0.915835 -0.0429784 0)
(0.999201 -0.0132074 0)
(0.968014 -0.0346138 0)
(1.03532 -0.009725 0)
(1.01322 -0.0285289 0)
(1.06667 -0.00727671 0)
(1.05335 -0.0241791 0)
(1.0947 -0.00557143 0)
(1.08986 -0.0211059 0)
(1.12042 -0.00435256 0)
(1.12385 -0.0189069 0)
(1.1444 -0.00339076 0)
(1.15603 -0.0172172 0)
(1.16682 -0.00248976 0)
(1.18681 -0.0157108 0)
(1.18745 -0.00150424 0)
(1.21623 -0.0141233 0)
(1.20585 -0.000361641 0)
(1.24407 -0.0122886 0)
(1.22144 0.000932712 0)
(1.26991 -0.0101708 0)
(1.23376 0.00232831 0)
(1.29335 -0.00785228 0)
(1.24253 0.00378929 0)
(1.31407 -0.00545392 0)
(1.24753 0.00529824 0)
(1.33197 -0.00303672 0)
(1.24865 0.00674963 0)
(1.34694 -0.000663118 0)
(1.24536 0.00805293 0)
(1.35866 0.00190744 0)
(1.23758 0.00913235 0)
(1.36661 0.0043931 0)
(1.22583 0.00974147 0)
(1.37054 0.00648685 0)
(1.2116 0.00961522 0)
(1.37086 0.00766996 0)
(1.19703 0.00864227 0)
(1.36911 0.00766397 0)
(1.18445 0.00689952 0)
(1.36752 0.00646141 0)
(1.17572 0.00427547 0)
(1.36764 0.00437834 0)
(1.3717 0.00141772 0)
(0.175042 -0.276341 0)
(0.0908305 -0.361652 0)
(0.345209 -0.244448 0)
(0.237316 -0.340665 0)
(0.490144 -0.197618 0)
(0.376229 -0.280544 0)
(0.610025 -0.156061 0)
(0.496227 -0.223422 0)
(0.7095 -0.123005 0)
(0.594409 -0.177454 0)
(0.79304 -0.0975383 0)
(0.675419 -0.141891 0)
(0.864268 -0.078213 0)
(0.743697 -0.114721 0)
(0.92607 -0.063751 0)
(0.802456 -0.0941838 0)
(0.980737 -0.0530855 0)
(0.854009 -0.0788384 0)
(1.03008 -0.0453339 0)
(0.900126 -0.0675067 0)
(1.07553 -0.0397672 0)
(0.942204 -0.0592298 0)
(1.11818 -0.0357705 0)
(0.981339 -0.053215 0)
(1.15881 -0.0328049 0)
(1.01836 -0.0487809 0)
(1.19796 -0.0303904 0)
(1.05387 -0.0453213 0)
(1.23589 -0.0281127 0)
(1.08822 -0.0422965 0)
(1.27262 -0.0256583 0)
(1.12159 -0.0392579 0)
(1.30796 -0.0228625 0)
(1.15391 -0.0359027 0)
(1.34163 -0.0197338 0)
(1.18497 -0.032139 0)
(1.37341 -0.0164039 0)
(1.21447 -0.028096 0)
(1.40325 -0.0129969 0)
(1.24224 -0.0240109 0)
(1.43118 -0.00952655 0)
(1.26829 -0.0200002 0)
(1.45686 -0.00594567 0)
(1.29287 -0.0158865 0)
(1.47976 -0.00227983 0)
(1.31591 -0.0113499 0)
(1.49925 0.00120044 0)
(1.33708 -0.00661998 0)
(1.51512 0.00395774 0)
(1.35576 -0.00227221 0)
(1.52793 0.00547074 0)
(1.37156 0.000763121 0)
(1.53914 0.00551046 0)
(1.38455 0.00176668 0)
(1.55041 0.00425083 0)
(1.39544 0.000676078 0)
(1.56256 0.00214747 0)
(1.40518 -0.00171888 0)
(1.41685 -0.00363092 0)
(0.143836 -0.433158 0)
(0.0684455 -0.50253 0)
(0.278882 -0.384362 0)
(0.186826 -0.46981 0)
(0.391591 -0.313424 0)
(0.287522 -0.385782 0)
(0.483977 -0.250829 0)
(0.374428 -0.307648 0)
(0.5606 -0.201217 0)
(0.443837 -0.245658 0)
(0.625226 -0.162958 0)
(0.501042 -0.198058 0)
(0.680685 -0.133767 0)
(0.549281 -0.161783 0)
(0.729105 -0.111698 0)
(0.590691 -0.134301 0)
(0.772134 -0.0951781 0)
(0.626811 -0.113648 0)
(0.811083 -0.0829326 0)
(0.658852 -0.0982713 0)
(0.846993 -0.0739188 0)
(0.687778 -0.0869244 0)
(0.88068 -0.0672619 0)
(0.714358 -0.0785805 0)
(0.912753 -0.0622015 0)
(0.739191 -0.0723617 0)
(0.94364 -0.0580629 0)
(0.762733 -0.0674934 0)
(0.973587 -0.0542593 0)
(0.785312 -0.0632861 0)
(1.00265 -0.0503322 0)
(0.807139 -0.05915 0)
(1.03072 -0.0460227 0)
(0.828275 -0.0546586 0)
(1.05756 -0.0413303 0)
(0.848607 -0.0496466 0)
(1.08295 -0.0364752 0)
(0.867831 -0.0442706 0)
(1.10691 -0.0316943 0)
(0.885617 -0.0389111 0)
(1.1297 -0.026948 0)
(0.901892 -0.0338418 0)
(1.15167 -0.021845 0)
(0.917184 -0.0289118 0)
(1.17294 -0.0161446 0)
(0.932246 -0.023661 0)
(1.19308 -0.010339 0)
(0.947204 -0.0180019 0)
(1.21155 -0.00556157 0)
(0.961074 -0.0124677 0)
(1.22754 -0.00294766 0)
(0.972673 -0.00785319 0)
(1.24017 -0.00303277 0)
(0.98061 -0.00487945 0)
(1.24978 -0.005417 0)
(0.983763 -0.00426044 0)
(1.25784 -0.00808815 0)
(0.983124 -0.0057612 0)
(0.978798 -0.00677539 0)
(0.109971 -0.54963 0)
(0.0463275 -0.610241 0)
(0.204013 -0.482086 0)
(0.130426 -0.559742 0)
(0.278024 -0.390771 0)
(0.186629 -0.454888 0)
(0.336848 -0.31235 0)
(0.23649 -0.361276 0)
(0.384706 -0.251138 0)
(0.272173 -0.288258 0)
(0.42458 -0.204262 0)
(0.300753 -0.232714 0)
(0.45834 -0.168543 0)
(0.323786 -0.190431 0)
(0.487276 -0.141464 0)
(0.342442 -0.158275 0)
(0.512385 -0.121087 0)
(0.357564 -0.13396 0)
(0.534478 -0.105882 0)
(0.369882 -0.115722 0)
(0.554217 -0.0946038 0)
(0.379981 -0.102147 0)
(0.572133 -0.0862108 0)
(0.388326 -0.0920714 0)
(0.588651 -0.079804 0)
(0.395306 -0.0845061 0)
(0.604111 -0.0745907 0)
(0.401266 -0.078591 0)
(0.618774 -0.0698744 0)
(0.406521 -0.0735635 0)
(0.632803 -0.0650854 0)
(0.411369 -0.0687504 0)
(0.646208 -0.0598607 0)
(0.416024 -0.0636158 0)
(0.658798 -0.0541439 0)
(0.420573 -0.0578603 0)
(0.670236 -0.0482121 0)
(0.424669 -0.0515565 0)
(0.680306 -0.0425145 0)
(0.427764 -0.0451742 0)
(0.689251 -0.0373571 0)
(0.428927 -0.0392735 0)
(0.697717 -0.0325938 0)
(0.428443 -0.0339318 0)
(0.706164 -0.0277344 0)
(0.426372 -0.0285511 0)
(0.714371 -0.0224332 0)
(0.423882 -0.0226402 0)
(0.72127 -0.01674 0)
(0.420992 -0.0162753 0)
(0.724994 -0.0111368 0)
(0.417402 -0.00986017 0)
(0.723349 -0.00648021 0)
(0.413823 -0.00401374 0)
(0.716017 -0.00396393 0)
(0.40856 -0.000493912 0)
(0.703704 -0.00362487 0)
(0.402218 0.000414638 0)
(0.387643 -0.00341868 0)
(0.0710993 -0.628385 0)
(0.0231329 -0.679878 0)
(0.119986 -0.540824 0)
(0.0675312 -0.606493 0)
(0.151972 -0.433279 0)
(0.0753719 -0.484753 0)
(0.173801 -0.344203 0)
(0.085858 -0.381177 0)
(0.189039 -0.275794 0)
(0.0845806 -0.301822 0)
(0.19986 -0.223755 0)
(0.0810394 -0.242118 0)
(0.207213 -0.184054 0)
(0.0746695 -0.196671 0)
(0.211722 -0.153816 0)
(0.0663003 -0.162012 0)
(0.213932 -0.130926 0)
(0.0563622 -0.135748 0)
(0.21429 -0.113731 0)
(0.0453137 -0.116005 0)
(0.213161 -0.100893 0)
(0.0334924 -0.101276 0)
(0.210852 -0.0913008 0)
(0.0211496 -0.0903331 0)
(0.207636 -0.0839979 0)
(0.00851948 -0.0821419 0)
(0.203765 -0.0781413 0)
(-0.00417037 -0.075812 0)
(0.199501 -0.0729788 0)
(-0.0166933 -0.0705751 0)
(0.195132 -0.0678568 0)
(-0.0287747 -0.0657603 0)
(0.190886 -0.0622796 0)
(-0.0401138 -0.0607786 0)
(0.186768 -0.0560173 0)
(-0.0504145 -0.0551739 0)
(0.182336 -0.0491848 0)
(-0.0597277 -0.0487333 0)
(0.176564 -0.0421339 0)
(-0.0683766 -0.0415841 0)
(0.16823 -0.0351443 0)
(-0.0773639 -0.034213 0)
(0.156793 -0.0281633 0)
(-0.0869983 -0.0271507 0)
(0.143072 -0.0210302 0)
(-0.0980997 -0.0206078 0)
(0.128811 -0.01395 0)
(-0.109924 -0.0145794 0)
(0.115844 -0.00751162 0)
(-0.121913 -0.00911877 0)
(0.105758 -0.00218202 0)
(-0.133138 -0.00442559 0)
(0.0981746 0.00169958 0)
(-0.141279 -2.36427e-05 0)
(0.0924119 0.00356201 0)
(-0.147101 0.00246632 0)
(0.0868711 0.000324676 0)
(-0.151672 0.00319373 0)
(-0.160989 -0.00116295 0)
(0.0265439 -0.664211 0)
(-0.00262563 -0.705876 0)
(0.027297 -0.556054 0)
(-0.00293301 -0.607213 0)
(0.0145317 -0.436271 0)
(-0.043979 -0.472834 0)
(-0.00199459 -0.340549 0)
(-0.0753298 -0.366111 0)
(-0.0219727 -0.268166 0)
(-0.114497 -0.284039 0)
(-0.0437452 -0.214068 0)
(-0.152512 -0.223196 0)
(-0.0666214 -0.173034 0)
(-0.190084 -0.177258 0)
(-0.0899626 -0.142001 0)
(-0.226302 -0.142673 0)
(-0.113371 -0.118688 0)
(-0.260836 -0.116811 0)
(-0.136577 -0.101311 0)
(-0.293419 -0.0976758 0)
(-0.159397 -0.0884539 0)
(-0.323959 -0.0836771 0)
(-0.181687 -0.0789544 0)
(-0.352507 -0.0735485 0)
(-0.203332 -0.0718173 0)
(-0.379159 -0.0662279 0)
(-0.224235 -0.0661876 0)
(-0.404027 -0.0608074 0)
(-0.244265 -0.0613531 0)
(-0.427207 -0.0565361 0)
(-0.263189 -0.0567266 0)
(-0.448699 -0.0528097 0)
(-0.280661 -0.0518276 0)
(-0.468345 -0.0491043 0)
(-0.296325 -0.0463237 0)
(-0.485891 -0.0449545 0)
(-0.310006 -0.0401294 0)
(-0.501174 -0.0400191 0)
(-0.321864 -0.0334739 0)
(-0.514294 -0.0342087 0)
(-0.332486 -0.0267999 0)
(-0.52569 -0.027763 0)
(-0.342607 -0.0205419 0)
(-0.535993 -0.0211497 0)
(-0.352652 -0.0148951 0)
(-0.545911 -0.0147928 0)
(-0.362591 -0.00986728 0)
(-0.555888 -0.00896158 0)
(-0.372027 -0.00549163 0)
(-0.566065 -0.00391136 0)
(-0.380518 -0.00174035 0)
(-0.575467 0.000149781 0)
(-0.38741 0.00139921 0)
(-0.583093 0.00360268 0)
(-0.393315 0.00320448 0)
(-0.589398 0.00549987 0)
(-0.396947 0.00222071 0)
(-0.595699 0.00501512 0)
(-0.601492 0.00138274 0)
(-0.0235311 -0.65066 0)
(-0.0332731 -0.682829 0)
(-0.0719982 -0.523653 0)
(-0.0813604 -0.560864 0)
(-0.12796 -0.398771 0)
(-0.169536 -0.420582 0)
(-0.185982 -0.303439 0)
(-0.243357 -0.313214 0)
(-0.24304 -0.232339 0)
(-0.318968 -0.23325 0)
(-0.298079 -0.17981 0)
(-0.389583 -0.17536 0)
(-0.349791 -0.140863 0)
(-0.454472 -0.133377 0)
(-0.397699 -0.112133 0)
(-0.513014 -0.102978 0)
(-0.441591 -0.0912113 0)
(-0.565335 -0.081303 0)
(-0.481477 -0.0762192 0)
(-0.6119 -0.0661715 0)
(-0.517568 -0.0656521 0)
(-0.65327 -0.055843 0)
(-0.550205 -0.0583022 0)
(-0.690101 -0.0489733 0)
(-0.579771 -0.0531704 0)
(-0.723027 -0.0444909 0)
(-0.606627 -0.0494295 0)
(-0.752617 -0.0415286 0)
(-0.631067 -0.0464332 0)
(-0.779355 -0.0394065 0)
(-0.653207 -0.0436776 0)
(-0.80356 -0.0376582 0)
(-0.672986 -0.0407113 0)
(-0.825299 -0.0358887 0)
(-0.690291 -0.0371177 0)
(-0.84448 -0.0336649 0)
(-0.705152 -0.0325994 0)
(-0.861069 -0.0305526 0)
(-0.717897 -0.0271056 0)
(-0.875292 -0.0262819 0)
(-0.729172 -0.0208957 0)
(-0.887685 -0.0209162 0)
(-0.73974 -0.0144513 0)
(-0.898946 -0.0148837 0)
(-0.750091 -0.00829688 0)
(-0.909724 -0.00880034 0)
(-0.76037 -0.00288366 0)
(-0.920448 -0.00315183 0)
(-0.770029 0.0015126 0)
(-0.930618 0.00141915 0)
(-0.778595 0.00476848 0)
(-0.939831 0.00476567 0)
(-0.785802 0.00661415 0)
(-0.94796 0.00739441 0)
(-0.792178 0.00639234 0)
(-0.955633 0.00877551 0)
(-0.797663 0.00387129 0)
(-0.962865 0.00776581 0)
(-0.967632 0.00464999 0)
(-0.0773238 -0.587313 0)
(-0.0705494 -0.607095 0)
(-0.176522 -0.449297 0)
(-0.168571 -0.466 0)
(-0.276396 -0.325405 0)
(-0.304638 -0.327327 0)
(-0.373282 -0.233654 0)
(-0.418389 -0.224886 0)
(-0.463458 -0.168088 0)
(-0.525519 -0.152981 0)
(-0.545156 -0.122316 0)
(-0.621633 -0.104355 0)
(-0.617477 -0.0904117 0)
(-0.706258 -0.0720064 0)
(-0.68078 -0.0682621 0)
(-0.779642 -0.0505296 0)
(-0.735905 -0.0532361 0)
(-0.84161 -0.0367077 0)
(-0.783928 -0.0434265 0)
(-0.894411 -0.0282402 0)
(-0.825944 -0.0373068 0)
(-0.93983 -0.0234392 0)
(-0.862943 -0.0337012 0)
(-0.979405 -0.0211134 0)
(-0.89576 -0.0316904 0)
(-1.01434 -0.0203636 0)
(-0.925061 -0.0305586 0)
(-1.04557 -0.0204948 0)
(-0.951436 -0.0298157 0)
(-1.07384 -0.0209206 0)
(-0.975198 -0.0291379 0)
(-1.09941 -0.0213967 0)
(-0.99639 -0.0281887 0)
(-1.12238 -0.0217283 0)
(-1.01497 -0.0265432 0)
(-1.14267 -0.0215467 0)
(-1.03102 -0.0237847 0)
(-1.16025 -0.0203266 0)
(-1.04495 -0.0197143 0)
(-1.1754 -0.0176201 0)
(-1.0574 -0.0145275 0)
(-1.18875 -0.0133557 0)
(-1.06904 -0.00878549 0)
(-1.20106 -0.00798222 0)
(-1.08034 -0.00322464 0)
(-1.21302 -0.00225388 0)
(-1.091 0.00152261 0)
(-1.22434 0.00286828 0)
(-1.10067 0.00525693 0)
(-1.23477 0.00675951 0)
(-1.1097 0.00816601 0)
(-1.24447 0.00963274 0)
(-1.118 0.0100653 0)
(-1.25359 0.0117605 0)
(-1.12557 0.0101321 0)
(-1.26235 0.0126609 0)
(-1.13292 0.00822654 0)
(-1.27031 0.0114523 0)
(-1.27479 0.00889313 0)
(-0.138283 -0.471086 0)