/*--------------------------------*- C++ -*----------------------------------*\
  =========                 |
  \\      /  F ield         | OpenFOAM: The Open Source CFD Toolbox
   \\    /   O peration     | Website:  https://openfoam.org
    \\  /    A nd           | Version:  7
     \\/     M anipulation  |
\*---------------------------------------------------------------------------*/
FoamFile
{
    version     2.0;
    format      ascii;
    class       surfaceScalarField;
    location    "7.14";
    object      phi;
}
// * * * * * * * * * * * * * * * * * * * * * * * * * * * * * * * * * * * * * //

dimensions      [1 0 -1 0 0 0 0];

internalField   nonuniform List<scalar> 
23692
(
1.19241e-05
-2.89631e-07
1.24204e-05
-4.96063e-07
1.30891e-05
-6.68354e-07
1.39027e-05
-8.13118e-07
1.48413e-05
-9.37936e-07
1.58902e-05
-1.04824e-06
1.70391e-05
-1.1481e-06
1.82807e-05
-1.2406e-06
1.96095e-05
-1.32782e-06
2.10215e-05
-1.41082e-06
2.25124e-05
-1.48973e-06
2.40775e-05
-1.56388e-06
2.57109e-05
-1.63201e-06
2.74048e-05
-1.69254e-06
2.91501e-05
-1.74386e-06
3.09361e-05
-1.78454e-06
3.27512e-05
-1.8135e-06
3.45828e-05
-1.83012e-06
3.64187e-05
-1.83425e-06
3.82465e-05
-1.82618e-06
4.00546e-05
-1.80656e-06
4.18326e-05
-1.77636e-06
4.3571e-05
-1.73669e-06
4.52615e-05
-1.68882e-06
4.68972e-05
-1.63403e-06
4.84724e-05
-1.57358e-06
4.99828e-05
-1.50869e-06
5.14249e-05
-1.44046e-06
5.27965e-05
-1.3699e-06
5.4096e-05
-1.29792e-06
5.5323e-05
-1.22528e-06
5.64773e-05
-1.15267e-06
5.75595e-05
-1.08064e-06
5.85708e-05
-1.00967e-06
5.95125e-05
-9.40137e-07
6.03864e-05
-8.72355e-07
6.11945e-05
-8.06565e-07
6.1939e-05
-7.42953e-07
6.26222e-05
-6.81656e-07
6.32464e-05
-6.22767e-07
6.38142e-05
-5.66345e-07
6.4328e-05
-5.12421e-07
6.47904e-05
-4.60996e-07
6.52038e-05
-4.12052e-07
6.55706e-05
-3.65553e-07
6.58933e-05
-3.21445e-07
6.61742e-05
-2.79662e-07
6.64155e-05
-2.40124e-07
6.66194e-05
-2.02741e-07
6.6788e-05
-1.67411e-07
6.6923e-05
-1.3402e-07
6.70265e-05
-1.02444e-07
6.71e-05
-7.25483e-08
6.71451e-05
-4.41839e-08
6.71632e-05
-1.71888e-08
6.71554e-05
8.59858e-09
6.71228e-05
3.33352e-08
6.70664e-05
5.71959e-08
6.69866e-05
8.03888e-08
6.68841e-05
1.03152e-07
6.67589e-05
1.25752e-07
6.66109e-05
1.4849e-07
6.64397e-05
1.71713e-07
6.62443e-05
1.9582e-07
6.60233e-05
2.21284e-07
6.5775e-05
2.48669e-07
6.54966e-05
2.78669e-07
6.51846e-05
3.1215e-07
6.48346e-05
3.50223e-07
6.44403e-05
3.94361e-07
6.39939e-05
4.46568e-07
6.34842e-05
5.0968e-07
6.28964e-05
5.87859e-07
6.22089e-05
6.87481e-07
6.13901e-05
8.1877e-07
6.03911e-05
9.98925e-07
5.91327e-05
1.25837e-06
5.74784e-05
1.65415e-06
5.51736e-05
2.30476e-06
5.16663e-05
3.50718e-06
6.56042e-06
4.51057e-05
1.27492e-05
-5.90392e-07
1.32766e-05
-1.02328e-06
1.39894e-05
-1.38075e-06
1.48573e-05
-1.68055e-06
1.58593e-05
-1.93923e-06
1.69796e-05
-2.1678e-06
1.82071e-05
-2.37474e-06
1.9534e-05
-2.56648e-06
2.09546e-05
-2.74732e-06
2.24645e-05
-2.9195e-06
2.40594e-05
-3.0833e-06
2.57342e-05
-3.23732e-06
2.74825e-05
-3.37894e-06
2.92963e-05
-3.50487e-06
3.11658e-05
-3.61173e-06
3.30794e-05
-3.69654e-06
3.50245e-05
-3.75703e-06
3.6988e-05
-3.79191e-06
3.89563e-05
-3.80083e-06
4.09162e-05
-3.7844e-06
4.28554e-05
-3.74399e-06
4.47623e-05
-3.68154e-06
4.66268e-05
-3.59944e-06
4.84401e-05
-3.50028e-06
5.01946e-05
-3.38673e-06
5.18842e-05
-3.26143e-06
5.35042e-05
-3.12688e-06
5.50509e-05
-2.98541e-06
5.65219e-05
-2.8391e-06
5.79156e-05
-2.68983e-06
5.92313e-05
-2.53921e-06
6.0469e-05
-2.38864e-06
6.16294e-05
-2.23928e-06
6.27135e-05
-2.09211e-06
6.3723e-05
-1.94792e-06
6.46597e-05
-1.80737e-06
6.55257e-05
-1.67095e-06
6.63234e-05
-1.53904e-06
6.70553e-05
-1.41193e-06
6.77239e-05
-1.28982e-06
6.83319e-05
-1.17281e-06
6.8882e-05
-1.06097e-06
6.93768e-05
-9.54313e-07
6.9819e-05
-8.52789e-07
7.02111e-05
-7.56322e-07
7.05558e-05
-6.64803e-07
7.08556e-05
-5.7809e-07
7.11128e-05
-4.9602e-07
7.13296e-05
-4.18402e-07
7.15084e-05
-3.45024e-07
7.16512e-05
-2.75651e-07
7.17599e-05
-2.10026e-07
7.18362e-05
-1.47866e-07
7.18819e-05
-8.88653e-08
7.18983e-05
-3.26887e-08
7.18868e-05
2.09952e-08
7.18485e-05
7.25103e-08
7.17842e-05
1.22221e-07
7.16948e-05
1.70555e-07
7.15806e-05
2.18001e-07
7.14418e-05
2.65101e-07
7.12784e-05
3.12469e-07
7.10898e-05
3.60804e-07
7.08751e-05
4.10914e-07
7.06331e-05
4.63744e-07
7.03616e-05
5.20422e-07
7.00583e-05
5.82316e-07
6.97195e-05
6.51122e-07
6.93409e-05
7.28994e-07
6.89167e-05
8.18738e-07
6.84393e-05
9.24109e-07
6.78987e-05
1.05029e-06
6.72819e-05
1.20464e-06
6.65714e-05
1.39801e-06
6.57433e-05
1.64685e-06
6.47652e-05
1.97691e-06
6.35939e-05
2.42963e-06
6.21748e-05
3.07316e-06
6.04551e-05
4.02439e-06
5.84737e-05
5.48842e-06
7.74555e-06
5.72884e-05
1.36279e-05
-8.99217e-07
1.41845e-05
-1.57966e-06
1.494e-05
-2.13589e-06
1.58627e-05
-2.60267e-06
1.69295e-05
-3.0053e-06
1.81235e-05
-3.36103e-06
1.94328e-05
-3.68312e-06
2.08491e-05
-3.98167e-06
2.23664e-05
-4.26342e-06
2.39801e-05
-4.53192e-06
2.56858e-05
-4.78761e-06
2.74782e-05
-5.02831e-06
2.93507e-05
-5.2499e-06
3.12946e-05
-5.44722e-06
3.32995e-05
-5.61492e-06
3.53529e-05
-5.74827e-06
3.74413e-05
-5.84369e-06
3.95503e-05
-5.8991e-06
4.16652e-05
-5.91395e-06
4.37718e-05
-5.88914e-06
4.58565e-05
-5.8268e-06
4.79068e-05
-5.73e-06
4.99117e-05
-5.60244e-06
5.18616e-05
-5.44819e-06
5.37482e-05
-5.27145e-06
5.5565e-05
-5.07634e-06
5.73068e-05
-4.86677e-06
5.89697e-05
-4.64639e-06
6.0551e-05
-4.41847e-06
6.2049e-05
-4.18592e-06
6.34629e-05
-3.95128e-06
6.47929e-05
-3.7167e-06
6.60395e-05
-3.48403e-06
6.7204e-05
-3.25477e-06
6.8288e-05
-3.03018e-06
6.92937e-05
-2.81125e-06
7.02233e-05
-2.59876e-06
7.10793e-05
-2.3933e-06
7.18644e-05
-2.19532e-06
7.25813e-05
-2.0051e-06
7.3233e-05
-1.82283e-06
7.38223e-05
-1.64861e-06
7.4352e-05
-1.48243e-06
7.48249e-05
-1.32423e-06
7.5244e-05
-1.17389e-06
7.56119e-05
-1.03123e-06
7.59312e-05
-8.96026e-07
7.62046e-05
-7.68023e-07
7.64345e-05
-6.46922e-07
7.66231e-05
-5.32391e-07
7.67727e-05
-4.24062e-07
7.68854e-05
-3.21534e-07
7.6963e-05
-2.24371e-07
7.70073e-05
-1.32095e-07
7.70198e-05
-4.41902e-08
7.70019e-05
3.98513e-08
7.69548e-05
1.20527e-07
7.68794e-05
1.98406e-07
7.67766e-05
2.74149e-07
7.66468e-05
3.48495e-07
7.64903e-05
4.22269e-07
7.63069e-05
4.96394e-07
7.60963e-05
5.71916e-07
7.58577e-05
6.50031e-07
7.55897e-05
7.32131e-07
7.52906e-05
8.19854e-07
7.49581e-05
9.15165e-07
7.4589e-05
1.02046e-06
7.41795e-05
1.13873e-06
7.37246e-05
1.27376e-06
7.32183e-05
1.43049e-06
7.26532e-05
1.61546e-06
7.20203e-05
1.83754e-06
7.13094e-05
2.10898e-06
7.05092e-05
2.44692e-06
6.96106e-05
2.8755e-06
6.86116e-05
3.42857e-06
6.75323e-05
4.15236e-06
6.64504e-05
5.10613e-06
6.55896e-05
6.34906e-06
7.86643e-06
6.54686e-05
1.45655e-05
-1.21439e-06
1.5149e-05
-2.16289e-06
1.59462e-05
-2.93269e-06
1.69236e-05
-3.57951e-06
1.80564e-05
-4.13734e-06
1.93264e-05
-4.63012e-06
2.07207e-05
-5.07642e-06
2.22305e-05
-5.49035e-06
2.38498e-05
-5.88138e-06
2.55737e-05
-6.25451e-06
2.7398e-05
-6.61041e-06
2.93173e-05
-6.94603e-06
3.13246e-05
-7.25559e-06
3.34109e-05
-7.53178e-06
3.55648e-05
-7.76702e-06
3.7773e-05
-7.9546e-06
4.00206e-05
-8.08942e-06
4.22918e-05
-8.16846e-06
4.45707e-05
-8.19089e-06
4.68415e-05
-8.15794e-06
4.90893e-05
-8.07258e-06
5.13004e-05
-7.93909e-06
5.34626e-05
-7.76266e-06
5.55655e-05
-7.54899e-06
5.76e-05
-7.30395e-06
5.9559e-05
-7.03331e-06
6.14369e-05
-6.74255e-06
6.32293e-05
-6.43674e-06
6.49333e-05
-6.12047e-06
6.65472e-05
-5.79778e-06
6.80701e-05
-5.4722e-06
6.95022e-05
-5.14674e-06
7.08441e-05
-4.82396e-06
7.20972e-05
-4.50595e-06
7.32634e-05
-4.19444e-06
7.43449e-05
-3.8908e-06
7.53441e-05
-3.59611e-06
7.62639e-05
-3.31119e-06
7.7107e-05
-3.03663e-06
7.78766e-05
-2.77285e-06
7.85756e-05
-2.52009e-06
7.92072e-05
-2.27846e-06
7.97744e-05
-2.04797e-06
8.02803e-05
-1.82852e-06
8.0728e-05
-1.61992e-06
8.11203e-05
-1.42194e-06
8.146e-05
-1.23426e-06
8.17499e-05
-1.05651e-06
8.19927e-05
-8.88275e-07
8.21908e-05
-7.291e-07
8.23465e-05
-5.78473e-07
8.24621e-05
-4.35837e-07
8.25395e-05
-3.0059e-07
8.25806e-05
-1.72077e-07
8.25871e-05
-4.9591e-08
8.25604e-05
6.75534e-08
8.25018e-05
1.80033e-07
8.24125e-05
2.88635e-07
8.22932e-05
3.94256e-07
8.21445e-05
4.97889e-07
8.19669e-05
6.00628e-07
8.17602e-05
7.03689e-07
8.15243e-05
8.08435e-07
8.12584e-05
9.16409e-07
8.09616e-05
1.02938e-06
8.06324e-05
1.1494e-06
8.0269e-05
1.27888e-06
7.98691e-05
1.4207e-06
7.94297e-05
1.57834e-06
7.89475e-05
1.75608e-06
7.84189e-05
1.95925e-06
7.78399e-05
2.19456e-06
7.72069e-05
2.47053e-06
7.65179e-05
2.79799e-06
7.57742e-05
3.19059e-06
7.49845e-05
3.66509e-06
7.41721e-05
4.24098e-06
7.33859e-05
4.93838e-06
7.27197e-05
5.77225e-06
7.23301e-05
6.73854e-06
7.78153e-06
7.24148e-05
1.55672e-05
-1.53513e-06
1.61758e-05
-2.77124e-06
1.70138e-05
-3.77023e-06
1.80461e-05
-4.61112e-06
1.9246e-05
-5.33648e-06
2.05942e-05
-5.97732e-06
2.20768e-05
-6.55799e-06
2.36848e-05
-7.09706e-06
2.54118e-05
-7.60709e-06
2.72535e-05
-8.09473e-06
2.92056e-05
-8.56092e-06
3.12629e-05
-9.00164e-06
3.34183e-05
-9.40918e-06
3.56621e-05
-9.77373e-06
3.79821e-05
-1.00851e-05
4.03637e-05
-1.03343e-05
4.27905e-05
-1.05142e-05
4.52451e-05
-1.06209e-05
4.77094e-05
-1.06532e-05
5.01661e-05
-1.06125e-05
5.25985e-05
-1.05029e-05
5.49915e-05
-1.03299e-05
5.73315e-05
-1.01005e-05
5.9607e-05
-9.82221e-06
6.1808e-05
-9.50276e-06
6.39267e-05
-9.14979e-06
6.59568e-05
-8.77053e-06
6.78939e-05
-8.37163e-06
6.97348e-05
-7.95913e-06
7.14775e-05
-7.53832e-06
7.31213e-05
-7.11382e-06
7.46663e-05
-6.68958e-06
7.61134e-05
-6.26889e-06
7.7464e-05
-5.85452e-06
7.87204e-05
-5.44868e-06
7.98848e-05
-5.05317e-06
8.09601e-05
-4.66936e-06
8.19492e-05
-4.29832e-06
8.28553e-05
-3.9408e-06
8.36817e-05
-3.59733e-06
8.44318e-05
-3.26821e-06
8.51087e-05
-2.95358e-06
8.5716e-05
-2.65343e-06
8.62569e-05
-2.36762e-06
8.67346e-05
-2.0959e-06
8.71523e-05
-1.83795e-06
8.7513e-05
-1.59335e-06
8.78197e-05
-1.36162e-06
8.80751e-05
-1.14221e-06
8.8282e-05
-9.34528e-07
8.84429e-05
-7.37902e-07
8.856e-05
-5.51615e-07
8.86356e-05
-3.74889e-07
8.86716e-05
-2.06884e-07
8.86699e-05
-4.67048e-08
8.8632e-05
1.06513e-07
8.85594e-05
2.53633e-07
8.84533e-05
3.95669e-07
8.83147e-05
5.33752e-07
8.81443e-05
6.69115e-07
8.79426e-05
8.03099e-07
8.77098e-05
9.37178e-07
8.74458e-05
1.07298e-06
8.71505e-05
1.21233e-06
8.68231e-05
1.35726e-06
8.64628e-05
1.5101e-06
8.60685e-05
1.67351e-06
8.5639e-05
1.85055e-06
8.51727e-05
2.04481e-06
8.46685e-05
2.26051e-06
8.41253e-05
2.50259e-06
8.35431e-05
2.77688e-06
8.29234e-05
3.0902e-06
8.22711e-05
3.45031e-06
8.1596e-05
3.86567e-06
8.09163e-05
4.34479e-06
8.02624e-05
4.89474e-06
7.96824e-05
5.51833e-06
7.9245e-05
6.20952e-06
7.90371e-05
6.94623e-06
7.67907e-06
7.91395e-05
1.66383e-05
-1.86152e-06
1.72711e-05
-3.40372e-06
1.81494e-05
-4.64805e-06
1.92368e-05
-5.69782e-06
2.05053e-05
-6.60412e-06
2.19342e-05
-7.40516e-06
2.3509e-05
-8.13164e-06
2.52203e-05
-8.80708e-06
2.70623e-05
-9.44755e-06
2.90308e-05
-1.00616e-05
3.11221e-05
-1.06506e-05
3.33315e-05
-1.12092e-05
3.56517e-05
-1.17275e-05
3.80726e-05
-1.21926e-05
4.05808e-05
-1.25912e-05
4.31599e-05
-1.29113e-05
4.57916e-05
-1.31438e-05
4.8456e-05
-1.32831e-05
5.11329e-05
-1.33278e-05
5.38024e-05
-1.32797e-05
5.64459e-05
-1.3144e-05
5.90462e-05
-1.29279e-05
6.15883e-05
-1.26403e-05
6.40593e-05
-1.22908e-05
6.64482e-05
-1.18894e-05
6.87466e-05
-1.14458e-05
7.09475e-05
-1.09691e-05
7.30463e-05
-1.0468e-05
7.50394e-05
-9.94991e-06
7.6925e-05
-9.4216e-06
7.87024e-05
-8.88886e-06
8.03718e-05
-8.35665e-06
8.19343e-05
-7.8291e-06
8.33916e-05
-7.30964e-06
8.47463e-05
-6.80105e-06
8.60008e-05
-6.30554e-06
8.71585e-05
-5.82481e-06
8.82225e-05
-5.36016e-06
8.91963e-05
-4.91253e-06
9.00836e-05
-4.48253e-06
9.08879e-05
-4.07054e-06
9.1613e-05
-3.67669e-06
9.22625e-05
-3.30095e-06
9.28399e-05
-2.94313e-06
9.33487e-05
-2.60291e-06
9.37925e-05
-2.27986e-06
9.41743e-05
-1.97346e-06
9.44975e-05
-1.68309e-06
9.47649e-05
-1.40806e-06
9.49796e-05
-1.14763e-06
9.51442e-05
-9.00959e-07
9.52612e-05
-6.6716e-07
9.53329e-05
-4.45271e-07
9.53616e-05
-2.34262e-07
9.53492e-05
-3.3066e-08
9.52975e-05
1.59359e-07
9.52082e-05
3.44084e-07
9.50825e-05
5.22354e-07
9.49217e-05
6.95517e-07
9.47267e-05
8.65019e-07
9.44982e-05
1.03241e-06
9.42367e-05
1.19938e-06
9.39426e-05
1.36774e-06
9.36161e-05
1.5395e-06
9.3257e-05
1.71685e-06
9.28654e-05
1.9022e-06
9.2441e-05
2.09823e-06
9.1984e-05
2.30792e-06
9.14945e-05
2.53458e-06
9.09734e-05
2.78187e-06
9.04223e-05
3.05379e-06
8.98447e-05
3.35466e-06
8.9246e-05
3.68895e-06
8.86353e-05
4.06096e-06
8.80267e-05
4.47434e-06
8.74402e-05
4.93116e-06
8.69043e-05
5.4306e-06
8.64555e-05
5.96701e-06
8.61373e-05
6.52761e-06
8.59936e-05
7.08981e-06
7.61925e-06
8.60533e-05
1.77844e-05
-2.19431e-06
1.84411e-05
-4.06014e-06
1.936e-05
-5.56644e-06
2.05035e-05
-6.84052e-06
2.18424e-05
-7.94217e-06
2.33552e-05
-8.91679e-06
2.50268e-05
-9.80197e-06
2.6848e-05
-1.06268e-05
2.88134e-05
-1.14115e-05
3.09203e-05
-1.21667e-05
3.31657e-05
-1.28942e-05
3.55457e-05
-1.35873e-05
3.8053e-05
-1.42328e-05
4.06768e-05
-1.48142e-05
4.34019e-05
-1.53142e-05
4.62099e-05
-1.5717e-05
4.90793e-05
-1.60108e-05
5.19872e-05
-1.61887e-05
5.49102e-05
-1.62484e-05
5.78255e-05
-1.61926e-05
6.07118e-05
-1.60278e-05
6.35496e-05
-1.57633e-05
6.63222e-05
-1.54103e-05
6.90149e-05
-1.4981e-05
7.16161e-05
-1.4488e-05
7.41162e-05
-1.39433e-05
7.6508e-05
-1.33585e-05
7.87865e-05
-1.2744e-05
8.09483e-05
-1.21091e-05
8.29914e-05
-1.14622e-05
8.49154e-05
-1.08103e-05
8.67207e-05
-1.01595e-05
8.84089e-05
-9.51479e-06
8.9982e-05
-8.8803e-06
9.14427e-05
-8.25939e-06
9.27943e-05
-7.65471e-06
9.40401e-05
-7.06831e-06
9.5184e-05
-6.50171e-06
9.62297e-05
-5.956e-06
9.71813e-05
-5.4319e-06
9.80427e-05
-4.92981e-06
9.88181e-05
-4.44989e-06
9.95113e-05
-3.99205e-06
0.000100126
-3.55603e-06
0.000100667
-3.14142e-06
0.000101136
-2.74768e-06
0.000101539
-2.37415e-06
0.000101878
-2.02007e-06
0.000102156
-1.68461e-06
0.000102377
-1.36684e-06
0.000102543
-1.06577e-06
0.000102658
-7.80313e-07
0.000102724
-5.09327e-07
0.000102742
-2.51578e-07
0.000102717
-5.88206e-09
0.000102648
2.28979e-07
0.000102539
4.54358e-07
0.000102391
6.71688e-07
0.000102205
8.82509e-07
0.000101983
1.08844e-06
0.000101725
1.29121e-06
0.000101432
1.49263e-06
0.000101106
1.69465e-06
0.000100747
1.89932e-06
0.000100355
2.10886e-06
9.99325e-05
2.3256e-06
9.94791e-05
2.55204e-06
9.89966e-05
2.79082e-06
9.84868e-05
3.04467e-06
9.79525e-05
3.31642e-06
9.73976e-05
3.60884e-06
9.68279e-05
3.92454e-06
9.62512e-05
4.2657e-06
9.56785e-05
4.63372e-06
9.51241e-05
5.02871e-06
9.46064e-05
5.44882e-06
9.41476e-05
5.88941e-06
9.37723e-05
6.3422e-06
9.35053e-05
6.79445e-06
9.33664e-05
7.22861e-06
7.62339e-06
9.33621e-05
1.9011e-05
-2.53482e-06
1.96923e-05
-4.74115e-06
2.0653e-05
-6.52649e-06
2.18542e-05
-8.04097e-06
2.32664e-05
-9.35335e-06
2.48671e-05
-1.05163e-05
2.66413e-05
-1.15748e-05
2.85805e-05
-1.25645e-05
3.06809e-05
-1.35102e-05
3.29413e-05
-1.44253e-05
3.53607e-05
-1.53117e-05
3.79361e-05
-1.61605e-05
4.06603e-05
-1.69548e-05
4.35211e-05
-1.76728e-05
4.65011e-05
-1.82918e-05
4.95782e-05
-1.87916e-05
5.2727e-05
-1.91571e-05
5.59203e-05
-1.93793e-05
5.91304e-05
-1.94559e-05
6.23308e-05
-1.93904e-05
6.5497e-05
-1.91913e-05
6.86068e-05
-1.88704e-05
7.16414e-05
-1.84421e-05
7.45848e-05
-1.79217e-05
7.74241e-05
-1.73246e-05
8.01493e-05
-1.66658e-05
8.27528e-05
-1.59593e-05
8.52295e-05
-1.52179e-05
8.75761e-05
-1.4453e-05
8.97911e-05
-1.36744e-05
9.18742e-05
-1.28907e-05
9.38264e-05
-1.21091e-05
9.56497e-05
-1.13354e-05
9.73466e-05
-1.05746e-05
9.89205e-05
-9.83068e-06
0.000100375
-9.10662e-06
0.000101714
-8.40482e-06
0.000102942
-7.72704e-06
0.000104063
-7.07451e-06
0.000105081
-6.44801e-06
0.000106002
-5.84798e-06
0.000106829
-5.27453e-06
0.000107566
-4.72753e-06
0.000108219
-4.20661e-06
0.000108791
-3.71126e-06
0.000109286
-3.2408e-06
0.000109709
-2.79442e-06
0.000110062
-2.37121e-06
0.000110349
-1.97015e-06
0.000110574
-1.59015e-06
0.00011074
-1.23004e-06
0.00011085
-8.88554e-07
0.000110907
-5.64352e-07
0.000110913
-2.5602e-07
0.000110871
3.77819e-08
0.000110783
3.18444e-07
0.000110651
5.87545e-07
0.000110477
8.46721e-07
0.000110263
1.09767e-06
0.00011001
1.34216e-06
0.00010972
1.582e-06
0.000109395
1.8191e-06
0.000109035
2.05542e-06
0.000108642
2.29299e-06
0.000108217
2.53389e-06
0.000107763
2.78027e-06
0.000107282
3.03426e-06
0.000106775
3.29799e-06
0.000106246
3.57352e-06
0.0001057
3.8627e-06
0.000105142
4.1671e-06
0.000104579
4.48781e-06
0.00010402
4.82522e-06
0.000103475
5.1787e-06
0.000102957
5.54632e-06
0.000102482
5.92443e-06
0.000102064
6.30738e-06
0.000101719
6.6872e-06
0.000101459
7.0537e-06
0.000101293
7.39483e-06
7.69817e-06
0.000101218
2.0324e-05
-2.8848e-06
2.10314e-05
-5.44823e-06
2.20358e-05
-7.53023e-06
2.32976e-05
-9.30189e-06
2.47868e-05
-1.08415e-05
2.64808e-05
-1.22091e-05
2.83653e-05
-1.34579e-05
3.04335e-05
-1.4631e-05
3.26841e-05
-1.57589e-05
3.51188e-05
-1.6858e-05
3.77392e-05
-1.793e-05
4.05437e-05
-1.89627e-05
4.35248e-05
-1.99335e-05
4.66681e-05
-2.08136e-05
4.99521e-05
-2.15733e-05
5.33496e-05
-2.21865e-05
5.68294e-05
-2.26342e-05
6.03583e-05
-2.29056e-05
6.39036e-05
-2.29984e-05
6.74341e-05
-2.2918e-05
7.09213e-05
-2.26756e-05
7.43405e-05
-2.22867e-05
7.76706e-05
-2.17693e-05
8.08943e-05
-2.11424e-05
8.39979e-05
-2.04252e-05
8.6971e-05
-1.96359e-05
8.98062e-05
-1.87915e-05
9.24984e-05
-1.79072e-05
9.50447e-05
-1.69965e-05
9.74443e-05
-1.60711e-05
9.96974e-05
-1.5141e-05
0.000101806
-1.42146e-05
0.000103772
-1.32988e-05
0.000105599
-1.23992e-05
0.000107292
-1.15203e-05
0.000108854
-1.06657e-05
0.00011029
-9.83791e-06
0.000111604
-9.03896e-06
0.000112802
-8.27017e-06
0.000113889
-7.53237e-06
0.00011487
-6.82597e-06
0.000115749
-6.15104e-06
0.000116531
-5.50735e-06
0.000117221
-4.89443e-06
0.000117824
-4.3116e-06
0.000118343
-3.75803e-06
0.000118784
-3.23276e-06
0.00011915
-2.73469e-06
0.000119444
-2.26262e-06
0.000119671
-1.81528e-06
0.000119834
-1.3913e-06
0.000119937
-9.89237e-07
0.000119982
-6.07581e-07
0.000119972
-2.44747e-07
0.000119911
1.00806e-07
0.0001198
4.30638e-07
0.000119642
7.46508e-07
0.00011944
1.05023e-06
0.000119195
1.34364e-06
0.00011891
1.62858e-06
0.000118586
1.90694e-06
0.000118226
2.1806e-06
0.000117831
2.45148e-06
0.000117403
2.72148e-06
0.000116945
2.99249e-06
0.00011646
3.26634e-06
0.00011595
3.54474e-06
0.000115419
3.82927e-06
0.000114871
4.12126e-06
0.000114313
4.42171e-06
0.000113749
4.73119e-06
0.000113187
5.04967e-06
0.000112636
5.37636e-06
0.000112106
5.70957e-06
0.000111605
6.04652e-06
0.000111147
6.38322e-06
0.00011074
6.71443e-06
0.000110393
7.03377e-06
0.000110113
7.33392e-06
0.0001099
7.60721e-06
7.84676e-06
0.000109752
2.17296e-05
-3.2463e-06
2.24654e-05
-6.18363e-06
2.35164e-05
-8.58062e-06
2.48426e-05
-1.06271e-05
2.64139e-05
-1.24117e-05
2.82085e-05
-1.40022e-05
3.02136e-05
-1.54614e-05
3.24256e-05
-1.68412e-05
3.48474e-05
-1.81787e-05
3.74852e-05
-1.94936e-05
4.03441e-05
-2.07866e-05
4.34237e-05
-2.204e-05
4.67153e-05
-2.32226e-05
5.02002e-05
-2.42958e-05
5.38506e-05
-2.52208e-05
5.76313e-05
-2.59644e-05
6.15034e-05
-2.65033e-05
6.54261e-05
-2.68253e-05
6.936e-05
-2.69293e-05
7.32689e-05
-2.68237e-05
7.71202e-05
-2.65238e-05
8.08865e-05
-2.60498e-05
8.45448e-05
-2.54245e-05
8.8077e-05
-2.46714e-05
9.1469e-05
-2.3814e-05
9.47104e-05
-2.28742e-05
9.77943e-05
-2.18722e-05
0.000100716
-2.0826e-05
0.000103474
-1.97514e-05
0.000106068
-1.86619e-05
0.0001085
-1.75691e-05
0.000110771
-1.64826e-05
0.000112885
-1.54102e-05
0.000114847
-1.43581e-05
0.000116661
-1.33316e-05
0.000118333
-1.23343e-05
0.000119867
-1.13693e-05
0.00012127
-1.04386e-05
0.000122546
-9.54354e-06
0.000123702
-8.68508e-06
0.000124742
-7.8635e-06
0.000125672
-7.07879e-06
0.000126498
-6.33059e-06
0.000127224
-5.61826e-06
0.000127856
-4.94097e-06
0.000128398
-4.29771e-06
0.000128855
-3.68731e-06
0.000129231
-3.10849e-06
0.000129531
-2.55985e-06
0.000129758
-2.03992e-06
0.000129916
-1.54715e-06
0.000130008
-1.07991e-06
0.000130039
-6.36525e-07
0.000130011
-2.15252e-07
0.000129928
1.85653e-07
0.000129792
5.6793e-07
0.000129607
9.33509e-07
0.000129374
1.28434e-06
0.000129097
1.62234e-06
0.000128777
1.94942e-06
0.000128418
2.26743e-06
0.000128021
2.57823e-06
0.00012759
2.88362e-06
0.000127127
3.18533e-06
0.000126636
3.48497e-06
0.000126119
3.78404e-06
0.00012558
4.08383e-06
0.000125025
4.3854e-06
0.000124457
4.68948e-06
0.000123882
4.99642e-06
0.000123308
5.30608e-06
0.00012274
5.61778e-06
0.000122187
5.93015e-06
0.000121655
6.24116e-06
0.000121154
6.54798e-06
0.00012069
6.84711e-06
0.00012027
7.13435e-06
0.000119899
7.40508e-06
0.000119578
7.65446e-06
0.000119307
7.8779e-06
8.0719e-06
0.000119082
2.32341e-05
-3.62164e-06
2.40013e-05
-6.95039e-06
2.5103e-05
-9.68161e-06
2.64987e-05
-1.20219e-05
2.81591e-05
-1.40708e-05
3.00639e-05
-1.59055e-05
3.22037e-05
-1.75996e-05
3.45802e-05
-1.92158e-05
3.7203e-05
-2.07993e-05
4.00843e-05
-2.23727e-05
4.32335e-05
-2.39332e-05
4.66506e-05
-2.54544e-05
5.0323e-05
-2.68922e-05
5.42244e-05
-2.81944e-05
5.8317e-05
-2.93104e-05
6.25549e-05
-3.01992e-05
6.68883e-05
-3.08335e-05
7.12675e-05
-3.12013e-05
7.56458e-05
-3.13044e-05
7.99814e-05
-3.11559e-05
8.42382e-05
-3.07772e-05
8.83863e-05
-3.01945e-05
9.24018e-05
-2.94365e-05
9.62662e-05
-2.85324e-05
9.99658e-05
-2.75101e-05
0.000103491
-2.6396e-05
0.000106836
-2.52136e-05
0.000109997
-2.39839e-05
0.000112975
-2.27251e-05
0.000115769
-2.14525e-05
0.000118382
-2.01792e-05
0.000120819
-1.89159e-05
0.000123083
-1.76713e-05
0.00012518
-1.64524e-05
0.000127117
-1.52646e-05
0.000128898
-1.41122e-05
0.00013053
-1.29982e-05
0.000132019
-1.19248e-05
0.000133372
-1.08933e-05
0.000134595
-9.90462e-06
0.000135693
-8.95889e-06
0.000136673
-8.05596e-06
0.000137541
-7.19531e-06
0.000138301
-6.37612e-06
0.00013896
-5.59735e-06
0.000139523
-4.85777e-06
0.000139994
-4.15599e-06
0.000140379
-3.49053e-06
0.000140681
-2.85977e-06
0.000140906
-2.26205e-06
0.000141056
-1.69561e-06
0.000141137
-1.15865e-06
0.000141152
-6.49342e-07
0.000141104
-1.65803e-07
0.000140998
2.93927e-07
0.000140836
7.31775e-07
0.000140621
1.14983e-06
0.000140357
1.55012e-06
0.000140046
1.93463e-06
0.000139692
2.30526e-06
0.000139297
2.66384e-06
0.000138864
3.01213e-06
0.000138397
3.35179e-06
0.000137899
3.68435e-06
0.000137373
4.01117e-06
0.000136825
4.33342e-06
0.000136257
4.65204e-06
0.000135676
4.96768e-06
0.000135085
5.28065e-06
0.000134491
5.59087e-06
0.0001339
5.89787e-06
0.000133317
6.20066e-06
0.00013275
6.4978e-06
0.000132204
6.78738e-06
0.000131685
7.06701e-06
0.000131198
7.33395e-06
0.000130748
7.58521e-06
0.000130335
7.81772e-06
0.000129961
8.02853e-06
0.000129624
8.21513e-06
8.376e-06
0.00012932
2.48444e-05
-4.01341e-06
2.56469e-05
-7.75237e-06
2.68043e-05
-1.08383e-05
2.82763e-05
-1.34928e-05
3.00349e-05
-1.5828e-05
3.20631e-05
-1.79321e-05
3.43576e-05
-1.98921e-05
3.69283e-05
-2.17844e-05
3.97943e-05
-2.36629e-05
4.2976e-05
-2.55519e-05
4.64863e-05
-2.74408e-05
5.03231e-05
-2.92883e-05
5.44655e-05
-3.10315e-05
5.88745e-05
-3.26002e-05
6.34975e-05
-3.39302e-05
6.82741e-05
-3.49724e-05
7.31416e-05
-3.56976e-05
7.80403e-05
-3.60965e-05
8.29161e-05
-3.61765e-05
8.77221e-05
-3.59584e-05
9.24197e-05
-3.54711e-05
9.69776e-05
-3.47488e-05
0.000101372
-3.38272e-05
0.000105585
-3.27416e-05
0.000109604
-3.15256e-05
0.000113422
-3.02098e-05
0.000117033
-2.88214e-05
0.000120437
-2.73843e-05
0.000123635
-2.5919e-05
0.000126629
-2.44427e-05
0.000129423
-2.297e-05
0.000132023
-2.15124e-05
0.000134435
-2.00795e-05
0.000136665
-1.86789e-05
0.000138721
-1.73162e-05
0.000140608
-1.59959e-05
0.000142334
-1.47212e-05
0.000143907
-1.34941e-05
0.000145333
-1.2316e-05
0.000146619
-1.11876e-05
0.000147772
-1.01088e-05
0.000148799
-9.0794e-06
0.000149705
-8.09854e-06
0.000150497
-7.16519e-06
0.000151181
-6.27808e-06
0.000151762
-5.43573e-06
0.000152245
-4.63653e-06
0.000152636
-3.87873e-06
0.000152939
-3.16052e-06
0.00015316
-2.48001e-06
0.000153302
-1.83525e-06
0.00015337
-1.22427e-06
0.000153368
-6.45064e-07
0.000153299
-9.56634e-08
0.000153169
4.26112e-07
0.000152981
9.22405e-07
0.000152737
1.39543e-06
0.000152441
1.84729e-06
0.000152098
2.27995e-06
0.000151709
2.69532e-06
0.000151279
3.09516e-06
0.000150812
3.48114e-06
0.00015031
3.85477e-06
0.000149778
4.21739e-06
0.00014922
4.57015e-06
0.00014864
4.91399e-06
0.000148044
5.24957e-06
0.000147435
5.57728e-06
0.000146819
5.89722e-06
0.000146201
6.20913e-06
0.000145587
6.51243e-06
0.000144982
6.8062e-06
0.000144391
7.08919e-06
0.000143819
7.35986e-06
0.00014327
7.61647e-06
0.000142747
7.85712e-06
0.000142252
8.0799e-06
0.000141787
8.28297e-06
0.000141351
8.46474e-06
0.000140942
8.62404e-06
8.76057e-06
0.000140557
2.65678e-05
-4.42444e-06
2.74103e-05
-8.59433e-06
2.86299e-05
-1.20571e-05
3.0187e-05
-1.50487e-05
3.20561e-05
-1.76957e-05
3.42264e-05
-2.01005e-05
3.6704e-05
-2.23677e-05
3.95118e-05
-2.45898e-05
4.26815e-05
-2.68301e-05
4.62425e-05
-2.911e-05
5.02087e-05
-3.14041e-05
5.45701e-05
-3.36466e-05
5.92905e-05
-3.57486e-05
6.43115e-05
-3.76178e-05
6.95605e-05
-3.91756e-05
7.49592e-05
-4.03674e-05
8.04311e-05
-4.11658e-05
8.59064e-05
-4.15679e-05
9.13245e-05
-4.15907e-05
9.66352e-05
-4.12652e-05
0.000101799
-4.06305e-05
0.000106784
-3.97301e-05
0.000111569
-3.86077e-05
0.000116137
-3.73056e-05
0.000120478
-3.5863e-05
0.000124587
-3.4315e-05
0.000128463
-3.26926e-05
0.000132105
-3.10225e-05
0.000135518
-2.93274e-05
0.000138705
-2.76261e-05
0.000141673
-2.59344e-05
0.00014443
-2.42648e-05
0.000146982
-2.26275e-05
0.000149337
-2.10302e-05
0.000151504
-1.94791e-05
0.00015349
-1.79784e-05
0.000155304
-1.65314e-05
0.000156954
-1.51401e-05
0.000158447
-1.38057e-05
0.000159791
-1.25284e-05
0.000160994
-1.13082e-05
0.000162062
-1.01444e-05
0.000163003
-9.03603e-06
0.000163823
-7.98169e-06
0.000164528
-6.97983e-06
0.000165124
-6.02871e-06
0.000165617
-5.12645e-06
0.000166012
-4.27107e-06
0.000166315
-3.4605e-06
0.00016653
-2.69263e-06
0.000166663
-1.96532e-06
0.000166718
-1.27639e-06
0.000166699
-6.23681e-07
0.000166611
-5.21293e-09
0.000166457
5.81403e-07
0.000166243
1.13868e-06
0.000165972
1.66886e-06
0.000165647
2.17405e-06
0.000165273
2.65623e-06
0.000164852
3.11727e-06
0.00016439
3.5589e-06
0.00016389
3.98268e-06
0.000163356
4.39001e-06
0.000162793
4.7821e-06
0.000162204
5.15995e-06
0.000161595
5.52434e-06
0.00016097
5.87581e-06
0.000160333
6.21464e-06
0.00015969
6.54087e-06
0.000159046
6.85427e-06
0.000158404
7.15436e-06
0.000157771
7.44046e-06
0.000157149
7.71167e-06
0.000156542
7.96698e-06
0.000155954
8.20529e-06
0.000155385
8.42547e-06
0.000154839
8.62648e-06
0.000154315
8.80744e-06
0.000153812
8.96769e-06
0.000153329
9.10692e-06
9.22556e-06
0.000152864
2.8412e-05
-4.85798e-06
2.93003e-05
-9.48208e-06
3.05903e-05
-1.33462e-05
3.2244e-05
-1.67011e-05
3.4241e-05
-1.9691e-05
3.658e-05
-2.24376e-05
3.92826e-05
-2.5068e-05
4.23894e-05
-2.76941e-05
4.59481e-05
-3.0386e-05
4.9995e-05
-3.31539e-05
5.45388e-05
-3.59446e-05
5.95522e-05
-3.86566e-05
6.49739e-05
-4.11667e-05
7.07184e-05
-4.33586e-05
7.66887e-05
-4.51419e-05
8.27871e-05
-4.64618e-05
8.89236e-05
-4.72982e-05
9.50199e-05
-4.76601e-05
0.000101012
-4.7578e-05
0.000106847
-4.70964e-05
0.000112488
-4.62666e-05
0.000117904
-4.51425e-05
0.000123078
-4.37768e-05
0.000127996
-4.2219e-05
0.000132651
-4.05139e-05
0.000137042
-3.87012e-05
0.000141169
-3.68153e-05
0.000145036
-3.48856e-05
0.00014865
-3.29367e-05
0.000152017
-3.09889e-05
0.000155146
-2.90589e-05
0.000158045
-2.71598e-05
0.000160724
-2.53022e-05
0.000163192
-2.34941e-05
0.000165459
-2.17415e-05
0.000167533
-2.00487e-05
0.000169425
-1.84188e-05
0.000171142
-1.68534e-05
0.000172694
-1.53535e-05
0.000174088
-1.39192e-05
0.000175334
-1.25499e-05
0.000176438
-1.12447e-05
0.000177408
-1.00022e-05
0.00017825
-8.82072e-06
0.000178972
-7.69843e-06
0.00017958
-6.63326e-06
0.00018008
-5.62302e-06
0.000180478
-4.66546e-06
0.000180778
-3.75828e-06
0.000180988
-2.89913e-06
0.000181111
-2.08567e-06
0.000181153
-1.31556e-06
0.000181119
-5.86513e-07
0.000181012
1.03809e-07
0.000180838
7.57889e-07
0.000180601
1.37827e-06
0.000180305
1.96734e-06
0.000179953
2.52723e-06
0.000179552
3.05996e-06
0.000179104
3.56736e-06
0.000178613
4.05114e-06
0.000178085
4.5128e-06
0.000177522
4.95368e-06
0.000176931
5.3749e-06
0.000176315
5.77742e-06
0.000175679
6.16195e-06
0.000175026
6.52902e-06
0.000174363
6.87895e-06
0.000173693
7.21184e-06
0.000173021
7.52764e-06
0.00017235
7.8261e-06
0.000171684
8.10687e-06
0.000171027
8.3695e-06
0.000170381
8.61346e-06
0.000169748
8.83825e-06
0.000169131
9.04341e-06
0.000168529
9.22858e-06
0.000167943
9.39355e-06
0.000167373
9.53831e-06
0.000166817
9.6631e-06
9.76881e-06
0.000166274
3.03852e-05
-5.31773e-06
3.13266e-05
-1.04228e-05
3.26976e-05
-1.47161e-05
3.44637e-05
-1.84658e-05
3.66129e-05
-2.18385e-05
3.91599e-05
-2.49825e-05
4.21486e-05
-2.80542e-05
4.56434e-05
-3.11862e-05
4.97083e-05
-3.44478e-05
5.43801e-05
-3.78224e-05
5.96502e-05
-4.12112e-05
6.54604e-05
-4.44629e-05
7.17133e-05
-4.74157e-05
7.82899e-05
-4.99311e-05
8.50666e-05
-5.19143e-05
9.19273e-05
-5.33181e-05
9.87711e-05
-5.41374e-05
0.000105515
-5.4399e-05
0.000112093
-5.41512e-05
0.000118455
-5.34543e-05
0.000124567
-5.23737e-05
0.000130404
-5.09745e-05
0.000135951
-4.93187e-05
0.0001412
-4.74629e-05
0.000146148
-4.54575e-05
0.000150798
-4.33463e-05
0.000155155
-4.1167e-05
0.000159225
-3.89511e-05
0.000163018
-3.67249e-05
0.000166544
-3.45097e-05
0.000169812
-3.23227e-05
0.000172835
-3.01776e-05
0.000175622
-2.8085e-05
0.000178186
-2.60529e-05
0.000180536
-2.4087e-05
0.000182683
-2.21916e-05
0.000184638
-2.03692e-05
0.00018641
-1.86211e-05
0.000188009
-1.6948e-05
0.000189443
-1.53494e-05
0.000190722
-1.38246e-05
0.000191853
-1.23719e-05
0.000192845
-1.09898e-05
0.000193704
-9.67621e-06
0.000194438
-8.42882e-06
0.000195054
-7.24527e-06
0.000195558
-6.12307e-06
0.000195955
-5.05967e-06
0.000196253
-4.0525e-06
0.000196456
-3.09898e-06
0.00019657
-2.19655e-06
0.0001966
-1.34272e-06
0.000196552
-5.35027e-07
0.000196429
2.29144e-07
0.000196237
9.52438e-07
0.000195981
1.63746e-06
0.000195664
2.28665e-06
0.000195291
2.9022e-06
0.000194867
3.48616e-06
0.000194396
4.04038e-06
0.000193883
4.56656e-06
0.000193331
5.06618e-06
0.000192746
5.54058e-06
0.000192132
5.99089e-06
0.000191493