/*--------------------------------*- C++ -*----------------------------------*\
  =========                 |
  \\      /  F ield         | OpenFOAM: The Open Source CFD Toolbox
   \\    /   O peration     | Website:  https://openfoam.org
    \\  /    A nd           | Version:  7
     \\/     M anipulation  |
\*---------------------------------------------------------------------------*/
FoamFile
{
    version     2.0;
    format      ascii;
    class       volScalarField;
    location    "7.14";
    object      T;
}
// * * * * * * * * * * * * * * * * * * * * * * * * * * * * * * * * * * * * * //

dimensions      [0 0 0 1 0 0 0];

internalField   nonuniform List<scalar> 
12013
(
300.117
300.355
300.599
300.847
301.096
301.346
301.594
301.84
302.083
302.321
302.554
302.781
303.002
303.216
303.424
303.625
303.819
304.006
304.187
304.361
304.528
304.69
304.846
304.997
305.142
305.283
305.419
305.551
305.68
305.805
305.927
306.047
306.164
306.281
306.397
306.512
306.628
306.746
306.866
306.989
307.117
307.25
307.39
307.539
307.697
307.868
308.053
308.253
308.473
308.713
308.978
309.271
309.594
309.953
310.351
310.793
311.283
311.828
312.434
313.107
313.853
314.682
315.601
316.619
317.748
318.997
320.38
321.911
323.604
325.478
327.553
329.853
332.404
335.241
338.404
341.945
345.935
350.469
355.694
361.852
369.408
300.117
300.356
300.6
300.847
301.097
301.346
301.595
301.841
302.084
302.322
302.555
302.782
303.003
303.218
303.426
303.627
303.821
304.008
304.189
304.363
304.531
304.693
304.849
304.999
305.145
305.286
305.422
305.554
305.682
305.807
305.929
306.049
306.167
306.283
306.399
306.515
306.631
306.748
306.868
306.991
307.119
307.252
307.392
307.541
307.699
307.87
308.054
308.255
308.474
308.714
308.979
309.271
309.594
309.952
310.35
310.791
311.281
311.825
312.43
313.101
313.846
314.673
315.59
316.606
317.731
318.977
320.355
321.88
323.566
325.432
327.496
329.781
332.313
335.125
338.253
341.745
345.66
350.076
355.091
360.83
367.405
300.117
300.356
300.6
300.848
301.098
301.348
301.597
301.843
302.086
302.325
302.558
302.785
303.007
303.221
303.429
303.631
303.825
304.012
304.193
304.368
304.536
304.698
304.854
305.005
305.15
305.291
305.427
305.559
305.688
305.813
305.935
306.055
306.173
306.289
306.405
306.52
306.636
306.754
306.874
306.997
307.124
307.257
307.397
307.545
307.703
307.873
308.058
308.258
308.476
308.716
308.98
309.271
309.594
309.951
310.347
310.787
311.275
311.817
312.42
313.088
313.83
314.653
315.565
316.575
317.694
318.932
320.3
321.812
323.484
325.33
327.37
329.624
332.116
334.875
337.931
341.322
345.091
349.285
353.952
359.121
364.751
300.118
300.357
300.601
300.85
301.1
301.35
301.6
301.847
302.09
302.329
302.563
302.791
303.012
303.228
303.436
303.637
303.832
304.02
304.201
304.376
304.544
304.706
304.862
305.013
305.159
305.3
305.436
305.569
305.697
305.822
305.944
306.064
306.182
306.298
306.414
306.529
306.645
306.763
306.882
307.005
307.132
307.265
307.404
307.552
307.71
307.88
308.063
308.263
308.48
308.719
308.982
309.272
309.593
309.949
310.343
310.78
311.266
311.805
312.403
313.067
313.804
314.62
315.525
316.526
317.633
318.857
320.21
321.702
323.349
325.164
327.166
329.371
331.801
334.477
337.424
340.667
344.233
348.142
352.404
356.999
361.857
300.118
300.358
300.603
300.852
301.103
301.354
301.604
301.852
302.096
302.335
302.57
302.798
303.021
303.236
303.445
303.647
303.843
304.031
304.212
304.387
304.556
304.718
304.875
305.026
305.172
305.313
305.45
305.582
305.711
305.836
305.958
306.078
306.196
306.312
306.427
306.543
306.658
306.776
306.895
307.018
307.144
307.277
307.416
307.563
307.72
307.889
308.072
308.27
308.487
308.724
308.986
309.274
309.593
309.945
310.337
310.771
311.252
311.786
312.379
313.037
313.765
314.573
315.466
316.454
317.545
318.75
320.079
321.543
323.155
324.928
326.875
329.014
331.358
333.925
336.732
339.792
343.118
346.711
350.561
354.633
358.863
300.118
300.359
300.605
300.855
301.107
301.359
301.61
301.859
302.104
302.344
302.58
302.809
303.032
303.249
303.459
303.661
303.857
304.046
304.228
304.404
304.573
304.736
304.893
305.044
305.191
305.332
305.469
305.601
305.73
305.855
305.977
306.097
306.215
306.331
306.446
306.561
306.677
306.794
306.913
307.035
307.161
307.293
307.431
307.578
307.734
307.902
308.083
308.28
308.495
308.731
308.99
309.276
309.592
309.941
310.329
310.758
311.234
311.762
312.347
312.995
313.713
314.508
315.386
316.357
317.427
318.606
319.904
321.331
322.897
324.614
326.493
328.547
330.786
333.222
335.864
338.717
341.784
345.055
348.513
352.122
355.83
300.119
300.36
300.608
300.859
301.112
301.366
301.618
301.868
302.114
302.356
302.593
302.823
303.048
303.265
303.476
303.68
303.876
304.066
304.249
304.425
304.595
304.758
304.916
305.068
305.215
305.356
305.493
305.626
305.755
305.88
306.003
306.122
306.24
306.356
306.471
306.586
306.701
306.818
306.936
307.058
307.184
307.315
307.452
307.598
307.753
307.919
308.099
308.294
308.507
308.741
308.997
309.279
309.591
309.936
310.318
310.741
311.21
311.73
312.305
312.942
313.646
314.425
315.284
316.231
317.275
318.421
319.681
321.061
322.571
324.22
326.017
327.97
330.088
332.375
334.836
337.471
340.274
343.233
346.328
349.527
352.793
300.12
300.363
300.612
300.864
301.119
301.374
301.628
301.88
302.128
302.371
302.609
302.842
303.067
303.286
303.499
303.703
303.901
304.092
304.276
304.453
304.624
304.788
304.946
305.099
305.246
305.388
305.526
305.659
305.788
305.913
306.036
306.155
306.273
306.389
306.504
306.618
306.733
306.849
306.967
307.088
307.213
307.343
307.479
307.624
307.777
307.942
308.12
308.313
308.523
308.753
309.006
309.284
309.591
309.931
310.306
310.722
311.182
311.69
312.254
312.876
313.563
314.322
315.157
316.077
317.087
318.194
319.407
320.732
322.176
323.746
325.448
327.289
329.273
331.4
333.672
336.085
338.63
341.293
344.057
346.895
349.778
300.121
300.365
300.616
300.871
301.128
301.385
301.641
301.895
302.145
302.391
302.631
302.865
303.093
303.313
303.527
303.734
303.933
304.125
304.31
304.488
304.66
304.825
304.985
305.138
305.286
305.428
305.566
305.7
305.829
305.955
306.077
306.197
306.314
306.43
306.545
306.659
306.773
306.889
307.006
307.126
307.25
307.379
307.514
307.657
307.808
307.971
308.147
308.337
308.544
308.77
309.018
309.292
309.593
309.925
310.292
310.699
311.147
311.644
312.192
312.797
313.464
314.198
315.005
315.892
316.863
317.924
319.083
320.344
321.713
323.195
324.794
326.513
328.354
330.316
332.397
334.591
336.888
339.277
341.74
344.257
346.806
300.122
300.369
300.622
300.88
301.139
301.399
301.658
301.914
302.167
302.415
302.657
302.894
303.124
303.347
303.562
303.771
303.972
304.166
304.353
304.532
304.705
304.872
305.032
305.187
305.335
305.479
305.617
305.751
305.881
306.007
306.129
306.249
306.366
306.482
306.596
306.71
306.824
306.939
307.055
307.174
307.297
307.424
307.558
307.698
307.848
308.008
308.18
308.367
308.57
308.792
309.035
309.302
309.596
309.92
310.278
310.673
311.109
311.59
312.12
312.704
313.347
314.054
314.828
315.676
316.603
317.613
318.71
319.901
321.188
322.574
324.062
325.654
327.349
329.144
331.037
333.02
335.085
337.219
339.41
341.642
343.896
300.123
300.373
300.63
300.89
301.153
301.416
301.678
301.937
302.193
302.444
302.69
302.929
303.162
303.388
303.606
303.817
304.02
304.216
304.405
304.587
304.761
304.929
305.091
305.247
305.396
305.541
305.68
305.814
305.945
306.071
306.194
306.313
306.431
306.546
306.66
306.773
306.886
307
307.116
307.233
307.355
307.48
307.612
307.75
307.897
308.054
308.223
308.406
308.604
308.821
309.057
309.317
309.603
309.917
310.264
310.646
311.066
311.53
312.04
312.6
313.216
313.89
314.628
315.433
316.31
317.263
318.294
319.408
320.607
321.893
323.267
324.729
326.277
327.909
329.619
331.403
333.25
335.153
337.098
339.074
341.068
300.125
300.378
300.638
300.903
301.169
301.436
301.702
301.965
302.225
302.48
302.729
302.972
303.209
303.438
303.659
303.873
304.079
304.278
304.469
304.653
304.83
304.999
305.163
305.32
305.471
305.616
305.757
305.892
306.023
306.149
306.272
306.392
306.509
306.625
306.738
306.851
306.963
307.076
307.19
307.306
307.426
307.55
307.679
307.815
307.958
308.112
308.277
308.455
308.648
308.858
309.087
309.339
309.615
309.918
310.252
310.619
311.022
311.466
311.953
312.487
313.072
313.711
314.408
315.166
315.989
316.88
317.841
318.875
319.983
321.166
322.424
323.756
325.16
326.634
328.171
329.767
331.414
333.104
334.828
336.576
338.338
300.127
300.385
300.649
300.918
301.189
301.461
301.731
301.999
302.264
302.523
302.777
303.025
303.265
303.498
303.723
303.941
304.15
304.352
304.546
304.733
304.912
305.084
305.25
305.409
305.561
305.708
305.849
305.986
306.117
306.244
306.368
306.488
306.605
306.72
306.833
306.945
307.056
307.168
307.281
307.395
307.513
307.634
307.761
307.894
308.034
308.183
308.344
308.516
308.703
308.906
309.127
309.369
309.634
309.925
310.244
310.594
310.979
311.4
311.862
312.367
312.918
313.519
314.172
314.88
315.646
316.472
317.36
318.311
319.327
320.407
321.55
322.756
324.021
325.343
326.718
328.14
329.603
331.1
332.625
334.169
335.723
300.129
300.392
300.662
300.936
301.213
301.49
301.766
302.04
302.31
302.575
302.835
303.087
303.333
303.57
303.8
304.022
304.236
304.442
304.639
304.829
305.012
305.187
305.354
305.515
305.67
305.819
305.961
306.099
306.231
306.359
306.483
306.603
306.72
306.835
306.947
307.058
307.169
307.279
307.39
307.503
307.618
307.737
307.861
307.99
308.126
308.271
308.426
308.593
308.772
308.968
309.18
309.411
309.664
309.941
310.244
310.576
310.94
311.337
311.771
312.245
312.76
313.32
313.927
314.583
315.29
316.05
316.863
317.732
318.655
319.633
320.664
321.748
322.882
324.062
325.285
326.546
327.841
329.164
330.509
331.87
333.24
300.132
300.401
300.677
300.958
301.241
301.525
301.808
302.089
302.366
302.637
302.903
303.162
303.413
303.657
303.892
304.119
304.338
304.548
304.75
304.944
305.13
305.309
305.48
305.643
305.8
305.951
306.095
306.234
306.368
306.496
306.621
306.741
306.858
306.972
307.084
307.194
307.304
307.413
307.522
307.633
307.746
307.862
307.982
308.107
308.239
308.379
308.528
308.688
308.86
309.046
309.248
309.468
309.708
309.97
310.256
310.569
310.91
311.281
311.686
312.127
312.605
313.123
313.682
314.284
314.931
315.624
316.364
317.15
317.983
318.862
319.787
320.755
321.764
322.812
323.895
325.01
326.153
327.318
328.501
329.698
330.903
300.136
300.412
300.695
300.984
301.275
301.567
301.858
302.147
302.432
302.711
302.984
303.251
303.509
303.76
304.002
304.235
304.46
304.676
304.883
305.081
305.272
305.454
305.629
305.795
305.955
306.108
306.255
306.395
306.53
306.66
306.785
306.905
307.022
307.136
307.248
307.357
307.465
307.572
307.68
307.788
307.898
308.011
308.128
308.249
308.376
308.51
308.653
308.805
308.969
309.146
309.337
309.545
309.771
310.017
310.285
310.576
310.894
311.239
311.614
312.02
312.46
312.934
313.445
313.994
314.582
315.208
315.875
316.582
317.328
318.114
318.937
319.796
320.69
321.616
322.571
323.553
324.557
325.58
326.619
327.669
328.727
300.14
300.425
300.717
301.014
301.315
301.616
301.917
302.215
302.509
302.798
303.081
303.356
303.623
303.881
304.131
304.372
304.604
304.826
305.039
305.244
305.439
305.626
305.805
305.976
306.139
306.294
306.443
306.586
306.722
306.853
306.979
307.1
307.217
307.331
307.441
307.55
307.656
307.762
307.867
307.973
308.08
308.19
308.302
308.419
308.541
308.669
308.805
308.95
309.105
309.271
309.451
309.646
309.857
310.086
310.335
310.605
310.898
311.216
311.56
311.932
312.333
312.765
313.228
313.724
314.253
314.816
315.413
316.043
316.708
317.404
318.133
318.892
319.68
320.494
321.332
322.193
323.073
323.969
324.878
325.798
326.724
300.145
300.44
300.742
301.05
301.362
301.675
301.986
302.296
302.601
302.901
303.194
303.479
303.757
304.025
304.284
304.533
304.773
305.004
305.224
305.435
305.637
305.829
306.013
306.188
306.355
306.514
306.666
306.81
306.949
307.081
307.208
307.329
307.447
307.56
307.67
307.777
307.882
307.986
308.089
308.192
308.296
308.402
308.51
308.622
308.738
308.86
308.989
309.125
309.271
309.427
309.595
309.777
309.972
310.184
310.414
310.662
310.931
311.221
311.534
311.872
312.235
312.624
313.041
313.486
313.959
314.46
314.991
315.55
316.137
316.752
317.393
318.06
318.75
319.463
320.197
320.948
321.717
322.499
323.292
324.095
324.905
300.151
300.457
300.772
301.093
301.417
301.743
302.068
302.391
302.709
303.021
303.327
303.625
303.914
304.193
304.463
304.723
304.973
305.212
305.441
305.66
305.868
306.067
306.257
306.437
306.608
306.771
306.926
307.074
307.214
307.348
307.476
307.598
307.716
307.829
307.938
308.044
308.148
308.249
308.35
308.45
308.551
308.652
308.756
308.863
308.973
309.088
309.21
309.338
309.474
309.619
309.775
309.943
310.123
310.318
310.528
310.754
310.998
311.262
311.545
311.849
312.175
312.523
312.895
313.291
313.711
314.155
314.624
315.116
315.633
316.172
316.733
317.316
317.919
318.54
319.179
319.833
320.502
321.182
321.873
322.572
323.278
300.158
300.478
300.807
301.143
301.482
301.823
302.164
302.502
302.835
303.163
303.483
303.795
304.098
304.391
304.674
304.945
305.206
305.456
305.695
305.922
306.139
306.345
306.541
306.727
306.904
307.071
307.23
307.38
307.523
307.659
307.788
307.911
308.029
308.142
308.25
308.355
308.457
308.557
308.655
308.752
308.849
308.947
309.045
309.147
309.251
309.359
309.473
309.592
309.719
309.853
309.997
310.15
310.315
310.493
310.683
310.888
311.109
311.346
311.6
311.872
312.162
312.472
312.802
313.152
313.522
313.913
314.325
314.756
315.207
315.678
316.167
316.674
317.198
317.738
318.292
318.86
319.44
320.03
320.629
321.236
321.849
300.166
300.502
300.848
301.201
301.558
301.917
302.276
302.632
302.983
303.328
303.665
303.994
304.313
304.622
304.919
305.205
305.478
305.74
305.99
306.228
306.454
306.669
306.872
307.065
307.247
307.419
307.582
307.736
307.881
308.019
308.15
308.274
308.392
308.505
308.612
308.716
308.816
308.914
309.009
309.103
309.196
309.289
309.383
309.479
309.577
309.679
309.784
309.895
310.011
310.135
310.266
310.406
310.556
310.717
310.889
311.073
311.271
311.482
311.708
311.95
312.207
312.481
312.772
313.079
313.404
313.746
314.105
314.481
314.874
315.282
315.707
316.146
316.6
317.067
317.546
318.037
318.538
319.049
319.567
320.093
320.624
300.175
300.53
300.896
301.269
301.647
302.027
302.406
302.783
303.155
303.521
303.878
304.226
304.564
304.89
305.204
305.506
305.795
306.07
306.333
306.582
306.819
307.043
307.254
307.454
307.643
307.82
307.988
308.145
308.294
308.434
308.566
308.691
308.81
308.922
309.029
309.132
309.23
309.325
309.418
309.508
309.598
309.686
309.775
309.865
309.957
310.052
310.149
310.251
310.358
310.471
310.59
310.717
310.852
310.996
311.15
311.315
311.491
311.678
311.879
312.092
312.318
312.559
312.813
313.082
313.365
313.663
313.975
314.301
314.641
314.995
315.362
315.741
316.133
316.536
316.949
317.372
317.804
318.244
318.692
319.145
319.604
300.186
300.563
300.952
301.348
301.75
302.154
302.558
302.96
303.356
303.745
304.126
304.496
304.855
305.202
305.535
305.855
306.16
306.451
306.728
306.99
307.238
307.473
307.694
307.901
308.097
308.281
308.453
308.615
308.767
308.909
309.043
309.169
309.288
309.4
309.506
309.607
309.704
309.797
309.886
309.973
310.058
310.143
310.227
310.311
310.396
310.484
310.573
310.667
310.764
310.866
310.974
311.088
311.209
311.338
311.475
311.621
311.776
311.942
312.118
312.305
312.504
312.714
312.935
313.169
313.415
313.673
313.943
314.225
314.519
314.824
315.139
315.466
315.803
316.149
316.504
316.868
317.24
317.618
318.003
318.394
318.79
300.198
300.602
301.017
301.441
301.871
302.303
302.735
303.165
303.589
304.005
304.412
304.808
305.192
305.562
305.917
306.257
306.581
306.889
307.182
307.458
307.719
307.965
308.196
308.412
308.615
308.806
308.983
309.149
309.305
309.45
309.585
309.712
309.831
309.943
310.048
310.148
310.242
310.333
310.419
310.502
310.584
310.663
310.742
310.82
310.9
310.98
311.062
311.147
311.235
311.327
311.423
311.525
311.633
311.747
311.868
311.997
312.134
312.279
312.434
312.597
312.77
312.952
313.145
313.347
313.56
313.783
314.016
314.258
314.511
314.773
315.044
315.325
315.614
315.911
316.216
316.528
316.847
317.171
317.502
317.838
318.178
300.213
300.647
301.093
301.549
302.011
302.476
302.941
303.403
303.859
304.307
304.744
305.169
305.581
305.976
306.356
306.719
307.064
307.391
307.701
307.993
308.267
308.525
308.767
308.993
309.204
309.4
309.584
309.754
309.913
310.06
310.198
310.325
310.445
310.556
310.66
310.758
310.85
310.938
311.021
311.1
311.177
311.252
311.326
311.399
311.471
311.545
311.62
311.696
311.775
311.858
311.944
312.034
312.129
312.23
312.337
312.45
312.569
312.696
312.83
312.972
313.122
313.28
313.447
313.622
313.805
313.997
314.197
314.406
314.622
314.847
315.08
315.32
315.568
315.822
316.083
316.35
316.623
316.902
317.185
317.473
317.765
300.23
300.699
301.181
301.674
302.173
302.676
303.179
303.679
304.172
304.655
305.127
305.585
306.027
306.452
306.859
307.247
307.614
307.962
308.291
308.599
308.889
309.16
309.412
309.648
309.867
310.07
310.259
310.434
310.596
310.746
310.884
311.013
311.132
311.242
311.345
311.441
311.531
311.615
311.695
311.771
311.843
311.914
311.982
312.049
312.116
312.182
312.25
312.319
312.389
312.463
312.539
312.618
312.702
312.791
312.884
312.982
313.087
313.197
313.313
313.436
313.566
313.702
313.846
313.996
314.154
314.319
314.491
314.669
314.855
315.048
315.247
315.453
315.664
315.882
316.105
316.334
316.568
316.806
317.049
317.295
317.546
300.25
300.759
301.283
301.819
302.362
302.909
303.455
303.998
304.533
305.057
305.568
306.063
306.539
306.996
307.433
307.847
308.24
308.61
308.958
309.284
309.589
309.873
310.137
310.383
310.61
310.82
311.014
311.192
311.357
311.509
311.649
311.778
311.896
312.006
312.107
312.2
312.287
312.368
312.445
312.516
312.585
312.65
312.713
312.774
312.835
312.895
312.956
313.017
313.08
313.145
313.212
313.282
313.355
313.432
313.513
313.599
313.689
313.784
313.885
313.991
314.103
314.221
314.344
314.473
314.609
314.75
314.898
315.051
315.21
315.375
315.546
315.722
315.903
316.089
316.28
316.475
316.675
316.879
317.087
317.298
317.513
300.273
300.83
301.402
301.987
302.581
303.178
303.774
304.366
304.949
305.519
306.073
306.609
307.124
307.616
308.084
308.528
308.947
309.341
309.709
310.053
310.374
310.671
310.947
311.201
311.436
311.652
311.85
312.033
312.2
312.353
312.493
312.622
312.739
312.847
312.946
313.037
313.121
313.199
313.271
313.338
313.402
313.462
313.52
313.576
313.631
313.685
313.739
313.794
313.849
313.906
313.964
314.025
314.089
314.156
314.226
314.301
314.379
314.461
314.548
314.64
314.736
314.837
314.943
315.055
315.171
315.292
315.419
315.55
315.687
315.828
315.974
316.125
316.28
316.439
316.603
316.77
316.942
317.116
317.294
317.475
317.659
300.3
300.911
301.54
302.183
302.834
303.489
304.142
304.79
305.426
306.048
306.65
307.231
307.788
308.318
308.821
309.296
309.742
310.159
310.549
310.911
311.247
311.557
311.843
312.106
312.347
312.569
312.771
312.956
313.125
313.278
313.418
313.545
313.661
313.767
313.863
313.951
314.031
314.105
314.174
314.237
314.296
314.352
314.404
314.455
314.504
314.553
314.601
314.649
314.697
314.747
314.798
314.851
314.907
314.965
315.025
315.09
315.157
315.228
315.303
315.382
315.465
315.553
315.644
315.74
315.84
315.945
316.054
316.167
316.284
316.405
316.531
316.66
316.793
316.93
317.071
317.214
317.361
317.511
317.664
317.819
317.977
300.332
301.006
301.7
302.408
303.126
303.848
304.566
305.277
305.974
306.652
307.308
307.938
308.539
309.11
309.649
310.155
310.629
311.071
311.481
311.86
312.21
312.532
312.828
313.098
313.345
313.57
313.775
313.961
314.13
314.283
314.421
314.547
314.66
314.763
314.856
314.94
315.017
315.087
315.151
315.21
315.264
315.316
315.364
315.409
315.454
315.497
315.539
315.581
315.624
315.668
315.712
315.759
315.807
315.857
315.91
315.966
316.024
316.086
316.151
316.22
316.292
316.367
316.447
316.53
316.616
316.707
316.801
316.898
317
317.104
317.213
317.324
317.439
317.557
317.678
317.802
317.928
318.057
318.189
318.323
318.458
300.368
301.115
301.885
302.67
303.464
304.261
305.054
305.835
306.599
307.34
308.054
308.736
309.385
309.998
310.574
311.113
311.614
312.078
312.508
312.903
313.265
313.597
313.899
314.175
314.425
314.652
314.858
315.044
315.212
315.363
315.499
315.621
315.732
315.831
315.92
316.001
316.073
316.139
316.199
316.254
316.304
316.351
316.395
316.436
316.476
316.515
316.552
316.59
316.628
316.666
316.706
316.746
316.789
316.833
316.879
316.928
316.98
317.034
317.091
317.151
317.214
317.28
317.349
317.422
317.498
317.576
317.658
317.744
317.832
317.923
318.017
318.114
318.214
318.316
318.421
318.528
318.638
318.75
318.863
318.979
319.097
300.41
301.242
302.098
302.971
303.853
304.736
305.612
306.472
307.31
308.12
308.896
309.634
310.332
310.987
311.6
312.169
312.696
313.181
313.627
314.035
314.407
314.745
315.052
315.331
315.582
315.809
316.013
316.197
316.362
316.51
316.643
316.762
316.868
316.963
317.049
317.125
317.194
317.256
317.312
317.363
317.41
317.453
317.493
317.531
317.568
317.603
317.637
317.671
317.705
317.74
317.776
317.812
317.85
317.89
317.932
317.975
318.022
318.07
318.121
318.174
318.23
318.289
318.351
318.415
318.482
318.552
318.624
318.7
318.777
318.858
318.94
319.026
319.113
319.203
319.294
319.388
319.484
319.582
319.681
319.781
319.884
300.458
301.389
302.345
303.319
304.301
305.281
306.25
307.197
308.116
308.999
309.84
310.635
311.382
312.079
312.726
313.323
313.872
314.374
314.832
315.249
315.627
315.968
316.277
316.555
316.804
317.028
317.229
317.409
317.57
317.714
317.842
317.956
318.058
318.149
318.231
318.304
318.369
318.428
318.481
318.529
318.573
318.614
318.652
318.688
318.722
318.755
318.788
318.82
318.852
318.885
318.918
318.952
318.988
319.025
319.064
319.104
319.147
319.191
319.238
319.287
319.339
319.392
319.448
319.507
319.567
319.63
319.695
319.763
319.833
319.904
319.978
320.054
320.132
320.211
320.292
320.375
320.46
320.546
320.633
320.721
320.811
300.514
301.558
302.629
303.718
304.814
305.903
306.975
308.018
309.023
309.983
310.89
311.742
312.536
313.271
313.948
314.568
315.133
315.646
316.111
316.532
316.91
317.251
317.556
317.83
318.075
318.294
318.489
318.663
318.819
318.957
319.08
319.19
319.288
319.376
319.454
319.524
319.586
319.643
319.695
319.741
319.785
319.825
319.862
319.898
319.932
319.965
319.997
320.029
320.061
320.094
320.127
320.161
320.196
320.232
320.27
320.31
320.351
320.393
320.438
320.485
320.533
320.584
320.636
320.69
320.747
320.805
320.865
320.927
320.991
321.056
321.123
321.192
321.262
321.333
321.406
321.48
321.556
321.632
321.71
321.788
321.867
300.578
301.753
302.956
304.176
305.399
306.61
307.795
308.941
310.036
311.073
312.046
312.951
313.787
314.553
315.252
315.887
316.461
316.978
317.443
317.861
318.234
318.569
318.867
319.134
319.371
319.582
319.771
319.938
320.087
320.22
320.339
320.445
320.539
320.624
320.7
320.768
320.831
320.887
320.939
320.986
321.03
321.072
321.111
321.148
321.184
321.22
321.254
321.288
321.323
321.357
321.393
321.428
321.465
321.503
321.542
321.582
321.624
321.667
321.711
321.757
321.805
321.854
321.904
321.957
322.01
322.066
322.122
322.18
322.24
322.3
322.362
322.425
322.49
322.555
322.621
322.688
322.756
322.825
322.895
322.965
323.035
300.652
301.976
303.33
304.699
306.065
307.409
308.716
309.968
311.155
312.268
313.3
314.249
315.116
315.904
316.616
317.256
317.828
318.34
318.797
319.205
319.568
319.891
320.179
320.434
320.662
320.865
321.045
321.206
321.349
321.478
321.593
321.696
321.789
321.873
321.949
322.019
322.082
322.141
322.195
322.246
322.294
322.339
322.382
322.424
322.465
322.504
322.544
322.582
322.621
322.66
322.699
322.739
322.779
322.82
322.862
322.905
322.949
322.994
323.039
323.086
323.135
323.184
323.234
323.285
323.338
323.391
323.446
323.501
323.558
323.615
323.673
323.732
323.792
323.852
323.913
323.974
324.036
324.098
324.161
324.224
324.287
300.737
302.23
303.755
305.291
306.815
308.305
309.739
311.099
312.373
313.554
314.633
315.611
316.492
317.284
317.992
318.623
319.185
319.685
320.128
320.521
320.87
321.179
321.454
321.699
321.916
322.11
322.283
322.438
322.578
322.703
322.816
322.919
323.013
323.098
323.177
323.25
323.318
323.381
323.44
323.497
323.551
323.602
323.652
323.7
323.747
323.794
323.839
323.885
323.93
323.975
324.02
324.065
324.11
324.156
324.202
324.248
324.295
324.343
324.391
324.44
324.489
324.54
324.59
324.642
324.694
324.746
324.799
324.853
324.907
324.962
325.016
325.072
325.127
325.183
325.239
325.296
325.352
325.409
325.466
325.522
325.579
300.832
302.519
304.237
305.958
307.655
309.297
310.862
312.321
313.66
314.879
315.979
316.967
317.849
318.633
319.328
319.944
320.488
320.968
321.393
321.768
322.1
322.394
322.655
322.888
323.095
323.281
323.449
323.599
323.736
323.86
323.974
324.078
324.175
324.264
324.348
324.426
324.5
324.57
324.637
324.701
324.762
324.822
324.879
324.936
324.991
325.045
325.098
325.151
325.203
325.255
325.306
325.357
325.408
325.459
325.509
325.56
325.61
325.661
325.712
325.763
325.814
325.865
325.917
325.968
326.02
326.071
326.123
326.175
326.227
326.279
326.331
326.383
326.435
326.487
326.538
326.59
326.641
326.693
326.744
326.794
326.845
300.939
302.842
304.775
306.7
308.583
310.368
312.027
313.549
314.929
316.169
317.276
318.259
319.127
319.892
320.565
321.157
321.676
322.132
322.534
322.889
323.202
323.48
323.728
323.949
324.148
324.327
324.489
324.637
324.773
324.898
325.013
325.121
325.222
325.316
325.406
325.491
325.572
325.649
325.724
325.796
325.865
325.933
325.999
326.063
326.126
326.188
326.249
326.309
326.367
326.425
326.483
326.539
326.595
326.65
326.705
326.759
326.813
326.866
326.919
326.972
327.024
327.076
327.128
327.179
327.23
327.281
327.331
327.381
327.431
327.48
327.529
327.577
327.626
327.673
327.721
327.768
327.814
327.86
327.906
327.951
327.995
301.053
303.189
305.356
307.492
309.518
311.405
313.132
314.694
316.092
317.333
318.428
319.39
320.232
320.968
321.611
322.172
322.662
323.092
323.47
323.803
324.098
324.36
324.595
324.806
324.996
325.17
325.328
325.474
325.61
325.735
325.853
325.964
326.069
326.168
326.263
326.354
326.441
326.525
326.607
326.685
326.762
326.836
326.909
326.98
327.049
327.117
327.183
327.248
327.312
327.375
327.436
327.497
327.557
327.615
327.673
327.729
327.785
327.84
327.895
327.948
328.001
328.053
328.105
328.155
328.205
328.255
328.303
328.351
328.399
328.446
328.492
328.537
328.582
328.626
328.669
328.712
328.754
328.796
328.837
328.877
328.917
301.155
303.508
305.884
308.158
310.282
312.23
313.989
315.56
316.951
318.174
319.243
320.175
320.986
321.69
322.303
322.835
323.3
323.707
324.065
324.38
324.66
324.91
325.134
325.337
325.521
325.69
325.846
325.99
326.124
326.25
326.369
326.481
326.588
326.69
326.788
326.882
326.973
327.06
327.145
327.228
327.308
327.386
327.462
327.536
327.609
327.68
327.749
327.817
327.884
327.949
328.013
328.075
328.137
328.197
328.256
328.314
328.371
328.427
328.482
328.536
328.589
328.641
328.692
328.742
328.792
328.84
328.888
328.935
328.98
329.025
329.07
329.113
329.156
329.197
329.238
329.279
329.318
329.357
329.395
329.432
329.468
379.535
387.463
394.139
399.969
405.151
409.793
413.956
417.674
420.961
423.819
426.235
428.187
429.641
430.548
430.841
430.428
429.181
426.903
423.263
417.602
408.273
401.965
397.136
393.185
389.825
386.894
384.29
381.946
379.811
377.852
376.038
374.35
372.769
371.28
369.873
368.537
367.264
366.047
364.879
363.755
362.671
361.622
360.605
359.616
358.653
357.713
356.794
355.893
355.01
354.142
353.288
352.447
351.617
350.798
349.988
349.186
348.393
347.607
346.827
346.054
345.287
344.525
343.769
343.018
342.272
341.532
340.796
340.065
339.339
338.618
337.903
337.192
336.487
335.788
335.095
334.407
333.726
333.052
332.384
331.724
331.071
330.426
329.789
329.161
328.541
327.931
327.331
326.74
326.16
325.59
325.032
324.485
323.949
323.425
322.913
322.413
321.926
321.451
320.989
320.54
320.103
319.68
319.269
318.87
318.485
318.111
317.75
317.402
317.065
316.74
316.426
316.124
315.832
315.552
315.281
315.02
314.769
314.528
314.295
314.071
313.855
313.647
313.447
313.253
313.067
312.887
312.713
312.545
312.383
312.225
312.073
311.925
311.782
311.643
311.507
311.375
311.247
311.122
310.999
310.88
310.763
310.648
310.536
310.425
310.317
310.211
310.106
310.003
309.901
309.801
309.702
309.604
309.508
309.413
309.319
309.225
309.133
309.042
308.953
308.864
308.778
374.799
381.683
387.889
393.472
398.511
403.065
407.172
410.855
414.121
416.97
419.386
421.348
422.82
423.757
424.095
423.751
422.611
420.521
417.262
412.566
406.387
401.047
396.594
392.825
389.566
386.698
384.137
381.823
379.711
377.768
375.969
374.291
372.718
371.237
369.835
368.504
367.235
366.021
364.856
363.735
362.653
361.606
360.59
359.603
358.641
357.702
356.784
355.885
355.003
354.135
353.282
352.441
351.612
350.793
349.983
349.182
348.389
347.603
346.824
346.051
345.284
344.522
343.766
343.016
342.27
341.529
340.793
340.062
339.337
338.616
337.9
337.19
336.485
335.786
335.093
334.405
333.724
333.05
332.382
331.722
331.069
330.424
329.787
329.159
328.539
327.929
327.329
326.738
326.158
325.588
325.03
324.483
323.947
323.423
322.911
322.411
321.924
321.45
320.988
320.538
320.102
319.678
319.267
318.869
318.483
318.11
317.749
317.401
317.064
316.739
316.425
316.123
315.832
315.551
315.28
315.02
314.769
314.527
314.295
314.071
313.855
313.647
313.446
313.253
313.067
312.887
312.713
312.545
312.383
312.225
312.073
311.925
311.782
311.643
311.507
311.376
311.247
311.122
310.999
310.88
310.763
310.648
310.536
310.426
310.317
310.211
310.106
310.003
309.901
309.801
309.702
309.605
309.508
309.413
309.319
309.226
309.134
309.043
308.953
308.864
308.778
370.718
376.603
382.174
387.353
392.126
396.499
400.482
404.081
407.294
410.112
412.519
414.491
415.994
416.985
417.409
417.196
416.258
414.494
411.798
408.124
403.688
399.384
395.501
392.059
389.002
386.266
383.797
381.549
379.487
377.582
375.813
374.159
372.605
371.14
369.752
368.432
367.172
365.966
364.808
363.692
362.615
361.572
360.56
359.576
358.617
357.681
356.765
355.867
354.987
354.121
353.269
352.429
351.601
350.783
349.974
349.174
348.381
347.596
346.817
346.044
345.278
344.517
343.761
343.01
342.265
341.524
340.789
340.058
339.332
338.612
337.896
337.186
336.481
335.782
335.089