/*--------------------------------*- C++ -*----------------------------------*\
  =========                 |
  \\      /  F ield         | OpenFOAM: The Open Source CFD Toolbox
   \\    /   O peration     | Website:  https://openfoam.org
    \\  /    A nd           | Version:  7
     \\/     M anipulation  |
\*---------------------------------------------------------------------------*/
FoamFile
{
    version     2.0;
    format      ascii;
    class       volVectorField;
    location    "7.14";
    object      U;
}
// * * * * * * * * * * * * * * * * * * * * * * * * * * * * * * * * * * * * * //

dimensions      [0 1 -1 0 0 0 0];

internalField   nonuniform List<vector> 
12013
(
(0.100868 -0.000234024 0)
(0.104271 -0.000410249 0)
(0.109482 -0.000564466 0)
(0.116005 -0.000701419 0)
(0.123688 -0.000826479 0)
(0.132394 -0.000943529 0)
(0.142014 -0.00105561 0)
(0.152476 -0.00116515 0)
(0.163728 -0.0012738 0)
(0.175732 -0.00138241 0)
(0.188454 -0.00149095 0)
(0.201858 -0.00159859 0)
(0.215899 -0.00170379 0)
(0.230517 -0.00180457 0)
(0.245641 -0.00189876 0)
(0.261183 -0.00198419 0)
(0.277045 -0.00205898 0)
(0.29312 -0.00212162 0)
(0.309299 -0.00217108 0)
(0.325474 -0.00220681 0)
(0.341538 -0.00222872 0)
(0.357394 -0.00223711 0)
(0.372953 -0.00223262 0)
(0.388136 -0.0022161 0)
(0.402876 -0.00218857 0)
(0.417118 -0.00215114 0)
(0.430815 -0.00210493 0)
(0.443934 -0.00205111 0)
(0.456449 -0.00199074 0)
(0.468343 -0.00192486 0)
(0.479606 -0.00185441 0)
(0.490236 -0.00178029 0)
(0.500236 -0.00170324 0)
(0.509613 -0.00162396 0)
(0.518377 -0.0015431 0)
(0.526544 -0.00146118 0)
(0.534131 -0.00137866 0)
(0.541156 -0.00129595 0)
(0.547641 -0.00121342 0)
(0.553608 -0.00113137 0)
(0.55908 -0.00105004 0)
(0.56408 -0.000969624 0)
(0.568633 -0.000890317 0)
(0.572763 -0.000812267 0)
(0.576495 -0.000735575 0)
(0.579853 -0.000660308 0)
(0.582861 -0.000586513 0)
(0.585544 -0.000514212 0)
(0.587925 -0.000443395 0)
(0.590028 -0.000374012 0)
(0.591875 -0.000305973 0)
(0.59349 -0.000239153 0)
(0.594894 -0.000173384 0)
(0.596108 -0.000108449 0)
(0.597152 -4.40696e-05 0)
(0.598047 2.00613e-05 0)
(0.59881 8.42949e-05 0)
(0.59946 0.000149052 0)
(0.600015 0.000214878 0)
(0.600489 0.000282451 0)
(0.600898 0.000352595 0)
(0.601255 0.000426315 0)
(0.601569 0.000504844 0)
(0.601851 0.000589704 0)
(0.602105 0.000682791 0)
(0.602334 0.000786489 0)
(0.602535 0.000903842 0)
(0.602701 0.0010388 0)
(0.602815 0.00119661 0)
(0.602852 0.00138436 0)
(0.602771 0.00161196 0)
(0.602513 0.00189367 0)
(0.601986 0.00225086 0)
(0.601054 0.00271685 0)
(0.599504 0.0033463 0)
(0.596999 0.00423369 0)
(0.592985 0.00555244 0)
(0.586478 0.00764721 0)
(0.575711 0.0113328 0)
(0.557572 0.019516 0)
(0.539355 0.0522701 0)
(0.100791 -0.000713054 0)
(0.104176 -0.00125576 0)
(0.10936 -0.00172815 0)
(0.11586 -0.00214695 0)
(0.123524 -0.00252915 0)
(0.132211 -0.00288659 0)
(0.141815 -0.00322865 0)
(0.152263 -0.00356275 0)
(0.163502 -0.00389401 0)
(0.175497 -0.004225 0)
(0.188213 -0.00455568 0)
(0.201615 -0.00488348 0)
(0.215658 -0.00520378 0)
(0.230284 -0.00551054 0)
(0.24542 -0.00579713 0)
(0.26098 -0.00605704 0)
(0.276864 -0.00628452 0)
(0.292967 -0.00647503 0)
(0.309176 -0.00662546 0)
(0.325384 -0.00673416 0)
(0.341483 -0.00680089 0)
(0.357375 -0.00682658 0)
(0.37297 -0.00681312 0)
(0.388189 -0.00676314 0)
(0.402965 -0.00667969 0)
(0.41724 -0.00656615 0)
(0.43097 -0.00642595 0)
(0.444119 -0.00626253 0)
(0.456663 -0.00607917 0)
(0.468583 -0.00587899 0)
(0.479871 -0.00566485 0)
(0.490524 -0.00543939 0)
(0.500543 -0.00520496 0)
(0.509938 -0.00496368 0)
(0.518718 -0.00471741 0)
(0.526899 -0.00446778 0)
(0.534498 -0.00421624 0)
(0.541533 -0.00396403 0)
(0.548026 -0.0037122 0)
(0.554 -0.00346167 0)
(0.559476 -0.00321321 0)
(0.564479 -0.00296748 0)
(0.569033 -0.00272501 0)
(0.573163 -0.00248622 0)
(0.576892 -0.00225144 0)
(0.580246 -0.0020209 0)
(0.583248 -0.00179476 0)
(0.585923 -0.00157307 0)
(0.588295 -0.00135578 0)
(0.590386 -0.00114275 0)
(0.592219 -0.000933702 0)
(0.593818 -0.000728273 0)
(0.595203 -0.000525948 0)
(0.596396 -0.000326052 0)
(0.597417 -0.000127728 0)
(0.598286 6.99641e-05 0)
(0.59902 0.000268047 0)
(0.599639 0.000467781 0)
(0.600158 0.00067082 0)
(0.600594 0.000879221 0)
(0.600962 0.00109549 0)
(0.601273 0.00132269 0)
(0.60154 0.00156455 0)
(0.601771 0.00182565 0)
(0.601971 0.0021117 0)
(0.602144 0.00242983 0)
(0.602288 0.00278913 0)
(0.602396 0.00320129 0)
(0.602457 0.00368172 0)
(0.602447 0.00425112 0)
(0.602333 0.00493803 0)
(0.602065 0.00578299 0)
(0.601572 0.00684541 0)
(0.60075 0.00821568 0)
(0.599449 0.0100368 0)
(0.597455 0.0125448 0)
(0.594467 0.0161451 0)
(0.590058 0.0215662 0)
(0.583683 0.0301913 0)
(0.575247 0.0447222 0)
(0.572645 0.0702292 0)
(0.100705 -0.00120813 0)
(0.10404 -0.00215136 0)
(0.109165 -0.00296562 0)
(0.115616 -0.00368712 0)
(0.123237 -0.00434543 0)
(0.131887 -0.00496098 0)
(0.141457 -0.00555001 0)
(0.151875 -0.00612544 0)
(0.163091 -0.00669615 0)
(0.175066 -0.00726667 0)
(0.187771 -0.00783695 0)
(0.201171 -0.0084026 0)
(0.215221 -0.00895562 0)
(0.229865 -0.00948559 0)
(0.24503 -0.00998098 0)
(0.260629 -0.0104305 0)
(0.276562 -0.0108241 0)
(0.292721 -0.011154 0)
(0.308996 -0.0114147 0)
(0.325273 -0.0116032 0)
(0.341445 -0.0117193 0)
(0.357412 -0.0117644 0)
(0.373082 -0.0117419 0)
(0.388376 -0.0116562 0)
(0.403224 -0.0115128 0)
(0.417569 -0.0113173 0)
(0.431366 -0.0110757 0)
(0.444577 -0.010794 0)
(0.457179 -0.0104779 0)
(0.469153 -0.0101327 0)
(0.480491 -0.00976339 0)
(0.491188 -0.00937452 0)
(0.501249 -0.00897016 0)
(0.510679 -0.00855395 0)
(0.519492 -0.00812911 0)
(0.527701 -0.00769847 0)
(0.535324 -0.00726449 0)
(0.54238 -0.00682931 0)
(0.54889 -0.00639475 0)
(0.554877 -0.0059624 0)
(0.560364 -0.00553357 0)
(0.565374 -0.00510939 0)
(0.569931 -0.00469074 0)
(0.574061 -0.00427835 0)
(0.577788 -0.00387279 0)
(0.581135 -0.00347447 0)
(0.584128 -0.00308361 0)
(0.586791 -0.00270029 0)
(0.589146 -0.0023244 0)
(0.591218 -0.0019557 0)
(0.593029 -0.00159372 0)
(0.594601 -0.00123782 0)
(0.595955 -0.000887087 0)
(0.597114 -0.000540345 0)
(0.598096 -0.000196115 0)
(0.598921 0.000147204 0)
(0.599608 0.00049135 0)
(0.600174 0.000838519 0)
(0.600636 0.00119155 0)
(0.601011 0.00155395 0)
(0.601311 0.00192996 0)
(0.601552 0.00232474 0)
(0.601742 0.00274455 0)
(0.601893 0.00319705 0)
(0.602009 0.00369168 0)
(0.602097 0.00424019 0)
(0.602155 0.00485738 0)
(0.602181 0.00556216 0)
(0.602167 0.00637906 0)
(0.602097 0.00734049 0)
(0.60195 0.00849021 0)
(0.601694 0.00988861 0)
(0.601288 0.0116211 0)
(0.600676 0.0138114 0)
(0.599798 0.0166435 0)
(0.59859 0.0203967 0)
(0.597025 0.0255029 0)
(0.595182 0.0326348 0)
(0.593434 0.0428484 0)
(0.592892 0.0577159 0)
(0.597428 0.0786234 0)
(0.100614 -0.00171303 0)
(0.10388 -0.00309275 0)
(0.10892 -0.00427436 0)
(0.115297 -0.00532188 0)
(0.122853 -0.00627736 0)
(0.131445 -0.00717057 0)
(0.140964 -0.00802539 0)
(0.151338 -0.00886074 0)
(0.162518 -0.00968972 0)
(0.174468 -0.0105191 0)
(0.18716 -0.0113488 0)
(0.20056 -0.0121726 0)
(0.214627 -0.0129788 0)
(0.229306 -0.0137521 0)
(0.244524 -0.0144755 0)
(0.260192 -0.0151324 0)
(0.27621 -0.015708 0)
(0.292469 -0.0161907 0)
(0.308852 -0.0165724 0)
(0.325246 -0.0168489 0)
(0.341539 -0.0170194 0)
(0.35763 -0.0170864 0)
(0.373423 -0.0170545 0)
(0.388837 -0.0169305 0)
(0.403801 -0.0167221 0)
(0.418257 -0.0164378 0)
(0.432157 -0.0160864 0)
(0.445467 -0.0156764 0)
(0.458159 -0.0152164 0)
(0.470216 -0.014714 0)
(0.481629 -0.0141766 0)
(0.492395 -0.0136108 0)
(0.502517 -0.0130225 0)
(0.512002 -0.012417 0)
(0.520863 -0.0117989 0)
(0.529114 -0.0111725 0)
(0.536773 -0.0105412 0)
(0.543859 -0.00990819 0)
(0.550395 -0.00927609 0)
(0.556401 -0.00864716 0)
(0.561903 -0.00802331 0)
(0.566923 -0.00740612 0)
(0.571486 -0.00679689 0)
(0.575617 -0.00619668 0)
(0.57934 -0.00560626 0)
(0.58268 -0.00502617 0)
(0.585661 -0.00445674 0)
(0.588307 -0.00389803 0)
(0.590641 -0.00334992 0)
(0.592687 -0.00281199 0)
(0.594468 -0.00228357 0)
(0.596005 -0.00176368 0)
(0.597319 -0.00125098 0)
(0.598433 -0.000743777 0)
(0.599365 -0.000239942 0)
(0.600135 0.000262799 0)
(0.600761 0.000766934 0)
(0.601262 0.00127567 0)
(0.601653 0.00179307 0)
(0.601952 0.00232412 0)
(0.602172 0.00287478 0)
(0.602326 0.00345225 0)
(0.602426 0.0040652 0)
(0.602483 0.00472416 0)
(0.602504 0.00544201 0)
(0.602497 0.00623457 0)
(0.602464 0.00712152 0)
(0.602407 0.00812756 0)
(0.602324 0.00928416 0)
(0.60221 0.0106318 0)
(0.602059 0.0122236 0)
(0.601862 0.0141298 0)
(0.601609 0.016445 0)
(0.601299 0.0192975 0)
(0.600947 0.0228632 0)
(0.600606 0.0273814 0)
(0.600408 0.0331734 0)
(0.600634 0.0406508 0)
(0.601826 0.0502915 0)
(0.604922 0.0624942 0)
(0.611542 0.0770014 0)
(0.10052 -0.00222679 0)
(0.103711 -0.00407667 0)
(0.108646 -0.00565231 0)
(0.114928 -0.00705081 0)
(0.122399 -0.00832628 0)
(0.130915 -0.00951844 0)
(0.140368 -0.0106596 0)
(0.150685 -0.0117754 0)
(0.161821 -0.0128836 0)
(0.173742 -0.0139936 0)
(0.186422 -0.0151057 0)
(0.199834 -0.0162113 0)
(0.213937 -0.0172948 0)
(0.228678 -0.0183353 0)
(0.243984 -0.0193097 0)
(0.259767 -0.0201953 0)
(0.275921 -0.0209719 0)
(0.292334 -0.0216235 0)
(0.308885 -0.0221391 0)
(0.325456 -0.0225129 0)
(0.341932 -0.0227439 0)
(0.358205 -0.0228353 0)
(0.374178 -0.0227935 0)
(0.389765 -0.0226277 0)
(0.404895 -0.0223485 0)
(0.419508 -0.0219672 0)
(0.433555 -0.0214958 0)
(0.446999 -0.0209461 0)
(0.459815 -0.0203292 0)
(0.471984 -0.0196557 0)
(0.483499 -0.0189353 0)
(0.494356 -0.0181771 0)
(0.504558 -0.0173888 0)
(0.514115 -0.0165777 0)
(0.523037 -0.0157499 0)
(0.531341 -0.014911 0)
(0.539045 -0.0140658 0)
(0.54617 -0.0132183 0)
(0.552735 -0.012372 0)
(0.558766 -0.0115299 0)
(0.564284 -0.0106947 0)
(0.569316 -0.00986822 0)
(0.573884 -0.00905234 0)
(0.578015 -0.00824836 0)
(0.581732 -0.00745726 0)
(0.585061 -0.00667974 0)
(0.588025 -0.0059162 0)
(0.590649 -0.00516673 0)
(0.592956 -0.00443109 0)
(0.59497 -0.0037087 0)
(0.596712 -0.00299862 0)
(0.598206 -0.00229953 0)
(0.599472 -0.00160967 0)
(0.600532 -0.000926782 0)
(0.601404 -0.000248093 0)
(0.60211 0.000429356 0)
(0.602666 0.00110882 0)
(0.603091 0.00179456 0)
(0.603402 0.00249187 0)
(0.603615 0.00320714 0)
(0.603745 0.00394796 0)
(0.603805 0.00472339 0)
(0.603809 0.00554425 0)
(0.603768 0.00642353 0)
(0.603692 0.00737691 0)
(0.60359 0.00842335 0)
(0.603471 0.009586 0)
(0.603341 0.0108933 0)
(0.603206 0.0123805 0)
(0.603073 0.0140916 0)
(0.602951 0.0160817 0)
(0.602851 0.0184204 0)
(0.602795 0.0211956 0)
(0.602819 0.0245177 0)
(0.602986 0.028523 0)
(0.603407 0.0333746 0)
(0.60426 0.0392551 0)
(0.605825 0.0463416 0)
(0.60852 0.0547461 0)
(0.612903 0.0643914 0)
(0.619626 0.0747827 0)
(0.100424 -0.00274935 0)
(0.103541 -0.00510087 0)
(0.108359 -0.00709823 0)
(0.11453 -0.00887405 0)
(0.1219 -0.0104942 0)
(0.130327 -0.0120086 0)
(0.139701 -0.0134588 0)
(0.149953 -0.0148781 0)
(0.16104 -0.0162896 0)
(0.172934 -0.0177058 0)
(0.185615 -0.0191274 0)
(0.199058 -0.0205435 0)
(0.213229 -0.0219338 0)
(0.228075 -0.023271 0)
(0.243524 -0.0245248 0)
(0.259483 -0.0256654 0)
(0.275843 -0.0266662 0)
(0.292484 -0.0275063 0)
(0.309281 -0.0281711 0)
(0.326106 -0.0286531 0)
(0.342837 -0.0289511 0)
(0.359363 -0.0290692 0)
(0.375582 -0.0290161 0)
(0.391404 -0.0288036 0)
(0.406754 -0.0284456 0)
(0.421572 -0.0279569 0)
(0.435808 -0.0273531 0)
(0.449424 -0.0266491 0)
(0.462396 -0.0258596 0)
(0.474705 -0.0249982 0)
(0.486344 -0.0240773 0)
(0.497311 -0.0231084 0)
(0.507609 -0.0221015 0)
(0.517249 -0.0210659 0)
(0.526243 -0.0200094 0)
(0.534608 -0.0189389 0)
(0.542362 -0.0178606 0)
(0.549526 -0.0167795 0)
(0.556124 -0.0157002 0)
(0.562178 -0.0146264 0)
(0.567712 -0.0135612 0)
(0.572752 -0.0125072 0)
(0.577322 -0.0114665 0)
(0.581447 -0.0104408 0)
(0.585153 -0.00943135 0)
(0.588464 -0.0084389 0)
(0.591405 -0.00746393 0)
(0.594 -0.00650649 0)
(0.596272 -0.00556622 0)
(0.598245 -0.00464237 0)
(0.599942 -0.00373373 0)
(0.601383 -0.00283862 0)
(0.602592 -0.00195482 0)
(0.603589 -0.00107951 0)
(0.604392 -0.000209334 0)
(0.605024 0.00065934 0)
(0.605501 0.00153058 0)
(0.605843 0.00240968 0)
(0.606066 0.00330311 0)
(0.606187 0.0042185 0)
(0.606221 0.00516488 0)
(0.606183 0.00615286 0)
(0.606088 0.00719498 0)
(0.605948 0.00830606 0)
(0.605777 0.00950364 0)
(0.605586 0.0108086 0)
(0.605389 0.0122458 0)
(0.605199 0.0138448 0)
(0.605029 0.0156413 0)
(0.604896 0.0176778 0)
(0.604822 0.0200052 0)
(0.604835 0.0226838 0)
(0.604977 0.0257842 0)
(0.605303 0.029387 0)
(0.605899 0.0335802 0)
(0.60688 0.0384519 0)
(0.608407 0.0440766 0)
(0.610694 0.0504886 0)
(0.614 0.0576417 0)
(0.618603 0.0653503 0)
(0.624731 0.0732243 0)
(0.100328 -0.00328149 0)
(0.103377 -0.00616436 0)
(0.108075 -0.00861193 0)
(0.114125 -0.0107926 0)
(0.121384 -0.0127839 0)
(0.12971 -0.0146461 0)
(0.138999 -0.0164308 0)
(0.149182 -0.0181798 0)
(0.160223 -0.0199227 0)
(0.172101 -0.0216757 0)
(0.184803 -0.0234399 0)
(0.198313 -0.025202 0)
(0.212601 -0.0269359 0)
(0.227616 -0.0286067 0)
(0.243282 -0.0301755 0)
(0.259504 -0.0316036 0)
(0.276162 -0.032857 0)
(0.293128 -0.0339087 0)
(0.310264 -0.0347402 0)
(0.327435 -0.0353421 0)
(0.34451 -0.0357131 0)
(0.361369 -0.0358588 0)
(0.377904 -0.0357906 0)
(0.394024 -0.0355237 0)
(0.409651 -0.0350756 0)
(0.424721 -0.0344655 0)
(0.439186 -0.0337128 0)
(0.453008 -0.0328366 0)
(0.466163 -0.0318551 0)
(0.478633 -0.0307852 0)
(0.490413 -0.0296426 0)
(0.501502 -0.0284413 0)
(0.511906 -0.0271939 0)
(0.521635 -0.0259117 0)
(0.530703 -0.0246043 0)
(0.539129 -0.0232803 0)
(0.546933 -0.021947 0)
(0.554135 -0.0206109 0)
(0.56076 -0.0192772 0)
(0.566832 -0.0179505 0)
(0.572376 -0.0166346 0)
(0.577418 -0.0153325 0)
(0.581982 -0.0140469 0)
(0.586094 -0.0127795 0)
(0.58978 -0.011532 0)
(0.593064 -0.0103052 0)
(0.595973 -0.00909952 0)
(0.598528 -0.00791504 0)
(0.600756 -0.00675127 0)
(0.602678 -0.00560726 0)
(0.604319 -0.00448152 0)
(0.605698 -0.00337199 0)
(0.60684 -0.00227597 0)
(0.607763 -0.00119008 0)
(0.608489 -0.000110594 0)
(0.609038 0.000966767 0)
(0.609429 0.00204701 0)
(0.60968 0.0031364 0)
(0.609809 0.00424239 0)
(0.609832 0.00537367 0)
(0.609766 0.00654035 0)
(0.609628 0.0077542 0)
(0.609433 0.00902885 0)
(0.609196 0.0103801 0)
(0.608933 0.0118264 0)
(0.60866 0.013389 0)
(0.608393 0.0150925 0)
(0.608151 0.0169653 0)
(0.607955 0.0190403 0)
(0.60783 0.0213546 0)
(0.607805 0.0239501 0)
(0.60792 0.0268732 0)
(0.608222 0.030173 0)
(0.608775 0.0338991 0)
(0.609659 0.0380966 0)
(0.610973 0.0427977 0)
(0.612839 0.0480103 0)
(0.615391 0.0537009 0)
(0.618769 0.0597749 0)
(0.623088 0.0660569 0)
(0.628392 0.0722839 0)
(0.100229 -0.00382491 0)
(0.103223 -0.00726757 0)
(0.107803 -0.0101946 0)
(0.113728 -0.0128087 0)
(0.120871 -0.0151996 0)
(0.129093 -0.0174375 0)
(0.138293 -0.0195851 0)
(0.14841 -0.021694 0)
(0.159416 -0.0238017 0)
(0.171301 -0.0259288 0)
(0.184062 -0.0280772 0)
(0.197694 -0.0302301 0)
(0.212171 -0.0323544 0)
(0.227444 -0.0344055 0)
(0.243432 -0.0363334 0)
(0.260028 -0.0380888 0)
(0.277102 -0.0396283 0)
(0.294508 -0.0409179 0)
(0.312096 -0.0419348 0)
(0.329716 -0.0426676 0)
(0.347228 -0.0431155 0)
(0.364502 -0.0432865 0)
(0.381427 -0.0431953 0)
(0.397905 -0.0428613 0)
(0.413857 -0.042307 0)
(0.42922 -0.0415564 0)
(0.443945 -0.0406335 0)
(0.457996 -0.039562 0)
(0.471351 -0.0383642 0)
(0.483994 -0.0370608 0)
(0.495922 -0.035671 0)
(0.507137 -0.0342116 0)
(0.517645 -0.032698 0)
(0.52746 -0.0311435 0)
(0.536598 -0.0295599 0)
(0.545078 -0.0279573 0)
(0.552922 -0.0263444 0)
(0.560153 -0.0247289 0)
(0.566796 -0.0231168 0)
(0.572875 -0.0215138 0)
(0.578418 -0.019924 0)
(0.583449 -0.0183512 0)
(0.587996 -0.0167982 0)
(0.592083 -0.0152673 0)
(0.595738 -0.01376 0)
(0.598984 -0.0122774 0)
(0.601848 -0.01082 0)
(0.604354 -0.00938767 0)
(0.606526 -0.00797985 0)
(0.608387 -0.00659535 0)
(0.609961 -0.00523241 0)
(0.611269 -0.0038886 0)
(0.612334 -0.00256078 0)
(0.613176 -0.00124505 0)
(0.613816 6.25924e-05 0)
(0.614275 0.00136695 0)
(0.614573 0.00267399 0)
(0.614727 0.00399085 0)
(0.614756 0.00532574 0)
(0.614678 0.00668812 0)
(0.614511 0.00808879 0)
(0.614271 0.0095401 0)
(0.613977 0.0110561 0)
(0.613644 0.0126527 0)
(0.613293 0.0143481 0)
(0.612941 0.0161624 0)
(0.612609 0.0181183 0)
(0.61232 0.0202412 0)
(0.612098 0.0225585 0)
(0.611974 0.0250997 0)
(0.611981 0.0278959 0)
(0.61216 0.0309779 0)
(0.612561 0.0343747 0)
(0.61324 0.03811 0)
(0.614262 0.0421976 0)
(0.615703 0.0466358 0)
(0.61764 0.0513993 0)
(0.620148 0.0564321 0)
(0.623289 0.0616399 0)
(0.627095 0.0668878 0)
(0.631539 0.0720103 0)
(0.100126 -0.00438214 0)
(0.10308 -0.0084123 0)
(0.107551 -0.0118488 0)
(0.113352 -0.0149263 0)
(0.120378 -0.0177468 0)
(0.128498 -0.020391 0)
(0.137614 -0.0229338 0)
(0.147677 -0.0254385 0)
(0.15867 -0.0279516 0)
(0.170599 -0.0304995 0)
(0.183479 -0.0330849 0)
(0.197313 -0.0356862 0)
(0.212083 -0.0382607 0)
(0.227734 -0.0407509 0)
(0.244178 -0.0430924 0)
(0.261288 -0.0452224 0)
(0.278916 -0.0470861 0)
(0.296894 -0.0486414 0)
(0.315055 -0.0498611 0)
(0.333232 -0.0507326 0)
(0.351272 -0.0512565 0)
(0.369038 -0.0514443 0)
(0.386412 -0.0513156 0)
(0.403296 -0.0508952 0)
(0.419609 -0.0502116 0)
(0.435288 -0.0492945 0)
(0.450289 -0.0481736 0)
(0.464577 -0.0468777 0)
(0.478133 -0.0454338 0)
(0.490946 -0.0438668 0)
(0.503015 -0.0421995 0)
(0.514344 -0.040452 0)
(0.524944 -0.0386424 0)
(0.534831 -0.0367864 0)
(0.544023 -0.0348978 0)
(0.552541 -0.0329884 0)
(0.560409 -0.0310683 0)
(0.567652 -0.0291463 0)
(0.574296 -0.0272296 0)
(0.580367 -0.0253243 0)
(0.585892 -0.0234354 0)
(0.590899 -0.021567 0)
(0.595413 -0.0197224 0)
(0.599461 -0.017904 0)
(0.60307 -0.0161135 0)
(0.606266 -0.0143521 0)
(0.609074 -0.0126202 0)
(0.611518 -0.0109176 0)
(0.613623 -0.00924365 0)
(0.615413 -0.00759689 0)
(0.616911 -0.0059753 0)
(0.618139 -0.00437616 0)
(0.619119 -0.00279596 0)
(0.619872 -0.00123043 0)
(0.620421 0.00032488 0)
(0.620786 0.00187519 0)
(0.620986 0.00342721 0)
(0.62104 0.00498872 0)
(0.620968 0.00656849 0)
(0.620788 0.00817635 0)
(0.620519 0.00982334 0)
(0.620179 0.0115218 0)
(0.619787 0.0132855 0)
(0.619362 0.0151297 0)
(0.618926 0.0170709 0)
(0.618497 0.0191275 0)
(0.618101 0.0213187 0)
(0.617761 0.0236653 0)
(0.617505 0.0261884 0)
(0.617364 0.0289091 0)
(0.617372 0.0318474 0)
(0.617567 0.0350206 0)
(0.617992 0.0384416 0)
(0.618694 0.0421155 0)
(0.619719 0.0460376 0)
(0.621119 0.0501887 0)
(0.622935 0.0545326 0)
(0.625204 0.0590131 0)
(0.627945 0.0635533 0)
(0.631149 0.0680586 0)
(0.634771 0.0724281 0)
(0.100018 -0.00495627 0)
(0.102947 -0.00960167 0)
(0.107323 -0.0135789 0)
(0.113005 -0.017151 0)
(0.119921 -0.0204334 0)
(0.127944 -0.0235179 0)
(0.136989 -0.0264933 0)
(0.147018 -0.0294366 0)
(0.158037 -0.0324063 0)
(0.170072 -0.0354353 0)
(0.183156 -0.0385264 0)
(0.197307 -0.0416506 0)
(0.212507 -0.0447514 0)
(0.228693 -0.0477535 0)
(0.245756 -0.0505736 0)
(0.263544 -0.0531315 0)
(0.281879 -0.0553593 0)
(0.300568 -0.0572063 0)
(0.319419 -0.0586413 0)
(0.338249 -0.0596521 0)
(0.356894 -0.0602426 0)
(0.375209 -0.0604296 0)
(0.393072 -0.0602392 0)
(0.410385 -0.0597039 0)
(0.42707 -0.0588591 0)
(0.443067 -0.0577415 0)
(0.458336 -0.0563873 0)
(0.472848 -0.054831 0)
(0.486587 -0.053105 0)
(0.499548 -0.0512386 0)
(0.511732 -0.0492586 0)
(0.52315 -0.0471885 0)
(0.533816 -0.0450492 0)
(0.543747 -0.0428589 0)
(0.552966 -0.0406334 0)
(0.561496 -0.0383862 0)
(0.569364 -0.0361288 0)
(0.576594 -0.033871 0)
(0.583216 -0.0316211 0)
(0.589257 -0.0293857 0)
(0.594744 -0.0271706 0)
(0.599706 -0.0249803 0)
(0.604171 -0.0228181 0)
(0.608164 -0.0206868 0)
(0.611713 -0.0185883 0)
(0.614844 -0.0165236 0)
(0.617583 -0.0144931 0)
(0.619955 -0.0124967 0)
(0.621984 -0.0105334 0)
(0.623694 -0.00860154 0)
(0.625108 -0.00669893 0)
(0.62625 -0.00482258 0)
(0.62714 -0.00296875 0)
(0.627801 -0.00113293 0)
(0.628256 0.000689828 0)
(0.628525 0.00250516 0)
(0.628627 0.00432024 0)
(0.628582 0.00614325 0)
(0.62841 0.00798316 0)
(0.628131 0.00984981 0)
(0.627764 0.011754 0)
(0.627328 0.0137075 0)
(0.626843 0.0157232 0)
(0.626331 0.0178147 0)
(0.625812 0.0199966 0)
(0.625309 0.0222841 0)
(0.624847 0.0246927 0)
(0.624449 0.0272378 0)
(0.624145 0.0299342 0)
(0.623963 0.032795 0)
(0.623935 0.035831 0)
(0.624092 0.0390491 0)
(0.624471 0.0424507 0)
(0.625104 0.0460302 0)
(0.626023 0.0497733 0)
(0.627258 0.0536554 0)
(0.62883 0.0576405 0)
(0.630749 0.0616813 0)
(0.633013 0.0657207 0)
(0.635599 0.0696953 0)
(0.638461 0.0735447 0)
(0.0999028 -0.00555088 0)
(0.102825 -0.0108401 0)
(0.10712 -0.0153908 0)
(0.112694 -0.0194905 0)
(0.119509 -0.02327 0)
(0.12745 -0.0268332 0)
(0.136444 -0.0302853 0)
(0.146477 -0.0337211 0)
(0.15758 -0.0372133 0)
(0.16981 -0.0408023 0)
(0.183221 -0.044489 0)
(0.197843 -0.0482322 0)
(0.213651 -0.0519548 0)
(0.230563 -0.0555562 0)
(0.248433 -0.0589282 0)
(0.267074 -0.06197 0)
(0.28627 -0.0645987 0)
(0.305797 -0.0667557 0)
(0.325437 -0.0684081 0)
(0.344993 -0.0695466 0)
(0.364288 -0.0701812 0)
(0.383175 -0.0703369 0)
(0.401534 -0.0700489 0)
(0.419268 -0.0693586 0)
(0.436304 -0.0683104 0)
(0.452592 -0.0669491 0)
(0.468094 -0.0653181 0)
(0.48279 -0.0634585 0)
(0.496671 -0.0614081 0)
(0.509736 -0.0592012 0)
(0.521993 -0.0568686 0)
(0.533458 -0.0544374 0)
(0.544147 -0.0519313 0)
(0.554083 -0.0493709 0)
(0.563291 -0.046774 0)
(0.571797 -0.0441556 0)
(0.579629 -0.0415288 0)
(0.586816 -0.0389042 0)
(0.593387 -0.036291 0)
(0.599371 -0.0336965 0)
(0.604796 -0.0311269 0)
(0.609692 -0.0285869 0)
(0.614086 -0.0260803 0)
(0.618006 -0.0236099 0)
(0.62148 -0.0211776 0)
(0.624533 -0.0187845 0)
(0.627192 -0.0164308 0)
(0.629481 -0.0141163 0)
(0.631426 -0.0118398 0)
(0.63305 -0.00959961 0)
(0.634377 -0.00739323 0)
(0.635429 -0.00521754 0)
(0.636229 -0.00306866 0)
(0.636798 -0.000941992 0)
(0.637161 0.00116785 0)
(0.637336 0.00326687 0)
(0.637344 0.00536253 0)
(0.637206 0.00746308 0)
(0.636941 0.00957737 0)
(0.636569 0.0117148 0)
(0.636111 0.0138856 0)
(0.635587 0.0161005 0)
(0.635017 0.0183708 0)
(0.634423 0.0207082 0)
(0.633827 0.0231247 0)
(0.633252 0.0256321 0)
(0.632721 0.0282418 0)
(0.632259 0.0309643 0)
(0.631891 0.0338086 0)
(0.631643 0.0367815 0)
(0.631543 0.0398866 0)
(0.631616 0.0431238 0)
(0.631888 0.046488 0)
(0.632382 0.0499683 0)
(0.633118 0.0535474 0)
(0.63411 0.0572013 0)
(0.635364 0.0608994 0)
(0.63688 0.0646053 0)
(0.638645 0.0682787 0)
(0.640633 0.0718784 0)
(0.642805 0.0753688 0)
(0.0997777 -0.00616994 0)
(0.102711 -0.0121333 0)
(0.106945 -0.0172919 0)
(0.112423 -0.021955 0)
(0.119152 -0.0262704 0)
(0.127032 -0.0303569 0)
(0.13601 -0.0343404 0)
(0.146102 -0.038338 0)
(0.157379 -0.0424398 0)
(0.16993 -0.0466938 0)
(0.183836 -0.0510939 0)
(0.199128 -0.0555779 0)
(0.215761 -0.0600373 0)
(0.233613 -0.0643372 0)
(0.25249 -0.0683376 0)
(0.272154 -0.071914 0)
(0.292346 -0.0749693 0)
(0.312806 -0.0774398 0)
(0.333297 -0.0792946 0)
(0.353606 -0.0805316 0)
(0.373555 -0.081171 0)
(0.392996 -0.0812492 0)
(0.411815 -0.0808131 0)
(0.429923 -0.0799155 0)
(0.447257 -0.0786108 0)
(0.463773 -0.076953 0)
(0.479445 -0.0749938 0)
(0.494261 -0.0727809 0)
(0.508218 -0.0703583 0)
(0.521324 -0.0677651 0)
(0.533593 -0.0650361 0)
(0.545045 -0.062202 0)
(0.555702 -0.0592892 0)
(0.56559 -0.0563208 0)
(0.574738 -0.0533162 0)
(0.583175 -0.0502921 0)
(0.590931 -0.0472626 0)
(0.598036 -0.0442393 0)
(0.604521 -0.0412321 0)
(0.610416 -0.0382488 0)
(0.615751 -0.0352959 0)
(0.620555 -0.0323785 0)
(0.624858 -0.0295005 0)
(0.628686 -0.0266646 0)
(0.632068 -0.0238727 0)
(0.63503 -0.021126 0)
(0.637598 -0.0184245 0)
(0.639797 -0.0157678 0)
(0.641652 -0.0131546 0)
(0.643186 -0.010583 0)
(0.644424 -0.0080505 0)
(0.645388 -0.00555377 0)
(0.6461 -0.00308895 0)
(0.646581 -0.000651563 0)
(0.646858 0.00176417 0)
(0.646947 0.00416464 0)
(0.64687 0.00655736 0)
(0.646647 0.00895032 0)
(0.6463 0.0113519 0)
(0.645847 0.0137708 0)
(0.64531 0.0162162 0)
(0.644709 0.0186974 0)
(0.644065 0.021224 0)
(0.643399 0.0238055 0)
(0.642733 0.0264509 0)
(0.642088 0.029169 0)
(0.641488 0.0319673 0)
(0.640954 0.0348522 0)
(0.64051 0.037828 0)
(0.640177 0.0408967 0)
(0.639977 0.0440576 0)
(0.63993 0.0473063 0)
(0.640054 0.0506347 0)
(0.640363 0.0540305 0)
(0.640868 0.0574771 0)
(0.641574 0.0609541 0)
(0.642481 0.0644374 0)
(0.643581 0.0679007 0)
(0.644858 0.0713165 0)
(0.646291 0.0746583 0)
(0.647846 0.0779062 0)
(0.0996406 -0.00681783 0)
(0.102604 -0.0134884 0)
(0.106797 -0.019292 0)
(0.112197 -0.0245579 0)
(0.11886 -0.0294532 0)
(0.12671 -0.034117 0)
(0.135724 -0.0387019 0)
(0.14596 -0.0433534 0)
(0.157536 -0.0481823 0)
(0.170585 -0.0532406 0)
(0.185204 -0.0585054 0)
(0.201408 -0.063879 0)
(0.219112 -0.069207 0)
(0.238129 -0.0743084 0)
(0.2582 -0.0790064 0)
(0.279026 -0.0831524 0)
(0.300302 -0.086639 0)
(0.321742 -0.0894031 0)
(0.343089 -0.091422 0)
(0.364127 -0.0927063 0)
(0.38468 -0.0932911 0)
(0.404609 -0.093228 0)
(0.423809 -0.0925784 0)
(0.442205 -0.091408 0)
(0.459745 -0.0897831 0)
(0.476398 -0.0877675 0)
(0.492149 -0.0854213 0)
(0.506995 -0.0827997 0)
(0.520943 -0.0799522 0)
(0.534009 -0.0769231 0)
(0.546212 -0.0737511 0)
(0.557578 -0.0704702 0)
(0.568135 -0.0671094 0)
(0.577913 -0.0636938 0)
(0.586943 -0.0602446 0)
(0.595257 -0.0567797 0)
(0.602887 -0.0533142 0)
(0.609866 -0.0498605 0)
(0.616226 -0.0464288 0)
(0.621997 -0.0430275 0)
(0.627211 -0.0396633 0)
(0.631897 -0.0363413 0)
(0.636084 -0.0330654 0)
(0.639801 -0.0298385 0)
(0.643075 -0.0266622 0)
(0.645932 -0.0235376 0)
(0.648399 -0.0204647 0)
(0.650501 -0.0174427 0)
(0.652262 -0.0144704 0)
(0.653705 -0.0115457 0)
(0.654855 -0.00866593 0)
(0.655733 -0.00582775 0)
(0.656363 -0.00302729 0)
(0.656764 -0.000260673 0)
(0.656964 0.00247815 0)
(0.656978 0.00519615 0)
(0.656828 0.0079007 0)
(0.656535 0.0105992 0)
(0.65612 0.0132993 0)
(0.655601 0.0160087 0)
(0.655 0.0187353 0)
(0.654336 0.0214868 0)
(0.653631 0.024271 0)
(0.652904 0.0270951 0)
(0.652177 0.0299655 0)
(0.65147 0.0328882 0)
(0.650802 0.0358675 0)
(0.650195 0.0389064 0)
(0.649667 0.0420062 0)
(0.649237 0.0451659 0)
(0.64892 0.0483821 0)
(0.648732 0.0516486 0)
(0.648684 0.0549568 0)
(0.648785 0.0582951 0)
(0.64904 0.0616493 0)
(0.649449 0.0650034 0)
(0.650007 0.0683397 0)
(0.650706 0.0716397 0)
(0.65153 0.0748852 0)
(0.652461 0.0780598 0)
(0.653473 0.0811529 0)
(0.0994887 -0.00749944 0)
(0.102504 -0.0149141 0)
(0.106678 -0.0214034 0)
(0.112021 -0.0273163 0)
(0.118646 -0.0328441 0)
(0.126513 -0.0381533 0)
(0.135638 -0.0434326 0)
(0.146139 -0.0488633 0)
(0.158193 -0.0545777 0)
(0.171972 -0.0606228 0)
(0.187571 -0.0669404 0)
(0.204965 -0.0733755 0)
(0.223991 -0.0797098 0)
(0.244378 -0.0857061 0)
(0.265786 -0.0911492 0)
(0.287856 -0.0958712 0)
(0.310244 -0.0997625 0)
(0.332641 -0.102769 0)
(0.354786 -0.104886 0)
(0.376468 -0.106141 0)
(0.397522 -0.106591 0)
(0.417823 -0.106305 0)
(0.437284 -0.105362 0)
(0.455845 -0.103842 0)
(0.473469 -0.101823 0)
(0.49014 -0.099381 0)
(0.505855 -0.0965836 0)
(0.520622 -0.0934931 0)
(0.534458 -0.0901651 0)
(0.547386 -0.0866483 0)
(0.559432 -0.0829853 0)
(0.570629 -0.0792128 0)
(0.581008 -0.0753623 0)
(0.590604 -0.0714607 0)
(0.59945 -0.0675304 0)
(0.607582 -0.0635905 0)
(0.615034 -0.0596566 0)
(0.621838 -0.0557418 0)
(0.628029 -0.0518567 0)
(0.633638 -0.0480097 0)
(0.638697 -0.0442076 0)
(0.643235 -0.0404555 0)
(0.647282 -0.0367573 0)
(0.650867 -0.0331155 0)
(0.654016 -0.0295319 0)
(0.656756 -0.0260071 0)
(0.659112 -0.0225411 0)
(0.66111 -0.0191329 0)
(0.662774 -0.0157812 0)
(0.664126 -0.0124837 0)
(0.665191 -0.00923779 0)
(0.66599 -0.0060402 0)
(0.666544 -0.00288718 0)
(0.666879 0.000225179 0)
(0.667012 0.00330268 0)
(0.666964 0.00635249 0)
(0.666756 0.00938158 0)
(0.666408 0.0123967 0)
(0.665941 0.0154044 0)
(0.665372 0.0184115 0)
(0.664724 0.0214245 0)
(0.664014 0.0244496 0)
(0.663263 0.0274927 0)
(0.66249 0.0305588 0)
(0.661713 0.0336524 0)
(0.660951 0.0367769 0)
(0.660223 0.0399345 0)
(0.659545 0.0431259 0)
(0.658933 0.0463503 0)
(0.658402 0.0496052 0)
(0.657963 0.052886 0)
(0.657628 0.0561866 0)
(0.657403 0.0594989 0)
(0.657294 0.062813 0)
(0.657301 0.0661181 0)
(0.657423 0.0694021 0)
(0.657654 0.0726525 0)
(0.657985 0.075857 0)
(0.658403 0.0790038 0)
(0.658894 0.0820831 0)
(0.659438 0.0850902 0)
(0.0993192 -0.00822036 0)
(0.102408 -0.0164211 0)
(0.106591 -0.0236416 0)
(0.111903 -0.0302533 0)
(0.11853 -0.0364786 0)
(0.126479 -0.0425232 0)
(0.135825 -0.0486243 0)
(0.146763 -0.0550065 0)
(0.159534 -0.0618183 0)
(0.174332 -0.0690812 0)
(0.19122 -0.0766724 0)
(0.210087 -0.0843514 0)
(0.230663 -0.0918177 0)
(0.25257 -0.0987734 0)
(0.275389 -0.104971 0)
(0.298707 -0.110234 0)
(0.322152 -0.114464 0)
(0.34541 -0.117627 0)
(0.368228 -0.119744 0)
(0.39041 -0.120869 0)
(0.41181 -0.121083 0)
(0.432326 -0.120476 0)
(0.45189 -0.119147 0)
(0.470462 -0.11719 0)
(0.488023 -0.114697 0)
(0.504571 -0.111754 0)
(0.520116 -0.108437 0)
(0.534679 -0.104815 0)
(0.548286 -0.100949 0)
(0.560967 -0.096892 0)
(0.572757 -0.0926899 0)
(0.583691 -0.0883818 0)
(0.593808 -0.0840011 0)
(0.603144 -0.079576 0)
(0.611737 -0.07513 0)
(0.619623 -0.0706829 0)
(0.626837 -0.0662507 0)
(0.633416 -0.0618467 0)
(0.639392 -0.0574815 0)
(0.644799 -0.0531637 0)
(0.649668 -0.0488999 0)
(0.654028 -0.044695 0)
(0.65791 -0.0405526 0)
(0.66134 -0.0364752 0)
(0.664347 -0.0324641 0)
(0.666956 -0.0285198 0)
(0.669193 -0.024642 0)
(0.671081 -0.0208297 0)
(0.672645 -0.0170813 0)
(0.673907 -0.0133945 0)
(0.674889 -0.0097667 0)
(0.675614 -0.00619489 0)
(0.676103 -0.00267558 0)
(0.676379 0.000795709 0)
(0.676459 0.00422472 0)
(0.676364 0.00761793 0)
(0.676113 0.0109816 0)
(0.675728 0.0143218 0)
(0.675226 0.0176442 0)
(0.674626 0.0209545 0)
(0.673948 0.0242578 0)
(0.67321 0.027559 0)
(0.672429 0.0308622 0)
(0.671624 0.034171 0)
(0.670812 0.0374881 0)
(0.670008 0.0408152 0)
(0.669229 0.0441529 0)
(0.668488 0.0475006 0)
(0.667799 0.0508566 0)
(0.667172 0.0542176 0)
(0.666617 0.0575793 0)
(0.666141 0.0609361 0)
(0.665749 0.0642812 0)
(0.665442 0.0676072 0)
(0.665222 0.0709058 0)
(0.665084 0.0741688 0)
(0.665023 0.0773875 0)
(0.665032 0.0805542 0)
(0.6651 0.0836617 0)
(0.665216 0.0867043 0)
(0.665366 0.089681 0)
(0.0991285 -0.00898713 0)
(0.102317 -0.0180227 0)
(0.106539 -0.0260271 0)
(0.111854 -0.0334006 0)
(0.118537 -0.0404081 0)
(0.126664 -0.0473114 0)
(0.13639 -0.0544119 0)
(0.147999 -0.0619808 0)
(0.161791 -0.0701649 0)
(0.177947 -0.0789234 0)
(0.196443 -0.0880269 0)
(0.217038 -0.0971191 0)
(0.239325 -0.105806 0)
(0.262818 -0.113736 0)