/*--------------------------------*- C++ -*----------------------------------*\
  =========                 |
  \\      /  F ield         | OpenFOAM: The Open Source CFD Toolbox
   \\    /   O peration     | Website:  https://openfoam.org
    \\  /    A nd           | Version:  7
     \\/     M anipulation  |
\*---------------------------------------------------------------------------*/
FoamFile
{
    version     2.0;
    format      ascii;
    class       surfaceScalarField;
    location    "2.11";
    object      phi;
}
// * * * * * * * * * * * * * * * * * * * * * * * * * * * * * * * * * * * * * //

dimensions      [1 0 -1 0 0 0 0];

internalField   nonuniform List<scalar> 
23692
(
1.17317e-05
-9.68016e-08
1.19089e-05
-1.77188e-07
1.21597e-05
-2.50699e-07
1.2477e-05
-3.17218e-07
1.28553e-05
-3.78162e-07
1.32896e-05
-4.34159e-07
1.37752e-05
-4.85448e-07
1.43076e-05
-5.32161e-07
1.48821e-05
-5.74377e-07
1.54945e-05
-6.12183e-07
1.61403e-05
-6.457e-07
1.68155e-05
-6.75103e-07
1.75162e-05
-7.0061e-07
1.82388e-05
-7.22482e-07
1.89798e-05
-7.41006e-07
1.97362e-05
-7.56489e-07
2.05053e-05
-7.6924e-07
2.12847e-05
-7.79564e-07
2.20721e-05
-7.87752e-07
2.28658e-05
-7.94074e-07
2.36641e-05
-7.98775e-07
2.44656e-05
-8.02074e-07
2.5269e-05
-8.04161e-07
2.60734e-05
-8.05198e-07
2.68778e-05
-8.05323e-07
2.76813e-05
-8.04646e-07
2.84834e-05
-8.03259e-07
2.92832e-05
-8.01231e-07
3.00803e-05
-7.98615e-07
3.08741e-05
-7.95452e-07
3.16641e-05
-7.91766e-07
3.24497e-05
-7.87574e-07
3.32304e-05
-7.82886e-07
3.40058e-05
-7.77703e-07
3.47754e-05
-7.72022e-07
3.55386e-05
-7.65837e-07
3.62949e-05
-7.59136e-07
3.70439e-05
-7.51909e-07
3.77849e-05
-7.44141e-07
3.85174e-05
-7.35816e-07
3.92409e-05
-7.26918e-07
3.99547e-05
-7.17429e-07
4.06582e-05
-7.0733e-07
4.13509e-05
-6.96602e-07
4.2032e-05
-6.85222e-07
4.27009e-05
-6.73166e-07
4.3357e-05
-6.60411e-07
4.39993e-05
-6.46927e-07
4.46273e-05
-6.32683e-07
4.52401e-05
-6.17647e-07
4.58369e-05
-6.01778e-07
4.64169e-05
-5.85034e-07
4.6979e-05
-5.67366e-07
4.75224e-05
-5.48718e-07
4.8046e-05
-5.29028e-07
4.85486e-05
-5.08222e-07
4.90292e-05
-4.86217e-07
4.94863e-05
-4.62917e-07
4.99187e-05
-4.38209e-07
5.03247e-05
-4.1196e-07
5.07027e-05
-3.84014e-07
5.10508e-05
-3.54185e-07
5.1367e-05
-3.22249e-07
5.16487e-05
-2.87932e-07
5.18934e-05
-2.50896e-07
5.20979e-05
-2.10719e-07
5.22586e-05
-1.66866e-07
5.2371e-05
-1.18646e-07
5.24299e-05
-6.5162e-08
5.24289e-05
-5.22501e-09
5.23598e-05
6.29563e-08
5.22117e-05
1.42012e-07
5.19698e-05
2.35808e-07
5.16135e-05
3.50297e-07
5.11125e-05
4.95074e-07
5.04204e-05
6.86315e-07
4.94622e-05
9.52595e-07
4.81094e-05
1.34729e-06
4.61234e-05
1.98056e-06
4.29944e-05
3.1239e-06
5.88938e-06
3.71001e-05
1.25506e-05
-1.97841e-07
1.27393e-05
-3.65769e-07
1.30068e-05
-5.18176e-07
1.33456e-05
-6.55854e-07
1.37496e-05
-7.82034e-07
1.42136e-05
-8.97956e-07
1.47324e-05
-1.00412e-06
1.53012e-05
-1.1008e-06
1.59152e-05
-1.18816e-06
1.65696e-05
-1.26639e-06
1.72598e-05
-1.33573e-06
1.79814e-05
-1.39656e-06
1.87302e-05
-1.44931e-06
1.95023e-05
-1.49454e-06
2.02941e-05
-1.53283e-06
2.11024e-05
-1.56482e-06
2.19241e-05
-1.59116e-06
2.27568e-05
-1.61248e-06
2.35981e-05
-1.62937e-06
2.44461e-05
-1.6424e-06
2.52988e-05
-1.65207e-06
2.6155e-05
-1.65884e-06
2.70131e-05
-1.66309e-06
2.78722e-05
-1.66518e-06
2.87313e-05
-1.66537e-06
2.95894e-05
-1.6639e-06
3.04458e-05
-1.66096e-06
3.12998e-05
-1.65669e-06
3.21507e-05
-1.65121e-06
3.29981e-05
-1.64458e-06
3.38412e-05
-1.63687e-06
3.46797e-05
-1.62812e-06
3.55128e-05
-1.61833e-06
3.63402e-05
-1.60751e-06
3.71612e-05
-1.59566e-06
3.79753e-05
-1.58276e-06
3.87819e-05
-1.56878e-06
3.95806e-05
-1.55372e-06
4.03706e-05
-1.53752e-06
4.11514e-05
-1.52017e-06
4.19225e-05
-1.50163e-06
4.2683e-05
-1.48186e-06
4.34325e-05
-1.46082e-06
4.41701e-05
-1.43847e-06
4.48953e-05
-1.41476e-06
4.56072e-05
-1.38965e-06
4.63052e-05
-1.36309e-06
4.69884e-05
-1.33501e-06
4.7656e-05
-1.30535e-06
4.83073e-05
-1.27405e-06
4.89412e-05
-1.24102e-06
4.95569e-05
-1.20617e-06
5.01533e-05
-1.16941e-06
5.07295e-05
-1.13062e-06
5.12843e-05
-1.08968e-06
5.18165e-05
-1.04643e-06
5.2325e-05
-1.0007e-06
5.28082e-05
-9.5231e-07
5.32647e-05
-9.0102e-07
5.3693e-05
-8.46568e-07
5.40912e-05
-7.88639e-07
5.44574e-05
-7.2686e-07
5.47894e-05
-6.60783e-07
5.50847e-05
-5.89864e-07
5.53406e-05
-5.13435e-07
5.55539e-05
-4.30663e-07
5.57209e-05
-3.40501e-07
5.58371e-05
-2.41604e-07
5.58975e-05
-1.32225e-07
5.58957e-05
-1.00508e-08
5.58238e-05
1.28222e-07
5.5672e-05
2.8729e-07
5.54274e-05
4.73945e-07
5.5073e-05
6.98239e-07
5.45863e-05
9.75524e-07
5.39365e-05
1.32991e-06
5.30828e-05
1.80017e-06
5.19743e-05
2.44991e-06
5.05615e-05
3.38758e-06
4.88803e-05
4.79961e-06
6.91034e-06
4.7854e-05
1.34261e-05
-3.02564e-07
1.3626e-05
-5.65606e-07
1.39103e-05
-8.0239e-07
1.42709e-05
-1.01639e-06
1.47015e-05
-1.21244e-06
1.51962e-05
-1.3925e-06
1.57497e-05
-1.55737e-06
1.63565e-05
-1.70747e-06
1.70117e-05
-1.84309e-06
1.771e-05
-1.9645e-06
1.84465e-05
-2.07211e-06
1.92166e-05
-2.16646e-06
2.00156e-05
-2.24827e-06
2.08395e-05
-2.31839e-06
2.16844e-05
-2.37773e-06
2.25468e-05
-2.42728e-06
2.34236e-05
-2.46805e-06
2.43119e-05
-2.50101e-06
2.52093e-05
-2.5271e-06
2.61136e-05
-2.54718e-06
2.7023e-05
-2.56205e-06
2.79359e-05
-2.57241e-06
2.88509e-05
-2.57887e-06
2.97667e-05
-2.58195e-06
3.06823e-05
-2.58208e-06
3.15968e-05
-2.57964e-06
3.25094e-05
-2.57491e-06
3.34192e-05
-2.5681e-06
3.43257e-05
-2.5594e-06
3.52281e-05
-2.54893e-06
3.6126e-05
-2.53677e-06
3.70185e-05
-2.52297e-06
3.79053e-05
-2.50756e-06
3.87857e-05
-2.49055e-06
3.96592e-05
-2.47191e-06
4.05251e-05
-2.45164e-06
4.13828e-05
-2.4297e-06
4.22317e-05
-2.40605e-06
4.30713e-05
-2.38063e-06
4.39007e-05
-2.35341e-06
4.47194e-05
-2.32432e-06
4.55268e-05
-2.29331e-06
4.63219e-05
-2.26031e-06
4.71042e-05
-2.22527e-06
4.78729e-05
-2.18811e-06
4.86271e-05
-2.14876e-06
4.93661e-05
-2.10714e-06
5.00891e-05
-2.06315e-06
5.0795e-05
-2.0167e-06
5.14831e-05
-1.96769e-06
5.21524e-05
-1.91599e-06
5.28019e-05
-1.86146e-06
5.34304e-05
-1.80396e-06
5.4037e-05
-1.74332e-06
5.46204e-05
-1.67933e-06
5.51794e-05
-1.61179e-06
5.57126e-05
-1.54043e-06
5.62187e-05
-1.46496e-06
5.6696e-05
-1.38505e-06
5.71429e-05
-1.3003e-06
5.75576e-05
-1.21024e-06
5.79382e-05
-1.11433e-06
5.82823e-05
-1.01192e-06
5.85876e-05
-9.02209e-07
5.88513e-05
-7.84243e-07
5.90703e-05
-6.56833e-07
5.92412e-05
-5.18496e-07
5.93598e-05
-3.67353e-07
5.94214e-05
-2.00988e-07
5.94205e-05
-1.62607e-08
5.93506e-05
1.91083e-07
5.9204e-05
4.26817e-07
5.8972e-05
6.99011e-07
5.86444e-05
1.01892e-06
5.82108e-05
1.4024e-06
5.76621e-05
1.87195e-06
5.69966e-05
2.45918e-06
5.62328e-05
3.20735e-06
5.54424e-05
4.17185e-06
5.483e-05
5.40599e-06
6.88006e-06
5.48545e-05
1.43623e-05
-4.10789e-07
1.45731e-05
-7.76337e-07
1.48742e-05
-1.10338e-06
1.52572e-05
-1.39924e-06
1.5715e-05
-1.67014e-06
1.62416e-05
-1.91884e-06
1.68309e-05
-2.1465e-06
1.74773e-05
-2.35372e-06
1.81753e-05
-2.54088e-06
1.89194e-05
-2.70839e-06
1.97043e-05
-2.8568e-06
2.05249e-05
-2.9869e-06
2.13764e-05
-3.09965e-06
2.22543e-05
-3.19624e-06
2.31545e-05
-3.27794e-06
2.40733e-05
-3.34611e-06
2.50072e-05
-3.40215e-06
2.59534e-05
-3.4474e-06
2.69091e-05
-3.48315e-06
2.7872e-05
-3.51061e-06
2.88402e-05
-3.53086e-06
2.9812e-05
-3.54488e-06
3.07858e-05
-3.55351e-06
3.17603e-05
-3.55747e-06
3.27344e-05
-3.55736e-06
3.37071e-05
-3.55368e-06
3.46775e-05
-3.54683e-06
3.56449e-05
-3.53712e-06
3.66084e-05
-3.52478e-06
3.75674e-05
-3.50998e-06
3.85213e-05
-3.49284e-06
3.94693e-05
-3.47343e-06
4.04109e-05
-3.45178e-06
4.13454e-05
-3.42789e-06
4.22723e-05
-3.40177e-06
4.31908e-05
-3.37336e-06
4.41003e-05
-3.34262e-06
4.50001e-05
-3.3095e-06
4.58896e-05
-3.27394e-06
4.6768e-05
-3.23585e-06
4.76346e-05
-3.19518e-06
4.84887e-05
-3.15183e-06
4.93295e-05
-3.10572e-06
5.01561e-05
-3.05676e-06
5.09679e-05
-3.00486e-06
5.17638e-05
-2.94992e-06
5.25431e-05
-2.89181e-06
5.33048e-05
-2.83043e-06
5.4048e-05
-2.76565e-06
5.47717e-05
-2.69731e-06
5.54749e-05
-2.62525e-06
5.61564e-05
-2.5493e-06
5.68153e-05
-2.46926e-06
5.74503e-05
-2.38489e-06
5.80603e-05
-2.29594e-06
5.86437e-05
-2.20211e-06
5.91995e-05
-2.10309e-06
5.97259e-05
-1.99848e-06
6.02215e-05
-1.88785e-06
6.06846e-05
-1.77069e-06
6.11134e-05
-1.6464e-06
6.1506e-05
-1.5143e-06
6.18601e-05
-1.37356e-06
6.21735e-05
-1.22319e-06
6.24437e-05
-1.06201e-06
6.26678e-05
-8.88587e-07
6.28428e-05
-7.01136e-07
6.29652e-05
-4.97453e-07
6.30314e-05
-2.74761e-07
6.3037e-05
-2.95618e-08
6.2978e-05
2.4259e-07
6.28498e-05
5.47404e-07
6.26489e-05
8.92474e-07
6.23729e-05
1.28759e-06
6.20228e-05
1.74521e-06
6.16068e-05
2.28078e-06
6.11466e-05
2.91242e-06
6.06881e-05
3.65898e-06
6.03188e-05
4.53452e-06
6.01841e-05
5.53418e-06
6.59836e-06
6.04596e-05
1.53638e-05
-5.22492e-07
1.55852e-05
-9.97735e-07
1.59032e-05
-1.42118e-06
1.63088e-05
-1.80472e-06
1.67946e-05
-2.1558e-06
1.7354e-05
-2.47797e-06
1.79805e-05
-2.77277e-06
1.8668e-05
-3.04101e-06
1.94105e-05
-3.28321e-06
2.02023e-05
-3.49989e-06
2.10375e-05
-3.6918e-06
2.19107e-05
-3.85994e-06
2.28167e-05
-4.0056e-06
2.37508e-05
-4.13029e-06
2.47086e-05
-4.23568e-06
2.5686e-05
-4.32355e-06
2.66793e-05
-4.39569e-06
2.76855e-05
-4.45384e-06
2.87017e-05
-4.4997e-06
2.97254e-05
-4.53481e-06
3.07545e-05
-4.56058e-06
3.17871e-05
-4.57828e-06
3.28217e-05
-4.58899e-06
3.38568e-05
-4.59365e-06
3.48912e-05
-4.59304e-06
3.59239e-05
-4.58779e-06
3.69539e-05
-4.57843e-06
3.79804e-05
-4.56536e-06
3.90025e-05
-4.54886e-06
4.00195e-05
-4.52917e-06
4.10307e-05
-4.50643e-06
4.20354e-05
-4.48074e-06
4.3033e-05
-4.45212e-06
4.40227e-05
-4.4206e-06
4.50038e-05
-4.38615e-06
4.59758e-05
-4.34872e-06
4.69377e-05
-4.30826e-06
4.7889e-05
-4.26469e-06
4.88289e-05
-4.21792e-06
4.97566e-05
-4.16787e-06
5.06714e-05
-4.11443e-06
5.15723e-05
-4.0575e-06
5.24586e-05
-3.99698e-06
5.33294e-05
-3.93274e-06
5.41838e-05
-3.86467e-06
5.5021e-05
-3.79263e-06
5.58399e-05
-3.71649e-06
5.66396e-05
-3.6361e-06
5.7419e-05
-3.55128e-06
5.81772e-05
-3.46186e-06
5.89131e-05
-3.36763e-06
5.96255e-05
-3.26839e-06
6.03132e-05
-3.16387e-06
6.09751e-05
-3.0538e-06
6.16099e-05
-2.93787e-06
6.22162e-05
-2.81573e-06
6.27926e-05
-2.68697e-06
6.33377e-05
-2.55115e-06
6.385e-05
-2.40775e-06
6.43277e-05
-2.25617e-06
6.47691e-05
-2.09573e-06
6.51725e-05
-1.92562e-06
6.55358e-05
-1.74492e-06
6.5857e-05
-1.55252e-06
6.6134e-05
-1.34712e-06
6.63644e-05
-1.12717e-06
6.65458e-05
-8.90789e-07
6.66759e-05
-6.35716e-07
6.67521e-05
-3.59188e-07
6.67723e-05
-5.78665e-08
6.67346e-05
2.72135e-07
6.66384e-05
6.35497e-07
6.64849e-05
1.03804e-06
6.6278e-05
1.48654e-06
6.60269e-05
1.98851e-06
6.57485e-05
2.55152e-06
6.54715e-05
3.18192e-06
6.52409e-05
3.8822e-06
6.51217e-05
4.64652e-06
6.51955e-05
5.45341e-06
6.25332e-06
6.55337e-05
1.64352e-05
-6.37789e-07
1.66672e-05
-1.22971e-06
1.70021e-05
-1.75593e-06
1.74307e-05
-2.23323e-06
1.79452e-05
-2.6701e-06
1.85383e-05
-3.07085e-06
1.92032e-05
-3.43742e-06
1.99333e-05
-3.77083e-06
2.07221e-05
-4.07175e-06
2.15632e-05
-4.34084e-06
2.24507e-05
-4.57904e-06
2.33786e-05
-4.78764e-06
2.43414e-05
-4.96823e-06
2.53339e-05
-5.1227e-06
2.63513e-05
-5.25316e-06
2.73895e-05
-5.3618e-06
2.84445e-05
-5.45086e-06
2.95129e-05
-5.52253e-06
3.05917e-05
-5.57889e-06
3.16782e-05
-5.62188e-06
3.27703e-05
-5.65327e-06
3.38658e-05
-5.6746e-06
3.4963e-05
-5.68724e-06
3.60606e-05
-5.69235e-06
3.71571e-05
-5.6909e-06
3.82515e-05
-5.68368e-06
3.93427e-05
-5.67133e-06
4.04298e-05
-5.65435e-06
4.15119e-05
-5.63311e-06
4.25883e-05
-5.60788e-06
4.36582e-05
-5.57883e-06
4.47208e-05
-5.54609e-06
4.57753e-05
-5.5097e-06
4.68212e-05
-5.46967e-06
4.78576e-05
-5.42597e-06
4.88837e-05
-5.37854e-06
4.98988e-05
-5.3273e-06
5.09022e-05
-5.27217e-06
5.18929e-05
-5.21303e-06
5.28702e-05
-5.14978e-06
5.38332e-05
-5.08228e-06
5.47811e-05
-5.01042e-06
5.57128e-05
-4.93406e-06
5.66276e-05
-4.85305e-06
5.75245e-05
-4.76725e-06
5.84024e-05
-4.6765e-06
5.92603e-05
-4.58064e-06
6.00973e-05
-4.47947e-06
6.09122e-05
-4.37281e-06
6.1704e-05
-4.26045e-06
6.24716e-05
-4.14214e-06
6.32136e-05
-4.01764e-06
6.39291e-05
-3.88664e-06
6.46166e-05
-3.74885e-06
6.52749e-05
-3.60389e-06
6.59028e-05
-3.45138e-06
6.64987e-05
-3.29087e-06
6.70613e-05
-3.12185e-06
6.75891e-05
-2.94377e-06
6.80805e-05
-2.75596e-06
6.8534e-05
-2.5577e-06
6.8948e-05
-2.34815e-06
6.93208e-05
-2.12634e-06
6.96508e-05
-1.89115e-06
6.99362e-05
-1.64128e-06
7.01755e-05
-1.37525e-06
7.03672e-05
-1.09128e-06
7.05101e-05
-7.87346e-07
7.06032e-05
-4.61048e-07
7.06462e-05
-1.09672e-07
7.064e-05
2.69604e-07
7.0587e-05
6.79822e-07
7.0492e-05
1.12446e-06
7.03632e-05
1.60693e-06
7.02132e-05
2.13007e-06
7.00611e-05
2.69534e-06
6.99334e-05
3.30153e-06
6.98646e-05
3.94301e-06
6.9896e-05
4.60741e-06
7.00689e-05
5.27291e-06
5.90582e-06
7.0409e-05
1.75815e-05
-7.56908e-07
1.78242e-05
-1.47231e-06
1.81762e-05
-2.10783e-06
1.86283e-05
-2.68515e-06
1.91721e-05
-3.21372e-06
1.98e-05
-3.69844e-06
2.05045e-05
-4.14166e-06
2.12785e-05
-4.54463e-06
2.21152e-05
-4.90814e-06
2.30077e-05
-5.23305e-06
2.39493e-05
-5.52049e-06
2.49339e-05
-5.77203e-06
2.59555e-05
-5.98965e-06
2.70085e-05
-6.17563e-06
2.80879e-05
-6.33253e-06
2.91891e-05
-6.46302e-06
3.03078e-05
-6.56981e-06
3.14406e-05
-6.65556e-06
3.25841e-05
-6.72279e-06
3.37355e-05
-6.77386e-06
3.48924e-05
-6.81087e-06
3.60527e-05
-6.83574e-06
3.72145e-05
-6.85009e-06
3.83762e-05
-6.85533e-06
3.95366e-05
-6.85263e-06
4.06942e-05
-6.84296e-06
4.18481e-05
-6.82707e-06
4.29973e-05
-6.80557e-06
4.41409e-05
-6.7789e-06
4.52779e-05
-6.74739e-06
4.64076e-05
-6.71124e-06
4.75292e-05
-6.6706e-06
4.86418e-05
-6.62552e-06
4.97447e-05
-6.57601e-06
5.08371e-05
-6.52204e-06
5.19181e-05
-6.46352e-06
5.2987e-05
-6.40036e-06
5.40429e-05
-6.33246e-06
5.50848e-05
-6.25968e-06
5.6112e-05
-6.18188e-06
5.71235e-05
-6.09892e-06
5.81183e-05
-6.01065e-06
5.90954e-05
-5.91691e-06
6.0054e-05
-5.81752e-06
6.09929e-05
-5.71232e-06
6.19111e-05
-5.60113e-06
6.28076e-05
-5.48374e-06
6.36813e-05
-5.35996e-06
6.4531e-05
-5.22956e-06
6.53555e-05
-5.0923e-06
6.61538e-05
-4.94792e-06
6.69247e-05
-4.79614e-06
6.76668e-05
-4.63664e-06
6.8379e-05
-4.46908e-06
6.90599e-05
-4.29308e-06
6.97084e-05
-4.10821e-06
7.0323e-05
-3.91401e-06
7.09024e-05
-3.70996e-06
7.14453e-05
-3.49547e-06
7.19503e-05
-3.26991e-06
7.24161e-05
-3.03254e-06
7.28413e-05
-2.78256e-06
7.32248e-05
-2.51904e-06
7.35654e-05
-2.24098e-06
7.38619e-05
-1.94721e-06
7.41137e-05
-1.63645e-06
7.43203e-05
-1.30728e-06
7.44816e-05
-9.58092e-07
7.45983e-05
-5.87173e-07
7.4672e-05
-1.92711e-07
7.47054e-05
2.26865e-07
7.47031e-05
6.72771e-07
7.46722e-05
1.14619e-06
7.46223e-05
1.64766e-06
7.45668e-05
2.17659e-06
7.45226e-05
2.73062e-06
7.45106e-05
3.30485e-06
7.4554e-05
3.89098e-06
7.46765e-05
4.47655e-06
7.48967e-05
5.0445e-06
5.57408e-06
7.52204e-05
1.8808e-05
-8.80162e-07
1.90615e-05
-1.72573e-06
1.94311e-05
-2.47723e-06
1.99071e-05
-3.16102e-06
2.04811e-05
-3.78741e-06
2.11446e-05
-4.36174e-06
2.189e-05
-4.88675e-06
2.27095e-05
-5.36386e-06
2.35957e-05
-5.79404e-06
2.45412e-05
-6.17831e-06
2.5539e-05
-6.51804e-06
2.65824e-05
-6.81513e-06
2.76648e-05
-7.07192e-06
2.87804e-05
-7.29116e-06
2.99238e-05
-7.47589e-06
3.109e-05
-7.6293e-06
3.22746e-05
-7.7546e-06
3.34737e-05
-7.85496e-06
3.46839e-05
-7.93338e-06
3.5902e-05
-7.99263e-06
3.71257e-05
-8.03525e-06
3.83525e-05
-8.06347e-06
3.95806e-05
-8.07924e-06
4.08082e-05
-8.08422e-06
4.20338e-05
-8.0798e-06
4.32563e-05
-8.06711e-06
4.44743e-05
-8.04705e-06
4.56869e-05
-8.02032e-06
4.6893e-05
-7.98746e-06
4.80918e-05
-7.94884e-06
4.92824e-05
-7.90472e-06
5.04639e-05
-7.85524e-06
5.16355e-05
-7.80047e-06
5.27962e-05
-7.74042e-06
5.39453e-05
-7.67505e-06
5.50818e-05
-7.60426e-06
5.62049e-05
-7.52793e-06
5.73137e-05
-7.44595e-06
5.84071e-05
-7.35814e-06
5.94843e-05
-7.26436e-06
6.05443e-05
-7.16442e-06
6.1586e-05
-7.05816e-06
6.26084e-05
-6.94539e-06
6.36105e-05
-6.82592e-06
6.45911e-05
-6.69955e-06
6.55492e-05
-6.56608e-06
6.64837e-05
-6.42529e-06
6.73934e-05
-6.27696e-06
6.82771e-05
-6.12084e-06
6.91337e-05
-5.95669e-06
6.9962e-05
-5.78422e-06
7.07607e-05
-5.60312e-06
7.15287e-05
-5.41309e-06
7.22648e-05
-5.21376e-06
7.29677e-05
-5.00476e-06
7.36361e-05
-4.78565e-06
7.4269e-05
-4.556e-06
7.4865e-05
-4.31529e-06
7.5423e-05
-4.06298e-06
7.5942e-05
-3.79847e-06
7.64209e-05
-3.52111e-06
7.68587e-05
-3.23021e-06
7.72548e-05
-2.92498e-06
7.76084e-05
-2.60461e-06
7.79194e-05
-2.26822e-06
7.81878e-05
-1.91487e-06
7.8414e-05
-1.54361e-06
7.85993e-05
-1.15348e-06
7.87456e-05
-7.43552e-07
7.88558e-05
-3.13029e-07
7.89341e-05
1.38521e-07
7.89862e-05
6.10702e-07
7.90197e-05
1.10276e-06
7.90443e-05
1.61321e-06
7.90718e-05
2.13941e-06
7.91156e-05
2.67721e-06
7.91904e-05
3.22061e-06
7.93107e-05
3.76148e-06
7.94885e-05
4.28963e-06
7.9731e-05
4.79311e-06
5.25978e-06
8.00366e-05
2.01205e-05
-1.00792e-06
2.03851e-05
-1.99025e-06
2.07726e-05
-2.86461e-06
2.12732e-05
-3.66145e-06
2.1878e-05
-4.39198e-06
2.25784e-05
-5.0618e-06
2.33659e-05
-5.67393e-06
2.42323e-05
-6.22999e-06
2.51697e-05
-6.73107e-06
2.617e-05
-7.17838e-06
2.72258e-05
-7.57356e-06
2.83298e-05
-7.91885e-06
2.94751e-05
-8.217e-06
3.06553e-05
-8.47127e-06
3.18646e-05
-8.68521e-06
3.30978e-05
-8.86257e-06
3.43502e-05
-9.00713e-06
3.56175e-05
-9.12257e-06
3.68961e-05
-9.21242e-06
3.81828e-05
-9.27993e-06
3.94748e-05
-9.32804e-06
4.07697e-05
-9.35937e-06
4.20655e-05
-9.37619e-06
4.33603e-05
-9.38043e-06
4.46526e-05
-9.37372e-06
4.59411e-05
-9.35736e-06
4.72244e-05
-9.33241e-06
4.85015e-05
-9.29968e-06
4.97712e-05
-9.25978e-06
5.10327e-05
-9.21315e-06
5.2285e-05
-9.16008e-06
5.35271e-05
-9.10074e-06
5.47582e-05
-9.0352e-06
5.59774e-05
-8.96347e-06
5.71836e-05
-8.88548e-06
5.8376e-05
-8.80114e-06
5.95536e-05
-8.7103e-06
6.07154e-05
-8.61282e-06
6.18604e-05
-8.50852e-06
6.29877e-05
-8.3972e-06
6.4096e-05
-8.27868e-06
6.51844e-05
-8.15276e-06
6.62517e-05
-8.01922e-06
6.72969e-05
-7.87786e-06
6.83188e-05
-7.72847e-06
6.93162e-05
-7.57082e-06
7.0288e-05
-7.40468e-06
7.1233e-05
-7.22981e-06
7.215e-05
-7.04597e-06
7.30379e-05
-6.8529e-06
7.38954e-05
-6.6503e-06
7.47214e-05
-6.43789e-06
7.55146e-05
-6.21535e-06
7.6274e-05
-5.98234e-06
7.69983e-05
-5.73851e-06
7.76864e-05
-5.48346e-06
7.83374e-05
-5.21679e-06
7.89502e-05
-4.93807e-06
7.9524e-05
-4.64682e-06
8.00578e-05
-4.34256e-06
8.05511e-05
-4.02479e-06
8.10033e-05
-3.69297e-06
8.14143e-05
-3.34656e-06
8.1784e-05
-2.98504e-06
8.21129e-05
-2.60787e-06
8.24018e-05
-2.21459e-06
8.26522e-05
-1.80479e-06
8.2866e-05
-1.37819e-06
8.30463e-05
-9.34708e-07
8.3197e-05
-4.74525e-07
8.33227e-05
2.02868e-09
8.34291e-05
4.93543e-07
8.35238e-05
9.97441e-07
8.36152e-05
1.51123e-06
8.37128e-05
2.03141e-06
8.38263e-05
2.55338e-06
8.39653e-05
3.07142e-06
8.4138e-05
3.57873e-06
8.43501e-05
4.06772e-06
8.4603e-05
4.53051e-06
4.96022e-06
8.48931e-05
2.15247e-05
-1.14059e-06
2.18009e-05
-2.2663e-06
2.2207e-05
-3.27052e-06
2.27329e-05
-4.18717e-06
2.33695e-05
-5.02832e-06
2.41077e-05
-5.7997e-06
2.49386e-05
-6.50449e-06
2.58534e-05
-7.14444e-06
2.68435e-05
-7.7208e-06
2.79004e-05
-8.23495e-06
2.90159e-05
-8.68881e-06
3.01824e-05
-9.08499e-06
3.13923e-05
-9.42671e-06
3.26389e-05
-9.71776e-06
3.3916e-05
-9.96226e-06
3.52179e-05
-1.01646e-05
3.65397e-05
-1.0329e-05
3.78768e-05
-1.046e-05
3.92253e-05
-1.05614e-05
4.05819e-05
-1.06372e-05
4.19436e-05
-1.06906e-05
4.33079e-05
-1.07247e-05
4.46726e-05
-1.07421e-05
4.60357e-05
-1.0745e-05
4.73957e-05
-1.07354e-05
4.87511e-05
-1.07146e-05
5.01005e-05
-1.0684e-05
5.14427e-05
-1.06444e-05
5.27768e-05
-1.05965e-05
5.41015e-05
-1.05409e-05
5.5416e-05
-1.04778e-05
5.67192e-05
-1.04075e-05
5.80102e-05
-1.033e-05
5.92879e-05
-1.02454e-05
6.05515e-05
-1.01535e-05
6.17998e-05
-1.00542e-05
6.30318e-05
-9.94746e-06
6.42466e-05
-9.83299e-06
6.5443e-05
-9.71062e-06
6.66199e-05
-9.58014e-06
6.77762e-05
-9.44135e-06
6.89108e-05
-9.294e-06
7.00226e-05
-9.13789e-06
7.11102e-05
-8.97278e-06
7.21727e-05
-8.79844e-06
7.32087e-05
-8.61465e-06
7.42171e-05
-8.42118e-06
7.51966e-05
-8.21777e-06
7.61462e-05
-8.00419e-06
7.70645e-05
-7.78018e-06
7.79505e-05
-7.54547e-06
7.8803e-05
-7.2998e-06
7.96209e-05
-7.04288e-06
8.0403e-05
-6.77442e-06
8.11485e-05
-6.4941e-06
8.18564e-05
-6.20162e-06
8.25257e-05
-5.89665e-06
8.31558e-05
-5.57886e-06
8.37461e-05
-5.24792e-06
8.4296e-05
-4.90351e-06
8.48054e-05
-4.54531e-06
8.52742e-05
-4.17304e-06
8.57027e-05
-3.78645e-06
8.60915e-05
-3.38534e-06
8.64417e-05
-2.96961e-06
8.67548e-05
-2.53927e-06
8.70329e-05
-2.09447e-06
8.72786e-05
-1.63557e-06
8.74955e-05
-1.1632e-06
8.76876e-05
-6.78287e-07
8.78601e-05
-1.82088e-07
8.80186e-05
3.23532e-07
8.81692e-05
8.35439e-07
8.83186e-05
1.35046e-06
8.84738e-05
1.86487e-06
8.86417e-05
2.37438e-06
8.8828e-05
2.87415e-06
8.9037e-05
3.35891e-06
8.92708e-05
3.82331e-06
8.95286e-05
4.26229e-06
4.67215e-06
8.98064e-05
2.30273e-05
-1.2786e-06
2.33155e-05
-2.55436e-06
2.37408e-05
-3.69562e-06
2.42928e-05
-4.73898e-06
2.49622e-05
-5.6974e-06
2.57394e-05
-6.57656e-06
2.66149e-05
-7.37968e-06
2.75795e-05
-8.10862e-06
2.86238e-05
-8.76472e-06
2.97388e-05
-9.34957e-06
3.09157e-05
-9.86537e-06
3.21461e-05
-1.03151e-05
3.34223e-05
-1.07026e-05
3.47368e-05
-1.10322e-05
3.60832e-05
-1.13085e-05
3.74552e-05
-1.15367e-05
3.88476e-05
-1.17217e-05
4.02557e-05
-1.18684e-05
4.16753e-05
-1.19815e-05
4.31029e-05
-1.20654e-05
4.45352e-05
-1.21238e-05
4.59697e-05
-1.21602e-05
4.7404e-05
-1.21777e-05
4.88361e-05
-1.21787e-05
5.02642e-05
-1.21653e-05
5.16869e-05
-1.21394e-05
5.31028e-05
-1.21021e-05
5.45105e-05
-1.20547e-05
5.5909e-05
-1.19979e-05
5.72971e-05
-1.19322e-05
5.86738e-05
-1.1858e-05
6.0038e-05
-1.17755e-05
6.13887e-05
-1.16849e-05
6.27249e-05
-1.1586e-05
6.40454e-05
-1.14788e-05
6.53493e-05
-1.13632e-05
6.66354e-05
-1.1239e-05
6.79026e-05
-1.11059e-05
6.91498e-05
-1.09639e-05
7.03757e-05
-1.08125e-05
7.15793e-05
-1.06517e-05
7.27594e-05
-1.04811e-05
7.39146e-05
-1.03006e-05
7.50439e-05
-1.01098e-05
7.6146e-05
-9.90857e-06
7.72196e-05
-9.69667e-06
7.82636e-05
-9.47386e-06
7.92768e-05
-9.23992e-06
8.0258e-05
-8.99461e-06
8.12059e-05
-8.73772e-06
8.21196e-05
-8.46901e-06
8.2998e-05
-8.18825e-06
8.384e-05
-7.89523e-06
8.46447e-05
-7.58971e-06
8.54112e-05
-7.27149e-06
8.61389e-05
-6.94034e-06
8.6827e-05
-6.59607e-06
8.74752e-05
-6.23849e-06
8.80831e-05
-5.86747e-06
8.86507e-05
-5.48287e-06
8.91781e-05
-5.08462e-06
8.96657e-05
-4.67273e-06
9.01143e-05
-4.24726e-06
9.05251e-05
-3.8084e-06
9.08995e-05
-3.35645e-06
9.12397e-05
-2.89188e-06
9.15481e-05
-2.41536e-06
9.18279e-05
-1.9278e-06
9.20825e-05
-1.43036e-06
9.23163e-05
-9.2456e-07
9.2534e-05
-4.12193e-07
9.27402e-05
1.04911e-07
9.29398e-05
6.23517e-07
9.3138e-05
1.13998e-06
9.33399e-05
1.65088e-06
9.35498e-05
2.15256e-06
9.37709e-05
2.64119e-06
9.40052e-05
3.11286e-06
9.42531e-05
3.56389e-06
9.4513e-05
3.9911e-06
4.39263e-06
9.47814e-05
2.4635e-05
-1.42236e-06
2.49357e-05
-2.85501e-06
2.53809e-05
-4.14062e-06
2.596e-05
-5.31775e-06
2.66631e-05
-6.40021e-06
2.74804e-05
-7.39348e-06
2.84018e-05
-8.30072e-06
2.94174e-05
-9.12381e-06
3.05173e-05
-9.86417e-06
3.16918e-05
-1.05236e-05
3.29313e-05
-1.11046e-05
3.42272e-05
-1.16106e-05
3.55708e-05
-1.20459e-05
3.69544e-05
-1.24156e-05
3.8371e-05
-1.2725e-05
3.98141e-05
-1.29798e-05
4.1278e-05
-1.31858e-05
4.27578e-05
-1.33485e-05
4.4249e-05
-1.34733e-05
4.57479e-05
-1.35649e-05
4.72512e-05
-1.36279e-05
4.87561e-05
-1.36662e-05
5.02601e-05
-1.3683e-05
5.17611e-05
-1.36813e-05
5.32573e-05
-1.36634e-05
5.47472e-05
-1.36314e-05
5.62293e-05
-1.35866e-05
5.77021e-05
-1.35304e-05
5.91647e-05
-1.34635e-05
6.06157e-05
-1.33866e-05
6.2054e-05
-1.33001e-05
6.34786e-05
-1.32042e-05
6.48884e-05
-1.3099e-05
6.62822e-05
-1.29845e-05
6.76589e-05
-1.28606e-05
6.90174e-05
-1.27271e-05
7.03566e-05
-1.25839e-05
7.16752e-05
-1.24307e-05
7.2972e-05
-1.22672e-05
7.42459e-05
-1.20933e-05
7.54956e-05
-1.19086e-05
7.67199e-05
-1.1713e-05
7.79175e-05
-1.15061e-05
7.90871e-05
-1.12877e-05
8.02276e-05
-1.10577e-05
8.13377e-05
-1.08157e-05
8.24161e-05
-1.05616e-05
8.34618e-05
-1.02952e-05
8.44735e-05
-1.00162e-05
8.54502e-05
-9.72462e-06
8.63908e-05
-9.42014e-06
8.72943e-05
-9.10264e-06
8.816e-05
-8.77198e-06
8.8987e-05
-8.42805e-06
8.97746e-05
-8.07074e-06
9.05224e-05
-7.69997e-06
9.123e-05
-7.31571e-06
9.18972e-05
-6.91797e-06
9.25241e-05
-6.50679e-06
9.31109e-05
-6.0823e-06
9.36581e-05
-5.64469e-06
9.41667e-05
-5.19426e-06
9.46378e-05
-4.73141e-06
9.50729e-05
-4.25668e-06
9.54739e-05
-3.77075e-06
9.58432e-05
-3.27451e-06
9.61835e-05
-2.76903e-06
9.64979e-05
-2.25561e-06
9.67899e-05
-1.73582e-06
9.70634e-05
-1.21147e-06
9.73225e-05
-6.84632e-07
9.75713e-05
-1.57242e-07
9.78135e-05
3.68095e-07
9.80527e-05
8.87646e-07
9.82921e-05
1.39836e-06
9.85346e-05
1.8972e-06
9.87818e-05
2.38121e-06
9.90345e-05
2.84758e-06
9.92921e-05
3.2938e-06
9.95531e-05
3.71789e-06
4.11908e-06
9.98146e-05
2.63551e-05
-1.57232e-06
2.6669e-05
-3.16886e-06
2.71349e-05
-4.60629e-06
2.77418e-05
-5.92439e-06
2.84797e-05
-7.13773e-06
2.93381e-05
-8.25153e-06
3.03066e-05
-9.26871e-06
3.13744e-05
-1.01911e-05
3.25309e-05
-1.10203e-05
3.37658e-05
-1.17581e-05
3.50691e-05
-1.24074e-05
3.64311e-05
-1.29722e-05
3.78429e-05
-1.34574e-05
3.92963e-05
-1.38687e-05
4.07835e-05
-1.42121e-05
4.2298e-05
-1.44942e-05
4.38336e-05
-1.47215e-05
4.53851e-05
-1.49003e-05
4.69478e-05
-1.50365e-05
4.85177e-05
-1.51356e-05
5.00915e-05
-1.52027e-05
5.16662e-05
-1.5242e-05
5.32393e-05
-1.52574e-05
5.48085e-05
-1.52522e-05
5.63719e-05
-1.52289e-05
5.7928e-05
-1.51897e-05
5.94752e-05
-1.51364e-05
6.10121e-05
-1.50702e-05
6.25375e-05
-1.49921e-05
6.40501e-05
-1.49028e-05
6.55488e-05
-1.48027e-05
6.70324e-05
-1.46921e-05
6.84998e-05
-1.4571e-05
6.99498e-05
-1.44395e-05
7.13812e-05
-1.42974e-05
7.27928e-05
-1.41445e-05
7.41834e-05
-1.39807e-05
7.55519e-05
-1.38056e-05
7.68968e-05
-1.36191e-05
7.82169e-05
-1.34208e-05
7.95111e-05
-1.32105e-05
8.07779e-05
-1.29879e-05
8.20162e-05
-1.27528e-05
8.32245e-05
-1.25049e-05
8.44018e-05
-1.22441e-05
8.55468e-05
-1.19702e-05
8.66582e-05
-1.16829e-05
8.7735e-05
-1.13822e-05
8.8776e-05
-1.10679e-05
8.97803e-05
-1.07399e-05
9.07469e-05
-1.0398e-05
9.16751e-05
-1.00423e-05
9.2564e-05
-9.67276e-06
9.34131e-05
-9.2893e-06
9.42219e-05
-8.89201e-06
9.49902e-05
-8.48098e-06
9.5718e-05
-8.05635e-06
9.64052e-05
-7.61835e-06
9.70523e-05
-7.16724e-06
9.76599e-05
-6.70342e-06
9.82288e-05
-6.22733e-06
9.87603e-05
-5.73958e-06
9.92557e-05
-5.24087e-06
9.9717e-05
-4.73205e-06
0.000100146
-4.21414e-06
0.000100546
-3.68832e-06
0.000100918
-3.15598e-06
0.000101267
-2.61867e-06
0.000101595
-2.07817e-06
0.000101905
-1.53644e-06
0.000102202
-9.95599e-07
0.000102488
-4.5783e-07
0.000102767
7.52009e-08
0.00010304
6.0045e-07
0.00010331
1.1146e-06
0.000103578
1.61526e-06
0.000103845
2.10025e-06
0.000104111
2.56755e-06
0.000104376
3.01544e-06
0.000104638
3.44268e-06
3.84915e-06
0.000104895
2.81954e-05
-1.72889e-06
2.85232e-05
-3.49655e-06
2.90105e-05
-5.09337e-06
2.96462e-05
-6.55976e-06
3.04198e-05
-7.91088e-06
3.13203e-05
-9.15162e-06
3.23366e-05
-1.02846e-05
3.34574e-05
-1.13114e-05
3.46714e-05
-1.22337e-05
3.59675e-05
-1.30536e-05
3.73349e-05
-1.37743e-05
3.87634e-05
-1.44003e-05
4.02436e-05
-1.49372e-05
4.17665e-05
-1.53913e-05
4.33241e-05
-1.57696e-05
4.49094e-05
-1.60795e-05
4.6516e-05
-1.63282e-05
4.81382e-05
-1.65228e-05
4.97714e-05
-1.667e-05
5.14112e-05
-1.67761e-05
5.30541e-05
-1.68465e-05
5.46971e-05
-1.68862e-05
5.63375e-05
-1.68993e-05
5.79731e-05
-1.68895e-05
5.9602e-05
-1.68598e-05
6.12224e-05
-1.68124e-05
6.28327e-05
-1.67494e-05
6.44316e-05
-1.66721e-05
6.60177e-05
-1.65816e-05
6.75898e-05
-1.64786e-05
6.91466e-05
-1.63636e-05
7.0687e-05
-1.6237e-05
7.22097e-05
-1.60986e-05
7.37136e-05
-1.59487e-05
7.51974e-05
-1.57869e-05
7.66598e-05
-1.56131e-05
7.80996e-05
-1.5427e-05
7.95155e-05
-1.52285e-05
8.09061e-05
-1.50171e-05
8.22703e-05
-1.47927e-05
8.36066e-05
-1.4555e-05
8.49137e-05
-1.43036e-05
8.61904e-05
-1.40385e-05
8.74355e-05
-1.37594e-05
8.86475e-05
-1.3466e-05
8.98255e-05
-1.31583e-05
9.09681e-05
-1.28362e-05
9.20744e-05
-1.24995e-05
9.31434e-05
-1.21482e-05
9.41741e-05
-1.17823e-05
9.51658e-05
-1.14017e-05
9.61177e-05
-1.10066e-05
9.70294e-05
-1.05971e-05
9.79005e-05
-1.01733e-05
9.87306e-05
-9.73547e-06
9.95199e-05
-9.28382e-06
0.000100268
-8.81874e-06
0.000100977
-8.34066e-06
0.000101645
-7.85009e-06
0.000102275
-7.34766e-06
0.000102867
-6.83409e-06
0.000103423
-6.31024e-06
0.000103944
-5.77708e-06
0.000104433
-5.23574e-06
0.000104891
-4.68746e-06
0.000105321
-4.13366e-06
0.000105725
-3.5759e-06
0.000106107
-3.01588e-06
0.000106469
-2.45545e-06
0.000106814
-1.89656e-06
0.000107144
-1.34126e-06
0.000107462
-7.91609e-07
0.000107772
-2.49339e-07
0.000108073
2.83785e-07
0.000108368
8.04781e-07
0.000108656
1.3115e-06
0.00010894
1.80217e-06
0.000109217
2.27533e-06
0.000109488
2.7298e-06
0.000109752
3.16482e-06
3.58063e-06
0.000110006
3.01643e-05
-1.89246e-06
3.05066e-05
-3.83874e-06
3.10161e-05
-5.60263e-06
3.16814e-05
-7.22469e-06
3.24914e-05
-8.72048e-06
3.34348e-05
-1.00945e-05
3.44996e-05
-1.13489e-05
3.56739e-05
-1.24851e-05
3.69456e-05
-1.35048e-05
3.83029e-05
-1.44103e-05
3.97342e-05
-1.52051e-05
4.12288e-05
-1.58944e-05
4.27765e-05
-1.64844e-05
4.4368e-05
-1.69824e-05
4.59949e-05
-1.73962e-05
4.76495e-05
-1.7734e-05
4.93252e-05
-1.80039e-05
5.10162e-05
-1.82141e-05
5.27175e-05
-1.83718e-05
5.44248e-05
-1.8484e-05
5.61343e-05
-1.85569e-05
5.78429e-05
-1.85959e-05
5.95479e-05
-1.86058e-05
6.1247e-05
-1.85904e-05
6.29382e-05
-1.85531e-05
6.46197e-05
-1.84964e-05
6.629e-05
-1.84225e-05
6.79477e-05
-1.83328e-05
6.95913e-05
-1.82287e-05
7.12196e-05
-1.81108e-05
7.28313e-05
-1.79797e-05
7.44252e-05
-1.78356e-05
7.60001e-05
-1.76787e-05
7.75546e-05
-1.75088e-05
7.90875e-05
-1.73258e-05
8.05975e-05
-1.71295e-05
8.20832e-05
-1.69197e-05
8.35434e-05
-1.6696e-05
8.49767e-05
-1.64582e-05
8.63818e-05
-1.6206e-05
8.77573e-05
-1.59392e-05
8.9102e-05
-1.56574e-05
9.04144e-05
-1.53606e-05
9.16935e-05
-1.50484e-05
9.29379e-05
-1.47209e-05
9.41465e-05
-1.43779e-05
9.53183e-05
-1.40193e-05
9.64522e-05
-1.36451e-05
9.75475e-05
-1.32555e-05
9.86032e-05
-1.28505e-05
9.96188e-05
-1.24302e-05
0.000100594
-1.19948e-05
0.000101528
-1.15446e-05
0.00010242
-1.10799e-05
0.000103272
-1.06012e-05