/*--------------------------------*- C++ -*----------------------------------*\
  =========                 |
  \\      /  F ield         | OpenFOAM: The Open Source CFD Toolbox
   \\    /   O peration     | Website:  https://openfoam.org
    \\  /    A nd           | Version:  7
     \\/     M anipulation  |
\*---------------------------------------------------------------------------*/
FoamFile
{
    version     2.0;
    format      ascii;
    class       volScalarField;
    location    "1.3";
    object      p;
}
// * * * * * * * * * * * * * * * * * * * * * * * * * * * * * * * * * * * * * //

dimensions      [0 2 -2 0 0 0 0];

internalField   nonuniform List<scalar> 
2790
(
191.189
191.097
191.366
191.94
192.724
193.685
194.821
196.131
197.61
199.253
201.052
203.001
205.091
207.308
209.637
212.058
214.543
217.059
219.562
222.004
224.326
226.463
228.352
229.931
231.15
231.988
232.391
232.429
232.484
232.692
190.986
191.005
191.299
191.87
192.65
193.607
194.739
196.043
197.515
199.15
200.94
202.879
204.957
207.164
209.482
211.893
214.37
216.88
219.382
221.828
224.16
226.315
228.228
229.834
231.077
231.913
232.277
232.328
232.452
232.722
190.787
190.875
191.189
191.749
192.516
193.461
194.578
195.864
197.315
198.924
200.687
202.594
204.638
206.807
209.085
211.453
213.886
216.354
218.818
221.234
223.548
225.701
227.632
229.279
230.588
231.526
232.087
232.424
232.721
233.005
190.561
190.68
191.006
191.558
192.31
193.239
194.337
195.598
197.021
198.597
200.321
202.185
204.18
206.294
208.512
210.816
213.183
215.584
217.984
220.344
222.616
224.749
226.69
228.388
229.801
230.914
231.749
232.393
232.926
233.43
190.299
190.433
190.767
191.312
192.047
192.955
194.027
195.258
196.643
198.176
199.851
201.659
203.592
205.636
207.778
210.001
212.282
214.596
216.912
219.195
221.406
223.504
225.447
227.197
228.726
230.03
231.126
232.06
232.849
233.579
189.997
190.136
190.473
191.008
191.723
192.605
193.646
194.839
196.18
197.662
199.278
201.02
202.878
204.84
206.893
209.018
211.197
213.406
215.619
217.806
219.937
221.979
223.903
225.684
227.308
228.771
230.083
231.259
232.256
233.154
189.653
189.793
190.127
190.648
191.342
192.194
193.197
194.347
195.636
197.059
198.608
200.274
202.046
203.914
205.864
207.878
209.939
212.027
214.117
216.187
218.211
220.169
222.041
223.814
225.482
227.046
228.506
229.854
230.995
232.021
189.267
189.405
189.731
190.237
190.904
191.722
192.684
193.784
195.016
196.372
197.845
199.425
201.102
202.865
204.698
206.588
208.515
210.463
212.41
214.338
216.228
218.065
219.839
221.547
223.19
224.774
226.296
227.738
228.963
230.092
188.838
188.972
189.288
189.774
190.413
191.193
192.109
193.155
194.323
195.606
196.995
198.481
200.053
201.698
203.404
205.154
206.933
208.721
210.503
212.26
213.98
215.651
217.27
218.84
220.37
221.873
223.351
224.792
226.039
227.254
188.369
188.498
188.801
189.265
189.871
190.611
191.477
192.463
193.562
194.765
196.063
197.447
198.905
200.424
201.99
203.587
205.2
206.811
208.402
209.958
211.466
212.918
214.312
215.655
216.962
218.255
219.549
220.861
222.038
223.316
187.861
187.984
188.271
188.71
189.283
189.978
190.79
191.713
192.737
193.855
195.057
196.331
197.667
199.05
200.465
201.897
203.329
204.741
206.116
207.438
208.69
209.864
210.954
211.965
212.912
213.824
214.737
215.718
216.662
217.951
187.316
187.432
187.702
188.114
188.65
189.298
190.054
190.909
191.855
192.883
193.982
195.141
196.347
197.586
198.842
200.096
201.332
202.527
203.662
204.716
205.668
206.502
207.201
207.76
208.182
208.491
208.734
209.041
209.418
210.563
186.736
186.844
187.096
187.479
187.975
188.575
189.271
190.055
190.919
191.853
192.846
193.885
194.956
196.044
197.131
198.198
199.225
200.187
201.06
201.817
202.427
202.861
203.086
203.068
202.779
202.203
201.358
200.401
199.485
199.976
186.123
186.223
186.455
186.808
187.264
187.812
188.446
189.158
189.937
190.774
191.656
192.571
193.502
194.434
195.347
196.219
197.028
197.744
198.338
198.773
199.009
198.995
198.672
197.965
196.78
195.007
192.523
189.326
185.504
183.528
185.48
185.571
185.783
186.104
186.518
187.014
187.584
188.221
188.913
189.651
190.42
191.208
191.997
192.769
193.503
194.176
194.76
195.222
195.526
195.626
195.467
194.977
194.062
192.592
190.381
187.149
182.458
175.671
165.562
153.753
49.3881
49.1214
48.578
47.9116
47.2089
46.4952
45.7765
45.0561
44.3327
43.6094
42.8558
42.0524
41.1666
40.1684
39.0235
37.7057
36.2029
34.5095
32.6275
30.5681
28.3516
26.0051
23.5604
21.0488
18.4963
15.858
13.0612
10.0599
6.65169
2.60656
49.039
48.7629
48.2923
47.6981
47.0498
46.3794
45.7035
45.035
44.3608
43.6464
42.8995
42.1026
41.2242
40.2318
39.0862
37.7587
36.2448
34.5406
32.6475
30.5772
28.3501
25.9938
23.5406
21.0208
18.4448
15.7783
12.9637
9.93146
6.50637
2.46873
48.9013
48.6284
48.213
47.6771
47.0834
46.4646
45.8378
45.189
44.5073
43.7982
43.0515
42.2449
41.3491
40.3325
39.1621
37.8129
36.276
34.5485
32.6338
30.5442
28.2998
25.9276
23.4577
20.9165
18.3075
15.6041
12.7658
9.72548
6.33042
2.31384
49.006
48.7233
48.3469
47.8542
47.304
46.7187
46.1001
45.4486
44.7727
44.0615
43.2991
42.4645
41.5313
40.471
39.2559
37.8648
36.2874
34.5211
32.5707
30.449
28.1761
25.7778
23.2814
20.7082
18.0632
15.3279
12.4694
9.4335
6.08476
2.16101
49.3317
49.0547
48.686
48.2132
47.6827
47.1048
46.4836
45.8309
45.1455
44.4142
43.6204
42.7434
41.7589
40.6416
39.368
37.92
36.2879
34.4698
32.4716
30.3065
27.9949
25.5616
23.0311
20.4219
17.7412
14.978
12.1073
9.08332
5.7867
2.01195
49.8038
49.5221
49.1467
48.6717
48.1527
47.5731
46.9523
46.2926
45.5886
44.8278
43.9935
43.0655
42.0214
40.8385
39.4964
37.9797
36.2805
34.3979
32.3389
30.118
27.7559
25.2773
22.7056
20.0583
17.3453
14.5624
11.69
8.68659
5.45384
1.8655
50.2994
50.0158
49.6479
49.1986
48.6665
48.0878
47.4641
46.7939
46.0694
45.2773
44.4005
43.4191
42.3121
41.059
39.6422
38.0488
36.2728
34.3152
32.1845
29.8966
27.4733
24.94
22.3207
19.6334
16.8906
14.0945
11.2295
8.25535
5.10072
1.72089
50.7477
50.4852
50.1305
49.6881
49.1702
48.5984
47.9769
47.3015
46.5621
45.7438
44.8285
43.7964
42.6276
41.3036
39.809
38.1336
36.2735
34.2318
32.0193
29.6537
27.1586
24.5613
21.8877
19.1584
16.3879
13.5848
10.7352
7.79941
4.7368
1.57792
51.1379
50.8917
50.5498
50.1181
49.6203
49.0678
48.4612
47.7931
47.0503
46.2158
45.2704
44.1942
42.9681
41.5751
40.0023
38.2418
36.2921
34.1589
31.8555
29.4022
26.8253
24.1545
21.4194
18.6448
15.8492
13.0435
10.2148
7.32652
4.36807
1.43653
51.4199
51.1763
50.8546
50.4526
49.9919
49.4769
48.9032
48.259
47.5278
46.6902
45.7257
44.6141
43.3371
41.8793
40.2295
38.3825
36.3393
34.1084
31.7061
29.1558
26.4873
23.7337
20.929
18.1043
15.2835
12.4779
9.67501
6.84253
3.99827
1.29675
51.5362
51.311
51.0301
50.6811
50.2806
49.8253
49.3046
48.7024
47.9986
47.1715
46.1995
45.0621
43.7415
42.2235
40.4992
38.5655
36.4262
34.0927
31.5844
28.9285
26.1588
23.3128
20.4298
17.5477
14.6979
11.8934
9.12134
6.35164
3.6296
1.15869
51.4883
51.297
51.0823
50.8155
50.5023
50.1295
49.6815
49.1377
48.4754
47.671
46.7018
45.5472
44.1898
42.6168
40.8208
38.8011
36.5641
34.1239
31.5034
28.734
25.8538
22.9054
19.9339
16.9853
14.1002
11.2973
8.55933
5.85679
3.26312
1.0223
51.2717
51.137
51.0299
50.8863
50.6903
50.4206
50.0604
49.5872
48.9764
48.2033
47.2447
46.0796
44.6913
43.0678
41.2032
39.0988
36.7633
34.2137
31.4758
28.5854
25.5859
22.5254
19.4552
16.4298
13.5008
10.695
7.99032
5.35951
2.89901
0.887335
50.8472
50.8166
50.9005
50.9424
50.8927
50.7386
50.4739
50.0768
49.5218
48.7842
47.8403
46.6691
45.254
43.5838
41.6536
39.4663
37.0329
34.3723
31.5132
28.4959
25.3692
22.187
19.0071
15.8926
12.9061
10.086
7.41293
4.86104
2.53684
0.75345
50.0958
50.2717
50.7341
51.0587
51.1693
51.1247
50.9532
50.6298
50.1286
49.4258
48.4973
47.3218
45.8826
44.1687
42.1759
39.9084
37.3787
34.6072
31.6248
28.4759
25.2154
21.9026
18.601
15.3833
12.3232
9.47478
6.83427
4.36433
2.17617
0.620533
184.796
184.878
185.069
185.357
185.727
186.168
186.673
187.232
187.835
188.47
189.123
189.779
190.422
191.03
191.581
192.049
192.402
192.604
192.61
192.367
191.803
190.825
189.306
187.059
183.796
179.041
171.911
160.565
139.213
81.7221
184.064
184.137
184.305
184.559
184.883
185.267
185.702
186.181
186.691
187.22
187.753
188.275
188.766
189.206
189.57
189.828
189.946
189.885
189.592
189.005
188.042
186.594
184.509
181.562
177.413
171.501
162.838
149.773
131.04
103.843
183.29
183.352
183.497
183.715
183.991
184.316
184.682
185.078
185.492
185.913
186.324
186.709
187.048
187.318
187.493
187.542
187.428
187.106
186.523
185.609
184.276
182.408
179.847
176.373
171.675
165.322
156.758
145.393
131.819
116.113
182.473
182.525
182.647
182.828
183.055
183.32
183.614
183.926
184.244
184.555
184.843
185.091
185.277
185.379
185.368
185.212
184.872
184.303
183.447
182.234
180.576
178.361
175.443
171.635
166.703
160.374
152.378
142.416
130.473
116.161
181.617
181.659
181.756
181.899
182.078
182.282
182.503
182.73
182.952
183.153
183.319
183.431
183.467
183.403
183.212
182.859
182.306
181.506
180.403
178.93
177.002
174.519
171.357
167.37
162.386
156.224
148.702
139.603
128.795
116.492
180.723
180.755
180.827
180.932
181.061
181.204
181.353
181.496
181.621
181.714
181.759
181.738
181.628
181.406
181.042
180.505
179.754
178.746
177.427
175.735
173.594
170.919
167.609
163.552
158.628
152.713
145.7
137.507
128.143
118.02
179.795
179.815
179.863
179.931
180.01
180.092
180.169
180.228
180.259
180.246
180.174
180.023
179.774
179.401
178.876
178.168
177.24
176.049
174.547
172.678
170.379
167.578
164.198
160.158
155.378
149.787
143.342
136.041
127.943
119.377
178.834
178.845
178.867
178.898
178.928
178.95
178.956
178.934
178.872
178.756
178.571
178.298
177.916
177.402
176.729
175.867
174.782
173.436
171.784
169.78
167.371
164.502
161.116
157.156
152.576
147.343
141.447
134.918
127.813
120.397
177.846
177.846
177.844
177.838
177.82
177.784
177.72
177.619
177.468
177.254
176.962
176.573
176.068
175.424
174.617
173.619
172.399
170.923
169.155
167.053
164.578
161.688
158.342
154.506
150.154
145.276
139.883
134.013
127.723
121.236
176.833
176.823
176.798
176.756
176.691
176.598
176.468
176.29
176.055
175.748
175.354
174.858
174.24
173.479
172.554
171.438
170.105
168.525
166.669
164.504
161.998
159.123
155.851
152.163
148.049
143.512
138.573
133.274
127.669
121.939
175.801
175.781
175.733
175.656
175.547
175.399
175.205
174.956
174.64
174.246
173.759
173.163
172.443
171.579
170.55
169.334
167.909
166.25
164.332
162.131
159.624
156.791
153.616
150.089
146.212
141.995
137.463
132.657
127.624
122.511
174.754
174.725
174.656
174.545
174.392
174.193
173.939
173.622
173.231
172.756
172.184
171.499
170.688
169.733
168.615
167.318
165.82
164.103
162.147
159.933
157.447
154.675
151.61
148.25
144.6
140.678
136.507
132.125
127.573
122.969
173.699
173.66
173.57
173.428
173.235
172.987
172.677
172.296
171.837
171.288
170.638
169.874
168.983
167.95
166.759
165.395
163.843
162.086
160.111
157.904
155.455
152.758
149.809
146.613
143.179
139.524
135.672
131.655
127.509
123.329
172.639
172.593
172.483
172.311
172.08
171.787
171.425
170.986
170.464
169.849
169.13
168.296
167.336
166.237
164.987
163.572
161.98
160.2
158.221
156.035
153.635
151.02
148.19
145.153
141.918
138.504
134.933
131.232
127.43
123.606
171.583
171.529
171.4
171.201
170.935
170.6
170.19
169.699
169.121
168.446
167.666
166.772
165.754
164.601
163.303
161.85
160.233
158.443
156.473
154.318
151.975
149.446
146.734
143.846
140.795
137.598
134.272
130.844
127.336
123.813
170.535
170.474
170.329
170.105
169.807
169.433
168.981
168.443
167.813
167.087
166.254
165.309
164.242
163.046
161.712
160.233
158.601
156.812
154.86
152.744
150.463
148.021
145.421
142.674
139.791
136.786
133.677
130.485
127.229
123.963
169.504
169.436
169.276
169.029
168.702
168.294
167.803
167.223
166.55
165.778
164.901
163.913
162.807
161.577
160.217
158.721
157.084
155.304
153.378
151.305
149.088
146.73
144.238
141.621
138.889
136.056
133.138
130.151
127.112
124.065
168.496
168.422
168.248
167.98
167.627
167.189
166.664
166.047
165.336
164.525
163.611
162.588
161.451
160.196
158.818
157.313
155.68
153.915
152.019
149.993
147.839
145.564
143.172
140.674
138.078
135.398
132.646
129.838
126.986
124.129
167.518
167.439
167.252
166.967
166.59
166.125
165.57
164.922
164.178
163.335
162.39
161.339
160.179
158.906
157.517
156.011
154.385
152.641
150.778
148.799
146.708
144.51
142.212
139.822
137.348
134.804
132.198
129.545
126.855
124.161
166.578
166.494
166.297
165.995
165.598
165.11
164.529
163.854
163.083
162.214
161.244
160.171
158.993
157.708
156.315
154.812
153.199
151.478
149.65
147.719
145.687
143.562
141.349
139.056
136.692
134.267
131.79
129.272
126.723
124.169
165.683
165.595
165.389
165.073
164.659
164.151
163.548
162.851
162.057
161.166
160.177
159.088
157.898
156.606
155.212
153.717
152.12
150.424
148.631
146.745
144.77
142.712
140.576
138.371
136.104
133.784
131.419
129.018
126.591
124.158
164.843
164.751
164.536
164.208
163.779
163.254
162.633
161.917
161.105
160.197
159.193
158.092
156.894
155.6
154.21
152.724
151.145
149.475
147.716
145.873
143.951
141.954
139.888
137.761
135.58
133.352
131.084
128.785
126.463
124.135
164.063
163.969
163.747
163.408
162.966
162.427
161.791
161.06
160.233
159.312
158.297
157.188
155.987
154.693
153.308
151.834
150.274
148.629
146.903
145.1
143.225
141.284
139.281
137.223
135.116
132.968
130.785
128.574
126.341
124.104
163.355
163.257
163.029
162.681
162.228
161.677
161.029
160.285
159.448
158.517
157.494
156.38
155.177
153.886
152.509
151.048
149.505
147.885
146.189
144.423
142.592
140.699
138.751
136.753
134.711
132.632
130.521
128.386
126.231
124.07
162.725
162.625
162.39
162.034
161.572
161.011
160.353
159.6
158.754
157.815
156.787
155.671
154.469
153.182
151.813
150.365
148.84
147.241
145.574
143.841
142.047
140.197
138.296
136.35
134.364
132.343
130.294
128.221
126.131
124.034
162.183
162.08
161.84
161.477
161.007
160.438
159.772
159.012
158.159
157.216
156.185
155.068
153.867
152.585
151.225
149.788
148.279
146.701
145.058
143.353
141.592
139.779
137.918
136.015
134.076
132.104
130.106
128.087
126.05
124.007
161.741
161.634
161.386
161.015
160.537
159.962
159.29
158.524
157.666
156.72
155.687
154.57
153.372
152.096
150.743
149.317
147.823
146.262
144.639
142.958
141.224
139.44
137.612
135.745
133.843
131.91
129.953
127.975
125.982
123.98
161.409
161.296
161.039
160.66
160.178
159.597
158.921
158.151
157.29
156.341
155.308
154.192
152.996
151.724
150.379
148.962
147.479
145.933
144.327
142.665
140.952
139.193
137.391
135.551
133.679
131.777
129.852
127.908
125.949
123.981
161.202
161.065
160.791
160.407
159.922
159.338
158.659
157.887
157.024
156.075
155.042
153.927
152.735
151.467
150.126
148.717
147.242
145.705
144.111
142.462
140.764
139.021
137.236
135.415
133.561
131.68
129.776
127.853
125.914
123.966
161.181
160.981
160.678
160.287
159.799
159.213
158.53
157.756
156.892
155.943
154.911
153.798
152.608
151.343
150.007
148.603
147.135
145.606
144.021
142.382
140.694
138.962
137.19
135.381
133.541
131.674
129.784
127.875
125.952
124.018
1.32743
20.6692
38.8848
84.647
77.7954
66.9098
99.839
88.7058
78.4587
100.962
91.3228
83.9341
104.771
97.1082
90.8891
108.656
102.261
96.8107
111.452
105.983
101.275
113.579
108.875
104.821
115.315
111.227
107.703
116.731
113.132
110.034
117.878
114.672
111.917
118.803
115.919
113.444
119.55
116.93
114.686
120.149
117.75
115.698
120.628
118.414
116.524
121.008
118.953
117.199
121.308
119.387
117.751
121.541
119.737
118.202
121.72
120.017
118.569
121.856
120.24
118.867
121.956
120.417
119.109
122.029
120.556
119.305
122.08
120.665
119.462
122.117
120.752
119.589
122.142
120.818
119.691
122.166
120.877
119.778
122.177
120.917
119.842
122.213
120.974
119.915
122.216
120.993
119.949
122.291
121.081
120.043
47.8386
48.9604
50.507
51.3477
51.5853
51.6118
51.5263
51.27
50.8163
50.1451
49.2311
48.0518
46.5903
44.8354
42.783
40.438
37.8146
34.9334
31.826
28.5416
25.1406
21.6872
18.2492
14.9109
11.7579
8.86162
6.23819
3.84773
1.80834
0.485573
55.159
52.4572
52.5662
52.3843
52.1608
52.1789
52.2068
52.0108
51.596
50.9517
50.0482
48.8628
47.3786
45.5842
43.4759
41.0592
38.3501
35.3635
32.1313
28.7091
25.1625
21.5591
17.9655
14.4836
11.2114
8.23408
5.6053
3.3074
1.43381
0.344217
65.4692
57.6681
54.9369
53.7814
53.4896
53.3903
53.1644
52.8401
52.4247
51.8117
50.9229
49.7327
48.2265
46.3947
44.2348
41.7519
38.9611
35.8772
32.5324
28.9853
25.3022
21.5362
17.7679
14.1226
10.706
7.61204
4.95814
2.7542
1.04994
0.188953
74.0206
65.0008
59.957
57.0719
55.521
54.7188
54.2953
53.9605
53.4779
52.77
51.8302
50.6216
49.0982
47.237
45.0339
42.4938
39.6315
36.4645
33.0259
29.3674
25.5483
21.6236
17.6959
13.8917
10.2869
7.02232
4.27593
2.13418
0.619822
-0.00271562
82.2317
73.291
66.8308
62.2954
59.2324
57.2622
56.0378
55.2285
54.5539
53.802
52.8248
51.5545
49.9749
48.0725
45.8319
43.2482
40.3311
37.0993
33.5854
29.8362
25.9076
21.8611
17.7957
13.8174
10.0072
6.56588
3.70389
1.57273
0.263424
-0.1969
89.3342
81.0703
73.9865
68.3538
64.1359
61.0775
58.8824
57.2796
56.0325
54.9299
53.7866
52.4558
50.8395
48.8925
46.6054
43.9798
41.0216
37.7449
34.1778
30.3637
26.3578
22.2246
18.0559
13.9534
10.0207
6.45641
3.46138
1.23642
0.113219
-0.328822
95.0131
87.701
80.6179
74.47
69.5198
65.629
62.5797
60.1725
58.2216
56.5494
54.9913
53.3998
51.6491
49.6433
47.3235
44.6674
41.6781
38.3711
34.7725
30.9214
26.87
22.6834
18.4498
14.2759
10.2838
6.66003
3.60937
1.33657
0.109464
-0.518218
99.5522
93.1641
86.4423
80.2162
74.9028
70.4621
66.7555
63.6563
61.0354
58.7543
56.6745
54.6668
52.6152
50.4192
47.9981
45.2958
42.2846
38.9634
35.3525
31.4884
27.4213
23.2152
18.9562
14.7528
10.736
7.08402
3.99853
1.66737
0.260651
-0.619651
103.19
97.5914
91.383
85.3519
79.9616
75.2345
71.0919
67.4657
64.2809
61.4423
58.8426
56.3744
53.937
51.4399
48.8053
45.9701
42.8899
39.5413
35.9252
32.0652
28.0055
23.8082
19.5567
15.358
11.3433
7.68015
4.55452
2.12917
0.515968
-0.645311
106.099
101.151
95.4849
89.7889
84.5127
79.709
75.3352
71.3622
67.7565
64.4616
61.4029
58.4986
55.6663
52.8289
49.9168
46.8716
43.6477
40.2148
36.5611
32.6955
28.6488
24.4746
20.25
16.0766
12.0803
8.41381
5.24048
2.69568
0.855775
-0.601656
108.435
104.019
98.8615
93.5494
88.4937
83.7564
79.3128
75.1552
71.2765
67.6493
64.2271
60.9526
57.7638
54.5986
51.399
48.1136
44.7011
41.1324
37.3925
33.4836
29.4272
25.266
21.0668
16.9207
12.9422
9.26595
6.03084
3.34581
1.26249
-0.509407
110.324
106.346
101.64
96.7084
91.9193
87.3328
82.931
78.7155
74.6932
70.8556
67.177
63.6202
60.1415
56.6947
53.2339
49.717
46.1088
42.3836
38.5277
34.5417
30.4427
26.2665
22.07
17.9321
13.9523
10.2448
6.92402
4.07466
1.72932
-0.381871
111.863
108.247
103.933
99.3551
94.8421
90.4483
86.1569
81.9719
77.9062
73.9621
70.1273
66.3793
62.6895
59.0248
55.3514
51.6366
47.8524
43.9777
40.0014
35.9242
31.7613
27.5439
23.3215
19.1616
15.1485
11.3769
7.93822
4.89602
2.26767
-0.204043
113.122
109.811
105.835
101.575
97.3278
93.1412
88.9972
84.8985
80.8597
76.8882
72.9799
69.1223
65.2973
61.4826
57.6542
53.7881
49.8631
45.8634
41.7805
37.6161
33.384
29.1117
24.842
20.6326
16.5541
12.6836
9.0932
5.82957
2.89949
0.0631556
114.156
111.104
107.419
103.441
99.4415
95.4609
91.4799
87.4989
83.5319
79.5882
75.6684
71.7663
67.8708
63.9675
60.0401
56.0717
52.047
47.9545
43.7887
39.5521
35.2572
30.928
26.6009
22.3243
18.1567
14.1602
10.3915
6.88484
3.64222
0.456681
115.007
112.177
108.744
105.016
101.241
97.4567
93.6415
89.793
85.9237
82.0433
78.1548
74.2556
70.3394
66.3974
62.4187
58.3917
54.306
50.1536
45.9312
41.6419
37.2967
32.9159
28.5298
24.1785
19.909
15.7712
11.8093
8.04944
4.49327
0.983292
115.71
113.07
109.855
106.347
102.776
99.1739
95.5196
91.8079
88.0491
84.2527
80.4226
76.5584
72.6569
68.7129
64.7193
60.6687
56.5539
52.3698
48.1146
43.7913
39.4094
34.9856
30.5443
26.1175
21.7427
17.4588
13.3001
9.28757
5.42415
1.61119
116.289
113.813
110.789
107.475
104.086
100.651
97.1491
93.5719
89.928
86.2259
82.4699
78.6607
74.797
70.876
66.8933
62.8442
58.7241
54.5296
50.2599
45.9178
41.5109
37.0523
32.5612
28.0622
23.5841
19.1566
14.8058
10.5482
6.3876
2.28315
116.767
114.432
111.574
108.431
105.204
101.922
98.561
95.1121
91.5817
87.9775
84.3033
80.5603
76.7484
72.866
68.9109
64.88
60.7704
56.5799
52.3083
47.9578
43.5341
39.0471
34.5111
29.9443
25.3677
20.803
16.269
11.7777
7.33139
2.93786
117.161
114.948
112.234
109.241
106.159
103.014
99.7819
96.4529
93.0315
89.5238
85.9336
82.2619
78.509
74.6744
70.7566
66.7539
62.6645
58.4869
54.2209
49.8682
45.4326
40.9212
36.3438
31.7131
27.0434
22.3493
17.6427
12.9306
8.21125
3.52691
117.485
115.376
112.789
109.927
106.973
103.95
100.835
97.6159
94.2964
90.8813
87.3735
83.7739
80.0828
76.2999
72.4245
68.4554
64.3914
60.2313
55.9749
51.623
47.1781
42.6442
38.0277
33.3364
28.5788
23.7631
18.8951
13.9758
8.99795
4.02293
117.751
115.732
113.253
110.507
107.664
104.75
101.739
98.6202
95.3943
92.0656
88.6361
85.1064
81.4765
77.7461
73.9147
69.9814
65.945
61.8045
57.5594
53.2096
48.7561
44.2008
39.5468
34.7977
29.9572
25.028
20.0099
14.8981
9.67883
4.41951
117.968
116.026
113.641
110.994
108.249
105.429
102.511
99.4816
96.3402
93.0904
89.7335
86.2695
82.698
79.0185
75.2304
71.3326
67.324
63.2034
58.9699
54.6224
50.1607
45.5847
40.8948
36.0911
31.1732
26.1388
20.9825
15.694
10.2534
4.72447
118.147
116.269
113.964
111.403
108.742
106.005
103.167
100.216
97.1491
93.9699
90.6786
87.2746
83.757
80.1251
76.3778
72.5139
68.532
64.4306
60.2081
55.8629
51.3933
46.7976
42.0739
37.2193
32.23
27.0996
21.8182
16.3705
10.7312
4.95457
118.291
116.466
114.23
111.741
109.151
106.484
103.716
100.831
97.83
94.7124
91.4788
88.1281
84.6589
81.0699
77.3597
73.5268
69.5695
65.4857
61.2734
56.9301
52.453
47.8391
43.0842
38.1835
33.1299
27.9137
22.5212
16.9329
11.1198
5.12343
118.412
116.632
114.451
112.023
109.493
106.884
104.173
101.346
98.3992
95.3341
92.15
88.8452
85.4179
81.8664
78.1888
74.3833
70.4478
66.3797
62.1765
57.8348
53.3511
48.721
43.9387
38.9974
33.8877
28.5971
23.1088
17.4
11.4386
5.25147
118.505
116.76
114.623
112.243
109.761
107.199
104.535
101.753
98.8513
95.829
92.6853
89.4182
86.0254
82.5049
78.8545
75.0718
71.1543
67.0993
62.9034
58.563
54.0734
49.4293
44.6238
39.6483
34.4916
29.1389
23.5709
17.7623
11.6791
5.33486
118.596
116.877
114.776
112.433
109.987
107.461
104.833
102.087
99.2201
96.2311
93.1192
89.8818
86.5165
83.0206
79.3919
75.6275
71.7248
67.6804
63.4908
59.1516
54.6576
50.0028
45.1792
40.177
34.9835
29.5822
23.9519
18.0648
11.8849
5.40836
118.648
116.945
114.867
112.549
110.128
107.626
105.022
102.3
99.4561
96.4894
93.3986
90.1811
86.834
83.3546
79.7402
75.988
72.0948
68.0573
63.8714
59.5326
55.0352
50.3724
45.5359
40.5148
35.2955
29.8602
24.186
18.2434
11.9949
5.42503
118.741
117.041
114.977
112.676
110.271
107.783
105.194
102.486
99.6564
96.7032
93.6252
90.4197
87.0836
83.6141
80.0084
76.2636
72.3764
68.3431
64.1598
59.8215
55.3225
50.6557
45.8124
40.7813
35.5482
30.0946
24.3965
18.4219
12.1276
5.46712
)
;

boundaryField
{
    inlet
    {
        type            zeroGradient;
    }
    outlet
    {
        type            fixedValue;
        value           uniform 0;
    }
    flap
    {
        type            zeroGradient;
    }
    upperWall
    {
        type            zeroGradient;
    }
    lowerWall
    {
        type            zeroGradient;
    }
    frontAndBack
    {
        type            empty;
    }
}


// ************************************************************************* //
