/*--------------------------------*- C++ -*----------------------------------*\
  =========                 |
  \\      /  F ield         | OpenFOAM: The Open Source CFD Toolbox
   \\    /   O peration     | Website:  https://openfoam.org
    \\  /    A nd           | Version:  7
     \\/     M anipulation  |
\*---------------------------------------------------------------------------*/
FoamFile
{
    version     2.0;
    format      ascii;
    class       volVectorField;
    location    "1.3";
    object      U;
}
// * * * * * * * * * * * * * * * * * * * * * * * * * * * * * * * * * * * * * //

dimensions      [0 1 -1 0 0 0 0];

internalField   nonuniform List<vector> 
2790
(
(9.94393 0.0205559 0)
(9.87547 0.0296628 0)
(9.77458 0.0361149 0)
(9.64823 0.0427386 0)
(9.5021 0.0496311 0)
(9.33708 0.056743 0)
(9.15236 0.0642042 0)
(8.94702 0.0721766 0)
(8.72025 0.0807984 0)
(8.47107 0.0901945 0)
(8.1983 0.10049 0)
(7.90058 0.111812 0)
(7.57643 0.12429 0)
(7.22427 0.138046 0)
(6.84256 0.153191 0)
(6.42983 0.169806 0)
(5.98483 0.187926 0)
(5.50674 0.20751 0)
(4.9954 0.228406 0)
(4.45162 0.250306 0)
(3.87752 0.272698 0)
(3.27693 0.294814 0)
(2.65572 0.315611 0)
(2.02207 0.333925 0)
(1.38472 0.349946 0)
(0.775056 0.372496 0)
(0.0754721 0.30568 0)
(-0.458303 -0.118159 0)
(-0.450726 -0.281172 0)
(-0.228273 -0.412502 0)
(9.99845 0.0408053 0)
(9.9812 0.0626112 0)
(9.9351 0.0795154 0)
(9.86293 0.0971646 0)
(9.76894 0.115843 0)
(9.6541 0.1354 0)
(9.51778 0.156088 0)
(9.35912 0.17826 0)
(9.17733 0.202227 0)
(8.97143 0.228263 0)
(8.74026 0.256637 0)
(8.48245 0.287608 0)
(8.19649 0.321421 0)
(7.88076 0.358276 0)
(7.53361 0.398301 0)
(7.15344 0.441507 0)
(6.73881 0.487721 0)
(6.28865 0.536505 0)
(5.80247 0.58706 0)
(5.28068 0.638111 0)
(4.725 0.687786 0)
(4.13886 0.733518 0)
(3.52801 0.771986 0)
(2.90131 0.799183 0)
(2.2716 0.810837 0)
(1.6679 0.803351 0)
(1.08272 0.737397 0)
(0.643462 0.536191 0)
(0.153553 0.20184 0)
(-0.00730677 -0.456067 0)
(9.99554 0.043381 0)
(9.97531 0.0756566 0)
(9.93118 0.103976 0)
(9.8637 0.133277 0)
(9.77582 0.164268 0)
(9.66862 0.196932 0)
(9.54178 0.231615 0)
(9.39468 0.268821 0)
(9.22664 0.309033 0)
(9.0369 0.352702 0)
(8.82447 0.400275 0)
(8.58819 0.452196 0)
(8.32673 0.508887 0)
(8.03862 0.570711 0)
(7.72231 0.637925 0)
(7.37623 0.710605 0)
(6.99882 0.788541 0)
(6.58875 0.871102 0)
(6.14504 0.957063 0)
(5.66735 1.0444 0)
(5.15636 1.13008 0)
(4.61422 1.20978 0)
(4.04521 1.2777 0)
(3.45672 1.32619 0)
(2.85998 1.345 0)
(2.27555 1.31907 0)
(1.71056 1.20921 0)
(1.19904 0.959987 0)
(0.688751 0.556696 0)
(0.345995 -0.176403 0)
(9.99397 0.0497415 0)
(9.97156 0.0937412 0)
(9.92725 0.134446 0)
(9.86104 0.175463 0)
(9.77496 0.218101 0)
(9.67005 0.26277 0)
(9.54622 0.309999 0)
(9.40304 0.360452 0)
(9.24005 0.414791 0)
(9.05667 0.47365 0)
(8.8522 0.537658 0)
(8.62578 0.607441 0)
(8.37643 0.683603 0)
(8.10307 0.766689 0)
(7.80453 0.857126 0)
(7.47957 0.955133 0)
(7.12695 1.06059 0)
(6.74545 1.17286 0)
(6.33402 1.29056 0)
(5.89193 1.41127 0)
(5.41905 1.53121 0)
(4.91617 1.6448 0)
(4.38555 1.74426 0)
(3.83157 1.81895 0)
(3.26083 1.85432 0)
(2.68412 1.83008 0)
(2.1066 1.71161 0)
(1.53916 1.46068 0)
(0.94854 1.06416 0)
(0.50487 0.482153 0)
(9.99326 0.0575251 0)
(9.96969 0.111647 0)
(9.9253 0.163227 0)
(9.86024 0.214958 0)
(9.776 0.268497 0)
(9.67338 0.324619 0)
(9.55239 0.383993 0)
(9.4127 0.447372 0)
(9.25391 0.515523 0)
(9.07556 0.589193 0)
(8.87709 0.669119 0)
(8.65784 0.756035 0)
(8.41704 0.850655 0)
(8.15389 0.953637 0)
(7.86753 1.06552 0)
(7.55703 1.18663 0)
(7.22145 1.31694 0)
(6.85983 1.45589 0)
(6.47118 1.60209 0)
(6.05463 1.75301 0)
(5.60943 1.90452 0)
(5.13523 2.0504 0)
(4.63226 2.18175 0)
(4.10172 2.2863 0)
(3.54566 2.3476 0)
(2.96777 2.34437 0)
(2.36908 2.24739 0)
(1.75254 2.02589 0)
(1.08156 1.66594 0)
(0.531943 1.12701 0)
(9.99296 0.0659203 0)
(9.96897 0.129544 0)
(9.92492 0.191489 0)
(9.8613 0.253814 0)
(9.77926 0.318195 0)
(9.67943 0.385623 0)
(9.56179 0.456891 0)
(9.4261 0.532836 0)
(9.272 0.61432 0)
(9.09911 0.702194 0)
(8.90693 0.797297 0)
(8.69489 0.900462 0)
(8.46237 1.0125 0)
(8.20868 1.13415 0)
(7.9331 1.26606 0)
(7.63489 1.40864 0)
(7.31324 1.56198 0)
(6.96728 1.7256 0)
(6.59603 1.89825 0)
(6.19842 2.07747 0)
(5.77317 2.25919 0)
(5.31889 2.43711 0)
(4.83407 2.6021 0)
(4.31722 2.74152 0)
(3.76678 2.83863 0)
(3.18163 2.87254 0)
(2.55907 2.8173 0)
(1.89994 2.64555 0)
(1.16466 2.3434 0)
(0.545476 1.86163 0)
(9.99291 0.0745278 0)
(9.96901 0.147314 0)
(9.92572 0.219114 0)
(9.86383 0.291628 0)
(9.78437 0.366457 0)
(9.68778 0.444744 0)
(9.57405 0.527422 0)
(9.44298 0.615424 0)
(9.29428 0.709703 0)
(9.1276 0.811203 0)
(8.94249 0.920854 0)
(8.73846 1.03957 0)
(8.51492 1.16825 0)
(8.27126 1.30771 0)
(8.00679 1.45868 0)
(7.72079 1.62166 0)
(7.41246 1.79686 0)
(7.08086 1.98398 0)
(6.72486 2.18195 0)
(6.34304 2.38862 0)
(5.93357 2.60028 0)
(5.49406 2.81106 0)
(5.02151 3.01231 0)
(4.51222 3.19191 0)
(3.96186 3.33372 0)
(3.3659 3.4175 0)
(2.71887 3.41885 0)
(2.02209 3.3111 0)
(1.23332 3.0779 0)
(0.559016 2.65466 0)
(9.99301 0.0831135 0)
(9.96955 0.164765 0)
(9.9274 0.245941 0)
(9.86757 0.328189 0)
(9.79103 0.413044 0)
(9.69812 0.501751 0)
(9.58884 0.595364 0)
(9.46301 0.694912 0)
(9.3204 0.801428 0)
(9.1607 0.91594 0)
(8.98352 1.03946 0)
(8.7884 1.17299 0)
(8.5748 1.31751 0)
(8.34212 1.47392 0)
(8.0897 1.64305 0)
(7.81675 1.82553 0)
(7.52238 2.02172 0)
(7.20549 2.23154 0)
(6.86467 2.45426 0)
(6.49808 2.68816 0)
(6.10322 2.93017 0)
(5.67678 3.17525 0)
(5.21435 3.41576 0)
(4.71037 3.64073 0)
(4.15811 3.83512 0)
(3.55033 3.97944 0)
(2.87902 4.04963 0)
(2.14629 4.01731 0)
(1.30661 3.86054 0)
(0.578377 3.49551 0)
(9.9932 0.0915276 0)
(9.97045 0.18173 0)
(9.92978 0.271824 0)
(9.87232 0.363331 0)
(9.79904 0.457751 0)
(9.71024 0.556397 0)
(9.60588 0.660423 0)
(9.48586 0.770946 0)
(9.34999 0.889075 0)
(9.198 1.01592 0)
(9.02956 1.15256 0)
(8.84425 1.3001 0)
(8.64158 1.4596 0)
(8.42096 1.63206 0)
(8.18172 1.81844 0)
(7.92304 2.01952 0)
(7.64389 2.23588 0)
(7.34298 2.46774 0)
(7.01859 2.71479 0)
(6.66843 2.97594 0)
(6.28936 3.24897 0)
(5.87711 3.53 0)
(5.42599 3.81283 0)
(4.92865 4.08816 0)
(4.37602 4.34253 0)
(3.75807 4.55746 0)
(3.06352 4.70857 0)
(2.294 4.76408 0)
(1.3992 4.69361 0)
(0.608734 4.3902 0)
(9.99347 0.0996668 0)
(9.97163 0.198066 0)
(9.93271 0.296621 0)
(9.87792 0.396894 0)
(9.80822 0.500379 0)
(9.72389 0.608436 0)
(9.62493 0.722304 0)
(9.51124 0.843178 0)
(9.38269 0.97224 0)
(9.23908 1.11067 0)
(9.08013 1.25963 0)
(8.90548 1.42031 0)
(8.71469 1.59384 0)
(8.50721 1.78138 0)
(8.28236 1.98399 0)
(8.0393 2.20267 0)
(7.77693 2.43826 0)
(7.49379 2.69136 0)
(7.18792 2.96219 0)
(6.85663 3.25044 0)
(6.49621 3.55495 0)
(6.10157 3.87328 0)
(5.66582 4.20112 0)
(5.17985 4.53138 0)
(4.63207 4.85292 0)
(4.00899 5.14895 0)
(3.29443 5.39506 0)
(2.48665 5.55537 0)
(1.52739 5.58839 0)
(0.657232 5.35763 0)
(9.99378 0.107455 0)
(9.97302 0.213656 0)
(9.93609 0.320204 0)
(9.88423 0.42873 0)
(9.81841 0.540743 0)
(9.73891 0.657645 0)
(9.64573 0.780744 0)
(9.53884 0.911302 0)
(9.41815 1.05057 0)
(9.28353 1.19978 0)
(9.13476 1.36019 0)
(8.97155 1.53305 0)
(8.79353 1.7196 0)
(8.6002 1.92111 0)
(8.39093 2.13881 0)
(8.16491 2.37392 0)
(7.92101 2.62758 0)
(7.65771 2.90082 0)
(7.37293 3.1945 0)
(7.06373 3.50919 0)
(6.72606 3.84497 0)
(6.35423 4.20116 0)
(5.94038 4.57573 0)
(5.47382 4.96454 0)
(4.94028 5.35984 0)
(4.32193 5.7481 0)
(3.59535 6.10663 0)
(2.75058 6.39669 0)
(1.71436 6.56384 0)
(0.73596 6.43145 0)
(9.99414 0.114836 0)
(9.97459 0.228403 0)
(9.93984 0.342455 0)
(9.89114 0.458702 0)
(9.82946 0.57868 0)
(9.7551 0.703829 0)
(9.66807 0.835511 0)
(9.56838 0.975046 0)
(9.45603 1.12374 0)
(9.33093 1.28289 0)
(9.19295 1.45381 0)
(9.04187 1.63783 0)
(8.87742 1.83628 0)
(8.69918 2.05055 0)
(8.50662 2.28204 0)
(8.29899 2.53218 0)
(8.07526 2.80245 0)
(7.83397 3.09435 0)
(7.57307 3.40939 0)
(7.28965 3.7491 0)
(6.9796 4.11493 0)
(6.63706 4.50816 0)
(6.25372 4.9295 0)
(5.81779 5.37854 0)
(5.3127 5.85245 0)
(4.71585 6.34355 0)
(3.99422 6.83509 0)
(3.12264 7.29084 0)
(1.99856 7.64629 0)
(0.868425 7.67014 0)
(9.99453 0.121762 0)
(9.97628 0.242227 0)
(9.94388 0.363275 0)
(9.89855 0.486691 0)
(9.84125 0.614047 0)
(9.77228 0.746815 0)
(9.6917 0.886399 0)
(9.59958 1.03417 0)
(9.49596 1.19148 0)
(9.38084 1.35967 0)
(9.25417 1.54011 0)
(9.11583 1.73418 0)
(8.96565 1.94333 0)
(8.80333 2.16902 0)
(8.62848 2.41283 0)
(8.44051 2.67639 0)
(8.23854 2.9615 0)
(8.02134 3.2701 0)
(7.7871 3.60435 0)
(7.53323 3.96673 0)
(7.25598 4.36009 0)
(6.9499 4.7877 0)
(6.60707 5.25333 0)
(6.21577 5.76097 0)
(5.75845 6.31433 0)
(5.20908 6.91522 0)
(4.52461 7.55999 0)
(3.65766 8.22839 0)
(2.4507 8.86551 0)
(1.10603 9.18412 0)
(9.99495 0.1282 0)
(9.97808 0.255064 0)
(9.94817 0.382578 0)
(9.90638 0.512596 0)
(9.85364 0.646724 0)
(9.79028 0.786463 0)
(9.71642 0.93325 0)
(9.63215 1.08849 0)
(9.5376 1.25357 0)
(9.43283 1.42987 0)
(9.3179 1.6188 0)
(9.19279 1.82179 0)
(9.05745 2.04034 0)
(8.91175 2.27603 0)
(8.75546 2.53053 0)
(8.5882 2.80569 0)
(8.40939 3.10355 0)
(8.21812 3.42643 0)
(8.01305 3.77707 0)
(7.7922 4.15878 0)
(7.55267 4.57563 0)
(7.29014 5.03278 0)
(6.99818 5.53689 0)
(6.66698 6.09657 0)
(6.28101 6.72306 0)
(5.81532 7.43084 0)
(5.22302 8.23837 0)
(4.43679 9.16541 0)
(3.21239 10.2294 0)
(1.5745 11.2149 0)
(9.99538 0.134122 0)
(9.97997 0.266862 0)
(9.95264 0.400292 0)
(9.91452 0.536323 0)
(9.86651 0.676589 0)
(9.80895 0.822615 0)
(9.742 0.975861 0)
(9.66581 1.13776 0)
(9.58058 1.30971 0)
(9.48646 1.49313 0)
(9.3836 1.68945 0)
(9.27209 1.90014 0)
(9.15204 2.12672 0)
(9.02348 2.37085 0)
(8.8864 2.63429 0)
(8.74069 2.919 0)
(8.58611 3.22721 0)
(8.42222 3.56154 0)
(8.24831 3.92513 0)
(8.06329 4.32187 0)
(7.86551 4.75675 0)
(7.65249 5.23633 0)
(7.4205 5.76946 0)
(7.16386 6.36851 0)
(6.87334 7.05124 0)
(6.53392 7.84459 0)
(6.11371 8.79258 0)
(5.56497 9.97592 0)
(4.59953 11.5976 0)
(2.63039 14.3836 0)
(0.352101 -0.508721 0)
(0.813732 -0.380184 0)
(1.23123 -0.297254 0)
(1.57602 -0.241939 0)
(1.85561 -0.20176 0)
(2.08469 -0.170967 0)
(2.27177 -0.1467 0)
(2.41939 -0.125137 0)
(2.52375 -0.0996144 0)
(2.56841 -0.0657676 0)
(2.54302 -0.0281425 0)
(2.45976 0.00723335 0)
(2.32774 0.0368398 0)
(2.15492 0.0600754 0)
(1.94958 0.0767275 0)
(1.72024 0.0864285 0)
(1.47785 0.0895197 0)
(1.23379 0.0869724 0)
(0.998293 0.0799292 0)
(0.779962 0.0694773 0)
(0.587102 0.0570673 0)
(0.428279 0.0434836 0)
(0.311457 0.0291074 0)
(0.245767 0.0137573 0)
(0.223885 -0.00409466 0)
(0.271797 -0.0323631 0)
(0.420946 -0.0812917 0)
(0.732259 -0.141248 0)
(1.10908 -0.260643 0)
(1.96994 -0.27906 0)
(0.163666 -0.819298 0)
(0.544081 -0.626449 0)
(0.831001 -0.489795 0)
(1.0703 -0.391685 0)
(1.25052 -0.314645 0)
(1.37401 -0.247636 0)
(1.43734 -0.183287 0)
(1.4273 -0.112829 0)
(1.33113 -0.0341002 0)
(1.19544 0.0398872 0)
(1.03345 0.102781 0)
(0.839864 0.15464 0)
(0.618826 0.195545 0)
(0.374945 0.226222 0)
(0.116159 0.246006 0)
(-0.144977 0.255124 0)
(-0.404323 0.254865 0)
(-0.656221 0.245624 0)
(-0.893115 0.228106 0)
(-1.10763 0.203274 0)
(-1.29181 0.172417 0)
(-1.43803 0.136396 0)
(-1.53835 0.0955607 0)
(-1.58541 0.0492342 0)
(-1.57671 -0.00547858 0)
(-1.49475 -0.0760366 0)
(-1.34207 -0.164604 0)
(-1.11518 -0.257545 0)
(-0.833952 -0.361075 0)
(-0.55028 -0.40564 0)
(0.0413005 -1.07625 0)
(0.264712 -0.863039 0)
(0.368796 -0.675028 0)
(0.459359 -0.522014 0)
(0.491781 -0.387606 0)
(0.46284 -0.256421 0)
(0.368711 -0.125832 0)
(0.226133 -0.00174487 0)
(0.0814186 0.101191 0)
(-0.0896855 0.185826 0)
(-0.283379 0.259084 0)
(-0.496572 0.320514 0)
(-0.725081 0.368343 0)
(-0.96495 0.401309 0)
(-1.21139 0.419228 0)
(-1.45967 0.422386 0)
(-1.70422 0.411855 0)
(-1.93899 0.388156 0)
(-2.15784 0.352112 0)
(-2.35457 0.305019 0)
(-2.52271 0.248535 0)
(-2.65572 0.184317 0)
(-2.74698 0.113667 0)
(-2.79042 0.0367272 0)
(-2.7831 -0.0486133 0)
(-2.72313 -0.145831 0)
(-2.61281 -0.255062 0)
(-2.45682 -0.369628 0)
(-2.27982 -0.478526 0)
(-2.15168 -0.542785 0)
(-0.049777 -1.13032 0)
(0.00147828 -0.899711 0)
(-0.0681845 -0.670571 0)
(-0.127267 -0.477471 0)
(-0.229844 -0.302828 0)
(-0.365371 -0.141891 0)
(-0.524455 0.00596674 0)
(-0.678046 0.130344 0)
(-0.852571 0.238853 0)
(-1.04397 0.335112 0)
(-1.24939 0.418166 0)
(-1.46608 0.486445 0)
(-1.69125 0.538316 0)
(-1.92216 0.572574 0)
(-2.1557 0.588831 0)
(-2.38837 0.587312 0)
(-2.61593 0.568848 0)
(-2.83365 0.534211 0)
(-3.03657 0.484395 0)
(-3.21947 0.420747 0)
(-3.37684 0.344898 0)
(-3.50304 0.258576 0)
(-3.59257 0.163285 0)
(-3.64085 0.0596107 0)
(-3.64507 -0.0532477 0)
(-3.6087 -0.174964 0)
(-3.53407 -0.302506 0)
(-3.4274 -0.429796 0)
(-3.31029 -0.545709 0)
(-3.23705 -0.625813 0)
(-0.135822 -1.03025 0)
(-0.233465 -0.795444 0)
(-0.424925 -0.558713 0)
(-0.595657 -0.351922 0)
(-0.779068 -0.165578 0)
(-0.967471 0.00357549 0)
(-1.14434 0.148879 0)
(-1.33191 0.27733 0)
(-1.52812 0.392757 0)
(-1.73182 0.494344 0)
(-1.94196 0.580786 0)
(-2.15729 0.650558 0)
(-2.37637 0.702132 0)
(-2.59763 0.734328 0)
(-2.81916 0.746541 0)
(-3.0385 0.73875 0)
(-3.25256 0.711429 0)
(-3.45768 0.665279 0)
(-3.64978 0.601312 0)
(-3.82437 0.520936 0)
(-3.97666 0.425955 0)
(-4.10171 0.318491 0)
(-4.19496 0.200743 0)
(-4.25278 0.0745061 0)
(-4.27288 -0.0589877 0)
(-4.25976 -0.197972 0)
(-4.21589 -0.338371 0)
(-4.1475 -0.473252 0)
(-4.07282 -0.593292 0)
(-4.03039 -0.679447 0)
(-0.206427 -0.81683 0)
(-0.408258 -0.586145 0)
(-0.682532 -0.361458 0)
(-0.92515 -0.160003 0)
(-1.15598 0.021358 0)
(-1.3665 0.176679 0)
(-1.57605 0.31619 0)
(-1.78547 0.44358 0)
(-1.99499 0.558263 0)
(-2.20506 0.658859 0)
(-2.41596 0.743843 0)
(-2.62773 0.81156 0)
(-2.84016 0.860405 0)
(-3.05273 0.889062 0)
(-3.26449 0.896676 0)
(-3.47388 0.882906 0)
(-3.6787 0.847881 0)
(-3.87611 0.792095 0)
(-4.06268 0.716435 0)
(-4.2345 0.622242 0)
(-4.38726 0.511329 0)
(-4.5165 0.385952 0)
(-4.61812 0.248709 0)
(-4.68896 0.102362 0)
(-4.72694 -0.0501575 0)
(-4.73605 -0.205142 0)
(-4.71944 -0.357339 0)
(-4.68311 -0.499359 0)
(-4.64201 -0.623186 0)
(-4.62077 -0.710928 0)
(-0.253678 -0.518445 0)
(-0.52429 -0.300252 0)
(-0.849275 -0.0958448 0)
(-1.12719 0.0780686 0)
(-1.38067 0.230663 0)
(-1.62159 0.3714 0)
(-1.85206 0.501657 0)
(-2.07437 0.621432 0)
(-2.29044 0.729682 0)
(-2.50204 0.82486 0)
(-2.71064 0.905158 0)
(-2.9174 0.968652 0)
(-3.12313 1.01347 0)
(-3.32818 1.038 0)
(-3.53239 1.04103 0)
(-3.73491 1.02178 0)
(-3.93423 0.979998 0)
(-4.12807 0.915832 0)
(-4.31353 0.829938 0)
(-4.48707 0.723522 0)
(-4.64471 0.598393 0)
(-4.78224 0.456982 0)
(-4.89575 0.302344 0)
(-4.98223 0.138202 0)
(-5.03961 -0.0309993 0)
(-5.07036 -0.19995 0)
(-5.07886 -0.362635 0)
(-5.07087 -0.51131 0)
(-5.05803 -0.638316 0)
(-5.05309 -0.725729 0)
(-0.273062 -0.140644 0)
(-0.578651 0.0479959 0)
(-0.924792 0.195416 0)
(-1.2257 0.332728 0)
(-1.50287 0.46128 0)
(-1.76004 0.582882 0)
(-2.00026 0.697486 0)
(-2.22684 0.804421 0)
(-2.44291 0.902292 0)
(-2.65132 0.989196 0)
(-2.85457 1.06292 0)
(-3.05473 1.12113 0)
(-3.2534 1.16154 0)
(-3.45164 1.18211 0)
(-3.6499 1.18116 0)
(-3.84791 1.15745 0)
(-4.04464 1.11025 0)
(-4.23828 1.03931 0)
(-4.42625 0.944973 0)
(-4.60531 0.828233 0)
(-4.77162 0.690824 0)
(-4.92106 0.535281 0)
(-5.04967 0.365026 0)
(-5.15426 0.184577 0)
(-5.23259 -0.000257609 0)
(-5.284 -0.182582 0)
(-5.3162 -0.355216 0)
(-5.33412 -0.510569 0)
(-5.3461 -0.640557 0)
(-5.35462 -0.727183 0)
(-0.267851 0.244412 0)
(-0.586195 0.387502 0)
(-0.94518 0.498224 0)
(-1.25825 0.603346 0)
(-1.54375 0.70344 0)
(-1.80383 0.800749 0)
(-2.04275 0.895331 0)
(-2.26479 0.986172 0)
(-2.47406 1.07143 0)
(-2.67428 1.14867 0)
(-2.86875 1.21517 0)
(-3.06021 1.26805 0)
(-3.25088 1.3045 0)
(-3.44236 1.32196 0)
(-3.63555 1.31821 0)
(-3.83062 1.29147 0)
(-4.02689 1.24048 0)
(-4.22287 1.16455 0)
(-4.41621 1.06361 0)
(-4.60377 0.938377 0)
(-4.78172 0.790426 0)
(-4.94586 0.622354 0)
(-5.092 0.437893 0)
(-5.21655 0.24222 0)
(-5.31686 0.042349 0)
(-5.39137 -0.153144 0)
(-5.44662 -0.335742 0)
(-5.48903 -0.498082 0)
(-5.52358 -0.631239 0)
(-5.54388 -0.717279 0)
(-0.254487 0.617164 0)
(-0.574154 0.737022 0)
(-0.933685 0.809194 0)
(-1.24258 0.877009 0)
(-1.52081 0.944414 0)
(-1.77039 1.01427 0)
(-1.99677 1.08663 0)
(-2.20515 1.16006 0)
(-2.40044 1.23213 0)
(-2.58702 1.29976 0)
(-2.76874 1.35956 0)
(-2.94883 1.40804 0)
(-3.12992 1.44179 0)
(-3.31398 1.45763 0)
(-3.50224 1.45277 0)
(-3.69516 1.42483 0)
(-3.89234 1.37199 0)
(-4.0925 1.29305 0)
(-4.29342 1.18746 0)
(-4.49197 1.05558 0)
(-4.68428 0.898791 0)
(-4.86594 0.719708 0)
(-5.03246 0.522349 0)
(-5.17957 0.312449 0)
(-5.3038 0.0979469 0)
(-5.4032 -0.111169 0)
(-5.48134 -0.304515 0)
(-5.54749 -0.474427 0)
(-5.60329 -0.611296 0)
(-5.63444 -0.697299 0)
(-0.241866 0.991107 0)
(-0.555997 1.08289 0)
(-0.902759 1.11227 0)
(-1.19211 1.13917 0)
(-1.44798 1.17135 0)
(-1.67347 1.21258 0)
(-1.87575 1.26256 0)
(-2.06098 1.31915 0)
(-2.2347 1.3791 0)
(-2.40174 1.43855 0)
(-2.56625 1.49334 0)
(-2.73172 1.53928 0)
(-2.901 1.57233 0)
(-3.07628 1.58868 0)
(-3.25902 1.5849 0)
(-3.44987 1.55802 0)
(-3.64865 1.50563 0)
(-3.85422 1.42594 0)
(-4.06449 1.31792 0)
(-4.27631 1.18147 0)
(-4.48566 1.01771 0)
(-4.68788 0.829199 0)
(-4.87793 0.620125 0)
(-5.05067 0.396584 0)
(-5.20145 0.167196 0)
(-5.32759 -0.0566636 0)
(-5.42888 -0.261633 0)
(-5.51862 -0.439844 0)
(-5.59519 -0.581285 0)
(-5.63679 -0.668017 0)
(-0.233762 1.35636 0)
(-0.540789 1.41532 0)
(-0.864213 1.39452 0)
(-1.11901 1.37561 0)
(-1.33679 1.37112 0)
(-1.52397 1.38455 0)
(-1.69016 1.41405 0)
(-1.84241 1.45625 0)
(-1.98666 1.50677 0)
(-2.12788 1.56078 0)
(-2.27027 1.61333 0)
(-2.41734 1.6595 0)
(-2.57196 1.69458 0)
(-2.73642 1.71416 0)
(-2.91231 1.7142 0)
(-3.10043 1.6911 0)
(-3.30075 1.64184 0)
(-3.51233 1.56406 0)
(-3.73318 1.45616 0)
(-3.96013 1.31749 0)
(-4.18888 1.14878 0)
(-4.4143 0.952436 0)
(-4.63062 0.732729 0)
(-4.8316 0.496098 0)
(-5.01116 0.251876 0)
(-5.16567 0.0127885 0)
(-5.29571 -0.206284 0)
(-5.40967 -0.394162 0)
(-5.50739 -0.541349 0)
(-5.55951 -0.629731 0)
(-0.237494 1.71986 0)
(-0.54303 1.73142 0)
(-0.833552 1.64356 0)
(-1.03587 1.57075 0)
(-1.19709 1.52959 0)
(-1.33045 1.51855 0)
(-1.44811 1.5318 0)
(-1.55738 1.56398 0)
(-1.66413 1.60936 0)
(-1.77309 1.66198 0)
(-1.88814 1.71605 0)
(-2.01253 1.766 0)
(-2.14903 1.80652 0)
(-2.29989 1.83262 0)
(-2.46676 1.83969 0)
(-2.65057 1.82353 0)
(-2.85147 1.78052 0)
(-3.06874 1.70774 0)
(-3.30059 1.60292 0)
(-3.54382 1.46475 0)
(-3.79379 1.29341 0)
(-4.04484 1.09107 0)
(-4.29056 0.862016 0)
(-4.52367 0.613003 0)
(-4.73662 0.353993 0)
(-4.92415 0.0986323 0)
(-5.08723 -0.136908 0)
(-5.22687 -0.336951 0)
(-5.34683 -0.491284 0)
(-5.41003 -0.582373 0)
(-0.268059 2.10544 0)
(-0.58927 2.03451 0)
(-0.834424 1.84303 0)
(-0.956571 1.70398 0)
(-1.0366 1.63054 0)
(-1.09903 1.60268 0)
(-1.1558 1.60652 0)
(-1.21235 1.63508 0)
(-1.27381 1.68113 0)
(-1.34412 1.73755 0)
(-1.42646 1.7978 0)
(-1.52357 1.85577 0)
(-1.6379 1.90567 0)
(-1.77158 1.94205 0)
(-1.92629 1.95982 0)
(-2.10311 1.95422 0)
(-2.30236 1.92105 0)
(-2.52371 1.85684 0)
(-2.76581 1.75866 0)
(-3.02562 1.62426 0)
(-3.29828 1.45311 0)
(-3.57778 1.24704 0)
(-3.85722 1.01034 0)
(-4.12821 0.74983 0)
(-4.38109 0.475779 0)
(-4.60798 0.202125 0)
(-4.80821 -0.0532845 0)
(-4.9756 -0.267625 0)
(-5.11963 -0.430457 0)
(-5.19503 -0.525383 0)
(-0.378121 2.6947 0)
(-0.729364 2.38257 0)
(-0.906364 1.97625 0)
(-0.895494 1.74488 0)
(-0.857915 1.65612 0)
(-0.832534 1.62625 0)
(-0.817881 1.62992 0)
(-0.812891 1.66306 0)
(-0.82194 1.71702 0)
(-0.847685 1.78329 0)
(-0.892064 1.85488 0)
(-0.95707 1.92537 0)
(-1.04469 1.98875 0)
(-1.15682 2.03933 0)
(-1.29518 2.07161 0)
(-1.46096 2.08034 0)
(-1.65467 2.06076 0)
(-1.87655 2.00904 0)
(-2.12621 1.92155 0)
(-2.4012 1.79485 0)
(-2.69668 1.62752 0)
(-3.00659 1.42101 0)
(-3.32373 1.17954 0)
(-3.63805 0.909355 0)
(-3.93658 0.620767 0)
(-4.20743 0.328373 0)
(-4.44697 0.0522647 0)
(-4.6604 -0.182773 0)
(-4.83156 -0.357194 0)
(-4.92099 -0.45707 0)
(9.99584 0.139601 0)
(9.98195 0.277781 0)
(9.95735 0.416677 0)
(9.92309 0.558245 0)
(9.88003 0.704145 0)
(9.82855 0.855914 0)
(9.76885 1.01503 0)
(9.70116 1.18292 0)
(9.62573 1.36102 0)
(9.54281 1.55074 0)
(9.45264 1.75352 0)
(9.35548 1.97083 0)
(9.25157 2.20423 0)
(9.14114 2.45537 0)
(9.02442 2.72608 0)
(8.90161 3.01836 0)
(8.77289 3.33456 0)
(8.63839 3.6774 0)
(8.49815 4.05023 0)
(8.35218 4.45723 0)
(8.2004 4.90379 0)
(8.0427 5.39705 0)
(7.87905 5.94681 0)
(7.70972 6.56687 0)
(7.53597 7.27757 0)
(7.36277 8.11039 0)
(7.20326 9.11757 0)
(7.14607 10.3898 0)
(7.58158 12.0675 0)
(7.74986 14.7116 0)
(9.99632 0.144648 0)
(9.98404 0.287826 0)
(9.9623 0.431717 0)
(9.93207 0.578308 0)
(9.89416 0.729275 0)
(9.84899 0.886163 0)
(9.79679 1.05045 0)
(9.73787 1.22357 0)
(9.67254 1.40695 0)
(9.60115 1.60199 0)
(9.52406 1.81012 0)
(9.44165 2.0328 0)
(9.35433 2.27157 0)
(9.26255 2.52807 0)
(9.16679 2.80409 0)
(9.0676 3.10164 0)
(8.96559 3.42301 0)
(8.86146 3.77092 0)
(8.75608 4.14863 0)
(8.65059 4.56021 0)
(8.54651 5.01084 0)
(8.44615 5.50724 0)
(8.3531 6.05835 0)
(8.27346 6.67625 0)
(8.21816 7.37748 0)
(8.20877 8.18448 0)
(8.28326 9.12606 0)
(8.49636 10.2337 0)
(9.11216 11.4511 0)
(9.57011 12.4963 0)
(9.99682 0.149174 0)
(9.98621 0.296833 0)
(9.96744 0.445187 0)
(9.94138 0.596244 0)
(9.90881 0.751682 0)
(9.87014 0.913044 0)
(9.82567 1.0818 0)
(9.77575 1.25936 0)
(9.72078 1.44714 0)
(9.66118 1.64652 0)
(9.59744 1.85887 0)
(9.53006 2.08564 0)
(9.45963 2.32829 0)
(9.3868 2.58842 0)
(9.31232 2.86772 0)
(9.23705 3.1681 0)
(9.16204 3.49171 0)
(9.08854 3.84105 0)
(9.01816 4.21908 0)
(8.95303 4.62937 0)
(8.89603 5.0763 0)
(8.85129 5.5653 0)
(8.82489 6.103 0)
(8.82604 6.69741 0)
(8.86881 7.35745 0)
(8.97469 8.09115 0)
(9.17375 8.89968 0)
(9.47441 9.77125 0)
(10.0045 10.6536 0)
(10.6422 11.3374 0)
(9.99734 0.153126 0)
(9.98844 0.304693 0)
(9.97272 0.45692 0)
(9.95095 0.611818 0)
(9.92385 0.771061 0)
(9.89184 0.936177 0)
(9.85526 1.10861 0)
(9.81452 1.28976 0)
(9.77008 1.48098 0)
(9.72245 1.68361 0)
(9.67222 1.89899 0)
(9.62002 2.12846 0)
(9.56659 2.37343 0)
(9.51278 2.63535 0)
(9.45956 2.91581 0)
(9.40811 3.21651 0)
(9.35982 3.53934 0)
(9.31643 3.88645 0)
(9.28013 4.26029 0)
(9.25374 4.66366 0)
(9.24104 5.0998 0)
(9.2471 5.57233 0)
(9.2789 6.08514 0)
(9.34597 6.64193 0)
(9.46102 7.24517 0)
(9.6402 7.89421 0)
(9.90538 8.58163 0)
(10.2639 9.29253 0)
(10.7815 10.0161 0)
(11.5186 10.6392 0)
(9.99786 0.156457 0)
(9.99072 0.311312 0)
(9.97811 0.466776 0)
(9.96071 0.624849 0)
(9.93916 0.787188 0)
(9.9139 0.955294 0)
(9.88531 1.13058 0)
(9.85385 1.3144 0)
(9.82002 1.50805 0)
(9.78443 1.71282 0)
(9.74773 1.92996 0)
(9.7107 2.16072 0)
(9.67418 2.40638 0)
(9.63919 2.66825 0)
(9.60692 2.94771 0)
(9.57875 3.24622 0)
(9.55638 3.56534 0)
(9.54186 3.90674 0)
(9.53776 4.27225 0)
(9.5473 4.66377 0)
(9.57458 5.0833 0)
(9.62491 5.53269 0)
(9.70505 6.01342 0)
(9.82355 6.52605 0)
(9.99098 7.06937 0)
(10.2197 7.63941 0)
(10.5264 8.22803 0)
(10.9214 8.82063 0)
(11.4273 9.40584 0)
(12.1243 9.90908 0)
(9.99839 0.159122 0)
(9.99302 0.316603 0)
(9.98356 0.474627 0)
(9.97057 0.635168 0)
(9.95462 0.799853 0)
(9.93615 0.970146 0)
(9.91558 1.14741 0)
(9.8934 1.33296 0)
(9.87018 1.52801 0)
(9.84656 1.73377 0)
(9.82329 1.95139 0)
(9.80122 2.182 0)
(9.78131 2.42674 0)
(9.76471 2.68673 0)
(9.75273 2.96312 0)
(9.74693 3.25707 0)
(9.74917 3.56974 0)
(9.7617 3.90233 0)
(9.78721 4.25596 0)
(9.82903 4.63169 0)
(9.89123 5.03033 0)
(9.97878 5.45229 0)
(10.0977 5.89725 0)
(10.2552 6.36372 0)
(10.4595 6.84847 0)
(10.7199 7.34581 0)
(11.047 7.84671 0)
(11.4478 8.33595 0)
(11.9231 8.79741 0)
(12.5453 9.18975 0)
(9.99893 0.161083 0)
(9.99533 0.320487 0)
(9.98902 0.480355 0)
(9.98045 0.642621 0)
(9.9701 0.808868 0)
(9.9584 0.980515 0)
(9.94581 1.15887 0)
(9.93283 1.34516 0)
(9.92009 1.54055 0)
(9.90827 1.74614 0)
(9.89816 1.96296 0)
(9.89069 2.19201 0)
(9.88689 2.43425 0)
(9.88798 2.69062 0)
(9.89535 2.96198 0)
(9.91066 3.2492 0)
(9.93582 3.55304 0)
(9.9731 3.87417 0)
(10.0252 4.2131 0)
(10.0953 4.57011 0)
(10.187 4.94506 0)
(10.3049 5.33723 0)
(10.4538 5.74508 0)
(10.6394 6.16585 0)
(10.8677 6.59519 0)
(11.1447 7.02659 0)
(11.4761 7.45103 0)
(11.8654 7.85548 0)
(12.3065 8.22602 0)
(12.8622 8.54237 0)
(9.99946 0.162302 0)
(9.99763 0.322895 0)
(9.99445 0.48386 0)
(9.99026 0.647077 0)
(9.98545 0.814076 0)
(9.98046 0.986217 0)
(9.97572 1.16474 0)
(9.9718 1.3508 0)
(9.96931 1.54546 0)
(9.96897 1.74972 0)
(9.97163 1.96448 0)
(9.97822 2.1906 0)
(9.98983 2.42885 0)
(10.0077 2.67995 0)
(10.0332 2.94453 0)
(10.0681 3.2231 0)
(10.1142 3.51606 0)
(10.1737 3.82363 0)
(10.2491 4.14577 0)
(10.3432 4.48211 0)
(10.4593 4.8318 0)
(10.601 5.19336 0)
(10.7721 5.56447 0)
(10.9768 5.94174 0)
(11.219 6.32045 0)
(11.5022 6.69431 0)
(11.8288 7.05538 0)
(12.2002 7.39378 0)
(12.6086 7.69896 0)
(13.107 7.95995 0)
(9.99998 0.162752 0)
(9.99989 0.323769 0)
(9.99981 0.485056 0)
(9.99992 0.648426 0)
(10.0006 0.815346 0)
(10.0021 0.987109 0)
(10.0051 1.16488 0)
(10.0099 1.34971 0)
(10.0174 1.54259 0)
(10.0281 1.74439 0)
(10.043 1.95588 0)
(10.063 2.17776 0)
(10.0891 2.41063 0)
(10.1227 2.65499 0)
(10.165 2.91121 0)
(10.2177 3.17952 0)
(10.2825 3.45999 0)
(10.3615 3.75242 0)
(10.4568 4.05635 0)
(10.571 4.37092 0)
(10.7065 4.69481 0)
(10.8663 5.02607 0)
(11.0532 5.36202 0)
(11.2698 5.69912 0)
(11.5186 6.03282 0)
(11.8012 6.35756 0)
(12.1183 6.66682 0)
(12.4694 6.95319 0)
(12.847 7.20883 0)
(13.2956 7.42723 0)
(10.0005 0.16241 0)
(10.0021 0.323063 0)
(10.005 0.483879 0)
(10.0094 0.646589 0)
(10.0153 0.812587 0)
(10.0232 0.98309 0)
(10.0336 1.15918 0)
(10.0469 1.34182 0)
(10.0639 1.53189 0)
(10.0852 1.73013 0)
(10.1116 1.9372 0)
(10.1442 2.15363 0)
(10.1838 2.37986 0)
(10.2318 2.61617 0)
(10.2894 2.86271 0)
(10.3581 3.11946 0)
(10.4394 3.38618 0)
(10.5351 3.6624 0)
(10.6472 3.9473 0)
(10.7775 4.23973 0)
(10.9281 4.53806 0)
(11.1011 4.84015 0)
(11.2984 5.14324 0)
(11.5217 5.44395 0)
(11.7719 5.73819 0)
(12.0498 6.02127 0)
(12.3547 6.28797 0)
(12.6852 6.53278 0)
(13.0344 6.75006 0)
(13.4409 6.93595 0)
(10.001 0.161258 0)
(10.0043 0.320746 0)
(10.0101 0.480282 0)
(10.0185 0.641509 0)
(10.0295 0.805739 0)
(10.0436 0.974107 0)
(10.061 1.1476 0)
(10.0824 1.3271 0)
(10.1084 1.51336 0)
(10.1397 1.70703 0)
(10.1769 1.9086 0)
(10.2211 2.11849 0)
(10.2732 2.33694 0)
(10.3342 2.56409 0)
(10.4055 2.79987 0)
(10.4882 3.04405 0)
(10.5837 3.29617 0)
(10.6936 3.55553 0)
(10.8193 3.82111 0)
(10.9624 4.09155 0)
(11.1243 4.36512 0)
(11.3065 4.63966 0)
(11.5101 4.91253 0)
(11.7358 5.18065 0)
(11.9841 5.44053 0)
(12.2547 5.68832 0)
(12.5462 5.91996 0)
(12.857 6.13142 0)
(13.181 6.31878 0)
(13.5521 6.47974 0)
(10.0015 0.159287 0)
(10.0063 0.316799 0)
(10.015 0.474242 0)
(10.0272 0.633161 0)
(10.0431 0.794781 0)
(10.063 0.96015 0)
(10.0872 1.13017 0)
(10.1162 1.30561 0)
(10.1506 1.48712 0)
(10.1911 1.67524 0)
(10.2384 1.87034 0)
(10.2932 2.0727 0)
(10.3565 2.28243 0)
(10.4293 2.49948 0)
(10.5125 2.72365 0)
(10.6074 2.95454 0)
(10.7149 3.19153 0)
(10.8364 3.43376 0)
(10.973 3.6801 0)
(11.1258 3.92912 0)
(11.2958 4.1791 0)
(11.4839 4.42796 0)
(11.6905 4.67331 0)
(11.916 4.91248 0)
(12.16 5.14254 0)
(12.4218 5.36042 0)
(12.7 5.56304 0)
(12.9925 5.7475 0)
(13.2942 5.91112 0)
(13.6357 6.05255 0)
(10.0019 0.156495 0)
(10.0083 0.311217 0)
(10.0196 0.465754 0)
(10.0355 0.621547 0)
(10.0561 0.779727 0)
(10.0814 0.941256 0)
(10.1119 1.10693 0)
(10.148 1.27744 0)
(10.1903 1.45334 0)
(10.2392 1.63502 0)
(10.2956 1.82278 0)
(10.36 2.01676 0)
(10.4333 2.21695 0)
(10.5164 2.42317 0)
(10.61 2.63511 0)
(10.7151 2.85224 0)
(10.8327 3.07383 0)
(10.9635 3.29896 0)
(11.1085 3.52645 0)
(11.2684 3.7549 0)
(11.4438 3.98264 0)
(11.6351 4.20779 0)
(11.8424 4.42826 0)
(12.0655 4.64176 0)
(12.3039 4.84593 0)
(12.5564 5.03837 0)
(12.8216 5.21677 0)
(13.0975 5.37906 0)
(13.3798 5.52344 0)
(13.6963 5.64914 0)
(10.0023 0.152885 0)
(10.0101 0.304008 0)
(10.0239 0.454836 0)
(10.0433 0.606697 0)
(10.0682 0.76063 0)
(10.0986 0.917503 0)
(10.1349 1.07803 0)
(10.1776 1.24279 0)
(10.227 1.41224 0)
(10.2837 1.5867 0)
(10.3482 1.76635 0)
(10.4212 1.95122 0)
(10.5033 2.14121 0)
(10.5952 2.33605 0)
(10.6977 2.53532 0)
(10.8113 2.73844 0)
(10.9369 2.94462 0)
(11.0751 3.1529 0)
(11.2264 3.36214 0)
(11.3912 3.571 0)
(11.5698 3.77796 0)
(11.7623 3.98135 0)
(11.9685 4.17937 0)
(12.1879 4.37013 0)
(12.4198 4.55176 0)
(12.6629 4.72239 0)
(12.9158 4.88034 0)
(13.1768 5.02413 0)
(13.4421 5.15257 0)
(13.7374 5.26528 0)
(10.0027 0.148468 0)
(10.0118 0.295195 0)
(10.0279 0.441524 0)
(10.0506 0.588668 0)
(10.0794 0.73757 0)
(10.1145 0.889011 0)
(10.1562 1.04361 0)
(10.2048 1.20187 0)
(10.2607 1.36414 0)
(10.3243 1.53067 0)
(10.3961 1.70153 0)
(10.4766 1.87669 0)
(10.5663 2.05596 0)
(10.6657 2.23902 0)
(10.7755 2.42538 0)
(10.8961 2.61441 0)
(11.028 2.80533 0)
(11.1717 2.99719 0)
(11.3274 3.18891 0)
(11.4953 3.37926 0)
(11.6754 3.56689 0)
(11.8675 3.75035 0)
(12.0713 3.92813 0)
(12.2862 4.09871 0)
(12.5111 4.26059 0)
(12.7451 4.41237 0)
(12.9866 4.55282 0)
(13.2341 4.6809 0)
(13.4846 4.79585 0)
(13.7619 4.8975 0)
(10.0031 0.14326 0)
(10.0134 0.284812 0)
(10.0317 0.425871 0)
(10.0572 0.567539 0)
(10.0897 0.710662 0)
(10.1291 0.855932 0)
(10.1757 1.00389 0)
(10.2297 1.15494 0)
(10.2913 1.30937 0)
(10.361 1.46734 0)
(10.4391 1.62886 0)
(10.5261 1.79382 0)
(10.6222 1.962 0)
(10.7279 2.133 0)
(10.8437 2.30633 0)
(10.9698 2.48136 0)
(11.1065 2.6573 0)
(11.2541 2.83327 0)
(11.4126 3.00828 0)
(11.5821 3.18122 0)
(11.7623 3.35091 0)
(11.953 3.51613 0)
(12.1535 3.67563 0)
(12.3632 3.8282 0)
(12.5812 3.97266 0)
(12.8063 4.10798 0)
(13.0373 4.23324 0)
(13.2728 4.34776 0)
(13.5102 4.45102 0)
(13.7719 4.54303 0)
(10.0034 0.137283 0)
(10.0149 0.272903 0)
(10.0351 0.407949 0)
(10.0633 0.54341 0)
(10.0991 0.680041 0)
(10.1424 0.81845 0)
(10.1933 0.959091 0)
(10.252 1.1023 0)
(10.3188 1.2483 0)
(10.3938 1.39717 0)
(10.4773 1.54889 0)
(10.5697 1.70328 0)
(10.6712 1.86008 0)
(10.7821 2.01889 0)
(10.9026 2.1792 0)
(11.0329 2.3404 0)
(11.1731 2.50174 0)
(11.3233 2.66243 0)
(11.4834 2.82155 0)
(11.6532 2.97815 0)
(11.8325 3.13121 0)
(12.0208 3.27971 0)
(12.2174 3.42265 0)
(12.4217 3.55905 0)
(12.6328 3.68803 0)
(12.8495 3.80879 0)
(13.0708 3.9207 0)
(13.2955 4.02328 0)
(13.5214 4.11623 0)
(13.7695 4.19961 0)
(10.0037 0.130563 0)
(10.0162 0.259521 0)
(10.0381 0.387839 0)
(10.0688 0.5164 0)