/*--------------------------------*- C++ -*----------------------------------*\
  =========                 |
  \\      /  F ield         | OpenFOAM: The Open Source CFD Toolbox
   \\    /   O peration     | Website:  https://openfoam.org
    \\  /    A nd           | Version:  7
     \\/     M anipulation  |
\*---------------------------------------------------------------------------*/
FoamFile
{
    version     2.0;
    format      ascii;
    class       surfaceVectorField;
    location    "1.3";
    object      Uf;
}
// * * * * * * * * * * * * * * * * * * * * * * * * * * * * * * * * * * * * * //

dimensions      [0 1 -1 0 0 0 0];

internalField   nonuniform List<vector> 
5457
(
(9.92074 0.0251638 0)
(9.97119 0.0388153 0)
(9.82357 0.0329274 0)
(9.92834 0.0487376 0)
(9.70868 0.0394663 0)
(9.85484 0.0590182 0)
(9.57382 0.046226 0)
(9.75558 0.0709529 0)
(9.41887 0.0532296 0)
(9.63552 0.0834926 0)
(9.24394 0.0605182 0)
(9.49559 0.0965441 0)
(9.0487 0.068238 0)
(9.33507 0.110354 0)
(8.83249 0.076539 0)
(9.15307 0.125167 0)
(8.59438 0.0855526 0)
(8.94879 0.141181 0)
(8.33324 0.0954037 0)
(8.72125 0.158577 0)
(8.04779 0.106219 0)
(8.46928 0.177533 0)
(7.7366 0.118126 0)
(8.19152 0.198225 0)
(7.39813 0.13125 0)
(7.88646 0.220813 0)
(7.03082 0.145709 0)
(7.55252 0.24543 0)
(6.63312 0.161598 0)
(7.18809 0.27216 0)
(6.20367 0.178974 0)
(6.79163 0.301005 0)
(5.74139 0.197835 0)
(6.36182 0.331843 0)
(5.24579 0.218082 0)
(5.89769 0.364374 0)
(4.71716 0.239486 0)
(5.39893 0.398055 0)
(4.15697 0.261636 0)
(4.86615 0.432024 0)
(3.56823 0.283888 0)
(4.30126 0.465028 0)
(2.95589 0.305337 0)
(3.70789 0.495366 0)
(2.32719 0.324878 0)
(3.09187 0.520907 0)
(1.69159 0.342031 0)
(2.46169 0.539357 0)
(1.05878 0.361356 0)
(1.82816 0.549981 0)
(0.427852 0.338689 0)
(1.22148 0.561613 0)
(-0.155778 0.091228 0)
(0.579095 0.532076 0)
(-0.421843 -0.20064 0)
(0.0925793 0.24843 0)
(-0.397499 -0.347622 0)
(-0.148587 -0.0232802 0)
(-0.11779 -0.389326 0)
(9.99627 0.0518386 0)
(9.99699 0.0406441 0)
(9.95833 0.0711643 0)
(9.97826 0.0677623 0)
(9.89729 0.0884454 0)
(9.93314 0.0903747 0)
(9.81494 0.106616 0)
(9.86331 0.114281 0)
(9.71103 0.125739 0)
(9.77238 0.139484 0)
(9.5854 0.145867 0)
(9.66136 0.165876 0)
(9.43771 0.167306 0)
(9.52978 0.193834 0)
(9.26732 0.190387 0)
(9.3769 0.223811 0)
(9.07332 0.215401 0)
(9.20198 0.256205 0)
(8.85461 0.242619 0)
(9.00417 0.291387 0)
(8.60991 0.272307 0)
(8.78237 0.329723 0)
(8.33777 0.304717 0)
(8.53532 0.371574 0)
(8.03663 0.340069 0)
(8.26161 0.417279 0)
(7.70483 0.378528 0)
(7.95969 0.46713 0)
(7.34074 0.420163 0)
(7.62796 0.521323 0)
(6.94281 0.46489 0)
(7.26483 0.579905 0)
(6.5098 0.512404 0)
(6.86882 0.642683 0)
(6.0409 0.562085 0)
(6.4387 0.709117 0)
(5.53608 0.612891 0)
(5.97375 0.778184 0)
(4.99641 0.663245 0)
(5.47402 0.848217 0)
(4.42454 0.710925 0)
(4.94068 0.916734 0)
(3.82512 0.752982 0)
(4.37654 0.980277 0)
(3.20551 0.785747 0)
(3.78661 1.03428 0)
(2.57665 0.80508 0)
(3.17902 1.073 0)
(1.95624 0.80705 0)
(2.56579 1.08918 0)
(1.38371 0.76998 0)
(1.97173 1.07125 0)
(0.906719 0.635592 0)
(1.39664 0.966931 0)
(0.415299 0.367017 0)
(0.921251 0.707279 0)
(0.0470169 -0.131045 0)
(0.421152 0.32891 0)
(0.169344 -0.343276 0)
(9.98889 0.0597117 0)
(9.99476 0.0460853 0)
(9.9539 0.0899857 0)
(9.97344 0.0853135 0)
(9.89637 0.118802 0)
(9.92922 0.119925 0)
(9.81887 0.148958 0)
(9.86237 0.155055 0)
(9.7217 0.180795 0)
(9.77539 0.191845 0)
(9.60468 0.214481 0)
(9.66933 0.230457 0)
(9.46754 0.25044 0)
(9.544 0.271349 0)
(9.30981 0.289168 0)
(9.39886 0.315123 0)
(9.13078 0.331128 0)
(9.23334 0.362356 0)
(8.92954 0.376773 0)
(9.04678 0.413593 0)
(8.70499 0.426546 0)
(8.83834 0.469377 0)
(8.45589 0.48088 0)
(8.60699 0.530248 0)
(8.18083 0.540168 0)
(8.35158 0.596726 0)
(7.87831 0.60472 0)
(8.07084 0.669271 0)
(7.54673 0.6747 0)
(7.76342 0.748231 0)
(7.18454 0.750039 0)
(7.4279 0.833761 0)
(6.79029 0.830315 0)
(7.06289 0.925699 0)
(6.3628 0.914596 0)
(6.6671 1.02341 0)
(5.90142 1.00126 0)
(6.23953 1.1256 0)
(5.40636 1.08775 0)
(5.77964 1.23002 0)
(4.87906 1.17041 0)
(5.2877 1.33323 0)
(4.32281 1.24415 0)
(4.76519 1.43027 0)
(3.74355 1.30223 0)
(4.21538 1.51423 0)
(3.15111 1.33571 0)
(3.64415 1.57573 0)
(2.56145 1.33188 0)
(3.06041 1.60166 0)
(1.99807 1.26349 0)
(2.47984 1.57273 0)
(1.4667 1.08311 0)
(1.90858 1.45136 0)
(0.944169 0.755932 0)
(1.3691 1.19518 0)
(0.46899 0.185766 0)
(0.818645 0.783326 0)
(0.425433 0.116071 0)
(9.98501 0.0720043 0)
(9.99361 0.0534246 0)
(9.94995 0.114337 0)
(9.97062 0.102902 0)
(9.89344 0.155199 0)
(9.92627 0.148952 0)
(9.81722 0.197036 0)
(9.86064 0.195154 0)
(9.72195 0.240702 0)
(9.77548 0.243182 0)
(9.60759 0.286667 0)
(9.67171 0.293572 0)
(9.47395 0.335527 0)
(9.54931 0.346887 0)
(9.32071 0.387946 0)
(9.40787 0.403834 0)
(9.14738 0.444572 0)
(9.24698 0.465125 0)
(8.9533 0.506036 0)
(9.06611 0.531447 0)
(8.73768 0.572966 0)
(8.86464 0.603482 0)
(8.49959 0.645977 0)
(8.64181 0.68191 0)
(8.23799 0.725642 0)
(8.39674 0.76739 0)
(7.95176 0.812448 0)
(8.12848 0.860524 0)
(7.63968 0.906715 0)
(7.83603 0.961797 0)
(7.30052 1.00849 0)
(7.5183 1.07148 0)
(6.93303 1.11739 0)
(7.1742 1.1895 0)
(6.53608 1.23241 0)
(6.80264 1.31525 0)
(6.1088 1.35164 0)
(6.4026 1.44734 0)
(5.65077 1.47196 0)
(5.97328 1.58326 0)
(5.16235 1.58868 0)
(5.51424 1.71901 0)
(4.64518 1.69512 0)
(5.0257 1.84865 0)
(4.10271 1.78205 0)
(4.50891 1.96368 0)
(3.54094 1.83684 0)
(3.96665 2.05245 0)
(2.96855 1.84205 0)
(3.40325 2.09913 0)
(2.39543 1.77014 0)
(2.82594 2.08289 0)
(1.82351 1.58465 0)
(2.23784 1.97276 0)
(1.24729 1.26005 0)
(1.64585 1.7332 0)
(0.660397 0.769678 0)
(1.01505 1.34458 0)
(0.518407 0.76289 0)
(9.98323 0.0849094 0)
(9.99311 0.0616378 0)
(9.94776 0.137745 0)
(9.96933 0.120692 0)
(9.89221 0.189402 0)
(9.92511 0.177489 0)
(9.81745 0.242048 0)
(9.86077 0.234488 0)
(9.72413 0.296893 0)
(9.77763 0.293465 0)
(9.61232 0.354661 0)
(9.6764 0.355278 0)
(9.48186 0.416061 0)
(9.55709 0.42063 0)
(9.33247 0.481854 0)
(9.4194 0.490316 0)
(9.16376 0.552798 0)
(9.26296 0.565156 0)
(8.9752 0.629633 0)
(9.08733 0.64595 0)
(8.76617 0.713096 0)
(8.89201 0.733489 0)
(8.53595 0.803911 0)
(8.67636 0.828558 0)
(8.28376 0.902761 0)
(8.4397 0.931919 0)
(8.00875 1.01025 0)
(8.18129 1.04428 0)
(7.71004 1.1268 0)
(7.90032 1.16622 0)
(7.38669 1.25256 0)
(7.59596 1.29811 0)
(7.03774 1.38725 0)
(7.26735 1.43999 0)
(6.66223 1.52987 0)
(6.91355 1.59133 0)
(6.25924 1.67845 0)
(6.53361 1.75079 0)
(5.82797 1.82967 0)
(6.12652 1.91586 0)
(5.36791 1.97833 0)
(5.6913 2.0824 0)
(4.87908 2.11686 0)
(5.22706 2.2441 0)
(4.3623 2.23465 0)
(4.73317 2.39186 0)
(3.81942 2.31732 0)
(4.20947 2.51313 0)
(3.25312 2.34597 0)
(3.65622 2.5913 0)
(2.66613 2.2953 0)
(3.0747 2.60539 0)
(2.05704 2.13532 0)
(2.46407 2.52804 0)
(1.4182 1.84377 0)
(1.82624 2.32971 0)
(0.73663 1.39326 0)
(1.12311 1.99636 0)
(0.53871 1.48437 0)
(9.9825 0.0981125 0)
(9.99294 0.0702098 0)
(9.94698 0.160887 0)
(9.96899 0.138504 0)
(9.89259 0.223024 0)
(9.92532 0.205429 0)
(9.8197 0.286389 0)
(9.86256 0.272841 0)
(9.72881 0.352312 0)
(9.78182 0.342441 0)
(9.62004 0.421683 0)
(9.6836 0.415307 0)
(9.49325 0.495318 0)
(9.56792 0.492291 0)
(9.34822 0.574065 0)
(9.43454 0.574277 0)
(9.18459 0.658782 0)
(9.28314 0.662176 0)
(9.0019 0.750313 0)
(9.11335 0.756886 0)
(8.79963 0.849495 0)
(8.92471 0.85929 0)
(8.57717 0.957149 0)
(8.71668 0.970264 0)
(8.33386 1.07405 0)
(8.48865 1.09065 0)
(8.069 1.2009 0)
(8.23997 1.22125 0)
(7.78187 1.3382 0)
(7.96995 1.36272 0)
(7.47167 1.48623 0)
(7.67784 1.51553 0)
(7.13758 1.64477 0)
(7.36285 1.67982 0)
(6.77869 1.81296 0)
(7.02407 1.85519 0)
(6.39398 1.98893 0)
(6.66045 2.04048 0)
(5.98227 2.16942 0)
(6.27073 2.23337 0)
(5.54229 2.34922 0)
(5.85337 2.42993 0)
(5.0726 2.5206 0)
(5.40648 2.62406 0)
(4.57174 2.67265 0)
(4.92779 2.80684 0)
(4.03822 2.79066 0)
(4.41472 2.96586 0)
(3.47052 2.85579 0)
(3.86432 3.08471 0)
(2.86672 2.84459 0)
(3.27376 3.14285 0)
(2.22264 2.7304 0)
(2.63897 3.11523 0)
(1.53156 2.49267 0)
(1.96101 2.97499 0)
(0.787958 2.09964 0)
(1.19899 2.70747 0)
(0.552246 2.25613 0)
(9.98236 0.111356 0)
(9.99296 0.0788501 0)
(9.94724 0.183643 0)
(9.96928 0.156116 0)
(9.89426 0.255804 0)
(9.92656 0.232646 0)
(9.82357 0.32949 0)
(9.8657 0.31003 0)
(9.73555 0.406069 0)
(9.7877 0.389871 0)
(9.63033 0.486577 0)
(9.69295 0.473377 0)
(9.50782 0.571949 0)
(9.58144 0.561539 0)
(9.36781 0.663127 0)
(9.45299 0.655333 0)
(9.20998 0.761059 0)
(9.30734 0.755753 0)
(9.03394 0.866683 0)
(9.14415 0.863784 0)
(8.83922 0.980923 0)
(8.96301 0.980397 0)
(8.62526 1.10468 0)
(8.76343 1.10655 0)
(8.39147 1.23881 0)
(8.54486 1.24318 0)
(8.13721 1.3841 0)
(8.30669 1.39114 0)
(7.86176 1.54114 0)
(8.04824 1.55121 0)
(7.56438 1.71031 0)
(7.76877 1.72397 0)
(7.24418 1.89154 0)
(7.46742 1.90967 0)
(6.90016 2.08415 0)
(7.14318 2.10812 0)
(6.53104 2.28652 0)
(6.79477 2.31843 0)
(6.13521 2.49572 0)
(6.42056 2.53864 0)
(5.71058 2.70693 0)
(6.01839 2.76533 0)
(5.25446 2.91288 0)
(5.58542 2.99305 0)
(4.76347 3.10318 0)
(5.11793 3.21364 0)
(4.23357 3.26366 0)
(4.6113 3.41553 0)
(3.66007 3.37611 0)
(4.05998 3.58314 0)
(3.03795 3.41818 0)
(3.45811 3.69662 0)
(2.36162 3.36433 0)
(2.79894 3.73182 0)
(1.62656 3.19311 0)
(2.08419 3.66132 0)
(0.833225 2.86375 0)
(1.26997 3.46614 0)
(0.568696 3.07222 0)
(9.98258 0.124427 0)
(9.9931 0.0873793 0)
(9.94826 0.205838 0)
(9.97 0.173333 0)
(9.89696 0.287556 0)
(9.92859 0.258998 0)
(9.82881 0.371123 0)
(9.86995 0.345886 0)
(9.74408 0.457927 0)
(9.79503 0.435528 0)
(9.6429 0.549117 0)
(9.70418 0.529215 0)
(9.52523 0.645733 0)
(9.59736 0.628052 0)
(9.39089 0.748807 0)
(9.47444 0.733106 0)
(9.2396 0.859368 0)
(9.33519 0.845451 0)
(9.07102 0.978439 0)
(9.17935 0.966152 0)
(8.88473 1.10702 0)
(9.00654 1.09626 0)
(8.68021 1.24611 0)
(8.81632 1.23683 0)
(8.4569 1.39665 0)
(8.60819 1.38886 0)
(8.21417 1.55949 0)
(8.38154 1.55333 0)
(7.95129 1.73538 0)
(8.13571 1.73111 0)
(7.66744 1.9248 0)
(7.86989 1.92291 0)
(7.36163 2.12788 0)
(7.58314 2.1292 0)
(7.0326 2.34423 0)
(7.27423 2.35003 0)
(6.67874 2.57261 0)
(6.94163 2.58488 0)
(6.29789 2.81061 0)
(6.58325 2.83235 0)
(5.88714 3.05418 0)
(6.19629 3.08976 0)
(5.44264 3.29694 0)
(5.77695 3.35265 0)
(4.95933 3.52959 0)
(5.32017 3.61408 0)
(4.431 3.73909 0)
(4.81951 3.86387 0)
(3.85039 3.90814 0)
(4.26707 4.08775 0)
(3.20995 4.01495 0)
(3.6542 4.2667 0)
(2.50283 4.03328 0)
(2.97127 4.37647 0)
(1.72566 3.93799 0)
(2.22014 4.38698 0)
(0.882843 3.67584 0)
(1.35291 4.27214 0)
(0.593555 3.93691 0)
(9.98306 0.137168 0)
(9.99333 0.0956768 0)
(9.94984 0.227315 0)
(9.97104 0.189993 0)
(9.90051 0.318124 0)
(9.93125 0.284339 0)
(9.83521 0.411105 0)
(9.87512 0.380242 0)
(9.75416 0.507663 0)
(9.80363 0.479202 0)
(9.65749 0.609032 0)
(9.71706 0.582565 0)
(9.54519 0.716345 0)
(9.61541 0.691529 0)
(9.41712 0.830716 0)
(9.49855 0.807246 0)
(9.27306 0.953253 0)
(9.36634 0.930864 0)
(9.11272 1.08506 0)
(9.21854 1.06352 0)
(8.9357 1.22722 0)
(9.05484 1.20636 0)
(8.74156 1.3808 0)
(8.87487 1.36049 0)
(8.52976 1.54686 0)
(8.67813 1.52704 0)
(8.29967 1.72637 0)
(8.46409 1.70707 0)
(8.05054 1.92018 0)
(8.23204 1.9016 0)
(7.78145 2.12899 0)
(7.98117 2.11151 0)
(7.49126 2.35319 0)
(7.71041 2.33751 0)
(7.17847 2.59274 0)
(7.41839 2.58 0)
(6.84108 2.84693 0)
(7.10326 2.83894 0)
(6.47636 3.11409 0)
(6.76253 3.11362 0)
(6.08063 3.39116 0)
(6.39278 3.40234 0)
(5.64889 3.67311 0)
(5.98934 3.70192 0)
(5.17456 3.95214 0)
(5.54591 4.00708 0)
(4.64934 4.21686 0)
(5.05425 4.30956 0)
(4.0634 4.45128 0)
(4.50405 4.597 0)
(3.40631 4.63392 0)
(3.88353 4.8516 0)
(2.66882 4.73666 0)
(3.17898 5.04881 0)
(1.84667 4.72842 0)
(2.39032 5.15464 0)
(0.946223 4.54009 0)
(1.4633 5.13324 0)
(0.632983 4.86368 0)
(9.98371 0.149455 0)
(9.99362 0.103656 0)
(9.95186 0.247933 0)
(9.97233 0.205965 0)
(9.90476 0.347357 0)
(9.9344 0.308533 0)
(9.84261 0.449255 0)
(9.88107 0.412945 0)
(9.76559 0.555053 0)
(9.81331 0.520703 0)
(9.67385 0.66605 0)
(9.7314 0.633195 0)
(9.5674 0.783463 0)
(9.63533 0.751695 0)
(9.44617 0.90848 0)
(9.52504 0.87743 0)
(9.30997 1.04228 0)
(9.40042 1.01162 0)
(9.15857 1.18604 0)
(9.26131 1.15546 0)
(8.99164 1.34093 0)
(9.10745 1.31018 0)
(8.80878 1.50811 0)
(8.93852 1.47697 0)
(8.60949 1.68873 0)
(8.75411 1.65705 0)
(8.39318 1.8839 0)
(8.5537 1.85161 0)
(8.15907 2.09464 0)
(8.33665 2.06181 0)
(7.9062 2.32188 0)
(8.10211 2.28874 0)
(7.63331 2.56632 0)
(7.84897 2.53341 0)
(7.33867 2.82839 0)
(7.57575 2.79662 0)
(7.01998 3.10804 0)
(7.28043 3.07891 0)
(6.67404 3.40451 0)
(6.96018 3.38042 0)
(6.29644 3.71602 0)
(6.61113 3.70059 0)
(5.88119 4.03916 0)
(6.2279 4.03784 0)
(5.42025 4.36822 0)
(5.8031 4.38899 0)
(4.9032 4.69407 0)
(5.32683 4.74832 0)
(4.31724 5.0027 0)
(4.78618 5.10626 0)
(3.64793 5.27348 0)
(4.16546 5.44738 0)
(2.88132 5.47617 0)
(3.44489 5.7477 0)
(2.00871 5.57208 0)
(2.61862 5.96941 0)
(1.03506 5.47163 0)
(1.62088 6.06435 0)
(0.696596 5.87745 0)
(9.98449 0.16119 0)
(9.99396 0.111252 0)
(9.95423 0.267567 0)
(9.9738 0.221142 0)
(9.90961 0.375115 0)
(9.93796 0.331454 0)
(9.85087 0.485405 0)
(9.88768 0.443852 0)
(9.7782 0.599892 0)
(9.82394 0.559858 0)
(9.69177 0.71993 0)
(9.747 0.680897 0)
(9.59162 0.846803 0)
(9.6569 0.808303 0)
(9.47772 0.981767 0)
(9.55361 0.943368 0)
(9.34995 1.12607 0)
(9.43709 1.08737 0)
(9.20814 1.28095 0)
(9.30723 1.24158 0)
(9.05202 1.44765 0)
(9.16385 1.40727 0)
(8.88127 1.62744 0)
(9.00671 1.58574 0)
(8.69546 1.82156 0)
(8.83547 1.77828 0)
(8.49402 2.03126 0)
(8.64969 1.98621 0)
(8.27623 2.25777 0)
(8.44878 2.21085 0)
(8.04112 2.50227 0)
(8.23195 2.45353 0)
(7.78739 2.76583 0)
(7.99813 2.71555 0)
(7.51322 3.04942 0)
(7.74584 2.99819 0)
(7.21611 3.35373 0)
(7.473 3.30263 0)
(6.89258 3.67909 0)
(7.17669 3.62993 0)
(6.53774 4.02519 0)
(6.85283 3.98086 0)
(6.14484 4.39068 0)
(6.49564 4.3557 0)
(5.70457 4.77246 0)
(6.09705 4.75377 0)
(5.20445 5.16455 0)
(5.64581 5.17271 0)
(4.62823 5.55629 0)
(5.12649 5.60706 0)
(3.95595 5.92951 0)
(4.51889 6.0458 0)
(3.16541 6.2534 0)
(3.79478 6.46841 0)
(2.23729 6.48127 0)
(2.93661 6.83601 0)
(1.16736 6.49685 0)
(1.85646 7.08753 0)
(0.802192 7.02081 0)
(9.98537 0.172298 0)
(9.99434 0.118415 0)
(9.95688 0.28611 0)
(9.97543 0.235434 0)
(9.91495 0.401273 0)
(9.94186 0.352993 0)
(9.85986 0.519408 0)
(9.89485 0.472835 0)
(9.79183 0.642002 0)
(9.83536 0.596513 0)
(9.71104 0.770457 0)
(9.76369 0.725485 0)
(9.61757 0.906112 0)
(9.67989 0.861134 0)
(9.51145 1.05028 0)
(9.58398 1.00481 0)
(9.39261 1.20427 0)
(9.47599 1.15783 0)
(9.26096 1.36937 0)
(9.35589 1.32153 0)
(9.11631 1.54692 0)
(9.22356 1.49724 0)
(8.95842 1.73824 0)
(9.07885 1.68631 0)
(8.78694 1.94469 0)
(8.92153 1.89015 0)
(8.60141 2.16767 0)
(8.75126 2.11018 0)
(8.40118 2.4086 0)
(8.56755 2.34788 0)
(8.18536 2.66893 0)
(8.36975 2.60479 0)
(7.95271 2.95014 0)
(8.1569 2.88256 0)
(7.70147 3.25375 0)
(7.92766 3.1829 0)
(7.42917 3.58127 0)
(7.68009 3.50767 0)
(7.1323 3.9342 0)
(7.41144 3.85889 0)
(6.80587 4.3139 0)
(7.11779 4.2387 0)
(6.4428 4.72135 0)
(6.79348 4.64941 0)
(6.03307 5.15671 0)
(6.43039 5.09325 0)
(5.56256 5.61833 0)
(6.01678 5.57198 0)
(5.0116 6.10093 0)
(5.53558 6.0859 0)
(4.35348 6.59226 0)
(4.96246 6.63163 0)
(3.55351 7.06569 0)
(4.25941 7.19772 0)
(2.57157 7.47069 0)
(3.39015 7.75286 0)
(1.37593 7.65836 0)
(2.22463 8.23093 0)
(0.987225 8.36845 0)
(9.98634 0.182714 0)
(9.99474 0.125105 0)
(9.95975 0.303474 0)
(9.97718 0.24877 0)
(9.92069 0.42572 0)
(9.94603 0.373058 0)
(9.86947 0.55113 0)
(9.90246 0.499784 0)
(9.80633 0.681224 0)
(9.84744 0.630536 0)
(9.73146 0.817441 0)
(9.78128 0.766801 0)
(9.64501 0.961167 0)
(9.70406 0.910001 0)
(9.54704 1.11376 0)
(9.61587 1.06152 0)
(9.43757 1.27658 0)
(9.51678 1.22274 0)
(9.31656 1.45097 0)
(9.40684 1.39501 0)
(9.18394 1.63831 0)
(9.28603 1.57972 0)
(9.03956 1.84001 0)
(9.15431 1.77828 0)
(8.88319 2.05752 0)
(9.01155 1.99217 0)
(8.71447 2.29238 0)
(8.85754 2.22291 0)
(8.53292 2.54619 0)
(8.69197 2.47212 0)
(8.33781 2.82065 0)
(8.51436 2.74155 0)
(8.12807 3.11764 0)
(8.32397 3.03312 0)
(7.90218 3.43922 0)
(8.11973 3.34898 0)
(7.65795 3.78771 0)
(7.90008 3.69158 0)
(7.39218 4.16576 0)
(7.66272 4.06385 0)
(7.10029 4.57645 0)
(7.40432 4.46926 0)
(6.77557 5.0233 0)
(7.12002 4.91209 0)
(6.40824 5.51018 0)
(6.80262 5.3976 0)
(5.98379 6.04095 0)
(6.44137 5.93217 0)
(5.4805 6.61837 0)
(6.01973 6.52332 0)
(4.86551 7.24146 0)
(5.5122 7.17905 0)
(4.08894 7.89818 0)
(4.87382 7.90569 0)
(3.07643 8.55076 0)
(4.04722 8.69825 0)
(1.72921 9.02672 0)
(2.83155 9.5193 0)
(1.34026 10.0621 0)
(9.98737 0.19239 0)
(9.99516 0.13129 0)
(9.9628 0.319583 0)
(9.97903 0.261092 0)
(9.92676 0.448364 0)
(9.95041 0.391571 0)
(9.87959 0.580462 0)
(9.91045 0.524606 0)
(9.82154 0.717429 0)
(9.86007 0.661816 0)
(9.75284 0.860733 0)
(9.79962 0.804715 0)
(9.67367 1.0118 0)
(9.72921 0.95475 0)
(9.58416 1.17201 0)
(9.64898 1.11334 0)
(9.48441 1.34277 0)
(9.55909 1.28188 0)
(9.37445 1.52546 0)
(9.45965 1.46177 0)
(9.25432 1.72151 0)
(9.35075 1.65443 0)
(9.12399 1.93237 0)
(9.23244 1.86131 0)
(8.98335 2.15959 0)
(9.10475 2.08392 0)
(8.83222 2.4048 0)
(8.96762 2.32388 0)
(8.67031 2.66976 0)
(8.82093 2.58292 0)
(8.49712 2.9564 0)
(8.66445 2.86294 0)
(8.31191 3.26692 0)
(8.49775 3.16607 0)
(8.11355 3.60384 0)
(8.32017 3.49482 0)
(7.90035 3.9702 0)
(8.13068 3.85212 0)
(7.66987 4.36969 0)
(7.92775 4.2416 0)
(7.41846 4.80694 0)
(7.70909 4.66784 0)
(7.14073 5.28785 0)
(7.47131 5.13677 0)
(6.82852 5.82008 0)
(7.20934 5.65627 0)
(6.46922 6.41356 0)
(6.91542 6.23706 0)
(6.04263 7.08118 0)
(6.57717 6.89408 0)
(5.51488 7.83943 0)
(6.17462 7.64881 0)
(4.82601 8.70743 0)
(5.66836 8.53372 0)
(3.86181 9.70374 0)
(5.00088 9.59855 0)
(2.39001 10.728 0)
(3.90596 10.9268 0)
(2.10245 12.403 0)
(9.98845 0.201285 0)
(9.99561 0.136948 0)
(9.96599 0.334374 0)
(9.98094 0.272354 0)
(9.9331 0.46912 0)
(9.95495 0.408469 0)
(9.89011 0.607294 0)
(9.91873 0.547224 0)
(9.83732 0.750475 0)
(9.87314 0.690263 0)
(9.77498 0.900154 0)
(9.81856 0.839119 0)
(9.70331 1.05778 0)
(9.75517 0.995257 0)
(9.62251 1.22476 0)
(9.68315 1.16012 0)
(9.53275 1.40252 0)
(9.60273 1.33511 0)
(9.43416 1.59247 0)
(9.5141 1.52164 0)
(9.32687 1.79605 0)
(9.41747 1.72116 0)
(9.21098 2.01478 0)
(9.31301 1.93513 0)
(9.08656 2.25025 0)
(9.20087 2.1651 0)
(8.95361 2.50414 0)
(9.08121 2.41272 0)
(8.81208 2.77834 0)
(8.95411 2.67978 0)
(8.66177 3.07495 0)
(8.81964 2.96828 0)
(8.50235 3.39637 0)
(8.67775 3.28052 0)
(8.33322 3.74551 0)
(8.52827 3.61916 0)
(8.15347 4.12587 0)
(8.37088 3.98747 0)
(7.96168 4.54191 0)
(8.20502 4.38951 0)
(7.75574 4.9994 0)
(8.02981 4.83051 0)
(7.53244 5.50608 0)
(7.84393 5.31741 0)
(7.28694 6.07256 0)
(7.64547 5.85968 0)
(7.01154 6.71395 0)
(7.43166 6.47076 0)
(6.6935 7.45265 0)
(7.19843 7.17049 0)
(6.30995 8.32425 0)
(6.94056 7.99022 0)
(5.81523 9.39132 0)
(6.64825 8.98474 0)
(5.09977 10.7964 0)
(6.34067 10.2666 0)
(3.807 13.0072 0)
(6.06254 12.1631 0)
(5.14203 16.1317 0)
(0.595107 -0.44522 0)
(0.257883 -0.582871 0)
(1.0498 -0.339214 0)
(0.678906 -0.434828 0)
(1.41483 -0.269927 0)
(1.03111 -0.340837 0)
(1.71709 -0.222089 0)
(1.32316 -0.275556 0)
(1.96896 -0.186548 0)
(1.55307 -0.224199 0)
(2.17665 -0.158979 0)
(1.72935 -0.180502 0)
(2.34353 -0.136047 0)
(1.85455 -0.141615 0)
(2.46883 -0.112528 0)
(1.92334 -0.103815 0)
(2.54307 -0.0828932 0)
(1.92744 -0.0600607 0)
(2.55316 -0.0471799 0)
(1.88192 -0.00796773 0)
(2.49944 -0.010666 0)
(1.78823 0.0414297 0)
(2.39275 0.0218597 0)
(1.64981 0.0803346 0)
(2.24194 0.0483187 0)
(1.47328 0.110877 0)
(2.05457 0.0683019 0)
(1.26493 0.134509 0)
(1.83925 0.08152 0)
(1.03287 0.150913 0)
(1.60555 0.0879557 0)
(0.787634 0.159933 0)
(1.36387 0.0882613 0)
(0.536762 0.161484 0)
(1.12474 0.0834929 0)
(0.288785 0.156009 0)
(0.898024 0.0747657 0)
(0.0525891 0.144413 0)
(0.692913 0.0633464 0)
(-0.163832 0.127567 0)
(0.516848 0.0503566 0)
(-0.352355 0.106916 0)
(0.376523 0.0363814 0)
(-0.504876 0.0832005 0)
(0.278472 0.0215241 0)
(-0.613446 0.0567624 0)
(0.229932 0.004938 0)
(-0.669823 0.0274366 0)
(0.239828 -0.01806 0)
(-0.676413 -0.00546159 0)
(0.33383 -0.056535 0)
(-0.611479 -0.0506531 0)
(0.555645 -0.110912 0)
(-0.460565 -0.116702 0)
(0.908387 -0.200232 0)
(-0.191459 -0.181203 0)
(1.49156 -0.269742 0)
(0.137563 -0.292498 0)
(0.70983 -0.317743 0)
(0.372891 -0.724026 0)
(0.102483 -0.948095 0)
(0.700307 -0.558938 0)
(0.404396 -0.747937 0)
(0.962055 -0.441326 0)
(0.599899 -0.585236 0)
(1.1639 -0.353626 0)
(0.764832 -0.459572 0)
(1.31212 -0.281541 0)
(0.871152 -0.356138 0)
(1.40331 -0.215846 0)
(0.918426 -0.259756 0)
(1.42824 -0.148479 0)
(0.903025 -0.162765 0)
(1.37602 -0.0739352 0)
(0.826715 -0.0605522 0)
(1.26106 0.00245142 0)
(0.706273 0.032944 0)
(1.11088 0.0709582 0)
(0.552877 0.110649 0)
(0.933781 0.1284 0)
(0.375035 0.178013 0)
(0.728056 0.174848 0)
(0.171646 0.235245 0)
(0.497022 0.2107 0)
(-0.0531272 0.280736 0)
(0.248444 0.235996 0)
(-0.295003 0.31295 0)
(-0.00978679 0.25051 0)
(-0.547614 0.331905 0)
(-0.269571 0.254996 0)
(-0.802321 0.337714 0)
(-0.524808 0.2503 0)
(-1.05427 0.332028 0)
(-0.768928 0.236969 0)
(-1.29761 0.315271 0)
(-0.994518 0.215838 0)
(-1.52548 0.288111 0)
(-1.19412 0.18803 0)
(-1.7311 0.251708 0)
(-1.35989 0.154622 0)
(-1.90726 0.207578 0)
(-1.48453 0.116222 0)
(-2.04688 0.157101 0)
(-1.56134 0.0726743 0)
(-2.14266 0.101232 0)
(-1.58398 0.0222047 0)
(-2.18792 0.0402304 0)
(-1.54067 -0.040336 0)
(-2.1799 -0.0293651 0)
(-1.42724 -0.119791 0)
(-2.10894 -0.111772 0)
(-1.25341 -0.210519 0)
(-1.97744 -0.208156 0)
(-0.995454 -0.308691 0)
(-1.786 -0.313716 0)
(-0.730838 -0.383091 0)
(-1.55689 -0.425221 0)
(-1.35098 -0.472106 0)
(0.170588 -0.970919 0)
(-0.00423829 -1.11518 0)
(0.320711 -0.770157 0)
(0.133095 -0.891501 0)
(0.425463 -0.599435 0)
(0.150306 -0.683045 0)
(0.480758 -0.455613 0)
(0.166046 -0.509983 0)
(0.477798 -0.322797 0)
(0.130968 -0.353503 0)
(0.413807 -0.191907 0)
(0.0487345 -0.204141 0)
(0.296093 -0.06453 0)
(-0.0778721 -0.0628748 0)
(0.152518 0.0491081 0)
(-0.225957 0.0584052 0)
(-0.00726804 0.143003 0)
(-0.385576 0.162207 0)
(-0.18901 0.222018 0)
(-0.566828 0.254202 0)
(-0.39158 0.289432 0)
(-0.766383 0.334237 0)
(-0.611374 0.344142 0)
(-0.981324 0.400749 0)
(-0.844304 0.384629 0)
(-1.20817 0.45199 0)
(-1.08641 0.410161 0)
(-1.44355 0.486744 0)
(-1.33286 0.420788 0)
(-1.68354 0.504642 0)
(-1.57882 0.417183 0)
(-1.92402 0.506034 0)
(-1.81813 0.400147 0)
(-2.16008 0.491927 0)
(-2.04466 0.370349 0)
(-2.38632 0.463061 0)
(-2.25231 0.328847 0)
(-2.59721 0.42038 0)
(-2.43483 0.277114 0)
(-2.78702 0.365222 0)
(-2.58576 0.21681 0)
(-2.94978 0.299235 0)
(-2.69884 0.149414 0)
(-3.07938 0.224144 0)
(-2.76838 0.0756566 0)
(-3.16978 0.141491 0)
(-2.7883 -0.00543315 0)
(-3.21563 0.0514902 0)
(-2.75597 -0.0966411 0)
(-3.21408 -0.0472098 0)
(-2.67325 -0.199794 0)
(-3.16592 -0.156342 0)
(-2.5476 -0.31166 0)
(-3.07344 -0.274262 0)
(-2.38724 -0.423427 0)
(-2.94211 -0.396097 0)
(-2.22071 -0.510272 0)
(-2.79506 -0.508742 0)
(-2.69437 -0.581106 0)
(-0.0135293 -1.01639 0)
(-0.0927997 -1.10192 0)
(-0.0345304 -0.78651 0)
(-0.115994 -0.871418 0)
(-0.0862195 -0.575175 0)
(-0.246555 -0.634782 0)
(-0.173552 -0.391193 0)
(-0.361462 -0.430365 0)
(-0.294846 -0.223321 0)
(-0.504456 -0.245535 0)
(-0.444256 -0.0688454 0)
(-0.666421 -0.0742877 0)
(-0.600091 0.067412 0)
(-0.834395 0.069365 0)
(-0.766344 0.18395 0)
(-1.00498 0.196153 0)
(-0.94925 0.286407 0)
(-1.19035 0.310173 0)
(-1.14743 0.376143 0)
(-1.38789 0.410736 0)
(-1.35813 0.451897 0)
(-1.59568 0.496736 0)
(-1.57854 0.51207 0)
(-1.81168 0.566717 0)
(-1.80593 0.555241 0)
(-2.03381 0.619165 0)
(-2.03747 0.580606 0)
(-2.25989 0.652959 0)
(-2.26998 0.588081 0)
(-2.48743 0.667607 0)
(-2.4997 0.57819 0)
(-2.71343 0.663237 0)
(-2.72203 0.551736 0)
(-2.93424 0.640486 0)
(-2.93212 0.509601 0)
(-3.14567 0.600124 0)
(-3.12491 0.452952 0)
(-3.34317 0.543186 0)
(-3.29512 0.383276 0)
(-3.52192 0.471079 0)
(-3.43725 0.302253 0)
(-3.67675 0.385546 0)
(-3.5459 0.2115 0)
(-3.80238 0.288565 0)
(-3.61602 0.112067 0)
(-3.89376 0.18208 0)
(-3.64391 0.00385588 0)
(-3.94682 0.0672571 0)
(-3.62881 -0.113378 0)
(-3.95897 -0.0555421 0)
(-3.57475 -0.237973 0)
(-3.93423 -0.185474 0)
(-3.48926 -0.36539 0)
(-3.87498 -0.31924 0)
(-3.38361 -0.48706 0)
(-3.78745 -0.450372 0)
(-3.26644 -0.585282 0)
(-3.69155 -0.567507 0)
(-3.63372 -0.651698 0)
(-0.158518 -0.914248 0)
(-0.171125 -0.946666 0)
(-0.327929 -0.678493 0)
(-0.320862 -0.709409 0)
(-0.500846 -0.456553 0)
(-0.553728 -0.473325 0)
(-0.682509 -0.259863 0)
(-0.760403 -0.264749 0)
(-0.871226 -0.0820121 0)
(-0.967526 -0.0775511 0)
(-1.05313 0.0753593 0)
(-1.16699 0.0838083 0)
(-1.23778 0.212337 0)
(-1.36019 0.226052 0)
(-1.4301 0.334354 0)
(-1.55869 0.355504 0)
(-1.63007 0.442943 0)
(-1.76155 0.471942 0)
(-1.83691 0.537048 0)
(-1.96844 0.574113 0)
(-2.04946 0.615255 0)
(-2.17896 0.660653 0)
(-2.26634 0.676037 0)
(-2.39251 0.730029 0)
(-2.48609 0.718037 0)
(-2.60826 0.78073 0)
(-2.70703 0.740361 0)
(-2.82518 0.811554 0)
(-2.92702 0.742692 0)
(-3.04182 0.821801 0)
(-3.14338 0.725252 0)
(-3.25619 0.8113 0)
(-3.35271 0.68863 0)
(-3.46563 0.780353 0)
(-3.55112 0.633678 0)
(-3.6669 0.729569 0)
(-3.73437 0.561604 0)
(-3.85623 0.659914 0)
(-3.89789 0.474013 0)
(-4.02944 0.572774 0)
(-4.0369 0.372865 0)
(-4.18196 0.469961 0)
(-4.14669 0.26032 0)
(-4.30911 0.353662 0)
(-4.22301 0.138379 0)
(-4.40654 0.226263 0)
(-4.26322 0.00855686 0)
(-4.47087 0.0899852 0)
(-4.2676 -0.127649 0)
(-4.49991 -0.0531242 0)
(-4.24025 -0.267332 0)
(-4.4979 -0.200211 0)
(-4.18804 -0.405005 0)
(-4.46767 -0.346708 0)
(-4.12021 -0.532554 0)
(-4.4153 -0.485216 0)
(-4.04165 -0.635855 0)
(-4.35741 -0.606914 0)
(-4.32558 -0.694736 0)
(-0.273653 -0.702866 0)
(-0.230053 -0.67864 0)
(-0.542343 -0.475144 0)
(-0.466274 -0.452459 0)
(-0.795365 -0.261934 0)
(-0.765903 -0.237073 0)
(-1.03709 -0.070406 0)
(-1.02617 -0.0443816 0)
(-1.2579 0.0980905 0)
(-1.26832 0.119007 0)
(-1.46973 0.245601 0)
(-1.49405 0.267909 0)
(-1.68 0.379124 0)
(-1.71405 0.404487 0)
(-1.88982 0.500236 0)
(-1.92992 0.529344 0)
(-2.09972 0.60796 0)
(-2.14272 0.641743 0)
(-2.31017 0.700843 0)
(-2.35355 0.740344 0)
(-2.52138 0.777297 0)
(-2.5633 0.823536 0)
(-2.73325 0.835691 0)
(-2.77257 0.889569 0)
(-2.94544 0.874562 0)
(-2.98165 0.936738 0)
(-3.15726 0.892824 0)
(-3.19046 0.963605 0)
(-3.36748 0.889874 0)
(-3.39844 0.969149 0)
(-3.5743 0.865603 0)
(-3.6044 0.952831 0)
(-3.77517 0.820322 0)
(-3.80647 0.914572 0)
(-3.96698 0.754717 0)
(-4.00209 0.854704 0)
(-4.14609 0.669901 0)
(-4.1881 0.774003 0)
(-4.30845 0.567448 0)
(-4.36079 0.673753 0)
(-4.44976 0.44939 0)
(-4.51599 0.555776 0)
(-4.56573 0.318151 0)
(-4.64937 0.422423 0)
(-4.65254 0.17641 0)
(-4.75694 0.276513 0)
(-4.70791 0.0270137 0)
(-4.8356 0.121283 0)
(-4.73235 -0.126724 0)
(-4.88328 -0.0396316 0)
(-4.72972 -0.280331 0)
(-4.9032 -0.201632 0)
(-4.70598 -0.4275 0)
(-4.89915 -0.359197 0)
(-4.66838 -0.560533 0)
(-4.87699 -0.50453 0)
(-4.62239 -0.666533 0)
(-4.85002 -0.629982 0)
(-4.83693 -0.717996 0)
(-0.34917 -0.410652 0)
(-0.26337 -0.336649 0)
(-0.683025 -0.19927 0)
(-0.55147 -0.133191 0)
(-0.981663 -0.00992725 0)
(-0.887034 0.041771 0)
(-1.2492 0.153454 0)
(-1.17644 0.199523 0)
(-1.49866 0.300191 0)
(-1.44177 0.34106 0)
(-1.73534 0.435751 0)
(-1.69082 0.473608 0)
(-1.96231 0.560829 0)
(-1.92616 0.597091 0)
(-2.1818 0.67491 0)
(-2.15061 0.711199 0)
(-2.39573 0.776702 0)
(-2.36668 0.814813 0)
(-2.60581 0.864529 0)
(-2.57668 0.906276 0)
(-2.81338 0.936526 0)
(-2.7826 0.983615 0)
(-3.01943 0.990794 0)
(-2.98607 1.04473 0)
(-3.22456 1.02559 0)
(-3.18826 1.08756 0)
(-3.4289 1.0395 0)
(-3.38991 1.11029 0)
(-3.63197 1.03152 0)
(-3.59114 1.11148 0)
(-3.83263 1.00114 0)
(-3.79141 1.09015 0)
(-4.02898 0.948298 0)
(-3.98943 1.04577 0)
(-4.21846 0.873398 0)
(-4.18317 0.978318 0)
(-4.39787 0.777366 0)
(-4.36989 0.888287 0)
(-4.56352 0.661705 0)
(-4.54619 0.776778 0)
(-4.71138 0.528533 0)
(-4.70817 0.645566 0)
(-4.83738 0.380587 0)
(-4.85165 0.497127 0)
(-4.93784 0.221254 0)
(-4.97271 0.334675 0)
(-5.01048 0.0546125 0)
(-5.06824 0.162341 0)
(-5.05558 -0.114465 0)
(-5.1361 -0.0147447 0)
(-5.07637 -0.28032 0)
(-5.17718 -0.190429 0)
(-5.07809 -0.436084 0)
(-5.19753 -0.358288 0)
(-5.06679 -0.574054 0)
(-5.2025 -0.51034 0)
(-5.04884 -0.6815 0)
(-5.20207 -0.638981 0)
(-5.20386 -0.726187 0)
(-0.387666 -0.0474511 0)
(-0.270456 0.0430458 0)
(-0.747378 0.120825 0)
(-0.582423 0.210803 0)
(-1.06901 0.263252 0)
(-0.934986 0.342085 0)
(-1.3603 0.396236 0)
(-1.24197 0.46508 0)
(-1.62919 0.521354 0)
(-1.52331 0.580411 0)
(-1.87876 0.639499 0)
(-1.78193 0.690515 0)
(-2.11265 0.750314 0)
(-2.0215 0.795562 0)
(-2.33421 0.852772 0)
(-2.24582 0.894771 0)
(-2.54652 0.945225 0)
(-2.45848 0.986568 0)
(-2.75231 1.02562 0)
(-2.6628 1.06882 0)
(-2.9539 1.09167 0)
(-2.86166 1.13908 0)
(-3.15312 1.14109 0)
(-3.05747 1.19474 0)
(-3.35135 1.1717 0)
(-3.25214 1.23329 0)
(-3.54933 1.18164 0)
(-3.447 1.25241 0)
(-3.7472 1.16945 0)
(-3.64273 1.25016 0)
(-3.94431 1.13413 0)
(-3.83926 1.22504 0)
(-4.13927 1.0752 0)
(-4.03576 1.17604 0)
(-4.32991 0.992704 0)
(-4.23057 1.10269 0)
(-4.51333 0.887301 0)
(-4.42123 1.00513 0)
(-4.68605 0.76035 0)
(-4.60454 0.884201 0)
(-4.84416 0.613982 0)
(-4.77667 0.741575 0)
(-4.9836 0.451171 0)
(-4.93346 0.579804 0)
(-5.10067 0.27588 0)
(-5.07084 0.402446 0)
(-5.19262 0.0932643 0)
(-5.1854 0.214316 0)
(-5.25876 -0.0903305 0)
(-5.27472 0.0217567 0)
(-5.30172 -0.267868 0)
(-5.33769 -0.167279 0)
(-5.32704 -0.431964 0)
(-5.38141 -0.344969 0)
(-5.33961 -0.574786 0)
(-5.41158 -0.503883 0)
(-5.34631 -0.683352 0)
(-5.43484 -0.635616 0)
(-5.44925 -0.722021 0)
(-0.394571 0.315102 0)
(-0.261169 0.429504 0)
(-0.762084 0.442201 0)
(-0.580174 0.562258 0)
(-1.09594 0.550157 0)
(-0.939432 0.653813 0)
(-1.3979 0.652795 0)
(-1.25041 0.740366 0)
(-1.6719 0.751513 0)
(-1.53228 0.82431 0)
(-1.92212 0.847475 0)
(-1.78711 0.907981 0)
(-2.15298 0.940209 0)
(-2.01976 0.991468 0)
(-2.3688 1.02829 0)
(-2.23497 1.07359 0)
(-2.57357 1.10959 0)
(-2.43725 1.15222 0)
(-2.77083 1.18152 0)
(-2.63065 1.22464 0)
(-2.96365 1.24129 0)
(-2.81874 1.28778 0)
(-3.15452 1.28606 0)
(-3.00452 1.33847 0)
(-3.34536 1.31313 0)
(-3.1904 1.3736 0)
(-3.53744 1.32011 0)
(-3.37817 1.3903 0)
(-3.7313 1.305 0)
(-3.56889 1.38604 0)
(-3.92672 1.26628 0)
(-3.76289 1.35877 0)
(-4.12261 1.20297 0)
(-3.95961 1.30693 0)
(-4.3171 1.11469 0)
(-4.15768 1.22956 0)