/*--------------------------------*- C++ -*----------------------------------*\
  =========                 |
  \\      /  F ield         | OpenFOAM: The Open Source CFD Toolbox
   \\    /   O peration     | Website:  https://openfoam.org
    \\  /    A nd           | Version:  7
     \\/     M anipulation  |
\*---------------------------------------------------------------------------*/
FoamFile
{
    version     2.0;
    format      ascii;
    class       surfaceScalarField;
    location    "9.66";
    object      phi;
}
// * * * * * * * * * * * * * * * * * * * * * * * * * * * * * * * * * * * * * //

dimensions      [1 0 -1 0 0 0 0];

internalField   nonuniform List<scalar> 
23692
(
1.19582e-05
-3.23788e-07
1.25035e-05
-5.45258e-07
1.32302e-05
-7.2651e-07
1.41075e-05
-8.77116e-07
1.51144e-05
-1.00656e-06
1.62367e-05
-1.12204e-06
1.74663e-05
-1.22917e-06
1.87989e-05
-1.33222e-06
2.02333e-05
-1.43388e-06
2.1769e-05
-1.53521e-06
2.34052e-05
-1.63569e-06
2.51392e-05
-1.73343e-06
2.69655e-05
-1.82564e-06
2.88752e-05
-1.90911e-06
3.08566e-05
-1.98075e-06
3.28952e-05
-2.03797e-06
3.49748e-05
-2.07892e-06
3.70781e-05
-2.10263e-06
3.91878e-05
-2.10898e-06
4.12871e-05
-2.09857e-06
4.33604e-05
-2.07259e-06
4.53937e-05
-2.03261e-06
4.73749e-05
-1.98045e-06
4.92937e-05
-1.91801e-06
5.11416e-05
-1.84718e-06
5.2912e-05
-1.76976e-06
5.46002e-05
-1.68741e-06
5.62025e-05
-1.60161e-06
5.77169e-05
-1.51365e-06
5.91423e-05
-1.42467e-06
6.04786e-05
-1.3356e-06
6.17265e-05
-1.24723e-06
6.28874e-05
-1.16019e-06
6.39631e-05
-1.075e-06
6.49558e-05
-9.92066e-07
6.58682e-05
-9.11693e-07
6.67029e-05
-8.34111e-07
6.7463e-05
-7.59481e-07
6.81516e-05
-6.87909e-07
6.87716e-05
-6.19455e-07
6.93264e-05
-5.54142e-07
6.98189e-05
-4.9196e-07
7.02524e-05
-4.32875e-07
7.06298e-05
-3.76831e-07
7.0954e-05
-3.23756e-07
7.12281e-05
-2.73563e-07
7.14547e-05
-2.26151e-07
7.16366e-05
-1.81409e-07
7.17763e-05
-1.39215e-07
7.18761e-05
-9.94339e-08
7.19384e-05
-6.19205e-08
7.19653e-05
-2.65135e-08
7.19587e-05
6.94304e-09
7.19204e-05
3.85777e-08
7.18522e-05
6.85157e-08
7.17555e-05
9.69203e-08
7.16317e-05
1.23981e-07
7.1482e-05
1.49903e-07
7.13072e-05
1.74912e-07
7.11081e-05
1.99255e-07
7.0885e-05
2.23209e-07
7.06379e-05
2.47082e-07
7.03667e-05
2.7123e-07
7.00706e-05
2.96061e-07
6.97485e-05
3.22059e-07
6.93986e-05
3.49801e-07
6.90185e-05
3.79995e-07
6.86048e-05
4.13523e-07
6.81531e-05
4.5152e-07
6.76574e-05
4.95485e-07
6.71097e-05
5.47456e-07
6.64991e-05
6.10312e-07
6.58105e-05
6.88275e-07
6.50224e-05
7.87804e-07
6.41028e-05
9.1925e-07
6.30025e-05
1.10002e-06
6.16412e-05
1.36089e-06
5.98812e-05
1.75967e-06
5.74644e-05
2.41646e-06
5.38307e-05
3.63325e-06
6.74998e-06
4.70804e-05
1.27836e-05
-6.59363e-07
1.33628e-05
-1.12431e-06
1.41368e-05
-1.50038e-06
1.50722e-05
-1.81228e-06
1.61465e-05
-2.08057e-06
1.73447e-05
-2.31988e-06
1.86578e-05
-2.54191e-06
2.00816e-05
-2.75554e-06
2.16147e-05
-2.96644e-06
2.32568e-05
-3.17683e-06
2.50073e-05
-3.38561e-06
2.68634e-05
-3.58887e-06
2.88192e-05
-3.78079e-06
3.08654e-05
-3.95468e-06
3.29894e-05
-4.10405e-06
3.51756e-05
-4.22346e-06
3.74065e-05
-4.30905e-06
3.96634e-05
-4.35879e-06
4.19275e-05
-4.37239e-06
4.41808e-05
-4.3511e-06
4.64064e-05
-4.2974e-06
4.85891e-05
-4.21457e-06
5.07158e-05
-4.1064e-06
5.27755e-05
-3.97684e-06
5.47589e-05
-3.82986e-06
5.66591e-05
-3.66918e-06
5.84707e-05
-3.49827e-06
6.01901e-05
-3.3202e-06
6.18149e-05
-3.13768e-06
6.3344e-05
-2.95304e-06
6.47774e-05
-2.76823e-06
6.61158e-05
-2.58488e-06
6.73607e-05
-2.40432e-06
6.8514e-05
-2.22761e-06
6.95783e-05
-2.05558e-06
7.05562e-05
-1.88889e-06
7.14507e-05
-1.72799e-06
7.22652e-05
-1.57321e-06
7.30027e-05
-1.42479e-06
7.36667e-05
-1.28284e-06
7.42606e-05
-1.1474e-06
7.47878e-05
-1.01845e-06
7.52514e-05
-8.9592e-07
7.56549e-05
-7.79693e-07
7.60013e-05
-6.69614e-07
7.62938e-05
-5.65502e-07
7.65353e-05
-4.67147e-07
7.67287e-05
-3.74317e-07
7.68767e-05
-2.86757e-07
7.69819e-05
-2.04189e-07
7.70467e-05
-1.26309e-07
7.70734e-05
-5.27856e-08
7.7064e-05
1.6699e-08
7.70205e-05
8.24141e-08
7.69446e-05
1.44633e-07
7.68381e-05
2.03696e-07
7.67023e-05
2.59991e-07
7.65385e-05
3.13944e-07
7.63475e-05
3.66016e-07
7.61302e-05
4.16713e-07
7.58869e-05
4.66599e-07
7.56177e-05
5.16304e-07
7.53224e-05
5.66546e-07
7.50003e-05
6.18151e-07
7.46502e-05
6.72086e-07
7.42704e-05
7.29505e-07
7.38584e-05
7.91803e-07
7.34111e-05
8.60714e-07
7.29239e-05
9.38435e-07
7.23914e-05
1.02782e-06
7.18059e-05
1.1327e-06
7.11575e-05
1.25834e-06
7.04333e-05
1.41222e-06
6.96154e-05
1.60533e-06
6.868e-05
1.85434e-06
6.75943e-05
2.18536e-06
6.63144e-05
2.64037e-06
6.47852e-05
3.28847e-06
6.29531e-05
4.24823e-06
6.08575e-05
5.72844e-06
8.02119e-06
5.95859e-05
1.36617e-05
-1.00273e-06
1.42717e-05
-1.7342e-06
1.5091e-05
-2.31948e-06
1.60841e-05
-2.80517e-06
1.72267e-05
-3.22283e-06
1.85025e-05
-3.59532e-06
1.9902e-05
-3.941e-06
2.14208e-05
-4.27384e-06
2.30577e-05
-4.60276e-06
2.48127e-05
-4.93132e-06
2.66856e-05
-5.25784e-06
2.86736e-05
-5.5762e-06
3.07707e-05
-5.87721e-06
3.2967e-05
-6.1503e-06
3.52489e-05
-6.38521e-06
3.75995e-05
-6.57329e-06
3.99996e-05
-6.70841e-06
4.24289e-05
-6.78731e-06
4.48669e-05
-6.80954e-06
4.72937e-05
-6.77706e-06
4.96908e-05
-6.69375e-06
5.20419e-05
-6.56479e-06
5.43324e-05
-6.39613e-06
5.65505e-05
-6.19403e-06
5.86861e-05
-5.96468e-06
6.07317e-05
-5.71396e-06
6.26816e-05
-5.44728e-06
6.45317e-05
-5.16947e-06
6.62796e-05
-4.88475e-06
6.79241e-05
-4.59677e-06
6.94653e-05
-4.30858e-06
7.09039e-05
-4.02271e-06
7.22416e-05
-3.74124e-06
7.34806e-05
-3.46582e-06
7.46235e-05
-3.19773e-06
7.56734e-05
-2.93798e-06
7.66335e-05
-2.6873e-06
7.75072e-05
-2.44618e-06
7.82981e-05
-2.21497e-06
7.90098e-05
-1.99385e-06
7.9646e-05
-1.78289e-06
8.02102e-05
-1.58204e-06
8.07061e-05
-1.39118e-06
8.11372e-05
-1.21013e-06
8.15068e-05
-1.03864e-06
8.18183e-05
-8.76427e-07
8.20749e-05
-7.23162e-07
8.22796e-05
-5.78479e-07
8.24353e-05
-4.41979e-07
8.25448e-05
-3.13226e-07
8.26107e-05
-1.9175e-07
8.26354e-05
-7.70359e-08
8.26211e-05
3.13994e-08
8.25699e-05
1.33978e-07
8.24837e-05
2.31147e-07
8.23642e-05
3.2344e-07
8.2213e-05
4.1146e-07
8.20313e-05
4.95861e-07
8.18201e-05
5.77347e-07
8.15802e-05
6.56692e-07
8.13122e-05
7.34747e-07
8.10161e-05
8.12464e-07
8.06917e-05
8.90916e-07
8.03385e-05
9.7133e-07
7.99554e-05
1.05513e-06
7.95408e-05
1.14399e-06
7.90925e-05
1.23993e-06
7.86077e-05
1.34538e-06
7.80825e-05
1.46341e-06
7.75122e-05
1.59788e-06
7.68908e-05
1.75381e-06
7.62109e-05
1.93788e-06
7.54637e-05
2.15909e-06
7.46388e-05
2.42988e-06
7.37251e-05
2.76765e-06
7.27132e-05
3.19691e-06
7.16012e-05
3.75195e-06
7.04096e-05
4.47964e-06
6.92174e-05
5.44003e-06
6.8252e-05
6.69342e-06
8.22821e-06
6.80446e-05
1.45979e-05
-1.35144e-06
1.52354e-05
-2.37166e-06
1.6098e-05
-3.18184e-06
1.71481e-05
-3.855e-06
1.83594e-05
-4.43376e-06
1.97143e-05
-4.94989e-06
2.12029e-05
-5.42912e-06
2.28207e-05
-5.89106e-06
2.45668e-05
-6.34834e-06
2.64422e-05
-6.80606e-06
2.8447e-05
-7.26194e-06
3.05788e-05
-7.70738e-06
3.28318e-05
-8.12939e-06
3.51952e-05
-8.51296e-06
3.76542e-05
-8.84346e-06
4.01903e-05
-9.10856e-06
4.27823e-05
-9.29952e-06
4.54075e-05
-9.41166e-06
4.80431e-05
-9.44431e-06
5.06672e-05
-9.40029e-06
5.32594e-05
-9.28506e-06
5.58014e-05
-9.10596e-06
5.82776e-05
-8.87141e-06
6.06747e-05
-8.59019e-06
6.29819e-05
-8.27103e-06
6.5191e-05
-7.92218e-06
6.72958e-05
-7.5512e-06
6.92921e-05
-7.16485e-06
7.11773e-05
-6.76903e-06
7.29502e-05
-6.3688e-06
7.46109e-05
-5.9684e-06
7.61604e-05
-5.57136e-06
7.76005e-05
-5.18053e-06
7.89338e-05
-4.7982e-06
8.0163e-05
-4.42615e-06
8.12916e-05
-4.06575e-06
8.23231e-05
-3.71798e-06
8.32612e-05
-3.38355e-06
8.41099e-05
-3.0629e-06
8.48731e-05
-2.75627e-06
8.55547e-05
-2.46375e-06
8.61586e-05
-2.18526e-06
8.66888e-05
-1.92063e-06
8.71489e-05
-1.66958e-06
8.75427e-05
-1.43178e-06
8.78737e-05
-1.20682e-06
8.81454e-05
-9.94233e-07
8.8361e-05
-7.93509e-07
8.85236e-05
-6.04092e-07
8.86363e-05
-4.25379e-07
8.87018e-05
-2.56718e-07
8.87226e-05
-9.74015e-08
8.87012e-05
5.32237e-08
8.86398e-05
1.95746e-07
8.85404e-05
3.3081e-07
8.8405e-05
4.59167e-07
8.82351e-05
5.81642e-07
8.80321e-05
6.99122e-07
8.7797e-05
8.12561e-07
8.75309e-05
9.22994e-07
8.72341e-05
1.03156e-06
8.69072e-05
1.1395e-06
8.65499e-05
1.24823e-06
8.61618e-05
1.35932e-06
8.57423e-05
1.4746e-06
8.529e-05
1.59616e-06
8.48033e-05
1.72647e-06
8.428e-05
1.86848e-06
8.37175e-05
2.02575e-06
8.31124e-05
2.20265e-06
8.24613e-05
2.40462e-06
8.17604e-05
2.63851e-06
8.10061e-05
2.91299e-06
8.01965e-05
3.2391e-06
7.93331e-05
3.63069e-06
7.84248e-05
4.1048e-06
7.74951e-05
4.68121e-06
7.6594e-05
5.38031e-06
7.58163e-05
6.21727e-06
7.53211e-05
7.18823e-06
8.2384e-06
7.53104e-05
1.55976e-05
-1.70422e-06
1.62601e-05
-3.03407e-06
1.7164e-05
-4.08557e-06
1.82702e-05
-4.96085e-06
1.95504e-05
-5.7136e-06
2.0986e-05
-6.38505e-06
2.25664e-05
-7.00907e-06
2.42876e-05
-7.61166e-06
2.61495e-05
-8.20968e-06
2.81542e-05
-8.81009e-06
3.0303e-05
-9.40995e-06
3.25942e-05
-9.99781e-06
3.50217e-05
-1.05562e-05
3.75744e-05
-1.10648e-05
4.02356e-05
-1.15038e-05
4.29845e-05
-1.18566e-05
4.57971e-05
-1.21112e-05
4.86478e-05
-1.22615e-05
5.15109e-05
-1.23065e-05
5.43617e-05
-1.22501e-05
5.71772e-05
-1.20997e-05
5.99374e-05
-1.18652e-05
6.26246e-05
-1.15577e-05
6.52245e-05
-1.11891e-05
6.77254e-05
-1.0771e-05
7.01183e-05
-1.03141e-05
7.23967e-05
-9.82858e-06
7.4556e-05
-9.32323e-06
7.65937e-05
-8.8058e-06
7.85087e-05
-8.2829e-06
8.03013e-05
-7.76006e-06
8.19728e-05
-7.24187e-06
8.35252e-05
-6.73201e-06
8.49613e-05
-6.23346e-06
8.62845e-05
-5.74849e-06
8.74985e-05
-5.27885e-06
8.86072e-05
-4.82581e-06
8.96148e-05
-4.39026e-06
9.05254e-05
-3.97274e-06
9.13435e-05
-3.57356e-06
9.20733e-05
-3.19278e-06
9.27192e-05
-2.8303e-06
9.32851e-05
-2.48587e-06
9.37754e-05
-2.15913e-06
9.41939e-05
-1.84961e-06
9.45446e-05
-1.55677e-06
9.4831e-05
-1.28e-06
9.50567e-05
-1.01863e-06
9.52251e-05
-7.7193e-07
9.53394e-05
-5.39114e-07
9.54026e-05
-3.1934e-07
9.54173e-05
-1.11702e-07
9.53864e-05
8.46355e-08
9.53121e-05
2.70439e-07
9.51967e-05
4.4658e-07
9.50421e-05
6.1404e-07
9.48502e-05
7.73876e-07
9.46223e-05
9.2721e-07
9.43599e-05
1.07524e-06
9.40638e-05
1.21924e-06
9.37348e-05
1.36062e-06
9.33735e-05
1.50089e-06
9.298e-05
1.64174e-06
9.25542e-05
1.78503e-06
9.20959e-05
1.93287e-06
9.16043e-05
2.08762e-06
9.10786e-05
2.25203e-06
9.05176e-05
2.42925e-06
8.99202e-05
2.62294e-06
8.92851e-05
2.83741e-06
8.86117e-05
3.07775e-06
8.78999e-05
3.34991e-06
8.71517e-05
3.66085e-06
8.63719e-05
4.01849e-06
8.55707e-05
4.43147e-06
8.47666e-05
4.90847e-06
8.39907e-05
5.45668e-06
8.32915e-05
6.07901e-06
8.27389e-05
6.76941e-06
8.2421e-05
7.50573e-06
8.23873e-06
8.24202e-05
1.66662e-05
-2.06087e-06
1.7352e-05
-3.71968e-06
1.8296e-05
-5.02933e-06
1.94575e-05
-6.12206e-06
2.0807e-05
-7.06277e-06
2.23249e-05
-7.90251e-06
2.40006e-05
-8.68418e-06
2.58306e-05
-9.44108e-06
2.78166e-05
-1.0195e-05
2.99625e-05
-1.09552e-05
3.22712e-05
-1.17179e-05
3.47424e-05
-1.24681e-05
3.73699e-05
-1.31829e-05
4.01414e-05
-1.38353e-05
4.30378e-05
-1.43993e-05
4.60351e-05
-1.48529e-05
4.91053e-05
-1.51805e-05
5.22188e-05
-1.53741e-05
5.53462e-05
-1.54328e-05
5.8459e-05
-1.53619e-05
6.15316e-05
-1.51713e-05
6.45413e-05
-1.48738e-05
6.74688e-05
-1.44842e-05
7.02982e-05
-1.40175e-05
7.3017e-05
-1.34887e-05
7.56156e-05
-1.29117e-05
7.80872e-05
-1.22991e-05
8.04272e-05
-1.16622e-05
8.26331e-05
-1.10108e-05
8.47042e-05
-1.0353e-05
8.6641e-05
-9.69586e-06
8.84452e-05
-9.04505e-06
9.01193e-05
-8.40516e-06
9.16667e-05
-7.77982e-06
9.3091e-05
-7.17185e-06
9.43965e-05
-6.58339e-06
9.55876e-05
-6.01596e-06
9.66688e-05
-5.47063e-06
9.7645e-05
-4.94805e-06
9.85209e-05
-4.44853e-06
9.93011e-05
-3.97214e-06
9.99903e-05
-3.5187e-06
0.000100593
-3.08789e-06
0.000101114
-2.67921e-06
0.000101557
-2.29207e-06
0.000101927
-1.92577e-06
0.000102227
-1.57954e-06
0.000102462
-1.25252e-06
0.000102634
-9.43796e-07
0.000102748
-6.52395e-07
0.000102807
-3.77273e-07
0.000102813
-1.17318e-07
0.000102769
1.28496e-07
0.000102679
3.61137e-07
0.000102544
5.81724e-07
0.000102367
7.91485e-07
0.00010215
9.91708e-07
0.000101893
1.18374e-06
0.0001016
1.36901e-06
0.00010127
1.54902e-06
0.000100906
1.72539e-06
0.000100507
1.89986e-06
0.000100074
2.07433e-06
9.96083e-05
2.25084e-06
9.91094e-05
2.43166e-06
9.85776e-05
2.61926e-06
9.80131e-05
2.81642e-06
9.7416e-05
3.02618e-06
9.67867e-05
3.25196e-06
9.61263e-05
3.49751e-06
9.54367e-05
3.76697e-06
9.47215e-05
4.06475e-06
9.39865e-05
4.39546e-06
9.32411e-05
4.76352e-06
9.24994e-05
5.1727e-06
9.17823e-05
5.62516e-06
9.11184e-05
6.12011e-06
9.0545e-05
6.65195e-06
9.01061e-05
7.2078e-06
8.98463e-05
7.76499e-06
8.2891e-06
8.97955e-05
1.78095e-05
-2.42201e-06
1.85177e-05
-4.42766e-06
1.95011e-05
-6.01251e-06
2.07179e-05
-7.33854e-06
2.21377e-05
-8.48219e-06
2.37404e-05
-9.50463e-06
2.55156e-05
-1.04588e-05
2.74617e-05
-1.13866e-05
2.95829e-05
-1.23156e-05
3.18861e-05
-1.32576e-05
3.4377e-05
-1.42079e-05
3.70565e-05
-1.51468e-05
3.99186e-05
-1.6044e-05
4.29485e-05
-1.68644e-05
4.61238e-05
-1.75736e-05
4.94152e-05
-1.81433e-05
5.27896e-05
-1.85538e-05
5.6212e-05
-1.87953e-05
5.96476e-05
-1.88674e-05
6.3064e-05
-1.87773e-05
6.64321e-05
-1.85383e-05
6.97264e-05
-1.81671e-05
7.29259e-05
-1.76825e-05
7.60133e-05
-1.71038e-05
7.89753e-05
-1.64496e-05
8.1802e-05
-1.57373e-05
8.44866e-05
-1.49825e-05
8.70246e-05
-1.41991e-05
8.94139e-05
-1.3399e-05
9.16543e-05
-1.25922e-05
9.37467e-05
-1.17872e-05
9.56935e-05
-1.09908e-05
9.74978e-05
-1.02084e-05
9.91634e-05
-9.44447e-06
0.000100695
-8.70231e-06
0.000102097
-7.98441e-06
0.000103375
-7.29257e-06
0.000104533
-6.62799e-06
0.000105577
-5.99138e-06
0.000106513
-5.38308e-06
0.000107345
-4.8031e-06
0.000108078
-4.25118e-06
0.000108718
-3.72687e-06
0.000109269
-3.22955e-06
0.000109736
-2.75844e-06
0.000110124
-2.31269e-06
0.000110436
-1.89132e-06
0.000110678
-1.49329e-06
0.000110852
-1.11749e-06
0.000110963
-7.62721e-07
0.000111014
-4.27749e-07
0.000111009
-1.11256e-07
0.00011095
1.87998e-07
0.00011084
4.71204e-07
0.000110683
7.39753e-07
0.000110479
9.95118e-07
0.000110233
1.23881e-06
0.000109944
1.47239e-06
0.000109616
1.69749e-06
0.000109249
1.91581e-06
0.000108846
2.12914e-06
0.000108406
2.33938e-06
0.000107932
2.54853e-06
0.000107424
2.75873e-06
0.000106883
2.97226e-06
0.000106311
3.19154e-06
0.000105708
3.41914e-06
0.000105076
3.65779e-06
0.000104418
3.91033e-06
0.000103735
4.17966e-06
0.000103033
4.46868e-06
0.000102318
4.7801e-06
0.000101596
5.1162e-06
0.000100881
5.47847e-06
0.000100186
5.86709e-06
9.95305e-05
6.28026e-06
9.89368e-05
6.71337e-06
9.84301e-05
7.15813e-06
9.80356e-05
7.60176e-06
9.77734e-05
8.02665e-06
8.41147e-06
9.76505e-05
1.90332e-05
-2.78896e-06
1.97638e-05
-5.15814e-06
2.0787e-05
-7.03546e-06
2.20599e-05
-8.61109e-06
2.35518e-05
-9.97366e-06
2.52426e-05
-1.11949e-05
2.71236e-05
-1.23391e-05
2.91959e-05
-1.34582e-05
3.14682e-05
-1.4587e-05
3.39516e-05
-1.57402e-05
3.66556e-05
-1.69111e-05
3.9583e-05
-1.80732e-05
4.27265e-05
-1.91865e-05
4.60677e-05
-2.02046e-05
4.95781e-05
-2.1083e-05
5.32214e-05
-2.17855e-05
5.69567e-05
-2.2288e-05
6.0742e-05
-2.25794e-05
6.45364e-05
-2.26607e-05
6.83026e-05
-2.25424e-05
7.20077e-05
-2.22421e-05
7.56236e-05
-2.17818e-05
7.91275e-05
-2.11852e-05
8.25012e-05
-2.04764e-05
8.5731e-05
-1.96783e-05
8.88071e-05
-1.88122e-05
9.17228e-05
-1.78971e-05
9.44744e-05
-1.69496e-05
9.70605e-05
-1.59839e-05
9.94813e-05
-1.50119e-05
0.000101739
-1.40436e-05
0.000103836
-1.30869e-05
0.000105777
-1.21484e-05
0.000107567
-1.12329e-05
0.00010921
-1.03443e-05
0.000110712
-9.48547e-06
0.000112079
-8.65838e-06
0.000113316
-7.86436e-06
0.00011443
-7.10415e-06
0.000115426
-6.37806e-06
0.00011631
-5.68599e-06
0.000117087
-5.02759e-06
0.000117764
-4.40225e-06
0.000118344
-3.80917e-06
0.000118834
-3.24739e-06
0.000119238
-2.71585e-06
0.000119561
-2.21338e-06
0.000119807
-1.7387e-06
0.000119981
-1.29049e-06
0.000120086
-8.67352e-07
0.000120127
-4.67819e-07
0.000120107
-9.0395e-08
0.000120029
2.66397e-07
0.000119897
6.04014e-07
0.000119713
9.24129e-07
0.00011948
1.22845e-06
0.0001192
1.5187e-06
0.000118876
1.79664e-06
0.00011851
2.06404e-06
0.000118103
2.32278e-06
0.000117658
2.57476e-06
0.000117175
2.82195e-06
0.000116657
3.06641e-06
0.000116106
3.31023e-06
0.000115523
3.55558e-06
0.000114909
3.80469e-06
0.000114268
4.05978e-06
0.000113603
4.32307e-06
0.000112916
4.5967e-06
0.000112213
4.88263e-06
0.000111499
5.18251e-06
0.000110781
5.49752e-06
0.000110069
5.82814e-06
0.000109373
6.17381e-06
0.000108707
6.53266e-06
0.000108086
6.9011e-06
0.000107525
7.27346e-06
0.000107041
7.64183e-06
0.000106646
7.99599e-06
0.000106348
8.32391e-06
8.61318e-06
0.000106146
2.0343e-05
-3.16349e-06
2.10972e-05
-5.91217e-06
2.21615e-05
-8.09948e-06
2.34924e-05
-9.94155e-06
2.50594e-05
-1.15402e-05
2.68436e-05
-1.29785e-05
2.88391e-05
-1.4334e-05
3.10524e-05
-1.56708e-05
3.34984e-05
-1.70322e-05
3.61949e-05
-1.84359e-05
3.9156e-05
-1.98712e-05
4.23856e-05
-2.13018e-05
4.58734e-05
-2.26732e-05
4.95943e-05
-2.39243e-05
5.35102e-05
-2.49978e-05
5.75746e-05
-2.58487e-05
6.17366e-05
-2.64488e-05
6.59453e-05
-2.67869e-05
7.0153e-05
-2.68671e-05
7.43169e-05
-2.67051e-05
7.84007e-05
-2.63246e-05
8.2374e-05
-2.57538e-05
8.62127e-05
-2.50227e-05
8.98985e-05
-2.41608e-05
9.34177e-05
-2.31962e-05
9.67611e-05
-2.21543e-05
9.99229e-05
-2.10576e-05
0.0001029
-1.99258e-05
0.000105693
-1.87754e-05
0.000108303
-1.76202e-05
0.000110732
-1.64716e-05
0.000112985
-1.53389e-05
0.000115067
-1.42292e-05
0.000116984
-1.31482e-05
0.000118741
-1.21001e-05
0.000120345
-1.10882e-05
0.000121802
-1.01144e-05
0.000123119
-9.18026e-06
0.000124302
-8.28642e-06
0.000125358
-7.43311e-06
0.000126294
-6.62013e-06
0.000127114
-5.84694e-06
0.000127825
-5.11275e-06
0.000128434
-4.41655e-06
0.000128945
-3.75717e-06
0.000129363
-3.13331e-06
0.000129694
-2.54355e-06
0.000129942
-1.98642e-06
0.000130113
-1.46033e-06
0.00013021
-9.63662e-07
0.000130238
-4.94731e-07
0.0001302
-5.18919e-08
0.0001301
3.66587e-07
0.000129942
7.62514e-07
0.000129729
1.13783e-06
0.000129464
1.49446e-06
0.000129148
1.83429e-06
0.000128786
2.15925e-06
0.000128379
2.47127e-06
0.00012793
2.7723e-06
0.000127441
3.06431e-06
0.000126913
3.3493e-06
0.000126351
3.62925e-06
0.000125755
3.90617e-06
0.000125128
4.18201e-06
0.000124474
4.45869e-06
0.000123796
4.73802e-06
0.000123097
5.02166e-06
0.000122382
5.31103e-06
0.000121657
5.60723e-06
0.000120929
5.9109e-06
0.000120204
6.22209e-06
0.000119491
6.5401e-06
0.000118801
6.8633e-06
0.000118145
7.18897e-06
0.000117532
7.51317e-06
0.000116974
7.83073e-06
0.00011648
8.1353e-06
0.000116056
8.4196e-06
0.000115703
8.67603e-06
8.89779e-06
0.000115418
2.17452e-05
-3.54773e-06
2.25249e-05
-6.69167e-06
2.36326e-05
-9.20689e-06
2.50245e-05
-1.1333e-05
2.66712e-05
-1.31863e-05
2.85565e-05
-1.48631e-05
3.06798e-05
-1.64567e-05
3.30557e-05
-1.80459e-05
3.57089e-05
-1.96844e-05
3.86657e-05
-2.13918e-05
4.19453e-05
-2.31498e-05
4.55507e-05
-2.4906e-05
4.94645e-05
-2.65859e-05
5.365e-05
-2.81087e-05
5.80553e-05
-2.94019e-05
6.26197e-05
-3.04118e-05
6.72799e-05
-3.11076e-05
7.1975e-05
-3.14807e-05
7.66501e-05
-3.15408e-05
8.12576e-05
-3.13112e-05
8.57581e-05
-3.08237e-05
9.012e-05
-3.01143e-05
9.4319e-05
-2.92203e-05
9.83371e-05
-2.81775e-05
0.000102162
-2.70195e-05
0.000105785
-2.57762e-05
0.000109203
-2.44739e-05
0.000112414
-2.31352e-05
0.000115419
-2.1779e-05
0.000118221
-2.0421e-05
0.000120824
-1.9074e-05
0.000123235
-1.77482e-05
0.000125459
-1.64517e-05
0.000127503
-1.51906e-05
0.000129373
-1.39696e-05
0.000131078
-1.27919e-05
0.000132625
-1.16597e-05
0.00013402
-1.05745e-05
0.000135272
-9.53675e-06
0.000136387
-8.54666e-06
0.000137371
-7.6038e-06
0.000138233
-6.70741e-06
0.000138978
-5.85648e-06
0.000139612
-5.04973e-06
0.000140142
-4.28576e-06
0.000140572
-3.56299e-06
0.000140909
-2.87976e-06
0.000141158
-2.23433e-06
0.000141324
-1.62487e-06
0.00014141
-1.04952e-06
0.000141423
-5.06341e-07
0.000141365
6.37544e-09
0.000141242
4.90633e-07
0.000141056
9.4876e-07
0.000140812
1.38287e-06
0.000140512
1.79504e-06
0.000140159
2.18736e-06
0.000139757
2.56185e-06
0.000139308
2.92055e-06
0.000138815
3.26548e-06
0.000138281
3.59861e-06
0.000137708
3.92189e-06
0.000137101
4.23721e-06
0.00013646
4.54639e-06
0.000135791
4.85114e-06
0.000135097
5.15304e-06
0.000134381
5.45348e-06
0.000133649
5.75359e-06
0.000132906
6.0542e-06
0.000132157
6.35575e-06
0.000131409
6.65818e-06
0.00013067
6.96088e-06
0.000129947
7.26258e-06
0.000129248
7.56131e-06
0.000128583
7.85433e-06
0.000127957
8.13819e-06
0.000127378
8.4088e-06
0.000126852
8.6616e-06
0.000126379
8.89185e-06
0.000125959
9.09507e-06
9.26787e-06
0.000125588
2.32461e-05
-3.94409e-06
2.4054e-05
-7.49938e-06
2.52085e-05
-1.03611e-05
2.6666e-05
-1.279e-05
2.83992e-05
-1.4919e-05
3.03971e-05
-1.68604e-05
3.26681e-05
-1.87268e-05
3.52391e-05
-2.0616e-05
3.81483e-05
-2.25926e-05
4.14329e-05
-2.46753e-05
4.51151e-05
-2.68308e-05
4.91923e-05
-2.8982e-05
5.36338e-05
-3.10262e-05
5.83844e-05
-3.2858e-05
6.33728e-05
-3.43889e-05
6.85207e-05
-3.55584e-05
7.37509e-05
-3.63364e-05
7.89925e-05
-3.67208e-05
8.41838e-05
-3.67307e-05
8.92737e-05
-3.63996e-05
9.42213e-05
-3.57697e-05
9.89949e-05
-3.48865e-05
0.000103571
-3.37952e-05
0.000107934
-3.2539e-05
0.000112073
-3.11569e-05
0.000115982
-2.96836e-05
0.000119659
-2.81492e-05
0.000123104
-2.65791e-05
0.000126321
-2.49946e-05
0.000129315
-2.34131e-05
0.000132091
-2.18487e-05
0.000134657
-2.03124e-05
0.00013702
-1.8813e-05
0.000139187
-1.7357e-05
0.000141169
-1.59493e-05
0.000142971
-1.45932e-05
0.000144604
-1.32909e-05
0.000146074
-1.20437e-05
0.000147391
-1.0852e-05
0.000148561
-9.71569e-06
0.000149593
-8.63413e-06
0.000150493
-7.6063e-06
0.000151269
-6.63088e-06
0.000151926
-5.70633e-06
0.000152473
-4.83093e-06
0.000152913
-4.00283e-06
0.000153255
-3.22009e-06
0.000153502
-2.4807e-06
0.000153661
-1.78257e-06
0.000153736
-1.12361e-06
0.000153732
-5.01696e-07
0.000153654
8.52761e-08
0.000153506
6.39572e-07
0.000153291
1.16367e-06
0.000153015
1.65996e-06
0.00015268
2.13073e-06
0.000152289
2.57818e-06
0.000151847
3.00445e-06
0.000151357
3.41164e-06
0.000150821
3.80178e-06
0.000150243
4.17681e-06
0.000149626
4.53862e-06
0.000148975
4.88894e-06
0.000148292
5.22942e-06
0.000147581
5.5615e-06
0.000146848
5.88646e-06
0.000146096
6.20532e-06
0.00014533
6.51881e-06
0.000144557
6.82735e-06
0.000143781
7.13095e-06
0.00014301
7.42921e-06
0.000142249
7.72124e-06
0.000141506
8.0057e-06
0.000140786
8.28075e-06
0.000140096
8.54411e-06
0.00013944
8.79314e-06
0.000138823
9.02495e-06
0.000138248
9.23659e-06
0.000137714
9.42524e-06
0.00013722
9.58852e-06
9.72507e-06
0.000136762
2.48525e-05
-4.35519e-06
2.56922e-05
-8.33889e-06
2.68981e-05
-1.15666e-05
2.84275e-05
-1.43189e-05
3.02575e-05
-1.67484e-05
3.23855e-05
-1.89876e-05
3.48341e-05
-2.11746e-05
3.76487e-05
-2.34296e-05
4.08852e-05
-2.5828e-05
4.4591e-05
-2.838e-05
4.87871e-05
-3.10257e-05
5.34564e-05
-3.36501e-05
5.8545e-05
-3.61135e-05
6.39715e-05
-3.8283e-05
6.964e-05
-4.00559e-05
7.54526e-05
-4.13695e-05
8.13181e-05
-4.22004e-05
8.71568e-05
-4.2558e-05
9.29025e-05
-4.24748e-05
9.85024e-05
-4.19979e-05
0.000103916
-4.11818e-05
0.000109114
-4.00825e-05
0.000114074
-3.87544e-05
0.000118785
-3.72478e-05
0.000123238
-3.56078e-05
0.000127429
-3.38736e-05
0.000131361
-3.20789e-05
0.000135035
-3.02519e-05
0.000138458
-2.84158e-05
0.000141636
-2.65897e-05
0.000144577
-2.47885e-05
0.000147291
-2.30243e-05
0.000149785
-2.1306e-05
0.00015207
-1.96405e-05
0.000154155
-1.80327e-05
0.00015605
-1.64859e-05
0.000157762
-1.50021e-05
0.000159303
-1.35825e-05
0.000160679
-1.22271e-05
0.0001619
-1.09356e-05
0.000162975
-9.70697e-06
0.000163909
-8.53987e-06
0.000164713
-7.43266e-06
0.000165391
-6.38345e-06
0.000165951
-5.39021e-06
0.0001664
-4.45075e-06
0.000166744
-3.56285e-06
0.000166989
-2.72418e-06
0.00016714
-1.93241e-06
0.000167202
-1.1852e-06
0.000167182
-4.80201e-07
0.000167083
1.85028e-07
0.00016691
8.13056e-07
0.000166668
1.40657e-06
0.000166361
1.96815e-06
0.000165992
2.50024e-06
0.000165565
3.00515e-06
0.000165085
3.48512e-06
0.000164555
3.94228e-06
0.000163978
4.37864e-06
0.000163359
4.79612e-06
0.000162702
5.19648e-06
0.000162009
5.58136e-06
0.000161287
5.95219e-06
0.000160538
6.31023e-06
0.000159768
6.65652e-06
0.000158981
6.99181e-06
0.000158183
7.31659e-06
0.00015738
7.63105e-06
0.000156575
7.93504e-06
0.000155776
8.22808e-06
0.000154988
8.50933e-06
0.000154215
8.77765e-06
0.000153464
9.03163e-06
0.000152738
9.26964e-06
0.000152041
9.48989e-06
0.000151374
9.69062e-06
0.00015074
9.87012e-06
0.000150138
1.0027e-05
0.000149566
1.01602e-05
1.02695e-05
0.000149021
2.65714e-05
-4.7839e-06
2.74475e-05
-9.21478e-06
2.87109e-05
-1.28296e-05
3.03215e-05
-1.5929e-05
3.22633e-05
-1.86895e-05
3.4548e-05
-2.12715e-05
3.722e-05
-2.38457e-05
4.03502e-05
-2.65587e-05
4.40148e-05
-2.94915e-05
4.82679e-05
-3.26319e-05
5.3118e-05
-3.58744e-05
5.85206e-05
-3.90513e-05
6.4387e-05
-4.19784e-05
7.06018e-05
-4.44963e-05
7.70418e-05
-4.64943e-05
8.35895e-05
-4.79156e-05
9.0142e-05
-4.87512e-05
9.66136e-05
-4.90279e-05
0.000102937
-4.87961e-05
0.000109059
-4.8119e-05
0.000114944
-4.70649e-05
0.000120565
-4.57016e-05
0.000125905
-4.40927e-05
0.000130955
-4.22959e-05
0.000135711
-4.03619e-05
0.000140174
-3.83344e-05
0.000144347
-3.62503e-05
0.000148237
-3.41402e-05
0.000151852
-3.20292e-05
0.000155201
-2.99374e-05
0.000158295
-2.78807e-05
0.000161144
-2.58714e-05
0.000163759
-2.39189e-05
0.00016615
-2.203e-05
0.000168328
-2.02094e-05
0.000170305
-1.84604e-05
0.000172089
-1.67847e-05
0.000173691
-1.51829e-05
0.00017512
-1.36549e-05
0.000176386
-1.22e-05
0.000177497
-1.08166e-05
0.000178462
-9.50318e-06
0.000179288
-8.25757e-06
0.000179984
-7.07755e-06
0.000180555
-5.9607e-06
0.00018101
-4.9045e-06
0.000181355
-3.90638e-06
0.000181596
-2.96372e-06
0.000181738
-2.0739e-06
0.000181789
-1.23432e-06
0.000181752
-4.4241e-07
0.000181633
3.04614e-07
0.000181438
1.00962e-06
0.000181169
1.67549e-06
0.000180833
2.30499e-06
0.000180434
2.90066e-06
0.000179975
3.46495e-06
0.00017946
4.00012e-06
0.000178895
4.50835e-06
0.000178282
4.99164e-06
0.000177627
5.45185e-06
0.000176933
5.89068e-06
0.000176205
6.30964e-06
0.000175447
6.71006e-06
0.000174664
7.09304e-06
0.000173861
7.45947e-06
0.000173043
7.81001e-06
0.000172214
8.14502e-06
0.000171381
8.46467e-06
0.000170547
8.76882e-06
0.000169717
9.05712e-06
0.000168897
9.32898e-06
0.000168091
9.58366e-06
0.000167302
9.82025e-06
0.000166533
1.00378e-05
0.000165787
1.02353e-05
0.000165065
1.04119e-05
0.000164368
1.05669e-05
0.000163695
1.06997e-05
0.000163044
1.08103e-05
1.08993e-05
0.000162414
2.84105e-05
-5.23349e-06
2.93288e-05
-1.01328e-05
3.0658e-05
-1.41583e-05
3.23629e-05
-1.76333e-05
3.44394e-05
-2.07652e-05
3.69218e-05
-2.3753e-05
3.98864e-05
-2.68093e-05
4.34364e-05
-3.01076e-05
4.76676e-05
-3.37214e-05
5.2629e-05
-3.75918e-05
5.82992e-05
-4.15432e-05
6.45893e-05
-4.53399e-05
7.13643e-05
-4.87517e-05
7.84704e-05
-5.16007e-05
8.57573e-05
-5.37795e-05
9.30917e-05
-5.52482e-05
0.000100363
-5.60207e-05
0.000107484
-5.61471e-05
0.000114389
-5.56992e-05
0.000121031
-5.47586e-05
0.000127376
-5.34086e-05
0.000133406
-5.17288e-05
0.000139107
-4.9792e-05
0.000144476
-4.7663e-05
0.000149514
-4.53979e-05
0.000154226
-4.30442e-05
0.000158619
-4.06416e-05
0.000162703
-3.82228e-05
0.00016649
-3.58141e-05
0.000169991
-3.34364e-05
0.000173219
-3.11062e-05
0.000176185
-2.8836e-05
0.000178903
-2.6635e-05
0.000181385
-2.45099e-05
0.000183642
-2.24652e-05
0.000185688
-2.05036e-05
0.000187531
-1.86265e-05
0.000189184
-1.68341e-05
0.000190657
-1.51258e-05
0.000191959
-1.35003e-05
0.000193099
-1.19557e-05
0.000194088
-1.04899e-05
0.000194932
-9.10029e-06
0.00019564
-7.78426e-06
0.00019622
-6.53897e-06
0.000196678
-5.36153e-06
0.000197022
-4.249e-06
0.000197258
-3.19844e-06
0.000197393
-2.20693e-06
0.000197431
-1.27161e-06
0.000197379
-3.89652e-07
0.000197243
4.42043e-07
0.000197027
1.22663e-06
0.000196736
1.96719e-06
0.000196375
2.66661e-06
0.000195949
3.32758e-06
0.000195462
3.95261e-06
0.000194919
4.54403e-06
0.000194324
5.10404e-06
0.000193681
5.63464e-06
0.000192996
6.13767e-06
0.000192272
6.61478e-06
0.000191515
7.06744e-06
0.000190728
7.49689e-06
0.000189917
7.9042e-06
0.000189086
8.29022e-06
0.000188241
8.65559e-06
0.000187385
9.00073e-06
0.000186524
9.32588e-06
0.000185661
9.6311e-06
0.000184802
9.91628e-06
0.000183949
1.01812e-05
0.000183107
1.04255e-05
0.000182278
1.06489e-05
0.000181465
1.08509e-05
0.000180668
1.10314e-05
0.000179889
1.119e-05
0.000179129
1.13269e-05
0.000178386
1.1442e-05
0.00017766
1.1536e-05
1.16097e-05
0.000176949
3.0378e-05
-5.70774e-06
3.13458e-05
-1.11003e-05
3.27523e-05
-1.55643e-05
3.45708e-05
-1.94512e-05
3.68171e-05
-2.30107e-05
3.956e-05
-2.6495e-05
4.29197e-05
-3.01679e-05
4.70364e-05
-3.4223e-05
5.20152e-05
-3.86988e-05
5.78782e-05
-4.34534e-05
6.45505e-05
-4.82138e-05
7.18811e-05
-5.26688e-05
7.96818e-05
-5.65506e-05
8.77608e-05
-5.96779e-05
9.59458e-05
-6.19626e-05
0.000104094
-6.3394e-05
0.000112092
-6.40168e-05
0.000119856
-6.39097e-05
0.000127328
-6.31685e-05
0.000134465
-6.18943e-05
0.000141245
-6.01857e-05
0.000147652
-5.81339e-05
0.000153683
-5.58205e-05
0.000159338
-5.33167e-05
0.000164626
-5.06832e-05
0.000169555
-4.79708e-05
0.000174137
-4.52216e-05
0.000178386
-4.24695e-05
0.000182315
-3.97417e-05
0.000185941
-3.70597e-05
0.000189276
-3.44398e-05
0.000192337
-3.18943e-05
0.000195136
-2.94324e-05
0.000197688
-2.70601e-05
0.000200007
-2.47815e-05
0.000202104
-2.25987e-05
0.000203991
-2.05125e-05
0.000205682
-1.85226e-05
0.000207185
-1.66277e-05
0.000208513
-1.4826e-05
0.000209674
-1.3115e-05
0.000210678
-1.14921e-05
0.000211533
-9.95424e-06
0.000212249
-8.49826e-06
0.000212833
-7.1209e-06
0.000213292
-5.81886e-06
0.000213633
-4.58883e-06
0.000213863
-3.4275e-06
0.000213989
-2.33167e-06
0.000214017
-1.29817e-06
0.000213953
-3.23916e-07
0.000213802
5.94486e-07
0.000213569
1.46045e-06
0.00021326
2.27726e-06
0.000212879
3.04793e-06
0.000212433
3.77524e-06
0.000211924
4.46179e-06
0.000211359
5.10999e-06
0.000210742
5.72208e-06
0.000210077
6.30007e-06
0.000209369
6.84582e-06
0.000208624
7.36099e-06
0.000207844
7.84703e-06
0.000207036
8.30523e-06
0.000206204
8.73667e-06
0.000205352
9.14226e-06