/*--------------------------------*- C++ -*----------------------------------*\
  =========                 |
  \\      /  F ield         | OpenFOAM: The Open Source CFD Toolbox
   \\    /   O peration     | Website:  https://openfoam.org
    \\  /    A nd           | Version:  7
     \\/     M anipulation  |
\*---------------------------------------------------------------------------*/
FoamFile
{
    version     2.0;
    format      ascii;
    class       volVectorField;
    location    "7.15";
    object      U;
}
// * * * * * * * * * * * * * * * * * * * * * * * * * * * * * * * * * * * * * //

dimensions      [0 1 -1 0 0 0 0];

internalField   nonuniform List<vector> 
12013
(
(0.100869 -0.000234214 0)
(0.104275 -0.00041056 0)
(0.10949 -0.00056488 0)
(0.116017 -0.000701926 0)
(0.123706 -0.000827075 0)
(0.132418 -0.000944213 0)
(0.142045 -0.00105639 0)
(0.152515 -0.00116602 0)
(0.163775 -0.00127477 0)
(0.175788 -0.00138348 0)
(0.18852 -0.00149212 0)
(0.201935 -0.00159985 0)
(0.215987 -0.00170514 0)
(0.230617 -0.001806 0)
(0.245753 -0.00190024 0)
(0.261307 -0.00198571 0)
(0.277181 -0.00206052 0)
(0.293268 -0.00212316 0)
(0.309459 -0.00217259 0)
(0.325644 -0.00220827 0)
(0.341719 -0.00223012 0)
(0.357585 -0.00223845 0)
(0.373152 -0.00223387 0)
(0.388344 -0.00221726 0)
(0.403091 -0.00218963 0)
(0.417339 -0.00215209 0)
(0.431042 -0.00210578 0)
(0.444166 -0.00205185 0)
(0.456685 -0.00199138 0)
(0.468583 -0.0019254 0)
(0.479849 -0.00185486 0)
(0.490481 -0.00178063 0)
(0.500483 -0.00170349 0)
(0.50986 -0.00162414 0)
(0.518625 -0.00154318 0)
(0.526792 -0.00146118 0)
(0.534379 -0.0013786 0)
(0.541403 -0.00129582 0)
(0.547887 -0.00121322 0)
(0.553853 -0.0011311 0)
(0.559323 -0.00104971 0)
(0.564321 -0.000969236 0)
(0.568872 -0.000889871 0)
(0.572999 -0.000811768 0)
(0.576728 -0.000735025 0)
(0.580083 -0.000659707 0)
(0.583088 -0.000585863 0)
(0.585768 -0.000513518 0)
(0.588146 -0.000442656 0)
(0.590245 -0.000373223 0)
(0.592089 -0.000305134 0)
(0.5937 -0.000238267 0)
(0.5951 -0.000172457 0)
(0.59631 -0.000107481 0)
(0.59735 -4.30576e-05 0)
(0.59824 2.11208e-05 0)
(0.598999 8.54022e-05 0)
(0.599646 0.000150205 0)
(0.600196 0.000216075 0)
(0.600666 0.000283689 0)
(0.60107 0.000353875 0)
(0.601422 0.000427638 0)
(0.601733 0.000506211 0)
(0.60201 0.000591117 0)
(0.602259 0.000684248 0)
(0.602484 0.000787989 0)
(0.602681 0.000905386 0)
(0.602842 0.00104039 0)
(0.602952 0.00119824 0)
(0.602984 0.00138603 0)
(0.6029 0.00161367 0)
(0.602637 0.00189544 0)
(0.602106 0.00225268 0)
(0.60117 0.00271873 0)
(0.599616 0.00334824 0)
(0.597108 0.00423571 0)
(0.59309 0.00555455 0)
(0.586579 0.00764944 0)
(0.575808 0.0113352 0)
(0.557665 0.0195188 0)
(0.539445 0.0522761 0)
(0.100792 -0.00071363 0)
(0.10418 -0.00125671 0)
(0.109367 -0.00172941 0)
(0.115872 -0.0021485 0)
(0.123541 -0.00253097 0)
(0.132235 -0.00288868 0)
(0.141846 -0.00323101 0)
(0.152301 -0.00356539 0)
(0.16355 -0.00389694 0)
(0.175553 -0.00422824 0)
(0.188279 -0.00455923 0)
(0.201692 -0.00488732 0)
(0.215746 -0.00520789 0)
(0.230384 -0.00551488 0)
(0.245532 -0.00580165 0)
(0.261104 -0.00606167 0)
(0.277 -0.00628921 0)
(0.293114 -0.0064797 0)
(0.309336 -0.00663006 0)
(0.325554 -0.00673862 0)
(0.341664 -0.00680517 0)
(0.357566 -0.00683063 0)
(0.37317 -0.00681691 0)
(0.388397 -0.00676664 0)
(0.40318 -0.0066829 0)
(0.417462 -0.00656904 0)
(0.431198 -0.00642853 0)
(0.444352 -0.00626479 0)
(0.4569 -0.00608112 0)
(0.468824 -0.00588063 0)
(0.480114 -0.0056662 0)
(0.490769 -0.00544045 0)
(0.50079 -0.00520574 0)
(0.510186 -0.0049642 0)
(0.518967 -0.00471768 0)
(0.527148 -0.00446781 0)
(0.534746 -0.00421604 0)
(0.541781 -0.00396361 0)
(0.548273 -0.00371158 0)
(0.554245 -0.00346086 0)
(0.55972 -0.00321221 0)
(0.564721 -0.0029663 0)
(0.569273 -0.00272365 0)
(0.5734 -0.0024847 0)
(0.577126 -0.00224975 0)
(0.580477 -0.00201906 0)
(0.583476 -0.00179278 0)
(0.586148 -0.00157094 0)
(0.588516 -0.00135351 0)
(0.590604 -0.00114032 0)
(0.592434 -0.00093114 0)
(0.594029 -0.000725578 0)
(0.59541 -0.00052312 0)
(0.596599 -0.000323085 0)
(0.597616 -0.000124616 0)
(0.59848 7.32206e-05 0)
(0.59921 0.00027144 0)
(0.599825 0.000471306 0)
(0.60034 0.000674474 0)
(0.600772 0.000883006 0)
(0.601135 0.00109941 0)
(0.601442 0.00132674 0)
(0.601704 0.00156873 0)
(0.60193 0.00182997 0)
(0.602126 0.00211615 0)
(0.602295 0.00243441 0)
(0.602434 0.00279384 0)
(0.602539 0.00320612 0)
(0.602595 0.00368668 0)
(0.60258 0.00425622 0)
(0.602462 0.00494327 0)
(0.602191 0.00578837 0)
(0.601694 0.00685094 0)
(0.600867 0.00822137 0)
(0.599562 0.0100427 0)
(0.597565 0.0125508 0)
(0.594573 0.0161515 0)
(0.59016 0.0215728 0)
(0.583781 0.0301984 0)
(0.575342 0.0447301 0)
(0.572737 0.0702388 0)
(0.100706 -0.0012091 0)
(0.104043 -0.00215298 0)
(0.109172 -0.00296778 0)
(0.115628 -0.00368977 0)
(0.123255 -0.00434855 0)
(0.13191 -0.00496456 0)
(0.141487 -0.00555406 0)
(0.151913 -0.00612998 0)
(0.163137 -0.0067012 0)
(0.175122 -0.00727225 0)
(0.187837 -0.00784305 0)
(0.201247 -0.00840921 0)
(0.215308 -0.0089627 0)
(0.229964 -0.00949307 0)
(0.245141 -0.00998877 0)
(0.260752 -0.0104385 0)
(0.276698 -0.0108322 0)
(0.292869 -0.0111621 0)
(0.309155 -0.0114226 0)
(0.325443 -0.0116109 0)
(0.341626 -0.0117267 0)
(0.357603 -0.0117714 0)
(0.373283 -0.0117485 0)
(0.388585 -0.0116623 0)
(0.40344 -0.0115183 0)
(0.417792 -0.0113223 0)
(0.431594 -0.0110802 0)
(0.444811 -0.0107979 0)
(0.457417 -0.0104813 0)
(0.469395 -0.0101355 0)
(0.480735 -0.00976571 0)
(0.491435 -0.00937636 0)
(0.501497 -0.00897152 0)
(0.510928 -0.00855486 0)
(0.519742 -0.00812958 0)
(0.527951 -0.00769853 0)
(0.535573 -0.00726416 0)
(0.542629 -0.0068286 0)
(0.549138 -0.00639369 0)
(0.555123 -0.00596099 0)
(0.560608 -0.00553184 0)
(0.565616 -0.00510735 0)
(0.570172 -0.0046884 0)
(0.574299 -0.00427573 0)
(0.578023 -0.0038699 0)
(0.581368 -0.00347131 0)
(0.584358 -0.00308019 0)
(0.587017 -0.00269661 0)
(0.589369 -0.00232048 0)
(0.591437 -0.00195154 0)
(0.593244 -0.00158934 0)
(0.594812 -0.0012332 0)
(0.596163 -0.000882222 0)
(0.597318 -0.000535236 0)
(0.598296 -0.000190764 0)
(0.599117 0.000152789 0)
(0.599799 0.000497162 0)
(0.600361 0.000844554 0)
(0.600819 0.00119781 0)
(0.601189 0.00156044 0)
(0.601486 0.00193668 0)
(0.601722 0.00233169 0)
(0.601908 0.00275173 0)
(0.602054 0.00320445 0)
(0.602166 0.0036993 0)
(0.602249 0.00424803 0)
(0.602303 0.00486545 0)
(0.602325 0.00557045 0)
(0.602307 0.00638757 0)
(0.602233 0.00734923 0)
(0.602082 0.00849919 0)
(0.601822 0.00989783 0)
(0.601411 0.0116305 0)
(0.600796 0.0138211 0)
(0.599913 0.0166535 0)
(0.598702 0.0204071 0)
(0.597134 0.0255137 0)
(0.595287 0.0326461 0)
(0.593535 0.0428603 0)
(0.592991 0.0577286 0)
(0.597523 0.0786377 0)
(0.100614 -0.0017144 0)
(0.103883 -0.00309506 0)
(0.108927 -0.00427746 0)
(0.115309 -0.00532569 0)
(0.12287 -0.00628186 0)
(0.131468 -0.00717574 0)
(0.140994 -0.00803124 0)
(0.151376 -0.0088673 0)
(0.162564 -0.00969702 0)
(0.174523 -0.0105271 0)
(0.187225 -0.0113577 0)
(0.200636 -0.0121822 0)
(0.214714 -0.0129891 0)
(0.229405 -0.013763 0)
(0.244634 -0.0144868 0)
(0.260315 -0.015144 0)
(0.276346 -0.0157198 0)
(0.292617 -0.0162024 0)
(0.309012 -0.016584 0)
(0.325417 -0.0168601 0)
(0.341721 -0.0170302 0)
(0.357822 -0.0170966 0)
(0.373624 -0.0170641 0)
(0.389047 -0.0169393 0)
(0.404018 -0.0167302 0)
(0.418481 -0.0164451 0)
(0.432388 -0.0160928 0)
(0.445702 -0.0156821 0)
(0.458398 -0.0152213 0)
(0.470459 -0.0147182 0)
(0.481875 -0.01418 0)
(0.492643 -0.0136135 0)
(0.502767 -0.0130245 0)
(0.512253 -0.0124183 0)
(0.521115 -0.0117996 0)
(0.529366 -0.0111726 0)
(0.537024 -0.0105407 0)
(0.54411 -0.00990716 0)
(0.550644 -0.00927454 0)
(0.556649 -0.00864513 0)
(0.562149 -0.00802081 0)
(0.567167 -0.00740317 0)
(0.571728 -0.00679352 0)
(0.575857 -0.00619289 0)
(0.579577 -0.00560207 0)
(0.582914 -0.0050216 0)
(0.585892 -0.00445178 0)
(0.588535 -0.00389272 0)
(0.590866 -0.00334426 0)
(0.592908 -0.00280599 0)
(0.594685 -0.00227723 0)
(0.596218 -0.00175698 0)
(0.597529 -0.00124394 0)
(0.598639 -0.000736402 0)
(0.599567 -0.000232233 0)
(0.600333 0.000270841 0)
(0.600955 0.000775307 0)
(0.601451 0.00128437 0)
(0.601839 0.0018021 0)
(0.602133 0.00233347 0)
(0.602348 0.00288446 0)
(0.602498 0.00346225 0)
(0.602594 0.00407552 0)
(0.602647 0.00473481 0)
(0.602664 0.00545298 0)
(0.602652 0.00624586 0)
(0.602615 0.00713312 0)
(0.602554 0.0081395 0)
(0.602466 0.00929641 0)
(0.602349 0.0106444 0)
(0.602194 0.0122365 0)
(0.601993 0.014143 0)
(0.601736 0.0164586 0)
(0.601423 0.0193115 0)
(0.601067 0.0228776 0)
(0.600722 0.0273963 0)
(0.60052 0.0331887 0)
(0.600743 0.0406668 0)
(0.601932 0.0503081 0)
(0.605025 0.0625116 0)
(0.611642 0.0770199 0)
(0.10052 -0.00222854 0)
(0.103714 -0.0040797 0)
(0.108652 -0.0056564 0)
(0.114938 -0.00705585 0)
(0.122415 -0.00833223 0)
(0.130937 -0.00952528 0)
(0.140397 -0.0106673 0)
(0.150722 -0.0117841 0)
(0.161866 -0.0128933 0)
(0.173796 -0.0140044 0)
(0.186486 -0.0151175 0)
(0.199909 -0.0162241 0)
(0.214023 -0.0173085 0)
(0.228776 -0.0183498 0)
(0.244095 -0.0193249 0)
(0.25989 -0.0202109 0)
(0.276057 -0.0209877 0)
(0.292482 -0.0216393 0)
(0.309046 -0.0221546 0)
(0.325629 -0.022528 0)
(0.342116 -0.0227583 0)
(0.358399 -0.0228489 0)
(0.374381 -0.0228063 0)
(0.389977 -0.0226396 0)
(0.405115 -0.0223593 0)
(0.419734 -0.021977 0)
(0.433787 -0.0215045 0)
(0.447236 -0.0209537 0)
(0.460057 -0.0203357 0)
(0.47223 -0.0196612 0)
(0.483747 -0.0189399 0)
(0.494606 -0.0181806 0)
(0.50481 -0.0173914 0)
(0.514368 -0.0165794 0)
(0.523291 -0.0157508 0)
(0.531595 -0.0149112 0)
(0.539299 -0.0140651 0)
(0.546422 -0.0132169 0)
(0.552987 -0.0123699 0)
(0.559016 -0.0115272 0)
(0.564533 -0.0106913 0)
(0.569562 -0.0098643 0)
(0.574129 -0.00904785 0)
(0.578257 -0.00824331 0)
(0.581971 -0.00745168 0)
(0.585297 -0.00667366 0)
(0.588258 -0.00590964 0)
(0.590879 -0.00515969 0)
(0.593183 -0.00442358 0)
(0.595193 -0.00370072 0)
(0.596932 -0.00299018 0)
(0.598422 -0.00229065 0)
(0.599685 -0.00160035 0)
(0.60074 -0.000917022 0)
(0.601609 -0.00023789 0)
(0.60231 0.000440001 0)
(0.602862 0.0011199 0)
(0.603284 0.00180607 0)
(0.603591 0.00250381 0)
(0.603799 0.00321951 0)
(0.603925 0.00396075 0)
(0.603981 0.0047366 0)
(0.603981 0.00555788 0)
(0.603935 0.00643759 0)
(0.603855 0.00739139 0)
(0.603749 0.00843824 0)
(0.603626 0.00960132 0)
(0.603492 0.0109091 0)
(0.603353 0.0123967 0)
(0.603216 0.0141082 0)
(0.60309 0.0160987 0)
(0.602986 0.0184379 0)
(0.602926 0.0212135 0)
(0.602946 0.0245361 0)
(0.60311 0.0285419 0)
(0.603528 0.033394 0)
(0.604377 0.0392751 0)
(0.605939 0.0463622 0)
(0.608631 0.0547674 0)
(0.61301 0.0644135 0)
(0.619732 0.0748056 0)
(0.100425 -0.00275148 0)
(0.103544 -0.00510462 0)
(0.108365 -0.00710332 0)
(0.11454 -0.00888036 0)
(0.121916 -0.0105017 0)
(0.130348 -0.0120172 0)
(0.139729 -0.0134686 0)
(0.149989 -0.014889 0)
(0.161084 -0.0163019 0)
(0.172988 -0.0177195 0)
(0.185678 -0.0191424 0)
(0.199132 -0.0205598 0)
(0.213315 -0.0219513 0)
(0.228173 -0.0232895 0)
(0.243635 -0.0245442 0)
(0.259607 -0.0256854 0)
(0.27598 -0.0266865 0)
(0.292634 -0.0275265 0)
(0.309443 -0.028191 0)
(0.32628 -0.0286724 0)
(0.343023 -0.0289695 0)
(0.35956 -0.0290867 0)
(0.375788 -0.0290325 0)
(0.391619 -0.0288187 0)
(0.406977 -0.0284594 0)
(0.421802 -0.0279694 0)
(0.436043 -0.0273641 0)
(0.449665 -0.0266588 0)
(0.462641 -0.025868 0)
(0.474954 -0.0250052 0)
(0.486596 -0.0240831 0)
(0.497565 -0.0231129 0)
(0.507865 -0.0221049 0)
(0.517506 -0.0210681 0)
(0.5265 -0.0200105 0)
(0.534865 -0.018939 0)
(0.542619 -0.0178597 0)
(0.549783 -0.0167778 0)
(0.556379 -0.0156976 0)
(0.562431 -0.0146229 0)
(0.567964 -0.0135569 0)
(0.573002 -0.0125022 0)
(0.577569 -0.0114608 0)
(0.581692 -0.0104344 0)
(0.585396 -0.00942428 0)
(0.588704 -0.0084312 0)
(0.591642 -0.00745561 0)
(0.594233 -0.00649756 0)
(0.596502 -0.0055567 0)
(0.598472 -0.00463228 0)
(0.600165 -0.00372308 0)
(0.601603 -0.00282742 0)
(0.602808 -0.00194307 0)
(0.6038 -0.0010672 0)
(0.6046 -0.000196468 0)
(0.605228 0.000672744 0)
(0.605701 0.00154451 0)
(0.606039 0.00242414 0)
(0.606258 0.00331809 0)
(0.606374 0.00423401 0)
(0.606405 0.00518092 0)
(0.606363 0.00616943 0)
(0.606263 0.00721207 0)
(0.606119 0.00832368 0)
(0.605944 0.00952179 0)
(0.60575 0.0108273 0)
(0.605549 0.0122649 0)
(0.605354 0.0138645 0)
(0.60518 0.0156616 0)
(0.605043 0.0176986 0)
(0.604966 0.0200265 0)
(0.604975 0.0227056 0)
(0.605113 0.0258066 0)
(0.605436 0.0294099 0)
(0.606028 0.0336037 0)
(0.607006 0.0384761 0)
(0.60853 0.0441013 0)
(0.610814 0.050514 0)
(0.614116 0.0576678 0)
(0.618717 0.0653771 0)
(0.624843 0.0732518 0)
(0.100328 -0.00328399 0)
(0.10338 -0.00616886 0)
(0.108081 -0.00861806 0)
(0.114135 -0.0108002 0)
(0.121399 -0.012793 0)
(0.129731 -0.0146566 0)
(0.139026 -0.0164427 0)
(0.149217 -0.0181932 0)
(0.160266 -0.0199377 0)
(0.172153 -0.0216924 0)
(0.184866 -0.0234583 0)
(0.198387 -0.0252221 0)
(0.212687 -0.0269576 0)
(0.227714 -0.0286297 0)
(0.243394 -0.0301996 0)
(0.259629 -0.0316284 0)
(0.276301 -0.0328822 0)
(0.293281 -0.0339338 0)
(0.31043 -0.0347649 0)
(0.327613 -0.035366 0)
(0.3447 -0.035736 0)
(0.361569 -0.0358805 0)
(0.378115 -0.0358109 0)
(0.394244 -0.0355423 0)
(0.409878 -0.0350926 0)
(0.424956 -0.0344808 0)
(0.439426 -0.0337265 0)
(0.453254 -0.0328485 0)
(0.466413 -0.0318653 0)
(0.478887 -0.0307938 0)
(0.49067 -0.0296496 0)
(0.501761 -0.0284468 0)
(0.512166 -0.027198 0)
(0.521896 -0.0259143 0)
(0.530965 -0.0246056 0)
(0.539391 -0.0232804 0)
(0.547193 -0.0219459 0)
(0.554395 -0.0206086 0)
(0.561019 -0.0192739 0)
(0.56709 -0.0179462 0)
(0.572632 -0.0166293 0)
(0.577671 -0.0153263 0)
(0.582233 -0.0140398 0)
(0.586342 -0.0127717 0)
(0.590026 -0.0115233 0)
(0.593307 -0.0102957 0)
(0.596212 -0.00908929 0)
(0.598765 -0.00790409 0)
(0.600989 -0.00673962 0)
(0.602908 -0.00559493 0)
(0.604545 -0.00446851 0)
(0.605921 -0.00335831 0)
(0.607059 -0.00226162 0)
(0.607979 -0.00117506 0)
(0.6087 -9.49302e-05 0)
(0.609246 0.000983056 0)
(0.609633 0.00206393 0)
(0.60988 0.00315395 0)
(0.610005 0.00426057 0)
(0.610024 0.00539248 0)
(0.609954 0.0065598 0)
(0.609812 0.00777427 0)
(0.609613 0.00904954 0)
(0.609372 0.0104015 0)
(0.609105 0.0118484 0)
(0.608828 0.0134115 0)
(0.608557 0.0151157 0)
(0.608312 0.0169891 0)
(0.608112 0.0190647 0)
(0.607983 0.0213796 0)
(0.607955 0.0239758 0)
(0.608065 0.0268995 0)
(0.608364 0.0301999 0)
(0.608914 0.0339267 0)
(0.609794 0.0381248 0)
(0.611106 0.0428266 0)
(0.612968 0.0480398 0)
(0.615517 0.0537311 0)
(0.618892 0.0598058 0)
(0.623209 0.0660885 0)
(0.62851 0.0723162 0)
(0.100229 -0.00382778 0)
(0.103225 -0.00727281 0)
(0.107809 -0.0102018 0)
(0.113737 -0.0128177 0)
(0.120885 -0.0152103 0)
(0.129113 -0.0174498 0)
(0.138319 -0.0195992 0)
(0.148444 -0.02171 0)
(0.159458 -0.0238197 0)
(0.171352 -0.0259488 0)
(0.184124 -0.0280994 0)
(0.197768 -0.0302544 0)
(0.212258 -0.0323806 0)
(0.227544 -0.0344335 0)
(0.243546 -0.0363627 0)
(0.260156 -0.0381191 0)
(0.277244 -0.039659 0)
(0.294665 -0.0409485 0)
(0.312266 -0.0419648 0)
(0.329899 -0.0426967 0)
(0.347423 -0.0431434 0)
(0.364709 -0.0433128 0)
(0.381643 -0.0432198 0)
(0.39813 -0.0428839 0)
(0.41409 -0.0423275 0)
(0.42946 -0.0415748 0)
(0.444191 -0.0406498 0)
(0.458248 -0.0395762 0)
(0.471606 -0.0383764 0)
(0.484253 -0.0370711 0)
(0.496184 -0.0356793 0)
(0.5074 -0.0342181 0)
(0.51791 -0.0327027 0)
(0.527726 -0.0311466 0)
(0.536864 -0.0295614 0)
(0.545344 -0.0279573 0)
(0.553187 -0.026343 0)
(0.560417 -0.0247261 0)
(0.567059 -0.0231128 0)
(0.573137 -0.0215085 0)
(0.578677 -0.0199176 0)
(0.583707 -0.0183437 0)
(0.588251 -0.0167897 0)
(0.592336 -0.0152578 0)
(0.595987 -0.0137495 0)
(0.599231 -0.012266 0)
(0.602092 -0.0108077 0)
(0.604595 -0.00937457 0)
(0.606763 -0.00796592 0)
(0.608621 -0.00658061 0)
(0.610191 -0.00521687 0)
(0.611496 -0.00387228 0)
(0.612557 -0.0025437 0)
(0.613395 -0.00122721 0)
(0.614032 8.11834e-05 0)
(0.614487 0.00138627 0)
(0.614781 0.00269405 0)
(0.614931 0.00401164 0)
(0.614957 0.00534727 0)
(0.614875 0.00671038 0)
(0.614704 0.00811179 0)
(0.61446 0.00956382 0)
(0.614161 0.0110805 0)
(0.613826 0.0126779 0)
(0.61347 0.0143739 0)
(0.613114 0.016189 0)
(0.612779 0.0181457 0)
(0.612486 0.0202692 0)
(0.61226 0.0225872 0)
(0.612132 0.0251292 0)
(0.612136 0.027926 0)
(0.612312 0.0310088 0)
(0.61271 0.0344063 0)
(0.613385 0.0381423 0)
(0.614405 0.0422306 0)
(0.615842 0.0466695 0)
(0.617776 0.0514337 0)
(0.620281 0.0564672 0)
(0.62342 0.0616757 0)
(0.627223 0.0669242 0)
(0.631665 0.0720474 0)
(0.100126 -0.00438537 0)
(0.103082 -0.0084183 0)
(0.107556 -0.0118571 0)
(0.113361 -0.0149367 0)
(0.120392 -0.0177592 0)
(0.128517 -0.0204054 0)
(0.13764 -0.0229504 0)
(0.14771 -0.0254572 0)
(0.158711 -0.0279728 0)
(0.170651 -0.0305233 0)
(0.183541 -0.0331114 0)
(0.197388 -0.0357153 0)
(0.21217 -0.0382922 0)
(0.227836 -0.0407845 0)
(0.244295 -0.0431277 0)
(0.261421 -0.0452588 0)
(0.279063 -0.0471229 0)
(0.297057 -0.0486781 0)
(0.315231 -0.0498971 0)
(0.333422 -0.0507674 0)
(0.351474 -0.0512897 0)
(0.369251 -0.0514756 0)
(0.386636 -0.0513446 0)
(0.403528 -0.0509219 0)
(0.419849 -0.0502358 0)
(0.435535 -0.0493162 0)
(0.450542 -0.0481928 0)
(0.464835 -0.0468943 0)
(0.478395 -0.045448 0)
(0.491211 -0.0438787 0)
(0.503282 -0.042209 0)
(0.514613 -0.0404594 0)
(0.525215 -0.0386477 0)
(0.535102 -0.0367898 0)
(0.544294 -0.0348993 0)
(0.552812 -0.0329881 0)
(0.560679 -0.0310664 0)
(0.567921 -0.0291428 0)
(0.574563 -0.0272246 0)
(0.580633 -0.0253179 0)
(0.586156 -0.0234277 0)
(0.59116 -0.0215581 0)
(0.595671 -0.0197122 0)
(0.599717 -0.0178927 0)
(0.603324 -0.0161011 0)
(0.606517 -0.0143386 0)
(0.609321 -0.0126057 0)
(0.611762 -0.0109022 0)
(0.613864 -0.00922725 0)
(0.615651 -0.00757956 0)
(0.617145 -0.00595708 0)
(0.618369 -0.00435706 0)
(0.619346 -0.002776 0)
(0.620095 -0.00120962 0)
(0.620641 0.00034654 0)
(0.621002 0.00189771 0)
(0.621198 0.00345056 0)
(0.621248 0.00501291 0)
(0.621172 0.00659351 0)
(0.620989 0.00820219 0)
(0.620716 0.00985 0)
(0.620372 0.0115493 0)
(0.619977 0.0133138 0)
(0.619548 0.0151588 0)
(0.619108 0.0171009 0)
(0.618676 0.0191582 0)
(0.618276 0.0213503 0)
(0.617933 0.0236977 0)
(0.617673 0.0262216 0)
(0.617529 0.028943 0)
(0.617533 0.0318821 0)
(0.617725 0.0350562 0)
(0.618147 0.0384779 0)
(0.618846 0.0421526 0)
(0.619869 0.0460754 0)
(0.621265 0.0502272 0)
(0.623079 0.0545719 0)
(0.625345 0.0590531 0)
(0.628083 0.063594 0)
(0.631285 0.0680999 0)
(0.634905 0.0724701 0)
(0.100018 -0.00495986 0)
(0.102949 -0.00960844 0)
(0.107327 -0.0135884 0)
(0.113014 -0.0171628 0)
(0.119934 -0.0204477 0)
(0.127963 -0.0235345 0)
(0.137014 -0.0265123 0)
(0.147051 -0.0294584 0)
(0.158078 -0.032431 0)
(0.170123 -0.0354632 0)
(0.183219 -0.0385576 0)
(0.197383 -0.0416851 0)
(0.212597 -0.044789 0)
(0.228799 -0.0477937 0)
(0.245878 -0.0506157 0)
(0.263682 -0.0531749 0)
(0.282033 -0.0554032 0)
(0.300738 -0.0572499 0)
(0.319604 -0.058684 0)
(0.338448 -0.0596932 0)
(0.357105 -0.0602816 0)
(0.37543 -0.0604661 0)
(0.393304 -0.0602731 0)
(0.410625 -0.0597349 0)
(0.427318 -0.0588871 0)
(0.443322 -0.0577665 0)
(0.458596 -0.0564093 0)
(0.473112 -0.0548501 0)
(0.486855 -0.0531211 0)
(0.499818 -0.051252 0)
(0.512005 -0.0492693 0)
(0.523425 -0.0471967 0)
(0.534091 -0.045055 0)
(0.544023 -0.0428625 0)
(0.553242 -0.0406348 0)
(0.561771 -0.0383855 0)
(0.569637 -0.0361262 0)
(0.576867 -0.0338666 0)
(0.583487 -0.031615 0)
(0.589526 -0.0293781 0)
(0.595011 -0.0271614 0)
(0.599971 -0.0249696 0)
(0.604433 -0.0228061 0)
(0.608423 -0.0206735 0)
(0.611969 -0.0185737 0)
(0.615098 -0.0165078 0)
(0.617834 -0.0144763 0)
(0.620202 -0.0124787 0)
(0.622228 -0.0105143 0)
(0.623934 -0.00858146 0)
(0.625345 -0.00667785 0)
(0.626483 -0.00480051 0)
(0.62737 -0.00294572 0)
(0.628027 -0.00110896 0)
(0.628479 0.00071473 0)
(0.628744 0.00253099 0)
(0.628842 0.004347 0)
(0.628794 0.00617093 0)
(0.628619 0.00801177 0)
(0.628336 0.00987934 0)
(0.627965 0.0117844 0)
(0.627525 0.0137389 0)
(0.627037 0.0157555 0)
(0.626521 0.0178479 0)
(0.625999 0.0200307 0)
(0.625493 0.0223191 0)
(0.625027 0.0247286 0)
(0.624626 0.0272746 0)
(0.624319 0.0299718 0)
(0.624134 0.0328335 0)
(0.624102 0.0358704 0)
(0.624257 0.0390893 0)
(0.624632 0.0424917 0)
(0.625262 0.0460721 0)
(0.626179 0.049816 0)
(0.627411 0.0536988 0)
(0.62898 0.0576846 0)
(0.630897 0.0617262 0)
(0.633158 0.0657663 0)
(0.635742 0.0697416 0)
(0.638602 0.0735916 0)
(0.0999023 -0.00555484 0)
(0.102827 -0.0108477 0)
(0.107125 -0.0154013 0)
(0.112702 -0.0195039 0)
(0.119521 -0.0232861 0)
(0.127468 -0.026852 0)
(0.136468 -0.0303071 0)
(0.146509 -0.0337462 0)
(0.157622 -0.037242 0)
(0.169862 -0.040835 0)
(0.183286 -0.0445258 0)
(0.197922 -0.0482731 0)
(0.213746 -0.0519993 0)
(0.230674 -0.0556039 0)
(0.248562 -0.0589782 0)
(0.267221 -0.0620213 0)
(0.286433 -0.0646504 0)
(0.305976 -0.0668069 0)
(0.325632 -0.068458 0)
(0.345201 -0.0695944 0)
(0.364508 -0.0702264 0)
(0.383406 -0.070379 0)
(0.401774 -0.0700878 0)
(0.419516 -0.0693941 0)
(0.43656 -0.0683423 0)
(0.452854 -0.0669774 0)
(0.468361 -0.0653429 0)
(0.483061 -0.0634798 0)
(0.496945 -0.0614261 0)
(0.510012 -0.059216 0)
(0.522272 -0.0568804 0)
(0.533737 -0.0544462 0)
(0.544426 -0.0519374 0)
(0.554362 -0.0493744 0)
(0.56357 -0.046775 0)
(0.572075 -0.0441544 0)
(0.579906 -0.0415253 0)
(0.587092 -0.0388987 0)
(0.593661 -0.0362836 0)
(0.599642 -0.0336873 0)
(0.605065 -0.031116 0)
(0.609958 -0.0285744 0)
(0.61435 -0.0260663 0)
(0.618267 -0.0235944 0)
(0.621738 -0.0211607 0)
(0.624788 -0.0187662 0)
(0.627444 -0.0164113 0)
(0.62973 -0.0140956 0)
(0.631672 -0.0118179 0)
(0.633293 -0.00957659 0)
(0.634616 -0.0073691 0)
(0.635664 -0.00519233 0)
(0.636461 -0.00304239 0)
(0.637026 -0.000914704 0)
(0.637386 0.00119615 0)
(0.637558 0.00329617 0)
(0.637562 0.00539283 0)
(0.63742 0.00749439 0)
(0.637152 0.00960968 0)
(0.636777 0.0117482 0)
(0.636315 0.0139199 0)
(0.635788 0.0161358 0)
(0.635215 0.0184071 0)
(0.634618 0.0207455 0)
(0.634018 0.023163 0)
(0.63344 0.0256713 0)
(0.632905 0.028282 0)
(0.63244 0.0310055 0)
(0.632069 0.0338507 0)
(0.631818 0.0368245 0)
(0.631715 0.0399306 0)
(0.631786 0.0431687 0)
(0.632055 0.0465337 0)
(0.632546 0.0500149 0)
(0.63328 0.0535948 0)
(0.634269 0.0572495 0)
(0.635521 0.0609483 0)
(0.637035 0.064655 0)
(0.638797 0.0683292 0)
(0.640783 0.0719295 0)
(0.642953 0.0754206 0)
(0.099777 -0.00617427 0)
(0.102713 -0.0121417 0)
(0.106949 -0.0173037 0)
(0.112431 -0.02197 0)
(0.119164 -0.0262885 0)
(0.127049 -0.0303782 0)
(0.136034 -0.0343653 0)
(0.146135 -0.0383668 0)
(0.157421 -0.0424731 0)
(0.169984 -0.046732 0)
(0.183904 -0.0511372 0)
(0.199211 -0.0556262 0)
(0.215863 -0.0600901 0)
(0.233733 -0.0643936 0)
(0.252629 -0.0683966 0)
(0.272311 -0.0719743 0)
(0.292519 -0.0750297 0)
(0.312996 -0.0774992 0)
(0.333502 -0.0793522 0)
(0.353824 -0.0805865 0)
(0.373785 -0.0812226 0)
(0.393237 -0.0812971 0)
(0.412064 -0.0808571 0)
(0.43018 -0.0799553 0)
(0.44752 -0.0786464 0)
(0.464042 -0.0769845 0)
(0.479718 -0.0750212 0)
(0.494537 -0.0728044 0)
(0.508497 -0.0703779 0)
(0.521605 -0.0677811 0)
(0.533875 -0.0650486 0)
(0.545328 -0.0622112 0)
(0.555985 -0.0592953 0)
(0.565873 -0.0563239 0)
(0.57502 -0.0533166 0)
(0.583455 -0.0502899 0)
(0.59121 -0.0472579 0)
(0.598313 -0.0442324 0)
(0.604796 -0.041223 0)
(0.610688 -0.0382378 0)
(0.616021 -0.035283 0)
(0.620823 -0.0323638 0)
(0.625122 -0.0294841 0)
(0.628948 -0.0266466 0)
(0.632327 -0.0238532 0)
(0.635286 -0.021105 0)
(0.637851 -0.0184021 0)
(0.640046 -0.0157441 0)
(0.641898 -0.0131296 0)
(0.643429 -0.0105568 0)
(0.644663 -0.00802313 0)
(0.645624 -0.00552525 0)
(0.646332 -0.0030593 0)
(0.64681 -0.000620824 0)
(0.647083 0.00179598 0)
(0.647169 0.00419753 0)
(0.647089 0.00659132 0)
(0.646863 0.00898536 0)
(0.646512 0.011388 0)
(0.646056 0.013808 0)
(0.645516 0.0162544 0)
(0.644912 0.0187367 0)
(0.644264 0.0212644 0)
(0.643595 0.0238469 0)
(0.642926 0.0264934 0)
(0.642278 0.0292125 0)
(0.641675 0.0320118 0)
(0.641139 0.0348977 0)
(0.640691 0.0378745 0)
(0.640356 0.0409442 0)
(0.640153 0.0441061 0)
(0.640104 0.0473557 0)
(0.640225 0.050685 0)
(0.640531 0.0540817 0)
(0.641034 0.0575292 0)
(0.641738 0.061007 0)
(0.642643 0.0644911 0)
(0.64374 0.0679551 0)
(0.645016 0.0713716 0)
(0.646446 0.0747141 0)
(0.647999 0.0779626 0)
(0.0996397 -0.00682254 0)
(0.102606 -0.0134976 0)
(0.106801 -0.019305 0)
(0.112205 -0.0245745 0)
(0.118872 -0.0294735 0)
(0.126728 -0.034141 0)
(0.135748 -0.0387301 0)
(0.145993 -0.0433864 0)
(0.15758 -0.0482209 0)
(0.170642 -0.0532854 0)
(0.185277 -0.0585565 0)
(0.201499 -0.0639362 0)
(0.219222 -0.0692694 0)
(0.238259 -0.0743749 0)
(0.258349 -0.0790755 0)
(0.279194 -0.0832226 0)
(0.300488 -0.0867089 0)
(0.321943 -0.0894713 0)
(0.343305 -0.0914875 0)
(0.364356 -0.0927684 0)
(0.38492 -0.0933491 0)
(0.404858 -0.0932816 0)
(0.424066 -0.0926273 0)
(0.442469 -0.0914521 0)
(0.460015 -0.0898223 0)
(0.476673 -0.0878019 0)
(0.492427 -0.0854511 0)
(0.507276 -0.0828249 0)
(0.521226 -0.0799731 0)
(0.534293 -0.0769399 0)
(0.546497 -0.0737641 0)
(0.557863 -0.0704795 0)
(0.56842 -0.0671152 0)
(0.578196 -0.0636963 0)
(0.587225 -0.0602441 0)
(0.595538 -0.0567763 0)
(0.603166 -0.0533081 0)
(0.610143 -0.0498519 0)
(0.6165 -0.0464178 0)
(0.622269 -0.0430144 0)
(0.62748 -0.039648 0)
(0.632163 -0.0363241 0)
(0.636348 -0.0330464 0)
(0.640061 -0.0298177 0)
(0.643332 -0.0266398 0)
(0.646187 -0.0235137 0)
(0.64865 -0.0204392 0)
(0.650749 -0.0174159 0)
(0.652506 -0.0144422 0)
(0.653947 -0.0115162 0)
(0.655093 -0.00863514 0)
(0.655968 -0.00579573 0)
(0.656594 -0.00299407 0)
(0.656992 -0.000226296 0)
(0.657189 0.00251363 0)
(0.6572 0.00523274 0)
(0.657047 0.00793841 0)
(0.656751 0.0106381 0)
(0.656331 0.0133392 0)
(0.65581 0.0160498 0)
(0.655205 0.0187774 0)
(0.654539 0.0215301 0)
(0.653831 0.0243154 0)
(0.653101 0.0271406 0)
(0.652371 0.0300121 0)
(0.651661 0.0329358 0)
(0.650991 0.0359162 0)
(0.650381 0.0389562 0)
(0.64985 0.042057 0)
(0.649417 0.0452177 0)
(0.649098 0.0484349 0)
(0.648908 0.0517024 0)
(0.648858 0.0550115 0)
(0.648957 0.0583507 0)
(0.649209 0.0617058 0)
(0.649616 0.0650608 0)
(0.650173 0.0683978 0)
(0.650869 0.0716986 0)
(0.651692 0.0749448 0)
(0.65262 0.0781201 0)
(0.653631 0.0812138 0)
(0.0994877 -0.00750454 0)
(0.102505 -0.0149242 0)
(0.106682 -0.0214177 0)
(0.112029 -0.0273347 0)
(0.118658 -0.0328666 0)
(0.12653 -0.0381803 0)
(0.135662 -0.0434647 0)
(0.146173 -0.0489014 0)
(0.15824 -0.0546229 0)
(0.172034 -0.0606756 0)
(0.187651 -0.0670009 0)
(0.205065 -0.0734433 0)
(0.224112 -0.0797834 0)
(0.244519 -0.085784 0)
(0.265947 -0.0912294 0)
(0.288037 -0.095952 0)
(0.310442 -0.0998423 0)
(0.332854 -0.102847 0)
(0.355013 -0.104959 0)
(0.376706 -0.106211 0)
(0.39777 -0.106655 0)
(0.41808 -0.106364 0)
(0.437548 -0.105415 0)
(0.456114 -0.10389 0)
(0.473744 -0.101866 0)
(0.490419 -0.099418 0)
(0.506136 -0.0966152 0)
(0.520905 -0.0935197 0)
(0.534742 -0.0901869 0)
(0.54767 -0.0866655 0)
(0.559717 -0.0829982 0)
(0.570914 -0.0792217 0)
(0.581292 -0.0753674 0)
(0.590886 -0.0714621 0)
(0.599731 -0.0675285 0)
(0.607861 -0.0635854 0)
(0.615311 -0.0596487 0)
(0.622113 -0.0557312 0)
(0.628301 -0.0518435 0)
(0.633908 -0.0479941 0)
(0.638964 -0.0441897 0)
(0.643499 -0.0404355 0)
(0.647543 -0.0367353 0)
(0.651125 -0.0330917 0)
(0.65427 -0.0295063 0)
(0.657007 -0.0259799 0)
(0.65936 -0.0225123 0)
(0.661355 -0.0191026 0)
(0.663015 -0.0157495 0)
(0.664364 -0.0124506 0)
(0.665426 -0.00920339 0)
(0.666221 -0.00600453 0)
(0.666773 -0.0028503 0)
(0.667104 0.000263269 0)
(0.667234 0.00334193 0)
(0.667183 0.00639292 0)
(0.666972 0.00942317 0)
(0.666621 0.0124394 0)
(0.66615 0.0154483 0)
(0.665579 0.0184566 0)
(0.664928 0.0214707 0)
(0.664215 0.0244969 0)
(0.663461 0.0275411 0)
(0.662685 0.0306083 0)
(0.661906 0.033703 0)
(0.661142 0.0368286 0)
(0.660411 0.0399873 0)
(0.65973 0.0431798 0)
(0.659116 0.0464052 0)
(0.658582 0.0496611 0)
(0.658141 0.0529429 0)
(0.657804 0.0562445 0)
(0.657577 0.0595577 0)
(0.657466 0.0628728 0)
(0.657471 0.0661788 0)
(0.657591 0.0694636 0)
(0.657821 0.0727148 0)
(0.65815 0.07592 0)
(0.658567 0.0790677 0)
(0.659056 0.0821477 0)
(0.659598 0.0851554 0)
(0.099318 -0.00822586 0)
(0.102409 -0.016432 0)
(0.106595 -0.0236573 0)
(0.11191 -0.0302736 0)
(0.118541 -0.0365037 0)
(0.126497 -0.0425536 0)
(0.135851 -0.048661 0)
(0.1468 -0.0550509 0)
(0.159585 -0.0618715 0)
(0.174401 -0.0691439 0)
(0.191309 -0.0767443 0)
(0.210198 -0.0844315 0)
(0.230796 -0.091904 0)
(0.252725 -0.0988639 0)
(0.275564 -0.105063 0)
(0.2989 -0.110326 0)
(0.322362 -0.114553 0)
(0.345634 -0.117714 0)
(0.368464 -0.119825 0)
(0.390656 -0.120945 0)
(0.412065 -0.121153 0)
(0.432589 -0.12054 0)
(0.452159 -0.119204 0)
(0.470735 -0.117241 0)
(0.4883 -0.114742 0)
(0.504851 -0.111793 0)
(0.520398 -0.10847 0)
(0.534963 -0.104842 0)
(0.54857 -0.100971 0)
(0.561251 -0.0969092 0)
(0.57304 -0.0927024 0)
(0.583974 -0.0883899 0)
(0.594089 -0.084005 0)
(0.603424 -0.079576 0)
(0.612015 -0.0751264 0)
(0.619898 -0.0706758 0)
(0.627111 -0.0662404 0)
(0.633687 -0.0618335 0)
(0.63966 -0.0574656 0)
(0.645064 -0.0531452 0)
(0.64993 -0.048879 0)
(0.654287 -0.0446718 0)
(0.658165 -0.0405273 0)
(0.661593 -0.0364479 0)
(0.664597 -0.032435 0)
(0.667202 -0.028489 0)
(0.669436 -0.0246096 0)
(0.671321 -0.0207957 0)
(0.672881 -0.0170457 0)
(0.67414 -0.0133575 0)
(0.675119 -0.00972843 0)
(0.675841 -0.00615535 0)
(0.676326 -0.00263483 0)
(0.676599 0.000837663 0)
(0.676676 0.0042679 0)
(0.676577 0.00766231 0)
(0.676324 0.0110272 0)
(0.675936 0.0143685 0)
(0.675431 0.0176921 0)
(0.674829 0.0210035 0)
(0.674148 0.024308 0)
(0.673406 0.0276103 0)
(0.672623 0.0309146 0)
(0.671816 0.0342245 0)
(0.671001 0.0375427 0)
(0.670195 0.0408709 0)
(0.669413 0.0442097 0)
(0.66867 0.0475584 0)
(0.667979 0.0509154 0)
(0.66735 0.0542775 0)
(0.666793 0.0576401 0)
(0.666315 0.0609978 0)
(0.665921 0.0643439 0)
(0.665613 0.0676708 0)
(0.665391 0.0709703 0)
(0.665251 0.0742341 0)
(0.665189 0.0774537 0)
(0.665197 0.0806211 0)
(0.665263 0.0837293 0)
(0.665378 0.0867726 0)
(0.665527 0.08975 0)
(0.099127 -0.00899307 0)
(0.102318 -0.0180345 0)
(0.106542 -0.0260443 0)
(0.111862 -0.033423 0)
(0.118549 -0.0404361 0)
(0.126683 -0.0473459 0)
(0.136418 -0.0544544 0)
(0.14804 -0.0620329 0)
(0.161848 -0.070228 0)
(0.178025 -0.078998 0)
(0.196544 -0.0881122 0)
(0.217162 -0.0972132 0)
(0.239472 -0.105907 0)
(0.262987 -0.11384 0)
(0.287215 -0.120747 0)