<?xml version="1.0"?>
<VTKFile type="UnstructuredGrid" version="0.1" byte_order="LittleEndian">
	<UnstructuredGrid>
		<Piece NumberOfPoints="126" NumberOfCells="40">
			<Points>
				<DataArray type="Float64" NumberOfComponents="3" format="ascii">
					 5.00000000E-02	 0.00000000E+00	 0.00000000E+00
					 0.00000000E+00	 0.00000000E+00	 0.00000000E+00
					 0.00000000E+00	 0.00000000E+00	 5.00000000E-02
					 5.00000000E-02	 0.00000000E+00	 5.00000000E-02
					 5.00000000E-02	 3.00000000E-01	 0.00000000E+00
					 0.00000000E+00	 3.00000000E-01	 0.00000000E+00
					 0.00000000E+00	 3.00000000E-01	 5.00000000E-02
					 5.00000000E-02	 3.00000000E-01	 5.00000000E-02
					 0.00000000E+00	 0.00000000E+00	 1.00000000E-01
					 5.00000000E-02	 0.00000000E+00	 1.00000000E-01
					 0.00000000E+00	 3.00000000E-01	 1.00000000E-01
					 5.00000000E-02	 3.00000000E-01	 1.00000000E-01
					 0.00000000E+00	 0.00000000E+00	 1.50000000E-01
					 5.00000000E-02	 0.00000000E+00	 1.50000000E-01
					 0.00000000E+00	 3.00000000E-01	 1.50000000E-01
					 5.00000000E-02	 3.00000000E-01	 1.50000000E-01
					 0.00000000E+00	 0.00000000E+00	 2.00000000E-01
					 5.00000000E-02	 0.00000000E+00	 2.00000000E-01
					 0.00000000E+00	 3.00000000E-01	 2.00000000E-01
					 5.00000000E-02	 3.00000000E-01	 2.00000000E-01
					 0.00000000E+00	 0.00000000E+00	 2.50000000E-01
					 5.00000000E-02	 0.00000000E+00	 2.50000000E-01
					 0.00000000E+00	 3.00000000E-01	 2.50000000E-01
					 5.00000000E-02	 3.00000000E-01	 2.50000000E-01
					 0.00000000E+00	 0.00000000E+00	 3.00000000E-01
					 5.00000000E-02	 0.00000000E+00	 3.00000000E-01
					 0.00000000E+00	 3.00000000E-01	 3.00000000E-01
					 5.00000000E-02	 3.00000000E-01	 3.00000000E-01
					 0.00000000E+00	 0.00000000E+00	 3.50000000E-01
					 5.00000000E-02	 0.00000000E+00	 3.50000000E-01
					 0.00000000E+00	 3.00000000E-01	 3.50000000E-01
					 5.00000000E-02	 3.00000000E-01	 3.50000000E-01
					 0.00000000E+00	 0.00000000E+00	 4.00000000E-01
					 5.00000000E-02	 0.00000000E+00	 4.00000000E-01
					 0.00000000E+00	 3.00000000E-01	 4.00000000E-01
					 5.00000000E-02	 3.00000000E-01	 4.00000000E-01
					 0.00000000E+00	 0.00000000E+00	 4.50000000E-01
					 5.00000000E-02	 0.00000000E+00	 4.50000000E-01
					 0.00000000E+00	 3.00000000E-01	 4.50000000E-01
					 5.00000000E-02	 3.00000000E-01	 4.50000000E-01
					 0.00000000E+00	 0.00000000E+00	 5.00000000E-01
					 5.00000000E-02	 0.00000000E+00	 5.00000000E-01
					 0.00000000E+00	 3.00000000E-01	 5.00000000E-01
					 5.00000000E-02	 3.00000000E-01	 5.00000000E-01
					 0.00000000E+00	 0.00000000E+00	 5.50000000E-01
					 5.00000000E-02	 0.00000000E+00	 5.50000000E-01
					 0.00000000E+00	 3.00000000E-01	 5.50000000E-01
					 5.00000000E-02	 3.00000000E-01	 5.50000000E-01
					 0.00000000E+00	 0.00000000E+00	 6.00000000E-01
					 5.00000000E-02	 0.00000000E+00	 6.00000000E-01
					 0.00000000E+00	 3.00000000E-01	 6.00000000E-01
					 5.00000000E-02	 3.00000000E-01	 6.00000000E-01
					 0.00000000E+00	 0.00000000E+00	 6.50000000E-01
					 5.00000000E-02	 0.00000000E+00	 6.50000000E-01
					 0.00000000E+00	 3.00000000E-01	 6.50000000E-01
					 5.00000000E-02	 3.00000000E-01	 6.50000000E-01
					 0.00000000E+00	 0.00000000E+00	 7.00000000E-01
					 5.00000000E-02	 0.00000000E+00	 7.00000000E-01
					 0.00000000E+00	 3.00000000E-01	 7.00000000E-01
					 5.00000000E-02	 3.00000000E-01	 7.00000000E-01
					 0.00000000E+00	 0.00000000E+00	 7.50000000E-01
					 5.00000000E-02	 0.00000000E+00	 7.50000000E-01
					 0.00000000E+00	 3.00000000E-01	 7.50000000E-01
					 5.00000000E-02	 3.00000000E-01	 7.50000000E-01
					 0.00000000E+00	 0.00000000E+00	 8.00000000E-01
					 5.00000000E-02	 0.00000000E+00	 8.00000000E-01
					 0.00000000E+00	 3.00000000E-01	 8.00000000E-01
					 5.00000000E-02	 3.00000000E-01	 8.00000000E-01
					 0.00000000E+00	 0.00000000E+00	 8.50000000E-01
					 5.00000000E-02	 0.00000000E+00	 8.50000000E-01
					 0.00000000E+00	 3.00000000E-01	 8.50000000E-01
					 5.00000000E-02	 3.00000000E-01	 8.50000000E-01
					 0.00000000E+00	 0.00000000E+00	 9.00000000E-01
					 5.00000000E-02	 0.00000000E+00	 9.00000000E-01
					 0.00000000E+00	 3.00000000E-01	 9.00000000E-01
					 5.00000000E-02	 3.00000000E-01	 9.00000000E-01
					 0.00000000E+00	 0.00000000E+00	 9.50000000E-01
					 5.00000000E-02	 0.00000000E+00	 9.50000000E-01
					 0.00000000E+00	 3.00000000E-01	 9.50000000E-01
					 5.00000000E-02	 3.00000000E-01	 9.50000000E-01
					 0.00000000E+00	 0.00000000E+00	 1.00000000E+00
					 5.00000000E-02	 0.00000000E+00	 1.00000000E+00
					 0.00000000E+00	 3.00000000E-01	 1.00000000E+00
					 5.00000000E-02	 3.00000000E-01	 1.00000000E+00
					-5.00000000E-02	 0.00000000E+00	 0.00000000E+00
					-5.00000000E-02	 0.00000000E+00	 5.00000000E-02
					-5.00000000E-02	 3.00000000E-01	 0.00000000E+00
					-5.00000000E-02	 3.00000000E-01	 5.00000000E-02
					-5.00000000E-02	 0.00000000E+00	 1.00000000E-01
					-5.00000000E-02	 3.00000000E-01	 1.00000000E-01
					-5.00000000E-02	 0.00000000E+00	 1.50000000E-01
					-5.00000000E-02	 3.00000000E-01	 1.50000000E-01
					-5.00000000E-02	 0.00000000E+00	 2.00000000E-01
					-5.00000000E-02	 3.00000000E-01	 2.00000000E-01
					-5.00000000E-02	 0.00000000E+00	 2.50000000E-01
					-5.00000000E-02	 3.00000000E-01	 2.50000000E-01
					-5.00000000E-02	 0.00000000E+00	 3.00000000E-01
					-5.00000000E-02	 3.00000000E-01	 3.00000000E-01
					-5.00000000E-02	 0.00000000E+00	 3.50000000E-01
					-5.00000000E-02	 3.00000000E-01	 3.50000000E-01
					-5.00000000E-02	 0.00000000E+00	 4.00000000E-01
					-5.00000000E-02	 3.00000000E-01	 4.00000000E-01
					-5.00000000E-02	 0.00000000E+00	 4.50000000E-01
					-5.00000000E-02	 3.00000000E-01	 4.50000000E-01
					-5.00000000E-02	 0.00000000E+00	 5.00000000E-01
					-5.00000000E-02	 3.00000000E-01	 5.00000000E-01
					-5.00000000E-02	 0.00000000E+00	 5.50000000E-01
					-5.00000000E-02	 3.00000000E-01	 5.50000000E-01
					-5.00000000E-02	 0.00000000E+00	 6.00000000E-01
					-5.00000000E-02	 3.00000000E-01	 6.00000000E-01
					-5.00000000E-02	 0.00000000E+00	 6.50000000E-01
					-5.00000000E-02	 3.00000000E-01	 6.50000000E-01
					-5.00000000E-02	 0.00000000E+00	 7.00000000E-01
					-5.00000000E-02	 3.00000000E-01	 7.00000000E-01
					-5.00000000E-02	 0.00000000E+00	 7.50000000E-01
					-5.00000000E-02	 3.00000000E-01	 7.50000000E-01
					-5.00000000E-02	 0.00000000E+00	 8.00000000E-01
					-5.00000000E-02	 3.00000000E-01	 8.00000000E-01
					-5.00000000E-02	 0.00000000E+00	 8.50000000E-01
					-5.00000000E-02	 3.00000000E-01	 8.50000000E-01
					-5.00000000E-02	 0.00000000E+00	 9.00000000E-01
					-5.00000000E-02	 3.00000000E-01	 9.00000000E-01
					-5.00000000E-02	 0.00000000E+00	 9.50000000E-01
					-5.00000000E-02	 3.00000000E-01	 9.50000000E-01
					-5.00000000E-02	 0.00000000E+00	 1.00000000E+00
					-5.00000000E-02	 3.00000000E-01	 1.00000000E+00
				</DataArray>
			</Points>
			<Cells>
				<DataArray type="Int32" Name="connectivity" format="ascii">
					0 1 2 3 4 5 6 7 3 2 8 9 7 6 10 11 9 8 12 13 11 10 14 15 13 12 16 17 15 14 18 19 17 16 20 21 19 18 22 23 21 20 24 25 23 22 26 27 25 24 28 29 27 26 30 31 29 28 32 33 31 30 34 35 33 32 36 37 35 34 38 39 37 36 40 41 39 38 42 43 41 40 44 45 43 42 46 47 45 44 48 49 47 46 50 51 49 48 52 53 51 50 54 55 53 52 56 57 55 54 58 59 57 56 60 61 59 58 62 63 61 60 64 65 63 62 66 67 65 64 68 69 67 66 70 71 69 68 72 73 71 70 74 75 73 72 76 77 75 74 78 79 77 76 80 81 79 78 82 83 1 84 85 2 5 86 87 6 2 85 88 8 6 87 89 10 8 88 90 12 10 89 91 14 12 90 92 16 14 91 93 18 16 92 94 20 18 93 95 22 20 94 96 24 22 95 97 26 24 96 98 28 26 97 99 30 28 98 100 32 30 99 101 34 32 100 102 36 34 101 103 38 36 102 104 40 38 103 105 42 40 104 106 44 42 105 107 46 44 106 108 48 46 107 109 50 48 108 110 52 50 109 111 54 52 110 112 56 54 111 113 58 56 112 114 60 58 113 115 62 60 114 116 64 62 115 117 66 64 116 118 68 66 117 119 70 68 118 120 72 70 119 121 74 72 120 122 76 74 121 123 78 76 122 124 80 78 123 125 82 
				</DataArray>
				<DataArray type="Int32" Name="offsets" format="ascii">
					8 16 24 32 40 48 56 64 72 80 88 96 104 112 120 128 136 144 152 160 168 176 184 192 200 208 216 224 232 240 248 256 264 272 280 288 296 304 312 320 
				</DataArray>
				<DataArray type="UInt8" Name="types" format="ascii">
					12 12 12 12 12 12 12 12 12 12 12 12 12 12 12 12 12 12 12 12 12 12 12 12 12 12 12 12 12 12 12 12 12 12 12 12 12 12 12 12 
				</DataArray>
			</Cells>
			<PointData>
				<DataArray type="Float32" Name="U" NumberOfComponents="3" ComponentName0="D1" ComponentName1="D2" ComponentName2="D3" format="ascii">
					 0.00000000E+00	 0.00000000E+00	 0.00000000E+00
					 0.00000000E+00	 0.00000000E+00	 0.00000000E+00
					 8.22557000E-05	 0.00000000E+00	-2.14924000E-04
					-7.27254000E-05	 0.00000000E+00	 3.66640000E-04
					 0.00000000E+00	 0.00000000E+00	 0.00000000E+00
					 0.00000000E+00	 0.00000000E+00	 0.00000000E+00
					 8.22557000E-05	 0.00000000E+00	-2.14924000E-04
					-7.27254000E-05	 0.00000000E+00	 3.66640000E-04
					 1.76789000E-04	 0.00000000E+00	-3.64506000E-04
					-5.75785000E-04	 0.00000000E+00	 3.50952000E-04
					 1.76789000E-04	 0.00000000E+00	-3.64506000E-04
					-5.75785000E-04	 0.00000000E+00	 3.50952000E-04
					 2.34426000E-04	 0.00000000E+00	-2.09799000E-04
					-5.20535000E-04	 0.00000000E+00	 3.90371000E-04
					 2.34426000E-04	 0.00000000E+00	-2.09799000E-04
					-5.20535000E-04	 0.00000000E+00	 3.90371000E-04
					 2.59276000E-04	 0.00000000E+00	-2.95777000E-04
					-9.28023000E-04	 0.00000000E+00	 1.78403000E-04
					 2.59276000E-04	 0.00000000E+00	-2.95777000E-04
					-9.28023000E-04	 0.00000000E+00	 1.78403000E-04
					 2.55554000E-04	 0.00000000E+00	-1.16227000E-04
					-7.70059000E-04	 0.00000000E+00	-3.58552000E-04
					 2.55554000E-04	 0.00000000E+00	-1.16227000E-04
					-7.70059000E-04	 0.00000000E+00	-3.58552000E-04
					 2.33640000E-04	 0.00000000E+00	 3.94507000E-04
					-5.12912000E-04	 0.00000000E+00	 1.41736000E-04
					 2.33640000E-04	 0.00000000E+00	 3.94507000E-04
					-5.12912000E-04	 0.00000000E+00	 1.41736000E-04
					 2.11990000E-04	 0.00000000E+00	-1.19962000E-04
					-5.82707000E-04	 0.00000000E+00	 4.45715000E-04
					 2.11990000E-04	 0.00000000E+00	-1.19962000E-04
					-5.82707000E-04	 0.00000000E+00	 4.45715000E-04
					 1.92705000E-04	 0.00000000E+00	 3.16043000E-04
					-9.95316000E-04	 0.00000000E+00	 1.86999000E-04
					 1.92705000E-04	 0.00000000E+00	 3.16043000E-04
					-9.95316000E-04	 0.00000000E+00	 1.86999000E-04
					 1.92500000E-04	 0.00000000E+00	 7.01906000E-04
					-7.70340000E-04	 0.00000000E+00	 2.09888000E-04
					 1.92500000E-04	 0.00000000E+00	 7.01906000E-04
					-7.70340000E-04	 0.00000000E+00	 2.09888000E-04
					 1.93864000E-04	 0.00000000E+00	 3.96234000E-04
					-6.97747000E-04	 0.00000000E+00	 5.14315000E-04
					 1.93864000E-04	 0.00000000E+00	 3.96234000E-04
					-6.97747000E-04	 0.00000000E+00	 5.14315000E-04
					 1.69192000E-04	 0.00000000E+00	 2.70830000E-04
					-7.47559000E-04	 0.00000000E+00	 6.51874000E-04
					 1.69192000E-04	 0.00000000E+00	 2.70830000E-04
					-7.47559000E-04	 0.00000000E+00	 6.51874000E-04
					 1.45290000E-04	 0.00000000E+00	 1.64242000E-04
					-9.91329000E-04	 0.00000000E+00	 4.58221000E-04
					 1.45290000E-04	 0.00000000E+00	 1.64242000E-04
					-9.91329000E-04	 0.00000000E+00	 4.58221000E-04
					 1.25999000E-04	 0.00000000E+00	 7.85515000E-04
					-7.45217000E-04	 0.00000000E+00	 4.33914000E-04
					 1.25999000E-04	 0.00000000E+00	 7.85515000E-04
					-7.45217000E-04	 0.00000000E+00	 4.33914000E-04
					 1.06883000E-04	 0.00000000E+00	 5.06660000E-04
					-4.69240000E-04	 0.00000000E+00	 3.82175000E-04
					 1.06883000E-04	 0.00000000E+00	 5.06660000E-04
					-4.69240000E-04	 0.00000000E+00	 3.82175000E-04
					 8.75950000E-05	 0.00000000E+00	 4.08240000E-04
					-5.98404000E-04	 0.00000000E+00	 5.81291000E-04
					 8.75950000E-05	 0.00000000E+00	 4.08240000E-04
					-5.98404000E-04	 0.00000000E+00	 5.81291000E-04
					 6.14293000E-05	 0.00000000E+00	 3.67813000E-04
					-1.26780000E-03	 0.00000000E+00	 4.62836000E-04
					 6.14293000E-05	 0.00000000E+00	 3.67813000E-04
					-1.26780000E-03	 0.00000000E+00	 4.62836000E-04
					 2.87320000E-05	 0.00000000E+00	 1.04160000E-03
					-1.07134000E-03	 0.00000000E+00	 1.99034000E-04
					 2.87320000E-05	 0.00000000E+00	 1.04160000E-03
					-1.07134000E-03	 0.00000000E+00	 1.99034000E-04
					 1.08387000E-05	 0.00000000E+00	 6.02201000E-04
					-3.95825000E-04	 0.00000000E+00	-1.91533000E-05
					 1.08387000E-05	 0.00000000E+00	 6.02201000E-04
					-3.95825000E-04	 0.00000000E+00	-1.91533000E-05
					-8.51325000E-06	 0.00000000E+00	 6.58120000E-04
					-5.47108000E-04	 0.00000000E+00	 2.22830000E-04
					-8.51325000E-06	 0.00000000E+00	 6.58120000E-04
					-5.47108000E-04	 0.00000000E+00	 2.22830000E-04
					-2.77637000E-05	 0.00000000E+00	 6.62602000E-04
					-5.83240000E-04	 0.00000000E+00	 3.98028000E-04
					-2.77637000E-05	 0.00000000E+00	 6.62602000E-04
					-5.83240000E-04	 0.00000000E+00	 3.98028000E-04
					 0.00000000E+00	 0.00000000E+00	 0.00000000E+00
					 2.87459000E-04	 0.00000000E+00	 4.62394000E-04
					 0.00000000E+00	 0.00000000E+00	 0.00000000E+00
					 2.87459000E-04	 0.00000000E+00	 4.62394000E-04
					 9.66590000E-04	 0.00000000E+00	 4.56917000E-04
					 9.66590000E-04	 0.00000000E+00	 4.56917000E-04
					 1.02612000E-03	 0.00000000E+00	 4.62901000E-04
					 1.02612000E-03	 0.00000000E+00	 4.62901000E-04
					 1.47622000E-03	 0.00000000E+00	 2.03138000E-04
					 1.47622000E-03	 0.00000000E+00	 2.03138000E-04
					 1.31044000E-03	 0.00000000E+00	-3.72496000E-04
					 1.31044000E-03	 0.00000000E+00	-3.72496000E-04
					 1.02076000E-03	 0.00000000E+00	 1.13591000E-04
					 1.02076000E-03	 0.00000000E+00	 1.13591000E-04
					 1.04436000E-03	 0.00000000E+00	 4.14092000E-04
					 1.04436000E-03	 0.00000000E+00	 4.14092000E-04
					 1.42491000E-03	 0.00000000E+00	 1.70654000E-04
					 1.42491000E-03	 0.00000000E+00	 1.70654000E-04
					 1.19340000E-03	 0.00000000E+00	 1.92913000E-04
					 1.19340000E-03	 0.00000000E+00	 1.92913000E-04
					 1.12285000E-03	 0.00000000E+00	 4.94007000E-04
					 1.12285000E-03	 0.00000000E+00	 4.94007000E-04
					 1.12055000E-03	 0.00000000E+00	 6.09836000E-04
					 1.12055000E-03	 0.00000000E+00	 6.09836000E-04
					 1.32545000E-03	 0.00000000E+00	 4.20928000E-04
					 1.32545000E-03	 0.00000000E+00	 4.20928000E-04
					 1.03457000E-03	 0.00000000E+00	 3.90502000E-04
					 1.03457000E-03	 0.00000000E+00	 3.90502000E-04
					 7.32491000E-04	 0.00000000E+00	 3.44686000E-04
					 7.32491000E-04	 0.00000000E+00	 3.44686000E-04
					 8.02006000E-04	 0.00000000E+00	 5.36665000E-04
					 8.02006000E-04	 0.00000000E+00	 5.36665000E-04
					 1.42924000E-03	 0.00000000E+00	 4.19117000E-04
					 1.42924000E-03	 0.00000000E+00	 4.19117000E-04
					 1.19587000E-03	 0.00000000E+00	 1.56298000E-04
					 1.19587000E-03	 0.00000000E+00	 1.56298000E-04
					 4.65329000E-04	 0.00000000E+00	-6.90710000E-05
					 4.65329000E-04	 0.00000000E+00	-6.90710000E-05
					 5.53924000E-04	 0.00000000E+00	 1.77806000E-04
					 5.53924000E-04	 0.00000000E+00	 1.77806000E-04
					 5.32130000E-04	 0.00000000E+00	 3.53411000E-04
					 5.32130000E-04	 0.00000000E+00	 3.53411000E-04
				</DataArray>
			</PointData>
		</Piece>
	</UnstructuredGrid>
</VTKFile>