<?xml version="1.0"?>
<VTKFile type="UnstructuredGrid" version="0.1" byte_order="LittleEndian">
	<UnstructuredGrid>
		<Piece NumberOfPoints="126" NumberOfCells="40">
			<Points>
				<DataArray type="Float64" NumberOfComponents="3" format="ascii">
					 5.00000000E-02	 0.00000000E+00	 0.00000000E+00
					 0.00000000E+00	 0.00000000E+00	 0.00000000E+00
					 0.00000000E+00	 0.00000000E+00	 5.00000000E-02
					 5.00000000E-02	 0.00000000E+00	 5.00000000E-02
					 5.00000000E-02	 3.00000000E-01	 0.00000000E+00
					 0.00000000E+00	 3.00000000E-01	 0.00000000E+00
					 0.00000000E+00	 3.00000000E-01	 5.00000000E-02
					 5.00000000E-02	 3.00000000E-01	 5.00000000E-02
					 0.00000000E+00	 0.00000000E+00	 1.00000000E-01
					 5.00000000E-02	 0.00000000E+00	 1.00000000E-01
					 0.00000000E+00	 3.00000000E-01	 1.00000000E-01
					 5.00000000E-02	 3.00000000E-01	 1.00000000E-01
					 0.00000000E+00	 0.00000000E+00	 1.50000000E-01
					 5.00000000E-02	 0.00000000E+00	 1.50000000E-01
					 0.00000000E+00	 3.00000000E-01	 1.50000000E-01
					 5.00000000E-02	 3.00000000E-01	 1.50000000E-01
					 0.00000000E+00	 0.00000000E+00	 2.00000000E-01
					 5.00000000E-02	 0.00000000E+00	 2.00000000E-01
					 0.00000000E+00	 3.00000000E-01	 2.00000000E-01
					 5.00000000E-02	 3.00000000E-01	 2.00000000E-01
					 0.00000000E+00	 0.00000000E+00	 2.50000000E-01
					 5.00000000E-02	 0.00000000E+00	 2.50000000E-01
					 0.00000000E+00	 3.00000000E-01	 2.50000000E-01
					 5.00000000E-02	 3.00000000E-01	 2.50000000E-01
					 0.00000000E+00	 0.00000000E+00	 3.00000000E-01
					 5.00000000E-02	 0.00000000E+00	 3.00000000E-01
					 0.00000000E+00	 3.00000000E-01	 3.00000000E-01
					 5.00000000E-02	 3.00000000E-01	 3.00000000E-01
					 0.00000000E+00	 0.00000000E+00	 3.50000000E-01
					 5.00000000E-02	 0.00000000E+00	 3.50000000E-01
					 0.00000000E+00	 3.00000000E-01	 3.50000000E-01
					 5.00000000E-02	 3.00000000E-01	 3.50000000E-01
					 0.00000000E+00	 0.00000000E+00	 4.00000000E-01
					 5.00000000E-02	 0.00000000E+00	 4.00000000E-01
					 0.00000000E+00	 3.00000000E-01	 4.00000000E-01
					 5.00000000E-02	 3.00000000E-01	 4.00000000E-01
					 0.00000000E+00	 0.00000000E+00	 4.50000000E-01
					 5.00000000E-02	 0.00000000E+00	 4.50000000E-01
					 0.00000000E+00	 3.00000000E-01	 4.50000000E-01
					 5.00000000E-02	 3.00000000E-01	 4.50000000E-01
					 0.00000000E+00	 0.00000000E+00	 5.00000000E-01
					 5.00000000E-02	 0.00000000E+00	 5.00000000E-01
					 0.00000000E+00	 3.00000000E-01	 5.00000000E-01
					 5.00000000E-02	 3.00000000E-01	 5.00000000E-01
					 0.00000000E+00	 0.00000000E+00	 5.50000000E-01
					 5.00000000E-02	 0.00000000E+00	 5.50000000E-01
					 0.00000000E+00	 3.00000000E-01	 5.50000000E-01
					 5.00000000E-02	 3.00000000E-01	 5.50000000E-01
					 0.00000000E+00	 0.00000000E+00	 6.00000000E-01
					 5.00000000E-02	 0.00000000E+00	 6.00000000E-01
					 0.00000000E+00	 3.00000000E-01	 6.00000000E-01
					 5.00000000E-02	 3.00000000E-01	 6.00000000E-01
					 0.00000000E+00	 0.00000000E+00	 6.50000000E-01
					 5.00000000E-02	 0.00000000E+00	 6.50000000E-01
					 0.00000000E+00	 3.00000000E-01	 6.50000000E-01
					 5.00000000E-02	 3.00000000E-01	 6.50000000E-01
					 0.00000000E+00	 0.00000000E+00	 7.00000000E-01
					 5.00000000E-02	 0.00000000E+00	 7.00000000E-01
					 0.00000000E+00	 3.00000000E-01	 7.00000000E-01
					 5.00000000E-02	 3.00000000E-01	 7.00000000E-01
					 0.00000000E+00	 0.00000000E+00	 7.50000000E-01
					 5.00000000E-02	 0.00000000E+00	 7.50000000E-01
					 0.00000000E+00	 3.00000000E-01	 7.50000000E-01
					 5.00000000E-02	 3.00000000E-01	 7.50000000E-01
					 0.00000000E+00	 0.00000000E+00	 8.00000000E-01
					 5.00000000E-02	 0.00000000E+00	 8.00000000E-01
					 0.00000000E+00	 3.00000000E-01	 8.00000000E-01
					 5.00000000E-02	 3.00000000E-01	 8.00000000E-01
					 0.00000000E+00	 0.00000000E+00	 8.50000000E-01
					 5.00000000E-02	 0.00000000E+00	 8.50000000E-01
					 0.00000000E+00	 3.00000000E-01	 8.50000000E-01
					 5.00000000E-02	 3.00000000E-01	 8.50000000E-01
					 0.00000000E+00	 0.00000000E+00	 9.00000000E-01
					 5.00000000E-02	 0.00000000E+00	 9.00000000E-01
					 0.00000000E+00	 3.00000000E-01	 9.00000000E-01
					 5.00000000E-02	 3.00000000E-01	 9.00000000E-01
					 0.00000000E+00	 0.00000000E+00	 9.50000000E-01
					 5.00000000E-02	 0.00000000E+00	 9.50000000E-01
					 0.00000000E+00	 3.00000000E-01	 9.50000000E-01
					 5.00000000E-02	 3.00000000E-01	 9.50000000E-01
					 0.00000000E+00	 0.00000000E+00	 1.00000000E+00
					 5.00000000E-02	 0.00000000E+00	 1.00000000E+00
					 0.00000000E+00	 3.00000000E-01	 1.00000000E+00
					 5.00000000E-02	 3.00000000E-01	 1.00000000E+00
					-5.00000000E-02	 0.00000000E+00	 0.00000000E+00
					-5.00000000E-02	 0.00000000E+00	 5.00000000E-02
					-5.00000000E-02	 3.00000000E-01	 0.00000000E+00
					-5.00000000E-02	 3.00000000E-01	 5.00000000E-02
					-5.00000000E-02	 0.00000000E+00	 1.00000000E-01
					-5.00000000E-02	 3.00000000E-01	 1.00000000E-01
					-5.00000000E-02	 0.00000000E+00	 1.50000000E-01
					-5.00000000E-02	 3.00000000E-01	 1.50000000E-01
					-5.00000000E-02	 0.00000000E+00	 2.00000000E-01
					-5.00000000E-02	 3.00000000E-01	 2.00000000E-01
					-5.00000000E-02	 0.00000000E+00	 2.50000000E-01
					-5.00000000E-02	 3.00000000E-01	 2.50000000E-01
					-5.00000000E-02	 0.00000000E+00	 3.00000000E-01
					-5.00000000E-02	 3.00000000E-01	 3.00000000E-01
					-5.00000000E-02	 0.00000000E+00	 3.50000000E-01
					-5.00000000E-02	 3.00000000E-01	 3.50000000E-01
					-5.00000000E-02	 0.00000000E+00	 4.00000000E-01
					-5.00000000E-02	 3.00000000E-01	 4.00000000E-01
					-5.00000000E-02	 0.00000000E+00	 4.50000000E-01
					-5.00000000E-02	 3.00000000E-01	 4.50000000E-01
					-5.00000000E-02	 0.00000000E+00	 5.00000000E-01
					-5.00000000E-02	 3.00000000E-01	 5.00000000E-01
					-5.00000000E-02	 0.00000000E+00	 5.50000000E-01
					-5.00000000E-02	 3.00000000E-01	 5.50000000E-01
					-5.00000000E-02	 0.00000000E+00	 6.00000000E-01
					-5.00000000E-02	 3.00000000E-01	 6.00000000E-01
					-5.00000000E-02	 0.00000000E+00	 6.50000000E-01
					-5.00000000E-02	 3.00000000E-01	 6.50000000E-01
					-5.00000000E-02	 0.00000000E+00	 7.00000000E-01
					-5.00000000E-02	 3.00000000E-01	 7.00000000E-01
					-5.00000000E-02	 0.00000000E+00	 7.50000000E-01
					-5.00000000E-02	 3.00000000E-01	 7.50000000E-01
					-5.00000000E-02	 0.00000000E+00	 8.00000000E-01
					-5.00000000E-02	 3.00000000E-01	 8.00000000E-01
					-5.00000000E-02	 0.00000000E+00	 8.50000000E-01
					-5.00000000E-02	 3.00000000E-01	 8.50000000E-01
					-5.00000000E-02	 0.00000000E+00	 9.00000000E-01
					-5.00000000E-02	 3.00000000E-01	 9.00000000E-01
					-5.00000000E-02	 0.00000000E+00	 9.50000000E-01
					-5.00000000E-02	 3.00000000E-01	 9.50000000E-01
					-5.00000000E-02	 0.00000000E+00	 1.00000000E+00
					-5.00000000E-02	 3.00000000E-01	 1.00000000E+00
				</DataArray>
			</Points>
			<Cells>
				<DataArray type="Int32" Name="connectivity" format="ascii">
					0 1 2 3 4 5 6 7 3 2 8 9 7 6 10 11 9 8 12 13 11 10 14 15 13 12 16 17 15 14 18 19 17 16 20 21 19 18 22 23 21 20 24 25 23 22 26 27 25 24 28 29 27 26 30 31 29 28 32 33 31 30 34 35 33 32 36 37 35 34 38 39 37 36 40 41 39 38 42 43 41 40 44 45 43 42 46 47 45 44 48 49 47 46 50 51 49 48 52 53 51 50 54 55 53 52 56 57 55 54 58 59 57 56 60 61 59 58 62 63 61 60 64 65 63 62 66 67 65 64 68 69 67 66 70 71 69 68 72 73 71 70 74 75 73 72 76 77 75 74 78 79 77 76 80 81 79 78 82 83 1 84 85 2 5 86 87 6 2 85 88 8 6 87 89 10 8 88 90 12 10 89 91 14 12 90 92 16 14 91 93 18 16 92 94 20 18 93 95 22 20 94 96 24 22 95 97 26 24 96 98 28 26 97 99 30 28 98 100 32 30 99 101 34 32 100 102 36 34 101 103 38 36 102 104 40 38 103 105 42 40 104 106 44 42 105 107 46 44 106 108 48 46 107 109 50 48 108 110 52 50 109 111 54 52 110 112 56 54 111 113 58 56 112 114 60 58 113 115 62 60 114 116 64 62 115 117 66 64 116 118 68 66 117 119 70 68 118 120 72 70 119 121 74 72 120 122 76 74 121 123 78 76 122 124 80 78 123 125 82 
				</DataArray>
				<DataArray type="Int32" Name="offsets" format="ascii">
					8 16 24 32 40 48 56 64 72 80 88 96 104 112 120 128 136 144 152 160 168 176 184 192 200 208 216 224 232 240 248 256 264 272 280 288 296 304 312 320 
				</DataArray>
				<DataArray type="UInt8" Name="types" format="ascii">
					12 12 12 12 12 12 12 12 12 12 12 12 12 12 12 12 12 12 12 12 12 12 12 12 12 12 12 12 12 12 12 12 12 12 12 12 12 12 12 12 
				</DataArray>
			</Cells>
			<PointData>
				<DataArray type="Float32" Name="U" NumberOfComponents="3" ComponentName0="D1" ComponentName1="D2" ComponentName2="D3" format="ascii">
					 0.00000000E+00	 0.00000000E+00	 0.00000000E+00
					 0.00000000E+00	 0.00000000E+00	 0.00000000E+00
					 6.04575000E-05	 0.00000000E+00	-6.13693000E-05
					 6.87227000E-04	 0.00000000E+00	-1.84313000E-04
					 0.00000000E+00	 0.00000000E+00	 0.00000000E+00
					 0.00000000E+00	 0.00000000E+00	 0.00000000E+00
					 6.04575000E-05	 0.00000000E+00	-6.13693000E-05
					 6.87227000E-04	 0.00000000E+00	-1.84313000E-04
					 1.14211000E-04	 0.00000000E+00	-2.29147000E-04
					 4.89709000E-04	 0.00000000E+00	-9.09823000E-06
					 1.14211000E-04	 0.00000000E+00	-2.29147000E-04
					 4.89709000E-04	 0.00000000E+00	-9.09823000E-06
					 1.38050000E-04	 0.00000000E+00	-7.99082000E-05
					 5.21969000E-04	 0.00000000E+00	 3.03163000E-04
					 1.38050000E-04	 0.00000000E+00	-7.99082000E-05
					 5.21969000E-04	 0.00000000E+00	 3.03163000E-04
					 1.31922000E-04	 0.00000000E+00	-8.25423000E-05
					 7.30295000E-04	 0.00000000E+00	 3.27485000E-04
					 1.31922000E-04	 0.00000000E+00	-8.25423000E-05
					 7.30295000E-04	 0.00000000E+00	 3.27485000E-04
					 1.18766000E-04	 0.00000000E+00	-2.89632000E-04
					 3.56404000E-04	 0.00000000E+00	-5.30448000E-05
					 1.18766000E-04	 0.00000000E+00	-2.89632000E-04
					 3.56404000E-04	 0.00000000E+00	-5.30448000E-05
					 1.04528000E-04	 0.00000000E+00	-3.78364000E-05
					 2.00799000E-04	 0.00000000E+00	-1.27680000E-04
					 1.04528000E-04	 0.00000000E+00	-3.78364000E-05
					 2.00799000E-04	 0.00000000E+00	-1.27680000E-04
					 9.71019000E-05	 0.00000000E+00	 3.58406000E-04
					 8.21182000E-04	 0.00000000E+00	 1.35823000E-04
					 9.71019000E-05	 0.00000000E+00	 3.58406000E-04
					 8.21182000E-04	 0.00000000E+00	 1.35823000E-04
					 1.01820000E-04	 0.00000000E+00	-4.23127000E-04
					 6.71900000E-04	 0.00000000E+00	-8.92140000E-05
					 1.01820000E-04	 0.00000000E+00	-4.23127000E-04
					 6.71900000E-04	 0.00000000E+00	-8.92140000E-05
					 9.40997000E-05	 0.00000000E+00	 4.50730000E-05
					 1.64957000E-04	 0.00000000E+00	 8.69961000E-05
					 9.40997000E-05	 0.00000000E+00	 4.50730000E-05
					 1.64957000E-04	 0.00000000E+00	 8.69961000E-05
					 8.21234000E-05	 0.00000000E+00	 8.37587000E-04
					 3.00666000E-04	 0.00000000E+00	 3.66030000E-04
					 8.21234000E-05	 0.00000000E+00	 8.37587000E-04
					 3.00666000E-04	 0.00000000E+00	 3.66030000E-04
					 7.84335000E-05	 0.00000000E+00	 6.38489000E-05
					 6.51596000E-04	 0.00000000E+00	 4.36261000E-04
					 7.84335000E-05	 0.00000000E+00	 6.38489000E-05
					 6.51596000E-04	 0.00000000E+00	 4.36261000E-04
					 7.06092000E-05	 0.00000000E+00	 2.52368000E-04
					 3.66841000E-04	 0.00000000E+00	 4.37098000E-04
					 7.06092000E-05	 0.00000000E+00	 2.52368000E-04
					 3.66841000E-04	 0.00000000E+00	 4.37098000E-04
					 5.24184000E-05	 0.00000000E+00	 5.88293000E-04
					 4.64403000E-04	 0.00000000E+00	 3.52556000E-04
					 5.24184000E-05	 0.00000000E+00	 5.88293000E-04
					 4.64403000E-04	 0.00000000E+00	 3.52556000E-04
					 3.97762000E-05	 0.00000000E+00	 5.98996000E-04
					 8.42485000E-04	 0.00000000E+00	 5.65151000E-04
					 3.97762000E-05	 0.00000000E+00	 5.98996000E-04
					 8.42485000E-04	 0.00000000E+00	 5.65151000E-04
					 2.37106000E-05	 0.00000000E+00	 2.96039000E-04
					 8.68431000E-05	 0.00000000E+00	 3.26508000E-04
					 2.37106000E-05	 0.00000000E+00	 2.96039000E-04
					 8.68431000E-05	 0.00000000E+00	 3.26508000E-04
					 1.12002000E-05	 0.00000000E+00	 7.61847000E-04
					 1.39325000E-04	 0.00000000E+00	 3.20189000E-04
					 1.12002000E-05	 0.00000000E+00	 7.61847000E-04
					 1.39325000E-04	 0.00000000E+00	 3.20189000E-04
					 9.87405000E-07	 0.00000000E+00	 6.36886000E-04
					 5.71391000E-04	 0.00000000E+00	 7.98526000E-05
					 9.87405000E-07	 0.00000000E+00	 6.36886000E-04
					 5.71391000E-04	 0.00000000E+00	 7.98526000E-05
					-9.27350000E-06	 0.00000000E+00	 4.97544000E-04
					 5.99008000E-04	 0.00000000E+00	 3.73175000E-04
					-9.27350000E-06	 0.00000000E+00	 4.97544000E-04
					 5.99008000E-04	 0.00000000E+00	 3.73175000E-04
					-3.09379000E-05	 0.00000000E+00	 5.62078000E-04
					 2.28955000E-04	 0.00000000E+00	 4.31779000E-04
					-3.09379000E-05	 0.00000000E+00	 5.62078000E-04
					 2.28955000E-04	 0.00000000E+00	 4.31779000E-04
					-5.00133000E-05	 0.00000000E+00	 6.73942000E-04
					 5.51192000E-04	 0.00000000E+00	 5.82735000E-04
					-5.00133000E-05	 0.00000000E+00	 6.73942000E-04
					 5.51192000E-04	 0.00000000E+00	 5.82735000E-04
					 0.00000000E+00	 0.00000000E+00	 0.00000000E+00
					-5.66359000E-04	 0.00000000E+00	-1.35063000E-04
					 0.00000000E+00	 0.00000000E+00	 0.00000000E+00
					-5.66359000E-04	 0.00000000E+00	-1.35063000E-04
					-2.89146000E-04	 0.00000000E+00	 4.01548000E-05
					-2.89146000E-04	 0.00000000E+00	 4.01548000E-05
					-2.72007000E-04	 0.00000000E+00	 3.22849000E-04
					-2.72007000E-04	 0.00000000E+00	 3.22849000E-04
					-4.83241000E-04	 0.00000000E+00	 3.20712000E-04
					-4.83241000E-04	 0.00000000E+00	 3.20712000E-04
					-1.38235000E-04	 0.00000000E+00	-7.20647000E-05
					-1.38235000E-04	 0.00000000E+00	-7.20647000E-05
					-5.93894000E-06	 0.00000000E+00	-1.46441000E-04
					-5.93894000E-06	 0.00000000E+00	-1.46441000E-04
					-6.42357000E-04	 0.00000000E+00	 1.31282000E-04
					-6.42357000E-04	 0.00000000E+00	 1.31282000E-04
					-4.88290000E-04	 0.00000000E+00	-9.81526000E-05
					-4.88290000E-04	 0.00000000E+00	-9.81526000E-05
					 3.39358000E-06	 0.00000000E+00	 7.35832000E-05
					 3.39358000E-06	 0.00000000E+00	 7.35832000E-05
					-1.54750000E-04	 0.00000000E+00	 3.45870000E-04
					-1.54750000E-04	 0.00000000E+00	 3.45870000E-04
					-5.13555000E-04	 0.00000000E+00	 4.23856000E-04
					-5.13555000E-04	 0.00000000E+00	 4.23856000E-04
					-2.51028000E-04	 0.00000000E+00	 4.11689000E-04
					-2.51028000E-04	 0.00000000E+00	 4.11689000E-04
					-3.76815000E-04	 0.00000000E+00	 3.28881000E-04
					-3.76815000E-04	 0.00000000E+00	 3.28881000E-04
					-7.91016000E-04	 0.00000000E+00	 5.37847000E-04
					-7.91016000E-04	 0.00000000E+00	 5.37847000E-04
					-6.39880000E-05	 0.00000000E+00	 2.99526000E-04
					-6.39880000E-05	 0.00000000E+00	 2.99526000E-04
					-1.32471000E-04	 0.00000000E+00	 2.94347000E-04
					-1.32471000E-04	 0.00000000E+00	 2.94347000E-04
					-6.03096000E-04	 0.00000000E+00	 4.78135000E-05
					-6.03096000E-04	 0.00000000E+00	 4.78135000E-05
					-6.68225000E-04	 0.00000000E+00	 3.48906000E-04
					-6.68225000E-04	 0.00000000E+00	 3.48906000E-04
					-3.14594000E-04	 0.00000000E+00	 4.09056000E-04
					-3.14594000E-04	 0.00000000E+00	 4.09056000E-04
					-6.44738000E-04	 0.00000000E+00	 5.66643000E-04
					-6.44738000E-04	 0.00000000E+00	 5.66643000E-04
				</DataArray>
			</PointData>
		</Piece>
	</UnstructuredGrid>
</VTKFile>