<?xml version="1.0"?>
<VTKFile type="UnstructuredGrid" version="0.1" byte_order="LittleEndian">
	<UnstructuredGrid>
		<Piece NumberOfPoints="126" NumberOfCells="40">
			<Points>
				<DataArray type="Float64" NumberOfComponents="3" format="ascii">
					 5.00000000E-02	 0.00000000E+00	 0.00000000E+00
					 0.00000000E+00	 0.00000000E+00	 0.00000000E+00
					 0.00000000E+00	 0.00000000E+00	 5.00000000E-02
					 5.00000000E-02	 0.00000000E+00	 5.00000000E-02
					 5.00000000E-02	 3.00000000E-01	 0.00000000E+00
					 0.00000000E+00	 3.00000000E-01	 0.00000000E+00
					 0.00000000E+00	 3.00000000E-01	 5.00000000E-02
					 5.00000000E-02	 3.00000000E-01	 5.00000000E-02
					 0.00000000E+00	 0.00000000E+00	 1.00000000E-01
					 5.00000000E-02	 0.00000000E+00	 1.00000000E-01
					 0.00000000E+00	 3.00000000E-01	 1.00000000E-01
					 5.00000000E-02	 3.00000000E-01	 1.00000000E-01
					 0.00000000E+00	 0.00000000E+00	 1.50000000E-01
					 5.00000000E-02	 0.00000000E+00	 1.50000000E-01
					 0.00000000E+00	 3.00000000E-01	 1.50000000E-01
					 5.00000000E-02	 3.00000000E-01	 1.50000000E-01
					 0.00000000E+00	 0.00000000E+00	 2.00000000E-01
					 5.00000000E-02	 0.00000000E+00	 2.00000000E-01
					 0.00000000E+00	 3.00000000E-01	 2.00000000E-01
					 5.00000000E-02	 3.00000000E-01	 2.00000000E-01
					 0.00000000E+00	 0.00000000E+00	 2.50000000E-01
					 5.00000000E-02	 0.00000000E+00	 2.50000000E-01
					 0.00000000E+00	 3.00000000E-01	 2.50000000E-01
					 5.00000000E-02	 3.00000000E-01	 2.50000000E-01
					 0.00000000E+00	 0.00000000E+00	 3.00000000E-01
					 5.00000000E-02	 0.00000000E+00	 3.00000000E-01
					 0.00000000E+00	 3.00000000E-01	 3.00000000E-01
					 5.00000000E-02	 3.00000000E-01	 3.00000000E-01
					 0.00000000E+00	 0.00000000E+00	 3.50000000E-01
					 5.00000000E-02	 0.00000000E+00	 3.50000000E-01
					 0.00000000E+00	 3.00000000E-01	 3.50000000E-01
					 5.00000000E-02	 3.00000000E-01	 3.50000000E-01
					 0.00000000E+00	 0.00000000E+00	 4.00000000E-01
					 5.00000000E-02	 0.00000000E+00	 4.00000000E-01
					 0.00000000E+00	 3.00000000E-01	 4.00000000E-01
					 5.00000000E-02	 3.00000000E-01	 4.00000000E-01
					 0.00000000E+00	 0.00000000E+00	 4.50000000E-01
					 5.00000000E-02	 0.00000000E+00	 4.50000000E-01
					 0.00000000E+00	 3.00000000E-01	 4.50000000E-01
					 5.00000000E-02	 3.00000000E-01	 4.50000000E-01
					 0.00000000E+00	 0.00000000E+00	 5.00000000E-01
					 5.00000000E-02	 0.00000000E+00	 5.00000000E-01
					 0.00000000E+00	 3.00000000E-01	 5.00000000E-01
					 5.00000000E-02	 3.00000000E-01	 5.00000000E-01
					 0.00000000E+00	 0.00000000E+00	 5.50000000E-01
					 5.00000000E-02	 0.00000000E+00	 5.50000000E-01
					 0.00000000E+00	 3.00000000E-01	 5.50000000E-01
					 5.00000000E-02	 3.00000000E-01	 5.50000000E-01
					 0.00000000E+00	 0.00000000E+00	 6.00000000E-01
					 5.00000000E-02	 0.00000000E+00	 6.00000000E-01
					 0.00000000E+00	 3.00000000E-01	 6.00000000E-01
					 5.00000000E-02	 3.00000000E-01	 6.00000000E-01
					 0.00000000E+00	 0.00000000E+00	 6.50000000E-01
					 5.00000000E-02	 0.00000000E+00	 6.50000000E-01
					 0.00000000E+00	 3.00000000E-01	 6.50000000E-01
					 5.00000000E-02	 3.00000000E-01	 6.50000000E-01
					 0.00000000E+00	 0.00000000E+00	 7.00000000E-01
					 5.00000000E-02	 0.00000000E+00	 7.00000000E-01
					 0.00000000E+00	 3.00000000E-01	 7.00000000E-01
					 5.00000000E-02	 3.00000000E-01	 7.00000000E-01
					 0.00000000E+00	 0.00000000E+00	 7.50000000E-01
					 5.00000000E-02	 0.00000000E+00	 7.50000000E-01
					 0.00000000E+00	 3.00000000E-01	 7.50000000E-01
					 5.00000000E-02	 3.00000000E-01	 7.50000000E-01
					 0.00000000E+00	 0.00000000E+00	 8.00000000E-01
					 5.00000000E-02	 0.00000000E+00	 8.00000000E-01
					 0.00000000E+00	 3.00000000E-01	 8.00000000E-01
					 5.00000000E-02	 3.00000000E-01	 8.00000000E-01
					 0.00000000E+00	 0.00000000E+00	 8.50000000E-01
					 5.00000000E-02	 0.00000000E+00	 8.50000000E-01
					 0.00000000E+00	 3.00000000E-01	 8.50000000E-01
					 5.00000000E-02	 3.00000000E-01	 8.50000000E-01
					 0.00000000E+00	 0.00000000E+00	 9.00000000E-01
					 5.00000000E-02	 0.00000000E+00	 9.00000000E-01
					 0.00000000E+00	 3.00000000E-01	 9.00000000E-01
					 5.00000000E-02	 3.00000000E-01	 9.00000000E-01
					 0.00000000E+00	 0.00000000E+00	 9.50000000E-01
					 5.00000000E-02	 0.00000000E+00	 9.50000000E-01
					 0.00000000E+00	 3.00000000E-01	 9.50000000E-01
					 5.00000000E-02	 3.00000000E-01	 9.50000000E-01
					 0.00000000E+00	 0.00000000E+00	 1.00000000E+00
					 5.00000000E-02	 0.00000000E+00	 1.00000000E+00
					 0.00000000E+00	 3.00000000E-01	 1.00000000E+00
					 5.00000000E-02	 3.00000000E-01	 1.00000000E+00
					-5.00000000E-02	 0.00000000E+00	 0.00000000E+00
					-5.00000000E-02	 0.00000000E+00	 5.00000000E-02
					-5.00000000E-02	 3.00000000E-01	 0.00000000E+00
					-5.00000000E-02	 3.00000000E-01	 5.00000000E-02
					-5.00000000E-02	 0.00000000E+00	 1.00000000E-01
					-5.00000000E-02	 3.00000000E-01	 1.00000000E-01
					-5.00000000E-02	 0.00000000E+00	 1.50000000E-01
					-5.00000000E-02	 3.00000000E-01	 1.50000000E-01
					-5.00000000E-02	 0.00000000E+00	 2.00000000E-01
					-5.00000000E-02	 3.00000000E-01	 2.00000000E-01
					-5.00000000E-02	 0.00000000E+00	 2.50000000E-01
					-5.00000000E-02	 3.00000000E-01	 2.50000000E-01
					-5.00000000E-02	 0.00000000E+00	 3.00000000E-01
					-5.00000000E-02	 3.00000000E-01	 3.00000000E-01
					-5.00000000E-02	 0.00000000E+00	 3.50000000E-01
					-5.00000000E-02	 3.00000000E-01	 3.50000000E-01
					-5.00000000E-02	 0.00000000E+00	 4.00000000E-01
					-5.00000000E-02	 3.00000000E-01	 4.00000000E-01
					-5.00000000E-02	 0.00000000E+00	 4.50000000E-01
					-5.00000000E-02	 3.00000000E-01	 4.50000000E-01
					-5.00000000E-02	 0.00000000E+00	 5.00000000E-01
					-5.00000000E-02	 3.00000000E-01	 5.00000000E-01
					-5.00000000E-02	 0.00000000E+00	 5.50000000E-01
					-5.00000000E-02	 3.00000000E-01	 5.50000000E-01
					-5.00000000E-02	 0.00000000E+00	 6.00000000E-01
					-5.00000000E-02	 3.00000000E-01	 6.00000000E-01
					-5.00000000E-02	 0.00000000E+00	 6.50000000E-01
					-5.00000000E-02	 3.00000000E-01	 6.50000000E-01
					-5.00000000E-02	 0.00000000E+00	 7.00000000E-01
					-5.00000000E-02	 3.00000000E-01	 7.00000000E-01
					-5.00000000E-02	 0.00000000E+00	 7.50000000E-01
					-5.00000000E-02	 3.00000000E-01	 7.50000000E-01
					-5.00000000E-02	 0.00000000E+00	 8.00000000E-01
					-5.00000000E-02	 3.00000000E-01	 8.00000000E-01
					-5.00000000E-02	 0.00000000E+00	 8.50000000E-01
					-5.00000000E-02	 3.00000000E-01	 8.50000000E-01
					-5.00000000E-02	 0.00000000E+00	 9.00000000E-01
					-5.00000000E-02	 3.00000000E-01	 9.00000000E-01
					-5.00000000E-02	 0.00000000E+00	 9.50000000E-01
					-5.00000000E-02	 3.00000000E-01	 9.50000000E-01
					-5.00000000E-02	 0.00000000E+00	 1.00000000E+00
					-5.00000000E-02	 3.00000000E-01	 1.00000000E+00
				</DataArray>
			</Points>
			<Cells>
				<DataArray type="Int32" Name="connectivity" format="ascii">
					0 1 2 3 4 5 6 7 3 2 8 9 7 6 10 11 9 8 12 13 11 10 14 15 13 12 16 17 15 14 18 19 17 16 20 21 19 18 22 23 21 20 24 25 23 22 26 27 25 24 28 29 27 26 30 31 29 28 32 33 31 30 34 35 33 32 36 37 35 34 38 39 37 36 40 41 39 38 42 43 41 40 44 45 43 42 46 47 45 44 48 49 47 46 50 51 49 48 52 53 51 50 54 55 53 52 56 57 55 54 58 59 57 56 60 61 59 58 62 63 61 60 64 65 63 62 66 67 65 64 68 69 67 66 70 71 69 68 72 73 71 70 74 75 73 72 76 77 75 74 78 79 77 76 80 81 79 78 82 83 1 84 85 2 5 86 87 6 2 85 88 8 6 87 89 10 8 88 90 12 10 89 91 14 12 90 92 16 14 91 93 18 16 92 94 20 18 93 95 22 20 94 96 24 22 95 97 26 24 96 98 28 26 97 99 30 28 98 100 32 30 99 101 34 32 100 102 36 34 101 103 38 36 102 104 40 38 103 105 42 40 104 106 44 42 105 107 46 44 106 108 48 46 107 109 50 48 108 110 52 50 109 111 54 52 110 112 56 54 111 113 58 56 112 114 60 58 113 115 62 60 114 116 64 62 115 117 66 64 116 118 68 66 117 119 70 68 118 120 72 70 119 121 74 72 120 122 76 74 121 123 78 76 122 124 80 78 123 125 82 
				</DataArray>
				<DataArray type="Int32" Name="offsets" format="ascii">
					8 16 24 32 40 48 56 64 72 80 88 96 104 112 120 128 136 144 152 160 168 176 184 192 200 208 216 224 232 240 248 256 264 272 280 288 296 304 312 320 
				</DataArray>
				<DataArray type="UInt8" Name="types" format="ascii">
					12 12 12 12 12 12 12 12 12 12 12 12 12 12 12 12 12 12 12 12 12 12 12 12 12 12 12 12 12 12 12 12 12 12 12 12 12 12 12 12 
				</DataArray>
			</Cells>
			<PointData>
				<DataArray type="Float32" Name="U" NumberOfComponents="3" ComponentName0="D1" ComponentName1="D2" ComponentName2="D3" format="ascii">
					 0.00000000E+00	 0.00000000E+00	 0.00000000E+00
					 0.00000000E+00	 0.00000000E+00	 0.00000000E+00
					 2.83714000E-04	 0.00000000E+00	 3.30641000E-04
					 4.77768000E-04	 0.00000000E+00	-6.80378000E-04
					 0.00000000E+00	 0.00000000E+00	 0.00000000E+00
					 0.00000000E+00	 0.00000000E+00	 0.00000000E+00
					 2.83714000E-04	 0.00000000E+00	 3.30641000E-04
					 4.77768000E-04	 0.00000000E+00	-6.80378000E-04
					 6.41367000E-04	 0.00000000E+00	 6.09668000E-04
					 1.16663000E-03	 0.00000000E+00	-3.33584000E-04
					 6.41367000E-04	 0.00000000E+00	 6.09668000E-04
					 1.16663000E-03	 0.00000000E+00	-3.33584000E-04
					 9.43877000E-04	 0.00000000E+00	 9.76871000E-04
					 2.16157000E-03	 0.00000000E+00	-8.35991000E-05
					 9.43877000E-04	 0.00000000E+00	 9.76871000E-04
					 2.16157000E-03	 0.00000000E+00	-8.35991000E-05
					 1.16108000E-03	 0.00000000E+00	 3.02559000E-04
					 2.18224000E-03	 0.00000000E+00	 1.08588000E-04
					 1.16108000E-03	 0.00000000E+00	 3.02559000E-04
					 2.18224000E-03	 0.00000000E+00	 1.08588000E-04
					 1.29347000E-03	 0.00000000E+00	 4.88728000E-04
					 2.31342000E-03	 0.00000000E+00	 3.03658000E-04
					 1.29347000E-03	 0.00000000E+00	 4.88728000E-04
					 2.31342000E-03	 0.00000000E+00	 3.03658000E-04
					 1.34260000E-03	 0.00000000E+00	 6.57984000E-04
					 2.63657000E-03	 0.00000000E+00	 5.39452000E-04
					 1.34260000E-03	 0.00000000E+00	 6.57984000E-04
					 2.63657000E-03	 0.00000000E+00	 5.39452000E-04
					 1.30288000E-03	 0.00000000E+00	 4.63218000E-04
					 1.97964000E-03	 0.00000000E+00	 3.41771000E-04
					 1.30288000E-03	 0.00000000E+00	 4.63218000E-04
					 1.97964000E-03	 0.00000000E+00	 3.41771000E-04
					 1.23803000E-03	 0.00000000E+00	 6.21921000E-04
					 2.03064000E-03	 0.00000000E+00	 2.23626000E-04
					 1.23803000E-03	 0.00000000E+00	 6.21921000E-04
					 2.03064000E-03	 0.00000000E+00	 2.23626000E-04
					 1.16330000E-03	 0.00000000E+00	 7.54663000E-04
					 2.13713000E-03	 0.00000000E+00	 4.03965000E-04
					 1.16330000E-03	 0.00000000E+00	 7.54663000E-04
					 2.13713000E-03	 0.00000000E+00	 4.03965000E-04
					 1.09028000E-03	 0.00000000E+00	 3.51318000E-04
					 2.38987000E-03	 0.00000000E+00	 3.77278000E-04
					 1.09028000E-03	 0.00000000E+00	 3.51318000E-04
					 2.38987000E-03	 0.00000000E+00	 3.77278000E-04
					 1.02482000E-03	 0.00000000E+00	 3.54943000E-04
					 2.01316000E-03	 0.00000000E+00	 9.44582000E-04
					 1.02482000E-03	 0.00000000E+00	 3.54943000E-04
					 2.01316000E-03	 0.00000000E+00	 9.44582000E-04
					 9.60351000E-04	 0.00000000E+00	 3.80330000E-04
					 1.95023000E-03	 0.00000000E+00	 7.87362000E-04
					 9.60351000E-04	 0.00000000E+00	 3.80330000E-04
					 1.95023000E-03	 0.00000000E+00	 7.87362000E-04
					 9.09255000E-04	 0.00000000E+00	 3.55668000E-04
					 1.74513000E-03	 0.00000000E+00	 7.22493000E-04
					 9.09255000E-04	 0.00000000E+00	 3.55668000E-04
					 1.74513000E-03	 0.00000000E+00	 7.22493000E-04
					 8.47659000E-04	 0.00000000E+00	 5.03325000E-04
					 1.71382000E-03	 0.00000000E+00	 4.71758000E-04
					 8.47659000E-04	 0.00000000E+00	 5.03325000E-04
					 1.71382000E-03	 0.00000000E+00	 4.71758000E-04
					 7.64482000E-04	 0.00000000E+00	 5.37926000E-04
					 1.92220000E-03	 0.00000000E+00	 7.32976000E-04
					 7.64482000E-04	 0.00000000E+00	 5.37926000E-04
					 1.92220000E-03	 0.00000000E+00	 7.32976000E-04
					 6.55212000E-04	 0.00000000E+00	 3.96926000E-04
					 1.86043000E-03	 0.00000000E+00	 7.01474000E-04
					 6.55212000E-04	 0.00000000E+00	 3.96926000E-04
					 1.86043000E-03	 0.00000000E+00	 7.01474000E-04
					 5.58632000E-04	 0.00000000E+00	 4.00983000E-04
					 1.43718000E-03	 0.00000000E+00	 1.00130000E-03
					 5.58632000E-04	 0.00000000E+00	 4.00983000E-04
					 1.43718000E-03	 0.00000000E+00	 1.00130000E-03
					 4.66023000E-04	 0.00000000E+00	 3.92492000E-04
					 1.40471000E-03	 0.00000000E+00	 9.52307000E-04
					 4.66023000E-04	 0.00000000E+00	 3.92492000E-04
					 1.40471000E-03	 0.00000000E+00	 9.52307000E-04
					 3.64499000E-04	 0.00000000E+00	 4.78617000E-04
					 8.41546000E-04	 0.00000000E+00	 1.16565000E-03
					 3.64499000E-04	 0.00000000E+00	 4.78617000E-04
					 8.41546000E-04	 0.00000000E+00	 1.16565000E-03
					 2.59336000E-04	 0.00000000E+00	 4.73446000E-04
					 3.82194000E-04	 0.00000000E+00	 9.51274000E-04
					 2.59336000E-04	 0.00000000E+00	 4.73446000E-04
					 3.82194000E-04	 0.00000000E+00	 9.51274000E-04
					 0.00000000E+00	 0.00000000E+00	 0.00000000E+00
					 1.88727000E-04	 0.00000000E+00	-2.97056000E-04
					 0.00000000E+00	 0.00000000E+00	 0.00000000E+00
					 1.88727000E-04	 0.00000000E+00	-2.97056000E-04
					 1.37108000E-04	 0.00000000E+00	 1.63145000E-04
					 1.37108000E-04	 0.00000000E+00	 1.63145000E-04
					-2.59468000E-04	 0.00000000E+00	 3.67708000E-04
					-2.59468000E-04	 0.00000000E+00	 3.67708000E-04
					 1.48312000E-04	 0.00000000E+00	 4.35500000E-04
					 1.48312000E-04	 0.00000000E+00	 4.35500000E-04
					 2.69986000E-04	 0.00000000E+00	 4.93090000E-04
					 2.69986000E-04	 0.00000000E+00	 4.93090000E-04
					 4.00466000E-05	 0.00000000E+00	 5.81475000E-04
					 4.00466000E-05	 0.00000000E+00	 5.81475000E-04
					 6.48126000E-04	 0.00000000E+00	 2.74191000E-04
					 6.48126000E-04	 0.00000000E+00	 2.74191000E-04
					 4.71367000E-04	 0.00000000E+00	 1.15910000E-04
					 4.71367000E-04	 0.00000000E+00	 1.15910000E-04
					 2.17718000E-04	 0.00000000E+00	 2.74679000E-04
					 2.17718000E-04	 0.00000000E+00	 2.74679000E-04
					-1.78261000E-04	 0.00000000E+00	 2.49226000E-04
					-1.78261000E-04	 0.00000000E+00	 2.49226000E-04
					 6.02795000E-05	 0.00000000E+00	 8.11975000E-04
					 6.02795000E-05	 0.00000000E+00	 8.11975000E-04
					 2.14430000E-06	 0.00000000E+00	 6.69772000E-04
					 2.14430000E-06	 0.00000000E+00	 6.69772000E-04
					 1.10568000E-04	 0.00000000E+00	 5.94172000E-04
					 1.10568000E-04	 0.00000000E+00	 5.94172000E-04
					-1.32564000E-06	 0.00000000E+00	 3.21140000E-04
					-1.32564000E-06	 0.00000000E+00	 3.21140000E-04
					-3.85480000E-04	 0.00000000E+00	 5.56361000E-04
					-3.85480000E-04	 0.00000000E+00	 5.56361000E-04
					-5.05108000E-04	 0.00000000E+00	 5.13670000E-04
					-5.05108000E-04	 0.00000000E+00	 5.13670000E-04
					-2.73456000E-04	 0.00000000E+00	 8.10941000E-04
					-2.73456000E-04	 0.00000000E+00	 8.10941000E-04
					-4.32152000E-04	 0.00000000E+00	 7.57059000E-04
					-4.32152000E-04	 0.00000000E+00	 7.57059000E-04
					-9.92637000E-05	 0.00000000E+00	 9.63694000E-04
					-9.92637000E-05	 0.00000000E+00	 9.63694000E-04
					 1.41201000E-04	 0.00000000E+00	 7.50271000E-04
					 1.41201000E-04	 0.00000000E+00	 7.50271000E-04
				</DataArray>
			</PointData>
		</Piece>
	</UnstructuredGrid>
</VTKFile>