<?xml version="1.0"?>
<VTKFile type="UnstructuredGrid" version="0.1" byte_order="LittleEndian">
	<UnstructuredGrid>
		<Piece NumberOfPoints="126" NumberOfCells="40">
			<Points>
				<DataArray type="Float64" NumberOfComponents="3" format="ascii">
					 5.00000000E-02	 0.00000000E+00	 0.00000000E+00
					 0.00000000E+00	 0.00000000E+00	 0.00000000E+00
					 0.00000000E+00	 0.00000000E+00	 5.00000000E-02
					 5.00000000E-02	 0.00000000E+00	 5.00000000E-02
					 5.00000000E-02	 3.00000000E-01	 0.00000000E+00
					 0.00000000E+00	 3.00000000E-01	 0.00000000E+00
					 0.00000000E+00	 3.00000000E-01	 5.00000000E-02
					 5.00000000E-02	 3.00000000E-01	 5.00000000E-02
					 0.00000000E+00	 0.00000000E+00	 1.00000000E-01
					 5.00000000E-02	 0.00000000E+00	 1.00000000E-01
					 0.00000000E+00	 3.00000000E-01	 1.00000000E-01
					 5.00000000E-02	 3.00000000E-01	 1.00000000E-01
					 0.00000000E+00	 0.00000000E+00	 1.50000000E-01
					 5.00000000E-02	 0.00000000E+00	 1.50000000E-01
					 0.00000000E+00	 3.00000000E-01	 1.50000000E-01
					 5.00000000E-02	 3.00000000E-01	 1.50000000E-01
					 0.00000000E+00	 0.00000000E+00	 2.00000000E-01
					 5.00000000E-02	 0.00000000E+00	 2.00000000E-01
					 0.00000000E+00	 3.00000000E-01	 2.00000000E-01
					 5.00000000E-02	 3.00000000E-01	 2.00000000E-01
					 0.00000000E+00	 0.00000000E+00	 2.50000000E-01
					 5.00000000E-02	 0.00000000E+00	 2.50000000E-01
					 0.00000000E+00	 3.00000000E-01	 2.50000000E-01
					 5.00000000E-02	 3.00000000E-01	 2.50000000E-01
					 0.00000000E+00	 0.00000000E+00	 3.00000000E-01
					 5.00000000E-02	 0.00000000E+00	 3.00000000E-01
					 0.00000000E+00	 3.00000000E-01	 3.00000000E-01
					 5.00000000E-02	 3.00000000E-01	 3.00000000E-01
					 0.00000000E+00	 0.00000000E+00	 3.50000000E-01
					 5.00000000E-02	 0.00000000E+00	 3.50000000E-01
					 0.00000000E+00	 3.00000000E-01	 3.50000000E-01
					 5.00000000E-02	 3.00000000E-01	 3.50000000E-01
					 0.00000000E+00	 0.00000000E+00	 4.00000000E-01
					 5.00000000E-02	 0.00000000E+00	 4.00000000E-01
					 0.00000000E+00	 3.00000000E-01	 4.00000000E-01
					 5.00000000E-02	 3.00000000E-01	 4.00000000E-01
					 0.00000000E+00	 0.00000000E+00	 4.50000000E-01
					 5.00000000E-02	 0.00000000E+00	 4.50000000E-01
					 0.00000000E+00	 3.00000000E-01	 4.50000000E-01
					 5.00000000E-02	 3.00000000E-01	 4.50000000E-01
					 0.00000000E+00	 0.00000000E+00	 5.00000000E-01
					 5.00000000E-02	 0.00000000E+00	 5.00000000E-01
					 0.00000000E+00	 3.00000000E-01	 5.00000000E-01
					 5.00000000E-02	 3.00000000E-01	 5.00000000E-01
					 0.00000000E+00	 0.00000000E+00	 5.50000000E-01
					 5.00000000E-02	 0.00000000E+00	 5.50000000E-01
					 0.00000000E+00	 3.00000000E-01	 5.50000000E-01
					 5.00000000E-02	 3.00000000E-01	 5.50000000E-01
					 0.00000000E+00	 0.00000000E+00	 6.00000000E-01
					 5.00000000E-02	 0.00000000E+00	 6.00000000E-01
					 0.00000000E+00	 3.00000000E-01	 6.00000000E-01
					 5.00000000E-02	 3.00000000E-01	 6.00000000E-01
					 0.00000000E+00	 0.00000000E+00	 6.50000000E-01
					 5.00000000E-02	 0.00000000E+00	 6.50000000E-01
					 0.00000000E+00	 3.00000000E-01	 6.50000000E-01
					 5.00000000E-02	 3.00000000E-01	 6.50000000E-01
					 0.00000000E+00	 0.00000000E+00	 7.00000000E-01
					 5.00000000E-02	 0.00000000E+00	 7.00000000E-01
					 0.00000000E+00	 3.00000000E-01	 7.00000000E-01
					 5.00000000E-02	 3.00000000E-01	 7.00000000E-01
					 0.00000000E+00	 0.00000000E+00	 7.50000000E-01
					 5.00000000E-02	 0.00000000E+00	 7.50000000E-01
					 0.00000000E+00	 3.00000000E-01	 7.50000000E-01
					 5.00000000E-02	 3.00000000E-01	 7.50000000E-01
					 0.00000000E+00	 0.00000000E+00	 8.00000000E-01
					 5.00000000E-02	 0.00000000E+00	 8.00000000E-01
					 0.00000000E+00	 3.00000000E-01	 8.00000000E-01
					 5.00000000E-02	 3.00000000E-01	 8.00000000E-01
					 0.00000000E+00	 0.00000000E+00	 8.50000000E-01
					 5.00000000E-02	 0.00000000E+00	 8.50000000E-01
					 0.00000000E+00	 3.00000000E-01	 8.50000000E-01
					 5.00000000E-02	 3.00000000E-01	 8.50000000E-01
					 0.00000000E+00	 0.00000000E+00	 9.00000000E-01
					 5.00000000E-02	 0.00000000E+00	 9.00000000E-01
					 0.00000000E+00	 3.00000000E-01	 9.00000000E-01
					 5.00000000E-02	 3.00000000E-01	 9.00000000E-01
					 0.00000000E+00	 0.00000000E+00	 9.50000000E-01
					 5.00000000E-02	 0.00000000E+00	 9.50000000E-01
					 0.00000000E+00	 3.00000000E-01	 9.50000000E-01
					 5.00000000E-02	 3.00000000E-01	 9.50000000E-01
					 0.00000000E+00	 0.00000000E+00	 1.00000000E+00
					 5.00000000E-02	 0.00000000E+00	 1.00000000E+00
					 0.00000000E+00	 3.00000000E-01	 1.00000000E+00
					 5.00000000E-02	 3.00000000E-01	 1.00000000E+00
					-5.00000000E-02	 0.00000000E+00	 0.00000000E+00
					-5.00000000E-02	 0.00000000E+00	 5.00000000E-02
					-5.00000000E-02	 3.00000000E-01	 0.00000000E+00
					-5.00000000E-02	 3.00000000E-01	 5.00000000E-02
					-5.00000000E-02	 0.00000000E+00	 1.00000000E-01
					-5.00000000E-02	 3.00000000E-01	 1.00000000E-01
					-5.00000000E-02	 0.00000000E+00	 1.50000000E-01
					-5.00000000E-02	 3.00000000E-01	 1.50000000E-01
					-5.00000000E-02	 0.00000000E+00	 2.00000000E-01
					-5.00000000E-02	 3.00000000E-01	 2.00000000E-01
					-5.00000000E-02	 0.00000000E+00	 2.50000000E-01
					-5.00000000E-02	 3.00000000E-01	 2.50000000E-01
					-5.00000000E-02	 0.00000000E+00	 3.00000000E-01
					-5.00000000E-02	 3.00000000E-01	 3.00000000E-01
					-5.00000000E-02	 0.00000000E+00	 3.50000000E-01
					-5.00000000E-02	 3.00000000E-01	 3.50000000E-01
					-5.00000000E-02	 0.00000000E+00	 4.00000000E-01
					-5.00000000E-02	 3.00000000E-01	 4.00000000E-01
					-5.00000000E-02	 0.00000000E+00	 4.50000000E-01
					-5.00000000E-02	 3.00000000E-01	 4.50000000E-01
					-5.00000000E-02	 0.00000000E+00	 5.00000000E-01
					-5.00000000E-02	 3.00000000E-01	 5.00000000E-01
					-5.00000000E-02	 0.00000000E+00	 5.50000000E-01
					-5.00000000E-02	 3.00000000E-01	 5.50000000E-01
					-5.00000000E-02	 0.00000000E+00	 6.00000000E-01
					-5.00000000E-02	 3.00000000E-01	 6.00000000E-01
					-5.00000000E-02	 0.00000000E+00	 6.50000000E-01
					-5.00000000E-02	 3.00000000E-01	 6.50000000E-01
					-5.00000000E-02	 0.00000000E+00	 7.00000000E-01
					-5.00000000E-02	 3.00000000E-01	 7.00000000E-01
					-5.00000000E-02	 0.00000000E+00	 7.50000000E-01
					-5.00000000E-02	 3.00000000E-01	 7.50000000E-01
					-5.00000000E-02	 0.00000000E+00	 8.00000000E-01
					-5.00000000E-02	 3.00000000E-01	 8.00000000E-01
					-5.00000000E-02	 0.00000000E+00	 8.50000000E-01
					-5.00000000E-02	 3.00000000E-01	 8.50000000E-01
					-5.00000000E-02	 0.00000000E+00	 9.00000000E-01
					-5.00000000E-02	 3.00000000E-01	 9.00000000E-01
					-5.00000000E-02	 0.00000000E+00	 9.50000000E-01
					-5.00000000E-02	 3.00000000E-01	 9.50000000E-01
					-5.00000000E-02	 0.00000000E+00	 1.00000000E+00
					-5.00000000E-02	 3.00000000E-01	 1.00000000E+00
				</DataArray>
			</Points>
			<Cells>
				<DataArray type="Int32" Name="connectivity" format="ascii">
					0 1 2 3 4 5 6 7 3 2 8 9 7 6 10 11 9 8 12 13 11 10 14 15 13 12 16 17 15 14 18 19 17 16 20 21 19 18 22 23 21 20 24 25 23 22 26 27 25 24 28 29 27 26 30 31 29 28 32 33 31 30 34 35 33 32 36 37 35 34 38 39 37 36 40 41 39 38 42 43 41 40 44 45 43 42 46 47 45 44 48 49 47 46 50 51 49 48 52 53 51 50 54 55 53 52 56 57 55 54 58 59 57 56 60 61 59 58 62 63 61 60 64 65 63 62 66 67 65 64 68 69 67 66 70 71 69 68 72 73 71 70 74 75 73 72 76 77 75 74 78 79 77 76 80 81 79 78 82 83 1 84 85 2 5 86 87 6 2 85 88 8 6 87 89 10 8 88 90 12 10 89 91 14 12 90 92 16 14 91 93 18 16 92 94 20 18 93 95 22 20 94 96 24 22 95 97 26 24 96 98 28 26 97 99 30 28 98 100 32 30 99 101 34 32 100 102 36 34 101 103 38 36 102 104 40 38 103 105 42 40 104 106 44 42 105 107 46 44 106 108 48 46 107 109 50 48 108 110 52 50 109 111 54 52 110 112 56 54 111 113 58 56 112 114 60 58 113 115 62 60 114 116 64 62 115 117 66 64 116 118 68 66 117 119 70 68 118 120 72 70 119 121 74 72 120 122 76 74 121 123 78 76 122 124 80 78 123 125 82 
				</DataArray>
				<DataArray type="Int32" Name="offsets" format="ascii">
					8 16 24 32 40 48 56 64 72 80 88 96 104 112 120 128 136 144 152 160 168 176 184 192 200 208 216 224 232 240 248 256 264 272 280 288 296 304 312 320 
				</DataArray>
				<DataArray type="UInt8" Name="types" format="ascii">
					12 12 12 12 12 12 12 12 12 12 12 12 12 12 12 12 12 12 12 12 12 12 12 12 12 12 12 12 12 12 12 12 12 12 12 12 12 12 12 12 
				</DataArray>
			</Cells>
			<PointData>
				<DataArray type="Float32" Name="U" NumberOfComponents="3" ComponentName0="D1" ComponentName1="D2" ComponentName2="D3" format="ascii">
					 0.00000000E+00	 0.00000000E+00	 0.00000000E+00
					 0.00000000E+00	 0.00000000E+00	 0.00000000E+00
					 4.27207000E-02	 0.00000000E+00	-1.91055000E-02
					 2.38393000E-02	 0.00000000E+00	-4.15550000E-03
					 0.00000000E+00	 0.00000000E+00	 0.00000000E+00
					 0.00000000E+00	 0.00000000E+00	 0.00000000E+00
					 4.27207000E-02	 0.00000000E+00	-1.91055000E-02
					 2.38393000E-02	 0.00000000E+00	-4.15550000E-03
					 5.48439000E-02	 0.00000000E+00	-9.80735000E-03
					 5.46006000E-02	 0.00000000E+00	-3.41876000E-02
					 5.48439000E-02	 0.00000000E+00	-9.80735000E-03
					 5.46006000E-02	 0.00000000E+00	-3.41876000E-02
					 7.47160000E-02	 0.00000000E+00	-1.77738000E-02
					 7.18275000E-02	 0.00000000E+00	-2.82600000E-02
					 7.47160000E-02	 0.00000000E+00	-1.77738000E-02
					 7.18275000E-02	 0.00000000E+00	-2.82600000E-02
					 1.20457000E-01	 0.00000000E+00	-4.72103000E-02
					 7.09346000E-02	 0.00000000E+00	-1.26260000E-02
					 1.20457000E-01	 0.00000000E+00	-4.72103000E-02
					 7.09346000E-02	 0.00000000E+00	-1.26260000E-02
					 1.36898000E-01	 0.00000000E+00	-4.48233000E-02
					 1.18131000E-01	 0.00000000E+00	-2.27507000E-02
					 1.36898000E-01	 0.00000000E+00	-4.48233000E-02
					 1.18131000E-01	 0.00000000E+00	-2.27507000E-02
					 1.78085000E-01	 0.00000000E+00	-4.61030000E-02
					 8.79302000E-02	 0.00000000E+00	-1.73438000E-02
					 1.78085000E-01	 0.00000000E+00	-4.61030000E-02
					 8.79302000E-02	 0.00000000E+00	-1.73438000E-02
					 1.70341000E-01	 0.00000000E+00	-3.81055000E-02
					 9.08598000E-02	 0.00000000E+00	-3.17979000E-02
					 1.70341000E-01	 0.00000000E+00	-3.81055000E-02
					 9.08598000E-02	 0.00000000E+00	-3.17979000E-02
					 1.90668000E-01	 0.00000000E+00	-3.32398000E-02
					 8.43275000E-02	 0.00000000E+00	-5.76061000E-02
					 1.90668000E-01	 0.00000000E+00	-3.32398000E-02
					 8.43275000E-02	 0.00000000E+00	-5.76061000E-02
					 1.81312000E-01	 0.00000000E+00	-3.63818000E-02
					 8.08627000E-02	 0.00000000E+00	-4.18296000E-02
					 1.81312000E-01	 0.00000000E+00	-3.63818000E-02
					 8.08627000E-02	 0.00000000E+00	-4.18296000E-02
					 1.40081000E-01	 0.00000000E+00	-4.26838000E-02
					 4.63773000E-02	 0.00000000E+00	-6.63320000E-02
					 1.40081000E-01	 0.00000000E+00	-4.26838000E-02
					 4.63773000E-02	 0.00000000E+00	-6.63320000E-02
					 1.08664000E-01	 0.00000000E+00	-5.76073000E-02
					 1.38996000E-02	 0.00000000E+00	-6.81166000E-02
					 1.08664000E-01	 0.00000000E+00	-5.76073000E-02
					 1.38996000E-02	 0.00000000E+00	-6.81166000E-02
					 7.87140000E-02	 0.00000000E+00	-5.59650000E-02
					-6.97210000E-03	 0.00000000E+00	-5.93171000E-02
					 7.87140000E-02	 0.00000000E+00	-5.59650000E-02
					-6.97210000E-03	 0.00000000E+00	-5.93171000E-02
					 5.99945000E-02	 0.00000000E+00	-4.56459000E-02
					-3.82324000E-02	 0.00000000E+00	-7.44279000E-02
					 5.99945000E-02	 0.00000000E+00	-4.56459000E-02
					-3.82324000E-02	 0.00000000E+00	-7.44279000E-02
					 1.34908000E-02	 0.00000000E+00	-6.93461000E-02
					-1.20356000E-02	 0.00000000E+00	-6.66189000E-02
					 1.34908000E-02	 0.00000000E+00	-6.93461000E-02
					-1.20356000E-02	 0.00000000E+00	-6.66189000E-02
					 2.93637000E-03	 0.00000000E+00	-5.13180000E-02
					-1.52158000E-02	 0.00000000E+00	-4.56642000E-02
					 2.93637000E-03	 0.00000000E+00	-5.13180000E-02
					-1.52158000E-02	 0.00000000E+00	-4.56642000E-02
					 2.55483000E-02	 0.00000000E+00	-5.34306000E-02
					 2.40537000E-02	 0.00000000E+00	-6.07364000E-02
					 2.55483000E-02	 0.00000000E+00	-5.34306000E-02
					 2.40537000E-02	 0.00000000E+00	-6.07364000E-02
					 5.02021000E-02	 0.00000000E+00	-4.51374000E-02
					 3.65510000E-02	 0.00000000E+00	-5.72606000E-02
					 5.02021000E-02	 0.00000000E+00	-4.51374000E-02
					 3.65510000E-02	 0.00000000E+00	-5.72606000E-02
					 3.16638000E-02	 0.00000000E+00	-4.32335000E-02
					 2.99169000E-02	 0.00000000E+00	-5.14212000E-02
					 3.16638000E-02	 0.00000000E+00	-4.32335000E-02
					 2.99169000E-02	 0.00000000E+00	-5.14212000E-02
					 2.86768000E-02	 0.00000000E+00	-4.94032000E-02
					 3.56173000E-02	 0.00000000E+00	-4.88744000E-02
					 2.86768000E-02	 0.00000000E+00	-4.94032000E-02
					 3.56173000E-02	 0.00000000E+00	-4.88744000E-02
					 3.25466000E-02	 0.00000000E+00	-4.04849000E-02
					 2.97039000E-02	 0.00000000E+00	-5.87982000E-02
					 3.25466000E-02	 0.00000000E+00	-4.04849000E-02
					 2.97039000E-02	 0.00000000E+00	-5.87982000E-02
					 0.00000000E+00	 0.00000000E+00	 0.00000000E+00
					 4.17797000E-02	 0.00000000E+00	 5.46212000E-03
					 0.00000000E+00	 0.00000000E+00	 0.00000000E+00
					 4.17797000E-02	 0.00000000E+00	 5.46211000E-03
					 5.73026000E-02	 0.00000000E+00	-4.44838000E-03
					 5.73026000E-02	 0.00000000E+00	-4.44838000E-03
					 1.30675000E-01	 0.00000000E+00	-5.40145000E-02
					 1.30675000E-01	 0.00000000E+00	-5.40145000E-02
					 1.86046000E-01	 0.00000000E+00	-4.89146000E-02
					 1.86046000E-01	 0.00000000E+00	-4.89146000E-02
					 2.18944000E-01	 0.00000000E+00	-6.89388000E-02
					 2.18944000E-01	 0.00000000E+00	-6.89388000E-02
					 2.42512000E-01	 0.00000000E+00	-4.71320000E-02
					 2.42512000E-01	 0.00000000E+00	-4.71320000E-02
					 2.76826000E-01	 0.00000000E+00	-5.08061000E-02
					 2.76826000E-01	 0.00000000E+00	-5.08061000E-02
					 2.75267000E-01	 0.00000000E+00	-2.99551000E-02
					 2.75267000E-01	 0.00000000E+00	-2.99551000E-02
					 2.75937000E-01	 0.00000000E+00	-1.48503000E-02
					 2.75937000E-01	 0.00000000E+00	-1.48503000E-02
					 2.29905000E-01	 0.00000000E+00	-2.61192000E-02
					 2.29905000E-01	 0.00000000E+00	-2.61192000E-02
					 1.86973000E-01	 0.00000000E+00	-1.86056000E-02
					 1.86973000E-01	 0.00000000E+00	-1.86056000E-02
					 1.57256000E-01	 0.00000000E+00	-5.15475000E-02
					 1.57256000E-01	 0.00000000E+00	-5.15475000E-02
					 1.44680000E-01	 0.00000000E+00	-2.81091000E-02
					 1.44680000E-01	 0.00000000E+00	-2.81091000E-02
					 6.76785000E-02	 0.00000000E+00	-6.55318000E-02
					 6.76785000E-02	 0.00000000E+00	-6.55318000E-02
					 9.14146000E-02	 0.00000000E+00	-6.30892000E-02
					 9.14146000E-02	 0.00000000E+00	-6.30892000E-02
					 9.81221000E-02	 0.00000000E+00	-5.65315000E-02
					 9.81221000E-02	 0.00000000E+00	-5.65315000E-02
					 5.55281000E-02	 0.00000000E+00	-6.59686000E-02
					 5.55281000E-02	 0.00000000E+00	-6.59686000E-02
					 4.21309000E-02	 0.00000000E+00	-6.06709000E-02
					 4.21309000E-02	 0.00000000E+00	-6.06709000E-02
					 2.15383000E-02	 0.00000000E+00	-5.34673000E-02
					 2.15383000E-02	 0.00000000E+00	-5.34673000E-02
					 3.81463000E-02	 0.00000000E+00	-4.81746000E-02
					 3.81463000E-02	 0.00000000E+00	-4.81746000E-02
				</DataArray>
			</PointData>
		</Piece>
	</UnstructuredGrid>
</VTKFile>