<?xml version="1.0"?>
<VTKFile type="UnstructuredGrid" version="0.1" byte_order="LittleEndian">
	<UnstructuredGrid>
		<Piece NumberOfPoints="126" NumberOfCells="40">
			<Points>
				<DataArray type="Float64" NumberOfComponents="3" format="ascii">
					 5.00000000E-02	 0.00000000E+00	 0.00000000E+00
					 0.00000000E+00	 0.00000000E+00	 0.00000000E+00
					 0.00000000E+00	 0.00000000E+00	 5.00000000E-02
					 5.00000000E-02	 0.00000000E+00	 5.00000000E-02
					 5.00000000E-02	 3.00000000E-01	 0.00000000E+00
					 0.00000000E+00	 3.00000000E-01	 0.00000000E+00
					 0.00000000E+00	 3.00000000E-01	 5.00000000E-02
					 5.00000000E-02	 3.00000000E-01	 5.00000000E-02
					 0.00000000E+00	 0.00000000E+00	 1.00000000E-01
					 5.00000000E-02	 0.00000000E+00	 1.00000000E-01
					 0.00000000E+00	 3.00000000E-01	 1.00000000E-01
					 5.00000000E-02	 3.00000000E-01	 1.00000000E-01
					 0.00000000E+00	 0.00000000E+00	 1.50000000E-01
					 5.00000000E-02	 0.00000000E+00	 1.50000000E-01
					 0.00000000E+00	 3.00000000E-01	 1.50000000E-01
					 5.00000000E-02	 3.00000000E-01	 1.50000000E-01
					 0.00000000E+00	 0.00000000E+00	 2.00000000E-01
					 5.00000000E-02	 0.00000000E+00	 2.00000000E-01
					 0.00000000E+00	 3.00000000E-01	 2.00000000E-01
					 5.00000000E-02	 3.00000000E-01	 2.00000000E-01
					 0.00000000E+00	 0.00000000E+00	 2.50000000E-01
					 5.00000000E-02	 0.00000000E+00	 2.50000000E-01
					 0.00000000E+00	 3.00000000E-01	 2.50000000E-01
					 5.00000000E-02	 3.00000000E-01	 2.50000000E-01
					 0.00000000E+00	 0.00000000E+00	 3.00000000E-01
					 5.00000000E-02	 0.00000000E+00	 3.00000000E-01
					 0.00000000E+00	 3.00000000E-01	 3.00000000E-01
					 5.00000000E-02	 3.00000000E-01	 3.00000000E-01
					 0.00000000E+00	 0.00000000E+00	 3.50000000E-01
					 5.00000000E-02	 0.00000000E+00	 3.50000000E-01
					 0.00000000E+00	 3.00000000E-01	 3.50000000E-01
					 5.00000000E-02	 3.00000000E-01	 3.50000000E-01
					 0.00000000E+00	 0.00000000E+00	 4.00000000E-01
					 5.00000000E-02	 0.00000000E+00	 4.00000000E-01
					 0.00000000E+00	 3.00000000E-01	 4.00000000E-01
					 5.00000000E-02	 3.00000000E-01	 4.00000000E-01
					 0.00000000E+00	 0.00000000E+00	 4.50000000E-01
					 5.00000000E-02	 0.00000000E+00	 4.50000000E-01
					 0.00000000E+00	 3.00000000E-01	 4.50000000E-01
					 5.00000000E-02	 3.00000000E-01	 4.50000000E-01
					 0.00000000E+00	 0.00000000E+00	 5.00000000E-01
					 5.00000000E-02	 0.00000000E+00	 5.00000000E-01
					 0.00000000E+00	 3.00000000E-01	 5.00000000E-01
					 5.00000000E-02	 3.00000000E-01	 5.00000000E-01
					 0.00000000E+00	 0.00000000E+00	 5.50000000E-01
					 5.00000000E-02	 0.00000000E+00	 5.50000000E-01
					 0.00000000E+00	 3.00000000E-01	 5.50000000E-01
					 5.00000000E-02	 3.00000000E-01	 5.50000000E-01
					 0.00000000E+00	 0.00000000E+00	 6.00000000E-01
					 5.00000000E-02	 0.00000000E+00	 6.00000000E-01
					 0.00000000E+00	 3.00000000E-01	 6.00000000E-01
					 5.00000000E-02	 3.00000000E-01	 6.00000000E-01
					 0.00000000E+00	 0.00000000E+00	 6.50000000E-01
					 5.00000000E-02	 0.00000000E+00	 6.50000000E-01
					 0.00000000E+00	 3.00000000E-01	 6.50000000E-01
					 5.00000000E-02	 3.00000000E-01	 6.50000000E-01
					 0.00000000E+00	 0.00000000E+00	 7.00000000E-01
					 5.00000000E-02	 0.00000000E+00	 7.00000000E-01
					 0.00000000E+00	 3.00000000E-01	 7.00000000E-01
					 5.00000000E-02	 3.00000000E-01	 7.00000000E-01
					 0.00000000E+00	 0.00000000E+00	 7.50000000E-01
					 5.00000000E-02	 0.00000000E+00	 7.50000000E-01
					 0.00000000E+00	 3.00000000E-01	 7.50000000E-01
					 5.00000000E-02	 3.00000000E-01	 7.50000000E-01
					 0.00000000E+00	 0.00000000E+00	 8.00000000E-01
					 5.00000000E-02	 0.00000000E+00	 8.00000000E-01
					 0.00000000E+00	 3.00000000E-01	 8.00000000E-01
					 5.00000000E-02	 3.00000000E-01	 8.00000000E-01
					 0.00000000E+00	 0.00000000E+00	 8.50000000E-01
					 5.00000000E-02	 0.00000000E+00	 8.50000000E-01
					 0.00000000E+00	 3.00000000E-01	 8.50000000E-01
					 5.00000000E-02	 3.00000000E-01	 8.50000000E-01
					 0.00000000E+00	 0.00000000E+00	 9.00000000E-01
					 5.00000000E-02	 0.00000000E+00	 9.00000000E-01
					 0.00000000E+00	 3.00000000E-01	 9.00000000E-01
					 5.00000000E-02	 3.00000000E-01	 9.00000000E-01
					 0.00000000E+00	 0.00000000E+00	 9.50000000E-01
					 5.00000000E-02	 0.00000000E+00	 9.50000000E-01
					 0.00000000E+00	 3.00000000E-01	 9.50000000E-01
					 5.00000000E-02	 3.00000000E-01	 9.50000000E-01
					 0.00000000E+00	 0.00000000E+00	 1.00000000E+00
					 5.00000000E-02	 0.00000000E+00	 1.00000000E+00
					 0.00000000E+00	 3.00000000E-01	 1.00000000E+00
					 5.00000000E-02	 3.00000000E-01	 1.00000000E+00
					-5.00000000E-02	 0.00000000E+00	 0.00000000E+00
					-5.00000000E-02	 0.00000000E+00	 5.00000000E-02
					-5.00000000E-02	 3.00000000E-01	 0.00000000E+00
					-5.00000000E-02	 3.00000000E-01	 5.00000000E-02
					-5.00000000E-02	 0.00000000E+00	 1.00000000E-01
					-5.00000000E-02	 3.00000000E-01	 1.00000000E-01
					-5.00000000E-02	 0.00000000E+00	 1.50000000E-01
					-5.00000000E-02	 3.00000000E-01	 1.50000000E-01
					-5.00000000E-02	 0.00000000E+00	 2.00000000E-01
					-5.00000000E-02	 3.00000000E-01	 2.00000000E-01
					-5.00000000E-02	 0.00000000E+00	 2.50000000E-01
					-5.00000000E-02	 3.00000000E-01	 2.50000000E-01
					-5.00000000E-02	 0.00000000E+00	 3.00000000E-01
					-5.00000000E-02	 3.00000000E-01	 3.00000000E-01
					-5.00000000E-02	 0.00000000E+00	 3.50000000E-01
					-5.00000000E-02	 3.00000000E-01	 3.50000000E-01
					-5.00000000E-02	 0.00000000E+00	 4.00000000E-01
					-5.00000000E-02	 3.00000000E-01	 4.00000000E-01
					-5.00000000E-02	 0.00000000E+00	 4.50000000E-01
					-5.00000000E-02	 3.00000000E-01	 4.50000000E-01
					-5.00000000E-02	 0.00000000E+00	 5.00000000E-01
					-5.00000000E-02	 3.00000000E-01	 5.00000000E-01
					-5.00000000E-02	 0.00000000E+00	 5.50000000E-01
					-5.00000000E-02	 3.00000000E-01	 5.50000000E-01
					-5.00000000E-02	 0.00000000E+00	 6.00000000E-01
					-5.00000000E-02	 3.00000000E-01	 6.00000000E-01
					-5.00000000E-02	 0.00000000E+00	 6.50000000E-01
					-5.00000000E-02	 3.00000000E-01	 6.50000000E-01
					-5.00000000E-02	 0.00000000E+00	 7.00000000E-01
					-5.00000000E-02	 3.00000000E-01	 7.00000000E-01
					-5.00000000E-02	 0.00000000E+00	 7.50000000E-01
					-5.00000000E-02	 3.00000000E-01	 7.50000000E-01
					-5.00000000E-02	 0.00000000E+00	 8.00000000E-01
					-5.00000000E-02	 3.00000000E-01	 8.00000000E-01
					-5.00000000E-02	 0.00000000E+00	 8.50000000E-01
					-5.00000000E-02	 3.00000000E-01	 8.50000000E-01
					-5.00000000E-02	 0.00000000E+00	 9.00000000E-01
					-5.00000000E-02	 3.00000000E-01	 9.00000000E-01
					-5.00000000E-02	 0.00000000E+00	 9.50000000E-01
					-5.00000000E-02	 3.00000000E-01	 9.50000000E-01
					-5.00000000E-02	 0.00000000E+00	 1.00000000E+00
					-5.00000000E-02	 3.00000000E-01	 1.00000000E+00
				</DataArray>
			</Points>
			<Cells>
				<DataArray type="Int32" Name="connectivity" format="ascii">
					0 1 2 3 4 5 6 7 3 2 8 9 7 6 10 11 9 8 12 13 11 10 14 15 13 12 16 17 15 14 18 19 17 16 20 21 19 18 22 23 21 20 24 25 23 22 26 27 25 24 28 29 27 26 30 31 29 28 32 33 31 30 34 35 33 32 36 37 35 34 38 39 37 36 40 41 39 38 42 43 41 40 44 45 43 42 46 47 45 44 48 49 47 46 50 51 49 48 52 53 51 50 54 55 53 52 56 57 55 54 58 59 57 56 60 61 59 58 62 63 61 60 64 65 63 62 66 67 65 64 68 69 67 66 70 71 69 68 72 73 71 70 74 75 73 72 76 77 75 74 78 79 77 76 80 81 79 78 82 83 1 84 85 2 5 86 87 6 2 85 88 8 6 87 89 10 8 88 90 12 10 89 91 14 12 90 92 16 14 91 93 18 16 92 94 20 18 93 95 22 20 94 96 24 22 95 97 26 24 96 98 28 26 97 99 30 28 98 100 32 30 99 101 34 32 100 102 36 34 101 103 38 36 102 104 40 38 103 105 42 40 104 106 44 42 105 107 46 44 106 108 48 46 107 109 50 48 108 110 52 50 109 111 54 52 110 112 56 54 111 113 58 56 112 114 60 58 113 115 62 60 114 116 64 62 115 117 66 64 116 118 68 66 117 119 70 68 118 120 72 70 119 121 74 72 120 122 76 74 121 123 78 76 122 124 80 78 123 125 82 
				</DataArray>
				<DataArray type="Int32" Name="offsets" format="ascii">
					8 16 24 32 40 48 56 64 72 80 88 96 104 112 120 128 136 144 152 160 168 176 184 192 200 208 216 224 232 240 248 256 264 272 280 288 296 304 312 320 
				</DataArray>
				<DataArray type="UInt8" Name="types" format="ascii">
					12 12 12 12 12 12 12 12 12 12 12 12 12 12 12 12 12 12 12 12 12 12 12 12 12 12 12 12 12 12 12 12 12 12 12 12 12 12 12 12 
				</DataArray>
			</Cells>
			<PointData>
				<DataArray type="Float32" Name="U" NumberOfComponents="3" ComponentName0="D1" ComponentName1="D2" ComponentName2="D3" format="ascii">
					 0.00000000E+00	 0.00000000E+00	 0.00000000E+00
					 0.00000000E+00	 0.00000000E+00	 0.00000000E+00
					 3.21599000E-04	 0.00000000E+00	 6.44094000E-05
					-2.44504000E-04	 0.00000000E+00	 3.40639000E-04
					 0.00000000E+00	 0.00000000E+00	 0.00000000E+00
					 0.00000000E+00	 0.00000000E+00	 0.00000000E+00
					 3.21599000E-04	 0.00000000E+00	 6.44094000E-05
					-2.44504000E-04	 0.00000000E+00	 3.40639000E-04
					 7.34516000E-04	 0.00000000E+00	 3.32247000E-04
					 2.70369000E-05	 0.00000000E+00	-9.25457000E-05
					 7.34516000E-04	 0.00000000E+00	 3.32247000E-04
					 2.70369000E-05	 0.00000000E+00	-9.25457000E-05
					 1.08384000E-03	 0.00000000E+00	-1.23863000E-05
					 5.54009000E-04	 0.00000000E+00	-9.70061000E-05
					 1.08384000E-03	 0.00000000E+00	-1.23863000E-05
					 5.54009000E-04	 0.00000000E+00	-9.70061000E-05
					 1.35302000E-03	 0.00000000E+00	 5.91346000E-04
					 7.74306000E-04	 0.00000000E+00	-3.92334000E-05
					 1.35302000E-03	 0.00000000E+00	 5.91346000E-04
					 7.74306000E-04	 0.00000000E+00	-3.92334000E-05
					 1.51054000E-03	 0.00000000E+00	 9.26350000E-04
					 1.50836000E-03	 0.00000000E+00	 2.66908000E-04
					 1.51054000E-03	 0.00000000E+00	 9.26350000E-04
					 1.50836000E-03	 0.00000000E+00	 2.66908000E-04
					 1.56713000E-03	 0.00000000E+00	 2.24953000E-04
					 1.53611000E-03	 0.00000000E+00	 4.57722000E-04
					 1.56713000E-03	 0.00000000E+00	 2.24953000E-04
					 1.53611000E-03	 0.00000000E+00	 4.57722000E-04
					 1.54402000E-03	 0.00000000E+00	 2.31665000E-04
					 9.80540000E-04	 0.00000000E+00	 7.92548000E-04
					 1.54402000E-03	 0.00000000E+00	 2.31665000E-04
					 9.80540000E-04	 0.00000000E+00	 7.92548000E-04
					 1.47145000E-03	 0.00000000E+00	 6.38029000E-04
					 7.45932000E-04	 0.00000000E+00	 5.40054000E-04
					 1.47145000E-03	 0.00000000E+00	 6.38029000E-04
					 7.45932000E-04	 0.00000000E+00	 5.40054000E-04
					 1.39083000E-03	 0.00000000E+00	 2.95093000E-04
					 1.43536000E-03	 0.00000000E+00	 4.07775000E-04
					 1.39083000E-03	 0.00000000E+00	 2.95093000E-04
					 1.43536000E-03	 0.00000000E+00	 4.07775000E-04
					 1.30459000E-03	 0.00000000E+00	 4.32512000E-04
					 8.49354000E-04	 0.00000000E+00	 6.85353000E-04
					 1.30459000E-03	 0.00000000E+00	 4.32512000E-04
					 8.49354000E-04	 0.00000000E+00	 6.85353000E-04
					 1.21890000E-03	 0.00000000E+00	 6.52833000E-04
					 5.62081000E-04	 0.00000000E+00	 5.92781000E-04
					 1.21890000E-03	 0.00000000E+00	 6.52833000E-04
					 5.62081000E-04	 0.00000000E+00	 5.92781000E-04
					 1.15119000E-03	 0.00000000E+00	 7.09279000E-04
					 9.98448000E-04	 0.00000000E+00	 6.68000000E-04
					 1.15119000E-03	 0.00000000E+00	 7.09279000E-04
					 9.98448000E-04	 0.00000000E+00	 6.68000000E-04
					 1.08852000E-03	 0.00000000E+00	 2.43957000E-04
					 7.03201000E-04	 0.00000000E+00	 3.71187000E-04
					 1.08852000E-03	 0.00000000E+00	 2.43957000E-04
					 7.03201000E-04	 0.00000000E+00	 3.71187000E-04
					 1.01088000E-03	 0.00000000E+00	 6.81878000E-04
					 3.07902000E-04	 0.00000000E+00	 5.69069000E-04
					 1.01088000E-03	 0.00000000E+00	 6.81878000E-04
					 3.07902000E-04	 0.00000000E+00	 5.69069000E-04
					 9.20253000E-04	 0.00000000E+00	 8.51873000E-04
					 9.95769000E-04	 0.00000000E+00	 6.48280000E-04
					 9.20253000E-04	 0.00000000E+00	 8.51873000E-04
					 9.95769000E-04	 0.00000000E+00	 6.48280000E-04
					 8.18085000E-04	 0.00000000E+00	 2.50363000E-04
					 9.26608000E-04	 0.00000000E+00	 9.24578000E-04
					 8.18085000E-04	 0.00000000E+00	 2.50363000E-04
					 9.26608000E-04	 0.00000000E+00	 9.24578000E-04
					 6.98394000E-04	 0.00000000E+00	 3.20936000E-04
					-3.94021000E-04	 0.00000000E+00	 7.31734000E-04
					 6.98394000E-04	 0.00000000E+00	 3.20936000E-04
					-3.94021000E-04	 0.00000000E+00	 7.31734000E-04
					 5.79302000E-04	 0.00000000E+00	 1.19279000E-03
					-2.21811000E-04	 0.00000000E+00	 9.25192000E-04
					 5.79302000E-04	 0.00000000E+00	 1.19279000E-03
					-2.21811000E-04	 0.00000000E+00	 9.25192000E-04
					 4.57550000E-04	 0.00000000E+00	 4.18636000E-04
					 7.63520000E-04	 0.00000000E+00	 7.17742000E-04
					 4.57550000E-04	 0.00000000E+00	 4.18636000E-04
					 7.63520000E-04	 0.00000000E+00	 7.17742000E-04
					 3.35751000E-04	 0.00000000E+00	-9.38660000E-05
					-2.06453000E-04	 0.00000000E+00	 1.03694000E-03
					 3.35751000E-04	 0.00000000E+00	-9.38660000E-05
					-2.06453000E-04	 0.00000000E+00	 1.03694000E-03
					 0.00000000E+00	 0.00000000E+00	 0.00000000E+00
					 1.01767000E-03	 0.00000000E+00	 7.69372000E-04
					 0.00000000E+00	 0.00000000E+00	 0.00000000E+00
					 1.01767000E-03	 0.00000000E+00	 7.69372000E-04
					 1.46309000E-03	 0.00000000E+00	 4.80401000E-04
					 1.46309000E-03	 0.00000000E+00	 4.80401000E-04
					 1.59329000E-03	 0.00000000E+00	 4.13599000E-04
					 1.59329000E-03	 0.00000000E+00	 4.13599000E-04
					 1.89680000E-03	 0.00000000E+00	 3.36534000E-04
					 1.89680000E-03	 0.00000000E+00	 3.36534000E-04
					 1.48514000E-03	 0.00000000E+00	 4.81281000E-04
					 1.48514000E-03	 0.00000000E+00	 4.81281000E-04
					 1.59258000E-03	 0.00000000E+00	 5.28849000E-04
					 1.59258000E-03	 0.00000000E+00	 5.28849000E-04
					 2.08958000E-03	 0.00000000E+00	 7.46351000E-04
					 2.08958000E-03	 0.00000000E+00	 7.46351000E-04
					 2.19524000E-03	 0.00000000E+00	 4.17464000E-04
					 2.19524000E-03	 0.00000000E+00	 4.17464000E-04
					 1.34794000E-03	 0.00000000E+00	 2.64980000E-04
					 1.34794000E-03	 0.00000000E+00	 2.64980000E-04
					 1.76826000E-03	 0.00000000E+00	 5.29196000E-04
					 1.76826000E-03	 0.00000000E+00	 5.29196000E-04
					 1.88930000E-03	 0.00000000E+00	 4.54443000E-04
					 1.88930000E-03	 0.00000000E+00	 4.54443000E-04
					 1.29508000E-03	 0.00000000E+00	 5.23591000E-04
					 1.29508000E-03	 0.00000000E+00	 5.23591000E-04
					 1.46549000E-03	 0.00000000E+00	 2.29161000E-04
					 1.46549000E-03	 0.00000000E+00	 2.29161000E-04
					 1.72986000E-03	 0.00000000E+00	 4.02369000E-04
					 1.72986000E-03	 0.00000000E+00	 4.02369000E-04
					 8.33705000E-04	 0.00000000E+00	 4.56218000E-04
					 8.33705000E-04	 0.00000000E+00	 4.56218000E-04
					 6.72171000E-04	 0.00000000E+00	 7.09531000E-04
					 6.72171000E-04	 0.00000000E+00	 7.09531000E-04
					 1.76533000E-03	 0.00000000E+00	 5.17262000E-04
					 1.76533000E-03	 0.00000000E+00	 5.17262000E-04
					 1.37448000E-03	 0.00000000E+00	 7.06941000E-04
					 1.37448000E-03	 0.00000000E+00	 7.06941000E-04
					 1.53572000E-04	 0.00000000E+00	 4.85961000E-04
					 1.53572000E-04	 0.00000000E+00	 4.85961000E-04
					 8.80791000E-04	 0.00000000E+00	 8.08010000E-04
					 8.80791000E-04	 0.00000000E+00	 8.08010000E-04
				</DataArray>
			</PointData>
		</Piece>
	</UnstructuredGrid>
</VTKFile>