<?xml version="1.0"?>
<VTKFile type="UnstructuredGrid" version="0.1" byte_order="LittleEndian">
	<UnstructuredGrid>
		<Piece NumberOfPoints="126" NumberOfCells="40">
			<Points>
				<DataArray type="Float64" NumberOfComponents="3" format="ascii">
					 5.00000000E-02	 0.00000000E+00	 0.00000000E+00
					 0.00000000E+00	 0.00000000E+00	 0.00000000E+00
					 0.00000000E+00	 0.00000000E+00	 5.00000000E-02
					 5.00000000E-02	 0.00000000E+00	 5.00000000E-02
					 5.00000000E-02	 3.00000000E-01	 0.00000000E+00
					 0.00000000E+00	 3.00000000E-01	 0.00000000E+00
					 0.00000000E+00	 3.00000000E-01	 5.00000000E-02
					 5.00000000E-02	 3.00000000E-01	 5.00000000E-02
					 0.00000000E+00	 0.00000000E+00	 1.00000000E-01
					 5.00000000E-02	 0.00000000E+00	 1.00000000E-01
					 0.00000000E+00	 3.00000000E-01	 1.00000000E-01
					 5.00000000E-02	 3.00000000E-01	 1.00000000E-01
					 0.00000000E+00	 0.00000000E+00	 1.50000000E-01
					 5.00000000E-02	 0.00000000E+00	 1.50000000E-01
					 0.00000000E+00	 3.00000000E-01	 1.50000000E-01
					 5.00000000E-02	 3.00000000E-01	 1.50000000E-01
					 0.00000000E+00	 0.00000000E+00	 2.00000000E-01
					 5.00000000E-02	 0.00000000E+00	 2.00000000E-01
					 0.00000000E+00	 3.00000000E-01	 2.00000000E-01
					 5.00000000E-02	 3.00000000E-01	 2.00000000E-01
					 0.00000000E+00	 0.00000000E+00	 2.50000000E-01
					 5.00000000E-02	 0.00000000E+00	 2.50000000E-01
					 0.00000000E+00	 3.00000000E-01	 2.50000000E-01
					 5.00000000E-02	 3.00000000E-01	 2.50000000E-01
					 0.00000000E+00	 0.00000000E+00	 3.00000000E-01
					 5.00000000E-02	 0.00000000E+00	 3.00000000E-01
					 0.00000000E+00	 3.00000000E-01	 3.00000000E-01
					 5.00000000E-02	 3.00000000E-01	 3.00000000E-01
					 0.00000000E+00	 0.00000000E+00	 3.50000000E-01
					 5.00000000E-02	 0.00000000E+00	 3.50000000E-01
					 0.00000000E+00	 3.00000000E-01	 3.50000000E-01
					 5.00000000E-02	 3.00000000E-01	 3.50000000E-01
					 0.00000000E+00	 0.00000000E+00	 4.00000000E-01
					 5.00000000E-02	 0.00000000E+00	 4.00000000E-01
					 0.00000000E+00	 3.00000000E-01	 4.00000000E-01
					 5.00000000E-02	 3.00000000E-01	 4.00000000E-01
					 0.00000000E+00	 0.00000000E+00	 4.50000000E-01
					 5.00000000E-02	 0.00000000E+00	 4.50000000E-01
					 0.00000000E+00	 3.00000000E-01	 4.50000000E-01
					 5.00000000E-02	 3.00000000E-01	 4.50000000E-01
					 0.00000000E+00	 0.00000000E+00	 5.00000000E-01
					 5.00000000E-02	 0.00000000E+00	 5.00000000E-01
					 0.00000000E+00	 3.00000000E-01	 5.00000000E-01
					 5.00000000E-02	 3.00000000E-01	 5.00000000E-01
					 0.00000000E+00	 0.00000000E+00	 5.50000000E-01
					 5.00000000E-02	 0.00000000E+00	 5.50000000E-01
					 0.00000000E+00	 3.00000000E-01	 5.50000000E-01
					 5.00000000E-02	 3.00000000E-01	 5.50000000E-01
					 0.00000000E+00	 0.00000000E+00	 6.00000000E-01
					 5.00000000E-02	 0.00000000E+00	 6.00000000E-01
					 0.00000000E+00	 3.00000000E-01	 6.00000000E-01
					 5.00000000E-02	 3.00000000E-01	 6.00000000E-01
					 0.00000000E+00	 0.00000000E+00	 6.50000000E-01
					 5.00000000E-02	 0.00000000E+00	 6.50000000E-01
					 0.00000000E+00	 3.00000000E-01	 6.50000000E-01
					 5.00000000E-02	 3.00000000E-01	 6.50000000E-01
					 0.00000000E+00	 0.00000000E+00	 7.00000000E-01
					 5.00000000E-02	 0.00000000E+00	 7.00000000E-01
					 0.00000000E+00	 3.00000000E-01	 7.00000000E-01
					 5.00000000E-02	 3.00000000E-01	 7.00000000E-01
					 0.00000000E+00	 0.00000000E+00	 7.50000000E-01
					 5.00000000E-02	 0.00000000E+00	 7.50000000E-01
					 0.00000000E+00	 3.00000000E-01	 7.50000000E-01
					 5.00000000E-02	 3.00000000E-01	 7.50000000E-01
					 0.00000000E+00	 0.00000000E+00	 8.00000000E-01
					 5.00000000E-02	 0.00000000E+00	 8.00000000E-01
					 0.00000000E+00	 3.00000000E-01	 8.00000000E-01
					 5.00000000E-02	 3.00000000E-01	 8.00000000E-01
					 0.00000000E+00	 0.00000000E+00	 8.50000000E-01
					 5.00000000E-02	 0.00000000E+00	 8.50000000E-01
					 0.00000000E+00	 3.00000000E-01	 8.50000000E-01
					 5.00000000E-02	 3.00000000E-01	 8.50000000E-01
					 0.00000000E+00	 0.00000000E+00	 9.00000000E-01
					 5.00000000E-02	 0.00000000E+00	 9.00000000E-01
					 0.00000000E+00	 3.00000000E-01	 9.00000000E-01
					 5.00000000E-02	 3.00000000E-01	 9.00000000E-01
					 0.00000000E+00	 0.00000000E+00	 9.50000000E-01
					 5.00000000E-02	 0.00000000E+00	 9.50000000E-01
					 0.00000000E+00	 3.00000000E-01	 9.50000000E-01
					 5.00000000E-02	 3.00000000E-01	 9.50000000E-01
					 0.00000000E+00	 0.00000000E+00	 1.00000000E+00
					 5.00000000E-02	 0.00000000E+00	 1.00000000E+00
					 0.00000000E+00	 3.00000000E-01	 1.00000000E+00
					 5.00000000E-02	 3.00000000E-01	 1.00000000E+00
					-5.00000000E-02	 0.00000000E+00	 0.00000000E+00
					-5.00000000E-02	 0.00000000E+00	 5.00000000E-02
					-5.00000000E-02	 3.00000000E-01	 0.00000000E+00
					-5.00000000E-02	 3.00000000E-01	 5.00000000E-02
					-5.00000000E-02	 0.00000000E+00	 1.00000000E-01
					-5.00000000E-02	 3.00000000E-01	 1.00000000E-01
					-5.00000000E-02	 0.00000000E+00	 1.50000000E-01
					-5.00000000E-02	 3.00000000E-01	 1.50000000E-01
					-5.00000000E-02	 0.00000000E+00	 2.00000000E-01
					-5.00000000E-02	 3.00000000E-01	 2.00000000E-01
					-5.00000000E-02	 0.00000000E+00	 2.50000000E-01
					-5.00000000E-02	 3.00000000E-01	 2.50000000E-01
					-5.00000000E-02	 0.00000000E+00	 3.00000000E-01
					-5.00000000E-02	 3.00000000E-01	 3.00000000E-01
					-5.00000000E-02	 0.00000000E+00	 3.50000000E-01
					-5.00000000E-02	 3.00000000E-01	 3.50000000E-01
					-5.00000000E-02	 0.00000000E+00	 4.00000000E-01
					-5.00000000E-02	 3.00000000E-01	 4.00000000E-01
					-5.00000000E-02	 0.00000000E+00	 4.50000000E-01
					-5.00000000E-02	 3.00000000E-01	 4.50000000E-01
					-5.00000000E-02	 0.00000000E+00	 5.00000000E-01
					-5.00000000E-02	 3.00000000E-01	 5.00000000E-01
					-5.00000000E-02	 0.00000000E+00	 5.50000000E-01
					-5.00000000E-02	 3.00000000E-01	 5.50000000E-01
					-5.00000000E-02	 0.00000000E+00	 6.00000000E-01
					-5.00000000E-02	 3.00000000E-01	 6.00000000E-01
					-5.00000000E-02	 0.00000000E+00	 6.50000000E-01
					-5.00000000E-02	 3.00000000E-01	 6.50000000E-01
					-5.00000000E-02	 0.00000000E+00	 7.00000000E-01
					-5.00000000E-02	 3.00000000E-01	 7.00000000E-01
					-5.00000000E-02	 0.00000000E+00	 7.50000000E-01
					-5.00000000E-02	 3.00000000E-01	 7.50000000E-01
					-5.00000000E-02	 0.00000000E+00	 8.00000000E-01
					-5.00000000E-02	 3.00000000E-01	 8.00000000E-01
					-5.00000000E-02	 0.00000000E+00	 8.50000000E-01
					-5.00000000E-02	 3.00000000E-01	 8.50000000E-01
					-5.00000000E-02	 0.00000000E+00	 9.00000000E-01
					-5.00000000E-02	 3.00000000E-01	 9.00000000E-01
					-5.00000000E-02	 0.00000000E+00	 9.50000000E-01
					-5.00000000E-02	 3.00000000E-01	 9.50000000E-01
					-5.00000000E-02	 0.00000000E+00	 1.00000000E+00
					-5.00000000E-02	 3.00000000E-01	 1.00000000E+00
				</DataArray>
			</Points>
			<Cells>
				<DataArray type="Int32" Name="connectivity" format="ascii">
					0 1 2 3 4 5 6 7 3 2 8 9 7 6 10 11 9 8 12 13 11 10 14 15 13 12 16 17 15 14 18 19 17 16 20 21 19 18 22 23 21 20 24 25 23 22 26 27 25 24 28 29 27 26 30 31 29 28 32 33 31 30 34 35 33 32 36 37 35 34 38 39 37 36 40 41 39 38 42 43 41 40 44 45 43 42 46 47 45 44 48 49 47 46 50 51 49 48 52 53 51 50 54 55 53 52 56 57 55 54 58 59 57 56 60 61 59 58 62 63 61 60 64 65 63 62 66 67 65 64 68 69 67 66 70 71 69 68 72 73 71 70 74 75 73 72 76 77 75 74 78 79 77 76 80 81 79 78 82 83 1 84 85 2 5 86 87 6 2 85 88 8 6 87 89 10 8 88 90 12 10 89 91 14 12 90 92 16 14 91 93 18 16 92 94 20 18 93 95 22 20 94 96 24 22 95 97 26 24 96 98 28 26 97 99 30 28 98 100 32 30 99 101 34 32 100 102 36 34 101 103 38 36 102 104 40 38 103 105 42 40 104 106 44 42 105 107 46 44 106 108 48 46 107 109 50 48 108 110 52 50 109 111 54 52 110 112 56 54 111 113 58 56 112 114 60 58 113 115 62 60 114 116 64 62 115 117 66 64 116 118 68 66 117 119 70 68 118 120 72 70 119 121 74 72 120 122 76 74 121 123 78 76 122 124 80 78 123 125 82 
				</DataArray>
				<DataArray type="Int32" Name="offsets" format="ascii">
					8 16 24 32 40 48 56 64 72 80 88 96 104 112 120 128 136 144 152 160 168 176 184 192 200 208 216 224 232 240 248 256 264 272 280 288 296 304 312 320 
				</DataArray>
				<DataArray type="UInt8" Name="types" format="ascii">
					12 12 12 12 12 12 12 12 12 12 12 12 12 12 12 12 12 12 12 12 12 12 12 12 12 12 12 12 12 12 12 12 12 12 12 12 12 12 12 12 
				</DataArray>
			</Cells>
			<PointData>
				<DataArray type="Float32" Name="U" NumberOfComponents="3" ComponentName0="D1" ComponentName1="D2" ComponentName2="D3" format="ascii">
					 0.00000000E+00	 0.00000000E+00	 0.00000000E+00
					 0.00000000E+00	 0.00000000E+00	 0.00000000E+00
					 5.24976000E-04	 0.00000000E+00	-1.39434000E-04
					 2.20432000E-03	 0.00000000E+00	-1.10792000E-03
					 0.00000000E+00	 0.00000000E+00	 0.00000000E+00
					 0.00000000E+00	 0.00000000E+00	 0.00000000E+00
					 5.24976000E-04	 0.00000000E+00	-1.39434000E-04
					 2.20432000E-03	 0.00000000E+00	-1.10792000E-03
					 2.98823000E-03	 0.00000000E+00	-1.55843000E-04
					 3.26195000E-03	 0.00000000E+00	-7.95303000E-04
					 2.98823000E-03	 0.00000000E+00	-1.55843000E-04
					 3.26195000E-03	 0.00000000E+00	-7.95303000E-04
					 4.20889000E-03	 0.00000000E+00	-2.91049000E-04
					 4.16357000E-03	 0.00000000E+00	-1.52224000E-04
					 4.20889000E-03	 0.00000000E+00	-2.91049000E-04
					 4.16357000E-03	 0.00000000E+00	-1.52224000E-04
					 4.99009000E-03	 0.00000000E+00	-1.12534000E-04
					 4.91966000E-03	 0.00000000E+00	-2.42277000E-04
					 4.99009000E-03	 0.00000000E+00	-1.12534000E-04
					 4.91966000E-03	 0.00000000E+00	-2.42277000E-04
					 5.60048000E-03	 0.00000000E+00	 2.20089000E-05
					 4.55532000E-03	 0.00000000E+00	-7.58574000E-04
					 5.60048000E-03	 0.00000000E+00	 2.20089000E-05
					 4.55532000E-03	 0.00000000E+00	-7.58574000E-04
					 5.93860000E-03	 0.00000000E+00	 5.49915000E-04
					 5.33112000E-03	 0.00000000E+00	-2.10708000E-04
					 5.93860000E-03	 0.00000000E+00	 5.49915000E-04
					 5.33112000E-03	 0.00000000E+00	-2.10708000E-04
					 6.00255000E-03	 0.00000000E+00	 2.15070000E-04
					 5.96952000E-03	 0.00000000E+00	-1.64044000E-04
					 6.00255000E-03	 0.00000000E+00	 2.15070000E-04
					 5.96952000E-03	 0.00000000E+00	-1.64044000E-04
					 5.94031000E-03	 0.00000000E+00	 2.17911000E-05
					 5.60774000E-03	 0.00000000E+00	 3.33541000E-04
					 5.94031000E-03	 0.00000000E+00	 2.17911000E-05
					 5.60774000E-03	 0.00000000E+00	 3.33541000E-04
					 5.79353000E-03	 0.00000000E+00	 4.37989000E-04
					 5.04761000E-03	 0.00000000E+00	 2.82044000E-04
					 5.79353000E-03	 0.00000000E+00	 4.37989000E-04
					 5.04761000E-03	 0.00000000E+00	 2.82044000E-04
					 5.59753000E-03	 0.00000000E+00	 7.43163000E-04
					 5.27570000E-03	 0.00000000E+00	 6.27279000E-04
					 5.59753000E-03	 0.00000000E+00	 7.43163000E-04
					 5.27570000E-03	 0.00000000E+00	 6.27279000E-04
					 5.30629000E-03	 0.00000000E+00	 2.42367000E-04
					 5.33480000E-03	 0.00000000E+00	 1.03486000E-03
					 5.30629000E-03	 0.00000000E+00	 2.42367000E-04
					 5.33480000E-03	 0.00000000E+00	 1.03486000E-03
					 5.01477000E-03	 0.00000000E+00	 5.16621000E-04
					 4.46481000E-03	 0.00000000E+00	 9.97763000E-04
					 5.01477000E-03	 0.00000000E+00	 5.16621000E-04
					 4.46481000E-03	 0.00000000E+00	 9.97763000E-04
					 4.74554000E-03	 0.00000000E+00	 9.60605000E-04
					 4.04053000E-03	 0.00000000E+00	 1.19403000E-03
					 4.74554000E-03	 0.00000000E+00	 9.60605000E-04
					 4.04053000E-03	 0.00000000E+00	 1.19403000E-03
					 4.50580000E-03	 0.00000000E+00	 6.22398000E-04
					 4.77699000E-03	 0.00000000E+00	 1.18180000E-03
					 4.50580000E-03	 0.00000000E+00	 6.22398000E-04
					 4.77699000E-03	 0.00000000E+00	 1.18180000E-03
					 4.16614000E-03	 0.00000000E+00	 5.16522000E-04
					 3.78422000E-03	 0.00000000E+00	 1.16446000E-03
					 4.16614000E-03	 0.00000000E+00	 5.16522000E-04
					 3.78422000E-03	 0.00000000E+00	 1.16446000E-03
					 3.80613000E-03	 0.00000000E+00	 1.36226000E-03
					 2.98574000E-03	 0.00000000E+00	 1.21990000E-03
					 3.80613000E-03	 0.00000000E+00	 1.36226000E-03
					 2.98574000E-03	 0.00000000E+00	 1.21990000E-03
					 3.45199000E-03	 0.00000000E+00	 1.31951000E-03
					 3.63225000E-03	 0.00000000E+00	 6.08413000E-04
					 3.45199000E-03	 0.00000000E+00	 1.31951000E-03
					 3.63225000E-03	 0.00000000E+00	 6.08413000E-04
					 3.02788000E-03	 0.00000000E+00	 1.16698000E-03
					 3.22483000E-03	 0.00000000E+00	 8.38907000E-04
					 3.02788000E-03	 0.00000000E+00	 1.16698000E-03
					 3.22483000E-03	 0.00000000E+00	 8.38907000E-04
					 2.55222000E-03	 0.00000000E+00	 1.57982000E-03
					 1.85349000E-03	 0.00000000E+00	 1.01741000E-03
					 2.55222000E-03	 0.00000000E+00	 1.57982000E-03
					 1.85349000E-03	 0.00000000E+00	 1.01741000E-03
					 1.88782000E-03	 0.00000000E+00	 2.04691000E-03
					 3.19086000E-03	 0.00000000E+00	 7.93954000E-04
					 1.88782000E-03	 0.00000000E+00	 2.04691000E-03
					 3.19086000E-03	 0.00000000E+00	 7.93954000E-04
					 0.00000000E+00	 0.00000000E+00	 0.00000000E+00
					 1.39519000E-02	 0.00000000E+00	-1.65663000E-04
					 0.00000000E+00	 0.00000000E+00	 0.00000000E+00
					 1.39519000E-02	 0.00000000E+00	-1.65663000E-04
					 1.43597000E-03	 0.00000000E+00	 1.81541000E-03
					 1.43597000E-03	 0.00000000E+00	 1.81541000E-03
					 4.95111000E-03	 0.00000000E+00	 1.32761000E-03
					 4.95111000E-03	 0.00000000E+00	 1.32761000E-03
					 5.13536000E-03	 0.00000000E+00	 1.20893000E-03
					 5.13536000E-03	 0.00000000E+00	 1.20893000E-03
					 6.72895000E-03	 0.00000000E+00	 1.23428000E-04
					 6.72895000E-03	 0.00000000E+00	 1.23428000E-04
					 6.72597000E-03	 0.00000000E+00	 2.63288000E-04
					 6.72597000E-03	 0.00000000E+00	 2.63288000E-04
					 6.18249000E-03	 0.00000000E+00	-7.29665000E-05
					 6.18249000E-03	 0.00000000E+00	-7.29665000E-05
					 6.44880000E-03	 0.00000000E+00	 2.10436000E-04
					 6.44880000E-03	 0.00000000E+00	 2.10436000E-04
					 6.70907000E-03	 0.00000000E+00	-1.38809000E-05
					 6.70907000E-03	 0.00000000E+00	-1.38809000E-05
					 6.17344000E-03	 0.00000000E+00	 2.00086000E-04
					 6.17344000E-03	 0.00000000E+00	 2.00086000E-04
					 5.43568000E-03	 0.00000000E+00	 4.95203000E-04
					 5.43568000E-03	 0.00000000E+00	 4.95203000E-04
					 5.77541000E-03	 0.00000000E+00	 4.71582000E-04
					 5.77541000E-03	 0.00000000E+00	 4.71582000E-04
					 5.65344000E-03	 0.00000000E+00	 6.64644000E-04
					 5.65344000E-03	 0.00000000E+00	 6.64644000E-04
					 4.44697000E-03	 0.00000000E+00	 5.83329000E-04
					 4.44697000E-03	 0.00000000E+00	 5.83329000E-04
					 4.69639000E-03	 0.00000000E+00	 4.94645000E-04
					 4.69639000E-03	 0.00000000E+00	 4.94645000E-04
					 4.81235000E-03	 0.00000000E+00	 5.15805000E-04
					 4.81235000E-03	 0.00000000E+00	 5.15805000E-04
					 3.38619000E-03	 0.00000000E+00	-1.34163000E-04
					 3.38619000E-03	 0.00000000E+00	-1.34163000E-04
					 3.08554000E-03	 0.00000000E+00	 9.98736000E-06
					 3.08554000E-03	 0.00000000E+00	 9.98736000E-06
					 3.01598000E-03	 0.00000000E+00	 1.13805000E-04
					 3.01598000E-03	 0.00000000E+00	 1.13805000E-04
					 1.68622000E-03	 0.00000000E+00	 6.45047000E-05
					 1.68622000E-03	 0.00000000E+00	 6.45047000E-05
				</DataArray>
			</PointData>
		</Piece>
	</UnstructuredGrid>
</VTKFile>