<?xml version="1.0"?>
<VTKFile type="UnstructuredGrid" version="0.1" byte_order="LittleEndian">
	<UnstructuredGrid>
		<Piece NumberOfPoints="126" NumberOfCells="40">
			<Points>
				<DataArray type="Float64" NumberOfComponents="3" format="ascii">
					 5.00000000E-02	 0.00000000E+00	 0.00000000E+00
					 0.00000000E+00	 0.00000000E+00	 0.00000000E+00
					 0.00000000E+00	 0.00000000E+00	 5.00000000E-02
					 5.00000000E-02	 0.00000000E+00	 5.00000000E-02
					 5.00000000E-02	 3.00000000E-01	 0.00000000E+00
					 0.00000000E+00	 3.00000000E-01	 0.00000000E+00
					 0.00000000E+00	 3.00000000E-01	 5.00000000E-02
					 5.00000000E-02	 3.00000000E-01	 5.00000000E-02
					 0.00000000E+00	 0.00000000E+00	 1.00000000E-01
					 5.00000000E-02	 0.00000000E+00	 1.00000000E-01
					 0.00000000E+00	 3.00000000E-01	 1.00000000E-01
					 5.00000000E-02	 3.00000000E-01	 1.00000000E-01
					 0.00000000E+00	 0.00000000E+00	 1.50000000E-01
					 5.00000000E-02	 0.00000000E+00	 1.50000000E-01
					 0.00000000E+00	 3.00000000E-01	 1.50000000E-01
					 5.00000000E-02	 3.00000000E-01	 1.50000000E-01
					 0.00000000E+00	 0.00000000E+00	 2.00000000E-01
					 5.00000000E-02	 0.00000000E+00	 2.00000000E-01
					 0.00000000E+00	 3.00000000E-01	 2.00000000E-01
					 5.00000000E-02	 3.00000000E-01	 2.00000000E-01
					 0.00000000E+00	 0.00000000E+00	 2.50000000E-01
					 5.00000000E-02	 0.00000000E+00	 2.50000000E-01
					 0.00000000E+00	 3.00000000E-01	 2.50000000E-01
					 5.00000000E-02	 3.00000000E-01	 2.50000000E-01
					 0.00000000E+00	 0.00000000E+00	 3.00000000E-01
					 5.00000000E-02	 0.00000000E+00	 3.00000000E-01
					 0.00000000E+00	 3.00000000E-01	 3.00000000E-01
					 5.00000000E-02	 3.00000000E-01	 3.00000000E-01
					 0.00000000E+00	 0.00000000E+00	 3.50000000E-01
					 5.00000000E-02	 0.00000000E+00	 3.50000000E-01
					 0.00000000E+00	 3.00000000E-01	 3.50000000E-01
					 5.00000000E-02	 3.00000000E-01	 3.50000000E-01
					 0.00000000E+00	 0.00000000E+00	 4.00000000E-01
					 5.00000000E-02	 0.00000000E+00	 4.00000000E-01
					 0.00000000E+00	 3.00000000E-01	 4.00000000E-01
					 5.00000000E-02	 3.00000000E-01	 4.00000000E-01
					 0.00000000E+00	 0.00000000E+00	 4.50000000E-01
					 5.00000000E-02	 0.00000000E+00	 4.50000000E-01
					 0.00000000E+00	 3.00000000E-01	 4.50000000E-01
					 5.00000000E-02	 3.00000000E-01	 4.50000000E-01
					 0.00000000E+00	 0.00000000E+00	 5.00000000E-01
					 5.00000000E-02	 0.00000000E+00	 5.00000000E-01
					 0.00000000E+00	 3.00000000E-01	 5.00000000E-01
					 5.00000000E-02	 3.00000000E-01	 5.00000000E-01
					 0.00000000E+00	 0.00000000E+00	 5.50000000E-01
					 5.00000000E-02	 0.00000000E+00	 5.50000000E-01
					 0.00000000E+00	 3.00000000E-01	 5.50000000E-01
					 5.00000000E-02	 3.00000000E-01	 5.50000000E-01
					 0.00000000E+00	 0.00000000E+00	 6.00000000E-01
					 5.00000000E-02	 0.00000000E+00	 6.00000000E-01
					 0.00000000E+00	 3.00000000E-01	 6.00000000E-01
					 5.00000000E-02	 3.00000000E-01	 6.00000000E-01
					 0.00000000E+00	 0.00000000E+00	 6.50000000E-01
					 5.00000000E-02	 0.00000000E+00	 6.50000000E-01
					 0.00000000E+00	 3.00000000E-01	 6.50000000E-01
					 5.00000000E-02	 3.00000000E-01	 6.50000000E-01
					 0.00000000E+00	 0.00000000E+00	 7.00000000E-01
					 5.00000000E-02	 0.00000000E+00	 7.00000000E-01
					 0.00000000E+00	 3.00000000E-01	 7.00000000E-01
					 5.00000000E-02	 3.00000000E-01	 7.00000000E-01
					 0.00000000E+00	 0.00000000E+00	 7.50000000E-01
					 5.00000000E-02	 0.00000000E+00	 7.50000000E-01
					 0.00000000E+00	 3.00000000E-01	 7.50000000E-01
					 5.00000000E-02	 3.00000000E-01	 7.50000000E-01
					 0.00000000E+00	 0.00000000E+00	 8.00000000E-01
					 5.00000000E-02	 0.00000000E+00	 8.00000000E-01
					 0.00000000E+00	 3.00000000E-01	 8.00000000E-01
					 5.00000000E-02	 3.00000000E-01	 8.00000000E-01
					 0.00000000E+00	 0.00000000E+00	 8.50000000E-01
					 5.00000000E-02	 0.00000000E+00	 8.50000000E-01
					 0.00000000E+00	 3.00000000E-01	 8.50000000E-01
					 5.00000000E-02	 3.00000000E-01	 8.50000000E-01
					 0.00000000E+00	 0.00000000E+00	 9.00000000E-01
					 5.00000000E-02	 0.00000000E+00	 9.00000000E-01
					 0.00000000E+00	 3.00000000E-01	 9.00000000E-01
					 5.00000000E-02	 3.00000000E-01	 9.00000000E-01
					 0.00000000E+00	 0.00000000E+00	 9.50000000E-01
					 5.00000000E-02	 0.00000000E+00	 9.50000000E-01
					 0.00000000E+00	 3.00000000E-01	 9.50000000E-01
					 5.00000000E-02	 3.00000000E-01	 9.50000000E-01
					 0.00000000E+00	 0.00000000E+00	 1.00000000E+00
					 5.00000000E-02	 0.00000000E+00	 1.00000000E+00
					 0.00000000E+00	 3.00000000E-01	 1.00000000E+00
					 5.00000000E-02	 3.00000000E-01	 1.00000000E+00
					-5.00000000E-02	 0.00000000E+00	 0.00000000E+00
					-5.00000000E-02	 0.00000000E+00	 5.00000000E-02
					-5.00000000E-02	 3.00000000E-01	 0.00000000E+00
					-5.00000000E-02	 3.00000000E-01	 5.00000000E-02
					-5.00000000E-02	 0.00000000E+00	 1.00000000E-01
					-5.00000000E-02	 3.00000000E-01	 1.00000000E-01
					-5.00000000E-02	 0.00000000E+00	 1.50000000E-01
					-5.00000000E-02	 3.00000000E-01	 1.50000000E-01
					-5.00000000E-02	 0.00000000E+00	 2.00000000E-01
					-5.00000000E-02	 3.00000000E-01	 2.00000000E-01
					-5.00000000E-02	 0.00000000E+00	 2.50000000E-01
					-5.00000000E-02	 3.00000000E-01	 2.50000000E-01
					-5.00000000E-02	 0.00000000E+00	 3.00000000E-01
					-5.00000000E-02	 3.00000000E-01	 3.00000000E-01
					-5.00000000E-02	 0.00000000E+00	 3.50000000E-01
					-5.00000000E-02	 3.00000000E-01	 3.50000000E-01
					-5.00000000E-02	 0.00000000E+00	 4.00000000E-01
					-5.00000000E-02	 3.00000000E-01	 4.00000000E-01
					-5.00000000E-02	 0.00000000E+00	 4.50000000E-01
					-5.00000000E-02	 3.00000000E-01	 4.50000000E-01
					-5.00000000E-02	 0.00000000E+00	 5.00000000E-01
					-5.00000000E-02	 3.00000000E-01	 5.00000000E-01
					-5.00000000E-02	 0.00000000E+00	 5.50000000E-01
					-5.00000000E-02	 3.00000000E-01	 5.50000000E-01
					-5.00000000E-02	 0.00000000E+00	 6.00000000E-01
					-5.00000000E-02	 3.00000000E-01	 6.00000000E-01
					-5.00000000E-02	 0.00000000E+00	 6.50000000E-01
					-5.00000000E-02	 3.00000000E-01	 6.50000000E-01
					-5.00000000E-02	 0.00000000E+00	 7.00000000E-01
					-5.00000000E-02	 3.00000000E-01	 7.00000000E-01
					-5.00000000E-02	 0.00000000E+00	 7.50000000E-01
					-5.00000000E-02	 3.00000000E-01	 7.50000000E-01
					-5.00000000E-02	 0.00000000E+00	 8.00000000E-01
					-5.00000000E-02	 3.00000000E-01	 8.00000000E-01
					-5.00000000E-02	 0.00000000E+00	 8.50000000E-01
					-5.00000000E-02	 3.00000000E-01	 8.50000000E-01
					-5.00000000E-02	 0.00000000E+00	 9.00000000E-01
					-5.00000000E-02	 3.00000000E-01	 9.00000000E-01
					-5.00000000E-02	 0.00000000E+00	 9.50000000E-01
					-5.00000000E-02	 3.00000000E-01	 9.50000000E-01
					-5.00000000E-02	 0.00000000E+00	 1.00000000E+00
					-5.00000000E-02	 3.00000000E-01	 1.00000000E+00
				</DataArray>
			</Points>
			<Cells>
				<DataArray type="Int32" Name="connectivity" format="ascii">
					0 1 2 3 4 5 6 7 3 2 8 9 7 6 10 11 9 8 12 13 11 10 14 15 13 12 16 17 15 14 18 19 17 16 20 21 19 18 22 23 21 20 24 25 23 22 26 27 25 24 28 29 27 26 30 31 29 28 32 33 31 30 34 35 33 32 36 37 35 34 38 39 37 36 40 41 39 38 42 43 41 40 44 45 43 42 46 47 45 44 48 49 47 46 50 51 49 48 52 53 51 50 54 55 53 52 56 57 55 54 58 59 57 56 60 61 59 58 62 63 61 60 64 65 63 62 66 67 65 64 68 69 67 66 70 71 69 68 72 73 71 70 74 75 73 72 76 77 75 74 78 79 77 76 80 81 79 78 82 83 1 84 85 2 5 86 87 6 2 85 88 8 6 87 89 10 8 88 90 12 10 89 91 14 12 90 92 16 14 91 93 18 16 92 94 20 18 93 95 22 20 94 96 24 22 95 97 26 24 96 98 28 26 97 99 30 28 98 100 32 30 99 101 34 32 100 102 36 34 101 103 38 36 102 104 40 38 103 105 42 40 104 106 44 42 105 107 46 44 106 108 48 46 107 109 50 48 108 110 52 50 109 111 54 52 110 112 56 54 111 113 58 56 112 114 60 58 113 115 62 60 114 116 64 62 115 117 66 64 116 118 68 66 117 119 70 68 118 120 72 70 119 121 74 72 120 122 76 74 121 123 78 76 122 124 80 78 123 125 82 
				</DataArray>
				<DataArray type="Int32" Name="offsets" format="ascii">
					8 16 24 32 40 48 56 64 72 80 88 96 104 112 120 128 136 144 152 160 168 176 184 192 200 208 216 224 232 240 248 256 264 272 280 288 296 304 312 320 
				</DataArray>
				<DataArray type="UInt8" Name="types" format="ascii">
					12 12 12 12 12 12 12 12 12 12 12 12 12 12 12 12 12 12 12 12 12 12 12 12 12 12 12 12 12 12 12 12 12 12 12 12 12 12 12 12 
				</DataArray>
			</Cells>
			<PointData>
				<DataArray type="Float32" Name="U" NumberOfComponents="3" ComponentName0="D1" ComponentName1="D2" ComponentName2="D3" format="ascii">
					 0.00000000E+00	 0.00000000E+00	 0.00000000E+00
					 0.00000000E+00	 0.00000000E+00	 0.00000000E+00
					-1.35656000E-05	 0.00000000E+00	-2.75412000E-04
					-1.15444000E-03	 0.00000000E+00	 1.86297000E-04
					 0.00000000E+00	 0.00000000E+00	 0.00000000E+00
					 0.00000000E+00	 0.00000000E+00	 0.00000000E+00
					-1.35656000E-05	 0.00000000E+00	-2.75412000E-04
					-1.15444000E-03	 0.00000000E+00	 1.86297000E-04
					-2.01468000E-05	 0.00000000E+00	 2.05130000E-04
					-1.24874000E-03	 0.00000000E+00	 1.33372000E-04
					-2.01468000E-05	 0.00000000E+00	 2.05130000E-04
					-1.24874000E-03	 0.00000000E+00	 1.33372000E-04
					-1.76596000E-05	 0.00000000E+00	 1.71845000E-04
					-9.77605000E-04	 0.00000000E+00	-7.72445000E-05
					-1.76596000E-05	 0.00000000E+00	 1.71845000E-04
					-9.77605000E-04	 0.00000000E+00	-7.72445000E-05
					-1.64720000E-05	 0.00000000E+00	-9.34308000E-05
					-1.06146000E-03	 0.00000000E+00	-1.44932000E-05
					-1.64720000E-05	 0.00000000E+00	-9.34308000E-05
					-1.06146000E-03	 0.00000000E+00	-1.44932000E-05
					-1.81459000E-05	 0.00000000E+00	-5.71551000E-05
					-1.13935000E-03	 0.00000000E+00	 5.13160000E-05
					-1.81459000E-05	 0.00000000E+00	-5.71551000E-05
					-1.13935000E-03	 0.00000000E+00	 5.13160000E-05
					-1.92976000E-05	 0.00000000E+00	-4.68033000E-06
					-1.10739000E-03	 0.00000000E+00	-3.63172000E-06
					-1.92976000E-05	 0.00000000E+00	-4.68033000E-06
					-1.10739000E-03	 0.00000000E+00	-3.63172000E-06
					-1.86754000E-05	 0.00000000E+00	 8.79754000E-05
					-1.16793000E-03	 0.00000000E+00	-3.77512000E-05
					-1.86754000E-05	 0.00000000E+00	 8.79754000E-05
					-1.16793000E-03	 0.00000000E+00	-3.77512000E-05
					-1.87226000E-05	 0.00000000E+00	 2.19379000E-06
					-9.67221000E-04	 0.00000000E+00	 7.40498000E-07
					-1.87226000E-05	 0.00000000E+00	 2.19379000E-06
					-9.67221000E-04	 0.00000000E+00	 7.40498000E-07
					-1.96434000E-05	 0.00000000E+00	-9.16264000E-05
					-1.16602000E-03	 0.00000000E+00	 3.94336000E-05
					-1.96434000E-05	 0.00000000E+00	-9.16264000E-05
					-1.16602000E-03	 0.00000000E+00	 3.94336000E-05
					-2.17820000E-05	 0.00000000E+00	 7.57511000E-07
					-1.11078000E-03	 0.00000000E+00	 9.83702000E-07
					-2.17820000E-05	 0.00000000E+00	 7.57511000E-07
					-1.11078000E-03	 0.00000000E+00	 9.83702000E-07
					-2.11592000E-05	 0.00000000E+00	 8.99248000E-05
					-1.16589000E-03	 0.00000000E+00	-3.90362000E-05
					-2.11592000E-05	 0.00000000E+00	 8.99248000E-05
					-1.16589000E-03	 0.00000000E+00	-3.90362000E-05
					-2.15185000E-05	 0.00000000E+00	 4.79677000E-06
					-9.75705000E-04	 0.00000000E+00	 5.73304000E-06
					-2.15185000E-05	 0.00000000E+00	 4.79677000E-06
					-9.75705000E-04	 0.00000000E+00	 5.73304000E-06
					-2.27581000E-05	 0.00000000E+00	-1.00478000E-04
					-1.16227000E-03	 0.00000000E+00	 2.72684000E-05
					-2.27581000E-05	 0.00000000E+00	-1.00478000E-04
					-1.16227000E-03	 0.00000000E+00	 2.72684000E-05
					-2.56780000E-05	 0.00000000E+00	 1.53618000E-05
					-1.12186000E-03	 0.00000000E+00	 2.09890000E-05
					-2.56780000E-05	 0.00000000E+00	 1.53618000E-05
					-1.12186000E-03	 0.00000000E+00	 2.09890000E-05
					-2.56664000E-05	 0.00000000E+00	 1.04246000E-04
					-1.19293000E-03	 0.00000000E+00	-1.76410000E-05
					-2.56664000E-05	 0.00000000E+00	 1.04246000E-04
					-1.19293000E-03	 0.00000000E+00	-1.76410000E-05
					-2.51255000E-05	 0.00000000E+00	-1.37451000E-04
					-8.49628000E-04	 0.00000000E+00	-2.05862000E-04
					-2.51255000E-05	 0.00000000E+00	-1.37451000E-04
					-8.49628000E-04	 0.00000000E+00	-2.05862000E-04
					-2.98259000E-05	 0.00000000E+00	 2.13848000E-04
					-1.41470000E-03	 0.00000000E+00	 4.62832000E-04
					-2.98259000E-05	 0.00000000E+00	 2.13848000E-04
					-1.41470000E-03	 0.00000000E+00	 4.62832000E-04
					-3.59612000E-05	 0.00000000E+00	 1.25739000E-04
					-1.42947000E-03	 0.00000000E+00	 5.63724000E-04
					-3.59612000E-05	 0.00000000E+00	 1.25739000E-04
					-1.42947000E-03	 0.00000000E+00	 5.63724000E-04
					-3.81850000E-05	 0.00000000E+00	 3.36113000E-04
					-6.97033000E-04	 0.00000000E+00	-9.28246000E-05
					-3.81850000E-05	 0.00000000E+00	 3.36113000E-04
					-6.97033000E-04	 0.00000000E+00	-9.28246000E-05
					-2.59541000E-05	 0.00000000E+00	 5.28754000E-04
					-8.37560000E-04	 0.00000000E+00	 3.06522000E-04
					-2.59541000E-05	 0.00000000E+00	 5.28754000E-04
					-8.37560000E-04	 0.00000000E+00	 3.06522000E-04
					 0.00000000E+00	 0.00000000E+00	 0.00000000E+00
					 1.15454000E-03	 0.00000000E+00	 1.81081000E-04
					 0.00000000E+00	 0.00000000E+00	 0.00000000E+00
					 1.15454000E-03	 0.00000000E+00	 1.81081000E-04
					 1.22966000E-03	 0.00000000E+00	 1.26895000E-04
					 1.22966000E-03	 0.00000000E+00	 1.26895000E-04
					 9.59906000E-04	 0.00000000E+00	-7.40623000E-05
					 9.59906000E-04	 0.00000000E+00	-7.40623000E-05
					 1.04494000E-03	 0.00000000E+00	-1.44937000E-05
					 1.04494000E-03	 0.00000000E+00	-1.44937000E-05
					 1.11941000E-03	 0.00000000E+00	 4.94487000E-05
					 1.11941000E-03	 0.00000000E+00	 4.94487000E-05
					 1.09201000E-03	 0.00000000E+00	-3.60467000E-06
					 1.09201000E-03	 0.00000000E+00	-3.60467000E-06
					 1.14610000E-03	 0.00000000E+00	-3.79452000E-05
					 1.14610000E-03	 0.00000000E+00	-3.79452000E-05
					 9.47789000E-04	 0.00000000E+00	 9.18446000E-08
					 9.47789000E-04	 0.00000000E+00	 9.18446000E-08
					 1.14185000E-03	 0.00000000E+00	 3.80321000E-05
					 1.14185000E-03	 0.00000000E+00	 3.80321000E-05
					 1.09079000E-03	 0.00000000E+00	 9.14325000E-08
					 1.09079000E-03	 0.00000000E+00	 9.14325000E-08
					 1.13863000E-03	 0.00000000E+00	-3.93512000E-05
					 1.13863000E-03	 0.00000000E+00	-3.93512000E-05
					 9.50600000E-04	 0.00000000E+00	 4.59644000E-06
					 9.50600000E-04	 0.00000000E+00	 4.59644000E-06
					 1.13093000E-03	 0.00000000E+00	 2.52458000E-05
					 1.13093000E-03	 0.00000000E+00	 2.52458000E-05
					 1.09473000E-03	 0.00000000E+00	 1.89863000E-05
					 1.09473000E-03	 0.00000000E+00	 1.89863000E-05
					 1.15551000E-03	 0.00000000E+00	-1.70988000E-05
					 1.15551000E-03	 0.00000000E+00	-1.70988000E-05
					 8.16227000E-04	 0.00000000E+00	-2.11263000E-04
					 8.16227000E-04	 0.00000000E+00	-2.11263000E-04
					 1.37308000E-03	 0.00000000E+00	 4.60972000E-04
					 1.37308000E-03	 0.00000000E+00	 4.60972000E-04
					 1.37199000E-03	 0.00000000E+00	 5.65755000E-04
					 1.37199000E-03	 0.00000000E+00	 5.65755000E-04
					 6.60697000E-04	 0.00000000E+00	-7.67814000E-05
					 6.60697000E-04	 0.00000000E+00	-7.67814000E-05
					 7.94313000E-04	 0.00000000E+00	 3.11042000E-04
					 7.94313000E-04	 0.00000000E+00	 3.11042000E-04
				</DataArray>
			</PointData>
		</Piece>
	</UnstructuredGrid>
</VTKFile>