<?xml version="1.0"?>
<VTKFile type="UnstructuredGrid" version="0.1" byte_order="LittleEndian">
	<UnstructuredGrid>
		<Piece NumberOfPoints="126" NumberOfCells="40">
			<Points>
				<DataArray type="Float64" NumberOfComponents="3" format="ascii">
					 5.00000000E-02	 0.00000000E+00	 0.00000000E+00
					 0.00000000E+00	 0.00000000E+00	 0.00000000E+00
					 0.00000000E+00	 0.00000000E+00	 5.00000000E-02
					 5.00000000E-02	 0.00000000E+00	 5.00000000E-02
					 5.00000000E-02	 3.00000000E-01	 0.00000000E+00
					 0.00000000E+00	 3.00000000E-01	 0.00000000E+00
					 0.00000000E+00	 3.00000000E-01	 5.00000000E-02
					 5.00000000E-02	 3.00000000E-01	 5.00000000E-02
					 0.00000000E+00	 0.00000000E+00	 1.00000000E-01
					 5.00000000E-02	 0.00000000E+00	 1.00000000E-01
					 0.00000000E+00	 3.00000000E-01	 1.00000000E-01
					 5.00000000E-02	 3.00000000E-01	 1.00000000E-01
					 0.00000000E+00	 0.00000000E+00	 1.50000000E-01
					 5.00000000E-02	 0.00000000E+00	 1.50000000E-01
					 0.00000000E+00	 3.00000000E-01	 1.50000000E-01
					 5.00000000E-02	 3.00000000E-01	 1.50000000E-01
					 0.00000000E+00	 0.00000000E+00	 2.00000000E-01
					 5.00000000E-02	 0.00000000E+00	 2.00000000E-01
					 0.00000000E+00	 3.00000000E-01	 2.00000000E-01
					 5.00000000E-02	 3.00000000E-01	 2.00000000E-01
					 0.00000000E+00	 0.00000000E+00	 2.50000000E-01
					 5.00000000E-02	 0.00000000E+00	 2.50000000E-01
					 0.00000000E+00	 3.00000000E-01	 2.50000000E-01
					 5.00000000E-02	 3.00000000E-01	 2.50000000E-01
					 0.00000000E+00	 0.00000000E+00	 3.00000000E-01
					 5.00000000E-02	 0.00000000E+00	 3.00000000E-01
					 0.00000000E+00	 3.00000000E-01	 3.00000000E-01
					 5.00000000E-02	 3.00000000E-01	 3.00000000E-01
					 0.00000000E+00	 0.00000000E+00	 3.50000000E-01
					 5.00000000E-02	 0.00000000E+00	 3.50000000E-01
					 0.00000000E+00	 3.00000000E-01	 3.50000000E-01
					 5.00000000E-02	 3.00000000E-01	 3.50000000E-01
					 0.00000000E+00	 0.00000000E+00	 4.00000000E-01
					 5.00000000E-02	 0.00000000E+00	 4.00000000E-01
					 0.00000000E+00	 3.00000000E-01	 4.00000000E-01
					 5.00000000E-02	 3.00000000E-01	 4.00000000E-01
					 0.00000000E+00	 0.00000000E+00	 4.50000000E-01
					 5.00000000E-02	 0.00000000E+00	 4.50000000E-01
					 0.00000000E+00	 3.00000000E-01	 4.50000000E-01
					 5.00000000E-02	 3.00000000E-01	 4.50000000E-01
					 0.00000000E+00	 0.00000000E+00	 5.00000000E-01
					 5.00000000E-02	 0.00000000E+00	 5.00000000E-01
					 0.00000000E+00	 3.00000000E-01	 5.00000000E-01
					 5.00000000E-02	 3.00000000E-01	 5.00000000E-01
					 0.00000000E+00	 0.00000000E+00	 5.50000000E-01
					 5.00000000E-02	 0.00000000E+00	 5.50000000E-01
					 0.00000000E+00	 3.00000000E-01	 5.50000000E-01
					 5.00000000E-02	 3.00000000E-01	 5.50000000E-01
					 0.00000000E+00	 0.00000000E+00	 6.00000000E-01
					 5.00000000E-02	 0.00000000E+00	 6.00000000E-01
					 0.00000000E+00	 3.00000000E-01	 6.00000000E-01
					 5.00000000E-02	 3.00000000E-01	 6.00000000E-01
					 0.00000000E+00	 0.00000000E+00	 6.50000000E-01
					 5.00000000E-02	 0.00000000E+00	 6.50000000E-01
					 0.00000000E+00	 3.00000000E-01	 6.50000000E-01
					 5.00000000E-02	 3.00000000E-01	 6.50000000E-01
					 0.00000000E+00	 0.00000000E+00	 7.00000000E-01
					 5.00000000E-02	 0.00000000E+00	 7.00000000E-01
					 0.00000000E+00	 3.00000000E-01	 7.00000000E-01
					 5.00000000E-02	 3.00000000E-01	 7.00000000E-01
					 0.00000000E+00	 0.00000000E+00	 7.50000000E-01
					 5.00000000E-02	 0.00000000E+00	 7.50000000E-01
					 0.00000000E+00	 3.00000000E-01	 7.50000000E-01
					 5.00000000E-02	 3.00000000E-01	 7.50000000E-01
					 0.00000000E+00	 0.00000000E+00	 8.00000000E-01
					 5.00000000E-02	 0.00000000E+00	 8.00000000E-01
					 0.00000000E+00	 3.00000000E-01	 8.00000000E-01
					 5.00000000E-02	 3.00000000E-01	 8.00000000E-01
					 0.00000000E+00	 0.00000000E+00	 8.50000000E-01
					 5.00000000E-02	 0.00000000E+00	 8.50000000E-01
					 0.00000000E+00	 3.00000000E-01	 8.50000000E-01
					 5.00000000E-02	 3.00000000E-01	 8.50000000E-01
					 0.00000000E+00	 0.00000000E+00	 9.00000000E-01
					 5.00000000E-02	 0.00000000E+00	 9.00000000E-01
					 0.00000000E+00	 3.00000000E-01	 9.00000000E-01
					 5.00000000E-02	 3.00000000E-01	 9.00000000E-01
					 0.00000000E+00	 0.00000000E+00	 9.50000000E-01
					 5.00000000E-02	 0.00000000E+00	 9.50000000E-01
					 0.00000000E+00	 3.00000000E-01	 9.50000000E-01
					 5.00000000E-02	 3.00000000E-01	 9.50000000E-01
					 0.00000000E+00	 0.00000000E+00	 1.00000000E+00
					 5.00000000E-02	 0.00000000E+00	 1.00000000E+00
					 0.00000000E+00	 3.00000000E-01	 1.00000000E+00
					 5.00000000E-02	 3.00000000E-01	 1.00000000E+00
					-5.00000000E-02	 0.00000000E+00	 0.00000000E+00
					-5.00000000E-02	 0.00000000E+00	 5.00000000E-02
					-5.00000000E-02	 3.00000000E-01	 0.00000000E+00
					-5.00000000E-02	 3.00000000E-01	 5.00000000E-02
					-5.00000000E-02	 0.00000000E+00	 1.00000000E-01
					-5.00000000E-02	 3.00000000E-01	 1.00000000E-01
					-5.00000000E-02	 0.00000000E+00	 1.50000000E-01
					-5.00000000E-02	 3.00000000E-01	 1.50000000E-01
					-5.00000000E-02	 0.00000000E+00	 2.00000000E-01
					-5.00000000E-02	 3.00000000E-01	 2.00000000E-01
					-5.00000000E-02	 0.00000000E+00	 2.50000000E-01
					-5.00000000E-02	 3.00000000E-01	 2.50000000E-01
					-5.00000000E-02	 0.00000000E+00	 3.00000000E-01
					-5.00000000E-02	 3.00000000E-01	 3.00000000E-01
					-5.00000000E-02	 0.00000000E+00	 3.50000000E-01
					-5.00000000E-02	 3.00000000E-01	 3.50000000E-01
					-5.00000000E-02	 0.00000000E+00	 4.00000000E-01
					-5.00000000E-02	 3.00000000E-01	 4.00000000E-01
					-5.00000000E-02	 0.00000000E+00	 4.50000000E-01
					-5.00000000E-02	 3.00000000E-01	 4.50000000E-01
					-5.00000000E-02	 0.00000000E+00	 5.00000000E-01
					-5.00000000E-02	 3.00000000E-01	 5.00000000E-01
					-5.00000000E-02	 0.00000000E+00	 5.50000000E-01
					-5.00000000E-02	 3.00000000E-01	 5.50000000E-01
					-5.00000000E-02	 0.00000000E+00	 6.00000000E-01
					-5.00000000E-02	 3.00000000E-01	 6.00000000E-01
					-5.00000000E-02	 0.00000000E+00	 6.50000000E-01
					-5.00000000E-02	 3.00000000E-01	 6.50000000E-01
					-5.00000000E-02	 0.00000000E+00	 7.00000000E-01
					-5.00000000E-02	 3.00000000E-01	 7.00000000E-01
					-5.00000000E-02	 0.00000000E+00	 7.50000000E-01
					-5.00000000E-02	 3.00000000E-01	 7.50000000E-01
					-5.00000000E-02	 0.00000000E+00	 8.00000000E-01
					-5.00000000E-02	 3.00000000E-01	 8.00000000E-01
					-5.00000000E-02	 0.00000000E+00	 8.50000000E-01
					-5.00000000E-02	 3.00000000E-01	 8.50000000E-01
					-5.00000000E-02	 0.00000000E+00	 9.00000000E-01
					-5.00000000E-02	 3.00000000E-01	 9.00000000E-01
					-5.00000000E-02	 0.00000000E+00	 9.50000000E-01
					-5.00000000E-02	 3.00000000E-01	 9.50000000E-01
					-5.00000000E-02	 0.00000000E+00	 1.00000000E+00
					-5.00000000E-02	 3.00000000E-01	 1.00000000E+00
				</DataArray>
			</Points>
			<Cells>
				<DataArray type="Int32" Name="connectivity" format="ascii">
					0 1 2 3 4 5 6 7 3 2 8 9 7 6 10 11 9 8 12 13 11 10 14 15 13 12 16 17 15 14 18 19 17 16 20 21 19 18 22 23 21 20 24 25 23 22 26 27 25 24 28 29 27 26 30 31 29 28 32 33 31 30 34 35 33 32 36 37 35 34 38 39 37 36 40 41 39 38 42 43 41 40 44 45 43 42 46 47 45 44 48 49 47 46 50 51 49 48 52 53 51 50 54 55 53 52 56 57 55 54 58 59 57 56 60 61 59 58 62 63 61 60 64 65 63 62 66 67 65 64 68 69 67 66 70 71 69 68 72 73 71 70 74 75 73 72 76 77 75 74 78 79 77 76 80 81 79 78 82 83 1 84 85 2 5 86 87 6 2 85 88 8 6 87 89 10 8 88 90 12 10 89 91 14 12 90 92 16 14 91 93 18 16 92 94 20 18 93 95 22 20 94 96 24 22 95 97 26 24 96 98 28 26 97 99 30 28 98 100 32 30 99 101 34 32 100 102 36 34 101 103 38 36 102 104 40 38 103 105 42 40 104 106 44 42 105 107 46 44 106 108 48 46 107 109 50 48 108 110 52 50 109 111 54 52 110 112 56 54 111 113 58 56 112 114 60 58 113 115 62 60 114 116 64 62 115 117 66 64 116 118 68 66 117 119 70 68 118 120 72 70 119 121 74 72 120 122 76 74 121 123 78 76 122 124 80 78 123 125 82 
				</DataArray>
				<DataArray type="Int32" Name="offsets" format="ascii">
					8 16 24 32 40 48 56 64 72 80 88 96 104 112 120 128 136 144 152 160 168 176 184 192 200 208 216 224 232 240 248 256 264 272 280 288 296 304 312 320 
				</DataArray>
				<DataArray type="UInt8" Name="types" format="ascii">
					12 12 12 12 12 12 12 12 12 12 12 12 12 12 12 12 12 12 12 12 12 12 12 12 12 12 12 12 12 12 12 12 12 12 12 12 12 12 12 12 
				</DataArray>
			</Cells>
			<PointData>
				<DataArray type="Float32" Name="U" NumberOfComponents="3" ComponentName0="D1" ComponentName1="D2" ComponentName2="D3" format="ascii">
					 0.00000000E+00	 0.00000000E+00	 0.00000000E+00
					 0.00000000E+00	 0.00000000E+00	 0.00000000E+00
					 4.18995000E-03	 0.00000000E+00	 1.98872000E-03
					 1.10458000E-03	 0.00000000E+00	-4.30909000E-03
					 0.00000000E+00	 0.00000000E+00	 0.00000000E+00
					 0.00000000E+00	 0.00000000E+00	 0.00000000E+00
					 4.18995000E-03	 0.00000000E+00	 1.98872000E-03
					 1.10458000E-03	 0.00000000E+00	-4.30909000E-03
					 5.57254000E-02	 0.00000000E+00	-9.90995000E-03
					 1.38449000E-02	 0.00000000E+00	 4.61558000E-03
					 5.57254000E-02	 0.00000000E+00	-9.90995000E-03
					 1.38449000E-02	 0.00000000E+00	 4.61558000E-03
					 6.08231000E-02	 0.00000000E+00	 9.56766000E-03
					-3.57133000E-02	 0.00000000E+00	 1.29052000E-03
					 6.08231000E-02	 0.00000000E+00	 9.56766000E-03
					-3.57133000E-02	 0.00000000E+00	 1.29052000E-03
					 2.59982000E-03	 0.00000000E+00	-4.44175000E-03
					-1.03808000E-02	 0.00000000E+00	 8.49441000E-03
					 2.59982000E-03	 0.00000000E+00	-4.44175000E-03
					-1.03808000E-02	 0.00000000E+00	 8.49441000E-03
					 6.00145000E-03	 0.00000000E+00	-4.25635000E-03
					 2.40968000E-03	 0.00000000E+00	 1.48521000E-03
					 6.00145000E-03	 0.00000000E+00	-4.25635000E-03
					 2.40968000E-03	 0.00000000E+00	 1.48521000E-03
					 1.26228000E-02	 0.00000000E+00	 5.24495000E-03
					 2.03145000E-02	 0.00000000E+00	-3.22491000E-03
					 1.26228000E-02	 0.00000000E+00	 5.24495000E-03
					 2.03145000E-02	 0.00000000E+00	-3.22491000E-03
					 1.28716000E-02	 0.00000000E+00	-3.45888000E-03
					 1.01854000E-02	 0.00000000E+00	-9.86442000E-05
					 1.28716000E-02	 0.00000000E+00	-3.45888000E-03
					 1.01854000E-02	 0.00000000E+00	-9.86442000E-05
					 1.25711000E-02	 0.00000000E+00	 7.72803000E-04
					 1.30797000E-02	 0.00000000E+00	 2.80649000E-05
					 1.25711000E-02	 0.00000000E+00	 7.72803000E-04
					 1.30797000E-02	 0.00000000E+00	 2.80649000E-05
					 1.24669000E-02	 0.00000000E+00	 9.07095000E-04
					 1.38861000E-02	 0.00000000E+00	 2.43203000E-04
					 1.24669000E-02	 0.00000000E+00	 9.07095000E-04
					 1.38861000E-02	 0.00000000E+00	 2.43203000E-04
					 1.21772000E-02	 0.00000000E+00	 1.83873000E-04
					 1.32819000E-02	 0.00000000E+00	 6.64315000E-04
					 1.21772000E-02	 0.00000000E+00	 1.83873000E-04
					 1.32819000E-02	 0.00000000E+00	 6.64315000E-04
					 1.16932000E-02	 0.00000000E+00	 2.53129000E-04
					 1.25799000E-02	 0.00000000E+00	 1.01563000E-03
					 1.16932000E-02	 0.00000000E+00	 2.53129000E-04
					 1.25799000E-02	 0.00000000E+00	 1.01563000E-03
					 1.12928000E-02	 0.00000000E+00	 7.07257000E-04
					 1.17151000E-02	 0.00000000E+00	 8.95869000E-04
					 1.12928000E-02	 0.00000000E+00	 7.07257000E-04
					 1.17151000E-02	 0.00000000E+00	 8.95869000E-04
					 1.07950000E-02	 0.00000000E+00	 8.52507000E-04
					 1.18797000E-02	 0.00000000E+00	 9.97232000E-04
					 1.07950000E-02	 0.00000000E+00	 8.52507000E-04
					 1.18797000E-02	 0.00000000E+00	 9.97232000E-04
					 1.02458000E-02	 0.00000000E+00	 6.74083000E-04
					 1.04772000E-02	 0.00000000E+00	 1.22150000E-03
					 1.02458000E-02	 0.00000000E+00	 6.74083000E-04
					 1.04772000E-02	 0.00000000E+00	 1.22150000E-03
					 9.78222000E-03	 0.00000000E+00	 1.06561000E-03
					 1.01889000E-02	 0.00000000E+00	 1.58952000E-03
					 9.78222000E-03	 0.00000000E+00	 1.06561000E-03
					 1.01889000E-02	 0.00000000E+00	 1.58952000E-03
					 9.06809000E-03	 0.00000000E+00	 1.45599000E-03
					 1.02520000E-02	 0.00000000E+00	 2.09335000E-03
					 9.06809000E-03	 0.00000000E+00	 1.45599000E-03
					 1.02520000E-02	 0.00000000E+00	 2.09335000E-03
					 8.02353000E-03	 0.00000000E+00	 7.76726000E-04
					 8.71970000E-03	 0.00000000E+00	 2.61028000E-03
					 8.02353000E-03	 0.00000000E+00	 7.76726000E-04
					 8.71970000E-03	 0.00000000E+00	 2.61028000E-03
					 7.34249000E-03	 0.00000000E+00	 1.02294000E-03
					 7.24609000E-03	 0.00000000E+00	 2.66750000E-03
					 7.34249000E-03	 0.00000000E+00	 1.02294000E-03
					 7.24609000E-03	 0.00000000E+00	 2.66750000E-03
					 6.65631000E-03	 0.00000000E+00	 1.95270000E-03
					 6.70619000E-03	 0.00000000E+00	 2.14385000E-03
					 6.65631000E-03	 0.00000000E+00	 1.95270000E-03
					 6.70619000E-03	 0.00000000E+00	 2.14385000E-03
					 6.48608000E-03	 0.00000000E+00	 1.35858000E-03
					 7.86268000E-03	 0.00000000E+00	 4.13662000E-04
					 6.48608000E-03	 0.00000000E+00	 1.35858000E-03
					 7.86268000E-03	 0.00000000E+00	 4.13662000E-04
					 0.00000000E+00	 0.00000000E+00	 0.00000000E+00
					 9.47019000E-02	 0.00000000E+00	-2.93256000E-02
					 0.00000000E+00	 0.00000000E+00	 0.00000000E+00
					 9.47019000E-02	 0.00000000E+00	-2.93256000E-02
					 1.13025000E-01	 0.00000000E+00	-3.43353000E-02
					 1.13025000E-01	 0.00000000E+00	-3.43353000E-02
					 1.24811000E-01	 0.00000000E+00	-1.07348000E-02
					 1.24811000E-01	 0.00000000E+00	-1.07348000E-02
					 1.18719000E-01	 0.00000000E+00	 2.40209000E-02
					 1.18719000E-01	 0.00000000E+00	 2.40209000E-02
					 4.04709000E-02	 0.00000000E+00	 1.42171000E-02
					 4.04709000E-02	 0.00000000E+00	 1.42171000E-02
					 2.32467000E-03	 0.00000000E+00	-8.71011000E-03
					 2.32467000E-03	 0.00000000E+00	-8.71011000E-03
					 1.58171000E-02	 0.00000000E+00	 2.89015000E-03
					 1.58171000E-02	 0.00000000E+00	 2.89015000E-03
					 1.22492000E-02	 0.00000000E+00	-1.67197000E-03
					 1.22492000E-02	 0.00000000E+00	-1.67197000E-03
					 1.16033000E-02	 0.00000000E+00	 3.89566000E-04
					 1.16033000E-02	 0.00000000E+00	 3.89566000E-04
					 1.06935000E-02	 0.00000000E+00	 9.09509000E-05
					 1.06935000E-02	 0.00000000E+00	 9.09509000E-05
					 1.09143000E-02	 0.00000000E+00	 2.07512000E-04
					 1.09143000E-02	 0.00000000E+00	 2.07512000E-04
					 1.08541000E-02	 0.00000000E+00	 1.00315000E-04
					 1.08541000E-02	 0.00000000E+00	 1.00315000E-04
					 9.75245000E-03	 0.00000000E+00	 3.63795000E-05
					 9.75245000E-03	 0.00000000E+00	 3.63795000E-05
					 1.00783000E-02	 0.00000000E+00	 1.24878000E-04
					 1.00783000E-02	 0.00000000E+00	 1.24878000E-04
					 9.44060000E-03	 0.00000000E+00	 3.48286000E-04
					 9.44060000E-03	 0.00000000E+00	 3.48286000E-04
					 7.89840000E-03	 0.00000000E+00	 6.58028000E-04
					 7.89840000E-03	 0.00000000E+00	 6.58028000E-04
					 7.39312000E-03	 0.00000000E+00	 1.23935000E-03
					 7.39312000E-03	 0.00000000E+00	 1.23935000E-03
					 7.51093000E-03	 0.00000000E+00	 1.48473000E-03
					 7.51093000E-03	 0.00000000E+00	 1.48473000E-03
					 6.65626000E-03	 0.00000000E+00	 1.02343000E-03
					 6.65626000E-03	 0.00000000E+00	 1.02343000E-03
					 5.33814000E-03	 0.00000000E+00	-4.80491000E-04
					 5.33814000E-03	 0.00000000E+00	-4.80491000E-04
				</DataArray>
			</PointData>
		</Piece>
	</UnstructuredGrid>
</VTKFile>