<?xml version="1.0"?>
<VTKFile type="UnstructuredGrid" version="0.1" byte_order="LittleEndian">
	<UnstructuredGrid>
		<Piece NumberOfPoints="126" NumberOfCells="40">
			<Points>
				<DataArray type="Float64" NumberOfComponents="3" format="ascii">
					 5.00000000E-02	 0.00000000E+00	 0.00000000E+00
					 0.00000000E+00	 0.00000000E+00	 0.00000000E+00
					 0.00000000E+00	 0.00000000E+00	 5.00000000E-02
					 5.00000000E-02	 0.00000000E+00	 5.00000000E-02
					 5.00000000E-02	 3.00000000E-01	 0.00000000E+00
					 0.00000000E+00	 3.00000000E-01	 0.00000000E+00
					 0.00000000E+00	 3.00000000E-01	 5.00000000E-02
					 5.00000000E-02	 3.00000000E-01	 5.00000000E-02
					 0.00000000E+00	 0.00000000E+00	 1.00000000E-01
					 5.00000000E-02	 0.00000000E+00	 1.00000000E-01
					 0.00000000E+00	 3.00000000E-01	 1.00000000E-01
					 5.00000000E-02	 3.00000000E-01	 1.00000000E-01
					 0.00000000E+00	 0.00000000E+00	 1.50000000E-01
					 5.00000000E-02	 0.00000000E+00	 1.50000000E-01
					 0.00000000E+00	 3.00000000E-01	 1.50000000E-01
					 5.00000000E-02	 3.00000000E-01	 1.50000000E-01
					 0.00000000E+00	 0.00000000E+00	 2.00000000E-01
					 5.00000000E-02	 0.00000000E+00	 2.00000000E-01
					 0.00000000E+00	 3.00000000E-01	 2.00000000E-01
					 5.00000000E-02	 3.00000000E-01	 2.00000000E-01
					 0.00000000E+00	 0.00000000E+00	 2.50000000E-01
					 5.00000000E-02	 0.00000000E+00	 2.50000000E-01
					 0.00000000E+00	 3.00000000E-01	 2.50000000E-01
					 5.00000000E-02	 3.00000000E-01	 2.50000000E-01
					 0.00000000E+00	 0.00000000E+00	 3.00000000E-01
					 5.00000000E-02	 0.00000000E+00	 3.00000000E-01
					 0.00000000E+00	 3.00000000E-01	 3.00000000E-01
					 5.00000000E-02	 3.00000000E-01	 3.00000000E-01
					 0.00000000E+00	 0.00000000E+00	 3.50000000E-01
					 5.00000000E-02	 0.00000000E+00	 3.50000000E-01
					 0.00000000E+00	 3.00000000E-01	 3.50000000E-01
					 5.00000000E-02	 3.00000000E-01	 3.50000000E-01
					 0.00000000E+00	 0.00000000E+00	 4.00000000E-01
					 5.00000000E-02	 0.00000000E+00	 4.00000000E-01
					 0.00000000E+00	 3.00000000E-01	 4.00000000E-01
					 5.00000000E-02	 3.00000000E-01	 4.00000000E-01
					 0.00000000E+00	 0.00000000E+00	 4.50000000E-01
					 5.00000000E-02	 0.00000000E+00	 4.50000000E-01
					 0.00000000E+00	 3.00000000E-01	 4.50000000E-01
					 5.00000000E-02	 3.00000000E-01	 4.50000000E-01
					 0.00000000E+00	 0.00000000E+00	 5.00000000E-01
					 5.00000000E-02	 0.00000000E+00	 5.00000000E-01
					 0.00000000E+00	 3.00000000E-01	 5.00000000E-01
					 5.00000000E-02	 3.00000000E-01	 5.00000000E-01
					 0.00000000E+00	 0.00000000E+00	 5.50000000E-01
					 5.00000000E-02	 0.00000000E+00	 5.50000000E-01
					 0.00000000E+00	 3.00000000E-01	 5.50000000E-01
					 5.00000000E-02	 3.00000000E-01	 5.50000000E-01
					 0.00000000E+00	 0.00000000E+00	 6.00000000E-01
					 5.00000000E-02	 0.00000000E+00	 6.00000000E-01
					 0.00000000E+00	 3.00000000E-01	 6.00000000E-01
					 5.00000000E-02	 3.00000000E-01	 6.00000000E-01
					 0.00000000E+00	 0.00000000E+00	 6.50000000E-01
					 5.00000000E-02	 0.00000000E+00	 6.50000000E-01
					 0.00000000E+00	 3.00000000E-01	 6.50000000E-01
					 5.00000000E-02	 3.00000000E-01	 6.50000000E-01
					 0.00000000E+00	 0.00000000E+00	 7.00000000E-01
					 5.00000000E-02	 0.00000000E+00	 7.00000000E-01
					 0.00000000E+00	 3.00000000E-01	 7.00000000E-01
					 5.00000000E-02	 3.00000000E-01	 7.00000000E-01
					 0.00000000E+00	 0.00000000E+00	 7.50000000E-01
					 5.00000000E-02	 0.00000000E+00	 7.50000000E-01
					 0.00000000E+00	 3.00000000E-01	 7.50000000E-01
					 5.00000000E-02	 3.00000000E-01	 7.50000000E-01
					 0.00000000E+00	 0.00000000E+00	 8.00000000E-01
					 5.00000000E-02	 0.00000000E+00	 8.00000000E-01
					 0.00000000E+00	 3.00000000E-01	 8.00000000E-01
					 5.00000000E-02	 3.00000000E-01	 8.00000000E-01
					 0.00000000E+00	 0.00000000E+00	 8.50000000E-01
					 5.00000000E-02	 0.00000000E+00	 8.50000000E-01
					 0.00000000E+00	 3.00000000E-01	 8.50000000E-01
					 5.00000000E-02	 3.00000000E-01	 8.50000000E-01
					 0.00000000E+00	 0.00000000E+00	 9.00000000E-01
					 5.00000000E-02	 0.00000000E+00	 9.00000000E-01
					 0.00000000E+00	 3.00000000E-01	 9.00000000E-01
					 5.00000000E-02	 3.00000000E-01	 9.00000000E-01
					 0.00000000E+00	 0.00000000E+00	 9.50000000E-01
					 5.00000000E-02	 0.00000000E+00	 9.50000000E-01
					 0.00000000E+00	 3.00000000E-01	 9.50000000E-01
					 5.00000000E-02	 3.00000000E-01	 9.50000000E-01
					 0.00000000E+00	 0.00000000E+00	 1.00000000E+00
					 5.00000000E-02	 0.00000000E+00	 1.00000000E+00
					 0.00000000E+00	 3.00000000E-01	 1.00000000E+00
					 5.00000000E-02	 3.00000000E-01	 1.00000000E+00
					-5.00000000E-02	 0.00000000E+00	 0.00000000E+00
					-5.00000000E-02	 0.00000000E+00	 5.00000000E-02
					-5.00000000E-02	 3.00000000E-01	 0.00000000E+00
					-5.00000000E-02	 3.00000000E-01	 5.00000000E-02
					-5.00000000E-02	 0.00000000E+00	 1.00000000E-01
					-5.00000000E-02	 3.00000000E-01	 1.00000000E-01
					-5.00000000E-02	 0.00000000E+00	 1.50000000E-01
					-5.00000000E-02	 3.00000000E-01	 1.50000000E-01
					-5.00000000E-02	 0.00000000E+00	 2.00000000E-01
					-5.00000000E-02	 3.00000000E-01	 2.00000000E-01
					-5.00000000E-02	 0.00000000E+00	 2.50000000E-01
					-5.00000000E-02	 3.00000000E-01	 2.50000000E-01
					-5.00000000E-02	 0.00000000E+00	 3.00000000E-01
					-5.00000000E-02	 3.00000000E-01	 3.00000000E-01
					-5.00000000E-02	 0.00000000E+00	 3.50000000E-01
					-5.00000000E-02	 3.00000000E-01	 3.50000000E-01
					-5.00000000E-02	 0.00000000E+00	 4.00000000E-01
					-5.00000000E-02	 3.00000000E-01	 4.00000000E-01
					-5.00000000E-02	 0.00000000E+00	 4.50000000E-01
					-5.00000000E-02	 3.00000000E-01	 4.50000000E-01
					-5.00000000E-02	 0.00000000E+00	 5.00000000E-01
					-5.00000000E-02	 3.00000000E-01	 5.00000000E-01
					-5.00000000E-02	 0.00000000E+00	 5.50000000E-01
					-5.00000000E-02	 3.00000000E-01	 5.50000000E-01
					-5.00000000E-02	 0.00000000E+00	 6.00000000E-01
					-5.00000000E-02	 3.00000000E-01	 6.00000000E-01
					-5.00000000E-02	 0.00000000E+00	 6.50000000E-01
					-5.00000000E-02	 3.00000000E-01	 6.50000000E-01
					-5.00000000E-02	 0.00000000E+00	 7.00000000E-01
					-5.00000000E-02	 3.00000000E-01	 7.00000000E-01
					-5.00000000E-02	 0.00000000E+00	 7.50000000E-01
					-5.00000000E-02	 3.00000000E-01	 7.50000000E-01
					-5.00000000E-02	 0.00000000E+00	 8.00000000E-01
					-5.00000000E-02	 3.00000000E-01	 8.00000000E-01
					-5.00000000E-02	 0.00000000E+00	 8.50000000E-01
					-5.00000000E-02	 3.00000000E-01	 8.50000000E-01
					-5.00000000E-02	 0.00000000E+00	 9.00000000E-01
					-5.00000000E-02	 3.00000000E-01	 9.00000000E-01
					-5.00000000E-02	 0.00000000E+00	 9.50000000E-01
					-5.00000000E-02	 3.00000000E-01	 9.50000000E-01
					-5.00000000E-02	 0.00000000E+00	 1.00000000E+00
					-5.00000000E-02	 3.00000000E-01	 1.00000000E+00
				</DataArray>
			</Points>
			<Cells>
				<DataArray type="Int32" Name="connectivity" format="ascii">
					0 1 2 3 4 5 6 7 3 2 8 9 7 6 10 11 9 8 12 13 11 10 14 15 13 12 16 17 15 14 18 19 17 16 20 21 19 18 22 23 21 20 24 25 23 22 26 27 25 24 28 29 27 26 30 31 29 28 32 33 31 30 34 35 33 32 36 37 35 34 38 39 37 36 40 41 39 38 42 43 41 40 44 45 43 42 46 47 45 44 48 49 47 46 50 51 49 48 52 53 51 50 54 55 53 52 56 57 55 54 58 59 57 56 60 61 59 58 62 63 61 60 64 65 63 62 66 67 65 64 68 69 67 66 70 71 69 68 72 73 71 70 74 75 73 72 76 77 75 74 78 79 77 76 80 81 79 78 82 83 1 84 85 2 5 86 87 6 2 85 88 8 6 87 89 10 8 88 90 12 10 89 91 14 12 90 92 16 14 91 93 18 16 92 94 20 18 93 95 22 20 94 96 24 22 95 97 26 24 96 98 28 26 97 99 30 28 98 100 32 30 99 101 34 32 100 102 36 34 101 103 38 36 102 104 40 38 103 105 42 40 104 106 44 42 105 107 46 44 106 108 48 46 107 109 50 48 108 110 52 50 109 111 54 52 110 112 56 54 111 113 58 56 112 114 60 58 113 115 62 60 114 116 64 62 115 117 66 64 116 118 68 66 117 119 70 68 118 120 72 70 119 121 74 72 120 122 76 74 121 123 78 76 122 124 80 78 123 125 82 
				</DataArray>
				<DataArray type="Int32" Name="offsets" format="ascii">
					8 16 24 32 40 48 56 64 72 80 88 96 104 112 120 128 136 144 152 160 168 176 184 192 200 208 216 224 232 240 248 256 264 272 280 288 296 304 312 320 
				</DataArray>
				<DataArray type="UInt8" Name="types" format="ascii">
					12 12 12 12 12 12 12 12 12 12 12 12 12 12 12 12 12 12 12 12 12 12 12 12 12 12 12 12 12 12 12 12 12 12 12 12 12 12 12 12 
				</DataArray>
			</Cells>
			<PointData>
				<DataArray type="Float32" Name="U" NumberOfComponents="3" ComponentName0="D1" ComponentName1="D2" ComponentName2="D3" format="ascii">
					 0.00000000E+00	 0.00000000E+00	 0.00000000E+00
					 0.00000000E+00	 0.00000000E+00	 0.00000000E+00
					-1.26299000E-05	 0.00000000E+00	-3.60937000E-04
					-6.71264000E-04	 0.00000000E+00	 1.09353000E-04
					 0.00000000E+00	 0.00000000E+00	 0.00000000E+00
					 0.00000000E+00	 0.00000000E+00	 0.00000000E+00
					-1.26299000E-05	 0.00000000E+00	-3.60937000E-04
					-6.71264000E-04	 0.00000000E+00	 1.09353000E-04
					-2.24732000E-05	 0.00000000E+00	 7.25769000E-05
					-1.11305000E-03	 0.00000000E+00	 1.87063000E-04
					-2.24732000E-05	 0.00000000E+00	 7.25769000E-05
					-1.11305000E-03	 0.00000000E+00	 1.87063000E-04
					-2.10383000E-05	 0.00000000E+00	 2.84357000E-04
					-7.37410000E-04	 0.00000000E+00	 2.81043000E-05
					-2.10383000E-05	 0.00000000E+00	 2.84357000E-04
					-7.37410000E-04	 0.00000000E+00	 2.81043000E-05
					-1.87878000E-05	 0.00000000E+00	-9.35827000E-05
					-8.06395000E-04	 0.00000000E+00	-5.07905000E-05
					-1.87878000E-05	 0.00000000E+00	-9.35827000E-05
					-8.06395000E-04	 0.00000000E+00	-5.07905000E-05
					-2.11846000E-05	 0.00000000E+00	-9.62128000E-05
					-9.70192000E-04	 0.00000000E+00	 1.08765000E-05
					-2.11846000E-05	 0.00000000E+00	-9.62128000E-05
					-9.70192000E-04	 0.00000000E+00	 1.08765000E-05
					-2.15303000E-05	 0.00000000E+00	 1.32485000E-05
					-8.22727000E-04	 0.00000000E+00	 1.24573000E-06
					-2.15303000E-05	 0.00000000E+00	 1.32485000E-05
					-8.22727000E-04	 0.00000000E+00	 1.24573000E-06
					-2.20316000E-05	 0.00000000E+00	 9.27999000E-05
					-9.68712000E-04	 0.00000000E+00	 2.69126000E-06
					-2.20316000E-05	 0.00000000E+00	 9.27999000E-05
					-9.68712000E-04	 0.00000000E+00	 2.69126000E-06
					-2.18590000E-05	 0.00000000E+00	 3.46055000E-06
					-7.42775000E-04	 0.00000000E+00	 2.01043000E-06
					-2.18590000E-05	 0.00000000E+00	 3.46055000E-06
					-7.42775000E-04	 0.00000000E+00	 2.01043000E-06
					-2.35203000E-05	 0.00000000E+00	-1.02683000E-04
					-9.60060000E-04	 0.00000000E+00	-3.71672000E-06
					-2.35203000E-05	 0.00000000E+00	-1.02683000E-04
					-9.60060000E-04	 0.00000000E+00	-3.71672000E-06
					-2.47243000E-05	 0.00000000E+00	-2.57868000E-07
					-8.44554000E-04	 0.00000000E+00	 1.18302000E-07
					-2.47243000E-05	 0.00000000E+00	-2.57868000E-07
					-8.44554000E-04	 0.00000000E+00	 1.18302000E-07
					-2.55829000E-05	 0.00000000E+00	 1.02952000E-04
					-9.60085000E-04	 0.00000000E+00	 7.28922000E-06
					-2.55829000E-05	 0.00000000E+00	 1.02952000E-04
					-9.60085000E-04	 0.00000000E+00	 7.28922000E-06
					-2.57045000E-05	 0.00000000E+00	 3.05699000E-06
					-7.51737000E-04	 0.00000000E+00	 3.16071000E-06
					-2.57045000E-05	 0.00000000E+00	 3.05699000E-06
					-7.51737000E-04	 0.00000000E+00	 3.16071000E-06
					-2.78476000E-05	 0.00000000E+00	-1.15759000E-04
					-9.50196000E-04	 0.00000000E+00	-2.06663000E-05
					-2.78476000E-05	 0.00000000E+00	-1.15759000E-04
					-9.50196000E-04	 0.00000000E+00	-2.06663000E-05
					-3.02623000E-05	 0.00000000E+00	 4.14436000E-05
					-8.78633000E-04	 0.00000000E+00	 6.19289000E-05
					-3.02623000E-05	 0.00000000E+00	 4.14436000E-05
					-8.78633000E-04	 0.00000000E+00	 6.19289000E-05
					-3.13605000E-05	 0.00000000E+00	 4.17233000E-05
					-9.28664000E-04	 0.00000000E+00	-8.78229000E-05
					-3.13605000E-05	 0.00000000E+00	 4.17233000E-05
					-9.28664000E-04	 0.00000000E+00	-8.78229000E-05
					-3.15645000E-05	 0.00000000E+00	-3.35464000E-05
					-6.69390000E-04	 0.00000000E+00	-9.11633000E-05
					-3.15645000E-05	 0.00000000E+00	-3.35464000E-05
					-6.69390000E-04	 0.00000000E+00	-9.11633000E-05
					-3.66730000E-05	 0.00000000E+00	 2.03835000E-04
					-1.36615000E-03	 0.00000000E+00	 6.86901000E-04
					-3.66730000E-05	 0.00000000E+00	 2.03835000E-04
					-1.36615000E-03	 0.00000000E+00	 6.86901000E-04
					-4.69883000E-05	 0.00000000E+00	 9.22669000E-05
					-8.57704000E-04	 0.00000000E+00	 1.62683000E-04
					-4.69883000E-05	 0.00000000E+00	 9.22669000E-05
					-8.57704000E-04	 0.00000000E+00	 1.62683000E-04
					-4.33290000E-05	 0.00000000E+00	 6.65911000E-04
					-4.67267000E-04	 0.00000000E+00	 1.65806000E-05
					-4.33290000E-05	 0.00000000E+00	 6.65911000E-04
					-4.67267000E-04	 0.00000000E+00	 1.65806000E-05
					-2.98782000E-05	 0.00000000E+00	 5.49227000E-04
					-7.81737000E-04	 0.00000000E+00	 2.46449000E-04
					-2.98782000E-05	 0.00000000E+00	 5.49227000E-04
					-7.81737000E-04	 0.00000000E+00	 2.46449000E-04
					 0.00000000E+00	 0.00000000E+00	 0.00000000E+00
					 6.79242000E-04	 0.00000000E+00	 1.03075000E-04
					 0.00000000E+00	 0.00000000E+00	 0.00000000E+00
					 6.79242000E-04	 0.00000000E+00	 1.03075000E-04
					 1.10034000E-03	 0.00000000E+00	 1.81006000E-04
					 1.10034000E-03	 0.00000000E+00	 1.81006000E-04
					 7.24683000E-04	 0.00000000E+00	 2.76885000E-05
					 7.24683000E-04	 0.00000000E+00	 2.76885000E-05
					 7.94605000E-04	 0.00000000E+00	-4.86190000E-05
					 7.94605000E-04	 0.00000000E+00	-4.86190000E-05
					 9.56264000E-04	 0.00000000E+00	 8.51060000E-06
					 9.56264000E-04	 0.00000000E+00	 8.51060000E-06
					 8.11770000E-04	 0.00000000E+00	 1.13589000E-06
					 8.11770000E-04	 0.00000000E+00	 1.13589000E-06
					 9.53444000E-04	 0.00000000E+00	 2.07442000E-06
					 9.53444000E-04	 0.00000000E+00	 2.07442000E-06
					 7.27051000E-04	 0.00000000E+00	 1.01801000E-06
					 7.27051000E-04	 0.00000000E+00	 1.01801000E-06
					 9.42635000E-04	 0.00000000E+00	-4.99214000E-06
					 9.42635000E-04	 0.00000000E+00	-4.99214000E-06
					 8.28634000E-04	 0.00000000E+00	-9.43293000E-07
					 8.28634000E-04	 0.00000000E+00	-9.43293000E-07
					 9.39753000E-04	 0.00000000E+00	 6.13766000E-06
					 9.39753000E-04	 0.00000000E+00	 6.13766000E-06
					 7.30202000E-04	 0.00000000E+00	 1.77435000E-06
					 7.30202000E-04	 0.00000000E+00	 1.77435000E-06
					 9.25933000E-04	 0.00000000E+00	-2.31620000E-05
					 9.25933000E-04	 0.00000000E+00	-2.31620000E-05
					 8.55794000E-04	 0.00000000E+00	 6.04382000E-05
					 8.55794000E-04	 0.00000000E+00	 6.04382000E-05
					 8.97780000E-04	 0.00000000E+00	-8.94668000E-05
					 8.97780000E-04	 0.00000000E+00	-8.94668000E-05
					 6.42601000E-04	 0.00000000E+00	-9.72599000E-05
					 6.42601000E-04	 0.00000000E+00	-9.72599000E-05
					 1.32594000E-03	 0.00000000E+00	 6.86586000E-04
					 1.32594000E-03	 0.00000000E+00	 6.86586000E-04
					 8.13385000E-04	 0.00000000E+00	 1.64326000E-04
					 8.13385000E-04	 0.00000000E+00	 1.64326000E-04
					 4.33321000E-04	 0.00000000E+00	 2.91764000E-05
					 4.33321000E-04	 0.00000000E+00	 2.91764000E-05
					 7.36555000E-04	 0.00000000E+00	 2.47512000E-04
					 7.36555000E-04	 0.00000000E+00	 2.47512000E-04
				</DataArray>
			</PointData>
		</Piece>
	</UnstructuredGrid>
</VTKFile>