<?xml version="1.0"?>
<VTKFile type="UnstructuredGrid" version="0.1" byte_order="LittleEndian">
	<UnstructuredGrid>
		<Piece NumberOfPoints="126" NumberOfCells="40">
			<Points>
				<DataArray type="Float64" NumberOfComponents="3" format="ascii">
					 5.00000000E-02	 0.00000000E+00	 0.00000000E+00
					 0.00000000E+00	 0.00000000E+00	 0.00000000E+00
					 0.00000000E+00	 0.00000000E+00	 5.00000000E-02
					 5.00000000E-02	 0.00000000E+00	 5.00000000E-02
					 5.00000000E-02	 3.00000000E-01	 0.00000000E+00
					 0.00000000E+00	 3.00000000E-01	 0.00000000E+00
					 0.00000000E+00	 3.00000000E-01	 5.00000000E-02
					 5.00000000E-02	 3.00000000E-01	 5.00000000E-02
					 0.00000000E+00	 0.00000000E+00	 1.00000000E-01
					 5.00000000E-02	 0.00000000E+00	 1.00000000E-01
					 0.00000000E+00	 3.00000000E-01	 1.00000000E-01
					 5.00000000E-02	 3.00000000E-01	 1.00000000E-01
					 0.00000000E+00	 0.00000000E+00	 1.50000000E-01
					 5.00000000E-02	 0.00000000E+00	 1.50000000E-01
					 0.00000000E+00	 3.00000000E-01	 1.50000000E-01
					 5.00000000E-02	 3.00000000E-01	 1.50000000E-01
					 0.00000000E+00	 0.00000000E+00	 2.00000000E-01
					 5.00000000E-02	 0.00000000E+00	 2.00000000E-01
					 0.00000000E+00	 3.00000000E-01	 2.00000000E-01
					 5.00000000E-02	 3.00000000E-01	 2.00000000E-01
					 0.00000000E+00	 0.00000000E+00	 2.50000000E-01
					 5.00000000E-02	 0.00000000E+00	 2.50000000E-01
					 0.00000000E+00	 3.00000000E-01	 2.50000000E-01
					 5.00000000E-02	 3.00000000E-01	 2.50000000E-01
					 0.00000000E+00	 0.00000000E+00	 3.00000000E-01
					 5.00000000E-02	 0.00000000E+00	 3.00000000E-01
					 0.00000000E+00	 3.00000000E-01	 3.00000000E-01
					 5.00000000E-02	 3.00000000E-01	 3.00000000E-01
					 0.00000000E+00	 0.00000000E+00	 3.50000000E-01
					 5.00000000E-02	 0.00000000E+00	 3.50000000E-01
					 0.00000000E+00	 3.00000000E-01	 3.50000000E-01
					 5.00000000E-02	 3.00000000E-01	 3.50000000E-01
					 0.00000000E+00	 0.00000000E+00	 4.00000000E-01
					 5.00000000E-02	 0.00000000E+00	 4.00000000E-01
					 0.00000000E+00	 3.00000000E-01	 4.00000000E-01
					 5.00000000E-02	 3.00000000E-01	 4.00000000E-01
					 0.00000000E+00	 0.00000000E+00	 4.50000000E-01
					 5.00000000E-02	 0.00000000E+00	 4.50000000E-01
					 0.00000000E+00	 3.00000000E-01	 4.50000000E-01
					 5.00000000E-02	 3.00000000E-01	 4.50000000E-01
					 0.00000000E+00	 0.00000000E+00	 5.00000000E-01
					 5.00000000E-02	 0.00000000E+00	 5.00000000E-01
					 0.00000000E+00	 3.00000000E-01	 5.00000000E-01
					 5.00000000E-02	 3.00000000E-01	 5.00000000E-01
					 0.00000000E+00	 0.00000000E+00	 5.50000000E-01
					 5.00000000E-02	 0.00000000E+00	 5.50000000E-01
					 0.00000000E+00	 3.00000000E-01	 5.50000000E-01
					 5.00000000E-02	 3.00000000E-01	 5.50000000E-01
					 0.00000000E+00	 0.00000000E+00	 6.00000000E-01
					 5.00000000E-02	 0.00000000E+00	 6.00000000E-01
					 0.00000000E+00	 3.00000000E-01	 6.00000000E-01
					 5.00000000E-02	 3.00000000E-01	 6.00000000E-01
					 0.00000000E+00	 0.00000000E+00	 6.50000000E-01
					 5.00000000E-02	 0.00000000E+00	 6.50000000E-01
					 0.00000000E+00	 3.00000000E-01	 6.50000000E-01
					 5.00000000E-02	 3.00000000E-01	 6.50000000E-01
					 0.00000000E+00	 0.00000000E+00	 7.00000000E-01
					 5.00000000E-02	 0.00000000E+00	 7.00000000E-01
					 0.00000000E+00	 3.00000000E-01	 7.00000000E-01
					 5.00000000E-02	 3.00000000E-01	 7.00000000E-01
					 0.00000000E+00	 0.00000000E+00	 7.50000000E-01
					 5.00000000E-02	 0.00000000E+00	 7.50000000E-01
					 0.00000000E+00	 3.00000000E-01	 7.50000000E-01
					 5.00000000E-02	 3.00000000E-01	 7.50000000E-01
					 0.00000000E+00	 0.00000000E+00	 8.00000000E-01
					 5.00000000E-02	 0.00000000E+00	 8.00000000E-01
					 0.00000000E+00	 3.00000000E-01	 8.00000000E-01
					 5.00000000E-02	 3.00000000E-01	 8.00000000E-01
					 0.00000000E+00	 0.00000000E+00	 8.50000000E-01
					 5.00000000E-02	 0.00000000E+00	 8.50000000E-01
					 0.00000000E+00	 3.00000000E-01	 8.50000000E-01
					 5.00000000E-02	 3.00000000E-01	 8.50000000E-01
					 0.00000000E+00	 0.00000000E+00	 9.00000000E-01
					 5.00000000E-02	 0.00000000E+00	 9.00000000E-01
					 0.00000000E+00	 3.00000000E-01	 9.00000000E-01
					 5.00000000E-02	 3.00000000E-01	 9.00000000E-01
					 0.00000000E+00	 0.00000000E+00	 9.50000000E-01
					 5.00000000E-02	 0.00000000E+00	 9.50000000E-01
					 0.00000000E+00	 3.00000000E-01	 9.50000000E-01
					 5.00000000E-02	 3.00000000E-01	 9.50000000E-01
					 0.00000000E+00	 0.00000000E+00	 1.00000000E+00
					 5.00000000E-02	 0.00000000E+00	 1.00000000E+00
					 0.00000000E+00	 3.00000000E-01	 1.00000000E+00
					 5.00000000E-02	 3.00000000E-01	 1.00000000E+00
					-5.00000000E-02	 0.00000000E+00	 0.00000000E+00
					-5.00000000E-02	 0.00000000E+00	 5.00000000E-02
					-5.00000000E-02	 3.00000000E-01	 0.00000000E+00
					-5.00000000E-02	 3.00000000E-01	 5.00000000E-02
					-5.00000000E-02	 0.00000000E+00	 1.00000000E-01
					-5.00000000E-02	 3.00000000E-01	 1.00000000E-01
					-5.00000000E-02	 0.00000000E+00	 1.50000000E-01
					-5.00000000E-02	 3.00000000E-01	 1.50000000E-01
					-5.00000000E-02	 0.00000000E+00	 2.00000000E-01
					-5.00000000E-02	 3.00000000E-01	 2.00000000E-01
					-5.00000000E-02	 0.00000000E+00	 2.50000000E-01
					-5.00000000E-02	 3.00000000E-01	 2.50000000E-01
					-5.00000000E-02	 0.00000000E+00	 3.00000000E-01
					-5.00000000E-02	 3.00000000E-01	 3.00000000E-01
					-5.00000000E-02	 0.00000000E+00	 3.50000000E-01
					-5.00000000E-02	 3.00000000E-01	 3.50000000E-01
					-5.00000000E-02	 0.00000000E+00	 4.00000000E-01
					-5.00000000E-02	 3.00000000E-01	 4.00000000E-01
					-5.00000000E-02	 0.00000000E+00	 4.50000000E-01
					-5.00000000E-02	 3.00000000E-01	 4.50000000E-01
					-5.00000000E-02	 0.00000000E+00	 5.00000000E-01
					-5.00000000E-02	 3.00000000E-01	 5.00000000E-01
					-5.00000000E-02	 0.00000000E+00	 5.50000000E-01
					-5.00000000E-02	 3.00000000E-01	 5.50000000E-01
					-5.00000000E-02	 0.00000000E+00	 6.00000000E-01
					-5.00000000E-02	 3.00000000E-01	 6.00000000E-01
					-5.00000000E-02	 0.00000000E+00	 6.50000000E-01
					-5.00000000E-02	 3.00000000E-01	 6.50000000E-01
					-5.00000000E-02	 0.00000000E+00	 7.00000000E-01
					-5.00000000E-02	 3.00000000E-01	 7.00000000E-01
					-5.00000000E-02	 0.00000000E+00	 7.50000000E-01
					-5.00000000E-02	 3.00000000E-01	 7.50000000E-01
					-5.00000000E-02	 0.00000000E+00	 8.00000000E-01
					-5.00000000E-02	 3.00000000E-01	 8.00000000E-01
					-5.00000000E-02	 0.00000000E+00	 8.50000000E-01
					-5.00000000E-02	 3.00000000E-01	 8.50000000E-01
					-5.00000000E-02	 0.00000000E+00	 9.00000000E-01
					-5.00000000E-02	 3.00000000E-01	 9.00000000E-01
					-5.00000000E-02	 0.00000000E+00	 9.50000000E-01
					-5.00000000E-02	 3.00000000E-01	 9.50000000E-01
					-5.00000000E-02	 0.00000000E+00	 1.00000000E+00
					-5.00000000E-02	 3.00000000E-01	 1.00000000E+00
				</DataArray>
			</Points>
			<Cells>
				<DataArray type="Int32" Name="connectivity" format="ascii">
					0 1 2 3 4 5 6 7 3 2 8 9 7 6 10 11 9 8 12 13 11 10 14 15 13 12 16 17 15 14 18 19 17 16 20 21 19 18 22 23 21 20 24 25 23 22 26 27 25 24 28 29 27 26 30 31 29 28 32 33 31 30 34 35 33 32 36 37 35 34 38 39 37 36 40 41 39 38 42 43 41 40 44 45 43 42 46 47 45 44 48 49 47 46 50 51 49 48 52 53 51 50 54 55 53 52 56 57 55 54 58 59 57 56 60 61 59 58 62 63 61 60 64 65 63 62 66 67 65 64 68 69 67 66 70 71 69 68 72 73 71 70 74 75 73 72 76 77 75 74 78 79 77 76 80 81 79 78 82 83 1 84 85 2 5 86 87 6 2 85 88 8 6 87 89 10 8 88 90 12 10 89 91 14 12 90 92 16 14 91 93 18 16 92 94 20 18 93 95 22 20 94 96 24 22 95 97 26 24 96 98 28 26 97 99 30 28 98 100 32 30 99 101 34 32 100 102 36 34 101 103 38 36 102 104 40 38 103 105 42 40 104 106 44 42 105 107 46 44 106 108 48 46 107 109 50 48 108 110 52 50 109 111 54 52 110 112 56 54 111 113 58 56 112 114 60 58 113 115 62 60 114 116 64 62 115 117 66 64 116 118 68 66 117 119 70 68 118 120 72 70 119 121 74 72 120 122 76 74 121 123 78 76 122 124 80 78 123 125 82 
				</DataArray>
				<DataArray type="Int32" Name="offsets" format="ascii">
					8 16 24 32 40 48 56 64 72 80 88 96 104 112 120 128 136 144 152 160 168 176 184 192 200 208 216 224 232 240 248 256 264 272 280 288 296 304 312 320 
				</DataArray>
				<DataArray type="UInt8" Name="types" format="ascii">
					12 12 12 12 12 12 12 12 12 12 12 12 12 12 12 12 12 12 12 12 12 12 12 12 12 12 12 12 12 12 12 12 12 12 12 12 12 12 12 12 
				</DataArray>
			</Cells>
			<PointData>
				<DataArray type="Float32" Name="U" NumberOfComponents="3" ComponentName0="D1" ComponentName1="D2" ComponentName2="D3" format="ascii">
					 0.00000000E+00	 0.00000000E+00	 0.00000000E+00
					 0.00000000E+00	 0.00000000E+00	 0.00000000E+00
					-8.25379000E-04	 0.00000000E+00	 4.04332000E-03
					 2.06487000E-02	 0.00000000E+00	-1.02577000E-02
					 0.00000000E+00	 0.00000000E+00	 0.00000000E+00
					 0.00000000E+00	 0.00000000E+00	 0.00000000E+00
					-8.25379000E-04	 0.00000000E+00	 4.04332000E-03
					 2.06487000E-02	 0.00000000E+00	-1.02577000E-02
					 4.98198000E-02	 0.00000000E+00	-1.15588000E-02
					 1.20990000E-02	 0.00000000E+00	-1.12101000E-02
					 4.98198000E-02	 0.00000000E+00	-1.15588000E-02
					 1.20990000E-02	 0.00000000E+00	-1.12101000E-02
					 7.34059000E-02	 0.00000000E+00	-3.71913000E-02
					 4.53379000E-03	 0.00000000E+00	 4.38588000E-03
					 7.34059000E-02	 0.00000000E+00	-3.71913000E-02
					 4.53379000E-03	 0.00000000E+00	 4.38588000E-03
					 1.10130000E-01	 0.00000000E+00	-2.29972000E-02
					 4.26301000E-02	 0.00000000E+00	-1.59948000E-02
					 1.10130000E-01	 0.00000000E+00	-2.29972000E-02
					 4.26301000E-02	 0.00000000E+00	-1.59948000E-02
					 1.46876000E-01	 0.00000000E+00	-3.84996000E-02
					 8.38720000E-02	 0.00000000E+00	-1.73090000E-02
					 1.46876000E-01	 0.00000000E+00	-3.84996000E-02
					 8.38720000E-02	 0.00000000E+00	-1.73090000E-02
					 1.19353000E-01	 0.00000000E+00	-2.98674000E-02
					 3.48059000E-02	 0.00000000E+00	-2.09070000E-02
					 1.19353000E-01	 0.00000000E+00	-2.98674000E-02
					 3.48059000E-02	 0.00000000E+00	-2.09070000E-02
					 1.13652000E-01	 0.00000000E+00	-1.85316000E-02
					 2.41470000E-02	 0.00000000E+00	-3.25717000E-02
					 1.13652000E-01	 0.00000000E+00	-1.85316000E-02
					 2.41470000E-02	 0.00000000E+00	-3.25717000E-02
					 8.10490000E-02	 0.00000000E+00	-1.66329000E-02
					-3.40071000E-03	 0.00000000E+00	-3.53880000E-02
					 8.10490000E-02	 0.00000000E+00	-1.66329000E-02
					-3.40071000E-03	 0.00000000E+00	-3.53880000E-02
					 4.53694000E-02	 0.00000000E+00	-2.55189000E-02
					-4.79564000E-02	 0.00000000E+00	-2.93436000E-02
					 4.53694000E-02	 0.00000000E+00	-2.55189000E-02
					-4.79564000E-02	 0.00000000E+00	-2.93436000E-02
					 2.25739000E-02	 0.00000000E+00	-2.68914000E-02
					-8.50923000E-02	 0.00000000E+00	-3.43868000E-02
					 2.25739000E-02	 0.00000000E+00	-2.68914000E-02
					-8.50923000E-02	 0.00000000E+00	-3.43868000E-02
					 6.00465000E-03	 0.00000000E+00	-2.93249000E-02
					-2.89664000E-02	 0.00000000E+00	-3.48651000E-02
					 6.00465000E-03	 0.00000000E+00	-2.93249000E-02
					-2.89664000E-02	 0.00000000E+00	-3.48651000E-02
					 3.25548000E-02	 0.00000000E+00	-1.12729000E-02
					 8.30177000E-03	 0.00000000E+00	-3.07001000E-02
					 3.25548000E-02	 0.00000000E+00	-1.12729000E-02
					 8.30177000E-03	 0.00000000E+00	-3.07001000E-02
					 2.66612000E-02	 0.00000000E+00	-7.01435000E-03
					 3.43455000E-02	 0.00000000E+00	-1.15133000E-02
					 2.66612000E-02	 0.00000000E+00	-7.01435000E-03
					 3.43455000E-02	 0.00000000E+00	-1.15133000E-02
					 2.49993000E-02	 0.00000000E+00	-9.40809000E-03
					 2.11279000E-02	 0.00000000E+00	-5.81856000E-03
					 2.49993000E-02	 0.00000000E+00	-9.40809000E-03
					 2.11279000E-02	 0.00000000E+00	-5.81856000E-03
					 2.14765000E-02	 0.00000000E+00	-5.63176000E-03
					 1.51266000E-02	 0.00000000E+00	-4.02879000E-03
					 2.14765000E-02	 0.00000000E+00	-5.63176000E-03
					 1.51266000E-02	 0.00000000E+00	-4.02879000E-03
					 2.27612000E-02	 0.00000000E+00	 1.02716000E-03
					 2.09092000E-02	 0.00000000E+00	-2.32718000E-03
					 2.27612000E-02	 0.00000000E+00	 1.02716000E-03
					 2.09092000E-02	 0.00000000E+00	-2.32718000E-03
					 1.95974000E-02	 0.00000000E+00	 2.16282000E-03
					 2.13661000E-02	 0.00000000E+00	 4.80421000E-03
					 1.95974000E-02	 0.00000000E+00	 2.16282000E-03
					 2.13661000E-02	 0.00000000E+00	 4.80421000E-03
					 1.96445000E-02	 0.00000000E+00	 9.72184000E-04
					 1.81352000E-02	 0.00000000E+00	 7.65409000E-04
					 1.96445000E-02	 0.00000000E+00	 9.72184000E-04
					 1.81352000E-02	 0.00000000E+00	 7.65409000E-04
					 1.83461000E-02	 0.00000000E+00	 1.51482000E-03
					 1.90834000E-02	 0.00000000E+00	 2.60202000E-03
					 1.83461000E-02	 0.00000000E+00	 1.51482000E-03
					 1.90834000E-02	 0.00000000E+00	 2.60202000E-03
					 1.69308000E-02	 0.00000000E+00	 1.52758000E-03
					 1.81976000E-02	 0.00000000E+00	 1.27117000E-03
					 1.69308000E-02	 0.00000000E+00	 1.52758000E-03
					 1.81976000E-02	 0.00000000E+00	 1.27117000E-03
					 0.00000000E+00	 0.00000000E+00	 0.00000000E+00
					 8.35009000E-02	 0.00000000E+00	-4.64367000E-02
					 0.00000000E+00	 0.00000000E+00	 0.00000000E+00
					 8.35009000E-02	 0.00000000E+00	-4.64367000E-02
					 1.20500000E-01	 0.00000000E+00	-5.25251000E-02
					 1.20500000E-01	 0.00000000E+00	-5.25251000E-02
					 1.54716000E-01	 0.00000000E+00	-3.98995000E-02
					 1.54716000E-01	 0.00000000E+00	-3.98995000E-02
					 1.96822000E-01	 0.00000000E+00	-5.19891000E-02
					 1.96822000E-01	 0.00000000E+00	-5.19891000E-02
					 1.91707000E-01	 0.00000000E+00	-2.38503000E-02
					 1.91707000E-01	 0.00000000E+00	-2.38503000E-02
					 1.97728000E-01	 0.00000000E+00	-2.37758000E-02
					 1.97728000E-01	 0.00000000E+00	-2.37758000E-02
					 2.04279000E-01	 0.00000000E+00	-2.55971000E-02
					 2.04279000E-01	 0.00000000E+00	-2.55971000E-02
					 1.57915000E-01	 0.00000000E+00	-2.42678000E-03
					 1.57915000E-01	 0.00000000E+00	-2.42678000E-03
					 1.42508000E-01	 0.00000000E+00	-8.72981000E-03
					 1.42508000E-01	 0.00000000E+00	-8.72981000E-03
					 1.04471000E-01	 0.00000000E+00	-1.44008000E-02
					 1.04471000E-01	 0.00000000E+00	-1.44008000E-02
					 1.21655000E-01	 0.00000000E+00	-1.31485000E-02
					 1.21655000E-01	 0.00000000E+00	-1.31485000E-02
					 5.26956000E-02	 0.00000000E+00	-2.41209000E-02
					 5.26956000E-02	 0.00000000E+00	-2.41209000E-02
					 2.21148000E-02	 0.00000000E+00	-1.76658000E-02
					 2.21148000E-02	 0.00000000E+00	-1.76658000E-02
					 2.66860000E-02	 0.00000000E+00	-3.91869000E-03
					 2.66860000E-02	 0.00000000E+00	-3.91869000E-03
					 3.33221000E-02	 0.00000000E+00	-1.21796000E-03
					 3.33221000E-02	 0.00000000E+00	-1.21796000E-03
					 1.96878000E-02	 0.00000000E+00	-3.00322000E-03
					 1.96878000E-02	 0.00000000E+00	-3.00322000E-03
					 2.10775000E-02	 0.00000000E+00	 1.37756000E-03
					 2.10775000E-02	 0.00000000E+00	 1.37756000E-03
					 1.97422000E-02	 0.00000000E+00	 5.47366000E-04
					 1.97422000E-02	 0.00000000E+00	 5.47366000E-04
					 1.78761000E-02	 0.00000000E+00	-1.03802000E-03
					 1.78761000E-02	 0.00000000E+00	-1.03802000E-03
					 1.79534000E-02	 0.00000000E+00	 1.12510000E-03
					 1.79534000E-02	 0.00000000E+00	 1.12510000E-03
				</DataArray>
			</PointData>
		</Piece>
	</UnstructuredGrid>
</VTKFile>