<?xml version="1.0"?>
<VTKFile type="UnstructuredGrid" version="0.1" byte_order="LittleEndian">
	<UnstructuredGrid>
		<Piece NumberOfPoints="126" NumberOfCells="40">
			<Points>
				<DataArray type="Float64" NumberOfComponents="3" format="ascii">
					 5.00000000E-02	 0.00000000E+00	 0.00000000E+00
					 0.00000000E+00	 0.00000000E+00	 0.00000000E+00
					 0.00000000E+00	 0.00000000E+00	 5.00000000E-02
					 5.00000000E-02	 0.00000000E+00	 5.00000000E-02
					 5.00000000E-02	 3.00000000E-01	 0.00000000E+00
					 0.00000000E+00	 3.00000000E-01	 0.00000000E+00
					 0.00000000E+00	 3.00000000E-01	 5.00000000E-02
					 5.00000000E-02	 3.00000000E-01	 5.00000000E-02
					 0.00000000E+00	 0.00000000E+00	 1.00000000E-01
					 5.00000000E-02	 0.00000000E+00	 1.00000000E-01
					 0.00000000E+00	 3.00000000E-01	 1.00000000E-01
					 5.00000000E-02	 3.00000000E-01	 1.00000000E-01
					 0.00000000E+00	 0.00000000E+00	 1.50000000E-01
					 5.00000000E-02	 0.00000000E+00	 1.50000000E-01
					 0.00000000E+00	 3.00000000E-01	 1.50000000E-01
					 5.00000000E-02	 3.00000000E-01	 1.50000000E-01
					 0.00000000E+00	 0.00000000E+00	 2.00000000E-01
					 5.00000000E-02	 0.00000000E+00	 2.00000000E-01
					 0.00000000E+00	 3.00000000E-01	 2.00000000E-01
					 5.00000000E-02	 3.00000000E-01	 2.00000000E-01
					 0.00000000E+00	 0.00000000E+00	 2.50000000E-01
					 5.00000000E-02	 0.00000000E+00	 2.50000000E-01
					 0.00000000E+00	 3.00000000E-01	 2.50000000E-01
					 5.00000000E-02	 3.00000000E-01	 2.50000000E-01
					 0.00000000E+00	 0.00000000E+00	 3.00000000E-01
					 5.00000000E-02	 0.00000000E+00	 3.00000000E-01
					 0.00000000E+00	 3.00000000E-01	 3.00000000E-01
					 5.00000000E-02	 3.00000000E-01	 3.00000000E-01
					 0.00000000E+00	 0.00000000E+00	 3.50000000E-01
					 5.00000000E-02	 0.00000000E+00	 3.50000000E-01
					 0.00000000E+00	 3.00000000E-01	 3.50000000E-01
					 5.00000000E-02	 3.00000000E-01	 3.50000000E-01
					 0.00000000E+00	 0.00000000E+00	 4.00000000E-01
					 5.00000000E-02	 0.00000000E+00	 4.00000000E-01
					 0.00000000E+00	 3.00000000E-01	 4.00000000E-01
					 5.00000000E-02	 3.00000000E-01	 4.00000000E-01
					 0.00000000E+00	 0.00000000E+00	 4.50000000E-01
					 5.00000000E-02	 0.00000000E+00	 4.50000000E-01
					 0.00000000E+00	 3.00000000E-01	 4.50000000E-01
					 5.00000000E-02	 3.00000000E-01	 4.50000000E-01
					 0.00000000E+00	 0.00000000E+00	 5.00000000E-01
					 5.00000000E-02	 0.00000000E+00	 5.00000000E-01
					 0.00000000E+00	 3.00000000E-01	 5.00000000E-01
					 5.00000000E-02	 3.00000000E-01	 5.00000000E-01
					 0.00000000E+00	 0.00000000E+00	 5.50000000E-01
					 5.00000000E-02	 0.00000000E+00	 5.50000000E-01
					 0.00000000E+00	 3.00000000E-01	 5.50000000E-01
					 5.00000000E-02	 3.00000000E-01	 5.50000000E-01
					 0.00000000E+00	 0.00000000E+00	 6.00000000E-01
					 5.00000000E-02	 0.00000000E+00	 6.00000000E-01
					 0.00000000E+00	 3.00000000E-01	 6.00000000E-01
					 5.00000000E-02	 3.00000000E-01	 6.00000000E-01
					 0.00000000E+00	 0.00000000E+00	 6.50000000E-01
					 5.00000000E-02	 0.00000000E+00	 6.50000000E-01
					 0.00000000E+00	 3.00000000E-01	 6.50000000E-01
					 5.00000000E-02	 3.00000000E-01	 6.50000000E-01
					 0.00000000E+00	 0.00000000E+00	 7.00000000E-01
					 5.00000000E-02	 0.00000000E+00	 7.00000000E-01
					 0.00000000E+00	 3.00000000E-01	 7.00000000E-01
					 5.00000000E-02	 3.00000000E-01	 7.00000000E-01
					 0.00000000E+00	 0.00000000E+00	 7.50000000E-01
					 5.00000000E-02	 0.00000000E+00	 7.50000000E-01
					 0.00000000E+00	 3.00000000E-01	 7.50000000E-01
					 5.00000000E-02	 3.00000000E-01	 7.50000000E-01
					 0.00000000E+00	 0.00000000E+00	 8.00000000E-01
					 5.00000000E-02	 0.00000000E+00	 8.00000000E-01
					 0.00000000E+00	 3.00000000E-01	 8.00000000E-01
					 5.00000000E-02	 3.00000000E-01	 8.00000000E-01
					 0.00000000E+00	 0.00000000E+00	 8.50000000E-01
					 5.00000000E-02	 0.00000000E+00	 8.50000000E-01
					 0.00000000E+00	 3.00000000E-01	 8.50000000E-01
					 5.00000000E-02	 3.00000000E-01	 8.50000000E-01
					 0.00000000E+00	 0.00000000E+00	 9.00000000E-01
					 5.00000000E-02	 0.00000000E+00	 9.00000000E-01
					 0.00000000E+00	 3.00000000E-01	 9.00000000E-01
					 5.00000000E-02	 3.00000000E-01	 9.00000000E-01
					 0.00000000E+00	 0.00000000E+00	 9.50000000E-01
					 5.00000000E-02	 0.00000000E+00	 9.50000000E-01
					 0.00000000E+00	 3.00000000E-01	 9.50000000E-01
					 5.00000000E-02	 3.00000000E-01	 9.50000000E-01
					 0.00000000E+00	 0.00000000E+00	 1.00000000E+00
					 5.00000000E-02	 0.00000000E+00	 1.00000000E+00
					 0.00000000E+00	 3.00000000E-01	 1.00000000E+00
					 5.00000000E-02	 3.00000000E-01	 1.00000000E+00
					-5.00000000E-02	 0.00000000E+00	 0.00000000E+00
					-5.00000000E-02	 0.00000000E+00	 5.00000000E-02
					-5.00000000E-02	 3.00000000E-01	 0.00000000E+00
					-5.00000000E-02	 3.00000000E-01	 5.00000000E-02
					-5.00000000E-02	 0.00000000E+00	 1.00000000E-01
					-5.00000000E-02	 3.00000000E-01	 1.00000000E-01
					-5.00000000E-02	 0.00000000E+00	 1.50000000E-01
					-5.00000000E-02	 3.00000000E-01	 1.50000000E-01
					-5.00000000E-02	 0.00000000E+00	 2.00000000E-01
					-5.00000000E-02	 3.00000000E-01	 2.00000000E-01
					-5.00000000E-02	 0.00000000E+00	 2.50000000E-01
					-5.00000000E-02	 3.00000000E-01	 2.50000000E-01
					-5.00000000E-02	 0.00000000E+00	 3.00000000E-01
					-5.00000000E-02	 3.00000000E-01	 3.00000000E-01
					-5.00000000E-02	 0.00000000E+00	 3.50000000E-01
					-5.00000000E-02	 3.00000000E-01	 3.50000000E-01
					-5.00000000E-02	 0.00000000E+00	 4.00000000E-01
					-5.00000000E-02	 3.00000000E-01	 4.00000000E-01
					-5.00000000E-02	 0.00000000E+00	 4.50000000E-01
					-5.00000000E-02	 3.00000000E-01	 4.50000000E-01
					-5.00000000E-02	 0.00000000E+00	 5.00000000E-01
					-5.00000000E-02	 3.00000000E-01	 5.00000000E-01
					-5.00000000E-02	 0.00000000E+00	 5.50000000E-01
					-5.00000000E-02	 3.00000000E-01	 5.50000000E-01
					-5.00000000E-02	 0.00000000E+00	 6.00000000E-01
					-5.00000000E-02	 3.00000000E-01	 6.00000000E-01
					-5.00000000E-02	 0.00000000E+00	 6.50000000E-01
					-5.00000000E-02	 3.00000000E-01	 6.50000000E-01
					-5.00000000E-02	 0.00000000E+00	 7.00000000E-01
					-5.00000000E-02	 3.00000000E-01	 7.00000000E-01
					-5.00000000E-02	 0.00000000E+00	 7.50000000E-01
					-5.00000000E-02	 3.00000000E-01	 7.50000000E-01
					-5.00000000E-02	 0.00000000E+00	 8.00000000E-01
					-5.00000000E-02	 3.00000000E-01	 8.00000000E-01
					-5.00000000E-02	 0.00000000E+00	 8.50000000E-01
					-5.00000000E-02	 3.00000000E-01	 8.50000000E-01
					-5.00000000E-02	 0.00000000E+00	 9.00000000E-01
					-5.00000000E-02	 3.00000000E-01	 9.00000000E-01
					-5.00000000E-02	 0.00000000E+00	 9.50000000E-01
					-5.00000000E-02	 3.00000000E-01	 9.50000000E-01
					-5.00000000E-02	 0.00000000E+00	 1.00000000E+00
					-5.00000000E-02	 3.00000000E-01	 1.00000000E+00
				</DataArray>
			</Points>
			<Cells>
				<DataArray type="Int32" Name="connectivity" format="ascii">
					0 1 2 3 4 5 6 7 3 2 8 9 7 6 10 11 9 8 12 13 11 10 14 15 13 12 16 17 15 14 18 19 17 16 20 21 19 18 22 23 21 20 24 25 23 22 26 27 25 24 28 29 27 26 30 31 29 28 32 33 31 30 34 35 33 32 36 37 35 34 38 39 37 36 40 41 39 38 42 43 41 40 44 45 43 42 46 47 45 44 48 49 47 46 50 51 49 48 52 53 51 50 54 55 53 52 56 57 55 54 58 59 57 56 60 61 59 58 62 63 61 60 64 65 63 62 66 67 65 64 68 69 67 66 70 71 69 68 72 73 71 70 74 75 73 72 76 77 75 74 78 79 77 76 80 81 79 78 82 83 1 84 85 2 5 86 87 6 2 85 88 8 6 87 89 10 8 88 90 12 10 89 91 14 12 90 92 16 14 91 93 18 16 92 94 20 18 93 95 22 20 94 96 24 22 95 97 26 24 96 98 28 26 97 99 30 28 98 100 32 30 99 101 34 32 100 102 36 34 101 103 38 36 102 104 40 38 103 105 42 40 104 106 44 42 105 107 46 44 106 108 48 46 107 109 50 48 108 110 52 50 109 111 54 52 110 112 56 54 111 113 58 56 112 114 60 58 113 115 62 60 114 116 64 62 115 117 66 64 116 118 68 66 117 119 70 68 118 120 72 70 119 121 74 72 120 122 76 74 121 123 78 76 122 124 80 78 123 125 82 
				</DataArray>
				<DataArray type="Int32" Name="offsets" format="ascii">
					8 16 24 32 40 48 56 64 72 80 88 96 104 112 120 128 136 144 152 160 168 176 184 192 200 208 216 224 232 240 248 256 264 272 280 288 296 304 312 320 
				</DataArray>
				<DataArray type="UInt8" Name="types" format="ascii">
					12 12 12 12 12 12 12 12 12 12 12 12 12 12 12 12 12 12 12 12 12 12 12 12 12 12 12 12 12 12 12 12 12 12 12 12 12 12 12 12 
				</DataArray>
			</Cells>
			<PointData>
				<DataArray type="Float32" Name="U" NumberOfComponents="3" ComponentName0="D1" ComponentName1="D2" ComponentName2="D3" format="ascii">
					 0.00000000E+00	 0.00000000E+00	 0.00000000E+00
					 0.00000000E+00	 0.00000000E+00	 0.00000000E+00
					 1.48127000E-05	 0.00000000E+00	 8.63944000E-05
					-9.19716000E-04	 0.00000000E+00	 2.24253000E-04
					 0.00000000E+00	 0.00000000E+00	 0.00000000E+00
					 0.00000000E+00	 0.00000000E+00	 0.00000000E+00
					 1.48127000E-05	 0.00000000E+00	 8.63944000E-05
					-9.19716000E-04	 0.00000000E+00	 2.24253000E-04
					 1.91966000E-05	 0.00000000E+00	 2.50786000E-04
					-8.28479000E-04	 0.00000000E+00	-2.09311000E-05
					 1.91966000E-05	 0.00000000E+00	 2.50786000E-04
					-8.28479000E-04	 0.00000000E+00	-2.09311000E-05
					 4.48093000E-06	 0.00000000E+00	-1.42531000E-04
					-5.98038000E-04	 0.00000000E+00	-2.43635000E-04
					 4.48093000E-06	 0.00000000E+00	-1.42531000E-04
					-5.98038000E-04	 0.00000000E+00	-2.43635000E-04
					-4.00186000E-06	 0.00000000E+00	-4.69314000E-05
					-1.09013000E-03	 0.00000000E+00	-1.18396000E-04
					-4.00186000E-06	 0.00000000E+00	-4.69314000E-05
					-1.09013000E-03	 0.00000000E+00	-1.18396000E-04
					 3.12007000E-06	 0.00000000E+00	 2.91981000E-04
					-7.95288000E-04	 0.00000000E+00	 1.41417000E-04
					 3.12007000E-06	 0.00000000E+00	 2.91981000E-04
					-7.95288000E-04	 0.00000000E+00	 1.41417000E-04
					 2.51794000E-06	 0.00000000E+00	-1.78976000E-05
					-5.76646000E-04	 0.00000000E+00	 1.39395000E-04
					 2.51794000E-06	 0.00000000E+00	-1.78976000E-05
					-5.76646000E-04	 0.00000000E+00	 1.39395000E-04
					-8.03522000E-07	 0.00000000E+00	-1.27406000E-04
					-9.62909000E-04	 0.00000000E+00	-1.12302000E-04
					-8.03522000E-07	 0.00000000E+00	-1.27406000E-04
					-9.62909000E-04	 0.00000000E+00	-1.12302000E-04
					-3.07812000E-06	 0.00000000E+00	 4.06298000E-05
					-7.75183000E-04	 0.00000000E+00	-8.28169000E-06
					-3.07812000E-06	 0.00000000E+00	 4.06298000E-05
					-7.75183000E-04	 0.00000000E+00	-8.28169000E-06
					-3.76896000E-06	 0.00000000E+00	 4.93286000E-05
					-8.40381000E-04	 0.00000000E+00	 4.73812000E-05
					-3.76896000E-06	 0.00000000E+00	 4.93286000E-05
					-8.40381000E-04	 0.00000000E+00	 4.73812000E-05
					-5.22439000E-06	 0.00000000E+00	-1.86939000E-05
					-7.41781000E-04	 0.00000000E+00	 2.12560000E-05
					-5.22439000E-06	 0.00000000E+00	-1.86939000E-05
					-7.41781000E-04	 0.00000000E+00	 2.12560000E-05
					-7.88233000E-06	 0.00000000E+00	 8.13487000E-06
					-9.08666000E-04	 0.00000000E+00	 1.42559000E-05
					-7.88233000E-06	 0.00000000E+00	 8.13487000E-06
					-9.08666000E-04	 0.00000000E+00	 1.42559000E-05
					-1.18087000E-05	 0.00000000E+00	-6.17929000E-05
					-7.35558000E-04	 0.00000000E+00	-2.23492000E-04
					-1.18087000E-05	 0.00000000E+00	-6.17929000E-05
					-7.35558000E-04	 0.00000000E+00	-2.23492000E-04
					-1.46571000E-05	 0.00000000E+00	-4.83841000E-05
					-7.95974000E-04	 0.00000000E+00	 2.99583000E-04
					-1.46571000E-05	 0.00000000E+00	-4.83841000E-05
					-7.95974000E-04	 0.00000000E+00	 2.99583000E-04
					-1.42956000E-05	 0.00000000E+00	 2.22475000E-04
					-1.08758000E-03	 0.00000000E+00	 2.20922000E-04
					-1.42956000E-05	 0.00000000E+00	 2.22475000E-04
					-1.08758000E-03	 0.00000000E+00	 2.20922000E-04
					-1.94176000E-05	 0.00000000E+00	 4.69364000E-04
					-9.43285000E-04	 0.00000000E+00	-2.57741000E-04
					-1.94176000E-05	 0.00000000E+00	 4.69364000E-04
					-9.43285000E-04	 0.00000000E+00	-2.57741000E-04
					-3.19593000E-05	 0.00000000E+00	 1.52966000E-04
					-4.65276000E-04	 0.00000000E+00	 7.03434000E-04
					-3.19593000E-05	 0.00000000E+00	 1.52966000E-04
					-4.65276000E-04	 0.00000000E+00	 7.03434000E-04
					-3.62522000E-05	 0.00000000E+00	 8.85482000E-05
					-1.23642000E-03	 0.00000000E+00	 6.88536000E-04
					-3.62522000E-05	 0.00000000E+00	 8.85482000E-05
					-1.23642000E-03	 0.00000000E+00	 6.88536000E-04
					-2.92759000E-05	 0.00000000E+00	 6.34850000E-04
					-9.40502000E-04	 0.00000000E+00	 7.60624000E-04
					-2.92759000E-05	 0.00000000E+00	 6.34850000E-04
					-9.40502000E-04	 0.00000000E+00	 7.60624000E-04
					-3.76233000E-05	 0.00000000E+00	 2.27335000E-04
					-6.16765000E-04	 0.00000000E+00	 7.32966000E-05
					-3.76233000E-05	 0.00000000E+00	 2.27335000E-04
					-6.16765000E-04	 0.00000000E+00	 7.32966000E-05
					-4.69948000E-05	 0.00000000E+00	 2.77611000E-04
					-5.70625000E-04	 0.00000000E+00	 3.99829000E-04
					-4.69948000E-05	 0.00000000E+00	 2.77611000E-04
					-5.70625000E-04	 0.00000000E+00	 3.99829000E-04
					 0.00000000E+00	 0.00000000E+00	 0.00000000E+00
					 9.41196000E-04	 0.00000000E+00	 2.23241000E-04
					 0.00000000E+00	 0.00000000E+00	 0.00000000E+00
					 9.41196000E-04	 0.00000000E+00	 2.23241000E-04
					 8.46249000E-04	 0.00000000E+00	-3.09431000E-05
					 8.46249000E-04	 0.00000000E+00	-3.09431000E-05
					 5.89911000E-04	 0.00000000E+00	-2.56635000E-04
					 5.89911000E-04	 0.00000000E+00	-2.56635000E-04
					 1.07261000E-03	 0.00000000E+00	-1.25423000E-04
					 1.07261000E-03	 0.00000000E+00	-1.25423000E-04
					 7.82280000E-04	 0.00000000E+00	 1.42828000E-04
					 7.82280000E-04	 0.00000000E+00	 1.42828000E-04
					 5.67825000E-04	 0.00000000E+00	 1.33811000E-04
					 5.67825000E-04	 0.00000000E+00	 1.33811000E-04
					 9.42803000E-04	 0.00000000E+00	-1.14191000E-04
					 9.42803000E-04	 0.00000000E+00	-1.14191000E-04
					 7.52959000E-04	 0.00000000E+00	-1.22587000E-05
					 7.52959000E-04	 0.00000000E+00	-1.22587000E-05
					 8.12250000E-04	 0.00000000E+00	 4.29695000E-05
					 8.12250000E-04	 0.00000000E+00	 4.29695000E-05
					 7.15695000E-04	 0.00000000E+00	 1.63879000E-05
					 7.15695000E-04	 0.00000000E+00	 1.63879000E-05
					 8.69728000E-04	 0.00000000E+00	 9.67393000E-06
					 8.69728000E-04	 0.00000000E+00	 9.67393000E-06
					 6.93052000E-04	 0.00000000E+00	-2.32221000E-04
					 6.93052000E-04	 0.00000000E+00	-2.32221000E-04
					 7.43627000E-04	 0.00000000E+00	 2.94768000E-04
					 7.43627000E-04	 0.00000000E+00	 2.94768000E-04
					 1.03643000E-03	 0.00000000E+00	 2.14421000E-04
					 1.03643000E-03	 0.00000000E+00	 2.14421000E-04
					 8.75929000E-04	 0.00000000E+00	-2.70808000E-04
					 8.75929000E-04	 0.00000000E+00	-2.70808000E-04
					 3.76404000E-04	 0.00000000E+00	 6.88614000E-04
					 3.76404000E-04	 0.00000000E+00	 6.88614000E-04
					 1.14034000E-03	 0.00000000E+00	 6.77123000E-04
					 1.14034000E-03	 0.00000000E+00	 6.77123000E-04
					 8.29477000E-04	 0.00000000E+00	 7.54969000E-04
					 8.29477000E-04	 0.00000000E+00	 7.54969000E-04
					 5.21153000E-04	 0.00000000E+00	 6.91972000E-05
					 5.21153000E-04	 0.00000000E+00	 6.91972000E-05
					 4.73100000E-04	 0.00000000E+00	 3.98009000E-04
					 4.73100000E-04	 0.00000000E+00	 3.98009000E-04
				</DataArray>
			</PointData>
		</Piece>
	</UnstructuredGrid>
</VTKFile>