<?xml version="1.0"?>
<VTKFile type="UnstructuredGrid" version="0.1" byte_order="LittleEndian">
	<UnstructuredGrid>
		<Piece NumberOfPoints="126" NumberOfCells="40">
			<Points>
				<DataArray type="Float64" NumberOfComponents="3" format="ascii">
					 5.00000000E-02	 0.00000000E+00	 0.00000000E+00
					 0.00000000E+00	 0.00000000E+00	 0.00000000E+00
					 0.00000000E+00	 0.00000000E+00	 5.00000000E-02
					 5.00000000E-02	 0.00000000E+00	 5.00000000E-02
					 5.00000000E-02	 3.00000000E-01	 0.00000000E+00
					 0.00000000E+00	 3.00000000E-01	 0.00000000E+00
					 0.00000000E+00	 3.00000000E-01	 5.00000000E-02
					 5.00000000E-02	 3.00000000E-01	 5.00000000E-02
					 0.00000000E+00	 0.00000000E+00	 1.00000000E-01
					 5.00000000E-02	 0.00000000E+00	 1.00000000E-01
					 0.00000000E+00	 3.00000000E-01	 1.00000000E-01
					 5.00000000E-02	 3.00000000E-01	 1.00000000E-01
					 0.00000000E+00	 0.00000000E+00	 1.50000000E-01
					 5.00000000E-02	 0.00000000E+00	 1.50000000E-01
					 0.00000000E+00	 3.00000000E-01	 1.50000000E-01
					 5.00000000E-02	 3.00000000E-01	 1.50000000E-01
					 0.00000000E+00	 0.00000000E+00	 2.00000000E-01
					 5.00000000E-02	 0.00000000E+00	 2.00000000E-01
					 0.00000000E+00	 3.00000000E-01	 2.00000000E-01
					 5.00000000E-02	 3.00000000E-01	 2.00000000E-01
					 0.00000000E+00	 0.00000000E+00	 2.50000000E-01
					 5.00000000E-02	 0.00000000E+00	 2.50000000E-01
					 0.00000000E+00	 3.00000000E-01	 2.50000000E-01
					 5.00000000E-02	 3.00000000E-01	 2.50000000E-01
					 0.00000000E+00	 0.00000000E+00	 3.00000000E-01
					 5.00000000E-02	 0.00000000E+00	 3.00000000E-01
					 0.00000000E+00	 3.00000000E-01	 3.00000000E-01
					 5.00000000E-02	 3.00000000E-01	 3.00000000E-01
					 0.00000000E+00	 0.00000000E+00	 3.50000000E-01
					 5.00000000E-02	 0.00000000E+00	 3.50000000E-01
					 0.00000000E+00	 3.00000000E-01	 3.50000000E-01
					 5.00000000E-02	 3.00000000E-01	 3.50000000E-01
					 0.00000000E+00	 0.00000000E+00	 4.00000000E-01
					 5.00000000E-02	 0.00000000E+00	 4.00000000E-01
					 0.00000000E+00	 3.00000000E-01	 4.00000000E-01
					 5.00000000E-02	 3.00000000E-01	 4.00000000E-01
					 0.00000000E+00	 0.00000000E+00	 4.50000000E-01
					 5.00000000E-02	 0.00000000E+00	 4.50000000E-01
					 0.00000000E+00	 3.00000000E-01	 4.50000000E-01
					 5.00000000E-02	 3.00000000E-01	 4.50000000E-01
					 0.00000000E+00	 0.00000000E+00	 5.00000000E-01
					 5.00000000E-02	 0.00000000E+00	 5.00000000E-01
					 0.00000000E+00	 3.00000000E-01	 5.00000000E-01
					 5.00000000E-02	 3.00000000E-01	 5.00000000E-01
					 0.00000000E+00	 0.00000000E+00	 5.50000000E-01
					 5.00000000E-02	 0.00000000E+00	 5.50000000E-01
					 0.00000000E+00	 3.00000000E-01	 5.50000000E-01
					 5.00000000E-02	 3.00000000E-01	 5.50000000E-01
					 0.00000000E+00	 0.00000000E+00	 6.00000000E-01
					 5.00000000E-02	 0.00000000E+00	 6.00000000E-01
					 0.00000000E+00	 3.00000000E-01	 6.00000000E-01
					 5.00000000E-02	 3.00000000E-01	 6.00000000E-01
					 0.00000000E+00	 0.00000000E+00	 6.50000000E-01
					 5.00000000E-02	 0.00000000E+00	 6.50000000E-01
					 0.00000000E+00	 3.00000000E-01	 6.50000000E-01
					 5.00000000E-02	 3.00000000E-01	 6.50000000E-01
					 0.00000000E+00	 0.00000000E+00	 7.00000000E-01
					 5.00000000E-02	 0.00000000E+00	 7.00000000E-01
					 0.00000000E+00	 3.00000000E-01	 7.00000000E-01
					 5.00000000E-02	 3.00000000E-01	 7.00000000E-01
					 0.00000000E+00	 0.00000000E+00	 7.50000000E-01
					 5.00000000E-02	 0.00000000E+00	 7.50000000E-01
					 0.00000000E+00	 3.00000000E-01	 7.50000000E-01
					 5.00000000E-02	 3.00000000E-01	 7.50000000E-01
					 0.00000000E+00	 0.00000000E+00	 8.00000000E-01
					 5.00000000E-02	 0.00000000E+00	 8.00000000E-01
					 0.00000000E+00	 3.00000000E-01	 8.00000000E-01
					 5.00000000E-02	 3.00000000E-01	 8.00000000E-01
					 0.00000000E+00	 0.00000000E+00	 8.50000000E-01
					 5.00000000E-02	 0.00000000E+00	 8.50000000E-01
					 0.00000000E+00	 3.00000000E-01	 8.50000000E-01
					 5.00000000E-02	 3.00000000E-01	 8.50000000E-01
					 0.00000000E+00	 0.00000000E+00	 9.00000000E-01
					 5.00000000E-02	 0.00000000E+00	 9.00000000E-01
					 0.00000000E+00	 3.00000000E-01	 9.00000000E-01
					 5.00000000E-02	 3.00000000E-01	 9.00000000E-01
					 0.00000000E+00	 0.00000000E+00	 9.50000000E-01
					 5.00000000E-02	 0.00000000E+00	 9.50000000E-01
					 0.00000000E+00	 3.00000000E-01	 9.50000000E-01
					 5.00000000E-02	 3.00000000E-01	 9.50000000E-01
					 0.00000000E+00	 0.00000000E+00	 1.00000000E+00
					 5.00000000E-02	 0.00000000E+00	 1.00000000E+00
					 0.00000000E+00	 3.00000000E-01	 1.00000000E+00
					 5.00000000E-02	 3.00000000E-01	 1.00000000E+00
					-5.00000000E-02	 0.00000000E+00	 0.00000000E+00
					-5.00000000E-02	 0.00000000E+00	 5.00000000E-02
					-5.00000000E-02	 3.00000000E-01	 0.00000000E+00
					-5.00000000E-02	 3.00000000E-01	 5.00000000E-02
					-5.00000000E-02	 0.00000000E+00	 1.00000000E-01
					-5.00000000E-02	 3.00000000E-01	 1.00000000E-01
					-5.00000000E-02	 0.00000000E+00	 1.50000000E-01
					-5.00000000E-02	 3.00000000E-01	 1.50000000E-01
					-5.00000000E-02	 0.00000000E+00	 2.00000000E-01
					-5.00000000E-02	 3.00000000E-01	 2.00000000E-01
					-5.00000000E-02	 0.00000000E+00	 2.50000000E-01
					-5.00000000E-02	 3.00000000E-01	 2.50000000E-01
					-5.00000000E-02	 0.00000000E+00	 3.00000000E-01
					-5.00000000E-02	 3.00000000E-01	 3.00000000E-01
					-5.00000000E-02	 0.00000000E+00	 3.50000000E-01
					-5.00000000E-02	 3.00000000E-01	 3.50000000E-01
					-5.00000000E-02	 0.00000000E+00	 4.00000000E-01
					-5.00000000E-02	 3.00000000E-01	 4.00000000E-01
					-5.00000000E-02	 0.00000000E+00	 4.50000000E-01
					-5.00000000E-02	 3.00000000E-01	 4.50000000E-01
					-5.00000000E-02	 0.00000000E+00	 5.00000000E-01
					-5.00000000E-02	 3.00000000E-01	 5.00000000E-01
					-5.00000000E-02	 0.00000000E+00	 5.50000000E-01
					-5.00000000E-02	 3.00000000E-01	 5.50000000E-01
					-5.00000000E-02	 0.00000000E+00	 6.00000000E-01
					-5.00000000E-02	 3.00000000E-01	 6.00000000E-01
					-5.00000000E-02	 0.00000000E+00	 6.50000000E-01
					-5.00000000E-02	 3.00000000E-01	 6.50000000E-01
					-5.00000000E-02	 0.00000000E+00	 7.00000000E-01
					-5.00000000E-02	 3.00000000E-01	 7.00000000E-01
					-5.00000000E-02	 0.00000000E+00	 7.50000000E-01
					-5.00000000E-02	 3.00000000E-01	 7.50000000E-01
					-5.00000000E-02	 0.00000000E+00	 8.00000000E-01
					-5.00000000E-02	 3.00000000E-01	 8.00000000E-01
					-5.00000000E-02	 0.00000000E+00	 8.50000000E-01
					-5.00000000E-02	 3.00000000E-01	 8.50000000E-01
					-5.00000000E-02	 0.00000000E+00	 9.00000000E-01
					-5.00000000E-02	 3.00000000E-01	 9.00000000E-01
					-5.00000000E-02	 0.00000000E+00	 9.50000000E-01
					-5.00000000E-02	 3.00000000E-01	 9.50000000E-01
					-5.00000000E-02	 0.00000000E+00	 1.00000000E+00
					-5.00000000E-02	 3.00000000E-01	 1.00000000E+00
				</DataArray>
			</Points>
			<Cells>
				<DataArray type="Int32" Name="connectivity" format="ascii">
					0 1 2 3 4 5 6 7 3 2 8 9 7 6 10 11 9 8 12 13 11 10 14 15 13 12 16 17 15 14 18 19 17 16 20 21 19 18 22 23 21 20 24 25 23 22 26 27 25 24 28 29 27 26 30 31 29 28 32 33 31 30 34 35 33 32 36 37 35 34 38 39 37 36 40 41 39 38 42 43 41 40 44 45 43 42 46 47 45 44 48 49 47 46 50 51 49 48 52 53 51 50 54 55 53 52 56 57 55 54 58 59 57 56 60 61 59 58 62 63 61 60 64 65 63 62 66 67 65 64 68 69 67 66 70 71 69 68 72 73 71 70 74 75 73 72 76 77 75 74 78 79 77 76 80 81 79 78 82 83 1 84 85 2 5 86 87 6 2 85 88 8 6 87 89 10 8 88 90 12 10 89 91 14 12 90 92 16 14 91 93 18 16 92 94 20 18 93 95 22 20 94 96 24 22 95 97 26 24 96 98 28 26 97 99 30 28 98 100 32 30 99 101 34 32 100 102 36 34 101 103 38 36 102 104 40 38 103 105 42 40 104 106 44 42 105 107 46 44 106 108 48 46 107 109 50 48 108 110 52 50 109 111 54 52 110 112 56 54 111 113 58 56 112 114 60 58 113 115 62 60 114 116 64 62 115 117 66 64 116 118 68 66 117 119 70 68 118 120 72 70 119 121 74 72 120 122 76 74 121 123 78 76 122 124 80 78 123 125 82 
				</DataArray>
				<DataArray type="Int32" Name="offsets" format="ascii">
					8 16 24 32 40 48 56 64 72 80 88 96 104 112 120 128 136 144 152 160 168 176 184 192 200 208 216 224 232 240 248 256 264 272 280 288 296 304 312 320 
				</DataArray>
				<DataArray type="UInt8" Name="types" format="ascii">
					12 12 12 12 12 12 12 12 12 12 12 12 12 12 12 12 12 12 12 12 12 12 12 12 12 12 12 12 12 12 12 12 12 12 12 12 12 12 12 12 
				</DataArray>
			</Cells>
			<PointData>
				<DataArray type="Float32" Name="U" NumberOfComponents="3" ComponentName0="D1" ComponentName1="D2" ComponentName2="D3" format="ascii">
					 0.00000000E+00	 0.00000000E+00	 0.00000000E+00
					 0.00000000E+00	 0.00000000E+00	 0.00000000E+00
					 3.62579000E-03	 0.00000000E+00	-2.84782000E-03
					 2.02695000E-03	 0.00000000E+00	 5.38224000E-03
					 0.00000000E+00	 0.00000000E+00	 0.00000000E+00
					 0.00000000E+00	 0.00000000E+00	 0.00000000E+00
					 3.62579000E-03	 0.00000000E+00	-2.84782000E-03
					 2.02695000E-03	 0.00000000E+00	 5.38224000E-03
					 5.06671000E-02	 0.00000000E+00	-9.13384000E-03
					 4.52537000E-02	 0.00000000E+00	-4.07999000E-02
					 5.06671000E-02	 0.00000000E+00	-9.13384000E-03
					 4.52537000E-02	 0.00000000E+00	-4.07999000E-02
					 9.48125000E-02	 0.00000000E+00	-1.44783000E-02
					 5.92230000E-03	 0.00000000E+00	-2.24644000E-02
					 9.48125000E-02	 0.00000000E+00	-1.44783000E-02
					 5.92230000E-03	 0.00000000E+00	-2.24644000E-02
					 9.26174000E-02	 0.00000000E+00	-7.90350000E-03
					-5.55260000E-03	 0.00000000E+00	-2.45303000E-02
					 9.26174000E-02	 0.00000000E+00	-7.90350000E-03
					-5.55260000E-03	 0.00000000E+00	-2.45303000E-02
					 6.92596000E-02	 0.00000000E+00	-8.27974000E-03
					 8.71895000E-03	 0.00000000E+00	-2.39448000E-02
					 6.92596000E-02	 0.00000000E+00	-8.27974000E-03
					 8.71895000E-03	 0.00000000E+00	-2.39448000E-02
					 6.72202000E-02	 0.00000000E+00	-8.13220000E-03
					-4.25071000E-02	 0.00000000E+00	-3.52992000E-02
					 6.72202000E-02	 0.00000000E+00	-8.13220000E-03
					-4.25071000E-02	 0.00000000E+00	-3.52992000E-02
					 3.93540000E-02	 0.00000000E+00	-2.07406000E-02
					-7.36955000E-02	 0.00000000E+00	-2.13310000E-02
					 3.93540000E-02	 0.00000000E+00	-2.07406000E-02
					-7.36955000E-02	 0.00000000E+00	-2.13310000E-02
					-1.16191000E-03	 0.00000000E+00	-2.97855000E-03
					-2.02913000E-02	 0.00000000E+00	-1.53639000E-02
					-1.16191000E-03	 0.00000000E+00	-2.97855000E-03
					-2.02913000E-02	 0.00000000E+00	-1.53639000E-02
					 1.35482000E-02	 0.00000000E+00	-3.20013000E-03
					 1.64829000E-02	 0.00000000E+00	-1.16840000E-02
					 1.35482000E-02	 0.00000000E+00	-3.20013000E-03
					 1.64829000E-02	 0.00000000E+00	-1.16840000E-02
					 2.31681000E-02	 0.00000000E+00	-6.31231000E-03
					 2.08126000E-02	 0.00000000E+00	-1.79874000E-02
					 2.31681000E-02	 0.00000000E+00	-6.31231000E-03
					 2.08126000E-02	 0.00000000E+00	-1.79874000E-02
					 1.97022000E-02	 0.00000000E+00	-3.37321000E-03
					 1.37896000E-02	 0.00000000E+00	 2.69188000E-03
					 1.97022000E-02	 0.00000000E+00	-3.37321000E-03
					 1.37896000E-02	 0.00000000E+00	 2.69188000E-03
					 1.75648000E-02	 0.00000000E+00	 2.97385000E-03
					 2.15869000E-02	 0.00000000E+00	 1.58911000E-03
					 1.75648000E-02	 0.00000000E+00	 2.97385000E-03
					 2.15869000E-02	 0.00000000E+00	 1.58911000E-03
					 1.89145000E-02	 0.00000000E+00	 4.60142000E-04
					 1.80460000E-02	 0.00000000E+00	 1.39105000E-03
					 1.89145000E-02	 0.00000000E+00	 4.60142000E-04
					 1.80460000E-02	 0.00000000E+00	 1.39105000E-03
					 1.67202000E-02	 0.00000000E+00	 6.65362000E-04
					 1.72012000E-02	 0.00000000E+00	 3.20205000E-03
					 1.67202000E-02	 0.00000000E+00	 6.65362000E-04
					 1.72012000E-02	 0.00000000E+00	 3.20205000E-03
					 1.61933000E-02	 0.00000000E+00	 1.38475000E-03
					 1.69780000E-02	 0.00000000E+00	 1.74179000E-03
					 1.61933000E-02	 0.00000000E+00	 1.38475000E-03
					 1.69780000E-02	 0.00000000E+00	 1.74179000E-03
					 1.48108000E-02	 0.00000000E+00	 1.02763000E-03
					 1.57701000E-02	 0.00000000E+00	 2.54996000E-03
					 1.48108000E-02	 0.00000000E+00	 1.02763000E-03
					 1.57701000E-02	 0.00000000E+00	 2.54996000E-03
					 1.40110000E-02	 0.00000000E+00	 5.35438000E-04
					 1.40353000E-02	 0.00000000E+00	 2.31606000E-03
					 1.40110000E-02	 0.00000000E+00	 5.35438000E-04
					 1.40353000E-02	 0.00000000E+00	 2.31606000E-03
					 1.32856000E-02	 0.00000000E+00	 1.55028000E-03
					 1.26263000E-02	 0.00000000E+00	 2.78310000E-03
					 1.32856000E-02	 0.00000000E+00	 1.55028000E-03
					 1.26263000E-02	 0.00000000E+00	 2.78310000E-03
					 1.24075000E-02	 0.00000000E+00	 1.98306000E-03
					 1.28180000E-02	 0.00000000E+00	 2.39934000E-03
					 1.24075000E-02	 0.00000000E+00	 1.98306000E-03
					 1.28180000E-02	 0.00000000E+00	 2.39934000E-03
					 1.18007000E-02	 0.00000000E+00	 1.72924000E-03
					 1.24231000E-02	 0.00000000E+00	 1.98539000E-03
					 1.18007000E-02	 0.00000000E+00	 1.72924000E-03
					 1.24231000E-02	 0.00000000E+00	 1.98539000E-03
					 0.00000000E+00	 0.00000000E+00	 0.00000000E+00
					 8.44433000E-02	 0.00000000E+00	-1.35794000E-02
					 0.00000000E+00	 0.00000000E+00	 0.00000000E+00
					 8.44433000E-02	 0.00000000E+00	-1.35794000E-02
					 1.32627000E-01	 0.00000000E+00	-3.92807000E-02
					 1.32627000E-01	 0.00000000E+00	-3.92807000E-02
					 1.80117000E-01	 0.00000000E+00	-2.42792000E-02
					 1.80117000E-01	 0.00000000E+00	-2.42792000E-02
					 1.88347000E-01	 0.00000000E+00	-1.10350000E-02
					 1.88347000E-01	 0.00000000E+00	-1.10350000E-02
					 1.83874000E-01	 0.00000000E+00	 1.30737000E-02
					 1.83874000E-01	 0.00000000E+00	 1.30737000E-02
					 1.63705000E-01	 0.00000000E+00	 9.59783000E-03
					 1.63705000E-01	 0.00000000E+00	 9.59783000E-03
					 9.99968000E-02	 0.00000000E+00	-9.85955000E-03
					 9.99968000E-02	 0.00000000E+00	-9.85955000E-03
					 1.05283000E-01	 0.00000000E+00	 7.36197000E-03
					 1.05283000E-01	 0.00000000E+00	 7.36197000E-03
					 4.25679000E-02	 0.00000000E+00	 6.00981000E-03
					 4.25679000E-02	 0.00000000E+00	 6.00981000E-03
					 1.41071000E-02	 0.00000000E+00	-6.94636000E-03
					 1.41071000E-02	 0.00000000E+00	-6.94636000E-03
					 2.32788000E-02	 0.00000000E+00	-6.06531000E-03
					 2.32788000E-02	 0.00000000E+00	-6.06531000E-03
					 1.84345000E-02	 0.00000000E+00	 1.10286000E-03
					 1.84345000E-02	 0.00000000E+00	 1.10286000E-03
					 1.64888000E-02	 0.00000000E+00	 6.09594000E-04
					 1.64888000E-02	 0.00000000E+00	 6.09594000E-04
					 1.76980000E-02	 0.00000000E+00	-2.58123000E-04
					 1.76980000E-02	 0.00000000E+00	-2.58123000E-04
					 1.50429000E-02	 0.00000000E+00	 6.12634000E-04
					 1.50429000E-02	 0.00000000E+00	 6.12634000E-04
					 1.39652000E-02	 0.00000000E+00	 1.99837000E-04
					 1.39652000E-02	 0.00000000E+00	 1.99837000E-04
					 1.41405000E-02	 0.00000000E+00	 7.65196000E-04
					 1.41405000E-02	 0.00000000E+00	 7.65196000E-04
					 1.37823000E-02	 0.00000000E+00	 1.04227000E-03
					 1.37823000E-02	 0.00000000E+00	 1.04227000E-03
					 1.19839000E-02	 0.00000000E+00	 7.66188000E-04
					 1.19839000E-02	 0.00000000E+00	 7.66188000E-04
					 1.09623000E-02	 0.00000000E+00	 6.29239000E-04
					 1.09623000E-02	 0.00000000E+00	 6.29239000E-04
				</DataArray>
			</PointData>
		</Piece>
	</UnstructuredGrid>
</VTKFile>