<?xml version="1.0"?>
<VTKFile type="UnstructuredGrid" version="0.1" byte_order="LittleEndian">
	<UnstructuredGrid>
		<Piece NumberOfPoints="126" NumberOfCells="40">
			<Points>
				<DataArray type="Float64" NumberOfComponents="3" format="ascii">
					 5.00000000E-02	 0.00000000E+00	 0.00000000E+00
					 0.00000000E+00	 0.00000000E+00	 0.00000000E+00
					 0.00000000E+00	 0.00000000E+00	 5.00000000E-02
					 5.00000000E-02	 0.00000000E+00	 5.00000000E-02
					 5.00000000E-02	 3.00000000E-01	 0.00000000E+00
					 0.00000000E+00	 3.00000000E-01	 0.00000000E+00
					 0.00000000E+00	 3.00000000E-01	 5.00000000E-02
					 5.00000000E-02	 3.00000000E-01	 5.00000000E-02
					 0.00000000E+00	 0.00000000E+00	 1.00000000E-01
					 5.00000000E-02	 0.00000000E+00	 1.00000000E-01
					 0.00000000E+00	 3.00000000E-01	 1.00000000E-01
					 5.00000000E-02	 3.00000000E-01	 1.00000000E-01
					 0.00000000E+00	 0.00000000E+00	 1.50000000E-01
					 5.00000000E-02	 0.00000000E+00	 1.50000000E-01
					 0.00000000E+00	 3.00000000E-01	 1.50000000E-01
					 5.00000000E-02	 3.00000000E-01	 1.50000000E-01
					 0.00000000E+00	 0.00000000E+00	 2.00000000E-01
					 5.00000000E-02	 0.00000000E+00	 2.00000000E-01
					 0.00000000E+00	 3.00000000E-01	 2.00000000E-01
					 5.00000000E-02	 3.00000000E-01	 2.00000000E-01
					 0.00000000E+00	 0.00000000E+00	 2.50000000E-01
					 5.00000000E-02	 0.00000000E+00	 2.50000000E-01
					 0.00000000E+00	 3.00000000E-01	 2.50000000E-01
					 5.00000000E-02	 3.00000000E-01	 2.50000000E-01
					 0.00000000E+00	 0.00000000E+00	 3.00000000E-01
					 5.00000000E-02	 0.00000000E+00	 3.00000000E-01
					 0.00000000E+00	 3.00000000E-01	 3.00000000E-01
					 5.00000000E-02	 3.00000000E-01	 3.00000000E-01
					 0.00000000E+00	 0.00000000E+00	 3.50000000E-01
					 5.00000000E-02	 0.00000000E+00	 3.50000000E-01
					 0.00000000E+00	 3.00000000E-01	 3.50000000E-01
					 5.00000000E-02	 3.00000000E-01	 3.50000000E-01
					 0.00000000E+00	 0.00000000E+00	 4.00000000E-01
					 5.00000000E-02	 0.00000000E+00	 4.00000000E-01
					 0.00000000E+00	 3.00000000E-01	 4.00000000E-01
					 5.00000000E-02	 3.00000000E-01	 4.00000000E-01
					 0.00000000E+00	 0.00000000E+00	 4.50000000E-01
					 5.00000000E-02	 0.00000000E+00	 4.50000000E-01
					 0.00000000E+00	 3.00000000E-01	 4.50000000E-01
					 5.00000000E-02	 3.00000000E-01	 4.50000000E-01
					 0.00000000E+00	 0.00000000E+00	 5.00000000E-01
					 5.00000000E-02	 0.00000000E+00	 5.00000000E-01
					 0.00000000E+00	 3.00000000E-01	 5.00000000E-01
					 5.00000000E-02	 3.00000000E-01	 5.00000000E-01
					 0.00000000E+00	 0.00000000E+00	 5.50000000E-01
					 5.00000000E-02	 0.00000000E+00	 5.50000000E-01
					 0.00000000E+00	 3.00000000E-01	 5.50000000E-01
					 5.00000000E-02	 3.00000000E-01	 5.50000000E-01
					 0.00000000E+00	 0.00000000E+00	 6.00000000E-01
					 5.00000000E-02	 0.00000000E+00	 6.00000000E-01
					 0.00000000E+00	 3.00000000E-01	 6.00000000E-01
					 5.00000000E-02	 3.00000000E-01	 6.00000000E-01
					 0.00000000E+00	 0.00000000E+00	 6.50000000E-01
					 5.00000000E-02	 0.00000000E+00	 6.50000000E-01
					 0.00000000E+00	 3.00000000E-01	 6.50000000E-01
					 5.00000000E-02	 3.00000000E-01	 6.50000000E-01
					 0.00000000E+00	 0.00000000E+00	 7.00000000E-01
					 5.00000000E-02	 0.00000000E+00	 7.00000000E-01
					 0.00000000E+00	 3.00000000E-01	 7.00000000E-01
					 5.00000000E-02	 3.00000000E-01	 7.00000000E-01
					 0.00000000E+00	 0.00000000E+00	 7.50000000E-01
					 5.00000000E-02	 0.00000000E+00	 7.50000000E-01
					 0.00000000E+00	 3.00000000E-01	 7.50000000E-01
					 5.00000000E-02	 3.00000000E-01	 7.50000000E-01
					 0.00000000E+00	 0.00000000E+00	 8.00000000E-01
					 5.00000000E-02	 0.00000000E+00	 8.00000000E-01
					 0.00000000E+00	 3.00000000E-01	 8.00000000E-01
					 5.00000000E-02	 3.00000000E-01	 8.00000000E-01
					 0.00000000E+00	 0.00000000E+00	 8.50000000E-01
					 5.00000000E-02	 0.00000000E+00	 8.50000000E-01
					 0.00000000E+00	 3.00000000E-01	 8.50000000E-01
					 5.00000000E-02	 3.00000000E-01	 8.50000000E-01
					 0.00000000E+00	 0.00000000E+00	 9.00000000E-01
					 5.00000000E-02	 0.00000000E+00	 9.00000000E-01
					 0.00000000E+00	 3.00000000E-01	 9.00000000E-01
					 5.00000000E-02	 3.00000000E-01	 9.00000000E-01
					 0.00000000E+00	 0.00000000E+00	 9.50000000E-01
					 5.00000000E-02	 0.00000000E+00	 9.50000000E-01
					 0.00000000E+00	 3.00000000E-01	 9.50000000E-01
					 5.00000000E-02	 3.00000000E-01	 9.50000000E-01
					 0.00000000E+00	 0.00000000E+00	 1.00000000E+00
					 5.00000000E-02	 0.00000000E+00	 1.00000000E+00
					 0.00000000E+00	 3.00000000E-01	 1.00000000E+00
					 5.00000000E-02	 3.00000000E-01	 1.00000000E+00
					-5.00000000E-02	 0.00000000E+00	 0.00000000E+00
					-5.00000000E-02	 0.00000000E+00	 5.00000000E-02
					-5.00000000E-02	 3.00000000E-01	 0.00000000E+00
					-5.00000000E-02	 3.00000000E-01	 5.00000000E-02
					-5.00000000E-02	 0.00000000E+00	 1.00000000E-01
					-5.00000000E-02	 3.00000000E-01	 1.00000000E-01
					-5.00000000E-02	 0.00000000E+00	 1.50000000E-01
					-5.00000000E-02	 3.00000000E-01	 1.50000000E-01
					-5.00000000E-02	 0.00000000E+00	 2.00000000E-01
					-5.00000000E-02	 3.00000000E-01	 2.00000000E-01
					-5.00000000E-02	 0.00000000E+00	 2.50000000E-01
					-5.00000000E-02	 3.00000000E-01	 2.50000000E-01
					-5.00000000E-02	 0.00000000E+00	 3.00000000E-01
					-5.00000000E-02	 3.00000000E-01	 3.00000000E-01
					-5.00000000E-02	 0.00000000E+00	 3.50000000E-01
					-5.00000000E-02	 3.00000000E-01	 3.50000000E-01
					-5.00000000E-02	 0.00000000E+00	 4.00000000E-01
					-5.00000000E-02	 3.00000000E-01	 4.00000000E-01
					-5.00000000E-02	 0.00000000E+00	 4.50000000E-01
					-5.00000000E-02	 3.00000000E-01	 4.50000000E-01
					-5.00000000E-02	 0.00000000E+00	 5.00000000E-01
					-5.00000000E-02	 3.00000000E-01	 5.00000000E-01
					-5.00000000E-02	 0.00000000E+00	 5.50000000E-01
					-5.00000000E-02	 3.00000000E-01	 5.50000000E-01
					-5.00000000E-02	 0.00000000E+00	 6.00000000E-01
					-5.00000000E-02	 3.00000000E-01	 6.00000000E-01
					-5.00000000E-02	 0.00000000E+00	 6.50000000E-01
					-5.00000000E-02	 3.00000000E-01	 6.50000000E-01
					-5.00000000E-02	 0.00000000E+00	 7.00000000E-01
					-5.00000000E-02	 3.00000000E-01	 7.00000000E-01
					-5.00000000E-02	 0.00000000E+00	 7.50000000E-01
					-5.00000000E-02	 3.00000000E-01	 7.50000000E-01
					-5.00000000E-02	 0.00000000E+00	 8.00000000E-01
					-5.00000000E-02	 3.00000000E-01	 8.00000000E-01
					-5.00000000E-02	 0.00000000E+00	 8.50000000E-01
					-5.00000000E-02	 3.00000000E-01	 8.50000000E-01
					-5.00000000E-02	 0.00000000E+00	 9.00000000E-01
					-5.00000000E-02	 3.00000000E-01	 9.00000000E-01
					-5.00000000E-02	 0.00000000E+00	 9.50000000E-01
					-5.00000000E-02	 3.00000000E-01	 9.50000000E-01
					-5.00000000E-02	 0.00000000E+00	 1.00000000E+00
					-5.00000000E-02	 3.00000000E-01	 1.00000000E+00
				</DataArray>
			</Points>
			<Cells>
				<DataArray type="Int32" Name="connectivity" format="ascii">
					0 1 2 3 4 5 6 7 3 2 8 9 7 6 10 11 9 8 12 13 11 10 14 15 13 12 16 17 15 14 18 19 17 16 20 21 19 18 22 23 21 20 24 25 23 22 26 27 25 24 28 29 27 26 30 31 29 28 32 33 31 30 34 35 33 32 36 37 35 34 38 39 37 36 40 41 39 38 42 43 41 40 44 45 43 42 46 47 45 44 48 49 47 46 50 51 49 48 52 53 51 50 54 55 53 52 56 57 55 54 58 59 57 56 60 61 59 58 62 63 61 60 64 65 63 62 66 67 65 64 68 69 67 66 70 71 69 68 72 73 71 70 74 75 73 72 76 77 75 74 78 79 77 76 80 81 79 78 82 83 1 84 85 2 5 86 87 6 2 85 88 8 6 87 89 10 8 88 90 12 10 89 91 14 12 90 92 16 14 91 93 18 16 92 94 20 18 93 95 22 20 94 96 24 22 95 97 26 24 96 98 28 26 97 99 30 28 98 100 32 30 99 101 34 32 100 102 36 34 101 103 38 36 102 104 40 38 103 105 42 40 104 106 44 42 105 107 46 44 106 108 48 46 107 109 50 48 108 110 52 50 109 111 54 52 110 112 56 54 111 113 58 56 112 114 60 58 113 115 62 60 114 116 64 62 115 117 66 64 116 118 68 66 117 119 70 68 118 120 72 70 119 121 74 72 120 122 76 74 121 123 78 76 122 124 80 78 123 125 82 
				</DataArray>
				<DataArray type="Int32" Name="offsets" format="ascii">
					8 16 24 32 40 48 56 64 72 80 88 96 104 112 120 128 136 144 152 160 168 176 184 192 200 208 216 224 232 240 248 256 264 272 280 288 296 304 312 320 
				</DataArray>
				<DataArray type="UInt8" Name="types" format="ascii">
					12 12 12 12 12 12 12 12 12 12 12 12 12 12 12 12 12 12 12 12 12 12 12 12 12 12 12 12 12 12 12 12 12 12 12 12 12 12 12 12 
				</DataArray>
			</Cells>
			<PointData>
				<DataArray type="Float32" Name="U" NumberOfComponents="3" ComponentName0="D1" ComponentName1="D2" ComponentName2="D3" format="ascii">
					 0.00000000E+00	 0.00000000E+00	 0.00000000E+00
					 0.00000000E+00	 0.00000000E+00	 0.00000000E+00
					 9.58346000E-03	 0.00000000E+00	 9.83416000E-03
					-7.89038000E-03	 0.00000000E+00	-3.74977000E-03
					 0.00000000E+00	 0.00000000E+00	 0.00000000E+00
					 0.00000000E+00	 0.00000000E+00	 0.00000000E+00
					 9.58346000E-03	 0.00000000E+00	 9.83416000E-03
					-7.89038000E-03	 0.00000000E+00	-3.74977000E-03
					 1.78163000E-02	 0.00000000E+00	 1.28266000E-03
					 3.49508000E-03	 0.00000000E+00	 3.99924000E-03
					 1.78163000E-02	 0.00000000E+00	 1.28266000E-03
					 3.49508000E-03	 0.00000000E+00	 3.99924000E-03
					 7.73892000E-03	 0.00000000E+00	-8.01191000E-03
					-1.20840000E-02	 0.00000000E+00	 7.58397000E-03
					 7.73892000E-03	 0.00000000E+00	-8.01191000E-03
					-1.20840000E-02	 0.00000000E+00	 7.58397000E-03
					 1.92694000E-03	 0.00000000E+00	 5.58317000E-03
					 6.54425000E-03	 0.00000000E+00	-1.25303000E-03
					 1.92694000E-03	 0.00000000E+00	 5.58317000E-03
					 6.54425000E-03	 0.00000000E+00	-1.25303000E-03
					 1.13310000E-02	 0.00000000E+00	 3.63540000E-03
					 1.44731000E-02	 0.00000000E+00	-3.68674000E-03
					 1.13310000E-02	 0.00000000E+00	 3.63540000E-03
					 1.44731000E-02	 0.00000000E+00	-3.68674000E-03
					 1.07857000E-02	 0.00000000E+00	-1.86699000E-03
					 7.56601000E-03	 0.00000000E+00	-1.96549000E-04
					 1.07857000E-02	 0.00000000E+00	-1.86699000E-03
					 7.56601000E-03	 0.00000000E+00	-1.96549000E-04
					 1.04539000E-02	 0.00000000E+00	 1.18347000E-03
					 1.08610000E-02	 0.00000000E+00	-1.29909000E-04
					 1.04539000E-02	 0.00000000E+00	 1.18347000E-03
					 1.08610000E-02	 0.00000000E+00	-1.29909000E-04
					 1.08972000E-02	 0.00000000E+00	 1.16573000E-04
					 1.04643000E-02	 0.00000000E+00	 3.02376000E-04
					 1.08972000E-02	 0.00000000E+00	 1.16573000E-04
					 1.04643000E-02	 0.00000000E+00	 3.02376000E-04
					 1.05392000E-02	 0.00000000E+00	 1.00937000E-04
					 9.46253000E-03	 0.00000000E+00	 3.82632000E-04
					 1.05392000E-02	 0.00000000E+00	 1.00937000E-04
					 9.46253000E-03	 0.00000000E+00	 3.82632000E-04
					 1.02486000E-02	 0.00000000E+00	 5.83346000E-04
					 9.90446000E-03	 0.00000000E+00	 6.67350000E-04
					 1.02486000E-02	 0.00000000E+00	 5.83346000E-04
					 9.90446000E-03	 0.00000000E+00	 6.67350000E-04
					 9.92855000E-03	 0.00000000E+00	 2.00679000E-04
					 9.66961000E-03	 0.00000000E+00	 6.46378000E-04
					 9.92855000E-03	 0.00000000E+00	 2.00679000E-04
					 9.66961000E-03	 0.00000000E+00	 6.46378000E-04
					 9.52670000E-03	 0.00000000E+00	 3.10590000E-04
					 8.75389000E-03	 0.00000000E+00	 1.03692000E-03
					 9.52670000E-03	 0.00000000E+00	 3.10590000E-04
					 8.75389000E-03	 0.00000000E+00	 1.03692000E-03
					 9.09849000E-03	 0.00000000E+00	 6.92668000E-04
					 8.33576000E-03	 0.00000000E+00	 1.27692000E-03
					 9.09849000E-03	 0.00000000E+00	 6.92668000E-04
					 8.33576000E-03	 0.00000000E+00	 1.27692000E-03
					 8.66603000E-03	 0.00000000E+00	 9.01490000E-04
					 8.72249000E-03	 0.00000000E+00	 1.15098000E-03
					 8.66603000E-03	 0.00000000E+00	 9.01490000E-04
					 8.72249000E-03	 0.00000000E+00	 1.15098000E-03
					 8.17197000E-03	 0.00000000E+00	 9.71608000E-04
					 7.46863000E-03	 0.00000000E+00	 1.43113000E-03
					 8.17197000E-03	 0.00000000E+00	 9.71608000E-04
					 7.46863000E-03	 0.00000000E+00	 1.43113000E-03
					 7.66323000E-03	 0.00000000E+00	 1.39936000E-03
					 6.56733000E-03	 0.00000000E+00	 1.76151000E-03
					 7.66323000E-03	 0.00000000E+00	 1.39936000E-03
					 6.56733000E-03	 0.00000000E+00	 1.76151000E-03
					 6.80031000E-03	 0.00000000E+00	 2.04382000E-03
					 6.83052000E-03	 0.00000000E+00	 1.49628000E-03
					 6.80031000E-03	 0.00000000E+00	 2.04382000E-03
					 6.83052000E-03	 0.00000000E+00	 1.49628000E-03
					 5.97539000E-03	 0.00000000E+00	 1.31452000E-03
					 6.24597000E-03	 0.00000000E+00	 1.28755000E-03
					 5.97539000E-03	 0.00000000E+00	 1.31452000E-03
					 6.24597000E-03	 0.00000000E+00	 1.28755000E-03
					 5.52884000E-03	 0.00000000E+00	 1.47993000E-03
					 5.07449000E-03	 0.00000000E+00	 1.30930000E-03
					 5.52884000E-03	 0.00000000E+00	 1.47993000E-03
					 5.07449000E-03	 0.00000000E+00	 1.30930000E-03
					 5.09717000E-03	 0.00000000E+00	 2.73201000E-03
					 5.82131000E-03	 0.00000000E+00	 1.02666000E-03
					 5.09717000E-03	 0.00000000E+00	 2.73201000E-03
					 5.82131000E-03	 0.00000000E+00	 1.02666000E-03
					 0.00000000E+00	 0.00000000E+00	 0.00000000E+00
					 7.58535000E-02	 0.00000000E+00	-4.19352000E-02
					 0.00000000E+00	 0.00000000E+00	 0.00000000E+00
					 7.58535000E-02	 0.00000000E+00	-4.19352000E-02
					 1.41296000E-01	 0.00000000E+00	-1.15449000E-02
					 1.41296000E-01	 0.00000000E+00	-1.15449000E-02
					 1.14967000E-01	 0.00000000E+00	 3.67837000E-02
					 1.14967000E-01	 0.00000000E+00	 3.67837000E-02
					 4.78819000E-02	 0.00000000E+00	-2.85716000E-03
					 4.78819000E-02	 0.00000000E+00	-2.85716000E-03
					 1.66522000E-03	 0.00000000E+00	 6.32696000E-04
					 1.66522000E-03	 0.00000000E+00	 6.32696000E-04
					 1.42287000E-02	 0.00000000E+00	 1.10483000E-04
					 1.42287000E-02	 0.00000000E+00	 1.10483000E-04
					 1.08618000E-02	 0.00000000E+00	-7.59526000E-04
					 1.08618000E-02	 0.00000000E+00	-7.59526000E-04
					 1.12804000E-02	 0.00000000E+00	 7.49482000E-04
					 1.12804000E-02	 0.00000000E+00	 7.49482000E-04
					 1.17354000E-02	 0.00000000E+00	-9.98019000E-05
					 1.17354000E-02	 0.00000000E+00	-9.98019000E-05
					 1.09092000E-02	 0.00000000E+00	 1.47678000E-04
					 1.09092000E-02	 0.00000000E+00	 1.47678000E-04
					 1.02675000E-02	 0.00000000E+00	-6.45823000E-05
					 1.02675000E-02	 0.00000000E+00	-6.45823000E-05
					 1.04540000E-02	 0.00000000E+00	 2.57973000E-04
					 1.04540000E-02	 0.00000000E+00	 2.57973000E-04
					 9.97967000E-03	 0.00000000E+00	 4.48766000E-04
					 9.97967000E-03	 0.00000000E+00	 4.48766000E-04
					 8.75802000E-03	 0.00000000E+00	 2.46868000E-04
					 8.75802000E-03	 0.00000000E+00	 2.46868000E-04
					 8.91190000E-03	 0.00000000E+00	 3.42471000E-04
					 8.91190000E-03	 0.00000000E+00	 3.42471000E-04
					 8.90090000E-03	 0.00000000E+00	 4.36853000E-04
					 8.90090000E-03	 0.00000000E+00	 4.36853000E-04
					 6.93323000E-03	 0.00000000E+00	 1.90715000E-04
					 6.93323000E-03	 0.00000000E+00	 1.90715000E-04
					 5.96716000E-03	 0.00000000E+00	 2.59243000E-04
					 5.96716000E-03	 0.00000000E+00	 2.59243000E-04
					 5.92539000E-03	 0.00000000E+00	 6.07742000E-04
					 5.92539000E-03	 0.00000000E+00	 6.07742000E-04
					 4.83796000E-03	 0.00000000E+00	 3.18289000E-04
					 4.83796000E-03	 0.00000000E+00	 3.18289000E-04
				</DataArray>
			</PointData>
		</Piece>
	</UnstructuredGrid>
</VTKFile>