<?xml version="1.0"?>
<VTKFile type="UnstructuredGrid" version="0.1" byte_order="LittleEndian">
	<UnstructuredGrid>
		<Piece NumberOfPoints="126" NumberOfCells="40">
			<Points>
				<DataArray type="Float64" NumberOfComponents="3" format="ascii">
					 5.00000000E-02	 0.00000000E+00	 0.00000000E+00
					 0.00000000E+00	 0.00000000E+00	 0.00000000E+00
					 0.00000000E+00	 0.00000000E+00	 5.00000000E-02
					 5.00000000E-02	 0.00000000E+00	 5.00000000E-02
					 5.00000000E-02	 3.00000000E-01	 0.00000000E+00
					 0.00000000E+00	 3.00000000E-01	 0.00000000E+00
					 0.00000000E+00	 3.00000000E-01	 5.00000000E-02
					 5.00000000E-02	 3.00000000E-01	 5.00000000E-02
					 0.00000000E+00	 0.00000000E+00	 1.00000000E-01
					 5.00000000E-02	 0.00000000E+00	 1.00000000E-01
					 0.00000000E+00	 3.00000000E-01	 1.00000000E-01
					 5.00000000E-02	 3.00000000E-01	 1.00000000E-01
					 0.00000000E+00	 0.00000000E+00	 1.50000000E-01
					 5.00000000E-02	 0.00000000E+00	 1.50000000E-01
					 0.00000000E+00	 3.00000000E-01	 1.50000000E-01
					 5.00000000E-02	 3.00000000E-01	 1.50000000E-01
					 0.00000000E+00	 0.00000000E+00	 2.00000000E-01
					 5.00000000E-02	 0.00000000E+00	 2.00000000E-01
					 0.00000000E+00	 3.00000000E-01	 2.00000000E-01
					 5.00000000E-02	 3.00000000E-01	 2.00000000E-01
					 0.00000000E+00	 0.00000000E+00	 2.50000000E-01
					 5.00000000E-02	 0.00000000E+00	 2.50000000E-01
					 0.00000000E+00	 3.00000000E-01	 2.50000000E-01
					 5.00000000E-02	 3.00000000E-01	 2.50000000E-01
					 0.00000000E+00	 0.00000000E+00	 3.00000000E-01
					 5.00000000E-02	 0.00000000E+00	 3.00000000E-01
					 0.00000000E+00	 3.00000000E-01	 3.00000000E-01
					 5.00000000E-02	 3.00000000E-01	 3.00000000E-01
					 0.00000000E+00	 0.00000000E+00	 3.50000000E-01
					 5.00000000E-02	 0.00000000E+00	 3.50000000E-01
					 0.00000000E+00	 3.00000000E-01	 3.50000000E-01
					 5.00000000E-02	 3.00000000E-01	 3.50000000E-01
					 0.00000000E+00	 0.00000000E+00	 4.00000000E-01
					 5.00000000E-02	 0.00000000E+00	 4.00000000E-01
					 0.00000000E+00	 3.00000000E-01	 4.00000000E-01
					 5.00000000E-02	 3.00000000E-01	 4.00000000E-01
					 0.00000000E+00	 0.00000000E+00	 4.50000000E-01
					 5.00000000E-02	 0.00000000E+00	 4.50000000E-01
					 0.00000000E+00	 3.00000000E-01	 4.50000000E-01
					 5.00000000E-02	 3.00000000E-01	 4.50000000E-01
					 0.00000000E+00	 0.00000000E+00	 5.00000000E-01
					 5.00000000E-02	 0.00000000E+00	 5.00000000E-01
					 0.00000000E+00	 3.00000000E-01	 5.00000000E-01
					 5.00000000E-02	 3.00000000E-01	 5.00000000E-01
					 0.00000000E+00	 0.00000000E+00	 5.50000000E-01
					 5.00000000E-02	 0.00000000E+00	 5.50000000E-01
					 0.00000000E+00	 3.00000000E-01	 5.50000000E-01
					 5.00000000E-02	 3.00000000E-01	 5.50000000E-01
					 0.00000000E+00	 0.00000000E+00	 6.00000000E-01
					 5.00000000E-02	 0.00000000E+00	 6.00000000E-01
					 0.00000000E+00	 3.00000000E-01	 6.00000000E-01
					 5.00000000E-02	 3.00000000E-01	 6.00000000E-01
					 0.00000000E+00	 0.00000000E+00	 6.50000000E-01
					 5.00000000E-02	 0.00000000E+00	 6.50000000E-01
					 0.00000000E+00	 3.00000000E-01	 6.50000000E-01
					 5.00000000E-02	 3.00000000E-01	 6.50000000E-01
					 0.00000000E+00	 0.00000000E+00	 7.00000000E-01
					 5.00000000E-02	 0.00000000E+00	 7.00000000E-01
					 0.00000000E+00	 3.00000000E-01	 7.00000000E-01
					 5.00000000E-02	 3.00000000E-01	 7.00000000E-01
					 0.00000000E+00	 0.00000000E+00	 7.50000000E-01
					 5.00000000E-02	 0.00000000E+00	 7.50000000E-01
					 0.00000000E+00	 3.00000000E-01	 7.50000000E-01
					 5.00000000E-02	 3.00000000E-01	 7.50000000E-01
					 0.00000000E+00	 0.00000000E+00	 8.00000000E-01
					 5.00000000E-02	 0.00000000E+00	 8.00000000E-01
					 0.00000000E+00	 3.00000000E-01	 8.00000000E-01
					 5.00000000E-02	 3.00000000E-01	 8.00000000E-01
					 0.00000000E+00	 0.00000000E+00	 8.50000000E-01
					 5.00000000E-02	 0.00000000E+00	 8.50000000E-01
					 0.00000000E+00	 3.00000000E-01	 8.50000000E-01
					 5.00000000E-02	 3.00000000E-01	 8.50000000E-01
					 0.00000000E+00	 0.00000000E+00	 9.00000000E-01
					 5.00000000E-02	 0.00000000E+00	 9.00000000E-01
					 0.00000000E+00	 3.00000000E-01	 9.00000000E-01
					 5.00000000E-02	 3.00000000E-01	 9.00000000E-01
					 0.00000000E+00	 0.00000000E+00	 9.50000000E-01
					 5.00000000E-02	 0.00000000E+00	 9.50000000E-01
					 0.00000000E+00	 3.00000000E-01	 9.50000000E-01
					 5.00000000E-02	 3.00000000E-01	 9.50000000E-01
					 0.00000000E+00	 0.00000000E+00	 1.00000000E+00
					 5.00000000E-02	 0.00000000E+00	 1.00000000E+00
					 0.00000000E+00	 3.00000000E-01	 1.00000000E+00
					 5.00000000E-02	 3.00000000E-01	 1.00000000E+00
					-5.00000000E-02	 0.00000000E+00	 0.00000000E+00
					-5.00000000E-02	 0.00000000E+00	 5.00000000E-02
					-5.00000000E-02	 3.00000000E-01	 0.00000000E+00
					-5.00000000E-02	 3.00000000E-01	 5.00000000E-02
					-5.00000000E-02	 0.00000000E+00	 1.00000000E-01
					-5.00000000E-02	 3.00000000E-01	 1.00000000E-01
					-5.00000000E-02	 0.00000000E+00	 1.50000000E-01
					-5.00000000E-02	 3.00000000E-01	 1.50000000E-01
					-5.00000000E-02	 0.00000000E+00	 2.00000000E-01
					-5.00000000E-02	 3.00000000E-01	 2.00000000E-01
					-5.00000000E-02	 0.00000000E+00	 2.50000000E-01
					-5.00000000E-02	 3.00000000E-01	 2.50000000E-01
					-5.00000000E-02	 0.00000000E+00	 3.00000000E-01
					-5.00000000E-02	 3.00000000E-01	 3.00000000E-01
					-5.00000000E-02	 0.00000000E+00	 3.50000000E-01
					-5.00000000E-02	 3.00000000E-01	 3.50000000E-01
					-5.00000000E-02	 0.00000000E+00	 4.00000000E-01
					-5.00000000E-02	 3.00000000E-01	 4.00000000E-01
					-5.00000000E-02	 0.00000000E+00	 4.50000000E-01
					-5.00000000E-02	 3.00000000E-01	 4.50000000E-01
					-5.00000000E-02	 0.00000000E+00	 5.00000000E-01
					-5.00000000E-02	 3.00000000E-01	 5.00000000E-01
					-5.00000000E-02	 0.00000000E+00	 5.50000000E-01
					-5.00000000E-02	 3.00000000E-01	 5.50000000E-01
					-5.00000000E-02	 0.00000000E+00	 6.00000000E-01
					-5.00000000E-02	 3.00000000E-01	 6.00000000E-01
					-5.00000000E-02	 0.00000000E+00	 6.50000000E-01
					-5.00000000E-02	 3.00000000E-01	 6.50000000E-01
					-5.00000000E-02	 0.00000000E+00	 7.00000000E-01
					-5.00000000E-02	 3.00000000E-01	 7.00000000E-01
					-5.00000000E-02	 0.00000000E+00	 7.50000000E-01
					-5.00000000E-02	 3.00000000E-01	 7.50000000E-01
					-5.00000000E-02	 0.00000000E+00	 8.00000000E-01
					-5.00000000E-02	 3.00000000E-01	 8.00000000E-01
					-5.00000000E-02	 0.00000000E+00	 8.50000000E-01
					-5.00000000E-02	 3.00000000E-01	 8.50000000E-01
					-5.00000000E-02	 0.00000000E+00	 9.00000000E-01
					-5.00000000E-02	 3.00000000E-01	 9.00000000E-01
					-5.00000000E-02	 0.00000000E+00	 9.50000000E-01
					-5.00000000E-02	 3.00000000E-01	 9.50000000E-01
					-5.00000000E-02	 0.00000000E+00	 1.00000000E+00
					-5.00000000E-02	 3.00000000E-01	 1.00000000E+00
				</DataArray>
			</Points>
			<Cells>
				<DataArray type="Int32" Name="connectivity" format="ascii">
					0 1 2 3 4 5 6 7 3 2 8 9 7 6 10 11 9 8 12 13 11 10 14 15 13 12 16 17 15 14 18 19 17 16 20 21 19 18 22 23 21 20 24 25 23 22 26 27 25 24 28 29 27 26 30 31 29 28 32 33 31 30 34 35 33 32 36 37 35 34 38 39 37 36 40 41 39 38 42 43 41 40 44 45 43 42 46 47 45 44 48 49 47 46 50 51 49 48 52 53 51 50 54 55 53 52 56 57 55 54 58 59 57 56 60 61 59 58 62 63 61 60 64 65 63 62 66 67 65 64 68 69 67 66 70 71 69 68 72 73 71 70 74 75 73 72 76 77 75 74 78 79 77 76 80 81 79 78 82 83 1 84 85 2 5 86 87 6 2 85 88 8 6 87 89 10 8 88 90 12 10 89 91 14 12 90 92 16 14 91 93 18 16 92 94 20 18 93 95 22 20 94 96 24 22 95 97 26 24 96 98 28 26 97 99 30 28 98 100 32 30 99 101 34 32 100 102 36 34 101 103 38 36 102 104 40 38 103 105 42 40 104 106 44 42 105 107 46 44 106 108 48 46 107 109 50 48 108 110 52 50 109 111 54 52 110 112 56 54 111 113 58 56 112 114 60 58 113 115 62 60 114 116 64 62 115 117 66 64 116 118 68 66 117 119 70 68 118 120 72 70 119 121 74 72 120 122 76 74 121 123 78 76 122 124 80 78 123 125 82 
				</DataArray>
				<DataArray type="Int32" Name="offsets" format="ascii">
					8 16 24 32 40 48 56 64 72 80 88 96 104 112 120 128 136 144 152 160 168 176 184 192 200 208 216 224 232 240 248 256 264 272 280 288 296 304 312 320 
				</DataArray>
				<DataArray type="UInt8" Name="types" format="ascii">
					12 12 12 12 12 12 12 12 12 12 12 12 12 12 12 12 12 12 12 12 12 12 12 12 12 12 12 12 12 12 12 12 12 12 12 12 12 12 12 12 
				</DataArray>
			</Cells>
			<PointData>
				<DataArray type="Float32" Name="U" NumberOfComponents="3" ComponentName0="D1" ComponentName1="D2" ComponentName2="D3" format="ascii">
					 0.00000000E+00	 0.00000000E+00	 0.00000000E+00
					 0.00000000E+00	 0.00000000E+00	 0.00000000E+00
					 9.79080000E-03	 0.00000000E+00	-9.99155000E-03
					-3.59790000E-03	 0.00000000E+00	 1.54141000E-02
					 0.00000000E+00	 0.00000000E+00	 0.00000000E+00
					 0.00000000E+00	 0.00000000E+00	 0.00000000E+00
					 9.79080000E-03	 0.00000000E+00	-9.99155000E-03
					-3.59790000E-03	 0.00000000E+00	 1.54141000E-02
					 5.43239000E-02	 0.00000000E+00	-2.49497000E-02
					-4.40502000E-02	 0.00000000E+00	 2.26727000E-02
					 5.43239000E-02	 0.00000000E+00	-2.49497000E-02
					-4.40502000E-02	 0.00000000E+00	 2.26727000E-02
					 8.49122000E-02	 0.00000000E+00	-1.13322000E-02
					 2.10998000E-02	 0.00000000E+00	-1.84883000E-02
					 8.49122000E-02	 0.00000000E+00	-1.13322000E-02
					 2.10998000E-02	 0.00000000E+00	-1.84883000E-02
					 1.21470000E-01	 0.00000000E+00	-4.20123000E-02
					 4.00372000E-02	 0.00000000E+00	-1.53424000E-02
					 1.21470000E-01	 0.00000000E+00	-4.20123000E-02
					 4.00372000E-02	 0.00000000E+00	-1.53424000E-02
					 1.52244000E-01	 0.00000000E+00	-3.61934000E-02
					 6.01427000E-02	 0.00000000E+00	-3.86967000E-02
					 1.52244000E-01	 0.00000000E+00	-3.61934000E-02
					 6.01427000E-02	 0.00000000E+00	-3.86967000E-02
					 1.57688000E-01	 0.00000000E+00	-2.65181000E-02
					 6.56995000E-02	 0.00000000E+00	-3.50114000E-02
					 1.57688000E-01	 0.00000000E+00	-2.65181000E-02
					 6.56995000E-02	 0.00000000E+00	-3.50114000E-02
					 1.32136000E-01	 0.00000000E+00	-3.18019000E-02
					 4.97048000E-02	 0.00000000E+00	-6.15745000E-02
					 1.32136000E-01	 0.00000000E+00	-3.18019000E-02
					 4.97048000E-02	 0.00000000E+00	-6.15745000E-02
					 1.15892000E-01	 0.00000000E+00	-2.30880000E-02
					 2.69560000E-02	 0.00000000E+00	-6.58242000E-02
					 1.15892000E-01	 0.00000000E+00	-2.30880000E-02
					 2.69560000E-02	 0.00000000E+00	-6.58242000E-02
					 9.35445000E-02	 0.00000000E+00	-3.49350000E-02
					-1.89569000E-03	 0.00000000E+00	-4.43009000E-02
					 9.35445000E-02	 0.00000000E+00	-3.49350000E-02
					-1.89569000E-03	 0.00000000E+00	-4.43009000E-02
					 7.36714000E-02	 0.00000000E+00	-3.84061000E-02
					-2.28933000E-02	 0.00000000E+00	-4.71935000E-02
					 7.36714000E-02	 0.00000000E+00	-3.84061000E-02
					-2.28933000E-02	 0.00000000E+00	-4.71935000E-02
					 9.99177000E-03	 0.00000000E+00	-3.44846000E-02
					-6.22901000E-02	 0.00000000E+00	-5.95845000E-02
					 9.99177000E-03	 0.00000000E+00	-3.44846000E-02
					-6.22901000E-02	 0.00000000E+00	-5.95845000E-02
					 7.32672000E-03	 0.00000000E+00	-2.11885000E-02
					-4.30769000E-02	 0.00000000E+00	-3.02302000E-02
					 7.32672000E-03	 0.00000000E+00	-2.11885000E-02
					-4.30769000E-02	 0.00000000E+00	-3.02302000E-02
					 1.75641000E-02	 0.00000000E+00	-2.84225000E-02
					 1.44385000E-02	 0.00000000E+00	-4.91397000E-02
					 1.75641000E-02	 0.00000000E+00	-2.84225000E-02
					 1.44385000E-02	 0.00000000E+00	-4.91397000E-02
					 3.50056000E-02	 0.00000000E+00	-2.27105000E-02
					 1.59879000E-02	 0.00000000E+00	-3.32151000E-02
					 3.50056000E-02	 0.00000000E+00	-2.27105000E-02
					 1.59879000E-02	 0.00000000E+00	-3.32151000E-02
					 2.85857000E-02	 0.00000000E+00	-1.42214000E-02
					 2.09598000E-02	 0.00000000E+00	-1.23297000E-02
					 2.85857000E-02	 0.00000000E+00	-1.42214000E-02
					 2.09598000E-02	 0.00000000E+00	-1.23297000E-02
					 2.44877000E-02	 0.00000000E+00	-1.15315000E-02
					 3.16872000E-02	 0.00000000E+00	-6.74172000E-03
					 2.44877000E-02	 0.00000000E+00	-1.15315000E-02
					 3.16872000E-02	 0.00000000E+00	-6.74172000E-03
					 2.51019000E-02	 0.00000000E+00	-3.31257000E-03
					 1.85227000E-02	 0.00000000E+00	-1.61876000E-03
					 2.51019000E-02	 0.00000000E+00	-3.31257000E-03
					 1.85227000E-02	 0.00000000E+00	-1.61876000E-03
					 2.27990000E-02	 0.00000000E+00	-1.04234000E-03
					 2.17669000E-02	 0.00000000E+00	-2.79530000E-03
					 2.27990000E-02	 0.00000000E+00	-1.04234000E-03
					 2.17669000E-02	 0.00000000E+00	-2.79530000E-03
					 2.26216000E-02	 0.00000000E+00	-5.08991000E-04
					 2.21706000E-02	 0.00000000E+00	 6.99050000E-04
					 2.26216000E-02	 0.00000000E+00	-5.08991000E-04
					 2.21706000E-02	 0.00000000E+00	 6.99050000E-04
					 1.86725000E-02	 0.00000000E+00	 2.79572000E-03
					 2.30085000E-02	 0.00000000E+00	 5.05010000E-03
					 1.86725000E-02	 0.00000000E+00	 2.79572000E-03
					 2.30085000E-02	 0.00000000E+00	 5.05010000E-03
					 0.00000000E+00	 0.00000000E+00	 0.00000000E+00
					 8.43210000E-02	 0.00000000E+00	-3.01837000E-02
					 0.00000000E+00	 0.00000000E+00	 0.00000000E+00
					 8.43210000E-02	 0.00000000E+00	-3.01837000E-02
					 1.15201000E-01	 0.00000000E+00	-4.08272000E-02
					 1.15201000E-01	 0.00000000E+00	-4.08272000E-02
					 1.68728000E-01	 0.00000000E+00	-5.83517000E-02
					 1.68728000E-01	 0.00000000E+00	-5.83517000E-02
					 1.76482000E-01	 0.00000000E+00	-3.95711000E-02
					 1.76482000E-01	 0.00000000E+00	-3.95711000E-02
					 1.99395000E-01	 0.00000000E+00	-1.98659000E-02
					 1.99395000E-01	 0.00000000E+00	-1.98659000E-02
					 2.50196000E-01	 0.00000000E+00	-3.01674000E-02
					 2.50196000E-01	 0.00000000E+00	-3.01674000E-02
					 2.33212000E-01	 0.00000000E+00	-4.22786000E-03
					 2.33212000E-01	 0.00000000E+00	-4.22786000E-03
					 1.96287000E-01	 0.00000000E+00	-3.52766000E-03
					 1.96287000E-01	 0.00000000E+00	-3.52766000E-03
					 1.85546000E-01	 0.00000000E+00	-3.95786000E-03
					 1.85546000E-01	 0.00000000E+00	-3.95786000E-03
					 1.26632000E-01	 0.00000000E+00	-2.89838000E-02
					 1.26632000E-01	 0.00000000E+00	-2.89838000E-02
					 1.14294000E-01	 0.00000000E+00	-1.90509000E-02
					 1.14294000E-01	 0.00000000E+00	-1.90509000E-02
					 1.00088000E-01	 0.00000000E+00	-2.98227000E-02
					 1.00088000E-01	 0.00000000E+00	-2.98227000E-02
					 1.11795000E-01	 0.00000000E+00	-1.81979000E-02
					 1.11795000E-01	 0.00000000E+00	-1.81979000E-02
					 3.68422000E-02	 0.00000000E+00	-3.50057000E-02
					 3.68422000E-02	 0.00000000E+00	-3.50057000E-02
					 3.25705000E-02	 0.00000000E+00	-1.99072000E-02
					 3.25705000E-02	 0.00000000E+00	-1.99072000E-02
					 2.13721000E-02	 0.00000000E+00	-1.39878000E-02
					 2.13721000E-02	 0.00000000E+00	-1.39878000E-02
					 3.06808000E-02	 0.00000000E+00	-4.43105000E-03
					 3.06808000E-02	 0.00000000E+00	-4.43105000E-03
					 2.57510000E-02	 0.00000000E+00	 3.44084000E-06
					 2.57510000E-02	 0.00000000E+00	 3.44084000E-06
					 2.02278000E-02	 0.00000000E+00	-2.67318000E-03
					 2.02278000E-02	 0.00000000E+00	-2.67318000E-03
					 2.23157000E-02	 0.00000000E+00	 3.48925000E-03
					 2.23157000E-02	 0.00000000E+00	 3.48925000E-03
				</DataArray>
			</PointData>
		</Piece>
	</UnstructuredGrid>
</VTKFile>