<?xml version="1.0"?>
<VTKFile type="UnstructuredGrid" version="0.1" byte_order="LittleEndian">
	<UnstructuredGrid>
		<Piece NumberOfPoints="126" NumberOfCells="40">
			<Points>
				<DataArray type="Float64" NumberOfComponents="3" format="ascii">
					 5.00000000E-02	 0.00000000E+00	 0.00000000E+00
					 0.00000000E+00	 0.00000000E+00	 0.00000000E+00
					 0.00000000E+00	 0.00000000E+00	 5.00000000E-02
					 5.00000000E-02	 0.00000000E+00	 5.00000000E-02
					 5.00000000E-02	 3.00000000E-01	 0.00000000E+00
					 0.00000000E+00	 3.00000000E-01	 0.00000000E+00
					 0.00000000E+00	 3.00000000E-01	 5.00000000E-02
					 5.00000000E-02	 3.00000000E-01	 5.00000000E-02
					 0.00000000E+00	 0.00000000E+00	 1.00000000E-01
					 5.00000000E-02	 0.00000000E+00	 1.00000000E-01
					 0.00000000E+00	 3.00000000E-01	 1.00000000E-01
					 5.00000000E-02	 3.00000000E-01	 1.00000000E-01
					 0.00000000E+00	 0.00000000E+00	 1.50000000E-01
					 5.00000000E-02	 0.00000000E+00	 1.50000000E-01
					 0.00000000E+00	 3.00000000E-01	 1.50000000E-01
					 5.00000000E-02	 3.00000000E-01	 1.50000000E-01
					 0.00000000E+00	 0.00000000E+00	 2.00000000E-01
					 5.00000000E-02	 0.00000000E+00	 2.00000000E-01
					 0.00000000E+00	 3.00000000E-01	 2.00000000E-01
					 5.00000000E-02	 3.00000000E-01	 2.00000000E-01
					 0.00000000E+00	 0.00000000E+00	 2.50000000E-01
					 5.00000000E-02	 0.00000000E+00	 2.50000000E-01
					 0.00000000E+00	 3.00000000E-01	 2.50000000E-01
					 5.00000000E-02	 3.00000000E-01	 2.50000000E-01
					 0.00000000E+00	 0.00000000E+00	 3.00000000E-01
					 5.00000000E-02	 0.00000000E+00	 3.00000000E-01
					 0.00000000E+00	 3.00000000E-01	 3.00000000E-01
					 5.00000000E-02	 3.00000000E-01	 3.00000000E-01
					 0.00000000E+00	 0.00000000E+00	 3.50000000E-01
					 5.00000000E-02	 0.00000000E+00	 3.50000000E-01
					 0.00000000E+00	 3.00000000E-01	 3.50000000E-01
					 5.00000000E-02	 3.00000000E-01	 3.50000000E-01
					 0.00000000E+00	 0.00000000E+00	 4.00000000E-01
					 5.00000000E-02	 0.00000000E+00	 4.00000000E-01
					 0.00000000E+00	 3.00000000E-01	 4.00000000E-01
					 5.00000000E-02	 3.00000000E-01	 4.00000000E-01
					 0.00000000E+00	 0.00000000E+00	 4.50000000E-01
					 5.00000000E-02	 0.00000000E+00	 4.50000000E-01
					 0.00000000E+00	 3.00000000E-01	 4.50000000E-01
					 5.00000000E-02	 3.00000000E-01	 4.50000000E-01
					 0.00000000E+00	 0.00000000E+00	 5.00000000E-01
					 5.00000000E-02	 0.00000000E+00	 5.00000000E-01
					 0.00000000E+00	 3.00000000E-01	 5.00000000E-01
					 5.00000000E-02	 3.00000000E-01	 5.00000000E-01
					 0.00000000E+00	 0.00000000E+00	 5.50000000E-01
					 5.00000000E-02	 0.00000000E+00	 5.50000000E-01
					 0.00000000E+00	 3.00000000E-01	 5.50000000E-01
					 5.00000000E-02	 3.00000000E-01	 5.50000000E-01
					 0.00000000E+00	 0.00000000E+00	 6.00000000E-01
					 5.00000000E-02	 0.00000000E+00	 6.00000000E-01
					 0.00000000E+00	 3.00000000E-01	 6.00000000E-01
					 5.00000000E-02	 3.00000000E-01	 6.00000000E-01
					 0.00000000E+00	 0.00000000E+00	 6.50000000E-01
					 5.00000000E-02	 0.00000000E+00	 6.50000000E-01
					 0.00000000E+00	 3.00000000E-01	 6.50000000E-01
					 5.00000000E-02	 3.00000000E-01	 6.50000000E-01
					 0.00000000E+00	 0.00000000E+00	 7.00000000E-01
					 5.00000000E-02	 0.00000000E+00	 7.00000000E-01
					 0.00000000E+00	 3.00000000E-01	 7.00000000E-01
					 5.00000000E-02	 3.00000000E-01	 7.00000000E-01
					 0.00000000E+00	 0.00000000E+00	 7.50000000E-01
					 5.00000000E-02	 0.00000000E+00	 7.50000000E-01
					 0.00000000E+00	 3.00000000E-01	 7.50000000E-01
					 5.00000000E-02	 3.00000000E-01	 7.50000000E-01
					 0.00000000E+00	 0.00000000E+00	 8.00000000E-01
					 5.00000000E-02	 0.00000000E+00	 8.00000000E-01
					 0.00000000E+00	 3.00000000E-01	 8.00000000E-01
					 5.00000000E-02	 3.00000000E-01	 8.00000000E-01
					 0.00000000E+00	 0.00000000E+00	 8.50000000E-01
					 5.00000000E-02	 0.00000000E+00	 8.50000000E-01
					 0.00000000E+00	 3.00000000E-01	 8.50000000E-01
					 5.00000000E-02	 3.00000000E-01	 8.50000000E-01
					 0.00000000E+00	 0.00000000E+00	 9.00000000E-01
					 5.00000000E-02	 0.00000000E+00	 9.00000000E-01
					 0.00000000E+00	 3.00000000E-01	 9.00000000E-01
					 5.00000000E-02	 3.00000000E-01	 9.00000000E-01
					 0.00000000E+00	 0.00000000E+00	 9.50000000E-01
					 5.00000000E-02	 0.00000000E+00	 9.50000000E-01
					 0.00000000E+00	 3.00000000E-01	 9.50000000E-01
					 5.00000000E-02	 3.00000000E-01	 9.50000000E-01
					 0.00000000E+00	 0.00000000E+00	 1.00000000E+00
					 5.00000000E-02	 0.00000000E+00	 1.00000000E+00
					 0.00000000E+00	 3.00000000E-01	 1.00000000E+00
					 5.00000000E-02	 3.00000000E-01	 1.00000000E+00
					-5.00000000E-02	 0.00000000E+00	 0.00000000E+00
					-5.00000000E-02	 0.00000000E+00	 5.00000000E-02
					-5.00000000E-02	 3.00000000E-01	 0.00000000E+00
					-5.00000000E-02	 3.00000000E-01	 5.00000000E-02
					-5.00000000E-02	 0.00000000E+00	 1.00000000E-01
					-5.00000000E-02	 3.00000000E-01	 1.00000000E-01
					-5.00000000E-02	 0.00000000E+00	 1.50000000E-01
					-5.00000000E-02	 3.00000000E-01	 1.50000000E-01
					-5.00000000E-02	 0.00000000E+00	 2.00000000E-01
					-5.00000000E-02	 3.00000000E-01	 2.00000000E-01
					-5.00000000E-02	 0.00000000E+00	 2.50000000E-01
					-5.00000000E-02	 3.00000000E-01	 2.50000000E-01
					-5.00000000E-02	 0.00000000E+00	 3.00000000E-01
					-5.00000000E-02	 3.00000000E-01	 3.00000000E-01
					-5.00000000E-02	 0.00000000E+00	 3.50000000E-01
					-5.00000000E-02	 3.00000000E-01	 3.50000000E-01
					-5.00000000E-02	 0.00000000E+00	 4.00000000E-01
					-5.00000000E-02	 3.00000000E-01	 4.00000000E-01
					-5.00000000E-02	 0.00000000E+00	 4.50000000E-01
					-5.00000000E-02	 3.00000000E-01	 4.50000000E-01
					-5.00000000E-02	 0.00000000E+00	 5.00000000E-01
					-5.00000000E-02	 3.00000000E-01	 5.00000000E-01
					-5.00000000E-02	 0.00000000E+00	 5.50000000E-01
					-5.00000000E-02	 3.00000000E-01	 5.50000000E-01
					-5.00000000E-02	 0.00000000E+00	 6.00000000E-01
					-5.00000000E-02	 3.00000000E-01	 6.00000000E-01
					-5.00000000E-02	 0.00000000E+00	 6.50000000E-01
					-5.00000000E-02	 3.00000000E-01	 6.50000000E-01
					-5.00000000E-02	 0.00000000E+00	 7.00000000E-01
					-5.00000000E-02	 3.00000000E-01	 7.00000000E-01
					-5.00000000E-02	 0.00000000E+00	 7.50000000E-01
					-5.00000000E-02	 3.00000000E-01	 7.50000000E-01
					-5.00000000E-02	 0.00000000E+00	 8.00000000E-01
					-5.00000000E-02	 3.00000000E-01	 8.00000000E-01
					-5.00000000E-02	 0.00000000E+00	 8.50000000E-01
					-5.00000000E-02	 3.00000000E-01	 8.50000000E-01
					-5.00000000E-02	 0.00000000E+00	 9.00000000E-01
					-5.00000000E-02	 3.00000000E-01	 9.00000000E-01
					-5.00000000E-02	 0.00000000E+00	 9.50000000E-01
					-5.00000000E-02	 3.00000000E-01	 9.50000000E-01
					-5.00000000E-02	 0.00000000E+00	 1.00000000E+00
					-5.00000000E-02	 3.00000000E-01	 1.00000000E+00
				</DataArray>
			</Points>
			<Cells>
				<DataArray type="Int32" Name="connectivity" format="ascii">
					0 1 2 3 4 5 6 7 3 2 8 9 7 6 10 11 9 8 12 13 11 10 14 15 13 12 16 17 15 14 18 19 17 16 20 21 19 18 22 23 21 20 24 25 23 22 26 27 25 24 28 29 27 26 30 31 29 28 32 33 31 30 34 35 33 32 36 37 35 34 38 39 37 36 40 41 39 38 42 43 41 40 44 45 43 42 46 47 45 44 48 49 47 46 50 51 49 48 52 53 51 50 54 55 53 52 56 57 55 54 58 59 57 56 60 61 59 58 62 63 61 60 64 65 63 62 66 67 65 64 68 69 67 66 70 71 69 68 72 73 71 70 74 75 73 72 76 77 75 74 78 79 77 76 80 81 79 78 82 83 1 84 85 2 5 86 87 6 2 85 88 8 6 87 89 10 8 88 90 12 10 89 91 14 12 90 92 16 14 91 93 18 16 92 94 20 18 93 95 22 20 94 96 24 22 95 97 26 24 96 98 28 26 97 99 30 28 98 100 32 30 99 101 34 32 100 102 36 34 101 103 38 36 102 104 40 38 103 105 42 40 104 106 44 42 105 107 46 44 106 108 48 46 107 109 50 48 108 110 52 50 109 111 54 52 110 112 56 54 111 113 58 56 112 114 60 58 113 115 62 60 114 116 64 62 115 117 66 64 116 118 68 66 117 119 70 68 118 120 72 70 119 121 74 72 120 122 76 74 121 123 78 76 122 124 80 78 123 125 82 
				</DataArray>
				<DataArray type="Int32" Name="offsets" format="ascii">
					8 16 24 32 40 48 56 64 72 80 88 96 104 112 120 128 136 144 152 160 168 176 184 192 200 208 216 224 232 240 248 256 264 272 280 288 296 304 312 320 
				</DataArray>
				<DataArray type="UInt8" Name="types" format="ascii">
					12 12 12 12 12 12 12 12 12 12 12 12 12 12 12 12 12 12 12 12 12 12 12 12 12 12 12 12 12 12 12 12 12 12 12 12 12 12 12 12 
				</DataArray>
			</Cells>
			<PointData>
				<DataArray type="Float32" Name="U" NumberOfComponents="3" ComponentName0="D1" ComponentName1="D2" ComponentName2="D3" format="ascii">
					 0.00000000E+00	 0.00000000E+00	 0.00000000E+00
					 0.00000000E+00	 0.00000000E+00	 0.00000000E+00
					-9.22087000E-03	 0.00000000E+00	 1.33534000E-02
					-4.46992000E-02	 0.00000000E+00	-2.34678000E-02
					 0.00000000E+00	 0.00000000E+00	 0.00000000E+00
					 0.00000000E+00	 0.00000000E+00	 0.00000000E+00
					-9.22086000E-03	 0.00000000E+00	 1.33534000E-02
					-4.46992000E-02	 0.00000000E+00	-2.34678000E-02
					 2.55010000E-02	 0.00000000E+00	 6.66821000E-03
					 6.82993000E-03	 0.00000000E+00	-4.69444000E-02
					 2.55010000E-02	 0.00000000E+00	 6.66821000E-03
					 6.82992000E-03	 0.00000000E+00	-4.69444000E-02
					 6.65500000E-02	 0.00000000E+00	-9.30530000E-03
					 5.57661000E-02	 0.00000000E+00	-4.13382000E-02
					 6.65500000E-02	 0.00000000E+00	-9.30529000E-03
					 5.57661000E-02	 0.00000000E+00	-4.13382000E-02
					 1.10734000E-01	 0.00000000E+00	-3.49264000E-02
					 1.00299000E-01	 0.00000000E+00	-5.08580000E-02
					 1.10734000E-01	 0.00000000E+00	-3.49264000E-02
					 1.00299000E-01	 0.00000000E+00	-5.08580000E-02
					 1.37368000E-01	 0.00000000E+00	-2.68879000E-02
					 8.41599000E-02	 0.00000000E+00	-3.65300000E-02
					 1.37368000E-01	 0.00000000E+00	-2.68879000E-02
					 8.41599000E-02	 0.00000000E+00	-3.65300000E-02
					 1.94251000E-01	 0.00000000E+00	-5.48921000E-02
					 1.22200000E-01	 0.00000000E+00	-3.68662000E-02
					 1.94251000E-01	 0.00000000E+00	-5.48921000E-02
					 1.22200000E-01	 0.00000000E+00	-3.68662000E-02
					 1.99931000E-01	 0.00000000E+00	-5.01974000E-02
					 1.09144000E-01	 0.00000000E+00	-6.03758000E-02
					 1.99931000E-01	 0.00000000E+00	-5.01974000E-02
					 1.09144000E-01	 0.00000000E+00	-6.03758000E-02
					 2.03770000E-01	 0.00000000E+00	-4.61497000E-02
					 9.80539000E-02	 0.00000000E+00	-5.88144000E-02
					 2.03770000E-01	 0.00000000E+00	-4.61497000E-02
					 9.80539000E-02	 0.00000000E+00	-5.88144000E-02
					 2.04446000E-01	 0.00000000E+00	-5.24081000E-02
					 1.48705000E-01	 0.00000000E+00	-6.92029000E-02
					 2.04446000E-01	 0.00000000E+00	-5.24081000E-02
					 1.48705000E-01	 0.00000000E+00	-6.92029000E-02
					 2.13860000E-01	 0.00000000E+00	-4.40487000E-02
					 1.35082000E-01	 0.00000000E+00	-5.11301000E-02
					 2.13860000E-01	 0.00000000E+00	-4.40487000E-02
					 1.35082000E-01	 0.00000000E+00	-5.11301000E-02
					 2.01154000E-01	 0.00000000E+00	-2.97428000E-02
					 1.06868000E-01	 0.00000000E+00	-5.19629000E-02
					 2.01154000E-01	 0.00000000E+00	-2.97428000E-02
					 1.06868000E-01	 0.00000000E+00	-5.19629000E-02
					 1.83326000E-01	 0.00000000E+00	-2.70436000E-02
					 8.77122000E-02	 0.00000000E+00	-3.90290000E-02
					 1.83326000E-01	 0.00000000E+00	-2.70436000E-02
					 8.77122000E-02	 0.00000000E+00	-3.90290000E-02
					 1.27090000E-01	 0.00000000E+00	-4.20485000E-02
					 7.48315000E-02	 0.00000000E+00	-9.45497000E-02
					 1.27090000E-01	 0.00000000E+00	-4.20485000E-02
					 7.48315000E-02	 0.00000000E+00	-9.45497000E-02
					 7.70071000E-02	 0.00000000E+00	-1.14290000E-01
					 5.80759000E-02	 0.00000000E+00	-9.83115000E-02
					 7.70071000E-02	 0.00000000E+00	-1.14290000E-01
					 5.80759000E-02	 0.00000000E+00	-9.83115000E-02
					 3.45604000E-02	 0.00000000E+00	-1.16228000E-01
					 2.57619000E-02	 0.00000000E+00	-1.23517000E-01
					 3.45604000E-02	 0.00000000E+00	-1.16228000E-01
					 2.57619000E-02	 0.00000000E+00	-1.23517000E-01
					 1.71676000E-02	 0.00000000E+00	-1.19067000E-01
					 9.86750000E-03	 0.00000000E+00	-1.03743000E-01
					 1.71676000E-02	 0.00000000E+00	-1.19067000E-01
					 9.86750000E-03	 0.00000000E+00	-1.03743000E-01
					-1.96071000E-04	 0.00000000E+00	-1.19739000E-01
					-6.82296000E-03	 0.00000000E+00	-9.73269000E-02
					-1.96071000E-04	 0.00000000E+00	-1.19739000E-01
					-6.82296000E-03	 0.00000000E+00	-9.73269000E-02
					 3.98305000E-02	 0.00000000E+00	-1.43688000E-01
					 3.70652000E-02	 0.00000000E+00	-1.60624000E-01
					 3.98305000E-02	 0.00000000E+00	-1.43688000E-01
					 3.70652000E-02	 0.00000000E+00	-1.60624000E-01
					 5.18390000E-02	 0.00000000E+00	-1.65009000E-01
					 2.44497000E-02	 0.00000000E+00	-1.50567000E-01
					 5.18390000E-02	 0.00000000E+00	-1.65009000E-01
					 2.44497000E-02	 0.00000000E+00	-1.50567000E-01
					 4.65843000E-02	 0.00000000E+00	-1.60911000E-01
					 3.97434000E-02	 0.00000000E+00	-1.52311000E-01
					 4.65843000E-02	 0.00000000E+00	-1.60911000E-01
					 3.97434000E-02	 0.00000000E+00	-1.52311000E-01
					 0.00000000E+00	 0.00000000E+00	 0.00000000E+00
					 7.03036000E-02	 0.00000000E+00	-2.67102000E-02
					 0.00000000E+00	 0.00000000E+00	 0.00000000E+00
					 7.03036000E-02	 0.00000000E+00	-2.67102000E-02
					 1.00935000E-01	 0.00000000E+00	-2.17799000E-02
					 1.00935000E-01	 0.00000000E+00	-2.17799000E-02
					 1.57025000E-01	 0.00000000E+00	-6.46284000E-02
					 1.57025000E-01	 0.00000000E+00	-6.46284000E-02
					 1.87535000E-01	 0.00000000E+00	-5.43224000E-02
					 1.87535000E-01	 0.00000000E+00	-5.43224000E-02
					 2.45353000E-01	 0.00000000E+00	-6.26744000E-02
					 2.45354000E-01	 0.00000000E+00	-6.26744000E-02
					 2.65533000E-01	 0.00000000E+00	-6.83324000E-02
					 2.65533000E-01	 0.00000000E+00	-6.83324000E-02
					 2.93852000E-01	 0.00000000E+00	-7.37279000E-02
					 2.93852000E-01	 0.00000000E+00	-7.37279000E-02
					 2.91753000E-01	 0.00000000E+00	-5.14200000E-02
					 2.91753000E-01	 0.00000000E+00	-5.14200000E-02
					 3.06436000E-01	 0.00000000E+00	-3.12102000E-02
					 3.06436000E-01	 0.00000000E+00	-3.12102000E-02
					 2.85606000E-01	 0.00000000E+00	-3.77427000E-02
					 2.85606000E-01	 0.00000000E+00	-3.77427000E-02
					 3.05645000E-01	 0.00000000E+00	-3.03497000E-02
					 3.05645000E-01	 0.00000000E+00	-3.03497000E-02
					 2.50245000E-01	 0.00000000E+00	-2.94798000E-02
					 2.50245000E-01	 0.00000000E+00	-2.94798000E-02
					 2.08894000E-01	 0.00000000E+00	-7.70178000E-02
					 2.08894000E-01	 0.00000000E+00	-7.70178000E-02
					 1.29346000E-01	 0.00000000E+00	-9.11256000E-02
					 1.29346000E-01	 0.00000000E+00	-9.11256000E-02
					 1.41897000E-01	 0.00000000E+00	-9.27852000E-02
					 1.41897000E-01	 0.00000000E+00	-9.27852000E-02
					 1.13250000E-01	 0.00000000E+00	-8.73644000E-02
					 1.13250000E-01	 0.00000000E+00	-8.73644000E-02
					 1.00088000E-01	 0.00000000E+00	-1.45170000E-01
					 1.00088000E-01	 0.00000000E+00	-1.45170000E-01
					 1.15588000E-01	 0.00000000E+00	-1.83874000E-01
					 1.15588000E-01	 0.00000000E+00	-1.83874000E-01
					 6.58496000E-02	 0.00000000E+00	-1.71936000E-01
					 6.58496000E-02	 0.00000000E+00	-1.71936000E-01
					 5.08214000E-02	 0.00000000E+00	-1.74629000E-01
					 5.08214000E-02	 0.00000000E+00	-1.74629000E-01
				</DataArray>
			</PointData>
		</Piece>
	</UnstructuredGrid>
</VTKFile>