<?xml version="1.0"?>
<VTKFile type="UnstructuredGrid" version="0.1" byte_order="LittleEndian">
	<UnstructuredGrid>
		<Piece NumberOfPoints="126" NumberOfCells="40">
			<Points>
				<DataArray type="Float64" NumberOfComponents="3" format="ascii">
					 5.00000000E-02	 0.00000000E+00	 0.00000000E+00
					 0.00000000E+00	 0.00000000E+00	 0.00000000E+00
					 0.00000000E+00	 0.00000000E+00	 5.00000000E-02
					 5.00000000E-02	 0.00000000E+00	 5.00000000E-02
					 5.00000000E-02	 3.00000000E-01	 0.00000000E+00
					 0.00000000E+00	 3.00000000E-01	 0.00000000E+00
					 0.00000000E+00	 3.00000000E-01	 5.00000000E-02
					 5.00000000E-02	 3.00000000E-01	 5.00000000E-02
					 0.00000000E+00	 0.00000000E+00	 1.00000000E-01
					 5.00000000E-02	 0.00000000E+00	 1.00000000E-01
					 0.00000000E+00	 3.00000000E-01	 1.00000000E-01
					 5.00000000E-02	 3.00000000E-01	 1.00000000E-01
					 0.00000000E+00	 0.00000000E+00	 1.50000000E-01
					 5.00000000E-02	 0.00000000E+00	 1.50000000E-01
					 0.00000000E+00	 3.00000000E-01	 1.50000000E-01
					 5.00000000E-02	 3.00000000E-01	 1.50000000E-01
					 0.00000000E+00	 0.00000000E+00	 2.00000000E-01
					 5.00000000E-02	 0.00000000E+00	 2.00000000E-01
					 0.00000000E+00	 3.00000000E-01	 2.00000000E-01
					 5.00000000E-02	 3.00000000E-01	 2.00000000E-01
					 0.00000000E+00	 0.00000000E+00	 2.50000000E-01
					 5.00000000E-02	 0.00000000E+00	 2.50000000E-01
					 0.00000000E+00	 3.00000000E-01	 2.50000000E-01
					 5.00000000E-02	 3.00000000E-01	 2.50000000E-01
					 0.00000000E+00	 0.00000000E+00	 3.00000000E-01
					 5.00000000E-02	 0.00000000E+00	 3.00000000E-01
					 0.00000000E+00	 3.00000000E-01	 3.00000000E-01
					 5.00000000E-02	 3.00000000E-01	 3.00000000E-01
					 0.00000000E+00	 0.00000000E+00	 3.50000000E-01
					 5.00000000E-02	 0.00000000E+00	 3.50000000E-01
					 0.00000000E+00	 3.00000000E-01	 3.50000000E-01
					 5.00000000E-02	 3.00000000E-01	 3.50000000E-01
					 0.00000000E+00	 0.00000000E+00	 4.00000000E-01
					 5.00000000E-02	 0.00000000E+00	 4.00000000E-01
					 0.00000000E+00	 3.00000000E-01	 4.00000000E-01
					 5.00000000E-02	 3.00000000E-01	 4.00000000E-01
					 0.00000000E+00	 0.00000000E+00	 4.50000000E-01
					 5.00000000E-02	 0.00000000E+00	 4.50000000E-01
					 0.00000000E+00	 3.00000000E-01	 4.50000000E-01
					 5.00000000E-02	 3.00000000E-01	 4.50000000E-01
					 0.00000000E+00	 0.00000000E+00	 5.00000000E-01
					 5.00000000E-02	 0.00000000E+00	 5.00000000E-01
					 0.00000000E+00	 3.00000000E-01	 5.00000000E-01
					 5.00000000E-02	 3.00000000E-01	 5.00000000E-01
					 0.00000000E+00	 0.00000000E+00	 5.50000000E-01
					 5.00000000E-02	 0.00000000E+00	 5.50000000E-01
					 0.00000000E+00	 3.00000000E-01	 5.50000000E-01
					 5.00000000E-02	 3.00000000E-01	 5.50000000E-01
					 0.00000000E+00	 0.00000000E+00	 6.00000000E-01
					 5.00000000E-02	 0.00000000E+00	 6.00000000E-01
					 0.00000000E+00	 3.00000000E-01	 6.00000000E-01
					 5.00000000E-02	 3.00000000E-01	 6.00000000E-01
					 0.00000000E+00	 0.00000000E+00	 6.50000000E-01
					 5.00000000E-02	 0.00000000E+00	 6.50000000E-01
					 0.00000000E+00	 3.00000000E-01	 6.50000000E-01
					 5.00000000E-02	 3.00000000E-01	 6.50000000E-01
					 0.00000000E+00	 0.00000000E+00	 7.00000000E-01
					 5.00000000E-02	 0.00000000E+00	 7.00000000E-01
					 0.00000000E+00	 3.00000000E-01	 7.00000000E-01
					 5.00000000E-02	 3.00000000E-01	 7.00000000E-01
					 0.00000000E+00	 0.00000000E+00	 7.50000000E-01
					 5.00000000E-02	 0.00000000E+00	 7.50000000E-01
					 0.00000000E+00	 3.00000000E-01	 7.50000000E-01
					 5.00000000E-02	 3.00000000E-01	 7.50000000E-01
					 0.00000000E+00	 0.00000000E+00	 8.00000000E-01
					 5.00000000E-02	 0.00000000E+00	 8.00000000E-01
					 0.00000000E+00	 3.00000000E-01	 8.00000000E-01
					 5.00000000E-02	 3.00000000E-01	 8.00000000E-01
					 0.00000000E+00	 0.00000000E+00	 8.50000000E-01
					 5.00000000E-02	 0.00000000E+00	 8.50000000E-01
					 0.00000000E+00	 3.00000000E-01	 8.50000000E-01
					 5.00000000E-02	 3.00000000E-01	 8.50000000E-01
					 0.00000000E+00	 0.00000000E+00	 9.00000000E-01
					 5.00000000E-02	 0.00000000E+00	 9.00000000E-01
					 0.00000000E+00	 3.00000000E-01	 9.00000000E-01
					 5.00000000E-02	 3.00000000E-01	 9.00000000E-01
					 0.00000000E+00	 0.00000000E+00	 9.50000000E-01
					 5.00000000E-02	 0.00000000E+00	 9.50000000E-01
					 0.00000000E+00	 3.00000000E-01	 9.50000000E-01
					 5.00000000E-02	 3.00000000E-01	 9.50000000E-01
					 0.00000000E+00	 0.00000000E+00	 1.00000000E+00
					 5.00000000E-02	 0.00000000E+00	 1.00000000E+00
					 0.00000000E+00	 3.00000000E-01	 1.00000000E+00
					 5.00000000E-02	 3.00000000E-01	 1.00000000E+00
					-5.00000000E-02	 0.00000000E+00	 0.00000000E+00
					-5.00000000E-02	 0.00000000E+00	 5.00000000E-02
					-5.00000000E-02	 3.00000000E-01	 0.00000000E+00
					-5.00000000E-02	 3.00000000E-01	 5.00000000E-02
					-5.00000000E-02	 0.00000000E+00	 1.00000000E-01
					-5.00000000E-02	 3.00000000E-01	 1.00000000E-01
					-5.00000000E-02	 0.00000000E+00	 1.50000000E-01
					-5.00000000E-02	 3.00000000E-01	 1.50000000E-01
					-5.00000000E-02	 0.00000000E+00	 2.00000000E-01
					-5.00000000E-02	 3.00000000E-01	 2.00000000E-01
					-5.00000000E-02	 0.00000000E+00	 2.50000000E-01
					-5.00000000E-02	 3.00000000E-01	 2.50000000E-01
					-5.00000000E-02	 0.00000000E+00	 3.00000000E-01
					-5.00000000E-02	 3.00000000E-01	 3.00000000E-01
					-5.00000000E-02	 0.00000000E+00	 3.50000000E-01
					-5.00000000E-02	 3.00000000E-01	 3.50000000E-01
					-5.00000000E-02	 0.00000000E+00	 4.00000000E-01
					-5.00000000E-02	 3.00000000E-01	 4.00000000E-01
					-5.00000000E-02	 0.00000000E+00	 4.50000000E-01
					-5.00000000E-02	 3.00000000E-01	 4.50000000E-01
					-5.00000000E-02	 0.00000000E+00	 5.00000000E-01
					-5.00000000E-02	 3.00000000E-01	 5.00000000E-01
					-5.00000000E-02	 0.00000000E+00	 5.50000000E-01
					-5.00000000E-02	 3.00000000E-01	 5.50000000E-01
					-5.00000000E-02	 0.00000000E+00	 6.00000000E-01
					-5.00000000E-02	 3.00000000E-01	 6.00000000E-01
					-5.00000000E-02	 0.00000000E+00	 6.50000000E-01
					-5.00000000E-02	 3.00000000E-01	 6.50000000E-01
					-5.00000000E-02	 0.00000000E+00	 7.00000000E-01
					-5.00000000E-02	 3.00000000E-01	 7.00000000E-01
					-5.00000000E-02	 0.00000000E+00	 7.50000000E-01
					-5.00000000E-02	 3.00000000E-01	 7.50000000E-01
					-5.00000000E-02	 0.00000000E+00	 8.00000000E-01
					-5.00000000E-02	 3.00000000E-01	 8.00000000E-01
					-5.00000000E-02	 0.00000000E+00	 8.50000000E-01
					-5.00000000E-02	 3.00000000E-01	 8.50000000E-01
					-5.00000000E-02	 0.00000000E+00	 9.00000000E-01
					-5.00000000E-02	 3.00000000E-01	 9.00000000E-01
					-5.00000000E-02	 0.00000000E+00	 9.50000000E-01
					-5.00000000E-02	 3.00000000E-01	 9.50000000E-01
					-5.00000000E-02	 0.00000000E+00	 1.00000000E+00
					-5.00000000E-02	 3.00000000E-01	 1.00000000E+00
				</DataArray>
			</Points>
			<Cells>
				<DataArray type="Int32" Name="connectivity" format="ascii">
					0 1 2 3 4 5 6 7 3 2 8 9 7 6 10 11 9 8 12 13 11 10 14 15 13 12 16 17 15 14 18 19 17 16 20 21 19 18 22 23 21 20 24 25 23 22 26 27 25 24 28 29 27 26 30 31 29 28 32 33 31 30 34 35 33 32 36 37 35 34 38 39 37 36 40 41 39 38 42 43 41 40 44 45 43 42 46 47 45 44 48 49 47 46 50 51 49 48 52 53 51 50 54 55 53 52 56 57 55 54 58 59 57 56 60 61 59 58 62 63 61 60 64 65 63 62 66 67 65 64 68 69 67 66 70 71 69 68 72 73 71 70 74 75 73 72 76 77 75 74 78 79 77 76 80 81 79 78 82 83 1 84 85 2 5 86 87 6 2 85 88 8 6 87 89 10 8 88 90 12 10 89 91 14 12 90 92 16 14 91 93 18 16 92 94 20 18 93 95 22 20 94 96 24 22 95 97 26 24 96 98 28 26 97 99 30 28 98 100 32 30 99 101 34 32 100 102 36 34 101 103 38 36 102 104 40 38 103 105 42 40 104 106 44 42 105 107 46 44 106 108 48 46 107 109 50 48 108 110 52 50 109 111 54 52 110 112 56 54 111 113 58 56 112 114 60 58 113 115 62 60 114 116 64 62 115 117 66 64 116 118 68 66 117 119 70 68 118 120 72 70 119 121 74 72 120 122 76 74 121 123 78 76 122 124 80 78 123 125 82 
				</DataArray>
				<DataArray type="Int32" Name="offsets" format="ascii">
					8 16 24 32 40 48 56 64 72 80 88 96 104 112 120 128 136 144 152 160 168 176 184 192 200 208 216 224 232 240 248 256 264 272 280 288 296 304 312 320 
				</DataArray>
				<DataArray type="UInt8" Name="types" format="ascii">
					12 12 12 12 12 12 12 12 12 12 12 12 12 12 12 12 12 12 12 12 12 12 12 12 12 12 12 12 12 12 12 12 12 12 12 12 12 12 12 12 
				</DataArray>
			</Cells>
			<PointData>
				<DataArray type="Float32" Name="U" NumberOfComponents="3" ComponentName0="D1" ComponentName1="D2" ComponentName2="D3" format="ascii">
					 0.00000000E+00	 0.00000000E+00	 0.00000000E+00
					 0.00000000E+00	 0.00000000E+00	 0.00000000E+00
					-5.92628000E-03	 0.00000000E+00	 1.31614000E-02
					-1.09153000E-02	 0.00000000E+00	 8.11234000E-03
					 0.00000000E+00	 0.00000000E+00	 0.00000000E+00
					 0.00000000E+00	 0.00000000E+00	 0.00000000E+00
					-5.92628000E-03	 0.00000000E+00	 1.31614000E-02
					-1.09153000E-02	 0.00000000E+00	 8.11234000E-03
					 3.51652000E-02	 0.00000000E+00	 8.65971000E-03
					-1.56459000E-02	 0.00000000E+00	-2.08512000E-02
					 3.51652000E-02	 0.00000000E+00	 8.65971000E-03
					-1.56459000E-02	 0.00000000E+00	-2.08512000E-02
					 8.18553000E-02	 0.00000000E+00	-2.27755000E-02
					 2.10401000E-02	 0.00000000E+00	-3.40534000E-02
					 8.18553000E-02	 0.00000000E+00	-2.27755000E-02
					 2.10401000E-02	 0.00000000E+00	-3.40534000E-02
					 1.36489000E-01	 0.00000000E+00	-3.73882000E-02
					 2.65182000E-02	 0.00000000E+00	-2.36203000E-02
					 1.36489000E-01	 0.00000000E+00	-3.73882000E-02
					 2.65182000E-02	 0.00000000E+00	-2.36203000E-02
					 1.36298000E-01	 0.00000000E+00	-3.48498000E-02
					 7.60567000E-02	 0.00000000E+00	-2.96793000E-02
					 1.36298000E-01	 0.00000000E+00	-3.48498000E-02
					 7.60567000E-02	 0.00000000E+00	-2.96793000E-02
					 1.65403000E-01	 0.00000000E+00	-3.47507000E-02
					 5.39629000E-02	 0.00000000E+00	-3.31383000E-02
					 1.65403000E-01	 0.00000000E+00	-3.47507000E-02
					 5.39629000E-02	 0.00000000E+00	-3.31383000E-02
					 1.61753000E-01	 0.00000000E+00	-2.79698000E-02
					 6.45714000E-02	 0.00000000E+00	-5.48491000E-02
					 1.61753000E-01	 0.00000000E+00	-2.79698000E-02
					 6.45714000E-02	 0.00000000E+00	-5.48491000E-02
					 1.16814000E-01	 0.00000000E+00	-3.90528000E-02
					 2.88426000E-02	 0.00000000E+00	-5.80495000E-02
					 1.16814000E-01	 0.00000000E+00	-3.90528000E-02
					 2.88426000E-02	 0.00000000E+00	-5.80495000E-02
					 1.05234000E-01	 0.00000000E+00	-2.58063000E-02
					 7.18061000E-03	 0.00000000E+00	-6.90898000E-02
					 1.05234000E-01	 0.00000000E+00	-2.58063000E-02
					 7.18061000E-03	 0.00000000E+00	-6.90898000E-02
					 6.10811000E-02	 0.00000000E+00	-3.07318000E-02
					 2.45428000E-02	 0.00000000E+00	-6.21656000E-02
					 6.10811000E-02	 0.00000000E+00	-3.07318000E-02
					 2.45428000E-02	 0.00000000E+00	-6.21656000E-02
					 4.32419000E-02	 0.00000000E+00	-4.50745000E-02
					-3.41589000E-02	 0.00000000E+00	-6.11654000E-02
					 4.32419000E-02	 0.00000000E+00	-4.50745000E-02
					-3.41589000E-02	 0.00000000E+00	-6.11654000E-02
					-2.15696000E-03	 0.00000000E+00	-4.04713000E-02
					-5.76375000E-02	 0.00000000E+00	-5.16944000E-02
					-2.15696000E-03	 0.00000000E+00	-4.04713000E-02
					-5.76375000E-02	 0.00000000E+00	-5.16944000E-02
					 1.64106000E-02	 0.00000000E+00	-1.82658000E-02
					-3.28112000E-03	 0.00000000E+00	-4.57480000E-02
					 1.64106000E-02	 0.00000000E+00	-1.82658000E-02
					-3.28112000E-03	 0.00000000E+00	-4.57480000E-02
					 2.45622000E-02	 0.00000000E+00	-3.27045000E-02
					 3.09831000E-02	 0.00000000E+00	-4.00547000E-02
					 2.45622000E-02	 0.00000000E+00	-3.27045000E-02
					 3.09831000E-02	 0.00000000E+00	-4.00547000E-02
					 3.21838000E-02	 0.00000000E+00	-2.32573000E-02
					 1.52246000E-02	 0.00000000E+00	-3.26970000E-02
					 3.21838000E-02	 0.00000000E+00	-2.32573000E-02
					 1.52246000E-02	 0.00000000E+00	-3.26970000E-02
					 2.80273000E-02	 0.00000000E+00	-1.24536000E-02
					 2.20544000E-02	 0.00000000E+00	-1.36016000E-02
					 2.80273000E-02	 0.00000000E+00	-1.24536000E-02
					 2.20544000E-02	 0.00000000E+00	-1.36016000E-02
					 2.50334000E-02	 0.00000000E+00	-1.19213000E-02
					 2.88249000E-02	 0.00000000E+00	-6.05014000E-03
					 2.50334000E-02	 0.00000000E+00	-1.19213000E-02
					 2.88249000E-02	 0.00000000E+00	-6.05014000E-03
					 2.51589000E-02	 0.00000000E+00	-3.63574000E-03
					 2.06558000E-02	 0.00000000E+00	-1.16172000E-03
					 2.51589000E-02	 0.00000000E+00	-3.63574000E-03
					 2.06558000E-02	 0.00000000E+00	-1.16172000E-03
					 2.28666000E-02	 0.00000000E+00	 1.63256000E-03
					 2.31374000E-02	 0.00000000E+00	-6.15052000E-04
					 2.28666000E-02	 0.00000000E+00	 1.63256000E-03
					 2.31374000E-02	 0.00000000E+00	-6.15052000E-04
					 2.48165000E-02	 0.00000000E+00	-1.62191000E-03
					 1.66886000E-02	 0.00000000E+00	-4.36476000E-04
					 2.48165000E-02	 0.00000000E+00	-1.62191000E-03
					 1.66886000E-02	 0.00000000E+00	-4.36476000E-04
					 0.00000000E+00	 0.00000000E+00	 0.00000000E+00
					 8.25035000E-02	 0.00000000E+00	-4.00176000E-02
					 0.00000000E+00	 0.00000000E+00	 0.00000000E+00
					 8.25035000E-02	 0.00000000E+00	-4.00176000E-02
					 1.33266000E-01	 0.00000000E+00	-3.45348000E-02
					 1.33266000E-01	 0.00000000E+00	-3.45348000E-02
					 1.66756000E-01	 0.00000000E+00	-5.16109000E-02
					 1.66756000E-01	 0.00000000E+00	-5.16109000E-02
					 1.89817000E-01	 0.00000000E+00	-3.34635000E-02
					 1.89817000E-01	 0.00000000E+00	-3.34635000E-02
					 2.02120000E-01	 0.00000000E+00	-2.26561000E-02
					 2.02120000E-01	 0.00000000E+00	-2.26561000E-02
					 2.51002000E-01	 0.00000000E+00	-1.81777000E-02
					 2.51002000E-01	 0.00000000E+00	-1.81777000E-02
					 2.40683000E-01	 0.00000000E+00	-2.36672000E-02
					 2.40683000E-01	 0.00000000E+00	-2.36672000E-02
					 2.21082000E-01	 0.00000000E+00	-8.98500000E-03
					 2.21082000E-01	 0.00000000E+00	-8.98500000E-03
					 1.88538000E-01	 0.00000000E+00	-1.39628000E-03
					 1.88538000E-01	 0.00000000E+00	-1.39628000E-03
					 1.47179000E-01	 0.00000000E+00	-2.07891000E-02
					 1.47179000E-01	 0.00000000E+00	-2.07891000E-02
					 1.20915000E-01	 0.00000000E+00	-2.55503000E-02
					 1.20915000E-01	 0.00000000E+00	-2.55503000E-02
					 9.60447000E-02	 0.00000000E+00	-1.70588000E-02
					 9.60447000E-02	 0.00000000E+00	-1.70588000E-02
					 1.11036000E-01	 0.00000000E+00	-3.13907000E-02
					 1.11036000E-01	 0.00000000E+00	-3.13907000E-02
					 7.96019000E-02	 0.00000000E+00	-2.38649000E-02
					 7.96019000E-02	 0.00000000E+00	-2.38649000E-02
					 3.60976000E-02	 0.00000000E+00	-3.21920000E-02
					 3.60976000E-02	 0.00000000E+00	-3.21920000E-02
					 3.06611000E-02	 0.00000000E+00	-1.99392000E-02
					 3.06611000E-02	 0.00000000E+00	-1.99392000E-02
					 2.35300000E-02	 0.00000000E+00	-1.25131000E-02
					 2.35300000E-02	 0.00000000E+00	-1.25131000E-02
					 3.00667000E-02	 0.00000000E+00	-5.94556000E-03
					 3.00667000E-02	 0.00000000E+00	-5.94556000E-03
					 2.44966000E-02	 0.00000000E+00	 1.56297000E-03
					 2.44966000E-02	 0.00000000E+00	 1.56297000E-03
					 2.14177000E-02	 0.00000000E+00	-4.24991000E-03
					 2.14177000E-02	 0.00000000E+00	-4.24991000E-03
				</DataArray>
			</PointData>
		</Piece>
	</UnstructuredGrid>
</VTKFile>