<?xml version="1.0"?>
<VTKFile type="UnstructuredGrid" version="0.1" byte_order="LittleEndian">
	<UnstructuredGrid>
		<Piece NumberOfPoints="126" NumberOfCells="40">
			<Points>
				<DataArray type="Float64" NumberOfComponents="3" format="ascii">
					 5.00000000E-02	 0.00000000E+00	 0.00000000E+00
					 0.00000000E+00	 0.00000000E+00	 0.00000000E+00
					 0.00000000E+00	 0.00000000E+00	 5.00000000E-02
					 5.00000000E-02	 0.00000000E+00	 5.00000000E-02
					 5.00000000E-02	 3.00000000E-01	 0.00000000E+00
					 0.00000000E+00	 3.00000000E-01	 0.00000000E+00
					 0.00000000E+00	 3.00000000E-01	 5.00000000E-02
					 5.00000000E-02	 3.00000000E-01	 5.00000000E-02
					 0.00000000E+00	 0.00000000E+00	 1.00000000E-01
					 5.00000000E-02	 0.00000000E+00	 1.00000000E-01
					 0.00000000E+00	 3.00000000E-01	 1.00000000E-01
					 5.00000000E-02	 3.00000000E-01	 1.00000000E-01
					 0.00000000E+00	 0.00000000E+00	 1.50000000E-01
					 5.00000000E-02	 0.00000000E+00	 1.50000000E-01
					 0.00000000E+00	 3.00000000E-01	 1.50000000E-01
					 5.00000000E-02	 3.00000000E-01	 1.50000000E-01
					 0.00000000E+00	 0.00000000E+00	 2.00000000E-01
					 5.00000000E-02	 0.00000000E+00	 2.00000000E-01
					 0.00000000E+00	 3.00000000E-01	 2.00000000E-01
					 5.00000000E-02	 3.00000000E-01	 2.00000000E-01
					 0.00000000E+00	 0.00000000E+00	 2.50000000E-01
					 5.00000000E-02	 0.00000000E+00	 2.50000000E-01
					 0.00000000E+00	 3.00000000E-01	 2.50000000E-01
					 5.00000000E-02	 3.00000000E-01	 2.50000000E-01
					 0.00000000E+00	 0.00000000E+00	 3.00000000E-01
					 5.00000000E-02	 0.00000000E+00	 3.00000000E-01
					 0.00000000E+00	 3.00000000E-01	 3.00000000E-01
					 5.00000000E-02	 3.00000000E-01	 3.00000000E-01
					 0.00000000E+00	 0.00000000E+00	 3.50000000E-01
					 5.00000000E-02	 0.00000000E+00	 3.50000000E-01
					 0.00000000E+00	 3.00000000E-01	 3.50000000E-01
					 5.00000000E-02	 3.00000000E-01	 3.50000000E-01
					 0.00000000E+00	 0.00000000E+00	 4.00000000E-01
					 5.00000000E-02	 0.00000000E+00	 4.00000000E-01
					 0.00000000E+00	 3.00000000E-01	 4.00000000E-01
					 5.00000000E-02	 3.00000000E-01	 4.00000000E-01
					 0.00000000E+00	 0.00000000E+00	 4.50000000E-01
					 5.00000000E-02	 0.00000000E+00	 4.50000000E-01
					 0.00000000E+00	 3.00000000E-01	 4.50000000E-01
					 5.00000000E-02	 3.00000000E-01	 4.50000000E-01
					 0.00000000E+00	 0.00000000E+00	 5.00000000E-01
					 5.00000000E-02	 0.00000000E+00	 5.00000000E-01
					 0.00000000E+00	 3.00000000E-01	 5.00000000E-01
					 5.00000000E-02	 3.00000000E-01	 5.00000000E-01
					 0.00000000E+00	 0.00000000E+00	 5.50000000E-01
					 5.00000000E-02	 0.00000000E+00	 5.50000000E-01
					 0.00000000E+00	 3.00000000E-01	 5.50000000E-01
					 5.00000000E-02	 3.00000000E-01	 5.50000000E-01
					 0.00000000E+00	 0.00000000E+00	 6.00000000E-01
					 5.00000000E-02	 0.00000000E+00	 6.00000000E-01
					 0.00000000E+00	 3.00000000E-01	 6.00000000E-01
					 5.00000000E-02	 3.00000000E-01	 6.00000000E-01
					 0.00000000E+00	 0.00000000E+00	 6.50000000E-01
					 5.00000000E-02	 0.00000000E+00	 6.50000000E-01
					 0.00000000E+00	 3.00000000E-01	 6.50000000E-01
					 5.00000000E-02	 3.00000000E-01	 6.50000000E-01
					 0.00000000E+00	 0.00000000E+00	 7.00000000E-01
					 5.00000000E-02	 0.00000000E+00	 7.00000000E-01
					 0.00000000E+00	 3.00000000E-01	 7.00000000E-01
					 5.00000000E-02	 3.00000000E-01	 7.00000000E-01
					 0.00000000E+00	 0.00000000E+00	 7.50000000E-01
					 5.00000000E-02	 0.00000000E+00	 7.50000000E-01
					 0.00000000E+00	 3.00000000E-01	 7.50000000E-01
					 5.00000000E-02	 3.00000000E-01	 7.50000000E-01
					 0.00000000E+00	 0.00000000E+00	 8.00000000E-01
					 5.00000000E-02	 0.00000000E+00	 8.00000000E-01
					 0.00000000E+00	 3.00000000E-01	 8.00000000E-01
					 5.00000000E-02	 3.00000000E-01	 8.00000000E-01
					 0.00000000E+00	 0.00000000E+00	 8.50000000E-01
					 5.00000000E-02	 0.00000000E+00	 8.50000000E-01
					 0.00000000E+00	 3.00000000E-01	 8.50000000E-01
					 5.00000000E-02	 3.00000000E-01	 8.50000000E-01
					 0.00000000E+00	 0.00000000E+00	 9.00000000E-01
					 5.00000000E-02	 0.00000000E+00	 9.00000000E-01
					 0.00000000E+00	 3.00000000E-01	 9.00000000E-01
					 5.00000000E-02	 3.00000000E-01	 9.00000000E-01
					 0.00000000E+00	 0.00000000E+00	 9.50000000E-01
					 5.00000000E-02	 0.00000000E+00	 9.50000000E-01
					 0.00000000E+00	 3.00000000E-01	 9.50000000E-01
					 5.00000000E-02	 3.00000000E-01	 9.50000000E-01
					 0.00000000E+00	 0.00000000E+00	 1.00000000E+00
					 5.00000000E-02	 0.00000000E+00	 1.00000000E+00
					 0.00000000E+00	 3.00000000E-01	 1.00000000E+00
					 5.00000000E-02	 3.00000000E-01	 1.00000000E+00
					-5.00000000E-02	 0.00000000E+00	 0.00000000E+00
					-5.00000000E-02	 0.00000000E+00	 5.00000000E-02
					-5.00000000E-02	 3.00000000E-01	 0.00000000E+00
					-5.00000000E-02	 3.00000000E-01	 5.00000000E-02
					-5.00000000E-02	 0.00000000E+00	 1.00000000E-01
					-5.00000000E-02	 3.00000000E-01	 1.00000000E-01
					-5.00000000E-02	 0.00000000E+00	 1.50000000E-01
					-5.00000000E-02	 3.00000000E-01	 1.50000000E-01
					-5.00000000E-02	 0.00000000E+00	 2.00000000E-01
					-5.00000000E-02	 3.00000000E-01	 2.00000000E-01
					-5.00000000E-02	 0.00000000E+00	 2.50000000E-01
					-5.00000000E-02	 3.00000000E-01	 2.50000000E-01
					-5.00000000E-02	 0.00000000E+00	 3.00000000E-01
					-5.00000000E-02	 3.00000000E-01	 3.00000000E-01
					-5.00000000E-02	 0.00000000E+00	 3.50000000E-01
					-5.00000000E-02	 3.00000000E-01	 3.50000000E-01
					-5.00000000E-02	 0.00000000E+00	 4.00000000E-01
					-5.00000000E-02	 3.00000000E-01	 4.00000000E-01
					-5.00000000E-02	 0.00000000E+00	 4.50000000E-01
					-5.00000000E-02	 3.00000000E-01	 4.50000000E-01
					-5.00000000E-02	 0.00000000E+00	 5.00000000E-01
					-5.00000000E-02	 3.00000000E-01	 5.00000000E-01
					-5.00000000E-02	 0.00000000E+00	 5.50000000E-01
					-5.00000000E-02	 3.00000000E-01	 5.50000000E-01
					-5.00000000E-02	 0.00000000E+00	 6.00000000E-01
					-5.00000000E-02	 3.00000000E-01	 6.00000000E-01
					-5.00000000E-02	 0.00000000E+00	 6.50000000E-01
					-5.00000000E-02	 3.00000000E-01	 6.50000000E-01
					-5.00000000E-02	 0.00000000E+00	 7.00000000E-01
					-5.00000000E-02	 3.00000000E-01	 7.00000000E-01
					-5.00000000E-02	 0.00000000E+00	 7.50000000E-01
					-5.00000000E-02	 3.00000000E-01	 7.50000000E-01
					-5.00000000E-02	 0.00000000E+00	 8.00000000E-01
					-5.00000000E-02	 3.00000000E-01	 8.00000000E-01
					-5.00000000E-02	 0.00000000E+00	 8.50000000E-01
					-5.00000000E-02	 3.00000000E-01	 8.50000000E-01
					-5.00000000E-02	 0.00000000E+00	 9.00000000E-01
					-5.00000000E-02	 3.00000000E-01	 9.00000000E-01
					-5.00000000E-02	 0.00000000E+00	 9.50000000E-01
					-5.00000000E-02	 3.00000000E-01	 9.50000000E-01
					-5.00000000E-02	 0.00000000E+00	 1.00000000E+00
					-5.00000000E-02	 3.00000000E-01	 1.00000000E+00
				</DataArray>
			</Points>
			<Cells>
				<DataArray type="Int32" Name="connectivity" format="ascii">
					0 1 2 3 4 5 6 7 3 2 8 9 7 6 10 11 9 8 12 13 11 10 14 15 13 12 16 17 15 14 18 19 17 16 20 21 19 18 22 23 21 20 24 25 23 22 26 27 25 24 28 29 27 26 30 31 29 28 32 33 31 30 34 35 33 32 36 37 35 34 38 39 37 36 40 41 39 38 42 43 41 40 44 45 43 42 46 47 45 44 48 49 47 46 50 51 49 48 52 53 51 50 54 55 53 52 56 57 55 54 58 59 57 56 60 61 59 58 62 63 61 60 64 65 63 62 66 67 65 64 68 69 67 66 70 71 69 68 72 73 71 70 74 75 73 72 76 77 75 74 78 79 77 76 80 81 79 78 82 83 1 84 85 2 5 86 87 6 2 85 88 8 6 87 89 10 8 88 90 12 10 89 91 14 12 90 92 16 14 91 93 18 16 92 94 20 18 93 95 22 20 94 96 24 22 95 97 26 24 96 98 28 26 97 99 30 28 98 100 32 30 99 101 34 32 100 102 36 34 101 103 38 36 102 104 40 38 103 105 42 40 104 106 44 42 105 107 46 44 106 108 48 46 107 109 50 48 108 110 52 50 109 111 54 52 110 112 56 54 111 113 58 56 112 114 60 58 113 115 62 60 114 116 64 62 115 117 66 64 116 118 68 66 117 119 70 68 118 120 72 70 119 121 74 72 120 122 76 74 121 123 78 76 122 124 80 78 123 125 82 
				</DataArray>
				<DataArray type="Int32" Name="offsets" format="ascii">
					8 16 24 32 40 48 56 64 72 80 88 96 104 112 120 128 136 144 152 160 168 176 184 192 200 208 216 224 232 240 248 256 264 272 280 288 296 304 312 320 
				</DataArray>
				<DataArray type="UInt8" Name="types" format="ascii">
					12 12 12 12 12 12 12 12 12 12 12 12 12 12 12 12 12 12 12 12 12 12 12 12 12 12 12 12 12 12 12 12 12 12 12 12 12 12 12 12 
				</DataArray>
			</Cells>
			<PointData>
				<DataArray type="Float32" Name="U" NumberOfComponents="3" ComponentName0="D1" ComponentName1="D2" ComponentName2="D3" format="ascii">
					 0.00000000E+00	 0.00000000E+00	 0.00000000E+00
					 0.00000000E+00	 0.00000000E+00	 0.00000000E+00
					 1.58955000E-04	 0.00000000E+00	-1.56445000E-04
					 5.53589000E-04	 0.00000000E+00	 1.96556000E-04
					 0.00000000E+00	 0.00000000E+00	 0.00000000E+00
					 0.00000000E+00	 0.00000000E+00	 0.00000000E+00
					 1.58955000E-04	 0.00000000E+00	-1.56445000E-04
					 5.53589000E-04	 0.00000000E+00	 1.96556000E-04
					 3.52897000E-04	 0.00000000E+00	-2.17483000E-04
					 4.02712000E-04	 0.00000000E+00	-1.61627000E-04
					 3.52897000E-04	 0.00000000E+00	-2.17483000E-04
					 4.02712000E-04	 0.00000000E+00	-1.61627000E-04
					 5.01087000E-04	 0.00000000E+00	 3.31659000E-05
					 2.27996000E-04	 0.00000000E+00	 4.63798000E-04
					 5.01087000E-04	 0.00000000E+00	 3.31659000E-05
					 2.27996000E-04	 0.00000000E+00	 4.63798000E-04
					 5.88675000E-04	 0.00000000E+00	-1.31976000E-05
					 4.55240000E-04	 0.00000000E+00	 6.86056000E-04
					 5.88675000E-04	 0.00000000E+00	-1.31976000E-05
					 4.55240000E-04	 0.00000000E+00	 6.86056000E-04
					 6.21817000E-04	 0.00000000E+00	 1.82695000E-04
					 3.01230000E-04	 0.00000000E+00	 3.83416000E-04
					 6.21817000E-04	 0.00000000E+00	 1.82695000E-04
					 3.01230000E-04	 0.00000000E+00	 3.83416000E-04
					 6.11173000E-04	 0.00000000E+00	 5.73245000E-04
					-2.03753000E-04	 0.00000000E+00	 4.07895000E-04
					 6.11173000E-04	 0.00000000E+00	 5.73245000E-04
					-2.03753000E-04	 0.00000000E+00	 4.07895000E-04
					 5.78605000E-04	 0.00000000E+00	 5.35660000E-04
					 6.89827000E-04	 0.00000000E+00	 2.41936000E-04
					 5.78605000E-04	 0.00000000E+00	 5.35660000E-04
					 6.89827000E-04	 0.00000000E+00	 2.41936000E-04
					 5.41333000E-04	 0.00000000E+00	-1.73593000E-05
					 1.03457000E-03	 0.00000000E+00	 7.04403000E-04
					 5.41333000E-04	 0.00000000E+00	-1.73593000E-05
					 1.03457000E-03	 0.00000000E+00	 7.04403000E-04
					 5.04481000E-04	 0.00000000E+00	 2.59893000E-04
					-2.32726000E-04	 0.00000000E+00	 7.31916000E-04
					 5.04481000E-04	 0.00000000E+00	 2.59893000E-04
					-2.32726000E-04	 0.00000000E+00	 7.31916000E-04
					 4.78145000E-04	 0.00000000E+00	 8.60750000E-04
					 3.74688000E-04	 0.00000000E+00	 5.88624000E-04
					 4.78145000E-04	 0.00000000E+00	 8.60750000E-04
					 3.74688000E-04	 0.00000000E+00	 5.88624000E-04
					 4.52548000E-04	 0.00000000E+00	 2.89006000E-04
					 5.71956000E-04	 0.00000000E+00	 7.91356000E-05
					 4.52548000E-04	 0.00000000E+00	 2.89006000E-04
					 5.71956000E-04	 0.00000000E+00	 7.91356000E-05
					 4.29732000E-04	 0.00000000E+00	 4.64401000E-04
					 9.09623000E-05	 0.00000000E+00	 2.00710000E-04
					 4.29732000E-04	 0.00000000E+00	 4.64401000E-04
					 9.09623000E-05	 0.00000000E+00	 2.00710000E-04
					 3.88991000E-04	 0.00000000E+00	 8.98998000E-04
					 2.52212000E-04	 0.00000000E+00	 6.53994000E-04
					 3.88991000E-04	 0.00000000E+00	 8.98998000E-04
					 2.52212000E-04	 0.00000000E+00	 6.53994000E-04
					 3.48894000E-04	 0.00000000E+00	 4.79845000E-04
					 7.50350000E-04	 0.00000000E+00	 6.18395000E-04
					 3.48894000E-04	 0.00000000E+00	 4.79845000E-04
					 7.50350000E-04	 0.00000000E+00	 6.18395000E-04
					 3.00350000E-04	 0.00000000E+00	 7.58738000E-05
					-5.38692000E-04	 0.00000000E+00	 3.90803000E-04
					 3.00350000E-04	 0.00000000E+00	 7.58738000E-05
					-5.38692000E-04	 0.00000000E+00	 3.90803000E-04
					 2.56707000E-04	 0.00000000E+00	 1.03568000E-03
					-3.03627000E-04	 0.00000000E+00	 3.09394000E-04
					 2.56707000E-04	 0.00000000E+00	 1.03568000E-03
					-3.03627000E-04	 0.00000000E+00	 3.09394000E-04
					 2.13711000E-04	 0.00000000E+00	 9.34834000E-04
					 4.98450000E-04	 0.00000000E+00	 3.74553000E-04
					 2.13711000E-04	 0.00000000E+00	 9.34834000E-04
					 4.98450000E-04	 0.00000000E+00	 3.74553000E-04
					 1.64277000E-04	 0.00000000E+00	 4.68768000E-04
					 3.62675000E-04	 0.00000000E+00	 3.42264000E-04
					 1.64277000E-04	 0.00000000E+00	 4.68768000E-04
					 3.62675000E-04	 0.00000000E+00	 3.42264000E-04
					 1.09843000E-04	 0.00000000E+00	 5.75805000E-04
					-9.96100000E-05	 0.00000000E+00	 5.22471000E-04
					 1.09843000E-04	 0.00000000E+00	 5.75805000E-04
					-9.96100000E-05	 0.00000000E+00	 5.22471000E-04
					 5.30859000E-05	 0.00000000E+00	 9.46580000E-04
					 1.65653000E-04	 0.00000000E+00	 4.89036000E-04
					 5.30859000E-05	 0.00000000E+00	 9.46580000E-04
					 1.65653000E-04	 0.00000000E+00	 4.89036000E-04
					 0.00000000E+00	 0.00000000E+00	 0.00000000E+00
					-1.88648000E-04	 0.00000000E+00	 3.89684000E-04
					 0.00000000E+00	 0.00000000E+00	 0.00000000E+00
					-1.88648000E-04	 0.00000000E+00	 3.89684000E-04
					 3.03818000E-04	 0.00000000E+00	 8.62888000E-05
					 3.03818000E-04	 0.00000000E+00	 8.62888000E-05
					 7.64811000E-04	 0.00000000E+00	 6.67782000E-04
					 7.64811000E-04	 0.00000000E+00	 6.67782000E-04
					 7.19642000E-04	 0.00000000E+00	 8.07920000E-04
					 7.19642000E-04	 0.00000000E+00	 8.07920000E-04
					 9.37270000E-04	 0.00000000E+00	 4.19049000E-04
					 9.37270000E-04	 0.00000000E+00	 4.19049000E-04
					 1.42872000E-03	 0.00000000E+00	 3.82438000E-04
					 1.42872000E-03	 0.00000000E+00	 3.82438000E-04
					 4.74605000E-04	 0.00000000E+00	 1.91268000E-04
					 4.74605000E-04	 0.00000000E+00	 1.91268000E-04
					 5.48792000E-05	 0.00000000E+00	 6.41888000E-04
					 5.48792000E-05	 0.00000000E+00	 6.41888000E-04
					 1.25084000E-03	 0.00000000E+00	 6.76858000E-04
					 1.25084000E-03	 0.00000000E+00	 6.76858000E-04
					 5.94951000E-04	 0.00000000E+00	 5.33991000E-04
					 5.94951000E-04	 0.00000000E+00	 5.33991000E-04
					 3.38312000E-04	 0.00000000E+00	 2.64204000E-05
					 3.38312000E-04	 0.00000000E+00	 2.64204000E-05
					 7.74921000E-04	 0.00000000E+00	 1.35248000E-04
					 7.74921000E-04	 0.00000000E+00	 1.35248000E-04
					 5.31224000E-04	 0.00000000E+00	 5.74936000E-04
					 5.31224000E-04	 0.00000000E+00	 5.74936000E-04
					-5.77473000E-05	 0.00000000E+00	 5.33853000E-04
					-5.77473000E-05	 0.00000000E+00	 5.33853000E-04
					 1.15448000E-03	 0.00000000E+00	 3.06949000E-04
					 1.15448000E-03	 0.00000000E+00	 3.06949000E-04
					 8.33593000E-04	 0.00000000E+00	 2.19013000E-04
					 8.33593000E-04	 0.00000000E+00	 2.19013000E-04
					-8.69864000E-05	 0.00000000E+00	 2.72422000E-04
					-8.69864000E-05	 0.00000000E+00	 2.72422000E-04
					-5.27332000E-05	 0.00000000E+00	 2.45149000E-04
					-5.27332000E-05	 0.00000000E+00	 2.45149000E-04
					 3.06520000E-04	 0.00000000E+00	 4.21190000E-04
					 3.06520000E-04	 0.00000000E+00	 4.21190000E-04
					-5.43122000E-05	 0.00000000E+00	 3.97714000E-04
					-5.43122000E-05	 0.00000000E+00	 3.97714000E-04
				</DataArray>
			</PointData>
		</Piece>
	</UnstructuredGrid>
</VTKFile>