<?xml version="1.0"?>
<VTKFile type="UnstructuredGrid" version="0.1" byte_order="LittleEndian">
	<UnstructuredGrid>
		<Piece NumberOfPoints="126" NumberOfCells="40">
			<Points>
				<DataArray type="Float64" NumberOfComponents="3" format="ascii">
					 5.00000000E-02	 0.00000000E+00	 0.00000000E+00
					 0.00000000E+00	 0.00000000E+00	 0.00000000E+00
					 0.00000000E+00	 0.00000000E+00	 5.00000000E-02
					 5.00000000E-02	 0.00000000E+00	 5.00000000E-02
					 5.00000000E-02	 3.00000000E-01	 0.00000000E+00
					 0.00000000E+00	 3.00000000E-01	 0.00000000E+00
					 0.00000000E+00	 3.00000000E-01	 5.00000000E-02
					 5.00000000E-02	 3.00000000E-01	 5.00000000E-02
					 0.00000000E+00	 0.00000000E+00	 1.00000000E-01
					 5.00000000E-02	 0.00000000E+00	 1.00000000E-01
					 0.00000000E+00	 3.00000000E-01	 1.00000000E-01
					 5.00000000E-02	 3.00000000E-01	 1.00000000E-01
					 0.00000000E+00	 0.00000000E+00	 1.50000000E-01
					 5.00000000E-02	 0.00000000E+00	 1.50000000E-01
					 0.00000000E+00	 3.00000000E-01	 1.50000000E-01
					 5.00000000E-02	 3.00000000E-01	 1.50000000E-01
					 0.00000000E+00	 0.00000000E+00	 2.00000000E-01
					 5.00000000E-02	 0.00000000E+00	 2.00000000E-01
					 0.00000000E+00	 3.00000000E-01	 2.00000000E-01
					 5.00000000E-02	 3.00000000E-01	 2.00000000E-01
					 0.00000000E+00	 0.00000000E+00	 2.50000000E-01
					 5.00000000E-02	 0.00000000E+00	 2.50000000E-01
					 0.00000000E+00	 3.00000000E-01	 2.50000000E-01
					 5.00000000E-02	 3.00000000E-01	 2.50000000E-01
					 0.00000000E+00	 0.00000000E+00	 3.00000000E-01
					 5.00000000E-02	 0.00000000E+00	 3.00000000E-01
					 0.00000000E+00	 3.00000000E-01	 3.00000000E-01
					 5.00000000E-02	 3.00000000E-01	 3.00000000E-01
					 0.00000000E+00	 0.00000000E+00	 3.50000000E-01
					 5.00000000E-02	 0.00000000E+00	 3.50000000E-01
					 0.00000000E+00	 3.00000000E-01	 3.50000000E-01
					 5.00000000E-02	 3.00000000E-01	 3.50000000E-01
					 0.00000000E+00	 0.00000000E+00	 4.00000000E-01
					 5.00000000E-02	 0.00000000E+00	 4.00000000E-01
					 0.00000000E+00	 3.00000000E-01	 4.00000000E-01
					 5.00000000E-02	 3.00000000E-01	 4.00000000E-01
					 0.00000000E+00	 0.00000000E+00	 4.50000000E-01
					 5.00000000E-02	 0.00000000E+00	 4.50000000E-01
					 0.00000000E+00	 3.00000000E-01	 4.50000000E-01
					 5.00000000E-02	 3.00000000E-01	 4.50000000E-01
					 0.00000000E+00	 0.00000000E+00	 5.00000000E-01
					 5.00000000E-02	 0.00000000E+00	 5.00000000E-01
					 0.00000000E+00	 3.00000000E-01	 5.00000000E-01
					 5.00000000E-02	 3.00000000E-01	 5.00000000E-01
					 0.00000000E+00	 0.00000000E+00	 5.50000000E-01
					 5.00000000E-02	 0.00000000E+00	 5.50000000E-01
					 0.00000000E+00	 3.00000000E-01	 5.50000000E-01
					 5.00000000E-02	 3.00000000E-01	 5.50000000E-01
					 0.00000000E+00	 0.00000000E+00	 6.00000000E-01
					 5.00000000E-02	 0.00000000E+00	 6.00000000E-01
					 0.00000000E+00	 3.00000000E-01	 6.00000000E-01
					 5.00000000E-02	 3.00000000E-01	 6.00000000E-01
					 0.00000000E+00	 0.00000000E+00	 6.50000000E-01
					 5.00000000E-02	 0.00000000E+00	 6.50000000E-01
					 0.00000000E+00	 3.00000000E-01	 6.50000000E-01
					 5.00000000E-02	 3.00000000E-01	 6.50000000E-01
					 0.00000000E+00	 0.00000000E+00	 7.00000000E-01
					 5.00000000E-02	 0.00000000E+00	 7.00000000E-01
					 0.00000000E+00	 3.00000000E-01	 7.00000000E-01
					 5.00000000E-02	 3.00000000E-01	 7.00000000E-01
					 0.00000000E+00	 0.00000000E+00	 7.50000000E-01
					 5.00000000E-02	 0.00000000E+00	 7.50000000E-01
					 0.00000000E+00	 3.00000000E-01	 7.50000000E-01
					 5.00000000E-02	 3.00000000E-01	 7.50000000E-01
					 0.00000000E+00	 0.00000000E+00	 8.00000000E-01
					 5.00000000E-02	 0.00000000E+00	 8.00000000E-01
					 0.00000000E+00	 3.00000000E-01	 8.00000000E-01
					 5.00000000E-02	 3.00000000E-01	 8.00000000E-01
					 0.00000000E+00	 0.00000000E+00	 8.50000000E-01
					 5.00000000E-02	 0.00000000E+00	 8.50000000E-01
					 0.00000000E+00	 3.00000000E-01	 8.50000000E-01
					 5.00000000E-02	 3.00000000E-01	 8.50000000E-01
					 0.00000000E+00	 0.00000000E+00	 9.00000000E-01
					 5.00000000E-02	 0.00000000E+00	 9.00000000E-01
					 0.00000000E+00	 3.00000000E-01	 9.00000000E-01
					 5.00000000E-02	 3.00000000E-01	 9.00000000E-01
					 0.00000000E+00	 0.00000000E+00	 9.50000000E-01
					 5.00000000E-02	 0.00000000E+00	 9.50000000E-01
					 0.00000000E+00	 3.00000000E-01	 9.50000000E-01
					 5.00000000E-02	 3.00000000E-01	 9.50000000E-01
					 0.00000000E+00	 0.00000000E+00	 1.00000000E+00
					 5.00000000E-02	 0.00000000E+00	 1.00000000E+00
					 0.00000000E+00	 3.00000000E-01	 1.00000000E+00
					 5.00000000E-02	 3.00000000E-01	 1.00000000E+00
					-5.00000000E-02	 0.00000000E+00	 0.00000000E+00
					-5.00000000E-02	 0.00000000E+00	 5.00000000E-02
					-5.00000000E-02	 3.00000000E-01	 0.00000000E+00
					-5.00000000E-02	 3.00000000E-01	 5.00000000E-02
					-5.00000000E-02	 0.00000000E+00	 1.00000000E-01
					-5.00000000E-02	 3.00000000E-01	 1.00000000E-01
					-5.00000000E-02	 0.00000000E+00	 1.50000000E-01
					-5.00000000E-02	 3.00000000E-01	 1.50000000E-01
					-5.00000000E-02	 0.00000000E+00	 2.00000000E-01
					-5.00000000E-02	 3.00000000E-01	 2.00000000E-01
					-5.00000000E-02	 0.00000000E+00	 2.50000000E-01
					-5.00000000E-02	 3.00000000E-01	 2.50000000E-01
					-5.00000000E-02	 0.00000000E+00	 3.00000000E-01
					-5.00000000E-02	 3.00000000E-01	 3.00000000E-01
					-5.00000000E-02	 0.00000000E+00	 3.50000000E-01
					-5.00000000E-02	 3.00000000E-01	 3.50000000E-01
					-5.00000000E-02	 0.00000000E+00	 4.00000000E-01
					-5.00000000E-02	 3.00000000E-01	 4.00000000E-01
					-5.00000000E-02	 0.00000000E+00	 4.50000000E-01
					-5.00000000E-02	 3.00000000E-01	 4.50000000E-01
					-5.00000000E-02	 0.00000000E+00	 5.00000000E-01
					-5.00000000E-02	 3.00000000E-01	 5.00000000E-01
					-5.00000000E-02	 0.00000000E+00	 5.50000000E-01
					-5.00000000E-02	 3.00000000E-01	 5.50000000E-01
					-5.00000000E-02	 0.00000000E+00	 6.00000000E-01
					-5.00000000E-02	 3.00000000E-01	 6.00000000E-01
					-5.00000000E-02	 0.00000000E+00	 6.50000000E-01
					-5.00000000E-02	 3.00000000E-01	 6.50000000E-01
					-5.00000000E-02	 0.00000000E+00	 7.00000000E-01
					-5.00000000E-02	 3.00000000E-01	 7.00000000E-01
					-5.00000000E-02	 0.00000000E+00	 7.50000000E-01
					-5.00000000E-02	 3.00000000E-01	 7.50000000E-01
					-5.00000000E-02	 0.00000000E+00	 8.00000000E-01
					-5.00000000E-02	 3.00000000E-01	 8.00000000E-01
					-5.00000000E-02	 0.00000000E+00	 8.50000000E-01
					-5.00000000E-02	 3.00000000E-01	 8.50000000E-01
					-5.00000000E-02	 0.00000000E+00	 9.00000000E-01
					-5.00000000E-02	 3.00000000E-01	 9.00000000E-01
					-5.00000000E-02	 0.00000000E+00	 9.50000000E-01
					-5.00000000E-02	 3.00000000E-01	 9.50000000E-01
					-5.00000000E-02	 0.00000000E+00	 1.00000000E+00
					-5.00000000E-02	 3.00000000E-01	 1.00000000E+00
				</DataArray>
			</Points>
			<Cells>
				<DataArray type="Int32" Name="connectivity" format="ascii">
					0 1 2 3 4 5 6 7 3 2 8 9 7 6 10 11 9 8 12 13 11 10 14 15 13 12 16 17 15 14 18 19 17 16 20 21 19 18 22 23 21 20 24 25 23 22 26 27 25 24 28 29 27 26 30 31 29 28 32 33 31 30 34 35 33 32 36 37 35 34 38 39 37 36 40 41 39 38 42 43 41 40 44 45 43 42 46 47 45 44 48 49 47 46 50 51 49 48 52 53 51 50 54 55 53 52 56 57 55 54 58 59 57 56 60 61 59 58 62 63 61 60 64 65 63 62 66 67 65 64 68 69 67 66 70 71 69 68 72 73 71 70 74 75 73 72 76 77 75 74 78 79 77 76 80 81 79 78 82 83 1 84 85 2 5 86 87 6 2 85 88 8 6 87 89 10 8 88 90 12 10 89 91 14 12 90 92 16 14 91 93 18 16 92 94 20 18 93 95 22 20 94 96 24 22 95 97 26 24 96 98 28 26 97 99 30 28 98 100 32 30 99 101 34 32 100 102 36 34 101 103 38 36 102 104 40 38 103 105 42 40 104 106 44 42 105 107 46 44 106 108 48 46 107 109 50 48 108 110 52 50 109 111 54 52 110 112 56 54 111 113 58 56 112 114 60 58 113 115 62 60 114 116 64 62 115 117 66 64 116 118 68 66 117 119 70 68 118 120 72 70 119 121 74 72 120 122 76 74 121 123 78 76 122 124 80 78 123 125 82 
				</DataArray>
				<DataArray type="Int32" Name="offsets" format="ascii">
					8 16 24 32 40 48 56 64 72 80 88 96 104 112 120 128 136 144 152 160 168 176 184 192 200 208 216 224 232 240 248 256 264 272 280 288 296 304 312 320 
				</DataArray>
				<DataArray type="UInt8" Name="types" format="ascii">
					12 12 12 12 12 12 12 12 12 12 12 12 12 12 12 12 12 12 12 12 12 12 12 12 12 12 12 12 12 12 12 12 12 12 12 12 12 12 12 12 
				</DataArray>
			</Cells>
			<PointData>
				<DataArray type="Float32" Name="U" NumberOfComponents="3" ComponentName0="D1" ComponentName1="D2" ComponentName2="D3" format="ascii">
					 0.00000000E+00	 0.00000000E+00	 0.00000000E+00
					 0.00000000E+00	 0.00000000E+00	 0.00000000E+00
					 1.07977000E-03	 0.00000000E+00	 8.74335000E-05
					 9.51900000E-04	 0.00000000E+00	-3.16386000E-04
					 0.00000000E+00	 0.00000000E+00	 0.00000000E+00
					 0.00000000E+00	 0.00000000E+00	 0.00000000E+00
					 1.07977000E-03	 0.00000000E+00	 8.74335000E-05
					 9.51900000E-04	 0.00000000E+00	-3.16386000E-04
					 2.29962000E-03	 0.00000000E+00	-1.90788000E-05
					 1.69668000E-03	 0.00000000E+00	-7.03263000E-04
					 2.29962000E-03	 0.00000000E+00	-1.90788000E-05
					 1.69668000E-03	 0.00000000E+00	-7.03263000E-04
					 3.21293000E-03	 0.00000000E+00	-1.07389000E-04
					 2.07004000E-03	 0.00000000E+00	-7.67432000E-04
					 3.21293000E-03	 0.00000000E+00	-1.07389000E-04
					 2.07004000E-03	 0.00000000E+00	-7.67432000E-04
					 3.93290000E-03	 0.00000000E+00	 1.26054000E-04
					 2.60769000E-03	 0.00000000E+00	-4.88576000E-04
					 3.93290000E-03	 0.00000000E+00	 1.26054000E-04
					 2.60769000E-03	 0.00000000E+00	-4.88576000E-04
					 4.43921000E-03	 0.00000000E+00	 1.47837000E-04
					 4.12175000E-03	 0.00000000E+00	-2.41671000E-04
					 4.43921000E-03	 0.00000000E+00	 1.47837000E-04
					 4.12175000E-03	 0.00000000E+00	-2.41671000E-04
					 4.70360000E-03	 0.00000000E+00	-3.14079000E-04
					 4.03414000E-03	 0.00000000E+00	-1.20278000E-04
					 4.70360000E-03	 0.00000000E+00	-3.14079000E-04
					 4.03414000E-03	 0.00000000E+00	-1.20278000E-04
					 4.76553000E-03	 0.00000000E+00	 3.13270000E-04
					 3.89365000E-03	 0.00000000E+00	 1.60830000E-04
					 4.76553000E-03	 0.00000000E+00	 3.13270000E-04
					 3.89365000E-03	 0.00000000E+00	 1.60830000E-04
					 4.69665000E-03	 0.00000000E+00	 1.64727000E-04
					 4.24356000E-03	 0.00000000E+00	 4.80603000E-04
					 4.69665000E-03	 0.00000000E+00	 1.64727000E-04
					 4.24356000E-03	 0.00000000E+00	 4.80603000E-04
					 4.56554000E-03	 0.00000000E+00	-2.06611000E-05
					 3.81230000E-03	 0.00000000E+00	 8.96011000E-04
					 4.56554000E-03	 0.00000000E+00	-2.06611000E-05
					 3.81230000E-03	 0.00000000E+00	 8.96011000E-04
					 4.37014000E-03	 0.00000000E+00	 5.71318000E-04
					 2.91802000E-03	 0.00000000E+00	 7.15935000E-04
					 4.37014000E-03	 0.00000000E+00	 5.71318000E-04
					 2.91802000E-03	 0.00000000E+00	 7.15935000E-04
					 4.12978000E-03	 0.00000000E+00	 1.06157000E-03
					 3.05147000E-03	 0.00000000E+00	 6.81659000E-04
					 4.12978000E-03	 0.00000000E+00	 1.06157000E-03
					 3.05147000E-03	 0.00000000E+00	 6.81659000E-04
					 3.88088000E-03	 0.00000000E+00	 8.09921000E-04
					 3.50918000E-03	 0.00000000E+00	 7.28606000E-04
					 3.88088000E-03	 0.00000000E+00	 8.09921000E-04
					 3.50918000E-03	 0.00000000E+00	 7.28606000E-04
					 3.66377000E-03	 0.00000000E+00	 6.49000000E-04
					 3.22609000E-03	 0.00000000E+00	 7.11190000E-04
					 3.66377000E-03	 0.00000000E+00	 6.49000000E-04
					 3.22609000E-03	 0.00000000E+00	 7.11190000E-04
					 3.45544000E-03	 0.00000000E+00	 9.14977000E-04
					 2.33846000E-03	 0.00000000E+00	 1.26050000E-03
					 3.45544000E-03	 0.00000000E+00	 9.14977000E-04
					 2.33846000E-03	 0.00000000E+00	 1.26050000E-03
					 3.18759000E-03	 0.00000000E+00	 8.07134000E-04
					 2.55642000E-03	 0.00000000E+00	 8.33069000E-04
					 3.18759000E-03	 0.00000000E+00	 8.07134000E-04
					 2.55642000E-03	 0.00000000E+00	 8.33069000E-04
					 2.90558000E-03	 0.00000000E+00	 5.80306000E-04
					 2.21669000E-03	 0.00000000E+00	 1.06501000E-03
					 2.90558000E-03	 0.00000000E+00	 5.80306000E-04
					 2.21669000E-03	 0.00000000E+00	 1.06501000E-03
					 2.59360000E-03	 0.00000000E+00	 7.13474000E-04
					 1.55236000E-03	 0.00000000E+00	 1.34636000E-03
					 2.59360000E-03	 0.00000000E+00	 7.13474000E-04
					 1.55236000E-03	 0.00000000E+00	 1.34636000E-03
					 2.26036000E-03	 0.00000000E+00	 9.28203000E-04
					 1.77920000E-03	 0.00000000E+00	 1.41314000E-03
					 2.26036000E-03	 0.00000000E+00	 9.28203000E-04
					 1.77920000E-03	 0.00000000E+00	 1.41314000E-03
					 1.86642000E-03	 0.00000000E+00	 4.96259000E-04
					 1.70354000E-03	 0.00000000E+00	 1.34586000E-03
					 1.86642000E-03	 0.00000000E+00	 4.96259000E-04
					 1.70354000E-03	 0.00000000E+00	 1.34586000E-03
					 1.49206000E-03	 0.00000000E+00	 4.06505000E-04
					 3.79276000E-04	 0.00000000E+00	 1.74600000E-03
					 1.49206000E-03	 0.00000000E+00	 4.06505000E-04
					 3.79276000E-04	 0.00000000E+00	 1.74600000E-03
					 0.00000000E+00	 0.00000000E+00	 0.00000000E+00
					 1.84346000E-03	 0.00000000E+00	 9.16552000E-04
					 0.00000000E+00	 0.00000000E+00	 0.00000000E+00
					 1.84346000E-03	 0.00000000E+00	 9.16552000E-04
					 3.13465000E-03	 0.00000000E+00	 9.10871000E-04
					 3.13465000E-03	 0.00000000E+00	 9.10871000E-04
					 4.50388000E-03	 0.00000000E+00	 6.61967000E-04
					 4.50388000E-03	 0.00000000E+00	 6.61967000E-04
					 5.37015000E-03	 0.00000000E+00	 6.19928000E-04
					 5.37015000E-03	 0.00000000E+00	 6.19928000E-04
					 4.81614000E-03	 0.00000000E+00	 4.78002000E-04
					 4.81614000E-03	 0.00000000E+00	 4.78002000E-04
					 5.52627000E-03	 0.00000000E+00	 2.62605000E-04
					 5.52627000E-03	 0.00000000E+00	 2.62605000E-04
					 5.74736000E-03	 0.00000000E+00	 2.62774000E-04
					 5.74736000E-03	 0.00000000E+00	 2.62774000E-04
					 5.28418000E-03	 0.00000000E+00	 3.54862000E-04
					 5.28418000E-03	 0.00000000E+00	 3.54862000E-04
					 5.44271000E-03	 0.00000000E+00	 5.94124000E-04
					 5.44271000E-03	 0.00000000E+00	 5.94124000E-04
					 6.03046000E-03	 0.00000000E+00	 3.36642000E-04
					 6.03046000E-03	 0.00000000E+00	 3.36642000E-04
					 5.34901000E-03	 0.00000000E+00	 2.74721000E-04
					 5.34901000E-03	 0.00000000E+00	 2.74721000E-04
					 4.43515000E-03	 0.00000000E+00	 2.88750000E-04
					 4.43515000E-03	 0.00000000E+00	 2.88750000E-04
					 4.25904000E-03	 0.00000000E+00	 2.58985000E-04
					 4.25904000E-03	 0.00000000E+00	 2.58985000E-04
					 4.75462000E-03	 0.00000000E+00	 7.84256000E-04
					 4.75462000E-03	 0.00000000E+00	 7.84256000E-04
					 3.94369000E-03	 0.00000000E+00	 3.23657000E-04
					 3.94369000E-03	 0.00000000E+00	 3.23657000E-04
					 3.71921000E-03	 0.00000000E+00	 5.08799000E-04
					 3.71921000E-03	 0.00000000E+00	 5.08799000E-04
					 3.77722000E-03	 0.00000000E+00	 7.24446000E-04
					 3.77722000E-03	 0.00000000E+00	 7.24446000E-04
					 2.90576000E-03	 0.00000000E+00	 7.53556000E-04
					 2.90576000E-03	 0.00000000E+00	 7.53556000E-04
					 2.14134000E-03	 0.00000000E+00	 6.52304000E-04
					 2.14134000E-03	 0.00000000E+00	 6.52304000E-04
					 2.67012000E-03	 0.00000000E+00	 1.08977000E-03
					 2.67012000E-03	 0.00000000E+00	 1.08977000E-03
				</DataArray>
			</PointData>
		</Piece>
	</UnstructuredGrid>
</VTKFile>