<?xml version="1.0"?>
<VTKFile type="UnstructuredGrid" version="0.1" byte_order="LittleEndian">
	<UnstructuredGrid>
		<Piece NumberOfPoints="126" NumberOfCells="40">
			<Points>
				<DataArray type="Float64" NumberOfComponents="3" format="ascii">
					 5.00000000E-02	 0.00000000E+00	 0.00000000E+00
					 0.00000000E+00	 0.00000000E+00	 0.00000000E+00
					 0.00000000E+00	 0.00000000E+00	 5.00000000E-02
					 5.00000000E-02	 0.00000000E+00	 5.00000000E-02
					 5.00000000E-02	 3.00000000E-01	 0.00000000E+00
					 0.00000000E+00	 3.00000000E-01	 0.00000000E+00
					 0.00000000E+00	 3.00000000E-01	 5.00000000E-02
					 5.00000000E-02	 3.00000000E-01	 5.00000000E-02
					 0.00000000E+00	 0.00000000E+00	 1.00000000E-01
					 5.00000000E-02	 0.00000000E+00	 1.00000000E-01
					 0.00000000E+00	 3.00000000E-01	 1.00000000E-01
					 5.00000000E-02	 3.00000000E-01	 1.00000000E-01
					 0.00000000E+00	 0.00000000E+00	 1.50000000E-01
					 5.00000000E-02	 0.00000000E+00	 1.50000000E-01
					 0.00000000E+00	 3.00000000E-01	 1.50000000E-01
					 5.00000000E-02	 3.00000000E-01	 1.50000000E-01
					 0.00000000E+00	 0.00000000E+00	 2.00000000E-01
					 5.00000000E-02	 0.00000000E+00	 2.00000000E-01
					 0.00000000E+00	 3.00000000E-01	 2.00000000E-01
					 5.00000000E-02	 3.00000000E-01	 2.00000000E-01
					 0.00000000E+00	 0.00000000E+00	 2.50000000E-01
					 5.00000000E-02	 0.00000000E+00	 2.50000000E-01
					 0.00000000E+00	 3.00000000E-01	 2.50000000E-01
					 5.00000000E-02	 3.00000000E-01	 2.50000000E-01
					 0.00000000E+00	 0.00000000E+00	 3.00000000E-01
					 5.00000000E-02	 0.00000000E+00	 3.00000000E-01
					 0.00000000E+00	 3.00000000E-01	 3.00000000E-01
					 5.00000000E-02	 3.00000000E-01	 3.00000000E-01
					 0.00000000E+00	 0.00000000E+00	 3.50000000E-01
					 5.00000000E-02	 0.00000000E+00	 3.50000000E-01
					 0.00000000E+00	 3.00000000E-01	 3.50000000E-01
					 5.00000000E-02	 3.00000000E-01	 3.50000000E-01
					 0.00000000E+00	 0.00000000E+00	 4.00000000E-01
					 5.00000000E-02	 0.00000000E+00	 4.00000000E-01
					 0.00000000E+00	 3.00000000E-01	 4.00000000E-01
					 5.00000000E-02	 3.00000000E-01	 4.00000000E-01
					 0.00000000E+00	 0.00000000E+00	 4.50000000E-01
					 5.00000000E-02	 0.00000000E+00	 4.50000000E-01
					 0.00000000E+00	 3.00000000E-01	 4.50000000E-01
					 5.00000000E-02	 3.00000000E-01	 4.50000000E-01
					 0.00000000E+00	 0.00000000E+00	 5.00000000E-01
					 5.00000000E-02	 0.00000000E+00	 5.00000000E-01
					 0.00000000E+00	 3.00000000E-01	 5.00000000E-01
					 5.00000000E-02	 3.00000000E-01	 5.00000000E-01
					 0.00000000E+00	 0.00000000E+00	 5.50000000E-01
					 5.00000000E-02	 0.00000000E+00	 5.50000000E-01
					 0.00000000E+00	 3.00000000E-01	 5.50000000E-01
					 5.00000000E-02	 3.00000000E-01	 5.50000000E-01
					 0.00000000E+00	 0.00000000E+00	 6.00000000E-01
					 5.00000000E-02	 0.00000000E+00	 6.00000000E-01
					 0.00000000E+00	 3.00000000E-01	 6.00000000E-01
					 5.00000000E-02	 3.00000000E-01	 6.00000000E-01
					 0.00000000E+00	 0.00000000E+00	 6.50000000E-01
					 5.00000000E-02	 0.00000000E+00	 6.50000000E-01
					 0.00000000E+00	 3.00000000E-01	 6.50000000E-01
					 5.00000000E-02	 3.00000000E-01	 6.50000000E-01
					 0.00000000E+00	 0.00000000E+00	 7.00000000E-01
					 5.00000000E-02	 0.00000000E+00	 7.00000000E-01
					 0.00000000E+00	 3.00000000E-01	 7.00000000E-01
					 5.00000000E-02	 3.00000000E-01	 7.00000000E-01
					 0.00000000E+00	 0.00000000E+00	 7.50000000E-01
					 5.00000000E-02	 0.00000000E+00	 7.50000000E-01
					 0.00000000E+00	 3.00000000E-01	 7.50000000E-01
					 5.00000000E-02	 3.00000000E-01	 7.50000000E-01
					 0.00000000E+00	 0.00000000E+00	 8.00000000E-01
					 5.00000000E-02	 0.00000000E+00	 8.00000000E-01
					 0.00000000E+00	 3.00000000E-01	 8.00000000E-01
					 5.00000000E-02	 3.00000000E-01	 8.00000000E-01
					 0.00000000E+00	 0.00000000E+00	 8.50000000E-01
					 5.00000000E-02	 0.00000000E+00	 8.50000000E-01
					 0.00000000E+00	 3.00000000E-01	 8.50000000E-01
					 5.00000000E-02	 3.00000000E-01	 8.50000000E-01
					 0.00000000E+00	 0.00000000E+00	 9.00000000E-01
					 5.00000000E-02	 0.00000000E+00	 9.00000000E-01
					 0.00000000E+00	 3.00000000E-01	 9.00000000E-01
					 5.00000000E-02	 3.00000000E-01	 9.00000000E-01
					 0.00000000E+00	 0.00000000E+00	 9.50000000E-01
					 5.00000000E-02	 0.00000000E+00	 9.50000000E-01
					 0.00000000E+00	 3.00000000E-01	 9.50000000E-01
					 5.00000000E-02	 3.00000000E-01	 9.50000000E-01
					 0.00000000E+00	 0.00000000E+00	 1.00000000E+00
					 5.00000000E-02	 0.00000000E+00	 1.00000000E+00
					 0.00000000E+00	 3.00000000E-01	 1.00000000E+00
					 5.00000000E-02	 3.00000000E-01	 1.00000000E+00
					-5.00000000E-02	 0.00000000E+00	 0.00000000E+00
					-5.00000000E-02	 0.00000000E+00	 5.00000000E-02
					-5.00000000E-02	 3.00000000E-01	 0.00000000E+00
					-5.00000000E-02	 3.00000000E-01	 5.00000000E-02
					-5.00000000E-02	 0.00000000E+00	 1.00000000E-01
					-5.00000000E-02	 3.00000000E-01	 1.00000000E-01
					-5.00000000E-02	 0.00000000E+00	 1.50000000E-01
					-5.00000000E-02	 3.00000000E-01	 1.50000000E-01
					-5.00000000E-02	 0.00000000E+00	 2.00000000E-01
					-5.00000000E-02	 3.00000000E-01	 2.00000000E-01
					-5.00000000E-02	 0.00000000E+00	 2.50000000E-01
					-5.00000000E-02	 3.00000000E-01	 2.50000000E-01
					-5.00000000E-02	 0.00000000E+00	 3.00000000E-01
					-5.00000000E-02	 3.00000000E-01	 3.00000000E-01
					-5.00000000E-02	 0.00000000E+00	 3.50000000E-01
					-5.00000000E-02	 3.00000000E-01	 3.50000000E-01
					-5.00000000E-02	 0.00000000E+00	 4.00000000E-01
					-5.00000000E-02	 3.00000000E-01	 4.00000000E-01
					-5.00000000E-02	 0.00000000E+00	 4.50000000E-01
					-5.00000000E-02	 3.00000000E-01	 4.50000000E-01
					-5.00000000E-02	 0.00000000E+00	 5.00000000E-01
					-5.00000000E-02	 3.00000000E-01	 5.00000000E-01
					-5.00000000E-02	 0.00000000E+00	 5.50000000E-01
					-5.00000000E-02	 3.00000000E-01	 5.50000000E-01
					-5.00000000E-02	 0.00000000E+00	 6.00000000E-01
					-5.00000000E-02	 3.00000000E-01	 6.00000000E-01
					-5.00000000E-02	 0.00000000E+00	 6.50000000E-01
					-5.00000000E-02	 3.00000000E-01	 6.50000000E-01
					-5.00000000E-02	 0.00000000E+00	 7.00000000E-01
					-5.00000000E-02	 3.00000000E-01	 7.00000000E-01
					-5.00000000E-02	 0.00000000E+00	 7.50000000E-01
					-5.00000000E-02	 3.00000000E-01	 7.50000000E-01
					-5.00000000E-02	 0.00000000E+00	 8.00000000E-01
					-5.00000000E-02	 3.00000000E-01	 8.00000000E-01
					-5.00000000E-02	 0.00000000E+00	 8.50000000E-01
					-5.00000000E-02	 3.00000000E-01	 8.50000000E-01
					-5.00000000E-02	 0.00000000E+00	 9.00000000E-01
					-5.00000000E-02	 3.00000000E-01	 9.00000000E-01
					-5.00000000E-02	 0.00000000E+00	 9.50000000E-01
					-5.00000000E-02	 3.00000000E-01	 9.50000000E-01
					-5.00000000E-02	 0.00000000E+00	 1.00000000E+00
					-5.00000000E-02	 3.00000000E-01	 1.00000000E+00
				</DataArray>
			</Points>
			<Cells>
				<DataArray type="Int32" Name="connectivity" format="ascii">
					0 1 2 3 4 5 6 7 3 2 8 9 7 6 10 11 9 8 12 13 11 10 14 15 13 12 16 17 15 14 18 19 17 16 20 21 19 18 22 23 21 20 24 25 23 22 26 27 25 24 28 29 27 26 30 31 29 28 32 33 31 30 34 35 33 32 36 37 35 34 38 39 37 36 40 41 39 38 42 43 41 40 44 45 43 42 46 47 45 44 48 49 47 46 50 51 49 48 52 53 51 50 54 55 53 52 56 57 55 54 58 59 57 56 60 61 59 58 62 63 61 60 64 65 63 62 66 67 65 64 68 69 67 66 70 71 69 68 72 73 71 70 74 75 73 72 76 77 75 74 78 79 77 76 80 81 79 78 82 83 1 84 85 2 5 86 87 6 2 85 88 8 6 87 89 10 8 88 90 12 10 89 91 14 12 90 92 16 14 91 93 18 16 92 94 20 18 93 95 22 20 94 96 24 22 95 97 26 24 96 98 28 26 97 99 30 28 98 100 32 30 99 101 34 32 100 102 36 34 101 103 38 36 102 104 40 38 103 105 42 40 104 106 44 42 105 107 46 44 106 108 48 46 107 109 50 48 108 110 52 50 109 111 54 52 110 112 56 54 111 113 58 56 112 114 60 58 113 115 62 60 114 116 64 62 115 117 66 64 116 118 68 66 117 119 70 68 118 120 72 70 119 121 74 72 120 122 76 74 121 123 78 76 122 124 80 78 123 125 82 
				</DataArray>
				<DataArray type="Int32" Name="offsets" format="ascii">
					8 16 24 32 40 48 56 64 72 80 88 96 104 112 120 128 136 144 152 160 168 176 184 192 200 208 216 224 232 240 248 256 264 272 280 288 296 304 312 320 
				</DataArray>
				<DataArray type="UInt8" Name="types" format="ascii">
					12 12 12 12 12 12 12 12 12 12 12 12 12 12 12 12 12 12 12 12 12 12 12 12 12 12 12 12 12 12 12 12 12 12 12 12 12 12 12 12 
				</DataArray>
			</Cells>
			<PointData>
				<DataArray type="Float32" Name="U" NumberOfComponents="3" ComponentName0="D1" ComponentName1="D2" ComponentName2="D3" format="ascii">
					 0.00000000E+00	 0.00000000E+00	 0.00000000E+00
					 0.00000000E+00	 0.00000000E+00	 0.00000000E+00
					 2.16475000E-04	 0.00000000E+00	 3.52973000E-04
					 3.45031000E-05	 0.00000000E+00	 3.84624000E-04
					 0.00000000E+00	 0.00000000E+00	 0.00000000E+00
					 0.00000000E+00	 0.00000000E+00	 0.00000000E+00
					 2.16475000E-04	 0.00000000E+00	 3.52973000E-04
					 3.45031000E-05	 0.00000000E+00	 3.84624000E-04
					 5.13709000E-04	 0.00000000E+00	-2.62177000E-04
					-3.86346000E-04	 0.00000000E+00	 8.64721000E-04
					 5.13709000E-04	 0.00000000E+00	-2.62177000E-04
					-3.86346000E-04	 0.00000000E+00	 8.64721000E-04
					 7.46451000E-04	 0.00000000E+00	 3.53864000E-06
					-2.37153000E-04	 0.00000000E+00	 5.17167000E-04
					 7.46451000E-04	 0.00000000E+00	 3.53864000E-06
					-2.37153000E-04	 0.00000000E+00	 5.17167000E-04
					 9.10853000E-04	 0.00000000E+00	 5.29116000E-04
					-2.32611000E-04	 0.00000000E+00	 6.87846000E-04
					 9.10853000E-04	 0.00000000E+00	 5.29116000E-04
					-2.32611000E-04	 0.00000000E+00	 6.87846000E-04
					 9.98011000E-04	 0.00000000E+00	 2.47065000E-04
					-1.15202000E-05	 0.00000000E+00	 2.30415000E-04
					 9.98011000E-04	 0.00000000E+00	 2.47065000E-04
					-1.15202000E-05	 0.00000000E+00	 2.30415000E-04
					 1.02041000E-03	 0.00000000E+00	 3.35467000E-04
					-2.81964000E-04	 0.00000000E+00	 3.12352000E-04
					 1.02041000E-03	 0.00000000E+00	 3.35467000E-04
					-2.81964000E-04	 0.00000000E+00	 3.12352000E-04
					 9.87008000E-04	 0.00000000E+00	 4.88435000E-04
					 8.66200000E-05	 0.00000000E+00	 6.58932000E-04
					 9.87008000E-04	 0.00000000E+00	 4.88435000E-04
					 8.66200000E-05	 0.00000000E+00	 6.58932000E-04
					 9.28878000E-04	 0.00000000E+00	 1.34364000E-04
					 2.84061000E-04	 0.00000000E+00	 6.20208000E-04
					 9.28878000E-04	 0.00000000E+00	 1.34364000E-04
					 2.84061000E-04	 0.00000000E+00	 6.20208000E-04
					 8.62014000E-04	 0.00000000E+00	 3.42767000E-04
					-2.28203000E-04	 0.00000000E+00	 8.44702000E-04
					 8.62014000E-04	 0.00000000E+00	 3.42767000E-04
					-2.28203000E-04	 0.00000000E+00	 8.44702000E-04
					 8.12240000E-04	 0.00000000E+00	 5.50579000E-04
					-3.71938000E-04	 0.00000000E+00	 4.80726000E-04
					 8.12240000E-04	 0.00000000E+00	 5.50579000E-04
					-3.71938000E-04	 0.00000000E+00	 4.80726000E-04
					 7.62199000E-04	 0.00000000E+00	 5.53774000E-04
					-2.90394000E-04	 0.00000000E+00	 3.19076000E-04
					 7.62199000E-04	 0.00000000E+00	 5.53774000E-04
					-2.90394000E-04	 0.00000000E+00	 3.19076000E-04
					 7.24896000E-04	 0.00000000E+00	 5.87769000E-04
					-2.45994000E-04	 0.00000000E+00	 1.77435000E-04
					 7.24896000E-04	 0.00000000E+00	 5.87769000E-04
					-2.45994000E-04	 0.00000000E+00	 1.77435000E-04
					 6.73285000E-04	 0.00000000E+00	 7.58861000E-04
					-2.02684000E-04	 0.00000000E+00	 6.32691000E-04
					 6.73285000E-04	 0.00000000E+00	 7.58861000E-04
					-2.02684000E-04	 0.00000000E+00	 6.32691000E-04
					 6.26407000E-04	 0.00000000E+00	 4.77796000E-04
					-7.54610000E-05	 0.00000000E+00	 4.64920000E-04
					 6.26407000E-04	 0.00000000E+00	 4.77796000E-04
					-7.54610000E-05	 0.00000000E+00	 4.64920000E-04
					 5.51137000E-04	 0.00000000E+00	 4.77801000E-04
					-8.12699000E-04	 0.00000000E+00	 6.77176000E-04
					 5.51137000E-04	 0.00000000E+00	 4.77801000E-04
					-8.12699000E-04	 0.00000000E+00	 6.77176000E-04
					 4.66090000E-04	 0.00000000E+00	 7.84000000E-04
					-6.82137000E-04	 0.00000000E+00	 4.03067000E-04
					 4.66090000E-04	 0.00000000E+00	 7.84000000E-04
					-6.82137000E-04	 0.00000000E+00	 4.03067000E-04
					 3.97786000E-04	 0.00000000E+00	 8.38484000E-04
					-4.85929000E-04	 0.00000000E+00	 4.22261000E-04
					 3.97786000E-04	 0.00000000E+00	 8.38484000E-04
					-4.85929000E-04	 0.00000000E+00	 4.22261000E-04
					 3.22537000E-04	 0.00000000E+00	 6.95682000E-04
					-4.71163000E-04	 0.00000000E+00	 8.73137000E-05
					 3.22537000E-04	 0.00000000E+00	 6.95682000E-04
					-4.71163000E-04	 0.00000000E+00	 8.73137000E-05
					 2.43405000E-04	 0.00000000E+00	 8.63670000E-04
					-3.94822000E-04	 0.00000000E+00	 4.52327000E-04
					 2.43405000E-04	 0.00000000E+00	 8.63670000E-04
					-3.94822000E-04	 0.00000000E+00	 4.52327000E-04
					 1.64407000E-04	 0.00000000E+00	 8.92027000E-04
					-1.32686000E-04	 0.00000000E+00	 5.40920000E-04
					 1.64407000E-04	 0.00000000E+00	 8.92027000E-04
					-1.32686000E-04	 0.00000000E+00	 5.40920000E-04
					 0.00000000E+00	 0.00000000E+00	 0.00000000E+00
					 5.01649000E-04	 0.00000000E+00	 6.77090000E-04
					 0.00000000E+00	 0.00000000E+00	 0.00000000E+00
					 5.01649000E-04	 0.00000000E+00	 6.77090000E-04
					 1.46359000E-03	 0.00000000E+00	 1.25172000E-03
					 1.46359000E-03	 0.00000000E+00	 1.25172000E-03
					 1.76736000E-03	 0.00000000E+00	 8.58814000E-04
					 1.76736000E-03	 0.00000000E+00	 8.58814000E-04
					 2.07461000E-03	 0.00000000E+00	 9.13891000E-04
					 2.07461000E-03	 0.00000000E+00	 9.13891000E-04
					 2.02537000E-03	 0.00000000E+00	 3.39491000E-04
					 2.02537000E-03	 0.00000000E+00	 3.39491000E-04
					 2.34194000E-03	 0.00000000E+00	 3.30130000E-04
					 2.34194000E-03	 0.00000000E+00	 3.30130000E-04
					 1.92226000E-03	 0.00000000E+00	 6.02420000E-04
					 1.92226000E-03	 0.00000000E+00	 6.02420000E-04
					 1.60742000E-03	 0.00000000E+00	 5.25538000E-04
					 1.60742000E-03	 0.00000000E+00	 5.25538000E-04
					 1.99582000E-03	 0.00000000E+00	 7.34955000E-04
					 1.99582000E-03	 0.00000000E+00	 7.34955000E-04
					 2.04372000E-03	 0.00000000E+00	 3.87031000E-04
					 2.04372000E-03	 0.00000000E+00	 3.87031000E-04
					 1.85557000E-03	 0.00000000E+00	 2.27788000E-04
					 1.85557000E-03	 0.00000000E+00	 2.27788000E-04
					 1.73709000E-03	 0.00000000E+00	 9.30289000E-05
					 1.73709000E-03	 0.00000000E+00	 9.30289000E-05
					 1.59750000E-03	 0.00000000E+00	 5.23857000E-04
					 1.59750000E-03	 0.00000000E+00	 5.23857000E-04
					 1.36220000E-03	 0.00000000E+00	 3.43140000E-04
					 1.36220000E-03	 0.00000000E+00	 3.43140000E-04
					 1.93826000E-03	 0.00000000E+00	 5.45027000E-04
					 1.93826000E-03	 0.00000000E+00	 5.45027000E-04
					 1.68059000E-03	 0.00000000E+00	 2.65668000E-04
					 1.68059000E-03	 0.00000000E+00	 2.65668000E-04
					 1.33859000E-03	 0.00000000E+00	 2.78434000E-04
					 1.33859000E-03	 0.00000000E+00	 2.78434000E-04
					 1.16549000E-03	 0.00000000E+00	-7.02299000E-05
					 1.16549000E-03	 0.00000000E+00	-7.02299000E-05
					 9.02722000E-04	 0.00000000E+00	 2.93466000E-04
					 9.02722000E-04	 0.00000000E+00	 2.93466000E-04
					 4.71459000E-04	 0.00000000E+00	 3.87318000E-04
					 4.71459000E-04	 0.00000000E+00	 3.87318000E-04
				</DataArray>
			</PointData>
		</Piece>
	</UnstructuredGrid>
</VTKFile>