<?xml version="1.0"?>
<VTKFile type="UnstructuredGrid" version="0.1" byte_order="LittleEndian">
	<UnstructuredGrid>
		<Piece NumberOfPoints="126" NumberOfCells="40">
			<Points>
				<DataArray type="Float64" NumberOfComponents="3" format="ascii">
					 5.00000000E-02	 0.00000000E+00	 0.00000000E+00
					 0.00000000E+00	 0.00000000E+00	 0.00000000E+00
					 0.00000000E+00	 0.00000000E+00	 5.00000000E-02
					 5.00000000E-02	 0.00000000E+00	 5.00000000E-02
					 5.00000000E-02	 3.00000000E-01	 0.00000000E+00
					 0.00000000E+00	 3.00000000E-01	 0.00000000E+00
					 0.00000000E+00	 3.00000000E-01	 5.00000000E-02
					 5.00000000E-02	 3.00000000E-01	 5.00000000E-02
					 0.00000000E+00	 0.00000000E+00	 1.00000000E-01
					 5.00000000E-02	 0.00000000E+00	 1.00000000E-01
					 0.00000000E+00	 3.00000000E-01	 1.00000000E-01
					 5.00000000E-02	 3.00000000E-01	 1.00000000E-01
					 0.00000000E+00	 0.00000000E+00	 1.50000000E-01
					 5.00000000E-02	 0.00000000E+00	 1.50000000E-01
					 0.00000000E+00	 3.00000000E-01	 1.50000000E-01
					 5.00000000E-02	 3.00000000E-01	 1.50000000E-01
					 0.00000000E+00	 0.00000000E+00	 2.00000000E-01
					 5.00000000E-02	 0.00000000E+00	 2.00000000E-01
					 0.00000000E+00	 3.00000000E-01	 2.00000000E-01
					 5.00000000E-02	 3.00000000E-01	 2.00000000E-01
					 0.00000000E+00	 0.00000000E+00	 2.50000000E-01
					 5.00000000E-02	 0.00000000E+00	 2.50000000E-01
					 0.00000000E+00	 3.00000000E-01	 2.50000000E-01
					 5.00000000E-02	 3.00000000E-01	 2.50000000E-01
					 0.00000000E+00	 0.00000000E+00	 3.00000000E-01
					 5.00000000E-02	 0.00000000E+00	 3.00000000E-01
					 0.00000000E+00	 3.00000000E-01	 3.00000000E-01
					 5.00000000E-02	 3.00000000E-01	 3.00000000E-01
					 0.00000000E+00	 0.00000000E+00	 3.50000000E-01
					 5.00000000E-02	 0.00000000E+00	 3.50000000E-01
					 0.00000000E+00	 3.00000000E-01	 3.50000000E-01
					 5.00000000E-02	 3.00000000E-01	 3.50000000E-01
					 0.00000000E+00	 0.00000000E+00	 4.00000000E-01
					 5.00000000E-02	 0.00000000E+00	 4.00000000E-01
					 0.00000000E+00	 3.00000000E-01	 4.00000000E-01
					 5.00000000E-02	 3.00000000E-01	 4.00000000E-01
					 0.00000000E+00	 0.00000000E+00	 4.50000000E-01
					 5.00000000E-02	 0.00000000E+00	 4.50000000E-01
					 0.00000000E+00	 3.00000000E-01	 4.50000000E-01
					 5.00000000E-02	 3.00000000E-01	 4.50000000E-01
					 0.00000000E+00	 0.00000000E+00	 5.00000000E-01
					 5.00000000E-02	 0.00000000E+00	 5.00000000E-01
					 0.00000000E+00	 3.00000000E-01	 5.00000000E-01
					 5.00000000E-02	 3.00000000E-01	 5.00000000E-01
					 0.00000000E+00	 0.00000000E+00	 5.50000000E-01
					 5.00000000E-02	 0.00000000E+00	 5.50000000E-01
					 0.00000000E+00	 3.00000000E-01	 5.50000000E-01
					 5.00000000E-02	 3.00000000E-01	 5.50000000E-01
					 0.00000000E+00	 0.00000000E+00	 6.00000000E-01
					 5.00000000E-02	 0.00000000E+00	 6.00000000E-01
					 0.00000000E+00	 3.00000000E-01	 6.00000000E-01
					 5.00000000E-02	 3.00000000E-01	 6.00000000E-01
					 0.00000000E+00	 0.00000000E+00	 6.50000000E-01
					 5.00000000E-02	 0.00000000E+00	 6.50000000E-01
					 0.00000000E+00	 3.00000000E-01	 6.50000000E-01
					 5.00000000E-02	 3.00000000E-01	 6.50000000E-01
					 0.00000000E+00	 0.00000000E+00	 7.00000000E-01
					 5.00000000E-02	 0.00000000E+00	 7.00000000E-01
					 0.00000000E+00	 3.00000000E-01	 7.00000000E-01
					 5.00000000E-02	 3.00000000E-01	 7.00000000E-01
					 0.00000000E+00	 0.00000000E+00	 7.50000000E-01
					 5.00000000E-02	 0.00000000E+00	 7.50000000E-01
					 0.00000000E+00	 3.00000000E-01	 7.50000000E-01
					 5.00000000E-02	 3.00000000E-01	 7.50000000E-01
					 0.00000000E+00	 0.00000000E+00	 8.00000000E-01
					 5.00000000E-02	 0.00000000E+00	 8.00000000E-01
					 0.00000000E+00	 3.00000000E-01	 8.00000000E-01
					 5.00000000E-02	 3.00000000E-01	 8.00000000E-01
					 0.00000000E+00	 0.00000000E+00	 8.50000000E-01
					 5.00000000E-02	 0.00000000E+00	 8.50000000E-01
					 0.00000000E+00	 3.00000000E-01	 8.50000000E-01
					 5.00000000E-02	 3.00000000E-01	 8.50000000E-01
					 0.00000000E+00	 0.00000000E+00	 9.00000000E-01
					 5.00000000E-02	 0.00000000E+00	 9.00000000E-01
					 0.00000000E+00	 3.00000000E-01	 9.00000000E-01
					 5.00000000E-02	 3.00000000E-01	 9.00000000E-01
					 0.00000000E+00	 0.00000000E+00	 9.50000000E-01
					 5.00000000E-02	 0.00000000E+00	 9.50000000E-01
					 0.00000000E+00	 3.00000000E-01	 9.50000000E-01
					 5.00000000E-02	 3.00000000E-01	 9.50000000E-01
					 0.00000000E+00	 0.00000000E+00	 1.00000000E+00
					 5.00000000E-02	 0.00000000E+00	 1.00000000E+00
					 0.00000000E+00	 3.00000000E-01	 1.00000000E+00
					 5.00000000E-02	 3.00000000E-01	 1.00000000E+00
					-5.00000000E-02	 0.00000000E+00	 0.00000000E+00
					-5.00000000E-02	 0.00000000E+00	 5.00000000E-02
					-5.00000000E-02	 3.00000000E-01	 0.00000000E+00
					-5.00000000E-02	 3.00000000E-01	 5.00000000E-02
					-5.00000000E-02	 0.00000000E+00	 1.00000000E-01
					-5.00000000E-02	 3.00000000E-01	 1.00000000E-01
					-5.00000000E-02	 0.00000000E+00	 1.50000000E-01
					-5.00000000E-02	 3.00000000E-01	 1.50000000E-01
					-5.00000000E-02	 0.00000000E+00	 2.00000000E-01
					-5.00000000E-02	 3.00000000E-01	 2.00000000E-01
					-5.00000000E-02	 0.00000000E+00	 2.50000000E-01
					-5.00000000E-02	 3.00000000E-01	 2.50000000E-01
					-5.00000000E-02	 0.00000000E+00	 3.00000000E-01
					-5.00000000E-02	 3.00000000E-01	 3.00000000E-01
					-5.00000000E-02	 0.00000000E+00	 3.50000000E-01
					-5.00000000E-02	 3.00000000E-01	 3.50000000E-01
					-5.00000000E-02	 0.00000000E+00	 4.00000000E-01
					-5.00000000E-02	 3.00000000E-01	 4.00000000E-01
					-5.00000000E-02	 0.00000000E+00	 4.50000000E-01
					-5.00000000E-02	 3.00000000E-01	 4.50000000E-01
					-5.00000000E-02	 0.00000000E+00	 5.00000000E-01
					-5.00000000E-02	 3.00000000E-01	 5.00000000E-01
					-5.00000000E-02	 0.00000000E+00	 5.50000000E-01
					-5.00000000E-02	 3.00000000E-01	 5.50000000E-01
					-5.00000000E-02	 0.00000000E+00	 6.00000000E-01
					-5.00000000E-02	 3.00000000E-01	 6.00000000E-01
					-5.00000000E-02	 0.00000000E+00	 6.50000000E-01
					-5.00000000E-02	 3.00000000E-01	 6.50000000E-01
					-5.00000000E-02	 0.00000000E+00	 7.00000000E-01
					-5.00000000E-02	 3.00000000E-01	 7.00000000E-01
					-5.00000000E-02	 0.00000000E+00	 7.50000000E-01
					-5.00000000E-02	 3.00000000E-01	 7.50000000E-01
					-5.00000000E-02	 0.00000000E+00	 8.00000000E-01
					-5.00000000E-02	 3.00000000E-01	 8.00000000E-01
					-5.00000000E-02	 0.00000000E+00	 8.50000000E-01
					-5.00000000E-02	 3.00000000E-01	 8.50000000E-01
					-5.00000000E-02	 0.00000000E+00	 9.00000000E-01
					-5.00000000E-02	 3.00000000E-01	 9.00000000E-01
					-5.00000000E-02	 0.00000000E+00	 9.50000000E-01
					-5.00000000E-02	 3.00000000E-01	 9.50000000E-01
					-5.00000000E-02	 0.00000000E+00	 1.00000000E+00
					-5.00000000E-02	 3.00000000E-01	 1.00000000E+00
				</DataArray>
			</Points>
			<Cells>
				<DataArray type="Int32" Name="connectivity" format="ascii">
					0 1 2 3 4 5 6 7 3 2 8 9 7 6 10 11 9 8 12 13 11 10 14 15 13 12 16 17 15 14 18 19 17 16 20 21 19 18 22 23 21 20 24 25 23 22 26 27 25 24 28 29 27 26 30 31 29 28 32 33 31 30 34 35 33 32 36 37 35 34 38 39 37 36 40 41 39 38 42 43 41 40 44 45 43 42 46 47 45 44 48 49 47 46 50 51 49 48 52 53 51 50 54 55 53 52 56 57 55 54 58 59 57 56 60 61 59 58 62 63 61 60 64 65 63 62 66 67 65 64 68 69 67 66 70 71 69 68 72 73 71 70 74 75 73 72 76 77 75 74 78 79 77 76 80 81 79 78 82 83 1 84 85 2 5 86 87 6 2 85 88 8 6 87 89 10 8 88 90 12 10 89 91 14 12 90 92 16 14 91 93 18 16 92 94 20 18 93 95 22 20 94 96 24 22 95 97 26 24 96 98 28 26 97 99 30 28 98 100 32 30 99 101 34 32 100 102 36 34 101 103 38 36 102 104 40 38 103 105 42 40 104 106 44 42 105 107 46 44 106 108 48 46 107 109 50 48 108 110 52 50 109 111 54 52 110 112 56 54 111 113 58 56 112 114 60 58 113 115 62 60 114 116 64 62 115 117 66 64 116 118 68 66 117 119 70 68 118 120 72 70 119 121 74 72 120 122 76 74 121 123 78 76 122 124 80 78 123 125 82 
				</DataArray>
				<DataArray type="Int32" Name="offsets" format="ascii">
					8 16 24 32 40 48 56 64 72 80 88 96 104 112 120 128 136 144 152 160 168 176 184 192 200 208 216 224 232 240 248 256 264 272 280 288 296 304 312 320 
				</DataArray>
				<DataArray type="UInt8" Name="types" format="ascii">
					12 12 12 12 12 12 12 12 12 12 12 12 12 12 12 12 12 12 12 12 12 12 12 12 12 12 12 12 12 12 12 12 12 12 12 12 12 12 12 12 
				</DataArray>
			</Cells>
			<PointData>
				<DataArray type="Float32" Name="U" NumberOfComponents="3" ComponentName0="D1" ComponentName1="D2" ComponentName2="D3" format="ascii">
					 0.00000000E+00	 0.00000000E+00	 0.00000000E+00
					 0.00000000E+00	 0.00000000E+00	 0.00000000E+00
					-7.19395000E-03	 0.00000000E+00	 1.89070000E-02
					-1.49794000E-02	 0.00000000E+00	-1.60109000E-02
					 0.00000000E+00	 0.00000000E+00	 0.00000000E+00
					 0.00000000E+00	 0.00000000E+00	 0.00000000E+00
					-7.19395000E-03	 0.00000000E+00	 1.89070000E-02
					-1.49794000E-02	 0.00000000E+00	-1.60109000E-02
					 3.07427000E-02	 0.00000000E+00	 1.34683000E-02
					 9.10586000E-04	 0.00000000E+00	-3.47781000E-02
					 3.07427000E-02	 0.00000000E+00	 1.34683000E-02
					 9.10586000E-04	 0.00000000E+00	-3.47781000E-02
					 8.81403000E-02	 0.00000000E+00	-2.25541000E-02
					 1.91560000E-02	 0.00000000E+00	-4.74068000E-02
					 8.81403000E-02	 0.00000000E+00	-2.25541000E-02
					 1.91560000E-02	 0.00000000E+00	-4.74068000E-02
					 1.26097000E-01	 0.00000000E+00	-4.27879000E-02
					 3.63001000E-02	 0.00000000E+00	-2.13807000E-02
					 1.26097000E-01	 0.00000000E+00	-4.27879000E-02
					 3.63001000E-02	 0.00000000E+00	-2.13807000E-02
					 1.43914000E-01	 0.00000000E+00	-2.68828000E-02
					 5.65406000E-02	 0.00000000E+00	-2.73411000E-02
					 1.43914000E-01	 0.00000000E+00	-2.68828000E-02
					 5.65406000E-02	 0.00000000E+00	-2.73411000E-02
					 1.65019000E-01	 0.00000000E+00	-3.14414000E-02
					 6.23584000E-02	 0.00000000E+00	-3.73553000E-02
					 1.65019000E-01	 0.00000000E+00	-3.14414000E-02
					 6.23584000E-02	 0.00000000E+00	-3.73553000E-02
					 1.55607000E-01	 0.00000000E+00	-4.25209000E-02
					 8.07464000E-02	 0.00000000E+00	-2.24000000E-02
					 1.55607000E-01	 0.00000000E+00	-4.25209000E-02
					 8.07464000E-02	 0.00000000E+00	-2.24000000E-02
					 1.41059000E-01	 0.00000000E+00	-2.97646000E-02
					 3.27941000E-02	 0.00000000E+00	-6.22927000E-02
					 1.41059000E-01	 0.00000000E+00	-2.97646000E-02
					 3.27941000E-02	 0.00000000E+00	-6.22927000E-02
					 1.03893000E-01	 0.00000000E+00	-3.82832000E-02
					 2.63253000E-02	 0.00000000E+00	-6.53916000E-02
					 1.03893000E-01	 0.00000000E+00	-3.82832000E-02
					 2.63253000E-02	 0.00000000E+00	-6.53916000E-02
					 6.71355000E-02	 0.00000000E+00	-3.97575000E-02
					 2.80524000E-02	 0.00000000E+00	-6.28542000E-02
					 6.71355000E-02	 0.00000000E+00	-3.97575000E-02
					 2.80524000E-02	 0.00000000E+00	-6.28542000E-02
					 5.03047000E-02	 0.00000000E+00	-3.37806000E-02
					-7.26163000E-03	 0.00000000E+00	-7.00888000E-02
					 5.03047000E-02	 0.00000000E+00	-3.37806000E-02
					-7.26163000E-03	 0.00000000E+00	-7.00888000E-02
					 1.86630000E-02	 0.00000000E+00	-4.70381000E-02
					-5.94755000E-02	 0.00000000E+00	-6.13299000E-02
					 1.86630000E-02	 0.00000000E+00	-4.70381000E-02
					-5.94755000E-02	 0.00000000E+00	-6.13299000E-02
					-8.82483000E-04	 0.00000000E+00	-3.48940000E-02
					-1.50220000E-02	 0.00000000E+00	-4.93016000E-02
					-8.82483000E-04	 0.00000000E+00	-3.48940000E-02
					-1.50220000E-02	 0.00000000E+00	-4.93016000E-02
					 2.68447000E-02	 0.00000000E+00	-2.92446000E-02
					 2.07442000E-02	 0.00000000E+00	-4.12525000E-02
					 2.68447000E-02	 0.00000000E+00	-2.92446000E-02
					 2.07442000E-02	 0.00000000E+00	-4.12525000E-02
					 2.89095000E-02	 0.00000000E+00	-2.97594000E-02
					 2.92182000E-02	 0.00000000E+00	-3.47665000E-02
					 2.89095000E-02	 0.00000000E+00	-2.97594000E-02
					 2.92182000E-02	 0.00000000E+00	-3.47665000E-02
					 2.98719000E-02	 0.00000000E+00	-2.23177000E-02
					 1.18970000E-02	 0.00000000E+00	-2.84996000E-02
					 2.98719000E-02	 0.00000000E+00	-2.23177000E-02
					 1.18970000E-02	 0.00000000E+00	-2.84996000E-02
					 2.67712000E-02	 0.00000000E+00	-9.69369000E-03
					 2.74996000E-02	 0.00000000E+00	-1.15659000E-02
					 2.67712000E-02	 0.00000000E+00	-9.69369000E-03
					 2.74996000E-02	 0.00000000E+00	-1.15659000E-02
					 2.53569000E-02	 0.00000000E+00	-9.88748000E-03
					 2.42050000E-02	 0.00000000E+00	-3.67460000E-03
					 2.53569000E-02	 0.00000000E+00	-9.88748000E-03
					 2.42050000E-02	 0.00000000E+00	-3.67460000E-03
					 2.50856000E-02	 0.00000000E+00	-1.41491000E-04
					 2.02227000E-02	 0.00000000E+00	 9.63734000E-04
					 2.50856000E-02	 0.00000000E+00	-1.41491000E-04
					 2.02227000E-02	 0.00000000E+00	 9.63734000E-04
					 2.14029000E-02	 0.00000000E+00	-2.12101000E-03
					 2.50345000E-02	 0.00000000E+00	-5.71196000E-03
					 2.14029000E-02	 0.00000000E+00	-2.12101000E-03
					 2.50345000E-02	 0.00000000E+00	-5.71196000E-03
					 0.00000000E+00	 0.00000000E+00	 0.00000000E+00
					 7.45596000E-02	 0.00000000E+00	-2.30044000E-02
					 0.00000000E+00	 0.00000000E+00	 0.00000000E+00
					 7.45596000E-02	 0.00000000E+00	-2.30044000E-02
					 1.19883000E-01	 0.00000000E+00	-3.92570000E-02
					 1.19883000E-01	 0.00000000E+00	-3.92570000E-02
					 1.67063000E-01	 0.00000000E+00	-3.92608000E-02
					 1.67063000E-01	 0.00000000E+00	-3.92608000E-02
					 2.12394000E-01	 0.00000000E+00	-3.36396000E-02
					 2.12394000E-01	 0.00000000E+00	-3.36396000E-02
					 2.08358000E-01	 0.00000000E+00	-2.62123000E-02
					 2.08358000E-01	 0.00000000E+00	-2.62123000E-02
					 2.44710000E-01	 0.00000000E+00	-3.92204000E-02
					 2.44710000E-01	 0.00000000E+00	-3.92204000E-02
					 2.61921000E-01	 0.00000000E+00	-8.77257000E-03
					 2.61921000E-01	 0.00000000E+00	-8.77257000E-03
					 2.22996000E-01	 0.00000000E+00	-2.09501000E-02
					 2.22996000E-01	 0.00000000E+00	-2.09501000E-02
					 1.84839000E-01	 0.00000000E+00	-1.79457000E-02
					 1.84839000E-01	 0.00000000E+00	-1.79457000E-02
					 1.73117000E-01	 0.00000000E+00	 2.43686000E-03
					 1.73117000E-01	 0.00000000E+00	 2.43686000E-03
					 1.21190000E-01	 0.00000000E+00	-2.47837000E-02
					 1.21190000E-01	 0.00000000E+00	-2.47837000E-02
					 9.70467000E-02	 0.00000000E+00	-2.46844000E-02
					 9.70467000E-02	 0.00000000E+00	-2.46844000E-02
					 9.55494000E-02	 0.00000000E+00	-3.51849000E-02
					 9.55494000E-02	 0.00000000E+00	-3.51849000E-02
					 1.17157000E-01	 0.00000000E+00	-1.91869000E-02
					 1.17157000E-01	 0.00000000E+00	-1.91869000E-02
					 3.69004000E-02	 0.00000000E+00	-2.87321000E-02
					 3.69004000E-02	 0.00000000E+00	-2.87321000E-02
					 4.19282000E-02	 0.00000000E+00	-2.77333000E-02
					 4.19282000E-02	 0.00000000E+00	-2.77333000E-02
					 2.47886000E-02	 0.00000000E+00	-1.83405000E-02
					 2.47886000E-02	 0.00000000E+00	-1.83405000E-02
					 2.85237000E-02	 0.00000000E+00	-8.90681000E-03
					 2.85237000E-02	 0.00000000E+00	-8.90681000E-03
					 2.84110000E-02	 0.00000000E+00	-3.36467000E-03
					 2.84110000E-02	 0.00000000E+00	-3.36467000E-03
					 2.40578000E-02	 0.00000000E+00	-2.57936000E-03
					 2.40578000E-02	 0.00000000E+00	-2.57936000E-03
				</DataArray>
			</PointData>
		</Piece>
	</UnstructuredGrid>
</VTKFile>