<?xml version="1.0"?>
<VTKFile type="UnstructuredGrid" version="0.1" byte_order="LittleEndian">
	<UnstructuredGrid>
		<Piece NumberOfPoints="126" NumberOfCells="40">
			<Points>
				<DataArray type="Float64" NumberOfComponents="3" format="ascii">
					 5.00000000E-02	 0.00000000E+00	 0.00000000E+00
					 0.00000000E+00	 0.00000000E+00	 0.00000000E+00
					 0.00000000E+00	 0.00000000E+00	 5.00000000E-02
					 5.00000000E-02	 0.00000000E+00	 5.00000000E-02
					 5.00000000E-02	 3.00000000E-01	 0.00000000E+00
					 0.00000000E+00	 3.00000000E-01	 0.00000000E+00
					 0.00000000E+00	 3.00000000E-01	 5.00000000E-02
					 5.00000000E-02	 3.00000000E-01	 5.00000000E-02
					 0.00000000E+00	 0.00000000E+00	 1.00000000E-01
					 5.00000000E-02	 0.00000000E+00	 1.00000000E-01
					 0.00000000E+00	 3.00000000E-01	 1.00000000E-01
					 5.00000000E-02	 3.00000000E-01	 1.00000000E-01
					 0.00000000E+00	 0.00000000E+00	 1.50000000E-01
					 5.00000000E-02	 0.00000000E+00	 1.50000000E-01
					 0.00000000E+00	 3.00000000E-01	 1.50000000E-01
					 5.00000000E-02	 3.00000000E-01	 1.50000000E-01
					 0.00000000E+00	 0.00000000E+00	 2.00000000E-01
					 5.00000000E-02	 0.00000000E+00	 2.00000000E-01
					 0.00000000E+00	 3.00000000E-01	 2.00000000E-01
					 5.00000000E-02	 3.00000000E-01	 2.00000000E-01
					 0.00000000E+00	 0.00000000E+00	 2.50000000E-01
					 5.00000000E-02	 0.00000000E+00	 2.50000000E-01
					 0.00000000E+00	 3.00000000E-01	 2.50000000E-01
					 5.00000000E-02	 3.00000000E-01	 2.50000000E-01
					 0.00000000E+00	 0.00000000E+00	 3.00000000E-01
					 5.00000000E-02	 0.00000000E+00	 3.00000000E-01
					 0.00000000E+00	 3.00000000E-01	 3.00000000E-01
					 5.00000000E-02	 3.00000000E-01	 3.00000000E-01
					 0.00000000E+00	 0.00000000E+00	 3.50000000E-01
					 5.00000000E-02	 0.00000000E+00	 3.50000000E-01
					 0.00000000E+00	 3.00000000E-01	 3.50000000E-01
					 5.00000000E-02	 3.00000000E-01	 3.50000000E-01
					 0.00000000E+00	 0.00000000E+00	 4.00000000E-01
					 5.00000000E-02	 0.00000000E+00	 4.00000000E-01
					 0.00000000E+00	 3.00000000E-01	 4.00000000E-01
					 5.00000000E-02	 3.00000000E-01	 4.00000000E-01
					 0.00000000E+00	 0.00000000E+00	 4.50000000E-01
					 5.00000000E-02	 0.00000000E+00	 4.50000000E-01
					 0.00000000E+00	 3.00000000E-01	 4.50000000E-01
					 5.00000000E-02	 3.00000000E-01	 4.50000000E-01
					 0.00000000E+00	 0.00000000E+00	 5.00000000E-01
					 5.00000000E-02	 0.00000000E+00	 5.00000000E-01
					 0.00000000E+00	 3.00000000E-01	 5.00000000E-01
					 5.00000000E-02	 3.00000000E-01	 5.00000000E-01
					 0.00000000E+00	 0.00000000E+00	 5.50000000E-01
					 5.00000000E-02	 0.00000000E+00	 5.50000000E-01
					 0.00000000E+00	 3.00000000E-01	 5.50000000E-01
					 5.00000000E-02	 3.00000000E-01	 5.50000000E-01
					 0.00000000E+00	 0.00000000E+00	 6.00000000E-01
					 5.00000000E-02	 0.00000000E+00	 6.00000000E-01
					 0.00000000E+00	 3.00000000E-01	 6.00000000E-01
					 5.00000000E-02	 3.00000000E-01	 6.00000000E-01
					 0.00000000E+00	 0.00000000E+00	 6.50000000E-01
					 5.00000000E-02	 0.00000000E+00	 6.50000000E-01
					 0.00000000E+00	 3.00000000E-01	 6.50000000E-01
					 5.00000000E-02	 3.00000000E-01	 6.50000000E-01
					 0.00000000E+00	 0.00000000E+00	 7.00000000E-01
					 5.00000000E-02	 0.00000000E+00	 7.00000000E-01
					 0.00000000E+00	 3.00000000E-01	 7.00000000E-01
					 5.00000000E-02	 3.00000000E-01	 7.00000000E-01
					 0.00000000E+00	 0.00000000E+00	 7.50000000E-01
					 5.00000000E-02	 0.00000000E+00	 7.50000000E-01
					 0.00000000E+00	 3.00000000E-01	 7.50000000E-01
					 5.00000000E-02	 3.00000000E-01	 7.50000000E-01
					 0.00000000E+00	 0.00000000E+00	 8.00000000E-01
					 5.00000000E-02	 0.00000000E+00	 8.00000000E-01
					 0.00000000E+00	 3.00000000E-01	 8.00000000E-01
					 5.00000000E-02	 3.00000000E-01	 8.00000000E-01
					 0.00000000E+00	 0.00000000E+00	 8.50000000E-01
					 5.00000000E-02	 0.00000000E+00	 8.50000000E-01
					 0.00000000E+00	 3.00000000E-01	 8.50000000E-01
					 5.00000000E-02	 3.00000000E-01	 8.50000000E-01
					 0.00000000E+00	 0.00000000E+00	 9.00000000E-01
					 5.00000000E-02	 0.00000000E+00	 9.00000000E-01
					 0.00000000E+00	 3.00000000E-01	 9.00000000E-01
					 5.00000000E-02	 3.00000000E-01	 9.00000000E-01
					 0.00000000E+00	 0.00000000E+00	 9.50000000E-01
					 5.00000000E-02	 0.00000000E+00	 9.50000000E-01
					 0.00000000E+00	 3.00000000E-01	 9.50000000E-01
					 5.00000000E-02	 3.00000000E-01	 9.50000000E-01
					 0.00000000E+00	 0.00000000E+00	 1.00000000E+00
					 5.00000000E-02	 0.00000000E+00	 1.00000000E+00
					 0.00000000E+00	 3.00000000E-01	 1.00000000E+00
					 5.00000000E-02	 3.00000000E-01	 1.00000000E+00
					-5.00000000E-02	 0.00000000E+00	 0.00000000E+00
					-5.00000000E-02	 0.00000000E+00	 5.00000000E-02
					-5.00000000E-02	 3.00000000E-01	 0.00000000E+00
					-5.00000000E-02	 3.00000000E-01	 5.00000000E-02
					-5.00000000E-02	 0.00000000E+00	 1.00000000E-01
					-5.00000000E-02	 3.00000000E-01	 1.00000000E-01
					-5.00000000E-02	 0.00000000E+00	 1.50000000E-01
					-5.00000000E-02	 3.00000000E-01	 1.50000000E-01
					-5.00000000E-02	 0.00000000E+00	 2.00000000E-01
					-5.00000000E-02	 3.00000000E-01	 2.00000000E-01
					-5.00000000E-02	 0.00000000E+00	 2.50000000E-01
					-5.00000000E-02	 3.00000000E-01	 2.50000000E-01
					-5.00000000E-02	 0.00000000E+00	 3.00000000E-01
					-5.00000000E-02	 3.00000000E-01	 3.00000000E-01
					-5.00000000E-02	 0.00000000E+00	 3.50000000E-01
					-5.00000000E-02	 3.00000000E-01	 3.50000000E-01
					-5.00000000E-02	 0.00000000E+00	 4.00000000E-01
					-5.00000000E-02	 3.00000000E-01	 4.00000000E-01
					-5.00000000E-02	 0.00000000E+00	 4.50000000E-01
					-5.00000000E-02	 3.00000000E-01	 4.50000000E-01
					-5.00000000E-02	 0.00000000E+00	 5.00000000E-01
					-5.00000000E-02	 3.00000000E-01	 5.00000000E-01
					-5.00000000E-02	 0.00000000E+00	 5.50000000E-01
					-5.00000000E-02	 3.00000000E-01	 5.50000000E-01
					-5.00000000E-02	 0.00000000E+00	 6.00000000E-01
					-5.00000000E-02	 3.00000000E-01	 6.00000000E-01
					-5.00000000E-02	 0.00000000E+00	 6.50000000E-01
					-5.00000000E-02	 3.00000000E-01	 6.50000000E-01
					-5.00000000E-02	 0.00000000E+00	 7.00000000E-01
					-5.00000000E-02	 3.00000000E-01	 7.00000000E-01
					-5.00000000E-02	 0.00000000E+00	 7.50000000E-01
					-5.00000000E-02	 3.00000000E-01	 7.50000000E-01
					-5.00000000E-02	 0.00000000E+00	 8.00000000E-01
					-5.00000000E-02	 3.00000000E-01	 8.00000000E-01
					-5.00000000E-02	 0.00000000E+00	 8.50000000E-01
					-5.00000000E-02	 3.00000000E-01	 8.50000000E-01
					-5.00000000E-02	 0.00000000E+00	 9.00000000E-01
					-5.00000000E-02	 3.00000000E-01	 9.00000000E-01
					-5.00000000E-02	 0.00000000E+00	 9.50000000E-01
					-5.00000000E-02	 3.00000000E-01	 9.50000000E-01
					-5.00000000E-02	 0.00000000E+00	 1.00000000E+00
					-5.00000000E-02	 3.00000000E-01	 1.00000000E+00
				</DataArray>
			</Points>
			<Cells>
				<DataArray type="Int32" Name="connectivity" format="ascii">
					0 1 2 3 4 5 6 7 3 2 8 9 7 6 10 11 9 8 12 13 11 10 14 15 13 12 16 17 15 14 18 19 17 16 20 21 19 18 22 23 21 20 24 25 23 22 26 27 25 24 28 29 27 26 30 31 29 28 32 33 31 30 34 35 33 32 36 37 35 34 38 39 37 36 40 41 39 38 42 43 41 40 44 45 43 42 46 47 45 44 48 49 47 46 50 51 49 48 52 53 51 50 54 55 53 52 56 57 55 54 58 59 57 56 60 61 59 58 62 63 61 60 64 65 63 62 66 67 65 64 68 69 67 66 70 71 69 68 72 73 71 70 74 75 73 72 76 77 75 74 78 79 77 76 80 81 79 78 82 83 1 84 85 2 5 86 87 6 2 85 88 8 6 87 89 10 8 88 90 12 10 89 91 14 12 90 92 16 14 91 93 18 16 92 94 20 18 93 95 22 20 94 96 24 22 95 97 26 24 96 98 28 26 97 99 30 28 98 100 32 30 99 101 34 32 100 102 36 34 101 103 38 36 102 104 40 38 103 105 42 40 104 106 44 42 105 107 46 44 106 108 48 46 107 109 50 48 108 110 52 50 109 111 54 52 110 112 56 54 111 113 58 56 112 114 60 58 113 115 62 60 114 116 64 62 115 117 66 64 116 118 68 66 117 119 70 68 118 120 72 70 119 121 74 72 120 122 76 74 121 123 78 76 122 124 80 78 123 125 82 
				</DataArray>
				<DataArray type="Int32" Name="offsets" format="ascii">
					8 16 24 32 40 48 56 64 72 80 88 96 104 112 120 128 136 144 152 160 168 176 184 192 200 208 216 224 232 240 248 256 264 272 280 288 296 304 312 320 
				</DataArray>
				<DataArray type="UInt8" Name="types" format="ascii">
					12 12 12 12 12 12 12 12 12 12 12 12 12 12 12 12 12 12 12 12 12 12 12 12 12 12 12 12 12 12 12 12 12 12 12 12 12 12 12 12 
				</DataArray>
			</Cells>
			<PointData>
				<DataArray type="Float32" Name="U" NumberOfComponents="3" ComponentName0="D1" ComponentName1="D2" ComponentName2="D3" format="ascii">
					 0.00000000E+00	 0.00000000E+00	 0.00000000E+00
					 0.00000000E+00	 0.00000000E+00	 0.00000000E+00
					-9.24166000E-03	 0.00000000E+00	-5.67022000E-04
					-3.66423000E-03	 0.00000000E+00	-4.57379000E-05
					 0.00000000E+00	 0.00000000E+00	 0.00000000E+00
					 0.00000000E+00	 0.00000000E+00	 0.00000000E+00
					-9.24166000E-03	 0.00000000E+00	-5.67023000E-04
					-3.66423000E-03	 0.00000000E+00	-4.57403000E-05
					 3.88286000E-02	 0.00000000E+00	-6.17801000E-03
					 4.32378000E-03	 0.00000000E+00	-9.69159000E-03
					 3.88286000E-02	 0.00000000E+00	-6.17801000E-03
					 4.32378000E-03	 0.00000000E+00	-9.69159000E-03
					 6.49842000E-02	 0.00000000E+00	-9.68544000E-03
					 4.85298000E-02	 0.00000000E+00	-4.60485000E-02
					 6.49842000E-02	 0.00000000E+00	-9.68544000E-03
					 4.85298000E-02	 0.00000000E+00	-4.60485000E-02
					 8.78112000E-02	 0.00000000E+00	-7.80308000E-03
					 6.63699000E-02	 0.00000000E+00	-5.27366000E-02
					 8.78112000E-02	 0.00000000E+00	-7.80309000E-03
					 6.63699000E-02	 0.00000000E+00	-5.27366000E-02
					 1.57903000E-01	 0.00000000E+00	-3.82774000E-02
					 1.15413000E-01	 0.00000000E+00	-7.52777000E-02
					 1.57903000E-01	 0.00000000E+00	-3.82774000E-02
					 1.15413000E-01	 0.00000000E+00	-7.52777000E-02
					 1.77698000E-01	 0.00000000E+00	-4.73555000E-02
					 9.68037000E-02	 0.00000000E+00	-7.88110000E-02
					 1.77698000E-01	 0.00000000E+00	-4.73555000E-02
					 9.68037000E-02	 0.00000000E+00	-7.88110000E-02
					 1.97578000E-01	 0.00000000E+00	-5.77346000E-02
					 1.00382000E-01	 0.00000000E+00	-5.47471000E-02
					 1.97578000E-01	 0.00000000E+00	-5.77346000E-02
					 1.00382000E-01	 0.00000000E+00	-5.47471000E-02
					 2.07729000E-01	 0.00000000E+00	-4.85930000E-02
					 1.05840000E-01	 0.00000000E+00	-4.08879000E-02
					 2.07729000E-01	 0.00000000E+00	-4.85930000E-02
					 1.05840000E-01	 0.00000000E+00	-4.08879000E-02
					 1.94326000E-01	 0.00000000E+00	-4.21818000E-02
					 9.79897000E-02	 0.00000000E+00	-4.03934000E-02
					 1.94326000E-01	 0.00000000E+00	-4.21818000E-02
					 9.79897000E-02	 0.00000000E+00	-4.03934000E-02
					 1.92924000E-01	 0.00000000E+00	-3.84574000E-02
					 7.79081000E-02	 0.00000000E+00	-4.08454000E-02
					 1.92924000E-01	 0.00000000E+00	-3.84574000E-02
					 7.79081000E-02	 0.00000000E+00	-4.08454000E-02
					 1.81141000E-01	 0.00000000E+00	-4.05351000E-02
					 8.20279000E-02	 0.00000000E+00	-7.38244000E-02
					 1.81141000E-01	 0.00000000E+00	-4.05351000E-02
					 8.20279000E-02	 0.00000000E+00	-7.38244000E-02
					 1.30981000E-01	 0.00000000E+00	-4.79806000E-02
					 6.79398000E-02	 0.00000000E+00	-9.23713000E-02
					 1.30981000E-01	 0.00000000E+00	-4.79806000E-02
					 6.79398000E-02	 0.00000000E+00	-9.23713000E-02
					 1.01419000E-01	 0.00000000E+00	-6.00679000E-02
					 3.13463000E-02	 0.00000000E+00	-8.33989000E-02
					 1.01419000E-01	 0.00000000E+00	-6.00679000E-02
					 3.13463000E-02	 0.00000000E+00	-8.33989000E-02
					 3.43108000E-02	 0.00000000E+00	-8.15740000E-02
					 1.90334000E-02	 0.00000000E+00	-6.14970000E-02
					 3.43108000E-02	 0.00000000E+00	-8.15740000E-02
					 1.90334000E-02	 0.00000000E+00	-6.14970000E-02
					 1.88532000E-02	 0.00000000E+00	-8.11763000E-02
					 3.62091000E-03	 0.00000000E+00	-7.97927000E-02
					 1.88532000E-02	 0.00000000E+00	-8.11763000E-02
					 3.62091000E-03	 0.00000000E+00	-7.97927000E-02
					-7.46933000E-03	 0.00000000E+00	-1.00997000E-01
					 6.66789000E-03	 0.00000000E+00	-7.58661000E-02
					-7.46933000E-03	 0.00000000E+00	-1.00997000E-01
					 6.66789000E-03	 0.00000000E+00	-7.58661000E-02
					 1.63601000E-02	 0.00000000E+00	-8.93689000E-02
					 1.32708000E-02	 0.00000000E+00	-1.19741000E-01
					 1.63601000E-02	 0.00000000E+00	-8.93689000E-02
					 1.32708000E-02	 0.00000000E+00	-1.19741000E-01
					 6.23592000E-02	 0.00000000E+00	-9.12688000E-02
					 4.67195000E-02	 0.00000000E+00	-1.21025000E-01
					 6.23592000E-02	 0.00000000E+00	-9.12688000E-02
					 4.67195000E-02	 0.00000000E+00	-1.21025000E-01
					 4.98030000E-02	 0.00000000E+00	-1.08862000E-01
					 4.15973000E-02	 0.00000000E+00	-8.55007000E-02
					 4.98030000E-02	 0.00000000E+00	-1.08862000E-01
					 4.15973000E-02	 0.00000000E+00	-8.55007000E-02
					 2.63760000E-02	 0.00000000E+00	-1.22630000E-01
					 3.01350000E-02	 0.00000000E+00	-9.84293000E-02
					 2.63760000E-02	 0.00000000E+00	-1.22630000E-01
					 3.01350000E-02	 0.00000000E+00	-9.84293000E-02
					 0.00000000E+00	 0.00000000E+00	 0.00000000E+00
					 9.00702000E-02	 0.00000000E+00	-2.99360000E-02
					 0.00000000E+00	 0.00000000E+00	 0.00000000E+00
					 9.00702000E-02	 0.00000000E+00	-2.99360000E-02
					 1.23833000E-01	 0.00000000E+00	-2.63473000E-02
					 1.23833000E-01	 0.00000000E+00	-2.63473000E-02
					 1.68400000E-01	 0.00000000E+00	-3.18660000E-02
					 1.68400000E-01	 0.00000000E+00	-3.18660000E-02
					 1.89290000E-01	 0.00000000E+00	-4.07210000E-02
					 1.89290000E-01	 0.00000000E+00	-4.07210000E-02
					 2.30064000E-01	 0.00000000E+00	-4.98215000E-02
					 2.30064000E-01	 0.00000000E+00	-4.98215000E-02
					 2.58502000E-01	 0.00000000E+00	-6.16318000E-02
					 2.58502000E-01	 0.00000000E+00	-6.16318000E-02
					 2.74800000E-01	 0.00000000E+00	-5.40716000E-02
					 2.74800000E-01	 0.00000000E+00	-5.40716000E-02
					 2.88082000E-01	 0.00000000E+00	-4.31874000E-02
					 2.88082000E-01	 0.00000000E+00	-4.31874000E-02
					 3.00876000E-01	 0.00000000E+00	-2.63679000E-02
					 3.00876000E-01	 0.00000000E+00	-2.63679000E-02
					 2.72614000E-01	 0.00000000E+00	-2.42310000E-02
					 2.72614000E-01	 0.00000000E+00	-2.42310000E-02
					 2.39588000E-01	 0.00000000E+00	-9.93223000E-03
					 2.39588000E-01	 0.00000000E+00	-9.93223000E-03
					 2.11595000E-01	 0.00000000E+00	-1.81154000E-02
					 2.11595000E-01	 0.00000000E+00	-1.81154000E-02
					 1.20858000E-01	 0.00000000E+00	-6.54579000E-02
					 1.20858000E-01	 0.00000000E+00	-6.54579000E-02
					 1.45496000E-01	 0.00000000E+00	-6.02554000E-02
					 1.45496000E-01	 0.00000000E+00	-6.02554000E-02
					 1.09305000E-01	 0.00000000E+00	-6.61927000E-02
					 1.09305000E-01	 0.00000000E+00	-6.61927000E-02
					 9.35648000E-02	 0.00000000E+00	-7.71914000E-02
					 9.35648000E-02	 0.00000000E+00	-7.71914000E-02
					 1.07460000E-01	 0.00000000E+00	-1.22027000E-01
					 1.07460000E-01	 0.00000000E+00	-1.22027000E-01
					 7.38015000E-02	 0.00000000E+00	-1.17343000E-01
					 7.38015000E-02	 0.00000000E+00	-1.17343000E-01
					 3.48649000E-02	 0.00000000E+00	-1.31268000E-01
					 3.48649000E-02	 0.00000000E+00	-1.31268000E-01
					 2.92312000E-02	 0.00000000E+00	-1.27023000E-01
					 2.92312000E-02	 0.00000000E+00	-1.27023000E-01
				</DataArray>
			</PointData>
		</Piece>
	</UnstructuredGrid>
</VTKFile>