<?xml version="1.0"?>
<VTKFile type="UnstructuredGrid" version="0.1" byte_order="LittleEndian">
	<UnstructuredGrid>
		<Piece NumberOfPoints="126" NumberOfCells="40">
			<Points>
				<DataArray type="Float64" NumberOfComponents="3" format="ascii">
					 5.00000000E-02	 0.00000000E+00	 0.00000000E+00
					 0.00000000E+00	 0.00000000E+00	 0.00000000E+00
					 0.00000000E+00	 0.00000000E+00	 5.00000000E-02
					 5.00000000E-02	 0.00000000E+00	 5.00000000E-02
					 5.00000000E-02	 3.00000000E-01	 0.00000000E+00
					 0.00000000E+00	 3.00000000E-01	 0.00000000E+00
					 0.00000000E+00	 3.00000000E-01	 5.00000000E-02
					 5.00000000E-02	 3.00000000E-01	 5.00000000E-02
					 0.00000000E+00	 0.00000000E+00	 1.00000000E-01
					 5.00000000E-02	 0.00000000E+00	 1.00000000E-01
					 0.00000000E+00	 3.00000000E-01	 1.00000000E-01
					 5.00000000E-02	 3.00000000E-01	 1.00000000E-01
					 0.00000000E+00	 0.00000000E+00	 1.50000000E-01
					 5.00000000E-02	 0.00000000E+00	 1.50000000E-01
					 0.00000000E+00	 3.00000000E-01	 1.50000000E-01
					 5.00000000E-02	 3.00000000E-01	 1.50000000E-01
					 0.00000000E+00	 0.00000000E+00	 2.00000000E-01
					 5.00000000E-02	 0.00000000E+00	 2.00000000E-01
					 0.00000000E+00	 3.00000000E-01	 2.00000000E-01
					 5.00000000E-02	 3.00000000E-01	 2.00000000E-01
					 0.00000000E+00	 0.00000000E+00	 2.50000000E-01
					 5.00000000E-02	 0.00000000E+00	 2.50000000E-01
					 0.00000000E+00	 3.00000000E-01	 2.50000000E-01
					 5.00000000E-02	 3.00000000E-01	 2.50000000E-01
					 0.00000000E+00	 0.00000000E+00	 3.00000000E-01
					 5.00000000E-02	 0.00000000E+00	 3.00000000E-01
					 0.00000000E+00	 3.00000000E-01	 3.00000000E-01
					 5.00000000E-02	 3.00000000E-01	 3.00000000E-01
					 0.00000000E+00	 0.00000000E+00	 3.50000000E-01
					 5.00000000E-02	 0.00000000E+00	 3.50000000E-01
					 0.00000000E+00	 3.00000000E-01	 3.50000000E-01
					 5.00000000E-02	 3.00000000E-01	 3.50000000E-01
					 0.00000000E+00	 0.00000000E+00	 4.00000000E-01
					 5.00000000E-02	 0.00000000E+00	 4.00000000E-01
					 0.00000000E+00	 3.00000000E-01	 4.00000000E-01
					 5.00000000E-02	 3.00000000E-01	 4.00000000E-01
					 0.00000000E+00	 0.00000000E+00	 4.50000000E-01
					 5.00000000E-02	 0.00000000E+00	 4.50000000E-01
					 0.00000000E+00	 3.00000000E-01	 4.50000000E-01
					 5.00000000E-02	 3.00000000E-01	 4.50000000E-01
					 0.00000000E+00	 0.00000000E+00	 5.00000000E-01
					 5.00000000E-02	 0.00000000E+00	 5.00000000E-01
					 0.00000000E+00	 3.00000000E-01	 5.00000000E-01
					 5.00000000E-02	 3.00000000E-01	 5.00000000E-01
					 0.00000000E+00	 0.00000000E+00	 5.50000000E-01
					 5.00000000E-02	 0.00000000E+00	 5.50000000E-01
					 0.00000000E+00	 3.00000000E-01	 5.50000000E-01
					 5.00000000E-02	 3.00000000E-01	 5.50000000E-01
					 0.00000000E+00	 0.00000000E+00	 6.00000000E-01
					 5.00000000E-02	 0.00000000E+00	 6.00000000E-01
					 0.00000000E+00	 3.00000000E-01	 6.00000000E-01
					 5.00000000E-02	 3.00000000E-01	 6.00000000E-01
					 0.00000000E+00	 0.00000000E+00	 6.50000000E-01
					 5.00000000E-02	 0.00000000E+00	 6.50000000E-01
					 0.00000000E+00	 3.00000000E-01	 6.50000000E-01
					 5.00000000E-02	 3.00000000E-01	 6.50000000E-01
					 0.00000000E+00	 0.00000000E+00	 7.00000000E-01
					 5.00000000E-02	 0.00000000E+00	 7.00000000E-01
					 0.00000000E+00	 3.00000000E-01	 7.00000000E-01
					 5.00000000E-02	 3.00000000E-01	 7.00000000E-01
					 0.00000000E+00	 0.00000000E+00	 7.50000000E-01
					 5.00000000E-02	 0.00000000E+00	 7.50000000E-01
					 0.00000000E+00	 3.00000000E-01	 7.50000000E-01
					 5.00000000E-02	 3.00000000E-01	 7.50000000E-01
					 0.00000000E+00	 0.00000000E+00	 8.00000000E-01
					 5.00000000E-02	 0.00000000E+00	 8.00000000E-01
					 0.00000000E+00	 3.00000000E-01	 8.00000000E-01
					 5.00000000E-02	 3.00000000E-01	 8.00000000E-01
					 0.00000000E+00	 0.00000000E+00	 8.50000000E-01
					 5.00000000E-02	 0.00000000E+00	 8.50000000E-01
					 0.00000000E+00	 3.00000000E-01	 8.50000000E-01
					 5.00000000E-02	 3.00000000E-01	 8.50000000E-01
					 0.00000000E+00	 0.00000000E+00	 9.00000000E-01
					 5.00000000E-02	 0.00000000E+00	 9.00000000E-01
					 0.00000000E+00	 3.00000000E-01	 9.00000000E-01
					 5.00000000E-02	 3.00000000E-01	 9.00000000E-01
					 0.00000000E+00	 0.00000000E+00	 9.50000000E-01
					 5.00000000E-02	 0.00000000E+00	 9.50000000E-01
					 0.00000000E+00	 3.00000000E-01	 9.50000000E-01
					 5.00000000E-02	 3.00000000E-01	 9.50000000E-01
					 0.00000000E+00	 0.00000000E+00	 1.00000000E+00
					 5.00000000E-02	 0.00000000E+00	 1.00000000E+00
					 0.00000000E+00	 3.00000000E-01	 1.00000000E+00
					 5.00000000E-02	 3.00000000E-01	 1.00000000E+00
					-5.00000000E-02	 0.00000000E+00	 0.00000000E+00
					-5.00000000E-02	 0.00000000E+00	 5.00000000E-02
					-5.00000000E-02	 3.00000000E-01	 0.00000000E+00
					-5.00000000E-02	 3.00000000E-01	 5.00000000E-02
					-5.00000000E-02	 0.00000000E+00	 1.00000000E-01
					-5.00000000E-02	 3.00000000E-01	 1.00000000E-01
					-5.00000000E-02	 0.00000000E+00	 1.50000000E-01
					-5.00000000E-02	 3.00000000E-01	 1.50000000E-01
					-5.00000000E-02	 0.00000000E+00	 2.00000000E-01
					-5.00000000E-02	 3.00000000E-01	 2.00000000E-01
					-5.00000000E-02	 0.00000000E+00	 2.50000000E-01
					-5.00000000E-02	 3.00000000E-01	 2.50000000E-01
					-5.00000000E-02	 0.00000000E+00	 3.00000000E-01
					-5.00000000E-02	 3.00000000E-01	 3.00000000E-01
					-5.00000000E-02	 0.00000000E+00	 3.50000000E-01
					-5.00000000E-02	 3.00000000E-01	 3.50000000E-01
					-5.00000000E-02	 0.00000000E+00	 4.00000000E-01
					-5.00000000E-02	 3.00000000E-01	 4.00000000E-01
					-5.00000000E-02	 0.00000000E+00	 4.50000000E-01
					-5.00000000E-02	 3.00000000E-01	 4.50000000E-01
					-5.00000000E-02	 0.00000000E+00	 5.00000000E-01
					-5.00000000E-02	 3.00000000E-01	 5.00000000E-01
					-5.00000000E-02	 0.00000000E+00	 5.50000000E-01
					-5.00000000E-02	 3.00000000E-01	 5.50000000E-01
					-5.00000000E-02	 0.00000000E+00	 6.00000000E-01
					-5.00000000E-02	 3.00000000E-01	 6.00000000E-01
					-5.00000000E-02	 0.00000000E+00	 6.50000000E-01
					-5.00000000E-02	 3.00000000E-01	 6.50000000E-01
					-5.00000000E-02	 0.00000000E+00	 7.00000000E-01
					-5.00000000E-02	 3.00000000E-01	 7.00000000E-01
					-5.00000000E-02	 0.00000000E+00	 7.50000000E-01
					-5.00000000E-02	 3.00000000E-01	 7.50000000E-01
					-5.00000000E-02	 0.00000000E+00	 8.00000000E-01
					-5.00000000E-02	 3.00000000E-01	 8.00000000E-01
					-5.00000000E-02	 0.00000000E+00	 8.50000000E-01
					-5.00000000E-02	 3.00000000E-01	 8.50000000E-01
					-5.00000000E-02	 0.00000000E+00	 9.00000000E-01
					-5.00000000E-02	 3.00000000E-01	 9.00000000E-01
					-5.00000000E-02	 0.00000000E+00	 9.50000000E-01
					-5.00000000E-02	 3.00000000E-01	 9.50000000E-01
					-5.00000000E-02	 0.00000000E+00	 1.00000000E+00
					-5.00000000E-02	 3.00000000E-01	 1.00000000E+00
				</DataArray>
			</Points>
			<Cells>
				<DataArray type="Int32" Name="connectivity" format="ascii">
					0 1 2 3 4 5 6 7 3 2 8 9 7 6 10 11 9 8 12 13 11 10 14 15 13 12 16 17 15 14 18 19 17 16 20 21 19 18 22 23 21 20 24 25 23 22 26 27 25 24 28 29 27 26 30 31 29 28 32 33 31 30 34 35 33 32 36 37 35 34 38 39 37 36 40 41 39 38 42 43 41 40 44 45 43 42 46 47 45 44 48 49 47 46 50 51 49 48 52 53 51 50 54 55 53 52 56 57 55 54 58 59 57 56 60 61 59 58 62 63 61 60 64 65 63 62 66 67 65 64 68 69 67 66 70 71 69 68 72 73 71 70 74 75 73 72 76 77 75 74 78 79 77 76 80 81 79 78 82 83 1 84 85 2 5 86 87 6 2 85 88 8 6 87 89 10 8 88 90 12 10 89 91 14 12 90 92 16 14 91 93 18 16 92 94 20 18 93 95 22 20 94 96 24 22 95 97 26 24 96 98 28 26 97 99 30 28 98 100 32 30 99 101 34 32 100 102 36 34 101 103 38 36 102 104 40 38 103 105 42 40 104 106 44 42 105 107 46 44 106 108 48 46 107 109 50 48 108 110 52 50 109 111 54 52 110 112 56 54 111 113 58 56 112 114 60 58 113 115 62 60 114 116 64 62 115 117 66 64 116 118 68 66 117 119 70 68 118 120 72 70 119 121 74 72 120 122 76 74 121 123 78 76 122 124 80 78 123 125 82 
				</DataArray>
				<DataArray type="Int32" Name="offsets" format="ascii">
					8 16 24 32 40 48 56 64 72 80 88 96 104 112 120 128 136 144 152 160 168 176 184 192 200 208 216 224 232 240 248 256 264 272 280 288 296 304 312 320 
				</DataArray>
				<DataArray type="UInt8" Name="types" format="ascii">
					12 12 12 12 12 12 12 12 12 12 12 12 12 12 12 12 12 12 12 12 12 12 12 12 12 12 12 12 12 12 12 12 12 12 12 12 12 12 12 12 
				</DataArray>
			</Cells>
			<PointData>
				<DataArray type="Float32" Name="U" NumberOfComponents="3" ComponentName0="D1" ComponentName1="D2" ComponentName2="D3" format="ascii">
					 0.00000000E+00	 0.00000000E+00	 0.00000000E+00
					 0.00000000E+00	 0.00000000E+00	 0.00000000E+00
					 4.47281000E-05	 0.00000000E+00	-3.50874000E-04
					-1.47009000E-05	 0.00000000E+00	 1.73702000E-04
					 0.00000000E+00	 0.00000000E+00	 0.00000000E+00
					 0.00000000E+00	 0.00000000E+00	 0.00000000E+00
					 4.47281000E-05	 0.00000000E+00	-3.50874000E-04
					-1.47009000E-05	 0.00000000E+00	 1.73702000E-04
					 8.51608000E-05	 0.00000000E+00	-2.80236000E-04
					-4.63678000E-04	 0.00000000E+00	 4.54858000E-04
					 8.51608000E-05	 0.00000000E+00	-2.80236000E-04
					-4.63678000E-04	 0.00000000E+00	 4.54858000E-04
					 1.00482000E-04	 0.00000000E+00	-7.53481000E-05
					-5.87849000E-04	 0.00000000E+00	 3.45452000E-04
					 1.00482000E-04	 0.00000000E+00	-7.53481000E-05
					-5.87849000E-04	 0.00000000E+00	 3.45452000E-04
					 9.47151000E-05	 0.00000000E+00	-2.65033000E-04
					-5.15053000E-04	 0.00000000E+00	-4.83555000E-06
					 9.47151000E-05	 0.00000000E+00	-2.65033000E-04
					-5.15053000E-04	 0.00000000E+00	-4.83555000E-06
					 8.03538000E-05	 0.00000000E+00	-4.68489000E-06
					-9.75541000E-04	 0.00000000E+00	-8.14602000E-05
					 8.03538000E-05	 0.00000000E+00	-4.68489000E-06
					-9.75541000E-04	 0.00000000E+00	-8.14602000E-05
					 6.74608000E-05	 0.00000000E+00	 2.51449000E-04
					-4.55403000E-04	 0.00000000E+00	-1.02459000E-04
					 6.74608000E-05	 0.00000000E+00	 2.51449000E-04
					-4.55403000E-04	 0.00000000E+00	-1.02459000E-04
					 6.67994000E-05	 0.00000000E+00	-1.47656000E-04
					-1.92559000E-04	 0.00000000E+00	 6.31705000E-05
					 6.67994000E-05	 0.00000000E+00	-1.47656000E-04
					-1.92559000E-04	 0.00000000E+00	 6.31705000E-05
					 6.81086000E-05	 0.00000000E+00	-4.03437000E-05
					-1.01950000E-03	 0.00000000E+00	 4.40729000E-05
					 6.81086000E-05	 0.00000000E+00	-4.03437000E-05
					-1.01950000E-03	 0.00000000E+00	 4.40729000E-05
					 6.01431000E-05	 0.00000000E+00	-2.47979000E-05
					-9.35696000E-04	 0.00000000E+00	-1.06016000E-04
					 6.01431000E-05	 0.00000000E+00	-2.47979000E-05
					-9.35696000E-04	 0.00000000E+00	-1.06016000E-04
					 4.99573000E-05	 0.00000000E+00	 3.02835000E-04
					-2.77785000E-04	 0.00000000E+00	 3.58280000E-04
					 4.99573000E-05	 0.00000000E+00	 3.02835000E-04
					-2.77785000E-04	 0.00000000E+00	 3.58280000E-04
					 4.57075000E-05	 0.00000000E+00	 5.56043000E-04
					-8.32403000E-04	 0.00000000E+00	 3.09079000E-04
					 4.57075000E-05	 0.00000000E+00	 5.56043000E-04
					-8.32403000E-04	 0.00000000E+00	 3.09079000E-04
					 3.97537000E-05	 0.00000000E+00	 8.68404000E-05
					-6.98912000E-04	 0.00000000E+00	 3.93421000E-04
					 3.97537000E-05	 0.00000000E+00	 8.68404000E-05
					-6.98912000E-04	 0.00000000E+00	 3.93421000E-04
					 2.55368000E-05	 0.00000000E+00	 3.87224000E-04
					-1.06934000E-03	 0.00000000E+00	 4.19285000E-04
					 2.55368000E-05	 0.00000000E+00	 3.87224000E-04
					-1.06934000E-03	 0.00000000E+00	 4.19285000E-04
					 9.92768000E-06	 0.00000000E+00	 5.46715000E-04
					-1.71161000E-04	 0.00000000E+00	 4.93859000E-04
					 9.92768000E-06	 0.00000000E+00	 5.46715000E-04
					-1.71161000E-04	 0.00000000E+00	 4.93859000E-04
					-3.19760000E-06	 0.00000000E+00	 3.68519000E-04
					-4.17624000E-04	 0.00000000E+00	 5.91634000E-04
					-3.19760000E-06	 0.00000000E+00	 3.68519000E-04
					-4.17624000E-04	 0.00000000E+00	 5.91634000E-04
					-1.16005000E-05	 0.00000000E+00	 3.47944000E-04
					-1.14818000E-03	 0.00000000E+00	 3.23519000E-04
					-1.16005000E-05	 0.00000000E+00	 3.47944000E-04
					-1.14818000E-03	 0.00000000E+00	 3.23519000E-04
					-2.98045000E-05	 0.00000000E+00	 9.44979000E-04
					-8.95511000E-04	 0.00000000E+00	 2.72048000E-04
					-2.98045000E-05	 0.00000000E+00	 9.44979000E-04
					-8.95511000E-04	 0.00000000E+00	 2.72048000E-04
					-3.95737000E-05	 0.00000000E+00	 5.81452000E-04
					-2.93797000E-04	 0.00000000E+00	-6.32881000E-05
					-3.95737000E-05	 0.00000000E+00	 5.81452000E-04
					-2.93797000E-04	 0.00000000E+00	-6.32881000E-05
					-4.48917000E-05	 0.00000000E+00	 6.70016000E-04
					-3.45011000E-04	 0.00000000E+00	 2.10664000E-04
					-4.48917000E-05	 0.00000000E+00	 6.70016000E-04
					-3.45011000E-04	 0.00000000E+00	 2.10664000E-04
					-5.21739000E-05	 0.00000000E+00	 6.95863000E-04
					-4.12315000E-04	 0.00000000E+00	 2.38689000E-04
					-5.21739000E-05	 0.00000000E+00	 6.95863000E-04
					-4.12315000E-04	 0.00000000E+00	 2.38689000E-04
					 0.00000000E+00	 0.00000000E+00	 0.00000000E+00
					 1.31479000E-04	 0.00000000E+00	 2.14400000E-04
					 0.00000000E+00	 0.00000000E+00	 0.00000000E+00
					 1.31479000E-04	 0.00000000E+00	 2.14400000E-04
					 6.62051000E-04	 0.00000000E+00	 4.93852000E-04
					 6.62051000E-04	 0.00000000E+00	 4.93852000E-04
					 8.18480000E-04	 0.00000000E+00	 3.57600000E-04
					 8.18480000E-04	 0.00000000E+00	 3.57600000E-04
					 7.32747000E-04	 0.00000000E+00	-1.63971000E-05
					 7.32747000E-04	 0.00000000E+00	-1.63971000E-05
					 1.16676000E-03	 0.00000000E+00	-9.97191000E-05
					 1.16676000E-03	 0.00000000E+00	-9.97191000E-05
					 6.25809000E-04	 0.00000000E+00	-1.11893000E-04
					 6.25809000E-04	 0.00000000E+00	-1.11893000E-04
					 3.55897000E-04	 0.00000000E+00	 5.72768000E-05
					 3.55897000E-04	 0.00000000E+00	 5.72768000E-05
					 1.19054000E-03	 0.00000000E+00	 4.02960000E-05
					 1.19054000E-03	 0.00000000E+00	 4.02960000E-05
					 1.08493000E-03	 0.00000000E+00	-1.22891000E-04
					 1.08493000E-03	 0.00000000E+00	-1.22891000E-04
					 4.12231000E-04	 0.00000000E+00	 3.45279000E-04
					 4.12231000E-04	 0.00000000E+00	 3.45279000E-04
					 9.53923000E-04	 0.00000000E+00	 2.93561000E-04
					 9.53923000E-04	 0.00000000E+00	 2.93561000E-04
					 8.14511000E-04	 0.00000000E+00	 3.76646000E-04
					 8.14511000E-04	 0.00000000E+00	 3.76646000E-04
					 1.15197000E-03	 0.00000000E+00	 3.95214000E-04
					 1.15197000E-03	 0.00000000E+00	 3.95214000E-04
					 2.28903000E-04	 0.00000000E+00	 4.73761000E-04
					 2.28903000E-04	 0.00000000E+00	 4.73761000E-04
					 4.42234000E-04	 0.00000000E+00	 5.66289000E-04
					 4.42234000E-04	 0.00000000E+00	 5.66289000E-04
					 1.15528000E-03	 0.00000000E+00	 3.05747000E-04
					 1.15528000E-03	 0.00000000E+00	 3.05747000E-04
					 8.90411000E-04	 0.00000000E+00	 2.47044000E-04
					 8.90411000E-04	 0.00000000E+00	 2.47044000E-04
					 2.57397000E-04	 0.00000000E+00	-8.61931000E-05
					 2.57397000E-04	 0.00000000E+00	-8.61931000E-05
					 2.67907000E-04	 0.00000000E+00	 1.90001000E-04
					 2.67907000E-04	 0.00000000E+00	 1.90001000E-04
					 3.10060000E-04	 0.00000000E+00	 2.24699000E-04
					 3.10060000E-04	 0.00000000E+00	 2.24699000E-04
				</DataArray>
			</PointData>
		</Piece>
	</UnstructuredGrid>
</VTKFile>