<?xml version="1.0"?>
<VTKFile type="UnstructuredGrid" version="0.1" byte_order="LittleEndian">
	<UnstructuredGrid>
		<Piece NumberOfPoints="126" NumberOfCells="40">
			<Points>
				<DataArray type="Float64" NumberOfComponents="3" format="ascii">
					 5.00000000E-02	 0.00000000E+00	 0.00000000E+00
					 0.00000000E+00	 0.00000000E+00	 0.00000000E+00
					 0.00000000E+00	 0.00000000E+00	 5.00000000E-02
					 5.00000000E-02	 0.00000000E+00	 5.00000000E-02
					 5.00000000E-02	 3.00000000E-01	 0.00000000E+00
					 0.00000000E+00	 3.00000000E-01	 0.00000000E+00
					 0.00000000E+00	 3.00000000E-01	 5.00000000E-02
					 5.00000000E-02	 3.00000000E-01	 5.00000000E-02
					 0.00000000E+00	 0.00000000E+00	 1.00000000E-01
					 5.00000000E-02	 0.00000000E+00	 1.00000000E-01
					 0.00000000E+00	 3.00000000E-01	 1.00000000E-01
					 5.00000000E-02	 3.00000000E-01	 1.00000000E-01
					 0.00000000E+00	 0.00000000E+00	 1.50000000E-01
					 5.00000000E-02	 0.00000000E+00	 1.50000000E-01
					 0.00000000E+00	 3.00000000E-01	 1.50000000E-01
					 5.00000000E-02	 3.00000000E-01	 1.50000000E-01
					 0.00000000E+00	 0.00000000E+00	 2.00000000E-01
					 5.00000000E-02	 0.00000000E+00	 2.00000000E-01
					 0.00000000E+00	 3.00000000E-01	 2.00000000E-01
					 5.00000000E-02	 3.00000000E-01	 2.00000000E-01
					 0.00000000E+00	 0.00000000E+00	 2.50000000E-01
					 5.00000000E-02	 0.00000000E+00	 2.50000000E-01
					 0.00000000E+00	 3.00000000E-01	 2.50000000E-01
					 5.00000000E-02	 3.00000000E-01	 2.50000000E-01
					 0.00000000E+00	 0.00000000E+00	 3.00000000E-01
					 5.00000000E-02	 0.00000000E+00	 3.00000000E-01
					 0.00000000E+00	 3.00000000E-01	 3.00000000E-01
					 5.00000000E-02	 3.00000000E-01	 3.00000000E-01
					 0.00000000E+00	 0.00000000E+00	 3.50000000E-01
					 5.00000000E-02	 0.00000000E+00	 3.50000000E-01
					 0.00000000E+00	 3.00000000E-01	 3.50000000E-01
					 5.00000000E-02	 3.00000000E-01	 3.50000000E-01
					 0.00000000E+00	 0.00000000E+00	 4.00000000E-01
					 5.00000000E-02	 0.00000000E+00	 4.00000000E-01
					 0.00000000E+00	 3.00000000E-01	 4.00000000E-01
					 5.00000000E-02	 3.00000000E-01	 4.00000000E-01
					 0.00000000E+00	 0.00000000E+00	 4.50000000E-01
					 5.00000000E-02	 0.00000000E+00	 4.50000000E-01
					 0.00000000E+00	 3.00000000E-01	 4.50000000E-01
					 5.00000000E-02	 3.00000000E-01	 4.50000000E-01
					 0.00000000E+00	 0.00000000E+00	 5.00000000E-01
					 5.00000000E-02	 0.00000000E+00	 5.00000000E-01
					 0.00000000E+00	 3.00000000E-01	 5.00000000E-01
					 5.00000000E-02	 3.00000000E-01	 5.00000000E-01
					 0.00000000E+00	 0.00000000E+00	 5.50000000E-01
					 5.00000000E-02	 0.00000000E+00	 5.50000000E-01
					 0.00000000E+00	 3.00000000E-01	 5.50000000E-01
					 5.00000000E-02	 3.00000000E-01	 5.50000000E-01
					 0.00000000E+00	 0.00000000E+00	 6.00000000E-01
					 5.00000000E-02	 0.00000000E+00	 6.00000000E-01
					 0.00000000E+00	 3.00000000E-01	 6.00000000E-01
					 5.00000000E-02	 3.00000000E-01	 6.00000000E-01
					 0.00000000E+00	 0.00000000E+00	 6.50000000E-01
					 5.00000000E-02	 0.00000000E+00	 6.50000000E-01
					 0.00000000E+00	 3.00000000E-01	 6.50000000E-01
					 5.00000000E-02	 3.00000000E-01	 6.50000000E-01
					 0.00000000E+00	 0.00000000E+00	 7.00000000E-01
					 5.00000000E-02	 0.00000000E+00	 7.00000000E-01
					 0.00000000E+00	 3.00000000E-01	 7.00000000E-01
					 5.00000000E-02	 3.00000000E-01	 7.00000000E-01
					 0.00000000E+00	 0.00000000E+00	 7.50000000E-01
					 5.00000000E-02	 0.00000000E+00	 7.50000000E-01
					 0.00000000E+00	 3.00000000E-01	 7.50000000E-01
					 5.00000000E-02	 3.00000000E-01	 7.50000000E-01
					 0.00000000E+00	 0.00000000E+00	 8.00000000E-01
					 5.00000000E-02	 0.00000000E+00	 8.00000000E-01
					 0.00000000E+00	 3.00000000E-01	 8.00000000E-01
					 5.00000000E-02	 3.00000000E-01	 8.00000000E-01
					 0.00000000E+00	 0.00000000E+00	 8.50000000E-01
					 5.00000000E-02	 0.00000000E+00	 8.50000000E-01
					 0.00000000E+00	 3.00000000E-01	 8.50000000E-01
					 5.00000000E-02	 3.00000000E-01	 8.50000000E-01
					 0.00000000E+00	 0.00000000E+00	 9.00000000E-01
					 5.00000000E-02	 0.00000000E+00	 9.00000000E-01
					 0.00000000E+00	 3.00000000E-01	 9.00000000E-01
					 5.00000000E-02	 3.00000000E-01	 9.00000000E-01
					 0.00000000E+00	 0.00000000E+00	 9.50000000E-01
					 5.00000000E-02	 0.00000000E+00	 9.50000000E-01
					 0.00000000E+00	 3.00000000E-01	 9.50000000E-01
					 5.00000000E-02	 3.00000000E-01	 9.50000000E-01
					 0.00000000E+00	 0.00000000E+00	 1.00000000E+00
					 5.00000000E-02	 0.00000000E+00	 1.00000000E+00
					 0.00000000E+00	 3.00000000E-01	 1.00000000E+00
					 5.00000000E-02	 3.00000000E-01	 1.00000000E+00
					-5.00000000E-02	 0.00000000E+00	 0.00000000E+00
					-5.00000000E-02	 0.00000000E+00	 5.00000000E-02
					-5.00000000E-02	 3.00000000E-01	 0.00000000E+00
					-5.00000000E-02	 3.00000000E-01	 5.00000000E-02
					-5.00000000E-02	 0.00000000E+00	 1.00000000E-01
					-5.00000000E-02	 3.00000000E-01	 1.00000000E-01
					-5.00000000E-02	 0.00000000E+00	 1.50000000E-01
					-5.00000000E-02	 3.00000000E-01	 1.50000000E-01
					-5.00000000E-02	 0.00000000E+00	 2.00000000E-01
					-5.00000000E-02	 3.00000000E-01	 2.00000000E-01
					-5.00000000E-02	 0.00000000E+00	 2.50000000E-01
					-5.00000000E-02	 3.00000000E-01	 2.50000000E-01
					-5.00000000E-02	 0.00000000E+00	 3.00000000E-01
					-5.00000000E-02	 3.00000000E-01	 3.00000000E-01
					-5.00000000E-02	 0.00000000E+00	 3.50000000E-01
					-5.00000000E-02	 3.00000000E-01	 3.50000000E-01
					-5.00000000E-02	 0.00000000E+00	 4.00000000E-01
					-5.00000000E-02	 3.00000000E-01	 4.00000000E-01
					-5.00000000E-02	 0.00000000E+00	 4.50000000E-01
					-5.00000000E-02	 3.00000000E-01	 4.50000000E-01
					-5.00000000E-02	 0.00000000E+00	 5.00000000E-01
					-5.00000000E-02	 3.00000000E-01	 5.00000000E-01
					-5.00000000E-02	 0.00000000E+00	 5.50000000E-01
					-5.00000000E-02	 3.00000000E-01	 5.50000000E-01
					-5.00000000E-02	 0.00000000E+00	 6.00000000E-01
					-5.00000000E-02	 3.00000000E-01	 6.00000000E-01
					-5.00000000E-02	 0.00000000E+00	 6.50000000E-01
					-5.00000000E-02	 3.00000000E-01	 6.50000000E-01
					-5.00000000E-02	 0.00000000E+00	 7.00000000E-01
					-5.00000000E-02	 3.00000000E-01	 7.00000000E-01
					-5.00000000E-02	 0.00000000E+00	 7.50000000E-01
					-5.00000000E-02	 3.00000000E-01	 7.50000000E-01
					-5.00000000E-02	 0.00000000E+00	 8.00000000E-01
					-5.00000000E-02	 3.00000000E-01	 8.00000000E-01
					-5.00000000E-02	 0.00000000E+00	 8.50000000E-01
					-5.00000000E-02	 3.00000000E-01	 8.50000000E-01
					-5.00000000E-02	 0.00000000E+00	 9.00000000E-01
					-5.00000000E-02	 3.00000000E-01	 9.00000000E-01
					-5.00000000E-02	 0.00000000E+00	 9.50000000E-01
					-5.00000000E-02	 3.00000000E-01	 9.50000000E-01
					-5.00000000E-02	 0.00000000E+00	 1.00000000E+00
					-5.00000000E-02	 3.00000000E-01	 1.00000000E+00
				</DataArray>
			</Points>
			<Cells>
				<DataArray type="Int32" Name="connectivity" format="ascii">
					0 1 2 3 4 5 6 7 3 2 8 9 7 6 10 11 9 8 12 13 11 10 14 15 13 12 16 17 15 14 18 19 17 16 20 21 19 18 22 23 21 20 24 25 23 22 26 27 25 24 28 29 27 26 30 31 29 28 32 33 31 30 34 35 33 32 36 37 35 34 38 39 37 36 40 41 39 38 42 43 41 40 44 45 43 42 46 47 45 44 48 49 47 46 50 51 49 48 52 53 51 50 54 55 53 52 56 57 55 54 58 59 57 56 60 61 59 58 62 63 61 60 64 65 63 62 66 67 65 64 68 69 67 66 70 71 69 68 72 73 71 70 74 75 73 72 76 77 75 74 78 79 77 76 80 81 79 78 82 83 1 84 85 2 5 86 87 6 2 85 88 8 6 87 89 10 8 88 90 12 10 89 91 14 12 90 92 16 14 91 93 18 16 92 94 20 18 93 95 22 20 94 96 24 22 95 97 26 24 96 98 28 26 97 99 30 28 98 100 32 30 99 101 34 32 100 102 36 34 101 103 38 36 102 104 40 38 103 105 42 40 104 106 44 42 105 107 46 44 106 108 48 46 107 109 50 48 108 110 52 50 109 111 54 52 110 112 56 54 111 113 58 56 112 114 60 58 113 115 62 60 114 116 64 62 115 117 66 64 116 118 68 66 117 119 70 68 118 120 72 70 119 121 74 72 120 122 76 74 121 123 78 76 122 124 80 78 123 125 82 
				</DataArray>
				<DataArray type="Int32" Name="offsets" format="ascii">
					8 16 24 32 40 48 56 64 72 80 88 96 104 112 120 128 136 144 152 160 168 176 184 192 200 208 216 224 232 240 248 256 264 272 280 288 296 304 312 320 
				</DataArray>
				<DataArray type="UInt8" Name="types" format="ascii">
					12 12 12 12 12 12 12 12 12 12 12 12 12 12 12 12 12 12 12 12 12 12 12 12 12 12 12 12 12 12 12 12 12 12 12 12 12 12 12 12 
				</DataArray>
			</Cells>
			<PointData>
				<DataArray type="Float32" Name="U" NumberOfComponents="3" ComponentName0="D1" ComponentName1="D2" ComponentName2="D3" format="ascii">
					 0.00000000E+00	 0.00000000E+00	 0.00000000E+00
					 0.00000000E+00	 0.00000000E+00	 0.00000000E+00
					 1.28191000E-04	 0.00000000E+00	 1.75746000E-04
					-2.23164000E-04	 0.00000000E+00	 7.65560000E-05
					 0.00000000E+00	 0.00000000E+00	 0.00000000E+00
					 0.00000000E+00	 0.00000000E+00	 0.00000000E+00
					 1.28191000E-04	 0.00000000E+00	 1.75746000E-04
					-2.23164000E-04	 0.00000000E+00	 7.65560000E-05
					 2.75630000E-04	 0.00000000E+00	 1.19788000E-04
					 2.30098000E-05	 0.00000000E+00	-6.88351000E-04
					 2.75630000E-04	 0.00000000E+00	 1.19788000E-04
					 2.30098000E-05	 0.00000000E+00	-6.88351000E-04
					 3.75721000E-04	 0.00000000E+00	 1.42547000E-04
					 5.66824000E-04	 0.00000000E+00	-2.05448000E-04
					 3.75721000E-04	 0.00000000E+00	 1.42547000E-04
					 5.66824000E-04	 0.00000000E+00	-2.05448000E-04
					 4.29584000E-04	 0.00000000E+00	 1.73075000E-04
					 3.39984000E-04	 0.00000000E+00	-9.66986000E-05
					 4.29584000E-04	 0.00000000E+00	 1.73075000E-04
					 3.39984000E-04	 0.00000000E+00	-9.66986000E-05
					 4.45978000E-04	 0.00000000E+00	 6.55392000E-04
					 6.83983000E-04	 0.00000000E+00	-2.39569000E-04
					 4.45978000E-04	 0.00000000E+00	 6.55392000E-04
					 6.83983000E-04	 0.00000000E+00	-2.39569000E-04
					 4.27381000E-04	 0.00000000E+00	 2.90939000E-04
					 8.91957000E-04	 0.00000000E+00	 4.40668000E-04
					 4.27381000E-04	 0.00000000E+00	 2.90939000E-04
					 8.91957000E-04	 0.00000000E+00	 4.40668000E-04
					 3.90285000E-04	 0.00000000E+00	 5.68789000E-05
					 2.51284000E-04	 0.00000000E+00	 6.19121000E-04
					 3.90285000E-04	 0.00000000E+00	 5.68789000E-05
					 2.51284000E-04	 0.00000000E+00	 6.19121000E-04
					 3.64416000E-04	 0.00000000E+00	 8.46913000E-04
					-1.40933000E-04	 0.00000000E+00	 4.84888000E-04
					 3.64416000E-04	 0.00000000E+00	 8.46913000E-04
					-1.40933000E-04	 0.00000000E+00	 4.84888000E-04
					 3.50092000E-04	 0.00000000E+00	 5.54235000E-04
					 1.08633000E-03	 0.00000000E+00	 2.80221000E-05
					 3.50092000E-04	 0.00000000E+00	 5.54235000E-04
					 1.08633000E-03	 0.00000000E+00	 2.80221000E-05
					 3.36783000E-04	 0.00000000E+00	 1.65140000E-04
					 4.33473000E-04	 0.00000000E+00	 3.31005000E-04
					 3.36783000E-04	 0.00000000E+00	 1.65140000E-04
					 4.33473000E-04	 0.00000000E+00	 3.31005000E-04
					 3.18167000E-04	 0.00000000E+00	 5.29400000E-04
					-6.17684000E-05	 0.00000000E+00	 7.72727000E-04
					 3.18167000E-04	 0.00000000E+00	 5.29400000E-04
					-6.17684000E-05	 0.00000000E+00	 7.72727000E-04
					 2.86866000E-04	 0.00000000E+00	 5.85278000E-04
					 7.56801000E-04	 0.00000000E+00	 7.24869000E-04
					 2.86866000E-04	 0.00000000E+00	 5.85278000E-04
					 7.56801000E-04	 0.00000000E+00	 7.24869000E-04
					 2.55626000E-04	 0.00000000E+00	-8.73442000E-05
					 2.35102000E-04	 0.00000000E+00	 3.85888000E-04
					 2.55626000E-04	 0.00000000E+00	-8.73442000E-05
					 2.35102000E-04	 0.00000000E+00	 3.85888000E-04
					 2.32363000E-04	 0.00000000E+00	 5.81202000E-04
					-1.38075000E-04	 0.00000000E+00	 3.36810000E-04
					 2.32363000E-04	 0.00000000E+00	 5.81202000E-04
					-1.38075000E-04	 0.00000000E+00	 3.36810000E-04
					 1.96979000E-04	 0.00000000E+00	 6.34736000E-04
					 7.32435000E-04	 0.00000000E+00	 7.45012000E-04
					 1.96979000E-04	 0.00000000E+00	 6.34736000E-04
					 7.32435000E-04	 0.00000000E+00	 7.45012000E-04
					 1.55681000E-04	 0.00000000E+00	 2.14544000E-04
					 7.15495000E-04	 0.00000000E+00	 7.90614000E-04
					 1.55681000E-04	 0.00000000E+00	 2.14544000E-04
					 7.15495000E-04	 0.00000000E+00	 7.90614000E-04
					 1.29946000E-04	 0.00000000E+00	 1.19697000E-04
					-1.27176000E-04	 0.00000000E+00	 7.52136000E-04
					 1.29946000E-04	 0.00000000E+00	 1.19697000E-04
					-1.27176000E-04	 0.00000000E+00	 7.52136000E-04
					 9.36129000E-05	 0.00000000E+00	 5.62591000E-04
					-1.26077000E-04	 0.00000000E+00	 7.42187000E-04
					 9.36129000E-05	 0.00000000E+00	 5.62591000E-04
					-1.26077000E-04	 0.00000000E+00	 7.42187000E-04
					 5.15077000E-05	 0.00000000E+00	 3.85223000E-04
					 9.50658000E-05	 0.00000000E+00	 7.23350000E-04
					 5.15077000E-05	 0.00000000E+00	 3.85223000E-04
					 9.50658000E-05	 0.00000000E+00	 7.23350000E-04
					 8.72195000E-06	 0.00000000E+00	 1.89768000E-04
					-7.87596000E-05	 0.00000000E+00	 5.32799000E-04
					 8.72195000E-06	 0.00000000E+00	 1.89768000E-04
					-7.87596000E-05	 0.00000000E+00	 5.32799000E-04
					 0.00000000E+00	 0.00000000E+00	 0.00000000E+00
					 5.12244000E-04	 0.00000000E+00	 2.26993000E-04
					 0.00000000E+00	 0.00000000E+00	 0.00000000E+00
					 5.12244000E-04	 0.00000000E+00	 2.26993000E-04
					 5.13718000E-04	 0.00000000E+00	-5.11200000E-04
					 5.13718000E-04	 0.00000000E+00	-5.11200000E-04
					 1.70158000E-04	 0.00000000E+00	-7.58537000E-05
					 1.70158000E-04	 0.00000000E+00	-7.58537000E-05
					 5.15812000E-04	 0.00000000E+00	-2.71673000E-05
					 5.15812000E-04	 0.00000000E+00	-2.71673000E-05
					 2.03187000E-04	 0.00000000E+00	-2.27174000E-04
					 2.03187000E-04	 0.00000000E+00	-2.27174000E-04
					-3.98552000E-05	 0.00000000E+00	 4.11680000E-04
					-3.98552000E-05	 0.00000000E+00	 4.11680000E-04
					 5.33681000E-04	 0.00000000E+00	 5.74919000E-04
					 5.33681000E-04	 0.00000000E+00	 5.74919000E-04
					 8.74448000E-04	 0.00000000E+00	 4.42845000E-04
					 8.74448000E-04	 0.00000000E+00	 4.42845000E-04
					-3.80852000E-04	 0.00000000E+00	-3.01497000E-06
					-3.80852000E-04	 0.00000000E+00	-3.01497000E-06
					 2.42812000E-04	 0.00000000E+00	 2.92466000E-04
					 2.42812000E-04	 0.00000000E+00	 2.92466000E-04
					 6.99982000E-04	 0.00000000E+00	 7.29521000E-04
					 6.99982000E-04	 0.00000000E+00	 7.29521000E-04
					-1.84249000E-04	 0.00000000E+00	 6.70394000E-04
					-1.84249000E-04	 0.00000000E+00	 6.70394000E-04
					 2.82079000E-04	 0.00000000E+00	 3.30222000E-04
					 2.82079000E-04	 0.00000000E+00	 3.30222000E-04
					 5.93544000E-04	 0.00000000E+00	 2.78967000E-04
					 5.93544000E-04	 0.00000000E+00	 2.78967000E-04
					-3.34951000E-04	 0.00000000E+00	 6.79696000E-04
					-3.34951000E-04	 0.00000000E+00	 6.79696000E-04
					-3.90320000E-04	 0.00000000E+00	 7.21672000E-04
					-3.90320000E-04	 0.00000000E+00	 7.21672000E-04
					 3.67216000E-04	 0.00000000E+00	 6.79951000E-04
					 3.67216000E-04	 0.00000000E+00	 6.79951000E-04
					 2.89926000E-04	 0.00000000E+00	 6.75791000E-04
					 2.89926000E-04	 0.00000000E+00	 6.75791000E-04
					-9.95407000E-06	 0.00000000E+00	 6.48902000E-04
					-9.95407000E-06	 0.00000000E+00	 6.48902000E-04
					 1.05752000E-04	 0.00000000E+00	 4.72187000E-04
					 1.05752000E-04	 0.00000000E+00	 4.72187000E-04
				</DataArray>
			</PointData>
		</Piece>
	</UnstructuredGrid>
</VTKFile>