<?xml version="1.0"?>
<VTKFile type="UnstructuredGrid" version="0.1" byte_order="LittleEndian">
	<UnstructuredGrid>
		<Piece NumberOfPoints="126" NumberOfCells="40">
			<Points>
				<DataArray type="Float64" NumberOfComponents="3" format="ascii">
					 5.00000000E-02	 0.00000000E+00	 0.00000000E+00
					 0.00000000E+00	 0.00000000E+00	 0.00000000E+00
					 0.00000000E+00	 0.00000000E+00	 5.00000000E-02
					 5.00000000E-02	 0.00000000E+00	 5.00000000E-02
					 5.00000000E-02	 3.00000000E-01	 0.00000000E+00
					 0.00000000E+00	 3.00000000E-01	 0.00000000E+00
					 0.00000000E+00	 3.00000000E-01	 5.00000000E-02
					 5.00000000E-02	 3.00000000E-01	 5.00000000E-02
					 0.00000000E+00	 0.00000000E+00	 1.00000000E-01
					 5.00000000E-02	 0.00000000E+00	 1.00000000E-01
					 0.00000000E+00	 3.00000000E-01	 1.00000000E-01
					 5.00000000E-02	 3.00000000E-01	 1.00000000E-01
					 0.00000000E+00	 0.00000000E+00	 1.50000000E-01
					 5.00000000E-02	 0.00000000E+00	 1.50000000E-01
					 0.00000000E+00	 3.00000000E-01	 1.50000000E-01
					 5.00000000E-02	 3.00000000E-01	 1.50000000E-01
					 0.00000000E+00	 0.00000000E+00	 2.00000000E-01
					 5.00000000E-02	 0.00000000E+00	 2.00000000E-01
					 0.00000000E+00	 3.00000000E-01	 2.00000000E-01
					 5.00000000E-02	 3.00000000E-01	 2.00000000E-01
					 0.00000000E+00	 0.00000000E+00	 2.50000000E-01
					 5.00000000E-02	 0.00000000E+00	 2.50000000E-01
					 0.00000000E+00	 3.00000000E-01	 2.50000000E-01
					 5.00000000E-02	 3.00000000E-01	 2.50000000E-01
					 0.00000000E+00	 0.00000000E+00	 3.00000000E-01
					 5.00000000E-02	 0.00000000E+00	 3.00000000E-01
					 0.00000000E+00	 3.00000000E-01	 3.00000000E-01
					 5.00000000E-02	 3.00000000E-01	 3.00000000E-01
					 0.00000000E+00	 0.00000000E+00	 3.50000000E-01
					 5.00000000E-02	 0.00000000E+00	 3.50000000E-01
					 0.00000000E+00	 3.00000000E-01	 3.50000000E-01
					 5.00000000E-02	 3.00000000E-01	 3.50000000E-01
					 0.00000000E+00	 0.00000000E+00	 4.00000000E-01
					 5.00000000E-02	 0.00000000E+00	 4.00000000E-01
					 0.00000000E+00	 3.00000000E-01	 4.00000000E-01
					 5.00000000E-02	 3.00000000E-01	 4.00000000E-01
					 0.00000000E+00	 0.00000000E+00	 4.50000000E-01
					 5.00000000E-02	 0.00000000E+00	 4.50000000E-01
					 0.00000000E+00	 3.00000000E-01	 4.50000000E-01
					 5.00000000E-02	 3.00000000E-01	 4.50000000E-01
					 0.00000000E+00	 0.00000000E+00	 5.00000000E-01
					 5.00000000E-02	 0.00000000E+00	 5.00000000E-01
					 0.00000000E+00	 3.00000000E-01	 5.00000000E-01
					 5.00000000E-02	 3.00000000E-01	 5.00000000E-01
					 0.00000000E+00	 0.00000000E+00	 5.50000000E-01
					 5.00000000E-02	 0.00000000E+00	 5.50000000E-01
					 0.00000000E+00	 3.00000000E-01	 5.50000000E-01
					 5.00000000E-02	 3.00000000E-01	 5.50000000E-01
					 0.00000000E+00	 0.00000000E+00	 6.00000000E-01
					 5.00000000E-02	 0.00000000E+00	 6.00000000E-01
					 0.00000000E+00	 3.00000000E-01	 6.00000000E-01
					 5.00000000E-02	 3.00000000E-01	 6.00000000E-01
					 0.00000000E+00	 0.00000000E+00	 6.50000000E-01
					 5.00000000E-02	 0.00000000E+00	 6.50000000E-01
					 0.00000000E+00	 3.00000000E-01	 6.50000000E-01
					 5.00000000E-02	 3.00000000E-01	 6.50000000E-01
					 0.00000000E+00	 0.00000000E+00	 7.00000000E-01
					 5.00000000E-02	 0.00000000E+00	 7.00000000E-01
					 0.00000000E+00	 3.00000000E-01	 7.00000000E-01
					 5.00000000E-02	 3.00000000E-01	 7.00000000E-01
					 0.00000000E+00	 0.00000000E+00	 7.50000000E-01
					 5.00000000E-02	 0.00000000E+00	 7.50000000E-01
					 0.00000000E+00	 3.00000000E-01	 7.50000000E-01
					 5.00000000E-02	 3.00000000E-01	 7.50000000E-01
					 0.00000000E+00	 0.00000000E+00	 8.00000000E-01
					 5.00000000E-02	 0.00000000E+00	 8.00000000E-01
					 0.00000000E+00	 3.00000000E-01	 8.00000000E-01
					 5.00000000E-02	 3.00000000E-01	 8.00000000E-01
					 0.00000000E+00	 0.00000000E+00	 8.50000000E-01
					 5.00000000E-02	 0.00000000E+00	 8.50000000E-01
					 0.00000000E+00	 3.00000000E-01	 8.50000000E-01
					 5.00000000E-02	 3.00000000E-01	 8.50000000E-01
					 0.00000000E+00	 0.00000000E+00	 9.00000000E-01
					 5.00000000E-02	 0.00000000E+00	 9.00000000E-01
					 0.00000000E+00	 3.00000000E-01	 9.00000000E-01
					 5.00000000E-02	 3.00000000E-01	 9.00000000E-01
					 0.00000000E+00	 0.00000000E+00	 9.50000000E-01
					 5.00000000E-02	 0.00000000E+00	 9.50000000E-01
					 0.00000000E+00	 3.00000000E-01	 9.50000000E-01
					 5.00000000E-02	 3.00000000E-01	 9.50000000E-01
					 0.00000000E+00	 0.00000000E+00	 1.00000000E+00
					 5.00000000E-02	 0.00000000E+00	 1.00000000E+00
					 0.00000000E+00	 3.00000000E-01	 1.00000000E+00
					 5.00000000E-02	 3.00000000E-01	 1.00000000E+00
					-5.00000000E-02	 0.00000000E+00	 0.00000000E+00
					-5.00000000E-02	 0.00000000E+00	 5.00000000E-02
					-5.00000000E-02	 3.00000000E-01	 0.00000000E+00
					-5.00000000E-02	 3.00000000E-01	 5.00000000E-02
					-5.00000000E-02	 0.00000000E+00	 1.00000000E-01
					-5.00000000E-02	 3.00000000E-01	 1.00000000E-01
					-5.00000000E-02	 0.00000000E+00	 1.50000000E-01
					-5.00000000E-02	 3.00000000E-01	 1.50000000E-01
					-5.00000000E-02	 0.00000000E+00	 2.00000000E-01
					-5.00000000E-02	 3.00000000E-01	 2.00000000E-01
					-5.00000000E-02	 0.00000000E+00	 2.50000000E-01
					-5.00000000E-02	 3.00000000E-01	 2.50000000E-01
					-5.00000000E-02	 0.00000000E+00	 3.00000000E-01
					-5.00000000E-02	 3.00000000E-01	 3.00000000E-01
					-5.00000000E-02	 0.00000000E+00	 3.50000000E-01
					-5.00000000E-02	 3.00000000E-01	 3.50000000E-01
					-5.00000000E-02	 0.00000000E+00	 4.00000000E-01
					-5.00000000E-02	 3.00000000E-01	 4.00000000E-01
					-5.00000000E-02	 0.00000000E+00	 4.50000000E-01
					-5.00000000E-02	 3.00000000E-01	 4.50000000E-01
					-5.00000000E-02	 0.00000000E+00	 5.00000000E-01
					-5.00000000E-02	 3.00000000E-01	 5.00000000E-01
					-5.00000000E-02	 0.00000000E+00	 5.50000000E-01
					-5.00000000E-02	 3.00000000E-01	 5.50000000E-01
					-5.00000000E-02	 0.00000000E+00	 6.00000000E-01
					-5.00000000E-02	 3.00000000E-01	 6.00000000E-01
					-5.00000000E-02	 0.00000000E+00	 6.50000000E-01
					-5.00000000E-02	 3.00000000E-01	 6.50000000E-01
					-5.00000000E-02	 0.00000000E+00	 7.00000000E-01
					-5.00000000E-02	 3.00000000E-01	 7.00000000E-01
					-5.00000000E-02	 0.00000000E+00	 7.50000000E-01
					-5.00000000E-02	 3.00000000E-01	 7.50000000E-01
					-5.00000000E-02	 0.00000000E+00	 8.00000000E-01
					-5.00000000E-02	 3.00000000E-01	 8.00000000E-01
					-5.00000000E-02	 0.00000000E+00	 8.50000000E-01
					-5.00000000E-02	 3.00000000E-01	 8.50000000E-01
					-5.00000000E-02	 0.00000000E+00	 9.00000000E-01
					-5.00000000E-02	 3.00000000E-01	 9.00000000E-01
					-5.00000000E-02	 0.00000000E+00	 9.50000000E-01
					-5.00000000E-02	 3.00000000E-01	 9.50000000E-01
					-5.00000000E-02	 0.00000000E+00	 1.00000000E+00
					-5.00000000E-02	 3.00000000E-01	 1.00000000E+00
				</DataArray>
			</Points>
			<Cells>
				<DataArray type="Int32" Name="connectivity" format="ascii">
					0 1 2 3 4 5 6 7 3 2 8 9 7 6 10 11 9 8 12 13 11 10 14 15 13 12 16 17 15 14 18 19 17 16 20 21 19 18 22 23 21 20 24 25 23 22 26 27 25 24 28 29 27 26 30 31 29 28 32 33 31 30 34 35 33 32 36 37 35 34 38 39 37 36 40 41 39 38 42 43 41 40 44 45 43 42 46 47 45 44 48 49 47 46 50 51 49 48 52 53 51 50 54 55 53 52 56 57 55 54 58 59 57 56 60 61 59 58 62 63 61 60 64 65 63 62 66 67 65 64 68 69 67 66 70 71 69 68 72 73 71 70 74 75 73 72 76 77 75 74 78 79 77 76 80 81 79 78 82 83 1 84 85 2 5 86 87 6 2 85 88 8 6 87 89 10 8 88 90 12 10 89 91 14 12 90 92 16 14 91 93 18 16 92 94 20 18 93 95 22 20 94 96 24 22 95 97 26 24 96 98 28 26 97 99 30 28 98 100 32 30 99 101 34 32 100 102 36 34 101 103 38 36 102 104 40 38 103 105 42 40 104 106 44 42 105 107 46 44 106 108 48 46 107 109 50 48 108 110 52 50 109 111 54 52 110 112 56 54 111 113 58 56 112 114 60 58 113 115 62 60 114 116 64 62 115 117 66 64 116 118 68 66 117 119 70 68 118 120 72 70 119 121 74 72 120 122 76 74 121 123 78 76 122 124 80 78 123 125 82 
				</DataArray>
				<DataArray type="Int32" Name="offsets" format="ascii">
					8 16 24 32 40 48 56 64 72 80 88 96 104 112 120 128 136 144 152 160 168 176 184 192 200 208 216 224 232 240 248 256 264 272 280 288 296 304 312 320 
				</DataArray>
				<DataArray type="UInt8" Name="types" format="ascii">
					12 12 12 12 12 12 12 12 12 12 12 12 12 12 12 12 12 12 12 12 12 12 12 12 12 12 12 12 12 12 12 12 12 12 12 12 12 12 12 12 
				</DataArray>
			</Cells>
			<PointData>
				<DataArray type="Float32" Name="U" NumberOfComponents="3" ComponentName0="D1" ComponentName1="D2" ComponentName2="D3" format="ascii">
					 0.00000000E+00	 0.00000000E+00	 0.00000000E+00
					 0.00000000E+00	 0.00000000E+00	 0.00000000E+00
					 1.22928000E-03	 0.00000000E+00	 1.05445000E-02
					-5.11125000E-02	 0.00000000E+00	-6.36186000E-03
					 0.00000000E+00	 0.00000000E+00	 0.00000000E+00
					 0.00000000E+00	 0.00000000E+00	 0.00000000E+00
					 1.22928000E-03	 0.00000000E+00	 1.05445000E-02
					-5.11125000E-02	 0.00000000E+00	-6.36186000E-03
					 3.73126000E-02	 0.00000000E+00	 3.12570000E-03
					-7.79884000E-03	 0.00000000E+00	-2.80674000E-02
					 3.73126000E-02	 0.00000000E+00	 3.12570000E-03
					-7.79886000E-03	 0.00000000E+00	-2.80674000E-02
					 7.40661000E-02	 0.00000000E+00	-1.23019000E-02
					 3.78404000E-02	 0.00000000E+00	-4.45341000E-02
					 7.40661000E-02	 0.00000000E+00	-1.23019000E-02
					 3.78404000E-02	 0.00000000E+00	-4.45341000E-02
					 1.12442000E-01	 0.00000000E+00	-1.77277000E-02
					 7.56653000E-02	 0.00000000E+00	-6.15145000E-02
					 1.12442000E-01	 0.00000000E+00	-1.77277000E-02
					 7.56653000E-02	 0.00000000E+00	-6.15145000E-02
					 1.44490000E-01	 0.00000000E+00	-2.98879000E-02
					 8.98421000E-02	 0.00000000E+00	-5.06072000E-02
					 1.44490000E-01	 0.00000000E+00	-2.98879000E-02
					 8.98421000E-02	 0.00000000E+00	-5.06072000E-02
					 1.89096000E-01	 0.00000000E+00	-6.01276000E-02
					 1.26436000E-01	 0.00000000E+00	-5.51234000E-02
					 1.89096000E-01	 0.00000000E+00	-6.01276000E-02
					 1.26436000E-01	 0.00000000E+00	-5.51234000E-02
					 1.97483000E-01	 0.00000000E+00	-5.27173000E-02
					 8.72415000E-02	 0.00000000E+00	-5.48018000E-02
					 1.97483000E-01	 0.00000000E+00	-5.27173000E-02
					 8.72415000E-02	 0.00000000E+00	-5.48018000E-02
					 1.89369000E-01	 0.00000000E+00	-4.67295000E-02
					 1.27782000E-01	 0.00000000E+00	-6.99274000E-02
					 1.89369000E-01	 0.00000000E+00	-4.67295000E-02
					 1.27782000E-01	 0.00000000E+00	-6.99274000E-02
					 2.05468000E-01	 0.00000000E+00	-4.15504000E-02
					 1.21403000E-01	 0.00000000E+00	-6.13148000E-02
					 2.05468000E-01	 0.00000000E+00	-4.15504000E-02
					 1.21403000E-01	 0.00000000E+00	-6.13148000E-02
					 2.07010000E-01	 0.00000000E+00	-3.00499000E-02
					 1.13667000E-01	 0.00000000E+00	-5.80244000E-02
					 2.07010000E-01	 0.00000000E+00	-3.00499000E-02
					 1.13667000E-01	 0.00000000E+00	-5.80244000E-02
					 1.86965000E-01	 0.00000000E+00	-4.16768000E-02
					 1.05683000E-01	 0.00000000E+00	-4.25292000E-02
					 1.86965000E-01	 0.00000000E+00	-4.16768000E-02
					 1.05683000E-01	 0.00000000E+00	-4.25292000E-02
					 1.63398000E-01	 0.00000000E+00	-3.58495000E-02
					 7.06124000E-02	 0.00000000E+00	-5.87035000E-02
					 1.63398000E-01	 0.00000000E+00	-3.58495000E-02
					 7.06124000E-02	 0.00000000E+00	-5.87035000E-02
					 1.35968000E-01	 0.00000000E+00	-3.97239000E-02
					 4.35511000E-02	 0.00000000E+00	-9.97810000E-02
					 1.35968000E-01	 0.00000000E+00	-3.97239000E-02
					 4.35511000E-02	 0.00000000E+00	-9.97810000E-02
					 5.47602000E-02	 0.00000000E+00	-9.82794000E-02
					 3.72036000E-02	 0.00000000E+00	-1.06264000E-01
					 5.47602000E-02	 0.00000000E+00	-9.82794000E-02
					 3.72036000E-02	 0.00000000E+00	-1.06264000E-01
					 3.95770000E-02	 0.00000000E+00	-1.02386000E-01
					 2.18646000E-02	 0.00000000E+00	-8.96575000E-02
					 3.95770000E-02	 0.00000000E+00	-1.02386000E-01
					 2.18646000E-02	 0.00000000E+00	-8.96575000E-02
					 6.10678000E-03	 0.00000000E+00	-1.00328000E-01
					 1.52771000E-03	 0.00000000E+00	-1.13499000E-01
					 6.10678000E-03	 0.00000000E+00	-1.00328000E-01
					 1.52771000E-03	 0.00000000E+00	-1.13499000E-01
					 7.04052000E-03	 0.00000000E+00	-1.01090000E-01
					-6.66281000E-03	 0.00000000E+00	-1.03635000E-01
					 7.04052000E-03	 0.00000000E+00	-1.01090000E-01
					-6.66281000E-03	 0.00000000E+00	-1.03635000E-01
					 5.42723000E-02	 0.00000000E+00	-1.44571000E-01
					 2.05645000E-02	 0.00000000E+00	-1.29074000E-01
					 5.42723000E-02	 0.00000000E+00	-1.44571000E-01
					 2.05645000E-02	 0.00000000E+00	-1.29074000E-01
					 5.38197000E-02	 0.00000000E+00	-1.27272000E-01
					 3.91911000E-02	 0.00000000E+00	-1.36494000E-01
					 5.38197000E-02	 0.00000000E+00	-1.27272000E-01
					 3.91911000E-02	 0.00000000E+00	-1.36494000E-01
					 3.01200000E-02	 0.00000000E+00	-1.35170000E-01
					 3.84781000E-02	 0.00000000E+00	-1.36478000E-01
					 3.01200000E-02	 0.00000000E+00	-1.35170000E-01
					 3.84781000E-02	 0.00000000E+00	-1.36478000E-01
					 0.00000000E+00	 0.00000000E+00	 0.00000000E+00
					 7.43258000E-02	 0.00000000E+00	-2.75295000E-02
					 0.00000000E+00	 0.00000000E+00	 0.00000000E+00
					 7.43258000E-02	 0.00000000E+00	-2.75295000E-02
					 1.15501000E-01	 0.00000000E+00	-4.60514000E-02
					 1.15501000E-01	 0.00000000E+00	-4.60514000E-02
					 1.43554000E-01	 0.00000000E+00	-3.21262000E-02
					 1.43554000E-01	 0.00000000E+00	-3.21262000E-02
					 2.09463000E-01	 0.00000000E+00	-5.15561000E-02
					 2.09463000E-01	 0.00000000E+00	-5.15561000E-02
					 2.10874000E-01	 0.00000000E+00	-5.63198000E-02
					 2.10874000E-01	 0.00000000E+00	-5.63197000E-02
					 2.74658000E-01	 0.00000000E+00	-6.52565000E-02
					 2.74658000E-01	 0.00000000E+00	-6.52565000E-02
					 2.94018000E-01	 0.00000000E+00	-4.66514000E-02
					 2.94018000E-01	 0.00000000E+00	-4.66514000E-02
					 2.98554000E-01	 0.00000000E+00	-5.64678000E-02
					 2.98554000E-01	 0.00000000E+00	-5.64678000E-02
					 2.95515000E-01	 0.00000000E+00	-4.76954000E-02
					 2.95515000E-01	 0.00000000E+00	-4.76954000E-02
					 2.85182000E-01	 0.00000000E+00	-3.72704000E-02
					 2.85182000E-01	 0.00000000E+00	-3.72704000E-02
					 2.82173000E-01	 0.00000000E+00	-3.92170000E-03
					 2.82173000E-01	 0.00000000E+00	-3.92170000E-03
					 2.34913000E-01	 0.00000000E+00	-3.33296000E-02
					 2.34913000E-01	 0.00000000E+00	-3.33296000E-02
					 1.55551000E-01	 0.00000000E+00	-6.69062000E-02
					 1.55551000E-01	 0.00000000E+00	-6.69062000E-02
					 1.32889000E-01	 0.00000000E+00	-8.52142000E-02
					 1.32889000E-01	 0.00000000E+00	-8.52142000E-02
					 1.15938000E-01	 0.00000000E+00	-7.10466000E-02
					 1.15938000E-01	 0.00000000E+00	-7.10466000E-02
					 1.08151000E-01	 0.00000000E+00	-9.06631000E-02
					 1.08151000E-01	 0.00000000E+00	-9.06631000E-02
					 1.14776000E-01	 0.00000000E+00	-1.37629000E-01
					 1.14776000E-01	 0.00000000E+00	-1.37629000E-01
					 9.28529000E-02	 0.00000000E+00	-1.54275000E-01
					 9.28529000E-02	 0.00000000E+00	-1.54275000E-01
					 5.79733000E-02	 0.00000000E+00	-1.61619000E-01
					 5.79733000E-02	 0.00000000E+00	-1.61619000E-01
					 4.10219000E-02	 0.00000000E+00	-1.60968000E-01
					 4.10219000E-02	 0.00000000E+00	-1.60968000E-01
				</DataArray>
			</PointData>
		</Piece>
	</UnstructuredGrid>
</VTKFile>