<?xml version="1.0"?>
<VTKFile type="UnstructuredGrid" version="0.1" byte_order="LittleEndian">
	<UnstructuredGrid>
		<Piece NumberOfPoints="126" NumberOfCells="40">
			<Points>
				<DataArray type="Float64" NumberOfComponents="3" format="ascii">
					 5.00000000E-02	 0.00000000E+00	 0.00000000E+00
					 0.00000000E+00	 0.00000000E+00	 0.00000000E+00
					 0.00000000E+00	 0.00000000E+00	 5.00000000E-02
					 5.00000000E-02	 0.00000000E+00	 5.00000000E-02
					 5.00000000E-02	 3.00000000E-01	 0.00000000E+00
					 0.00000000E+00	 3.00000000E-01	 0.00000000E+00
					 0.00000000E+00	 3.00000000E-01	 5.00000000E-02
					 5.00000000E-02	 3.00000000E-01	 5.00000000E-02
					 0.00000000E+00	 0.00000000E+00	 1.00000000E-01
					 5.00000000E-02	 0.00000000E+00	 1.00000000E-01
					 0.00000000E+00	 3.00000000E-01	 1.00000000E-01
					 5.00000000E-02	 3.00000000E-01	 1.00000000E-01
					 0.00000000E+00	 0.00000000E+00	 1.50000000E-01
					 5.00000000E-02	 0.00000000E+00	 1.50000000E-01
					 0.00000000E+00	 3.00000000E-01	 1.50000000E-01
					 5.00000000E-02	 3.00000000E-01	 1.50000000E-01
					 0.00000000E+00	 0.00000000E+00	 2.00000000E-01
					 5.00000000E-02	 0.00000000E+00	 2.00000000E-01
					 0.00000000E+00	 3.00000000E-01	 2.00000000E-01
					 5.00000000E-02	 3.00000000E-01	 2.00000000E-01
					 0.00000000E+00	 0.00000000E+00	 2.50000000E-01
					 5.00000000E-02	 0.00000000E+00	 2.50000000E-01
					 0.00000000E+00	 3.00000000E-01	 2.50000000E-01
					 5.00000000E-02	 3.00000000E-01	 2.50000000E-01
					 0.00000000E+00	 0.00000000E+00	 3.00000000E-01
					 5.00000000E-02	 0.00000000E+00	 3.00000000E-01
					 0.00000000E+00	 3.00000000E-01	 3.00000000E-01
					 5.00000000E-02	 3.00000000E-01	 3.00000000E-01
					 0.00000000E+00	 0.00000000E+00	 3.50000000E-01
					 5.00000000E-02	 0.00000000E+00	 3.50000000E-01
					 0.00000000E+00	 3.00000000E-01	 3.50000000E-01
					 5.00000000E-02	 3.00000000E-01	 3.50000000E-01
					 0.00000000E+00	 0.00000000E+00	 4.00000000E-01
					 5.00000000E-02	 0.00000000E+00	 4.00000000E-01
					 0.00000000E+00	 3.00000000E-01	 4.00000000E-01
					 5.00000000E-02	 3.00000000E-01	 4.00000000E-01
					 0.00000000E+00	 0.00000000E+00	 4.50000000E-01
					 5.00000000E-02	 0.00000000E+00	 4.50000000E-01
					 0.00000000E+00	 3.00000000E-01	 4.50000000E-01
					 5.00000000E-02	 3.00000000E-01	 4.50000000E-01
					 0.00000000E+00	 0.00000000E+00	 5.00000000E-01
					 5.00000000E-02	 0.00000000E+00	 5.00000000E-01
					 0.00000000E+00	 3.00000000E-01	 5.00000000E-01
					 5.00000000E-02	 3.00000000E-01	 5.00000000E-01
					 0.00000000E+00	 0.00000000E+00	 5.50000000E-01
					 5.00000000E-02	 0.00000000E+00	 5.50000000E-01
					 0.00000000E+00	 3.00000000E-01	 5.50000000E-01
					 5.00000000E-02	 3.00000000E-01	 5.50000000E-01
					 0.00000000E+00	 0.00000000E+00	 6.00000000E-01
					 5.00000000E-02	 0.00000000E+00	 6.00000000E-01
					 0.00000000E+00	 3.00000000E-01	 6.00000000E-01
					 5.00000000E-02	 3.00000000E-01	 6.00000000E-01
					 0.00000000E+00	 0.00000000E+00	 6.50000000E-01
					 5.00000000E-02	 0.00000000E+00	 6.50000000E-01
					 0.00000000E+00	 3.00000000E-01	 6.50000000E-01
					 5.00000000E-02	 3.00000000E-01	 6.50000000E-01
					 0.00000000E+00	 0.00000000E+00	 7.00000000E-01
					 5.00000000E-02	 0.00000000E+00	 7.00000000E-01
					 0.00000000E+00	 3.00000000E-01	 7.00000000E-01
					 5.00000000E-02	 3.00000000E-01	 7.00000000E-01
					 0.00000000E+00	 0.00000000E+00	 7.50000000E-01
					 5.00000000E-02	 0.00000000E+00	 7.50000000E-01
					 0.00000000E+00	 3.00000000E-01	 7.50000000E-01
					 5.00000000E-02	 3.00000000E-01	 7.50000000E-01
					 0.00000000E+00	 0.00000000E+00	 8.00000000E-01
					 5.00000000E-02	 0.00000000E+00	 8.00000000E-01
					 0.00000000E+00	 3.00000000E-01	 8.00000000E-01
					 5.00000000E-02	 3.00000000E-01	 8.00000000E-01
					 0.00000000E+00	 0.00000000E+00	 8.50000000E-01
					 5.00000000E-02	 0.00000000E+00	 8.50000000E-01
					 0.00000000E+00	 3.00000000E-01	 8.50000000E-01
					 5.00000000E-02	 3.00000000E-01	 8.50000000E-01
					 0.00000000E+00	 0.00000000E+00	 9.00000000E-01
					 5.00000000E-02	 0.00000000E+00	 9.00000000E-01
					 0.00000000E+00	 3.00000000E-01	 9.00000000E-01
					 5.00000000E-02	 3.00000000E-01	 9.00000000E-01
					 0.00000000E+00	 0.00000000E+00	 9.50000000E-01
					 5.00000000E-02	 0.00000000E+00	 9.50000000E-01
					 0.00000000E+00	 3.00000000E-01	 9.50000000E-01
					 5.00000000E-02	 3.00000000E-01	 9.50000000E-01
					 0.00000000E+00	 0.00000000E+00	 1.00000000E+00
					 5.00000000E-02	 0.00000000E+00	 1.00000000E+00
					 0.00000000E+00	 3.00000000E-01	 1.00000000E+00
					 5.00000000E-02	 3.00000000E-01	 1.00000000E+00
					-5.00000000E-02	 0.00000000E+00	 0.00000000E+00
					-5.00000000E-02	 0.00000000E+00	 5.00000000E-02
					-5.00000000E-02	 3.00000000E-01	 0.00000000E+00
					-5.00000000E-02	 3.00000000E-01	 5.00000000E-02
					-5.00000000E-02	 0.00000000E+00	 1.00000000E-01
					-5.00000000E-02	 3.00000000E-01	 1.00000000E-01
					-5.00000000E-02	 0.00000000E+00	 1.50000000E-01
					-5.00000000E-02	 3.00000000E-01	 1.50000000E-01
					-5.00000000E-02	 0.00000000E+00	 2.00000000E-01
					-5.00000000E-02	 3.00000000E-01	 2.00000000E-01
					-5.00000000E-02	 0.00000000E+00	 2.50000000E-01
					-5.00000000E-02	 3.00000000E-01	 2.50000000E-01
					-5.00000000E-02	 0.00000000E+00	 3.00000000E-01
					-5.00000000E-02	 3.00000000E-01	 3.00000000E-01
					-5.00000000E-02	 0.00000000E+00	 3.50000000E-01
					-5.00000000E-02	 3.00000000E-01	 3.50000000E-01
					-5.00000000E-02	 0.00000000E+00	 4.00000000E-01
					-5.00000000E-02	 3.00000000E-01	 4.00000000E-01
					-5.00000000E-02	 0.00000000E+00	 4.50000000E-01
					-5.00000000E-02	 3.00000000E-01	 4.50000000E-01
					-5.00000000E-02	 0.00000000E+00	 5.00000000E-01
					-5.00000000E-02	 3.00000000E-01	 5.00000000E-01
					-5.00000000E-02	 0.00000000E+00	 5.50000000E-01
					-5.00000000E-02	 3.00000000E-01	 5.50000000E-01
					-5.00000000E-02	 0.00000000E+00	 6.00000000E-01
					-5.00000000E-02	 3.00000000E-01	 6.00000000E-01
					-5.00000000E-02	 0.00000000E+00	 6.50000000E-01
					-5.00000000E-02	 3.00000000E-01	 6.50000000E-01
					-5.00000000E-02	 0.00000000E+00	 7.00000000E-01
					-5.00000000E-02	 3.00000000E-01	 7.00000000E-01
					-5.00000000E-02	 0.00000000E+00	 7.50000000E-01
					-5.00000000E-02	 3.00000000E-01	 7.50000000E-01
					-5.00000000E-02	 0.00000000E+00	 8.00000000E-01
					-5.00000000E-02	 3.00000000E-01	 8.00000000E-01
					-5.00000000E-02	 0.00000000E+00	 8.50000000E-01
					-5.00000000E-02	 3.00000000E-01	 8.50000000E-01
					-5.00000000E-02	 0.00000000E+00	 9.00000000E-01
					-5.00000000E-02	 3.00000000E-01	 9.00000000E-01
					-5.00000000E-02	 0.00000000E+00	 9.50000000E-01
					-5.00000000E-02	 3.00000000E-01	 9.50000000E-01
					-5.00000000E-02	 0.00000000E+00	 1.00000000E+00
					-5.00000000E-02	 3.00000000E-01	 1.00000000E+00
				</DataArray>
			</Points>
			<Cells>
				<DataArray type="Int32" Name="connectivity" format="ascii">
					0 1 2 3 4 5 6 7 3 2 8 9 7 6 10 11 9 8 12 13 11 10 14 15 13 12 16 17 15 14 18 19 17 16 20 21 19 18 22 23 21 20 24 25 23 22 26 27 25 24 28 29 27 26 30 31 29 28 32 33 31 30 34 35 33 32 36 37 35 34 38 39 37 36 40 41 39 38 42 43 41 40 44 45 43 42 46 47 45 44 48 49 47 46 50 51 49 48 52 53 51 50 54 55 53 52 56 57 55 54 58 59 57 56 60 61 59 58 62 63 61 60 64 65 63 62 66 67 65 64 68 69 67 66 70 71 69 68 72 73 71 70 74 75 73 72 76 77 75 74 78 79 77 76 80 81 79 78 82 83 1 84 85 2 5 86 87 6 2 85 88 8 6 87 89 10 8 88 90 12 10 89 91 14 12 90 92 16 14 91 93 18 16 92 94 20 18 93 95 22 20 94 96 24 22 95 97 26 24 96 98 28 26 97 99 30 28 98 100 32 30 99 101 34 32 100 102 36 34 101 103 38 36 102 104 40 38 103 105 42 40 104 106 44 42 105 107 46 44 106 108 48 46 107 109 50 48 108 110 52 50 109 111 54 52 110 112 56 54 111 113 58 56 112 114 60 58 113 115 62 60 114 116 64 62 115 117 66 64 116 118 68 66 117 119 70 68 118 120 72 70 119 121 74 72 120 122 76 74 121 123 78 76 122 124 80 78 123 125 82 
				</DataArray>
				<DataArray type="Int32" Name="offsets" format="ascii">
					8 16 24 32 40 48 56 64 72 80 88 96 104 112 120 128 136 144 152 160 168 176 184 192 200 208 216 224 232 240 248 256 264 272 280 288 296 304 312 320 
				</DataArray>
				<DataArray type="UInt8" Name="types" format="ascii">
					12 12 12 12 12 12 12 12 12 12 12 12 12 12 12 12 12 12 12 12 12 12 12 12 12 12 12 12 12 12 12 12 12 12 12 12 12 12 12 12 
				</DataArray>
			</Cells>
			<PointData>
				<DataArray type="Float32" Name="U" NumberOfComponents="3" ComponentName0="D1" ComponentName1="D2" ComponentName2="D3" format="ascii">
					 0.00000000E+00	 0.00000000E+00	 0.00000000E+00
					 0.00000000E+00	 0.00000000E+00	 0.00000000E+00
					-5.73344000E-03	 0.00000000E+00	-5.89937000E-04
					-2.45492000E-02	 0.00000000E+00	 1.16063000E-02
					 0.00000000E+00	 0.00000000E+00	 0.00000000E+00
					 0.00000000E+00	 0.00000000E+00	 0.00000000E+00
					-5.73344000E-03	 0.00000000E+00	-5.89938000E-04
					-2.45492000E-02	 0.00000000E+00	 1.16063000E-02
					 3.52246000E-02	 0.00000000E+00	-8.45978000E-03
					-1.20611000E-02	 0.00000000E+00	-1.86518000E-02
					 3.52246000E-02	 0.00000000E+00	-8.45978000E-03
					-1.20611000E-02	 0.00000000E+00	-1.86517000E-02
					 7.21087000E-02	 0.00000000E+00	-6.75766000E-03
					 4.80862000E-02	 0.00000000E+00	-5.40952000E-02
					 7.21087000E-02	 0.00000000E+00	-6.75766000E-03
					 4.80862000E-02	 0.00000000E+00	-5.40952000E-02
					 1.09746000E-01	 0.00000000E+00	-1.68787000E-02
					 5.31643000E-02	 0.00000000E+00	-4.59575000E-02
					 1.09746000E-01	 0.00000000E+00	-1.68787000E-02
					 5.31643000E-02	 0.00000000E+00	-4.59575000E-02
					 1.34845000E-01	 0.00000000E+00	-2.71069000E-02
					 1.17862000E-01	 0.00000000E+00	-8.65936000E-02
					 1.34845000E-01	 0.00000000E+00	-2.71069000E-02
					 1.17862000E-01	 0.00000000E+00	-8.65936000E-02
					 2.03039000E-01	 0.00000000E+00	-5.01657000E-02
					 9.57614000E-02	 0.00000000E+00	-6.65089000E-02
					 2.03039000E-01	 0.00000000E+00	-5.01657000E-02
					 9.57614000E-02	 0.00000000E+00	-6.65089000E-02
					 1.85130000E-01	 0.00000000E+00	-4.92856000E-02
					 9.82341000E-02	 0.00000000E+00	-6.25878000E-02
					 1.85130000E-01	 0.00000000E+00	-4.92856000E-02
					 9.82341000E-02	 0.00000000E+00	-6.25878000E-02
					 2.13109000E-01	 0.00000000E+00	-5.90628000E-02
					 1.14150000E-01	 0.00000000E+00	-5.17773000E-02
					 2.13109000E-01	 0.00000000E+00	-5.90628000E-02
					 1.14150000E-01	 0.00000000E+00	-5.17773000E-02
					 2.01952000E-01	 0.00000000E+00	-4.38362000E-02
					 1.02897000E-01	 0.00000000E+00	-4.17951000E-02
					 2.01952000E-01	 0.00000000E+00	-4.38362000E-02
					 1.02897000E-01	 0.00000000E+00	-4.17951000E-02
					 1.93250000E-01	 0.00000000E+00	-4.10519000E-02
					 8.76534000E-02	 0.00000000E+00	-3.76660000E-02
					 1.93250000E-01	 0.00000000E+00	-4.10519000E-02
					 8.76534000E-02	 0.00000000E+00	-3.76660000E-02
					 1.74780000E-01	 0.00000000E+00	-2.97538000E-02
					 1.05359000E-01	 0.00000000E+00	-6.83708000E-02
					 1.74780000E-01	 0.00000000E+00	-2.97538000E-02
					 1.05359000E-01	 0.00000000E+00	-6.83708000E-02
					 1.53276000E-01	 0.00000000E+00	-4.85255000E-02
					 6.29118000E-02	 0.00000000E+00	-7.79867000E-02
					 1.53276000E-01	 0.00000000E+00	-4.85255000E-02
					 6.29118000E-02	 0.00000000E+00	-7.79867000E-02
					 1.12419000E-01	 0.00000000E+00	-4.94531000E-02
					 4.27131000E-02	 0.00000000E+00	-8.42508000E-02
					 1.12419000E-01	 0.00000000E+00	-4.94531000E-02
					 4.27131000E-02	 0.00000000E+00	-8.42508000E-02
					 4.93385000E-02	 0.00000000E+00	-8.75001000E-02
					 1.71665000E-02	 0.00000000E+00	-8.97770000E-02
					 4.93385000E-02	 0.00000000E+00	-8.75001000E-02
					 1.71665000E-02	 0.00000000E+00	-8.97770000E-02
					 1.66663000E-02	 0.00000000E+00	-9.14625000E-02
					 3.32874000E-02	 0.00000000E+00	-8.08854000E-02
					 1.66663000E-02	 0.00000000E+00	-9.14625000E-02
					 3.32874000E-02	 0.00000000E+00	-8.08854000E-02
					 1.67614000E-03	 0.00000000E+00	-9.87905000E-02
					 4.37912000E-04	 0.00000000E+00	-8.47902000E-02
					 1.67614000E-03	 0.00000000E+00	-9.87905000E-02
					 4.37912000E-04	 0.00000000E+00	-8.47902000E-02
					 6.56179000E-03	 0.00000000E+00	-9.75077000E-02
					-3.03635000E-03	 0.00000000E+00	-1.23437000E-01
					 6.56179000E-03	 0.00000000E+00	-9.75077000E-02
					-3.03635000E-03	 0.00000000E+00	-1.23437000E-01
					 6.42989000E-02	 0.00000000E+00	-1.13962000E-01
					 3.81972000E-02	 0.00000000E+00	-1.16294000E-01
					 6.42989000E-02	 0.00000000E+00	-1.13962000E-01
					 3.81972000E-02	 0.00000000E+00	-1.16294000E-01
					 4.16646000E-02	 0.00000000E+00	-1.22296000E-01
					 5.20793000E-02	 0.00000000E+00	-1.07526000E-01
					 4.16646000E-02	 0.00000000E+00	-1.22296000E-01
					 5.20793000E-02	 0.00000000E+00	-1.07526000E-01
					 3.18158000E-02	 0.00000000E+00	-1.25188000E-01
					 3.72978000E-02	 0.00000000E+00	-1.07091000E-01
					 3.18158000E-02	 0.00000000E+00	-1.25188000E-01
					 3.72978000E-02	 0.00000000E+00	-1.07091000E-01
					 0.00000000E+00	 0.00000000E+00	 0.00000000E+00
					 7.95360000E-02	 0.00000000E+00	-3.18517000E-02
					 0.00000000E+00	 0.00000000E+00	 0.00000000E+00
					 7.95360000E-02	 0.00000000E+00	-3.18517000E-02
					 1.33008000E-01	 0.00000000E+00	-2.77627000E-02
					 1.33008000E-01	 0.00000000E+00	-2.77627000E-02
					 1.62694000E-01	 0.00000000E+00	-2.41135000E-02
					 1.62694000E-01	 0.00000000E+00	-2.41135000E-02
					 1.83495000E-01	 0.00000000E+00	-4.12324000E-02
					 1.83495000E-01	 0.00000000E+00	-4.12324000E-02
					 2.37444000E-01	 0.00000000E+00	-6.60462000E-02
					 2.37444000E-01	 0.00000000E+00	-6.60462000E-02
					 2.47448000E-01	 0.00000000E+00	-5.13369000E-02
					 2.47448000E-01	 0.00000000E+00	-5.13369000E-02
					 2.97901000E-01	 0.00000000E+00	-5.84319000E-02
					 2.97901000E-01	 0.00000000E+00	-5.84319000E-02
					 2.79345000E-01	 0.00000000E+00	-4.23937000E-02
					 2.79345000E-01	 0.00000000E+00	-4.23937000E-02
					 2.87345000E-01	 0.00000000E+00	-3.57448000E-02
					 2.87345000E-01	 0.00000000E+00	-3.57448000E-02
					 3.09718000E-01	 0.00000000E+00	-1.95271000E-02
					 3.09718000E-01	 0.00000000E+00	-1.95271000E-02
					 2.52849000E-01	 0.00000000E+00	-2.92086000E-02
					 2.52849000E-01	 0.00000000E+00	-2.92086000E-02
					 2.07512000E-01	 0.00000000E+00	-3.89655000E-03
					 2.07512000E-01	 0.00000000E+00	-3.89655000E-03
					 1.47092000E-01	 0.00000000E+00	-8.76202000E-02
					 1.47092000E-01	 0.00000000E+00	-8.76202000E-02
					 1.25301000E-01	 0.00000000E+00	-5.80803000E-02
					 1.25301000E-01	 0.00000000E+00	-5.80803000E-02
					 1.21156000E-01	 0.00000000E+00	-7.22933000E-02
					 1.21156000E-01	 0.00000000E+00	-7.22933000E-02
					 9.46858000E-02	 0.00000000E+00	-8.18994000E-02
					 9.46858000E-02	 0.00000000E+00	-8.18994000E-02
					 1.16896000E-01	 0.00000000E+00	-1.30764000E-01
					 1.16896000E-01	 0.00000000E+00	-1.30764000E-01
					 8.00417000E-02	 0.00000000E+00	-1.36522000E-01
					 8.00417000E-02	 0.00000000E+00	-1.36522000E-01
					 5.18551000E-02	 0.00000000E+00	-1.34382000E-01
					 5.18551000E-02	 0.00000000E+00	-1.34382000E-01
					 2.13617000E-02	 0.00000000E+00	-1.53053000E-01
					 2.13617000E-02	 0.00000000E+00	-1.53053000E-01
				</DataArray>
			</PointData>
		</Piece>
	</UnstructuredGrid>
</VTKFile>