<?xml version="1.0"?>
<VTKFile type="UnstructuredGrid" version="0.1" byte_order="LittleEndian">
	<UnstructuredGrid>
		<Piece NumberOfPoints="126" NumberOfCells="40">
			<Points>
				<DataArray type="Float64" NumberOfComponents="3" format="ascii">
					 5.00000000E-02	 0.00000000E+00	 0.00000000E+00
					 0.00000000E+00	 0.00000000E+00	 0.00000000E+00
					 0.00000000E+00	 0.00000000E+00	 5.00000000E-02
					 5.00000000E-02	 0.00000000E+00	 5.00000000E-02
					 5.00000000E-02	 3.00000000E-01	 0.00000000E+00
					 0.00000000E+00	 3.00000000E-01	 0.00000000E+00
					 0.00000000E+00	 3.00000000E-01	 5.00000000E-02
					 5.00000000E-02	 3.00000000E-01	 5.00000000E-02
					 0.00000000E+00	 0.00000000E+00	 1.00000000E-01
					 5.00000000E-02	 0.00000000E+00	 1.00000000E-01
					 0.00000000E+00	 3.00000000E-01	 1.00000000E-01
					 5.00000000E-02	 3.00000000E-01	 1.00000000E-01
					 0.00000000E+00	 0.00000000E+00	 1.50000000E-01
					 5.00000000E-02	 0.00000000E+00	 1.50000000E-01
					 0.00000000E+00	 3.00000000E-01	 1.50000000E-01
					 5.00000000E-02	 3.00000000E-01	 1.50000000E-01
					 0.00000000E+00	 0.00000000E+00	 2.00000000E-01
					 5.00000000E-02	 0.00000000E+00	 2.00000000E-01
					 0.00000000E+00	 3.00000000E-01	 2.00000000E-01
					 5.00000000E-02	 3.00000000E-01	 2.00000000E-01
					 0.00000000E+00	 0.00000000E+00	 2.50000000E-01
					 5.00000000E-02	 0.00000000E+00	 2.50000000E-01
					 0.00000000E+00	 3.00000000E-01	 2.50000000E-01
					 5.00000000E-02	 3.00000000E-01	 2.50000000E-01
					 0.00000000E+00	 0.00000000E+00	 3.00000000E-01
					 5.00000000E-02	 0.00000000E+00	 3.00000000E-01
					 0.00000000E+00	 3.00000000E-01	 3.00000000E-01
					 5.00000000E-02	 3.00000000E-01	 3.00000000E-01
					 0.00000000E+00	 0.00000000E+00	 3.50000000E-01
					 5.00000000E-02	 0.00000000E+00	 3.50000000E-01
					 0.00000000E+00	 3.00000000E-01	 3.50000000E-01
					 5.00000000E-02	 3.00000000E-01	 3.50000000E-01
					 0.00000000E+00	 0.00000000E+00	 4.00000000E-01
					 5.00000000E-02	 0.00000000E+00	 4.00000000E-01
					 0.00000000E+00	 3.00000000E-01	 4.00000000E-01
					 5.00000000E-02	 3.00000000E-01	 4.00000000E-01
					 0.00000000E+00	 0.00000000E+00	 4.50000000E-01
					 5.00000000E-02	 0.00000000E+00	 4.50000000E-01
					 0.00000000E+00	 3.00000000E-01	 4.50000000E-01
					 5.00000000E-02	 3.00000000E-01	 4.50000000E-01
					 0.00000000E+00	 0.00000000E+00	 5.00000000E-01
					 5.00000000E-02	 0.00000000E+00	 5.00000000E-01
					 0.00000000E+00	 3.00000000E-01	 5.00000000E-01
					 5.00000000E-02	 3.00000000E-01	 5.00000000E-01
					 0.00000000E+00	 0.00000000E+00	 5.50000000E-01
					 5.00000000E-02	 0.00000000E+00	 5.50000000E-01
					 0.00000000E+00	 3.00000000E-01	 5.50000000E-01
					 5.00000000E-02	 3.00000000E-01	 5.50000000E-01
					 0.00000000E+00	 0.00000000E+00	 6.00000000E-01
					 5.00000000E-02	 0.00000000E+00	 6.00000000E-01
					 0.00000000E+00	 3.00000000E-01	 6.00000000E-01
					 5.00000000E-02	 3.00000000E-01	 6.00000000E-01
					 0.00000000E+00	 0.00000000E+00	 6.50000000E-01
					 5.00000000E-02	 0.00000000E+00	 6.50000000E-01
					 0.00000000E+00	 3.00000000E-01	 6.50000000E-01
					 5.00000000E-02	 3.00000000E-01	 6.50000000E-01
					 0.00000000E+00	 0.00000000E+00	 7.00000000E-01
					 5.00000000E-02	 0.00000000E+00	 7.00000000E-01
					 0.00000000E+00	 3.00000000E-01	 7.00000000E-01
					 5.00000000E-02	 3.00000000E-01	 7.00000000E-01
					 0.00000000E+00	 0.00000000E+00	 7.50000000E-01
					 5.00000000E-02	 0.00000000E+00	 7.50000000E-01
					 0.00000000E+00	 3.00000000E-01	 7.50000000E-01
					 5.00000000E-02	 3.00000000E-01	 7.50000000E-01
					 0.00000000E+00	 0.00000000E+00	 8.00000000E-01
					 5.00000000E-02	 0.00000000E+00	 8.00000000E-01
					 0.00000000E+00	 3.00000000E-01	 8.00000000E-01
					 5.00000000E-02	 3.00000000E-01	 8.00000000E-01
					 0.00000000E+00	 0.00000000E+00	 8.50000000E-01
					 5.00000000E-02	 0.00000000E+00	 8.50000000E-01
					 0.00000000E+00	 3.00000000E-01	 8.50000000E-01
					 5.00000000E-02	 3.00000000E-01	 8.50000000E-01
					 0.00000000E+00	 0.00000000E+00	 9.00000000E-01
					 5.00000000E-02	 0.00000000E+00	 9.00000000E-01
					 0.00000000E+00	 3.00000000E-01	 9.00000000E-01
					 5.00000000E-02	 3.00000000E-01	 9.00000000E-01
					 0.00000000E+00	 0.00000000E+00	 9.50000000E-01
					 5.00000000E-02	 0.00000000E+00	 9.50000000E-01
					 0.00000000E+00	 3.00000000E-01	 9.50000000E-01
					 5.00000000E-02	 3.00000000E-01	 9.50000000E-01
					 0.00000000E+00	 0.00000000E+00	 1.00000000E+00
					 5.00000000E-02	 0.00000000E+00	 1.00000000E+00
					 0.00000000E+00	 3.00000000E-01	 1.00000000E+00
					 5.00000000E-02	 3.00000000E-01	 1.00000000E+00
					-5.00000000E-02	 0.00000000E+00	 0.00000000E+00
					-5.00000000E-02	 0.00000000E+00	 5.00000000E-02
					-5.00000000E-02	 3.00000000E-01	 0.00000000E+00
					-5.00000000E-02	 3.00000000E-01	 5.00000000E-02
					-5.00000000E-02	 0.00000000E+00	 1.00000000E-01
					-5.00000000E-02	 3.00000000E-01	 1.00000000E-01
					-5.00000000E-02	 0.00000000E+00	 1.50000000E-01
					-5.00000000E-02	 3.00000000E-01	 1.50000000E-01
					-5.00000000E-02	 0.00000000E+00	 2.00000000E-01
					-5.00000000E-02	 3.00000000E-01	 2.00000000E-01
					-5.00000000E-02	 0.00000000E+00	 2.50000000E-01
					-5.00000000E-02	 3.00000000E-01	 2.50000000E-01
					-5.00000000E-02	 0.00000000E+00	 3.00000000E-01
					-5.00000000E-02	 3.00000000E-01	 3.00000000E-01
					-5.00000000E-02	 0.00000000E+00	 3.50000000E-01
					-5.00000000E-02	 3.00000000E-01	 3.50000000E-01
					-5.00000000E-02	 0.00000000E+00	 4.00000000E-01
					-5.00000000E-02	 3.00000000E-01	 4.00000000E-01
					-5.00000000E-02	 0.00000000E+00	 4.50000000E-01
					-5.00000000E-02	 3.00000000E-01	 4.50000000E-01
					-5.00000000E-02	 0.00000000E+00	 5.00000000E-01
					-5.00000000E-02	 3.00000000E-01	 5.00000000E-01
					-5.00000000E-02	 0.00000000E+00	 5.50000000E-01
					-5.00000000E-02	 3.00000000E-01	 5.50000000E-01
					-5.00000000E-02	 0.00000000E+00	 6.00000000E-01
					-5.00000000E-02	 3.00000000E-01	 6.00000000E-01
					-5.00000000E-02	 0.00000000E+00	 6.50000000E-01
					-5.00000000E-02	 3.00000000E-01	 6.50000000E-01
					-5.00000000E-02	 0.00000000E+00	 7.00000000E-01
					-5.00000000E-02	 3.00000000E-01	 7.00000000E-01
					-5.00000000E-02	 0.00000000E+00	 7.50000000E-01
					-5.00000000E-02	 3.00000000E-01	 7.50000000E-01
					-5.00000000E-02	 0.00000000E+00	 8.00000000E-01
					-5.00000000E-02	 3.00000000E-01	 8.00000000E-01
					-5.00000000E-02	 0.00000000E+00	 8.50000000E-01
					-5.00000000E-02	 3.00000000E-01	 8.50000000E-01
					-5.00000000E-02	 0.00000000E+00	 9.00000000E-01
					-5.00000000E-02	 3.00000000E-01	 9.00000000E-01
					-5.00000000E-02	 0.00000000E+00	 9.50000000E-01
					-5.00000000E-02	 3.00000000E-01	 9.50000000E-01
					-5.00000000E-02	 0.00000000E+00	 1.00000000E+00
					-5.00000000E-02	 3.00000000E-01	 1.00000000E+00
				</DataArray>
			</Points>
			<Cells>
				<DataArray type="Int32" Name="connectivity" format="ascii">
					0 1 2 3 4 5 6 7 3 2 8 9 7 6 10 11 9 8 12 13 11 10 14 15 13 12 16 17 15 14 18 19 17 16 20 21 19 18 22 23 21 20 24 25 23 22 26 27 25 24 28 29 27 26 30 31 29 28 32 33 31 30 34 35 33 32 36 37 35 34 38 39 37 36 40 41 39 38 42 43 41 40 44 45 43 42 46 47 45 44 48 49 47 46 50 51 49 48 52 53 51 50 54 55 53 52 56 57 55 54 58 59 57 56 60 61 59 58 62 63 61 60 64 65 63 62 66 67 65 64 68 69 67 66 70 71 69 68 72 73 71 70 74 75 73 72 76 77 75 74 78 79 77 76 80 81 79 78 82 83 1 84 85 2 5 86 87 6 2 85 88 8 6 87 89 10 8 88 90 12 10 89 91 14 12 90 92 16 14 91 93 18 16 92 94 20 18 93 95 22 20 94 96 24 22 95 97 26 24 96 98 28 26 97 99 30 28 98 100 32 30 99 101 34 32 100 102 36 34 101 103 38 36 102 104 40 38 103 105 42 40 104 106 44 42 105 107 46 44 106 108 48 46 107 109 50 48 108 110 52 50 109 111 54 52 110 112 56 54 111 113 58 56 112 114 60 58 113 115 62 60 114 116 64 62 115 117 66 64 116 118 68 66 117 119 70 68 118 120 72 70 119 121 74 72 120 122 76 74 121 123 78 76 122 124 80 78 123 125 82 
				</DataArray>
				<DataArray type="Int32" Name="offsets" format="ascii">
					8 16 24 32 40 48 56 64 72 80 88 96 104 112 120 128 136 144 152 160 168 176 184 192 200 208 216 224 232 240 248 256 264 272 280 288 296 304 312 320 
				</DataArray>
				<DataArray type="UInt8" Name="types" format="ascii">
					12 12 12 12 12 12 12 12 12 12 12 12 12 12 12 12 12 12 12 12 12 12 12 12 12 12 12 12 12 12 12 12 12 12 12 12 12 12 12 12 
				</DataArray>
			</Cells>
			<PointData>
				<DataArray type="Float32" Name="U" NumberOfComponents="3" ComponentName0="D1" ComponentName1="D2" ComponentName2="D3" format="ascii">
					 0.00000000E+00	 0.00000000E+00	 0.00000000E+00
					 0.00000000E+00	 0.00000000E+00	 0.00000000E+00
					-1.49874000E-04	 0.00000000E+00	 3.42171000E-03
					 1.95997000E-02	 0.00000000E+00	-9.81437000E-03
					 0.00000000E+00	 0.00000000E+00	 0.00000000E+00
					 0.00000000E+00	 0.00000000E+00	 0.00000000E+00
					-1.49874000E-04	 0.00000000E+00	 3.42171000E-03
					 1.95997000E-02	 0.00000000E+00	-9.81437000E-03
					 4.90875000E-02	 0.00000000E+00	-1.06941000E-02
					 1.30788000E-02	 0.00000000E+00	-1.22494000E-02
					 4.90875000E-02	 0.00000000E+00	-1.06941000E-02
					 1.30788000E-02	 0.00000000E+00	-1.22494000E-02
					 7.38187000E-02	 0.00000000E+00	-3.81723000E-02
					 4.22761000E-03	 0.00000000E+00	 5.17181000E-03
					 7.38187000E-02	 0.00000000E+00	-3.81723000E-02
					 4.22761000E-03	 0.00000000E+00	 5.17181000E-03
					 1.09585000E-01	 0.00000000E+00	-2.26881000E-02
					 4.31982000E-02	 0.00000000E+00	-1.63311000E-02
					 1.09585000E-01	 0.00000000E+00	-2.26881000E-02
					 4.31982000E-02	 0.00000000E+00	-1.63311000E-02
					 1.46485000E-01	 0.00000000E+00	-3.79457000E-02
					 8.33997000E-02	 0.00000000E+00	-1.70442000E-02
					 1.46485000E-01	 0.00000000E+00	-3.79457000E-02
					 8.33997000E-02	 0.00000000E+00	-1.70442000E-02
					 1.18486000E-01	 0.00000000E+00	-3.04380000E-02
					 3.52556000E-02	 0.00000000E+00	-2.12424000E-02
					 1.18486000E-01	 0.00000000E+00	-3.04380000E-02
					 3.52556000E-02	 0.00000000E+00	-2.12424000E-02
					 1.13611000E-01	 0.00000000E+00	-1.72774000E-02
					 2.38217000E-02	 0.00000000E+00	-3.26025000E-02
					 1.13611000E-01	 0.00000000E+00	-1.72774000E-02
					 2.38217000E-02	 0.00000000E+00	-3.26025000E-02
					 8.06571000E-02	 0.00000000E+00	-1.76852000E-02
					-4.34660000E-03	 0.00000000E+00	-3.44470000E-02
					 8.06571000E-02	 0.00000000E+00	-1.76852000E-02
					-4.34660000E-03	 0.00000000E+00	-3.44470000E-02
					 4.48195000E-02	 0.00000000E+00	-2.45731000E-02
					-4.81630000E-02	 0.00000000E+00	-3.04338000E-02
					 4.48195000E-02	 0.00000000E+00	-2.45731000E-02
					-4.81630000E-02	 0.00000000E+00	-3.04338000E-02
					 2.25492000E-02	 0.00000000E+00	-2.72317000E-02
					-8.57084000E-02	 0.00000000E+00	-3.41542000E-02
					 2.25492000E-02	 0.00000000E+00	-2.72317000E-02
					-8.57084000E-02	 0.00000000E+00	-3.41542000E-02
					 6.44506000E-03	 0.00000000E+00	-2.90284000E-02
					-2.78386000E-02	 0.00000000E+00	-3.48211000E-02
					 6.44506000E-03	 0.00000000E+00	-2.90284000E-02
					-2.78386000E-02	 0.00000000E+00	-3.48211000E-02
					 3.26166000E-02	 0.00000000E+00	-1.08522000E-02
					 8.51097000E-03	 0.00000000E+00	-3.03465000E-02
					 3.26166000E-02	 0.00000000E+00	-1.08522000E-02
					 8.51097000E-03	 0.00000000E+00	-3.03465000E-02
					 2.65651000E-02	 0.00000000E+00	-7.04724000E-03
					 3.49034000E-02	 0.00000000E+00	-1.13757000E-02
					 2.65651000E-02	 0.00000000E+00	-7.04724000E-03
					 3.49034000E-02	 0.00000000E+00	-1.13757000E-02
					 2.48715000E-02	 0.00000000E+00	-9.38109000E-03
					 2.05192000E-02	 0.00000000E+00	-5.58957000E-03
					 2.48715000E-02	 0.00000000E+00	-9.38109000E-03
					 2.05192000E-02	 0.00000000E+00	-5.58957000E-03
					 2.14590000E-02	 0.00000000E+00	-5.60255000E-03
					 1.52931000E-02	 0.00000000E+00	-4.25448000E-03
					 2.14590000E-02	 0.00000000E+00	-5.60255000E-03
					 1.52931000E-02	 0.00000000E+00	-4.25448000E-03
					 2.27414000E-02	 0.00000000E+00	 1.27419000E-03
					 2.10521000E-02	 0.00000000E+00	-1.93562000E-03
					 2.27414000E-02	 0.00000000E+00	 1.27419000E-03
					 2.10521000E-02	 0.00000000E+00	-1.93562000E-03
					 1.95277000E-02	 0.00000000E+00	 2.02613000E-03
					 2.13027000E-02	 0.00000000E+00	 4.74101000E-03
					 1.95277000E-02	 0.00000000E+00	 2.02613000E-03
					 2.13027000E-02	 0.00000000E+00	 4.74101000E-03
					 1.96413000E-02	 0.00000000E+00	 1.00982000E-03
					 1.80867000E-02	 0.00000000E+00	 7.53413000E-04
					 1.96413000E-02	 0.00000000E+00	 1.00982000E-03
					 1.80867000E-02	 0.00000000E+00	 7.53413000E-04
					 1.82807000E-02	 0.00000000E+00	 1.50320000E-03
					 1.90843000E-02	 0.00000000E+00	 2.65647000E-03
					 1.82807000E-02	 0.00000000E+00	 1.50320000E-03
					 1.90843000E-02	 0.00000000E+00	 2.65647000E-03
					 1.69543000E-02	 0.00000000E+00	 1.51805000E-03
					 1.81119000E-02	 0.00000000E+00	 1.23783000E-03
					 1.69543000E-02	 0.00000000E+00	 1.51805000E-03
					 1.81119000E-02	 0.00000000E+00	 1.23783000E-03
					 0.00000000E+00	 0.00000000E+00	 0.00000000E+00
					 8.25996000E-02	 0.00000000E+00	-4.62490000E-02
					 0.00000000E+00	 0.00000000E+00	 0.00000000E+00
					 8.25996000E-02	 0.00000000E+00	-4.62490000E-02
					 1.21439000E-01	 0.00000000E+00	-5.29070000E-02
					 1.21439000E-01	 0.00000000E+00	-5.29070000E-02
					 1.54375000E-01	 0.00000000E+00	-3.86328000E-02
					 1.54375000E-01	 0.00000000E+00	-3.86328000E-02
					 1.98118000E-01	 0.00000000E+00	-5.25586000E-02
					 1.98118000E-01	 0.00000000E+00	-5.25586000E-02
					 1.90316000E-01	 0.00000000E+00	-2.38290000E-02
					 1.90316000E-01	 0.00000000E+00	-2.38290000E-02
					 1.98855000E-01	 0.00000000E+00	-2.41151000E-02
					 1.98855000E-01	 0.00000000E+00	-2.41151000E-02
					 2.03017000E-01	 0.00000000E+00	-2.55698000E-02
					 2.03017000E-01	 0.00000000E+00	-2.55698000E-02
					 1.57433000E-01	 0.00000000E+00	-1.92595000E-03
					 1.57433000E-01	 0.00000000E+00	-1.92595000E-03
					 1.41984000E-01	 0.00000000E+00	-8.64960000E-03
					 1.41984000E-01	 0.00000000E+00	-8.64960000E-03
					 1.04823000E-01	 0.00000000E+00	-1.43624000E-02
					 1.04823000E-01	 0.00000000E+00	-1.43624000E-02
					 1.20493000E-01	 0.00000000E+00	-1.31055000E-02
					 1.20493000E-01	 0.00000000E+00	-1.31055000E-02
					 5.20556000E-02	 0.00000000E+00	-2.41219000E-02
					 5.20556000E-02	 0.00000000E+00	-2.41219000E-02
					 2.13602000E-02	 0.00000000E+00	-1.71273000E-02
					 2.13602000E-02	 0.00000000E+00	-1.71273000E-02
					 2.73223000E-02	 0.00000000E+00	-3.72807000E-03
					 2.73223000E-02	 0.00000000E+00	-3.72807000E-03
					 3.29830000E-02	 0.00000000E+00	-1.24192000E-03
					 3.29830000E-02	 0.00000000E+00	-1.24192000E-03
					 1.94144000E-02	 0.00000000E+00	-3.00289000E-03
					 1.94144000E-02	 0.00000000E+00	-3.00289000E-03
					 2.11420000E-02	 0.00000000E+00	 1.58128000E-03
					 2.11420000E-02	 0.00000000E+00	 1.58128000E-03
					 1.96293000E-02	 0.00000000E+00	 3.87803000E-04
					 1.96293000E-02	 0.00000000E+00	 3.87803000E-04
					 1.78803000E-02	 0.00000000E+00	-9.43396000E-04
					 1.78803000E-02	 0.00000000E+00	-9.43396000E-04
					 1.78432000E-02	 0.00000000E+00	 1.10762000E-03
					 1.78432000E-02	 0.00000000E+00	 1.10762000E-03
				</DataArray>
			</PointData>
		</Piece>
	</UnstructuredGrid>
</VTKFile>