<?xml version="1.0"?>
<VTKFile type="UnstructuredGrid" version="0.1" byte_order="LittleEndian">
	<UnstructuredGrid>
		<Piece NumberOfPoints="126" NumberOfCells="40">
			<Points>
				<DataArray type="Float64" NumberOfComponents="3" format="ascii">
					 5.00000000E-02	 0.00000000E+00	 0.00000000E+00
					 0.00000000E+00	 0.00000000E+00	 0.00000000E+00
					 0.00000000E+00	 0.00000000E+00	 5.00000000E-02
					 5.00000000E-02	 0.00000000E+00	 5.00000000E-02
					 5.00000000E-02	 3.00000000E-01	 0.00000000E+00
					 0.00000000E+00	 3.00000000E-01	 0.00000000E+00
					 0.00000000E+00	 3.00000000E-01	 5.00000000E-02
					 5.00000000E-02	 3.00000000E-01	 5.00000000E-02
					 0.00000000E+00	 0.00000000E+00	 1.00000000E-01
					 5.00000000E-02	 0.00000000E+00	 1.00000000E-01
					 0.00000000E+00	 3.00000000E-01	 1.00000000E-01
					 5.00000000E-02	 3.00000000E-01	 1.00000000E-01
					 0.00000000E+00	 0.00000000E+00	 1.50000000E-01
					 5.00000000E-02	 0.00000000E+00	 1.50000000E-01
					 0.00000000E+00	 3.00000000E-01	 1.50000000E-01
					 5.00000000E-02	 3.00000000E-01	 1.50000000E-01
					 0.00000000E+00	 0.00000000E+00	 2.00000000E-01
					 5.00000000E-02	 0.00000000E+00	 2.00000000E-01
					 0.00000000E+00	 3.00000000E-01	 2.00000000E-01
					 5.00000000E-02	 3.00000000E-01	 2.00000000E-01
					 0.00000000E+00	 0.00000000E+00	 2.50000000E-01
					 5.00000000E-02	 0.00000000E+00	 2.50000000E-01
					 0.00000000E+00	 3.00000000E-01	 2.50000000E-01
					 5.00000000E-02	 3.00000000E-01	 2.50000000E-01
					 0.00000000E+00	 0.00000000E+00	 3.00000000E-01
					 5.00000000E-02	 0.00000000E+00	 3.00000000E-01
					 0.00000000E+00	 3.00000000E-01	 3.00000000E-01
					 5.00000000E-02	 3.00000000E-01	 3.00000000E-01
					 0.00000000E+00	 0.00000000E+00	 3.50000000E-01
					 5.00000000E-02	 0.00000000E+00	 3.50000000E-01
					 0.00000000E+00	 3.00000000E-01	 3.50000000E-01
					 5.00000000E-02	 3.00000000E-01	 3.50000000E-01
					 0.00000000E+00	 0.00000000E+00	 4.00000000E-01
					 5.00000000E-02	 0.00000000E+00	 4.00000000E-01
					 0.00000000E+00	 3.00000000E-01	 4.00000000E-01
					 5.00000000E-02	 3.00000000E-01	 4.00000000E-01
					 0.00000000E+00	 0.00000000E+00	 4.50000000E-01
					 5.00000000E-02	 0.00000000E+00	 4.50000000E-01
					 0.00000000E+00	 3.00000000E-01	 4.50000000E-01
					 5.00000000E-02	 3.00000000E-01	 4.50000000E-01
					 0.00000000E+00	 0.00000000E+00	 5.00000000E-01
					 5.00000000E-02	 0.00000000E+00	 5.00000000E-01
					 0.00000000E+00	 3.00000000E-01	 5.00000000E-01
					 5.00000000E-02	 3.00000000E-01	 5.00000000E-01
					 0.00000000E+00	 0.00000000E+00	 5.50000000E-01
					 5.00000000E-02	 0.00000000E+00	 5.50000000E-01
					 0.00000000E+00	 3.00000000E-01	 5.50000000E-01
					 5.00000000E-02	 3.00000000E-01	 5.50000000E-01
					 0.00000000E+00	 0.00000000E+00	 6.00000000E-01
					 5.00000000E-02	 0.00000000E+00	 6.00000000E-01
					 0.00000000E+00	 3.00000000E-01	 6.00000000E-01
					 5.00000000E-02	 3.00000000E-01	 6.00000000E-01
					 0.00000000E+00	 0.00000000E+00	 6.50000000E-01
					 5.00000000E-02	 0.00000000E+00	 6.50000000E-01
					 0.00000000E+00	 3.00000000E-01	 6.50000000E-01
					 5.00000000E-02	 3.00000000E-01	 6.50000000E-01
					 0.00000000E+00	 0.00000000E+00	 7.00000000E-01
					 5.00000000E-02	 0.00000000E+00	 7.00000000E-01
					 0.00000000E+00	 3.00000000E-01	 7.00000000E-01
					 5.00000000E-02	 3.00000000E-01	 7.00000000E-01
					 0.00000000E+00	 0.00000000E+00	 7.50000000E-01
					 5.00000000E-02	 0.00000000E+00	 7.50000000E-01
					 0.00000000E+00	 3.00000000E-01	 7.50000000E-01
					 5.00000000E-02	 3.00000000E-01	 7.50000000E-01
					 0.00000000E+00	 0.00000000E+00	 8.00000000E-01
					 5.00000000E-02	 0.00000000E+00	 8.00000000E-01
					 0.00000000E+00	 3.00000000E-01	 8.00000000E-01
					 5.00000000E-02	 3.00000000E-01	 8.00000000E-01
					 0.00000000E+00	 0.00000000E+00	 8.50000000E-01
					 5.00000000E-02	 0.00000000E+00	 8.50000000E-01
					 0.00000000E+00	 3.00000000E-01	 8.50000000E-01
					 5.00000000E-02	 3.00000000E-01	 8.50000000E-01
					 0.00000000E+00	 0.00000000E+00	 9.00000000E-01
					 5.00000000E-02	 0.00000000E+00	 9.00000000E-01
					 0.00000000E+00	 3.00000000E-01	 9.00000000E-01
					 5.00000000E-02	 3.00000000E-01	 9.00000000E-01
					 0.00000000E+00	 0.00000000E+00	 9.50000000E-01
					 5.00000000E-02	 0.00000000E+00	 9.50000000E-01
					 0.00000000E+00	 3.00000000E-01	 9.50000000E-01
					 5.00000000E-02	 3.00000000E-01	 9.50000000E-01
					 0.00000000E+00	 0.00000000E+00	 1.00000000E+00
					 5.00000000E-02	 0.00000000E+00	 1.00000000E+00
					 0.00000000E+00	 3.00000000E-01	 1.00000000E+00
					 5.00000000E-02	 3.00000000E-01	 1.00000000E+00
					-5.00000000E-02	 0.00000000E+00	 0.00000000E+00
					-5.00000000E-02	 0.00000000E+00	 5.00000000E-02
					-5.00000000E-02	 3.00000000E-01	 0.00000000E+00
					-5.00000000E-02	 3.00000000E-01	 5.00000000E-02
					-5.00000000E-02	 0.00000000E+00	 1.00000000E-01
					-5.00000000E-02	 3.00000000E-01	 1.00000000E-01
					-5.00000000E-02	 0.00000000E+00	 1.50000000E-01
					-5.00000000E-02	 3.00000000E-01	 1.50000000E-01
					-5.00000000E-02	 0.00000000E+00	 2.00000000E-01
					-5.00000000E-02	 3.00000000E-01	 2.00000000E-01
					-5.00000000E-02	 0.00000000E+00	 2.50000000E-01
					-5.00000000E-02	 3.00000000E-01	 2.50000000E-01
					-5.00000000E-02	 0.00000000E+00	 3.00000000E-01
					-5.00000000E-02	 3.00000000E-01	 3.00000000E-01
					-5.00000000E-02	 0.00000000E+00	 3.50000000E-01
					-5.00000000E-02	 3.00000000E-01	 3.50000000E-01
					-5.00000000E-02	 0.00000000E+00	 4.00000000E-01
					-5.00000000E-02	 3.00000000E-01	 4.00000000E-01
					-5.00000000E-02	 0.00000000E+00	 4.50000000E-01
					-5.00000000E-02	 3.00000000E-01	 4.50000000E-01
					-5.00000000E-02	 0.00000000E+00	 5.00000000E-01
					-5.00000000E-02	 3.00000000E-01	 5.00000000E-01
					-5.00000000E-02	 0.00000000E+00	 5.50000000E-01
					-5.00000000E-02	 3.00000000E-01	 5.50000000E-01
					-5.00000000E-02	 0.00000000E+00	 6.00000000E-01
					-5.00000000E-02	 3.00000000E-01	 6.00000000E-01
					-5.00000000E-02	 0.00000000E+00	 6.50000000E-01
					-5.00000000E-02	 3.00000000E-01	 6.50000000E-01
					-5.00000000E-02	 0.00000000E+00	 7.00000000E-01
					-5.00000000E-02	 3.00000000E-01	 7.00000000E-01
					-5.00000000E-02	 0.00000000E+00	 7.50000000E-01
					-5.00000000E-02	 3.00000000E-01	 7.50000000E-01
					-5.00000000E-02	 0.00000000E+00	 8.00000000E-01
					-5.00000000E-02	 3.00000000E-01	 8.00000000E-01
					-5.00000000E-02	 0.00000000E+00	 8.50000000E-01
					-5.00000000E-02	 3.00000000E-01	 8.50000000E-01
					-5.00000000E-02	 0.00000000E+00	 9.00000000E-01
					-5.00000000E-02	 3.00000000E-01	 9.00000000E-01
					-5.00000000E-02	 0.00000000E+00	 9.50000000E-01
					-5.00000000E-02	 3.00000000E-01	 9.50000000E-01
					-5.00000000E-02	 0.00000000E+00	 1.00000000E+00
					-5.00000000E-02	 3.00000000E-01	 1.00000000E+00
				</DataArray>
			</Points>
			<Cells>
				<DataArray type="Int32" Name="connectivity" format="ascii">
					0 1 2 3 4 5 6 7 3 2 8 9 7 6 10 11 9 8 12 13 11 10 14 15 13 12 16 17 15 14 18 19 17 16 20 21 19 18 22 23 21 20 24 25 23 22 26 27 25 24 28 29 27 26 30 31 29 28 32 33 31 30 34 35 33 32 36 37 35 34 38 39 37 36 40 41 39 38 42 43 41 40 44 45 43 42 46 47 45 44 48 49 47 46 50 51 49 48 52 53 51 50 54 55 53 52 56 57 55 54 58 59 57 56 60 61 59 58 62 63 61 60 64 65 63 62 66 67 65 64 68 69 67 66 70 71 69 68 72 73 71 70 74 75 73 72 76 77 75 74 78 79 77 76 80 81 79 78 82 83 1 84 85 2 5 86 87 6 2 85 88 8 6 87 89 10 8 88 90 12 10 89 91 14 12 90 92 16 14 91 93 18 16 92 94 20 18 93 95 22 20 94 96 24 22 95 97 26 24 96 98 28 26 97 99 30 28 98 100 32 30 99 101 34 32 100 102 36 34 101 103 38 36 102 104 40 38 103 105 42 40 104 106 44 42 105 107 46 44 106 108 48 46 107 109 50 48 108 110 52 50 109 111 54 52 110 112 56 54 111 113 58 56 112 114 60 58 113 115 62 60 114 116 64 62 115 117 66 64 116 118 68 66 117 119 70 68 118 120 72 70 119 121 74 72 120 122 76 74 121 123 78 76 122 124 80 78 123 125 82 
				</DataArray>
				<DataArray type="Int32" Name="offsets" format="ascii">
					8 16 24 32 40 48 56 64 72 80 88 96 104 112 120 128 136 144 152 160 168 176 184 192 200 208 216 224 232 240 248 256 264 272 280 288 296 304 312 320 
				</DataArray>
				<DataArray type="UInt8" Name="types" format="ascii">
					12 12 12 12 12 12 12 12 12 12 12 12 12 12 12 12 12 12 12 12 12 12 12 12 12 12 12 12 12 12 12 12 12 12 12 12 12 12 12 12 
				</DataArray>
			</Cells>
			<PointData>
				<DataArray type="Float32" Name="U" NumberOfComponents="3" ComponentName0="D1" ComponentName1="D2" ComponentName2="D3" format="ascii">
					 0.00000000E+00	 0.00000000E+00	 0.00000000E+00
					 0.00000000E+00	 0.00000000E+00	 0.00000000E+00
					 6.02943000E-05	 0.00000000E+00	-6.82738000E-05
					 6.79871000E-04	 0.00000000E+00	-1.78302000E-04
					 0.00000000E+00	 0.00000000E+00	 0.00000000E+00
					 0.00000000E+00	 0.00000000E+00	 0.00000000E+00
					 6.02943000E-05	 0.00000000E+00	-6.82738000E-05
					 6.79871000E-04	 0.00000000E+00	-1.78302000E-04
					 1.13856000E-04	 0.00000000E+00	-2.33522000E-04
					 4.72556000E-04	 0.00000000E+00	 2.63801000E-06
					 1.13856000E-04	 0.00000000E+00	-2.33522000E-04
					 4.72556000E-04	 0.00000000E+00	 2.63801000E-06
					 1.37424000E-04	 0.00000000E+00	-8.19159000E-05
					 5.01325000E-04	 0.00000000E+00	 3.08809000E-04
					 1.37424000E-04	 0.00000000E+00	-8.19159000E-05
					 5.01325000E-04	 0.00000000E+00	 3.08809000E-04
					 1.31223000E-04	 0.00000000E+00	-8.83092000E-05
					 7.10390000E-04	 0.00000000E+00	 3.24486000E-04
					 1.31223000E-04	 0.00000000E+00	-8.83092000E-05
					 7.10390000E-04	 0.00000000E+00	 3.24486000E-04
					 1.18144000E-04	 0.00000000E+00	-2.84542000E-04
					 3.28020000E-04	 0.00000000E+00	-5.40526000E-05
					 1.18144000E-04	 0.00000000E+00	-2.84542000E-04
					 3.28020000E-04	 0.00000000E+00	-5.40526000E-05
					 1.03889000E-04	 0.00000000E+00	-3.46584000E-05
					 1.87678000E-04	 0.00000000E+00	-1.30729000E-04
					 1.03889000E-04	 0.00000000E+00	-3.46584000E-05
					 1.87678000E-04	 0.00000000E+00	-1.30729000E-04
					 9.66015000E-05	 0.00000000E+00	 3.54529000E-04
					 8.08526000E-04	 0.00000000E+00	 1.38157000E-04
					 9.66015000E-05	 0.00000000E+00	 3.54529000E-04
					 8.08526000E-04	 0.00000000E+00	 1.38157000E-04
					 1.01244000E-04	 0.00000000E+00	-4.19388000E-04
					 6.38081000E-04	 0.00000000E+00	-8.79265000E-05
					 1.01244000E-04	 0.00000000E+00	-4.19388000E-04
					 6.38081000E-04	 0.00000000E+00	-8.79265000E-05
					 9.35458000E-05	 0.00000000E+00	 3.84223000E-05
					 1.43476000E-04	 0.00000000E+00	 8.14588000E-05
					 9.35458000E-05	 0.00000000E+00	 3.84223000E-05
					 1.43476000E-04	 0.00000000E+00	 8.14588000E-05
					 8.15898000E-05	 0.00000000E+00	 8.38996000E-04
					 2.92144000E-04	 0.00000000E+00	 3.67333000E-04
					 8.15898000E-05	 0.00000000E+00	 8.38996000E-04
					 2.92144000E-04	 0.00000000E+00	 3.67333000E-04
					 7.78923000E-05	 0.00000000E+00	 6.71894000E-05
					 6.22097000E-04	 0.00000000E+00	 4.32660000E-04
					 7.78923000E-05	 0.00000000E+00	 6.71894000E-05
					 6.22097000E-04	 0.00000000E+00	 4.32660000E-04
					 7.01225000E-05	 0.00000000E+00	 2.47277000E-04
					 3.48280000E-04	 0.00000000E+00	 4.40572000E-04
					 7.01225000E-05	 0.00000000E+00	 2.47277000E-04
					 3.48280000E-04	 0.00000000E+00	 4.40572000E-04
					 5.19532000E-05	 0.00000000E+00	 5.84768000E-04
					 4.33396000E-04	 0.00000000E+00	 3.49503000E-04
					 5.19532000E-05	 0.00000000E+00	 5.84768000E-04
					 4.33396000E-04	 0.00000000E+00	 3.49503000E-04
					 3.93414000E-05	 0.00000000E+00	 6.00619000E-04
					 8.32254000E-04	 0.00000000E+00	 5.67518000E-04
					 3.93414000E-05	 0.00000000E+00	 6.00619000E-04
					 8.32254000E-04	 0.00000000E+00	 5.67518000E-04
					 2.33373000E-05	 0.00000000E+00	 2.96403000E-04
					 7.42202000E-05	 0.00000000E+00	 3.28624000E-04
					 2.33373000E-05	 0.00000000E+00	 2.96403000E-04
					 7.42202000E-05	 0.00000000E+00	 3.28624000E-04
					 1.07933000E-05	 0.00000000E+00	 7.56016000E-04
					 1.12478000E-04	 0.00000000E+00	 3.20527000E-04
					 1.07933000E-05	 0.00000000E+00	 7.56016000E-04
					 1.12478000E-04	 0.00000000E+00	 3.20527000E-04
					 3.91630000E-07	 0.00000000E+00	 6.48462000E-04
					 5.44412000E-04	 0.00000000E+00	 7.68480000E-05
					 3.91630000E-07	 0.00000000E+00	 6.48462000E-04
					 5.44412000E-04	 0.00000000E+00	 7.68480000E-05
					-9.40728000E-06	 0.00000000E+00	 4.97893000E-04
					 5.87137000E-04	 0.00000000E+00	 3.63726000E-04
					-9.40728000E-06	 0.00000000E+00	 4.97893000E-04
					 5.87137000E-04	 0.00000000E+00	 3.63726000E-04
					-3.09340000E-05	 0.00000000E+00	 5.68248000E-04
					 2.18538000E-04	 0.00000000E+00	 4.23847000E-04
					-3.09340000E-05	 0.00000000E+00	 5.68248000E-04
					 2.18538000E-04	 0.00000000E+00	 4.23847000E-04
					-5.01234000E-05	 0.00000000E+00	 6.74939000E-04
					 5.37009000E-04	 0.00000000E+00	 5.79472000E-04
					-5.01234000E-05	 0.00000000E+00	 6.74939000E-04
					 5.37009000E-04	 0.00000000E+00	 5.79472000E-04
					 0.00000000E+00	 0.00000000E+00	 0.00000000E+00
					-5.59338000E-04	 0.00000000E+00	-1.29323000E-04
					 0.00000000E+00	 0.00000000E+00	 0.00000000E+00
					-5.59338000E-04	 0.00000000E+00	-1.29323000E-04
					-2.72449000E-04	 0.00000000E+00	 5.17710000E-05
					-2.72449000E-04	 0.00000000E+00	 5.17710000E-05
					-2.51881000E-04	 0.00000000E+00	 3.28345000E-04
					-2.51881000E-04	 0.00000000E+00	 3.28345000E-04
					-4.63971000E-04	 0.00000000E+00	 3.17611000E-04
					-4.63971000E-04	 0.00000000E+00	 3.17611000E-04
					-1.10632000E-04	 0.00000000E+00	-7.30706000E-05
					-1.10632000E-04	 0.00000000E+00	-7.30706000E-05
					 6.51954000E-06	 0.00000000E+00	-1.49355000E-04
					 6.51954000E-06	 0.00000000E+00	-1.49355000E-04
					-6.30261000E-04	 0.00000000E+00	 1.33655000E-04
					-6.30261000E-04	 0.00000000E+00	 1.33655000E-04
					-4.54810000E-04	 0.00000000E+00	-9.67783000E-05
					-4.54810000E-04	 0.00000000E+00	-9.67783000E-05
					 2.42796000E-05	 0.00000000E+00	 6.80060000E-05
					 2.42796000E-05	 0.00000000E+00	 6.80060000E-05
					-1.46711000E-04	 0.00000000E+00	 3.47213000E-04
					-1.46711000E-04	 0.00000000E+00	 3.47213000E-04
					-4.84545000E-04	 0.00000000E+00	 4.20306000E-04
					-4.84545000E-04	 0.00000000E+00	 4.20306000E-04
					-2.32683000E-04	 0.00000000E+00	 4.15253000E-04
					-2.32683000E-04	 0.00000000E+00	 4.15253000E-04
					-3.46051000E-04	 0.00000000E+00	 3.25844000E-04
					-3.46051000E-04	 0.00000000E+00	 3.25844000E-04
					-7.80979000E-04	 0.00000000E+00	 5.40409000E-04
					-7.80979000E-04	 0.00000000E+00	 5.40409000E-04
					-5.16806000E-05	 0.00000000E+00	 3.01546000E-04
					-5.16806000E-05	 0.00000000E+00	 3.01546000E-04
					-1.05671000E-04	 0.00000000E+00	 2.95055000E-04
					-1.05671000E-04	 0.00000000E+00	 2.95055000E-04
					-5.75641000E-04	 0.00000000E+00	 4.46788000E-05
					-5.75641000E-04	 0.00000000E+00	 4.46788000E-05
					-6.56625000E-04	 0.00000000E+00	 3.39577000E-04
					-6.56625000E-04	 0.00000000E+00	 3.39577000E-04
					-3.04582000E-04	 0.00000000E+00	 4.01135000E-04
					-3.04582000E-04	 0.00000000E+00	 4.01135000E-04
					-6.30622000E-04	 0.00000000E+00	 5.63584000E-04
					-6.30622000E-04	 0.00000000E+00	 5.63584000E-04
				</DataArray>
			</PointData>
		</Piece>
	</UnstructuredGrid>
</VTKFile>