<?xml version="1.0"?>
<VTKFile type="UnstructuredGrid" version="0.1" byte_order="LittleEndian">
	<UnstructuredGrid>
		<Piece NumberOfPoints="126" NumberOfCells="40">
			<Points>
				<DataArray type="Float64" NumberOfComponents="3" format="ascii">
					 5.00000000E-02	 0.00000000E+00	 0.00000000E+00
					 0.00000000E+00	 0.00000000E+00	 0.00000000E+00
					 0.00000000E+00	 0.00000000E+00	 5.00000000E-02
					 5.00000000E-02	 0.00000000E+00	 5.00000000E-02
					 5.00000000E-02	 3.00000000E-01	 0.00000000E+00
					 0.00000000E+00	 3.00000000E-01	 0.00000000E+00
					 0.00000000E+00	 3.00000000E-01	 5.00000000E-02
					 5.00000000E-02	 3.00000000E-01	 5.00000000E-02
					 0.00000000E+00	 0.00000000E+00	 1.00000000E-01
					 5.00000000E-02	 0.00000000E+00	 1.00000000E-01
					 0.00000000E+00	 3.00000000E-01	 1.00000000E-01
					 5.00000000E-02	 3.00000000E-01	 1.00000000E-01
					 0.00000000E+00	 0.00000000E+00	 1.50000000E-01
					 5.00000000E-02	 0.00000000E+00	 1.50000000E-01
					 0.00000000E+00	 3.00000000E-01	 1.50000000E-01
					 5.00000000E-02	 3.00000000E-01	 1.50000000E-01
					 0.00000000E+00	 0.00000000E+00	 2.00000000E-01
					 5.00000000E-02	 0.00000000E+00	 2.00000000E-01
					 0.00000000E+00	 3.00000000E-01	 2.00000000E-01
					 5.00000000E-02	 3.00000000E-01	 2.00000000E-01
					 0.00000000E+00	 0.00000000E+00	 2.50000000E-01
					 5.00000000E-02	 0.00000000E+00	 2.50000000E-01
					 0.00000000E+00	 3.00000000E-01	 2.50000000E-01
					 5.00000000E-02	 3.00000000E-01	 2.50000000E-01
					 0.00000000E+00	 0.00000000E+00	 3.00000000E-01
					 5.00000000E-02	 0.00000000E+00	 3.00000000E-01
					 0.00000000E+00	 3.00000000E-01	 3.00000000E-01
					 5.00000000E-02	 3.00000000E-01	 3.00000000E-01
					 0.00000000E+00	 0.00000000E+00	 3.50000000E-01
					 5.00000000E-02	 0.00000000E+00	 3.50000000E-01
					 0.00000000E+00	 3.00000000E-01	 3.50000000E-01
					 5.00000000E-02	 3.00000000E-01	 3.50000000E-01
					 0.00000000E+00	 0.00000000E+00	 4.00000000E-01
					 5.00000000E-02	 0.00000000E+00	 4.00000000E-01
					 0.00000000E+00	 3.00000000E-01	 4.00000000E-01
					 5.00000000E-02	 3.00000000E-01	 4.00000000E-01
					 0.00000000E+00	 0.00000000E+00	 4.50000000E-01
					 5.00000000E-02	 0.00000000E+00	 4.50000000E-01
					 0.00000000E+00	 3.00000000E-01	 4.50000000E-01
					 5.00000000E-02	 3.00000000E-01	 4.50000000E-01
					 0.00000000E+00	 0.00000000E+00	 5.00000000E-01
					 5.00000000E-02	 0.00000000E+00	 5.00000000E-01
					 0.00000000E+00	 3.00000000E-01	 5.00000000E-01
					 5.00000000E-02	 3.00000000E-01	 5.00000000E-01
					 0.00000000E+00	 0.00000000E+00	 5.50000000E-01
					 5.00000000E-02	 0.00000000E+00	 5.50000000E-01
					 0.00000000E+00	 3.00000000E-01	 5.50000000E-01
					 5.00000000E-02	 3.00000000E-01	 5.50000000E-01
					 0.00000000E+00	 0.00000000E+00	 6.00000000E-01
					 5.00000000E-02	 0.00000000E+00	 6.00000000E-01
					 0.00000000E+00	 3.00000000E-01	 6.00000000E-01
					 5.00000000E-02	 3.00000000E-01	 6.00000000E-01
					 0.00000000E+00	 0.00000000E+00	 6.50000000E-01
					 5.00000000E-02	 0.00000000E+00	 6.50000000E-01
					 0.00000000E+00	 3.00000000E-01	 6.50000000E-01
					 5.00000000E-02	 3.00000000E-01	 6.50000000E-01
					 0.00000000E+00	 0.00000000E+00	 7.00000000E-01
					 5.00000000E-02	 0.00000000E+00	 7.00000000E-01
					 0.00000000E+00	 3.00000000E-01	 7.00000000E-01
					 5.00000000E-02	 3.00000000E-01	 7.00000000E-01
					 0.00000000E+00	 0.00000000E+00	 7.50000000E-01
					 5.00000000E-02	 0.00000000E+00	 7.50000000E-01
					 0.00000000E+00	 3.00000000E-01	 7.50000000E-01
					 5.00000000E-02	 3.00000000E-01	 7.50000000E-01
					 0.00000000E+00	 0.00000000E+00	 8.00000000E-01
					 5.00000000E-02	 0.00000000E+00	 8.00000000E-01
					 0.00000000E+00	 3.00000000E-01	 8.00000000E-01
					 5.00000000E-02	 3.00000000E-01	 8.00000000E-01
					 0.00000000E+00	 0.00000000E+00	 8.50000000E-01
					 5.00000000E-02	 0.00000000E+00	 8.50000000E-01
					 0.00000000E+00	 3.00000000E-01	 8.50000000E-01
					 5.00000000E-02	 3.00000000E-01	 8.50000000E-01
					 0.00000000E+00	 0.00000000E+00	 9.00000000E-01
					 5.00000000E-02	 0.00000000E+00	 9.00000000E-01
					 0.00000000E+00	 3.00000000E-01	 9.00000000E-01
					 5.00000000E-02	 3.00000000E-01	 9.00000000E-01
					 0.00000000E+00	 0.00000000E+00	 9.50000000E-01
					 5.00000000E-02	 0.00000000E+00	 9.50000000E-01
					 0.00000000E+00	 3.00000000E-01	 9.50000000E-01
					 5.00000000E-02	 3.00000000E-01	 9.50000000E-01
					 0.00000000E+00	 0.00000000E+00	 1.00000000E+00
					 5.00000000E-02	 0.00000000E+00	 1.00000000E+00
					 0.00000000E+00	 3.00000000E-01	 1.00000000E+00
					 5.00000000E-02	 3.00000000E-01	 1.00000000E+00
					-5.00000000E-02	 0.00000000E+00	 0.00000000E+00
					-5.00000000E-02	 0.00000000E+00	 5.00000000E-02
					-5.00000000E-02	 3.00000000E-01	 0.00000000E+00
					-5.00000000E-02	 3.00000000E-01	 5.00000000E-02
					-5.00000000E-02	 0.00000000E+00	 1.00000000E-01
					-5.00000000E-02	 3.00000000E-01	 1.00000000E-01
					-5.00000000E-02	 0.00000000E+00	 1.50000000E-01
					-5.00000000E-02	 3.00000000E-01	 1.50000000E-01
					-5.00000000E-02	 0.00000000E+00	 2.00000000E-01
					-5.00000000E-02	 3.00000000E-01	 2.00000000E-01
					-5.00000000E-02	 0.00000000E+00	 2.50000000E-01
					-5.00000000E-02	 3.00000000E-01	 2.50000000E-01
					-5.00000000E-02	 0.00000000E+00	 3.00000000E-01
					-5.00000000E-02	 3.00000000E-01	 3.00000000E-01
					-5.00000000E-02	 0.00000000E+00	 3.50000000E-01
					-5.00000000E-02	 3.00000000E-01	 3.50000000E-01
					-5.00000000E-02	 0.00000000E+00	 4.00000000E-01
					-5.00000000E-02	 3.00000000E-01	 4.00000000E-01
					-5.00000000E-02	 0.00000000E+00	 4.50000000E-01
					-5.00000000E-02	 3.00000000E-01	 4.50000000E-01
					-5.00000000E-02	 0.00000000E+00	 5.00000000E-01
					-5.00000000E-02	 3.00000000E-01	 5.00000000E-01
					-5.00000000E-02	 0.00000000E+00	 5.50000000E-01
					-5.00000000E-02	 3.00000000E-01	 5.50000000E-01
					-5.00000000E-02	 0.00000000E+00	 6.00000000E-01
					-5.00000000E-02	 3.00000000E-01	 6.00000000E-01
					-5.00000000E-02	 0.00000000E+00	 6.50000000E-01
					-5.00000000E-02	 3.00000000E-01	 6.50000000E-01
					-5.00000000E-02	 0.00000000E+00	 7.00000000E-01
					-5.00000000E-02	 3.00000000E-01	 7.00000000E-01
					-5.00000000E-02	 0.00000000E+00	 7.50000000E-01
					-5.00000000E-02	 3.00000000E-01	 7.50000000E-01
					-5.00000000E-02	 0.00000000E+00	 8.00000000E-01
					-5.00000000E-02	 3.00000000E-01	 8.00000000E-01
					-5.00000000E-02	 0.00000000E+00	 8.50000000E-01
					-5.00000000E-02	 3.00000000E-01	 8.50000000E-01
					-5.00000000E-02	 0.00000000E+00	 9.00000000E-01
					-5.00000000E-02	 3.00000000E-01	 9.00000000E-01
					-5.00000000E-02	 0.00000000E+00	 9.50000000E-01
					-5.00000000E-02	 3.00000000E-01	 9.50000000E-01
					-5.00000000E-02	 0.00000000E+00	 1.00000000E+00
					-5.00000000E-02	 3.00000000E-01	 1.00000000E+00
				</DataArray>
			</Points>
			<Cells>
				<DataArray type="Int32" Name="connectivity" format="ascii">
					0 1 2 3 4 5 6 7 3 2 8 9 7 6 10 11 9 8 12 13 11 10 14 15 13 12 16 17 15 14 18 19 17 16 20 21 19 18 22 23 21 20 24 25 23 22 26 27 25 24 28 29 27 26 30 31 29 28 32 33 31 30 34 35 33 32 36 37 35 34 38 39 37 36 40 41 39 38 42 43 41 40 44 45 43 42 46 47 45 44 48 49 47 46 50 51 49 48 52 53 51 50 54 55 53 52 56 57 55 54 58 59 57 56 60 61 59 58 62 63 61 60 64 65 63 62 66 67 65 64 68 69 67 66 70 71 69 68 72 73 71 70 74 75 73 72 76 77 75 74 78 79 77 76 80 81 79 78 82 83 1 84 85 2 5 86 87 6 2 85 88 8 6 87 89 10 8 88 90 12 10 89 91 14 12 90 92 16 14 91 93 18 16 92 94 20 18 93 95 22 20 94 96 24 22 95 97 26 24 96 98 28 26 97 99 30 28 98 100 32 30 99 101 34 32 100 102 36 34 101 103 38 36 102 104 40 38 103 105 42 40 104 106 44 42 105 107 46 44 106 108 48 46 107 109 50 48 108 110 52 50 109 111 54 52 110 112 56 54 111 113 58 56 112 114 60 58 113 115 62 60 114 116 64 62 115 117 66 64 116 118 68 66 117 119 70 68 118 120 72 70 119 121 74 72 120 122 76 74 121 123 78 76 122 124 80 78 123 125 82 
				</DataArray>
				<DataArray type="Int32" Name="offsets" format="ascii">
					8 16 24 32 40 48 56 64 72 80 88 96 104 112 120 128 136 144 152 160 168 176 184 192 200 208 216 224 232 240 248 256 264 272 280 288 296 304 312 320 
				</DataArray>
				<DataArray type="UInt8" Name="types" format="ascii">
					12 12 12 12 12 12 12 12 12 12 12 12 12 12 12 12 12 12 12 12 12 12 12 12 12 12 12 12 12 12 12 12 12 12 12 12 12 12 12 12 
				</DataArray>
			</Cells>
			<PointData>
				<DataArray type="Float32" Name="U" NumberOfComponents="3" ComponentName0="D1" ComponentName1="D2" ComponentName2="D3" format="ascii">
					 0.00000000E+00	 0.00000000E+00	 0.00000000E+00
					 0.00000000E+00	 0.00000000E+00	 0.00000000E+00
					 1.69029000E-02	 0.00000000E+00	-1.78364000E-02
					-4.00070000E-03	 0.00000000E+00	 1.11551000E-02
					 0.00000000E+00	 0.00000000E+00	 0.00000000E+00
					 0.00000000E+00	 0.00000000E+00	 0.00000000E+00
					 1.69029000E-02	 0.00000000E+00	-1.78364000E-02
					-4.00070000E-03	 0.00000000E+00	 1.11551000E-02
					 5.66967000E-02	 0.00000000E+00	-1.81309000E-02
					-3.06982000E-02	 0.00000000E+00	 2.12202000E-02
					 5.66967000E-02	 0.00000000E+00	-1.81309000E-02
					-3.06982000E-02	 0.00000000E+00	 2.12202000E-02
					 8.26896000E-02	 0.00000000E+00	-3.51594000E-02
					 2.66535000E-03	 0.00000000E+00	 7.82351000E-03
					 8.26896000E-02	 0.00000000E+00	-3.51594000E-02
					 2.66535000E-03	 0.00000000E+00	 7.82351000E-03
					 1.23541000E-01	 0.00000000E+00	-3.55011000E-02
					 4.12520000E-02	 0.00000000E+00	-1.12204000E-02
					 1.23541000E-01	 0.00000000E+00	-3.55011000E-02
					 4.12520000E-02	 0.00000000E+00	-1.12204000E-02
					 1.65027000E-01	 0.00000000E+00	-3.85572000E-02
					 4.69797000E-02	 0.00000000E+00	-2.85492000E-02
					 1.65027000E-01	 0.00000000E+00	-3.85572000E-02
					 4.69797000E-02	 0.00000000E+00	-2.85492000E-02
					 1.54590000E-01	 0.00000000E+00	-2.22065000E-02
					 6.88556000E-02	 0.00000000E+00	-5.19861000E-02
					 1.54590000E-01	 0.00000000E+00	-2.22065000E-02
					 6.88556000E-02	 0.00000000E+00	-5.19861000E-02
					 1.20351000E-01	 0.00000000E+00	-2.75987000E-02
					 3.47115000E-02	 0.00000000E+00	-4.93342000E-02
					 1.20351000E-01	 0.00000000E+00	-2.75987000E-02
					 3.47115000E-02	 0.00000000E+00	-4.93342000E-02
					 1.11207000E-01	 0.00000000E+00	-3.07785000E-02
					 2.26861000E-02	 0.00000000E+00	-4.02898000E-02
					 1.11207000E-01	 0.00000000E+00	-3.07785000E-02
					 2.26861000E-02	 0.00000000E+00	-4.02898000E-02
					 9.53086000E-02	 0.00000000E+00	-3.59278000E-02
					-3.98841000E-03	 0.00000000E+00	-5.09099000E-02
					 9.53086000E-02	 0.00000000E+00	-3.59278000E-02
					-3.98841000E-03	 0.00000000E+00	-5.09099000E-02
					 4.67787000E-02	 0.00000000E+00	-2.96916000E-02
					-4.88223000E-02	 0.00000000E+00	-4.57773000E-02
					 4.67787000E-02	 0.00000000E+00	-2.96916000E-02
					-4.88223000E-02	 0.00000000E+00	-4.57773000E-02
					 1.83383000E-02	 0.00000000E+00	-3.27447000E-02
					-7.50616000E-02	 0.00000000E+00	-2.88475000E-02
					 1.83383000E-02	 0.00000000E+00	-3.27447000E-02
					-7.50616000E-02	 0.00000000E+00	-2.88475000E-02
					 4.44388000E-03	 0.00000000E+00	-2.23979000E-02
					-2.90895000E-02	 0.00000000E+00	-4.30076000E-02
					 4.44388000E-03	 0.00000000E+00	-2.23979000E-02
					-2.90895000E-02	 0.00000000E+00	-4.30076000E-02
					 2.81928000E-02	 0.00000000E+00	-2.63085000E-02
					 1.68592000E-02	 0.00000000E+00	-4.01150000E-02
					 2.81928000E-02	 0.00000000E+00	-2.63085000E-02
					 1.68592000E-02	 0.00000000E+00	-4.01150000E-02
					 3.32996000E-02	 0.00000000E+00	-1.76963000E-02
					 1.24810000E-02	 0.00000000E+00	-2.01723000E-02
					 3.32996000E-02	 0.00000000E+00	-1.76963000E-02
					 1.24810000E-02	 0.00000000E+00	-2.01723000E-02
					 2.46196000E-02	 0.00000000E+00	-1.04752000E-02
					 3.44640000E-02	 0.00000000E+00	-7.62082000E-03
					 2.46196000E-02	 0.00000000E+00	-1.04752000E-02
					 3.44640000E-02	 0.00000000E+00	-7.62082000E-03
					 2.54646000E-02	 0.00000000E+00	-7.92376000E-03
					 1.92127000E-02	 0.00000000E+00	-5.08924000E-03
					 2.54646000E-02	 0.00000000E+00	-7.92376000E-03
					 1.92127000E-02	 0.00000000E+00	-5.08924000E-03
					 2.29550000E-02	 0.00000000E+00	-9.58512000E-04
					 1.94439000E-02	 0.00000000E+00	-2.23743000E-03
					 2.29550000E-02	 0.00000000E+00	-9.58512000E-04
					 1.94439000E-02	 0.00000000E+00	-2.23743000E-03
					 2.26918000E-02	 0.00000000E+00	-8.42809000E-04
					 2.20245000E-02	 0.00000000E+00	-1.90801000E-03
					 2.26918000E-02	 0.00000000E+00	-8.42809000E-04
					 2.20245000E-02	 0.00000000E+00	-1.90801000E-03
					 2.10196000E-02	 0.00000000E+00	 2.31707000E-03
					 2.11494000E-02	 0.00000000E+00	 4.33014000E-03
					 2.10196000E-02	 0.00000000E+00	 2.31707000E-03
					 2.11494000E-02	 0.00000000E+00	 4.33014000E-03
					 1.95637000E-02	 0.00000000E+00	-4.08763000E-04
					 2.04210000E-02	 0.00000000E+00	 1.04569000E-03
					 1.95637000E-02	 0.00000000E+00	-4.08763000E-04
					 2.04210000E-02	 0.00000000E+00	 1.04569000E-03
					 0.00000000E+00	 0.00000000E+00	 0.00000000E+00
					 6.25389000E-02	 0.00000000E+00	-3.19688000E-02
					 0.00000000E+00	 0.00000000E+00	 0.00000000E+00
					 6.25389000E-02	 0.00000000E+00	-3.19688000E-02
					 1.33433000E-01	 0.00000000E+00	-5.37165000E-02
					 1.33433000E-01	 0.00000000E+00	-5.37165000E-02
					 1.53365000E-01	 0.00000000E+00	-4.90061000E-02
					 1.53365000E-01	 0.00000000E+00	-4.90061000E-02
					 1.77957000E-01	 0.00000000E+00	-3.26422000E-02
					 1.77957000E-01	 0.00000000E+00	-3.26422000E-02
					 1.95105000E-01	 0.00000000E+00	-4.08385000E-02
					 1.95105000E-01	 0.00000000E+00	-4.08385000E-02
					 2.39823000E-01	 0.00000000E+00	-2.15213000E-02
					 2.39823000E-01	 0.00000000E+00	-2.15213000E-02
					 2.18864000E-01	 0.00000000E+00	-6.46834000E-03
					 2.18864000E-01	 0.00000000E+00	-6.46834000E-03
					 1.98609000E-01	 0.00000000E+00	 7.16846000E-03
					 1.98609000E-01	 0.00000000E+00	 7.16846000E-03
					 1.59331000E-01	 0.00000000E+00	-2.53500000E-02
					 1.59331000E-01	 0.00000000E+00	-2.53500000E-02
					 1.41252000E-01	 0.00000000E+00	-1.45589000E-02
					 1.41252000E-01	 0.00000000E+00	-1.45589000E-02
					 8.96577000E-02	 0.00000000E+00	-2.93445000E-02
					 8.96577000E-02	 0.00000000E+00	-2.93445000E-02
					 1.23372000E-01	 0.00000000E+00	-1.86280000E-02
					 1.23372000E-01	 0.00000000E+00	-1.86280000E-02
					 7.19687000E-02	 0.00000000E+00	-3.00020000E-02
					 7.19687000E-02	 0.00000000E+00	-3.00020000E-02
					 3.74692000E-02	 0.00000000E+00	-2.43642000E-02
					 3.74692000E-02	 0.00000000E+00	-2.43642000E-02
					 2.16121000E-02	 0.00000000E+00	-1.77893000E-02
					 2.16121000E-02	 0.00000000E+00	-1.77893000E-02
					 2.94715000E-02	 0.00000000E+00	-7.87353000E-03
					 2.94715000E-02	 0.00000000E+00	-7.87353000E-03
					 2.94899000E-02	 0.00000000E+00	-7.13251000E-04
					 2.94899000E-02	 0.00000000E+00	-7.13251000E-04
					 2.10147000E-02	 0.00000000E+00	-1.56935000E-03
					 2.10147000E-02	 0.00000000E+00	-1.56935000E-03
					 2.11872000E-02	 0.00000000E+00	-1.05720000E-04
					 2.11872000E-02	 0.00000000E+00	-1.05720000E-04
					 2.00749000E-02	 0.00000000E+00	 1.37218000E-03
					 2.00749000E-02	 0.00000000E+00	 1.37218000E-03
				</DataArray>
			</PointData>
		</Piece>
	</UnstructuredGrid>
</VTKFile>