<?xml version="1.0"?>
<VTKFile type="UnstructuredGrid" version="0.1" byte_order="LittleEndian">
	<UnstructuredGrid>
		<Piece NumberOfPoints="126" NumberOfCells="40">
			<Points>
				<DataArray type="Float64" NumberOfComponents="3" format="ascii">
					 5.00000000E-02	 0.00000000E+00	 0.00000000E+00
					 0.00000000E+00	 0.00000000E+00	 0.00000000E+00
					 0.00000000E+00	 0.00000000E+00	 5.00000000E-02
					 5.00000000E-02	 0.00000000E+00	 5.00000000E-02
					 5.00000000E-02	 3.00000000E-01	 0.00000000E+00
					 0.00000000E+00	 3.00000000E-01	 0.00000000E+00
					 0.00000000E+00	 3.00000000E-01	 5.00000000E-02
					 5.00000000E-02	 3.00000000E-01	 5.00000000E-02
					 0.00000000E+00	 0.00000000E+00	 1.00000000E-01
					 5.00000000E-02	 0.00000000E+00	 1.00000000E-01
					 0.00000000E+00	 3.00000000E-01	 1.00000000E-01
					 5.00000000E-02	 3.00000000E-01	 1.00000000E-01
					 0.00000000E+00	 0.00000000E+00	 1.50000000E-01
					 5.00000000E-02	 0.00000000E+00	 1.50000000E-01
					 0.00000000E+00	 3.00000000E-01	 1.50000000E-01
					 5.00000000E-02	 3.00000000E-01	 1.50000000E-01
					 0.00000000E+00	 0.00000000E+00	 2.00000000E-01
					 5.00000000E-02	 0.00000000E+00	 2.00000000E-01
					 0.00000000E+00	 3.00000000E-01	 2.00000000E-01
					 5.00000000E-02	 3.00000000E-01	 2.00000000E-01
					 0.00000000E+00	 0.00000000E+00	 2.50000000E-01
					 5.00000000E-02	 0.00000000E+00	 2.50000000E-01
					 0.00000000E+00	 3.00000000E-01	 2.50000000E-01
					 5.00000000E-02	 3.00000000E-01	 2.50000000E-01
					 0.00000000E+00	 0.00000000E+00	 3.00000000E-01
					 5.00000000E-02	 0.00000000E+00	 3.00000000E-01
					 0.00000000E+00	 3.00000000E-01	 3.00000000E-01
					 5.00000000E-02	 3.00000000E-01	 3.00000000E-01
					 0.00000000E+00	 0.00000000E+00	 3.50000000E-01
					 5.00000000E-02	 0.00000000E+00	 3.50000000E-01
					 0.00000000E+00	 3.00000000E-01	 3.50000000E-01
					 5.00000000E-02	 3.00000000E-01	 3.50000000E-01
					 0.00000000E+00	 0.00000000E+00	 4.00000000E-01
					 5.00000000E-02	 0.00000000E+00	 4.00000000E-01
					 0.00000000E+00	 3.00000000E-01	 4.00000000E-01
					 5.00000000E-02	 3.00000000E-01	 4.00000000E-01
					 0.00000000E+00	 0.00000000E+00	 4.50000000E-01
					 5.00000000E-02	 0.00000000E+00	 4.50000000E-01
					 0.00000000E+00	 3.00000000E-01	 4.50000000E-01
					 5.00000000E-02	 3.00000000E-01	 4.50000000E-01
					 0.00000000E+00	 0.00000000E+00	 5.00000000E-01
					 5.00000000E-02	 0.00000000E+00	 5.00000000E-01
					 0.00000000E+00	 3.00000000E-01	 5.00000000E-01
					 5.00000000E-02	 3.00000000E-01	 5.00000000E-01
					 0.00000000E+00	 0.00000000E+00	 5.50000000E-01
					 5.00000000E-02	 0.00000000E+00	 5.50000000E-01
					 0.00000000E+00	 3.00000000E-01	 5.50000000E-01
					 5.00000000E-02	 3.00000000E-01	 5.50000000E-01
					 0.00000000E+00	 0.00000000E+00	 6.00000000E-01
					 5.00000000E-02	 0.00000000E+00	 6.00000000E-01
					 0.00000000E+00	 3.00000000E-01	 6.00000000E-01
					 5.00000000E-02	 3.00000000E-01	 6.00000000E-01
					 0.00000000E+00	 0.00000000E+00	 6.50000000E-01
					 5.00000000E-02	 0.00000000E+00	 6.50000000E-01
					 0.00000000E+00	 3.00000000E-01	 6.50000000E-01
					 5.00000000E-02	 3.00000000E-01	 6.50000000E-01
					 0.00000000E+00	 0.00000000E+00	 7.00000000E-01
					 5.00000000E-02	 0.00000000E+00	 7.00000000E-01
					 0.00000000E+00	 3.00000000E-01	 7.00000000E-01
					 5.00000000E-02	 3.00000000E-01	 7.00000000E-01
					 0.00000000E+00	 0.00000000E+00	 7.50000000E-01
					 5.00000000E-02	 0.00000000E+00	 7.50000000E-01
					 0.00000000E+00	 3.00000000E-01	 7.50000000E-01
					 5.00000000E-02	 3.00000000E-01	 7.50000000E-01
					 0.00000000E+00	 0.00000000E+00	 8.00000000E-01
					 5.00000000E-02	 0.00000000E+00	 8.00000000E-01
					 0.00000000E+00	 3.00000000E-01	 8.00000000E-01
					 5.00000000E-02	 3.00000000E-01	 8.00000000E-01
					 0.00000000E+00	 0.00000000E+00	 8.50000000E-01
					 5.00000000E-02	 0.00000000E+00	 8.50000000E-01
					 0.00000000E+00	 3.00000000E-01	 8.50000000E-01
					 5.00000000E-02	 3.00000000E-01	 8.50000000E-01
					 0.00000000E+00	 0.00000000E+00	 9.00000000E-01
					 5.00000000E-02	 0.00000000E+00	 9.00000000E-01
					 0.00000000E+00	 3.00000000E-01	 9.00000000E-01
					 5.00000000E-02	 3.00000000E-01	 9.00000000E-01
					 0.00000000E+00	 0.00000000E+00	 9.50000000E-01
					 5.00000000E-02	 0.00000000E+00	 9.50000000E-01
					 0.00000000E+00	 3.00000000E-01	 9.50000000E-01
					 5.00000000E-02	 3.00000000E-01	 9.50000000E-01
					 0.00000000E+00	 0.00000000E+00	 1.00000000E+00
					 5.00000000E-02	 0.00000000E+00	 1.00000000E+00
					 0.00000000E+00	 3.00000000E-01	 1.00000000E+00
					 5.00000000E-02	 3.00000000E-01	 1.00000000E+00
					-5.00000000E-02	 0.00000000E+00	 0.00000000E+00
					-5.00000000E-02	 0.00000000E+00	 5.00000000E-02
					-5.00000000E-02	 3.00000000E-01	 0.00000000E+00
					-5.00000000E-02	 3.00000000E-01	 5.00000000E-02
					-5.00000000E-02	 0.00000000E+00	 1.00000000E-01
					-5.00000000E-02	 3.00000000E-01	 1.00000000E-01
					-5.00000000E-02	 0.00000000E+00	 1.50000000E-01
					-5.00000000E-02	 3.00000000E-01	 1.50000000E-01
					-5.00000000E-02	 0.00000000E+00	 2.00000000E-01
					-5.00000000E-02	 3.00000000E-01	 2.00000000E-01
					-5.00000000E-02	 0.00000000E+00	 2.50000000E-01
					-5.00000000E-02	 3.00000000E-01	 2.50000000E-01
					-5.00000000E-02	 0.00000000E+00	 3.00000000E-01
					-5.00000000E-02	 3.00000000E-01	 3.00000000E-01
					-5.00000000E-02	 0.00000000E+00	 3.50000000E-01
					-5.00000000E-02	 3.00000000E-01	 3.50000000E-01
					-5.00000000E-02	 0.00000000E+00	 4.00000000E-01
					-5.00000000E-02	 3.00000000E-01	 4.00000000E-01
					-5.00000000E-02	 0.00000000E+00	 4.50000000E-01
					-5.00000000E-02	 3.00000000E-01	 4.50000000E-01
					-5.00000000E-02	 0.00000000E+00	 5.00000000E-01
					-5.00000000E-02	 3.00000000E-01	 5.00000000E-01
					-5.00000000E-02	 0.00000000E+00	 5.50000000E-01
					-5.00000000E-02	 3.00000000E-01	 5.50000000E-01
					-5.00000000E-02	 0.00000000E+00	 6.00000000E-01
					-5.00000000E-02	 3.00000000E-01	 6.00000000E-01
					-5.00000000E-02	 0.00000000E+00	 6.50000000E-01
					-5.00000000E-02	 3.00000000E-01	 6.50000000E-01
					-5.00000000E-02	 0.00000000E+00	 7.00000000E-01
					-5.00000000E-02	 3.00000000E-01	 7.00000000E-01
					-5.00000000E-02	 0.00000000E+00	 7.50000000E-01
					-5.00000000E-02	 3.00000000E-01	 7.50000000E-01
					-5.00000000E-02	 0.00000000E+00	 8.00000000E-01
					-5.00000000E-02	 3.00000000E-01	 8.00000000E-01
					-5.00000000E-02	 0.00000000E+00	 8.50000000E-01
					-5.00000000E-02	 3.00000000E-01	 8.50000000E-01
					-5.00000000E-02	 0.00000000E+00	 9.00000000E-01
					-5.00000000E-02	 3.00000000E-01	 9.00000000E-01
					-5.00000000E-02	 0.00000000E+00	 9.50000000E-01
					-5.00000000E-02	 3.00000000E-01	 9.50000000E-01
					-5.00000000E-02	 0.00000000E+00	 1.00000000E+00
					-5.00000000E-02	 3.00000000E-01	 1.00000000E+00
				</DataArray>
			</Points>
			<Cells>
				<DataArray type="Int32" Name="connectivity" format="ascii">
					0 1 2 3 4 5 6 7 3 2 8 9 7 6 10 11 9 8 12 13 11 10 14 15 13 12 16 17 15 14 18 19 17 16 20 21 19 18 22 23 21 20 24 25 23 22 26 27 25 24 28 29 27 26 30 31 29 28 32 33 31 30 34 35 33 32 36 37 35 34 38 39 37 36 40 41 39 38 42 43 41 40 44 45 43 42 46 47 45 44 48 49 47 46 50 51 49 48 52 53 51 50 54 55 53 52 56 57 55 54 58 59 57 56 60 61 59 58 62 63 61 60 64 65 63 62 66 67 65 64 68 69 67 66 70 71 69 68 72 73 71 70 74 75 73 72 76 77 75 74 78 79 77 76 80 81 79 78 82 83 1 84 85 2 5 86 87 6 2 85 88 8 6 87 89 10 8 88 90 12 10 89 91 14 12 90 92 16 14 91 93 18 16 92 94 20 18 93 95 22 20 94 96 24 22 95 97 26 24 96 98 28 26 97 99 30 28 98 100 32 30 99 101 34 32 100 102 36 34 101 103 38 36 102 104 40 38 103 105 42 40 104 106 44 42 105 107 46 44 106 108 48 46 107 109 50 48 108 110 52 50 109 111 54 52 110 112 56 54 111 113 58 56 112 114 60 58 113 115 62 60 114 116 64 62 115 117 66 64 116 118 68 66 117 119 70 68 118 120 72 70 119 121 74 72 120 122 76 74 121 123 78 76 122 124 80 78 123 125 82 
				</DataArray>
				<DataArray type="Int32" Name="offsets" format="ascii">
					8 16 24 32 40 48 56 64 72 80 88 96 104 112 120 128 136 144 152 160 168 176 184 192 200 208 216 224 232 240 248 256 264 272 280 288 296 304 312 320 
				</DataArray>
				<DataArray type="UInt8" Name="types" format="ascii">
					12 12 12 12 12 12 12 12 12 12 12 12 12 12 12 12 12 12 12 12 12 12 12 12 12 12 12 12 12 12 12 12 12 12 12 12 12 12 12 12 
				</DataArray>
			</Cells>
			<PointData>
				<DataArray type="Float32" Name="U" NumberOfComponents="3" ComponentName0="D1" ComponentName1="D2" ComponentName2="D3" format="ascii">
					 0.00000000E+00	 0.00000000E+00	 0.00000000E+00
					 0.00000000E+00	 0.00000000E+00	 0.00000000E+00
					 1.74081000E-02	 0.00000000E+00	 1.28285000E-02
					 9.30685000E-03	 0.00000000E+00	-2.45665000E-02
					 0.00000000E+00	 0.00000000E+00	 0.00000000E+00
					 0.00000000E+00	 0.00000000E+00	 0.00000000E+00
					 1.74081000E-02	 0.00000000E+00	 1.28285000E-02
					 9.30685000E-03	 0.00000000E+00	-2.45665000E-02
					 2.62744000E-02	 0.00000000E+00	 1.76678000E-03
					 3.70648000E-02	 0.00000000E+00	-1.84794000E-02
					 2.62744000E-02	 0.00000000E+00	 1.76678000E-03
					 3.70648000E-02	 0.00000000E+00	-1.84794000E-02
					 5.84284000E-02	 0.00000000E+00	-8.26996000E-03
					 5.09770000E-02	 0.00000000E+00	-1.94450000E-02
					 5.84284000E-02	 0.00000000E+00	-8.26996000E-03
					 5.09770000E-02	 0.00000000E+00	-1.94450000E-02
					 1.10453000E-01	 0.00000000E+00	-1.48862000E-02
					 7.94102000E-02	 0.00000000E+00	-4.76922000E-02
					 1.10453000E-01	 0.00000000E+00	-1.48861000E-02
					 7.94102000E-02	 0.00000000E+00	-4.76922000E-02
					 1.49938000E-01	 0.00000000E+00	-4.53780000E-02
					 1.11910000E-01	 0.00000000E+00	-7.49268000E-02
					 1.49938000E-01	 0.00000000E+00	-4.53780000E-02
					 1.11910000E-01	 0.00000000E+00	-7.49268000E-02
					 1.57580000E-01	 0.00000000E+00	-5.35605000E-02
					 1.02279000E-01	 0.00000000E+00	-5.56749000E-02
					 1.57580000E-01	 0.00000000E+00	-5.35605000E-02
					 1.02279000E-01	 0.00000000E+00	-5.56749000E-02
					 1.93532000E-01	 0.00000000E+00	-4.94652000E-02
					 1.09852000E-01	 0.00000000E+00	-5.15786000E-02
					 1.93532000E-01	 0.00000000E+00	-4.94652000E-02
					 1.09852000E-01	 0.00000000E+00	-5.15786000E-02
					 1.90438000E-01	 0.00000000E+00	-3.31423000E-02
					 1.01675000E-01	 0.00000000E+00	-4.82152000E-02
					 1.90438000E-01	 0.00000000E+00	-3.31423000E-02
					 1.01675000E-01	 0.00000000E+00	-4.82152000E-02
					 1.97793000E-01	 0.00000000E+00	-3.13367000E-02
					 8.78819000E-02	 0.00000000E+00	-4.41546000E-02
					 1.97793000E-01	 0.00000000E+00	-3.13367000E-02
					 8.78819000E-02	 0.00000000E+00	-4.41546000E-02
					 1.76366000E-01	 0.00000000E+00	-3.86424000E-02
					 9.82215000E-02	 0.00000000E+00	-6.00701000E-02
					 1.76366000E-01	 0.00000000E+00	-3.86424000E-02
					 9.82215000E-02	 0.00000000E+00	-6.00701000E-02
					 1.62936000E-01	 0.00000000E+00	-4.36779000E-02
					 6.88367000E-02	 0.00000000E+00	-7.59668000E-02
					 1.62936000E-01	 0.00000000E+00	-4.36779000E-02
					 6.88367000E-02	 0.00000000E+00	-7.59668000E-02
					 1.28980000E-01	 0.00000000E+00	-6.57651000E-02
					 4.14085000E-02	 0.00000000E+00	-8.33642000E-02
					 1.28980000E-01	 0.00000000E+00	-6.57651000E-02
					 4.14085000E-02	 0.00000000E+00	-8.33642000E-02
					 6.87814000E-02	 0.00000000E+00	-7.29301000E-02
					 1.50017000E-02	 0.00000000E+00	-7.84699000E-02
					 6.87814000E-02	 0.00000000E+00	-7.29301000E-02
					 1.50017000E-02	 0.00000000E+00	-7.84699000E-02
					 3.41154000E-02	 0.00000000E+00	-7.45483000E-02
					 3.07122000E-02	 0.00000000E+00	-5.39366000E-02
					 3.41154000E-02	 0.00000000E+00	-7.45483000E-02
					 3.07122000E-02	 0.00000000E+00	-5.39366000E-02
					 4.36637000E-03	 0.00000000E+00	-9.02004000E-02
					-1.56548000E-02	 0.00000000E+00	-4.31097000E-02
					 4.36637000E-03	 0.00000000E+00	-9.02004000E-02
					-1.56548000E-02	 0.00000000E+00	-4.31097000E-02
					 4.75501000E-04	 0.00000000E+00	-7.12244000E-02
					-1.07073000E-02	 0.00000000E+00	-1.01837000E-01
					 4.75501000E-04	 0.00000000E+00	-7.12244000E-02
					-1.07073000E-02	 0.00000000E+00	-1.01837000E-01
					 3.70229000E-02	 0.00000000E+00	-8.03088000E-02
					 3.28968000E-02	 0.00000000E+00	-9.73200000E-02
					 3.70229000E-02	 0.00000000E+00	-8.03088000E-02
					 3.28968000E-02	 0.00000000E+00	-9.73200000E-02
					 5.49062000E-02	 0.00000000E+00	-8.69233000E-02
					 4.16447000E-02	 0.00000000E+00	-8.98014000E-02
					 5.49062000E-02	 0.00000000E+00	-8.69233000E-02
					 4.16447000E-02	 0.00000000E+00	-8.98014000E-02
					 3.93606000E-02	 0.00000000E+00	-8.96386000E-02
					 4.50662000E-02	 0.00000000E+00	-9.41278000E-02
					 3.93606000E-02	 0.00000000E+00	-8.96386000E-02
					 4.50662000E-02	 0.00000000E+00	-9.41278000E-02
					 2.84471000E-02	 0.00000000E+00	-1.04516000E-01
					 6.81192000E-03	 0.00000000E+00	-8.07975000E-02
					 2.84471000E-02	 0.00000000E+00	-1.04516000E-01
					 6.81192000E-03	 0.00000000E+00	-8.07975000E-02
					 0.00000000E+00	 0.00000000E+00	 0.00000000E+00
					 6.67625000E-02	 0.00000000E+00	-3.03663000E-02
					 0.00000000E+00	 0.00000000E+00	 0.00000000E+00
					 6.67625000E-02	 0.00000000E+00	-3.03663000E-02
					 1.23953000E-01	 0.00000000E+00	-4.52865000E-02
					 1.23953000E-01	 0.00000000E+00	-4.52865000E-02
					 1.50912000E-01	 0.00000000E+00	-4.05834000E-02
					 1.50912000E-01	 0.00000000E+00	-4.05834000E-02
					 1.75302000E-01	 0.00000000E+00	-3.47859000E-02
					 1.75302000E-01	 0.00000000E+00	-3.47859000E-02
					 2.22388000E-01	 0.00000000E+00	-5.17576000E-02
					 2.22388000E-01	 0.00000000E+00	-5.17576000E-02
					 2.69500000E-01	 0.00000000E+00	-6.69254000E-02
					 2.69500000E-01	 0.00000000E+00	-6.69254000E-02
					 2.74360000E-01	 0.00000000E+00	-5.29111000E-02
					 2.74360000E-01	 0.00000000E+00	-5.29111000E-02
					 3.01980000E-01	 0.00000000E+00	-4.43655000E-02
					 3.01980000E-01	 0.00000000E+00	-4.43655000E-02
					 2.87988000E-01	 0.00000000E+00	-3.04960000E-02
					 2.87988000E-01	 0.00000000E+00	-3.04960000E-02
					 2.41275000E-01	 0.00000000E+00	-1.95426000E-02
					 2.41275000E-01	 0.00000000E+00	-1.95426000E-02
					 2.49388000E-01	 0.00000000E+00	-4.22827000E-03
					 2.49388000E-01	 0.00000000E+00	-4.22827000E-03
					 1.74510000E-01	 0.00000000E+00	-2.49715000E-02
					 1.74510000E-01	 0.00000000E+00	-2.49715000E-02
					 1.50431000E-01	 0.00000000E+00	-3.31041000E-02
					 1.50431000E-01	 0.00000000E+00	-3.31041000E-02
					 1.16055000E-01	 0.00000000E+00	-5.31847000E-02
					 1.16055000E-01	 0.00000000E+00	-5.31847000E-02
					 1.19320000E-01	 0.00000000E+00	-5.77233000E-02
					 1.19320000E-01	 0.00000000E+00	-5.77233000E-02
					 7.62660000E-02	 0.00000000E+00	-9.14986000E-02
					 7.62660000E-02	 0.00000000E+00	-9.14986000E-02
					 1.02322000E-01	 0.00000000E+00	-8.98153000E-02
					 1.02322000E-01	 0.00000000E+00	-8.98153000E-02
					 5.22686000E-02	 0.00000000E+00	-1.00355000E-01
					 5.22686000E-02	 0.00000000E+00	-1.00355000E-01
					 4.97692000E-02	 0.00000000E+00	-1.09718000E-01
					 4.97692000E-02	 0.00000000E+00	-1.09718000E-01
					 3.08473000E-02	 0.00000000E+00	-1.17503000E-01
					 3.08473000E-02	 0.00000000E+00	-1.17503000E-01
				</DataArray>
			</PointData>
		</Piece>
	</UnstructuredGrid>
</VTKFile>