<?xml version="1.0"?>
<VTKFile type="UnstructuredGrid" version="0.1" byte_order="LittleEndian">
	<UnstructuredGrid>
		<Piece NumberOfPoints="126" NumberOfCells="40">
			<Points>
				<DataArray type="Float64" NumberOfComponents="3" format="ascii">
					 5.00000000E-02	 0.00000000E+00	 0.00000000E+00
					 0.00000000E+00	 0.00000000E+00	 0.00000000E+00
					 0.00000000E+00	 0.00000000E+00	 5.00000000E-02
					 5.00000000E-02	 0.00000000E+00	 5.00000000E-02
					 5.00000000E-02	 3.00000000E-01	 0.00000000E+00
					 0.00000000E+00	 3.00000000E-01	 0.00000000E+00
					 0.00000000E+00	 3.00000000E-01	 5.00000000E-02
					 5.00000000E-02	 3.00000000E-01	 5.00000000E-02
					 0.00000000E+00	 0.00000000E+00	 1.00000000E-01
					 5.00000000E-02	 0.00000000E+00	 1.00000000E-01
					 0.00000000E+00	 3.00000000E-01	 1.00000000E-01
					 5.00000000E-02	 3.00000000E-01	 1.00000000E-01
					 0.00000000E+00	 0.00000000E+00	 1.50000000E-01
					 5.00000000E-02	 0.00000000E+00	 1.50000000E-01
					 0.00000000E+00	 3.00000000E-01	 1.50000000E-01
					 5.00000000E-02	 3.00000000E-01	 1.50000000E-01
					 0.00000000E+00	 0.00000000E+00	 2.00000000E-01
					 5.00000000E-02	 0.00000000E+00	 2.00000000E-01
					 0.00000000E+00	 3.00000000E-01	 2.00000000E-01
					 5.00000000E-02	 3.00000000E-01	 2.00000000E-01
					 0.00000000E+00	 0.00000000E+00	 2.50000000E-01
					 5.00000000E-02	 0.00000000E+00	 2.50000000E-01
					 0.00000000E+00	 3.00000000E-01	 2.50000000E-01
					 5.00000000E-02	 3.00000000E-01	 2.50000000E-01
					 0.00000000E+00	 0.00000000E+00	 3.00000000E-01
					 5.00000000E-02	 0.00000000E+00	 3.00000000E-01
					 0.00000000E+00	 3.00000000E-01	 3.00000000E-01
					 5.00000000E-02	 3.00000000E-01	 3.00000000E-01
					 0.00000000E+00	 0.00000000E+00	 3.50000000E-01
					 5.00000000E-02	 0.00000000E+00	 3.50000000E-01
					 0.00000000E+00	 3.00000000E-01	 3.50000000E-01
					 5.00000000E-02	 3.00000000E-01	 3.50000000E-01
					 0.00000000E+00	 0.00000000E+00	 4.00000000E-01
					 5.00000000E-02	 0.00000000E+00	 4.00000000E-01
					 0.00000000E+00	 3.00000000E-01	 4.00000000E-01
					 5.00000000E-02	 3.00000000E-01	 4.00000000E-01
					 0.00000000E+00	 0.00000000E+00	 4.50000000E-01
					 5.00000000E-02	 0.00000000E+00	 4.50000000E-01
					 0.00000000E+00	 3.00000000E-01	 4.50000000E-01
					 5.00000000E-02	 3.00000000E-01	 4.50000000E-01
					 0.00000000E+00	 0.00000000E+00	 5.00000000E-01
					 5.00000000E-02	 0.00000000E+00	 5.00000000E-01
					 0.00000000E+00	 3.00000000E-01	 5.00000000E-01
					 5.00000000E-02	 3.00000000E-01	 5.00000000E-01
					 0.00000000E+00	 0.00000000E+00	 5.50000000E-01
					 5.00000000E-02	 0.00000000E+00	 5.50000000E-01
					 0.00000000E+00	 3.00000000E-01	 5.50000000E-01
					 5.00000000E-02	 3.00000000E-01	 5.50000000E-01
					 0.00000000E+00	 0.00000000E+00	 6.00000000E-01
					 5.00000000E-02	 0.00000000E+00	 6.00000000E-01
					 0.00000000E+00	 3.00000000E-01	 6.00000000E-01
					 5.00000000E-02	 3.00000000E-01	 6.00000000E-01
					 0.00000000E+00	 0.00000000E+00	 6.50000000E-01
					 5.00000000E-02	 0.00000000E+00	 6.50000000E-01
					 0.00000000E+00	 3.00000000E-01	 6.50000000E-01
					 5.00000000E-02	 3.00000000E-01	 6.50000000E-01
					 0.00000000E+00	 0.00000000E+00	 7.00000000E-01
					 5.00000000E-02	 0.00000000E+00	 7.00000000E-01
					 0.00000000E+00	 3.00000000E-01	 7.00000000E-01
					 5.00000000E-02	 3.00000000E-01	 7.00000000E-01
					 0.00000000E+00	 0.00000000E+00	 7.50000000E-01
					 5.00000000E-02	 0.00000000E+00	 7.50000000E-01
					 0.00000000E+00	 3.00000000E-01	 7.50000000E-01
					 5.00000000E-02	 3.00000000E-01	 7.50000000E-01
					 0.00000000E+00	 0.00000000E+00	 8.00000000E-01
					 5.00000000E-02	 0.00000000E+00	 8.00000000E-01
					 0.00000000E+00	 3.00000000E-01	 8.00000000E-01
					 5.00000000E-02	 3.00000000E-01	 8.00000000E-01
					 0.00000000E+00	 0.00000000E+00	 8.50000000E-01
					 5.00000000E-02	 0.00000000E+00	 8.50000000E-01
					 0.00000000E+00	 3.00000000E-01	 8.50000000E-01
					 5.00000000E-02	 3.00000000E-01	 8.50000000E-01
					 0.00000000E+00	 0.00000000E+00	 9.00000000E-01
					 5.00000000E-02	 0.00000000E+00	 9.00000000E-01
					 0.00000000E+00	 3.00000000E-01	 9.00000000E-01
					 5.00000000E-02	 3.00000000E-01	 9.00000000E-01
					 0.00000000E+00	 0.00000000E+00	 9.50000000E-01
					 5.00000000E-02	 0.00000000E+00	 9.50000000E-01
					 0.00000000E+00	 3.00000000E-01	 9.50000000E-01
					 5.00000000E-02	 3.00000000E-01	 9.50000000E-01
					 0.00000000E+00	 0.00000000E+00	 1.00000000E+00
					 5.00000000E-02	 0.00000000E+00	 1.00000000E+00
					 0.00000000E+00	 3.00000000E-01	 1.00000000E+00
					 5.00000000E-02	 3.00000000E-01	 1.00000000E+00
					-5.00000000E-02	 0.00000000E+00	 0.00000000E+00
					-5.00000000E-02	 0.00000000E+00	 5.00000000E-02
					-5.00000000E-02	 3.00000000E-01	 0.00000000E+00
					-5.00000000E-02	 3.00000000E-01	 5.00000000E-02
					-5.00000000E-02	 0.00000000E+00	 1.00000000E-01
					-5.00000000E-02	 3.00000000E-01	 1.00000000E-01
					-5.00000000E-02	 0.00000000E+00	 1.50000000E-01
					-5.00000000E-02	 3.00000000E-01	 1.50000000E-01
					-5.00000000E-02	 0.00000000E+00	 2.00000000E-01
					-5.00000000E-02	 3.00000000E-01	 2.00000000E-01
					-5.00000000E-02	 0.00000000E+00	 2.50000000E-01
					-5.00000000E-02	 3.00000000E-01	 2.50000000E-01
					-5.00000000E-02	 0.00000000E+00	 3.00000000E-01
					-5.00000000E-02	 3.00000000E-01	 3.00000000E-01
					-5.00000000E-02	 0.00000000E+00	 3.50000000E-01
					-5.00000000E-02	 3.00000000E-01	 3.50000000E-01
					-5.00000000E-02	 0.00000000E+00	 4.00000000E-01
					-5.00000000E-02	 3.00000000E-01	 4.00000000E-01
					-5.00000000E-02	 0.00000000E+00	 4.50000000E-01
					-5.00000000E-02	 3.00000000E-01	 4.50000000E-01
					-5.00000000E-02	 0.00000000E+00	 5.00000000E-01
					-5.00000000E-02	 3.00000000E-01	 5.00000000E-01
					-5.00000000E-02	 0.00000000E+00	 5.50000000E-01
					-5.00000000E-02	 3.00000000E-01	 5.50000000E-01
					-5.00000000E-02	 0.00000000E+00	 6.00000000E-01
					-5.00000000E-02	 3.00000000E-01	 6.00000000E-01
					-5.00000000E-02	 0.00000000E+00	 6.50000000E-01
					-5.00000000E-02	 3.00000000E-01	 6.50000000E-01
					-5.00000000E-02	 0.00000000E+00	 7.00000000E-01
					-5.00000000E-02	 3.00000000E-01	 7.00000000E-01
					-5.00000000E-02	 0.00000000E+00	 7.50000000E-01
					-5.00000000E-02	 3.00000000E-01	 7.50000000E-01
					-5.00000000E-02	 0.00000000E+00	 8.00000000E-01
					-5.00000000E-02	 3.00000000E-01	 8.00000000E-01
					-5.00000000E-02	 0.00000000E+00	 8.50000000E-01
					-5.00000000E-02	 3.00000000E-01	 8.50000000E-01
					-5.00000000E-02	 0.00000000E+00	 9.00000000E-01
					-5.00000000E-02	 3.00000000E-01	 9.00000000E-01
					-5.00000000E-02	 0.00000000E+00	 9.50000000E-01
					-5.00000000E-02	 3.00000000E-01	 9.50000000E-01
					-5.00000000E-02	 0.00000000E+00	 1.00000000E+00
					-5.00000000E-02	 3.00000000E-01	 1.00000000E+00
				</DataArray>
			</Points>
			<Cells>
				<DataArray type="Int32" Name="connectivity" format="ascii">
					0 1 2 3 4 5 6 7 3 2 8 9 7 6 10 11 9 8 12 13 11 10 14 15 13 12 16 17 15 14 18 19 17 16 20 21 19 18 22 23 21 20 24 25 23 22 26 27 25 24 28 29 27 26 30 31 29 28 32 33 31 30 34 35 33 32 36 37 35 34 38 39 37 36 40 41 39 38 42 43 41 40 44 45 43 42 46 47 45 44 48 49 47 46 50 51 49 48 52 53 51 50 54 55 53 52 56 57 55 54 58 59 57 56 60 61 59 58 62 63 61 60 64 65 63 62 66 67 65 64 68 69 67 66 70 71 69 68 72 73 71 70 74 75 73 72 76 77 75 74 78 79 77 76 80 81 79 78 82 83 1 84 85 2 5 86 87 6 2 85 88 8 6 87 89 10 8 88 90 12 10 89 91 14 12 90 92 16 14 91 93 18 16 92 94 20 18 93 95 22 20 94 96 24 22 95 97 26 24 96 98 28 26 97 99 30 28 98 100 32 30 99 101 34 32 100 102 36 34 101 103 38 36 102 104 40 38 103 105 42 40 104 106 44 42 105 107 46 44 106 108 48 46 107 109 50 48 108 110 52 50 109 111 54 52 110 112 56 54 111 113 58 56 112 114 60 58 113 115 62 60 114 116 64 62 115 117 66 64 116 118 68 66 117 119 70 68 118 120 72 70 119 121 74 72 120 122 76 74 121 123 78 76 122 124 80 78 123 125 82 
				</DataArray>
				<DataArray type="Int32" Name="offsets" format="ascii">
					8 16 24 32 40 48 56 64 72 80 88 96 104 112 120 128 136 144 152 160 168 176 184 192 200 208 216 224 232 240 248 256 264 272 280 288 296 304 312 320 
				</DataArray>
				<DataArray type="UInt8" Name="types" format="ascii">
					12 12 12 12 12 12 12 12 12 12 12 12 12 12 12 12 12 12 12 12 12 12 12 12 12 12 12 12 12 12 12 12 12 12 12 12 12 12 12 12 
				</DataArray>
			</Cells>
			<PointData>
				<DataArray type="Float32" Name="U" NumberOfComponents="3" ComponentName0="D1" ComponentName1="D2" ComponentName2="D3" format="ascii">
					 0.00000000E+00	 0.00000000E+00	 0.00000000E+00
					 0.00000000E+00	 0.00000000E+00	 0.00000000E+00
					 4.47285000E-04	 0.00000000E+00	-1.38377000E-04
					 4.64334000E-04	 0.00000000E+00	-5.92808000E-04
					 0.00000000E+00	 0.00000000E+00	 0.00000000E+00
					 0.00000000E+00	 0.00000000E+00	 0.00000000E+00
					 4.47285000E-04	 0.00000000E+00	-1.38377000E-04
					 4.64334000E-04	 0.00000000E+00	-5.92808000E-04
					 1.03263000E-03	 0.00000000E+00	 2.76168000E-04
					 1.31189000E-03	 0.00000000E+00	-8.47404000E-04
					 1.03263000E-03	 0.00000000E+00	 2.76168000E-04
					 1.31189000E-03	 0.00000000E+00	-8.47404000E-04
					 1.53428000E-03	 0.00000000E+00	 5.69434000E-04
					 2.81591000E-03	 0.00000000E+00	-7.14165000E-04
					 1.53428000E-03	 0.00000000E+00	 5.69434000E-04
					 2.81591000E-03	 0.00000000E+00	-7.14165000E-04
					 1.91150000E-03	 0.00000000E+00	 6.62039000E-05
					 2.95383000E-03	 0.00000000E+00	-3.43093000E-04
					 1.91150000E-03	 0.00000000E+00	 6.62039000E-05
					 2.95383000E-03	 0.00000000E+00	-3.43093000E-04
					 2.16404000E-03	 0.00000000E+00	 5.28882000E-04
					 3.17756000E-03	 0.00000000E+00	 5.75533000E-05
					 2.16404000E-03	 0.00000000E+00	 5.28882000E-04
					 3.17756000E-03	 0.00000000E+00	 5.75533000E-05
					 2.28065000E-03	 0.00000000E+00	 6.64158000E-04
					 3.40559000E-03	 0.00000000E+00	 2.69982000E-04
					 2.28065000E-03	 0.00000000E+00	 6.64158000E-04
					 3.40559000E-03	 0.00000000E+00	 2.69982000E-04
					 2.27340000E-03	 0.00000000E+00	 4.00253000E-04
					 2.97287000E-03	 0.00000000E+00	 6.29855000E-04
					 2.27340000E-03	 0.00000000E+00	 4.00253000E-04
					 2.97287000E-03	 0.00000000E+00	 6.29855000E-04
					 2.19757000E-03	 0.00000000E+00	 6.97709000E-04
					 2.59513000E-03	 0.00000000E+00	 5.01608000E-04
					 2.19757000E-03	 0.00000000E+00	 6.97709000E-04
					 2.59513000E-03	 0.00000000E+00	 5.01608000E-04
					 2.09443000E-03	 0.00000000E+00	 8.10386000E-04
					 3.37820000E-03	 0.00000000E+00	 1.13101000E-04
					 2.09443000E-03	 0.00000000E+00	 8.10386000E-04
					 3.37820000E-03	 0.00000000E+00	 1.13101000E-04
					 1.97350000E-03	 0.00000000E+00	 2.75922000E-04
					 3.35730000E-03	 0.00000000E+00	 6.38969000E-04
					 1.97350000E-03	 0.00000000E+00	 2.75922000E-04
					 3.35730000E-03	 0.00000000E+00	 6.38969000E-04
					 1.85197000E-03	 0.00000000E+00	 5.34995000E-04
					 2.75603000E-03	 0.00000000E+00	 1.03835000E-03
					 1.85197000E-03	 0.00000000E+00	 5.34995000E-04
					 2.75603000E-03	 0.00000000E+00	 1.03835000E-03
					 1.72611000E-03	 0.00000000E+00	 4.29895000E-04
					 2.54353000E-03	 0.00000000E+00	 8.76542000E-04
					 1.72611000E-03	 0.00000000E+00	 4.29895000E-04
					 2.54353000E-03	 0.00000000E+00	 8.76542000E-04
					 1.63340000E-03	 0.00000000E+00	 4.90757000E-04
					 2.57419000E-03	 0.00000000E+00	 8.55761000E-04
					 1.63340000E-03	 0.00000000E+00	 4.90757000E-04
					 2.57419000E-03	 0.00000000E+00	 8.55761000E-04
					 1.53009000E-03	 0.00000000E+00	 3.77607000E-04
					 2.24636000E-03	 0.00000000E+00	 5.33496000E-04
					 1.53009000E-03	 0.00000000E+00	 3.77607000E-04
					 2.24636000E-03	 0.00000000E+00	 5.33496000E-04
					 1.40380000E-03	 0.00000000E+00	 7.60328000E-04
					 2.58603000E-03	 0.00000000E+00	 8.25721000E-04
					 1.40380000E-03	 0.00000000E+00	 7.60328000E-04
					 2.58603000E-03	 0.00000000E+00	 8.25721000E-04
					 1.25226000E-03	 0.00000000E+00	 5.94506000E-04
					 2.58638000E-03	 0.00000000E+00	 1.05007000E-03
					 1.25226000E-03	 0.00000000E+00	 5.94506000E-04
					 2.58638000E-03	 0.00000000E+00	 1.05007000E-03
					 1.09056000E-03	 0.00000000E+00	 4.79442000E-04
					 1.94217000E-03	 0.00000000E+00	 1.09659000E-03
					 1.09056000E-03	 0.00000000E+00	 4.79442000E-04
					 1.94217000E-03	 0.00000000E+00	 1.09659000E-03
					 9.16770000E-04	 0.00000000E+00	 4.64126000E-04
					 1.43444000E-03	 0.00000000E+00	 9.59512000E-04
					 9.16770000E-04	 0.00000000E+00	 4.64126000E-04
					 1.43444000E-03	 0.00000000E+00	 9.59512000E-04
					 7.41752000E-04	 0.00000000E+00	 5.62045000E-04
					 1.38836000E-03	 0.00000000E+00	 1.22191000E-03
					 7.41752000E-04	 0.00000000E+00	 5.62045000E-04
					 1.38836000E-03	 0.00000000E+00	 1.22191000E-03
					 5.85183000E-04	 0.00000000E+00	 2.78105000E-04
					 1.65261000E-04	 0.00000000E+00	 1.34848000E-03
					 5.85183000E-04	 0.00000000E+00	 2.78105000E-04
					 1.65261000E-04	 0.00000000E+00	 1.34848000E-03
					 0.00000000E+00	 0.00000000E+00	 0.00000000E+00
					 6.11744000E-04	 0.00000000E+00	 3.87450000E-05
					 0.00000000E+00	 0.00000000E+00	 0.00000000E+00
					 6.11744000E-04	 0.00000000E+00	 3.87450000E-05
					 7.88206000E-04	 0.00000000E+00	-3.42067000E-05
					 7.88206000E-04	 0.00000000E+00	-3.42067000E-05
					 2.77462000E-04	 0.00000000E+00	 5.11277000E-05
					 2.77462000E-04	 0.00000000E+00	 5.11277000E-05
					 8.92641000E-04	 0.00000000E+00	 2.46884000E-04
					 8.92641000E-04	 0.00000000E+00	 2.46884000E-04
					 1.14958000E-03	 0.00000000E+00	 4.37309000E-04
					 1.14958000E-03	 0.00000000E+00	 4.37309000E-04
					 1.16843000E-03	 0.00000000E+00	 4.22266000E-04
					 1.16843000E-03	 0.00000000E+00	 4.22266000E-04
					 1.59132000E-03	 0.00000000E+00	 5.98584000E-04
					 1.59132000E-03	 0.00000000E+00	 5.98584000E-04
					 1.84733000E-03	 0.00000000E+00	 3.60254000E-04
					 1.84733000E-03	 0.00000000E+00	 3.60254000E-04
					 8.58331000E-04	 0.00000000E+00	-8.15614000E-05
					 8.58331000E-04	 0.00000000E+00	-8.15614000E-05
					 6.42199000E-04	 0.00000000E+00	 4.18939000E-04
					 6.42199000E-04	 0.00000000E+00	 4.18939000E-04
					 9.88111000E-04	 0.00000000E+00	 7.99683000E-04
					 9.88111000E-04	 0.00000000E+00	 7.99683000E-04
					 9.78795000E-04	 0.00000000E+00	 6.58236000E-04
					 9.78795000E-04	 0.00000000E+00	 6.58236000E-04
					 7.40034000E-04	 0.00000000E+00	 6.33390000E-04
					 7.40034000E-04	 0.00000000E+00	 6.33390000E-04
					 8.50391000E-04	 0.00000000E+00	 3.00805000E-04
					 8.50391000E-04	 0.00000000E+00	 3.00805000E-04
					 2.65202000E-04	 0.00000000E+00	 5.54892000E-04
					 2.65202000E-04	 0.00000000E+00	 5.54892000E-04
					-2.20533000E-05	 0.00000000E+00	 7.48561000E-04
					-2.20533000E-05	 0.00000000E+00	 7.48561000E-04
					 2.98666000E-04	 0.00000000E+00	 7.66961000E-04
					 2.98666000E-04	 0.00000000E+00	 7.66961000E-04
					 4.49455000E-04	 0.00000000E+00	 6.28046000E-04
					 4.49455000E-04	 0.00000000E+00	 6.28046000E-04
					 1.20125000E-04	 0.00000000E+00	 9.00825000E-04
					 1.20125000E-04	 0.00000000E+00	 9.00825000E-04
					 1.01662000E-03	 0.00000000E+00	 1.04539000E-03
					 1.01662000E-03	 0.00000000E+00	 1.04539000E-03
				</DataArray>
			</PointData>
		</Piece>
	</UnstructuredGrid>
</VTKFile>