<?xml version="1.0"?>
<VTKFile type="UnstructuredGrid" version="0.1" byte_order="LittleEndian">
	<UnstructuredGrid>
		<Piece NumberOfPoints="126" NumberOfCells="40">
			<Points>
				<DataArray type="Float64" NumberOfComponents="3" format="ascii">
					 5.00000000E-02	 0.00000000E+00	 0.00000000E+00
					 0.00000000E+00	 0.00000000E+00	 0.00000000E+00
					 0.00000000E+00	 0.00000000E+00	 5.00000000E-02
					 5.00000000E-02	 0.00000000E+00	 5.00000000E-02
					 5.00000000E-02	 3.00000000E-01	 0.00000000E+00
					 0.00000000E+00	 3.00000000E-01	 0.00000000E+00
					 0.00000000E+00	 3.00000000E-01	 5.00000000E-02
					 5.00000000E-02	 3.00000000E-01	 5.00000000E-02
					 0.00000000E+00	 0.00000000E+00	 1.00000000E-01
					 5.00000000E-02	 0.00000000E+00	 1.00000000E-01
					 0.00000000E+00	 3.00000000E-01	 1.00000000E-01
					 5.00000000E-02	 3.00000000E-01	 1.00000000E-01
					 0.00000000E+00	 0.00000000E+00	 1.50000000E-01
					 5.00000000E-02	 0.00000000E+00	 1.50000000E-01
					 0.00000000E+00	 3.00000000E-01	 1.50000000E-01
					 5.00000000E-02	 3.00000000E-01	 1.50000000E-01
					 0.00000000E+00	 0.00000000E+00	 2.00000000E-01
					 5.00000000E-02	 0.00000000E+00	 2.00000000E-01
					 0.00000000E+00	 3.00000000E-01	 2.00000000E-01
					 5.00000000E-02	 3.00000000E-01	 2.00000000E-01
					 0.00000000E+00	 0.00000000E+00	 2.50000000E-01
					 5.00000000E-02	 0.00000000E+00	 2.50000000E-01
					 0.00000000E+00	 3.00000000E-01	 2.50000000E-01
					 5.00000000E-02	 3.00000000E-01	 2.50000000E-01
					 0.00000000E+00	 0.00000000E+00	 3.00000000E-01
					 5.00000000E-02	 0.00000000E+00	 3.00000000E-01
					 0.00000000E+00	 3.00000000E-01	 3.00000000E-01
					 5.00000000E-02	 3.00000000E-01	 3.00000000E-01
					 0.00000000E+00	 0.00000000E+00	 3.50000000E-01
					 5.00000000E-02	 0.00000000E+00	 3.50000000E-01
					 0.00000000E+00	 3.00000000E-01	 3.50000000E-01
					 5.00000000E-02	 3.00000000E-01	 3.50000000E-01
					 0.00000000E+00	 0.00000000E+00	 4.00000000E-01
					 5.00000000E-02	 0.00000000E+00	 4.00000000E-01
					 0.00000000E+00	 3.00000000E-01	 4.00000000E-01
					 5.00000000E-02	 3.00000000E-01	 4.00000000E-01
					 0.00000000E+00	 0.00000000E+00	 4.50000000E-01
					 5.00000000E-02	 0.00000000E+00	 4.50000000E-01
					 0.00000000E+00	 3.00000000E-01	 4.50000000E-01
					 5.00000000E-02	 3.00000000E-01	 4.50000000E-01
					 0.00000000E+00	 0.00000000E+00	 5.00000000E-01
					 5.00000000E-02	 0.00000000E+00	 5.00000000E-01
					 0.00000000E+00	 3.00000000E-01	 5.00000000E-01
					 5.00000000E-02	 3.00000000E-01	 5.00000000E-01
					 0.00000000E+00	 0.00000000E+00	 5.50000000E-01
					 5.00000000E-02	 0.00000000E+00	 5.50000000E-01
					 0.00000000E+00	 3.00000000E-01	 5.50000000E-01
					 5.00000000E-02	 3.00000000E-01	 5.50000000E-01
					 0.00000000E+00	 0.00000000E+00	 6.00000000E-01
					 5.00000000E-02	 0.00000000E+00	 6.00000000E-01
					 0.00000000E+00	 3.00000000E-01	 6.00000000E-01
					 5.00000000E-02	 3.00000000E-01	 6.00000000E-01
					 0.00000000E+00	 0.00000000E+00	 6.50000000E-01
					 5.00000000E-02	 0.00000000E+00	 6.50000000E-01
					 0.00000000E+00	 3.00000000E-01	 6.50000000E-01
					 5.00000000E-02	 3.00000000E-01	 6.50000000E-01
					 0.00000000E+00	 0.00000000E+00	 7.00000000E-01
					 5.00000000E-02	 0.00000000E+00	 7.00000000E-01
					 0.00000000E+00	 3.00000000E-01	 7.00000000E-01
					 5.00000000E-02	 3.00000000E-01	 7.00000000E-01
					 0.00000000E+00	 0.00000000E+00	 7.50000000E-01
					 5.00000000E-02	 0.00000000E+00	 7.50000000E-01
					 0.00000000E+00	 3.00000000E-01	 7.50000000E-01
					 5.00000000E-02	 3.00000000E-01	 7.50000000E-01
					 0.00000000E+00	 0.00000000E+00	 8.00000000E-01
					 5.00000000E-02	 0.00000000E+00	 8.00000000E-01
					 0.00000000E+00	 3.00000000E-01	 8.00000000E-01
					 5.00000000E-02	 3.00000000E-01	 8.00000000E-01
					 0.00000000E+00	 0.00000000E+00	 8.50000000E-01
					 5.00000000E-02	 0.00000000E+00	 8.50000000E-01
					 0.00000000E+00	 3.00000000E-01	 8.50000000E-01
					 5.00000000E-02	 3.00000000E-01	 8.50000000E-01
					 0.00000000E+00	 0.00000000E+00	 9.00000000E-01
					 5.00000000E-02	 0.00000000E+00	 9.00000000E-01
					 0.00000000E+00	 3.00000000E-01	 9.00000000E-01
					 5.00000000E-02	 3.00000000E-01	 9.00000000E-01
					 0.00000000E+00	 0.00000000E+00	 9.50000000E-01
					 5.00000000E-02	 0.00000000E+00	 9.50000000E-01
					 0.00000000E+00	 3.00000000E-01	 9.50000000E-01
					 5.00000000E-02	 3.00000000E-01	 9.50000000E-01
					 0.00000000E+00	 0.00000000E+00	 1.00000000E+00
					 5.00000000E-02	 0.00000000E+00	 1.00000000E+00
					 0.00000000E+00	 3.00000000E-01	 1.00000000E+00
					 5.00000000E-02	 3.00000000E-01	 1.00000000E+00
					-5.00000000E-02	 0.00000000E+00	 0.00000000E+00
					-5.00000000E-02	 0.00000000E+00	 5.00000000E-02
					-5.00000000E-02	 3.00000000E-01	 0.00000000E+00
					-5.00000000E-02	 3.00000000E-01	 5.00000000E-02
					-5.00000000E-02	 0.00000000E+00	 1.00000000E-01
					-5.00000000E-02	 3.00000000E-01	 1.00000000E-01
					-5.00000000E-02	 0.00000000E+00	 1.50000000E-01
					-5.00000000E-02	 3.00000000E-01	 1.50000000E-01
					-5.00000000E-02	 0.00000000E+00	 2.00000000E-01
					-5.00000000E-02	 3.00000000E-01	 2.00000000E-01
					-5.00000000E-02	 0.00000000E+00	 2.50000000E-01
					-5.00000000E-02	 3.00000000E-01	 2.50000000E-01
					-5.00000000E-02	 0.00000000E+00	 3.00000000E-01
					-5.00000000E-02	 3.00000000E-01	 3.00000000E-01
					-5.00000000E-02	 0.00000000E+00	 3.50000000E-01
					-5.00000000E-02	 3.00000000E-01	 3.50000000E-01
					-5.00000000E-02	 0.00000000E+00	 4.00000000E-01
					-5.00000000E-02	 3.00000000E-01	 4.00000000E-01
					-5.00000000E-02	 0.00000000E+00	 4.50000000E-01
					-5.00000000E-02	 3.00000000E-01	 4.50000000E-01
					-5.00000000E-02	 0.00000000E+00	 5.00000000E-01
					-5.00000000E-02	 3.00000000E-01	 5.00000000E-01
					-5.00000000E-02	 0.00000000E+00	 5.50000000E-01
					-5.00000000E-02	 3.00000000E-01	 5.50000000E-01
					-5.00000000E-02	 0.00000000E+00	 6.00000000E-01
					-5.00000000E-02	 3.00000000E-01	 6.00000000E-01
					-5.00000000E-02	 0.00000000E+00	 6.50000000E-01
					-5.00000000E-02	 3.00000000E-01	 6.50000000E-01
					-5.00000000E-02	 0.00000000E+00	 7.00000000E-01
					-5.00000000E-02	 3.00000000E-01	 7.00000000E-01
					-5.00000000E-02	 0.00000000E+00	 7.50000000E-01
					-5.00000000E-02	 3.00000000E-01	 7.50000000E-01
					-5.00000000E-02	 0.00000000E+00	 8.00000000E-01
					-5.00000000E-02	 3.00000000E-01	 8.00000000E-01
					-5.00000000E-02	 0.00000000E+00	 8.50000000E-01
					-5.00000000E-02	 3.00000000E-01	 8.50000000E-01
					-5.00000000E-02	 0.00000000E+00	 9.00000000E-01
					-5.00000000E-02	 3.00000000E-01	 9.00000000E-01
					-5.00000000E-02	 0.00000000E+00	 9.50000000E-01
					-5.00000000E-02	 3.00000000E-01	 9.50000000E-01
					-5.00000000E-02	 0.00000000E+00	 1.00000000E+00
					-5.00000000E-02	 3.00000000E-01	 1.00000000E+00
				</DataArray>
			</Points>
			<Cells>
				<DataArray type="Int32" Name="connectivity" format="ascii">
					0 1 2 3 4 5 6 7 3 2 8 9 7 6 10 11 9 8 12 13 11 10 14 15 13 12 16 17 15 14 18 19 17 16 20 21 19 18 22 23 21 20 24 25 23 22 26 27 25 24 28 29 27 26 30 31 29 28 32 33 31 30 34 35 33 32 36 37 35 34 38 39 37 36 40 41 39 38 42 43 41 40 44 45 43 42 46 47 45 44 48 49 47 46 50 51 49 48 52 53 51 50 54 55 53 52 56 57 55 54 58 59 57 56 60 61 59 58 62 63 61 60 64 65 63 62 66 67 65 64 68 69 67 66 70 71 69 68 72 73 71 70 74 75 73 72 76 77 75 74 78 79 77 76 80 81 79 78 82 83 1 84 85 2 5 86 87 6 2 85 88 8 6 87 89 10 8 88 90 12 10 89 91 14 12 90 92 16 14 91 93 18 16 92 94 20 18 93 95 22 20 94 96 24 22 95 97 26 24 96 98 28 26 97 99 30 28 98 100 32 30 99 101 34 32 100 102 36 34 101 103 38 36 102 104 40 38 103 105 42 40 104 106 44 42 105 107 46 44 106 108 48 46 107 109 50 48 108 110 52 50 109 111 54 52 110 112 56 54 111 113 58 56 112 114 60 58 113 115 62 60 114 116 64 62 115 117 66 64 116 118 68 66 117 119 70 68 118 120 72 70 119 121 74 72 120 122 76 74 121 123 78 76 122 124 80 78 123 125 82 
				</DataArray>
				<DataArray type="Int32" Name="offsets" format="ascii">
					8 16 24 32 40 48 56 64 72 80 88 96 104 112 120 128 136 144 152 160 168 176 184 192 200 208 216 224 232 240 248 256 264 272 280 288 296 304 312 320 
				</DataArray>
				<DataArray type="UInt8" Name="types" format="ascii">
					12 12 12 12 12 12 12 12 12 12 12 12 12 12 12 12 12 12 12 12 12 12 12 12 12 12 12 12 12 12 12 12 12 12 12 12 12 12 12 12 
				</DataArray>
			</Cells>
			<PointData>
				<DataArray type="Float32" Name="U" NumberOfComponents="3" ComponentName0="D1" ComponentName1="D2" ComponentName2="D3" format="ascii">
					 0.00000000E+00	 0.00000000E+00	 0.00000000E+00
					 0.00000000E+00	 0.00000000E+00	 0.00000000E+00
					 1.51218000E-04	 0.00000000E+00	-3.33496000E-04
					 3.74866000E-04	 0.00000000E+00	 1.44840000E-04
					 0.00000000E+00	 0.00000000E+00	 0.00000000E+00
					 0.00000000E+00	 0.00000000E+00	 0.00000000E+00
					 1.51218000E-04	 0.00000000E+00	-3.33496000E-04
					 3.74866000E-04	 0.00000000E+00	 1.44840000E-04
					 3.39321000E-04	 0.00000000E+00	-2.79295000E-04
					 1.29066000E-04	 0.00000000E+00	 2.92702000E-04
					 3.39321000E-04	 0.00000000E+00	-2.79295000E-04
					 1.29066000E-04	 0.00000000E+00	 2.92702000E-04
					 4.76427000E-04	 0.00000000E+00	-4.04101000E-05
					-2.61799000E-04	 0.00000000E+00	 3.17883000E-04
					 4.76427000E-04	 0.00000000E+00	-4.04101000E-05
					-2.61799000E-04	 0.00000000E+00	 3.17883000E-04
					 5.62191000E-04	 0.00000000E+00	-4.31918000E-05
					-6.66215000E-05	 0.00000000E+00	 6.29544000E-04
					 5.62191000E-04	 0.00000000E+00	-4.31918000E-05
					-6.66215000E-05	 0.00000000E+00	 6.29544000E-04
					 5.93515000E-04	 0.00000000E+00	 1.13207000E-04
					-4.29815000E-05	 0.00000000E+00	 4.30101000E-04
					 5.93515000E-04	 0.00000000E+00	 1.13207000E-04
					-4.29815000E-05	 0.00000000E+00	 4.30101000E-04
					 5.81863000E-04	 0.00000000E+00	 5.69047000E-04
					-3.66911000E-04	 0.00000000E+00	 4.11326000E-04
					 5.81863000E-04	 0.00000000E+00	 5.69047000E-04
					-3.66911000E-04	 0.00000000E+00	 4.11326000E-04
					 5.46692000E-04	 0.00000000E+00	 5.32314000E-04
					 1.60137000E-04	 0.00000000E+00	 2.43351000E-04
					 5.46692000E-04	 0.00000000E+00	 5.32314000E-04
					 1.60137000E-04	 0.00000000E+00	 2.43351000E-04
					 5.12306000E-04	 0.00000000E+00	 1.22475000E-04
					 5.74407000E-04	 0.00000000E+00	 6.22024000E-04
					 5.12306000E-04	 0.00000000E+00	 1.22475000E-04
					 5.74407000E-04	 0.00000000E+00	 6.22024000E-04
					 4.76907000E-04	 0.00000000E+00	 2.34654000E-04
					-5.97897000E-04	 0.00000000E+00	 7.69933000E-04
					 4.76907000E-04	 0.00000000E+00	 2.34654000E-04
					-5.97897000E-04	 0.00000000E+00	 7.69933000E-04
					 4.54307000E-04	 0.00000000E+00	 7.39354000E-04
					-3.94283000E-05	 0.00000000E+00	 5.43482000E-04
					 4.54307000E-04	 0.00000000E+00	 7.39354000E-04
					-3.94283000E-05	 0.00000000E+00	 5.43482000E-04
					 4.27656000E-04	 0.00000000E+00	 2.96815000E-04
					 1.09656000E-04	 0.00000000E+00	 2.16821000E-04
					 4.27656000E-04	 0.00000000E+00	 2.96815000E-04
					 1.09656000E-04	 0.00000000E+00	 2.16821000E-04
					 4.06107000E-04	 0.00000000E+00	 4.96929000E-04
					-3.47928000E-04	 0.00000000E+00	 1.60975000E-04
					 4.06107000E-04	 0.00000000E+00	 4.96929000E-04
					-3.47928000E-04	 0.00000000E+00	 1.60975000E-04
					 3.62889000E-04	 0.00000000E+00	 8.70700000E-04
					-4.38816000E-05	 0.00000000E+00	 6.54484000E-04
					 3.62889000E-04	 0.00000000E+00	 8.70700000E-04
					-4.38816000E-05	 0.00000000E+00	 6.54484000E-04
					 3.26875000E-04	 0.00000000E+00	 4.25555000E-04
					 3.06554000E-04	 0.00000000E+00	 4.86590000E-04
					 3.26875000E-04	 0.00000000E+00	 4.25555000E-04
					 3.06554000E-04	 0.00000000E+00	 4.86590000E-04
					 2.83358000E-04	 0.00000000E+00	 2.07631000E-04
					-7.92267000E-04	 0.00000000E+00	 4.92801000E-04
					 2.83358000E-04	 0.00000000E+00	 2.07631000E-04
					-7.92267000E-04	 0.00000000E+00	 4.92801000E-04
					 2.33778000E-04	 0.00000000E+00	 9.66396000E-04
					-6.78655000E-04	 0.00000000E+00	 2.82192000E-04
					 2.33778000E-04	 0.00000000E+00	 9.66396000E-04
					-6.78655000E-04	 0.00000000E+00	 2.82192000E-04
					 1.91451000E-04	 0.00000000E+00	 1.02957000E-03
					-6.54002000E-05	 0.00000000E+00	 3.95976000E-04
					 1.91451000E-04	 0.00000000E+00	 1.02957000E-03
					-6.54002000E-05	 0.00000000E+00	 3.95976000E-04
					 1.47342000E-04	 0.00000000E+00	 4.81553000E-04
					 3.71850000E-05	 0.00000000E+00	 1.48636000E-04
					 1.47342000E-04	 0.00000000E+00	 4.81553000E-04
					 3.71850000E-05	 0.00000000E+00	 1.48636000E-04
					 9.92490000E-05	 0.00000000E+00	 6.57210000E-04
					-2.65081000E-04	 0.00000000E+00	 4.03413000E-04
					 9.92490000E-05	 0.00000000E+00	 6.57210000E-04
					-2.65081000E-04	 0.00000000E+00	 4.03413000E-04
					 4.69992000E-05	 0.00000000E+00	 9.36973000E-04
					-1.73918000E-04	 0.00000000E+00	 4.44929000E-04
					 4.69992000E-05	 0.00000000E+00	 9.36973000E-04
					-1.73918000E-04	 0.00000000E+00	 4.44929000E-04
					 0.00000000E+00	 0.00000000E+00	 0.00000000E+00
					-1.90146000E-05	 0.00000000E+00	 3.29299000E-04
					 0.00000000E+00	 0.00000000E+00	 0.00000000E+00
					-1.90146000E-05	 0.00000000E+00	 3.29299000E-04
					 5.66466000E-04	 0.00000000E+00	 5.30939000E-04
					 5.66466000E-04	 0.00000000E+00	 5.30939000E-04
					 1.23028000E-03	 0.00000000E+00	 5.12598000E-04
					 1.23028000E-03	 0.00000000E+00	 5.12598000E-04
					 1.20700000E-03	 0.00000000E+00	 7.42416000E-04
					 1.20700000E-03	 0.00000000E+00	 7.42416000E-04
					 1.24294000E-03	 0.00000000E+00	 4.60477000E-04
					 1.24294000E-03	 0.00000000E+00	 4.60477000E-04
					 1.54474000E-03	 0.00000000E+00	 3.85478000E-04
					 1.54474000E-03	 0.00000000E+00	 3.85478000E-04
					 9.63432000E-04	 0.00000000E+00	 1.93123000E-04
					 9.63432000E-04	 0.00000000E+00	 1.93123000E-04
					 4.73660000E-04	 0.00000000E+00	 5.65145000E-04
					 4.73660000E-04	 0.00000000E+00	 5.65145000E-04
					 1.58220000E-03	 0.00000000E+00	 7.14127000E-04
					 1.58220000E-03	 0.00000000E+00	 7.14127000E-04
					 9.76836000E-04	 0.00000000E+00	 4.96228000E-04
					 9.76836000E-04	 0.00000000E+00	 4.96228000E-04
					 7.70573000E-04	 0.00000000E+00	 1.63841000E-04
					 7.70573000E-04	 0.00000000E+00	 1.63841000E-04
					 1.18521000E-03	 0.00000000E+00	 1.00775000E-04
					 1.18521000E-03	 0.00000000E+00	 1.00775000E-04
					 8.00668000E-04	 0.00000000E+00	 5.75585000E-04
					 8.00668000E-04	 0.00000000E+00	 5.75585000E-04
					 3.64241000E-04	 0.00000000E+00	 4.06291000E-04
					 3.64241000E-04	 0.00000000E+00	 4.06291000E-04
					 1.38167000E-03	 0.00000000E+00	 4.12447000E-04
					 1.38167000E-03	 0.00000000E+00	 4.12447000E-04
					 1.19736000E-03	 0.00000000E+00	 1.97984000E-04
					 1.19736000E-03	 0.00000000E+00	 1.97984000E-04
					 4.71881000E-04	 0.00000000E+00	 2.98722000E-04
					 4.71881000E-04	 0.00000000E+00	 2.98722000E-04
					 2.66042000E-04	 0.00000000E+00	 5.28338000E-05
					 2.66042000E-04	 0.00000000E+00	 5.28338000E-05
					 4.58134000E-04	 0.00000000E+00	 3.08260000E-04
					 4.58134000E-04	 0.00000000E+00	 3.08260000E-04
					 2.72840000E-04	 0.00000000E+00	 3.54487000E-04
					 2.72840000E-04	 0.00000000E+00	 3.54487000E-04
				</DataArray>
			</PointData>
		</Piece>
	</UnstructuredGrid>
</VTKFile>