<?xml version="1.0"?>
<VTKFile type="UnstructuredGrid" version="0.1" byte_order="LittleEndian">
	<UnstructuredGrid>
		<Piece NumberOfPoints="126" NumberOfCells="40">
			<Points>
				<DataArray type="Float64" NumberOfComponents="3" format="ascii">
					 5.00000000E-02	 0.00000000E+00	 0.00000000E+00
					 0.00000000E+00	 0.00000000E+00	 0.00000000E+00
					 0.00000000E+00	 0.00000000E+00	 5.00000000E-02
					 5.00000000E-02	 0.00000000E+00	 5.00000000E-02
					 5.00000000E-02	 3.00000000E-01	 0.00000000E+00
					 0.00000000E+00	 3.00000000E-01	 0.00000000E+00
					 0.00000000E+00	 3.00000000E-01	 5.00000000E-02
					 5.00000000E-02	 3.00000000E-01	 5.00000000E-02
					 0.00000000E+00	 0.00000000E+00	 1.00000000E-01
					 5.00000000E-02	 0.00000000E+00	 1.00000000E-01
					 0.00000000E+00	 3.00000000E-01	 1.00000000E-01
					 5.00000000E-02	 3.00000000E-01	 1.00000000E-01
					 0.00000000E+00	 0.00000000E+00	 1.50000000E-01
					 5.00000000E-02	 0.00000000E+00	 1.50000000E-01
					 0.00000000E+00	 3.00000000E-01	 1.50000000E-01
					 5.00000000E-02	 3.00000000E-01	 1.50000000E-01
					 0.00000000E+00	 0.00000000E+00	 2.00000000E-01
					 5.00000000E-02	 0.00000000E+00	 2.00000000E-01
					 0.00000000E+00	 3.00000000E-01	 2.00000000E-01
					 5.00000000E-02	 3.00000000E-01	 2.00000000E-01
					 0.00000000E+00	 0.00000000E+00	 2.50000000E-01
					 5.00000000E-02	 0.00000000E+00	 2.50000000E-01
					 0.00000000E+00	 3.00000000E-01	 2.50000000E-01
					 5.00000000E-02	 3.00000000E-01	 2.50000000E-01
					 0.00000000E+00	 0.00000000E+00	 3.00000000E-01
					 5.00000000E-02	 0.00000000E+00	 3.00000000E-01
					 0.00000000E+00	 3.00000000E-01	 3.00000000E-01
					 5.00000000E-02	 3.00000000E-01	 3.00000000E-01
					 0.00000000E+00	 0.00000000E+00	 3.50000000E-01
					 5.00000000E-02	 0.00000000E+00	 3.50000000E-01
					 0.00000000E+00	 3.00000000E-01	 3.50000000E-01
					 5.00000000E-02	 3.00000000E-01	 3.50000000E-01
					 0.00000000E+00	 0.00000000E+00	 4.00000000E-01
					 5.00000000E-02	 0.00000000E+00	 4.00000000E-01
					 0.00000000E+00	 3.00000000E-01	 4.00000000E-01
					 5.00000000E-02	 3.00000000E-01	 4.00000000E-01
					 0.00000000E+00	 0.00000000E+00	 4.50000000E-01
					 5.00000000E-02	 0.00000000E+00	 4.50000000E-01
					 0.00000000E+00	 3.00000000E-01	 4.50000000E-01
					 5.00000000E-02	 3.00000000E-01	 4.50000000E-01
					 0.00000000E+00	 0.00000000E+00	 5.00000000E-01
					 5.00000000E-02	 0.00000000E+00	 5.00000000E-01
					 0.00000000E+00	 3.00000000E-01	 5.00000000E-01
					 5.00000000E-02	 3.00000000E-01	 5.00000000E-01
					 0.00000000E+00	 0.00000000E+00	 5.50000000E-01
					 5.00000000E-02	 0.00000000E+00	 5.50000000E-01
					 0.00000000E+00	 3.00000000E-01	 5.50000000E-01
					 5.00000000E-02	 3.00000000E-01	 5.50000000E-01
					 0.00000000E+00	 0.00000000E+00	 6.00000000E-01
					 5.00000000E-02	 0.00000000E+00	 6.00000000E-01
					 0.00000000E+00	 3.00000000E-01	 6.00000000E-01
					 5.00000000E-02	 3.00000000E-01	 6.00000000E-01
					 0.00000000E+00	 0.00000000E+00	 6.50000000E-01
					 5.00000000E-02	 0.00000000E+00	 6.50000000E-01
					 0.00000000E+00	 3.00000000E-01	 6.50000000E-01
					 5.00000000E-02	 3.00000000E-01	 6.50000000E-01
					 0.00000000E+00	 0.00000000E+00	 7.00000000E-01
					 5.00000000E-02	 0.00000000E+00	 7.00000000E-01
					 0.00000000E+00	 3.00000000E-01	 7.00000000E-01
					 5.00000000E-02	 3.00000000E-01	 7.00000000E-01
					 0.00000000E+00	 0.00000000E+00	 7.50000000E-01
					 5.00000000E-02	 0.00000000E+00	 7.50000000E-01
					 0.00000000E+00	 3.00000000E-01	 7.50000000E-01
					 5.00000000E-02	 3.00000000E-01	 7.50000000E-01
					 0.00000000E+00	 0.00000000E+00	 8.00000000E-01
					 5.00000000E-02	 0.00000000E+00	 8.00000000E-01
					 0.00000000E+00	 3.00000000E-01	 8.00000000E-01
					 5.00000000E-02	 3.00000000E-01	 8.00000000E-01
					 0.00000000E+00	 0.00000000E+00	 8.50000000E-01
					 5.00000000E-02	 0.00000000E+00	 8.50000000E-01
					 0.00000000E+00	 3.00000000E-01	 8.50000000E-01
					 5.00000000E-02	 3.00000000E-01	 8.50000000E-01
					 0.00000000E+00	 0.00000000E+00	 9.00000000E-01
					 5.00000000E-02	 0.00000000E+00	 9.00000000E-01
					 0.00000000E+00	 3.00000000E-01	 9.00000000E-01
					 5.00000000E-02	 3.00000000E-01	 9.00000000E-01
					 0.00000000E+00	 0.00000000E+00	 9.50000000E-01
					 5.00000000E-02	 0.00000000E+00	 9.50000000E-01
					 0.00000000E+00	 3.00000000E-01	 9.50000000E-01
					 5.00000000E-02	 3.00000000E-01	 9.50000000E-01
					 0.00000000E+00	 0.00000000E+00	 1.00000000E+00
					 5.00000000E-02	 0.00000000E+00	 1.00000000E+00
					 0.00000000E+00	 3.00000000E-01	 1.00000000E+00
					 5.00000000E-02	 3.00000000E-01	 1.00000000E+00
					-5.00000000E-02	 0.00000000E+00	 0.00000000E+00
					-5.00000000E-02	 0.00000000E+00	 5.00000000E-02
					-5.00000000E-02	 3.00000000E-01	 0.00000000E+00
					-5.00000000E-02	 3.00000000E-01	 5.00000000E-02
					-5.00000000E-02	 0.00000000E+00	 1.00000000E-01
					-5.00000000E-02	 3.00000000E-01	 1.00000000E-01
					-5.00000000E-02	 0.00000000E+00	 1.50000000E-01
					-5.00000000E-02	 3.00000000E-01	 1.50000000E-01
					-5.00000000E-02	 0.00000000E+00	 2.00000000E-01
					-5.00000000E-02	 3.00000000E-01	 2.00000000E-01
					-5.00000000E-02	 0.00000000E+00	 2.50000000E-01
					-5.00000000E-02	 3.00000000E-01	 2.50000000E-01
					-5.00000000E-02	 0.00000000E+00	 3.00000000E-01
					-5.00000000E-02	 3.00000000E-01	 3.00000000E-01
					-5.00000000E-02	 0.00000000E+00	 3.50000000E-01
					-5.00000000E-02	 3.00000000E-01	 3.50000000E-01
					-5.00000000E-02	 0.00000000E+00	 4.00000000E-01
					-5.00000000E-02	 3.00000000E-01	 4.00000000E-01
					-5.00000000E-02	 0.00000000E+00	 4.50000000E-01
					-5.00000000E-02	 3.00000000E-01	 4.50000000E-01
					-5.00000000E-02	 0.00000000E+00	 5.00000000E-01
					-5.00000000E-02	 3.00000000E-01	 5.00000000E-01
					-5.00000000E-02	 0.00000000E+00	 5.50000000E-01
					-5.00000000E-02	 3.00000000E-01	 5.50000000E-01
					-5.00000000E-02	 0.00000000E+00	 6.00000000E-01
					-5.00000000E-02	 3.00000000E-01	 6.00000000E-01
					-5.00000000E-02	 0.00000000E+00	 6.50000000E-01
					-5.00000000E-02	 3.00000000E-01	 6.50000000E-01
					-5.00000000E-02	 0.00000000E+00	 7.00000000E-01
					-5.00000000E-02	 3.00000000E-01	 7.00000000E-01
					-5.00000000E-02	 0.00000000E+00	 7.50000000E-01
					-5.00000000E-02	 3.00000000E-01	 7.50000000E-01
					-5.00000000E-02	 0.00000000E+00	 8.00000000E-01
					-5.00000000E-02	 3.00000000E-01	 8.00000000E-01
					-5.00000000E-02	 0.00000000E+00	 8.50000000E-01
					-5.00000000E-02	 3.00000000E-01	 8.50000000E-01
					-5.00000000E-02	 0.00000000E+00	 9.00000000E-01
					-5.00000000E-02	 3.00000000E-01	 9.00000000E-01
					-5.00000000E-02	 0.00000000E+00	 9.50000000E-01
					-5.00000000E-02	 3.00000000E-01	 9.50000000E-01
					-5.00000000E-02	 0.00000000E+00	 1.00000000E+00
					-5.00000000E-02	 3.00000000E-01	 1.00000000E+00
				</DataArray>
			</Points>
			<Cells>
				<DataArray type="Int32" Name="connectivity" format="ascii">
					0 1 2 3 4 5 6 7 3 2 8 9 7 6 10 11 9 8 12 13 11 10 14 15 13 12 16 17 15 14 18 19 17 16 20 21 19 18 22 23 21 20 24 25 23 22 26 27 25 24 28 29 27 26 30 31 29 28 32 33 31 30 34 35 33 32 36 37 35 34 38 39 37 36 40 41 39 38 42 43 41 40 44 45 43 42 46 47 45 44 48 49 47 46 50 51 49 48 52 53 51 50 54 55 53 52 56 57 55 54 58 59 57 56 60 61 59 58 62 63 61 60 64 65 63 62 66 67 65 64 68 69 67 66 70 71 69 68 72 73 71 70 74 75 73 72 76 77 75 74 78 79 77 76 80 81 79 78 82 83 1 84 85 2 5 86 87 6 2 85 88 8 6 87 89 10 8 88 90 12 10 89 91 14 12 90 92 16 14 91 93 18 16 92 94 20 18 93 95 22 20 94 96 24 22 95 97 26 24 96 98 28 26 97 99 30 28 98 100 32 30 99 101 34 32 100 102 36 34 101 103 38 36 102 104 40 38 103 105 42 40 104 106 44 42 105 107 46 44 106 108 48 46 107 109 50 48 108 110 52 50 109 111 54 52 110 112 56 54 111 113 58 56 112 114 60 58 113 115 62 60 114 116 64 62 115 117 66 64 116 118 68 66 117 119 70 68 118 120 72 70 119 121 74 72 120 122 76 74 121 123 78 76 122 124 80 78 123 125 82 
				</DataArray>
				<DataArray type="Int32" Name="offsets" format="ascii">
					8 16 24 32 40 48 56 64 72 80 88 96 104 112 120 128 136 144 152 160 168 176 184 192 200 208 216 224 232 240 248 256 264 272 280 288 296 304 312 320 
				</DataArray>
				<DataArray type="UInt8" Name="types" format="ascii">
					12 12 12 12 12 12 12 12 12 12 12 12 12 12 12 12 12 12 12 12 12 12 12 12 12 12 12 12 12 12 12 12 12 12 12 12 12 12 12 12 
				</DataArray>
			</Cells>
			<PointData>
				<DataArray type="Float32" Name="U" NumberOfComponents="3" ComponentName0="D1" ComponentName1="D2" ComponentName2="D3" format="ascii">
					 0.00000000E+00	 0.00000000E+00	 0.00000000E+00
					 0.00000000E+00	 0.00000000E+00	 0.00000000E+00
					 2.55352000E-03	 0.00000000E+00	 6.84981000E-04
					-9.12283000E-03	 0.00000000E+00	 1.95650000E-02
					 0.00000000E+00	 0.00000000E+00	 0.00000000E+00
					 0.00000000E+00	 0.00000000E+00	 0.00000000E+00
					 2.55352000E-03	 0.00000000E+00	 6.84981000E-04
					-9.12283000E-03	 0.00000000E+00	 1.95650000E-02
					 4.42878000E-02	 0.00000000E+00	-7.95092000E-03
					-2.94795000E-02	 0.00000000E+00	-4.73743000E-03
					 4.42878000E-02	 0.00000000E+00	-7.95092000E-03
					-2.94795000E-02	 0.00000000E+00	-4.73743000E-03
					 8.20481000E-02	 0.00000000E+00	-1.47416000E-02
					 2.34892000E-02	 0.00000000E+00	-2.52283000E-02
					 8.20481000E-02	 0.00000000E+00	-1.47416000E-02
					 2.34892000E-02	 0.00000000E+00	-2.52283000E-02
					 1.30048000E-01	 0.00000000E+00	-3.86813000E-02
					 3.23111000E-02	 0.00000000E+00	-2.19965000E-02
					 1.30048000E-01	 0.00000000E+00	-3.86813000E-02
					 3.23111000E-02	 0.00000000E+00	-2.19965000E-02
					 1.40208000E-01	 0.00000000E+00	-3.73601000E-02
					 7.32802000E-02	 0.00000000E+00	-3.51374000E-02
					 1.40208000E-01	 0.00000000E+00	-3.73601000E-02
					 7.32802000E-02	 0.00000000E+00	-3.51374000E-02
					 1.61405000E-01	 0.00000000E+00	-3.37172000E-02
					 5.91847000E-02	 0.00000000E+00	-2.94191000E-02
					 1.61405000E-01	 0.00000000E+00	-3.37172000E-02
					 5.91847000E-02	 0.00000000E+00	-2.94191000E-02
					 1.52489000E-01	 0.00000000E+00	-2.32050000E-02
					 5.32524000E-02	 0.00000000E+00	-6.88401000E-02
					 1.52489000E-01	 0.00000000E+00	-2.32050000E-02
					 5.32524000E-02	 0.00000000E+00	-6.88401000E-02
					 1.12831000E-01	 0.00000000E+00	-3.45931000E-02
					 3.04819000E-02	 0.00000000E+00	-6.25570000E-02
					 1.12831000E-01	 0.00000000E+00	-3.45931000E-02
					 3.04819000E-02	 0.00000000E+00	-6.25570000E-02
					 9.51675000E-02	 0.00000000E+00	-3.00899000E-02
					 1.87433000E-03	 0.00000000E+00	-5.32574000E-02
					 9.51675000E-02	 0.00000000E+00	-3.00899000E-02
					 1.87433000E-03	 0.00000000E+00	-5.32574000E-02
					 6.98742000E-02	 0.00000000E+00	-3.31617000E-02
					 7.11346000E-03	 0.00000000E+00	-5.71923000E-02
					 6.98742000E-02	 0.00000000E+00	-3.31617000E-02
					 7.11346000E-03	 0.00000000E+00	-5.71923000E-02
					 2.53574000E-02	 0.00000000E+00	-4.50780000E-02
					-5.08249000E-02	 0.00000000E+00	-6.23466000E-02
					 2.53574000E-02	 0.00000000E+00	-4.50780000E-02
					-5.08249000E-02	 0.00000000E+00	-6.23466000E-02
					 1.29006000E-04	 0.00000000E+00	-2.59290000E-02
					-5.11500000E-02	 0.00000000E+00	-3.85577000E-02
					 1.29006000E-04	 0.00000000E+00	-2.59290000E-02
					-5.11500000E-02	 0.00000000E+00	-3.85577000E-02
					 1.50881000E-02	 0.00000000E+00	-2.52498000E-02
					 7.58576000E-03	 0.00000000E+00	-4.64448000E-02
					 1.50881000E-02	 0.00000000E+00	-2.52498000E-02
					 7.58576000E-03	 0.00000000E+00	-4.64448000E-02
					 2.98286000E-02	 0.00000000E+00	-2.63137000E-02
					 2.57864000E-02	 0.00000000E+00	-4.04669000E-02
					 2.98286000E-02	 0.00000000E+00	-2.63137000E-02
					 2.57864000E-02	 0.00000000E+00	-4.04669000E-02
					 3.13729000E-02	 0.00000000E+00	-1.98638000E-02
					 1.28742000E-02	 0.00000000E+00	-2.29844000E-02
					 3.13729000E-02	 0.00000000E+00	-1.98638000E-02
					 1.28742000E-02	 0.00000000E+00	-2.29844000E-02
					 2.57190000E-02	 0.00000000E+00	-1.04189000E-02
					 3.16047000E-02	 0.00000000E+00	-7.11192000E-03
					 2.57190000E-02	 0.00000000E+00	-1.04189000E-02
					 3.16047000E-02	 0.00000000E+00	-7.11192000E-03
					 2.51781000E-02	 0.00000000E+00	-9.75066000E-03
					 2.29797000E-02	 0.00000000E+00	-4.24312000E-03
					 2.51781000E-02	 0.00000000E+00	-9.75066000E-03
					 2.29797000E-02	 0.00000000E+00	-4.24312000E-03
					 2.41446000E-02	 0.00000000E+00	 2.21477000E-04
					 2.07181000E-02	 0.00000000E+00	-1.07106000E-03
					 2.41446000E-02	 0.00000000E+00	 2.21477000E-04
					 2.07181000E-02	 0.00000000E+00	-1.07106000E-03
					 2.23199000E-02	 0.00000000E+00	-1.52569000E-03
					 2.34712000E-02	 0.00000000E+00	-1.76886000E-03
					 2.23199000E-02	 0.00000000E+00	-1.52569000E-03
					 2.34712000E-02	 0.00000000E+00	-1.76886000E-03
					 2.25025000E-02	 0.00000000E+00	 2.96988000E-03
					 1.90741000E-02	 0.00000000E+00	 4.64326000E-03
					 2.25025000E-02	 0.00000000E+00	 2.96988000E-03
					 1.90741000E-02	 0.00000000E+00	 4.64326000E-03
					 0.00000000E+00	 0.00000000E+00	 0.00000000E+00
					 8.98089000E-02	 0.00000000E+00	-3.39612000E-02
					 0.00000000E+00	 0.00000000E+00	 0.00000000E+00
					 8.98089000E-02	 0.00000000E+00	-3.39612000E-02
					 1.17678000E-01	 0.00000000E+00	-3.82763000E-02
					 1.17678000E-01	 0.00000000E+00	-3.82763000E-02
					 1.75358000E-01	 0.00000000E+00	-5.34875000E-02
					 1.75358000E-01	 0.00000000E+00	-5.34875000E-02
					 1.77312000E-01	 0.00000000E+00	-4.43884000E-02
					 1.77312000E-01	 0.00000000E+00	-4.43884000E-02
					 2.04185000E-01	 0.00000000E+00	-1.26139000E-02
					 2.04185000E-01	 0.00000000E+00	-1.26139000E-02
					 2.51929000E-01	 0.00000000E+00	-2.19520000E-02
					 2.51929000E-01	 0.00000000E+00	-2.19520000E-02
					 2.35131000E-01	 0.00000000E+00	-1.91016000E-02
					 2.35131000E-01	 0.00000000E+00	-1.91016000E-02
					 2.08868000E-01	 0.00000000E+00	-7.10490000E-03
					 2.08868000E-01	 0.00000000E+00	-7.10490000E-03
					 1.97249000E-01	 0.00000000E+00	 9.27832000E-03
					 1.97249000E-01	 0.00000000E+00	 9.27832000E-03
					 1.28152000E-01	 0.00000000E+00	-3.56891000E-02
					 1.28152000E-01	 0.00000000E+00	-3.56891000E-02
					 1.23820000E-01	 0.00000000E+00	-1.40315000E-02
					 1.23820000E-01	 0.00000000E+00	-1.40315000E-02
					 9.22827000E-02	 0.00000000E+00	-3.11695000E-02
					 9.22827000E-02	 0.00000000E+00	-3.11695000E-02
					 1.24480000E-01	 0.00000000E+00	-1.68934000E-02
					 1.24480000E-01	 0.00000000E+00	-1.68934000E-02
					 5.05304000E-02	 0.00000000E+00	-3.45729000E-02
					 5.05304000E-02	 0.00000000E+00	-3.45729000E-02
					 3.81126000E-02	 0.00000000E+00	-2.72165000E-02
					 3.81126000E-02	 0.00000000E+00	-2.72165000E-02
					 2.18028000E-02	 0.00000000E+00	-1.54041000E-02
					 2.18028000E-02	 0.00000000E+00	-1.54041000E-02
					 2.80305000E-02	 0.00000000E+00	-9.35237000E-03
					 2.80305000E-02	 0.00000000E+00	-9.35237000E-03
					 2.83641000E-02	 0.00000000E+00	-1.96196000E-03
					 2.83641000E-02	 0.00000000E+00	-1.96196000E-03
					 2.22233000E-02	 0.00000000E+00	-3.60659000E-04
					 2.22233000E-02	 0.00000000E+00	-3.60659000E-04
					 2.10593000E-02	 0.00000000E+00	-6.96851000E-04
					 2.10593000E-02	 0.00000000E+00	-6.96851000E-04
				</DataArray>
			</PointData>
		</Piece>
	</UnstructuredGrid>
</VTKFile>