<?xml version="1.0"?>
<VTKFile type="UnstructuredGrid" version="0.1" byte_order="LittleEndian">
	<UnstructuredGrid>
		<Piece NumberOfPoints="126" NumberOfCells="40">
			<Points>
				<DataArray type="Float64" NumberOfComponents="3" format="ascii">
					 5.00000000E-02	 0.00000000E+00	 0.00000000E+00
					 0.00000000E+00	 0.00000000E+00	 0.00000000E+00
					 0.00000000E+00	 0.00000000E+00	 5.00000000E-02
					 5.00000000E-02	 0.00000000E+00	 5.00000000E-02
					 5.00000000E-02	 3.00000000E-01	 0.00000000E+00
					 0.00000000E+00	 3.00000000E-01	 0.00000000E+00
					 0.00000000E+00	 3.00000000E-01	 5.00000000E-02
					 5.00000000E-02	 3.00000000E-01	 5.00000000E-02
					 0.00000000E+00	 0.00000000E+00	 1.00000000E-01
					 5.00000000E-02	 0.00000000E+00	 1.00000000E-01
					 0.00000000E+00	 3.00000000E-01	 1.00000000E-01
					 5.00000000E-02	 3.00000000E-01	 1.00000000E-01
					 0.00000000E+00	 0.00000000E+00	 1.50000000E-01
					 5.00000000E-02	 0.00000000E+00	 1.50000000E-01
					 0.00000000E+00	 3.00000000E-01	 1.50000000E-01
					 5.00000000E-02	 3.00000000E-01	 1.50000000E-01
					 0.00000000E+00	 0.00000000E+00	 2.00000000E-01
					 5.00000000E-02	 0.00000000E+00	 2.00000000E-01
					 0.00000000E+00	 3.00000000E-01	 2.00000000E-01
					 5.00000000E-02	 3.00000000E-01	 2.00000000E-01
					 0.00000000E+00	 0.00000000E+00	 2.50000000E-01
					 5.00000000E-02	 0.00000000E+00	 2.50000000E-01
					 0.00000000E+00	 3.00000000E-01	 2.50000000E-01
					 5.00000000E-02	 3.00000000E-01	 2.50000000E-01
					 0.00000000E+00	 0.00000000E+00	 3.00000000E-01
					 5.00000000E-02	 0.00000000E+00	 3.00000000E-01
					 0.00000000E+00	 3.00000000E-01	 3.00000000E-01
					 5.00000000E-02	 3.00000000E-01	 3.00000000E-01
					 0.00000000E+00	 0.00000000E+00	 3.50000000E-01
					 5.00000000E-02	 0.00000000E+00	 3.50000000E-01
					 0.00000000E+00	 3.00000000E-01	 3.50000000E-01
					 5.00000000E-02	 3.00000000E-01	 3.50000000E-01
					 0.00000000E+00	 0.00000000E+00	 4.00000000E-01
					 5.00000000E-02	 0.00000000E+00	 4.00000000E-01
					 0.00000000E+00	 3.00000000E-01	 4.00000000E-01
					 5.00000000E-02	 3.00000000E-01	 4.00000000E-01
					 0.00000000E+00	 0.00000000E+00	 4.50000000E-01
					 5.00000000E-02	 0.00000000E+00	 4.50000000E-01
					 0.00000000E+00	 3.00000000E-01	 4.50000000E-01
					 5.00000000E-02	 3.00000000E-01	 4.50000000E-01
					 0.00000000E+00	 0.00000000E+00	 5.00000000E-01
					 5.00000000E-02	 0.00000000E+00	 5.00000000E-01
					 0.00000000E+00	 3.00000000E-01	 5.00000000E-01
					 5.00000000E-02	 3.00000000E-01	 5.00000000E-01
					 0.00000000E+00	 0.00000000E+00	 5.50000000E-01
					 5.00000000E-02	 0.00000000E+00	 5.50000000E-01
					 0.00000000E+00	 3.00000000E-01	 5.50000000E-01
					 5.00000000E-02	 3.00000000E-01	 5.50000000E-01
					 0.00000000E+00	 0.00000000E+00	 6.00000000E-01
					 5.00000000E-02	 0.00000000E+00	 6.00000000E-01
					 0.00000000E+00	 3.00000000E-01	 6.00000000E-01
					 5.00000000E-02	 3.00000000E-01	 6.00000000E-01
					 0.00000000E+00	 0.00000000E+00	 6.50000000E-01
					 5.00000000E-02	 0.00000000E+00	 6.50000000E-01
					 0.00000000E+00	 3.00000000E-01	 6.50000000E-01
					 5.00000000E-02	 3.00000000E-01	 6.50000000E-01
					 0.00000000E+00	 0.00000000E+00	 7.00000000E-01
					 5.00000000E-02	 0.00000000E+00	 7.00000000E-01
					 0.00000000E+00	 3.00000000E-01	 7.00000000E-01
					 5.00000000E-02	 3.00000000E-01	 7.00000000E-01
					 0.00000000E+00	 0.00000000E+00	 7.50000000E-01
					 5.00000000E-02	 0.00000000E+00	 7.50000000E-01
					 0.00000000E+00	 3.00000000E-01	 7.50000000E-01
					 5.00000000E-02	 3.00000000E-01	 7.50000000E-01
					 0.00000000E+00	 0.00000000E+00	 8.00000000E-01
					 5.00000000E-02	 0.00000000E+00	 8.00000000E-01
					 0.00000000E+00	 3.00000000E-01	 8.00000000E-01
					 5.00000000E-02	 3.00000000E-01	 8.00000000E-01
					 0.00000000E+00	 0.00000000E+00	 8.50000000E-01
					 5.00000000E-02	 0.00000000E+00	 8.50000000E-01
					 0.00000000E+00	 3.00000000E-01	 8.50000000E-01
					 5.00000000E-02	 3.00000000E-01	 8.50000000E-01
					 0.00000000E+00	 0.00000000E+00	 9.00000000E-01
					 5.00000000E-02	 0.00000000E+00	 9.00000000E-01
					 0.00000000E+00	 3.00000000E-01	 9.00000000E-01
					 5.00000000E-02	 3.00000000E-01	 9.00000000E-01
					 0.00000000E+00	 0.00000000E+00	 9.50000000E-01
					 5.00000000E-02	 0.00000000E+00	 9.50000000E-01
					 0.00000000E+00	 3.00000000E-01	 9.50000000E-01
					 5.00000000E-02	 3.00000000E-01	 9.50000000E-01
					 0.00000000E+00	 0.00000000E+00	 1.00000000E+00
					 5.00000000E-02	 0.00000000E+00	 1.00000000E+00
					 0.00000000E+00	 3.00000000E-01	 1.00000000E+00
					 5.00000000E-02	 3.00000000E-01	 1.00000000E+00
					-5.00000000E-02	 0.00000000E+00	 0.00000000E+00
					-5.00000000E-02	 0.00000000E+00	 5.00000000E-02
					-5.00000000E-02	 3.00000000E-01	 0.00000000E+00
					-5.00000000E-02	 3.00000000E-01	 5.00000000E-02
					-5.00000000E-02	 0.00000000E+00	 1.00000000E-01
					-5.00000000E-02	 3.00000000E-01	 1.00000000E-01
					-5.00000000E-02	 0.00000000E+00	 1.50000000E-01
					-5.00000000E-02	 3.00000000E-01	 1.50000000E-01
					-5.00000000E-02	 0.00000000E+00	 2.00000000E-01
					-5.00000000E-02	 3.00000000E-01	 2.00000000E-01
					-5.00000000E-02	 0.00000000E+00	 2.50000000E-01
					-5.00000000E-02	 3.00000000E-01	 2.50000000E-01
					-5.00000000E-02	 0.00000000E+00	 3.00000000E-01
					-5.00000000E-02	 3.00000000E-01	 3.00000000E-01
					-5.00000000E-02	 0.00000000E+00	 3.50000000E-01
					-5.00000000E-02	 3.00000000E-01	 3.50000000E-01
					-5.00000000E-02	 0.00000000E+00	 4.00000000E-01
					-5.00000000E-02	 3.00000000E-01	 4.00000000E-01
					-5.00000000E-02	 0.00000000E+00	 4.50000000E-01
					-5.00000000E-02	 3.00000000E-01	 4.50000000E-01
					-5.00000000E-02	 0.00000000E+00	 5.00000000E-01
					-5.00000000E-02	 3.00000000E-01	 5.00000000E-01
					-5.00000000E-02	 0.00000000E+00	 5.50000000E-01
					-5.00000000E-02	 3.00000000E-01	 5.50000000E-01
					-5.00000000E-02	 0.00000000E+00	 6.00000000E-01
					-5.00000000E-02	 3.00000000E-01	 6.00000000E-01
					-5.00000000E-02	 0.00000000E+00	 6.50000000E-01
					-5.00000000E-02	 3.00000000E-01	 6.50000000E-01
					-5.00000000E-02	 0.00000000E+00	 7.00000000E-01
					-5.00000000E-02	 3.00000000E-01	 7.00000000E-01
					-5.00000000E-02	 0.00000000E+00	 7.50000000E-01
					-5.00000000E-02	 3.00000000E-01	 7.50000000E-01
					-5.00000000E-02	 0.00000000E+00	 8.00000000E-01
					-5.00000000E-02	 3.00000000E-01	 8.00000000E-01
					-5.00000000E-02	 0.00000000E+00	 8.50000000E-01
					-5.00000000E-02	 3.00000000E-01	 8.50000000E-01
					-5.00000000E-02	 0.00000000E+00	 9.00000000E-01
					-5.00000000E-02	 3.00000000E-01	 9.00000000E-01
					-5.00000000E-02	 0.00000000E+00	 9.50000000E-01
					-5.00000000E-02	 3.00000000E-01	 9.50000000E-01
					-5.00000000E-02	 0.00000000E+00	 1.00000000E+00
					-5.00000000E-02	 3.00000000E-01	 1.00000000E+00
				</DataArray>
			</Points>
			<Cells>
				<DataArray type="Int32" Name="connectivity" format="ascii">
					0 1 2 3 4 5 6 7 3 2 8 9 7 6 10 11 9 8 12 13 11 10 14 15 13 12 16 17 15 14 18 19 17 16 20 21 19 18 22 23 21 20 24 25 23 22 26 27 25 24 28 29 27 26 30 31 29 28 32 33 31 30 34 35 33 32 36 37 35 34 38 39 37 36 40 41 39 38 42 43 41 40 44 45 43 42 46 47 45 44 48 49 47 46 50 51 49 48 52 53 51 50 54 55 53 52 56 57 55 54 58 59 57 56 60 61 59 58 62 63 61 60 64 65 63 62 66 67 65 64 68 69 67 66 70 71 69 68 72 73 71 70 74 75 73 72 76 77 75 74 78 79 77 76 80 81 79 78 82 83 1 84 85 2 5 86 87 6 2 85 88 8 6 87 89 10 8 88 90 12 10 89 91 14 12 90 92 16 14 91 93 18 16 92 94 20 18 93 95 22 20 94 96 24 22 95 97 26 24 96 98 28 26 97 99 30 28 98 100 32 30 99 101 34 32 100 102 36 34 101 103 38 36 102 104 40 38 103 105 42 40 104 106 44 42 105 107 46 44 106 108 48 46 107 109 50 48 108 110 52 50 109 111 54 52 110 112 56 54 111 113 58 56 112 114 60 58 113 115 62 60 114 116 64 62 115 117 66 64 116 118 68 66 117 119 70 68 118 120 72 70 119 121 74 72 120 122 76 74 121 123 78 76 122 124 80 78 123 125 82 
				</DataArray>
				<DataArray type="Int32" Name="offsets" format="ascii">
					8 16 24 32 40 48 56 64 72 80 88 96 104 112 120 128 136 144 152 160 168 176 184 192 200 208 216 224 232 240 248 256 264 272 280 288 296 304 312 320 
				</DataArray>
				<DataArray type="UInt8" Name="types" format="ascii">
					12 12 12 12 12 12 12 12 12 12 12 12 12 12 12 12 12 12 12 12 12 12 12 12 12 12 12 12 12 12 12 12 12 12 12 12 12 12 12 12 
				</DataArray>
			</Cells>
			<PointData>
				<DataArray type="Float32" Name="U" NumberOfComponents="3" ComponentName0="D1" ComponentName1="D2" ComponentName2="D3" format="ascii">
					 0.00000000E+00	 0.00000000E+00	 0.00000000E+00
					 0.00000000E+00	 0.00000000E+00	 0.00000000E+00
					 3.78380000E-05	 0.00000000E+00	-3.38821000E-04
					-4.73899000E-04	 0.00000000E+00	 3.13581000E-04
					 0.00000000E+00	 0.00000000E+00	 0.00000000E+00
					 0.00000000E+00	 0.00000000E+00	 0.00000000E+00
					 3.78380000E-05	 0.00000000E+00	-3.38821000E-04
					-4.73899000E-04	 0.00000000E+00	 3.13581000E-04
					 7.54734000E-05	 0.00000000E+00	-1.22384000E-04
					-8.23962000E-04	 0.00000000E+00	 4.41543000E-04
					 7.54734000E-05	 0.00000000E+00	-1.22384000E-04
					-8.23962000E-04	 0.00000000E+00	 4.41543000E-04
					 8.93409000E-05	 0.00000000E+00	-4.84413000E-05
					-9.09085000E-04	 0.00000000E+00	 1.49691000E-04
					 8.93409000E-05	 0.00000000E+00	-4.84413000E-05
					-9.09085000E-04	 0.00000000E+00	 1.49691000E-04
					 8.35485000E-05	 0.00000000E+00	-2.09892000E-04
					-1.06626000E-03	 0.00000000E+00	-2.02242000E-04
					 8.35485000E-05	 0.00000000E+00	-2.09892000E-04
					-1.06626000E-03	 0.00000000E+00	-2.02242000E-04
					 6.60771000E-05	 0.00000000E+00	 1.49166000E-04
					-1.25135000E-03	 0.00000000E+00	-8.68867000E-05
					 6.60771000E-05	 0.00000000E+00	 1.49166000E-04
					-1.25135000E-03	 0.00000000E+00	-8.68867000E-05
					 5.64765000E-05	 0.00000000E+00	 3.06488000E-04
					-6.01437000E-04	 0.00000000E+00	 5.04166000E-05
					 5.64765000E-05	 0.00000000E+00	 3.06488000E-04
					-6.01437000E-04	 0.00000000E+00	 5.04166000E-05
					 5.80422000E-05	 0.00000000E+00	-3.70581000E-04
					-8.02393000E-04	 0.00000000E+00	-8.21316000E-05
					 5.80422000E-05	 0.00000000E+00	-3.70581000E-04
					-8.02393000E-04	 0.00000000E+00	-8.21316000E-05
					 5.94389000E-05	 0.00000000E+00	 4.89526000E-05
					-1.46647000E-03	 0.00000000E+00	 8.56871000E-05
					 5.94389000E-05	 0.00000000E+00	 4.89526000E-05
					-1.46647000E-03	 0.00000000E+00	 8.56871000E-05
					 4.92356000E-05	 0.00000000E+00	 1.99512000E-04
					-1.12460000E-03	 0.00000000E+00	-2.34322000E-05
					 4.92356000E-05	 0.00000000E+00	 1.99512000E-04
					-1.12460000E-03	 0.00000000E+00	-2.34322000E-05
					 4.19004000E-05	 0.00000000E+00	-1.32666000E-04
					-6.93395000E-04	 0.00000000E+00	 1.50571000E-04
					 4.19004000E-05	 0.00000000E+00	-1.32666000E-04
					-6.93395000E-04	 0.00000000E+00	 1.50571000E-04
					 3.60599000E-05	 0.00000000E+00	 5.95393000E-04
					-1.17809000E-03	 0.00000000E+00	 3.98567000E-04
					 3.60599000E-05	 0.00000000E+00	 5.95393000E-04
					-1.17809000E-03	 0.00000000E+00	 3.98567000E-04
					 3.32030000E-05	 0.00000000E+00	 2.83712000E-04
					-1.08454000E-03	 0.00000000E+00	 2.23818000E-04
					 3.32030000E-05	 0.00000000E+00	 2.83712000E-04
					-1.08454000E-03	 0.00000000E+00	 2.23818000E-04
					 2.02599000E-05	 0.00000000E+00	 2.58681000E-04
					-1.41178000E-03	 0.00000000E+00	 5.02398000E-04
					 2.02599000E-05	 0.00000000E+00	 2.58681000E-04
					-1.41178000E-03	 0.00000000E+00	 5.02398000E-04
					 4.51409000E-06	 0.00000000E+00	 5.27273000E-04
					-8.89825000E-04	 0.00000000E+00	 4.08158000E-04
					 4.51409000E-06	 0.00000000E+00	 5.27273000E-04
					-8.89825000E-04	 0.00000000E+00	 4.08158000E-04
					-8.97234000E-06	 0.00000000E+00	 3.27150000E-04
					-4.75581000E-04	 0.00000000E+00	 6.69565000E-04
					-8.97234000E-06	 0.00000000E+00	 3.27150000E-04
					-4.75581000E-04	 0.00000000E+00	 6.69565000E-04
					-1.56382000E-05	 0.00000000E+00	 2.27858000E-04
					-1.39140000E-03	 0.00000000E+00	 4.52144000E-04
					-1.56382000E-05	 0.00000000E+00	 2.27858000E-04
					-1.39140000E-03	 0.00000000E+00	 4.52144000E-04
					-2.58813000E-05	 0.00000000E+00	 7.04789000E-04
					-1.39050000E-03	 0.00000000E+00	 4.57908000E-04
					-2.58813000E-05	 0.00000000E+00	 7.04789000E-04
					-1.39050000E-03	 0.00000000E+00	 4.57908000E-04
					-4.70870000E-05	 0.00000000E+00	 7.33623000E-04
					-7.68708000E-04	 0.00000000E+00	 3.14249000E-05
					-4.70870000E-05	 0.00000000E+00	 7.33623000E-04
					-7.68708000E-04	 0.00000000E+00	 3.14249000E-05
					-5.27963000E-05	 0.00000000E+00	 4.56169000E-04
					-6.04899000E-04	 0.00000000E+00	 1.32598000E-04
					-5.27963000E-05	 0.00000000E+00	 4.56169000E-04
					-6.04899000E-04	 0.00000000E+00	 1.32598000E-04
					-5.29287000E-05	 0.00000000E+00	 6.74954000E-04
					-7.58679000E-04	 0.00000000E+00	 2.20186000E-04
					-5.29287000E-05	 0.00000000E+00	 6.74954000E-04
					-7.58679000E-04	 0.00000000E+00	 2.20186000E-04
					 0.00000000E+00	 0.00000000E+00	 0.00000000E+00
					 5.86719000E-04	 0.00000000E+00	 3.51063000E-04
					 0.00000000E+00	 0.00000000E+00	 0.00000000E+00
					 5.86719000E-04	 0.00000000E+00	 3.51063000E-04
					 1.00921000E-03	 0.00000000E+00	 4.71945000E-04
					 1.00921000E-03	 0.00000000E+00	 4.71945000E-04
					 1.10998000E-03	 0.00000000E+00	 1.58083000E-04
					 1.10998000E-03	 0.00000000E+00	 1.58083000E-04
					 1.25181000E-03	 0.00000000E+00	-2.15504000E-04
					 1.25181000E-03	 0.00000000E+00	-2.15504000E-04
					 1.41580000E-03	 0.00000000E+00	-1.03139000E-04
					 1.41580000E-03	 0.00000000E+00	-1.03139000E-04
					 7.44438000E-04	 0.00000000E+00	 4.42231000E-05
					 7.44438000E-04	 0.00000000E+00	 4.42231000E-05
					 9.45584000E-04	 0.00000000E+00	-8.68819000E-05
					 9.45584000E-04	 0.00000000E+00	-8.68819000E-05
					 1.60999000E-03	 0.00000000E+00	 7.98629000E-05
					 1.60999000E-03	 0.00000000E+00	 7.98629000E-05
					 1.25097000E-03	 0.00000000E+00	-3.77263000E-05
					 1.25097000E-03	 0.00000000E+00	-3.77263000E-05
					 8.06549000E-04	 0.00000000E+00	 1.39572000E-04
					 8.06549000E-04	 0.00000000E+00	 1.39572000E-04
					 1.27635000E-03	 0.00000000E+00	 3.82533000E-04
					 1.27635000E-03	 0.00000000E+00	 3.82533000E-04
					 1.17853000E-03	 0.00000000E+00	 2.09689000E-04
					 1.17853000E-03	 0.00000000E+00	 2.09689000E-04
					 1.47664000E-03	 0.00000000E+00	 4.80922000E-04
					 1.47664000E-03	 0.00000000E+00	 4.80922000E-04
					 9.31120000E-04	 0.00000000E+00	 3.85986000E-04
					 9.31120000E-04	 0.00000000E+00	 3.85986000E-04
					 4.87339000E-04	 0.00000000E+00	 6.52830000E-04
					 4.87339000E-04	 0.00000000E+00	 6.52830000E-04
					 1.38174000E-03	 0.00000000E+00	 4.29308000E-04
					 1.38174000E-03	 0.00000000E+00	 4.29308000E-04
					 1.36132000E-03	 0.00000000E+00	 4.42615000E-04
					 1.36132000E-03	 0.00000000E+00	 4.42615000E-04
					 7.33317000E-04	 0.00000000E+00	 8.59011000E-06
					 7.33317000E-04	 0.00000000E+00	 8.59011000E-06
					 5.35026000E-04	 0.00000000E+00	 1.17020000E-04
					 5.35026000E-04	 0.00000000E+00	 1.17020000E-04
					 6.52471000E-04	 0.00000000E+00	 2.02462000E-04
					 6.52471000E-04	 0.00000000E+00	 2.02462000E-04
				</DataArray>
			</PointData>
		</Piece>
	</UnstructuredGrid>
</VTKFile>