<?xml version="1.0"?>
<VTKFile type="UnstructuredGrid" version="0.1" byte_order="LittleEndian">
	<UnstructuredGrid>
		<Piece NumberOfPoints="126" NumberOfCells="40">
			<Points>
				<DataArray type="Float64" NumberOfComponents="3" format="ascii">
					 5.00000000E-02	 0.00000000E+00	 0.00000000E+00
					 0.00000000E+00	 0.00000000E+00	 0.00000000E+00
					 0.00000000E+00	 0.00000000E+00	 5.00000000E-02
					 5.00000000E-02	 0.00000000E+00	 5.00000000E-02
					 5.00000000E-02	 3.00000000E-01	 0.00000000E+00
					 0.00000000E+00	 3.00000000E-01	 0.00000000E+00
					 0.00000000E+00	 3.00000000E-01	 5.00000000E-02
					 5.00000000E-02	 3.00000000E-01	 5.00000000E-02
					 0.00000000E+00	 0.00000000E+00	 1.00000000E-01
					 5.00000000E-02	 0.00000000E+00	 1.00000000E-01
					 0.00000000E+00	 3.00000000E-01	 1.00000000E-01
					 5.00000000E-02	 3.00000000E-01	 1.00000000E-01
					 0.00000000E+00	 0.00000000E+00	 1.50000000E-01
					 5.00000000E-02	 0.00000000E+00	 1.50000000E-01
					 0.00000000E+00	 3.00000000E-01	 1.50000000E-01
					 5.00000000E-02	 3.00000000E-01	 1.50000000E-01
					 0.00000000E+00	 0.00000000E+00	 2.00000000E-01
					 5.00000000E-02	 0.00000000E+00	 2.00000000E-01
					 0.00000000E+00	 3.00000000E-01	 2.00000000E-01
					 5.00000000E-02	 3.00000000E-01	 2.00000000E-01
					 0.00000000E+00	 0.00000000E+00	 2.50000000E-01
					 5.00000000E-02	 0.00000000E+00	 2.50000000E-01
					 0.00000000E+00	 3.00000000E-01	 2.50000000E-01
					 5.00000000E-02	 3.00000000E-01	 2.50000000E-01
					 0.00000000E+00	 0.00000000E+00	 3.00000000E-01
					 5.00000000E-02	 0.00000000E+00	 3.00000000E-01
					 0.00000000E+00	 3.00000000E-01	 3.00000000E-01
					 5.00000000E-02	 3.00000000E-01	 3.00000000E-01
					 0.00000000E+00	 0.00000000E+00	 3.50000000E-01
					 5.00000000E-02	 0.00000000E+00	 3.50000000E-01
					 0.00000000E+00	 3.00000000E-01	 3.50000000E-01
					 5.00000000E-02	 3.00000000E-01	 3.50000000E-01
					 0.00000000E+00	 0.00000000E+00	 4.00000000E-01
					 5.00000000E-02	 0.00000000E+00	 4.00000000E-01
					 0.00000000E+00	 3.00000000E-01	 4.00000000E-01
					 5.00000000E-02	 3.00000000E-01	 4.00000000E-01
					 0.00000000E+00	 0.00000000E+00	 4.50000000E-01
					 5.00000000E-02	 0.00000000E+00	 4.50000000E-01
					 0.00000000E+00	 3.00000000E-01	 4.50000000E-01
					 5.00000000E-02	 3.00000000E-01	 4.50000000E-01
					 0.00000000E+00	 0.00000000E+00	 5.00000000E-01
					 5.00000000E-02	 0.00000000E+00	 5.00000000E-01
					 0.00000000E+00	 3.00000000E-01	 5.00000000E-01
					 5.00000000E-02	 3.00000000E-01	 5.00000000E-01
					 0.00000000E+00	 0.00000000E+00	 5.50000000E-01
					 5.00000000E-02	 0.00000000E+00	 5.50000000E-01
					 0.00000000E+00	 3.00000000E-01	 5.50000000E-01
					 5.00000000E-02	 3.00000000E-01	 5.50000000E-01
					 0.00000000E+00	 0.00000000E+00	 6.00000000E-01
					 5.00000000E-02	 0.00000000E+00	 6.00000000E-01
					 0.00000000E+00	 3.00000000E-01	 6.00000000E-01
					 5.00000000E-02	 3.00000000E-01	 6.00000000E-01
					 0.00000000E+00	 0.00000000E+00	 6.50000000E-01
					 5.00000000E-02	 0.00000000E+00	 6.50000000E-01
					 0.00000000E+00	 3.00000000E-01	 6.50000000E-01
					 5.00000000E-02	 3.00000000E-01	 6.50000000E-01
					 0.00000000E+00	 0.00000000E+00	 7.00000000E-01
					 5.00000000E-02	 0.00000000E+00	 7.00000000E-01
					 0.00000000E+00	 3.00000000E-01	 7.00000000E-01
					 5.00000000E-02	 3.00000000E-01	 7.00000000E-01
					 0.00000000E+00	 0.00000000E+00	 7.50000000E-01
					 5.00000000E-02	 0.00000000E+00	 7.50000000E-01
					 0.00000000E+00	 3.00000000E-01	 7.50000000E-01
					 5.00000000E-02	 3.00000000E-01	 7.50000000E-01
					 0.00000000E+00	 0.00000000E+00	 8.00000000E-01
					 5.00000000E-02	 0.00000000E+00	 8.00000000E-01
					 0.00000000E+00	 3.00000000E-01	 8.00000000E-01
					 5.00000000E-02	 3.00000000E-01	 8.00000000E-01
					 0.00000000E+00	 0.00000000E+00	 8.50000000E-01
					 5.00000000E-02	 0.00000000E+00	 8.50000000E-01
					 0.00000000E+00	 3.00000000E-01	 8.50000000E-01
					 5.00000000E-02	 3.00000000E-01	 8.50000000E-01
					 0.00000000E+00	 0.00000000E+00	 9.00000000E-01
					 5.00000000E-02	 0.00000000E+00	 9.00000000E-01
					 0.00000000E+00	 3.00000000E-01	 9.00000000E-01
					 5.00000000E-02	 3.00000000E-01	 9.00000000E-01
					 0.00000000E+00	 0.00000000E+00	 9.50000000E-01
					 5.00000000E-02	 0.00000000E+00	 9.50000000E-01
					 0.00000000E+00	 3.00000000E-01	 9.50000000E-01
					 5.00000000E-02	 3.00000000E-01	 9.50000000E-01
					 0.00000000E+00	 0.00000000E+00	 1.00000000E+00
					 5.00000000E-02	 0.00000000E+00	 1.00000000E+00
					 0.00000000E+00	 3.00000000E-01	 1.00000000E+00
					 5.00000000E-02	 3.00000000E-01	 1.00000000E+00
					-5.00000000E-02	 0.00000000E+00	 0.00000000E+00
					-5.00000000E-02	 0.00000000E+00	 5.00000000E-02
					-5.00000000E-02	 3.00000000E-01	 0.00000000E+00
					-5.00000000E-02	 3.00000000E-01	 5.00000000E-02
					-5.00000000E-02	 0.00000000E+00	 1.00000000E-01
					-5.00000000E-02	 3.00000000E-01	 1.00000000E-01
					-5.00000000E-02	 0.00000000E+00	 1.50000000E-01
					-5.00000000E-02	 3.00000000E-01	 1.50000000E-01
					-5.00000000E-02	 0.00000000E+00	 2.00000000E-01
					-5.00000000E-02	 3.00000000E-01	 2.00000000E-01
					-5.00000000E-02	 0.00000000E+00	 2.50000000E-01
					-5.00000000E-02	 3.00000000E-01	 2.50000000E-01
					-5.00000000E-02	 0.00000000E+00	 3.00000000E-01
					-5.00000000E-02	 3.00000000E-01	 3.00000000E-01
					-5.00000000E-02	 0.00000000E+00	 3.50000000E-01
					-5.00000000E-02	 3.00000000E-01	 3.50000000E-01
					-5.00000000E-02	 0.00000000E+00	 4.00000000E-01
					-5.00000000E-02	 3.00000000E-01	 4.00000000E-01
					-5.00000000E-02	 0.00000000E+00	 4.50000000E-01
					-5.00000000E-02	 3.00000000E-01	 4.50000000E-01
					-5.00000000E-02	 0.00000000E+00	 5.00000000E-01
					-5.00000000E-02	 3.00000000E-01	 5.00000000E-01
					-5.00000000E-02	 0.00000000E+00	 5.50000000E-01
					-5.00000000E-02	 3.00000000E-01	 5.50000000E-01
					-5.00000000E-02	 0.00000000E+00	 6.00000000E-01
					-5.00000000E-02	 3.00000000E-01	 6.00000000E-01
					-5.00000000E-02	 0.00000000E+00	 6.50000000E-01
					-5.00000000E-02	 3.00000000E-01	 6.50000000E-01
					-5.00000000E-02	 0.00000000E+00	 7.00000000E-01
					-5.00000000E-02	 3.00000000E-01	 7.00000000E-01
					-5.00000000E-02	 0.00000000E+00	 7.50000000E-01
					-5.00000000E-02	 3.00000000E-01	 7.50000000E-01
					-5.00000000E-02	 0.00000000E+00	 8.00000000E-01
					-5.00000000E-02	 3.00000000E-01	 8.00000000E-01
					-5.00000000E-02	 0.00000000E+00	 8.50000000E-01
					-5.00000000E-02	 3.00000000E-01	 8.50000000E-01
					-5.00000000E-02	 0.00000000E+00	 9.00000000E-01
					-5.00000000E-02	 3.00000000E-01	 9.00000000E-01
					-5.00000000E-02	 0.00000000E+00	 9.50000000E-01
					-5.00000000E-02	 3.00000000E-01	 9.50000000E-01
					-5.00000000E-02	 0.00000000E+00	 1.00000000E+00
					-5.00000000E-02	 3.00000000E-01	 1.00000000E+00
				</DataArray>
			</Points>
			<Cells>
				<DataArray type="Int32" Name="connectivity" format="ascii">
					0 1 2 3 4 5 6 7 3 2 8 9 7 6 10 11 9 8 12 13 11 10 14 15 13 12 16 17 15 14 18 19 17 16 20 21 19 18 22 23 21 20 24 25 23 22 26 27 25 24 28 29 27 26 30 31 29 28 32 33 31 30 34 35 33 32 36 37 35 34 38 39 37 36 40 41 39 38 42 43 41 40 44 45 43 42 46 47 45 44 48 49 47 46 50 51 49 48 52 53 51 50 54 55 53 52 56 57 55 54 58 59 57 56 60 61 59 58 62 63 61 60 64 65 63 62 66 67 65 64 68 69 67 66 70 71 69 68 72 73 71 70 74 75 73 72 76 77 75 74 78 79 77 76 80 81 79 78 82 83 1 84 85 2 5 86 87 6 2 85 88 8 6 87 89 10 8 88 90 12 10 89 91 14 12 90 92 16 14 91 93 18 16 92 94 20 18 93 95 22 20 94 96 24 22 95 97 26 24 96 98 28 26 97 99 30 28 98 100 32 30 99 101 34 32 100 102 36 34 101 103 38 36 102 104 40 38 103 105 42 40 104 106 44 42 105 107 46 44 106 108 48 46 107 109 50 48 108 110 52 50 109 111 54 52 110 112 56 54 111 113 58 56 112 114 60 58 113 115 62 60 114 116 64 62 115 117 66 64 116 118 68 66 117 119 70 68 118 120 72 70 119 121 74 72 120 122 76 74 121 123 78 76 122 124 80 78 123 125 82 
				</DataArray>
				<DataArray type="Int32" Name="offsets" format="ascii">
					8 16 24 32 40 48 56 64 72 80 88 96 104 112 120 128 136 144 152 160 168 176 184 192 200 208 216 224 232 240 248 256 264 272 280 288 296 304 312 320 
				</DataArray>
				<DataArray type="UInt8" Name="types" format="ascii">
					12 12 12 12 12 12 12 12 12 12 12 12 12 12 12 12 12 12 12 12 12 12 12 12 12 12 12 12 12 12 12 12 12 12 12 12 12 12 12 12 
				</DataArray>
			</Cells>
			<PointData>
				<DataArray type="Float32" Name="U" NumberOfComponents="3" ComponentName0="D1" ComponentName1="D2" ComponentName2="D3" format="ascii">
					 0.00000000E+00	 0.00000000E+00	 0.00000000E+00
					 0.00000000E+00	 0.00000000E+00	 0.00000000E+00
					-1.12096000E-05	 0.00000000E+00	-2.01523000E-04
					-1.26423000E-03	 0.00000000E+00	 2.02549000E-04
					 0.00000000E+00	 0.00000000E+00	 0.00000000E+00
					 0.00000000E+00	 0.00000000E+00	 0.00000000E+00
					-1.12096000E-05	 0.00000000E+00	-2.01523000E-04
					-1.26423000E-03	 0.00000000E+00	 2.02549000E-04
					-1.69925000E-05	 0.00000000E+00	 2.46110000E-04
					-1.19593000E-03	 0.00000000E+00	 9.32146000E-05
					-1.69925000E-05	 0.00000000E+00	 2.46110000E-04
					-1.19593000E-03	 0.00000000E+00	 9.32146000E-05
					-1.44147000E-05	 0.00000000E+00	 9.48637000E-05
					-9.89997000E-04	 0.00000000E+00	-9.81722000E-05
					-1.44147000E-05	 0.00000000E+00	 9.48637000E-05
					-9.89997000E-04	 0.00000000E+00	-9.81722000E-05
					-1.36745000E-05	 0.00000000E+00	-7.44771000E-05
					-1.07135000E-03	 0.00000000E+00	 2.19280000E-07
					-1.36745000E-05	 0.00000000E+00	-7.44771000E-05
					-1.07135000E-03	 0.00000000E+00	 2.19280000E-07
					-1.50148000E-05	 0.00000000E+00	-3.59596000E-05
					-1.10386000E-03	 0.00000000E+00	 5.73129000E-05
					-1.50148000E-05	 0.00000000E+00	-3.59596000E-05
					-1.10386000E-03	 0.00000000E+00	 5.73129000E-05
					-1.59967000E-05	 0.00000000E+00	-1.01040000E-05
					-1.14188000E-03	 0.00000000E+00	-2.98851000E-06
					-1.59967000E-05	 0.00000000E+00	-1.01040000E-05
					-1.14188000E-03	 0.00000000E+00	-2.98851000E-06
					-1.54340000E-05	 0.00000000E+00	 7.24787000E-05
					-1.13697000E-03	 0.00000000E+00	-4.90147000E-05
					-1.54340000E-05	 0.00000000E+00	 7.24787000E-05
					-1.13697000E-03	 0.00000000E+00	-4.90147000E-05
					-1.53942000E-05	 0.00000000E+00	 1.05293000E-06
					-9.82834000E-04	 0.00000000E+00	 3.53955000E-07
					-1.53942000E-05	 0.00000000E+00	 1.05293000E-06
					-9.82834000E-04	 0.00000000E+00	 3.53955000E-07
					-1.61882000E-05	 0.00000000E+00	-7.27177000E-05
					-1.13790000E-03	 0.00000000E+00	 5.09157000E-05
					-1.61882000E-05	 0.00000000E+00	-7.27177000E-05
					-1.13790000E-03	 0.00000000E+00	 5.09157000E-05
					-1.79911000E-05	 0.00000000E+00	 8.46953000E-07
					-1.13925000E-03	 0.00000000E+00	 1.05305000E-06
					-1.79911000E-05	 0.00000000E+00	 8.46953000E-07
					-1.13925000E-03	 0.00000000E+00	 1.05305000E-06
					-1.73916000E-05	 0.00000000E+00	 7.13410000E-05
					-1.13843000E-03	 0.00000000E+00	-5.08871000E-05
					-1.73916000E-05	 0.00000000E+00	 7.13410000E-05
					-1.13843000E-03	 0.00000000E+00	-5.08871000E-05
					-1.75908000E-05	 0.00000000E+00	 3.75185000E-06
					-9.89550000E-04	 0.00000000E+00	 4.43842000E-06
					-1.75908000E-05	 0.00000000E+00	 3.75185000E-06
					-9.89550000E-04	 0.00000000E+00	 4.43842000E-06
					-1.87029000E-05	 0.00000000E+00	-7.69800000E-05
					-1.13842000E-03	 0.00000000E+00	 4.45184000E-05
					-1.87029000E-05	 0.00000000E+00	-7.69800000E-05
					-1.13842000E-03	 0.00000000E+00	 4.45184000E-05
					-2.09440000E-05	 0.00000000E+00	 1.74562000E-06
					-1.14172000E-03	 0.00000000E+00	 3.74115000E-06
					-2.09440000E-05	 0.00000000E+00	 1.74562000E-06
					-1.14172000E-03	 0.00000000E+00	 3.74115000E-06
					-2.11876000E-05	 0.00000000E+00	 1.09974000E-04
					-1.17785000E-03	 0.00000000E+00	-3.50085000E-06
					-2.11876000E-05	 0.00000000E+00	 1.09974000E-04
					-1.17785000E-03	 0.00000000E+00	-3.50085000E-06
					-2.00395000E-05	 0.00000000E+00	-1.48387000E-04
					-8.78867000E-04	 0.00000000E+00	-1.87790000E-04
					-2.00395000E-05	 0.00000000E+00	-1.48387000E-04
					-8.78867000E-04	 0.00000000E+00	-1.87790000E-04
					-2.46289000E-05	 0.00000000E+00	 1.65354000E-04
					-1.28854000E-03	 0.00000000E+00	 2.97482000E-04
					-2.46289000E-05	 0.00000000E+00	 1.65354000E-04
					-1.28854000E-03	 0.00000000E+00	 2.97482000E-04
					-2.89550000E-05	 0.00000000E+00	 2.33425000E-04
					-1.55284000E-03	 0.00000000E+00	 6.88654000E-04
					-2.89550000E-05	 0.00000000E+00	 2.33425000E-04
					-1.55284000E-03	 0.00000000E+00	 6.88654000E-04
					-3.09102000E-05	 0.00000000E+00	 1.35920000E-04
					-7.76102000E-04	 0.00000000E+00	-4.99425000E-05
					-3.09102000E-05	 0.00000000E+00	 1.35920000E-04
					-7.76102000E-04	 0.00000000E+00	-4.99425000E-05
					-2.29975000E-05	 0.00000000E+00	 5.20299000E-04
					-7.56535000E-04	 0.00000000E+00	 3.15697000E-04
					-2.29975000E-05	 0.00000000E+00	 5.20299000E-04
					-7.56535000E-04	 0.00000000E+00	 3.15697000E-04
					 0.00000000E+00	 0.00000000E+00	 0.00000000E+00
					 1.25589000E-03	 0.00000000E+00	 1.96903000E-04
					 0.00000000E+00	 0.00000000E+00	 0.00000000E+00
					 1.25589000E-03	 0.00000000E+00	 1.96903000E-04
					 1.17110000E-03	 0.00000000E+00	 8.75774000E-05
					 1.17110000E-03	 0.00000000E+00	 8.75774000E-05
					 9.67129000E-04	 0.00000000E+00	-9.40007000E-05
					 9.67129000E-04	 0.00000000E+00	-9.40007000E-05
					 1.04988000E-03	 0.00000000E+00	-7.23206000E-07
					 1.04988000E-03	 0.00000000E+00	-7.23206000E-07
					 1.07859000E-03	 0.00000000E+00	 5.58419000E-05
					 1.07859000E-03	 0.00000000E+00	 5.58419000E-05
					 1.12056000E-03	 0.00000000E+00	-3.10364000E-06
					 1.12056000E-03	 0.00000000E+00	-3.10364000E-06
					 1.10962000E-03	 0.00000000E+00	-4.88828000E-05
					 1.10962000E-03	 0.00000000E+00	-4.88828000E-05
					 9.58476000E-04	 0.00000000E+00	-1.78655000E-07
					 9.58476000E-04	 0.00000000E+00	-1.78655000E-07
					 1.10814000E-03	 0.00000000E+00	 4.94111000E-05
					 1.10814000E-03	 0.00000000E+00	 4.94111000E-05
					 1.11314000E-03	 0.00000000E+00	 2.14935000E-07
					 1.11314000E-03	 0.00000000E+00	 2.14935000E-07
					 1.10537000E-03	 0.00000000E+00	-5.07937000E-05
					 1.10537000E-03	 0.00000000E+00	-5.07937000E-05
					 9.59291000E-04	 0.00000000E+00	 3.42358000E-06
					 9.59291000E-04	 0.00000000E+00	 3.42358000E-06
					 1.10126000E-03	 0.00000000E+00	 4.25721000E-05
					 1.10126000E-03	 0.00000000E+00	 4.25721000E-05
					 1.10781000E-03	 0.00000000E+00	 1.72103000E-06
					 1.10781000E-03	 0.00000000E+00	 1.72103000E-06
					 1.13475000E-03	 0.00000000E+00	-2.51857000E-06
					 1.13475000E-03	 0.00000000E+00	-2.51857000E-06
					 8.38393000E-04	 0.00000000E+00	-1.91984000E-04
					 8.38393000E-04	 0.00000000E+00	-1.91984000E-04
					 1.24265000E-03	 0.00000000E+00	 2.93958000E-04
					 1.24265000E-03	 0.00000000E+00	 2.93958000E-04
					 1.48656000E-03	 0.00000000E+00	 6.91679000E-04
					 1.48656000E-03	 0.00000000E+00	 6.91679000E-04
					 7.29204000E-04	 0.00000000E+00	-3.49980000E-05
					 7.29204000E-04	 0.00000000E+00	-3.49980000E-05
					 7.12498000E-04	 0.00000000E+00	 3.26521000E-04
					 7.12498000E-04	 0.00000000E+00	 3.26521000E-04
				</DataArray>
			</PointData>
		</Piece>
	</UnstructuredGrid>
</VTKFile>