<?xml version="1.0"?>
<VTKFile type="UnstructuredGrid" version="0.1" byte_order="LittleEndian">
	<UnstructuredGrid>
		<Piece NumberOfPoints="126" NumberOfCells="40">
			<Points>
				<DataArray type="Float64" NumberOfComponents="3" format="ascii">
					 5.00000000E-02	 0.00000000E+00	 0.00000000E+00
					 0.00000000E+00	 0.00000000E+00	 0.00000000E+00
					 0.00000000E+00	 0.00000000E+00	 5.00000000E-02
					 5.00000000E-02	 0.00000000E+00	 5.00000000E-02
					 5.00000000E-02	 3.00000000E-01	 0.00000000E+00
					 0.00000000E+00	 3.00000000E-01	 0.00000000E+00
					 0.00000000E+00	 3.00000000E-01	 5.00000000E-02
					 5.00000000E-02	 3.00000000E-01	 5.00000000E-02
					 0.00000000E+00	 0.00000000E+00	 1.00000000E-01
					 5.00000000E-02	 0.00000000E+00	 1.00000000E-01
					 0.00000000E+00	 3.00000000E-01	 1.00000000E-01
					 5.00000000E-02	 3.00000000E-01	 1.00000000E-01
					 0.00000000E+00	 0.00000000E+00	 1.50000000E-01
					 5.00000000E-02	 0.00000000E+00	 1.50000000E-01
					 0.00000000E+00	 3.00000000E-01	 1.50000000E-01
					 5.00000000E-02	 3.00000000E-01	 1.50000000E-01
					 0.00000000E+00	 0.00000000E+00	 2.00000000E-01
					 5.00000000E-02	 0.00000000E+00	 2.00000000E-01
					 0.00000000E+00	 3.00000000E-01	 2.00000000E-01
					 5.00000000E-02	 3.00000000E-01	 2.00000000E-01
					 0.00000000E+00	 0.00000000E+00	 2.50000000E-01
					 5.00000000E-02	 0.00000000E+00	 2.50000000E-01
					 0.00000000E+00	 3.00000000E-01	 2.50000000E-01
					 5.00000000E-02	 3.00000000E-01	 2.50000000E-01
					 0.00000000E+00	 0.00000000E+00	 3.00000000E-01
					 5.00000000E-02	 0.00000000E+00	 3.00000000E-01
					 0.00000000E+00	 3.00000000E-01	 3.00000000E-01
					 5.00000000E-02	 3.00000000E-01	 3.00000000E-01
					 0.00000000E+00	 0.00000000E+00	 3.50000000E-01
					 5.00000000E-02	 0.00000000E+00	 3.50000000E-01
					 0.00000000E+00	 3.00000000E-01	 3.50000000E-01
					 5.00000000E-02	 3.00000000E-01	 3.50000000E-01
					 0.00000000E+00	 0.00000000E+00	 4.00000000E-01
					 5.00000000E-02	 0.00000000E+00	 4.00000000E-01
					 0.00000000E+00	 3.00000000E-01	 4.00000000E-01
					 5.00000000E-02	 3.00000000E-01	 4.00000000E-01
					 0.00000000E+00	 0.00000000E+00	 4.50000000E-01
					 5.00000000E-02	 0.00000000E+00	 4.50000000E-01
					 0.00000000E+00	 3.00000000E-01	 4.50000000E-01
					 5.00000000E-02	 3.00000000E-01	 4.50000000E-01
					 0.00000000E+00	 0.00000000E+00	 5.00000000E-01
					 5.00000000E-02	 0.00000000E+00	 5.00000000E-01
					 0.00000000E+00	 3.00000000E-01	 5.00000000E-01
					 5.00000000E-02	 3.00000000E-01	 5.00000000E-01
					 0.00000000E+00	 0.00000000E+00	 5.50000000E-01
					 5.00000000E-02	 0.00000000E+00	 5.50000000E-01
					 0.00000000E+00	 3.00000000E-01	 5.50000000E-01
					 5.00000000E-02	 3.00000000E-01	 5.50000000E-01
					 0.00000000E+00	 0.00000000E+00	 6.00000000E-01
					 5.00000000E-02	 0.00000000E+00	 6.00000000E-01
					 0.00000000E+00	 3.00000000E-01	 6.00000000E-01
					 5.00000000E-02	 3.00000000E-01	 6.00000000E-01
					 0.00000000E+00	 0.00000000E+00	 6.50000000E-01
					 5.00000000E-02	 0.00000000E+00	 6.50000000E-01
					 0.00000000E+00	 3.00000000E-01	 6.50000000E-01
					 5.00000000E-02	 3.00000000E-01	 6.50000000E-01
					 0.00000000E+00	 0.00000000E+00	 7.00000000E-01
					 5.00000000E-02	 0.00000000E+00	 7.00000000E-01
					 0.00000000E+00	 3.00000000E-01	 7.00000000E-01
					 5.00000000E-02	 3.00000000E-01	 7.00000000E-01
					 0.00000000E+00	 0.00000000E+00	 7.50000000E-01
					 5.00000000E-02	 0.00000000E+00	 7.50000000E-01
					 0.00000000E+00	 3.00000000E-01	 7.50000000E-01
					 5.00000000E-02	 3.00000000E-01	 7.50000000E-01
					 0.00000000E+00	 0.00000000E+00	 8.00000000E-01
					 5.00000000E-02	 0.00000000E+00	 8.00000000E-01
					 0.00000000E+00	 3.00000000E-01	 8.00000000E-01
					 5.00000000E-02	 3.00000000E-01	 8.00000000E-01
					 0.00000000E+00	 0.00000000E+00	 8.50000000E-01
					 5.00000000E-02	 0.00000000E+00	 8.50000000E-01
					 0.00000000E+00	 3.00000000E-01	 8.50000000E-01
					 5.00000000E-02	 3.00000000E-01	 8.50000000E-01
					 0.00000000E+00	 0.00000000E+00	 9.00000000E-01
					 5.00000000E-02	 0.00000000E+00	 9.00000000E-01
					 0.00000000E+00	 3.00000000E-01	 9.00000000E-01
					 5.00000000E-02	 3.00000000E-01	 9.00000000E-01
					 0.00000000E+00	 0.00000000E+00	 9.50000000E-01
					 5.00000000E-02	 0.00000000E+00	 9.50000000E-01
					 0.00000000E+00	 3.00000000E-01	 9.50000000E-01
					 5.00000000E-02	 3.00000000E-01	 9.50000000E-01
					 0.00000000E+00	 0.00000000E+00	 1.00000000E+00
					 5.00000000E-02	 0.00000000E+00	 1.00000000E+00
					 0.00000000E+00	 3.00000000E-01	 1.00000000E+00
					 5.00000000E-02	 3.00000000E-01	 1.00000000E+00
					-5.00000000E-02	 0.00000000E+00	 0.00000000E+00
					-5.00000000E-02	 0.00000000E+00	 5.00000000E-02
					-5.00000000E-02	 3.00000000E-01	 0.00000000E+00
					-5.00000000E-02	 3.00000000E-01	 5.00000000E-02
					-5.00000000E-02	 0.00000000E+00	 1.00000000E-01
					-5.00000000E-02	 3.00000000E-01	 1.00000000E-01
					-5.00000000E-02	 0.00000000E+00	 1.50000000E-01
					-5.00000000E-02	 3.00000000E-01	 1.50000000E-01
					-5.00000000E-02	 0.00000000E+00	 2.00000000E-01
					-5.00000000E-02	 3.00000000E-01	 2.00000000E-01
					-5.00000000E-02	 0.00000000E+00	 2.50000000E-01
					-5.00000000E-02	 3.00000000E-01	 2.50000000E-01
					-5.00000000E-02	 0.00000000E+00	 3.00000000E-01
					-5.00000000E-02	 3.00000000E-01	 3.00000000E-01
					-5.00000000E-02	 0.00000000E+00	 3.50000000E-01
					-5.00000000E-02	 3.00000000E-01	 3.50000000E-01
					-5.00000000E-02	 0.00000000E+00	 4.00000000E-01
					-5.00000000E-02	 3.00000000E-01	 4.00000000E-01
					-5.00000000E-02	 0.00000000E+00	 4.50000000E-01
					-5.00000000E-02	 3.00000000E-01	 4.50000000E-01
					-5.00000000E-02	 0.00000000E+00	 5.00000000E-01
					-5.00000000E-02	 3.00000000E-01	 5.00000000E-01
					-5.00000000E-02	 0.00000000E+00	 5.50000000E-01
					-5.00000000E-02	 3.00000000E-01	 5.50000000E-01
					-5.00000000E-02	 0.00000000E+00	 6.00000000E-01
					-5.00000000E-02	 3.00000000E-01	 6.00000000E-01
					-5.00000000E-02	 0.00000000E+00	 6.50000000E-01
					-5.00000000E-02	 3.00000000E-01	 6.50000000E-01
					-5.00000000E-02	 0.00000000E+00	 7.00000000E-01
					-5.00000000E-02	 3.00000000E-01	 7.00000000E-01
					-5.00000000E-02	 0.00000000E+00	 7.50000000E-01
					-5.00000000E-02	 3.00000000E-01	 7.50000000E-01
					-5.00000000E-02	 0.00000000E+00	 8.00000000E-01
					-5.00000000E-02	 3.00000000E-01	 8.00000000E-01
					-5.00000000E-02	 0.00000000E+00	 8.50000000E-01
					-5.00000000E-02	 3.00000000E-01	 8.50000000E-01
					-5.00000000E-02	 0.00000000E+00	 9.00000000E-01
					-5.00000000E-02	 3.00000000E-01	 9.00000000E-01
					-5.00000000E-02	 0.00000000E+00	 9.50000000E-01
					-5.00000000E-02	 3.00000000E-01	 9.50000000E-01
					-5.00000000E-02	 0.00000000E+00	 1.00000000E+00
					-5.00000000E-02	 3.00000000E-01	 1.00000000E+00
				</DataArray>
			</Points>
			<Cells>
				<DataArray type="Int32" Name="connectivity" format="ascii">
					0 1 2 3 4 5 6 7 3 2 8 9 7 6 10 11 9 8 12 13 11 10 14 15 13 12 16 17 15 14 18 19 17 16 20 21 19 18 22 23 21 20 24 25 23 22 26 27 25 24 28 29 27 26 30 31 29 28 32 33 31 30 34 35 33 32 36 37 35 34 38 39 37 36 40 41 39 38 42 43 41 40 44 45 43 42 46 47 45 44 48 49 47 46 50 51 49 48 52 53 51 50 54 55 53 52 56 57 55 54 58 59 57 56 60 61 59 58 62 63 61 60 64 65 63 62 66 67 65 64 68 69 67 66 70 71 69 68 72 73 71 70 74 75 73 72 76 77 75 74 78 79 77 76 80 81 79 78 82 83 1 84 85 2 5 86 87 6 2 85 88 8 6 87 89 10 8 88 90 12 10 89 91 14 12 90 92 16 14 91 93 18 16 92 94 20 18 93 95 22 20 94 96 24 22 95 97 26 24 96 98 28 26 97 99 30 28 98 100 32 30 99 101 34 32 100 102 36 34 101 103 38 36 102 104 40 38 103 105 42 40 104 106 44 42 105 107 46 44 106 108 48 46 107 109 50 48 108 110 52 50 109 111 54 52 110 112 56 54 111 113 58 56 112 114 60 58 113 115 62 60 114 116 64 62 115 117 66 64 116 118 68 66 117 119 70 68 118 120 72 70 119 121 74 72 120 122 76 74 121 123 78 76 122 124 80 78 123 125 82 
				</DataArray>
				<DataArray type="Int32" Name="offsets" format="ascii">
					8 16 24 32 40 48 56 64 72 80 88 96 104 112 120 128 136 144 152 160 168 176 184 192 200 208 216 224 232 240 248 256 264 272 280 288 296 304 312 320 
				</DataArray>
				<DataArray type="UInt8" Name="types" format="ascii">
					12 12 12 12 12 12 12 12 12 12 12 12 12 12 12 12 12 12 12 12 12 12 12 12 12 12 12 12 12 12 12 12 12 12 12 12 12 12 12 12 
				</DataArray>
			</Cells>
			<PointData>
				<DataArray type="Float32" Name="U" NumberOfComponents="3" ComponentName0="D1" ComponentName1="D2" ComponentName2="D3" format="ascii">
					 0.00000000E+00	 0.00000000E+00	 0.00000000E+00
					 0.00000000E+00	 0.00000000E+00	 0.00000000E+00
					 2.95382000E-04	 0.00000000E+00	 4.18809000E-04
					 2.69503000E-04	 0.00000000E+00	-6.73361000E-04
					 0.00000000E+00	 0.00000000E+00	 0.00000000E+00
					 0.00000000E+00	 0.00000000E+00	 0.00000000E+00
					 2.95382000E-04	 0.00000000E+00	 4.18809000E-04
					 2.69503000E-04	 0.00000000E+00	-6.73361000E-04
					 6.68705000E-04	 0.00000000E+00	 6.54091000E-04
					 6.47992000E-04	 0.00000000E+00	-1.95417000E-04
					 6.68705000E-04	 0.00000000E+00	 6.54091000E-04
					 6.47992000E-04	 0.00000000E+00	-1.95417000E-04
					 9.83794000E-04	 0.00000000E+00	 5.47092000E-04
					 2.09041000E-03	 0.00000000E+00	-2.32713000E-04
					 9.83794000E-04	 0.00000000E+00	 5.47092000E-04
					 2.09041000E-03	 0.00000000E+00	-2.32713000E-04
					 1.21355000E-03	 0.00000000E+00	 6.10961000E-04
					 1.87527000E-03	 0.00000000E+00	 7.25161000E-06
					 1.21355000E-03	 0.00000000E+00	 6.10961000E-04
					 1.87527000E-03	 0.00000000E+00	 7.25161000E-06
					 1.35403000E-03	 0.00000000E+00	 6.45283000E-04
					 2.38478000E-03	 0.00000000E+00	 8.79659000E-05
					 1.35403000E-03	 0.00000000E+00	 6.45283000E-04
					 2.38478000E-03	 0.00000000E+00	 8.79659000E-05
					 1.40719000E-03	 0.00000000E+00	 5.83715000E-04
					 2.83700000E-03	 0.00000000E+00	 6.57757000E-04
					 1.40719000E-03	 0.00000000E+00	 5.83715000E-04
					 2.83700000E-03	 0.00000000E+00	 6.57757000E-04
					 1.37193000E-03	 0.00000000E+00	 4.12961000E-04
					 1.60103000E-03	 0.00000000E+00	 4.76994000E-04
					 1.37193000E-03	 0.00000000E+00	 4.12961000E-04
					 1.60103000E-03	 0.00000000E+00	 4.76994000E-04
					 1.30291000E-03	 0.00000000E+00	 6.16135000E-04
					 1.71834000E-03	 0.00000000E+00	 2.30860000E-04
					 1.30291000E-03	 0.00000000E+00	 6.16135000E-04
					 1.71834000E-03	 0.00000000E+00	 2.30860000E-04
					 1.22766000E-03	 0.00000000E+00	 7.99133000E-04
					 2.23997000E-03	 0.00000000E+00	 2.74341000E-04
					 1.22766000E-03	 0.00000000E+00	 7.99133000E-04
					 2.23997000E-03	 0.00000000E+00	 2.74341000E-04
					 1.14876000E-03	 0.00000000E+00	 2.13100000E-04
					 2.24711000E-03	 0.00000000E+00	 4.95512000E-04
					 1.14876000E-03	 0.00000000E+00	 2.13100000E-04
					 2.24711000E-03	 0.00000000E+00	 4.95512000E-04
					 1.08027000E-03	 0.00000000E+00	 4.77353000E-04
					 1.63818000E-03	 0.00000000E+00	 9.26670000E-04
					 1.08027000E-03	 0.00000000E+00	 4.77353000E-04
					 1.63818000E-03	 0.00000000E+00	 9.26670000E-04
					 1.00874000E-03	 0.00000000E+00	 4.11323000E-04
					 1.97739000E-03	 0.00000000E+00	 9.12392000E-04
					 1.00874000E-03	 0.00000000E+00	 4.11323000E-04
					 1.97739000E-03	 0.00000000E+00	 9.12392000E-04
					 9.61469000E-04	 0.00000000E+00	 2.44019000E-04
					 1.53329000E-03	 0.00000000E+00	 6.18600000E-04
					 9.61469000E-04	 0.00000000E+00	 2.44019000E-04
					 1.53329000E-03	 0.00000000E+00	 6.18600000E-04
					 8.94068000E-04	 0.00000000E+00	 5.22099000E-04
					 1.39991000E-03	 0.00000000E+00	 3.55173000E-04
					 8.94068000E-04	 0.00000000E+00	 5.22099000E-04
					 1.39991000E-03	 0.00000000E+00	 3.55173000E-04
					 8.01658000E-04	 0.00000000E+00	 7.73896000E-04
					 2.00805000E-03	 0.00000000E+00	 8.08195000E-04
					 8.01658000E-04	 0.00000000E+00	 7.73896000E-04
					 2.00805000E-03	 0.00000000E+00	 8.08195000E-04
					 6.94635000E-04	 0.00000000E+00	 1.29886000E-04
					 2.06410000E-03	 0.00000000E+00	 8.35798000E-04
					 6.94635000E-04	 0.00000000E+00	 1.29886000E-04
					 2.06410000E-03	 0.00000000E+00	 8.35798000E-04
					 5.96477000E-04	 0.00000000E+00	 3.17736000E-04
					 7.97525000E-04	 0.00000000E+00	 1.05857000E-03
					 5.96477000E-04	 0.00000000E+00	 3.17736000E-04
					 7.97525000E-04	 0.00000000E+00	 1.05857000E-03
					 5.01141000E-04	 0.00000000E+00	 6.54971000E-04
					 1.01413000E-03	 0.00000000E+00	 9.52664000E-04
					 5.01141000E-04	 0.00000000E+00	 6.54971000E-04
					 1.01413000E-03	 0.00000000E+00	 9.52664000E-04
					 3.92990000E-04	 0.00000000E+00	 4.41462000E-04
					 1.00484000E-03	 0.00000000E+00	 1.16494000E-03
					 3.92990000E-04	 0.00000000E+00	 4.41462000E-04
					 1.00484000E-03	 0.00000000E+00	 1.16494000E-03
					 2.83387000E-04	 0.00000000E+00	-1.58553000E-06
					 8.84831000E-05	 0.00000000E+00	 1.08650000E-03
					 2.83387000E-04	 0.00000000E+00	-1.58553000E-06
					 8.84831000E-05	 0.00000000E+00	 1.08650000E-03
					 0.00000000E+00	 0.00000000E+00	 0.00000000E+00
					 4.33363000E-04	 0.00000000E+00	-2.72178000E-04
					 0.00000000E+00	 0.00000000E+00	 0.00000000E+00
					 4.33363000E-04	 0.00000000E+00	-2.72178000E-04
					 7.11953000E-04	 0.00000000E+00	 3.21709000E-04
					 7.11953000E-04	 0.00000000E+00	 3.21709000E-04
					-1.11821000E-04	 0.00000000E+00	 2.41492000E-04
					-1.11821000E-04	 0.00000000E+00	 2.41492000E-04
					 5.71810000E-04	 0.00000000E+00	 3.44792000E-04
					 5.71810000E-04	 0.00000000E+00	 3.44792000E-04
					 3.32776000E-04	 0.00000000E+00	 2.90553000E-04
					 3.32776000E-04	 0.00000000E+00	 2.90553000E-04
					-1.47080000E-05	 0.00000000E+00	 7.09586000E-04
					-1.47080000E-05	 0.00000000E+00	 7.09586000E-04
					 1.16577000E-03	 0.00000000E+00	 4.11625000E-04
					 1.16577000E-03	 0.00000000E+00	 4.11625000E-04
					 9.26831000E-04	 0.00000000E+00	 1.20361000E-04
					 9.26831000E-04	 0.00000000E+00	 1.20361000E-04
					 2.53752000E-04	 0.00000000E+00	 1.40102000E-04
					 2.53752000E-04	 0.00000000E+00	 1.40102000E-04
					 9.53874000E-05	 0.00000000E+00	 3.60368000E-04
					 9.53874000E-05	 0.00000000E+00	 3.60368000E-04
					 5.56706000E-04	 0.00000000E+00	 7.88862000E-04
					 5.56706000E-04	 0.00000000E+00	 7.88862000E-04
					 9.08304000E-05	 0.00000000E+00	 7.90767000E-04
					 9.08304000E-05	 0.00000000E+00	 7.90767000E-04
					 4.23203000E-04	 0.00000000E+00	 4.80350000E-04
					 4.23203000E-04	 0.00000000E+00	 4.80350000E-04
					 4.15240000E-04	 0.00000000E+00	 2.03873000E-04
					 4.15240000E-04	 0.00000000E+00	 2.03873000E-04
					-3.63498000E-04	 0.00000000E+00	 6.26430000E-04
					-3.63498000E-04	 0.00000000E+00	 6.26430000E-04
					-6.16823000E-04	 0.00000000E+00	 6.35118000E-04
					-6.16823000E-04	 0.00000000E+00	 6.35118000E-04
					 4.35244000E-04	 0.00000000E+00	 8.61244000E-04
					 4.35244000E-04	 0.00000000E+00	 8.61244000E-04
					 1.06419000E-05	 0.00000000E+00	 7.50527000E-04
					 1.06419000E-05	 0.00000000E+00	 7.50527000E-04
					-2.11625000E-04	 0.00000000E+00	 9.53893000E-04
					-2.11625000E-04	 0.00000000E+00	 9.53893000E-04
					 4.77265000E-04	 0.00000000E+00	 8.76670000E-04
					 4.77265000E-04	 0.00000000E+00	 8.76670000E-04
				</DataArray>
			</PointData>
		</Piece>
	</UnstructuredGrid>
</VTKFile>