<?xml version="1.0"?>
<VTKFile type="UnstructuredGrid" version="0.1" byte_order="LittleEndian">
	<UnstructuredGrid>
		<Piece NumberOfPoints="126" NumberOfCells="40">
			<Points>
				<DataArray type="Float64" NumberOfComponents="3" format="ascii">
					 5.00000000E-02	 0.00000000E+00	 0.00000000E+00
					 0.00000000E+00	 0.00000000E+00	 0.00000000E+00
					 0.00000000E+00	 0.00000000E+00	 5.00000000E-02
					 5.00000000E-02	 0.00000000E+00	 5.00000000E-02
					 5.00000000E-02	 3.00000000E-01	 0.00000000E+00
					 0.00000000E+00	 3.00000000E-01	 0.00000000E+00
					 0.00000000E+00	 3.00000000E-01	 5.00000000E-02
					 5.00000000E-02	 3.00000000E-01	 5.00000000E-02
					 0.00000000E+00	 0.00000000E+00	 1.00000000E-01
					 5.00000000E-02	 0.00000000E+00	 1.00000000E-01
					 0.00000000E+00	 3.00000000E-01	 1.00000000E-01
					 5.00000000E-02	 3.00000000E-01	 1.00000000E-01
					 0.00000000E+00	 0.00000000E+00	 1.50000000E-01
					 5.00000000E-02	 0.00000000E+00	 1.50000000E-01
					 0.00000000E+00	 3.00000000E-01	 1.50000000E-01
					 5.00000000E-02	 3.00000000E-01	 1.50000000E-01
					 0.00000000E+00	 0.00000000E+00	 2.00000000E-01
					 5.00000000E-02	 0.00000000E+00	 2.00000000E-01
					 0.00000000E+00	 3.00000000E-01	 2.00000000E-01
					 5.00000000E-02	 3.00000000E-01	 2.00000000E-01
					 0.00000000E+00	 0.00000000E+00	 2.50000000E-01
					 5.00000000E-02	 0.00000000E+00	 2.50000000E-01
					 0.00000000E+00	 3.00000000E-01	 2.50000000E-01
					 5.00000000E-02	 3.00000000E-01	 2.50000000E-01
					 0.00000000E+00	 0.00000000E+00	 3.00000000E-01
					 5.00000000E-02	 0.00000000E+00	 3.00000000E-01
					 0.00000000E+00	 3.00000000E-01	 3.00000000E-01
					 5.00000000E-02	 3.00000000E-01	 3.00000000E-01
					 0.00000000E+00	 0.00000000E+00	 3.50000000E-01
					 5.00000000E-02	 0.00000000E+00	 3.50000000E-01
					 0.00000000E+00	 3.00000000E-01	 3.50000000E-01
					 5.00000000E-02	 3.00000000E-01	 3.50000000E-01
					 0.00000000E+00	 0.00000000E+00	 4.00000000E-01
					 5.00000000E-02	 0.00000000E+00	 4.00000000E-01
					 0.00000000E+00	 3.00000000E-01	 4.00000000E-01
					 5.00000000E-02	 3.00000000E-01	 4.00000000E-01
					 0.00000000E+00	 0.00000000E+00	 4.50000000E-01
					 5.00000000E-02	 0.00000000E+00	 4.50000000E-01
					 0.00000000E+00	 3.00000000E-01	 4.50000000E-01
					 5.00000000E-02	 3.00000000E-01	 4.50000000E-01
					 0.00000000E+00	 0.00000000E+00	 5.00000000E-01
					 5.00000000E-02	 0.00000000E+00	 5.00000000E-01
					 0.00000000E+00	 3.00000000E-01	 5.00000000E-01
					 5.00000000E-02	 3.00000000E-01	 5.00000000E-01
					 0.00000000E+00	 0.00000000E+00	 5.50000000E-01
					 5.00000000E-02	 0.00000000E+00	 5.50000000E-01
					 0.00000000E+00	 3.00000000E-01	 5.50000000E-01
					 5.00000000E-02	 3.00000000E-01	 5.50000000E-01
					 0.00000000E+00	 0.00000000E+00	 6.00000000E-01
					 5.00000000E-02	 0.00000000E+00	 6.00000000E-01
					 0.00000000E+00	 3.00000000E-01	 6.00000000E-01
					 5.00000000E-02	 3.00000000E-01	 6.00000000E-01
					 0.00000000E+00	 0.00000000E+00	 6.50000000E-01
					 5.00000000E-02	 0.00000000E+00	 6.50000000E-01
					 0.00000000E+00	 3.00000000E-01	 6.50000000E-01
					 5.00000000E-02	 3.00000000E-01	 6.50000000E-01
					 0.00000000E+00	 0.00000000E+00	 7.00000000E-01
					 5.00000000E-02	 0.00000000E+00	 7.00000000E-01
					 0.00000000E+00	 3.00000000E-01	 7.00000000E-01
					 5.00000000E-02	 3.00000000E-01	 7.00000000E-01
					 0.00000000E+00	 0.00000000E+00	 7.50000000E-01
					 5.00000000E-02	 0.00000000E+00	 7.50000000E-01
					 0.00000000E+00	 3.00000000E-01	 7.50000000E-01
					 5.00000000E-02	 3.00000000E-01	 7.50000000E-01
					 0.00000000E+00	 0.00000000E+00	 8.00000000E-01
					 5.00000000E-02	 0.00000000E+00	 8.00000000E-01
					 0.00000000E+00	 3.00000000E-01	 8.00000000E-01
					 5.00000000E-02	 3.00000000E-01	 8.00000000E-01
					 0.00000000E+00	 0.00000000E+00	 8.50000000E-01
					 5.00000000E-02	 0.00000000E+00	 8.50000000E-01
					 0.00000000E+00	 3.00000000E-01	 8.50000000E-01
					 5.00000000E-02	 3.00000000E-01	 8.50000000E-01
					 0.00000000E+00	 0.00000000E+00	 9.00000000E-01
					 5.00000000E-02	 0.00000000E+00	 9.00000000E-01
					 0.00000000E+00	 3.00000000E-01	 9.00000000E-01
					 5.00000000E-02	 3.00000000E-01	 9.00000000E-01
					 0.00000000E+00	 0.00000000E+00	 9.50000000E-01
					 5.00000000E-02	 0.00000000E+00	 9.50000000E-01
					 0.00000000E+00	 3.00000000E-01	 9.50000000E-01
					 5.00000000E-02	 3.00000000E-01	 9.50000000E-01
					 0.00000000E+00	 0.00000000E+00	 1.00000000E+00
					 5.00000000E-02	 0.00000000E+00	 1.00000000E+00
					 0.00000000E+00	 3.00000000E-01	 1.00000000E+00
					 5.00000000E-02	 3.00000000E-01	 1.00000000E+00
					-5.00000000E-02	 0.00000000E+00	 0.00000000E+00
					-5.00000000E-02	 0.00000000E+00	 5.00000000E-02
					-5.00000000E-02	 3.00000000E-01	 0.00000000E+00
					-5.00000000E-02	 3.00000000E-01	 5.00000000E-02
					-5.00000000E-02	 0.00000000E+00	 1.00000000E-01
					-5.00000000E-02	 3.00000000E-01	 1.00000000E-01
					-5.00000000E-02	 0.00000000E+00	 1.50000000E-01
					-5.00000000E-02	 3.00000000E-01	 1.50000000E-01
					-5.00000000E-02	 0.00000000E+00	 2.00000000E-01
					-5.00000000E-02	 3.00000000E-01	 2.00000000E-01
					-5.00000000E-02	 0.00000000E+00	 2.50000000E-01
					-5.00000000E-02	 3.00000000E-01	 2.50000000E-01
					-5.00000000E-02	 0.00000000E+00	 3.00000000E-01
					-5.00000000E-02	 3.00000000E-01	 3.00000000E-01
					-5.00000000E-02	 0.00000000E+00	 3.50000000E-01
					-5.00000000E-02	 3.00000000E-01	 3.50000000E-01
					-5.00000000E-02	 0.00000000E+00	 4.00000000E-01
					-5.00000000E-02	 3.00000000E-01	 4.00000000E-01
					-5.00000000E-02	 0.00000000E+00	 4.50000000E-01
					-5.00000000E-02	 3.00000000E-01	 4.50000000E-01
					-5.00000000E-02	 0.00000000E+00	 5.00000000E-01
					-5.00000000E-02	 3.00000000E-01	 5.00000000E-01
					-5.00000000E-02	 0.00000000E+00	 5.50000000E-01
					-5.00000000E-02	 3.00000000E-01	 5.50000000E-01
					-5.00000000E-02	 0.00000000E+00	 6.00000000E-01
					-5.00000000E-02	 3.00000000E-01	 6.00000000E-01
					-5.00000000E-02	 0.00000000E+00	 6.50000000E-01
					-5.00000000E-02	 3.00000000E-01	 6.50000000E-01
					-5.00000000E-02	 0.00000000E+00	 7.00000000E-01
					-5.00000000E-02	 3.00000000E-01	 7.00000000E-01
					-5.00000000E-02	 0.00000000E+00	 7.50000000E-01
					-5.00000000E-02	 3.00000000E-01	 7.50000000E-01
					-5.00000000E-02	 0.00000000E+00	 8.00000000E-01
					-5.00000000E-02	 3.00000000E-01	 8.00000000E-01
					-5.00000000E-02	 0.00000000E+00	 8.50000000E-01
					-5.00000000E-02	 3.00000000E-01	 8.50000000E-01
					-5.00000000E-02	 0.00000000E+00	 9.00000000E-01
					-5.00000000E-02	 3.00000000E-01	 9.00000000E-01
					-5.00000000E-02	 0.00000000E+00	 9.50000000E-01
					-5.00000000E-02	 3.00000000E-01	 9.50000000E-01
					-5.00000000E-02	 0.00000000E+00	 1.00000000E+00
					-5.00000000E-02	 3.00000000E-01	 1.00000000E+00
				</DataArray>
			</Points>
			<Cells>
				<DataArray type="Int32" Name="connectivity" format="ascii">
					0 1 2 3 4 5 6 7 3 2 8 9 7 6 10 11 9 8 12 13 11 10 14 15 13 12 16 17 15 14 18 19 17 16 20 21 19 18 22 23 21 20 24 25 23 22 26 27 25 24 28 29 27 26 30 31 29 28 32 33 31 30 34 35 33 32 36 37 35 34 38 39 37 36 40 41 39 38 42 43 41 40 44 45 43 42 46 47 45 44 48 49 47 46 50 51 49 48 52 53 51 50 54 55 53 52 56 57 55 54 58 59 57 56 60 61 59 58 62 63 61 60 64 65 63 62 66 67 65 64 68 69 67 66 70 71 69 68 72 73 71 70 74 75 73 72 76 77 75 74 78 79 77 76 80 81 79 78 82 83 1 84 85 2 5 86 87 6 2 85 88 8 6 87 89 10 8 88 90 12 10 89 91 14 12 90 92 16 14 91 93 18 16 92 94 20 18 93 95 22 20 94 96 24 22 95 97 26 24 96 98 28 26 97 99 30 28 98 100 32 30 99 101 34 32 100 102 36 34 101 103 38 36 102 104 40 38 103 105 42 40 104 106 44 42 105 107 46 44 106 108 48 46 107 109 50 48 108 110 52 50 109 111 54 52 110 112 56 54 111 113 58 56 112 114 60 58 113 115 62 60 114 116 64 62 115 117 66 64 116 118 68 66 117 119 70 68 118 120 72 70 119 121 74 72 120 122 76 74 121 123 78 76 122 124 80 78 123 125 82 
				</DataArray>
				<DataArray type="Int32" Name="offsets" format="ascii">
					8 16 24 32 40 48 56 64 72 80 88 96 104 112 120 128 136 144 152 160 168 176 184 192 200 208 216 224 232 240 248 256 264 272 280 288 296 304 312 320 
				</DataArray>
				<DataArray type="UInt8" Name="types" format="ascii">
					12 12 12 12 12 12 12 12 12 12 12 12 12 12 12 12 12 12 12 12 12 12 12 12 12 12 12 12 12 12 12 12 12 12 12 12 12 12 12 12 
				</DataArray>
			</Cells>
			<PointData>
				<DataArray type="Float32" Name="U" NumberOfComponents="3" ComponentName0="D1" ComponentName1="D2" ComponentName2="D3" format="ascii">
					 0.00000000E+00	 0.00000000E+00	 0.00000000E+00
					 0.00000000E+00	 0.00000000E+00	 0.00000000E+00
					 5.77114000E-04	 0.00000000E+00	 1.62076000E-04
					 9.17162000E-04	 0.00000000E+00	-1.50736000E-04
					 0.00000000E+00	 0.00000000E+00	 0.00000000E+00
					 0.00000000E+00	 0.00000000E+00	 0.00000000E+00
					 5.77114000E-04	 0.00000000E+00	 1.62076000E-04
					 9.17162000E-04	 0.00000000E+00	-1.50736000E-04
					 1.33414000E-03	 0.00000000E+00	-3.29260000E-04
					 9.07120000E-04	 0.00000000E+00	-1.86077000E-04
					 1.33414000E-03	 0.00000000E+00	-3.29260000E-04
					 9.07120000E-04	 0.00000000E+00	-1.86077000E-04
					 1.96682000E-03	 0.00000000E+00	-3.93453000E-04
					 7.82993000E-04	 0.00000000E+00	 1.32329000E-04
					 1.96682000E-03	 0.00000000E+00	-3.93453000E-04
					 7.82993000E-04	 0.00000000E+00	 1.32329000E-04
					 2.45469000E-03	 0.00000000E+00	-2.00031000E-04
					 9.57396000E-04	 0.00000000E+00	 2.18309000E-06
					 2.45469000E-03	 0.00000000E+00	-2.00031000E-04
					 9.57396000E-04	 0.00000000E+00	 2.18309000E-06
					 2.78147000E-03	 0.00000000E+00	 6.89374000E-06
					 1.72732000E-03	 0.00000000E+00	-8.50875000E-05
					 2.78147000E-03	 0.00000000E+00	 6.89374000E-06
					 1.72732000E-03	 0.00000000E+00	-8.50875000E-05
					 2.94740000E-03	 0.00000000E+00	 2.47583000E-04
					 1.58987000E-03	 0.00000000E+00	-1.42399000E-04
					 2.94740000E-03	 0.00000000E+00	 2.47583000E-04
					 1.58987000E-03	 0.00000000E+00	-1.42399000E-04
					 2.97572000E-03	 0.00000000E+00	 4.44519000E-04
					 2.06209000E-03	 0.00000000E+00	 5.14946000E-04
					 2.97572000E-03	 0.00000000E+00	 4.44519000E-04
					 2.06209000E-03	 0.00000000E+00	 5.14946000E-04
					 2.89930000E-03	 0.00000000E+00	 3.08031000E-04
					 2.49504000E-03	 0.00000000E+00	 7.01579000E-04
					 2.89930000E-03	 0.00000000E+00	 3.08031000E-04
					 2.49504000E-03	 0.00000000E+00	 7.01579000E-04
					 2.77326000E-03	 0.00000000E+00	 4.64330000E-04
					 1.36819000E-03	 0.00000000E+00	 8.59939000E-04
					 2.77326000E-03	 0.00000000E+00	 4.64330000E-04
					 1.36819000E-03	 0.00000000E+00	 8.59939000E-04
					 2.63474000E-03	 0.00000000E+00	 6.66990000E-04
					 1.16657000E-03	 0.00000000E+00	 1.02242000E-03
					 2.63474000E-03	 0.00000000E+00	 6.66990000E-04
					 1.16657000E-03	 0.00000000E+00	 1.02242000E-03
					 2.46506000E-03	 0.00000000E+00	 7.37386000E-04
					 1.40800000E-03	 0.00000000E+00	 2.89142000E-04
					 2.46506000E-03	 0.00000000E+00	 7.37386000E-04
					 1.40800000E-03	 0.00000000E+00	 2.89142000E-04
					 2.31441000E-03	 0.00000000E+00	 4.16279000E-04
					 1.58422000E-03	 0.00000000E+00	 3.44289000E-04
					 2.31441000E-03	 0.00000000E+00	 4.16279000E-04
					 1.58422000E-03	 0.00000000E+00	 3.44289000E-04
					 2.17190000E-03	 0.00000000E+00	 9.46524000E-04
					 1.12424000E-03	 0.00000000E+00	 9.97294000E-04
					 2.17190000E-03	 0.00000000E+00	 9.46524000E-04
					 1.12424000E-03	 0.00000000E+00	 9.97294000E-04
					 2.04387000E-03	 0.00000000E+00	 7.86175000E-04
					 1.21196000E-03	 0.00000000E+00	 8.41952000E-04
					 2.04387000E-03	 0.00000000E+00	 7.86175000E-04
					 1.21196000E-03	 0.00000000E+00	 8.41952000E-04
					 1.87409000E-03	 0.00000000E+00	 6.71751000E-04
					 7.69982000E-04	 0.00000000E+00	 8.87708000E-04
					 1.87409000E-03	 0.00000000E+00	 6.71751000E-04
					 7.69982000E-04	 0.00000000E+00	 8.87708000E-04
					 1.69259000E-03	 0.00000000E+00	 6.32504000E-04
					 3.14114000E-04	 0.00000000E+00	 6.71446000E-04
					 1.69259000E-03	 0.00000000E+00	 6.32504000E-04
					 3.14114000E-04	 0.00000000E+00	 6.71446000E-04
					 1.48583000E-03	 0.00000000E+00	 1.04820000E-03
					 6.01914000E-04	 0.00000000E+00	 6.24419000E-04
					 1.48583000E-03	 0.00000000E+00	 1.04820000E-03
					 6.01914000E-04	 0.00000000E+00	 6.24419000E-04
					 1.27013000E-03	 0.00000000E+00	 7.70786000E-04
					 9.57640000E-04	 0.00000000E+00	 7.21056000E-04
					 1.27013000E-03	 0.00000000E+00	 7.70786000E-04
					 9.57640000E-04	 0.00000000E+00	 7.21056000E-04
					 1.03585000E-03	 0.00000000E+00	 1.09600000E-03
					 4.02273000E-04	 0.00000000E+00	 6.96103000E-04
					 1.03585000E-03	 0.00000000E+00	 1.09600000E-03
					 4.02273000E-04	 0.00000000E+00	 6.96103000E-04
					 8.15393000E-04	 0.00000000E+00	 1.17383000E-03
					 9.84950000E-04	 0.00000000E+00	 3.47369000E-04
					 8.15393000E-04	 0.00000000E+00	 1.17383000E-03
					 9.84950000E-04	 0.00000000E+00	 3.47369000E-04
					 0.00000000E+00	 0.00000000E+00	 0.00000000E+00
					 5.15220000E-04	 0.00000000E+00	 6.28793000E-04
					 0.00000000E+00	 0.00000000E+00	 0.00000000E+00
					 5.15220000E-04	 0.00000000E+00	 6.28793000E-04
					 1.88562000E-03	 0.00000000E+00	 8.57357000E-04
					 1.88562000E-03	 0.00000000E+00	 8.57357000E-04
					 3.24019000E-03	 0.00000000E+00	 1.11136000E-03
					 3.24019000E-03	 0.00000000E+00	 1.11136000E-03
					 4.00525000E-03	 0.00000000E+00	 7.30625000E-04
					 4.00525000E-03	 0.00000000E+00	 7.30625000E-04
					 3.87093000E-03	 0.00000000E+00	 3.71377000E-04
					 3.87093000E-03	 0.00000000E+00	 3.71377000E-04
					 4.37542000E-03	 0.00000000E+00	 7.19252000E-05
					 4.37542000E-03	 0.00000000E+00	 7.19252000E-05
					 3.93597000E-03	 0.00000000E+00	 5.39829000E-04
					 3.93597000E-03	 0.00000000E+00	 5.39829000E-04
					 3.37372000E-03	 0.00000000E+00	 5.67090000E-04
					 3.37372000E-03	 0.00000000E+00	 5.67090000E-04
					 4.25978000E-03	 0.00000000E+00	 6.36337000E-04
					 4.25978000E-03	 0.00000000E+00	 6.36337000E-04
					 4.20229000E-03	 0.00000000E+00	 7.48430000E-04
					 4.20229000E-03	 0.00000000E+00	 7.48430000E-04
					 3.61922000E-03	 0.00000000E+00	 4.75053000E-06
					 3.61922000E-03	 0.00000000E+00	 4.75053000E-06
					 3.14985000E-03	 0.00000000E+00	 7.01378000E-05
					 3.14985000E-03	 0.00000000E+00	 7.01378000E-05
					 3.29855000E-03	 0.00000000E+00	 7.05422000E-04
					 3.29855000E-03	 0.00000000E+00	 7.05422000E-04
					 2.96352000E-03	 0.00000000E+00	 5.49228000E-04
					 2.96352000E-03	 0.00000000E+00	 5.49228000E-04
					 3.06077000E-03	 0.00000000E+00	 5.60649000E-04
					 3.06077000E-03	 0.00000000E+00	 5.60649000E-04
					 3.17158000E-03	 0.00000000E+00	 3.13261000E-04
					 3.17158000E-03	 0.00000000E+00	 3.13261000E-04
					 2.46435000E-03	 0.00000000E+00	 2.28273000E-04
					 2.46435000E-03	 0.00000000E+00	 2.28273000E-04
					 1.65740000E-03	 0.00000000E+00	 3.00295000E-04
					 1.65740000E-03	 0.00000000E+00	 3.00295000E-04
					 1.72021000E-03	 0.00000000E+00	 2.78399000E-04
					 1.72021000E-03	 0.00000000E+00	 2.78399000E-04
					 6.85936000E-04	 0.00000000E+00	-6.01024000E-05
					 6.85936000E-04	 0.00000000E+00	-6.01024000E-05
				</DataArray>
			</PointData>
		</Piece>
	</UnstructuredGrid>
</VTKFile>