<?xml version="1.0"?>
<VTKFile type="UnstructuredGrid" version="0.1" byte_order="LittleEndian">
	<UnstructuredGrid>
		<Piece NumberOfPoints="126" NumberOfCells="40">
			<Points>
				<DataArray type="Float64" NumberOfComponents="3" format="ascii">
					 5.00000000E-02	 0.00000000E+00	 0.00000000E+00
					 0.00000000E+00	 0.00000000E+00	 0.00000000E+00
					 0.00000000E+00	 0.00000000E+00	 5.00000000E-02
					 5.00000000E-02	 0.00000000E+00	 5.00000000E-02
					 5.00000000E-02	 3.00000000E-01	 0.00000000E+00
					 0.00000000E+00	 3.00000000E-01	 0.00000000E+00
					 0.00000000E+00	 3.00000000E-01	 5.00000000E-02
					 5.00000000E-02	 3.00000000E-01	 5.00000000E-02
					 0.00000000E+00	 0.00000000E+00	 1.00000000E-01
					 5.00000000E-02	 0.00000000E+00	 1.00000000E-01
					 0.00000000E+00	 3.00000000E-01	 1.00000000E-01
					 5.00000000E-02	 3.00000000E-01	 1.00000000E-01
					 0.00000000E+00	 0.00000000E+00	 1.50000000E-01
					 5.00000000E-02	 0.00000000E+00	 1.50000000E-01
					 0.00000000E+00	 3.00000000E-01	 1.50000000E-01
					 5.00000000E-02	 3.00000000E-01	 1.50000000E-01
					 0.00000000E+00	 0.00000000E+00	 2.00000000E-01
					 5.00000000E-02	 0.00000000E+00	 2.00000000E-01
					 0.00000000E+00	 3.00000000E-01	 2.00000000E-01
					 5.00000000E-02	 3.00000000E-01	 2.00000000E-01
					 0.00000000E+00	 0.00000000E+00	 2.50000000E-01
					 5.00000000E-02	 0.00000000E+00	 2.50000000E-01
					 0.00000000E+00	 3.00000000E-01	 2.50000000E-01
					 5.00000000E-02	 3.00000000E-01	 2.50000000E-01
					 0.00000000E+00	 0.00000000E+00	 3.00000000E-01
					 5.00000000E-02	 0.00000000E+00	 3.00000000E-01
					 0.00000000E+00	 3.00000000E-01	 3.00000000E-01
					 5.00000000E-02	 3.00000000E-01	 3.00000000E-01
					 0.00000000E+00	 0.00000000E+00	 3.50000000E-01
					 5.00000000E-02	 0.00000000E+00	 3.50000000E-01
					 0.00000000E+00	 3.00000000E-01	 3.50000000E-01
					 5.00000000E-02	 3.00000000E-01	 3.50000000E-01
					 0.00000000E+00	 0.00000000E+00	 4.00000000E-01
					 5.00000000E-02	 0.00000000E+00	 4.00000000E-01
					 0.00000000E+00	 3.00000000E-01	 4.00000000E-01
					 5.00000000E-02	 3.00000000E-01	 4.00000000E-01
					 0.00000000E+00	 0.00000000E+00	 4.50000000E-01
					 5.00000000E-02	 0.00000000E+00	 4.50000000E-01
					 0.00000000E+00	 3.00000000E-01	 4.50000000E-01
					 5.00000000E-02	 3.00000000E-01	 4.50000000E-01
					 0.00000000E+00	 0.00000000E+00	 5.00000000E-01
					 5.00000000E-02	 0.00000000E+00	 5.00000000E-01
					 0.00000000E+00	 3.00000000E-01	 5.00000000E-01
					 5.00000000E-02	 3.00000000E-01	 5.00000000E-01
					 0.00000000E+00	 0.00000000E+00	 5.50000000E-01
					 5.00000000E-02	 0.00000000E+00	 5.50000000E-01
					 0.00000000E+00	 3.00000000E-01	 5.50000000E-01
					 5.00000000E-02	 3.00000000E-01	 5.50000000E-01
					 0.00000000E+00	 0.00000000E+00	 6.00000000E-01
					 5.00000000E-02	 0.00000000E+00	 6.00000000E-01
					 0.00000000E+00	 3.00000000E-01	 6.00000000E-01
					 5.00000000E-02	 3.00000000E-01	 6.00000000E-01
					 0.00000000E+00	 0.00000000E+00	 6.50000000E-01
					 5.00000000E-02	 0.00000000E+00	 6.50000000E-01
					 0.00000000E+00	 3.00000000E-01	 6.50000000E-01
					 5.00000000E-02	 3.00000000E-01	 6.50000000E-01
					 0.00000000E+00	 0.00000000E+00	 7.00000000E-01
					 5.00000000E-02	 0.00000000E+00	 7.00000000E-01
					 0.00000000E+00	 3.00000000E-01	 7.00000000E-01
					 5.00000000E-02	 3.00000000E-01	 7.00000000E-01
					 0.00000000E+00	 0.00000000E+00	 7.50000000E-01
					 5.00000000E-02	 0.00000000E+00	 7.50000000E-01
					 0.00000000E+00	 3.00000000E-01	 7.50000000E-01
					 5.00000000E-02	 3.00000000E-01	 7.50000000E-01
					 0.00000000E+00	 0.00000000E+00	 8.00000000E-01
					 5.00000000E-02	 0.00000000E+00	 8.00000000E-01
					 0.00000000E+00	 3.00000000E-01	 8.00000000E-01
					 5.00000000E-02	 3.00000000E-01	 8.00000000E-01
					 0.00000000E+00	 0.00000000E+00	 8.50000000E-01
					 5.00000000E-02	 0.00000000E+00	 8.50000000E-01
					 0.00000000E+00	 3.00000000E-01	 8.50000000E-01
					 5.00000000E-02	 3.00000000E-01	 8.50000000E-01
					 0.00000000E+00	 0.00000000E+00	 9.00000000E-01
					 5.00000000E-02	 0.00000000E+00	 9.00000000E-01
					 0.00000000E+00	 3.00000000E-01	 9.00000000E-01
					 5.00000000E-02	 3.00000000E-01	 9.00000000E-01
					 0.00000000E+00	 0.00000000E+00	 9.50000000E-01
					 5.00000000E-02	 0.00000000E+00	 9.50000000E-01
					 0.00000000E+00	 3.00000000E-01	 9.50000000E-01
					 5.00000000E-02	 3.00000000E-01	 9.50000000E-01
					 0.00000000E+00	 0.00000000E+00	 1.00000000E+00
					 5.00000000E-02	 0.00000000E+00	 1.00000000E+00
					 0.00000000E+00	 3.00000000E-01	 1.00000000E+00
					 5.00000000E-02	 3.00000000E-01	 1.00000000E+00
					-5.00000000E-02	 0.00000000E+00	 0.00000000E+00
					-5.00000000E-02	 0.00000000E+00	 5.00000000E-02
					-5.00000000E-02	 3.00000000E-01	 0.00000000E+00
					-5.00000000E-02	 3.00000000E-01	 5.00000000E-02
					-5.00000000E-02	 0.00000000E+00	 1.00000000E-01
					-5.00000000E-02	 3.00000000E-01	 1.00000000E-01
					-5.00000000E-02	 0.00000000E+00	 1.50000000E-01
					-5.00000000E-02	 3.00000000E-01	 1.50000000E-01
					-5.00000000E-02	 0.00000000E+00	 2.00000000E-01
					-5.00000000E-02	 3.00000000E-01	 2.00000000E-01
					-5.00000000E-02	 0.00000000E+00	 2.50000000E-01
					-5.00000000E-02	 3.00000000E-01	 2.50000000E-01
					-5.00000000E-02	 0.00000000E+00	 3.00000000E-01
					-5.00000000E-02	 3.00000000E-01	 3.00000000E-01
					-5.00000000E-02	 0.00000000E+00	 3.50000000E-01
					-5.00000000E-02	 3.00000000E-01	 3.50000000E-01
					-5.00000000E-02	 0.00000000E+00	 4.00000000E-01
					-5.00000000E-02	 3.00000000E-01	 4.00000000E-01
					-5.00000000E-02	 0.00000000E+00	 4.50000000E-01
					-5.00000000E-02	 3.00000000E-01	 4.50000000E-01
					-5.00000000E-02	 0.00000000E+00	 5.00000000E-01
					-5.00000000E-02	 3.00000000E-01	 5.00000000E-01
					-5.00000000E-02	 0.00000000E+00	 5.50000000E-01
					-5.00000000E-02	 3.00000000E-01	 5.50000000E-01
					-5.00000000E-02	 0.00000000E+00	 6.00000000E-01
					-5.00000000E-02	 3.00000000E-01	 6.00000000E-01
					-5.00000000E-02	 0.00000000E+00	 6.50000000E-01
					-5.00000000E-02	 3.00000000E-01	 6.50000000E-01
					-5.00000000E-02	 0.00000000E+00	 7.00000000E-01
					-5.00000000E-02	 3.00000000E-01	 7.00000000E-01
					-5.00000000E-02	 0.00000000E+00	 7.50000000E-01
					-5.00000000E-02	 3.00000000E-01	 7.50000000E-01
					-5.00000000E-02	 0.00000000E+00	 8.00000000E-01
					-5.00000000E-02	 3.00000000E-01	 8.00000000E-01
					-5.00000000E-02	 0.00000000E+00	 8.50000000E-01
					-5.00000000E-02	 3.00000000E-01	 8.50000000E-01
					-5.00000000E-02	 0.00000000E+00	 9.00000000E-01
					-5.00000000E-02	 3.00000000E-01	 9.00000000E-01
					-5.00000000E-02	 0.00000000E+00	 9.50000000E-01
					-5.00000000E-02	 3.00000000E-01	 9.50000000E-01
					-5.00000000E-02	 0.00000000E+00	 1.00000000E+00
					-5.00000000E-02	 3.00000000E-01	 1.00000000E+00
				</DataArray>
			</Points>
			<Cells>
				<DataArray type="Int32" Name="connectivity" format="ascii">
					0 1 2 3 4 5 6 7 3 2 8 9 7 6 10 11 9 8 12 13 11 10 14 15 13 12 16 17 15 14 18 19 17 16 20 21 19 18 22 23 21 20 24 25 23 22 26 27 25 24 28 29 27 26 30 31 29 28 32 33 31 30 34 35 33 32 36 37 35 34 38 39 37 36 40 41 39 38 42 43 41 40 44 45 43 42 46 47 45 44 48 49 47 46 50 51 49 48 52 53 51 50 54 55 53 52 56 57 55 54 58 59 57 56 60 61 59 58 62 63 61 60 64 65 63 62 66 67 65 64 68 69 67 66 70 71 69 68 72 73 71 70 74 75 73 72 76 77 75 74 78 79 77 76 80 81 79 78 82 83 1 84 85 2 5 86 87 6 2 85 88 8 6 87 89 10 8 88 90 12 10 89 91 14 12 90 92 16 14 91 93 18 16 92 94 20 18 93 95 22 20 94 96 24 22 95 97 26 24 96 98 28 26 97 99 30 28 98 100 32 30 99 101 34 32 100 102 36 34 101 103 38 36 102 104 40 38 103 105 42 40 104 106 44 42 105 107 46 44 106 108 48 46 107 109 50 48 108 110 52 50 109 111 54 52 110 112 56 54 111 113 58 56 112 114 60 58 113 115 62 60 114 116 64 62 115 117 66 64 116 118 68 66 117 119 70 68 118 120 72 70 119 121 74 72 120 122 76 74 121 123 78 76 122 124 80 78 123 125 82 
				</DataArray>
				<DataArray type="Int32" Name="offsets" format="ascii">
					8 16 24 32 40 48 56 64 72 80 88 96 104 112 120 128 136 144 152 160 168 176 184 192 200 208 216 224 232 240 248 256 264 272 280 288 296 304 312 320 
				</DataArray>
				<DataArray type="UInt8" Name="types" format="ascii">
					12 12 12 12 12 12 12 12 12 12 12 12 12 12 12 12 12 12 12 12 12 12 12 12 12 12 12 12 12 12 12 12 12 12 12 12 12 12 12 12 
				</DataArray>
			</Cells>
			<PointData>
				<DataArray type="Float32" Name="U" NumberOfComponents="3" ComponentName0="D1" ComponentName1="D2" ComponentName2="D3" format="ascii">
					 0.00000000E+00	 0.00000000E+00	 0.00000000E+00
					 0.00000000E+00	 0.00000000E+00	 0.00000000E+00
					-5.02748000E-06	 0.00000000E+00	 2.39644000E-04
					-5.36155000E-04	 0.00000000E+00	 8.55486000E-05
					 0.00000000E+00	 0.00000000E+00	 0.00000000E+00
					 0.00000000E+00	 0.00000000E+00	 0.00000000E+00
					-5.02748000E-06	 0.00000000E+00	 2.39644000E-04
					-5.36155000E-04	 0.00000000E+00	 8.55486000E-05
					-9.22386000E-06	 0.00000000E+00	 1.34324000E-04
					-1.16050000E-04	 0.00000000E+00	-3.96089000E-05
					-9.22386000E-06	 0.00000000E+00	 1.34324000E-04
					-1.16050000E-04	 0.00000000E+00	-3.96089000E-05
					-7.48632000E-06	 0.00000000E+00	-1.55694000E-04
					-1.86986000E-04	 0.00000000E+00	-2.06100000E-05
					-7.48632000E-06	 0.00000000E+00	-1.55694000E-04
					-1.86986000E-04	 0.00000000E+00	-2.06100000E-05
					-7.17715000E-06	 0.00000000E+00	 3.17985000E-05
					-2.52908000E-04	 0.00000000E+00	 2.30507000E-06
					-7.17715000E-06	 0.00000000E+00	 3.17985000E-05
					-2.52908000E-04	 0.00000000E+00	 2.30507000E-06
					-8.60249000E-06	 0.00000000E+00	 4.90091000E-05
					-1.22822000E-04	 0.00000000E+00	 2.31998000E-05
					-8.60249000E-06	 0.00000000E+00	 4.90091000E-05
					-1.22822000E-04	 0.00000000E+00	 2.31998000E-05
					-7.46167000E-06	 0.00000000E+00	-2.11046000E-06
					-3.33734000E-04	 0.00000000E+00	 8.61141000E-07
					-7.46167000E-06	 0.00000000E+00	-2.11046000E-06
					-3.33734000E-04	 0.00000000E+00	 8.61141000E-07
					-9.15424000E-06	 0.00000000E+00	-5.12990000E-05
					-1.28974000E-04	 0.00000000E+00	-2.57551000E-05
					-9.15424000E-06	 0.00000000E+00	-5.12990000E-05
					-1.28974000E-04	 0.00000000E+00	-2.57551000E-05
					-7.62233000E-06	 0.00000000E+00	-6.87701000E-07
					-2.55174000E-04	 0.00000000E+00	 7.47356000E-08
					-7.62233000E-06	 0.00000000E+00	-6.87701000E-07
					-2.55174000E-04	 0.00000000E+00	 7.47355000E-08
					-9.72268000E-06	 0.00000000E+00	 5.35208000E-05
					-1.31448000E-04	 0.00000000E+00	 2.55270000E-05
					-9.72267000E-06	 0.00000000E+00	 5.35208000E-05
					-1.31448000E-04	 0.00000000E+00	 2.55270000E-05
					-8.55716000E-06	 0.00000000E+00	 2.06769000E-07
					-3.30229000E-04	 0.00000000E+00	 1.87449000E-07
					-8.55716000E-06	 0.00000000E+00	 2.06769000E-07
					-3.30229000E-04	 0.00000000E+00	 1.87449000E-07
					-1.05591000E-05	 0.00000000E+00	-5.23541000E-05
					-1.32926000E-04	 0.00000000E+00	-2.50849000E-05
					-1.05591000E-05	 0.00000000E+00	-5.23541000E-05
					-1.32926000E-04	 0.00000000E+00	-2.50849000E-05
					-8.96297000E-06	 0.00000000E+00	-4.81814000E-07
					-2.55792000E-04	 0.00000000E+00	-5.61822000E-07
					-8.96297000E-06	 0.00000000E+00	-4.81814000E-07
					-2.55792000E-04	 0.00000000E+00	-5.61822000E-07
					-1.15363000E-05	 0.00000000E+00	 5.65723000E-05
					-1.35366000E-04	 0.00000000E+00	 2.81870000E-05
					-1.15363000E-05	 0.00000000E+00	 5.65723000E-05
					-1.35366000E-04	 0.00000000E+00	 2.81870000E-05
					-1.03795000E-05	 0.00000000E+00	-5.75029000E-06
					-3.29994000E-04	 0.00000000E+00	-4.81495000E-06
					-1.03795000E-05	 0.00000000E+00	-5.75029000E-06
					-3.29994000E-04	 0.00000000E+00	-4.81495000E-06
					-1.30078000E-05	 0.00000000E+00	-4.54276000E-05
					-1.38296000E-04	 0.00000000E+00	-1.99524000E-05
					-1.30078000E-05	 0.00000000E+00	-4.54276000E-05
					-1.38296000E-04	 0.00000000E+00	-1.99524000E-05
					-1.16076000E-05	 0.00000000E+00	 2.50083000E-05
					-2.79235000E-04	 0.00000000E+00	 2.54326000E-05
					-1.16076000E-05	 0.00000000E+00	 2.50083000E-05
					-2.79235000E-04	 0.00000000E+00	 2.54326000E-05
					-1.28223000E-05	 0.00000000E+00	-1.18613000E-04
					-3.23021000E-05	 0.00000000E+00	-1.31588000E-04
					-1.28223000E-05	 0.00000000E+00	-1.18613000E-04
					-3.23021000E-05	 0.00000000E+00	-1.31588000E-04
					-2.00436000E-05	 0.00000000E+00	 4.52292000E-04
					-5.72690000E-04	 0.00000000E+00	 3.36510000E-04
					-2.00436000E-05	 0.00000000E+00	 4.52292000E-04
					-5.72690000E-04	 0.00000000E+00	 3.36510000E-04
					-1.37297000E-05	 0.00000000E+00	 1.26144000E-04
					-4.86780000E-04	 0.00000000E+00	 6.13514000E-04
					-1.37297000E-05	 0.00000000E+00	 1.26144000E-04
					-4.86780000E-04	 0.00000000E+00	 6.13514000E-04
					-1.34951000E-05	 0.00000000E+00	-9.31122000E-05
					-4.51239000E-05	 0.00000000E+00	 1.89275000E-04
					-1.34951000E-05	 0.00000000E+00	-9.31122000E-05
					-4.51239000E-05	 0.00000000E+00	 1.89275000E-04
					 0.00000000E+00	 0.00000000E+00	 0.00000000E+00
					 5.07334000E-04	 0.00000000E+00	 7.81932000E-05
					 0.00000000E+00	 0.00000000E+00	 0.00000000E+00
					 5.07334000E-04	 0.00000000E+00	 7.81932000E-05
					 8.62849000E-05	 0.00000000E+00	-3.73077000E-05
					 8.62849000E-05	 0.00000000E+00	-3.73077000E-05
					 1.60201000E-04	 0.00000000E+00	-1.95225000E-05
					 1.60201000E-04	 0.00000000E+00	-1.95225000E-05
					 2.26490000E-04	 0.00000000E+00	 1.65352000E-06
					 2.26490000E-04	 0.00000000E+00	 1.65352000E-06
					 9.52833000E-05	 0.00000000E+00	 2.23817000E-05
					 9.52833000E-05	 0.00000000E+00	 2.23817000E-05
					 3.02906000E-04	 0.00000000E+00	 5.08277000E-07
					 3.02906000E-04	 0.00000000E+00	 5.08277000E-07
					 1.00153000E-04	 0.00000000E+00	-2.48034000E-05
					 1.00153000E-04	 0.00000000E+00	-2.48034000E-05
					 2.26426000E-04	 0.00000000E+00	-4.09796000E-08
					 2.26426000E-04	 0.00000000E+00	-4.09797000E-08
					 1.01321000E-04	 0.00000000E+00	 2.41634000E-05
					 1.01321000E-04	 0.00000000E+00	 2.41634000E-05
					 2.95921000E-04	 0.00000000E+00	-1.58659000E-07
					 2.95921000E-04	 0.00000000E+00	-1.58660000E-07
					 1.00501000E-04	 0.00000000E+00	-2.41838000E-05
					 1.00501000E-04	 0.00000000E+00	-2.41838000E-05
					 2.23062000E-04	 0.00000000E+00	-7.33764000E-07
					 2.23062000E-04	 0.00000000E+00	-7.33765000E-07
					 1.00796000E-04	 0.00000000E+00	 2.65310000E-05
					 1.00796000E-04	 0.00000000E+00	 2.65310000E-05
					 2.89841000E-04	 0.00000000E+00	-5.33193000E-06
					 2.89841000E-04	 0.00000000E+00	-5.33193000E-06
					 9.99885000E-05	 0.00000000E+00	-1.95203000E-05
					 9.99885000E-05	 0.00000000E+00	-1.95203000E-05
					 2.39115000E-04	 0.00000000E+00	 2.63970000E-05
					 2.39115000E-04	 0.00000000E+00	 2.63970000E-05
					-9.38908000E-06	 0.00000000E+00	-1.37507000E-04
					-9.38908000E-06	 0.00000000E+00	-1.37507000E-04
					 5.20581000E-04	 0.00000000E+00	 3.39560000E-04
					 5.20581000E-04	 0.00000000E+00	 3.39560000E-04
					 4.24248000E-04	 0.00000000E+00	 6.22913000E-04
					 4.24248000E-04	 0.00000000E+00	 6.22913000E-04
					 1.20564000E-05	 0.00000000E+00	 2.15011000E-04
					 1.20564000E-05	 0.00000000E+00	 2.15011000E-04
				</DataArray>
			</PointData>
		</Piece>
	</UnstructuredGrid>
</VTKFile>