<?xml version="1.0"?>
<VTKFile type="UnstructuredGrid" version="0.1" byte_order="LittleEndian">
	<UnstructuredGrid>
		<Piece NumberOfPoints="126" NumberOfCells="40">
			<Points>
				<DataArray type="Float64" NumberOfComponents="3" format="ascii">
					 5.00000000E-02	 0.00000000E+00	 0.00000000E+00
					 0.00000000E+00	 0.00000000E+00	 0.00000000E+00
					 0.00000000E+00	 0.00000000E+00	 5.00000000E-02
					 5.00000000E-02	 0.00000000E+00	 5.00000000E-02
					 5.00000000E-02	 3.00000000E-01	 0.00000000E+00
					 0.00000000E+00	 3.00000000E-01	 0.00000000E+00
					 0.00000000E+00	 3.00000000E-01	 5.00000000E-02
					 5.00000000E-02	 3.00000000E-01	 5.00000000E-02
					 0.00000000E+00	 0.00000000E+00	 1.00000000E-01
					 5.00000000E-02	 0.00000000E+00	 1.00000000E-01
					 0.00000000E+00	 3.00000000E-01	 1.00000000E-01
					 5.00000000E-02	 3.00000000E-01	 1.00000000E-01
					 0.00000000E+00	 0.00000000E+00	 1.50000000E-01
					 5.00000000E-02	 0.00000000E+00	 1.50000000E-01
					 0.00000000E+00	 3.00000000E-01	 1.50000000E-01
					 5.00000000E-02	 3.00000000E-01	 1.50000000E-01
					 0.00000000E+00	 0.00000000E+00	 2.00000000E-01
					 5.00000000E-02	 0.00000000E+00	 2.00000000E-01
					 0.00000000E+00	 3.00000000E-01	 2.00000000E-01
					 5.00000000E-02	 3.00000000E-01	 2.00000000E-01
					 0.00000000E+00	 0.00000000E+00	 2.50000000E-01
					 5.00000000E-02	 0.00000000E+00	 2.50000000E-01
					 0.00000000E+00	 3.00000000E-01	 2.50000000E-01
					 5.00000000E-02	 3.00000000E-01	 2.50000000E-01
					 0.00000000E+00	 0.00000000E+00	 3.00000000E-01
					 5.00000000E-02	 0.00000000E+00	 3.00000000E-01
					 0.00000000E+00	 3.00000000E-01	 3.00000000E-01
					 5.00000000E-02	 3.00000000E-01	 3.00000000E-01
					 0.00000000E+00	 0.00000000E+00	 3.50000000E-01
					 5.00000000E-02	 0.00000000E+00	 3.50000000E-01
					 0.00000000E+00	 3.00000000E-01	 3.50000000E-01
					 5.00000000E-02	 3.00000000E-01	 3.50000000E-01
					 0.00000000E+00	 0.00000000E+00	 4.00000000E-01
					 5.00000000E-02	 0.00000000E+00	 4.00000000E-01
					 0.00000000E+00	 3.00000000E-01	 4.00000000E-01
					 5.00000000E-02	 3.00000000E-01	 4.00000000E-01
					 0.00000000E+00	 0.00000000E+00	 4.50000000E-01
					 5.00000000E-02	 0.00000000E+00	 4.50000000E-01
					 0.00000000E+00	 3.00000000E-01	 4.50000000E-01
					 5.00000000E-02	 3.00000000E-01	 4.50000000E-01
					 0.00000000E+00	 0.00000000E+00	 5.00000000E-01
					 5.00000000E-02	 0.00000000E+00	 5.00000000E-01
					 0.00000000E+00	 3.00000000E-01	 5.00000000E-01
					 5.00000000E-02	 3.00000000E-01	 5.00000000E-01
					 0.00000000E+00	 0.00000000E+00	 5.50000000E-01
					 5.00000000E-02	 0.00000000E+00	 5.50000000E-01
					 0.00000000E+00	 3.00000000E-01	 5.50000000E-01
					 5.00000000E-02	 3.00000000E-01	 5.50000000E-01
					 0.00000000E+00	 0.00000000E+00	 6.00000000E-01
					 5.00000000E-02	 0.00000000E+00	 6.00000000E-01
					 0.00000000E+00	 3.00000000E-01	 6.00000000E-01
					 5.00000000E-02	 3.00000000E-01	 6.00000000E-01
					 0.00000000E+00	 0.00000000E+00	 6.50000000E-01
					 5.00000000E-02	 0.00000000E+00	 6.50000000E-01
					 0.00000000E+00	 3.00000000E-01	 6.50000000E-01
					 5.00000000E-02	 3.00000000E-01	 6.50000000E-01
					 0.00000000E+00	 0.00000000E+00	 7.00000000E-01
					 5.00000000E-02	 0.00000000E+00	 7.00000000E-01
					 0.00000000E+00	 3.00000000E-01	 7.00000000E-01
					 5.00000000E-02	 3.00000000E-01	 7.00000000E-01
					 0.00000000E+00	 0.00000000E+00	 7.50000000E-01
					 5.00000000E-02	 0.00000000E+00	 7.50000000E-01
					 0.00000000E+00	 3.00000000E-01	 7.50000000E-01
					 5.00000000E-02	 3.00000000E-01	 7.50000000E-01
					 0.00000000E+00	 0.00000000E+00	 8.00000000E-01
					 5.00000000E-02	 0.00000000E+00	 8.00000000E-01
					 0.00000000E+00	 3.00000000E-01	 8.00000000E-01
					 5.00000000E-02	 3.00000000E-01	 8.00000000E-01
					 0.00000000E+00	 0.00000000E+00	 8.50000000E-01
					 5.00000000E-02	 0.00000000E+00	 8.50000000E-01
					 0.00000000E+00	 3.00000000E-01	 8.50000000E-01
					 5.00000000E-02	 3.00000000E-01	 8.50000000E-01
					 0.00000000E+00	 0.00000000E+00	 9.00000000E-01
					 5.00000000E-02	 0.00000000E+00	 9.00000000E-01
					 0.00000000E+00	 3.00000000E-01	 9.00000000E-01
					 5.00000000E-02	 3.00000000E-01	 9.00000000E-01
					 0.00000000E+00	 0.00000000E+00	 9.50000000E-01
					 5.00000000E-02	 0.00000000E+00	 9.50000000E-01
					 0.00000000E+00	 3.00000000E-01	 9.50000000E-01
					 5.00000000E-02	 3.00000000E-01	 9.50000000E-01
					 0.00000000E+00	 0.00000000E+00	 1.00000000E+00
					 5.00000000E-02	 0.00000000E+00	 1.00000000E+00
					 0.00000000E+00	 3.00000000E-01	 1.00000000E+00
					 5.00000000E-02	 3.00000000E-01	 1.00000000E+00
					-5.00000000E-02	 0.00000000E+00	 0.00000000E+00
					-5.00000000E-02	 0.00000000E+00	 5.00000000E-02
					-5.00000000E-02	 3.00000000E-01	 0.00000000E+00
					-5.00000000E-02	 3.00000000E-01	 5.00000000E-02
					-5.00000000E-02	 0.00000000E+00	 1.00000000E-01
					-5.00000000E-02	 3.00000000E-01	 1.00000000E-01
					-5.00000000E-02	 0.00000000E+00	 1.50000000E-01
					-5.00000000E-02	 3.00000000E-01	 1.50000000E-01
					-5.00000000E-02	 0.00000000E+00	 2.00000000E-01
					-5.00000000E-02	 3.00000000E-01	 2.00000000E-01
					-5.00000000E-02	 0.00000000E+00	 2.50000000E-01
					-5.00000000E-02	 3.00000000E-01	 2.50000000E-01
					-5.00000000E-02	 0.00000000E+00	 3.00000000E-01
					-5.00000000E-02	 3.00000000E-01	 3.00000000E-01
					-5.00000000E-02	 0.00000000E+00	 3.50000000E-01
					-5.00000000E-02	 3.00000000E-01	 3.50000000E-01
					-5.00000000E-02	 0.00000000E+00	 4.00000000E-01
					-5.00000000E-02	 3.00000000E-01	 4.00000000E-01
					-5.00000000E-02	 0.00000000E+00	 4.50000000E-01
					-5.00000000E-02	 3.00000000E-01	 4.50000000E-01
					-5.00000000E-02	 0.00000000E+00	 5.00000000E-01
					-5.00000000E-02	 3.00000000E-01	 5.00000000E-01
					-5.00000000E-02	 0.00000000E+00	 5.50000000E-01
					-5.00000000E-02	 3.00000000E-01	 5.50000000E-01
					-5.00000000E-02	 0.00000000E+00	 6.00000000E-01
					-5.00000000E-02	 3.00000000E-01	 6.00000000E-01
					-5.00000000E-02	 0.00000000E+00	 6.50000000E-01
					-5.00000000E-02	 3.00000000E-01	 6.50000000E-01
					-5.00000000E-02	 0.00000000E+00	 7.00000000E-01
					-5.00000000E-02	 3.00000000E-01	 7.00000000E-01
					-5.00000000E-02	 0.00000000E+00	 7.50000000E-01
					-5.00000000E-02	 3.00000000E-01	 7.50000000E-01
					-5.00000000E-02	 0.00000000E+00	 8.00000000E-01
					-5.00000000E-02	 3.00000000E-01	 8.00000000E-01
					-5.00000000E-02	 0.00000000E+00	 8.50000000E-01
					-5.00000000E-02	 3.00000000E-01	 8.50000000E-01
					-5.00000000E-02	 0.00000000E+00	 9.00000000E-01
					-5.00000000E-02	 3.00000000E-01	 9.00000000E-01
					-5.00000000E-02	 0.00000000E+00	 9.50000000E-01
					-5.00000000E-02	 3.00000000E-01	 9.50000000E-01
					-5.00000000E-02	 0.00000000E+00	 1.00000000E+00
					-5.00000000E-02	 3.00000000E-01	 1.00000000E+00
				</DataArray>
			</Points>
			<Cells>
				<DataArray type="Int32" Name="connectivity" format="ascii">
					0 1 2 3 4 5 6 7 3 2 8 9 7 6 10 11 9 8 12 13 11 10 14 15 13 12 16 17 15 14 18 19 17 16 20 21 19 18 22 23 21 20 24 25 23 22 26 27 25 24 28 29 27 26 30 31 29 28 32 33 31 30 34 35 33 32 36 37 35 34 38 39 37 36 40 41 39 38 42 43 41 40 44 45 43 42 46 47 45 44 48 49 47 46 50 51 49 48 52 53 51 50 54 55 53 52 56 57 55 54 58 59 57 56 60 61 59 58 62 63 61 60 64 65 63 62 66 67 65 64 68 69 67 66 70 71 69 68 72 73 71 70 74 75 73 72 76 77 75 74 78 79 77 76 80 81 79 78 82 83 1 84 85 2 5 86 87 6 2 85 88 8 6 87 89 10 8 88 90 12 10 89 91 14 12 90 92 16 14 91 93 18 16 92 94 20 18 93 95 22 20 94 96 24 22 95 97 26 24 96 98 28 26 97 99 30 28 98 100 32 30 99 101 34 32 100 102 36 34 101 103 38 36 102 104 40 38 103 105 42 40 104 106 44 42 105 107 46 44 106 108 48 46 107 109 50 48 108 110 52 50 109 111 54 52 110 112 56 54 111 113 58 56 112 114 60 58 113 115 62 60 114 116 64 62 115 117 66 64 116 118 68 66 117 119 70 68 118 120 72 70 119 121 74 72 120 122 76 74 121 123 78 76 122 124 80 78 123 125 82 
				</DataArray>
				<DataArray type="Int32" Name="offsets" format="ascii">
					8 16 24 32 40 48 56 64 72 80 88 96 104 112 120 128 136 144 152 160 168 176 184 192 200 208 216 224 232 240 248 256 264 272 280 288 296 304 312 320 
				</DataArray>
				<DataArray type="UInt8" Name="types" format="ascii">
					12 12 12 12 12 12 12 12 12 12 12 12 12 12 12 12 12 12 12 12 12 12 12 12 12 12 12 12 12 12 12 12 12 12 12 12 12 12 12 12 
				</DataArray>
			</Cells>
			<PointData>
				<DataArray type="Float32" Name="U" NumberOfComponents="3" ComponentName0="D1" ComponentName1="D2" ComponentName2="D3" format="ascii">
					 0.00000000E+00	 0.00000000E+00	 0.00000000E+00
					 0.00000000E+00	 0.00000000E+00	 0.00000000E+00
					 2.40005000E-02	 0.00000000E+00	-1.11497000E-02
					 2.80679000E-02	 0.00000000E+00	-7.36079000E-03
					 0.00000000E+00	 0.00000000E+00	 0.00000000E+00
					 0.00000000E+00	 0.00000000E+00	 0.00000000E+00
					 2.40005000E-02	 0.00000000E+00	-1.11497000E-02
					 2.80679000E-02	 0.00000000E+00	-7.36079000E-03
					 5.66935000E-02	 0.00000000E+00	-1.09725000E-02
					 4.16234000E-02	 0.00000000E+00	-9.91168000E-03
					 5.66935000E-02	 0.00000000E+00	-1.09725000E-02
					 4.16234000E-02	 0.00000000E+00	-9.91168000E-03
					 7.10356000E-02	 0.00000000E+00	 3.57157000E-03
					 5.07873000E-02	 0.00000000E+00	-2.31971000E-02
					 7.10356000E-02	 0.00000000E+00	 3.57157000E-03
					 5.07873000E-02	 0.00000000E+00	-2.31971000E-02
					 1.00364000E-01	 0.00000000E+00	-2.33394000E-02
					 1.04892000E-01	 0.00000000E+00	-6.00397000E-02
					 1.00364000E-01	 0.00000000E+00	-2.33394000E-02
					 1.04892000E-01	 0.00000000E+00	-6.00397000E-02
					 1.33661000E-01	 0.00000000E+00	-3.56727000E-02
					 1.27785000E-01	 0.00000000E+00	-4.96393000E-02
					 1.33661000E-01	 0.00000000E+00	-3.56727000E-02
					 1.27785000E-01	 0.00000000E+00	-4.96393000E-02
					 1.72503000E-01	 0.00000000E+00	-3.60853000E-02
					 9.09090000E-02	 0.00000000E+00	-5.44091000E-02
					 1.72503000E-01	 0.00000000E+00	-3.60853000E-02
					 9.09090000E-02	 0.00000000E+00	-5.44091000E-02
					 1.95116000E-01	 0.00000000E+00	-3.83657000E-02
					 9.03403000E-02	 0.00000000E+00	-3.26276000E-02
					 1.95116000E-01	 0.00000000E+00	-3.83657000E-02
					 9.03403000E-02	 0.00000000E+00	-3.26276000E-02
					 1.90324000E-01	 0.00000000E+00	-4.25117000E-02
					 9.85374000E-02	 0.00000000E+00	-3.41132000E-02
					 1.90324000E-01	 0.00000000E+00	-4.25117000E-02
					 9.85374000E-02	 0.00000000E+00	-3.41132000E-02
					 1.80831000E-01	 0.00000000E+00	-3.94444000E-02
					 9.59025000E-02	 0.00000000E+00	-6.45181000E-02
					 1.80831000E-01	 0.00000000E+00	-3.94444000E-02
					 9.59025000E-02	 0.00000000E+00	-6.45181000E-02
					 1.69060000E-01	 0.00000000E+00	-3.31166000E-02
					 8.89559000E-02	 0.00000000E+00	-7.34816000E-02
					 1.69060000E-01	 0.00000000E+00	-3.31166000E-02
					 8.89559000E-02	 0.00000000E+00	-7.34816000E-02
					 1.20952000E-01	 0.00000000E+00	-4.70003000E-02
					 5.74452000E-02	 0.00000000E+00	-7.89376000E-02
					 1.20952000E-01	 0.00000000E+00	-4.70003000E-02
					 5.74452000E-02	 0.00000000E+00	-7.89376000E-02
					 8.58289000E-02	 0.00000000E+00	-5.61954000E-02
					-1.58436000E-04	 0.00000000E+00	-8.89348000E-02
					 8.58289000E-02	 0.00000000E+00	-5.61954000E-02
					-1.58436000E-04	 0.00000000E+00	-8.89348000E-02
					 7.15968000E-02	 0.00000000E+00	-5.80291000E-02
					-2.09669000E-03	 0.00000000E+00	-6.43186000E-02
					 7.15968000E-02	 0.00000000E+00	-5.80291000E-02
					-2.09669000E-03	 0.00000000E+00	-6.43186000E-02
					 2.27299000E-02	 0.00000000E+00	-7.55821000E-02
					 1.21774000E-03	 0.00000000E+00	-5.12975000E-02
					 2.27299000E-02	 0.00000000E+00	-7.55821000E-02
					 1.21774000E-03	 0.00000000E+00	-5.12975000E-02
					-1.25857000E-02	 0.00000000E+00	-6.17573000E-02
					 3.48769000E-03	 0.00000000E+00	-7.54329000E-02
					-1.25857000E-02	 0.00000000E+00	-6.17573000E-02
					 3.48769000E-03	 0.00000000E+00	-7.54329000E-02
					 9.63537000E-03	 0.00000000E+00	-5.51571000E-02
					-3.16759000E-03	 0.00000000E+00	-6.47742000E-02
					 9.63537000E-03	 0.00000000E+00	-5.51571000E-02
					-3.16759000E-03	 0.00000000E+00	-6.47742000E-02
					 5.43497000E-02	 0.00000000E+00	-6.46118000E-02
					 3.14466000E-02	 0.00000000E+00	-8.24796000E-02
					 5.43497000E-02	 0.00000000E+00	-6.46118000E-02
					 3.14466000E-02	 0.00000000E+00	-8.24796000E-02
					 4.69103000E-02	 0.00000000E+00	-6.99847000E-02
					 3.58977000E-02	 0.00000000E+00	-7.20774000E-02
					 4.69103000E-02	 0.00000000E+00	-6.99847000E-02
					 3.58977000E-02	 0.00000000E+00	-7.20774000E-02
					 3.42371000E-02	 0.00000000E+00	-7.43849000E-02
					 2.06097000E-02	 0.00000000E+00	-6.12518000E-02
					 3.42371000E-02	 0.00000000E+00	-7.43849000E-02
					 2.06097000E-02	 0.00000000E+00	-6.12518000E-02
					 3.06639000E-02	 0.00000000E+00	-7.74108000E-02
					 3.37903000E-02	 0.00000000E+00	-7.86719000E-02
					 3.06639000E-02	 0.00000000E+00	-7.74108000E-02
					 3.37903000E-02	 0.00000000E+00	-7.86719000E-02
					 0.00000000E+00	 0.00000000E+00	 0.00000000E+00
					 5.40939000E-02	 0.00000000E+00	-2.35255000E-02
					 0.00000000E+00	 0.00000000E+00	 0.00000000E+00
					 5.40939000E-02	 0.00000000E+00	-2.35255000E-02
					 9.51902000E-02	 0.00000000E+00	-2.94420000E-02
					 9.51902000E-02	 0.00000000E+00	-2.94420000E-02
					 1.11793000E-01	 0.00000000E+00	-3.68927000E-02
					 1.11793000E-01	 0.00000000E+00	-3.68927000E-02
					 1.86397000E-01	 0.00000000E+00	-7.19863000E-02
					 1.86397000E-01	 0.00000000E+00	-7.19863000E-02
					 2.15376000E-01	 0.00000000E+00	-7.88659000E-02
					 2.15376000E-01	 0.00000000E+00	-7.88659000E-02
					 2.60102000E-01	 0.00000000E+00	-6.10689000E-02
					 2.60102000E-01	 0.00000000E+00	-6.10689000E-02
					 2.64274000E-01	 0.00000000E+00	-4.93584000E-02
					 2.64274000E-01	 0.00000000E+00	-4.93584000E-02
					 2.83366000E-01	 0.00000000E+00	-3.38136000E-02
					 2.83366000E-01	 0.00000000E+00	-3.38136000E-02
					 2.67580000E-01	 0.00000000E+00	-1.86343000E-02
					 2.67580000E-01	 0.00000000E+00	-1.86343000E-02
					 2.59696000E-01	 0.00000000E+00	-5.11943000E-03
					 2.59696000E-01	 0.00000000E+00	-5.11943000E-03
					 2.15495000E-01	 0.00000000E+00	-2.90286000E-02
					 2.15495000E-01	 0.00000000E+00	-2.90286000E-02
					 1.95213000E-01	 0.00000000E+00	-2.33034000E-02
					 1.95213000E-01	 0.00000000E+00	-2.33034000E-02
					 1.43286000E-01	 0.00000000E+00	-5.42907000E-02
					 1.43286000E-01	 0.00000000E+00	-5.42907000E-02
					 1.22310000E-01	 0.00000000E+00	-4.82156000E-02
					 1.22310000E-01	 0.00000000E+00	-4.82156000E-02
					 7.30918000E-02	 0.00000000E+00	-7.44390000E-02
					 7.30918000E-02	 0.00000000E+00	-7.44390000E-02
					 9.69300000E-02	 0.00000000E+00	-7.56168000E-02
					 9.69300000E-02	 0.00000000E+00	-7.56168000E-02
					 8.59638000E-02	 0.00000000E+00	-7.39547000E-02
					 8.59638000E-02	 0.00000000E+00	-7.39547000E-02
					 3.72027000E-02	 0.00000000E+00	-7.50524000E-02
					 3.72027000E-02	 0.00000000E+00	-7.50524000E-02
					 4.83539000E-02	 0.00000000E+00	-7.51234000E-02
					 4.83539000E-02	 0.00000000E+00	-7.51234000E-02
					 2.23448000E-02	 0.00000000E+00	-8.71342000E-02
					 2.23448000E-02	 0.00000000E+00	-8.71342000E-02
				</DataArray>
			</PointData>
		</Piece>
	</UnstructuredGrid>
</VTKFile>