<?xml version="1.0"?>
<VTKFile type="UnstructuredGrid" version="0.1" byte_order="LittleEndian">
	<UnstructuredGrid>
		<Piece NumberOfPoints="126" NumberOfCells="40">
			<Points>
				<DataArray type="Float64" NumberOfComponents="3" format="ascii">
					 5.00000000E-02	 0.00000000E+00	 0.00000000E+00
					 0.00000000E+00	 0.00000000E+00	 0.00000000E+00
					 0.00000000E+00	 0.00000000E+00	 5.00000000E-02
					 5.00000000E-02	 0.00000000E+00	 5.00000000E-02
					 5.00000000E-02	 3.00000000E-01	 0.00000000E+00
					 0.00000000E+00	 3.00000000E-01	 0.00000000E+00
					 0.00000000E+00	 3.00000000E-01	 5.00000000E-02
					 5.00000000E-02	 3.00000000E-01	 5.00000000E-02
					 0.00000000E+00	 0.00000000E+00	 1.00000000E-01
					 5.00000000E-02	 0.00000000E+00	 1.00000000E-01
					 0.00000000E+00	 3.00000000E-01	 1.00000000E-01
					 5.00000000E-02	 3.00000000E-01	 1.00000000E-01
					 0.00000000E+00	 0.00000000E+00	 1.50000000E-01
					 5.00000000E-02	 0.00000000E+00	 1.50000000E-01
					 0.00000000E+00	 3.00000000E-01	 1.50000000E-01
					 5.00000000E-02	 3.00000000E-01	 1.50000000E-01
					 0.00000000E+00	 0.00000000E+00	 2.00000000E-01
					 5.00000000E-02	 0.00000000E+00	 2.00000000E-01
					 0.00000000E+00	 3.00000000E-01	 2.00000000E-01
					 5.00000000E-02	 3.00000000E-01	 2.00000000E-01
					 0.00000000E+00	 0.00000000E+00	 2.50000000E-01
					 5.00000000E-02	 0.00000000E+00	 2.50000000E-01
					 0.00000000E+00	 3.00000000E-01	 2.50000000E-01
					 5.00000000E-02	 3.00000000E-01	 2.50000000E-01
					 0.00000000E+00	 0.00000000E+00	 3.00000000E-01
					 5.00000000E-02	 0.00000000E+00	 3.00000000E-01
					 0.00000000E+00	 3.00000000E-01	 3.00000000E-01
					 5.00000000E-02	 3.00000000E-01	 3.00000000E-01
					 0.00000000E+00	 0.00000000E+00	 3.50000000E-01
					 5.00000000E-02	 0.00000000E+00	 3.50000000E-01
					 0.00000000E+00	 3.00000000E-01	 3.50000000E-01
					 5.00000000E-02	 3.00000000E-01	 3.50000000E-01
					 0.00000000E+00	 0.00000000E+00	 4.00000000E-01
					 5.00000000E-02	 0.00000000E+00	 4.00000000E-01
					 0.00000000E+00	 3.00000000E-01	 4.00000000E-01
					 5.00000000E-02	 3.00000000E-01	 4.00000000E-01
					 0.00000000E+00	 0.00000000E+00	 4.50000000E-01
					 5.00000000E-02	 0.00000000E+00	 4.50000000E-01
					 0.00000000E+00	 3.00000000E-01	 4.50000000E-01
					 5.00000000E-02	 3.00000000E-01	 4.50000000E-01
					 0.00000000E+00	 0.00000000E+00	 5.00000000E-01
					 5.00000000E-02	 0.00000000E+00	 5.00000000E-01
					 0.00000000E+00	 3.00000000E-01	 5.00000000E-01
					 5.00000000E-02	 3.00000000E-01	 5.00000000E-01
					 0.00000000E+00	 0.00000000E+00	 5.50000000E-01
					 5.00000000E-02	 0.00000000E+00	 5.50000000E-01
					 0.00000000E+00	 3.00000000E-01	 5.50000000E-01
					 5.00000000E-02	 3.00000000E-01	 5.50000000E-01
					 0.00000000E+00	 0.00000000E+00	 6.00000000E-01
					 5.00000000E-02	 0.00000000E+00	 6.00000000E-01
					 0.00000000E+00	 3.00000000E-01	 6.00000000E-01
					 5.00000000E-02	 3.00000000E-01	 6.00000000E-01
					 0.00000000E+00	 0.00000000E+00	 6.50000000E-01
					 5.00000000E-02	 0.00000000E+00	 6.50000000E-01
					 0.00000000E+00	 3.00000000E-01	 6.50000000E-01
					 5.00000000E-02	 3.00000000E-01	 6.50000000E-01
					 0.00000000E+00	 0.00000000E+00	 7.00000000E-01
					 5.00000000E-02	 0.00000000E+00	 7.00000000E-01
					 0.00000000E+00	 3.00000000E-01	 7.00000000E-01
					 5.00000000E-02	 3.00000000E-01	 7.00000000E-01
					 0.00000000E+00	 0.00000000E+00	 7.50000000E-01
					 5.00000000E-02	 0.00000000E+00	 7.50000000E-01
					 0.00000000E+00	 3.00000000E-01	 7.50000000E-01
					 5.00000000E-02	 3.00000000E-01	 7.50000000E-01
					 0.00000000E+00	 0.00000000E+00	 8.00000000E-01
					 5.00000000E-02	 0.00000000E+00	 8.00000000E-01
					 0.00000000E+00	 3.00000000E-01	 8.00000000E-01
					 5.00000000E-02	 3.00000000E-01	 8.00000000E-01
					 0.00000000E+00	 0.00000000E+00	 8.50000000E-01
					 5.00000000E-02	 0.00000000E+00	 8.50000000E-01
					 0.00000000E+00	 3.00000000E-01	 8.50000000E-01
					 5.00000000E-02	 3.00000000E-01	 8.50000000E-01
					 0.00000000E+00	 0.00000000E+00	 9.00000000E-01
					 5.00000000E-02	 0.00000000E+00	 9.00000000E-01
					 0.00000000E+00	 3.00000000E-01	 9.00000000E-01
					 5.00000000E-02	 3.00000000E-01	 9.00000000E-01
					 0.00000000E+00	 0.00000000E+00	 9.50000000E-01
					 5.00000000E-02	 0.00000000E+00	 9.50000000E-01
					 0.00000000E+00	 3.00000000E-01	 9.50000000E-01
					 5.00000000E-02	 3.00000000E-01	 9.50000000E-01
					 0.00000000E+00	 0.00000000E+00	 1.00000000E+00
					 5.00000000E-02	 0.00000000E+00	 1.00000000E+00
					 0.00000000E+00	 3.00000000E-01	 1.00000000E+00
					 5.00000000E-02	 3.00000000E-01	 1.00000000E+00
					-5.00000000E-02	 0.00000000E+00	 0.00000000E+00
					-5.00000000E-02	 0.00000000E+00	 5.00000000E-02
					-5.00000000E-02	 3.00000000E-01	 0.00000000E+00
					-5.00000000E-02	 3.00000000E-01	 5.00000000E-02
					-5.00000000E-02	 0.00000000E+00	 1.00000000E-01
					-5.00000000E-02	 3.00000000E-01	 1.00000000E-01
					-5.00000000E-02	 0.00000000E+00	 1.50000000E-01
					-5.00000000E-02	 3.00000000E-01	 1.50000000E-01
					-5.00000000E-02	 0.00000000E+00	 2.00000000E-01
					-5.00000000E-02	 3.00000000E-01	 2.00000000E-01
					-5.00000000E-02	 0.00000000E+00	 2.50000000E-01
					-5.00000000E-02	 3.00000000E-01	 2.50000000E-01
					-5.00000000E-02	 0.00000000E+00	 3.00000000E-01
					-5.00000000E-02	 3.00000000E-01	 3.00000000E-01
					-5.00000000E-02	 0.00000000E+00	 3.50000000E-01
					-5.00000000E-02	 3.00000000E-01	 3.50000000E-01
					-5.00000000E-02	 0.00000000E+00	 4.00000000E-01
					-5.00000000E-02	 3.00000000E-01	 4.00000000E-01
					-5.00000000E-02	 0.00000000E+00	 4.50000000E-01
					-5.00000000E-02	 3.00000000E-01	 4.50000000E-01
					-5.00000000E-02	 0.00000000E+00	 5.00000000E-01
					-5.00000000E-02	 3.00000000E-01	 5.00000000E-01
					-5.00000000E-02	 0.00000000E+00	 5.50000000E-01
					-5.00000000E-02	 3.00000000E-01	 5.50000000E-01
					-5.00000000E-02	 0.00000000E+00	 6.00000000E-01
					-5.00000000E-02	 3.00000000E-01	 6.00000000E-01
					-5.00000000E-02	 0.00000000E+00	 6.50000000E-01
					-5.00000000E-02	 3.00000000E-01	 6.50000000E-01
					-5.00000000E-02	 0.00000000E+00	 7.00000000E-01
					-5.00000000E-02	 3.00000000E-01	 7.00000000E-01
					-5.00000000E-02	 0.00000000E+00	 7.50000000E-01
					-5.00000000E-02	 3.00000000E-01	 7.50000000E-01
					-5.00000000E-02	 0.00000000E+00	 8.00000000E-01
					-5.00000000E-02	 3.00000000E-01	 8.00000000E-01
					-5.00000000E-02	 0.00000000E+00	 8.50000000E-01
					-5.00000000E-02	 3.00000000E-01	 8.50000000E-01
					-5.00000000E-02	 0.00000000E+00	 9.00000000E-01
					-5.00000000E-02	 3.00000000E-01	 9.00000000E-01
					-5.00000000E-02	 0.00000000E+00	 9.50000000E-01
					-5.00000000E-02	 3.00000000E-01	 9.50000000E-01
					-5.00000000E-02	 0.00000000E+00	 1.00000000E+00
					-5.00000000E-02	 3.00000000E-01	 1.00000000E+00
				</DataArray>
			</Points>
			<Cells>
				<DataArray type="Int32" Name="connectivity" format="ascii">
					0 1 2 3 4 5 6 7 3 2 8 9 7 6 10 11 9 8 12 13 11 10 14 15 13 12 16 17 15 14 18 19 17 16 20 21 19 18 22 23 21 20 24 25 23 22 26 27 25 24 28 29 27 26 30 31 29 28 32 33 31 30 34 35 33 32 36 37 35 34 38 39 37 36 40 41 39 38 42 43 41 40 44 45 43 42 46 47 45 44 48 49 47 46 50 51 49 48 52 53 51 50 54 55 53 52 56 57 55 54 58 59 57 56 60 61 59 58 62 63 61 60 64 65 63 62 66 67 65 64 68 69 67 66 70 71 69 68 72 73 71 70 74 75 73 72 76 77 75 74 78 79 77 76 80 81 79 78 82 83 1 84 85 2 5 86 87 6 2 85 88 8 6 87 89 10 8 88 90 12 10 89 91 14 12 90 92 16 14 91 93 18 16 92 94 20 18 93 95 22 20 94 96 24 22 95 97 26 24 96 98 28 26 97 99 30 28 98 100 32 30 99 101 34 32 100 102 36 34 101 103 38 36 102 104 40 38 103 105 42 40 104 106 44 42 105 107 46 44 106 108 48 46 107 109 50 48 108 110 52 50 109 111 54 52 110 112 56 54 111 113 58 56 112 114 60 58 113 115 62 60 114 116 64 62 115 117 66 64 116 118 68 66 117 119 70 68 118 120 72 70 119 121 74 72 120 122 76 74 121 123 78 76 122 124 80 78 123 125 82 
				</DataArray>
				<DataArray type="Int32" Name="offsets" format="ascii">
					8 16 24 32 40 48 56 64 72 80 88 96 104 112 120 128 136 144 152 160 168 176 184 192 200 208 216 224 232 240 248 256 264 272 280 288 296 304 312 320 
				</DataArray>
				<DataArray type="UInt8" Name="types" format="ascii">
					12 12 12 12 12 12 12 12 12 12 12 12 12 12 12 12 12 12 12 12 12 12 12 12 12 12 12 12 12 12 12 12 12 12 12 12 12 12 12 12 
				</DataArray>
			</Cells>
			<PointData>
				<DataArray type="Float32" Name="U" NumberOfComponents="3" ComponentName0="D1" ComponentName1="D2" ComponentName2="D3" format="ascii">
					 0.00000000E+00	 0.00000000E+00	 0.00000000E+00
					 0.00000000E+00	 0.00000000E+00	 0.00000000E+00
					 6.06174000E-04	 0.00000000E+00	-1.13878000E-04
					 1.23387000E-03	 0.00000000E+00	-2.88065000E-04
					 0.00000000E+00	 0.00000000E+00	 0.00000000E+00
					 0.00000000E+00	 0.00000000E+00	 0.00000000E+00
					 6.06174000E-04	 0.00000000E+00	-1.13878000E-04
					 1.23387000E-03	 0.00000000E+00	-2.88065000E-04
					 1.39497000E-03	 0.00000000E+00	-2.88896000E-04
					 1.20087000E-03	 0.00000000E+00	-1.44371000E-04
					 1.39497000E-03	 0.00000000E+00	-2.88896000E-04
					 1.20087000E-03	 0.00000000E+00	-1.44371000E-04
					 2.05715000E-03	 0.00000000E+00	-3.86264000E-04
					 1.38539000E-03	 0.00000000E+00	 2.06386000E-04
					 2.05715000E-03	 0.00000000E+00	-3.86264000E-04
					 1.38539000E-03	 0.00000000E+00	 2.06386000E-04
					 2.56036000E-03	 0.00000000E+00	-1.47447000E-04
					 1.27115000E-03	 0.00000000E+00	 7.61492000E-05
					 2.56036000E-03	 0.00000000E+00	-1.47447000E-04
					 1.27115000E-03	 0.00000000E+00	 7.61492000E-05
					 2.89739000E-03	 0.00000000E+00	-2.61664000E-04
					 1.87229000E-03	 0.00000000E+00	-1.94763000E-04
					 2.89739000E-03	 0.00000000E+00	-2.61664000E-04
					 1.87229000E-03	 0.00000000E+00	-1.94763000E-04
					 3.07530000E-03	 0.00000000E+00	 5.56013000E-04
					 1.89792000E-03	 0.00000000E+00	-2.32870000E-04
					 3.07530000E-03	 0.00000000E+00	 5.56013000E-04
					 1.89792000E-03	 0.00000000E+00	-2.32870000E-04
					 3.10703000E-03	 0.00000000E+00	 4.88723000E-04
					 2.46774000E-03	 0.00000000E+00	 2.85859000E-04
					 3.10703000E-03	 0.00000000E+00	 4.88723000E-04
					 2.46774000E-03	 0.00000000E+00	 2.85859000E-04
					 3.03499000E-03	 0.00000000E+00	 2.40339000E-04
					 2.70695000E-03	 0.00000000E+00	 7.48932000E-04
					 3.03499000E-03	 0.00000000E+00	 2.40339000E-04
					 2.70695000E-03	 0.00000000E+00	 7.48932000E-04
					 2.90254000E-03	 0.00000000E+00	 5.11266000E-04
					 1.64093000E-03	 0.00000000E+00	 7.35586000E-04
					 2.90254000E-03	 0.00000000E+00	 5.11266000E-04
					 1.64093000E-03	 0.00000000E+00	 7.35586000E-04
					 2.76087000E-03	 0.00000000E+00	 8.23229000E-04
					 1.61613000E-03	 0.00000000E+00	 9.37796000E-04
					 2.76087000E-03	 0.00000000E+00	 8.23229000E-04
					 1.61613000E-03	 0.00000000E+00	 9.37796000E-04
					 2.58191000E-03	 0.00000000E+00	 5.79049000E-04
					 1.91266000E-03	 0.00000000E+00	 5.40669000E-04
					 2.58191000E-03	 0.00000000E+00	 5.79049000E-04
					 1.91266000E-03	 0.00000000E+00	 5.40669000E-04
					 2.42998000E-03	 0.00000000E+00	 3.21570000E-04
					 1.68144000E-03	 0.00000000E+00	 3.34065000E-04
					 2.42998000E-03	 0.00000000E+00	 3.21570000E-04
					 1.68144000E-03	 0.00000000E+00	 3.34065000E-04
					 2.28030000E-03	 0.00000000E+00	 1.00269000E-03
					 1.45462000E-03	 0.00000000E+00	 1.13345000E-03
					 2.28030000E-03	 0.00000000E+00	 1.00269000E-03
					 1.45462000E-03	 0.00000000E+00	 1.13345000E-03
					 2.13888000E-03	 0.00000000E+00	 6.98716000E-04
					 1.63938000E-03	 0.00000000E+00	 9.83042000E-04
					 2.13888000E-03	 0.00000000E+00	 6.98716000E-04
					 1.63938000E-03	 0.00000000E+00	 9.83042000E-04
					 1.96499000E-03	 0.00000000E+00	 4.55988000E-04
					 1.03081000E-03	 0.00000000E+00	 7.88132000E-04
					 1.96499000E-03	 0.00000000E+00	 4.55988000E-04
					 1.03081000E-03	 0.00000000E+00	 7.88132000E-04
					 1.77792000E-03	 0.00000000E+00	 8.76361000E-04
					 4.42924000E-04	 0.00000000E+00	 7.20065000E-04
					 1.77792000E-03	 0.00000000E+00	 8.76361000E-04
					 4.42924000E-04	 0.00000000E+00	 7.20065000E-04
					 1.56973000E-03	 0.00000000E+00	 1.17932000E-03
					 1.14485000E-03	 0.00000000E+00	 5.90878000E-04
					 1.56973000E-03	 0.00000000E+00	 1.17932000E-03
					 1.14485000E-03	 0.00000000E+00	 5.90878000E-04
					 1.34398000E-03	 0.00000000E+00	 7.36002000E-04
					 1.31077000E-03	 0.00000000E+00	 5.17739000E-04
					 1.34398000E-03	 0.00000000E+00	 7.36002000E-04
					 1.31077000E-03	 0.00000000E+00	 5.17739000E-04
					 1.09479000E-03	 0.00000000E+00	 1.35095000E-03
					 5.11131000E-04	 0.00000000E+00	 5.28027000E-04
					 1.09479000E-03	 0.00000000E+00	 1.35095000E-03
					 5.11131000E-04	 0.00000000E+00	 5.28027000E-04
					 8.60898000E-04	 0.00000000E+00	 1.65530000E-03
					 1.40207000E-03	 0.00000000E+00	 2.06996000E-04
					 8.60898000E-04	 0.00000000E+00	 1.65530000E-03
					 1.40207000E-03	 0.00000000E+00	 2.06996000E-04
					 0.00000000E+00	 0.00000000E+00	 0.00000000E+00
					 2.65638000E-04	 0.00000000E+00	 5.36053000E-04
					 0.00000000E+00	 0.00000000E+00	 0.00000000E+00
					 2.65638000E-04	 0.00000000E+00	 5.36053000E-04
					 1.72675000E-03	 0.00000000E+00	 9.30441000E-04
					 1.72675000E-03	 0.00000000E+00	 9.30441000E-04
					 2.82278000E-03	 0.00000000E+00	 1.23067000E-03
					 2.82278000E-03	 0.00000000E+00	 1.23067000E-03
					 3.91270000E-03	 0.00000000E+00	 8.52914000E-04
					 3.91270000E-03	 0.00000000E+00	 8.52914000E-04
					 3.97489000E-03	 0.00000000E+00	 2.91866000E-04
					 3.97489000E-03	 0.00000000E+00	 2.91866000E-04
					 4.33775000E-03	 0.00000000E+00	-1.05589000E-05
					 4.33775000E-03	 0.00000000E+00	-1.05589000E-05
					 3.80760000E-03	 0.00000000E+00	 3.16438000E-04
					 3.80760000E-03	 0.00000000E+00	 3.16438000E-04
					 3.43465000E-03	 0.00000000E+00	 6.15388000E-04
					 3.43465000E-03	 0.00000000E+00	 6.15388000E-04
					 4.26079000E-03	 0.00000000E+00	 5.05216000E-04
					 4.26079000E-03	 0.00000000E+00	 5.05216000E-04
					 4.01996000E-03	 0.00000000E+00	 6.59285000E-04
					 4.01996000E-03	 0.00000000E+00	 6.59285000E-04
					 3.36658000E-03	 0.00000000E+00	 2.34362000E-04
					 3.36658000E-03	 0.00000000E+00	 2.34362000E-04
					 3.28490000E-03	 0.00000000E+00	 4.27451000E-05
					 3.28490000E-03	 0.00000000E+00	 4.27451000E-05
					 3.18521000E-03	 0.00000000E+00	 8.37884000E-04
					 3.18521000E-03	 0.00000000E+00	 8.37884000E-04
					 2.75306000E-03	 0.00000000E+00	 6.70278000E-04
					 2.75306000E-03	 0.00000000E+00	 6.70278000E-04
					 2.99955000E-03	 0.00000000E+00	 4.45247000E-04
					 2.99955000E-03	 0.00000000E+00	 4.45247000E-04
					 3.21602000E-03	 0.00000000E+00	 3.44259000E-04
					 3.21602000E-03	 0.00000000E+00	 3.44259000E-04
					 2.07164000E-03	 0.00000000E+00	 1.77149000E-04
					 2.07164000E-03	 0.00000000E+00	 1.77149000E-04
					 1.44148000E-03	 0.00000000E+00	 7.39963000E-05
					 1.44148000E-03	 0.00000000E+00	 7.39963000E-05
					 1.73182000E-03	 0.00000000E+00	 9.10072000E-05
					 1.73182000E-03	 0.00000000E+00	 9.10072000E-05
					 3.60990000E-04	 0.00000000E+00	-2.26614000E-04
					 3.60990000E-04	 0.00000000E+00	-2.26614000E-04
				</DataArray>
			</PointData>
		</Piece>
	</UnstructuredGrid>
</VTKFile>