<?xml version="1.0"?>
<VTKFile type="UnstructuredGrid" version="0.1" byte_order="LittleEndian">
	<UnstructuredGrid>
		<Piece NumberOfPoints="126" NumberOfCells="40">
			<Points>
				<DataArray type="Float64" NumberOfComponents="3" format="ascii">
					 5.00000000E-02	 0.00000000E+00	 0.00000000E+00
					 0.00000000E+00	 0.00000000E+00	 0.00000000E+00
					 0.00000000E+00	 0.00000000E+00	 5.00000000E-02
					 5.00000000E-02	 0.00000000E+00	 5.00000000E-02
					 5.00000000E-02	 3.00000000E-01	 0.00000000E+00
					 0.00000000E+00	 3.00000000E-01	 0.00000000E+00
					 0.00000000E+00	 3.00000000E-01	 5.00000000E-02
					 5.00000000E-02	 3.00000000E-01	 5.00000000E-02
					 0.00000000E+00	 0.00000000E+00	 1.00000000E-01
					 5.00000000E-02	 0.00000000E+00	 1.00000000E-01
					 0.00000000E+00	 3.00000000E-01	 1.00000000E-01
					 5.00000000E-02	 3.00000000E-01	 1.00000000E-01
					 0.00000000E+00	 0.00000000E+00	 1.50000000E-01
					 5.00000000E-02	 0.00000000E+00	 1.50000000E-01
					 0.00000000E+00	 3.00000000E-01	 1.50000000E-01
					 5.00000000E-02	 3.00000000E-01	 1.50000000E-01
					 0.00000000E+00	 0.00000000E+00	 2.00000000E-01
					 5.00000000E-02	 0.00000000E+00	 2.00000000E-01
					 0.00000000E+00	 3.00000000E-01	 2.00000000E-01
					 5.00000000E-02	 3.00000000E-01	 2.00000000E-01
					 0.00000000E+00	 0.00000000E+00	 2.50000000E-01
					 5.00000000E-02	 0.00000000E+00	 2.50000000E-01
					 0.00000000E+00	 3.00000000E-01	 2.50000000E-01
					 5.00000000E-02	 3.00000000E-01	 2.50000000E-01
					 0.00000000E+00	 0.00000000E+00	 3.00000000E-01
					 5.00000000E-02	 0.00000000E+00	 3.00000000E-01
					 0.00000000E+00	 3.00000000E-01	 3.00000000E-01
					 5.00000000E-02	 3.00000000E-01	 3.00000000E-01
					 0.00000000E+00	 0.00000000E+00	 3.50000000E-01
					 5.00000000E-02	 0.00000000E+00	 3.50000000E-01
					 0.00000000E+00	 3.00000000E-01	 3.50000000E-01
					 5.00000000E-02	 3.00000000E-01	 3.50000000E-01
					 0.00000000E+00	 0.00000000E+00	 4.00000000E-01
					 5.00000000E-02	 0.00000000E+00	 4.00000000E-01
					 0.00000000E+00	 3.00000000E-01	 4.00000000E-01
					 5.00000000E-02	 3.00000000E-01	 4.00000000E-01
					 0.00000000E+00	 0.00000000E+00	 4.50000000E-01
					 5.00000000E-02	 0.00000000E+00	 4.50000000E-01
					 0.00000000E+00	 3.00000000E-01	 4.50000000E-01
					 5.00000000E-02	 3.00000000E-01	 4.50000000E-01
					 0.00000000E+00	 0.00000000E+00	 5.00000000E-01
					 5.00000000E-02	 0.00000000E+00	 5.00000000E-01
					 0.00000000E+00	 3.00000000E-01	 5.00000000E-01
					 5.00000000E-02	 3.00000000E-01	 5.00000000E-01
					 0.00000000E+00	 0.00000000E+00	 5.50000000E-01
					 5.00000000E-02	 0.00000000E+00	 5.50000000E-01
					 0.00000000E+00	 3.00000000E-01	 5.50000000E-01
					 5.00000000E-02	 3.00000000E-01	 5.50000000E-01
					 0.00000000E+00	 0.00000000E+00	 6.00000000E-01
					 5.00000000E-02	 0.00000000E+00	 6.00000000E-01
					 0.00000000E+00	 3.00000000E-01	 6.00000000E-01
					 5.00000000E-02	 3.00000000E-01	 6.00000000E-01
					 0.00000000E+00	 0.00000000E+00	 6.50000000E-01
					 5.00000000E-02	 0.00000000E+00	 6.50000000E-01
					 0.00000000E+00	 3.00000000E-01	 6.50000000E-01
					 5.00000000E-02	 3.00000000E-01	 6.50000000E-01
					 0.00000000E+00	 0.00000000E+00	 7.00000000E-01
					 5.00000000E-02	 0.00000000E+00	 7.00000000E-01
					 0.00000000E+00	 3.00000000E-01	 7.00000000E-01
					 5.00000000E-02	 3.00000000E-01	 7.00000000E-01
					 0.00000000E+00	 0.00000000E+00	 7.50000000E-01
					 5.00000000E-02	 0.00000000E+00	 7.50000000E-01
					 0.00000000E+00	 3.00000000E-01	 7.50000000E-01
					 5.00000000E-02	 3.00000000E-01	 7.50000000E-01
					 0.00000000E+00	 0.00000000E+00	 8.00000000E-01
					 5.00000000E-02	 0.00000000E+00	 8.00000000E-01
					 0.00000000E+00	 3.00000000E-01	 8.00000000E-01
					 5.00000000E-02	 3.00000000E-01	 8.00000000E-01
					 0.00000000E+00	 0.00000000E+00	 8.50000000E-01
					 5.00000000E-02	 0.00000000E+00	 8.50000000E-01
					 0.00000000E+00	 3.00000000E-01	 8.50000000E-01
					 5.00000000E-02	 3.00000000E-01	 8.50000000E-01
					 0.00000000E+00	 0.00000000E+00	 9.00000000E-01
					 5.00000000E-02	 0.00000000E+00	 9.00000000E-01
					 0.00000000E+00	 3.00000000E-01	 9.00000000E-01
					 5.00000000E-02	 3.00000000E-01	 9.00000000E-01
					 0.00000000E+00	 0.00000000E+00	 9.50000000E-01
					 5.00000000E-02	 0.00000000E+00	 9.50000000E-01
					 0.00000000E+00	 3.00000000E-01	 9.50000000E-01
					 5.00000000E-02	 3.00000000E-01	 9.50000000E-01
					 0.00000000E+00	 0.00000000E+00	 1.00000000E+00
					 5.00000000E-02	 0.00000000E+00	 1.00000000E+00
					 0.00000000E+00	 3.00000000E-01	 1.00000000E+00
					 5.00000000E-02	 3.00000000E-01	 1.00000000E+00
					-5.00000000E-02	 0.00000000E+00	 0.00000000E+00
					-5.00000000E-02	 0.00000000E+00	 5.00000000E-02
					-5.00000000E-02	 3.00000000E-01	 0.00000000E+00
					-5.00000000E-02	 3.00000000E-01	 5.00000000E-02
					-5.00000000E-02	 0.00000000E+00	 1.00000000E-01
					-5.00000000E-02	 3.00000000E-01	 1.00000000E-01
					-5.00000000E-02	 0.00000000E+00	 1.50000000E-01
					-5.00000000E-02	 3.00000000E-01	 1.50000000E-01
					-5.00000000E-02	 0.00000000E+00	 2.00000000E-01
					-5.00000000E-02	 3.00000000E-01	 2.00000000E-01
					-5.00000000E-02	 0.00000000E+00	 2.50000000E-01
					-5.00000000E-02	 3.00000000E-01	 2.50000000E-01
					-5.00000000E-02	 0.00000000E+00	 3.00000000E-01
					-5.00000000E-02	 3.00000000E-01	 3.00000000E-01
					-5.00000000E-02	 0.00000000E+00	 3.50000000E-01
					-5.00000000E-02	 3.00000000E-01	 3.50000000E-01
					-5.00000000E-02	 0.00000000E+00	 4.00000000E-01
					-5.00000000E-02	 3.00000000E-01	 4.00000000E-01
					-5.00000000E-02	 0.00000000E+00	 4.50000000E-01
					-5.00000000E-02	 3.00000000E-01	 4.50000000E-01
					-5.00000000E-02	 0.00000000E+00	 5.00000000E-01
					-5.00000000E-02	 3.00000000E-01	 5.00000000E-01
					-5.00000000E-02	 0.00000000E+00	 5.50000000E-01
					-5.00000000E-02	 3.00000000E-01	 5.50000000E-01
					-5.00000000E-02	 0.00000000E+00	 6.00000000E-01
					-5.00000000E-02	 3.00000000E-01	 6.00000000E-01
					-5.00000000E-02	 0.00000000E+00	 6.50000000E-01
					-5.00000000E-02	 3.00000000E-01	 6.50000000E-01
					-5.00000000E-02	 0.00000000E+00	 7.00000000E-01
					-5.00000000E-02	 3.00000000E-01	 7.00000000E-01
					-5.00000000E-02	 0.00000000E+00	 7.50000000E-01
					-5.00000000E-02	 3.00000000E-01	 7.50000000E-01
					-5.00000000E-02	 0.00000000E+00	 8.00000000E-01
					-5.00000000E-02	 3.00000000E-01	 8.00000000E-01
					-5.00000000E-02	 0.00000000E+00	 8.50000000E-01
					-5.00000000E-02	 3.00000000E-01	 8.50000000E-01
					-5.00000000E-02	 0.00000000E+00	 9.00000000E-01
					-5.00000000E-02	 3.00000000E-01	 9.00000000E-01
					-5.00000000E-02	 0.00000000E+00	 9.50000000E-01
					-5.00000000E-02	 3.00000000E-01	 9.50000000E-01
					-5.00000000E-02	 0.00000000E+00	 1.00000000E+00
					-5.00000000E-02	 3.00000000E-01	 1.00000000E+00
				</DataArray>
			</Points>
			<Cells>
				<DataArray type="Int32" Name="connectivity" format="ascii">
					0 1 2 3 4 5 6 7 3 2 8 9 7 6 10 11 9 8 12 13 11 10 14 15 13 12 16 17 15 14 18 19 17 16 20 21 19 18 22 23 21 20 24 25 23 22 26 27 25 24 28 29 27 26 30 31 29 28 32 33 31 30 34 35 33 32 36 37 35 34 38 39 37 36 40 41 39 38 42 43 41 40 44 45 43 42 46 47 45 44 48 49 47 46 50 51 49 48 52 53 51 50 54 55 53 52 56 57 55 54 58 59 57 56 60 61 59 58 62 63 61 60 64 65 63 62 66 67 65 64 68 69 67 66 70 71 69 68 72 73 71 70 74 75 73 72 76 77 75 74 78 79 77 76 80 81 79 78 82 83 1 84 85 2 5 86 87 6 2 85 88 8 6 87 89 10 8 88 90 12 10 89 91 14 12 90 92 16 14 91 93 18 16 92 94 20 18 93 95 22 20 94 96 24 22 95 97 26 24 96 98 28 26 97 99 30 28 98 100 32 30 99 101 34 32 100 102 36 34 101 103 38 36 102 104 40 38 103 105 42 40 104 106 44 42 105 107 46 44 106 108 48 46 107 109 50 48 108 110 52 50 109 111 54 52 110 112 56 54 111 113 58 56 112 114 60 58 113 115 62 60 114 116 64 62 115 117 66 64 116 118 68 66 117 119 70 68 118 120 72 70 119 121 74 72 120 122 76 74 121 123 78 76 122 124 80 78 123 125 82 
				</DataArray>
				<DataArray type="Int32" Name="offsets" format="ascii">
					8 16 24 32 40 48 56 64 72 80 88 96 104 112 120 128 136 144 152 160 168 176 184 192 200 208 216 224 232 240 248 256 264 272 280 288 296 304 312 320 
				</DataArray>
				<DataArray type="UInt8" Name="types" format="ascii">
					12 12 12 12 12 12 12 12 12 12 12 12 12 12 12 12 12 12 12 12 12 12 12 12 12 12 12 12 12 12 12 12 12 12 12 12 12 12 12 12 
				</DataArray>
			</Cells>
			<PointData>
				<DataArray type="Float32" Name="U" NumberOfComponents="3" ComponentName0="D1" ComponentName1="D2" ComponentName2="D3" format="ascii">
					 0.00000000E+00	 0.00000000E+00	 0.00000000E+00
					 0.00000000E+00	 0.00000000E+00	 0.00000000E+00
					 3.16464000E-03	 0.00000000E+00	 4.89683000E-03
					 5.97478000E-03	 0.00000000E+00	-1.32961000E-03
					 0.00000000E+00	 0.00000000E+00	 0.00000000E+00
					 0.00000000E+00	 0.00000000E+00	 0.00000000E+00
					 3.16464000E-03	 0.00000000E+00	 4.89683000E-03
					 5.97478000E-03	 0.00000000E+00	-1.32961000E-03
					 4.09738000E-03	 0.00000000E+00	-1.88618000E-03
					 2.65890000E-03	 0.00000000E+00	 4.03796000E-03
					 4.09738000E-03	 0.00000000E+00	-1.88618000E-03
					 2.65890000E-03	 0.00000000E+00	 4.03796000E-03
					-1.40956000E-03	 0.00000000E+00	 2.65933000E-03
					-3.73753000E-04	 0.00000000E+00	 1.80066000E-03
					-1.40956000E-03	 0.00000000E+00	 2.65933000E-03
					-3.73753000E-04	 0.00000000E+00	 1.80066000E-03
					 8.84640000E-03	 0.00000000E+00	 4.71048000E-03
					 9.37517000E-03	 0.00000000E+00	-3.75937000E-03
					 8.84640000E-03	 0.00000000E+00	 4.71048000E-03
					 9.37517000E-03	 0.00000000E+00	-3.75937000E-03
					 9.85398000E-03	 0.00000000E+00	-8.95635000E-04
					 7.34661000E-03	 0.00000000E+00	-1.50774000E-03
					 9.85398000E-03	 0.00000000E+00	-8.95635000E-04
					 7.34661000E-03	 0.00000000E+00	-1.50774000E-03
					 8.96103000E-03	 0.00000000E+00	 2.74735000E-04
					 8.14053000E-03	 0.00000000E+00	-4.63533000E-04
					 8.96103000E-03	 0.00000000E+00	 2.74735000E-04
					 8.14053000E-03	 0.00000000E+00	-4.63533000E-04
					 9.63091000E-03	 0.00000000E+00	 5.20234000E-04
					 8.78899000E-03	 0.00000000E+00	 2.33205000E-04
					 9.63091000E-03	 0.00000000E+00	 5.20234000E-04
					 8.78899000E-03	 0.00000000E+00	 2.33205000E-04
					 9.45116000E-03	 0.00000000E+00	 9.97446000E-05
					 8.79362000E-03	 0.00000000E+00	 5.82238000E-04
					 9.45116000E-03	 0.00000000E+00	 9.97446000E-05
					 8.79362000E-03	 0.00000000E+00	 5.82238000E-04
					 9.27634000E-03	 0.00000000E+00	 4.95665000E-06
					 8.22879000E-03	 0.00000000E+00	 6.99570000E-04
					 9.27634000E-03	 0.00000000E+00	 4.95665000E-06
					 8.22879000E-03	 0.00000000E+00	 6.99570000E-04
					 9.05288000E-03	 0.00000000E+00	 2.60513000E-04
					 7.13586000E-03	 0.00000000E+00	 4.10854000E-04
					 9.05288000E-03	 0.00000000E+00	 2.60513000E-04
					 7.13586000E-03	 0.00000000E+00	 4.10854000E-04
					 8.69747000E-03	 0.00000000E+00	 6.91669000E-04
					 7.60215000E-03	 0.00000000E+00	 5.80122000E-04
					 8.69747000E-03	 0.00000000E+00	 6.91669000E-04
					 7.60215000E-03	 0.00000000E+00	 5.80122000E-04
					 8.32180000E-03	 0.00000000E+00	 2.58312000E-04
					 7.68007000E-03	 0.00000000E+00	 8.52634000E-04
					 8.32180000E-03	 0.00000000E+00	 2.58312000E-04
					 7.68007000E-03	 0.00000000E+00	 8.52634000E-04
					 7.94298000E-03	 0.00000000E+00	 6.89762000E-04
					 6.58044000E-03	 0.00000000E+00	 1.06274000E-03
					 7.94298000E-03	 0.00000000E+00	 6.89762000E-04
					 6.58044000E-03	 0.00000000E+00	 1.06274000E-03
					 7.56593000E-03	 0.00000000E+00	 9.48283000E-04
					 6.81608000E-03	 0.00000000E+00	 1.50670000E-03
					 7.56593000E-03	 0.00000000E+00	 9.48283000E-04
					 6.81608000E-03	 0.00000000E+00	 1.50670000E-03
					 7.07393000E-03	 0.00000000E+00	 5.82036000E-04
					 6.36653000E-03	 0.00000000E+00	 1.78662000E-03
					 7.07393000E-03	 0.00000000E+00	 5.82036000E-04
					 6.36653000E-03	 0.00000000E+00	 1.78662000E-03
					 6.59689000E-03	 0.00000000E+00	 1.22495000E-03
					 5.24482000E-03	 0.00000000E+00	 1.47122000E-03
					 6.59689000E-03	 0.00000000E+00	 1.22495000E-03
					 5.24482000E-03	 0.00000000E+00	 1.47122000E-03
					 5.99622000E-03	 0.00000000E+00	 1.57991000E-03
					 5.02340000E-03	 0.00000000E+00	 1.37696000E-03
					 5.99622000E-03	 0.00000000E+00	 1.57991000E-03
					 5.02340000E-03	 0.00000000E+00	 1.37696000E-03
					 5.08936000E-03	 0.00000000E+00	 1.50136000E-03
					 5.11517000E-03	 0.00000000E+00	 1.35488000E-03
					 5.08936000E-03	 0.00000000E+00	 1.50136000E-03
					 5.11517000E-03	 0.00000000E+00	 1.35488000E-03
					 4.66570000E-03	 0.00000000E+00	 1.20239000E-03
					 4.16661000E-03	 0.00000000E+00	 1.78230000E-03
					 4.66570000E-03	 0.00000000E+00	 1.20239000E-03
					 4.16661000E-03	 0.00000000E+00	 1.78230000E-03
					 4.22043000E-03	 0.00000000E+00	 1.30392000E-03
					 3.41292000E-03	 0.00000000E+00	 1.11789000E-03
					 4.22043000E-03	 0.00000000E+00	 1.30392000E-03
					 3.41292000E-03	 0.00000000E+00	 1.11789000E-03
					 0.00000000E+00	 0.00000000E+00	 0.00000000E+00
					 1.02194000E-01	 0.00000000E+00	-1.47330000E-02
					 0.00000000E+00	 0.00000000E+00	 0.00000000E+00
					 1.02194000E-01	 0.00000000E+00	-1.47330000E-02
					 1.12993000E-01	 0.00000000E+00	 8.04388000E-03
					 1.12993000E-01	 0.00000000E+00	 8.04388000E-03
					 6.92908000E-02	 0.00000000E+00	 2.83352000E-03
					 6.92908000E-02	 0.00000000E+00	 2.83352000E-03
					 5.87182000E-03	 0.00000000E+00	 5.09959000E-03
					 5.87182000E-03	 0.00000000E+00	 5.09959000E-03
					 9.98198000E-03	 0.00000000E+00	-8.01453000E-04
					 9.98198000E-03	 0.00000000E+00	-8.01453000E-04
					 1.08787000E-02	 0.00000000E+00	-7.01833000E-04
					 1.08787000E-02	 0.00000000E+00	-7.01833000E-04
					 1.03034000E-02	 0.00000000E+00	 9.30886000E-04
					 1.03034000E-02	 0.00000000E+00	 9.30886000E-04
					 1.01718000E-02	 0.00000000E+00	 4.01803000E-04
					 1.01718000E-02	 0.00000000E+00	 4.01803000E-04
					 1.04602000E-02	 0.00000000E+00	 3.42068000E-04
					 1.04602000E-02	 0.00000000E+00	 3.42068000E-04
					 1.10584000E-02	 0.00000000E+00	-1.22421000E-04
					 1.10584000E-02	 0.00000000E+00	-1.22421000E-04
					 9.90555000E-03	 0.00000000E+00	-5.66363000E-05
					 9.90555000E-03	 0.00000000E+00	-5.66363000E-05
					 9.04954000E-03	 0.00000000E+00	 1.34417000E-04
					 9.04954000E-03	 0.00000000E+00	 1.34417000E-04
					 9.38154000E-03	 0.00000000E+00	 3.13596000E-04
					 9.38154000E-03	 0.00000000E+00	 3.13596000E-04
					 8.43059000E-03	 0.00000000E+00	 6.69155000E-04
					 8.43059000E-03	 0.00000000E+00	 6.69155000E-04
					 7.88044000E-03	 0.00000000E+00	 8.79342000E-04
					 7.88044000E-03	 0.00000000E+00	 8.79342000E-04
					 8.00598000E-03	 0.00000000E+00	 3.90211000E-04
					 8.00598000E-03	 0.00000000E+00	 3.90211000E-04
					 7.11899000E-03	 0.00000000E+00	 4.99526000E-05
					 7.11899000E-03	 0.00000000E+00	 4.99526000E-05
					 5.33468000E-03	 0.00000000E+00	 2.87427000E-04
					 5.33468000E-03	 0.00000000E+00	 2.87427000E-04
					 5.22991000E-03	 0.00000000E+00	 1.10787000E-03
					 5.22991000E-03	 0.00000000E+00	 1.10787000E-03
					 5.52074000E-03	 0.00000000E+00	 8.12153000E-04
					 5.52074000E-03	 0.00000000E+00	 8.12153000E-04
				</DataArray>
			</PointData>
		</Piece>
	</UnstructuredGrid>
</VTKFile>