<?xml version="1.0"?>
<VTKFile type="UnstructuredGrid" version="0.1" byte_order="LittleEndian">
	<UnstructuredGrid>
		<Piece NumberOfPoints="126" NumberOfCells="40">
			<Points>
				<DataArray type="Float64" NumberOfComponents="3" format="ascii">
					 5.00000000E-02	 0.00000000E+00	 0.00000000E+00
					 0.00000000E+00	 0.00000000E+00	 0.00000000E+00
					 0.00000000E+00	 0.00000000E+00	 5.00000000E-02
					 5.00000000E-02	 0.00000000E+00	 5.00000000E-02
					 5.00000000E-02	 3.00000000E-01	 0.00000000E+00
					 0.00000000E+00	 3.00000000E-01	 0.00000000E+00
					 0.00000000E+00	 3.00000000E-01	 5.00000000E-02
					 5.00000000E-02	 3.00000000E-01	 5.00000000E-02
					 0.00000000E+00	 0.00000000E+00	 1.00000000E-01
					 5.00000000E-02	 0.00000000E+00	 1.00000000E-01
					 0.00000000E+00	 3.00000000E-01	 1.00000000E-01
					 5.00000000E-02	 3.00000000E-01	 1.00000000E-01
					 0.00000000E+00	 0.00000000E+00	 1.50000000E-01
					 5.00000000E-02	 0.00000000E+00	 1.50000000E-01
					 0.00000000E+00	 3.00000000E-01	 1.50000000E-01
					 5.00000000E-02	 3.00000000E-01	 1.50000000E-01
					 0.00000000E+00	 0.00000000E+00	 2.00000000E-01
					 5.00000000E-02	 0.00000000E+00	 2.00000000E-01
					 0.00000000E+00	 3.00000000E-01	 2.00000000E-01
					 5.00000000E-02	 3.00000000E-01	 2.00000000E-01
					 0.00000000E+00	 0.00000000E+00	 2.50000000E-01
					 5.00000000E-02	 0.00000000E+00	 2.50000000E-01
					 0.00000000E+00	 3.00000000E-01	 2.50000000E-01
					 5.00000000E-02	 3.00000000E-01	 2.50000000E-01
					 0.00000000E+00	 0.00000000E+00	 3.00000000E-01
					 5.00000000E-02	 0.00000000E+00	 3.00000000E-01
					 0.00000000E+00	 3.00000000E-01	 3.00000000E-01
					 5.00000000E-02	 3.00000000E-01	 3.00000000E-01
					 0.00000000E+00	 0.00000000E+00	 3.50000000E-01
					 5.00000000E-02	 0.00000000E+00	 3.50000000E-01
					 0.00000000E+00	 3.00000000E-01	 3.50000000E-01
					 5.00000000E-02	 3.00000000E-01	 3.50000000E-01
					 0.00000000E+00	 0.00000000E+00	 4.00000000E-01
					 5.00000000E-02	 0.00000000E+00	 4.00000000E-01
					 0.00000000E+00	 3.00000000E-01	 4.00000000E-01
					 5.00000000E-02	 3.00000000E-01	 4.00000000E-01
					 0.00000000E+00	 0.00000000E+00	 4.50000000E-01
					 5.00000000E-02	 0.00000000E+00	 4.50000000E-01
					 0.00000000E+00	 3.00000000E-01	 4.50000000E-01
					 5.00000000E-02	 3.00000000E-01	 4.50000000E-01
					 0.00000000E+00	 0.00000000E+00	 5.00000000E-01
					 5.00000000E-02	 0.00000000E+00	 5.00000000E-01
					 0.00000000E+00	 3.00000000E-01	 5.00000000E-01
					 5.00000000E-02	 3.00000000E-01	 5.00000000E-01
					 0.00000000E+00	 0.00000000E+00	 5.50000000E-01
					 5.00000000E-02	 0.00000000E+00	 5.50000000E-01
					 0.00000000E+00	 3.00000000E-01	 5.50000000E-01
					 5.00000000E-02	 3.00000000E-01	 5.50000000E-01
					 0.00000000E+00	 0.00000000E+00	 6.00000000E-01
					 5.00000000E-02	 0.00000000E+00	 6.00000000E-01
					 0.00000000E+00	 3.00000000E-01	 6.00000000E-01
					 5.00000000E-02	 3.00000000E-01	 6.00000000E-01
					 0.00000000E+00	 0.00000000E+00	 6.50000000E-01
					 5.00000000E-02	 0.00000000E+00	 6.50000000E-01
					 0.00000000E+00	 3.00000000E-01	 6.50000000E-01
					 5.00000000E-02	 3.00000000E-01	 6.50000000E-01
					 0.00000000E+00	 0.00000000E+00	 7.00000000E-01
					 5.00000000E-02	 0.00000000E+00	 7.00000000E-01
					 0.00000000E+00	 3.00000000E-01	 7.00000000E-01
					 5.00000000E-02	 3.00000000E-01	 7.00000000E-01
					 0.00000000E+00	 0.00000000E+00	 7.50000000E-01
					 5.00000000E-02	 0.00000000E+00	 7.50000000E-01
					 0.00000000E+00	 3.00000000E-01	 7.50000000E-01
					 5.00000000E-02	 3.00000000E-01	 7.50000000E-01
					 0.00000000E+00	 0.00000000E+00	 8.00000000E-01
					 5.00000000E-02	 0.00000000E+00	 8.00000000E-01
					 0.00000000E+00	 3.00000000E-01	 8.00000000E-01
					 5.00000000E-02	 3.00000000E-01	 8.00000000E-01
					 0.00000000E+00	 0.00000000E+00	 8.50000000E-01
					 5.00000000E-02	 0.00000000E+00	 8.50000000E-01
					 0.00000000E+00	 3.00000000E-01	 8.50000000E-01
					 5.00000000E-02	 3.00000000E-01	 8.50000000E-01
					 0.00000000E+00	 0.00000000E+00	 9.00000000E-01
					 5.00000000E-02	 0.00000000E+00	 9.00000000E-01
					 0.00000000E+00	 3.00000000E-01	 9.00000000E-01
					 5.00000000E-02	 3.00000000E-01	 9.00000000E-01
					 0.00000000E+00	 0.00000000E+00	 9.50000000E-01
					 5.00000000E-02	 0.00000000E+00	 9.50000000E-01
					 0.00000000E+00	 3.00000000E-01	 9.50000000E-01
					 5.00000000E-02	 3.00000000E-01	 9.50000000E-01
					 0.00000000E+00	 0.00000000E+00	 1.00000000E+00
					 5.00000000E-02	 0.00000000E+00	 1.00000000E+00
					 0.00000000E+00	 3.00000000E-01	 1.00000000E+00
					 5.00000000E-02	 3.00000000E-01	 1.00000000E+00
					-5.00000000E-02	 0.00000000E+00	 0.00000000E+00
					-5.00000000E-02	 0.00000000E+00	 5.00000000E-02
					-5.00000000E-02	 3.00000000E-01	 0.00000000E+00
					-5.00000000E-02	 3.00000000E-01	 5.00000000E-02
					-5.00000000E-02	 0.00000000E+00	 1.00000000E-01
					-5.00000000E-02	 3.00000000E-01	 1.00000000E-01
					-5.00000000E-02	 0.00000000E+00	 1.50000000E-01
					-5.00000000E-02	 3.00000000E-01	 1.50000000E-01
					-5.00000000E-02	 0.00000000E+00	 2.00000000E-01
					-5.00000000E-02	 3.00000000E-01	 2.00000000E-01
					-5.00000000E-02	 0.00000000E+00	 2.50000000E-01
					-5.00000000E-02	 3.00000000E-01	 2.50000000E-01
					-5.00000000E-02	 0.00000000E+00	 3.00000000E-01
					-5.00000000E-02	 3.00000000E-01	 3.00000000E-01
					-5.00000000E-02	 0.00000000E+00	 3.50000000E-01
					-5.00000000E-02	 3.00000000E-01	 3.50000000E-01
					-5.00000000E-02	 0.00000000E+00	 4.00000000E-01
					-5.00000000E-02	 3.00000000E-01	 4.00000000E-01
					-5.00000000E-02	 0.00000000E+00	 4.50000000E-01
					-5.00000000E-02	 3.00000000E-01	 4.50000000E-01
					-5.00000000E-02	 0.00000000E+00	 5.00000000E-01
					-5.00000000E-02	 3.00000000E-01	 5.00000000E-01
					-5.00000000E-02	 0.00000000E+00	 5.50000000E-01
					-5.00000000E-02	 3.00000000E-01	 5.50000000E-01
					-5.00000000E-02	 0.00000000E+00	 6.00000000E-01
					-5.00000000E-02	 3.00000000E-01	 6.00000000E-01
					-5.00000000E-02	 0.00000000E+00	 6.50000000E-01
					-5.00000000E-02	 3.00000000E-01	 6.50000000E-01
					-5.00000000E-02	 0.00000000E+00	 7.00000000E-01
					-5.00000000E-02	 3.00000000E-01	 7.00000000E-01
					-5.00000000E-02	 0.00000000E+00	 7.50000000E-01
					-5.00000000E-02	 3.00000000E-01	 7.50000000E-01
					-5.00000000E-02	 0.00000000E+00	 8.00000000E-01
					-5.00000000E-02	 3.00000000E-01	 8.00000000E-01
					-5.00000000E-02	 0.00000000E+00	 8.50000000E-01
					-5.00000000E-02	 3.00000000E-01	 8.50000000E-01
					-5.00000000E-02	 0.00000000E+00	 9.00000000E-01
					-5.00000000E-02	 3.00000000E-01	 9.00000000E-01
					-5.00000000E-02	 0.00000000E+00	 9.50000000E-01
					-5.00000000E-02	 3.00000000E-01	 9.50000000E-01
					-5.00000000E-02	 0.00000000E+00	 1.00000000E+00
					-5.00000000E-02	 3.00000000E-01	 1.00000000E+00
				</DataArray>
			</Points>
			<Cells>
				<DataArray type="Int32" Name="connectivity" format="ascii">
					0 1 2 3 4 5 6 7 3 2 8 9 7 6 10 11 9 8 12 13 11 10 14 15 13 12 16 17 15 14 18 19 17 16 20 21 19 18 22 23 21 20 24 25 23 22 26 27 25 24 28 29 27 26 30 31 29 28 32 33 31 30 34 35 33 32 36 37 35 34 38 39 37 36 40 41 39 38 42 43 41 40 44 45 43 42 46 47 45 44 48 49 47 46 50 51 49 48 52 53 51 50 54 55 53 52 56 57 55 54 58 59 57 56 60 61 59 58 62 63 61 60 64 65 63 62 66 67 65 64 68 69 67 66 70 71 69 68 72 73 71 70 74 75 73 72 76 77 75 74 78 79 77 76 80 81 79 78 82 83 1 84 85 2 5 86 87 6 2 85 88 8 6 87 89 10 8 88 90 12 10 89 91 14 12 90 92 16 14 91 93 18 16 92 94 20 18 93 95 22 20 94 96 24 22 95 97 26 24 96 98 28 26 97 99 30 28 98 100 32 30 99 101 34 32 100 102 36 34 101 103 38 36 102 104 40 38 103 105 42 40 104 106 44 42 105 107 46 44 106 108 48 46 107 109 50 48 108 110 52 50 109 111 54 52 110 112 56 54 111 113 58 56 112 114 60 58 113 115 62 60 114 116 64 62 115 117 66 64 116 118 68 66 117 119 70 68 118 120 72 70 119 121 74 72 120 122 76 74 121 123 78 76 122 124 80 78 123 125 82 
				</DataArray>
				<DataArray type="Int32" Name="offsets" format="ascii">
					8 16 24 32 40 48 56 64 72 80 88 96 104 112 120 128 136 144 152 160 168 176 184 192 200 208 216 224 232 240 248 256 264 272 280 288 296 304 312 320 
				</DataArray>
				<DataArray type="UInt8" Name="types" format="ascii">
					12 12 12 12 12 12 12 12 12 12 12 12 12 12 12 12 12 12 12 12 12 12 12 12 12 12 12 12 12 12 12 12 12 12 12 12 12 12 12 12 
				</DataArray>
			</Cells>
			<PointData>
				<DataArray type="Float32" Name="U" NumberOfComponents="3" ComponentName0="D1" ComponentName1="D2" ComponentName2="D3" format="ascii">
					 0.00000000E+00	 0.00000000E+00	 0.00000000E+00
					 0.00000000E+00	 0.00000000E+00	 0.00000000E+00
					-1.40780000E-03	 0.00000000E+00	-5.64640000E-03
					-1.72580000E-02	 0.00000000E+00	-3.27630000E-02
					 0.00000000E+00	 0.00000000E+00	 0.00000000E+00
					 0.00000000E+00	 0.00000000E+00	 0.00000000E+00
					-1.40780000E-03	 0.00000000E+00	-5.64640000E-03
					-1.72580000E-02	 0.00000000E+00	-3.27630000E-02
					 4.89397000E-02	 0.00000000E+00	-2.03344000E-02
					 3.16168000E-02	 0.00000000E+00	-4.89009000E-02
					 4.89397000E-02	 0.00000000E+00	-2.03344000E-02
					 3.16168000E-02	 0.00000000E+00	-4.89009000E-02
					 8.16604000E-02	 0.00000000E+00	-8.91268000E-03
					 6.73801000E-02	 0.00000000E+00	-5.29932000E-02
					 8.16604000E-02	 0.00000000E+00	-8.91268000E-03
					 6.73801000E-02	 0.00000000E+00	-5.29932000E-02
					 1.27048000E-01	 0.00000000E+00	-2.73142000E-02
					 2.23796000E-02	 0.00000000E+00	-2.63960000E-02
					 1.27048000E-01	 0.00000000E+00	-2.73142000E-02
					 2.23796000E-02	 0.00000000E+00	-2.63960000E-02
					 1.48895000E-01	 0.00000000E+00	-3.36357000E-02
					 3.43700000E-02	 0.00000000E+00	-2.08202000E-02
					 1.48895000E-01	 0.00000000E+00	-3.36357000E-02
					 3.43700000E-02	 0.00000000E+00	-2.08202000E-02
					 1.57567000E-01	 0.00000000E+00	-3.19034000E-02
					 5.71419000E-02	 0.00000000E+00	-8.41135000E-03
					 1.57567000E-01	 0.00000000E+00	-3.19034000E-02
					 5.71419000E-02	 0.00000000E+00	-8.41135000E-03
					 1.80555000E-01	 0.00000000E+00	-2.70288000E-02
					 6.85954000E-02	 0.00000000E+00	-2.09173000E-02
					 1.80555000E-01	 0.00000000E+00	-2.70288000E-02
					 6.85954000E-02	 0.00000000E+00	-2.09173000E-02
					 1.62970000E-01	 0.00000000E+00	-3.32224000E-02
					 9.16363000E-02	 0.00000000E+00	-3.26529000E-02
					 1.62970000E-01	 0.00000000E+00	-3.32224000E-02
					 9.16363000E-02	 0.00000000E+00	-3.26529000E-02
					 1.30365000E-01	 0.00000000E+00	-4.57872000E-02
					 3.06907000E-02	 0.00000000E+00	-6.55111000E-02
					 1.30365000E-01	 0.00000000E+00	-4.57872000E-02
					 3.06907000E-02	 0.00000000E+00	-6.55111000E-02
					 1.18371000E-01	 0.00000000E+00	-4.43828000E-02
					 1.23242000E-02	 0.00000000E+00	-5.29686000E-02
					 1.18371000E-01	 0.00000000E+00	-4.43828000E-02
					 1.23242000E-02	 0.00000000E+00	-5.29686000E-02
					 9.23476000E-02	 0.00000000E+00	-3.46040000E-02
					-1.36619000E-02	 0.00000000E+00	-7.89608000E-02
					 9.23476000E-02	 0.00000000E+00	-3.46040000E-02
					-1.36619000E-02	 0.00000000E+00	-7.89608000E-02
					 2.93405000E-02	 0.00000000E+00	-5.11029000E-02
					-1.82129000E-02	 0.00000000E+00	-6.83445000E-02
					 2.93405000E-02	 0.00000000E+00	-5.11029000E-02
					-1.82129000E-02	 0.00000000E+00	-6.83445000E-02
					 1.09029000E-02	 0.00000000E+00	-4.27447000E-02
					-4.05238000E-02	 0.00000000E+00	-6.86489000E-02
					 1.09029000E-02	 0.00000000E+00	-4.27447000E-02
					-4.05238000E-02	 0.00000000E+00	-6.86489000E-02
					-4.31129000E-03	 0.00000000E+00	-3.71607000E-02
					-4.29068000E-03	 0.00000000E+00	-6.57006000E-02
					-4.31129000E-03	 0.00000000E+00	-3.71607000E-02
					-4.29068000E-03	 0.00000000E+00	-6.57006000E-02
					 4.22141000E-02	 0.00000000E+00	-4.10488000E-02
					 9.58656000E-03	 0.00000000E+00	-4.91466000E-02
					 4.22141000E-02	 0.00000000E+00	-4.10488000E-02
					 9.58656000E-03	 0.00000000E+00	-4.91466000E-02
					 2.97767000E-02	 0.00000000E+00	-2.79880000E-02
					 3.82659000E-02	 0.00000000E+00	-3.22600000E-02
					 2.97767000E-02	 0.00000000E+00	-2.79880000E-02
					 3.82659000E-02	 0.00000000E+00	-3.22600000E-02
					 3.09166000E-02	 0.00000000E+00	-3.04661000E-02
					 1.46556000E-02	 0.00000000E+00	-2.80690000E-02
					 3.09166000E-02	 0.00000000E+00	-3.04661000E-02
					 1.46556000E-02	 0.00000000E+00	-2.80690000E-02
					 2.78395000E-02	 0.00000000E+00	-2.12843000E-02
					 1.85633000E-02	 0.00000000E+00	-2.53648000E-02
					 2.78395000E-02	 0.00000000E+00	-2.12843000E-02
					 1.85633000E-02	 0.00000000E+00	-2.53648000E-02
					 2.76671000E-02	 0.00000000E+00	-8.66404000E-03
					 2.89540000E-02	 0.00000000E+00	-1.26370000E-02
					 2.76671000E-02	 0.00000000E+00	-8.66404000E-03
					 2.89540000E-02	 0.00000000E+00	-1.26370000E-02
					 2.94178000E-02	 0.00000000E+00	-1.70204000E-02
					 1.64784000E-02	 0.00000000E+00	-4.07825000E-03
					 2.94178000E-02	 0.00000000E+00	-1.70204000E-02
					 1.64784000E-02	 0.00000000E+00	-4.07825000E-03
					 0.00000000E+00	 0.00000000E+00	 0.00000000E+00
					 3.42015000E-02	 0.00000000E+00	 1.16315000E-02
					 0.00000000E+00	 0.00000000E+00	 0.00000000E+00
					 3.42015000E-02	 0.00000000E+00	 1.16315000E-02
					 9.23560000E-02	 0.00000000E+00	 9.23952000E-03
					 9.23560000E-02	 0.00000000E+00	 9.23952000E-03
					 1.62840000E-01	 0.00000000E+00	-4.77380000E-02
					 1.62840000E-01	 0.00000000E+00	-4.77380000E-02
					 2.08806000E-01	 0.00000000E+00	-6.03193000E-02
					 2.08806000E-01	 0.00000000E+00	-6.03193000E-02
					 2.51536000E-01	 0.00000000E+00	-6.06784000E-02
					 2.51536000E-01	 0.00000000E+00	-6.06784000E-02
					 2.64274000E-01	 0.00000000E+00	-5.50123000E-02
					 2.64274000E-01	 0.00000000E+00	-5.50123000E-02
					 2.61239000E-01	 0.00000000E+00	-3.02272000E-02
					 2.61239000E-01	 0.00000000E+00	-3.02272000E-02
					 2.48494000E-01	 0.00000000E+00	-2.99027000E-02
					 2.48494000E-01	 0.00000000E+00	-2.99027000E-02
					 2.13486000E-01	 0.00000000E+00	-2.30273000E-02
					 2.13486000E-01	 0.00000000E+00	-2.30273000E-02
					 1.56064000E-01	 0.00000000E+00	-2.46146000E-02
					 1.56064000E-01	 0.00000000E+00	-2.46146000E-02
					 1.68204000E-01	 0.00000000E+00	-2.68058000E-02
					 1.68204000E-01	 0.00000000E+00	-2.68058000E-02
					 1.23072000E-01	 0.00000000E+00	-1.70779000E-02
					 1.23072000E-01	 0.00000000E+00	-1.70779000E-02
					 1.00441000E-01	 0.00000000E+00	-4.25890000E-02
					 1.00441000E-01	 0.00000000E+00	-4.25890000E-02
					 9.61383000E-02	 0.00000000E+00	-5.79041000E-02
					 9.61383000E-02	 0.00000000E+00	-5.79041000E-02
					 9.83004000E-02	 0.00000000E+00	-2.74474000E-02
					 9.83004000E-02	 0.00000000E+00	-2.74474000E-02
					 3.76135000E-02	 0.00000000E+00	-3.90313000E-02
					 3.76135000E-02	 0.00000000E+00	-3.90313000E-02
					 4.11796000E-02	 0.00000000E+00	-2.16118000E-02
					 4.11796000E-02	 0.00000000E+00	-2.16118000E-02
					 3.81608000E-02	 0.00000000E+00	-2.13886000E-02
					 3.81608000E-02	 0.00000000E+00	-2.13886000E-02
					 2.15091000E-02	 0.00000000E+00	-1.51365000E-02
					 2.15091000E-02	 0.00000000E+00	-1.51365000E-02
					 3.36359000E-02	 0.00000000E+00	-1.62846000E-02
					 3.36359000E-02	 0.00000000E+00	-1.62846000E-02
				</DataArray>
			</PointData>
		</Piece>
	</UnstructuredGrid>
</VTKFile>