<?xml version="1.0"?>
<VTKFile type="UnstructuredGrid" version="0.1" byte_order="LittleEndian">
	<UnstructuredGrid>
		<Piece NumberOfPoints="126" NumberOfCells="40">
			<Points>
				<DataArray type="Float64" NumberOfComponents="3" format="ascii">
					 5.00000000E-02	 0.00000000E+00	 0.00000000E+00
					 0.00000000E+00	 0.00000000E+00	 0.00000000E+00
					 0.00000000E+00	 0.00000000E+00	 5.00000000E-02
					 5.00000000E-02	 0.00000000E+00	 5.00000000E-02
					 5.00000000E-02	 3.00000000E-01	 0.00000000E+00
					 0.00000000E+00	 3.00000000E-01	 0.00000000E+00
					 0.00000000E+00	 3.00000000E-01	 5.00000000E-02
					 5.00000000E-02	 3.00000000E-01	 5.00000000E-02
					 0.00000000E+00	 0.00000000E+00	 1.00000000E-01
					 5.00000000E-02	 0.00000000E+00	 1.00000000E-01
					 0.00000000E+00	 3.00000000E-01	 1.00000000E-01
					 5.00000000E-02	 3.00000000E-01	 1.00000000E-01
					 0.00000000E+00	 0.00000000E+00	 1.50000000E-01
					 5.00000000E-02	 0.00000000E+00	 1.50000000E-01
					 0.00000000E+00	 3.00000000E-01	 1.50000000E-01
					 5.00000000E-02	 3.00000000E-01	 1.50000000E-01
					 0.00000000E+00	 0.00000000E+00	 2.00000000E-01
					 5.00000000E-02	 0.00000000E+00	 2.00000000E-01
					 0.00000000E+00	 3.00000000E-01	 2.00000000E-01
					 5.00000000E-02	 3.00000000E-01	 2.00000000E-01
					 0.00000000E+00	 0.00000000E+00	 2.50000000E-01
					 5.00000000E-02	 0.00000000E+00	 2.50000000E-01
					 0.00000000E+00	 3.00000000E-01	 2.50000000E-01
					 5.00000000E-02	 3.00000000E-01	 2.50000000E-01
					 0.00000000E+00	 0.00000000E+00	 3.00000000E-01
					 5.00000000E-02	 0.00000000E+00	 3.00000000E-01
					 0.00000000E+00	 3.00000000E-01	 3.00000000E-01
					 5.00000000E-02	 3.00000000E-01	 3.00000000E-01
					 0.00000000E+00	 0.00000000E+00	 3.50000000E-01
					 5.00000000E-02	 0.00000000E+00	 3.50000000E-01
					 0.00000000E+00	 3.00000000E-01	 3.50000000E-01
					 5.00000000E-02	 3.00000000E-01	 3.50000000E-01
					 0.00000000E+00	 0.00000000E+00	 4.00000000E-01
					 5.00000000E-02	 0.00000000E+00	 4.00000000E-01
					 0.00000000E+00	 3.00000000E-01	 4.00000000E-01
					 5.00000000E-02	 3.00000000E-01	 4.00000000E-01
					 0.00000000E+00	 0.00000000E+00	 4.50000000E-01
					 5.00000000E-02	 0.00000000E+00	 4.50000000E-01
					 0.00000000E+00	 3.00000000E-01	 4.50000000E-01
					 5.00000000E-02	 3.00000000E-01	 4.50000000E-01
					 0.00000000E+00	 0.00000000E+00	 5.00000000E-01
					 5.00000000E-02	 0.00000000E+00	 5.00000000E-01
					 0.00000000E+00	 3.00000000E-01	 5.00000000E-01
					 5.00000000E-02	 3.00000000E-01	 5.00000000E-01
					 0.00000000E+00	 0.00000000E+00	 5.50000000E-01
					 5.00000000E-02	 0.00000000E+00	 5.50000000E-01
					 0.00000000E+00	 3.00000000E-01	 5.50000000E-01
					 5.00000000E-02	 3.00000000E-01	 5.50000000E-01
					 0.00000000E+00	 0.00000000E+00	 6.00000000E-01
					 5.00000000E-02	 0.00000000E+00	 6.00000000E-01
					 0.00000000E+00	 3.00000000E-01	 6.00000000E-01
					 5.00000000E-02	 3.00000000E-01	 6.00000000E-01
					 0.00000000E+00	 0.00000000E+00	 6.50000000E-01
					 5.00000000E-02	 0.00000000E+00	 6.50000000E-01
					 0.00000000E+00	 3.00000000E-01	 6.50000000E-01
					 5.00000000E-02	 3.00000000E-01	 6.50000000E-01
					 0.00000000E+00	 0.00000000E+00	 7.00000000E-01
					 5.00000000E-02	 0.00000000E+00	 7.00000000E-01
					 0.00000000E+00	 3.00000000E-01	 7.00000000E-01
					 5.00000000E-02	 3.00000000E-01	 7.00000000E-01
					 0.00000000E+00	 0.00000000E+00	 7.50000000E-01
					 5.00000000E-02	 0.00000000E+00	 7.50000000E-01
					 0.00000000E+00	 3.00000000E-01	 7.50000000E-01
					 5.00000000E-02	 3.00000000E-01	 7.50000000E-01
					 0.00000000E+00	 0.00000000E+00	 8.00000000E-01
					 5.00000000E-02	 0.00000000E+00	 8.00000000E-01
					 0.00000000E+00	 3.00000000E-01	 8.00000000E-01
					 5.00000000E-02	 3.00000000E-01	 8.00000000E-01
					 0.00000000E+00	 0.00000000E+00	 8.50000000E-01
					 5.00000000E-02	 0.00000000E+00	 8.50000000E-01
					 0.00000000E+00	 3.00000000E-01	 8.50000000E-01
					 5.00000000E-02	 3.00000000E-01	 8.50000000E-01
					 0.00000000E+00	 0.00000000E+00	 9.00000000E-01
					 5.00000000E-02	 0.00000000E+00	 9.00000000E-01
					 0.00000000E+00	 3.00000000E-01	 9.00000000E-01
					 5.00000000E-02	 3.00000000E-01	 9.00000000E-01
					 0.00000000E+00	 0.00000000E+00	 9.50000000E-01
					 5.00000000E-02	 0.00000000E+00	 9.50000000E-01
					 0.00000000E+00	 3.00000000E-01	 9.50000000E-01
					 5.00000000E-02	 3.00000000E-01	 9.50000000E-01
					 0.00000000E+00	 0.00000000E+00	 1.00000000E+00
					 5.00000000E-02	 0.00000000E+00	 1.00000000E+00
					 0.00000000E+00	 3.00000000E-01	 1.00000000E+00
					 5.00000000E-02	 3.00000000E-01	 1.00000000E+00
					-5.00000000E-02	 0.00000000E+00	 0.00000000E+00
					-5.00000000E-02	 0.00000000E+00	 5.00000000E-02
					-5.00000000E-02	 3.00000000E-01	 0.00000000E+00
					-5.00000000E-02	 3.00000000E-01	 5.00000000E-02
					-5.00000000E-02	 0.00000000E+00	 1.00000000E-01
					-5.00000000E-02	 3.00000000E-01	 1.00000000E-01
					-5.00000000E-02	 0.00000000E+00	 1.50000000E-01
					-5.00000000E-02	 3.00000000E-01	 1.50000000E-01
					-5.00000000E-02	 0.00000000E+00	 2.00000000E-01
					-5.00000000E-02	 3.00000000E-01	 2.00000000E-01
					-5.00000000E-02	 0.00000000E+00	 2.50000000E-01
					-5.00000000E-02	 3.00000000E-01	 2.50000000E-01
					-5.00000000E-02	 0.00000000E+00	 3.00000000E-01
					-5.00000000E-02	 3.00000000E-01	 3.00000000E-01
					-5.00000000E-02	 0.00000000E+00	 3.50000000E-01
					-5.00000000E-02	 3.00000000E-01	 3.50000000E-01
					-5.00000000E-02	 0.00000000E+00	 4.00000000E-01
					-5.00000000E-02	 3.00000000E-01	 4.00000000E-01
					-5.00000000E-02	 0.00000000E+00	 4.50000000E-01
					-5.00000000E-02	 3.00000000E-01	 4.50000000E-01
					-5.00000000E-02	 0.00000000E+00	 5.00000000E-01
					-5.00000000E-02	 3.00000000E-01	 5.00000000E-01
					-5.00000000E-02	 0.00000000E+00	 5.50000000E-01
					-5.00000000E-02	 3.00000000E-01	 5.50000000E-01
					-5.00000000E-02	 0.00000000E+00	 6.00000000E-01
					-5.00000000E-02	 3.00000000E-01	 6.00000000E-01
					-5.00000000E-02	 0.00000000E+00	 6.50000000E-01
					-5.00000000E-02	 3.00000000E-01	 6.50000000E-01
					-5.00000000E-02	 0.00000000E+00	 7.00000000E-01
					-5.00000000E-02	 3.00000000E-01	 7.00000000E-01
					-5.00000000E-02	 0.00000000E+00	 7.50000000E-01
					-5.00000000E-02	 3.00000000E-01	 7.50000000E-01
					-5.00000000E-02	 0.00000000E+00	 8.00000000E-01
					-5.00000000E-02	 3.00000000E-01	 8.00000000E-01
					-5.00000000E-02	 0.00000000E+00	 8.50000000E-01
					-5.00000000E-02	 3.00000000E-01	 8.50000000E-01
					-5.00000000E-02	 0.00000000E+00	 9.00000000E-01
					-5.00000000E-02	 3.00000000E-01	 9.00000000E-01
					-5.00000000E-02	 0.00000000E+00	 9.50000000E-01
					-5.00000000E-02	 3.00000000E-01	 9.50000000E-01
					-5.00000000E-02	 0.00000000E+00	 1.00000000E+00
					-5.00000000E-02	 3.00000000E-01	 1.00000000E+00
				</DataArray>
			</Points>
			<Cells>
				<DataArray type="Int32" Name="connectivity" format="ascii">
					0 1 2 3 4 5 6 7 3 2 8 9 7 6 10 11 9 8 12 13 11 10 14 15 13 12 16 17 15 14 18 19 17 16 20 21 19 18 22 23 21 20 24 25 23 22 26 27 25 24 28 29 27 26 30 31 29 28 32 33 31 30 34 35 33 32 36 37 35 34 38 39 37 36 40 41 39 38 42 43 41 40 44 45 43 42 46 47 45 44 48 49 47 46 50 51 49 48 52 53 51 50 54 55 53 52 56 57 55 54 58 59 57 56 60 61 59 58 62 63 61 60 64 65 63 62 66 67 65 64 68 69 67 66 70 71 69 68 72 73 71 70 74 75 73 72 76 77 75 74 78 79 77 76 80 81 79 78 82 83 1 84 85 2 5 86 87 6 2 85 88 8 6 87 89 10 8 88 90 12 10 89 91 14 12 90 92 16 14 91 93 18 16 92 94 20 18 93 95 22 20 94 96 24 22 95 97 26 24 96 98 28 26 97 99 30 28 98 100 32 30 99 101 34 32 100 102 36 34 101 103 38 36 102 104 40 38 103 105 42 40 104 106 44 42 105 107 46 44 106 108 48 46 107 109 50 48 108 110 52 50 109 111 54 52 110 112 56 54 111 113 58 56 112 114 60 58 113 115 62 60 114 116 64 62 115 117 66 64 116 118 68 66 117 119 70 68 118 120 72 70 119 121 74 72 120 122 76 74 121 123 78 76 122 124 80 78 123 125 82 
				</DataArray>
				<DataArray type="Int32" Name="offsets" format="ascii">
					8 16 24 32 40 48 56 64 72 80 88 96 104 112 120 128 136 144 152 160 168 176 184 192 200 208 216 224 232 240 248 256 264 272 280 288 296 304 312 320 
				</DataArray>
				<DataArray type="UInt8" Name="types" format="ascii">
					12 12 12 12 12 12 12 12 12 12 12 12 12 12 12 12 12 12 12 12 12 12 12 12 12 12 12 12 12 12 12 12 12 12 12 12 12 12 12 12 
				</DataArray>
			</Cells>
			<PointData>
				<DataArray type="Float32" Name="U" NumberOfComponents="3" ComponentName0="D1" ComponentName1="D2" ComponentName2="D3" format="ascii">
					 0.00000000E+00	 0.00000000E+00	 0.00000000E+00
					 0.00000000E+00	 0.00000000E+00	 0.00000000E+00
					 2.33666000E-02	 0.00000000E+00	-1.69324000E-03
					 3.73608000E-02	 0.00000000E+00	-2.60554000E-02
					 0.00000000E+00	 0.00000000E+00	 0.00000000E+00
					 0.00000000E+00	 0.00000000E+00	 0.00000000E+00
					 2.33666000E-02	 0.00000000E+00	-1.69324000E-03
					 3.73608000E-02	 0.00000000E+00	-2.60554000E-02
					 4.86642000E-02	 0.00000000E+00	-2.82520000E-02
					 5.65361000E-02	 0.00000000E+00	-3.59726000E-02
					 4.86642000E-02	 0.00000000E+00	-2.82520000E-02
					 5.65361000E-02	 0.00000000E+00	-3.59726000E-02
					 8.46840000E-02	 0.00000000E+00	-3.29138000E-02
					 6.29128000E-02	 0.00000000E+00	-2.43184000E-02
					 8.46840000E-02	 0.00000000E+00	-3.29138000E-02
					 6.29128000E-02	 0.00000000E+00	-2.43184000E-02
					 1.23372000E-01	 0.00000000E+00	-3.89235000E-02
					 7.02648000E-02	 0.00000000E+00	 1.14096000E-03
					 1.23372000E-01	 0.00000000E+00	-3.89235000E-02
					 7.02648000E-02	 0.00000000E+00	 1.14096000E-03
					 1.36553000E-01	 0.00000000E+00	-4.69311000E-02
					 9.39210000E-02	 0.00000000E+00	-8.06968000E-03
					 1.36553000E-01	 0.00000000E+00	-4.69311000E-02
					 9.39210000E-02	 0.00000000E+00	-8.06968000E-03
					 1.62045000E-01	 0.00000000E+00	-4.32758000E-02
					 8.81081000E-02	 0.00000000E+00	-3.05447000E-02
					 1.62045000E-01	 0.00000000E+00	-4.32758000E-02
					 8.81081000E-02	 0.00000000E+00	-3.05447000E-02
					 1.84730000E-01	 0.00000000E+00	-3.29529000E-02
					 7.22144000E-02	 0.00000000E+00	-3.57230000E-02
					 1.84730000E-01	 0.00000000E+00	-3.29529000E-02
					 7.22144000E-02	 0.00000000E+00	-3.57230000E-02
					 1.79357000E-01	 0.00000000E+00	-3.90612000E-02
					 8.42654000E-02	 0.00000000E+00	-2.84146000E-02
					 1.79357000E-01	 0.00000000E+00	-3.90612000E-02
					 8.42654000E-02	 0.00000000E+00	-2.84146000E-02
					 1.66738000E-01	 0.00000000E+00	-2.99568000E-02
					 7.43226000E-02	 0.00000000E+00	-4.16840000E-02
					 1.66738000E-01	 0.00000000E+00	-2.99568000E-02
					 7.43226000E-02	 0.00000000E+00	-4.16840000E-02
					 1.17000000E-01	 0.00000000E+00	-5.53506000E-02
					 2.64750000E-02	 0.00000000E+00	-6.57313000E-02
					 1.17000000E-01	 0.00000000E+00	-5.53506000E-02
					 2.64750000E-02	 0.00000000E+00	-6.57313000E-02
					 8.50614000E-02	 0.00000000E+00	-5.38626000E-02
					 3.03275000E-02	 0.00000000E+00	-5.04812000E-02
					 8.50614000E-02	 0.00000000E+00	-5.38626000E-02
					 3.03275000E-02	 0.00000000E+00	-5.04812000E-02
					 7.24060000E-02	 0.00000000E+00	-4.94242000E-02
					-1.45175000E-02	 0.00000000E+00	-6.82959000E-02
					 7.24060000E-02	 0.00000000E+00	-4.94242000E-02
					-1.45175000E-02	 0.00000000E+00	-6.82959000E-02
					 4.68578000E-02	 0.00000000E+00	-7.07363000E-02
					-4.61908000E-02	 0.00000000E+00	-6.43772000E-02
					 4.68578000E-02	 0.00000000E+00	-7.07363000E-02
					-4.61908000E-02	 0.00000000E+00	-6.43772000E-02
					-5.22297000E-03	 0.00000000E+00	-6.00103000E-02
					-1.15600000E-02	 0.00000000E+00	-4.69352000E-02
					-5.22297000E-03	 0.00000000E+00	-6.00103000E-02
					-1.15600000E-02	 0.00000000E+00	-4.69352000E-02
					 1.59175000E-03	 0.00000000E+00	-4.70340000E-02
					 2.43552000E-03	 0.00000000E+00	-6.07469000E-02
					 1.59175000E-03	 0.00000000E+00	-4.70340000E-02
					 2.43552000E-03	 0.00000000E+00	-6.07469000E-02
					 4.47695000E-02	 0.00000000E+00	-4.06574000E-02
					 2.90065000E-02	 0.00000000E+00	-6.05959000E-02
					 4.47695000E-02	 0.00000000E+00	-4.06574000E-02
					 2.90065000E-02	 0.00000000E+00	-6.05959000E-02
					 3.96801000E-02	 0.00000000E+00	-3.81178000E-02
					 2.65214000E-02	 0.00000000E+00	-4.17755000E-02
					 3.96801000E-02	 0.00000000E+00	-3.81178000E-02
					 2.65214000E-02	 0.00000000E+00	-4.17755000E-02
					 2.82344000E-02	 0.00000000E+00	-4.06639000E-02
					 3.95303000E-02	 0.00000000E+00	-2.89349000E-02
					 2.82344000E-02	 0.00000000E+00	-4.06639000E-02
					 3.95303000E-02	 0.00000000E+00	-2.89349000E-02
					 3.02975000E-02	 0.00000000E+00	-3.14456000E-02
					 2.13941000E-02	 0.00000000E+00	-3.70187000E-02
					 3.02975000E-02	 0.00000000E+00	-3.14456000E-02
					 2.13941000E-02	 0.00000000E+00	-3.70187000E-02
					 2.75841000E-02	 0.00000000E+00	-3.59921000E-02
					 3.00359000E-02	 0.00000000E+00	-4.65297000E-02
					 2.75841000E-02	 0.00000000E+00	-3.59921000E-02
					 3.00359000E-02	 0.00000000E+00	-4.65297000E-02
					 0.00000000E+00	 0.00000000E+00	 0.00000000E+00
					 2.79018000E-02	 0.00000000E+00	 1.25565000E-02
					 0.00000000E+00	 0.00000000E+00	 0.00000000E+00
					 2.79018000E-02	 0.00000000E+00	 1.25565000E-02
					 6.51739000E-02	 0.00000000E+00	 1.91934000E-02
					 6.51739000E-02	 0.00000000E+00	 1.91934000E-02
					 1.37348000E-01	 0.00000000E+00	-5.15817000E-02
					 1.37348000E-01	 0.00000000E+00	-5.15817000E-02
					 1.89476000E-01	 0.00000000E+00	-6.03844000E-02
					 1.89476000E-01	 0.00000000E+00	-6.03844000E-02
					 2.34982000E-01	 0.00000000E+00	-4.02870000E-02
					 2.34982000E-01	 0.00000000E+00	-4.02870000E-02
					 2.54934000E-01	 0.00000000E+00	-5.99773000E-02
					 2.54934000E-01	 0.00000000E+00	-5.99773000E-02
					 2.60501000E-01	 0.00000000E+00	-4.32537000E-02
					 2.60501000E-01	 0.00000000E+00	-4.32537000E-02
					 2.88432000E-01	 0.00000000E+00	-3.47262000E-02
					 2.88432000E-01	 0.00000000E+00	-3.47262000E-02
					 2.54003000E-01	 0.00000000E+00	-2.17519000E-02
					 2.54003000E-01	 0.00000000E+00	-2.17519000E-02
					 2.15419000E-01	 0.00000000E+00	-1.63166000E-02
					 2.15419000E-01	 0.00000000E+00	-1.63166000E-02
					 1.88557000E-01	 0.00000000E+00	-4.90895000E-02
					 1.88557000E-01	 0.00000000E+00	-4.90895000E-02
					 1.55551000E-01	 0.00000000E+00	-2.14006000E-02
					 1.55551000E-01	 0.00000000E+00	-2.14006000E-02
					 9.99715000E-02	 0.00000000E+00	-2.98343000E-02
					 9.99715000E-02	 0.00000000E+00	-2.98343000E-02
					 9.01317000E-02	 0.00000000E+00	-4.68897000E-02
					 9.01317000E-02	 0.00000000E+00	-4.68897000E-02
					 1.08548000E-01	 0.00000000E+00	-5.80303000E-02
					 1.08548000E-01	 0.00000000E+00	-5.80303000E-02
					 7.78539000E-02	 0.00000000E+00	-5.52941000E-02
					 7.78539000E-02	 0.00000000E+00	-5.52941000E-02
					 4.56718000E-02	 0.00000000E+00	-4.76629000E-02
					 4.56718000E-02	 0.00000000E+00	-4.76629000E-02
					 2.08439000E-02	 0.00000000E+00	-4.21493000E-02
					 2.08439000E-02	 0.00000000E+00	-4.21493000E-02
					 4.55718000E-02	 0.00000000E+00	-3.21550000E-02
					 4.55718000E-02	 0.00000000E+00	-3.21550000E-02
					 2.26733000E-02	 0.00000000E+00	-3.76605000E-02
					 2.26733000E-02	 0.00000000E+00	-3.76605000E-02
				</DataArray>
			</PointData>
		</Piece>
	</UnstructuredGrid>
</VTKFile>