<?xml version="1.0"?>
<VTKFile type="UnstructuredGrid" version="0.1" byte_order="LittleEndian">
	<UnstructuredGrid>
		<Piece NumberOfPoints="126" NumberOfCells="40">
			<Points>
				<DataArray type="Float64" NumberOfComponents="3" format="ascii">
					 5.00000000E-02	 0.00000000E+00	 0.00000000E+00
					 0.00000000E+00	 0.00000000E+00	 0.00000000E+00
					 0.00000000E+00	 0.00000000E+00	 5.00000000E-02
					 5.00000000E-02	 0.00000000E+00	 5.00000000E-02
					 5.00000000E-02	 3.00000000E-01	 0.00000000E+00
					 0.00000000E+00	 3.00000000E-01	 0.00000000E+00
					 0.00000000E+00	 3.00000000E-01	 5.00000000E-02
					 5.00000000E-02	 3.00000000E-01	 5.00000000E-02
					 0.00000000E+00	 0.00000000E+00	 1.00000000E-01
					 5.00000000E-02	 0.00000000E+00	 1.00000000E-01
					 0.00000000E+00	 3.00000000E-01	 1.00000000E-01
					 5.00000000E-02	 3.00000000E-01	 1.00000000E-01
					 0.00000000E+00	 0.00000000E+00	 1.50000000E-01
					 5.00000000E-02	 0.00000000E+00	 1.50000000E-01
					 0.00000000E+00	 3.00000000E-01	 1.50000000E-01
					 5.00000000E-02	 3.00000000E-01	 1.50000000E-01
					 0.00000000E+00	 0.00000000E+00	 2.00000000E-01
					 5.00000000E-02	 0.00000000E+00	 2.00000000E-01
					 0.00000000E+00	 3.00000000E-01	 2.00000000E-01
					 5.00000000E-02	 3.00000000E-01	 2.00000000E-01
					 0.00000000E+00	 0.00000000E+00	 2.50000000E-01
					 5.00000000E-02	 0.00000000E+00	 2.50000000E-01
					 0.00000000E+00	 3.00000000E-01	 2.50000000E-01
					 5.00000000E-02	 3.00000000E-01	 2.50000000E-01
					 0.00000000E+00	 0.00000000E+00	 3.00000000E-01
					 5.00000000E-02	 0.00000000E+00	 3.00000000E-01
					 0.00000000E+00	 3.00000000E-01	 3.00000000E-01
					 5.00000000E-02	 3.00000000E-01	 3.00000000E-01
					 0.00000000E+00	 0.00000000E+00	 3.50000000E-01
					 5.00000000E-02	 0.00000000E+00	 3.50000000E-01
					 0.00000000E+00	 3.00000000E-01	 3.50000000E-01
					 5.00000000E-02	 3.00000000E-01	 3.50000000E-01
					 0.00000000E+00	 0.00000000E+00	 4.00000000E-01
					 5.00000000E-02	 0.00000000E+00	 4.00000000E-01
					 0.00000000E+00	 3.00000000E-01	 4.00000000E-01
					 5.00000000E-02	 3.00000000E-01	 4.00000000E-01
					 0.00000000E+00	 0.00000000E+00	 4.50000000E-01
					 5.00000000E-02	 0.00000000E+00	 4.50000000E-01
					 0.00000000E+00	 3.00000000E-01	 4.50000000E-01
					 5.00000000E-02	 3.00000000E-01	 4.50000000E-01
					 0.00000000E+00	 0.00000000E+00	 5.00000000E-01
					 5.00000000E-02	 0.00000000E+00	 5.00000000E-01
					 0.00000000E+00	 3.00000000E-01	 5.00000000E-01
					 5.00000000E-02	 3.00000000E-01	 5.00000000E-01
					 0.00000000E+00	 0.00000000E+00	 5.50000000E-01
					 5.00000000E-02	 0.00000000E+00	 5.50000000E-01
					 0.00000000E+00	 3.00000000E-01	 5.50000000E-01
					 5.00000000E-02	 3.00000000E-01	 5.50000000E-01
					 0.00000000E+00	 0.00000000E+00	 6.00000000E-01
					 5.00000000E-02	 0.00000000E+00	 6.00000000E-01
					 0.00000000E+00	 3.00000000E-01	 6.00000000E-01
					 5.00000000E-02	 3.00000000E-01	 6.00000000E-01
					 0.00000000E+00	 0.00000000E+00	 6.50000000E-01
					 5.00000000E-02	 0.00000000E+00	 6.50000000E-01
					 0.00000000E+00	 3.00000000E-01	 6.50000000E-01
					 5.00000000E-02	 3.00000000E-01	 6.50000000E-01
					 0.00000000E+00	 0.00000000E+00	 7.00000000E-01
					 5.00000000E-02	 0.00000000E+00	 7.00000000E-01
					 0.00000000E+00	 3.00000000E-01	 7.00000000E-01
					 5.00000000E-02	 3.00000000E-01	 7.00000000E-01
					 0.00000000E+00	 0.00000000E+00	 7.50000000E-01
					 5.00000000E-02	 0.00000000E+00	 7.50000000E-01
					 0.00000000E+00	 3.00000000E-01	 7.50000000E-01
					 5.00000000E-02	 3.00000000E-01	 7.50000000E-01
					 0.00000000E+00	 0.00000000E+00	 8.00000000E-01
					 5.00000000E-02	 0.00000000E+00	 8.00000000E-01
					 0.00000000E+00	 3.00000000E-01	 8.00000000E-01
					 5.00000000E-02	 3.00000000E-01	 8.00000000E-01
					 0.00000000E+00	 0.00000000E+00	 8.50000000E-01
					 5.00000000E-02	 0.00000000E+00	 8.50000000E-01
					 0.00000000E+00	 3.00000000E-01	 8.50000000E-01
					 5.00000000E-02	 3.00000000E-01	 8.50000000E-01
					 0.00000000E+00	 0.00000000E+00	 9.00000000E-01
					 5.00000000E-02	 0.00000000E+00	 9.00000000E-01
					 0.00000000E+00	 3.00000000E-01	 9.00000000E-01
					 5.00000000E-02	 3.00000000E-01	 9.00000000E-01
					 0.00000000E+00	 0.00000000E+00	 9.50000000E-01
					 5.00000000E-02	 0.00000000E+00	 9.50000000E-01
					 0.00000000E+00	 3.00000000E-01	 9.50000000E-01
					 5.00000000E-02	 3.00000000E-01	 9.50000000E-01
					 0.00000000E+00	 0.00000000E+00	 1.00000000E+00
					 5.00000000E-02	 0.00000000E+00	 1.00000000E+00
					 0.00000000E+00	 3.00000000E-01	 1.00000000E+00
					 5.00000000E-02	 3.00000000E-01	 1.00000000E+00
					-5.00000000E-02	 0.00000000E+00	 0.00000000E+00
					-5.00000000E-02	 0.00000000E+00	 5.00000000E-02
					-5.00000000E-02	 3.00000000E-01	 0.00000000E+00
					-5.00000000E-02	 3.00000000E-01	 5.00000000E-02
					-5.00000000E-02	 0.00000000E+00	 1.00000000E-01
					-5.00000000E-02	 3.00000000E-01	 1.00000000E-01
					-5.00000000E-02	 0.00000000E+00	 1.50000000E-01
					-5.00000000E-02	 3.00000000E-01	 1.50000000E-01
					-5.00000000E-02	 0.00000000E+00	 2.00000000E-01
					-5.00000000E-02	 3.00000000E-01	 2.00000000E-01
					-5.00000000E-02	 0.00000000E+00	 2.50000000E-01
					-5.00000000E-02	 3.00000000E-01	 2.50000000E-01
					-5.00000000E-02	 0.00000000E+00	 3.00000000E-01
					-5.00000000E-02	 3.00000000E-01	 3.00000000E-01
					-5.00000000E-02	 0.00000000E+00	 3.50000000E-01
					-5.00000000E-02	 3.00000000E-01	 3.50000000E-01
					-5.00000000E-02	 0.00000000E+00	 4.00000000E-01
					-5.00000000E-02	 3.00000000E-01	 4.00000000E-01
					-5.00000000E-02	 0.00000000E+00	 4.50000000E-01
					-5.00000000E-02	 3.00000000E-01	 4.50000000E-01
					-5.00000000E-02	 0.00000000E+00	 5.00000000E-01
					-5.00000000E-02	 3.00000000E-01	 5.00000000E-01
					-5.00000000E-02	 0.00000000E+00	 5.50000000E-01
					-5.00000000E-02	 3.00000000E-01	 5.50000000E-01
					-5.00000000E-02	 0.00000000E+00	 6.00000000E-01
					-5.00000000E-02	 3.00000000E-01	 6.00000000E-01
					-5.00000000E-02	 0.00000000E+00	 6.50000000E-01
					-5.00000000E-02	 3.00000000E-01	 6.50000000E-01
					-5.00000000E-02	 0.00000000E+00	 7.00000000E-01
					-5.00000000E-02	 3.00000000E-01	 7.00000000E-01
					-5.00000000E-02	 0.00000000E+00	 7.50000000E-01
					-5.00000000E-02	 3.00000000E-01	 7.50000000E-01
					-5.00000000E-02	 0.00000000E+00	 8.00000000E-01
					-5.00000000E-02	 3.00000000E-01	 8.00000000E-01
					-5.00000000E-02	 0.00000000E+00	 8.50000000E-01
					-5.00000000E-02	 3.00000000E-01	 8.50000000E-01
					-5.00000000E-02	 0.00000000E+00	 9.00000000E-01
					-5.00000000E-02	 3.00000000E-01	 9.00000000E-01
					-5.00000000E-02	 0.00000000E+00	 9.50000000E-01
					-5.00000000E-02	 3.00000000E-01	 9.50000000E-01
					-5.00000000E-02	 0.00000000E+00	 1.00000000E+00
					-5.00000000E-02	 3.00000000E-01	 1.00000000E+00
				</DataArray>
			</Points>
			<Cells>
				<DataArray type="Int32" Name="connectivity" format="ascii">
					0 1 2 3 4 5 6 7 3 2 8 9 7 6 10 11 9 8 12 13 11 10 14 15 13 12 16 17 15 14 18 19 17 16 20 21 19 18 22 23 21 20 24 25 23 22 26 27 25 24 28 29 27 26 30 31 29 28 32 33 31 30 34 35 33 32 36 37 35 34 38 39 37 36 40 41 39 38 42 43 41 40 44 45 43 42 46 47 45 44 48 49 47 46 50 51 49 48 52 53 51 50 54 55 53 52 56 57 55 54 58 59 57 56 60 61 59 58 62 63 61 60 64 65 63 62 66 67 65 64 68 69 67 66 70 71 69 68 72 73 71 70 74 75 73 72 76 77 75 74 78 79 77 76 80 81 79 78 82 83 1 84 85 2 5 86 87 6 2 85 88 8 6 87 89 10 8 88 90 12 10 89 91 14 12 90 92 16 14 91 93 18 16 92 94 20 18 93 95 22 20 94 96 24 22 95 97 26 24 96 98 28 26 97 99 30 28 98 100 32 30 99 101 34 32 100 102 36 34 101 103 38 36 102 104 40 38 103 105 42 40 104 106 44 42 105 107 46 44 106 108 48 46 107 109 50 48 108 110 52 50 109 111 54 52 110 112 56 54 111 113 58 56 112 114 60 58 113 115 62 60 114 116 64 62 115 117 66 64 116 118 68 66 117 119 70 68 118 120 72 70 119 121 74 72 120 122 76 74 121 123 78 76 122 124 80 78 123 125 82 
				</DataArray>
				<DataArray type="Int32" Name="offsets" format="ascii">
					8 16 24 32 40 48 56 64 72 80 88 96 104 112 120 128 136 144 152 160 168 176 184 192 200 208 216 224 232 240 248 256 264 272 280 288 296 304 312 320 
				</DataArray>
				<DataArray type="UInt8" Name="types" format="ascii">
					12 12 12 12 12 12 12 12 12 12 12 12 12 12 12 12 12 12 12 12 12 12 12 12 12 12 12 12 12 12 12 12 12 12 12 12 12 12 12 12 
				</DataArray>
			</Cells>
			<PointData>
				<DataArray type="Float32" Name="U" NumberOfComponents="3" ComponentName0="D1" ComponentName1="D2" ComponentName2="D3" format="ascii">
					 0.00000000E+00	 0.00000000E+00	 0.00000000E+00
					 0.00000000E+00	 0.00000000E+00	 0.00000000E+00
					 2.90352000E-03	 0.00000000E+00	 1.71501000E-03
					 9.75088000E-03	 0.00000000E+00	 1.73138000E-04
					 0.00000000E+00	 0.00000000E+00	 0.00000000E+00
					 0.00000000E+00	 0.00000000E+00	 0.00000000E+00
					 2.90352000E-03	 0.00000000E+00	 1.71501000E-03
					 9.75088000E-03	 0.00000000E+00	 1.73138000E-04
					 1.17354000E-03	 0.00000000E+00	-5.71591000E-04
					 3.27754000E-03	 0.00000000E+00	 3.00544000E-03
					 1.17354000E-03	 0.00000000E+00	-5.71591000E-04
					 3.27754000E-03	 0.00000000E+00	 3.00544000E-03
					 5.56674000E-04	 0.00000000E+00	 4.97658000E-03
					 8.47945000E-04	 0.00000000E+00	-3.22422000E-04
					 5.56674000E-04	 0.00000000E+00	 4.97658000E-03
					 8.47945000E-04	 0.00000000E+00	-3.22422000E-04
					 9.01280000E-03	 0.00000000E+00	 2.55297000E-03
					 8.83234000E-03	 0.00000000E+00	-3.44642000E-03
					 9.01280000E-03	 0.00000000E+00	 2.55297000E-03
					 8.83234000E-03	 0.00000000E+00	-3.44642000E-03
					 9.08365000E-03	 0.00000000E+00	-6.53221000E-04
					 6.94311000E-03	 0.00000000E+00	-9.98528000E-04
					 9.08365000E-03	 0.00000000E+00	-6.53221000E-04
					 6.94311000E-03	 0.00000000E+00	-9.98528000E-04
					 8.73459000E-03	 0.00000000E+00	 2.98484000E-04
					 8.47230000E-03	 0.00000000E+00	-3.62395000E-04
					 8.73459000E-03	 0.00000000E+00	 2.98484000E-04
					 8.47230000E-03	 0.00000000E+00	-3.62395000E-04
					 9.28092000E-03	 0.00000000E+00	 2.37326000E-04
					 8.33036000E-03	 0.00000000E+00	 2.37596000E-04
					 9.28092000E-03	 0.00000000E+00	 2.37326000E-04
					 8.33036000E-03	 0.00000000E+00	 2.37596000E-04
					 9.06883000E-03	 0.00000000E+00	 2.61810000E-04
					 8.64751000E-03	 0.00000000E+00	 6.12361000E-04
					 9.06883000E-03	 0.00000000E+00	 2.61810000E-04
					 8.64751000E-03	 0.00000000E+00	 6.12361000E-04
					 8.94878000E-03	 0.00000000E+00	-2.37482000E-05
					 8.21078000E-03	 0.00000000E+00	 6.84509000E-04
					 8.94878000E-03	 0.00000000E+00	-2.37482000E-05
					 8.21078000E-03	 0.00000000E+00	 6.84509000E-04
					 8.71702000E-03	 0.00000000E+00	 1.79921000E-04
					 6.94961000E-03	 0.00000000E+00	 4.07420000E-04
					 8.71702000E-03	 0.00000000E+00	 1.79921000E-04
					 6.94961000E-03	 0.00000000E+00	 4.07420000E-04
					 8.36851000E-03	 0.00000000E+00	 7.21902000E-04
					 7.33774000E-03	 0.00000000E+00	 6.46232000E-04
					 8.36851000E-03	 0.00000000E+00	 7.21902000E-04
					 7.33774000E-03	 0.00000000E+00	 6.46232000E-04
					 7.98232000E-03	 0.00000000E+00	 4.25234000E-04
					 7.56756000E-03	 0.00000000E+00	 7.34602000E-04
					 7.98232000E-03	 0.00000000E+00	 4.25234000E-04
					 7.56756000E-03	 0.00000000E+00	 7.34602000E-04
					 7.62450000E-03	 0.00000000E+00	 7.07877000E-04
					 6.58736000E-03	 0.00000000E+00	 9.48450000E-04
					 7.62450000E-03	 0.00000000E+00	 7.07877000E-04
					 6.58736000E-03	 0.00000000E+00	 9.48450000E-04
					 7.26426000E-03	 0.00000000E+00	 8.57395000E-04
					 6.38017000E-03	 0.00000000E+00	 1.68343000E-03
					 7.26426000E-03	 0.00000000E+00	 8.57395000E-04
					 6.38017000E-03	 0.00000000E+00	 1.68343000E-03
					 6.78923000E-03	 0.00000000E+00	 7.37701000E-04
					 6.29768000E-03	 0.00000000E+00	 1.62790000E-03
					 6.78923000E-03	 0.00000000E+00	 7.37701000E-04
					 6.29768000E-03	 0.00000000E+00	 1.62790000E-03
					 6.30657000E-03	 0.00000000E+00	 1.05200000E-03
					 5.31795000E-03	 0.00000000E+00	 1.51720000E-03
					 6.30657000E-03	 0.00000000E+00	 1.05200000E-03
					 5.31795000E-03	 0.00000000E+00	 1.51720000E-03
					 5.77057000E-03	 0.00000000E+00	 1.19686000E-03
					 4.77257000E-03	 0.00000000E+00	 1.53509000E-03
					 5.77057000E-03	 0.00000000E+00	 1.19686000E-03
					 4.77257000E-03	 0.00000000E+00	 1.53509000E-03
					 4.88854000E-03	 0.00000000E+00	 1.49708000E-03
					 4.73069000E-03	 0.00000000E+00	 1.66857000E-03
					 4.88854000E-03	 0.00000000E+00	 1.49708000E-03
					 4.73069000E-03	 0.00000000E+00	 1.66857000E-03
					 4.40002000E-03	 0.00000000E+00	 1.02408000E-03
					 4.03075000E-03	 0.00000000E+00	 1.81955000E-03
					 4.40002000E-03	 0.00000000E+00	 1.02408000E-03
					 4.03075000E-03	 0.00000000E+00	 1.81955000E-03
					 4.03615000E-03	 0.00000000E+00	 9.14879000E-04
					 3.09686000E-03	 0.00000000E+00	 1.38190000E-03
					 4.03615000E-03	 0.00000000E+00	 9.14879000E-04
					 3.09686000E-03	 0.00000000E+00	 1.38190000E-03
					 0.00000000E+00	 0.00000000E+00	 0.00000000E+00
					 9.45401000E-02	 0.00000000E+00	-1.05221000E-02
					 0.00000000E+00	 0.00000000E+00	 0.00000000E+00
					 9.45401000E-02	 0.00000000E+00	-1.05221000E-02
					 1.09667000E-01	 0.00000000E+00	 1.01447000E-02
					 1.09667000E-01	 0.00000000E+00	 1.01447000E-02
					 4.68674000E-02	 0.00000000E+00	-5.01212000E-04
					 4.68674000E-02	 0.00000000E+00	-5.01212000E-04
					 5.00099000E-03	 0.00000000E+00	 4.88874000E-03
					 5.00099000E-03	 0.00000000E+00	 4.88874000E-03
					 1.02413000E-02	 0.00000000E+00	-1.24864000E-03
					 1.02413000E-02	 0.00000000E+00	-1.24864000E-03
					 9.72590000E-03	 0.00000000E+00	 2.32438000E-05
					 9.72590000E-03	 0.00000000E+00	 2.32438000E-05
					 1.00426000E-02	 0.00000000E+00	 7.63973000E-04
					 1.00426000E-02	 0.00000000E+00	 7.63973000E-04
					 9.60394000E-03	 0.00000000E+00	 4.17430000E-04
					 9.60394000E-03	 0.00000000E+00	 4.17430000E-04
					 9.74677000E-03	 0.00000000E+00	 3.39397000E-04
					 9.74677000E-03	 0.00000000E+00	 3.39397000E-04
					 1.05359000E-02	 0.00000000E+00	-1.31262000E-04
					 1.05359000E-02	 0.00000000E+00	-1.31262000E-04
					 9.46768000E-03	 0.00000000E+00	 3.12391000E-05
					 9.46768000E-03	 0.00000000E+00	 3.12391000E-05
					 8.47575000E-03	 0.00000000E+00	 3.49363000E-05
					 8.47575000E-03	 0.00000000E+00	 3.49363000E-05
					 8.72517000E-03	 0.00000000E+00	 2.10208000E-04
					 8.72517000E-03	 0.00000000E+00	 2.10208000E-04
					 8.22247000E-03	 0.00000000E+00	 8.69346000E-04
					 8.22247000E-03	 0.00000000E+00	 8.69346000E-04
					 7.34275000E-03	 0.00000000E+00	 7.41601000E-04
					 7.34275000E-03	 0.00000000E+00	 7.41601000E-04
					 7.30951000E-03	 0.00000000E+00	 5.18167000E-04
					 7.30951000E-03	 0.00000000E+00	 5.18167000E-04
					 6.85131000E-03	 0.00000000E+00	 2.27556000E-04
					 6.85131000E-03	 0.00000000E+00	 2.27556000E-04
					 5.25479000E-03	 0.00000000E+00	 5.74396000E-04
					 5.25479000E-03	 0.00000000E+00	 5.74396000E-04
					 4.86235000E-03	 0.00000000E+00	 1.11616000E-03
					 4.86235000E-03	 0.00000000E+00	 1.11616000E-03
					 5.40154000E-03	 0.00000000E+00	 1.11690000E-03
					 5.40154000E-03	 0.00000000E+00	 1.11690000E-03
				</DataArray>
			</PointData>
		</Piece>
	</UnstructuredGrid>
</VTKFile>