<?xml version="1.0"?>
<VTKFile type="UnstructuredGrid" version="0.1" byte_order="LittleEndian">
	<UnstructuredGrid>
		<Piece NumberOfPoints="126" NumberOfCells="40">
			<Points>
				<DataArray type="Float64" NumberOfComponents="3" format="ascii">
					 5.00000000E-02	 0.00000000E+00	 0.00000000E+00
					 0.00000000E+00	 0.00000000E+00	 0.00000000E+00
					 0.00000000E+00	 0.00000000E+00	 5.00000000E-02
					 5.00000000E-02	 0.00000000E+00	 5.00000000E-02
					 5.00000000E-02	 3.00000000E-01	 0.00000000E+00
					 0.00000000E+00	 3.00000000E-01	 0.00000000E+00
					 0.00000000E+00	 3.00000000E-01	 5.00000000E-02
					 5.00000000E-02	 3.00000000E-01	 5.00000000E-02
					 0.00000000E+00	 0.00000000E+00	 1.00000000E-01
					 5.00000000E-02	 0.00000000E+00	 1.00000000E-01
					 0.00000000E+00	 3.00000000E-01	 1.00000000E-01
					 5.00000000E-02	 3.00000000E-01	 1.00000000E-01
					 0.00000000E+00	 0.00000000E+00	 1.50000000E-01
					 5.00000000E-02	 0.00000000E+00	 1.50000000E-01
					 0.00000000E+00	 3.00000000E-01	 1.50000000E-01
					 5.00000000E-02	 3.00000000E-01	 1.50000000E-01
					 0.00000000E+00	 0.00000000E+00	 2.00000000E-01
					 5.00000000E-02	 0.00000000E+00	 2.00000000E-01
					 0.00000000E+00	 3.00000000E-01	 2.00000000E-01
					 5.00000000E-02	 3.00000000E-01	 2.00000000E-01
					 0.00000000E+00	 0.00000000E+00	 2.50000000E-01
					 5.00000000E-02	 0.00000000E+00	 2.50000000E-01
					 0.00000000E+00	 3.00000000E-01	 2.50000000E-01
					 5.00000000E-02	 3.00000000E-01	 2.50000000E-01
					 0.00000000E+00	 0.00000000E+00	 3.00000000E-01
					 5.00000000E-02	 0.00000000E+00	 3.00000000E-01
					 0.00000000E+00	 3.00000000E-01	 3.00000000E-01
					 5.00000000E-02	 3.00000000E-01	 3.00000000E-01
					 0.00000000E+00	 0.00000000E+00	 3.50000000E-01
					 5.00000000E-02	 0.00000000E+00	 3.50000000E-01
					 0.00000000E+00	 3.00000000E-01	 3.50000000E-01
					 5.00000000E-02	 3.00000000E-01	 3.50000000E-01
					 0.00000000E+00	 0.00000000E+00	 4.00000000E-01
					 5.00000000E-02	 0.00000000E+00	 4.00000000E-01
					 0.00000000E+00	 3.00000000E-01	 4.00000000E-01
					 5.00000000E-02	 3.00000000E-01	 4.00000000E-01
					 0.00000000E+00	 0.00000000E+00	 4.50000000E-01
					 5.00000000E-02	 0.00000000E+00	 4.50000000E-01
					 0.00000000E+00	 3.00000000E-01	 4.50000000E-01
					 5.00000000E-02	 3.00000000E-01	 4.50000000E-01
					 0.00000000E+00	 0.00000000E+00	 5.00000000E-01
					 5.00000000E-02	 0.00000000E+00	 5.00000000E-01
					 0.00000000E+00	 3.00000000E-01	 5.00000000E-01
					 5.00000000E-02	 3.00000000E-01	 5.00000000E-01
					 0.00000000E+00	 0.00000000E+00	 5.50000000E-01
					 5.00000000E-02	 0.00000000E+00	 5.50000000E-01
					 0.00000000E+00	 3.00000000E-01	 5.50000000E-01
					 5.00000000E-02	 3.00000000E-01	 5.50000000E-01
					 0.00000000E+00	 0.00000000E+00	 6.00000000E-01
					 5.00000000E-02	 0.00000000E+00	 6.00000000E-01
					 0.00000000E+00	 3.00000000E-01	 6.00000000E-01
					 5.00000000E-02	 3.00000000E-01	 6.00000000E-01
					 0.00000000E+00	 0.00000000E+00	 6.50000000E-01
					 5.00000000E-02	 0.00000000E+00	 6.50000000E-01
					 0.00000000E+00	 3.00000000E-01	 6.50000000E-01
					 5.00000000E-02	 3.00000000E-01	 6.50000000E-01
					 0.00000000E+00	 0.00000000E+00	 7.00000000E-01
					 5.00000000E-02	 0.00000000E+00	 7.00000000E-01
					 0.00000000E+00	 3.00000000E-01	 7.00000000E-01
					 5.00000000E-02	 3.00000000E-01	 7.00000000E-01
					 0.00000000E+00	 0.00000000E+00	 7.50000000E-01
					 5.00000000E-02	 0.00000000E+00	 7.50000000E-01
					 0.00000000E+00	 3.00000000E-01	 7.50000000E-01
					 5.00000000E-02	 3.00000000E-01	 7.50000000E-01
					 0.00000000E+00	 0.00000000E+00	 8.00000000E-01
					 5.00000000E-02	 0.00000000E+00	 8.00000000E-01
					 0.00000000E+00	 3.00000000E-01	 8.00000000E-01
					 5.00000000E-02	 3.00000000E-01	 8.00000000E-01
					 0.00000000E+00	 0.00000000E+00	 8.50000000E-01
					 5.00000000E-02	 0.00000000E+00	 8.50000000E-01
					 0.00000000E+00	 3.00000000E-01	 8.50000000E-01
					 5.00000000E-02	 3.00000000E-01	 8.50000000E-01
					 0.00000000E+00	 0.00000000E+00	 9.00000000E-01
					 5.00000000E-02	 0.00000000E+00	 9.00000000E-01
					 0.00000000E+00	 3.00000000E-01	 9.00000000E-01
					 5.00000000E-02	 3.00000000E-01	 9.00000000E-01
					 0.00000000E+00	 0.00000000E+00	 9.50000000E-01
					 5.00000000E-02	 0.00000000E+00	 9.50000000E-01
					 0.00000000E+00	 3.00000000E-01	 9.50000000E-01
					 5.00000000E-02	 3.00000000E-01	 9.50000000E-01
					 0.00000000E+00	 0.00000000E+00	 1.00000000E+00
					 5.00000000E-02	 0.00000000E+00	 1.00000000E+00
					 0.00000000E+00	 3.00000000E-01	 1.00000000E+00
					 5.00000000E-02	 3.00000000E-01	 1.00000000E+00
					-5.00000000E-02	 0.00000000E+00	 0.00000000E+00
					-5.00000000E-02	 0.00000000E+00	 5.00000000E-02
					-5.00000000E-02	 3.00000000E-01	 0.00000000E+00
					-5.00000000E-02	 3.00000000E-01	 5.00000000E-02
					-5.00000000E-02	 0.00000000E+00	 1.00000000E-01
					-5.00000000E-02	 3.00000000E-01	 1.00000000E-01
					-5.00000000E-02	 0.00000000E+00	 1.50000000E-01
					-5.00000000E-02	 3.00000000E-01	 1.50000000E-01
					-5.00000000E-02	 0.00000000E+00	 2.00000000E-01
					-5.00000000E-02	 3.00000000E-01	 2.00000000E-01
					-5.00000000E-02	 0.00000000E+00	 2.50000000E-01
					-5.00000000E-02	 3.00000000E-01	 2.50000000E-01
					-5.00000000E-02	 0.00000000E+00	 3.00000000E-01
					-5.00000000E-02	 3.00000000E-01	 3.00000000E-01
					-5.00000000E-02	 0.00000000E+00	 3.50000000E-01
					-5.00000000E-02	 3.00000000E-01	 3.50000000E-01
					-5.00000000E-02	 0.00000000E+00	 4.00000000E-01
					-5.00000000E-02	 3.00000000E-01	 4.00000000E-01
					-5.00000000E-02	 0.00000000E+00	 4.50000000E-01
					-5.00000000E-02	 3.00000000E-01	 4.50000000E-01
					-5.00000000E-02	 0.00000000E+00	 5.00000000E-01
					-5.00000000E-02	 3.00000000E-01	 5.00000000E-01
					-5.00000000E-02	 0.00000000E+00	 5.50000000E-01
					-5.00000000E-02	 3.00000000E-01	 5.50000000E-01
					-5.00000000E-02	 0.00000000E+00	 6.00000000E-01
					-5.00000000E-02	 3.00000000E-01	 6.00000000E-01
					-5.00000000E-02	 0.00000000E+00	 6.50000000E-01
					-5.00000000E-02	 3.00000000E-01	 6.50000000E-01
					-5.00000000E-02	 0.00000000E+00	 7.00000000E-01
					-5.00000000E-02	 3.00000000E-01	 7.00000000E-01
					-5.00000000E-02	 0.00000000E+00	 7.50000000E-01
					-5.00000000E-02	 3.00000000E-01	 7.50000000E-01
					-5.00000000E-02	 0.00000000E+00	 8.00000000E-01
					-5.00000000E-02	 3.00000000E-01	 8.00000000E-01
					-5.00000000E-02	 0.00000000E+00	 8.50000000E-01
					-5.00000000E-02	 3.00000000E-01	 8.50000000E-01
					-5.00000000E-02	 0.00000000E+00	 9.00000000E-01
					-5.00000000E-02	 3.00000000E-01	 9.00000000E-01
					-5.00000000E-02	 0.00000000E+00	 9.50000000E-01
					-5.00000000E-02	 3.00000000E-01	 9.50000000E-01
					-5.00000000E-02	 0.00000000E+00	 1.00000000E+00
					-5.00000000E-02	 3.00000000E-01	 1.00000000E+00
				</DataArray>
			</Points>
			<Cells>
				<DataArray type="Int32" Name="connectivity" format="ascii">
					0 1 2 3 4 5 6 7 3 2 8 9 7 6 10 11 9 8 12 13 11 10 14 15 13 12 16 17 15 14 18 19 17 16 20 21 19 18 22 23 21 20 24 25 23 22 26 27 25 24 28 29 27 26 30 31 29 28 32 33 31 30 34 35 33 32 36 37 35 34 38 39 37 36 40 41 39 38 42 43 41 40 44 45 43 42 46 47 45 44 48 49 47 46 50 51 49 48 52 53 51 50 54 55 53 52 56 57 55 54 58 59 57 56 60 61 59 58 62 63 61 60 64 65 63 62 66 67 65 64 68 69 67 66 70 71 69 68 72 73 71 70 74 75 73 72 76 77 75 74 78 79 77 76 80 81 79 78 82 83 1 84 85 2 5 86 87 6 2 85 88 8 6 87 89 10 8 88 90 12 10 89 91 14 12 90 92 16 14 91 93 18 16 92 94 20 18 93 95 22 20 94 96 24 22 95 97 26 24 96 98 28 26 97 99 30 28 98 100 32 30 99 101 34 32 100 102 36 34 101 103 38 36 102 104 40 38 103 105 42 40 104 106 44 42 105 107 46 44 106 108 48 46 107 109 50 48 108 110 52 50 109 111 54 52 110 112 56 54 111 113 58 56 112 114 60 58 113 115 62 60 114 116 64 62 115 117 66 64 116 118 68 66 117 119 70 68 118 120 72 70 119 121 74 72 120 122 76 74 121 123 78 76 122 124 80 78 123 125 82 
				</DataArray>
				<DataArray type="Int32" Name="offsets" format="ascii">
					8 16 24 32 40 48 56 64 72 80 88 96 104 112 120 128 136 144 152 160 168 176 184 192 200 208 216 224 232 240 248 256 264 272 280 288 296 304 312 320 
				</DataArray>
				<DataArray type="UInt8" Name="types" format="ascii">
					12 12 12 12 12 12 12 12 12 12 12 12 12 12 12 12 12 12 12 12 12 12 12 12 12 12 12 12 12 12 12 12 12 12 12 12 12 12 12 12 
				</DataArray>
			</Cells>
			<PointData>
				<DataArray type="Float32" Name="U" NumberOfComponents="3" ComponentName0="D1" ComponentName1="D2" ComponentName2="D3" format="ascii">
					 0.00000000E+00	 0.00000000E+00	 0.00000000E+00
					 0.00000000E+00	 0.00000000E+00	 0.00000000E+00
					 1.15326000E-03	 0.00000000E+00	-2.10700000E-04
					 1.27447000E-03	 0.00000000E+00	-2.29948000E-04
					 0.00000000E+00	 0.00000000E+00	 0.00000000E+00
					 0.00000000E+00	 0.00000000E+00	 0.00000000E+00
					 1.15326000E-03	 0.00000000E+00	-2.10700000E-04
					 1.27447000E-03	 0.00000000E+00	-2.29948000E-04
					 2.45264000E-03	 0.00000000E+00	-3.51553000E-04
					 2.04533000E-03	 0.00000000E+00	-4.26235000E-04
					 2.45264000E-03	 0.00000000E+00	-3.51553000E-04
					 2.04533000E-03	 0.00000000E+00	-4.26235000E-04
					 3.39570000E-03	 0.00000000E+00	-2.29165000E-04
					 2.08809000E-03	 0.00000000E+00	-2.98750000E-04
					 3.39570000E-03	 0.00000000E+00	-2.29165000E-04
					 2.08809000E-03	 0.00000000E+00	-2.98750000E-04
					 4.14122000E-03	 0.00000000E+00	 1.21228000E-04
					 2.52537000E-03	 0.00000000E+00	-5.56269000E-04
					 4.14122000E-03	 0.00000000E+00	 1.21228000E-04
					 2.52537000E-03	 0.00000000E+00	-5.56269000E-04
					 4.66638000E-03	 0.00000000E+00	 1.02944000E-04
					 3.72493000E-03	 0.00000000E+00	-2.40971000E-04
					 4.66638000E-03	 0.00000000E+00	 1.02944000E-04
					 3.72493000E-03	 0.00000000E+00	-2.40971000E-04
					 4.94648000E-03	 0.00000000E+00	-1.61107000E-04
					 3.90017000E-03	 0.00000000E+00	-4.17394000E-04
					 4.94648000E-03	 0.00000000E+00	-1.61107000E-04
					 3.90017000E-03	 0.00000000E+00	-4.17394000E-04
					 5.01324000E-03	 0.00000000E+00	 3.62732000E-04
					 4.07472000E-03	 0.00000000E+00	 2.12912000E-04
					 5.01324000E-03	 0.00000000E+00	 3.62732000E-04
					 4.07472000E-03	 0.00000000E+00	 2.12912000E-04
					 4.94419000E-03	 0.00000000E+00	 1.95436000E-04
					 4.27586000E-03	 0.00000000E+00	 3.63728000E-04
					 4.94419000E-03	 0.00000000E+00	 1.95436000E-04
					 4.27586000E-03	 0.00000000E+00	 3.63728000E-04
					 4.80673000E-03	 0.00000000E+00	-9.56072000E-05
					 3.55209000E-03	 0.00000000E+00	 9.17928000E-04
					 4.80673000E-03	 0.00000000E+00	-9.56072000E-05
					 3.55209000E-03	 0.00000000E+00	 9.17928000E-04
					 4.61444000E-03	 0.00000000E+00	 5.27625000E-04
					 2.72569000E-03	 0.00000000E+00	 8.33126000E-04
					 4.61444000E-03	 0.00000000E+00	 5.27625000E-04
					 2.72569000E-03	 0.00000000E+00	 8.33126000E-04
					 4.35398000E-03	 0.00000000E+00	 1.17220000E-03
					 3.26579000E-03	 0.00000000E+00	 5.10547000E-04
					 4.35398000E-03	 0.00000000E+00	 1.17220000E-03
					 3.26579000E-03	 0.00000000E+00	 5.10547000E-04
					 4.10434000E-03	 0.00000000E+00	 6.09314000E-04
					 3.24786000E-03	 0.00000000E+00	 7.45500000E-04
					 4.10434000E-03	 0.00000000E+00	 6.09314000E-04
					 3.24786000E-03	 0.00000000E+00	 7.45500000E-04
					 3.87573000E-03	 0.00000000E+00	 6.64501000E-04
					 3.04573000E-03	 0.00000000E+00	 8.86391000E-04
					 3.87573000E-03	 0.00000000E+00	 6.64501000E-04
					 3.04573000E-03	 0.00000000E+00	 8.86391000E-04
					 3.65865000E-03	 0.00000000E+00	 9.32010000E-04
					 2.56864000E-03	 0.00000000E+00	 1.30961000E-03
					 3.65865000E-03	 0.00000000E+00	 9.32010000E-04
					 2.56864000E-03	 0.00000000E+00	 1.30961000E-03
					 3.37087000E-03	 0.00000000E+00	 6.74449000E-04
					 2.39668000E-03	 0.00000000E+00	 1.05081000E-03
					 3.37087000E-03	 0.00000000E+00	 6.74449000E-04
					 2.39668000E-03	 0.00000000E+00	 1.05081000E-03
					 3.07059000E-03	 0.00000000E+00	 5.97766000E-04
					 1.82191000E-03	 0.00000000E+00	 8.37738000E-04
					 3.07059000E-03	 0.00000000E+00	 5.97766000E-04
					 1.82191000E-03	 0.00000000E+00	 8.37738000E-04
					 2.74858000E-03	 0.00000000E+00	 1.23437000E-03
					 1.79078000E-03	 0.00000000E+00	 1.24602000E-03
					 2.74858000E-03	 0.00000000E+00	 1.23437000E-03
					 1.79078000E-03	 0.00000000E+00	 1.24602000E-03
					 2.40466000E-03	 0.00000000E+00	 9.49444000E-04
					 1.91807000E-03	 0.00000000E+00	 9.92026000E-04
					 2.40466000E-03	 0.00000000E+00	 9.49444000E-04
					 1.91807000E-03	 0.00000000E+00	 9.92026000E-04
					 1.98941000E-03	 0.00000000E+00	 8.23739000E-04
					 1.65393000E-03	 0.00000000E+00	 1.08960000E-03
					 1.98941000E-03	 0.00000000E+00	 8.23739000E-04
					 1.65393000E-03	 0.00000000E+00	 1.08960000E-03
					 1.58877000E-03	 0.00000000E+00	 9.58903000E-04
					 7.51146000E-04	 0.00000000E+00	 1.55448000E-03
					 1.58877000E-03	 0.00000000E+00	 9.58903000E-04
					 7.51146000E-04	 0.00000000E+00	 1.55448000E-03
					 0.00000000E+00	 0.00000000E+00	 0.00000000E+00
					 1.81580000E-03	 0.00000000E+00	 1.07926000E-03
					 0.00000000E+00	 0.00000000E+00	 0.00000000E+00
					 1.81580000E-03	 0.00000000E+00	 1.07926000E-03
					 3.13344000E-03	 0.00000000E+00	 1.25395000E-03
					 3.13344000E-03	 0.00000000E+00	 1.25395000E-03
					 4.91643000E-03	 0.00000000E+00	 1.19170000E-03
					 4.91643000E-03	 0.00000000E+00	 1.19170000E-03
					 5.90979000E-03	 0.00000000E+00	 6.06756000E-04
					 5.90979000E-03	 0.00000000E+00	 6.06756000E-04
					 5.70807000E-03	 0.00000000E+00	 5.10521000E-04
					 5.70807000E-03	 0.00000000E+00	 5.10521000E-04
					 6.19170000E-03	 0.00000000E+00	-4.26241000E-05
					 6.19170000E-03	 0.00000000E+00	-4.26241000E-05
					 6.09851000E-03	 0.00000000E+00	 3.32772000E-04
					 6.09851000E-03	 0.00000000E+00	 3.32772000E-04
					 5.78556000E-03	 0.00000000E+00	 2.47331000E-04
					 5.78556000E-03	 0.00000000E+00	 2.47331000E-04
					 6.23528000E-03	 0.00000000E+00	 6.09980000E-04
					 6.23528000E-03	 0.00000000E+00	 6.09980000E-04
					 6.75507000E-03	 0.00000000E+00	 4.39693000E-04
					 6.75507000E-03	 0.00000000E+00	 4.39693000E-04
					 5.64900000E-03	 0.00000000E+00	 9.04586000E-05
					 5.64900000E-03	 0.00000000E+00	 9.04586000E-05
					 5.18595000E-03	 0.00000000E+00	 2.86983000E-04
					 5.18595000E-03	 0.00000000E+00	 2.86983000E-04
					 4.89579000E-03	 0.00000000E+00	 4.13858000E-04
					 4.89579000E-03	 0.00000000E+00	 4.13858000E-04
					 4.97955000E-03	 0.00000000E+00	 8.17273000E-04
					 4.97955000E-03	 0.00000000E+00	 8.17273000E-04
					 4.52615000E-03	 0.00000000E+00	 5.05066000E-04
					 4.52615000E-03	 0.00000000E+00	 5.05066000E-04
					 4.52798000E-03	 0.00000000E+00	 2.62987000E-04
					 4.52798000E-03	 0.00000000E+00	 2.62987000E-04
					 3.90570000E-03	 0.00000000E+00	 5.96930000E-04
					 3.90570000E-03	 0.00000000E+00	 5.96930000E-04
					 3.10502000E-03	 0.00000000E+00	 2.95991000E-04
					 3.10502000E-03	 0.00000000E+00	 2.95991000E-04
					 2.47015000E-03	 0.00000000E+00	 3.63930000E-04
					 2.47015000E-03	 0.00000000E+00	 3.63930000E-04
					 2.52440000E-03	 0.00000000E+00	 8.66002000E-04
					 2.52440000E-03	 0.00000000E+00	 8.66002000E-04
				</DataArray>
			</PointData>
		</Piece>
	</UnstructuredGrid>
</VTKFile>