<?xml version="1.0"?>
<VTKFile type="UnstructuredGrid" version="0.1" byte_order="LittleEndian">
	<UnstructuredGrid>
		<Piece NumberOfPoints="126" NumberOfCells="40">
			<Points>
				<DataArray type="Float64" NumberOfComponents="3" format="ascii">
					 5.00000000E-02	 0.00000000E+00	 0.00000000E+00
					 0.00000000E+00	 0.00000000E+00	 0.00000000E+00
					 0.00000000E+00	 0.00000000E+00	 5.00000000E-02
					 5.00000000E-02	 0.00000000E+00	 5.00000000E-02
					 5.00000000E-02	 3.00000000E-01	 0.00000000E+00
					 0.00000000E+00	 3.00000000E-01	 0.00000000E+00
					 0.00000000E+00	 3.00000000E-01	 5.00000000E-02
					 5.00000000E-02	 3.00000000E-01	 5.00000000E-02
					 0.00000000E+00	 0.00000000E+00	 1.00000000E-01
					 5.00000000E-02	 0.00000000E+00	 1.00000000E-01
					 0.00000000E+00	 3.00000000E-01	 1.00000000E-01
					 5.00000000E-02	 3.00000000E-01	 1.00000000E-01
					 0.00000000E+00	 0.00000000E+00	 1.50000000E-01
					 5.00000000E-02	 0.00000000E+00	 1.50000000E-01
					 0.00000000E+00	 3.00000000E-01	 1.50000000E-01
					 5.00000000E-02	 3.00000000E-01	 1.50000000E-01
					 0.00000000E+00	 0.00000000E+00	 2.00000000E-01
					 5.00000000E-02	 0.00000000E+00	 2.00000000E-01
					 0.00000000E+00	 3.00000000E-01	 2.00000000E-01
					 5.00000000E-02	 3.00000000E-01	 2.00000000E-01
					 0.00000000E+00	 0.00000000E+00	 2.50000000E-01
					 5.00000000E-02	 0.00000000E+00	 2.50000000E-01
					 0.00000000E+00	 3.00000000E-01	 2.50000000E-01
					 5.00000000E-02	 3.00000000E-01	 2.50000000E-01
					 0.00000000E+00	 0.00000000E+00	 3.00000000E-01
					 5.00000000E-02	 0.00000000E+00	 3.00000000E-01
					 0.00000000E+00	 3.00000000E-01	 3.00000000E-01
					 5.00000000E-02	 3.00000000E-01	 3.00000000E-01
					 0.00000000E+00	 0.00000000E+00	 3.50000000E-01
					 5.00000000E-02	 0.00000000E+00	 3.50000000E-01
					 0.00000000E+00	 3.00000000E-01	 3.50000000E-01
					 5.00000000E-02	 3.00000000E-01	 3.50000000E-01
					 0.00000000E+00	 0.00000000E+00	 4.00000000E-01
					 5.00000000E-02	 0.00000000E+00	 4.00000000E-01
					 0.00000000E+00	 3.00000000E-01	 4.00000000E-01
					 5.00000000E-02	 3.00000000E-01	 4.00000000E-01
					 0.00000000E+00	 0.00000000E+00	 4.50000000E-01
					 5.00000000E-02	 0.00000000E+00	 4.50000000E-01
					 0.00000000E+00	 3.00000000E-01	 4.50000000E-01
					 5.00000000E-02	 3.00000000E-01	 4.50000000E-01
					 0.00000000E+00	 0.00000000E+00	 5.00000000E-01
					 5.00000000E-02	 0.00000000E+00	 5.00000000E-01
					 0.00000000E+00	 3.00000000E-01	 5.00000000E-01
					 5.00000000E-02	 3.00000000E-01	 5.00000000E-01
					 0.00000000E+00	 0.00000000E+00	 5.50000000E-01
					 5.00000000E-02	 0.00000000E+00	 5.50000000E-01
					 0.00000000E+00	 3.00000000E-01	 5.50000000E-01
					 5.00000000E-02	 3.00000000E-01	 5.50000000E-01
					 0.00000000E+00	 0.00000000E+00	 6.00000000E-01
					 5.00000000E-02	 0.00000000E+00	 6.00000000E-01
					 0.00000000E+00	 3.00000000E-01	 6.00000000E-01
					 5.00000000E-02	 3.00000000E-01	 6.00000000E-01
					 0.00000000E+00	 0.00000000E+00	 6.50000000E-01
					 5.00000000E-02	 0.00000000E+00	 6.50000000E-01
					 0.00000000E+00	 3.00000000E-01	 6.50000000E-01
					 5.00000000E-02	 3.00000000E-01	 6.50000000E-01
					 0.00000000E+00	 0.00000000E+00	 7.00000000E-01
					 5.00000000E-02	 0.00000000E+00	 7.00000000E-01
					 0.00000000E+00	 3.00000000E-01	 7.00000000E-01
					 5.00000000E-02	 3.00000000E-01	 7.00000000E-01
					 0.00000000E+00	 0.00000000E+00	 7.50000000E-01
					 5.00000000E-02	 0.00000000E+00	 7.50000000E-01
					 0.00000000E+00	 3.00000000E-01	 7.50000000E-01
					 5.00000000E-02	 3.00000000E-01	 7.50000000E-01
					 0.00000000E+00	 0.00000000E+00	 8.00000000E-01
					 5.00000000E-02	 0.00000000E+00	 8.00000000E-01
					 0.00000000E+00	 3.00000000E-01	 8.00000000E-01
					 5.00000000E-02	 3.00000000E-01	 8.00000000E-01
					 0.00000000E+00	 0.00000000E+00	 8.50000000E-01
					 5.00000000E-02	 0.00000000E+00	 8.50000000E-01
					 0.00000000E+00	 3.00000000E-01	 8.50000000E-01
					 5.00000000E-02	 3.00000000E-01	 8.50000000E-01
					 0.00000000E+00	 0.00000000E+00	 9.00000000E-01
					 5.00000000E-02	 0.00000000E+00	 9.00000000E-01
					 0.00000000E+00	 3.00000000E-01	 9.00000000E-01
					 5.00000000E-02	 3.00000000E-01	 9.00000000E-01
					 0.00000000E+00	 0.00000000E+00	 9.50000000E-01
					 5.00000000E-02	 0.00000000E+00	 9.50000000E-01
					 0.00000000E+00	 3.00000000E-01	 9.50000000E-01
					 5.00000000E-02	 3.00000000E-01	 9.50000000E-01
					 0.00000000E+00	 0.00000000E+00	 1.00000000E+00
					 5.00000000E-02	 0.00000000E+00	 1.00000000E+00
					 0.00000000E+00	 3.00000000E-01	 1.00000000E+00
					 5.00000000E-02	 3.00000000E-01	 1.00000000E+00
					-5.00000000E-02	 0.00000000E+00	 0.00000000E+00
					-5.00000000E-02	 0.00000000E+00	 5.00000000E-02
					-5.00000000E-02	 3.00000000E-01	 0.00000000E+00
					-5.00000000E-02	 3.00000000E-01	 5.00000000E-02
					-5.00000000E-02	 0.00000000E+00	 1.00000000E-01
					-5.00000000E-02	 3.00000000E-01	 1.00000000E-01
					-5.00000000E-02	 0.00000000E+00	 1.50000000E-01
					-5.00000000E-02	 3.00000000E-01	 1.50000000E-01
					-5.00000000E-02	 0.00000000E+00	 2.00000000E-01
					-5.00000000E-02	 3.00000000E-01	 2.00000000E-01
					-5.00000000E-02	 0.00000000E+00	 2.50000000E-01
					-5.00000000E-02	 3.00000000E-01	 2.50000000E-01
					-5.00000000E-02	 0.00000000E+00	 3.00000000E-01
					-5.00000000E-02	 3.00000000E-01	 3.00000000E-01
					-5.00000000E-02	 0.00000000E+00	 3.50000000E-01
					-5.00000000E-02	 3.00000000E-01	 3.50000000E-01
					-5.00000000E-02	 0.00000000E+00	 4.00000000E-01
					-5.00000000E-02	 3.00000000E-01	 4.00000000E-01
					-5.00000000E-02	 0.00000000E+00	 4.50000000E-01
					-5.00000000E-02	 3.00000000E-01	 4.50000000E-01
					-5.00000000E-02	 0.00000000E+00	 5.00000000E-01
					-5.00000000E-02	 3.00000000E-01	 5.00000000E-01
					-5.00000000E-02	 0.00000000E+00	 5.50000000E-01
					-5.00000000E-02	 3.00000000E-01	 5.50000000E-01
					-5.00000000E-02	 0.00000000E+00	 6.00000000E-01
					-5.00000000E-02	 3.00000000E-01	 6.00000000E-01
					-5.00000000E-02	 0.00000000E+00	 6.50000000E-01
					-5.00000000E-02	 3.00000000E-01	 6.50000000E-01
					-5.00000000E-02	 0.00000000E+00	 7.00000000E-01
					-5.00000000E-02	 3.00000000E-01	 7.00000000E-01
					-5.00000000E-02	 0.00000000E+00	 7.50000000E-01
					-5.00000000E-02	 3.00000000E-01	 7.50000000E-01
					-5.00000000E-02	 0.00000000E+00	 8.00000000E-01
					-5.00000000E-02	 3.00000000E-01	 8.00000000E-01
					-5.00000000E-02	 0.00000000E+00	 8.50000000E-01
					-5.00000000E-02	 3.00000000E-01	 8.50000000E-01
					-5.00000000E-02	 0.00000000E+00	 9.00000000E-01
					-5.00000000E-02	 3.00000000E-01	 9.00000000E-01
					-5.00000000E-02	 0.00000000E+00	 9.50000000E-01
					-5.00000000E-02	 3.00000000E-01	 9.50000000E-01
					-5.00000000E-02	 0.00000000E+00	 1.00000000E+00
					-5.00000000E-02	 3.00000000E-01	 1.00000000E+00
				</DataArray>
			</Points>
			<Cells>
				<DataArray type="Int32" Name="connectivity" format="ascii">
					0 1 2 3 4 5 6 7 3 2 8 9 7 6 10 11 9 8 12 13 11 10 14 15 13 12 16 17 15 14 18 19 17 16 20 21 19 18 22 23 21 20 24 25 23 22 26 27 25 24 28 29 27 26 30 31 29 28 32 33 31 30 34 35 33 32 36 37 35 34 38 39 37 36 40 41 39 38 42 43 41 40 44 45 43 42 46 47 45 44 48 49 47 46 50 51 49 48 52 53 51 50 54 55 53 52 56 57 55 54 58 59 57 56 60 61 59 58 62 63 61 60 64 65 63 62 66 67 65 64 68 69 67 66 70 71 69 68 72 73 71 70 74 75 73 72 76 77 75 74 78 79 77 76 80 81 79 78 82 83 1 84 85 2 5 86 87 6 2 85 88 8 6 87 89 10 8 88 90 12 10 89 91 14 12 90 92 16 14 91 93 18 16 92 94 20 18 93 95 22 20 94 96 24 22 95 97 26 24 96 98 28 26 97 99 30 28 98 100 32 30 99 101 34 32 100 102 36 34 101 103 38 36 102 104 40 38 103 105 42 40 104 106 44 42 105 107 46 44 106 108 48 46 107 109 50 48 108 110 52 50 109 111 54 52 110 112 56 54 111 113 58 56 112 114 60 58 113 115 62 60 114 116 64 62 115 117 66 64 116 118 68 66 117 119 70 68 118 120 72 70 119 121 74 72 120 122 76 74 121 123 78 76 122 124 80 78 123 125 82 
				</DataArray>
				<DataArray type="Int32" Name="offsets" format="ascii">
					8 16 24 32 40 48 56 64 72 80 88 96 104 112 120 128 136 144 152 160 168 176 184 192 200 208 216 224 232 240 248 256 264 272 280 288 296 304 312 320 
				</DataArray>
				<DataArray type="UInt8" Name="types" format="ascii">
					12 12 12 12 12 12 12 12 12 12 12 12 12 12 12 12 12 12 12 12 12 12 12 12 12 12 12 12 12 12 12 12 12 12 12 12 12 12 12 12 
				</DataArray>
			</Cells>
			<PointData>
				<DataArray type="Float32" Name="U" NumberOfComponents="3" ComponentName0="D1" ComponentName1="D2" ComponentName2="D3" format="ascii">
					 0.00000000E+00	 0.00000000E+00	 0.00000000E+00
					 0.00000000E+00	 0.00000000E+00	 0.00000000E+00
					 4.16216000E-05	 0.00000000E+00	 2.50085000E-04
					-4.70437000E-04	 0.00000000E+00	 5.18569000E-05
					 0.00000000E+00	 0.00000000E+00	 0.00000000E+00
					 0.00000000E+00	 0.00000000E+00	 0.00000000E+00
					 4.16216000E-05	 0.00000000E+00	 2.50085000E-04
					-4.70437000E-04	 0.00000000E+00	 5.18569000E-05
					 7.15896000E-05	 0.00000000E+00	 2.75600000E-04
					-1.98443000E-04	 0.00000000E+00	-2.15693000E-04
					 7.15896000E-05	 0.00000000E+00	 2.75600000E-04
					-1.98443000E-04	 0.00000000E+00	-2.15693000E-04
					 7.08527000E-05	 0.00000000E+00	-9.18334000E-05
					-7.39137000E-07	 0.00000000E+00	-3.69618000E-04
					 7.08527000E-05	 0.00000000E+00	-9.18334000E-05
					-7.39137000E-07	 0.00000000E+00	-3.69618000E-04
					 6.03347000E-05	 0.00000000E+00	 1.30405000E-04
					-4.33433000E-04	 0.00000000E+00	-1.47958000E-04
					 6.03347000E-05	 0.00000000E+00	 1.30405000E-04
					-4.33433000E-04	 0.00000000E+00	-1.47958000E-04
					 4.85026000E-05	 0.00000000E+00	 3.10009000E-04
					 8.22846000E-05	 0.00000000E+00	 8.42329000E-05
					 4.85026000E-05	 0.00000000E+00	 3.10009000E-04
					 8.22846000E-05	 0.00000000E+00	 8.42329000E-05
					 4.29641000E-05	 0.00000000E+00	-2.18950000E-04
					 8.47437000E-05	 0.00000000E+00	 5.78097000E-05
					 4.29641000E-05	 0.00000000E+00	-2.18950000E-04
					 8.47437000E-05	 0.00000000E+00	 5.78097000E-05
					 4.93007000E-05	 0.00000000E+00	-1.26244000E-04
					-5.30081000E-04	 0.00000000E+00	-2.43745000E-05
					 4.93007000E-05	 0.00000000E+00	-1.26244000E-04
					-5.30081000E-04	 0.00000000E+00	-2.43745000E-05
					 4.31101000E-05	 0.00000000E+00	 8.74668000E-05
					-1.99663000E-04	 0.00000000E+00	-7.83907000E-05
					 4.31101000E-05	 0.00000000E+00	 8.74668000E-05
					-1.99663000E-04	 0.00000000E+00	-7.83907000E-05
					 3.77897000E-05	 0.00000000E+00	 1.34166000E-04
					 2.36300000E-04	 0.00000000E+00	 1.94880000E-04
					 3.77897000E-05	 0.00000000E+00	 1.34166000E-04
					 2.36300000E-04	 0.00000000E+00	 1.94880000E-04
					 3.34777000E-05	 0.00000000E+00	 6.43658000E-05
					-4.59807000E-04	 0.00000000E+00	-1.53349000E-05
					 3.34777000E-05	 0.00000000E+00	 6.43658000E-05
					-4.59807000E-04	 0.00000000E+00	-1.53349000E-05
					 2.59134000E-05	 0.00000000E+00	-2.00770000E-04
					-2.16273000E-04	 0.00000000E+00	-5.50522000E-06
					 2.59134000E-05	 0.00000000E+00	-2.00770000E-04
					-2.16273000E-04	 0.00000000E+00	-5.50522000E-06
					 2.31725000E-05	 0.00000000E+00	 4.98851000E-04
					-1.46021000E-04	 0.00000000E+00	 5.22289000E-04
					 2.31725000E-05	 0.00000000E+00	 4.98851000E-04
					-1.46021000E-04	 0.00000000E+00	 5.22289000E-04
					 1.72304000E-05	 0.00000000E+00	 4.86330000E-04
					 1.75924000E-06	 0.00000000E+00	 2.11598000E-04
					 1.72304000E-05	 0.00000000E+00	 4.86330000E-04
					 1.75924000E-06	 0.00000000E+00	 2.11598000E-04
					 3.17602000E-06	 0.00000000E+00	 3.79562000E-04
					-7.21260000E-04	 0.00000000E+00	 4.31904000E-04
					 3.17602000E-06	 0.00000000E+00	 3.79562000E-04
					-7.21260000E-04	 0.00000000E+00	 4.31904000E-04
					-8.34150000E-06	 0.00000000E+00	 4.99209000E-04
					-1.23549000E-04	 0.00000000E+00	 3.39788000E-04
					-8.34150000E-06	 0.00000000E+00	 4.99209000E-04
					-1.23549000E-04	 0.00000000E+00	 3.39788000E-04
					-1.91619000E-05	 0.00000000E+00	 1.71662000E-04
					 2.22735000E-04	 0.00000000E+00	 6.93936000E-04
					-1.91619000E-05	 0.00000000E+00	 1.71662000E-04
					 2.22735000E-04	 0.00000000E+00	 6.93936000E-04
					-2.61738000E-05	 0.00000000E+00	 1.56085000E-04
					-3.84260000E-04	 0.00000000E+00	 6.79514000E-04
					-2.61738000E-05	 0.00000000E+00	 1.56085000E-04
					-3.84260000E-04	 0.00000000E+00	 6.79514000E-04
					-2.64148000E-05	 0.00000000E+00	 3.81950000E-04
					-4.87117000E-04	 0.00000000E+00	 8.02815000E-04
					-2.64148000E-05	 0.00000000E+00	 3.81950000E-04
					-4.87117000E-04	 0.00000000E+00	 8.02815000E-04
					-3.97971000E-05	 0.00000000E+00	 3.08986000E-04
					-2.85676000E-04	 0.00000000E+00	 4.54244000E-04
					-3.97971000E-05	 0.00000000E+00	 3.08986000E-04
					-2.85676000E-04	 0.00000000E+00	 4.54244000E-04
					-5.51620000E-05	 0.00000000E+00	 8.19952000E-05
					-3.29230000E-04	 0.00000000E+00	 5.08740000E-04
					-5.51620000E-05	 0.00000000E+00	 8.19952000E-05
					-3.29230000E-04	 0.00000000E+00	 5.08740000E-04
					 0.00000000E+00	 0.00000000E+00	 0.00000000E+00
					 5.47247000E-04	 0.00000000E+00	 7.66816000E-05
					 0.00000000E+00	 0.00000000E+00	 0.00000000E+00
					 5.47247000E-04	 0.00000000E+00	 7.66816000E-05
					 3.17714000E-04	 0.00000000E+00	-1.96269000E-04
					 3.17714000E-04	 0.00000000E+00	-1.96269000E-04
					 1.28732000E-04	 0.00000000E+00	-3.73489000E-04
					 1.28732000E-04	 0.00000000E+00	-3.73489000E-04
					 5.48983000E-04	 0.00000000E+00	-1.60170000E-04
					 5.48983000E-04	 0.00000000E+00	-1.60170000E-04
					 9.45601000E-07	 0.00000000E+00	 7.27552000E-05
					 9.45601000E-07	 0.00000000E+00	 7.27552000E-05
					-4.71519000E-06	 0.00000000E+00	 5.42154000E-05
					-4.71519000E-06	 0.00000000E+00	 5.42154000E-05
					 6.13541000E-04	 0.00000000E+00	-2.59975000E-05
					 6.13541000E-04	 0.00000000E+00	-2.59975000E-05
					 2.76883000E-04	 0.00000000E+00	-8.95887000E-05
					 2.76883000E-04	 0.00000000E+00	-8.95887000E-05
					-1.73928000E-04	 0.00000000E+00	 1.87225000E-04
					-1.73928000E-04	 0.00000000E+00	 1.87225000E-04
					 5.14750000E-04	 0.00000000E+00	-2.67950000E-05
					 5.14750000E-04	 0.00000000E+00	-2.67950000E-05
					 2.54958000E-04	 0.00000000E+00	-1.38839000E-05
					 2.54958000E-04	 0.00000000E+00	-1.38839000E-05
					 1.78936000E-04	 0.00000000E+00	 5.08757000E-04
					 1.78936000E-04	 0.00000000E+00	 5.08757000E-04
					 1.84635000E-05	 0.00000000E+00	 1.92361000E-04
					 1.84635000E-05	 0.00000000E+00	 1.92361000E-04
					 7.12421000E-04	 0.00000000E+00	 4.13930000E-04
					 7.12421000E-04	 0.00000000E+00	 4.13930000E-04
					 9.10867000E-05	 0.00000000E+00	 3.20380000E-04
					 9.10867000E-05	 0.00000000E+00	 3.20380000E-04
					-2.73911000E-04	 0.00000000E+00	 6.85538000E-04
					-2.73911000E-04	 0.00000000E+00	 6.85538000E-04
					 3.23560000E-04	 0.00000000E+00	 6.60543000E-04
					 3.23560000E-04	 0.00000000E+00	 6.60543000E-04
					 3.88573000E-04	 0.00000000E+00	 7.90295000E-04
					 3.88573000E-04	 0.00000000E+00	 7.90295000E-04
					 1.77193000E-04	 0.00000000E+00	 4.38403000E-04
					 1.77193000E-04	 0.00000000E+00	 4.38403000E-04
					 2.21632000E-04	 0.00000000E+00	 5.02735000E-04
					 2.21632000E-04	 0.00000000E+00	 5.02735000E-04
				</DataArray>
			</PointData>
		</Piece>
	</UnstructuredGrid>
</VTKFile>