<?xml version="1.0"?>
<VTKFile type="UnstructuredGrid" version="0.1" byte_order="LittleEndian">
	<UnstructuredGrid>
		<Piece NumberOfPoints="126" NumberOfCells="40">
			<Points>
				<DataArray type="Float64" NumberOfComponents="3" format="ascii">
					 5.00000000E-02	 0.00000000E+00	 0.00000000E+00
					 0.00000000E+00	 0.00000000E+00	 0.00000000E+00
					 0.00000000E+00	 0.00000000E+00	 5.00000000E-02
					 5.00000000E-02	 0.00000000E+00	 5.00000000E-02
					 5.00000000E-02	 3.00000000E-01	 0.00000000E+00
					 0.00000000E+00	 3.00000000E-01	 0.00000000E+00
					 0.00000000E+00	 3.00000000E-01	 5.00000000E-02
					 5.00000000E-02	 3.00000000E-01	 5.00000000E-02
					 0.00000000E+00	 0.00000000E+00	 1.00000000E-01
					 5.00000000E-02	 0.00000000E+00	 1.00000000E-01
					 0.00000000E+00	 3.00000000E-01	 1.00000000E-01
					 5.00000000E-02	 3.00000000E-01	 1.00000000E-01
					 0.00000000E+00	 0.00000000E+00	 1.50000000E-01
					 5.00000000E-02	 0.00000000E+00	 1.50000000E-01
					 0.00000000E+00	 3.00000000E-01	 1.50000000E-01
					 5.00000000E-02	 3.00000000E-01	 1.50000000E-01
					 0.00000000E+00	 0.00000000E+00	 2.00000000E-01
					 5.00000000E-02	 0.00000000E+00	 2.00000000E-01
					 0.00000000E+00	 3.00000000E-01	 2.00000000E-01
					 5.00000000E-02	 3.00000000E-01	 2.00000000E-01
					 0.00000000E+00	 0.00000000E+00	 2.50000000E-01
					 5.00000000E-02	 0.00000000E+00	 2.50000000E-01
					 0.00000000E+00	 3.00000000E-01	 2.50000000E-01
					 5.00000000E-02	 3.00000000E-01	 2.50000000E-01
					 0.00000000E+00	 0.00000000E+00	 3.00000000E-01
					 5.00000000E-02	 0.00000000E+00	 3.00000000E-01
					 0.00000000E+00	 3.00000000E-01	 3.00000000E-01
					 5.00000000E-02	 3.00000000E-01	 3.00000000E-01
					 0.00000000E+00	 0.00000000E+00	 3.50000000E-01
					 5.00000000E-02	 0.00000000E+00	 3.50000000E-01
					 0.00000000E+00	 3.00000000E-01	 3.50000000E-01
					 5.00000000E-02	 3.00000000E-01	 3.50000000E-01
					 0.00000000E+00	 0.00000000E+00	 4.00000000E-01
					 5.00000000E-02	 0.00000000E+00	 4.00000000E-01
					 0.00000000E+00	 3.00000000E-01	 4.00000000E-01
					 5.00000000E-02	 3.00000000E-01	 4.00000000E-01
					 0.00000000E+00	 0.00000000E+00	 4.50000000E-01
					 5.00000000E-02	 0.00000000E+00	 4.50000000E-01
					 0.00000000E+00	 3.00000000E-01	 4.50000000E-01
					 5.00000000E-02	 3.00000000E-01	 4.50000000E-01
					 0.00000000E+00	 0.00000000E+00	 5.00000000E-01
					 5.00000000E-02	 0.00000000E+00	 5.00000000E-01
					 0.00000000E+00	 3.00000000E-01	 5.00000000E-01
					 5.00000000E-02	 3.00000000E-01	 5.00000000E-01
					 0.00000000E+00	 0.00000000E+00	 5.50000000E-01
					 5.00000000E-02	 0.00000000E+00	 5.50000000E-01
					 0.00000000E+00	 3.00000000E-01	 5.50000000E-01
					 5.00000000E-02	 3.00000000E-01	 5.50000000E-01
					 0.00000000E+00	 0.00000000E+00	 6.00000000E-01
					 5.00000000E-02	 0.00000000E+00	 6.00000000E-01
					 0.00000000E+00	 3.00000000E-01	 6.00000000E-01
					 5.00000000E-02	 3.00000000E-01	 6.00000000E-01
					 0.00000000E+00	 0.00000000E+00	 6.50000000E-01
					 5.00000000E-02	 0.00000000E+00	 6.50000000E-01
					 0.00000000E+00	 3.00000000E-01	 6.50000000E-01
					 5.00000000E-02	 3.00000000E-01	 6.50000000E-01
					 0.00000000E+00	 0.00000000E+00	 7.00000000E-01
					 5.00000000E-02	 0.00000000E+00	 7.00000000E-01
					 0.00000000E+00	 3.00000000E-01	 7.00000000E-01
					 5.00000000E-02	 3.00000000E-01	 7.00000000E-01
					 0.00000000E+00	 0.00000000E+00	 7.50000000E-01
					 5.00000000E-02	 0.00000000E+00	 7.50000000E-01
					 0.00000000E+00	 3.00000000E-01	 7.50000000E-01
					 5.00000000E-02	 3.00000000E-01	 7.50000000E-01
					 0.00000000E+00	 0.00000000E+00	 8.00000000E-01
					 5.00000000E-02	 0.00000000E+00	 8.00000000E-01
					 0.00000000E+00	 3.00000000E-01	 8.00000000E-01
					 5.00000000E-02	 3.00000000E-01	 8.00000000E-01
					 0.00000000E+00	 0.00000000E+00	 8.50000000E-01
					 5.00000000E-02	 0.00000000E+00	 8.50000000E-01
					 0.00000000E+00	 3.00000000E-01	 8.50000000E-01
					 5.00000000E-02	 3.00000000E-01	 8.50000000E-01
					 0.00000000E+00	 0.00000000E+00	 9.00000000E-01
					 5.00000000E-02	 0.00000000E+00	 9.00000000E-01
					 0.00000000E+00	 3.00000000E-01	 9.00000000E-01
					 5.00000000E-02	 3.00000000E-01	 9.00000000E-01
					 0.00000000E+00	 0.00000000E+00	 9.50000000E-01
					 5.00000000E-02	 0.00000000E+00	 9.50000000E-01
					 0.00000000E+00	 3.00000000E-01	 9.50000000E-01
					 5.00000000E-02	 3.00000000E-01	 9.50000000E-01
					 0.00000000E+00	 0.00000000E+00	 1.00000000E+00
					 5.00000000E-02	 0.00000000E+00	 1.00000000E+00
					 0.00000000E+00	 3.00000000E-01	 1.00000000E+00
					 5.00000000E-02	 3.00000000E-01	 1.00000000E+00
					-5.00000000E-02	 0.00000000E+00	 0.00000000E+00
					-5.00000000E-02	 0.00000000E+00	 5.00000000E-02
					-5.00000000E-02	 3.00000000E-01	 0.00000000E+00
					-5.00000000E-02	 3.00000000E-01	 5.00000000E-02
					-5.00000000E-02	 0.00000000E+00	 1.00000000E-01
					-5.00000000E-02	 3.00000000E-01	 1.00000000E-01
					-5.00000000E-02	 0.00000000E+00	 1.50000000E-01
					-5.00000000E-02	 3.00000000E-01	 1.50000000E-01
					-5.00000000E-02	 0.00000000E+00	 2.00000000E-01
					-5.00000000E-02	 3.00000000E-01	 2.00000000E-01
					-5.00000000E-02	 0.00000000E+00	 2.50000000E-01
					-5.00000000E-02	 3.00000000E-01	 2.50000000E-01
					-5.00000000E-02	 0.00000000E+00	 3.00000000E-01
					-5.00000000E-02	 3.00000000E-01	 3.00000000E-01
					-5.00000000E-02	 0.00000000E+00	 3.50000000E-01
					-5.00000000E-02	 3.00000000E-01	 3.50000000E-01
					-5.00000000E-02	 0.00000000E+00	 4.00000000E-01
					-5.00000000E-02	 3.00000000E-01	 4.00000000E-01
					-5.00000000E-02	 0.00000000E+00	 4.50000000E-01
					-5.00000000E-02	 3.00000000E-01	 4.50000000E-01
					-5.00000000E-02	 0.00000000E+00	 5.00000000E-01
					-5.00000000E-02	 3.00000000E-01	 5.00000000E-01
					-5.00000000E-02	 0.00000000E+00	 5.50000000E-01
					-5.00000000E-02	 3.00000000E-01	 5.50000000E-01
					-5.00000000E-02	 0.00000000E+00	 6.00000000E-01
					-5.00000000E-02	 3.00000000E-01	 6.00000000E-01
					-5.00000000E-02	 0.00000000E+00	 6.50000000E-01
					-5.00000000E-02	 3.00000000E-01	 6.50000000E-01
					-5.00000000E-02	 0.00000000E+00	 7.00000000E-01
					-5.00000000E-02	 3.00000000E-01	 7.00000000E-01
					-5.00000000E-02	 0.00000000E+00	 7.50000000E-01
					-5.00000000E-02	 3.00000000E-01	 7.50000000E-01
					-5.00000000E-02	 0.00000000E+00	 8.00000000E-01
					-5.00000000E-02	 3.00000000E-01	 8.00000000E-01
					-5.00000000E-02	 0.00000000E+00	 8.50000000E-01
					-5.00000000E-02	 3.00000000E-01	 8.50000000E-01
					-5.00000000E-02	 0.00000000E+00	 9.00000000E-01
					-5.00000000E-02	 3.00000000E-01	 9.00000000E-01
					-5.00000000E-02	 0.00000000E+00	 9.50000000E-01
					-5.00000000E-02	 3.00000000E-01	 9.50000000E-01
					-5.00000000E-02	 0.00000000E+00	 1.00000000E+00
					-5.00000000E-02	 3.00000000E-01	 1.00000000E+00
				</DataArray>
			</Points>
			<Cells>
				<DataArray type="Int32" Name="connectivity" format="ascii">
					0 1 2 3 4 5 6 7 3 2 8 9 7 6 10 11 9 8 12 13 11 10 14 15 13 12 16 17 15 14 18 19 17 16 20 21 19 18 22 23 21 20 24 25 23 22 26 27 25 24 28 29 27 26 30 31 29 28 32 33 31 30 34 35 33 32 36 37 35 34 38 39 37 36 40 41 39 38 42 43 41 40 44 45 43 42 46 47 45 44 48 49 47 46 50 51 49 48 52 53 51 50 54 55 53 52 56 57 55 54 58 59 57 56 60 61 59 58 62 63 61 60 64 65 63 62 66 67 65 64 68 69 67 66 70 71 69 68 72 73 71 70 74 75 73 72 76 77 75 74 78 79 77 76 80 81 79 78 82 83 1 84 85 2 5 86 87 6 2 85 88 8 6 87 89 10 8 88 90 12 10 89 91 14 12 90 92 16 14 91 93 18 16 92 94 20 18 93 95 22 20 94 96 24 22 95 97 26 24 96 98 28 26 97 99 30 28 98 100 32 30 99 101 34 32 100 102 36 34 101 103 38 36 102 104 40 38 103 105 42 40 104 106 44 42 105 107 46 44 106 108 48 46 107 109 50 48 108 110 52 50 109 111 54 52 110 112 56 54 111 113 58 56 112 114 60 58 113 115 62 60 114 116 64 62 115 117 66 64 116 118 68 66 117 119 70 68 118 120 72 70 119 121 74 72 120 122 76 74 121 123 78 76 122 124 80 78 123 125 82 
				</DataArray>
				<DataArray type="Int32" Name="offsets" format="ascii">
					8 16 24 32 40 48 56 64 72 80 88 96 104 112 120 128 136 144 152 160 168 176 184 192 200 208 216 224 232 240 248 256 264 272 280 288 296 304 312 320 
				</DataArray>
				<DataArray type="UInt8" Name="types" format="ascii">
					12 12 12 12 12 12 12 12 12 12 12 12 12 12 12 12 12 12 12 12 12 12 12 12 12 12 12 12 12 12 12 12 12 12 12 12 12 12 12 12 
				</DataArray>
			</Cells>
			<PointData>
				<DataArray type="Float32" Name="U" NumberOfComponents="3" ComponentName0="D1" ComponentName1="D2" ComponentName2="D3" format="ascii">
					 0.00000000E+00	 0.00000000E+00	 0.00000000E+00
					 0.00000000E+00	 0.00000000E+00	 0.00000000E+00
					 1.51651000E-04	 0.00000000E+00	-3.25944000E-04
					 3.85435000E-04	 0.00000000E+00	 1.49511000E-04
					 0.00000000E+00	 0.00000000E+00	 0.00000000E+00
					 0.00000000E+00	 0.00000000E+00	 0.00000000E+00
					 1.51651000E-04	 0.00000000E+00	-3.25944000E-04
					 3.85435000E-04	 0.00000000E+00	 1.49511000E-04
					 3.40059000E-04	 0.00000000E+00	-2.76682000E-04
					 1.43426000E-04	 0.00000000E+00	 2.69031000E-04
					 3.40059000E-04	 0.00000000E+00	-2.76682000E-04
					 1.43426000E-04	 0.00000000E+00	 2.69031000E-04
					 4.77697000E-04	 0.00000000E+00	-3.65867000E-05
					-2.38276000E-04	 0.00000000E+00	 3.26265000E-04
					 4.77697000E-04	 0.00000000E+00	-3.65867000E-05
					-2.38276000E-04	 0.00000000E+00	 3.26265000E-04
					 5.63523000E-04	 0.00000000E+00	-4.39688000E-05
					-4.07188000E-05	 0.00000000E+00	 6.35641000E-04
					 5.63523000E-04	 0.00000000E+00	-4.39688000E-05
					-4.07188000E-05	 0.00000000E+00	 6.35641000E-04
					 5.94957000E-04	 0.00000000E+00	 1.16297000E-04
					-2.60295000E-05	 0.00000000E+00	 4.26950000E-04
					 5.94957000E-04	 0.00000000E+00	 1.16297000E-04
					-2.60295000E-05	 0.00000000E+00	 4.26950000E-04
					 5.83388000E-04	 0.00000000E+00	 5.70368000E-04
					-3.62006000E-04	 0.00000000E+00	 4.11830000E-04
					 5.83388000E-04	 0.00000000E+00	 5.70368000E-04
					-3.62006000E-04	 0.00000000E+00	 4.11830000E-04
					 5.48307000E-04	 0.00000000E+00	 5.32425000E-04
					 1.86704000E-04	 0.00000000E+00	 2.41456000E-04
					 5.48307000E-04	 0.00000000E+00	 5.32425000E-04
					 1.86704000E-04	 0.00000000E+00	 2.41456000E-04
					 5.13803000E-04	 0.00000000E+00	 1.13857000E-04
					 6.00508000E-04	 0.00000000E+00	 6.28180000E-04
					 5.13803000E-04	 0.00000000E+00	 1.13857000E-04
					 6.00508000E-04	 0.00000000E+00	 6.28180000E-04
					 4.78303000E-04	 0.00000000E+00	 2.34550000E-04
					-5.82893000E-04	 0.00000000E+00	 7.68961000E-04
					 4.78303000E-04	 0.00000000E+00	 2.34550000E-04
					-5.82893000E-04	 0.00000000E+00	 7.68961000E-04
					 4.55526000E-04	 0.00000000E+00	 7.47762000E-04
					-1.86073000E-05	 0.00000000E+00	 5.46227000E-04
					 4.55526000E-04	 0.00000000E+00	 7.47762000E-04
					-1.86073000E-05	 0.00000000E+00	 5.46227000E-04
					 4.28915000E-04	 0.00000000E+00	 2.95328000E-04
					 1.33134000E-04	 0.00000000E+00	 2.08484000E-04
					 4.28915000E-04	 0.00000000E+00	 2.95328000E-04
					 1.33134000E-04	 0.00000000E+00	 2.08484000E-04
					 4.07315000E-04	 0.00000000E+00	 4.96016000E-04
					-3.26690000E-04	 0.00000000E+00	 1.60941000E-04
					 4.07315000E-04	 0.00000000E+00	 4.96016000E-04
					-3.26690000E-04	 0.00000000E+00	 1.60941000E-04
					 3.64190000E-04	 0.00000000E+00	 8.73237000E-04
					-2.96841000E-05	 0.00000000E+00	 6.55989000E-04
					 3.64190000E-04	 0.00000000E+00	 8.73237000E-04
					-2.96841000E-05	 0.00000000E+00	 6.55989000E-04
					 3.28042000E-04	 0.00000000E+00	 4.29158000E-04
					 3.30665000E-04	 0.00000000E+00	 4.92621000E-04
					 3.28042000E-04	 0.00000000E+00	 4.29158000E-04
					 3.30665000E-04	 0.00000000E+00	 4.92621000E-04
					 2.84202000E-04	 0.00000000E+00	 1.98643000E-04
					-7.83139000E-04	 0.00000000E+00	 4.88211000E-04
					 2.84202000E-04	 0.00000000E+00	 1.98643000E-04
					-7.83139000E-04	 0.00000000E+00	 4.88211000E-04
					 2.34850000E-04	 0.00000000E+00	 9.72515000E-04
					-6.61074000E-04	 0.00000000E+00	 2.81429000E-04
					 2.34850000E-04	 0.00000000E+00	 9.72515000E-04
					-6.61074000E-04	 0.00000000E+00	 2.81429000E-04
					 1.92612000E-04	 0.00000000E+00	 1.02606000E-03
					-3.63092000E-05	 0.00000000E+00	 3.94820000E-04
					 1.92612000E-04	 0.00000000E+00	 1.02606000E-03
					-3.63092000E-05	 0.00000000E+00	 3.94820000E-04
					 1.48270000E-04	 0.00000000E+00	 4.80581000E-04
					 5.41519000E-05	 0.00000000E+00	 1.56655000E-04
					 1.48270000E-04	 0.00000000E+00	 4.80581000E-04
					 5.41519000E-05	 0.00000000E+00	 1.56655000E-04
					 9.98646000E-05	 0.00000000E+00	 6.53348000E-04
					-2.57267000E-04	 0.00000000E+00	 4.10040000E-04
					 9.98646000E-05	 0.00000000E+00	 6.53348000E-04
					-2.57267000E-04	 0.00000000E+00	 4.10040000E-04
					 4.73105000E-05	 0.00000000E+00	 9.39270000E-04
					-1.56620000E-04	 0.00000000E+00	 4.45625000E-04
					 4.73105000E-05	 0.00000000E+00	 9.39270000E-04
					-1.56620000E-04	 0.00000000E+00	 4.45625000E-04
					 0.00000000E+00	 0.00000000E+00	 0.00000000E+00
					-2.91916000E-05	 0.00000000E+00	 3.34380000E-04
					 0.00000000E+00	 0.00000000E+00	 0.00000000E+00
					-2.91916000E-05	 0.00000000E+00	 3.34380000E-04
					 5.52622000E-04	 0.00000000E+00	 5.07795000E-04
					 5.52622000E-04	 0.00000000E+00	 5.07795000E-04
					 1.20804000E-03	 0.00000000E+00	 5.21480000E-04
					 1.20804000E-03	 0.00000000E+00	 5.21480000E-04
					 1.18298000E-03	 0.00000000E+00	 7.48976000E-04
					 1.18298000E-03	 0.00000000E+00	 7.48976000E-04
					 1.22805000E-03	 0.00000000E+00	 4.57588000E-04
					 1.22805000E-03	 0.00000000E+00	 4.57588000E-04
					 1.54225000E-03	 0.00000000E+00	 3.85981000E-04
					 1.54225000E-03	 0.00000000E+00	 3.85981000E-04
					 9.39070000E-04	 0.00000000E+00	 1.91218000E-04
					 9.39070000E-04	 0.00000000E+00	 1.91218000E-04
					 4.49721000E-04	 0.00000000E+00	 5.71004000E-04
					 4.49721000E-04	 0.00000000E+00	 5.71004000E-04
					 1.56899000E-03	 0.00000000E+00	 7.13195000E-04
					 1.56899000E-03	 0.00000000E+00	 7.13195000E-04
					 9.57720000E-04	 0.00000000E+00	 4.98599000E-04
					 9.57720000E-04	 0.00000000E+00	 4.98599000E-04
					 7.48680000E-04	 0.00000000E+00	 1.55513000E-04
					 7.48680000E-04	 0.00000000E+00	 1.55513000E-04
					 1.16552000E-03	 0.00000000E+00	 1.00494000E-04
					 1.16552000E-03	 0.00000000E+00	 1.00494000E-04
					 7.87929000E-04	 0.00000000E+00	 5.77048000E-04
					 7.87929000E-04	 0.00000000E+00	 5.77048000E-04
					 3.41200000E-04	 0.00000000E+00	 4.12106000E-04
					 3.41200000E-04	 0.00000000E+00	 4.12106000E-04
					 1.37397000E-03	 0.00000000E+00	 4.07699000E-04
					 1.37397000E-03	 0.00000000E+00	 4.07699000E-04
					 1.18060000E-03	 0.00000000E+00	 1.96924000E-04
					 1.18060000E-03	 0.00000000E+00	 1.96924000E-04
					 4.43015000E-04	 0.00000000E+00	 2.97246000E-04
					 4.43015000E-04	 0.00000000E+00	 2.97246000E-04
					 2.49319000E-04	 0.00000000E+00	 6.08130000E-05
					 2.49319000E-04	 0.00000000E+00	 6.08130000E-05
					 4.50900000E-04	 0.00000000E+00	 3.14540000E-04
					 4.50900000E-04	 0.00000000E+00	 3.14540000E-04
					 2.56178000E-04	 0.00000000E+00	 3.55196000E-04
					 2.56178000E-04	 0.00000000E+00	 3.55196000E-04
				</DataArray>
			</PointData>
		</Piece>
	</UnstructuredGrid>
</VTKFile>