<?xml version="1.0"?>
<VTKFile type="UnstructuredGrid" version="0.1" byte_order="LittleEndian">
	<UnstructuredGrid>
		<Piece NumberOfPoints="126" NumberOfCells="40">
			<Points>
				<DataArray type="Float64" NumberOfComponents="3" format="ascii">
					 5.00000000E-02	 0.00000000E+00	 0.00000000E+00
					 0.00000000E+00	 0.00000000E+00	 0.00000000E+00
					 0.00000000E+00	 0.00000000E+00	 5.00000000E-02
					 5.00000000E-02	 0.00000000E+00	 5.00000000E-02
					 5.00000000E-02	 3.00000000E-01	 0.00000000E+00
					 0.00000000E+00	 3.00000000E-01	 0.00000000E+00
					 0.00000000E+00	 3.00000000E-01	 5.00000000E-02
					 5.00000000E-02	 3.00000000E-01	 5.00000000E-02
					 0.00000000E+00	 0.00000000E+00	 1.00000000E-01
					 5.00000000E-02	 0.00000000E+00	 1.00000000E-01
					 0.00000000E+00	 3.00000000E-01	 1.00000000E-01
					 5.00000000E-02	 3.00000000E-01	 1.00000000E-01
					 0.00000000E+00	 0.00000000E+00	 1.50000000E-01
					 5.00000000E-02	 0.00000000E+00	 1.50000000E-01
					 0.00000000E+00	 3.00000000E-01	 1.50000000E-01
					 5.00000000E-02	 3.00000000E-01	 1.50000000E-01
					 0.00000000E+00	 0.00000000E+00	 2.00000000E-01
					 5.00000000E-02	 0.00000000E+00	 2.00000000E-01
					 0.00000000E+00	 3.00000000E-01	 2.00000000E-01
					 5.00000000E-02	 3.00000000E-01	 2.00000000E-01
					 0.00000000E+00	 0.00000000E+00	 2.50000000E-01
					 5.00000000E-02	 0.00000000E+00	 2.50000000E-01
					 0.00000000E+00	 3.00000000E-01	 2.50000000E-01
					 5.00000000E-02	 3.00000000E-01	 2.50000000E-01
					 0.00000000E+00	 0.00000000E+00	 3.00000000E-01
					 5.00000000E-02	 0.00000000E+00	 3.00000000E-01
					 0.00000000E+00	 3.00000000E-01	 3.00000000E-01
					 5.00000000E-02	 3.00000000E-01	 3.00000000E-01
					 0.00000000E+00	 0.00000000E+00	 3.50000000E-01
					 5.00000000E-02	 0.00000000E+00	 3.50000000E-01
					 0.00000000E+00	 3.00000000E-01	 3.50000000E-01
					 5.00000000E-02	 3.00000000E-01	 3.50000000E-01
					 0.00000000E+00	 0.00000000E+00	 4.00000000E-01
					 5.00000000E-02	 0.00000000E+00	 4.00000000E-01
					 0.00000000E+00	 3.00000000E-01	 4.00000000E-01
					 5.00000000E-02	 3.00000000E-01	 4.00000000E-01
					 0.00000000E+00	 0.00000000E+00	 4.50000000E-01
					 5.00000000E-02	 0.00000000E+00	 4.50000000E-01
					 0.00000000E+00	 3.00000000E-01	 4.50000000E-01
					 5.00000000E-02	 3.00000000E-01	 4.50000000E-01
					 0.00000000E+00	 0.00000000E+00	 5.00000000E-01
					 5.00000000E-02	 0.00000000E+00	 5.00000000E-01
					 0.00000000E+00	 3.00000000E-01	 5.00000000E-01
					 5.00000000E-02	 3.00000000E-01	 5.00000000E-01
					 0.00000000E+00	 0.00000000E+00	 5.50000000E-01
					 5.00000000E-02	 0.00000000E+00	 5.50000000E-01
					 0.00000000E+00	 3.00000000E-01	 5.50000000E-01
					 5.00000000E-02	 3.00000000E-01	 5.50000000E-01
					 0.00000000E+00	 0.00000000E+00	 6.00000000E-01
					 5.00000000E-02	 0.00000000E+00	 6.00000000E-01
					 0.00000000E+00	 3.00000000E-01	 6.00000000E-01
					 5.00000000E-02	 3.00000000E-01	 6.00000000E-01
					 0.00000000E+00	 0.00000000E+00	 6.50000000E-01
					 5.00000000E-02	 0.00000000E+00	 6.50000000E-01
					 0.00000000E+00	 3.00000000E-01	 6.50000000E-01
					 5.00000000E-02	 3.00000000E-01	 6.50000000E-01
					 0.00000000E+00	 0.00000000E+00	 7.00000000E-01
					 5.00000000E-02	 0.00000000E+00	 7.00000000E-01
					 0.00000000E+00	 3.00000000E-01	 7.00000000E-01
					 5.00000000E-02	 3.00000000E-01	 7.00000000E-01
					 0.00000000E+00	 0.00000000E+00	 7.50000000E-01
					 5.00000000E-02	 0.00000000E+00	 7.50000000E-01
					 0.00000000E+00	 3.00000000E-01	 7.50000000E-01
					 5.00000000E-02	 3.00000000E-01	 7.50000000E-01
					 0.00000000E+00	 0.00000000E+00	 8.00000000E-01
					 5.00000000E-02	 0.00000000E+00	 8.00000000E-01
					 0.00000000E+00	 3.00000000E-01	 8.00000000E-01
					 5.00000000E-02	 3.00000000E-01	 8.00000000E-01
					 0.00000000E+00	 0.00000000E+00	 8.50000000E-01
					 5.00000000E-02	 0.00000000E+00	 8.50000000E-01
					 0.00000000E+00	 3.00000000E-01	 8.50000000E-01
					 5.00000000E-02	 3.00000000E-01	 8.50000000E-01
					 0.00000000E+00	 0.00000000E+00	 9.00000000E-01
					 5.00000000E-02	 0.00000000E+00	 9.00000000E-01
					 0.00000000E+00	 3.00000000E-01	 9.00000000E-01
					 5.00000000E-02	 3.00000000E-01	 9.00000000E-01
					 0.00000000E+00	 0.00000000E+00	 9.50000000E-01
					 5.00000000E-02	 0.00000000E+00	 9.50000000E-01
					 0.00000000E+00	 3.00000000E-01	 9.50000000E-01
					 5.00000000E-02	 3.00000000E-01	 9.50000000E-01
					 0.00000000E+00	 0.00000000E+00	 1.00000000E+00
					 5.00000000E-02	 0.00000000E+00	 1.00000000E+00
					 0.00000000E+00	 3.00000000E-01	 1.00000000E+00
					 5.00000000E-02	 3.00000000E-01	 1.00000000E+00
					-5.00000000E-02	 0.00000000E+00	 0.00000000E+00
					-5.00000000E-02	 0.00000000E+00	 5.00000000E-02
					-5.00000000E-02	 3.00000000E-01	 0.00000000E+00
					-5.00000000E-02	 3.00000000E-01	 5.00000000E-02
					-5.00000000E-02	 0.00000000E+00	 1.00000000E-01
					-5.00000000E-02	 3.00000000E-01	 1.00000000E-01
					-5.00000000E-02	 0.00000000E+00	 1.50000000E-01
					-5.00000000E-02	 3.00000000E-01	 1.50000000E-01
					-5.00000000E-02	 0.00000000E+00	 2.00000000E-01
					-5.00000000E-02	 3.00000000E-01	 2.00000000E-01
					-5.00000000E-02	 0.00000000E+00	 2.50000000E-01
					-5.00000000E-02	 3.00000000E-01	 2.50000000E-01
					-5.00000000E-02	 0.00000000E+00	 3.00000000E-01
					-5.00000000E-02	 3.00000000E-01	 3.00000000E-01
					-5.00000000E-02	 0.00000000E+00	 3.50000000E-01
					-5.00000000E-02	 3.00000000E-01	 3.50000000E-01
					-5.00000000E-02	 0.00000000E+00	 4.00000000E-01
					-5.00000000E-02	 3.00000000E-01	 4.00000000E-01
					-5.00000000E-02	 0.00000000E+00	 4.50000000E-01
					-5.00000000E-02	 3.00000000E-01	 4.50000000E-01
					-5.00000000E-02	 0.00000000E+00	 5.00000000E-01
					-5.00000000E-02	 3.00000000E-01	 5.00000000E-01
					-5.00000000E-02	 0.00000000E+00	 5.50000000E-01
					-5.00000000E-02	 3.00000000E-01	 5.50000000E-01
					-5.00000000E-02	 0.00000000E+00	 6.00000000E-01
					-5.00000000E-02	 3.00000000E-01	 6.00000000E-01
					-5.00000000E-02	 0.00000000E+00	 6.50000000E-01
					-5.00000000E-02	 3.00000000E-01	 6.50000000E-01
					-5.00000000E-02	 0.00000000E+00	 7.00000000E-01
					-5.00000000E-02	 3.00000000E-01	 7.00000000E-01
					-5.00000000E-02	 0.00000000E+00	 7.50000000E-01
					-5.00000000E-02	 3.00000000E-01	 7.50000000E-01
					-5.00000000E-02	 0.00000000E+00	 8.00000000E-01
					-5.00000000E-02	 3.00000000E-01	 8.00000000E-01
					-5.00000000E-02	 0.00000000E+00	 8.50000000E-01
					-5.00000000E-02	 3.00000000E-01	 8.50000000E-01
					-5.00000000E-02	 0.00000000E+00	 9.00000000E-01
					-5.00000000E-02	 3.00000000E-01	 9.00000000E-01
					-5.00000000E-02	 0.00000000E+00	 9.50000000E-01
					-5.00000000E-02	 3.00000000E-01	 9.50000000E-01
					-5.00000000E-02	 0.00000000E+00	 1.00000000E+00
					-5.00000000E-02	 3.00000000E-01	 1.00000000E+00
				</DataArray>
			</Points>
			<Cells>
				<DataArray type="Int32" Name="connectivity" format="ascii">
					0 1 2 3 4 5 6 7 3 2 8 9 7 6 10 11 9 8 12 13 11 10 14 15 13 12 16 17 15 14 18 19 17 16 20 21 19 18 22 23 21 20 24 25 23 22 26 27 25 24 28 29 27 26 30 31 29 28 32 33 31 30 34 35 33 32 36 37 35 34 38 39 37 36 40 41 39 38 42 43 41 40 44 45 43 42 46 47 45 44 48 49 47 46 50 51 49 48 52 53 51 50 54 55 53 52 56 57 55 54 58 59 57 56 60 61 59 58 62 63 61 60 64 65 63 62 66 67 65 64 68 69 67 66 70 71 69 68 72 73 71 70 74 75 73 72 76 77 75 74 78 79 77 76 80 81 79 78 82 83 1 84 85 2 5 86 87 6 2 85 88 8 6 87 89 10 8 88 90 12 10 89 91 14 12 90 92 16 14 91 93 18 16 92 94 20 18 93 95 22 20 94 96 24 22 95 97 26 24 96 98 28 26 97 99 30 28 98 100 32 30 99 101 34 32 100 102 36 34 101 103 38 36 102 104 40 38 103 105 42 40 104 106 44 42 105 107 46 44 106 108 48 46 107 109 50 48 108 110 52 50 109 111 54 52 110 112 56 54 111 113 58 56 112 114 60 58 113 115 62 60 114 116 64 62 115 117 66 64 116 118 68 66 117 119 70 68 118 120 72 70 119 121 74 72 120 122 76 74 121 123 78 76 122 124 80 78 123 125 82 
				</DataArray>
				<DataArray type="Int32" Name="offsets" format="ascii">
					8 16 24 32 40 48 56 64 72 80 88 96 104 112 120 128 136 144 152 160 168 176 184 192 200 208 216 224 232 240 248 256 264 272 280 288 296 304 312 320 
				</DataArray>
				<DataArray type="UInt8" Name="types" format="ascii">
					12 12 12 12 12 12 12 12 12 12 12 12 12 12 12 12 12 12 12 12 12 12 12 12 12 12 12 12 12 12 12 12 12 12 12 12 12 12 12 12 
				</DataArray>
			</Cells>
			<PointData>
				<DataArray type="Float32" Name="U" NumberOfComponents="3" ComponentName0="D1" ComponentName1="D2" ComponentName2="D3" format="ascii">
					 0.00000000E+00	 0.00000000E+00	 0.00000000E+00
					 0.00000000E+00	 0.00000000E+00	 0.00000000E+00
					 1.40096000E-05	 0.00000000E+00	 4.94362000E-05
					-9.28752000E-04	 0.00000000E+00	 2.31173000E-04
					 0.00000000E+00	 0.00000000E+00	 0.00000000E+00
					 0.00000000E+00	 0.00000000E+00	 0.00000000E+00
					 1.40096000E-05	 0.00000000E+00	 4.94362000E-05
					-9.28752000E-04	 0.00000000E+00	 2.31173000E-04
					 1.90041000E-05	 0.00000000E+00	 2.46512000E-04
					-9.25090000E-04	 0.00000000E+00	 1.21895000E-05
					 1.90041000E-05	 0.00000000E+00	 2.46512000E-04
					-9.25090000E-04	 0.00000000E+00	 1.21895000E-05
					 4.79464000E-06	 0.00000000E+00	-1.30709000E-04
					-6.48022000E-04	 0.00000000E+00	-2.22671000E-04
					 4.79464000E-06	 0.00000000E+00	-1.30709000E-04
					-6.48022000E-04	 0.00000000E+00	-2.22671000E-04
					-4.11490000E-06	 0.00000000E+00	-6.75500000E-05
					-1.15620000E-03	 0.00000000E+00	-1.28430000E-04
					-4.11490000E-06	 0.00000000E+00	-6.75500000E-05
					-1.15620000E-03	 0.00000000E+00	-1.28430000E-04
					 2.64536000E-06	 0.00000000E+00	 2.96900000E-04
					-8.87210000E-04	 0.00000000E+00	 1.10678000E-04
					 2.64536000E-06	 0.00000000E+00	 2.96900000E-04
					-8.87210000E-04	 0.00000000E+00	 1.10678000E-04
					 2.39994000E-06	 0.00000000E+00	-1.73273000E-06
					-6.39962000E-04	 0.00000000E+00	 1.49238000E-04
					 2.39994000E-06	 0.00000000E+00	-1.73273000E-06
					-6.39962000E-04	 0.00000000E+00	 1.49238000E-04
					-1.16702000E-06	 0.00000000E+00	-1.37676000E-04
					-1.02373000E-03	 0.00000000E+00	-8.85485000E-05
					-1.16702000E-06	 0.00000000E+00	-1.37676000E-04
					-1.02373000E-03	 0.00000000E+00	-8.85485000E-05
					-3.14896000E-06	 0.00000000E+00	 4.08144000E-05
					-8.63531000E-04	 0.00000000E+00	-1.84114000E-05
					-3.14896000E-06	 0.00000000E+00	 4.08144000E-05
					-8.63531000E-04	 0.00000000E+00	-1.84114000E-05
					-4.08861000E-06	 0.00000000E+00	 5.05328000E-05
					-8.94978000E-04	 0.00000000E+00	 3.35542000E-05
					-4.08861000E-06	 0.00000000E+00	 5.05328000E-05
					-8.94978000E-04	 0.00000000E+00	 3.35542000E-05
					-5.74055000E-06	 0.00000000E+00	-1.61526000E-05
					-8.28966000E-04	 0.00000000E+00	 3.40165000E-05
					-5.74055000E-06	 0.00000000E+00	-1.61526000E-05
					-8.28966000E-04	 0.00000000E+00	 3.40165000E-05
					-8.25745000E-06	 0.00000000E+00	 8.09059000E-06
					-9.70128000E-04	 0.00000000E+00	 7.79805000E-06
					-8.25745000E-06	 0.00000000E+00	 8.09059000E-06
					-9.70128000E-04	 0.00000000E+00	 7.79805000E-06
					-1.21569000E-05	 0.00000000E+00	-7.60396000E-05
					-8.03512000E-04	 0.00000000E+00	-2.19708000E-04
					-1.21569000E-05	 0.00000000E+00	-7.60396000E-05
					-8.03512000E-04	 0.00000000E+00	-2.19708000E-04
					-1.51715000E-05	 0.00000000E+00	-3.37166000E-05
					-8.76661000E-04	 0.00000000E+00	 3.31161000E-04
					-1.51715000E-05	 0.00000000E+00	-3.37166000E-05
					-8.76661000E-04	 0.00000000E+00	 3.31161000E-04
					-1.49105000E-05	 0.00000000E+00	 2.49299000E-04
					-1.18357000E-03	 0.00000000E+00	 1.53556000E-04
					-1.49105000E-05	 0.00000000E+00	 2.49299000E-04
					-1.18357000E-03	 0.00000000E+00	 1.53556000E-04
					-2.01716000E-05	 0.00000000E+00	 4.63359000E-04
					-9.64636000E-04	 0.00000000E+00	-1.96893000E-04
					-2.01716000E-05	 0.00000000E+00	 4.63359000E-04
					-9.64636000E-04	 0.00000000E+00	-1.96893000E-04
					-3.28925000E-05	 0.00000000E+00	 1.04952000E-04
					-5.57690000E-04	 0.00000000E+00	 7.46915000E-04
					-3.28925000E-05	 0.00000000E+00	 1.04952000E-04
					-5.57690000E-04	 0.00000000E+00	 7.46915000E-04
					-3.64854000E-05	 0.00000000E+00	 1.36548000E-04
					-1.33217000E-03	 0.00000000E+00	 6.57425000E-04
					-3.64854000E-05	 0.00000000E+00	 1.36548000E-04
					-1.33217000E-03	 0.00000000E+00	 6.57425000E-04
					-3.05351000E-05	 0.00000000E+00	 6.51505000E-04
					-9.67868000E-04	 0.00000000E+00	 7.29137000E-04
					-3.05351000E-05	 0.00000000E+00	 6.51505000E-04
					-9.67868000E-04	 0.00000000E+00	 7.29137000E-04
					-3.97535000E-05	 0.00000000E+00	 2.34410000E-04
					-6.69493000E-04	 0.00000000E+00	 3.33859000E-05
					-3.97535000E-05	 0.00000000E+00	 2.34410000E-04
					-6.69493000E-04	 0.00000000E+00	 3.33859000E-05
					-4.77558000E-05	 0.00000000E+00	 3.01397000E-04
					-5.95397000E-04	 0.00000000E+00	 4.05752000E-04
					-4.77558000E-05	 0.00000000E+00	 3.01397000E-04
					-5.95397000E-04	 0.00000000E+00	 4.05752000E-04
					 0.00000000E+00	 0.00000000E+00	 0.00000000E+00
					 9.53181000E-04	 0.00000000E+00	 2.30835000E-04
					 0.00000000E+00	 0.00000000E+00	 0.00000000E+00
					 9.53181000E-04	 0.00000000E+00	 2.30835000E-04
					 9.45989000E-04	 0.00000000E+00	 2.07985000E-06
					 9.45989000E-04	 0.00000000E+00	 2.07985000E-06
					 6.42638000E-04	 0.00000000E+00	-2.35410000E-04
					 6.42638000E-04	 0.00000000E+00	-2.35410000E-04
					 1.14040000E-03	 0.00000000E+00	-1.36063000E-04
					 1.14040000E-03	 0.00000000E+00	-1.36063000E-04
					 8.76496000E-04	 0.00000000E+00	 1.12222000E-04
					 8.76496000E-04	 0.00000000E+00	 1.12222000E-04
					 6.33484000E-04	 0.00000000E+00	 1.43663000E-04
					 6.33484000E-04	 0.00000000E+00	 1.43663000E-04
					 1.00593000E-03	 0.00000000E+00	-9.07729000E-05
					 1.00593000E-03	 0.00000000E+00	-9.07729000E-05
					 8.43177000E-04	 0.00000000E+00	-2.21002000E-05
					 8.43177000E-04	 0.00000000E+00	-2.21002000E-05
					 8.68880000E-04	 0.00000000E+00	 2.87925000E-05
					 8.68880000E-04	 0.00000000E+00	 2.87925000E-05
					 8.05190000E-04	 0.00000000E+00	 2.92729000E-05
					 8.05190000E-04	 0.00000000E+00	 2.92729000E-05
					 9.32999000E-04	 0.00000000E+00	 3.08735000E-06
					 9.32999000E-04	 0.00000000E+00	 3.08735000E-06
					 7.62758000E-04	 0.00000000E+00	-2.28775000E-04
					 7.62758000E-04	 0.00000000E+00	-2.28775000E-04
					 8.25946000E-04	 0.00000000E+00	 3.26831000E-04
					 8.25946000E-04	 0.00000000E+00	 3.26831000E-04
					 1.13461000E-03	 0.00000000E+00	 1.46361000E-04
					 1.13461000E-03	 0.00000000E+00	 1.46361000E-04
					 8.98171000E-04	 0.00000000E+00	-2.09853000E-04
					 8.98171000E-04	 0.00000000E+00	-2.09853000E-04
					 4.70396000E-04	 0.00000000E+00	 7.31240000E-04
					 4.70396000E-04	 0.00000000E+00	 7.31240000E-04
					 1.23638000E-03	 0.00000000E+00	 6.46776000E-04
					 1.23638000E-03	 0.00000000E+00	 6.46776000E-04
					 8.58973000E-04	 0.00000000E+00	 7.22784000E-04
					 8.58973000E-04	 0.00000000E+00	 7.22784000E-04
					 5.77399000E-04	 0.00000000E+00	 3.03787000E-05
					 5.77399000E-04	 0.00000000E+00	 3.03787000E-05
					 4.97665000E-04	 0.00000000E+00	 4.01468000E-04
					 4.97665000E-04	 0.00000000E+00	 4.01468000E-04
				</DataArray>
			</PointData>
		</Piece>
	</UnstructuredGrid>
</VTKFile>