<?xml version="1.0"?>
<VTKFile type="UnstructuredGrid" version="0.1" byte_order="LittleEndian">
	<UnstructuredGrid>
		<Piece NumberOfPoints="126" NumberOfCells="40">
			<Points>
				<DataArray type="Float64" NumberOfComponents="3" format="ascii">
					 5.00000000E-02	 0.00000000E+00	 0.00000000E+00
					 0.00000000E+00	 0.00000000E+00	 0.00000000E+00
					 0.00000000E+00	 0.00000000E+00	 5.00000000E-02
					 5.00000000E-02	 0.00000000E+00	 5.00000000E-02
					 5.00000000E-02	 3.00000000E-01	 0.00000000E+00
					 0.00000000E+00	 3.00000000E-01	 0.00000000E+00
					 0.00000000E+00	 3.00000000E-01	 5.00000000E-02
					 5.00000000E-02	 3.00000000E-01	 5.00000000E-02
					 0.00000000E+00	 0.00000000E+00	 1.00000000E-01
					 5.00000000E-02	 0.00000000E+00	 1.00000000E-01
					 0.00000000E+00	 3.00000000E-01	 1.00000000E-01
					 5.00000000E-02	 3.00000000E-01	 1.00000000E-01
					 0.00000000E+00	 0.00000000E+00	 1.50000000E-01
					 5.00000000E-02	 0.00000000E+00	 1.50000000E-01
					 0.00000000E+00	 3.00000000E-01	 1.50000000E-01
					 5.00000000E-02	 3.00000000E-01	 1.50000000E-01
					 0.00000000E+00	 0.00000000E+00	 2.00000000E-01
					 5.00000000E-02	 0.00000000E+00	 2.00000000E-01
					 0.00000000E+00	 3.00000000E-01	 2.00000000E-01
					 5.00000000E-02	 3.00000000E-01	 2.00000000E-01
					 0.00000000E+00	 0.00000000E+00	 2.50000000E-01
					 5.00000000E-02	 0.00000000E+00	 2.50000000E-01
					 0.00000000E+00	 3.00000000E-01	 2.50000000E-01
					 5.00000000E-02	 3.00000000E-01	 2.50000000E-01
					 0.00000000E+00	 0.00000000E+00	 3.00000000E-01
					 5.00000000E-02	 0.00000000E+00	 3.00000000E-01
					 0.00000000E+00	 3.00000000E-01	 3.00000000E-01
					 5.00000000E-02	 3.00000000E-01	 3.00000000E-01
					 0.00000000E+00	 0.00000000E+00	 3.50000000E-01
					 5.00000000E-02	 0.00000000E+00	 3.50000000E-01
					 0.00000000E+00	 3.00000000E-01	 3.50000000E-01
					 5.00000000E-02	 3.00000000E-01	 3.50000000E-01
					 0.00000000E+00	 0.00000000E+00	 4.00000000E-01
					 5.00000000E-02	 0.00000000E+00	 4.00000000E-01
					 0.00000000E+00	 3.00000000E-01	 4.00000000E-01
					 5.00000000E-02	 3.00000000E-01	 4.00000000E-01
					 0.00000000E+00	 0.00000000E+00	 4.50000000E-01
					 5.00000000E-02	 0.00000000E+00	 4.50000000E-01
					 0.00000000E+00	 3.00000000E-01	 4.50000000E-01
					 5.00000000E-02	 3.00000000E-01	 4.50000000E-01
					 0.00000000E+00	 0.00000000E+00	 5.00000000E-01
					 5.00000000E-02	 0.00000000E+00	 5.00000000E-01
					 0.00000000E+00	 3.00000000E-01	 5.00000000E-01
					 5.00000000E-02	 3.00000000E-01	 5.00000000E-01
					 0.00000000E+00	 0.00000000E+00	 5.50000000E-01
					 5.00000000E-02	 0.00000000E+00	 5.50000000E-01
					 0.00000000E+00	 3.00000000E-01	 5.50000000E-01
					 5.00000000E-02	 3.00000000E-01	 5.50000000E-01
					 0.00000000E+00	 0.00000000E+00	 6.00000000E-01
					 5.00000000E-02	 0.00000000E+00	 6.00000000E-01
					 0.00000000E+00	 3.00000000E-01	 6.00000000E-01
					 5.00000000E-02	 3.00000000E-01	 6.00000000E-01
					 0.00000000E+00	 0.00000000E+00	 6.50000000E-01
					 5.00000000E-02	 0.00000000E+00	 6.50000000E-01
					 0.00000000E+00	 3.00000000E-01	 6.50000000E-01
					 5.00000000E-02	 3.00000000E-01	 6.50000000E-01
					 0.00000000E+00	 0.00000000E+00	 7.00000000E-01
					 5.00000000E-02	 0.00000000E+00	 7.00000000E-01
					 0.00000000E+00	 3.00000000E-01	 7.00000000E-01
					 5.00000000E-02	 3.00000000E-01	 7.00000000E-01
					 0.00000000E+00	 0.00000000E+00	 7.50000000E-01
					 5.00000000E-02	 0.00000000E+00	 7.50000000E-01
					 0.00000000E+00	 3.00000000E-01	 7.50000000E-01
					 5.00000000E-02	 3.00000000E-01	 7.50000000E-01
					 0.00000000E+00	 0.00000000E+00	 8.00000000E-01
					 5.00000000E-02	 0.00000000E+00	 8.00000000E-01
					 0.00000000E+00	 3.00000000E-01	 8.00000000E-01
					 5.00000000E-02	 3.00000000E-01	 8.00000000E-01
					 0.00000000E+00	 0.00000000E+00	 8.50000000E-01
					 5.00000000E-02	 0.00000000E+00	 8.50000000E-01
					 0.00000000E+00	 3.00000000E-01	 8.50000000E-01
					 5.00000000E-02	 3.00000000E-01	 8.50000000E-01
					 0.00000000E+00	 0.00000000E+00	 9.00000000E-01
					 5.00000000E-02	 0.00000000E+00	 9.00000000E-01
					 0.00000000E+00	 3.00000000E-01	 9.00000000E-01
					 5.00000000E-02	 3.00000000E-01	 9.00000000E-01
					 0.00000000E+00	 0.00000000E+00	 9.50000000E-01
					 5.00000000E-02	 0.00000000E+00	 9.50000000E-01
					 0.00000000E+00	 3.00000000E-01	 9.50000000E-01
					 5.00000000E-02	 3.00000000E-01	 9.50000000E-01
					 0.00000000E+00	 0.00000000E+00	 1.00000000E+00
					 5.00000000E-02	 0.00000000E+00	 1.00000000E+00
					 0.00000000E+00	 3.00000000E-01	 1.00000000E+00
					 5.00000000E-02	 3.00000000E-01	 1.00000000E+00
					-5.00000000E-02	 0.00000000E+00	 0.00000000E+00
					-5.00000000E-02	 0.00000000E+00	 5.00000000E-02
					-5.00000000E-02	 3.00000000E-01	 0.00000000E+00
					-5.00000000E-02	 3.00000000E-01	 5.00000000E-02
					-5.00000000E-02	 0.00000000E+00	 1.00000000E-01
					-5.00000000E-02	 3.00000000E-01	 1.00000000E-01
					-5.00000000E-02	 0.00000000E+00	 1.50000000E-01
					-5.00000000E-02	 3.00000000E-01	 1.50000000E-01
					-5.00000000E-02	 0.00000000E+00	 2.00000000E-01
					-5.00000000E-02	 3.00000000E-01	 2.00000000E-01
					-5.00000000E-02	 0.00000000E+00	 2.50000000E-01
					-5.00000000E-02	 3.00000000E-01	 2.50000000E-01
					-5.00000000E-02	 0.00000000E+00	 3.00000000E-01
					-5.00000000E-02	 3.00000000E-01	 3.00000000E-01
					-5.00000000E-02	 0.00000000E+00	 3.50000000E-01
					-5.00000000E-02	 3.00000000E-01	 3.50000000E-01
					-5.00000000E-02	 0.00000000E+00	 4.00000000E-01
					-5.00000000E-02	 3.00000000E-01	 4.00000000E-01
					-5.00000000E-02	 0.00000000E+00	 4.50000000E-01
					-5.00000000E-02	 3.00000000E-01	 4.50000000E-01
					-5.00000000E-02	 0.00000000E+00	 5.00000000E-01
					-5.00000000E-02	 3.00000000E-01	 5.00000000E-01
					-5.00000000E-02	 0.00000000E+00	 5.50000000E-01
					-5.00000000E-02	 3.00000000E-01	 5.50000000E-01
					-5.00000000E-02	 0.00000000E+00	 6.00000000E-01
					-5.00000000E-02	 3.00000000E-01	 6.00000000E-01
					-5.00000000E-02	 0.00000000E+00	 6.50000000E-01
					-5.00000000E-02	 3.00000000E-01	 6.50000000E-01
					-5.00000000E-02	 0.00000000E+00	 7.00000000E-01
					-5.00000000E-02	 3.00000000E-01	 7.00000000E-01
					-5.00000000E-02	 0.00000000E+00	 7.50000000E-01
					-5.00000000E-02	 3.00000000E-01	 7.50000000E-01
					-5.00000000E-02	 0.00000000E+00	 8.00000000E-01
					-5.00000000E-02	 3.00000000E-01	 8.00000000E-01
					-5.00000000E-02	 0.00000000E+00	 8.50000000E-01
					-5.00000000E-02	 3.00000000E-01	 8.50000000E-01
					-5.00000000E-02	 0.00000000E+00	 9.00000000E-01
					-5.00000000E-02	 3.00000000E-01	 9.00000000E-01
					-5.00000000E-02	 0.00000000E+00	 9.50000000E-01
					-5.00000000E-02	 3.00000000E-01	 9.50000000E-01
					-5.00000000E-02	 0.00000000E+00	 1.00000000E+00
					-5.00000000E-02	 3.00000000E-01	 1.00000000E+00
				</DataArray>
			</Points>
			<Cells>
				<DataArray type="Int32" Name="connectivity" format="ascii">
					0 1 2 3 4 5 6 7 3 2 8 9 7 6 10 11 9 8 12 13 11 10 14 15 13 12 16 17 15 14 18 19 17 16 20 21 19 18 22 23 21 20 24 25 23 22 26 27 25 24 28 29 27 26 30 31 29 28 32 33 31 30 34 35 33 32 36 37 35 34 38 39 37 36 40 41 39 38 42 43 41 40 44 45 43 42 46 47 45 44 48 49 47 46 50 51 49 48 52 53 51 50 54 55 53 52 56 57 55 54 58 59 57 56 60 61 59 58 62 63 61 60 64 65 63 62 66 67 65 64 68 69 67 66 70 71 69 68 72 73 71 70 74 75 73 72 76 77 75 74 78 79 77 76 80 81 79 78 82 83 1 84 85 2 5 86 87 6 2 85 88 8 6 87 89 10 8 88 90 12 10 89 91 14 12 90 92 16 14 91 93 18 16 92 94 20 18 93 95 22 20 94 96 24 22 95 97 26 24 96 98 28 26 97 99 30 28 98 100 32 30 99 101 34 32 100 102 36 34 101 103 38 36 102 104 40 38 103 105 42 40 104 106 44 42 105 107 46 44 106 108 48 46 107 109 50 48 108 110 52 50 109 111 54 52 110 112 56 54 111 113 58 56 112 114 60 58 113 115 62 60 114 116 64 62 115 117 66 64 116 118 68 66 117 119 70 68 118 120 72 70 119 121 74 72 120 122 76 74 121 123 78 76 122 124 80 78 123 125 82 
				</DataArray>
				<DataArray type="Int32" Name="offsets" format="ascii">
					8 16 24 32 40 48 56 64 72 80 88 96 104 112 120 128 136 144 152 160 168 176 184 192 200 208 216 224 232 240 248 256 264 272 280 288 296 304 312 320 
				</DataArray>
				<DataArray type="UInt8" Name="types" format="ascii">
					12 12 12 12 12 12 12 12 12 12 12 12 12 12 12 12 12 12 12 12 12 12 12 12 12 12 12 12 12 12 12 12 12 12 12 12 12 12 12 12 
				</DataArray>
			</Cells>
			<PointData>
				<DataArray type="Float32" Name="U" NumberOfComponents="3" ComponentName0="D1" ComponentName1="D2" ComponentName2="D3" format="ascii">
					 0.00000000E+00	 0.00000000E+00	 0.00000000E+00
					 0.00000000E+00	 0.00000000E+00	 0.00000000E+00
					 1.26732000E-02	 0.00000000E+00	-1.43321000E-02
					-1.79770000E-03	 0.00000000E+00	 1.10543000E-02
					 0.00000000E+00	 0.00000000E+00	 0.00000000E+00
					 0.00000000E+00	 0.00000000E+00	 0.00000000E+00
					 1.26732000E-02	 0.00000000E+00	-1.43321000E-02
					-1.79770000E-03	 0.00000000E+00	 1.10543000E-02
					 5.82608000E-02	 0.00000000E+00	-2.73423000E-02
					-4.48080000E-02	 0.00000000E+00	 3.20890000E-02
					 5.82608000E-02	 0.00000000E+00	-2.73423000E-02
					-4.48080000E-02	 0.00000000E+00	 3.20890000E-02
					 8.46072000E-02	 0.00000000E+00	-1.81203000E-02
					 1.54316000E-02	 0.00000000E+00	-1.07945000E-02
					 8.46072000E-02	 0.00000000E+00	-1.81203000E-02
					 1.54316000E-02	 0.00000000E+00	-1.07945000E-02
					 1.20286000E-01	 0.00000000E+00	-4.07097000E-02
					 4.18799000E-02	 0.00000000E+00	-1.24865000E-02
					 1.20286000E-01	 0.00000000E+00	-4.07097000E-02
					 4.18799000E-02	 0.00000000E+00	-1.24865000E-02
					 1.59573000E-01	 0.00000000E+00	-3.64330000E-02
					 5.21167000E-02	 0.00000000E+00	-3.64109000E-02
					 1.59573000E-01	 0.00000000E+00	-3.64330000E-02
					 5.21167000E-02	 0.00000000E+00	-3.64109000E-02
					 1.55939000E-01	 0.00000000E+00	-2.33126000E-02
					 6.81039000E-02	 0.00000000E+00	-4.18041000E-02
					 1.55939000E-01	 0.00000000E+00	-2.33126000E-02
					 6.81039000E-02	 0.00000000E+00	-4.18041000E-02
					 1.24311000E-01	 0.00000000E+00	-3.30558000E-02
					 4.51478000E-02	 0.00000000E+00	-5.56483000E-02
					 1.24311000E-01	 0.00000000E+00	-3.30558000E-02
					 4.51478000E-02	 0.00000000E+00	-5.56483000E-02
					 1.14583000E-01	 0.00000000E+00	-2.35611000E-02
					 2.51847000E-02	 0.00000000E+00	-5.68954000E-02
					 1.14583000E-01	 0.00000000E+00	-2.35611000E-02
					 2.51847000E-02	 0.00000000E+00	-5.68954000E-02
					 9.62263000E-02	 0.00000000E+00	-3.63161000E-02
					-3.30006000E-03	 0.00000000E+00	-4.68709000E-02
					 9.62263000E-02	 0.00000000E+00	-3.63161000E-02
					-3.30006000E-03	 0.00000000E+00	-4.68709000E-02
					 6.59000000E-02	 0.00000000E+00	-3.62471000E-02
					-3.84629000E-02	 0.00000000E+00	-4.40667000E-02
					 6.59000000E-02	 0.00000000E+00	-3.62471000E-02
					-3.84629000E-02	 0.00000000E+00	-4.40667000E-02
					 1.07025000E-02	 0.00000000E+00	-3.21707000E-02
					-6.74768000E-02	 0.00000000E+00	-4.80279000E-02
					 1.07025000E-02	 0.00000000E+00	-3.21707000E-02
					-6.74768000E-02	 0.00000000E+00	-4.80279000E-02
					 7.31096000E-03	 0.00000000E+00	-2.13691000E-02
					-3.78672000E-02	 0.00000000E+00	-3.40087000E-02
					 7.31096000E-03	 0.00000000E+00	-2.13691000E-02
					-3.78672000E-02	 0.00000000E+00	-3.40087000E-02
					 2.22142000E-02	 0.00000000E+00	-2.77896000E-02
					 1.62081000E-02	 0.00000000E+00	-4.70052000E-02
					 2.22142000E-02	 0.00000000E+00	-2.77896000E-02
					 1.62081000E-02	 0.00000000E+00	-4.70052000E-02
					 3.51883000E-02	 0.00000000E+00	-2.13293000E-02
					 1.24318000E-02	 0.00000000E+00	-2.74060000E-02
					 3.51883000E-02	 0.00000000E+00	-2.13293000E-02
					 1.24318000E-02	 0.00000000E+00	-2.74060000E-02
					 2.65636000E-02	 0.00000000E+00	-1.16874000E-02
					 2.80113000E-02	 0.00000000E+00	-8.84201000E-03
					 2.65636000E-02	 0.00000000E+00	-1.16874000E-02
					 2.80113000E-02	 0.00000000E+00	-8.84201000E-03
					 2.49373000E-02	 0.00000000E+00	-1.09039000E-02
					 2.67188000E-02	 0.00000000E+00	-6.67903000E-03
					 2.49373000E-02	 0.00000000E+00	-1.09039000E-02
					 2.67188000E-02	 0.00000000E+00	-6.67903000E-03
					 2.42778000E-02	 0.00000000E+00	-1.08647000E-03
					 1.82984000E-02	 0.00000000E+00	-1.11992000E-03
					 2.42778000E-02	 0.00000000E+00	-1.08647000E-03
					 1.82984000E-02	 0.00000000E+00	-1.11992000E-03
					 2.25874000E-02	 0.00000000E+00	-1.75952000E-03
					 2.20313000E-02	 0.00000000E+00	-3.23725000E-03
					 2.25874000E-02	 0.00000000E+00	-1.75952000E-03
					 2.20313000E-02	 0.00000000E+00	-3.23725000E-03
					 2.22068000E-02	 0.00000000E+00	 1.14886000E-03
					 2.16054000E-02	 0.00000000E+00	 2.83839000E-03
					 2.22068000E-02	 0.00000000E+00	 1.14886000E-03
					 2.16054000E-02	 0.00000000E+00	 2.83839000E-03
					 1.82930000E-02	 0.00000000E+00	 1.11196000E-03
					 2.28072000E-02	 0.00000000E+00	 3.24114000E-03
					 1.82930000E-02	 0.00000000E+00	 1.11196000E-03
					 2.28072000E-02	 0.00000000E+00	 3.24114000E-03
					 0.00000000E+00	 0.00000000E+00	 0.00000000E+00
					 7.56074000E-02	 0.00000000E+00	-3.11277000E-02
					 0.00000000E+00	 0.00000000E+00	 0.00000000E+00
					 7.56074000E-02	 0.00000000E+00	-3.11277000E-02
					 1.21685000E-01	 0.00000000E+00	-4.28619000E-02
					 1.21685000E-01	 0.00000000E+00	-4.28619000E-02
					 1.60643000E-01	 0.00000000E+00	-5.81931000E-02
					 1.60643000E-01	 0.00000000E+00	-5.81931000E-02
					 1.78822000E-01	 0.00000000E+00	-3.34357000E-02
					 1.78822000E-01	 0.00000000E+00	-3.34357000E-02
					 1.94963000E-01	 0.00000000E+00	-3.09696000E-02
					 1.94963000E-01	 0.00000000E+00	-3.09696000E-02
					 2.48214000E-01	 0.00000000E+00	-2.80055000E-02
					 2.48214000E-01	 0.00000000E+00	-2.80055000E-02
					 2.28407000E-01	 0.00000000E+00	-2.40596000E-03
					 2.28407000E-01	 0.00000000E+00	-2.40596000E-03
					 1.95062000E-01	 0.00000000E+00	 2.06287000E-03
					 1.95062000E-01	 0.00000000E+00	 2.06287000E-03
					 1.73167000E-01	 0.00000000E+00	-1.52510000E-02
					 1.73167000E-01	 0.00000000E+00	-1.52510000E-02
					 1.32138000E-01	 0.00000000E+00	-2.14255000E-02
					 1.32138000E-01	 0.00000000E+00	-2.14255000E-02
					 1.03405000E-01	 0.00000000E+00	-2.50792000E-02
					 1.03405000E-01	 0.00000000E+00	-2.50792000E-02
					 1.10298000E-01	 0.00000000E+00	-2.37229000E-02
					 1.10298000E-01	 0.00000000E+00	-2.37229000E-02
					 9.43955000E-02	 0.00000000E+00	-2.39517000E-02
					 9.43955000E-02	 0.00000000E+00	-2.39517000E-02
					 3.68410000E-02	 0.00000000E+00	-3.07035000E-02
					 3.68410000E-02	 0.00000000E+00	-3.07035000E-02
					 2.71734000E-02	 0.00000000E+00	-1.82770000E-02
					 2.71734000E-02	 0.00000000E+00	-1.82770000E-02
					 2.44101000E-02	 0.00000000E+00	-1.20729000E-02
					 2.44101000E-02	 0.00000000E+00	-1.20729000E-02
					 3.07633000E-02	 0.00000000E+00	-2.13628000E-03
					 3.07633000E-02	 0.00000000E+00	-2.13628000E-03
					 2.37430000E-02	 0.00000000E+00	-3.66650000E-04
					 2.37430000E-02	 0.00000000E+00	-3.66650000E-04
					 2.01913000E-02	 0.00000000E+00	-2.28684000E-03
					 2.01913000E-02	 0.00000000E+00	-2.28684000E-03
					 2.19585000E-02	 0.00000000E+00	 3.64227000E-03
					 2.19585000E-02	 0.00000000E+00	 3.64227000E-03
				</DataArray>
			</PointData>
		</Piece>
	</UnstructuredGrid>
</VTKFile>