<?xml version="1.0"?>
<VTKFile type="UnstructuredGrid" version="0.1" byte_order="LittleEndian">
	<UnstructuredGrid>
		<Piece NumberOfPoints="126" NumberOfCells="40">
			<Points>
				<DataArray type="Float64" NumberOfComponents="3" format="ascii">
					 5.00000000E-02	 0.00000000E+00	 0.00000000E+00
					 0.00000000E+00	 0.00000000E+00	 0.00000000E+00
					 0.00000000E+00	 0.00000000E+00	 5.00000000E-02
					 5.00000000E-02	 0.00000000E+00	 5.00000000E-02
					 5.00000000E-02	 3.00000000E-01	 0.00000000E+00
					 0.00000000E+00	 3.00000000E-01	 0.00000000E+00
					 0.00000000E+00	 3.00000000E-01	 5.00000000E-02
					 5.00000000E-02	 3.00000000E-01	 5.00000000E-02
					 0.00000000E+00	 0.00000000E+00	 1.00000000E-01
					 5.00000000E-02	 0.00000000E+00	 1.00000000E-01
					 0.00000000E+00	 3.00000000E-01	 1.00000000E-01
					 5.00000000E-02	 3.00000000E-01	 1.00000000E-01
					 0.00000000E+00	 0.00000000E+00	 1.50000000E-01
					 5.00000000E-02	 0.00000000E+00	 1.50000000E-01
					 0.00000000E+00	 3.00000000E-01	 1.50000000E-01
					 5.00000000E-02	 3.00000000E-01	 1.50000000E-01
					 0.00000000E+00	 0.00000000E+00	 2.00000000E-01
					 5.00000000E-02	 0.00000000E+00	 2.00000000E-01
					 0.00000000E+00	 3.00000000E-01	 2.00000000E-01
					 5.00000000E-02	 3.00000000E-01	 2.00000000E-01
					 0.00000000E+00	 0.00000000E+00	 2.50000000E-01
					 5.00000000E-02	 0.00000000E+00	 2.50000000E-01
					 0.00000000E+00	 3.00000000E-01	 2.50000000E-01
					 5.00000000E-02	 3.00000000E-01	 2.50000000E-01
					 0.00000000E+00	 0.00000000E+00	 3.00000000E-01
					 5.00000000E-02	 0.00000000E+00	 3.00000000E-01
					 0.00000000E+00	 3.00000000E-01	 3.00000000E-01
					 5.00000000E-02	 3.00000000E-01	 3.00000000E-01
					 0.00000000E+00	 0.00000000E+00	 3.50000000E-01
					 5.00000000E-02	 0.00000000E+00	 3.50000000E-01
					 0.00000000E+00	 3.00000000E-01	 3.50000000E-01
					 5.00000000E-02	 3.00000000E-01	 3.50000000E-01
					 0.00000000E+00	 0.00000000E+00	 4.00000000E-01
					 5.00000000E-02	 0.00000000E+00	 4.00000000E-01
					 0.00000000E+00	 3.00000000E-01	 4.00000000E-01
					 5.00000000E-02	 3.00000000E-01	 4.00000000E-01
					 0.00000000E+00	 0.00000000E+00	 4.50000000E-01
					 5.00000000E-02	 0.00000000E+00	 4.50000000E-01
					 0.00000000E+00	 3.00000000E-01	 4.50000000E-01
					 5.00000000E-02	 3.00000000E-01	 4.50000000E-01
					 0.00000000E+00	 0.00000000E+00	 5.00000000E-01
					 5.00000000E-02	 0.00000000E+00	 5.00000000E-01
					 0.00000000E+00	 3.00000000E-01	 5.00000000E-01
					 5.00000000E-02	 3.00000000E-01	 5.00000000E-01
					 0.00000000E+00	 0.00000000E+00	 5.50000000E-01
					 5.00000000E-02	 0.00000000E+00	 5.50000000E-01
					 0.00000000E+00	 3.00000000E-01	 5.50000000E-01
					 5.00000000E-02	 3.00000000E-01	 5.50000000E-01
					 0.00000000E+00	 0.00000000E+00	 6.00000000E-01
					 5.00000000E-02	 0.00000000E+00	 6.00000000E-01
					 0.00000000E+00	 3.00000000E-01	 6.00000000E-01
					 5.00000000E-02	 3.00000000E-01	 6.00000000E-01
					 0.00000000E+00	 0.00000000E+00	 6.50000000E-01
					 5.00000000E-02	 0.00000000E+00	 6.50000000E-01
					 0.00000000E+00	 3.00000000E-01	 6.50000000E-01
					 5.00000000E-02	 3.00000000E-01	 6.50000000E-01
					 0.00000000E+00	 0.00000000E+00	 7.00000000E-01
					 5.00000000E-02	 0.00000000E+00	 7.00000000E-01
					 0.00000000E+00	 3.00000000E-01	 7.00000000E-01
					 5.00000000E-02	 3.00000000E-01	 7.00000000E-01
					 0.00000000E+00	 0.00000000E+00	 7.50000000E-01
					 5.00000000E-02	 0.00000000E+00	 7.50000000E-01
					 0.00000000E+00	 3.00000000E-01	 7.50000000E-01
					 5.00000000E-02	 3.00000000E-01	 7.50000000E-01
					 0.00000000E+00	 0.00000000E+00	 8.00000000E-01
					 5.00000000E-02	 0.00000000E+00	 8.00000000E-01
					 0.00000000E+00	 3.00000000E-01	 8.00000000E-01
					 5.00000000E-02	 3.00000000E-01	 8.00000000E-01
					 0.00000000E+00	 0.00000000E+00	 8.50000000E-01
					 5.00000000E-02	 0.00000000E+00	 8.50000000E-01
					 0.00000000E+00	 3.00000000E-01	 8.50000000E-01
					 5.00000000E-02	 3.00000000E-01	 8.50000000E-01
					 0.00000000E+00	 0.00000000E+00	 9.00000000E-01
					 5.00000000E-02	 0.00000000E+00	 9.00000000E-01
					 0.00000000E+00	 3.00000000E-01	 9.00000000E-01
					 5.00000000E-02	 3.00000000E-01	 9.00000000E-01
					 0.00000000E+00	 0.00000000E+00	 9.50000000E-01
					 5.00000000E-02	 0.00000000E+00	 9.50000000E-01
					 0.00000000E+00	 3.00000000E-01	 9.50000000E-01
					 5.00000000E-02	 3.00000000E-01	 9.50000000E-01
					 0.00000000E+00	 0.00000000E+00	 1.00000000E+00
					 5.00000000E-02	 0.00000000E+00	 1.00000000E+00
					 0.00000000E+00	 3.00000000E-01	 1.00000000E+00
					 5.00000000E-02	 3.00000000E-01	 1.00000000E+00
					-5.00000000E-02	 0.00000000E+00	 0.00000000E+00
					-5.00000000E-02	 0.00000000E+00	 5.00000000E-02
					-5.00000000E-02	 3.00000000E-01	 0.00000000E+00
					-5.00000000E-02	 3.00000000E-01	 5.00000000E-02
					-5.00000000E-02	 0.00000000E+00	 1.00000000E-01
					-5.00000000E-02	 3.00000000E-01	 1.00000000E-01
					-5.00000000E-02	 0.00000000E+00	 1.50000000E-01
					-5.00000000E-02	 3.00000000E-01	 1.50000000E-01
					-5.00000000E-02	 0.00000000E+00	 2.00000000E-01
					-5.00000000E-02	 3.00000000E-01	 2.00000000E-01
					-5.00000000E-02	 0.00000000E+00	 2.50000000E-01
					-5.00000000E-02	 3.00000000E-01	 2.50000000E-01
					-5.00000000E-02	 0.00000000E+00	 3.00000000E-01
					-5.00000000E-02	 3.00000000E-01	 3.00000000E-01
					-5.00000000E-02	 0.00000000E+00	 3.50000000E-01
					-5.00000000E-02	 3.00000000E-01	 3.50000000E-01
					-5.00000000E-02	 0.00000000E+00	 4.00000000E-01
					-5.00000000E-02	 3.00000000E-01	 4.00000000E-01
					-5.00000000E-02	 0.00000000E+00	 4.50000000E-01
					-5.00000000E-02	 3.00000000E-01	 4.50000000E-01
					-5.00000000E-02	 0.00000000E+00	 5.00000000E-01
					-5.00000000E-02	 3.00000000E-01	 5.00000000E-01
					-5.00000000E-02	 0.00000000E+00	 5.50000000E-01
					-5.00000000E-02	 3.00000000E-01	 5.50000000E-01
					-5.00000000E-02	 0.00000000E+00	 6.00000000E-01
					-5.00000000E-02	 3.00000000E-01	 6.00000000E-01
					-5.00000000E-02	 0.00000000E+00	 6.50000000E-01
					-5.00000000E-02	 3.00000000E-01	 6.50000000E-01
					-5.00000000E-02	 0.00000000E+00	 7.00000000E-01
					-5.00000000E-02	 3.00000000E-01	 7.00000000E-01
					-5.00000000E-02	 0.00000000E+00	 7.50000000E-01
					-5.00000000E-02	 3.00000000E-01	 7.50000000E-01
					-5.00000000E-02	 0.00000000E+00	 8.00000000E-01
					-5.00000000E-02	 3.00000000E-01	 8.00000000E-01
					-5.00000000E-02	 0.00000000E+00	 8.50000000E-01
					-5.00000000E-02	 3.00000000E-01	 8.50000000E-01
					-5.00000000E-02	 0.00000000E+00	 9.00000000E-01
					-5.00000000E-02	 3.00000000E-01	 9.00000000E-01
					-5.00000000E-02	 0.00000000E+00	 9.50000000E-01
					-5.00000000E-02	 3.00000000E-01	 9.50000000E-01
					-5.00000000E-02	 0.00000000E+00	 1.00000000E+00
					-5.00000000E-02	 3.00000000E-01	 1.00000000E+00
				</DataArray>
			</Points>
			<Cells>
				<DataArray type="Int32" Name="connectivity" format="ascii">
					0 1 2 3 4 5 6 7 3 2 8 9 7 6 10 11 9 8 12 13 11 10 14 15 13 12 16 17 15 14 18 19 17 16 20 21 19 18 22 23 21 20 24 25 23 22 26 27 25 24 28 29 27 26 30 31 29 28 32 33 31 30 34 35 33 32 36 37 35 34 38 39 37 36 40 41 39 38 42 43 41 40 44 45 43 42 46 47 45 44 48 49 47 46 50 51 49 48 52 53 51 50 54 55 53 52 56 57 55 54 58 59 57 56 60 61 59 58 62 63 61 60 64 65 63 62 66 67 65 64 68 69 67 66 70 71 69 68 72 73 71 70 74 75 73 72 76 77 75 74 78 79 77 76 80 81 79 78 82 83 1 84 85 2 5 86 87 6 2 85 88 8 6 87 89 10 8 88 90 12 10 89 91 14 12 90 92 16 14 91 93 18 16 92 94 20 18 93 95 22 20 94 96 24 22 95 97 26 24 96 98 28 26 97 99 30 28 98 100 32 30 99 101 34 32 100 102 36 34 101 103 38 36 102 104 40 38 103 105 42 40 104 106 44 42 105 107 46 44 106 108 48 46 107 109 50 48 108 110 52 50 109 111 54 52 110 112 56 54 111 113 58 56 112 114 60 58 113 115 62 60 114 116 64 62 115 117 66 64 116 118 68 66 117 119 70 68 118 120 72 70 119 121 74 72 120 122 76 74 121 123 78 76 122 124 80 78 123 125 82 
				</DataArray>
				<DataArray type="Int32" Name="offsets" format="ascii">
					8 16 24 32 40 48 56 64 72 80 88 96 104 112 120 128 136 144 152 160 168 176 184 192 200 208 216 224 232 240 248 256 264 272 280 288 296 304 312 320 
				</DataArray>
				<DataArray type="UInt8" Name="types" format="ascii">
					12 12 12 12 12 12 12 12 12 12 12 12 12 12 12 12 12 12 12 12 12 12 12 12 12 12 12 12 12 12 12 12 12 12 12 12 12 12 12 12 
				</DataArray>
			</Cells>
			<PointData>
				<DataArray type="Float32" Name="U" NumberOfComponents="3" ComponentName0="D1" ComponentName1="D2" ComponentName2="D3" format="ascii">
					 0.00000000E+00	 0.00000000E+00	 0.00000000E+00
					 0.00000000E+00	 0.00000000E+00	 0.00000000E+00
					 1.39644000E-02	 0.00000000E+00	-2.04329000E-03
					 6.27267000E-03	 0.00000000E+00	-4.14054000E-02
					 0.00000000E+00	 0.00000000E+00	 0.00000000E+00
					 0.00000000E+00	 0.00000000E+00	 0.00000000E+00
					 1.39644000E-02	 0.00000000E+00	-2.04329000E-03
					 6.27267000E-03	 0.00000000E+00	-4.14054000E-02
					 5.60306000E-02	 0.00000000E+00	-2.90172000E-02
					 4.15696000E-02	 0.00000000E+00	-3.59415000E-02
					 5.60306000E-02	 0.00000000E+00	-2.90172000E-02
					 4.15696000E-02	 0.00000000E+00	-3.59415000E-02
					 8.14578000E-02	 0.00000000E+00	-2.95164000E-02
					 7.00275000E-02	 0.00000000E+00	-2.73742000E-02
					 8.14578000E-02	 0.00000000E+00	-2.95164000E-02
					 7.00275000E-02	 0.00000000E+00	-2.73742000E-02
					 1.20839000E-01	 0.00000000E+00	-3.00082000E-02
					 5.11557000E-02	 0.00000000E+00	-1.69576000E-02
					 1.20839000E-01	 0.00000000E+00	-3.00082000E-02
					 5.11557000E-02	 0.00000000E+00	-1.69576000E-02
					 1.46368000E-01	 0.00000000E+00	-3.32387000E-02
					 6.77954000E-02	 0.00000000E+00	-8.73730000E-03
					 1.46368000E-01	 0.00000000E+00	-3.32387000E-02
					 6.77954000E-02	 0.00000000E+00	-8.73730000E-03
					 1.63928000E-01	 0.00000000E+00	-3.72328000E-02
					 5.85262000E-02	 0.00000000E+00	-2.89943000E-02
					 1.63928000E-01	 0.00000000E+00	-3.72328000E-02
					 5.85262000E-02	 0.00000000E+00	-2.89943000E-02
					 1.69658000E-01	 0.00000000E+00	-4.31162000E-02
					 8.42221000E-02	 0.00000000E+00	-2.34147000E-02
					 1.69658000E-01	 0.00000000E+00	-4.31162000E-02
					 8.42221000E-02	 0.00000000E+00	-2.34147000E-02
					 1.82870000E-01	 0.00000000E+00	-2.63435000E-02
					 7.96226000E-02	 0.00000000E+00	-2.13253000E-02
					 1.82870000E-01	 0.00000000E+00	-2.63435000E-02
					 7.96226000E-02	 0.00000000E+00	-2.13253000E-02
					 1.44135000E-01	 0.00000000E+00	-4.01439000E-02
					 5.50372000E-02	 0.00000000E+00	-4.61390000E-02
					 1.44135000E-01	 0.00000000E+00	-4.01439000E-02
					 5.50372000E-02	 0.00000000E+00	-4.61390000E-02
					 1.09861000E-01	 0.00000000E+00	-5.00778000E-02
					 3.16975000E-02	 0.00000000E+00	-6.43823000E-02
					 1.09861000E-01	 0.00000000E+00	-5.00778000E-02
					 3.16975000E-02	 0.00000000E+00	-6.43823000E-02
					 8.88341000E-02	 0.00000000E+00	-5.23967000E-02
					 1.64131000E-02	 0.00000000E+00	-5.28564000E-02
					 8.88341000E-02	 0.00000000E+00	-5.23967000E-02
					 1.64131000E-02	 0.00000000E+00	-5.28564000E-02
					 7.40471000E-02	 0.00000000E+00	-4.72042000E-02
					-3.75755000E-02	 0.00000000E+00	-7.70101000E-02
					 7.40471000E-02	 0.00000000E+00	-4.72042000E-02
					-3.75755000E-02	 0.00000000E+00	-7.70101000E-02
					 3.44952000E-03	 0.00000000E+00	-6.29720000E-02
					-3.01867000E-02	 0.00000000E+00	-5.81911000E-02
					 3.44952000E-03	 0.00000000E+00	-6.29720000E-02
					-3.01867000E-02	 0.00000000E+00	-5.81911000E-02
					-2.64212000E-03	 0.00000000E+00	-4.87544000E-02
					-1.84264000E-02	 0.00000000E+00	-5.77521000E-02
					-2.64212000E-03	 0.00000000E+00	-4.87544000E-02
					-1.84264000E-02	 0.00000000E+00	-5.77521000E-02
					 1.78138000E-02	 0.00000000E+00	-4.12443000E-02
					 1.47125000E-02	 0.00000000E+00	-6.37579000E-02
					 1.78138000E-02	 0.00000000E+00	-4.12443000E-02
					 1.47125000E-02	 0.00000000E+00	-6.37579000E-02
					 5.02513000E-02	 0.00000000E+00	-3.86093000E-02
					 1.84561000E-02	 0.00000000E+00	-4.75540000E-02
					 5.02513000E-02	 0.00000000E+00	-3.86093000E-02
					 1.84561000E-02	 0.00000000E+00	-4.75540000E-02
					 2.71884000E-02	 0.00000000E+00	-3.09352000E-02
					 4.01690000E-02	 0.00000000E+00	-3.03778000E-02
					 2.71884000E-02	 0.00000000E+00	-3.09352000E-02
					 4.01690000E-02	 0.00000000E+00	-3.03778000E-02
					 3.03863000E-02	 0.00000000E+00	-2.79241000E-02
					 1.66021000E-02	 0.00000000E+00	-2.79373000E-02
					 3.03863000E-02	 0.00000000E+00	-2.79241000E-02
					 1.66021000E-02	 0.00000000E+00	-2.79373000E-02
					 2.93307000E-02	 0.00000000E+00	-2.98892000E-02
					 2.36446000E-02	 0.00000000E+00	-2.40234000E-02
					 2.93307000E-02	 0.00000000E+00	-2.98892000E-02
					 2.36446000E-02	 0.00000000E+00	-2.40234000E-02
					 2.55401000E-02	 0.00000000E+00	-2.10199000E-02
					 2.87917000E-02	 0.00000000E+00	-2.03248000E-02
					 2.55401000E-02	 0.00000000E+00	-2.10199000E-02
					 2.87917000E-02	 0.00000000E+00	-2.03248000E-02
					 0.00000000E+00	 0.00000000E+00	 0.00000000E+00
					 1.61060000E-02	 0.00000000E+00	 2.54694000E-02
					 0.00000000E+00	 0.00000000E+00	 0.00000000E+00
					 1.61060000E-02	 0.00000000E+00	 2.54694000E-02
					 7.58164000E-02	 0.00000000E+00	 1.20289000E-02
					 7.58164000E-02	 0.00000000E+00	 1.20289000E-02
					 1.50839000E-01	 0.00000000E+00	-4.40008000E-02
					 1.50839000E-01	 0.00000000E+00	-4.40008000E-02
					 2.09681000E-01	 0.00000000E+00	-6.47048000E-02
					 2.09681000E-01	 0.00000000E+00	-6.47048000E-02
					 2.31905000E-01	 0.00000000E+00	-6.50903000E-02
					 2.31905000E-01	 0.00000000E+00	-6.50903000E-02
					 2.58790000E-01	 0.00000000E+00	-4.40355000E-02
					 2.58790000E-01	 0.00000000E+00	-4.40355000E-02
					 2.81469000E-01	 0.00000000E+00	-4.66359000E-02
					 2.81469000E-01	 0.00000000E+00	-4.66359000E-02
					 2.60828000E-01	 0.00000000E+00	-2.57594000E-02
					 2.60828000E-01	 0.00000000E+00	-2.57594000E-02
					 2.37413000E-01	 0.00000000E+00	-2.14341000E-02
					 2.37413000E-01	 0.00000000E+00	-2.14341000E-02
					 1.95534000E-01	 0.00000000E+00	-3.98430000E-02
					 1.95534000E-01	 0.00000000E+00	-3.98430000E-02
					 1.60139000E-01	 0.00000000E+00	-1.92212000E-02
					 1.60139000E-01	 0.00000000E+00	-1.92212000E-02
					 1.52491000E-01	 0.00000000E+00	-2.53604000E-02
					 1.52491000E-01	 0.00000000E+00	-2.53604000E-02
					 1.05479000E-01	 0.00000000E+00	-4.13345000E-02
					 1.05479000E-01	 0.00000000E+00	-4.13345000E-02
					 9.21388000E-02	 0.00000000E+00	-3.89767000E-02
					 9.21388000E-02	 0.00000000E+00	-3.89767000E-02
					 1.10217000E-01	 0.00000000E+00	-5.23805000E-02
					 1.10217000E-01	 0.00000000E+00	-5.23805000E-02
					 5.98017000E-02	 0.00000000E+00	-4.37159000E-02
					 5.98017000E-02	 0.00000000E+00	-4.37159000E-02
					 2.54721000E-02	 0.00000000E+00	-3.88072000E-02
					 2.54721000E-02	 0.00000000E+00	-3.88072000E-02
					 4.19156000E-02	 0.00000000E+00	-2.12937000E-02
					 4.19156000E-02	 0.00000000E+00	-2.12937000E-02
					 3.49538000E-02	 0.00000000E+00	-2.44252000E-02
					 3.49538000E-02	 0.00000000E+00	-2.44252000E-02
					 2.65772000E-02	 0.00000000E+00	-2.32731000E-02
					 2.65772000E-02	 0.00000000E+00	-2.32731000E-02
				</DataArray>
			</PointData>
		</Piece>
	</UnstructuredGrid>
</VTKFile>