<?xml version="1.0"?>
<VTKFile type="UnstructuredGrid" version="0.1" byte_order="LittleEndian">
	<UnstructuredGrid>
		<Piece NumberOfPoints="126" NumberOfCells="40">
			<Points>
				<DataArray type="Float64" NumberOfComponents="3" format="ascii">
					 5.00000000E-02	 0.00000000E+00	 0.00000000E+00
					 0.00000000E+00	 0.00000000E+00	 0.00000000E+00
					 0.00000000E+00	 0.00000000E+00	 5.00000000E-02
					 5.00000000E-02	 0.00000000E+00	 5.00000000E-02
					 5.00000000E-02	 3.00000000E-01	 0.00000000E+00
					 0.00000000E+00	 3.00000000E-01	 0.00000000E+00
					 0.00000000E+00	 3.00000000E-01	 5.00000000E-02
					 5.00000000E-02	 3.00000000E-01	 5.00000000E-02
					 0.00000000E+00	 0.00000000E+00	 1.00000000E-01
					 5.00000000E-02	 0.00000000E+00	 1.00000000E-01
					 0.00000000E+00	 3.00000000E-01	 1.00000000E-01
					 5.00000000E-02	 3.00000000E-01	 1.00000000E-01
					 0.00000000E+00	 0.00000000E+00	 1.50000000E-01
					 5.00000000E-02	 0.00000000E+00	 1.50000000E-01
					 0.00000000E+00	 3.00000000E-01	 1.50000000E-01
					 5.00000000E-02	 3.00000000E-01	 1.50000000E-01
					 0.00000000E+00	 0.00000000E+00	 2.00000000E-01
					 5.00000000E-02	 0.00000000E+00	 2.00000000E-01
					 0.00000000E+00	 3.00000000E-01	 2.00000000E-01
					 5.00000000E-02	 3.00000000E-01	 2.00000000E-01
					 0.00000000E+00	 0.00000000E+00	 2.50000000E-01
					 5.00000000E-02	 0.00000000E+00	 2.50000000E-01
					 0.00000000E+00	 3.00000000E-01	 2.50000000E-01
					 5.00000000E-02	 3.00000000E-01	 2.50000000E-01
					 0.00000000E+00	 0.00000000E+00	 3.00000000E-01
					 5.00000000E-02	 0.00000000E+00	 3.00000000E-01
					 0.00000000E+00	 3.00000000E-01	 3.00000000E-01
					 5.00000000E-02	 3.00000000E-01	 3.00000000E-01
					 0.00000000E+00	 0.00000000E+00	 3.50000000E-01
					 5.00000000E-02	 0.00000000E+00	 3.50000000E-01
					 0.00000000E+00	 3.00000000E-01	 3.50000000E-01
					 5.00000000E-02	 3.00000000E-01	 3.50000000E-01
					 0.00000000E+00	 0.00000000E+00	 4.00000000E-01
					 5.00000000E-02	 0.00000000E+00	 4.00000000E-01
					 0.00000000E+00	 3.00000000E-01	 4.00000000E-01
					 5.00000000E-02	 3.00000000E-01	 4.00000000E-01
					 0.00000000E+00	 0.00000000E+00	 4.50000000E-01
					 5.00000000E-02	 0.00000000E+00	 4.50000000E-01
					 0.00000000E+00	 3.00000000E-01	 4.50000000E-01
					 5.00000000E-02	 3.00000000E-01	 4.50000000E-01
					 0.00000000E+00	 0.00000000E+00	 5.00000000E-01
					 5.00000000E-02	 0.00000000E+00	 5.00000000E-01
					 0.00000000E+00	 3.00000000E-01	 5.00000000E-01
					 5.00000000E-02	 3.00000000E-01	 5.00000000E-01
					 0.00000000E+00	 0.00000000E+00	 5.50000000E-01
					 5.00000000E-02	 0.00000000E+00	 5.50000000E-01
					 0.00000000E+00	 3.00000000E-01	 5.50000000E-01
					 5.00000000E-02	 3.00000000E-01	 5.50000000E-01
					 0.00000000E+00	 0.00000000E+00	 6.00000000E-01
					 5.00000000E-02	 0.00000000E+00	 6.00000000E-01
					 0.00000000E+00	 3.00000000E-01	 6.00000000E-01
					 5.00000000E-02	 3.00000000E-01	 6.00000000E-01
					 0.00000000E+00	 0.00000000E+00	 6.50000000E-01
					 5.00000000E-02	 0.00000000E+00	 6.50000000E-01
					 0.00000000E+00	 3.00000000E-01	 6.50000000E-01
					 5.00000000E-02	 3.00000000E-01	 6.50000000E-01
					 0.00000000E+00	 0.00000000E+00	 7.00000000E-01
					 5.00000000E-02	 0.00000000E+00	 7.00000000E-01
					 0.00000000E+00	 3.00000000E-01	 7.00000000E-01
					 5.00000000E-02	 3.00000000E-01	 7.00000000E-01
					 0.00000000E+00	 0.00000000E+00	 7.50000000E-01
					 5.00000000E-02	 0.00000000E+00	 7.50000000E-01
					 0.00000000E+00	 3.00000000E-01	 7.50000000E-01
					 5.00000000E-02	 3.00000000E-01	 7.50000000E-01
					 0.00000000E+00	 0.00000000E+00	 8.00000000E-01
					 5.00000000E-02	 0.00000000E+00	 8.00000000E-01
					 0.00000000E+00	 3.00000000E-01	 8.00000000E-01
					 5.00000000E-02	 3.00000000E-01	 8.00000000E-01
					 0.00000000E+00	 0.00000000E+00	 8.50000000E-01
					 5.00000000E-02	 0.00000000E+00	 8.50000000E-01
					 0.00000000E+00	 3.00000000E-01	 8.50000000E-01
					 5.00000000E-02	 3.00000000E-01	 8.50000000E-01
					 0.00000000E+00	 0.00000000E+00	 9.00000000E-01
					 5.00000000E-02	 0.00000000E+00	 9.00000000E-01
					 0.00000000E+00	 3.00000000E-01	 9.00000000E-01
					 5.00000000E-02	 3.00000000E-01	 9.00000000E-01
					 0.00000000E+00	 0.00000000E+00	 9.50000000E-01
					 5.00000000E-02	 0.00000000E+00	 9.50000000E-01
					 0.00000000E+00	 3.00000000E-01	 9.50000000E-01
					 5.00000000E-02	 3.00000000E-01	 9.50000000E-01
					 0.00000000E+00	 0.00000000E+00	 1.00000000E+00
					 5.00000000E-02	 0.00000000E+00	 1.00000000E+00
					 0.00000000E+00	 3.00000000E-01	 1.00000000E+00
					 5.00000000E-02	 3.00000000E-01	 1.00000000E+00
					-5.00000000E-02	 0.00000000E+00	 0.00000000E+00
					-5.00000000E-02	 0.00000000E+00	 5.00000000E-02
					-5.00000000E-02	 3.00000000E-01	 0.00000000E+00
					-5.00000000E-02	 3.00000000E-01	 5.00000000E-02
					-5.00000000E-02	 0.00000000E+00	 1.00000000E-01
					-5.00000000E-02	 3.00000000E-01	 1.00000000E-01
					-5.00000000E-02	 0.00000000E+00	 1.50000000E-01
					-5.00000000E-02	 3.00000000E-01	 1.50000000E-01
					-5.00000000E-02	 0.00000000E+00	 2.00000000E-01
					-5.00000000E-02	 3.00000000E-01	 2.00000000E-01
					-5.00000000E-02	 0.00000000E+00	 2.50000000E-01
					-5.00000000E-02	 3.00000000E-01	 2.50000000E-01
					-5.00000000E-02	 0.00000000E+00	 3.00000000E-01
					-5.00000000E-02	 3.00000000E-01	 3.00000000E-01
					-5.00000000E-02	 0.00000000E+00	 3.50000000E-01
					-5.00000000E-02	 3.00000000E-01	 3.50000000E-01
					-5.00000000E-02	 0.00000000E+00	 4.00000000E-01
					-5.00000000E-02	 3.00000000E-01	 4.00000000E-01
					-5.00000000E-02	 0.00000000E+00	 4.50000000E-01
					-5.00000000E-02	 3.00000000E-01	 4.50000000E-01
					-5.00000000E-02	 0.00000000E+00	 5.00000000E-01
					-5.00000000E-02	 3.00000000E-01	 5.00000000E-01
					-5.00000000E-02	 0.00000000E+00	 5.50000000E-01
					-5.00000000E-02	 3.00000000E-01	 5.50000000E-01
					-5.00000000E-02	 0.00000000E+00	 6.00000000E-01
					-5.00000000E-02	 3.00000000E-01	 6.00000000E-01
					-5.00000000E-02	 0.00000000E+00	 6.50000000E-01
					-5.00000000E-02	 3.00000000E-01	 6.50000000E-01
					-5.00000000E-02	 0.00000000E+00	 7.00000000E-01
					-5.00000000E-02	 3.00000000E-01	 7.00000000E-01
					-5.00000000E-02	 0.00000000E+00	 7.50000000E-01
					-5.00000000E-02	 3.00000000E-01	 7.50000000E-01
					-5.00000000E-02	 0.00000000E+00	 8.00000000E-01
					-5.00000000E-02	 3.00000000E-01	 8.00000000E-01
					-5.00000000E-02	 0.00000000E+00	 8.50000000E-01
					-5.00000000E-02	 3.00000000E-01	 8.50000000E-01
					-5.00000000E-02	 0.00000000E+00	 9.00000000E-01
					-5.00000000E-02	 3.00000000E-01	 9.00000000E-01
					-5.00000000E-02	 0.00000000E+00	 9.50000000E-01
					-5.00000000E-02	 3.00000000E-01	 9.50000000E-01
					-5.00000000E-02	 0.00000000E+00	 1.00000000E+00
					-5.00000000E-02	 3.00000000E-01	 1.00000000E+00
				</DataArray>
			</Points>
			<Cells>
				<DataArray type="Int32" Name="connectivity" format="ascii">
					0 1 2 3 4 5 6 7 3 2 8 9 7 6 10 11 9 8 12 13 11 10 14 15 13 12 16 17 15 14 18 19 17 16 20 21 19 18 22 23 21 20 24 25 23 22 26 27 25 24 28 29 27 26 30 31 29 28 32 33 31 30 34 35 33 32 36 37 35 34 38 39 37 36 40 41 39 38 42 43 41 40 44 45 43 42 46 47 45 44 48 49 47 46 50 51 49 48 52 53 51 50 54 55 53 52 56 57 55 54 58 59 57 56 60 61 59 58 62 63 61 60 64 65 63 62 66 67 65 64 68 69 67 66 70 71 69 68 72 73 71 70 74 75 73 72 76 77 75 74 78 79 77 76 80 81 79 78 82 83 1 84 85 2 5 86 87 6 2 85 88 8 6 87 89 10 8 88 90 12 10 89 91 14 12 90 92 16 14 91 93 18 16 92 94 20 18 93 95 22 20 94 96 24 22 95 97 26 24 96 98 28 26 97 99 30 28 98 100 32 30 99 101 34 32 100 102 36 34 101 103 38 36 102 104 40 38 103 105 42 40 104 106 44 42 105 107 46 44 106 108 48 46 107 109 50 48 108 110 52 50 109 111 54 52 110 112 56 54 111 113 58 56 112 114 60 58 113 115 62 60 114 116 64 62 115 117 66 64 116 118 68 66 117 119 70 68 118 120 72 70 119 121 74 72 120 122 76 74 121 123 78 76 122 124 80 78 123 125 82 
				</DataArray>
				<DataArray type="Int32" Name="offsets" format="ascii">
					8 16 24 32 40 48 56 64 72 80 88 96 104 112 120 128 136 144 152 160 168 176 184 192 200 208 216 224 232 240 248 256 264 272 280 288 296 304 312 320 
				</DataArray>
				<DataArray type="UInt8" Name="types" format="ascii">
					12 12 12 12 12 12 12 12 12 12 12 12 12 12 12 12 12 12 12 12 12 12 12 12 12 12 12 12 12 12 12 12 12 12 12 12 12 12 12 12 
				</DataArray>
			</Cells>
			<PointData>
				<DataArray type="Float32" Name="U" NumberOfComponents="3" ComponentName0="D1" ComponentName1="D2" ComponentName2="D3" format="ascii">
					 0.00000000E+00	 0.00000000E+00	 0.00000000E+00
					 0.00000000E+00	 0.00000000E+00	 0.00000000E+00
					 1.36599000E-04	 0.00000000E+00	-4.52644000E-04
					-4.51270000E-05	 0.00000000E+00	-3.05061000E-05
					 0.00000000E+00	 0.00000000E+00	 0.00000000E+00
					 0.00000000E+00	 0.00000000E+00	 0.00000000E+00
					 1.36599000E-04	 0.00000000E+00	-4.52644000E-04
					-4.51270000E-05	 0.00000000E+00	-3.05061000E-05
					 3.14440000E-04	 0.00000000E+00	-2.99049000E-04
					-3.40188000E-04	 0.00000000E+00	 8.50913000E-04
					 3.14440000E-04	 0.00000000E+00	-2.99049000E-04
					-3.40188000E-04	 0.00000000E+00	 8.50913000E-04
					 4.37870000E-04	 0.00000000E+00	-1.70887000E-04
					-8.40023000E-04	 0.00000000E+00	 1.11406000E-04
					 4.37870000E-04	 0.00000000E+00	-1.70887000E-04
					-8.40023000E-04	 0.00000000E+00	 1.11406000E-04
					 5.20711000E-04	 0.00000000E+00	 1.00518000E-04
					-7.83034000E-04	 0.00000000E+00	 1.99275000E-04
					 5.20711000E-04	 0.00000000E+00	 1.00518000E-04
					-7.83034000E-04	 0.00000000E+00	 1.99275000E-04
					 5.47090000E-04	 0.00000000E+00	 1.23879000E-04
					-4.87374000E-04	 0.00000000E+00	 5.17435000E-04
					 5.47090000E-04	 0.00000000E+00	 1.23879000E-04
					-4.87374000E-04	 0.00000000E+00	 5.17435000E-04
					 5.29923000E-04	 0.00000000E+00	 4.14248000E-04
					-2.91206000E-04	 0.00000000E+00	 3.88236000E-04
					 5.29923000E-04	 0.00000000E+00	 4.14248000E-04
					-2.91206000E-04	 0.00000000E+00	 3.88236000E-04
					 4.96156000E-04	 0.00000000E+00	 5.31243000E-04
					-5.87328000E-04	 0.00000000E+00	 3.96860000E-04
					 4.96156000E-04	 0.00000000E+00	 5.31243000E-04
					-5.87328000E-04	 0.00000000E+00	 3.96860000E-04
					 4.63236000E-04	 0.00000000E+00	 4.67870000E-04
					-3.91593000E-04	 0.00000000E+00	 3.66605000E-04
					 4.63236000E-04	 0.00000000E+00	 4.67870000E-04
					-3.91593000E-04	 0.00000000E+00	 3.66605000E-04
					 4.33808000E-04	 0.00000000E+00	 3.43817000E-04
					-7.63989000E-04	 0.00000000E+00	 6.65293000E-04
					 4.33808000E-04	 0.00000000E+00	 3.43817000E-04
					-7.63989000E-04	 0.00000000E+00	 6.65293000E-04
					 4.15072000E-04	 0.00000000E+00	 3.45771000E-04
					-6.32558000E-04	 0.00000000E+00	 4.70738000E-04
					 4.15072000E-04	 0.00000000E+00	 3.45771000E-04
					-6.32558000E-04	 0.00000000E+00	 4.70738000E-04
					 3.89457000E-04	 0.00000000E+00	 4.01883000E-04
					-5.94751000E-04	 0.00000000E+00	 5.14733000E-04
					 3.89457000E-04	 0.00000000E+00	 4.01883000E-04
					-5.94751000E-04	 0.00000000E+00	 5.14733000E-04
					 3.67586000E-04	 0.00000000E+00	 5.01302000E-04
					-8.71822000E-04	 0.00000000E+00	 3.48424000E-04
					 3.67586000E-04	 0.00000000E+00	 5.01302000E-04
					-8.71822000E-04	 0.00000000E+00	 3.48424000E-04
					 3.25513000E-04	 0.00000000E+00	 6.73060000E-04
					-4.11291000E-04	 0.00000000E+00	 4.65336000E-04
					 3.25513000E-04	 0.00000000E+00	 6.73060000E-04
					-4.11291000E-04	 0.00000000E+00	 4.65336000E-04
					 2.89452000E-04	 0.00000000E+00	 3.10767000E-04
					-5.12366000E-04	 0.00000000E+00	 3.83482000E-04
					 2.89452000E-04	 0.00000000E+00	 3.10767000E-04
					-5.12366000E-04	 0.00000000E+00	 3.83482000E-04
					 2.56601000E-04	 0.00000000E+00	 5.75457000E-04
					-7.93561000E-04	 0.00000000E+00	 5.64423000E-04
					 2.56601000E-04	 0.00000000E+00	 5.75457000E-04
					-7.93561000E-04	 0.00000000E+00	 5.64423000E-04
					 2.09158000E-04	 0.00000000E+00	 6.53702000E-04
					-1.07065000E-03	 0.00000000E+00	 4.87991000E-04
					 2.09158000E-04	 0.00000000E+00	 6.53702000E-04
					-1.07065000E-03	 0.00000000E+00	 4.87991000E-04
					 1.59912000E-04	 0.00000000E+00	 9.77334000E-04
					-9.49416000E-04	 0.00000000E+00	 4.12824000E-04
					 1.59912000E-04	 0.00000000E+00	 9.77334000E-04
					-9.49416000E-04	 0.00000000E+00	 4.12824000E-04
					 1.18197000E-04	 0.00000000E+00	 5.91423000E-04
					-4.93794000E-04	 0.00000000E+00	 5.63552000E-05
					 1.18197000E-04	 0.00000000E+00	 5.91423000E-04
					-4.93794000E-04	 0.00000000E+00	 5.63552000E-05
					 7.59410000E-05	 0.00000000E+00	 6.81515000E-04
					-4.69521000E-04	 0.00000000E+00	 1.75454000E-04
					 7.59410000E-05	 0.00000000E+00	 6.81515000E-04
					-4.69521000E-04	 0.00000000E+00	 1.75454000E-04
					 3.62670000E-05	 0.00000000E+00	 7.88411000E-04
					-6.51593000E-04	 0.00000000E+00	 5.36629000E-04
					 3.62670000E-05	 0.00000000E+00	 7.88411000E-04
					-6.51593000E-04	 0.00000000E+00	 5.36629000E-04
					 0.00000000E+00	 0.00000000E+00	 0.00000000E+00
					 3.88085000E-04	 0.00000000E+00	 1.42172000E-04
					 0.00000000E+00	 0.00000000E+00	 0.00000000E+00
					 3.88085000E-04	 0.00000000E+00	 1.42172000E-04
					 1.01036000E-03	 0.00000000E+00	 1.06854000E-03
					 1.01036000E-03	 0.00000000E+00	 1.06854000E-03
					 1.75031000E-03	 0.00000000E+00	 2.86560000E-04
					 1.75031000E-03	 0.00000000E+00	 2.86560000E-04
					 1.84289000E-03	 0.00000000E+00	 2.96883000E-04
					 1.84289000E-03	 0.00000000E+00	 2.96883000E-04
					 1.60200000E-03	 0.00000000E+00	 5.39938000E-04
					 1.60200000E-03	 0.00000000E+00	 5.39938000E-04
					 1.37878000E-03	 0.00000000E+00	 3.62291000E-04
					 1.37878000E-03	 0.00000000E+00	 3.62291000E-04
					 1.61657000E-03	 0.00000000E+00	 3.47717000E-04
					 1.61657000E-03	 0.00000000E+00	 3.47717000E-04
					 1.35333000E-03	 0.00000000E+00	 3.17628000E-04
					 1.35333000E-03	 0.00000000E+00	 3.17628000E-04
					 1.67198000E-03	 0.00000000E+00	 6.11789000E-04
					 1.67198000E-03	 0.00000000E+00	 6.11789000E-04
					 1.49967000E-03	 0.00000000E+00	 4.32340000E-04
					 1.49967000E-03	 0.00000000E+00	 4.32340000E-04
					 1.40738000E-03	 0.00000000E+00	 4.64596000E-04
					 1.40738000E-03	 0.00000000E+00	 4.64596000E-04
					 1.64083000E-03	 0.00000000E+00	 2.92520000E-04
					 1.64083000E-03	 0.00000000E+00	 2.92520000E-04
					 1.10023000E-03	 0.00000000E+00	 3.91679000E-04
					 1.10023000E-03	 0.00000000E+00	 3.91679000E-04
					 1.13605000E-03	 0.00000000E+00	 3.10417000E-04
					 1.13605000E-03	 0.00000000E+00	 3.10417000E-04
					 1.32588000E-03	 0.00000000E+00	 4.88744000E-04
					 1.32588000E-03	 0.00000000E+00	 4.88744000E-04
					 1.53212000E-03	 0.00000000E+00	 4.10759000E-04
					 1.53212000E-03	 0.00000000E+00	 4.10759000E-04
					 1.32963000E-03	 0.00000000E+00	 3.29891000E-04
					 1.32963000E-03	 0.00000000E+00	 3.29891000E-04
					 7.79945000E-04	 0.00000000E+00	-3.63982000E-05
					 7.79945000E-04	 0.00000000E+00	-3.63982000E-05
					 6.45188000E-04	 0.00000000E+00	 9.20703000E-05
					 6.45188000E-04	 0.00000000E+00	 9.20703000E-05
					 7.27340000E-04	 0.00000000E+00	 4.46192000E-04
					 7.27340000E-04	 0.00000000E+00	 4.46192000E-04
				</DataArray>
			</PointData>
		</Piece>
	</UnstructuredGrid>
</VTKFile>