/*--------------------------------*- C++ -*----------------------------------*\
  =========                 |
  \\      /  F ield         | OpenFOAM: The Open Source CFD Toolbox
   \\    /   O peration     | Website:  https://openfoam.org
    \\  /    A nd           | Version:  7
     \\/     M anipulation  |
\*---------------------------------------------------------------------------*/
FoamFile
{
    version     2.0;
    format      ascii;
    class       volScalarField;
    location    "1.28";
    object      T;
}
// * * * * * * * * * * * * * * * * * * * * * * * * * * * * * * * * * * * * * //

dimensions      [0 0 0 1 0 0 0];

internalField   nonuniform List<scalar> 
12013
(
300.016
300.05
300.086
300.124
300.165
300.209
300.257
300.309
300.366
300.428
300.495
300.569
300.649
300.736
300.83
300.932
301.043
301.162
301.29
301.428
301.576
301.735
301.904
302.085
302.278
302.484
302.702
302.934
303.18
303.441
303.716
304.008
304.317
304.642
304.986
305.349
305.732
306.136
306.561
307.009
307.482
307.98
308.505
309.058
309.641
310.256
310.904
311.588
312.31
313.071
313.876
314.726
315.624
316.573
317.578
318.641
319.767
320.961
322.226
323.569
324.995
326.509
328.12
329.834
331.66
333.606
335.684
337.904
340.28
342.826
345.561
348.504
351.681
355.119
358.858
362.946
367.445
372.45
378.099
384.629
392.492
300.016
300.05
300.086
300.124
300.165
300.209
300.257
300.309
300.366
300.428
300.495
300.569
300.649
300.736
300.83
300.932
301.043
301.162
301.29
301.428
301.576
301.735
301.904
302.085
302.278
302.484
302.702
302.934
303.18
303.44
303.716
304.008
304.317
304.642
304.986
305.349
305.732
306.136
306.561
307.009
307.482
307.98
308.505
309.058
309.641
310.256
310.904
311.588
312.309
313.071
313.875
314.724
315.622
316.571
317.575
318.638
319.764
320.956
322.221
323.562
324.986
326.499
328.107
329.819
331.641
333.584
335.656
337.871
340.239
342.776
345.499
348.427
351.584
354.996
358.699
362.735
367.158
372.041
377.477
383.582
390.46
300.016
300.05
300.086
300.124
300.165
300.209
300.257
300.309
300.366
300.428
300.495
300.569
300.649
300.736
300.83
300.932
301.043
301.162
301.29
301.428
301.576
301.734
301.904
302.085
302.278
302.483
302.702
302.934
303.18
303.44
303.716
304.008
304.316
304.642
304.986
305.349
305.732
306.135
306.561
307.009
307.482
307.98
308.505
309.058
309.64
310.255
310.903
311.587
312.308
313.069
313.872
314.721
315.618
316.567
317.57
318.631
319.755
320.946
322.208
323.547
324.967
326.476
328.08
329.785
331.6
333.534
335.596
337.797
340.149
342.666
345.364
348.259
351.373
354.729
358.357
362.287
366.56
371.217
376.299
381.827
387.755
300.016
300.05
300.086
300.124
300.164
300.209
300.257
300.309
300.365
300.427
300.495
300.568
300.648
300.735
300.83
300.932
301.042
301.161
301.29
301.428
301.576
301.734
301.904
302.085
302.278
302.483
302.701
302.933
303.179
303.44
303.716
304.008
304.316
304.642
304.986
305.349
305.732
306.135
306.561
307.009
307.481
307.979
308.504
309.057
309.64
310.254
310.902
311.585
312.305
313.066
313.868
314.716
315.612
316.559
317.56
318.619
319.741
320.928
322.186
323.521
324.936
326.438
328.033
329.729
331.533
333.452
335.497
337.676
340.002
342.486
345.143
347.986
351.033
354.304
357.817
361.595
365.658
370.022
374.691
379.64
384.79
300.016
300.05
300.086
300.124
300.164
300.208
300.256
300.308
300.365
300.427
300.495
300.568
300.648
300.735
300.829
300.931
301.042
301.161
301.289
301.427
301.575
301.734
301.903
302.084
302.277
302.483
302.701
302.933
303.179
303.439
303.715
304.007
304.316
304.642
304.985
305.348
305.731
306.135
306.56
307.008
307.481
307.979
308.503
309.056
309.638
310.252
310.899
311.582
312.301
313.061
313.862
314.709
315.603
316.547
317.546
318.602
319.719
320.902
322.155
323.482
324.889
326.381
327.965
329.647
331.433
333.332
335.351
337.501
339.789
342.227
344.826
347.598
350.555
353.711
357.077
360.665
364.48
368.52
372.77
377.189
381.708
300.016
300.05
300.085
300.123
300.164
300.208
300.256
300.308
300.365
300.427
300.494
300.568
300.648
300.735
300.829
300.931
301.041
301.16
301.289
301.427
301.575
301.733
301.903
302.083
302.276
302.482
302.7
302.932
303.178
303.439
303.715
304.007
304.315
304.641
304.985
305.348
305.731
306.134
306.559
307.008
307.48
307.977
308.502
309.054
309.636
310.249
310.896
311.577
312.296
313.054
313.853
314.698
315.589
316.53
317.525
318.577
319.689
320.865
322.11
323.428
324.824
326.303
327.871
329.533
331.296
333.168
335.154
337.263
339.502
341.88
344.406
347.088
349.934
352.951
356.145
359.517
363.065
366.775
370.625
374.575
378.57
300.016
300.05
300.085
300.123
300.164
300.208
300.256
300.308
300.365
300.427
300.494
300.567
300.647
300.734
300.828
300.93
301.041
301.16
301.288
301.426
301.574
301.732
301.902
302.083
302.275
302.481
302.699
302.931
303.177
303.438
303.714
304.006
304.314
304.64
304.984
305.347
305.729
306.133
306.558
307.006
307.478
307.975
308.499
309.051
309.632
310.245
310.89
311.57
312.287
313.044
313.841
314.682
315.57
316.507
317.497
318.543
319.647
320.815
322.05
323.356
324.737
326.199
327.746
329.384
331.118
332.954
334.898
336.956
339.135
341.44
343.878
346.453
349.169
352.03
355.034
358.179
361.454
364.843
368.323
371.859
375.41
300.016
300.05
300.085
300.123
300.164
300.208
300.256
300.308
300.364
300.426
300.493
300.567
300.647
300.733
300.827
300.929
301.04
301.159
301.287
301.425
301.573
301.731
301.9
302.081
302.274
302.48
302.698
302.93
303.176
303.436
303.712
304.004
304.313
304.639
304.982
305.345
305.728
306.131
306.556
307.004
307.476
307.973
308.496
309.047
309.627
310.239
310.883
311.561
312.276
313.03
313.824
314.662
315.545
316.477
317.46
318.498
319.593
320.75
321.972
323.262
324.625
326.065
327.587
329.194
330.892
332.685
334.578
336.576
338.683
340.903
343.239
345.694
348.267
350.959
353.765
356.678
359.686
362.772
365.914
369.084
372.252
300.016
300.05
300.085
300.123
300.164
300.208
300.255
300.307
300.364
300.425
300.493
300.566
300.646
300.732
300.826
300.928
301.039
301.157
301.286
301.423
301.571
301.729
301.899
302.08
302.272
302.478
302.696
302.928
303.174
303.435
303.71
304.002
304.311
304.637
304.98
305.343
305.726
306.129
306.554
307.001
307.472
307.969
308.491
309.041
309.62
310.23
310.872
311.549
312.261
313.011
313.801
314.634
315.512
316.437
317.412
318.44
319.524
320.667
321.873
323.144
324.485
325.898
327.389
328.959
330.614
332.357
334.191
336.119
338.144
340.268
342.492
344.816
347.238
349.755
352.36
355.044
357.796
360.599
363.435
366.281
369.114
300.016
300.05
300.085
300.123
300.163
300.207
300.255
300.307
300.363
300.425
300.492
300.565
300.645
300.731
300.825
300.927
301.037
301.156
301.284
301.421
301.569
301.727
301.897
302.077
302.27
302.476
302.694
302.926
303.171
303.432
303.708
304
304.308
304.634
304.978
305.34
305.722
306.125
306.55
306.997
307.467
307.963
308.484
309.033
309.611
310.219
310.858
311.532
312.24
312.986
313.772
314.599
315.469
316.385
317.35
318.367
319.437
320.563
321.749
322.998
324.312
325.694
327.148
328.676
330.281
331.966
333.733
335.583
337.518
339.538
341.642
343.829
346.094
348.434
350.841
353.305
355.816
358.358
360.917
363.475
366.012
300.016
300.05
300.085
300.122
300.163
300.207
300.254
300.306
300.362
300.424
300.491
300.564
300.643
300.73
300.824
300.925
301.035
301.154
301.282
301.419
301.567
301.725
301.894
302.075
302.267
302.473
302.691
302.922
303.168
303.429
303.705
303.996
304.304
304.63
304.974
305.336
305.718
306.12
306.544
306.99
307.46
307.954
308.475
309.022
309.597
310.203
310.84
311.509
312.214
312.955
313.734
314.553
315.415
316.321
317.274
318.275
319.329
320.435
321.599
322.82
324.103
325.45
326.862
328.341
329.891
331.511
333.204
334.969
336.807
338.717
340.696
342.742
344.851
347.016
349.231
351.486
353.771
356.075
358.384
360.684
362.961
300.016
300.049
300.084
300.122
300.162
300.206
300.253
300.305
300.361
300.423
300.489
300.562
300.642
300.728
300.822
300.923
301.033
301.151
301.279
301.416
301.564
301.722
301.891
302.071
302.264
302.469
302.687
302.918
303.164
303.424
303.7
303.992
304.3
304.625
304.968
305.33
305.711
306.113
306.536
306.982
307.45
307.943
308.462
309.007
309.58
310.182
310.815
311.48
312.179
312.914
313.685
314.496
315.347
316.24
317.179
318.164
319.197
320.281
321.418
322.609
323.856
325.162
326.527
327.953
329.441
330.991
332.604
334.28
336.016
337.812
339.665
341.57
343.524
345.52
347.551
349.61
351.687
353.773
355.856
357.926
359.971
300.016
300.049
300.084
300.122
300.162
300.205
300.252
300.304
300.36
300.421
300.488
300.56
300.64
300.726
300.819
300.92
301.03
301.148
301.276
301.413
301.56
301.718
301.887
302.067
302.259
302.464
302.682
302.913
303.159
303.419
303.694
303.985
304.293
304.618
304.961
305.322
305.703
306.104
306.526
306.97
307.437
307.928
308.444
308.987
309.556
310.155
310.783
311.443
312.135
312.862
313.624
314.424
315.263
316.142
317.063
318.029
319.04
320.097
321.204
322.36
323.568
324.829
326.142
327.51
328.932
330.408
331.937
333.519
335.152
336.832
338.558
340.325
342.129
343.963
345.822
347.698
349.583
351.47
353.35
355.214
357.053
300.016
300.049
300.084
300.121
300.161
300.204
300.251
300.303
300.358
300.419
300.486
300.558
300.637
300.723
300.816
300.917
301.026
301.144
301.272
301.408
301.555
301.713
301.881
302.061
302.253
302.458
302.676
302.907
303.152
303.412
303.686
303.977
304.284
304.609
304.951
305.311
305.691
306.091
306.512
306.954
307.419
307.908
308.421
308.96
309.526
310.12
310.742
311.395
312.08
312.797
313.549
314.336
315.161
316.023
316.925
317.868
318.853
319.882
320.955
322.073
323.238
324.449
325.707
327.013
328.365
329.763
331.206
332.693
334.221
335.787
337.389
339.022
340.681
342.362
344.06
345.767
347.477
349.184
350.881
352.56
354.216
300.016
300.049
300.083
300.12
300.16
300.203
300.25
300.301
300.357
300.417
300.483
300.556
300.634
300.72
300.813
300.913
301.022
301.14
301.267
301.403
301.55
301.707
301.875
302.055
302.246
302.45
302.668
302.898
303.143
303.402
303.677
303.967
304.273
304.597
304.938
305.297
305.676
306.074
306.493
306.933
307.396
307.882
308.391
308.926
309.487
310.075
310.691
311.336
312.011
312.718
313.457
314.23
315.038
315.881
316.761
317.679
318.636
319.632
320.668
321.745
322.863
324.022
325.222
326.462
327.742
329.061
330.417
331.808
333.233
334.687
336.168
337.672
339.196
340.733
342.281
343.832
345.383
346.927
348.459
349.973
351.465
300.016
300.048
300.083
300.12
300.159
300.202
300.248
300.299
300.354
300.415
300.481
300.552
300.631
300.716
300.808
300.909
301.017
301.134
301.261
301.397
301.543
301.699
301.867
302.046
302.237
302.441
302.658
302.888
303.132
303.39
303.664
303.953
304.259
304.581
304.921
305.279
305.656
306.052
306.469
306.906
307.366
307.848
308.353
308.883
309.438
310.019
310.627
311.262
311.927
312.621
313.346
314.103
314.891
315.713
316.569
317.459
318.385
319.345
320.342
321.375
322.444
323.548
324.687
325.861
327.068
328.306
329.575
330.872
332.195
333.541
334.907
336.29
337.685
339.089
340.498
341.908
343.313
344.71
346.094
347.46
348.806
300.016
300.048
300.082
300.119
300.158
300.2
300.247
300.297
300.352
300.412
300.477
300.549
300.626
300.711
300.803
300.903
301.011
301.128
301.253
301.389
301.534
301.69
301.857
302.036
302.226
302.429
302.645
302.874
303.117
303.375
303.648
303.936
304.24
304.561
304.899
305.255
305.63
306.024
306.438
306.872
307.327
307.805
308.305
308.828
309.376
309.949
310.547
311.172
311.825
312.505
313.213
313.951
314.719
315.517
316.346
317.207
318.098
319.022
319.976
320.963
321.98
323.028
324.105
325.211
326.345
327.504
328.687
329.892
331.118
332.36
333.616
334.884
336.16
337.441
338.723
340.003
341.276
342.541
343.791
345.026
346.24
300.016
300.048
300.081
300.118
300.156
300.199
300.244
300.294
300.349
300.408
300.473
300.544
300.621
300.705
300.797
300.896
301.003
301.119
301.245
301.379
301.524
301.679
301.846
302.023
302.213
302.415
302.629
302.858
303.1
303.356
303.627
303.914
304.216
304.535
304.871
305.225
305.597
305.988
306.398
306.828
307.278
307.75
308.244
308.761
309.3
309.863
310.451
311.063
311.701
312.365
313.056
313.773
314.518
315.291
316.091
316.919
317.775
318.659
319.57
320.508
321.473
322.463
323.478
324.516
325.577
326.658
327.758
328.875
330.007
331.151
332.305
333.466
334.631
335.799
336.964
338.126
339.28
340.424
341.556
342.671
343.769
300.015
300.047
300.08
300.116
300.155
300.196
300.242
300.291
300.345
300.404
300.468
300.539
300.615
300.699
300.79
300.888
300.995
301.11
301.234
301.368
301.512
301.666
301.831
302.008
302.196
302.397
302.61
302.837
303.077
303.332
303.601
303.886
304.186
304.503
304.836
305.187
305.555
305.942
306.348
306.772
307.217
307.683
308.169
308.677
309.207
309.759
310.334
310.932
311.555
312.201
312.871
313.567
314.287
315.031
315.801
316.595
317.413
318.256
319.122
320.011
320.922
321.855
322.808
323.78
324.769
325.775
326.795
327.827
328.87
329.922
330.979
332.041
333.105
334.168
335.228
336.282
337.328
338.365
339.388
340.397
341.39
300.015
300.046
300.079
300.115
300.153
300.194
300.239
300.288
300.341
300.399
300.463
300.532
300.608
300.691
300.781
300.878
300.984
301.098
301.221
301.354
301.497
301.65
301.813
301.989
302.176
302.375
302.586
302.811
303.05
303.302
303.569
303.852
304.149
304.463
304.792
305.139
305.503
305.885
306.285
306.704
307.142
307.599
308.077
308.575
309.093
309.633
310.194
310.777
311.382
312.008
312.657
313.328
314.021
314.736
315.473
316.232
317.012
317.812
318.632
319.472
320.33
321.205
322.097
323.004
323.924
324.857
325.8
326.753
327.712
328.677
329.646
330.616
331.586
332.553
333.517
334.474
335.422
336.361
337.288
338.201
339.099
300.015
300.046
300.078
300.113
300.15
300.191
300.235
300.283
300.336
300.393
300.456
300.525
300.6
300.682
300.77
300.867
300.971
301.084
301.206
301.337
301.479
301.63
301.792
301.966
302.151
302.348
302.557
302.78
303.016
303.266
303.53
303.809
304.103
304.412
304.738
305.08
305.439
305.815
306.208
306.619
307.049
307.498
307.965
308.451
308.957
309.483
310.028
310.594
311.179
311.784
312.41
313.055
313.72
314.404
315.107
315.829
316.569
317.326
318.101
318.891
319.696
320.515
321.347
322.19
323.045
323.908
324.778
325.655
326.537
327.421
328.307
329.193
330.077
330.957
331.832
332.701
333.561
334.412
335.251
336.078
336.891
300.015
300.045
300.077
300.111
300.148
300.188
300.231
300.278
300.33
300.387
300.449
300.516
300.59
300.671
300.758
300.853
300.956
301.068
301.188
301.318
301.457
301.607
301.767
301.938
302.121
302.315
302.522
302.742
302.975
303.221
303.482
303.756
304.046
304.351
304.671
305.007
305.359
305.728
306.114
306.517
306.937
307.375
307.83
308.304
308.795
309.305
309.833
310.379
310.944
311.526
312.126
312.744
313.379
314.031
314.7
315.384
316.084
316.798
317.526
318.267
319.02
319.784
320.558
321.341
322.132
322.929
323.731
324.537
325.345
326.155
326.964
327.772
328.577
329.378
330.173
330.961
331.741
332.512
333.272
334.021
334.757
300.014
300.044
300.075
300.109
300.145
300.184
300.226
300.273
300.323
300.379
300.44
300.506
300.579
300.658
300.744
300.837
300.939
301.048
301.167
301.294
301.431
301.578
301.736
301.905
302.084
302.276
302.48
302.696
302.925
303.167
303.423
303.693
303.977
304.276
304.59
304.919
305.263
305.624
306
306.393
306.802
307.228
307.67
308.129
308.604
309.096
309.605
310.131
310.672
311.23
311.804
312.393
312.997
313.616
314.249
314.895
315.554
316.225
316.907
317.599
318.302
319.012
319.73
320.455
321.185
321.92
322.657
323.397
324.137
324.877
325.616
326.352
327.085
327.813
328.534
329.249
329.956
330.655
331.343
332.021
332.688
300.014
300.043
300.073
300.106
300.141
300.179
300.221
300.266
300.316
300.37
300.429
300.494
300.565
300.643
300.727
300.819
300.918
301.025
301.141
301.266
301.401
301.545
301.7
301.865
302.041
302.229
302.429
302.64
302.864
303.102
303.352
303.616
303.894
304.185
304.492
304.812
305.148
305.498
305.864
306.245
306.641
307.053
307.48
307.923
308.381
308.854
309.342
309.845
310.362
310.894
311.439
311.998
312.57
313.155
313.751
314.359
314.977
315.605
316.242
316.887
317.539
318.198
318.862
319.531
320.204
320.879
321.556
322.233
322.91
323.586
324.259
324.929
325.595
326.255
326.91
327.558
328.199
328.831
329.454
330.067
330.67
300.014
300.042
300.071
300.103
300.137
300.174
300.214
300.259
300.307
300.36
300.418
300.481
300.55
300.625
300.708
300.797
300.894
300.999
301.112
301.234
301.365
301.506
301.657
301.818
301.99
302.173
302.368
302.574
302.793
303.024
303.267
303.524
303.794
304.077
304.374
304.685
305.01
305.349
305.703
306.07
306.452
306.848
307.258
307.683
308.121
308.573
309.039
309.517
310.009
310.513
311.029
311.557
312.096
312.645
313.205
313.773
314.35
314.935
315.528
316.126
316.73
317.339
317.951
318.567
319.185
319.804
320.423
321.042
321.659
322.275
322.887
323.496
324.1
324.699
325.292
325.879
326.458
327.029
327.592
328.146
328.691
300.013
300.04
300.069
300.099
300.132
300.168
300.207
300.25
300.297
300.348
300.404
300.465
300.532
300.606
300.685
300.772
300.866
300.968
301.078
301.196
301.324
301.46
301.607
301.763
301.93
302.108
302.296
302.496
302.708
302.932
303.167
303.415
303.676
303.95
304.236
304.536
304.849
305.174
305.513
305.866
306.231
306.61
307.001
307.406
307.822
308.252
308.693
309.146
309.61
310.085
310.57
311.066
311.57
312.084
312.606
313.135
313.671
314.214
314.762
315.314
315.871
316.431
316.994
317.558
318.123
318.689
319.254
319.817
320.379
320.938
321.493
322.045
322.592
323.133
323.669
324.198
324.721
325.236
325.744
326.243
326.734
300.013
300.038
300.066
300.095
300.127
300.161
300.199
300.24
300.285
300.334
300.388
300.448
300.512
300.583
300.66
300.743
300.834
300.932
301.038
301.152
301.275
301.407
301.548
301.699
301.86
302.031
302.213
302.405
302.609
302.824
303.05
303.288
303.539
303.801
304.075
304.361
304.66
304.971
305.294
305.629
305.976
306.335
306.706
307.088
307.482
307.886
308.301
308.727
309.162
309.606
310.06
310.521
310.991
311.468
311.952
312.441
312.937
313.437
313.941
314.448
314.959
315.471
315.985
316.5
317.015
317.529
318.042
318.553
319.062
319.567
320.069
320.567
321.06
321.548
322.03
322.506
322.976
323.439
323.894
324.343
324.783
300.012
300.037
300.063
300.091
300.121
300.154
300.19
300.229
300.272
300.319
300.371
300.428
300.489
300.557
300.631
300.711
300.797
300.891
300.993
301.102
301.22
301.346
301.481
301.626
301.779
301.943
302.116
302.3
302.494
302.699
302.915
303.142
303.379
303.628
303.889
304.16
304.443
304.737
305.042
305.358
305.685
306.022
306.371
306.729
307.097
307.475
307.862
308.258
308.663
309.075
309.495
309.922
310.356
310.795
311.24
311.69
312.143
312.601
313.061
313.524
313.989
314.455
314.922
315.388
315.854
316.319
316.782
317.243
317.701
318.155
318.606
319.053
319.495
319.932
320.364
320.79
321.209
321.623
322.03
322.43
322.824
300.011
300.035
300.059
300.086
300.115
300.146
300.18
300.217
300.258
300.302
300.351
300.405
300.464
300.528
300.598
300.674
300.756
300.845
300.942
301.046
301.157
301.277
301.405
301.542
301.687
301.842
302.006
302.18
302.364
302.557
302.76
302.974
303.198
303.432
303.676
303.931
304.196
304.471
304.756
305.051
305.356
305.67
305.994
306.326
306.667
307.017
307.374
307.739
308.112
308.49
308.876
309.267
309.663
310.064
310.469
310.878
311.291
311.706
312.123
312.541
312.961
313.381
313.8
314.22
314.638
315.055
315.469
315.881
316.29
316.696
317.098
317.496
317.89
318.278
318.662
319.04
319.412
319.779
320.14
320.495
320.844
300.011
300.033
300.056
300.081
300.107
300.137
300.169
300.204
300.242
300.284
300.33
300.38
300.435
300.496
300.561
300.633
300.71
300.794
300.885
300.982
301.087
301.199
301.319
301.447
301.584
301.729
301.882
302.045
302.216
302.397
302.586
302.785
302.994
303.211
303.438
303.674
303.92
304.174
304.437
304.709
304.99
305.279
305.576
305.88
306.193
306.512
306.838
307.171
307.509
307.853
308.202
308.556
308.914
309.276
309.641
310.009
310.379
310.751
311.125
311.499
311.874
312.248
312.622
312.995
313.366
313.736
314.103
314.468
314.83
315.188
315.543
315.894
316.24
316.582
316.92
317.252
317.58
317.902
318.219
318.531
318.837
300.01
300.03
300.052
300.075
300.1
300.127
300.156
300.189
300.224
300.263
300.306
300.353
300.404
300.46
300.521
300.588
300.66
300.738
300.822
300.912
301.009
301.113
301.225
301.343
301.469
301.603
301.745
301.895
302.053
302.219
302.394
302.576
302.768
302.967
303.175
303.391
303.614
303.846
304.086
304.333
304.588
304.85
305.119
305.394
305.676
305.964
306.257
306.556
306.859
307.167
307.479
307.795
308.114
308.436
308.76
309.087
309.415
309.744
310.073
310.403
310.733
311.063
311.391
311.718
312.044
312.368
312.689
313.007
313.323
313.636
313.945
314.25
314.551
314.849
315.142
315.431
315.716
315.996
316.271
316.541
316.806
300.009
300.028
300.047
300.069
300.091
300.116
300.143
300.173
300.206
300.242
300.281
300.324
300.371
300.422
300.478
300.539
300.605
300.676
300.753
300.836
300.925
301.02
301.121
301.23
301.345
301.466
301.595
301.732
301.875
302.026
302.184
302.349
302.522
302.702
302.889
303.083
303.284
303.492
303.707
303.928
304.155
304.389
304.628
304.873
305.123
305.378
305.637
305.901
306.168
306.44
306.714
306.991
307.271
307.552
307.836
308.12
308.406
308.692
308.979
309.265
309.551
309.836
310.12
310.402
310.683
310.962
311.238
311.512
311.783
312.051
312.316
312.578
312.836
313.091
313.342
313.589
313.832
314.072
314.306
314.537
314.763
300.008
300.025
300.043
300.062
300.083
300.105
300.13
300.157
300.186
300.218
300.254
300.293
300.335
300.382
300.432
300.487
300.547
300.611
300.68
300.755
300.835
300.92
301.011
301.108
301.211
301.32
301.436
301.557
301.685
301.819
301.96
302.107
302.26
302.419
302.585
302.756
302.933
303.117
303.305
303.499
303.698
303.903
304.111
304.325
304.542
304.764
304.989
305.217
305.449
305.683
305.919
306.158
306.398
306.639
306.882
307.126
307.37
307.614
307.858
308.101
308.344
308.586
308.827
309.066
309.303
309.538
309.772
310.003
310.231
310.457
310.68
310.901
311.118
311.332
311.543
311.75
311.954
312.155
312.351
312.544
312.734
300.007
300.022
300.038
300.055
300.074
300.094
300.115
300.139
300.166
300.195
300.226
300.261
300.298
300.34
300.385
300.433
300.486
300.543
300.604
300.67
300.74
300.816
300.896
300.982
301.072
301.168
301.269
301.375
301.487
301.604
301.727
301.855
301.988
302.126
302.269
302.417
302.57
302.728
302.89
303.057
303.227
303.402
303.581
303.762
303.948
304.136
304.327
304.52
304.715
304.913
305.112
305.313
305.515
305.717
305.92
306.124
306.328
306.531
306.734
306.937
307.139
307.339
307.539
307.736
307.933
308.127
308.32
308.51
308.699
308.885
309.069
309.25
309.429
309.605
309.778
309.948
310.115
310.279
310.44
310.598
310.753
300.006
300.019
300.033
300.048
300.064
300.082
300.101
300.122
300.145
300.17
300.198
300.228
300.261
300.297
300.336
300.378
300.424
300.474
300.527
300.584
300.645
300.71
300.779
300.853
300.931
301.013
301.1
301.191
301.286
301.386
301.491
301.599
301.712
301.829
301.95
302.075
302.204
302.337
302.473
302.613
302.755
302.901
303.05
303.201
303.355
303.511
303.669
303.828
303.989
304.152
304.315
304.48
304.645
304.811
304.977
305.143
305.308
305.474
305.639
305.803
305.966
306.128
306.289
306.449
306.607
306.764
306.919
307.072
307.224
307.373
307.521
307.666
307.809
307.95
308.088
308.224
308.357
308.488
308.617
308.742
308.865
300.005
300.017
300.029
300.042
300.055
300.071
300.087
300.105
300.125
300.146
300.17
300.196
300.224
300.255
300.288
300.324
300.363
300.405
300.45
300.499
300.55
300.605
300.664
300.726
300.791
300.86
300.933
301.009
301.089
301.172
301.259
301.349
301.442
301.539
301.639
301.742
301.848
301.957
302.068
302.182
302.298
302.417
302.537
302.66
302.784
302.909
303.036
303.165
303.294
303.424
303.555
303.686
303.817
303.949
304.08
304.212
304.343
304.474
304.604
304.733
304.862
304.989
305.115
305.241
305.365
305.488
305.609
305.729
305.847
305.964
306.079
306.192
306.303
306.412
306.52
306.625
306.728
306.829
306.929
307.026
307.121
300.005
300.014
300.024
300.035
300.047
300.06
300.074
300.089
300.106
300.124
300.144
300.165
300.189
300.215
300.243
300.273
300.305
300.34
300.378
300.418
300.461
300.506
300.555
300.606
300.659
300.716
300.776
300.838
300.903
300.97
301.041
301.114
301.189
301.267
301.347
301.43
301.514
301.601
301.69
301.78
301.873
301.966
302.061
302.158
302.255
302.354
302.453
302.553
302.654
302.755
302.857
302.958
303.06
303.162
303.263
303.364
303.465
303.565
303.665
303.764
303.862
303.96
304.056
304.152
304.246
304.339
304.431
304.522
304.612
304.7
304.786
304.872
304.955
305.038
305.118
305.197
305.275
305.351
305.425
305.497
305.568
300.004
300.012
300.02
300.029
300.039
300.05
300.062
300.074
300.088
300.103
300.12
300.138
300.157
300.179
300.202
300.226
300.253
300.282
300.313
300.345
300.38
300.417
300.456
300.497
300.541
300.586
300.634
300.684
300.736
300.79
300.845
300.903
300.963
301.024
301.087
301.152
301.218
301.286
301.355
301.425
301.497
301.569
301.642
301.716
301.791
301.866
301.942
302.019
302.095
302.172
302.249
302.325
302.402
302.478
302.555
302.631
302.706
302.781
302.855
302.929
303.002
303.074
303.146
303.217
303.287
303.355
303.423
303.49
303.556
303.62
303.684
303.746
303.808
303.868
303.926
303.984
304.04
304.095
304.149
304.202
304.253
300.003
300.01
300.017
300.025
300.033
300.042
300.051
300.062
300.073
300.086
300.1
300.115
300.131
300.148
300.167
300.187
300.209
300.233
300.258
300.284
300.312
300.342
300.374
300.407
300.442
300.478
300.516
300.556
300.597
300.639
300.683
300.729
300.775
300.823
300.872
300.923
300.974
301.026
301.079
301.133
301.188
301.243
301.299
301.355
301.412
301.469
301.526
301.583
301.641
301.698
301.756
301.813
301.87
301.927
301.983
302.039
302.095
302.15
302.204
302.259
302.312
302.365
302.417
302.469
302.519
302.569
302.618
302.666
302.714
302.76
302.806
302.851
302.895
302.938
302.98
303.021
303.061
303.1
303.138
303.175
303.212
300.003
300.008
300.015
300.021
300.028
300.036
300.044
300.053
300.063
300.073
300.085
300.097
300.111
300.126
300.141
300.158
300.177
300.196
300.217
300.239
300.262
300.287
300.313
300.34
300.368
300.398
300.429
300.461
300.494
300.528
300.564
300.6
300.638
300.676
300.715
300.755
300.795
300.837
300.878
300.921
300.963
301.006
301.05
301.094
301.137
301.181
301.225
301.269
301.313
301.357
301.401
301.444
301.488
301.53
301.573
301.615
301.657
301.698
301.739
301.78
301.82
301.859
301.897
301.936
301.973
302.01
302.046
302.081
302.116
302.15
302.183
302.216
302.248
302.279
302.309
302.339
302.368
302.396
302.424
302.451
302.477
300.003
300.008
300.013
300.019
300.025
300.032
300.04
300.048
300.056
300.066
300.076
300.088
300.1
300.113
300.127
300.142
300.158
300.176
300.194
300.214
300.234
300.256
300.279
300.303
300.328
300.354
300.381
300.409
300.438
300.467
300.498
300.53
300.562
300.595
300.628
300.663
300.697
300.733
300.768
300.804
300.841
300.877
300.914
300.951
300.988
301.025
301.062
301.099
301.135
301.172
301.209
301.245
301.281
301.316
301.351
301.386
301.421
301.455
301.488
301.521
301.554
301.586
301.617
301.648
301.679
301.708
301.738
301.766
301.794
301.822
301.848
301.874
301.9
301.925
301.949
301.973
301.996
302.019
302.041
302.062
302.083
402.853
410.916
417.653
423.477
428.588
433.097
437.064
440.52
443.481
445.943
447.896
449.316
450.167
450.403
449.959
448.748
446.645
443.463
438.88
432.25
421.941
414.658
408.855
403.93
399.592
395.678
392.089
388.755
385.627
382.671
379.86
377.171
374.588
372.099
369.692
367.36
365.094
362.892
360.747
358.658
356.623
354.639
352.706
350.824
348.992
347.209
345.476
343.794
342.161
340.578
339.044
337.56
336.125
334.739
333.4
332.108
330.863
329.662
328.506
327.392
326.319
325.287
324.293
323.337
322.417
321.531
320.678
319.856
319.066
318.304
317.57
316.862
316.18
315.522
314.888
314.276
313.685
313.115
312.564
312.032
311.518
311.022
310.543
310.08
309.632
309.2
308.782
308.379
307.989
307.613
307.25
306.899
306.561
306.235
305.921
305.617
305.326
305.045
304.774
304.514
304.264
304.024
303.794
303.573
303.362
303.159
302.966
302.781
302.604
302.436
302.275
302.123
301.978
301.84
301.71
301.586
301.469
301.359
301.255
301.157
301.065
300.979
300.898
300.822
300.751
300.685
300.623
300.566
300.513
300.464
300.419
300.378
300.339
300.304
300.272
300.243
300.216
300.192
300.17
300.15
300.132
300.116
300.101
300.088
300.077
300.067
300.058
300.05
300.043
300.036
300.031
300.026
300.022
300.019
300.016
300.013
300.011
300.009
300.007
300.006
300.005
398.085
405.117
411.396
416.984
421.962
426.389
430.305
433.73
436.673
439.128
441.083
442.512
443.382
443.647
443.247
442.101
440.103
437.105
432.898
427.228
420.065
413.748
408.32
403.574
399.336
395.486
391.938
388.633
385.528
382.589
379.79
377.111
374.536
372.053
369.652
367.323
365.062
362.862
360.719
358.632
356.598
354.616
352.684
350.803
348.971
347.19
345.458
343.776
342.144
340.561
339.028
337.545
336.111
334.725
333.387
332.096
330.851
329.651
328.495
327.382
326.31
325.279
324.286
323.33
322.41
321.525
320.672
319.851
319.061
318.299
317.566
316.859
316.177
315.519
314.885
314.273
313.683
313.113
312.562
312.03
311.517
311.021
310.542
310.079
309.631
309.199
308.782
308.378
307.989
307.613
307.249
306.899
306.561
306.235
305.92
305.617
305.325
305.044
304.774
304.514
304.264
304.024
303.794
303.573
303.362
303.159
302.966
302.781
302.604
302.436
302.275
302.123
301.978
301.84
301.71
301.586
301.469
301.359
301.255
301.157
301.065
300.979
300.898
300.822
300.751
300.685
300.624
300.566
300.514
300.465
300.419
300.378
300.339
300.304
300.272
300.243
300.216
300.192
300.17
300.15
300.132
300.116
300.101
300.088
300.077
300.067
300.058
300.05
300.043
300.036
300.031
300.026
300.022
300.019
300.016
300.013
300.011
300.009
300.007
300.006
300.005
393.951
399.995
405.654
410.852
415.577
419.837
423.641
426.992
429.89
432.322
434.273
435.718
436.622
436.944
436.63
435.614
433.816
431.14
427.492
422.839
417.414
412.125
407.26
402.836
398.796
395.073
391.614
388.372
385.314
382.409
379.638
376.981
374.424
371.955
369.565
367.245
364.991
362.797
360.66
358.578
356.547
354.568
352.639
350.76
348.931
347.151
345.421
343.741
342.11
340.529
338.998
337.517
336.084
334.7
333.363
332.074
330.83
329.632
328.478
327.366
326.295
325.265
324.273
323.318
322.399
321.515
320.663
319.843
319.054
318.293
317.56