/*--------------------------------*- C++ -*----------------------------------*\
  =========                 |
  \\      /  F ield         | OpenFOAM: The Open Source CFD Toolbox
   \\    /   O peration     | Website:  https://openfoam.org
    \\  /    A nd           | Version:  7
     \\/     M anipulation  |
\*---------------------------------------------------------------------------*/
FoamFile
{
    version     2.0;
    format      ascii;
    class       volVectorField;
    location    "1.28";
    object      U;
}
// * * * * * * * * * * * * * * * * * * * * * * * * * * * * * * * * * * * * * //

dimensions      [0 1 -1 0 0 0 0];

internalField   nonuniform List<vector> 
12013
(
(0.100251 -6.99296e-05 0)
(0.101278 -0.00013024 0)
(0.10295 -0.000184077 0)
(0.105083 -0.000230571 0)
(0.107603 -0.000270821 0)
(0.11044 -0.000305632 0)
(0.113531 -0.000335772 0)
(0.116825 -0.000362113 0)
(0.120283 -0.00038557 0)
(0.123876 -0.000407054 0)
(0.127585 -0.00042742 0)
(0.131396 -0.000447418 0)
(0.135306 -0.000467668 0)
(0.139313 -0.000488638 0)
(0.14342 -0.000510662 0)
(0.14763 -0.000533951 0)
(0.151951 -0.000558611 0)
(0.156385 -0.000584673 0)
(0.160939 -0.000612115 0)
(0.165617 -0.000640875 0)
(0.17042 -0.000670868 0)
(0.175353 -0.000701994 0)
(0.180415 -0.000734147 0)
(0.185607 -0.000767215 0)
(0.190929 -0.000801085 0)
(0.19638 -0.000835639 0)
(0.201956 -0.000870763 0)
(0.207655 -0.00090634 0)
(0.213474 -0.000942249 0)
(0.219409 -0.000978366 0)
(0.225454 -0.00101457 0)
(0.231606 -0.00105073 0)
(0.237858 -0.00108672 0)
(0.244205 -0.0011224 0)
(0.250641 -0.00115763 0)
(0.257158 -0.00119226 0)
(0.26375 -0.00122616 0)
(0.27041 -0.00125916 0)
(0.27713 -0.00129109 0)
(0.283902 -0.00132181 0)
(0.29072 -0.00135112 0)
(0.297574 -0.00137884 0)
(0.304458 -0.00140479 0)
(0.311361 -0.00142876 0)
(0.318277 -0.00145053 0)
(0.325196 -0.00146988 0)
(0.33211 -0.00148657 0)
(0.33901 -0.00150035 0)
(0.345887 -0.00151093 0)
(0.352733 -0.00151802 0)
(0.359539 -0.00152131 0)
(0.366295 -0.00152045 0)
(0.372993 -0.00151507 0)
(0.379622 -0.00150476 0)
(0.386174 -0.00148905 0)
(0.392638 -0.00146746 0)
(0.399004 -0.00143942 0)
(0.405262 -0.0014043 0)
(0.411401 -0.00136139 0)
(0.417408 -0.00130986 0)
(0.423272 -0.00124878 0)
(0.428978 -0.00117702 0)
(0.434512 -0.0010933 0)
(0.439857 -0.000996029 0)
(0.444993 -0.000883318 0)
(0.449899 -0.000752822 0)
(0.454548 -0.000601616 0)
(0.45891 -0.000425996 0)
(0.462946 -0.000221195 0)
(0.466611 1.90664e-05 0)
(0.469842 0.000304435 0)
(0.47256 0.000649339 0)
(0.474653 0.00107478 0)
(0.475961 0.00161326 0)
(0.476251 0.0023178 0)
(0.475167 0.00327974 0)
(0.472136 0.00466556 0)
(0.466171 0.00680398 0)
(0.455528 0.0104676 0)
(0.437287 0.0183056 0)
(0.417291 0.0465267 0)
(0.100235 -0.000213788 0)
(0.10126 -0.00039943 0)
(0.102928 -0.000564662 0)
(0.105058 -0.000707189 0)
(0.107575 -0.000830537 0)
(0.110408 -0.000937182 0)
(0.113494 -0.00102948 0)
(0.116784 -0.00111012 0)
(0.120238 -0.0011819 0)
(0.123825 -0.00124762 0)
(0.127528 -0.0013099 0)
(0.131332 -0.00137105 0)
(0.135234 -0.00143294 0)
(0.139233 -0.00149703 0)
(0.143331 -0.00156434 0)
(0.147532 -0.00163549 0)
(0.151841 -0.00171082 0)
(0.156264 -0.00179043 0)
(0.160806 -0.00187424 0)
(0.165469 -0.00196205 0)
(0.170259 -0.00205361 0)
(0.175176 -0.00214862 0)
(0.180222 -0.00224673 0)
(0.185397 -0.00234762 0)
(0.190701 -0.00245092 0)
(0.196131 -0.00255629 0)
(0.201687 -0.00266337 0)
(0.207365 -0.0027718 0)
(0.213161 -0.00288122 0)
(0.219071 -0.00299124 0)
(0.225092 -0.00310149 0)
(0.231217 -0.00321158 0)
(0.237442 -0.0033211 0)
(0.24376 -0.00342966 0)
(0.250165 -0.00353681 0)
(0.25665 -0.00364213 0)
(0.26321 -0.00374514 0)
(0.269835 -0.0038454 0)
(0.276519 -0.0039424 0)
(0.283255 -0.00403564 0)
(0.290033 -0.00412458 0)
(0.296848 -0.00420867 0)
(0.303689 -0.00428731 0)
(0.310549 -0.0043599 0)
(0.31742 -0.00442578 0)
(0.324292 -0.00448426 0)
(0.331158 -0.00453463 0)
(0.338009 -0.00457609 0)
(0.344835 -0.0046078 0)
(0.351628 -0.00462888 0)
(0.358379 -0.00463836 0)
(0.365078 -0.00463519 0)
(0.371718 -0.00461822 0)
(0.378287 -0.00458622 0)
(0.384777 -0.00453779 0)
(0.391178 -0.00447141 0)
(0.397479 -0.00438538 0)
(0.403671 -0.00427777 0)
(0.409742 -0.0041464 0)
(0.415681 -0.00398878 0)
(0.421474 -0.00380204 0)
(0.42711 -0.00358279 0)
(0.432573 -0.00332707 0)
(0.437847 -0.00303013 0)
(0.442913 -0.0026862 0)
(0.447751 -0.00228819 0)
(0.452336 -0.00182726 0)
(0.456638 -0.00129223 0)
(0.460623 -0.000668698 0)
(0.464248 6.22806e-05 0)
(0.467456 0.000928325 0)
(0.470177 0.00196961 0)
(0.472321 0.00324433 0)
(0.47376 0.00484046 0)
(0.474325 0.00689671 0)
(0.473781 0.00964094 0)
(0.471804 0.0134621 0)
(0.467945 0.0190509 0)
(0.461633 0.0276991 0)
(0.452769 0.041834 0)
(0.448199 0.0653685 0)
(0.100221 -0.000364531 0)
(0.101238 -0.00068616 0)
(0.102896 -0.000970748 0)
(0.105018 -0.00121611 0)
(0.107527 -0.00142836 0)
(0.110352 -0.0016118 0)
(0.11343 -0.00177049 0)
(0.116711 -0.00190907 0)
(0.120154 -0.00203236 0)
(0.123731 -0.00214519 0)
(0.127421 -0.00225208 0)
(0.131212 -0.00235697 0)
(0.1351 -0.00246312 0)
(0.139082 -0.00257301 0)
(0.143163 -0.00268841 0)
(0.147344 -0.0028104 0)
(0.151633 -0.00293955 0)
(0.156034 -0.00307603 0)
(0.160551 -0.0032197 0)
(0.16519 -0.00337024 0)
(0.169951 -0.00352718 0)
(0.174839 -0.00369002 0)
(0.179854 -0.00385818 0)
(0.184995 -0.00403105 0)
(0.190263 -0.00420805 0)
(0.195657 -0.00438857 0)
(0.201173 -0.00457199 0)
(0.206808 -0.00475768 0)
(0.212561 -0.00494502 0)
(0.218425 -0.00513336 0)
(0.224397 -0.00532204 0)
(0.230471 -0.0055104 0)
(0.236643 -0.00569775 0)
(0.242905 -0.00588337 0)
(0.249252 -0.00606654 0)
(0.255677 -0.00624648 0)
(0.262173 -0.00642243 0)
(0.268732 -0.00659356 0)
(0.275348 -0.00675905 0)
(0.282013 -0.00691801 0)
(0.288718 -0.00706951 0)
(0.295456 -0.0072126 0)
(0.302218 -0.00734626 0)
(0.308996 -0.00746945 0)
(0.315782 -0.00758104 0)
(0.322567 -0.00767984 0)
(0.329343 -0.00776461 0)
(0.3361 -0.00783399 0)
(0.34283 -0.00788656 0)
(0.349524 -0.00792077 0)
(0.356173 -0.00793497 0)
(0.362768 -0.00792737 0)
(0.3693 -0.00789601 0)
(0.375759 -0.00783875 0)
(0.382136 -0.00775324 0)
(0.388421 -0.00763688 0)
(0.394605 -0.00748676 0)
(0.400676 -0.00729963 0)
(0.406624 -0.00707179 0)
(0.412439 -0.00679904 0)
(0.418107 -0.00647654 0)
(0.423616 -0.00609863 0)
(0.428953 -0.00565869 0)
(0.434101 -0.00514881 0)
(0.439045 -0.00455946 0)
(0.443764 -0.00387901 0)
(0.448237 -0.003093 0)
(0.452438 -0.00218327 0)
(0.456337 -0.00112657 0)
(0.459899 0.00010736 0)
(0.463076 0.00156063 0)
(0.465819 0.00329224 0)
(0.468065 0.00538541 0)
(0.469739 0.00796035 0)
(0.470756 0.0111951 0)
(0.471031 0.0153593 0)
(0.470508 0.020867 0)
(0.469224 0.0283583 0)
(0.46748 0.038822 0)
(0.466273 0.0536546 0)
(0.469108 0.0736645 0)
(0.100207 -0.000521467 0)
(0.101214 -0.0009904 0)
(0.102858 -0.00140261 0)
(0.104967 -0.00175818 0)
(0.107464 -0.00206556 0)
(0.110276 -0.00233103 0)
(0.113341 -0.00256058 0)
(0.116607 -0.00276089 0)
(0.120035 -0.00293899 0)
(0.123596 -0.00310186 0)
(0.127268 -0.00325603 0)
(0.131039 -0.00340725 0)
(0.134905 -0.00356021 0)
(0.138865 -0.00371853 0)
(0.142919 -0.00388474 0)
(0.147073 -0.00406043 0)
(0.151332 -0.00424644 0)
(0.1557 -0.00444298 0)
(0.160183 -0.00464988 0)
(0.164783 -0.00486665 0)
(0.169505 -0.00509264 0)
(0.17435 -0.00532708 0)
(0.179319 -0.00556914 0)
(0.184412 -0.00581797 0)
(0.189629 -0.00607269 0)
(0.194968 -0.00633241 0)
(0.200426 -0.00659625 0)
(0.206002 -0.00686329 0)
(0.21169 -0.00713263 0)
(0.217488 -0.00740332 0)
(0.22339 -0.00767442 0)
(0.229391 -0.00794494 0)
(0.235486 -0.0082139 0)
(0.241668 -0.00848025 0)
(0.247932 -0.00874294 0)
(0.25427 -0.00900087 0)
(0.260676 -0.00925289 0)
(0.267142 -0.00949784 0)
(0.27366 -0.00973449 0)
(0.280224 -0.00996157 0)
(0.286825 -0.0101777 0)
(0.293455 -0.0103816 0)
(0.300106 -0.0105717 0)
(0.306769 -0.0107465 0)
(0.313436 -0.0109044 0)
(0.320099 -0.0110437 0)
(0.326749 -0.0111625 0)
(0.333377 -0.011259 0)
(0.339974 -0.011331 0)
(0.346531 -0.0113764 0)
(0.35304 -0.0113927 0)
(0.359491 -0.0113774 0)
(0.365876 -0.0113277 0)
(0.372185 -0.0112406 0)
(0.378409 -0.0111126 0)
(0.384538 -0.0109401 0)
(0.390562 -0.0107189 0)
(0.396472 -0.0104445 0)
(0.402258 -0.0101117 0)
(0.407908 -0.0097145 0)
(0.413411 -0.0092462 0)
(0.418756 -0.00869896 0)
(0.423929 -0.00806362 0)
(0.428918 -0.00732934 0)
(0.433707 -0.0064832 0)
(0.438279 -0.0055095 0)
(0.442617 -0.00438903 0)
(0.4467 -0.00309786 0)
(0.450504 -0.00160581 0)
(0.454006 0.000125565 0)
(0.457173 0.00214685 0)
(0.459976 0.004526 0)
(0.462389 0.00735483 0)
(0.464388 0.0107581 0)
(0.465965 0.0149061 0)
(0.46715 0.0200308 0)
(0.468046 0.0264428 0)
(0.468896 0.0345396 0)
(0.470188 0.0447789 0)
(0.472792 0.0575153 0)
(0.478216 0.072318 0)
(0.100194 -0.000685155 0)
(0.101188 -0.00131239 0)
(0.102814 -0.00186087 0)
(0.104907 -0.00233445 0)
(0.107386 -0.00274355 0)
(0.110181 -0.00309661 0)
(0.113228 -0.00340167 0)
(0.116476 -0.00366767 0)
(0.119884 -0.00390396 0)
(0.123422 -0.00411983 0)
(0.12707 -0.00432398 0)
(0.130816 -0.00452405 0)
(0.134654 -0.00472631 0)
(0.138583 -0.00493556 0)
(0.142605 -0.00515519 0)
(0.146723 -0.00538732 0)
(0.150942 -0.00563306 0)
(0.155269 -0.0058927 0)
(0.159706 -0.00616601 0)
(0.164258 -0.00645233 0)
(0.168928 -0.0067508 0)
(0.173717 -0.00706039 0)
(0.178627 -0.00738 0)
(0.183658 -0.00770848 0)
(0.188809 -0.00804465 0)
(0.194078 -0.00838734 0)
(0.199463 -0.00873536 0)
(0.204961 -0.00908749 0)
(0.210568 -0.00944251 0)
(0.21628 -0.00979919 0)
(0.222093 -0.0101562 0)
(0.228001 -0.0105124 0)
(0.233998 -0.0108662 0)
(0.240079 -0.0112165 0)
(0.246237 -0.0115617 0)
(0.252465 -0.0119004 0)
(0.258757 -0.012231 0)
(0.265105 -0.0125521 0)
(0.271501 -0.012862 0)
(0.277938 -0.0131589 0)
(0.284408 -0.0134411 0)
(0.290903 -0.0137068 0)
(0.297415 -0.0139541 0)
(0.303935 -0.0141808 0)
(0.310455 -0.0143848 0)
(0.316966 -0.0145639 0)
(0.323461 -0.0147156 0)
(0.329929 -0.0148375 0)
(0.336362 -0.0149267 0)
(0.342752 -0.0149804 0)
(0.34909 -0.0149954 0)
(0.355367 -0.0149684 0)
(0.361574 -0.0148956 0)
(0.367701 -0.0147732 0)
(0.373741 -0.0145966 0)
(0.379683 -0.0143612 0)
(0.385518 -0.0140616 0)
(0.391237 -0.0136919 0)
(0.39683 -0.0132454 0)
(0.402288 -0.0127147 0)
(0.407599 -0.0120912 0)
(0.412754 -0.011365 0)
(0.417741 -0.0105249 0)
(0.422549 -0.00955744 0)
(0.427166 -0.00844694 0)
(0.431578 -0.00717459 0)
(0.435772 -0.00571771 0)
(0.439734 -0.0040486 0)
(0.44345 -0.00213304 0)
(0.446907 7.14892e-05 0)
(0.450087 0.00261637 0)
(0.452986 0.00556841 0)
(0.455605 0.00901299 0)
(0.457963 0.0130575 0)
(0.4601 0.0178351 0)
(0.462105 0.0235051 0)
(0.464131 0.0302476 0)
(0.466435 0.0382394 0)
(0.469406 0.0475962 0)
(0.473576 0.0582422 0)
(0.479572 0.0696402 0)
(0.100182 -0.000856072 0)
(0.101162 -0.00165238 0)
(0.102767 -0.00234619 0)
(0.104839 -0.00294592 0)
(0.107297 -0.0034637 0)
(0.11007 -0.00391018 0)
(0.113095 -0.00429566 0)
(0.116318 -0.00463146 0)
(0.119701 -0.00492942 0)
(0.123212 -0.00520131 0)
(0.126831 -0.00545813 0)
(0.130545 -0.00570955 0)
(0.134349 -0.00596352 0)
(0.13824 -0.00622612 0)
(0.142221 -0.00650165 0)
(0.146296 -0.00679281 0)
(0.150468 -0.00710099 0)
(0.154743 -0.0074266 0)
(0.159125 -0.00776931 0)
(0.163618 -0.00812832 0)
(0.168225 -0.00850252 0)
(0.172948 -0.00889059 0)
(0.177787 -0.00929115 0)
(0.182742 -0.00970273 0)
(0.187813 -0.0101238 0)
(0.192998 -0.010553 0)
(0.198295 -0.0109886 0)
(0.2037 -0.0114293 0)
(0.20921 -0.0118733 0)
(0.21482 -0.0123193 0)
(0.220526 -0.0127655 0)
(0.226322 -0.0132102 0)
(0.232203 -0.0136519 0)
(0.238163 -0.0140888 0)
(0.244196 -0.014519 0)
(0.250294 -0.0149407 0)
(0.256451 -0.0153521 0)
(0.262659 -0.015751 0)
(0.268911 -0.0161356 0)
(0.275199 -0.0165035 0)
(0.281516 -0.0168526 0)
(0.287853 -0.0171806 0)
(0.294202 -0.0174849 0)
(0.300555 -0.0177631 0)
(0.306903 -0.0180124 0)
(0.313239 -0.0182299 0)
(0.319553 -0.0184127 0)
(0.325837 -0.0185576 0)
(0.332082 -0.0186611 0)
(0.33828 -0.0187196 0)
(0.344422 -0.0187292 0)
(0.350499 -0.0186857 0)
(0.356503 -0.0185845 0)
(0.362425 -0.0184209 0)
(0.368256 -0.0181893 0)
(0.373988 -0.0178839 0)
(0.379612 -0.0174984 0)
(0.385118 -0.0170254 0)
(0.390499 -0.0164571 0)
(0.395745 -0.0157846 0)
(0.400847 -0.0149977 0)
(0.405796 -0.0140849 0)
(0.410584 -0.0130333 0)
(0.4152 -0.0118275 0)
(0.419637 -0.01045 0)
(0.423885 -0.00888014 0)
(0.427936 -0.00709339 0)
(0.431782 -0.00506073 0)
(0.435419 -0.00274732 0)
(0.438842 -0.00011147 0)
(0.442053 0.00289354 0)
(0.445062 0.00632471 0)
(0.447891 0.0102508 0)
(0.45058 0.0147507 0)
(0.453194 0.0199114 0)
(0.455832 0.0258212 0)
(0.458639 0.0325568 0)
(0.46181 0.0401588 0)
(0.465595 0.0485913 0)
(0.47027 0.0576801 0)
(0.476063 0.0670311 0)
(0.100169 -0.00103462 0)
(0.101136 -0.00201071 0)
(0.102717 -0.00285923 0)
(0.104765 -0.00359354 0)
(0.107198 -0.00422729 0)
(0.109945 -0.00477332 0)
(0.112942 -0.00524436 0)
(0.116136 -0.00565423 0)
(0.119488 -0.00601745 0)
(0.122966 -0.00634842 0)
(0.126551 -0.0066606 0)
(0.130227 -0.00696582 0)
(0.13399 -0.00727382 0)
(0.137838 -0.00759207 0)
(0.141771 -0.00792584 0)
(0.145794 -0.00827845 0)
(0.14991 -0.00865164 0)
(0.154126 -0.00904588 0)
(0.158444 -0.0094608 0)
(0.162868 -0.00989542 0)
(0.167402 -0.0103484 0)
(0.172047 -0.010818 0)
(0.176803 -0.0113027 0)
(0.181671 -0.0118005 0)
(0.18665 -0.0123098 0)
(0.191738 -0.0128285 0)
(0.196932 -0.013355 0)
(0.20223 -0.0138872 0)
(0.207627 -0.0144233 0)
(0.21312 -0.0149614 0)
(0.218703 -0.0154995 0)
(0.224372 -0.0160355 0)
(0.23012 -0.0165675 0)
(0.235942 -0.0170932 0)
(0.241832 -0.0176104 0)
(0.247781 -0.018117 0)
(0.253785 -0.0186106 0)
(0.259834 -0.0190887 0)
(0.265923 -0.0195488 0)
(0.272043 -0.0199883 0)
(0.278186 -0.0204045 0)
(0.284345 -0.0207945 0)
(0.290511 -0.0211553 0)
(0.296676 -0.0214839 0)
(0.302832 -0.0217769 0)
(0.308971 -0.022031 0)
(0.315085 -0.0222423 0)
(0.321164 -0.0224071 0)
(0.3272 -0.0225213 0)
(0.333185 -0.0225805 0)
(0.339112 -0.02258 0)
(0.34497 -0.0225148 0)
(0.350752 -0.0223796 0)
(0.35645 -0.0221685 0)
(0.362055 -0.0218752 0)
(0.367559 -0.0214929 0)
(0.372955 -0.0210141 0)
(0.378233 -0.0204306 0)
(0.383388 -0.0197332 0)
(0.388409 -0.0189118 0)
(0.393291 -0.0179553 0)
(0.398027 -0.0168509 0)
(0.402608 -0.0155844 0)
(0.407029 -0.0141396 0)
(0.411285 -0.012498 0)
(0.41537 -0.0106385 0)
(0.419282 -0.00853667 0)
(0.423019 -0.00616456 0)
(0.426583 -0.00348988 0)
(0.429981 -0.000475961 0)
(0.433224 0.00291573 0)
(0.436331 0.00672744 0)
(0.439337 0.0110071 0)
(0.442289 0.0158041 0)
(0.445251 0.021164 0)
(0.448311 0.0271216 0)
(0.451578 0.033689 0)
(0.45518 0.0408405 0)
(0.459255 0.0484917 0)
(0.463922 0.0564787 0)
(0.469239 0.0645461 0)
(0.100156 -0.00122119 0)
(0.101109 -0.00238777 0)
(0.102665 -0.00340066 0)
(0.104686 -0.00427823 0)
(0.107089 -0.0050355 0)
(0.109805 -0.00568748 0)
(0.112769 -0.00624939 0)
(0.11593 -0.00673777 0)
(0.119246 -0.00716994 0)
(0.122686 -0.00756308 0)
(0.126229 -0.00793329 0)
(0.129862 -0.0082947 0)
(0.133578 -0.00865897 0)
(0.137374 -0.00903503 0)
(0.141253 -0.00942921 0)
(0.145216 -0.00984553 0)
(0.149269 -0.010286 0)
(0.153416 -0.0107514 0)
(0.157661 -0.0112411 0)
(0.162008 -0.011754 0)
(0.166458 -0.0122884 0)
(0.171015 -0.0128425 0)
(0.175678 -0.0134141 0)
(0.180447 -0.0140011 0)
(0.185322 -0.0146014 0)
(0.1903 -0.0152126 0)
(0.195379 -0.0158326 0)
(0.200556 -0.0164592 0)
(0.205827 -0.01709 0)
(0.211188 -0.0177227 0)
(0.216634 -0.018355 0)
(0.22216 -0.0189845 0)
(0.22776 -0.0196086 0)
(0.233428 -0.0202249 0)
(0.239158 -0.0208308 0)
(0.244943 -0.0214234 0)
(0.250776 -0.0220001 0)
(0.25665 -0.022558 0)
(0.262558 -0.023094 0)
(0.268492 -0.023605 0)
(0.274444 -0.0240879 0)
(0.280406 -0.0245391 0)
(0.286372 -0.0249552 0)
(0.292332 -0.0253325 0)
(0.298278 -0.0256672 0)
(0.304202 -0.025955 0)
(0.310097 -0.0261918 0)
(0.315954 -0.0263729 0)
(0.321764 -0.0264937 0)
(0.32752 -0.026549 0)
(0.333214 -0.0265333 0)
(0.338837 -0.026441 0)
(0.344382 -0.0262657 0)
(0.34984 -0.026001 0)
(0.355205 -0.0256395 0)
(0.360469 -0.0251737 0)
(0.365625 -0.0245951 0)
(0.370666 -0.0238945 0)
(0.375584 -0.0230621 0)
(0.380374 -0.0220869 0)
(0.38503 -0.0209569 0)
(0.389547 -0.0196588 0)
(0.39392 -0.018178 0)
(0.398146 -0.0164979 0)
(0.402222 -0.0146006 0)
(0.406148 -0.0124657 0)
(0.409924 -0.0100707 0)
(0.413556 -0.00739068 0)
(0.417049 -0.00439818 0)
(0.420417 -0.00106382 0)
(0.423679 0.00264035 0)
(0.426855 0.0067411 0)
(0.429982 0.0112666 0)
(0.433105 0.0162411 0)
(0.436279 0.02168 0)
(0.439567 0.0275843 0)
(0.443041 0.0339336 0)
(0.446775 0.0406781 0)
(0.450835 0.0477313 0)
(0.455258 0.054967 0)
(0.460034 0.0622289 0)
(0.100143 -0.00141621 0)
(0.101082 -0.00278395 0)
(0.102612 -0.00397115 0)
(0.104601 -0.00500083 0)
(0.106971 -0.0058894 0)
(0.109652 -0.00665391 0)
(0.112578 -0.00731219 0)
(0.115699 -0.00788362 0)
(0.118973 -0.00838849 0)
(0.122369 -0.00884693 0)
(0.125865 -0.0092778 0)
(0.129448 -0.00969771 0)
(0.133109 -0.0101203 0)
(0.136848 -0.0105562 0)
(0.140664 -0.0110128 0)
(0.144561 -0.0114948 0)
(0.148542 -0.0120048 0)
(0.152612 -0.0125434 0)
(0.156775 -0.0131102 0)
(0.161034 -0.0137038 0)
(0.165391 -0.0143222 0)
(0.169849 -0.0149632 0)
(0.174408 -0.0156243 0)
(0.179067 -0.016303 0)
(0.183826 -0.0169968 0)
(0.188683 -0.0177029 0)
(0.193634 -0.0184189 0)
(0.198678 -0.019142 0)
(0.20381 -0.0198696 0)
(0.209026 -0.020599 0)
(0.21432 -0.0213274 0)
(0.219689 -0.0220519 0)
(0.225126 -0.0227697 0)
(0.230625 -0.0234778 0)
(0.23618 -0.0241732 0)
(0.241784 -0.0248526 0)
(0.247431 -0.0255129 0)
(0.253114 -0.0261505 0)
(0.258824 -0.0267621 0)
(0.264556 -0.027344 0)
(0.270301 -0.0278925 0)
(0.276051 -0.0284035 0)
(0.281799 -0.028873 0)
(0.287537 -0.0292967 0)
(0.293257 -0.0296702 0)
(0.298951 -0.0299886 0)
(0.304612 -0.0302472 0)
(0.31023 -0.0304406 0)
(0.315799 -0.0305634 0)
(0.321311 -0.0306098 0)
(0.326758 -0.0305737 0)
(0.332133 -0.0304486 0)
(0.337428 -0.0302275 0)
(0.342636 -0.0299031 0)
(0.34775 -0.0294674 0)
(0.352764 -0.0289121 0)
(0.357671 -0.028228 0)
(0.362466 -0.0274055 0)
(0.367143 -0.026434 0)
(0.371697 -0.0253021 0)
(0.376124 -0.0239976 0)
(0.380422 -0.0225071 0)
(0.384587 -0.0208162 0)
(0.388619 -0.0189094 0)
(0.392518 -0.0167696 0)
(0.396286 -0.0143788 0)
(0.399929 -0.0117176 0)
(0.403453 -0.00876547 0)
(0.40687 -0.00550118 0)
(0.410194 -0.00190346 0)
(0.41345 0.00204588 0)
(0.416652 0.00635947 0)
(0.419835 0.0110492 0)
(0.423035 0.0161209 0)
(0.426294 0.0215714 0)
(0.429652 0.027384 0)
(0.433152 0.0335261 0)
(0.436831 0.0399456 0)
(0.44071 0.0465704 0)
(0.444793 0.0533111 0)
(0.449046 0.0600747 0)
(0.100128 -0.00162007 0)
(0.101055 -0.00319962 0)
(0.102556 -0.00457124 0)
(0.104511 -0.00576201 0)
(0.106844 -0.00678979 0)
(0.109484 -0.00767357 0)
(0.112367 -0.00843384 0)
(0.115442 -0.00909295 0)
(0.118668 -0.00967429 0)
(0.122013 -0.0102011 0)
(0.125455 -0.0106952 0)
(0.128981 -0.0111758 0)
(0.132581 -0.0116588 0)
(0.136254 -0.0121563 0)
(0.14 -0.012677 0)
(0.143822 -0.0132266 0)
(0.147722 -0.0138078 0)
(0.151707 -0.0144216 0)
(0.155778 -0.0150675 0)
(0.15994 -0.0157437 0)
(0.164195 -0.0164482 0)
(0.168544 -0.0171782 0)
(0.172987 -0.017931 0)
(0.177525 -0.0187036 0)
(0.182157 -0.0194929 0)
(0.18688 -0.020296 0)
(0.191692 -0.0211098 0)
(0.196589 -0.0219313 0)
(0.201568 -0.0227573 0)
(0.206625 -0.0235848 0)
(0.211755 -0.0244105 0)
(0.216952 -0.0252312 0)
(0.222211 -0.0260436 0)
(0.227527 -0.0268441 0)
(0.232892 -0.0276292 0)
(0.238301 -0.0283954 0)
(0.243746 -0.0291389 0)
(0.249222 -0.0298558 0)
(0.25472 -0.030542 0)
(0.260234 -0.0311934 0)
(0.265755 -0.0318057 0)
(0.271278 -0.0323744 0)
(0.276793 -0.0328948 0)
(0.282294 -0.033362 0)
(0.287772 -0.0337709 0)
(0.293221 -0.0341163 0)
(0.298632 -0.0343925 0)
(0.303999 -0.0345937 0)
(0.309313 -0.0347137 0)
(0.314568 -0.0347461 0)
(0.319756 -0.0346842 0)
(0.32487 -0.0345208 0)
(0.329904 -0.0342482 0)
(0.334851 -0.0338586 0)
(0.339706 -0.0333434 0)
(0.344462 -0.0326937 0)
(0.349114 -0.0319 0)
(0.353658 -0.0309522 0)
(0.35809 -0.0298395 0)
(0.362406 -0.0285507 0)
(0.366603 -0.0270735 0)
(0.370681 -0.0253953 0)
(0.374639 -0.0235026 0)
(0.378478 -0.0213812 0)
(0.3822 -0.0190163 0)
(0.385811 -0.0163927 0)
(0.389318 -0.013495 0)
(0.392729 -0.0103077 0)
(0.396057 -0.00681633 0)
(0.399315 -0.00300726 0)
(0.402532 0.00113098 0)
(0.405712 0.00559973 0)
(0.408885 0.0103978 0)
(0.412079 0.0155197 0)
(0.41532 0.0209521 0)
(0.418633 0.0266721 0)
(0.422038 0.0326455 0)
(0.42555 0.0388269 0)
(0.429169 0.0451611 0)
(0.432885 0.0515869 0)
(0.436659 0.0580502 0)
(0.100113 -0.00183308 0)
(0.101026 -0.00363508 0)
(0.102497 -0.00520134 0)
(0.104416 -0.00656226 0)
(0.106706 -0.00773723 0)
(0.1093 -0.00874707 0)
(0.112135 -0.00961499 0)
(0.115158 -0.0103664 0)
(0.118329 -0.011028 0)
(0.121616 -0.0116262 0)
(0.124996 -0.012186 0)
(0.128456 -0.0127294 0)
(0.131987 -0.0132743 0)
(0.135587 -0.0138351 0)
(0.139254 -0.0144215 0)
(0.142992 -0.01504 0)
(0.146803 -0.015694 0)
(0.150692 -0.0163846 0)
(0.154663 -0.0171111 0)
(0.158718 -0.0178718 0)
(0.162859 -0.018664 0)
(0.167088 -0.0194847 0)
(0.171405 -0.0203308 0)
(0.175811 -0.0211988 0)
(0.180303 -0.0220853 0)
(0.18488 -0.0229867 0)
(0.189539 -0.0238997 0)
(0.194277 -0.0248208 0)
(0.199091 -0.0257463 0)
(0.203975 -0.0266727 0)
(0.208925 -0.0275964 0)
(0.213937 -0.0285137 0)
(0.219004 -0.0294206 0)
(0.224121 -0.0303134 0)
(0.229282 -0.031188 0)
(0.23448 -0.0320403 0)
(0.239709 -0.0328659 0)
(0.244962 -0.0336606 0)
(0.250232 -0.0344197 0)
(0.255512 -0.0351386 0)
(0.260796 -0.0358124 0)
(0.266074 -0.0364359 0)
(0.271342 -0.037004 0)
(0.27659 -0.0375111 0)
(0.281813 -0.0379517 0)
(0.287002 -0.0383197 0)
(0.292151 -0.038609 0)
(0.297252 -0.0388131 0)
(0.302298 -0.0389253 0)
(0.307283 -0.0389385 0)
(0.312201 -0.0388455 0)
(0.317044 -0.0386385 0)
(0.321808 -0.0383094 0)
(0.326486 -0.0378497 0)
(0.331073 -0.0372507 0)
(0.335565 -0.0365031 0)
(0.339957 -0.0355971 0)
(0.344246 -0.0345227 0)
(0.348429 -0.0332693 0)
(0.352505 -0.0318258 0)
(0.356471 -0.0301809 0)
(0.360329 -0.0283228 0)
(0.36408 -0.0262396 0)
(0.367725 -0.023919 0)
(0.37127 -0.0213489 0)
(0.374721 -0.0185174 0)
(0.378084 -0.0154132 0)
(0.38137 -0.0120259 0)
(0.38459 -0.00834694 0)
(0.387758 -0.00436939 0)
(0.390891 -8.74798e-05 0)
(0.394006 0.00449486 0)
(0.397113 0.00936621 0)
(0.400232 0.0145149 0)
(0.40338 0.0199239 0)
(0.40657 0.0255694 0)
(0.409807 0.0314209 0)
(0.413094 0.0374416 0)
(0.416424 0.0435909 0)
(0.419778 0.0498273 0)
(0.423127 0.0561198 0)
(0.100097 -0.00205551 0)
(0.100997 -0.00409049 0)
(0.102436 -0.00586162 0)
(0.104314 -0.00740174 0)
(0.106557 -0.00873182 0)
(0.1091 -0.00987448 0)
(0.111879 -0.0108557 0)
(0.114843 -0.0117039 0)
(0.117951 -0.0124494 0)
(0.121172 -0.013122 0)
(0.124483 -0.0137498 0)
(0.127869 -0.0143577 0)
(0.131322 -0.0149662 0)
(0.134838 -0.0155915 0)
(0.138418 -0.0162447 0)
(0.142062 -0.0169334 0)
(0.145774 -0.0176613 0)
(0.149558 -0.0184298 0)
(0.153418 -0.0192381 0)
(0.157354 -0.0200843 0)
(0.161371 -0.0209654 0)
(0.165469 -0.021878 0)
(0.169649 -0.0228185 0)
(0.17391 -0.023783 0)
(0.17825 -0.0247675 0)
(0.182668 -0.0257682 0)
(0.187162 -0.026781 0)
(0.191727 -0.0278021 0)
(0.196361 -0.0288274 0)
(0.201058 -0.0298529 0)
(0.205815 -0.0308744 0)
(0.210627 -0.0318878 0)
(0.215487 -0.0328887 0)
(0.22039 -0.0338728 0)
(0.225331 -0.0348356 0)
(0.230303 -0.0357724 0)
(0.2353 -0.0366784 0)
(0.240314 -0.0375487 0)
(0.245341 -0.0383782 0)
(0.250372 -0.0391617 0)
(0.255402 -0.0398937 0)
(0.260422 -0.0405685 0)
(0.265426 -0.0411805 0)
(0.270408 -0.0417234 0)
(0.27536 -0.0421911 0)
(0.280275 -0.042577 0)
(0.285147 -0.0428745 0)
(0.28997 -0.0430765 0)
(0.294736 -0.0431758 0)
(0.29944 -0.0431647 0)
(0.304077 -0.0430356 0)
(0.308639 -0.0427802 0)
(0.313123 -0.0423902 0)
(0.317524 -0.0418568 0)
(0.321837 -0.0411709 0)
(0.326059 -0.0403233 0)
(0.330186 -0.0393043 0)
(0.334217 -0.0381041 0)
(0.338149 -0.0367125 0)
(0.341982 -0.0351193 0)
(0.345716 -0.0333143 0)
(0.349353 -0.0312869 0)
(0.352894 -0.029027 0)
(0.356344 -0.0265247 0)
(0.359707 -0.0237707 0)
(0.36299 -0.0207563 0)
(0.366201 -0.0174742 0)
(0.369347 -0.0139183 0)
(0.372441 -0.0100846 0)
(0.375491 -0.0059715 0)
(0.378509 -0.00157902 0)
(0.381519 0.00308752 0)
(0.384512 0.00801171 0)
(0.387505 0.013179 0)
(0.390508 0.0185718 0)
(0.393525 0.024168 0)
(0.396554 0.0299422 0)
(0.399592 0.0358655 0)
(0.402628 0.0419081 0)
(0.405646 0.0480418 0)
(0.408619 0.0542497 0)
(0.10008 -0.00228749 0)
(0.100965 -0.00456587 0)
(0.102372 -0.00655193 0)
(0.104204 -0.00828018 0)
(0.106396 -0.00977314 0)
(0.108881 -0.0110552 0)
(0.111598 -0.0121551 0)
(0.114495 -0.0131047 0)
(0.117532 -0.0139375 0)
(0.120678 -0.0146871 0)
(0.123909 -0.0153849 0)
(0.127212 -0.0160589 0)
(0.130578 -0.0167323 0)
(0.134001 -0.017423 0)
(0.137482 -0.0181439 0)
(0.141023 -0.0189034 0)
(0.144626 -0.0197059 0)
(0.148294 -0.0205529 0)
(0.15203 -0.0214437 0)
(0.155838 -0.022376 0)
(0.159719 -0.0233466 0)
(0.163674 -0.0243517 0)
(0.167703 -0.025387 0)
(0.171806 -0.0264482 0)
(0.175981 -0.027531 0)
(0.180227 -0.0286309 0)
(0.184541 -0.0297434 0)
(0.18892 -0.0308642 0)
(0.193359 -0.0319887 0)
(0.197856 -0.0331124 0)
(0.202404 -0.0342307 0)
(0.207 -0.0353389 0)
(0.211637 -0.0364323 0)
(0.216312 -0.0375059 0)
(0.221017 -0.0385547 0)
(0.225747 -0.0395735 0)
(0.230495 -0.0405571 0)
(0.235256 -0.0414999 0)
(0.240023 -0.0423964 0)
(0.24479 -0.0432407 0)
(0.24955 -0.0440269 0)
(0.254296 -0.0447488 0)
(0.259022 -0.0454 0)
(0.263722 -0.045974 0)
(0.268388 -0.0464639 0)
(0.273016 -0.0468627 0)
(0.277599 -0.0471631 0)
(0.28213 -0.0473579 0)
(0.286604 -0.0474391 0)
(0.291016 -0.0473989 0)
(0.295361 -0.0472291 0)
(0.299633 -0.0469213 0)
(0.303829 -0.0464668 0)
(0.307945 -0.0458569 0)
(0.311977 -0.0450826 0)
(0.315923 -0.0441346 0)
(0.319781 -0.0430037 0)
(0.323549 -0.0416806 0)
(0.327227 -0.0401559 0)
(0.330814 -0.0384204 0)
(0.334314 -0.036465 0)
(0.337726 -0.034281 0)
(0.341055 -0.0318601 0)
(0.344304 -0.0291948 0)
(0.347479 -0.0262784 0)
(0.350586 -0.0231054 0)
(0.353631 -0.0196716 0)
(0.356623 -0.0159747 0)
(0.35957 -0.0120143 0)
(0.36248 -0.00779244 0)
(0.365358 -0.00331309 0)
(0.368229 0.00141989 0)
(0.371073 0.00638897 0)
(0.373905 0.0115768 0)
(0.37673 0.0169663 0)
(0.379546 0.0225386 0)
(0.382349 0.028273 0)
(0.385134 0.0341473 0)
(0.38789 0.0401393 0)
(0.390601 0.0462293 0)
(0.393248 0.0524091 0)
(0.100061 -0.00252904 0)
(0.100931 -0.00506097 0)
(0.102303 -0.00727177 0)
(0.104087 -0.00919679 0)
(0.106221 -0.0108601 0)
(0.108642 -0.012288 0)
(0.111288 -0.0135117 0)
(0.11411 -0.0145666 0)
(0.117067 -0.0154899 0)
(0.120128 -0.0163189 0)
(0.12327 -0.0170885 0)
(0.12648 -0.0178299 0)
(0.129746 -0.0185689 0)
(0.133066 -0.0193256 0)
(0.136438 -0.0201145 0)
(0.139864 -0.0209451 0)
(0.143345 -0.0218223 0)
(0.146885 -0.0227479 0)
(0.150487 -0.0237212 0)
(0.154154 -0.0247396 0)
(0.157886 -0.0257995 0)
(0.161685 -0.0268967 0)
(0.16555 -0.0280264 0)
(0.169482 -0.0291839 0)
(0.173479 -0.0303643 0)
(0.177539 -0.0315625 0)
(0.181659 -0.0327736 0)
(0.185836 -0.0339928 0)
(0.190066 -0.035215 0)
(0.194345 -0.0364351 0)
(0.19867 -0.0376481 0)
(0.203034 -0.0388488 0)
(0.207433 -0.040032 0)
(0.211862 -0.0411921 0)
(0.216315 -0.0423236 0)
(0.220787 -0.043421 0)
(0.225271 -0.0444783 0)
(0.229762 -0.0454896 0)
(0.234253 -0.0464487 0)
(0.238739 -0.0473492 0)
(0.243213 -0.0481848 0)
(0.24767 -0.0489486 0)
(0.252102 -0.0496338 0)
(0.256505 -0.0502333 0)
(0.260873 -0.0507399 0)
(0.265199 -0.0511461 0)
(0.269478 -0.0514443 0)
(0.273706 -0.0516265 0)
(0.277876 -0.0516847 0)
(0.281985 -0.0516108 0)
(0.286027 -0.0513963 0)
(0.29 -0.0510328 0)
(0.2939 -0.0505115 0)
(0.297723 -0.0498238 0)
(0.301468 -0.0489609 0)
(0.305132 -0.0479139 0)
(0.308715 -0.0466742 0)
(0.312216 -0.0452332 0)
(0.315635 -0.0435824 0)
(0.318974 -0.0417138 0)
(0.322234 -0.0396198 0)
(0.325417 -0.0372934 0)
(0.328528 -0.0347282 0)
(0.33157 -0.0319189 0)
(0.334548 -0.0288611 0)
(0.337468 -0.0255519 0)
(0.340335 -0.0219898 0)
(0.343156 -0.0181752 0)
(0.345937 -0.0141103 0)
(0.348682 -0.00979937 0)
(0.351398 -0.00524841 0)
(0.35409 -0.000462041 0)
(0.356769 0.00454792 0)
(0.35942 0.00976011 0)
(0.362049 0.0151588 0)
(0.364655 0.0207283 0)
(0.367233 0.0264518 0)
(0.369775 0.0323118 0)
(0.372272 0.0382916 0)
(0.374711 0.0443769 0)
(0.377078 0.0505648 0)
(0.100041 -0.00278002 0)
(0.100895 -0.00557527 0)
(0.10223 -0.00802014 0)
(0.10396 -0.0101501 0)
(0.106031 -0.0119908 0)
(0.10838 -0.0135702 0)
(0.110948 -0.0149225 0)
(0.113685 -0.0160865 0)
(0.116552 -0.017103 0)
(0.119517 -0.0180133 0)
(0.12256 -0.018856 0)
(0.125664 -0.0196655 0)
(0.12882 -0.0204704 0)
(0.132024 -0.0212932 0)
(0.135275 -0.02215 0)
(0.138573 -0.0230513 0)
(0.141921 -0.0240027 0)
(0.145321 -0.0250063 0)
(0.148776 -0.0260613 0)
(0.152287 -0.0271649 0)
(0.155857 -0.0283132 0)
(0.159487 -0.0295014 0)
(0.163175 -0.0307243 0)
(0.166922 -0.0319765 0)
(0.170725 -0.0332527 0)
(0.174583 -0.0345473 0)
(0.178494 -0.0358549 0)
(0.182454 -0.03717 0)
(0.186459 -0.0384871 0)
(0.190506 -0.0398007 0)
(0.19459 -0.0411052 0)
(0.198706 -0.0423948 0)
(0.202851 -0.0436638 0)
(0.207018 -0.0449063 0)
(0.211202 -0.0461163 0)
(0.215399 -0.0472875 0)
(0.219602 -0.0484135 0)
(0.223806 -0.049488 0)
(0.228005 -0.0505042 0)
(0.232194 -0.0514554 0)
(0.236367 -0.0523344 0)
(0.240518 -0.0531343 0)
(0.244642 -0.0538475 0)
(0.248733 -0.0544667 0)
(0.252787 -0.0549841 0)
(0.256798 -0.0553919 0)
(0.260761 -0.0556821 0)
(0.264672 -0.0558467 0)
(0.268526 -0.0558773 0)
(0.272321 -0.0557656 0)
(0.276051 -0.0555031 0)
(0.279715 -0.0550815 0)
(0.28331 -0.0544921 0)
(0.286833 -0.0537266 0)
(0.290283 -0.0527764 0)
(0.293659 -0.0516335 0)
(0.296961 -0.0502898 0)
(0.30019 -0.0487376 0)
(0.303345 -0.0469696 0)
(0.306429 -0.0449789 0)
(0.309444 -0.0427595 0)
(0.312392 -0.0403058 0)
(0.315278 -0.0376134 0)
(0.318105 -0.0346788 0)
(0.320877 -0.0314997 0)
(0.323598 -0.028075 0)
(0.326275 -0.0244054 0)
(0.32891 -0.0204929 0)
(0.331509 -0.0163411 0)
(0.334076 -0.0119556 0)
(0.336612 -0.00734315 0)
(0.339118 -0.00251069 0)
(0.341615 0.00253479 0)
(0.344072 0.00777336 0)
(0.346499 0.01319 0)
(0.348894 0.018771 0)
(0.351253 0.0245025 0)
(0.353567 0.0303705 0)
(0.355829 0.0363618 0)
(0.358029 0.0424657 0)
(0.360155 0.0486827 0)
(0.100019 -0.00304008 0)
(0.100857 -0.00610786 0)
(0.102151 -0.00879543 0)