/*--------------------------------*- C++ -*----------------------------------*\
  =========                 |
  \\      /  F ield         | OpenFOAM: The Open Source CFD Toolbox
   \\    /   O peration     | Website:  https://openfoam.org
    \\  /    A nd           | Version:  7
     \\/     M anipulation  |
\*---------------------------------------------------------------------------*/
FoamFile
{
    version     2.0;
    format      ascii;
    class       surfaceScalarField;
    location    "2.31";
    object      phi;
}
// * * * * * * * * * * * * * * * * * * * * * * * * * * * * * * * * * * * * * //

dimensions      [1 0 -1 0 0 0 0];

internalField   nonuniform List<scalar> 
23692
(
1.17328e-05
-9.79764e-08
1.19109e-05
-1.78074e-07
1.21615e-05
-2.50543e-07
1.24773e-05
-3.15766e-07
1.2853e-05
-3.75549e-07
1.32839e-05
-4.30803e-07
1.37659e-05
-4.81946e-07
1.42952e-05
-5.29191e-07
1.48679e-05
-5.7262e-07
1.54802e-05
-6.1226e-07
1.61284e-05
-6.48131e-07
1.68087e-05
-6.80275e-07
1.75174e-05
-7.08772e-07
1.82511e-05
-7.33738e-07
1.90064e-05
-7.55331e-07
1.978e-05
-7.73738e-07
2.0569e-05
-7.89172e-07
2.13706e-05
-8.01859e-07
2.21823e-05
-8.12034e-07
2.30018e-05
-8.19929e-07
2.38271e-05
-8.25773e-07
2.46563e-05
-8.2978e-07
2.54877e-05
-8.32153e-07
2.632e-05
-8.33075e-07
2.71519e-05
-8.32714e-07
2.79821e-05
-8.31216e-07
2.88097e-05
-8.28712e-07
2.96338e-05
-8.25314e-07
3.04536e-05
-8.21117e-07
3.12684e-05
-8.16203e-07
3.20774e-05
-8.10638e-07
3.28802e-05
-8.04477e-07
3.36761e-05
-7.97765e-07
3.44647e-05
-7.90536e-07
3.52454e-05
-7.82816e-07
3.60178e-05
-7.74625e-07
3.67814e-05
-7.65976e-07
3.75358e-05
-7.56877e-07
3.82804e-05
-7.4733e-07
3.9015e-05
-7.37334e-07
3.9739e-05
-7.26884e-07
4.04519e-05
-7.15972e-07
4.11533e-05
-7.04587e-07
4.18427e-05
-6.92713e-07
4.25196e-05
-6.80333e-07
4.31834e-05
-6.67425e-07
4.38337e-05
-6.53966e-07
4.44698e-05
-6.39926e-07
4.50911e-05
-6.25274e-07
4.56971e-05
-6.09974e-07
4.62869e-05
-5.93984e-07
4.68598e-05
-5.77257e-07
4.74152e-05
-5.5974e-07
4.79521e-05
-5.41373e-07
4.84696e-05
-5.22087e-07
4.89667e-05
-5.01804e-07
4.94423e-05
-4.80434e-07
4.98954e-05
-4.57874e-07
5.03244e-05
-4.34004e-07
5.07281e-05
-4.08687e-07
5.11048e-05
-3.81757e-07
5.14527e-05
-3.53022e-07
5.17697e-05
-3.22248e-07
5.20537e-05
-2.89153e-07
5.23018e-05
-2.53392e-07
5.2511e-05
-2.14533e-07
5.26777e-05
-1.72028e-07
5.27976e-05
-1.25177e-07
5.28653e-05
-7.30632e-08
5.28745e-05
-1.4473e-08
5.28168e-05
5.23695e-08
5.26815e-05
1.30109e-07
5.24536e-05
2.22634e-07
5.21125e-05
3.3593e-07
5.16278e-05
4.79642e-07
5.09528e-05
6.7003e-07
5.0012e-05
9.35832e-07
4.86765e-05
1.33076e-06
4.67061e-05
1.96575e-06
4.3587e-05
3.11462e-06
5.90499e-06
3.76777e-05
1.25518e-05
-2.00243e-07
1.27414e-05
-3.67593e-07
1.30087e-05
-5.17843e-07
1.33459e-05
-6.52835e-07
1.3747e-05
-7.76613e-07
1.42073e-05
-8.91001e-07
1.47223e-05
-9.96865e-07
1.52879e-05
-1.09465e-06
1.58999e-05
-1.18453e-06
1.65543e-05
-1.26657e-06
1.7247e-05
-1.34079e-06
1.7974e-05
-1.4073e-06
1.87315e-05
-1.46625e-06
1.95156e-05
-1.51789e-06
2.03227e-05
-1.56255e-06
2.11495e-05
-1.60061e-06
2.19926e-05
-1.63251e-06
2.28492e-05
-1.65872e-06
2.37165e-05
-1.67973e-06
2.45922e-05
-1.69602e-06
2.54739e-05
-1.70806e-06
2.63598e-05
-1.7163e-06
2.72481e-05
-1.72116e-06
2.81372e-05
-1.72301e-06
2.90258e-05
-1.7222e-06
2.99125e-05
-1.71904e-06
3.07964e-05
-1.71379e-06
3.16765e-05
-1.70669e-06
3.25519e-05
-1.69794e-06
3.34219e-05
-1.68769e-06
3.42856e-05
-1.6761e-06
3.51426e-05
-1.66327e-06
3.59921e-05
-1.64929e-06
3.68337e-05
-1.63425e-06
3.76669e-05
-1.61818e-06
3.8491e-05
-1.60113e-06
3.93056e-05
-1.58313e-06
4.01102e-05
-1.56418e-06
4.09044e-05
-1.54431e-06
4.16876e-05
-1.5235e-06
4.24593e-05
-1.50175e-06
4.32191e-05
-1.47904e-06
4.39664e-05
-1.45533e-06
4.47008e-05
-1.43061e-06
4.54216e-05
-1.40483e-06
4.61283e-05
-1.37796e-06
4.68203e-05
-1.34993e-06
4.7497e-05
-1.3207e-06
4.81577e-05
-1.29019e-06
4.88017e-05
-1.25834e-06
4.94283e-05
-1.22505e-06
5.00367e-05
-1.19023e-06
5.0626e-05
-1.15377e-06
5.11954e-05
-1.11555e-06
5.17438e-05
-1.07543e-06
5.22702e-05
-1.03325e-06
5.27735e-05
-9.88823e-07
5.32524e-05
-9.41946e-07
5.37055e-05
-8.92377e-07
5.41313e-05
-8.39833e-07
5.45281e-05
-7.83986e-07
5.4894e-05
-7.24447e-07
5.5227e-05
-6.60751e-07
5.55245e-05
-5.92339e-07
5.5784e-05
-5.18523e-07
5.60023e-05
-4.38452e-07
5.61756e-05
-3.51056e-07
5.62997e-05
-2.54966e-07
5.63694e-05
-1.48406e-07
5.63782e-05
-2.90223e-08
5.63185e-05
1.06479e-07
5.61801e-05
2.62828e-07
5.59503e-05
4.4685e-07
5.56121e-05
6.68651e-07
5.51426e-05
9.43662e-07
5.45111e-05
1.29612e-06
5.36767e-05
1.76501e-06
5.2588e-05
2.41432e-06
5.11955e-05
3.35324e-06
4.95354e-05
4.76988e-06
6.89322e-06
4.85426e-05
1.34273e-05
-3.06228e-07
1.36281e-05
-5.68402e-07
1.39122e-05
-8.01838e-07
1.42711e-05
-1.01168e-06
1.46986e-05
-1.204e-06
1.51894e-05
-1.38169e-06
1.57387e-05
-1.54611e-06
1.63421e-05
-1.69796e-06
1.69952e-05
-1.83751e-06
1.76936e-05
-1.96485e-06
1.84329e-05
-2.08005e-06
1.92089e-05
-2.18326e-06
2.00173e-05
-2.27472e-06
2.08542e-05
-2.35482e-06
2.17156e-05
-2.42406e-06
2.25979e-05
-2.48305e-06
2.34976e-05
-2.53247e-06
2.44117e-05
-2.57305e-06
2.53371e-05
-2.60555e-06
2.62713e-05
-2.63072e-06
2.7212e-05
-2.64928e-06
2.8157e-05
-2.66194e-06
2.91044e-05
-2.66934e-06
3.00526e-05
-2.67207e-06
3.1e-05
-2.67066e-06
3.19455e-05
-2.6656e-06
3.28877e-05
-2.6573e-06
3.38258e-05
-2.64611e-06
3.47587e-05
-2.63235e-06
3.56856e-05
-2.61627e-06
3.66057e-05
-2.59809e-06
3.75185e-05
-2.57797e-06
3.84232e-05
-2.55608e-06
3.93192e-05
-2.5325e-06
4.02059e-05
-2.50733e-06
4.10829e-05
-2.48063e-06
4.19495e-05
-2.45244e-06
4.28052e-05
-2.42278e-06
4.36495e-05
-2.39166e-06
4.44819e-05
-2.35907e-06
4.53018e-05
-2.325e-06
4.61087e-05
-2.28942e-06
4.6902e-05
-2.25229e-06
4.76812e-05
-2.21356e-06
4.84456e-05
-2.17318e-06
4.91946e-05
-2.13108e-06
4.99276e-05
-2.08719e-06
5.06439e-05
-2.0414e-06
5.13429e-05
-1.99362e-06
5.20236e-05
-1.94373e-06
5.26854e-05
-1.89161e-06
5.33274e-05
-1.83711e-06
5.39486e-05
-1.78006e-06
5.45482e-05
-1.72027e-06
5.5125e-05
-1.65754e-06
5.56781e-05
-1.59163e-06
5.6206e-05
-1.52225e-06
5.67076e-05
-1.4491e-06
5.71814e-05
-1.37182e-06
5.76258e-05
-1.28998e-06
5.80391e-05
-1.20311e-06
5.84194e-05
-1.11063e-06
5.87646e-05
-1.01186e-06
5.90722e-05
-9.05986e-07
5.93397e-05
-7.92019e-07
5.95639e-05
-6.68742e-07
5.97414e-05
-5.34641e-07
5.98682e-05
-3.87803e-07
5.99394e-05
-2.25773e-07
5.99497e-05
-4.53563e-08
5.98924e-05
1.57697e-07
5.976e-05
3.89218e-07
5.95435e-05
6.57313e-07
5.9233e-05
9.7329e-07
5.88177e-05
1.3531e-06
5.82887e-05
1.81933e-06
5.76443e-05
2.40376e-06
5.69033e-05
3.14984e-06
5.61379e-05
4.11328e-06
5.55547e-05
5.34782e-06
6.82485e-06
5.56181e-05
1.43635e-05
-4.15735e-07
1.45753e-05
-7.80117e-07
1.48761e-05
-1.10254e-06
1.52571e-05
-1.39266e-06
1.57117e-05
-1.65845e-06
1.6234e-05
-1.90391e-06
1.6819e-05
-2.13098e-06
1.74618e-05
-2.34064e-06
1.81576e-05
-2.53328e-06
1.89019e-05
-2.70902e-06
1.96899e-05
-2.86798e-06
2.0517e-05
-3.01034e-06
2.13787e-05
-3.13646e-06
2.22707e-05
-3.24687e-06
2.31888e-05
-3.34227e-06
2.41291e-05
-3.4235e-06
2.50879e-05
-3.49152e-06
2.60619e-05
-3.54732e-06
2.70479e-05
-3.59195e-06
2.80431e-05
-3.62645e-06
2.90451e-05
-3.65184e-06
3.00515e-05
-3.66905e-06
3.10603e-05
-3.67901e-06
3.20698e-05
-3.68251e-06
3.30784e-05
-3.6803e-06
3.40846e-05
-3.67303e-06
3.50873e-05
-3.66127e-06
3.60852e-05
-3.64553e-06
3.70774e-05
-3.62622e-06
3.80631e-05
-3.6037e-06
3.90414e-05
-3.57827e-06
4.00115e-05
-3.55016e-06
4.09727e-05
-3.51958e-06
4.19244e-05
-3.48666e-06
4.28661e-05
-3.45152e-06
4.37969e-05
-3.41425e-06
4.47165e-05
-3.3749e-06
4.56242e-05
-3.33351e-06
4.65193e-05
-3.29007e-06
4.74015e-05
-3.2446e-06
4.82699e-05
-3.19705e-06
4.91242e-05
-3.14739e-06
4.99636e-05
-3.09557e-06
5.07875e-05
-3.04153e-06
5.15953e-05
-2.98518e-06
5.23862e-05
-2.92643e-06
5.31597e-05
-2.86518e-06
5.39149e-05
-2.8013e-06
5.46511e-05
-2.73465e-06
5.53675e-05
-2.66508e-06
5.60632e-05
-2.59242e-06
5.67373e-05
-2.51647e-06
5.73888e-05
-2.437e-06
5.80168e-05
-2.35377e-06
5.86201e-05
-2.2665e-06
5.91976e-05
-2.17487e-06
5.9748e-05
-2.07852e-06
6.027e-05
-1.97705e-06
6.07621e-05
-1.86997e-06
6.12228e-05
-1.75676e-06
6.16502e-05
-1.63679e-06
6.20426e-05
-1.50933e-06
6.23979e-05
-1.37353e-06
6.27139e-05
-1.22836e-06
6.2988e-05
-1.0726e-06
6.32175e-05
-9.04778e-07
6.33995e-05
-7.23076e-07
6.35304e-05
-5.25243e-07
6.36065e-05
-3.08457e-07
6.36238e-05
-6.91565e-08
6.35779e-05
1.97116e-07
6.34645e-05
4.96139e-07
6.32798e-05
8.35536e-07
6.30216e-05
1.22515e-06
6.2691e-05
1.67749e-06
6.22961e-05
2.20808e-06
6.18587e-05
2.83509e-06
6.14251e-05
3.57742e-06
6.10835e-05
4.4491e-06
6.09805e-05
5.44522e-06
6.50629e-06
6.12936e-05
1.5365e-05
-5.28729e-07
1.55874e-05
-1.00249e-06
1.59049e-05
-1.41998e-06
1.63085e-05
-1.79612e-06
1.67907e-05
-2.14061e-06
1.73456e-05
-2.45863e-06
1.79675e-05
-2.75274e-06
1.86511e-05
-3.02421e-06
1.93916e-05
-3.27358e-06
2.01836e-05
-3.501e-06
2.10223e-05
-3.70663e-06
2.19028e-05
-3.89073e-06
2.28201e-05
-4.05376e-06
2.37696e-05
-4.19641e-06
2.47468e-05
-4.31961e-06
2.57476e-05
-4.42444e-06
2.67679e-05
-4.51214e-06
2.78043e-05
-4.58401e-06
2.88533e-05
-4.6414e-06
2.9912e-05
-4.68567e-06
3.09777e-05
-4.71812e-06
3.20478e-05
-4.74e-06
3.31204e-05
-4.75246e-06
3.41935e-05
-4.75656e-06
3.52653e-05
-4.75325e-06
3.63344e-05
-4.74339e-06
3.73994e-05
-4.72772e-06
3.84591e-05
-4.70687e-06
3.95126e-05
-4.68139e-06
4.05587e-05
-4.65174e-06
4.15967e-05
-4.6183e-06
4.26257e-05
-4.58138e-06
4.36449e-05
-4.54123e-06
4.46537e-05
-4.49804e-06
4.56514e-05
-4.45196e-06
4.66373e-05
-4.40309e-06
4.76108e-05
-4.3515e-06
4.85712e-05
-4.29723e-06
4.9518e-05
-4.24029e-06
5.04504e-05
-4.18068e-06
5.13679e-05
-4.11836e-06
5.22698e-05
-4.05327e-06
5.31554e-05
-3.98536e-06
5.4024e-05
-3.91453e-06
5.4875e-05
-3.84069e-06
5.57076e-05
-3.76372e-06
5.65211e-05
-3.68348e-06
5.73146e-05
-3.59982e-06
5.80873e-05
-3.51256e-06
5.88384e-05
-3.42151e-06
5.9567e-05
-3.32645e-06
6.0272e-05
-3.22715e-06
6.09526e-05
-3.12332e-06
6.16076e-05
-3.01466e-06
6.22359e-05
-2.90083e-06
6.28363e-05
-2.78143e-06
6.34075e-05
-2.65605e-06
6.39483e-05
-2.52419e-06
6.44571e-05
-2.38528e-06
6.49325e-05
-2.2387e-06
6.53727e-05
-2.08372e-06
6.57762e-05
-1.91949e-06
6.61408e-05
-1.74504e-06
6.64648e-05
-1.55922e-06
6.6746e-05
-1.36069e-06
6.69821e-05
-1.14784e-06
6.71708e-05
-9.18753e-07
6.73097e-05
-6.71114e-07
6.73963e-05
-4.0211e-07
6.74285e-05
-1.08338e-07
6.74045e-05
2.14139e-07
6.73237e-05
5.70055e-07
6.71871e-05
9.65256e-07
6.69988e-05
1.40656e-06
6.67681e-05
1.90148e-06
6.65119e-05
2.45766e-06
6.62591e-05
3.0814e-06
6.60549e-05
3.77515e-06
6.59649e-05
4.53294e-06
6.60709e-05
5.33311e-06
6.12592e-06
6.64453e-05
1.64364e-05
-6.45326e-07
1.66694e-05
-1.23543e-06
1.70037e-05
-1.75426e-06
1.74301e-05
-2.22239e-06
1.79408e-05
-2.65115e-06
1.85291e-05
-3.04682e-06
1.91891e-05
-3.41264e-06
1.99152e-05
-3.75019e-06
2.07019e-05
-4.06013e-06
2.15437e-05
-4.34271e-06
2.24352e-05
-4.5981e-06
2.33712e-05
-4.82665e-06
2.43464e-05
-5.02894e-06
2.53558e-05
-5.20585e-06
2.63946e-05
-5.35853e-06
2.74583e-05
-5.48834e-06
2.85427e-05
-5.59682e-06
2.96439e-05
-5.68559e-06
3.07584e-05
-5.75636e-06
3.1883e-05
-5.8108e-06
3.30147e-05
-5.85053e-06
3.41511e-05
-5.87711e-06
3.52896e-05
-5.89197e-06
3.64284e-05
-5.89643e-06
3.75656e-05
-5.89168e-06
3.86997e-05
-5.87877e-06
3.9829e-05
-5.85861e-06
4.09525e-05
-5.83201e-06
4.20689e-05
-5.79965e-06
4.31772e-05
-5.76208e-06
4.42765e-05
-5.71978e-06
4.53658e-05
-5.67313e-06
4.64445e-05
-5.62244e-06
4.75116e-05
-5.56794e-06
4.85665e-05
-5.50982e-06
4.96085e-05
-5.4482e-06
5.06369e-05
-5.38317e-06
5.16509e-05
-5.31477e-06
5.26499e-05
-5.24302e-06
5.36332e-05
-5.1679e-06
5.46002e-05
-5.08938e-06
5.555e-05
-5.00738e-06
5.6482e-05
-4.92183e-06
5.73954e-05
-4.83263e-06
5.82896e-05
-4.73965e-06
5.91636e-05
-4.64274e-06
6.00166e-05
-4.54174e-06
6.08479e-05
-4.43648e-06
6.16566e-05
-4.32674e-06
6.24417e-05
-4.2123e-06
6.32022e-05
-4.09289e-06
6.39373e-05
-3.96823e-06
6.46458e-05
-3.83801e-06
6.53267e-05
-3.70186e-06
6.59788e-05
-3.55941e-06
6.6601e-05
-3.4102e-06
6.71919e-05
-3.25374e-06
6.77504e-05
-3.0895e-06
6.8275e-05
-2.91684e-06
6.87644e-05
-2.73509e-06
6.92169e-05
-2.54344e-06
6.96312e-05
-2.34101e-06
7.00057e-05
-2.12678e-06
7.03387e-05
-1.89957e-06
7.06286e-05
-1.65804e-06
7.08739e-05
-1.40063e-06
7.10732e-05
-1.12553e-06
7.12253e-05
-8.30647e-07
7.13292e-05
-5.13534e-07
7.13847e-05
-1.71409e-07
7.13928e-05
1.98643e-07
7.13557e-05
5.99699e-07
7.12783e-05
1.03525e-06
7.11688e-05
1.50872e-06
7.10401e-05
2.02298e-06
7.09112e-05
2.57945e-06
7.08087e-05
3.17689e-06
7.07673e-05
3.80959e-06
7.08285e-05
4.46502e-06
7.10338e-05
5.12119e-06
5.74421e-06
7.14091e-05
1.75827e-05
-7.65763e-07
1.78263e-05
-1.47898e-06
1.81777e-05
-2.10559e-06
1.86274e-05
-2.6719e-06
1.91671e-05
-3.19076e-06
1.97899e-05
-3.66948e-06
2.04893e-05
-4.11194e-06
2.12594e-05
-4.52009e-06
2.20941e-05
-4.8947e-06
2.29876e-05
-5.23609e-06
2.3934e-05
-5.5445e-06
2.49278e-05
-5.82034e-06
2.59632e-05
-6.06435e-06
2.70349e-05
-6.27761e-06
2.81378e-05
-6.46149e-06
2.92669e-05
-6.61769e-06
3.04179e-05
-6.74805e-06
3.15865e-05
-6.85457e-06
3.27689e-05
-6.93929e-06
3.39618e-05
-7.00425e-06
3.5162e-05
-7.05143e-06
3.63667e-05
-7.08269e-06
3.75735e-05
-7.09978e-06
3.87802e-05
-7.10429e-06
3.99849e-05
-7.09765e-06
4.11858e-05
-7.08114e-06
4.23815e-05
-7.05587e-06
4.35704e-05
-7.02279e-06
4.47515e-05
-6.98273e-06
4.59236e-05
-6.93635e-06
4.70857e-05
-6.88424e-06
4.82369e-05
-6.82684e-06
4.93763e-05
-6.76453e-06
5.0503e-05
-6.69759e-06
5.16162e-05
-6.62623e-06
5.27153e-05
-6.5506e-06
5.37994e-05
-6.47081e-06
5.48677e-05
-6.3869e-06
5.59197e-05
-6.2989e-06
5.69544e-05
-6.20679e-06
5.79712e-05
-6.11052e-06
5.89692e-05
-6.01e-06
5.99477e-05
-5.90516e-06
6.0906e-05
-5.79586e-06
6.18431e-05
-5.68195e-06
6.27583e-05
-5.56328e-06
6.36507e-05
-5.43966e-06
6.45193e-05
-5.31086e-06
6.53633e-05
-5.17667e-06
6.61817e-05
-5.03682e-06
6.69736e-05
-4.89102e-06
6.77378e-05
-4.73895e-06
6.84735e-05
-4.58026e-06
6.91794e-05
-4.41456e-06
6.98545e-05
-4.24143e-06
7.04976e-05
-4.06039e-06
7.11076e-05
-3.87092e-06
7.16832e-05
-3.67245e-06
7.22233e-05
-3.46433e-06
7.27265e-05
-3.24586e-06
7.31917e-05
-3.01626e-06
7.36175e-05
-2.77464e-06
7.4003e-05
-2.52004e-06
7.43469e-05
-2.25137e-06
7.46483e-05
-1.96741e-06
7.49065e-05
-1.66681e-06
7.5121e-05
-1.3481e-06
7.52919e-05
-1.00961e-06
7.54199e-05
-6.49572e-07
7.55066e-05
-2.66111e-07
7.55547e-05
1.42489e-07
7.55689e-05
5.7749e-07
7.55562e-05
1.04003e-06
7.55264e-05
1.53066e-06
7.54928e-05
2.04878e-06
7.54726e-05
2.59203e-06
7.54864e-05
3.15544e-06
7.55579e-05
3.73065e-06
7.57106e-05
4.30507e-06
7.59631e-05
4.86149e-06
5.37902e-06
7.63213e-05
1.88093e-05
-8.90368e-07
1.90637e-05
-1.73334e-06
1.94326e-05
-2.47435e-06
1.99059e-05
-3.14519e-06
2.04755e-05
-3.76022e-06
2.11339e-05
-4.32765e-06
2.1874e-05
-4.85198e-06
2.26896e-05
-5.33548e-06
2.35741e-05
-5.77908e-06
2.45213e-05
-6.18314e-06
2.55249e-05
-6.54797e-06
2.65787e-05
-6.87408e-06
2.76767e-05
-7.16235e-06
2.88131e-05
-7.41409e-06
2.99825e-05
-7.63096e-06
3.11796e-05
-7.81496e-06
3.23995e-05
-7.9683e-06
3.36379e-05
-8.09337e-06
3.48907e-05
-8.19259e-06
3.61542e-05
-8.26839e-06
3.74252e-05
-8.3231e-06
3.87005e-05
-8.35896e-06
3.99777e-05
-8.37803e-06
4.12544e-05
-8.38219e-06
4.25286e-05
-8.37316e-06
4.37983e-05
-8.35242e-06
4.5062e-05
-8.32129e-06
4.63182e-05
-8.28091e-06
4.75656e-05
-8.23224e-06
4.8803e-05
-8.17607e-06
5.00293e-05
-8.11309e-06
5.12436e-05
-8.04383e-06
5.24449e-05
-7.96871e-06
5.36322e-05
-7.88808e-06
5.48048e-05
-7.80217e-06
5.59618e-05
-7.71117e-06
5.71024e-05
-7.61518e-06
5.82257e-05
-7.51429e-06
5.93311e-05
-7.40849e-06
6.04176e-05
-7.29778e-06
6.14845e-05
-7.18209e-06
6.2531e-05
-7.06134e-06
6.35561e-05
-6.93542e-06
6.45591e-05
-6.80418e-06
6.55391e-05
-6.66747e-06
6.64952e-05
-6.52511e-06
6.74264e-05
-6.37687e-06
6.83319e-05
-6.22254e-06
6.92108e-05
-6.06185e-06
7.00619e-05
-5.89452e-06
7.08844e-05
-5.72023e-06
7.16772e-05
-5.53867e-06
7.24393e-05
-5.34944e-06
7.31696e-05
-5.15214e-06
7.38671e-05
-4.94635e-06
7.45307e-05
-4.73157e-06
7.51594e-05
-4.50729e-06
7.5752e-05
-4.27295e-06
7.63076e-05
-4.02791e-06
7.68252e-05
-3.77154e-06
7.73038e-05
-3.50309e-06
7.77427e-05
-3.22179e-06
7.81411e-05
-2.9268e-06
7.84985e-05
-2.61723e-06
7.88147e-05
-2.29213e-06
7.90898e-05
-1.95049e-06
7.93243e-05
-1.59129e-06
7.95196e-05
-1.21351e-06
7.96776e-05
-8.16187e-07
7.98013e-05
-3.9847e-07
7.98949e-05
4.03163e-08
7.99639e-05
4.99882e-07
8.00162e-05
9.79228e-07
8.00614e-05
1.47694e-06
8.01114e-05
1.99041e-06
8.01797e-05
2.51547e-06
8.02809e-05
3.04605e-06
8.04296e-05
3.574e-06
8.06377e-05
4.089e-06
8.09124e-05
4.57904e-06
5.03186e-06
8.1252e-05
2.01217e-05
-1.01954e-06
2.03873e-05
-1.99885e-06
2.07741e-05
-2.86104e-06
2.12719e-05
-3.64293e-06
2.18723e-05
-4.36043e-06
2.25673e-05
-5.02248e-06
2.33496e-05
-5.63415e-06
2.42123e-05
-6.19801e-06
2.51485e-05
-6.71511e-06
2.61514e-05
-7.18588e-06
2.72142e-05
-7.61068e-06
2.83304e-05
-7.99014e-06
2.94933e-05
-8.32531e-06
3.06969e-05
-8.61773e-06
3.19352e-05
-8.86937e-06
3.32027e-05
-9.08258e-06
3.4494e-05
-9.25998e-06
3.58046e-05
-9.40436e-06
3.71301e-05
-9.51857e-06
3.84665e-05
-9.60544e-06
3.98103e-05
-9.66771e-06
4.11584e-05
-9.708e-06
4.25079e-05
-9.72871e-06
4.38565e-05
-9.73205e-06
4.52019e-05
-9.71999e-06
4.65421e-05
-9.69429e-06
4.78755e-05
-9.65648e-06
4.92004e-05
-9.60787e-06
5.05155e-05
-9.54958e-06
5.18195e-05
-9.48255e-06
5.31113e-05
-9.40755e-06
5.43898e-05
-9.32519e-06
5.56539e-05
-9.23598e-06
5.69028e-05
-9.1403e-06
5.81355e-05
-9.03843e-06
5.93511e-05
-8.93058e-06
6.05487e-05
-8.81687e-06
6.17275e-05
-8.69739e-06
6.28866e-05
-8.57214e-06
6.40252e-05
-8.44111e-06
6.51423e-05
-8.30424e-06
6.62372e-05
-8.16142e-06
6.73088e-05
-8.01254e-06
6.83564e-05
-7.85745e-06
6.9379e-05
-7.69596e-06
7.03756e-05
-7.52787e-06
7.13453e-05
-7.35298e-06
7.22872e-05
-7.17102e-06
7.32003e-05
-6.98173e-06
7.40836e-05
-6.78481e-06
7.49361e-05
-6.57996e-06
7.57568e-05
-6.36682e-06
7.65448e-05
-6.14502e-06
7.72991e-05
-5.91417e-06
7.80186e-05
-5.67384e-06
7.87025e-05
-5.42357e-06
7.93498e-05
-5.16289e-06
7.99597e-05
-4.89128e-06
8.05315e-05
-4.6082e-06
8.10644e-05
-4.31309e-06
8.15578e-05
-4.00534e-06
8.20115e-05
-3.68435e-06
8.24252e-05
-3.3495e-06
8.2799e-05
-3.00018e-06
8.31335e-05
-2.63577e-06
8.34296e-05
-2.25573e-06
8.36886e-05
-1.85958e-06
8.39128e-05
-1.44696e-06
8.41051e-05
-1.01773e-06
8.42693e-05
-5.71978e-07
8.44105e-05
-1.10079e-07
8.45344e-05
3.6672e-07
8.46484e-05
8.56039e-07
8.4761e-05
1.35526e-06
8.48816e-05
1.86084e-06
8.50199e-05
2.36818e-06
8.51857e-05
2.87152e-06
8.53869e-05
3.36403e-06
8.56293e-05
3.83807e-06
8.59142e-05
4.2857e-06
4.69998e-06
8.62379e-05
2.15261e-05
-1.15371e-06
2.18033e-05
-2.27598e-06
2.22086e-05
-3.26631e-06
2.27318e-05
-4.16594e-06
2.33639e-05
-4.9924e-06
2.40968e-05
-5.75522e-06
2.49228e-05
-6.45993e-06
2.58343e-05
-7.10937e-06
2.68241e-05
-7.70469e-06
2.78847e-05
-8.24636e-06
2.9009e-05
-8.73481e-06
3.01897e-05
-9.17078e-06
3.142e-05
-9.55552e-06
3.26931e-05
-9.89084e-06
3.40026e-05
-1.0179e-05
3.53427e-05
-1.04229e-05
3.67077e-05
-1.06253e-05
3.80927e-05
-1.07897e-05
3.94929e-05
-1.09193e-05
4.09042e-05
-1.10174e-05
4.23229e-05
-1.10872e-05
4.37455e-05
-1.11316e-05
4.51692e-05
-1.11536e-05
4.65912e-05
-1.11555e-05
4.80094e-05
-1.11397e-05
4.94215e-05
-1.11082e-05
5.08258e-05
-1.10627e-05
5.22207e-05
-1.10049e-05
5.36046e-05
-1.09359e-05
5.49762e-05
-1.08568e-05
5.63343e-05
-1.07685e-05
5.76777e-05
-1.06717e-05
5.90055e-05
-1.0567e-05
6.03164e-05
-1.04548e-05
6.16097e-05
-1.03355e-05
6.28842e-05
-1.02092e-05
6.41392e-05
-1.00762e-05
6.53736e-05
-9.93639e-06
6.65866e-05
-9.78994e-06
6.77772e-05
-9.63678e-06
6.89444e-05
-9.47686e-06
7.00875e-05
-9.31006e-06
7.12053e-05
-9.13625e-06
7.22971e-05
-8.95528e-06
7.33617e-05
-8.76696e-06
7.43984e-05
-8.57109e-06
7.5406e-05
-8.36743e-06
7.63837e-05
-8.15573e-06
7.73304e-05
-7.93573e-06
7.82452e-05
-7.70713e-06
7.91271e-05
-7.46963e-06
7.99753e-05
-7.2229e-06
8.07887e-05
-6.96659e-06
8.15666e-05
-6.70034e-06
8.2308e-05
-6.42376e-06
8.30122e-05
-6.13647e-06
8.36785e-05
-5.83805e-06
8.43063e-05
-5.52809e-06
8.48951e-05
-5.20617e-06
8.54445e-05
-4.87187e-06
8.59545e-05
-4.52479e-06
8.64252e-05
-4.16454e-06
8.68568e-05
-3.7908e-06
8.72502e-05
-3.40326e-06
8.76064e-05
-3.00175e-06
8.79269e-05
-2.58617e-06
8.82141e-05
-2.15661e-06
8.84705e-05
-1.71335e-06
8.86998e-05
-1.25694e-06
8.89061e-05
-7.88249e-07
8.90946e-05
-3.08529e-07
8.92708e-05
1.80603e-07
8.94408e-05
6.76134e-07
8.96116e-05
1.17475e-06
8.979e-05
1.67273e-06
8.99828e-05
2.16577e-06
9.01957e-05
2.64902e-06
9.04332e-05
3.11723e-06
9.0697e-05
3.565e-06
9.09863e-05
3.98726e-06
4.38023e-06
9.12971e-05
2.30287e-05
-1.29335e-06
2.33181e-05
-2.56529e-06
2.37428e-05
-3.69092e-06
2.42922e-05
-4.71519e-06
2.49573e-05
-5.65729e-06
2.57295e-05
-6.52722e-06
2.66007e-05
-7.33089e-06
2.75628e-05
-8.0713e-06
2.8608e-05
-8.7497e-06
2.97285e-05
-9.3666e-06
3.09163e-05
-9.92246e-06
3.21638e-05
-1.04182e-05
3.34635e-05
-1.08552e-05
3.48082e-05
-1.12356e-05
3.61912e-05
-1.15621e-05
3.7606e-05
-1.18379e-05
3.90468e-05
-1.20664e-05
4.0508e-05
-1.22514e-05
4.19848e-05
-1.23967e-05
4.34727e-05
-1.2506e-05
4.49677e-05
-1.25831e-05
4.64664e-05
-1.26313e-05
4.79655e-05
-1.26539e-05
4.94623e-05
-1.26537e-05
5.09543e-05
-1.26333e-05
5.24394e-05
-1.25951e-05
5.39155e-05
-1.2541e-05
5.5381e-05
-1.24727e-05
5.68344e-05
-1.23917e-05
5.82742e-05
-1.22993e-05
5.9699e-05
-1.21964e-05
6.11078e-05
-1.20838e-05
6.24994e-05
-1.19621e-05
6.38726e-05
-1.18319e-05
6.52265e-05
-1.16935e-05
6.656e-05
-1.15471e-05
6.78721e-05
-1.13929e-05
6.9162e-05
-1.12311e-05
7.04285e-05
-1.10616e-05
7.16707e-05
-1.08844e-05
7.28876e-05
-1.06995e-05
7.40783e-05
-1.05067e-05
7.52418e-05
-1.0306e-05
7.63771e-05
-1.00971e-05
7.74831e-05
-9.87983e-06
7.85591e-05
-9.65405e-06
7.96038e-05
-9.41951e-06
8.06165e-05
-9.17596e-06
8.15962e-05
-8.92316e-06
8.25418e-05
-8.66083e-06
8.34526e-05
-8.38869e-06
8.43277e-05
-8.10646e-06
8.51662e-05
-7.81383e-06
8.59675e-05
-7.51051e-06
8.67307e-05
-7.19619e-06
8.74555e-05
-6.87056e-06
8.81413e-05
-6.53335e-06
8.87878e-05
-6.18425e-06
8.93949e-05
-5.82304e-06
8.99625e-05
-5.44947e-06
9.0491e-05
-5.06339e-06
9.09809e-05
-4.66468e-06
9.1433e-05
-4.25331e-06
9.18487e-05
-3.82936e-06
9.22295e-05
-3.39304e-06
9.25774e-05
-2.94473e-06
9.28952e-05
-2.48501e-06
9.31859e-05
-2.01469e-06
9.34531e-05
-1.53489e-06
9.37012e-05
-1.04705e-06
9.39349e-05
-5.52922e-07
9.41591e-05
-5.4184e-08
9.43783e-05
4.46284e-07
9.4598e-05
9.44565e-07
9.4823e-05
1.43727e-06
9.50576e-05
1.92075e-06
9.53052e-05
2.39117e-06
9.55677e-05
2.84464e-06
9.58452e-05
3.27748e-06
9.61361e-05
3.6865e-06
4.06981e-06
9.64368e-05
2.46366e-05
-1.43895e-06
2.49388e-05
-2.86747e-06
2.53837e-05
-4.13575e-06
2.59605e-05
-5.29176e-06
2.66597e-05
-6.35636e-06
2.74727e-05
-7.33994e-06
2.83906e-05
-8.24863e-06
2.94052e-05
-9.08557e-06
3.05077e-05
-9.85205e-06
3.16899e-05
-1.05486e-05
3.29433e-05
-1.11756e-05
3.42596e-05
-1.17343e-05
3.56308e-05
-1.22263e-05
3.70491e-05
-1.2654e-05
3.85073e-05
-1.30204e-05
3.99986e-05
-1.33293e-05
4.15167e-05
-1.35847e-05
4.30557e-05
-1.37908e-05
4.46104e-05
-1.3952e-05
4.61761e-05
-1.40725e-05
4.77487e-05
-1.41566e-05
4.93243e-05
-1.4208e-05
5.08997e-05
-1.42305e-05
5.24718e-05
-1.42273e-05
5.40383e-05
-1.42014e-05
5.55966e-05
-1.41554e-05
5.71449e-05
-1.40914e-05
5.86813e-05
-1.40115e-05
6.02042e-05
-1.39173e-05
6.17121e-05
-1.38101e-05
6.32037e-05
-1.36911e-05
6.46776e-05
-1.35612e-05
6.61326e-05
-1.3421e-05
6.75678e-05
-1.3271e-05
6.89818e-05
-1.31118e-05
7.03737e-05
-1.29436e-05
7.17425e-05
-1.27666e-05
7.3087e-05
-1.25808e-05
7.44063e-05
-1.23864e-05
7.56993e-05
-1.21833e-05
7.69651e-05
-1.19714e-05
7.82025e-05
-1.17506e-05
7.94107e-05
-1.15208e-05
8.05885e-05
-1.12819e-05
8.17351e-05
-1.10336e-05
8.28493e-05
-1.07758e-05
8.39303e-05
-1.05083e-05
8.49771e-05
-1.02309e-05
8.59888e-05
-9.94323e-06
8.69646e-05
-9.64521e-06
8.79036e-05
-9.33656e-06
8.88051e-05
-9.01706e-06
8.96685e-05
-8.6865e-06
9.0493e-05
-8.34464e-06
9.12784e-05
-7.99131e-06
9.20242e-05
-7.62633e-06
9.27302e-05
-7.24954e-06
9.33964e-05
-6.86085e-06
9.4023e-05
-6.46021e-06
9.46105e-05
-6.04761e-06
9.51594e-05
-5.62313e-06
9.56707e-05
-5.18697e-06
9.61457e-05
-4.73941e-06
9.6586e-05
-4.28087e-06
9.69937e-05
-3.81194e-06
9.7371e-05
-3.33339e-06
9.77207e-05
-2.8462e-06
9.80462e-05
-2.35157e-06
9.83508e-05
-1.85098e-06
9.86384e-05
-1.34617e-06
9.89131e-05
-8.39128e-07
9.91795e-05
-3.32034e-07
9.94413e-05
1.73097e-07
9.97017e-05
6.72809e-07
9.99641e-05
1.16365e-06
0.000100231
1.64263e-06
0.000100504
2.10682e-06
0.000100785
2.55345e-06
0.000101071
2.98002e-06
0.000101363
3.38455e-06
3.76625e-06
0.000101656
2.63568e-05
-1.591e-06
2.66727e-05
-3.18325e-06
2.71388e-05
-4.60175e-06
2.77441e-05
-5.89681e-06
2.84789e-05
-7.09095e-06
2.93341e-05
-8.19486e-06
3.03005e-05
-9.21478e-06
3.13691e-05
-1.01539e-05
3.25308e-05
-1.10135e-05
3.37766e-05
-1.17941e-05
3.50973e-05
-1.24962e-05
3.64841e-05
-1.3121e-05
3.79284e-05
-1.36705e-05
3.94219e-05
-1.41474e-05
4.09569e-05
-1.45554e-05
4.25259e-05
-1.48985e-05
4.41223e-05
-1.51814e-05
4.574e-05
-1.54089e-05
4.73734e-05
-1.5586e-05
4.90176e-05
-1.57174e-05
5.0668e-05
-1.58079e-05
5.23208e-05
-1.5862e-05
5.39725e-05
-1.58836e-05
5.56201e-05
-1.58764e-05
5.72607e-05
-1.58439e-05
5.88921e-05
-1.57888e-05
6.05121e-05
-1.57137e-05
6.21188e-05
-1.56208e-05
6.37106e-05
-1.55119e-05
6.52859e-05
-1.53885e-05
6.68433e-05
-1.52519e-05
6.83814e-05
-1.5103e-05
6.98991e-05
-1.49426e-05
7.1395e-05
-1.47713e-05
7.28681e-05
-1.45896e-05
7.43173e-05
-1.43977e-05
7.57414e-05
-1.41959e-05
7.71394e-05
-1.39844e-05
7.85102e-05
-1.37631e-05
7.98528e-05
-1.3532e-05
8.1166e-05
-1.32911e-05
8.24488e-05
-1.30403e-05
8.37003e-05
-1.27794e-05
8.49194e-05
-1.25084e-05
8.61051e-05
-1.22271e-05
8.72564e-05
-1.19352e-05
8.83725e-05
-1.16327e-05
8.94524e-05
-1.13194e-05
9.04952e-05
-1.0995e-05
9.15003e-05
-1.06595e-05
9.24669e-05
-1.03126e-05
9.33944e-05
-9.9543e-06
9.42823e-05
-9.58438e-06
9.51302e-05
-9.20279e-06
9.59379e-05
-8.80945e-06
9.67052e-05
-8.40435e-06
9.74322e-05
-7.98752e-06
9.81193e-05
-7.55905e-06
9.87669e-05
-7.1191e-06
9.93758e-05
-6.66793e-06
9.99469e-05
-6.20587e-06
0.000100482
-5.73338e-06
0.000100981
-5.25106e-06
0.000101448
-4.75963e-06
0.000101884
-4.26e-06
0.000102292
-3.75324e-06
0.000102674
-3.24061e-06
0.000103034
-2.72358e-06
0.000103374
-2.20381e-06
0.000103699
-1.68319e-06
0.000104011
-1.16376e-06
0.000104314
-6.47673e-07
0.000104612
-1.36663e-07
0.000104906
3.6686e-07
0.000105198
8.59465e-07
0.00010549
1.33873e-06
0.000105782
1.80241e-06
0.000106075
2.24852e-06
0.000106368
2.67538e-06
0.000106659
3.08177e-06
3.46755e-06
0.000106947
2.81974e-05
-1.75001e-06
2.85277e-05
-3.51348e-06
2.90161e-05
-5.08995e-06
2.96511e-05
-6.53159e-06
3.04228e-05
-7.86245e-06
3.13217e-05
-9.09349e-06
3.23382e-05
-1.02309e-05
3.34625e-05
-1.12779e-05
3.4685e-05
-1.22357e-05
3.59959e-05
-1.31047e-05
3.73855e-05
-1.38855e-05
3.88442e-05
-1.45795e-05
4.03628e-05
-1.51889e-05
4.19325e-05
-1.5717e-05
4.35449e-05
-1.61678e-05
4.51923e-05
-1.6546e-05
4.68675e-05
-1.68569e-05
4.8564e-05
-1.71059e-05
5.02761e-05
-1.72986e-05
5.19984e-05
-1.74405e-05
5.37263e-05
-1.75368e-05
5.54556e-05
-1.75925e-05
5.71829e-05
-1.76121e-05
5.89047e-05
-1.75999e-05
6.06185e-05
-1.75595e-05
6.23216e-05
-1.7494e-05
6.4012e-05
-1.74065e-05
6.56876e-05
-1.72991e-05
6.73468e-05
-1.7174e-05
6.89878e-05
-1.70329e-05
7.06094e-05
-1.6877e-05
7.221e-05
-1.67075e-05
7.37884e-05
-1.65252e-05
7.53433e-05
-1.63308e-05
7.68737e-05
-1.61248e-05
7.83782e-05
-1.59075e-05
7.98558e-05
-1.56791e-05
8.13053e-05
-1.54398e-05
8.27257e-05
-1.51897e-05
8.41159e-05
-1.49287e-05
8.54747e-05
-1.46568e-05
8.68011e-05
-1.4374e-05
8.80942e-05
-1.40801e-05
8.93528e-05
-1.3775e-05
9.0576e-05
-1.34585e-05
9.17629e-05
-1.31307e-05
9.29126e-05
-1.27913e-05
9.40243e-05
-1.24403e-05
9.50972e-05
-1.20775e-05
9.61307e-05
-1.17028e-05
9.71241e-05
-1.13162e-05
9.80772e-05
-1.09177e-05
9.89894e-05
-1.05073e-05
9.98607e-05
-1.0085e-05
0.000100691
-9.65096e-06
0.000101481
-9.20527e-06
0.000102229
-8.74817e-06
0.000102939
-8.27998e-06
0.000103608
-7.80107e-06
0.00010424
-7.31194e-06
0.000104835
-6.81316e-06
0.000105394
-6.30547e-06
0.00010592
-5.78969e-06
0.000106415
-5.26683e-06
0.00010688
-4.738e-06
0.000107318
-4.2045e-06
0.000107732
-3.66777e-06
0.000108125
-3.1294e-06
0.000108499
-2.59111e-06
0.000108857
-2.05479e-06
0.000109202
-1.52238e-06
0.000109538
-9.95919e-07
0.000109865
-4.77314e-07
0.000110186
3.2291e-08
0.000110502
5.30434e-07
0.000110814
1.01428e-06
0.000111121
1.4822e-06
0.000111424
1.93279e-06
0.000111722
2.36492e-06
0.000112014
2.77785e-06
3.1718e-06
0.000112297
3.01667e-05
-1.91647e-06
3.05123e-05
-3.859e-06
3.10239e-05
-5.60143e-06
3.16899e-05
-7.19737e-06
3.25e-05
-8.67224e-06
3.34441e-05
-1.00373e-05
3.4512e-05
-1.12985e-05
3.56935e-05
-1.2459e-05
3.69781e-05
-1.35199e-05
3.83553e-05
-1.44815e-05
3.98148e-05
-1.53446e-05
4.13462e-05
-1.61106e-05
4.29396e-05
-1.67822e-05
4.45858e-05
-1.7363e-05
4.62756e-05
-1.78577e-05
4.80011e-05
-1.82716e-05
4.97545e-05
-1.86106e-05
5.15291e-05
-1.88809e-05
5.33187e-05
-1.90887e-05
5.51178e-05
-1.92403e-05
5.69216e-05
-1.93415e-05
5.87258e-05
-1.93978e-05
6.05266e-05
-1.94143e-05
6.23207e-05
-1.93957e-05
6.41053e-05
-1.9346e-05
6.58779e-05
-1.92688e-05
6.76361e-05
-1.91672e-05
6.93781e-05
-1.90439e-05
7.11019e-05
-1.8901e-05
7.28061e-05
-1.87405e-05
7.44891e-05
-1.85637e-05
7.61494e-05
-1.83719e-05
7.77858e-05
-1.8166e-05
7.9397e-05
-1.79468e-05
8.09818e-05
-1.77147e-05
8.2539e-05
-1.74701e-05
8.40673e-05
-1.72133e-05
8.55658e-05
-1.69445e-05
8.70332e-05
-1.66637e-05
8.84684e-05
-1.63709e-05
8.98703e-05
-1.60661e-05
9.1238e-05
-1.57493e-05
9.25703e-05
-1.54205e-05
9.38663e-05
-1.50794e-05
9.51251e-05
-1.47261e-05
9.63457e-05
-1.43605e-05
9.75274e-05
-1.39825e-05
9.86694e-05
-1.35921e-05
9.97711e-05
-1.31894e-05
0.000100832
-1.27742e-05
0.000101852
-1.23467e-05
0.00010283
-1.1907e-05
0.000103766
-1.14552e-05
0.000104661
-1.09915e-05