/*--------------------------------*- C++ -*----------------------------------*\
  =========                 |
  \\      /  F ield         | OpenFOAM: The Open Source CFD Toolbox
   \\    /   O peration     | Website:  https://openfoam.org
    \\  /    A nd           | Version:  7
     \\/     M anipulation  |
\*---------------------------------------------------------------------------*/
FoamFile
{
    version     2.0;
    format      ascii;
    class       volScalarField;
    location    "5.99";
    object      T;
}
// * * * * * * * * * * * * * * * * * * * * * * * * * * * * * * * * * * * * * //

dimensions      [0 0 0 1 0 0 0];

internalField   nonuniform List<scalar> 
12013
(
300.097
300.294
300.496
300.702
300.909
301.116
301.323
301.528
301.73
301.929
302.123
302.313
302.498
302.678
302.853
303.021
303.185
303.342
303.495
303.642
303.784
303.921
304.054
304.183
304.307
304.429
304.546
304.662
304.774
304.885
304.995
305.103
305.212
305.32
305.43
305.542
305.657
305.775
305.898
306.027
306.163
306.307
306.462
306.628
306.808
307.004
307.217
307.45
307.707
307.989
308.299
308.642
309.021
309.439
309.901
310.412
310.976
311.6
312.288
313.048
313.886
314.81
315.827
316.948
318.181
319.537
321.029
322.67
324.475
326.46
328.646
331.055
333.714
336.656
339.92
343.559
347.64
352.259
357.562
363.789
371.403
300.097
300.295
300.497
300.702
300.909
301.117
301.324
301.529
301.731
301.93
302.124
302.315
302.5
302.68
302.854
303.023
303.186
303.344
303.497
303.644
303.786
303.923
304.056
304.185
304.309
304.431
304.549
304.664
304.776
304.887
304.997
305.105
305.214
305.322
305.432
305.544
305.658
305.777
305.899
306.028
306.164
306.309
306.463
306.629
306.809
307.005
307.218
307.451
307.707
307.989
308.299
308.641
309.02
309.437
309.899
310.409
310.973
311.595
312.283
313.041
313.878
314.799
315.815
316.933
318.162
319.515
321.002
322.638
324.435
326.412
328.586
330.981
333.621
336.537
339.767
343.355
347.362
351.861
356.953
362.76
369.392
300.097
300.295
300.497
300.703
300.91
301.118
301.325
301.53
301.733
301.932
302.127
302.317
302.503
302.683
302.857
303.026
303.19
303.348
303.5
303.648
303.79
303.928
304.061
304.189
304.314
304.435
304.553
304.668
304.781
304.892
305.001
305.11
305.218
305.327
305.437
305.548
305.663
305.781
305.903
306.032
306.168
306.312
306.466
306.632
306.812
307.007
307.22
307.452
307.708
307.989
308.299
308.64
309.017
309.434
309.894
310.403
310.965
311.585
312.27
313.026
313.859
314.777
315.787
316.899
318.122
319.467
320.944
322.566
324.348
326.306
328.456
330.819
333.418
336.281
339.437
342.924
346.783
351.061
355.804
361.038
366.724
300.097
300.295
300.498
300.704
300.912
301.12
301.328
301.533
301.736
301.936
302.131
302.322
302.507
302.688
302.863
303.032
303.196
303.354
303.507
303.655
303.797
303.935
304.068
304.197
304.321
304.443
304.561
304.676
304.789
304.9
305.009
305.117
305.226
305.334
305.444
305.555
305.67
305.788
305.91
306.038
306.174
306.318
306.472
306.637
306.816
307.011
307.223
307.455
307.709
307.989
308.298
308.638
309.014
309.429
309.887
310.393
310.952
311.569
312.25
313.001
313.828
314.739
315.742
316.845
318.056
319.387
320.847
322.45
324.207
326.133
328.244
330.557
333.093
335.872
338.919
342.257
345.911
349.902
354.238
358.898
363.81
300.098
300.296
300.5
300.706
300.915
301.123
301.331
301.538
301.741
301.941
302.137
302.328
302.514
302.695
302.871
303.041
303.205
303.363
303.517
303.664
303.807
303.945
304.078
304.207
304.332
304.454
304.572
304.687
304.8
304.911
305.02
305.129
305.237
305.345
305.455
305.566
305.68
305.798
305.92
306.048
306.183
306.326
306.48
306.644
306.823
307.016
307.227
307.458
307.712
307.99
308.297
308.635
309.008
309.421
309.876
310.378
310.933
311.545
312.22
312.964
313.783
314.685
315.676
316.765
317.96
319.271
320.708
322.281
324.002
325.885
327.941
330.187
332.636
335.306
338.21
341.363
344.776
348.449
352.371
356.507
360.79
300.098
300.297
300.501
300.709
300.918
301.128
301.337
301.544
301.748
301.949
302.145
302.337
302.524
302.706
302.882
303.052
303.217
303.376
303.53
303.678
303.821
303.96
304.093
304.222
304.348
304.469
304.587
304.703
304.816
304.926
305.036
305.144
305.252
305.36
305.47
305.581
305.694
305.812
305.933
306.061
306.195
306.338
306.491
306.655
306.832
307.024
307.234
307.463
307.715
307.991
308.296
308.631
309.001
309.41
309.86
310.358
310.907
311.512
312.179
312.914
313.722
314.611
315.586
316.657
317.83
319.115
320.52
322.055
323.73
325.555
327.542
329.702
332.045
334.581
337.319
340.264
343.416
346.766
350.293
353.964
357.725
300.099
300.299
300.504
300.712
300.923
301.133
301.343
301.551
301.757
301.959
302.156
302.349
302.537
302.72
302.897
303.068
303.233
303.393
303.548
303.696
303.84
303.979
304.113
304.242
304.368
304.49
304.608
304.723
304.836
304.947
305.056
305.165
305.273
305.381
305.49
305.6
305.714
305.83
305.951
306.078
306.212
306.354
306.505
306.668
306.844
307.035
307.243
307.47
307.719
307.993
308.294
308.626
308.992
309.396
309.841
310.332
310.873
311.47
312.126
312.849
313.643
314.515
315.47
316.517
317.663
318.914
320.279
321.767
323.384
325.14
327.044
329.102
331.321
333.707
336.263
338.987
341.873
344.908
348.072
351.332
354.65
300.099
300.301
300.507
300.717
300.929
301.141
301.352
301.562
301.768
301.972
302.171
302.365
302.554
302.738
302.916
303.088
303.255
303.415
303.57
303.72
303.864
304.004
304.138
304.268
304.394
304.516
304.635
304.75
304.863
304.974
305.083
305.191
305.299
305.407
305.516
305.626
305.738
305.854
305.975
306.101
306.234
306.374
306.524
306.686
306.86
307.049
307.254
307.479
307.725
307.996
308.293
308.62
308.981
309.378
309.816
310.299
310.831
311.416
312.06
312.767
313.544
314.394
315.326
316.344
317.455
318.666
319.983
321.414
322.963
324.639
326.446
328.39
330.473
332.697
335.062
337.561
340.187
342.926
345.756
348.654
351.589
300.1
300.303
300.511
300.723
300.936
301.15
301.363
301.574
301.783
301.988
302.189
302.385
302.575
302.761
302.94
303.114
303.281
303.443
303.599
303.75
303.895
304.035
304.17
304.301
304.427
304.55
304.668
304.784
304.897
305.008
305.117
305.225
305.333
305.44
305.548
305.658
305.77
305.885
306.005
306.13
306.261
306.4
306.549
306.708
306.88
307.067
307.27
307.491
307.734
308
308.292
308.614
308.968
309.358
309.787
310.26
310.78
311.352
311.979
312.668
313.423
314.249
315.15
316.134
317.205
318.368
319.63
320.995
322.468
324.054
325.755
327.575
329.513
331.57
333.741
336.02
338.397
340.858
343.387
345.963
348.564
300.101
300.306
300.516
300.73
300.945
301.161
301.377
301.59
301.801
302.008
302.211
302.409
302.602
302.789
302.97
303.145
303.315
303.478
303.635
303.787
303.933
304.074
304.21
304.342
304.469
304.591
304.711
304.827
304.94
305.051
305.16
305.268
305.375
305.482
305.589
305.698
305.81
305.924
306.042
306.166
306.296
306.433
306.58
306.737
306.906
307.09
307.289
307.507
307.745
308.006
308.292
308.607
308.953
309.334
309.753
310.213
310.719
311.275
311.884
312.551
313.28
314.076
314.944
315.888
316.912
318.022
319.221
320.513
321.902
323.39
324.978
326.668
328.458
330.346
332.326
334.392
336.534
338.74
340.996
343.286
345.592
300.102
300.31
300.522
300.739
300.957
301.176
301.394
301.61
301.824
302.034
302.239
302.44
302.635
302.824
303.007
303.185
303.356
303.521
303.68
303.833
303.981
304.123
304.26
304.392
304.52
304.643
304.763
304.879
304.993
305.104
305.213
305.32
305.427
305.533
305.64
305.748
305.859
305.972
306.089
306.211
306.339
306.474
306.619
306.773
306.939
307.119
307.314
307.527
307.76
308.015
308.294
308.601
308.938
309.308
309.714
310.161
310.65
311.187
311.774
312.416
313.116
313.878
314.707
315.606
316.579
317.629
318.759
319.973
321.271
322.656
324.128
325.685
327.326
329.047
330.843
332.707
334.63
336.602
338.612
340.646
342.691
300.104
300.314
300.53
300.749
300.971
301.193
301.415
301.634
301.851
302.064
302.273
302.476
302.674
302.867
303.053
303.232
303.406
303.573
303.734
303.889
304.038
304.182
304.32
304.453
304.582
304.706
304.826
304.943
305.057
305.168
305.277
305.384
305.49
305.596
305.703
305.81
305.919
306.031
306.146
306.266
306.392
306.525
306.667
306.818
306.98
307.156
307.346
307.554
307.78
308.028
308.299
308.596
308.922
309.28
309.672
310.102
310.573
311.088
311.65
312.263
312.931
313.656
314.442
315.291
316.208
317.194
318.251
319.381
320.586
321.865
323.217
324.642
326.136
327.696
329.317
330.991
332.712
334.471
336.258
338.064
339.877
300.105
300.319
300.539
300.762
300.988
301.214
301.44
301.663
301.884
302.101
302.314
302.521
302.723
302.918
303.107
303.29
303.466
303.636
303.799
303.957
304.108
304.253
304.393
304.528
304.657
304.783
304.904
305.021
305.135
305.246
305.355
305.462
305.568
305.673
305.778
305.885
305.992
306.103
306.216
306.334
306.458
306.588
306.726
306.873
307.032
307.202
307.387
307.588
307.808
308.047
308.309
308.595
308.909
309.252
309.629
310.04
310.49
310.981
311.515
312.097
312.729
313.413
314.152
314.948
315.805
316.723
317.704
318.749
319.857
321.029
322.264
323.559
324.912
326.318
327.773
329.271
330.807
332.371
333.958
335.559
337.165
300.107
300.326
300.55
300.778
301.008
301.239
301.47
301.698
301.924
302.146
302.363
302.574
302.78
302.98
303.173
303.359
303.539
303.712
303.878
304.038
304.192
304.339
304.481
304.617
304.748
304.875
304.997
305.115
305.229
305.34
305.449
305.556
305.661
305.766
305.87
305.975
306.081
306.19
306.301
306.417
306.537
306.664
306.799
306.942
307.095
307.261
307.439
307.633
307.844
308.074
308.325
308.6
308.9
309.228
309.586
309.977
310.403
310.868
311.372
311.92
312.513
313.153
313.843
314.584
315.378
316.226
317.129
318.087
319.1
320.167
321.286
322.456
323.673
324.935
326.236
327.571
328.937
330.326
331.732
333.149
334.571
300.11
300.334
300.563
300.796
301.032
301.269
301.505
301.74
301.971
302.199
302.421
302.638
302.849
303.054
303.251
303.442
303.626
303.803
303.972
304.135
304.292
304.442
304.586
304.724
304.857
304.985
305.108
305.227
305.342
305.453
305.562
305.669
305.774
305.877
305.98
306.084
306.189
306.295
306.404
306.517
306.634
306.758
306.888
307.026
307.174
307.333
307.505
307.691
307.893
308.113
308.352
308.613
308.898
309.209
309.548
309.916
310.318
310.754
311.226
311.738
312.29
312.884
313.523
314.207
314.937
315.714
316.539
317.411
318.33
319.294
320.303
321.353
322.443
323.569
324.728
325.914
327.125
328.355
329.599
330.852
332.109
300.113
300.343
300.579
300.819
301.061
301.305
301.548
301.789
302.028
302.262
302.491
302.714
302.931
303.141
303.345
303.541
303.729
303.91
304.084
304.251
304.411
304.564
304.711
304.852
304.987
305.116
305.241
305.36
305.476
305.588
305.697
305.803
305.908
306.01
306.113
306.215
306.317
306.421
306.528
306.638
306.751
306.871
306.996
307.129
307.272
307.424
307.588
307.765
307.957
308.166
308.392
308.639
308.908
309.2
309.518
309.863
310.238
310.644
311.083
311.557
312.067
312.614
313.2
313.826
314.493
315.2
315.948
316.736
317.564
318.43
319.333
320.271
321.242
322.243
323.271
324.321
325.392
326.478
327.577
328.683
329.792
300.117
300.354
300.597
300.845
301.096
301.347
301.599
301.848
302.094
302.336
302.573
302.804
303.028
303.245
303.455
303.657
303.852
304.038
304.217
304.389
304.553
304.71
304.86
305.003
305.14
305.272
305.398
305.519
305.636
305.748
305.857
305.963
306.067
306.169
306.27
306.37
306.471
306.572
306.676
306.782
306.892
307.007
307.128
307.255
307.391
307.536
307.692
307.86
308.041
308.237
308.451
308.682
308.933
309.206
309.502
309.823
310.17
310.545
310.95
311.385
311.853
312.353
312.887
313.455
314.059
314.697
315.37
316.078
316.819
317.592
318.397
319.231
320.092
320.977
321.885
322.813
323.757
324.714
325.682
326.656
327.634
300.121
300.366
300.619
300.876
301.136
301.397
301.658
301.917
302.173
302.424
302.67
302.91
303.143
303.368
303.585
303.795
303.996
304.189
304.374
304.551
304.72
304.881
305.035
305.182
305.322
305.456
305.584
305.706
305.824
305.937
306.047
306.153
306.256
306.357
306.456
306.555
306.653
306.752
306.853
306.955
307.061
307.171
307.287
307.408
307.537
307.674
307.821
307.979
308.149
308.333
308.532
308.747
308.981
309.233
309.507
309.803
310.122
310.466
310.835
311.232
311.657
312.11
312.593
313.106
313.648
314.22
314.822
315.454
316.113
316.8
317.513
318.25
319.01
319.791
320.59
321.406
322.236
323.078
323.928
324.785
325.646
300.126
300.382
300.644
300.912
301.183
301.456
301.728
301.998
302.265
302.528
302.784
303.034
303.277
303.512
303.738
303.956
304.166
304.366
304.558
304.741
304.916
305.082
305.241
305.391
305.535
305.672
305.802
305.927
306.046
306.16
306.269
306.375
306.478
306.578
306.676
306.773
306.869
306.965
307.062
307.161
307.263
307.368
307.477
307.592
307.714
307.843
307.98
308.128
308.287
308.457
308.642
308.841
309.056
309.288
309.539
309.809
310.1
310.413
310.749
311.108
311.491
311.899
312.332
312.791
313.275
313.785
314.32
314.88
315.463
316.07
316.698
317.347
318.015
318.701
319.403
320.118
320.846
321.584
322.33
323.081
323.837
300.132
300.399
300.675
300.955
301.239
301.525
301.81
302.094
302.374
302.649
302.918
303.18
303.435
303.681
303.918
304.146
304.365
304.574
304.774
304.964
305.145
305.318
305.481
305.637
305.784
305.924
306.058
306.184
306.305
306.42
306.53
306.636
306.738
306.837
306.934
307.029
307.122
307.216
307.309
307.404
307.501
307.601
307.705
307.813
307.927
308.048
308.176
308.313
308.459
308.617
308.787
308.969
309.166
309.378
309.606
309.851
310.115
310.397
310.699
311.021
311.365
311.729
312.115
312.523
312.953
313.405
313.877
314.371
314.885
315.418
315.969
316.538
317.124
317.724
318.338
318.963
319.6
320.245
320.897
321.555
322.217
300.139
300.42
300.71
301.005
301.305
301.606
301.907
302.206
302.501
302.791
303.075
303.351
303.619
303.878
304.128
304.368
304.597
304.816
305.025
305.224
305.413
305.592
305.762
305.923
306.075
306.219
306.355
306.484
306.606
306.723
306.834
306.94
307.041
307.139
307.235
307.327
307.419
307.509
307.599
307.69
307.782
307.877
307.974
308.076
308.182
308.294
308.413
308.539
308.674
308.818
308.973
309.139
309.318
309.51
309.716
309.937
310.174
310.427
310.697
310.984
311.29
311.614
311.956
312.316
312.696
313.093
313.509
313.942
314.392
314.859
315.341
315.838
316.349
316.872
317.407
317.953
318.508
319.071
319.64
320.215
320.794
300.147
300.445
300.751
301.064
301.381
301.7
302.019
302.336
302.649
302.957
303.258
303.551
303.835
304.109
304.373
304.626
304.868
305.098
305.318
305.527
305.724
305.911
306.088
306.254
306.411
306.56
306.699
306.831
306.956
307.073
307.185
307.291
307.393
307.49
307.584
307.675
307.763
307.851
307.937
308.024
308.111
308.2
308.292
308.386
308.485
308.588
308.697
308.813
308.936
309.067
309.208
309.358
309.52
309.692
309.877
310.075
310.286
310.512
310.752
311.006
311.277
311.562
311.864
312.181
312.514
312.862
313.226
313.604
313.997
314.404
314.824
315.257
315.701
316.157
316.622
317.097
317.579
318.069
318.565
319.066
319.571
300.156
300.473
300.799
301.133
301.47
301.81
302.151
302.488
302.822
303.15
303.471
303.783
304.085
304.376
304.657
304.925
305.181
305.425
305.657
305.876
306.083
306.279
306.463
306.636
306.799
306.952
307.096
307.231
307.358
307.477
307.59
307.697
307.798
307.894
307.986
308.075
308.162
308.246
308.329
308.411
308.494
308.577
308.663
308.75
308.841
308.936
309.036
309.141
309.253
309.372
309.498
309.633
309.778
309.932
310.097
310.273
310.461
310.66
310.872
311.097
311.335
311.586
311.85
312.128
312.419
312.723
313.04
313.37
313.711
314.065
314.43
314.806
315.191
315.587
315.99
316.402
316.821
317.246
317.677
318.113
318.553
300.167
300.506
300.856
301.212
301.574
301.939
302.303
302.666
303.024
303.375
303.718
304.052
304.375
304.687
304.985
305.271
305.543
305.802
306.047
306.279
306.497
306.702
306.895
307.075
307.244
307.402
307.551
307.689
307.818
307.94
308.054
308.161
308.261
308.357
308.448
308.535
308.618
308.699
308.779
308.857
308.935
309.013
309.092
309.173
309.257
309.343
309.434
309.53
309.63
309.737
309.85
309.971
310.1
310.237
310.384
310.539
310.705
310.881
311.067
311.265
311.473
311.693
311.924
312.166
312.42
312.684
312.96
313.246
313.543
313.849
314.166
314.491
314.825
315.168
315.517
315.874
316.237
316.606
316.98
317.358
317.74
300.18
300.545
300.921
301.306
301.696
302.088
302.481
302.872
303.257
303.636
304.005
304.364
304.711
305.045
305.365
305.67
305.96
306.235
306.495
306.74
306.97
307.185
307.387
307.576
307.752
307.916
308.068
308.21
308.343
308.466
308.581
308.688
308.789
308.884
308.973
309.058
309.139
309.217
309.293
309.367
309.44
309.513
309.586
309.661
309.737
309.816
309.898
309.984
310.074
310.17
310.271
310.379
310.493
310.614
310.743
310.881
311.027
311.181
311.345
311.517
311.699
311.891
312.092
312.303
312.524
312.754
312.993
313.241
313.498
313.763
314.037
314.319
314.608
314.904
315.207
315.515
315.83
316.149
316.473
316.801
317.132
300.195
300.59
300.998
301.414
301.837
302.262
302.688
303.111
303.528
303.938
304.337
304.724
305.098
305.457
305.8
306.127
306.437
306.73
307.006
307.266
307.509
307.735
307.947
308.144
308.327
308.497
308.654
308.8
308.935
309.06
309.176
309.284
309.385
309.479
309.566
309.649
309.728
309.803
309.875
309.945
310.013
310.081
310.149
310.217
310.287
310.359
310.433
310.51
310.591
310.676
310.766
310.861
310.962
311.069
311.183
311.304
311.432
311.567
311.71
311.861
312.02
312.187
312.362
312.545
312.737
312.936
313.144
313.359
313.581
313.811
314.048
314.292
314.542
314.798
315.06
315.327
315.599
315.875
316.156
316.44
316.727
300.212
300.643
301.086
301.54
302.001
302.464
302.928
303.388
303.842
304.286
304.719
305.139
305.543
305.93
306.299
306.65
306.982
307.294
307.588
307.862
308.119
308.358
308.579
308.785
308.975
309.151
309.313
309.463
309.601
309.728
309.845
309.953
310.053
310.146
310.232
310.313
310.389
310.461
310.53
310.596
310.66
310.723
310.785
310.848
310.911
310.976
311.043
311.112
311.184
311.26
311.339
311.424
311.513
311.607
311.707
311.813
311.926
312.044
312.169
312.301
312.44
312.586
312.738
312.898
313.064
313.237
313.417
313.604
313.797
313.996
314.201
314.412
314.629
314.851
315.077
315.308
315.544
315.783
316.026
316.273
316.522
300.232
300.704
301.19
301.687
302.191
302.698
303.205
303.708
304.204
304.688
305.159
305.615
306.052
306.47
306.868
307.244
307.599
307.933
308.245
308.536
308.806
309.057
309.289
309.504
309.701
309.883
310.049
310.202
310.343
310.471
310.589
310.698
310.797
310.889
310.974
311.052
311.126
311.195
311.26
311.322
311.382
311.441
311.498
311.556
311.613
311.672
311.732
311.794
311.858
311.926
311.996
312.071
312.15
312.233
312.322
312.415
312.513
312.617
312.727
312.843
312.964
313.091
313.224
313.364
313.509
313.66
313.816
313.978
314.146
314.319
314.497
314.681
314.869
315.061
315.258
315.458
315.663
315.87
316.081
316.295
316.512
300.255
300.775
301.31
301.857
302.411
302.969
303.526
304.078
304.621
305.15
305.664
306.159
306.633
307.085
307.514
307.918
308.297
308.652
308.983
309.291
309.576
309.839
310.081
310.303
310.508
310.694
310.865
311.021
311.164
311.294
311.412
311.52
311.619
311.709
311.792
311.869
311.94
312.006
312.068
312.127
312.183
312.238
312.291
312.344
312.396
312.449
312.503
312.559
312.617
312.677
312.74
312.807
312.877
312.951
313.029
313.112
313.199
313.29
313.387
313.489
313.596
313.707
313.824
313.946
314.073
314.205
314.342
314.484
314.631
314.782
314.937
315.097
315.261
315.428
315.6
315.774
315.952
316.133
316.317
316.503
316.691
300.283
300.857
301.449
302.054
302.667
303.283
303.897
304.504
305.1
305.68
306.241
306.78
307.294
307.782
308.243
308.676
309.081
309.458
309.808
310.132
310.431
310.705
310.957
311.187
311.397
311.588
311.763
311.921
312.065
312.195
312.314
312.421
312.519
312.608
312.689
312.764
312.832
312.896
312.955
313.011
313.064
313.115
313.164
313.213
313.261
313.31
313.36
313.41
313.463
313.517
313.574
313.634
313.697
313.763
313.833
313.907
313.985
314.066
314.152
314.243
314.337
314.437
314.54
314.648
314.76
314.877
314.997
315.122
315.251
315.384
315.52
315.661
315.804
315.951
316.101
316.254
316.41
316.568
316.728
316.891
317.055
300.314
300.953
301.611
302.283
302.963
303.646
304.325
304.994
305.65
306.286
306.898
307.484
308.041
308.568
309.062
309.525
309.956
310.355
310.723
311.062
311.373
311.658
311.918
312.154
312.369
312.564
312.74
312.9
313.044
313.175
313.293
313.399
313.496
313.583
313.663
313.735
313.802
313.863
313.92
313.973
314.024
314.072
314.119
314.165
314.21
314.255
314.302
314.349
314.397
314.447
314.5
314.554
314.612
314.672
314.736
314.803
314.873
314.948
315.025
315.107
315.192
315.281
315.374
315.47
315.57
315.674
315.782
315.893
316.008
316.125
316.246
316.37
316.497
316.627
316.759
316.894
317.031
317.17
317.311
317.454
317.598
300.351
301.065
301.799
302.548
303.305
304.064
304.816
305.556
306.277
306.975
307.643
308.28
308.882
309.448
309.976
310.468
310.923
311.343
311.728
312.081
312.402
312.695
312.961
313.202
313.42
313.617
313.795
313.955
314.099
314.228
314.345
314.451
314.546
314.631
314.709
314.78
314.845
314.905
314.96
315.012
315.061
315.108
315.153
315.198
315.241
315.285
315.329
315.374
315.42
315.468
315.517
315.569
315.623
315.68
315.739
315.802
315.867
315.935
316.007
316.082
316.16
316.241
316.326
316.414
316.505
316.599
316.696
316.796
316.899
317.004
317.113
317.224
317.337
317.452
317.57
317.69
317.811
317.935
318.059
318.186
318.313
300.394
301.194
302.016
302.854
303.699
304.544
305.38
306.198
306.992
307.755
308.483
309.172
309.82
310.425
310.987
311.506
311.984
312.421
312.82
313.183
313.513
313.812
314.081
314.324
314.544
314.741
314.918
315.077
315.22
315.349
315.464
315.568
315.662
315.747
315.824
315.894
315.958
316.017
316.072
316.124
316.173
316.22
316.265
316.309
316.353
316.397
316.441
316.486
316.531
316.579
316.627
316.678
316.73
316.785
316.843
316.902
316.965
317.03
317.097
317.168
317.241
317.317
317.396
317.477
317.561
317.647
317.737
317.828
317.922
318.018
318.116
318.216
318.319
318.423
318.528
318.636
318.744
318.854
318.965
319.078
319.191
300.443
301.343
302.267
303.207
304.153
305.095
306.023
306.927
307.8
308.633
309.423
310.165
310.858
311.5
312.092
312.635
313.131
313.582
313.991
314.361
314.695
314.995
315.266
315.509
315.727
315.923
316.099
316.256
316.398
316.525
316.639
316.742
316.835
316.92
316.997
317.067
317.132
317.193
317.249
317.302
317.353
317.402
317.449
317.495
317.541
317.587
317.633
317.68
317.727
317.776
317.826
317.877
317.93
317.986
318.043
318.102
318.163
318.227
318.293
318.361
318.431
318.503
318.578
318.655
318.734
318.815
318.898
318.983
319.07
319.158
319.248
319.34
319.433
319.528
319.623
319.72
319.818
319.917
320.017
320.117
320.218
300.5
301.515
302.556
303.613
304.673
305.724
306.754
307.751
308.707
309.613
310.464
311.258
311.992
312.666
313.283
313.844
314.352
314.811
315.224
315.596
315.93
316.23
316.498
316.739
316.955
317.148
317.321
317.476
317.616
317.742
317.855
317.958
318.052
318.138
318.217
318.29
318.357
318.421
318.48
318.537
318.592
318.645
318.696
318.747
318.797
318.847
318.897
318.948
318.999
319.051
319.105
319.159
319.215
319.272
319.331
319.391
319.454
319.517
319.583
319.65
319.719
319.789
319.862
319.936
320.011
320.088
320.167
320.246
320.327
320.41
320.493
320.578
320.664
320.75
320.837
320.925
321.014
321.103
321.193
321.283
321.373
300.565
301.713
302.888
304.077
305.266
306.438
307.578
308.674
309.715
310.693
311.602
312.441
313.209
313.908
314.541
315.113
315.626
316.085
316.497
316.865
317.194
317.489
317.752
317.988
318.199
318.389
318.56
318.713
318.852
318.979
319.093
319.198
319.295
319.384
319.467
319.544
319.617
319.685
319.751
319.814
319.875
319.934
319.992
320.049
320.106
320.162
320.219
320.275
320.332
320.39
320.448
320.507
320.566
320.627
320.689
320.752
320.816
320.881
320.947
321.015
321.083
321.153
321.224
321.296
321.369
321.443
321.517
321.593
321.67
321.747
321.825
321.903
321.982
322.061
322.141
322.221
322.302
322.383
322.463
322.544
322.625
300.64
301.939
303.267
304.606
305.937
307.24
308.498
309.695
310.819
311.863
312.824
313.696
314.484
315.193
315.829
316.399
316.908
317.362
317.766
318.127
318.449
318.737
318.995
319.226
319.433
319.62
319.79
319.943
320.083
320.211
320.329
320.438
320.539
320.634
320.723
320.807
320.887
320.963
321.037
321.108
321.177
321.244
321.31
321.376
321.44
321.504
321.568
321.632
321.695
321.759
321.823
321.887
321.952
322.017
322.082
322.148
322.214
322.281
322.349
322.417
322.486
322.555
322.625
322.695
322.766
322.837
322.909
322.98
323.053
323.125
323.198
323.27
323.343
323.416
323.489
323.562
323.635
323.707
323.78
323.852
323.924
300.725
302.196
303.696
305.202
306.689
308.133
309.512
310.807
311.999
313.087
314.072
314.96
315.754
316.464
317.096
317.657
318.156
318.6
318.994
319.345
319.658
319.938
320.189
320.415
320.62
320.805
320.974
321.129
321.271
321.403
321.526
321.64
321.748
321.85
321.947
322.039
322.128
322.213
322.296
322.376
322.454
322.531
322.606
322.68
322.753
322.825
322.897
322.967
323.038
323.108
323.177
323.247
323.316
323.385
323.453
323.522
323.591
323.659
323.728
323.797
323.865
323.934
324.003
324.071
324.14
324.208
324.276
324.344
324.412
324.48
324.547
324.615
324.682
324.748
324.814
324.88
324.945
325.01
325.075
325.139
325.202
300.82
302.484
304.177
305.867
307.523
309.105
310.58
311.938
313.173
314.287
315.286
316.175
316.965
317.664
318.283
318.83
319.313
319.742
320.122
320.461
320.763
321.035
321.279
321.501
321.702
321.887
322.056
322.213
322.359
322.495
322.624
322.745
322.86
322.969
323.074
323.175
323.273
323.367
323.459
323.548
323.635
323.721
323.804
323.886
323.967
324.046
324.125
324.202
324.278
324.353
324.428
324.501
324.574
324.646
324.717
324.788
324.858
324.928
324.997
325.066
325.134
325.201
325.268
325.334
325.4
325.466
325.53
325.594
325.658
325.721
325.783
325.845
325.906
325.966
326.026
326.085
326.144
326.201
326.258
326.315
326.37
300.921
302.792
304.693
306.58
308.376
310.055
311.598
312.998
314.256
315.378
316.372
317.25
318.022
318.702
319.299
319.825
320.288
320.699
321.063
321.388
321.679
321.941
322.178
322.395
322.593
322.777
322.947
323.105
323.254
323.394
323.528
323.654
323.775
323.892
324.004
324.112
324.216
324.318
324.417
324.513
324.607
324.699
324.789
324.877
324.964
325.049
325.132
325.214
325.294
325.373
325.451
325.527
325.602
325.676
325.749
325.821
325.892
325.962
326.031
326.098
326.165
326.231
326.296
326.361
326.424
326.486
326.547
326.608
326.667
326.726
326.784
326.841
326.897
326.952
327.006
327.059
327.111
327.163
327.214
327.263
327.312
301.01
303.071
305.167
307.182
309.072
310.812
312.389
313.803
315.06
316.169
317.145
318
318.749
319.404
319.978
320.482
320.926
321.319
321.668
321.98
322.261
322.515
322.746
322.958
323.153
323.334
323.504
323.662
323.812
323.954
324.09
324.22
324.344
324.464
324.579
324.691
324.8
324.905
325.008
325.108
325.206
325.301
325.395
325.486
325.575
325.663
325.749
325.833
325.915
325.996
326.075
326.153
326.23
326.305
326.378
326.451
326.522
326.591
326.66
326.727
326.793
326.858
326.922
326.984
327.046
327.106
327.165
327.223
327.28
327.336
327.391
327.445
327.497
327.549
327.6
327.649
327.698
327.745
327.792
327.838
327.883
381.576
389.532
396.226
402.063
407.245
411.88
416.03
419.729
422.992
425.821
428.206
430.123
431.538
432.405
432.656
432.202
430.914
428.596
424.917
419.22
409.857
403.517
398.657
394.678
391.29
388.333
385.703
383.334
381.176
379.193
377.357
375.645
374.041
372.53
371.1
369.741
368.444
367.202
366.009
364.86
363.749
362.672
361.627
360.608
359.615
358.643
357.69
356.756
355.837
354.932
354.039
353.158
352.287
351.425
350.571
349.724
348.883
348.049
347.22
346.396
345.577
344.763
343.952
343.146
342.344
341.546
340.753
339.963
339.178
338.397
337.621
336.85
336.084
335.324
334.569
333.82
333.078
332.342
331.614
330.894
330.181
329.478
328.783
328.098
327.423
326.758
326.105
325.462
324.832
324.213
323.608
323.015
322.435
321.869
321.317
320.779
320.255
319.746
319.251
318.77
318.304
317.853
317.416
316.994
316.586
316.192
315.812
315.445
315.093
314.753
314.427
314.113
313.811
313.522
313.244
312.977
312.722
312.477
312.242
312.017
311.801
311.594
311.396
311.206
311.024
310.85
310.682
310.521
310.367
310.219
310.076
309.939
309.807
309.679
309.556
309.437
309.322
309.211
309.103
308.998
308.897
308.797
308.701
308.606
308.514
308.423
308.334
308.247
308.161
308.076
307.993
307.91
307.828
307.747
307.666
307.586
307.506
307.427
307.347
307.269
307.191
376.831
383.746
389.971
395.564
400.604
405.152
409.246
412.91
416.153
418.973
421.357
423.283
424.717
425.613
425.909
425.523
424.343
422.212
418.914
414.181
407.969
402.597
398.114
394.315
391.029
388.135
385.549
383.21
381.075
379.109
377.286
375.585
373.99
372.486
371.061
369.707
368.414
367.176
365.986
364.84
363.731
362.656
361.612
360.596
359.603
358.632
357.681
356.747
355.829
354.925
354.033
353.152
352.282
351.42
350.566
349.72
348.88
348.046
347.217
346.393
345.574
344.76
343.95
343.144
342.342
341.544
340.75
339.961
339.176
338.395
337.619
336.848
336.082
335.321
334.566
333.818
333.076
332.34
331.612
330.891
330.179
329.475
328.781
328.096
327.421
326.756
326.102
325.46
324.829
324.211
323.605
323.013
322.433
321.867
321.315
320.777
320.253
319.744
319.249
318.769
318.303
317.851
317.415
316.992
316.584
316.19
315.81
315.444
315.091
314.752
314.426
314.112
313.81
313.521
313.243
312.977
312.721
312.476
312.241
312.016
311.801
311.594
311.396
311.206
311.024
310.85
310.682
310.521
310.367
310.219
310.076
309.939
309.807
309.679
309.556
309.438
309.323
309.211
309.103
308.999
308.897
308.798
308.701
308.606
308.514
308.423
308.335
308.247
308.161
308.077
307.993
307.91
307.828
307.747
307.666
307.586
307.506
307.427
307.348
307.269
307.192
372.735
378.653
384.246
389.436
394.212
398.581
402.553
406.134
409.324
412.114
414.489
416.425
417.889
418.84
419.221
418.965
417.986
416.18
413.445
409.734
405.264
400.928
397.015
393.544
390.46
387.699
385.204
382.932
380.847
378.919
377.127
375.45
373.875
372.387
370.976
369.633
368.35
367.12
365.937
364.796
363.692
362.622
361.582
360.568
359.579
358.611
357.662
356.73
355.813
354.911
354.02
353.141
352.271
351.41
350.557
349.711
348.872
348.038
347.21
346.387
345.568
344.754
343.944
343.139
342.337
341.539
340.746
339.956
339.171
338.391
337.615
336.843
336.078
335.317