/*--------------------------------*- C++ -*----------------------------------*\
  =========                 |
  \\      /  F ield         | OpenFOAM: The Open Source CFD Toolbox
   \\    /   O peration     | Website:  https://openfoam.org
    \\  /    A nd           | Version:  7
     \\/     M anipulation  |
\*---------------------------------------------------------------------------*/
FoamFile
{
    version     2.0;
    format      ascii;
    class       volVectorField;
    location    "9.49";
    object      U;
}
// * * * * * * * * * * * * * * * * * * * * * * * * * * * * * * * * * * * * * //

dimensions      [0 1 -1 0 0 0 0];

internalField   nonuniform List<vector> 
12013
(
(0.100975 -0.000260311 0)
(0.104747 -0.000449046 0)
(0.110429 -0.000611359 0)
(0.117475 -0.000754279 0)
(0.125726 -0.000884626 0)
(0.13504 -0.00100773 0)
(0.145323 -0.00112804 0)
(0.156524 -0.00124912 0)
(0.168624 -0.00137343 0)
(0.181619 -0.001502 0)
(0.195506 -0.00163442 0)
(0.210272 -0.00176886 0)
(0.225881 -0.0019024 0)
(0.242274 -0.00203143 0)
(0.259359 -0.00215217 0)
(0.277023 -0.00226104 0)
(0.295132 -0.00235508 0)
(0.313538 -0.00243209 0)
(0.33209 -0.00249072 0)
(0.350638 -0.00253045 0)
(0.36904 -0.00255148 0)
(0.387165 -0.00255458 0)
(0.404899 -0.00254095 0)
(0.422141 -0.00251208 0)
(0.43881 -0.00246958 0)
(0.454838 -0.00241514 0)
(0.470174 -0.00235042 0)
(0.484781 -0.00227701 0)
(0.498633 -0.00219638 0)
(0.511715 -0.00210986 0)
(0.524022 -0.00201868 0)
(0.535556 -0.00192389 0)
(0.546325 -0.00182643 0)
(0.556344 -0.0017271 0)
(0.565629 -0.00162662 0)
(0.574203 -0.00152558 0)
(0.58209 -0.00142448 0)
(0.589314 -0.00132374 0)
(0.595904 -0.00122374 0)
(0.601887 -0.00112476 0)
(0.607292 -0.00102704 0)
(0.61215 -0.000930787 0)
(0.616488 -0.000836153 0)
(0.620337 -0.000743253 0)
(0.623726 -0.00065217 0)
(0.626683 -0.000562961 0)
(0.629237 -0.000475649 0)
(0.631417 -0.000390218 0)
(0.633248 -0.000306624 0)
(0.634759 -0.000224785 0)
(0.635975 -0.000144575 0)
(0.636922 -6.58149e-05 0)
(0.637624 1.16915e-05 0)
(0.638104 8.81231e-05 0)
(0.638387 0.00016366 0)
(0.638495 0.000238583 0)
(0.638449 0.000313269 0)
(0.638271 0.000388184 0)
(0.637981 0.000463889 0)
(0.637597 0.000541067 0)
(0.637137 0.000620546 0)
(0.636615 0.000703335 0)
(0.636045 0.000790675 0)
(0.635438 0.000884098 0)
(0.634803 0.000985513 0)
(0.634144 0.00109733 0)
(0.63346 0.00122262 0)
(0.632747 0.00136539 0)
(0.631991 0.00153093 0)
(0.631168 0.00172644 0)
(0.63024 0.00196194 0)
(0.629149 0.00225187 0)
(0.627804 0.00261782 0)
(0.626071 0.00309349 0)
(0.623738 0.00373408 0)
(0.620468 0.00463499 0)
(0.615703 0.00597131 0)
(0.608457 0.00809094 0)
(0.596949 0.0118157 0)
(0.578034 0.0200859 0)
(0.559223 0.05351 0)
(0.100885 -0.000792668 0)
(0.104634 -0.00137403 0)
(0.110283 -0.00187107 0)
(0.1173 -0.00230797 0)
(0.125526 -0.00270618 0)
(0.134816 -0.00308197 0)
(0.145077 -0.00344897 0)
(0.156259 -0.00381818 0)
(0.168343 -0.00419704 0)
(0.181326 -0.00458878 0)
(0.195206 -0.00499209 0)
(0.209972 -0.00540142 0)
(0.225591 -0.00580783 0)
(0.242 -0.00620037 0)
(0.259112 -0.0065675 0)
(0.27681 -0.00689844 0)
(0.294961 -0.00718419 0)
(0.313415 -0.00741811 0)
(0.332019 -0.00759619 0)
(0.350622 -0.00771687 0)
(0.369081 -0.0077808 0)
(0.387263 -0.00779034 0)
(0.405052 -0.00774914 0)
(0.422348 -0.00766167 0)
(0.439068 -0.00753287 0)
(0.455144 -0.00736781 0)
(0.470525 -0.0071715 0)
(0.485172 -0.00694874 0)
(0.499062 -0.00670396 0)
(0.512178 -0.00644122 0)
(0.524515 -0.00616415 0)
(0.536075 -0.005876 0)
(0.546868 -0.00557958 0)
(0.556907 -0.00527735 0)
(0.56621 -0.00497143 0)
(0.574799 -0.00466363 0)
(0.582698 -0.00435549 0)
(0.589932 -0.00404831 0)
(0.596529 -0.00374318 0)
(0.602518 -0.00344099 0)
(0.607927 -0.00314251 0)
(0.612786 -0.00284832 0)
(0.617124 -0.00255892 0)
(0.620971 -0.00227465 0)
(0.624356 -0.0019958 0)
(0.627308 -0.00172253 0)
(0.629854 -0.00145489 0)
(0.632025 -0.00119287 0)
(0.633845 -0.000936329 0)
(0.635343 -0.00068502 0)
(0.636545 -0.000438556 0)
(0.637475 -0.000196394 0)
(0.638158 4.20419e-05 0)
(0.638617 0.000277242 0)
(0.638877 0.000509731 0)
(0.63896 0.000740357 0)
(0.638886 0.000970275 0)
(0.638678 0.0012009 0)
(0.638355 0.00143396 0)
(0.637935 0.00167152 0)
(0.637435 0.00191611 0)
(0.63687 0.00217079 0)
(0.636255 0.00243932 0)
(0.6356 0.0027263 0)
(0.634913 0.00303748 0)
(0.6342 0.00338006 0)
(0.633463 0.0037632 0)
(0.632696 0.00419873 0)
(0.631889 0.00470223 0)
(0.631022 0.00529464 0)
(0.630064 0.00600484 0)
(0.628966 0.00687378 0)
(0.627659 0.00796154 0)
(0.626039 0.00935941 0)
(0.623959 0.0112118 0)
(0.621205 0.0137568 0)
(0.617473 0.0174038 0)
(0.612337 0.0228881 0)
(0.605249 0.0316077 0)
(0.596107 0.0463007 0)
(0.592955 0.0721797 0)
(0.100781 -0.0013414 0)
(0.104469 -0.00235251 0)
(0.110046 -0.00320931 0)
(0.117002 -0.00396197 0)
(0.125172 -0.00464786 0)
(0.134413 -0.00529498 0)
(0.144629 -0.00592701 0)
(0.155772 -0.00656306 0)
(0.167825 -0.00721612 0)
(0.180785 -0.00789187 0)
(0.194656 -0.00858815 0)
(0.209427 -0.00929537 0)
(0.225068 -0.00999806 0)
(0.241518 -0.0106772 0)
(0.258688 -0.0113127 0)
(0.276463 -0.0118858 0)
(0.294704 -0.0123809 0)
(0.313261 -0.0127863 0)
(0.331976 -0.013095 0)
(0.350696 -0.0133044 0)
(0.369273 -0.0134155 0)
(0.387573 -0.0134326 0)
(0.405476 -0.0133618 0)
(0.422883 -0.013211 0)
(0.439706 -0.0129887 0)
(0.45588 -0.0127038 0)
(0.471351 -0.0123649 0)
(0.486081 -0.0119803 0)
(0.500045 -0.0115577 0)
(0.513228 -0.0111041 0)
(0.525625 -0.0106258 0)
(0.537239 -0.0101284 0)
(0.548079 -0.00961681 0)
(0.558158 -0.00909518 0)
(0.567496 -0.00856721 0)
(0.576114 -0.008036 0)
(0.584037 -0.00750422 0)
(0.591291 -0.0069741 0)
(0.597904 -0.0064475 0)
(0.603904 -0.00592599 0)
(0.60932 -0.00541084 0)
(0.614183 -0.00490307 0)
(0.618521 -0.0044035 0)
(0.622365 -0.00391277 0)
(0.625744 -0.00343129 0)
(0.628686 -0.00295936 0)
(0.63122 -0.00249707 0)
(0.633374 -0.00204436 0)
(0.635175 -0.00160099 0)
(0.636651 -0.00116653 0)
(0.637827 -0.000740289 0)
(0.638728 -0.000321347 0)
(0.639379 9.12592e-05 0)
(0.639803 0.000498384 0)
(0.640024 0.00090102 0)
(0.640064 0.00130067 0)
(0.639944 0.00169934 0)
(0.639686 0.00209944 0)
(0.639307 0.00250392 0)
(0.638828 0.00291631 0)
(0.638264 0.00334088 0)
(0.637632 0.0037828 0)
(0.636944 0.00424836 0)
(0.636212 0.00474528 0)
(0.635447 0.00528306 0)
(0.634653 0.00587356 0)
(0.633834 0.00653173 0)
(0.63299 0.00727667 0)
(0.632114 0.0081332 0)
(0.631192 0.00913412 0)
(0.630207 0.0103237 0)
(0.629127 0.0117631 0)
(0.627912 0.0135386 0)
(0.626511 0.0157753 0)
(0.624862 0.0186592 0)
(0.622905 0.0224727 0)
(0.620613 0.0276518 0)
(0.618068 0.0348767 0)
(0.615648 0.0452151 0)
(0.614478 0.0602629 0)
(0.618477 0.0814728 0)
(0.100669 -0.00189871 0)
(0.104274 -0.00337861 0)
(0.109745 -0.00462215 0)
(0.116608 -0.00571501 0)
(0.124695 -0.00671057 0)
(0.133861 -0.00764967 0)
(0.14401 -0.00856708 0)
(0.155095 -0.00949093 0)
(0.167102 -0.0104405 0)
(0.180033 -0.0114242 0)
(0.193896 -0.0124392 0)
(0.208684 -0.0134715 0)
(0.22437 -0.0144984 0)
(0.240897 -0.0154919 0)
(0.258174 -0.0164221 0)
(0.276082 -0.0172614 0)
(0.294479 -0.0179866 0)
(0.31321 -0.0185805 0)
(0.332111 -0.0190327 0)
(0.351022 -0.0193394 0)
(0.369791 -0.0195022 0)
(0.38828 -0.0195272 0)
(0.406367 -0.0194238 0)
(0.423946 -0.0192034 0)
(0.440932 -0.0188788 0)
(0.457256 -0.0184628 0)
(0.472865 -0.0179682 0)
(0.48772 -0.0174071 0)
(0.501796 -0.0167908 0)
(0.51508 -0.0161296 0)
(0.527566 -0.0154327 0)
(0.539258 -0.0147081 0)
(0.550165 -0.013963 0)
(0.560303 -0.0132035 0)
(0.569691 -0.012435 0)
(0.578351 -0.0116619 0)
(0.586308 -0.0108881 0)
(0.593589 -0.0101168 0)
(0.600223 -0.0093508 0)
(0.606238 -0.00859219 0)
(0.611663 -0.00784287 0)
(0.61653 -0.00710429 0)
(0.620868 -0.00637761 0)
(0.624706 -0.00566371 0)
(0.628075 -0.00496319 0)
(0.631002 -0.00427644 0)
(0.633518 -0.00360358 0)
(0.635649 -0.00294449 0)
(0.637424 -0.00229879 0)
(0.638869 -0.00166584 0)
(0.640009 -0.00104465 0)
(0.640871 -0.000433867 0)
(0.641478 0.000167846 0)
(0.641855 0.000761745 0)
(0.642025 0.0013494 0)
(0.642009 0.00193305 0)
(0.641829 0.00251558 0)
(0.641505 0.00310048 0)
(0.641058 0.00369192 0)
(0.640505 0.00429491 0)
(0.639862 0.00491546 0)
(0.639147 0.00556079 0)
(0.638373 0.00623962 0)
(0.637552 0.00696256 0)
(0.636696 0.00774257 0)
(0.635812 0.00859561 0)
(0.634908 0.00954157 0)
(0.633986 0.0106054 0)
(0.633047 0.011819 0)
(0.632089 0.0132233 0)
(0.631106 0.014872 0)
(0.630092 0.0168363 0)
(0.629041 0.0192119 0)
(0.627951 0.0221288 0)
(0.62684 0.0257646 0)
(0.625763 0.0303616 0)
(0.624856 0.0362446 0)
(0.624403 0.0438298 0)
(0.624951 0.0536003 0)
(0.627447 0.0659622 0)
(0.633525 0.0806749 0)
(0.100554 -0.00246277 0)
(0.104066 -0.00444756 0)
(0.109406 -0.00610593 0)
(0.116149 -0.00756507 0)
(0.124128 -0.00889413 0)
(0.133195 -0.0101477 0)
(0.143256 -0.0113729 0)
(0.154268 -0.012608 0)
(0.166219 -0.0138794 0)
(0.179121 -0.0151992 0)
(0.192985 -0.0165635 0)
(0.207816 -0.0179537 0)
(0.223588 -0.0193388 0)
(0.240246 -0.0206803 0)
(0.257697 -0.0219374 0)
(0.275819 -0.0230721 0)
(0.29446 -0.0240523 0)
(0.313457 -0.0248547 0)
(0.332637 -0.0254651 0)
(0.351831 -0.0258784 0)
(0.370881 -0.026097 0)
(0.389641 -0.0261295 0)
(0.407986 -0.0259887 0)
(0.425807 -0.0256906 0)
(0.443016 -0.0252522 0)
(0.459544 -0.0246912 0)
(0.475337 -0.0240251 0)
(0.490357 -0.0232701 0)
(0.504581 -0.0224415 0)
(0.517994 -0.0215532 0)
(0.530593 -0.0206173 0)
(0.542383 -0.019645 0)
(0.553374 -0.0186455 0)
(0.563583 -0.0176273 0)
(0.573031 -0.0165973 0)
(0.581739 -0.0155616 0)
(0.589735 -0.0145252 0)
(0.597046 -0.0134924 0)
(0.603702 -0.0124668 0)
(0.609731 -0.0114513 0)
(0.615164 -0.0104483 0)
(0.620032 -0.00945971 0)
(0.624365 -0.00848704 0)
(0.628192 -0.00753141 0)
(0.631544 -0.00659359 0)
(0.634451 -0.00567404 0)
(0.63694 -0.00477287 0)
(0.63904 -0.00388991 0)
(0.640779 -0.00302462 0)
(0.642183 -0.00217612 0)
(0.643278 -0.00134309 0)
(0.64409 -0.000523753 0)
(0.644643 0.000283626 0)
(0.644962 0.00108072 0)
(0.645068 0.00186978 0)
(0.644985 0.00265386 0)
(0.644734 0.00343677 0)
(0.644335 0.00422305 0)
(0.643807 0.0050181 0)
(0.643169 0.00582836 0)
(0.642439 0.00666145 0)
(0.641632 0.00752649 0)
(0.640764 0.00843436 0)
(0.639849 0.00939814 0)
(0.638899 0.0104336 0)
(0.637927 0.0115599 0)
(0.636941 0.0128004 0)
(0.635952 0.0141839 0)
(0.634967 0.015746 0)
(0.633997 0.0175313 0)
(0.63305 0.0195955 0)
(0.632143 0.0220092 0)
(0.631296 0.0248615 0)
(0.630551 0.0282639 0)
(0.629972 0.0323545 0)
(0.629671 0.0372985 0)
(0.62983 0.0432805 0)
(0.630733 0.0504796 0)
(0.632801 0.0590093 0)
(0.636593 0.0687931 0)
(0.64277 0.0793394 0)
(0.100437 -0.003033 0)
(0.103856 -0.00555579 0)
(0.109051 -0.00765788 0)
(0.115654 -0.00951064 0)
(0.123502 -0.0111989 0)
(0.132452 -0.0127917 0)
(0.14241 -0.0143497 0)
(0.153337 -0.015923 0)
(0.16523 -0.0175463 0)
(0.178111 -0.019236 0)
(0.192004 -0.0209877 0)
(0.20692 -0.0227769 0)
(0.222841 -0.0245629 0)
(0.239711 -0.0262951 0)
(0.257435 -0.0279193 0)
(0.275878 -0.029385 0)
(0.294878 -0.0306503 0)
(0.314257 -0.0316844 0)
(0.333829 -0.0324693 0)
(0.353414 -0.0329984 0)
(0.372843 -0.0332757 0)
(0.391965 -0.0333128 0)
(0.410646 -0.0331269 0)
(0.428777 -0.0327389 0)
(0.446268 -0.0321715 0)
(0.463049 -0.0314477 0)
(0.479067 -0.0305899 0)
(0.494286 -0.0296195 0)
(0.508683 -0.0285559 0)
(0.522247 -0.0274169 0)
(0.534975 -0.0262184 0)
(0.546874 -0.0249741 0)
(0.557957 -0.0236961 0)
(0.568242 -0.022395 0)
(0.577751 -0.0210796 0)
(0.586508 -0.0197575 0)
(0.594541 -0.0184351 0)
(0.601878 -0.0171179 0)
(0.608551 -0.0158101 0)
(0.614588 -0.0145155 0)
(0.620022 -0.013237 0)
(0.624882 -0.011977 0)
(0.629201 -0.0107373 0)
(0.633009 -0.00951935 0)
(0.636335 -0.00832395 0)
(0.63921 -0.00715165 0)
(0.641663 -0.00600255 0)
(0.643721 -0.00487639 0)
(0.645413 -0.00377245 0)
(0.646765 -0.0026896 0)
(0.647805 -0.00162618 0)
(0.648555 -0.000579981 0)
(0.649044 0.000451116 0)
(0.649293 0.00146926 0)
(0.649326 0.00247746 0)
(0.649166 0.00347963 0)
(0.648833 0.00448052 0)
(0.648348 0.00548568 0)
(0.647732 0.00650166 0)
(0.647002 0.00753617 0)
(0.646176 0.00859826 0)
(0.645273 0.00969862 0)
(0.644308 0.0108499 0)
(0.643297 0.0120669 0)
(0.642256 0.0133673 0)
(0.641199 0.0147723 0)
(0.64014 0.0163069 0)
(0.639096 0.0180011 0)
(0.638082 0.0198908 0)
(0.637119 0.0220192 0)
(0.636228 0.0244378 0)
(0.635442 0.0272076 0)
(0.634802 0.0304003 0)
(0.63437 0.0340974 0)
(0.634229 0.038388 0)
(0.6345 0.0433615 0)
(0.635346 0.049093 0)
(0.636981 0.0556176 0)
(0.639667 0.0628888 0)
(0.643684 0.0707204 0)
(0.649261 0.0787217 0)
(0.100318 -0.00360986 0)
(0.103653 -0.0067012 0)
(0.108698 -0.00927638 0)
(0.115146 -0.0115511 0)
(0.122851 -0.0136261 0)
(0.131669 -0.0155853 0)
(0.141513 -0.0175046 0)
(0.152352 -0.0194477 0)
(0.164197 -0.0214594 0)
(0.177082 -0.0235613 0)
(0.191049 -0.0257484 0)
(0.20612 -0.0279893 0)
(0.222283 -0.0302312 0)
(0.239482 -0.0324079 0)
(0.257608 -0.0344491 0)
(0.276512 -0.0362892 0)
(0.296014 -0.0378743 0)
(0.315913 -0.0391656 0)
(0.336007 -0.0401408 0)
(0.3561 -0.040793 0)
(0.376012 -0.0411281 0)
(0.395582 -0.0411622 0)
(0.414675 -0.040918 0)
(0.433177 -0.0404226 0)
(0.450999 -0.039705 0)
(0.468071 -0.0387946 0)
(0.484343 -0.0377196 0)
(0.499781 -0.0365068 0)
(0.514365 -0.0351806 0)
(0.528087 -0.0337629 0)
(0.540948 -0.0322732 0)
(0.552956 -0.0307288 0)
(0.564128 -0.0291443 0)
(0.574483 -0.0275326 0)
(0.584046 -0.0259046 0)
(0.592842 -0.0242694 0)
(0.600902 -0.0226348 0)
(0.608255 -0.0210073 0)
(0.614933 -0.0193922 0)
(0.620966 -0.0177939 0)
(0.626388 -0.0162158 0)
(0.631229 -0.0146609 0)
(0.635522 -0.0131311 0)
(0.639297 -0.0116281 0)
(0.642585 -0.0101529 0)
(0.645417 -0.00870598 0)
(0.64782 -0.0072875 0)
(0.649825 -0.00589703 0)
(0.651458 -0.00453366 0)
(0.652747 -0.003196 0)
(0.653718 -0.00188207 0)
(0.654397 -0.000589265 0)
(0.65481 0.000684954 0)
(0.65498 0.00194327 0)
(0.65493 0.00318951 0)
(0.654683 0.00442847 0)
(0.65426 0.00566576 0)
(0.653683 0.00690786 0)
(0.65297 0.00816233 0)
(0.652142 0.00943792 0)
(0.651218 0.0107448 0)
(0.650215 0.0120948 0)
(0.649152 0.0135016 0)
(0.648047 0.0149811 0)
(0.646918 0.0165519 0)
(0.645782 0.0182353 0)
(0.644659 0.0200563 0)
(0.643569 0.0220436 0)
(0.642536 0.0242303 0)
(0.641586 0.0266541 0)
(0.640753 0.0293575 0)
(0.640076 0.0323872 0)
(0.639606 0.0357932 0)
(0.639408 0.0396256 0)
(0.639565 0.04393 0)
(0.640179 0.0487393 0)
(0.64137 0.0540614 0)
(0.643277 0.0598626 0)
(0.646039 0.0660476 0)
(0.649772 0.0724401 0)
(0.654518 0.0787758 0)
(0.100196 -0.00419497 0)
(0.103462 -0.00788331 0)
(0.108359 -0.0109613 0)
(0.114646 -0.0136871 0)
(0.122198 -0.0161782 0)
(0.130879 -0.0185337 0)
(0.140607 -0.020847 0)
(0.151365 -0.0231978 0)
(0.163184 -0.0256434 0)
(0.17612 -0.0282118 0)
(0.190235 -0.0308969 0)
(0.205565 -0.0336579 0)
(0.222104 -0.036426 0)
(0.239785 -0.0391149 0)
(0.258482 -0.0416336 0)
(0.278019 -0.0438982 0)
(0.298186 -0.0458409 0)
(0.318758 -0.0474143 0)
(0.339508 -0.0485925 0)
(0.360224 -0.0493693 0)
(0.380714 -0.0497547 0)
(0.400809 -0.0497704 0)
(0.420372 -0.0494468 0)
(0.439288 -0.0488184 0)
(0.45747 -0.0479219 0)
(0.474852 -0.0467939 0)
(0.491388 -0.0454695 0)
(0.507047 -0.0439812 0)
(0.521815 -0.0423589 0)
(0.535687 -0.0406291 0)
(0.548668 -0.0388154 0)
(0.560771 -0.0369382 0)
(0.572015 -0.0350153 0)
(0.582423 -0.0330619 0)
(0.592021 -0.0310907 0)
(0.600839 -0.0291127 0)
(0.608907 -0.027137 0)
(0.616257 -0.025171 0)
(0.622922 -0.023221 0)
(0.628935 -0.0212921 0)
(0.634328 -0.0193883 0)
(0.639134 -0.0175127 0)
(0.643385 -0.0156678 0)
(0.647113 -0.0138552 0)
(0.650349 -0.0120762 0)
(0.653123 -0.0103312 0)
(0.655464 -0.00862023 0)
(0.657403 -0.00694273 0)
(0.658966 -0.00529761 0)
(0.660181 -0.00368321 0)
(0.661074 -0.00209726 0)
(0.661671 -0.000536859 0)
(0.662 0.00100103 0)
(0.662083 0.0025197 0)
(0.661942 0.00402384 0)
(0.661602 0.00551904 0)
(0.661084 0.00701169 0)
(0.660408 0.00850905 0)
(0.659597 0.0100194 0)
(0.658669 0.0115523 0)
(0.657644 0.0131187 0)
(0.656543 0.0147308 0)
(0.655384 0.0164028 0)
(0.654188 0.0181508 0)
(0.652975 0.0199929 0)
(0.651766 0.0219495 0)
(0.650584 0.0240436 0)
(0.649453 0.0263005 0)
(0.648402 0.0287481 0)
(0.647461 0.0314162 0)
(0.646668 0.0343362 0)
(0.646065 0.0375394 0)
(0.645702 0.041055 0)
(0.645639 0.044907 0)
(0.645943 0.0491095 0)
(0.64669 0.0536606 0)
(0.647959 0.0585351 0)
(0.649825 0.0636761 0)
(0.652351 0.0689889 0)
(0.655567 0.0743376 0)
(0.659447 0.0795558 0)
(0.100069 -0.00479089 0)
(0.103283 -0.0091032 0)
(0.108041 -0.012714 0)
(0.114168 -0.015921 0)
(0.121567 -0.0188594 0)
(0.13011 -0.0216447 0)
(0.139729 -0.0243904 0)
(0.150428 -0.0271958 0)
(0.162264 -0.0301336 0)
(0.175326 -0.0332397 0)
(0.189701 -0.036505 0)
(0.20544 -0.039875 0)
(0.222532 -0.0432586 0)
(0.240892 -0.0465425 0)
(0.26036 -0.0496091 0)
(0.280722 -0.0523527 0)
(0.30173 -0.0546899 0)
(0.323125 -0.0565651 0)
(0.344656 -0.0579509 0)
(0.366092 -0.0588441 0)
(0.387231 -0.0592611 0)
(0.407901 -0.0592324 0)
(0.427964 -0.0587975 0)
(0.447309 -0.0580005 0)
(0.465853 -0.0568872 0)
(0.483536 -0.0555023 0)
(0.500319 -0.0538885 0)
(0.516178 -0.052085 0)
(0.531104 -0.0501273 0)
(0.545098 -0.0480469 0)
(0.55817 -0.0458714 0)
(0.570338 -0.043625 0)
(0.581624 -0.0413281 0)
(0.592055 -0.0389983 0)
(0.601661 -0.0366507 0)
(0.610472 -0.0342975 0)
(0.618522 -0.0319492 0)
(0.625844 -0.0296143 0)
(0.632473 -0.0273 0)
(0.638443 -0.0250118 0)
(0.643786 -0.0227542 0)
(0.648538 -0.0205308 0)
(0.65273 -0.0183442 0)
(0.656395 -0.0161961 0)
(0.659564 -0.0140879 0)
(0.662268 -0.0120198 0)
(0.664536 -0.00999187 0)
(0.666398 -0.00800335 0)
(0.667882 -0.00605294 0)
(0.669014 -0.00413871 0)
(0.669823 -0.00225813 0)
(0.670332 -0.00040818 0)
(0.670572 0.00141473 0)
(0.670563 0.00321471 0)
(0.670329 0.00499725 0)
(0.669893 0.00676862 0)
(0.669278 0.00853579 0)
(0.668505 0.0103066 0)
(0.667595 0.0120898 0)
(0.666568 0.0138954 0)
(0.665447 0.0157344 0)
(0.664251 0.0176191 0)
(0.663001 0.0195635 0)
(0.66172 0.0215828 0)
(0.66043 0.0236937 0)
(0.659153 0.0259144 0)
(0.657916 0.0282646 0)
(0.656745 0.0307649 0)
(0.65567 0.0334368 0)
(0.654723 0.0363015 0)
(0.653941 0.0393792 0)
(0.653364 0.0426874 0)
(0.653036 0.0462389 0)
(0.653006 0.0500391 0)
(0.653322 0.0540829 0)
(0.654035 0.0583512 0)
(0.655189 0.0628073 0)
(0.656819 0.0673946 0)
(0.658945 0.0720355 0)
(0.661557 0.0766349 0)
(0.664609 0.0810914 0)
(0.0999352 -0.00540083 0)
(0.103116 -0.0103634 0)
(0.107751 -0.0145379 0)
(0.113722 -0.0182571 0)
(0.120973 -0.0216764 0)
(0.129387 -0.0249296 0)
(0.138917 -0.0281543 0)
(0.149596 -0.0314742 0)
(0.161523 -0.0349815 0)
(0.174825 -0.0387201 0)
(0.189619 -0.0426742 0)
(0.205965 -0.0467678 0)
(0.223836 -0.0508773 0)
(0.243107 -0.0548528 0)
(0.26357 -0.0585438 0)
(0.284956 -0.061819 0)
(0.30697 -0.0645798 0)
(0.329317 -0.0667649 0)
(0.351721 -0.0683487 0)
(0.373937 -0.0693349 0)
(0.395758 -0.0697504 0)
(0.417012 -0.0696371 0)
(0.437566 -0.0690463 0)
(0.457316 -0.0680336 0)
(0.47619 -0.0666552 0)
(0.494135 -0.0649653 0)
(0.51112 -0.0630147 0)
(0.527132 -0.0608495 0)
(0.542168 -0.0585114 0)
(0.556235 -0.0560369 0)
(0.569351 -0.053458 0)
(0.581538 -0.050802 0)
(0.592822 -0.0480925 0)
(0.603235 -0.0453494 0)
(0.612808 -0.0425895 0)
(0.621576 -0.0398269 0)
(0.629575 -0.0370729 0)
(0.636838 -0.0343373 0)
(0.643403 -0.0316277 0)
(0.649304 -0.0289503 0)
(0.654576 -0.0263099 0)
(0.659252 -0.0237105 0)
(0.663368 -0.0211545 0)
(0.666954 -0.0186441 0)
(0.670042 -0.0161803 0)
(0.672664 -0.0137634 0)
(0.674849 -0.0113933 0)
(0.676627 -0.00906909 0)
(0.678025 -0.00678915 0)
(0.679071 -0.00455132 0)
(0.679791 -0.00235277 0)
(0.680211 -0.000190773 0)
(0.680361 0.00193882 0)
(0.680262 0.00404135 0)
(0.679937 0.00612301 0)
(0.679409 0.00819047 0)
(0.678702 0.0102511 0)
(0.677836 0.012313 0)
(0.676834 0.0143851 0)
(0.675718 0.0164774 0)
(0.674508 0.0186006 0)
(0.673226 0.0207666 0)
(0.671896 0.0229882 0)
(0.670539 0.0252791 0)
(0.669179 0.0276538 0)
(0.667842 0.0301276 0)
(0.666552 0.0327161 0)
(0.665338 0.0354347 0)
(0.664229 0.0382982 0)
(0.663256 0.0413198 0)
(0.662452 0.0445103 0)
(0.661852 0.0478766 0)
(0.661491 0.05142 0)
(0.661404 0.0551348 0)
(0.661626 0.0590065 0)
(0.662184 0.0630102 0)
(0.6631 0.0671095 0)
(0.664386 0.071257 0)
(0.666037 0.075395 0)
(0.66803 0.0794599 0)
(0.67032 0.0833911 0)
(0.0997924 -0.00602847 0)
(0.102961 -0.0116679 0)
(0.10749 -0.0164376 0)
(0.113316 -0.0207021 0)
(0.120429 -0.0246391 0)
(0.128733 -0.0284051 0)
(0.138209 -0.0321676 0)
(0.148935 -0.0360816 0)
(0.161064 -0.0402625 0)
(0.17477 -0.0447608 0)
(0.1902 -0.0495458 0)
(0.207406 -0.0545065 0)
(0.226323 -0.0594719 0)
(0.246761 -0.0642444 0)
(0.268441 -0.0686335 0)
(0.291029 -0.0724818 0)
(0.314179 -0.0756786 0)
(0.337561 -0.078162 0)
(0.36088 -0.0799136 0)
(0.383884 -0.08095 0)
(0.406368 -0.0813125 0)
(0.428167 -0.0810582 0)
(0.449158 -0.0802529 0)
(0.469252 -0.0789654 0)
(0.488385 -0.0772636 0)
(0.50652 -0.0752119 0)
(0.523636 -0.0728698 0)
(0.539727 -0.0702908 0)
(0.554802 -0.0675225 0)
(0.568876 -0.0646065 0)
(0.581971 -0.0615789 0)
(0.594116 -0.0584706 0)
(0.605342 -0.0553078 0)
(0.615684 -0.0521126 0)
(0.625177 -0.0489035 0)
(0.633858 -0.045696 0)
(0.641764 -0.0425025 0)
(0.648933 -0.0393335 0)
(0.655401 -0.0361973 0)
(0.661205 -0.0331003 0)
(0.66638 -0.0300479 0)
(0.67096 -0.0270438 0)
(0.67498 -0.0240909 0)
(0.678472 -0.0211911 0)
(0.681467 -0.0183453 0)
(0.683997 -0.0155538 0)
(0.686092 -0.0128163 0)
(0.68778 -0.0101315 0)
(0.689089 -0.00749789 0)
(0.690048 -0.00491293 0)
(0.690682 -0.0023736 0)
(0.69102 0.000122916 0)
(0.691085 0.0025812 0)
(0.690901 0.0050076 0)
(0.690492 0.0074088 0)
(0.689882 0.00979176 0)
(0.689092 0.012164 0)
(0.688146 0.0145336 0)
(0.687065 0.0169094 0)
(0.685871 0.0193008 0)
(0.684586 0.0217181 0)
(0.683234 0.0241719 0)
(0.681836 0.0266736 0)
(0.680416 0.0292348 0)
(0.678999 0.0318674 0)
(0.677609 0.0345833 0)
(0.676271 0.0373937 0)
(0.675012 0.0403093 0)
(0.673859 0.0433388 0)
(0.672841 0.0464889 0)
(0.671985 0.0497634 0)
(0.671319 0.0531618 0)
(0.670869 0.0566789 0)
(0.670661 0.0603036 0)
(0.670713 0.0640184 0)
(0.671042 0.0677991 0)
(0.671652 0.0716149 0)
(0.672544 0.0754291 0)
(0.673702 0.0792013 0)
(0.675103 0.0828902 0)
(0.676705 0.0864603 0)
(0.0996376 -0.00667788 0)
(0.102815 -0.0130218 0)
(0.107259 -0.01842 0)
(0.112955 -0.0232653 0)
(0.119948 -0.0277623 0)
(0.128174 -0.0320963 0)
(0.137654 -0.0364739 0)
(0.14853 -0.0410901 0)
(0.161022 -0.0460866 0)
(0.17536 -0.0515143 0)
(0.191704 -0.0573114 0)
(0.210072 -0.0633106 0)
(0.230323 -0.0692748 0)
(0.252178 -0.0749463 0)
(0.275267 -0.0800918 0)
(0.299186 -0.0845314 0)
(0.323541 -0.0881494 0)
(0.347976 -0.0908918 0)
(0.372187 -0.0927556 0)
(0.395926 -0.0937763 0)
(0.418997 -0.0940145 0)
(0.441252 -0.0935461 0)
(0.462584 -0.0924537 0)
(0.482918 -0.0908209 0)
(0.502209 -0.0887281 0)
(0.520431 -0.0862505 0)
(0.537578 -0.0834563 0)
(0.553656 -0.0804064 0)
(0.56868 -0.0771544 0)
(0.582676 -0.0737468 0)
(0.595672 -0.0702236 0)
(0.607702 -0.0666186 0)
(0.618803 -0.0629608 0)
(0.629012 -0.0592742 0)
(0.638369 -0.0555786 0)
(0.646913 -0.0518908 0)
(0.654682 -0.0482241 0)
(0.661716 -0.0445895 0)
(0.668052 -0.0409956 0)
(0.673728 -0.0374494 0)
(0.678778 -0.0339561 0)
(0.683239 -0.0305196 0)
(0.687144 -0.0271427 0)
(0.690526 -0.0238272 0)
(0.693417 -0.0205738 0)
(0.695846 -0.0173827 0)
(0.697845 -0.0142532 0)
(0.699441 -0.0111841 0)
(0.700662 -0.00817349 0)
(0.701537 -0.0052188 0)
(0.702089 -0.002317 0)
(0.70235 0.000535508 0)
(0.702339 0.00334385 0)
(0.702082 0.00611462 0)
(0.701603 0.00885475 0)
(0.700924 0.0115713 0)
(0.700068 0.0142718 0)
(0.699058 0.0169641 0)
(0.697915 0.0196566 0)
(0.696663 0.0223579 0)
(0.695323 0.0250772 0)
(0.693918 0.0278238 0)
(0.692472 0.0306071 0)
(0.691006 0.0334366 0)
(0.689545 0.0363213 0)
(0.688112 0.0392698 0)
(0.686732 0.0422894 0)
(0.685429 0.0453865 0)
(0.684227 0.0485652 0)
(0.683149 0.0518274 0)
(0.682219 0.0551722 0)
(0.681458 0.0585951 0)
(0.680884 0.0620876 0)
(0.680513 0.0656374 0)
(0.680355 0.0692277 0)
(0.680416 0.0728378 0)
(0.680696 0.0764437 0)
(0.681185 0.0800188 0)
(0.681869 0.0835358 0)
(0.682724 0.0869685 0)
(0.683717 0.0902968 0)
(0.0994678 -0.0073535 0)
(0.102678 -0.0144321 0)
(0.10706 -0.0204941 0)
(0.112644 -0.02596 0)
(0.119545 -0.0310672 0)
(0.127742 -0.036041 0)
(0.137315 -0.0411395 0)
(0.148492 -0.0466078 0)
(0.161577 -0.0526133 0)
(0.176844 -0.0591912 0)
(0.194436 -0.0662208 0)
(0.214295 -0.0734492 0)
(0.236163 -0.080552 0)
(0.259643 -0.087204 0)
(0.284268 -0.0931324 0)
(0.30957 -0.0981451 0)
(0.335119 -0.102134 0)
(0.360548 -0.105063 0)
(0.385559 -0.106955 0)
(0.409917 -0.10787 0)
(0.433447 -0.107893 0)
(0.456022 -0.107122 0)
(0.477556 -0.105657 0)
(0.497996 -0.103598 0)
(0.517312 -0.101039 0)
(0.535496 -0.0980659 0)
(0.552555 -0.0947547 0)
(0.568507 -0.0911739 0)
(0.583376 -0.0873826 0)
(0.597197 -0.0834319 0)
(0.610004 -0.0793651 0)
(0.621838 -0.0752192 0)
(0.632738 -0.0710249 0)
(0.642747 -0.066808 0)
(0.651906 -0.0625896 0)
(0.660257 -0.0583872 0)
(0.667839 -0.0542147 0)
(0.674694 -0.0500836 0)
(0.68086 -0.0460027 0)
(0.686373 -0.041979 0)
(0.691272 -0.0380177 0)
(0.695589 -0.0341227 0)
(0.69936 -0.0302964 0)
(0.702617 -0.0265406 0)
(0.70539 -0.0228557 0)
(0.707712 -0.0192416 0)
(0.709609 -0.0156975 0)
(0.711112 -0.0122219 0)
(0.712247 -0.00881267 0)
(0.713042 -0.00546725 0)
(0.713521 -0.00218253 0)
(0.713713 0.00104575 0)
(0.713638 0.00422326 0)
(0.713322 0.0073567 0)
(0.712788 0.010453 0)
(0.712059 0.0135192 0)
(0.711156 0.0165625 0)
(0.710103 0.0195903 0)
(0.70892 0.0226102 0)
(0.707632 0.0256299 0)
(0.706259 0.0286574 0)
(0.704824 0.0317002 0)
(0.703349 0.0347659 0)
(0.701856 0.0378617 0)
(0.700367 0.0409939 0)
(0.698906 0.0441681 0)
(0.697493 0.0473888 0)
(0.69615 0.0506586 0)
(0.694898 0.0539786 0)
(0.693756 0.0573477 0)
(0.692741 0.0607622 0)
(0.69187 0.0642159 0)
(0.691154 0.0676998 0)
(0.690602 0.0712022 0)
(0.690221 0.074709 0)
(0.690009 0.0782039 0)
(0.689962 0.0816692 0)
(0.690071 0.0850866 0)
(0.690321 0.0884381 0)
(0.69069 0.0917075 0)
(0.691156 0.0948844 0)
(0.0992797 -0.00806025 0)
(0.102546 -0.0159071 0)
(0.106894 -0.0226719 0)
(0.112393 -0.0288048 0)
(0.119241 -0.0345861 0)
(0.127482 -0.0402969 0)
(0.137283 -0.0462648 0)
(0.14898 -0.0527936 0)
(0.162962 -0.0600661 0)
(0.179523 -0.0680697 0)
(0.198734 -0.0765825 0)
(0.220402 -0.0852307 0)
(0.244117 -0.0935862 0)
(0.269351 -0.101258 0)
(0.295547 -0.107948 0)
(0.322189 -0.113469 0)
(0.348833 -0.117736 0)
(0.375121 -0.120745 0)
(0.400771 -0.122552 0)
(0.425577 -0.123249 0)
(0.44939 -0.122949 0)
(0.472111 -0.121772 0)
(0.493679 -0.119839 0)
(0.514062 -0.117267 0)
(0.53325 -0.114161 0)
(0.551252 -0.110618 0)
(0.568089 -0.106722 0)
(0.583789 -0.102549 0)
(0.598389 -0.0981622 0)
(0.611928 -0.0936169 0)
(0.624449 -0.0889597 0)
(0.635997 -0.0842294 0)
(0.646616 -0.0794588 0)
(0.656351 -0.0746746 0)
(0.665246 -0.069899 0)
(0.673345 -0.0651499 0)
(0.680688 -0.0604415 0)
(0.687318 -0.0557855 0)
(0.693272 -0.0511906 0)
(0.698589 -0.0466638 0)
(0.703305 -0.04221 0)
(0.707454 -0.0378329 0)
(0.71107 -0.0335346 0)
(0.714186 -0.0293165 0)
(0.716831 -0.0251789 0)
(0.719036 -0.0211213 0)
(0.720829 -0.0171425 0)
(0.722238 -0.0132409 0)
(0.723289 -0.00941419 0)
(0.724009 -0.00565968 0)
(0.724423 -0.00197422 0)
(0.724557 0.00164698 0)
(0.724433 0.00521001 0)
(0.724073 0.00872161 0)
(0.723502 0.0121886 0)
(0.722741 0.0156175 0)
(0.721813 0.0190153 0)
(0.720739 0.0223886 0)
(0.71954 0.0257441 0)
(0.718239 0.0290885 0)
(0.716856 0.0324282 0)
(0.715414 0.0357694 0)
(0.713932 0.0391177 0)
(0.712433 0.0424783 0)
(0.710935 0.0458552 0)
(0.70946 0.0492517 0)
(0.708027 0.0526698 0)
(0.706653 0.05611 0)
(0.705357 0.0595714 0)
(0.704152 0.0630511 0)
(0.703053 0.0665446 0)
(0.702071 0.0700453 0)
(0.701213 0.0735452 0)
(0.700485 0.0770344 0)
(0.699887 0.0805018 0)
(0.699419 0.0839354 0)
(0.699073 0.0873229 0)
(0.698841 0.0906521 0)
(0.698709 0.0939117 0)
(0.698662 0.097092 0)
(0.698681 0.100189 0)
(0.0990696 -0.00880378 0)
(0.102419 -0.0174576 0)
(0.106764 -0.0249697 0)
(0.112211 -0.0318267 0)
(0.119066 -0.0383675 0)
(0.127462 -0.0449527 0)
(0.137686 -0.0520007 0)
(0.1502 -0.0598763 0)
(0.165465 -0.0687476 0)
(0.183733 -0.0784992 0)
(0.204929 -0.0887526 0)
(0.228668 -0.0989808 0)
(0.254365 -0.108649 0)
(0.281371 -0.117318 0)
(0.309063 -0.124689 0)
(0.336904 -0.130601 0)
(0.364462 -0.135012 0)
(0.3914 -0.137961 0)
(0.417474 -0.139544 0)
(0.442511 -0.139891 0)
(0.466395 -0.139143 0)
(0.489059 -0.137448 0)
(0.510467 -0.134944 0)
(0.530611 -0.131765 0)
(0.549503 -0.128028 0)
(0.567166 -0.123839 0)
(0.583635 -0.119291 0)
(0.59895 -0.114464 0)
(0.613156 -0.109427 0)
(0.626301 -0.104237 0)
(0.638434 -0.0989447 0)
(0.649602 -0.0935895 0)
(0.659856 -0.0882055 0)
(0.669241 -0.0828202 0)
(0.677803 -0.0774563 0)
(0.685589 -0.0721317 0)
(0.692639 -0.0668609 0)
(0.698995 -0.0616551 0)
(0.704696 -0.056523 0)
(0.70978 -0.051471 0)
(0.714282 -0.0465039 0)
(0.718238 -0.0416249 0)
(0.721678 -0.0368356 0)
(0.724636 -0.0321371 0)
(0.727141 -0.0275292 0)
(0.729222 -0.023011 0)
(0.730906 -0.0185812 0)
(0.73222 -0.0142378 0)
(0.733191 -0.0099783 0)
(0.733842 -0.00579993 0)
(0.734199 -0.00169947 0)
(0.734288 0.00232827 0)
(0.734127 0.00628966 0)
(0.73374 0.0101913 0)
(0.73315 0.0140398 0)
(0.732378 0.0178412 0)
(0.731445 0.0216017 0)
(0.730372 0.0253273 0)
(0.729181 0.0290237 0)
(0.72789 0.0326966 0)
(0.726522 0.036351 0)
(0.725094 0.0399916 0)
(0.723628 0.0436224 0)
(0.722142 0.0472469 0)
(0.720655 0.0508675 0)
(0.719183 0.0544857 0)
(0.717744 0.058102 0)
(0.716353 0.0617156 0)
(0.715023 0.0653245 0)
(0.713767 0.0689253 0)
(0.712594 0.0725136 0)
(0.711512 0.0760836 0)
(0.710527 0.0796285 0)
(0.70964 0.0831408 0)
(0.708851 0.0866123 0)
(0.708158 0.0900348 0)
(0.707554 0.0934001 0)
(0.707032 0.0967005 0)
(0.70658 0.0999292 0)
(0.706187 0.103081 0)
(0.70584 0.106155 0)
(0.0988332 -0.00959081 0)
(0.102296 -0.0190974 0)
(0.106675 -0.0274103 0)
(0.112118 -0.0350657 0)
(0.119064 -0.0424858 0)
(0.127779 -0.0501437 0)
(0.1387 -0.0585695 0)
(0.152421 -0.0681727 0)
(0.169418 -0.0790451 0)
(0.189811 -0.090888 0)
(0.213297 -0.103108 0)
(0.239259 -0.11501 0)
(0.266947 -0.125972 0)
(0.295618 -0.13554 0)
(0.324621 -0.143445 0)
(0.353431 -0.14958 0)
(0.381646 -0.15396 0)
(0.408973 -0.156678 0)