/*--------------------------------*- C++ -*----------------------------------*\
  =========                 |
  \\      /  F ield         | OpenFOAM: The Open Source CFD Toolbox
   \\    /   O peration     | Website:  https://openfoam.org
    \\  /    A nd           | Version:  7
     \\/     M anipulation  |
\*---------------------------------------------------------------------------*/
FoamFile
{
    version     2.0;
    format      ascii;
    class       surfaceScalarField;
    location    "6.57";
    object      phi;
}
// * * * * * * * * * * * * * * * * * * * * * * * * * * * * * * * * * * * * * //

dimensions      [1 0 -1 0 0 0 0];

internalField   nonuniform List<scalar> 
23692
(
1.19089e-05
-2.74382e-07
1.23805e-05
-4.71364e-07
1.30171e-05
-6.36166e-07
1.37925e-05
-7.74858e-07
1.46879e-05
-8.94678e-07
1.56895e-05
-1.00077e-06
1.67874e-05
-1.09696e-06
1.79746e-05
-1.18613e-06
1.9246e-05
-1.2702e-06
2.05975e-05
-1.35018e-06
2.20251e-05
-1.42621e-06
2.35242e-05
-1.4977e-06
2.50893e-05
-1.56354e-06
2.67133e-05
-1.62227e-06
2.83874e-05
-1.67243e-06
3.01018e-05
-1.71266e-06
3.18456e-05
-1.74194e-06
3.3607e-05
-1.75963e-06
3.53745e-05
-1.76553e-06
3.71362e-05
-1.75985e-06
3.88813e-05
-1.74314e-06
4.05996e-05
-1.71623e-06
4.22817e-05
-1.68015e-06
4.39198e-05
-1.63605e-06
4.55069e-05
-1.58512e-06
4.70375e-05
-1.52856e-06
4.85071e-05
-1.4675e-06
4.99121e-05
-1.40302e-06
5.12502e-05
-1.33608e-06
5.25198e-05
-1.26757e-06
5.37201e-05
-1.19824e-06
5.48508e-05
-1.12876e-06
5.59125e-05
-1.0597e-06
5.6906e-05
-9.91527e-07
5.78326e-05
-9.24633e-07
5.86938e-05
-8.59338e-07
5.94916e-05
-7.95895e-07
6.02279e-05
-7.345e-07
6.09051e-05
-6.75303e-07
6.15252e-05
-6.18409e-07
6.20908e-05
-5.63887e-07
6.26043e-05
-5.11778e-07
6.3068e-05
-4.62093e-07
6.34843e-05
-4.14823e-07
6.38558e-05
-3.69937e-07
6.41846e-05
-3.27391e-07
6.44731e-05
-2.87123e-07
6.47234e-05
-2.49056e-07
6.49377e-05
-2.13104e-07
6.5118e-05
-1.79168e-07
6.52662e-05
-1.47136e-07
6.5384e-05
-1.16886e-07
6.54731e-05
-8.82836e-08
6.55351e-05
-6.11818e-08
6.55712e-05
-3.54219e-08
6.55826e-05
-1.08315e-08
6.55703e-05
1.27609e-08
6.55351e-05
3.55322e-08
6.54777e-05
5.76862e-08
6.53984e-05
7.94611e-08
6.52973e-05
1.01126e-07
6.51743e-05
1.22985e-07
6.50287e-05
1.45386e-07
6.48598e-05
1.68731e-07
6.46659e-05
1.93492e-07
6.44452e-05
2.20234e-07
6.4195e-05
2.49649e-07
6.39118e-05
2.826e-07
6.35909e-05
3.20194e-07
6.32262e-05
3.63895e-07
6.28097e-05
4.15698e-07
6.23303e-05
4.78423e-07
6.17731e-05
5.56211e-07
6.11167e-05
6.55406e-07
6.03295e-05
7.86183e-07
5.93627e-05
9.65658e-07
5.81375e-05
1.2241e-06
5.65181e-05
1.61826e-06
5.42511e-05
2.26593e-06
5.0788e-05
3.46195e-06
6.48787e-06
4.42991e-05
1.27336e-05
-5.59446e-07
1.32349e-05
-9.72423e-07
1.39135e-05
-1.31435e-06
1.47409e-05
-1.60158e-06
1.56968e-05
-1.8499e-06
1.67667e-05
-2.06975e-06
1.79398e-05
-2.26908e-06
1.92087e-05
-2.4539e-06
2.0568e-05
-2.62821e-06
2.20133e-05
-2.7941e-06
2.35405e-05
-2.95188e-06
2.51447e-05
-3.10033e-06
2.68199e-05
-3.23712e-06
2.85587e-05
-3.35926e-06
3.03517e-05
-3.46363e-06
3.21884e-05
-3.54745e-06
3.40569e-05
-3.60854e-06
3.59448e-05
-3.64558e-06
3.78395e-05
-3.65814e-06
3.97283e-05
-3.64663e-06
4.15995e-05
-3.61221e-06
4.3442e-05
-3.55659e-06
4.52459e-05
-3.48193e-06
4.70026e-05
-3.39059e-06
4.87047e-05
-3.28506e-06
5.03462e-05
-3.16782e-06
5.19221e-05
-3.04124e-06
5.34288e-05
-2.90755e-06
5.48637e-05
-2.76877e-06
5.6225e-05
-2.62671e-06
5.75119e-05
-2.48296e-06
5.87241e-05
-2.33889e-06
5.98622e-05
-2.19569e-06
6.09271e-05
-2.05433e-06
6.19202e-05
-1.91562e-06
6.28431e-05
-1.78023e-06
6.36979e-05
-1.64867e-06
6.44868e-05
-1.52137e-06
6.5212e-05
-1.39861e-06
6.58761e-05
-1.28063e-06
6.64816e-05
-1.16755e-06
6.70311e-05
-1.05948e-06
6.75271e-05
-9.56418e-07
6.79723e-05
-8.58357e-07
6.83692e-05
-7.65229e-07
6.87203e-05
-6.76938e-07
6.9028e-05
-5.93356e-07
6.92946e-05
-5.14325e-07
6.95225e-05
-4.39663e-07
6.97136e-05
-3.69164e-07
6.98702e-05
-3.02597e-07
6.99941e-05
-2.39707e-07
7.00869e-05
-1.80215e-07
7.01504e-05
-1.23819e-07
7.01859e-05
-7.01889e-08
7.01946e-05
-1.89693e-08
7.01777e-05
3.01909e-08
7.01359e-05
7.76556e-08
7.00701e-05
1.23847e-07
6.99804e-05
1.69252e-07
6.98672e-05
2.1442e-07
6.97302e-05
2.59969e-07
6.95688e-05
3.06603e-07
6.93821e-05
3.55132e-07
6.91687e-05
4.06503e-07
6.89266e-05
4.61843e-07
6.86532e-05
5.22517e-07
6.83449e-05
5.90217e-07
6.79973e-05
6.67087e-07
6.76044e-05
7.55916e-07
6.71587e-05
8.60441e-07
6.66504e-05
9.85813e-07
6.60662e-05
1.13936e-06
6.53886e-05
1.33187e-06
6.4594e-05
1.57969e-06
6.365e-05
1.90845e-06
6.25136e-05
2.35937e-06
6.11304e-05
3.0002e-06
5.9448e-05
3.94711e-06
5.75052e-05
5.40363e-06
7.64491e-06
5.6347e-05
1.36122e-05
-8.52408e-07
1.41415e-05
-1.50144e-06
1.48611e-05
-2.03347e-06
1.57408e-05
-2.48066e-06
1.67589e-05
-2.86717e-06
1.78994e-05
-3.20932e-06
1.91509e-05
-3.51957e-06
2.05056e-05
-3.80731e-06
2.19576e-05
-4.07884e-06
2.35024e-05
-4.33744e-06
2.51357e-05
-4.58362e-06
2.68526e-05
-4.81549e-06
2.86466e-05
-5.02937e-06
3.05098e-05
-5.22057e-06
3.24323e-05
-5.38419e-06
3.44027e-05
-5.51581e-06
3.64083e-05
-5.61201e-06
3.84355e-05
-5.67066e-06
4.04706e-05
-5.69107e-06
4.25e-05
-5.67385e-06
4.45108e-05
-5.6208e-06
4.64911e-05
-5.53463e-06
4.84302e-05
-5.41865e-06
5.03185e-05
-5.27662e-06
5.21482e-05
-5.1124e-06
5.39126e-05
-4.92988e-06
5.56064e-05
-4.73277e-06
5.72258e-05
-4.52455e-06
5.87677e-05
-4.30838e-06
6.02304e-05
-4.08709e-06
6.16129e-05
-3.86317e-06
6.29151e-05
-3.63877e-06
6.41374e-05
-3.41571e-06
6.52808e-05
-3.19552e-06
6.63469e-05
-2.97947e-06
6.73375e-05
-2.76859e-06
6.82546e-05
-2.56368e-06
6.91008e-05
-2.36539e-06
6.98784e-05
-2.17418e-06
7.05902e-05
-1.99039e-06
7.12388e-05
-1.81425e-06
7.18271e-05
-1.64586e-06
7.23578e-05
-1.48528e-06
7.28337e-05
-1.33246e-06
7.32575e-05
-1.1873e-06
7.36318e-05
-1.04964e-06
7.39593e-05
-9.19289e-07
7.42425e-05
-7.95994e-07
7.44836e-05
-6.79469e-07
7.46852e-05
-5.69392e-07
7.48492e-05
-4.65403e-07
7.49777e-05
-3.67104e-07
7.50725e-05
-2.74064e-07
7.51354e-05
-1.8581e-07
7.51678e-05
-1.01833e-07
7.5171e-05
-2.1586e-08
7.51463e-05
5.54639e-08
7.50945e-05
1.29878e-07
7.50164e-05
2.02309e-07
7.49123e-05
2.73502e-07
7.47825e-05
3.44286e-07
7.46268e-05
4.15594e-07
7.44448e-05
4.88475e-07
7.42355e-05
5.64132e-07
7.39976e-05
6.43959e-07
7.37294e-05
7.29594e-07
7.34283e-05
8.22998e-07
7.30912e-05
9.2656e-07
7.27142e-05
1.04325e-06
7.22924e-05
1.17685e-06
7.18196e-05
1.33225e-06
7.12884e-05
1.51597e-06
7.06898e-05
1.73683e-06
7.00135e-05
2.00699e-06
6.92485e-05
2.3435e-06
6.83854e-05
2.77037e-06
6.74222e-05
3.32126e-06
6.6379e-05
4.04213e-06
6.53329e-05
4.99193e-06
6.45059e-05
6.22934e-06
7.73824e-06
6.44114e-05
1.455e-05
-1.15174e-06
1.51052e-05
-2.05635e-06
1.58649e-05
-2.79263e-06
1.67972e-05
-3.4123e-06
1.78786e-05
-3.94777e-06
1.90921e-05
-4.42174e-06
2.04253e-05
-4.85161e-06
2.18698e-05
-5.25051e-06
2.34197e-05
-5.62724e-06
2.50703e-05
-5.98644e-06
2.68172e-05
-6.32887e-06
2.86554e-05
-6.65187e-06
3.05783e-05
-6.95031e-06
3.25773e-05
-7.21758e-06
3.46419e-05
-7.44674e-06
3.67598e-05
-7.63154e-06
3.89171e-05
-7.76709e-06
4.10991e-05
-7.85038e-06
4.32907e-05
-7.88034e-06
4.54771e-05
-7.85783e-06
4.7644e-05
-7.78532e-06
4.97784e-05
-7.66658e-06
5.18685e-05
-7.50626e-06
5.39039e-05
-7.3096e-06
5.5876e-05
-7.08201e-06
5.77776e-05
-6.82893e-06
5.96029e-05
-6.55553e-06
6.13475e-05
-6.26668e-06
6.30084e-05
-5.96679e-06
6.45836e-05
-5.65979e-06
6.60721e-05
-5.34915e-06
6.74736e-05
-5.03786e-06
6.87888e-05
-4.72845e-06
7.00187e-05
-4.42305e-06
7.1165e-05
-4.1234e-06
7.22297e-05
-3.83094e-06
7.32151e-05
-3.54678e-06
7.41238e-05
-3.27179e-06
7.49585e-05
-3.00662e-06
7.5722e-05
-2.75174e-06
7.64173e-05
-2.50745e-06
7.70474e-05
-2.2739e-06
7.76152e-05
-2.05113e-06
7.81237e-05
-1.8391e-06
7.85759e-05
-1.63765e-06
7.89746e-05
-1.44656e-06
7.93225e-05
-1.26556e-06
7.96224e-05
-1.09428e-06
7.98768e-05
-9.32347e-07
8.00881e-05
-7.79294e-07
8.02586e-05
-6.34626e-07
8.03904e-05
-4.97795e-07
8.04856e-05
-3.68203e-07
8.0546e-05
-2.452e-07
8.0573e-05
-1.28084e-07
8.05683e-05
-1.61198e-08
8.05329e-05
9.14012e-08
8.0468e-05
1.95259e-07
8.03743e-05
2.96342e-07
8.02524e-05
3.95646e-07
8.01025e-05
4.94278e-07
7.99245e-05
5.93461e-07
7.97183e-05
6.94568e-07
7.9483e-05
7.99149e-07
7.92175e-05
9.08975e-07
7.89205e-05
1.0261e-06
7.85899e-05
1.15293e-06
7.82234e-05
1.29233e-06
7.7818e-05
1.44777e-06
7.73704e-05
1.62351e-06
7.68767e-05
1.82485e-06
7.63331e-05
2.05845e-06
7.5736e-05
2.33279e-06
7.50831e-05
2.65862e-06
7.43758e-05
3.04951e-06
7.36227e-05
3.52212e-06
7.28468e-05
4.09583e-06
7.20969e-05
4.79066e-06
7.1466e-05
5.62147e-06
7.11099e-05
6.58413e-06
7.62254e-06
7.12242e-05
1.55521e-05
-1.45678e-06
1.61317e-05
-2.63563e-06
1.69307e-05
-3.5911e-06
1.79158e-05
-4.3967e-06
1.90619e-05
-5.09299e-06
2.03506e-05
-5.70935e-06
2.17688e-05
-6.26861e-06
2.33077e-05
-6.78799e-06
2.49612e-05
-7.27913e-06
2.67247e-05
-7.74822e-06
2.85939e-05
-8.19629e-06
3.05639e-05
-8.61987e-06
3.26278e-05
-9.01213e-06
3.47766e-05
-9.36425e-06
3.6999e-05
-9.66696e-06
3.92816e-05
-9.91181e-06
4.16092e-05
-1.00922e-05
4.39653e-05
-1.02041e-05
4.63334e-05
-1.02459e-05
4.86968e-05
-1.02187e-05
5.10399e-05
-1.01259e-05
5.33482e-05
-9.97222e-06
5.56086e-05
-9.76397e-06
5.78096e-05
-9.50801e-06
5.99418e-05
-9.21151e-06
6.19972e-05
-8.88162e-06
6.39695e-05
-8.52517e-06
6.5854e-05
-8.14853e-06
6.76475e-05
-7.75752e-06
6.93476e-05
-7.35729e-06
7.09535e-05
-6.95236e-06
7.24649e-05
-6.54665e-06
7.38825e-05
-6.14345e-06
7.52076e-05
-5.74554e-06
7.6442e-05
-5.35519e-06
7.75878e-05
-4.97424e-06
7.86476e-05
-4.60414e-06
7.96243e-05
-4.24602e-06
8.05207e-05
-3.90071e-06
8.13401e-05
-3.5688e-06
8.20856e-05
-3.25066e-06
8.27604e-05
-2.94649e-06
8.33677e-05
-2.65634e-06
8.39108e-05
-2.38012e-06
8.43927e-05
-2.11763e-06
8.48166e-05
-1.86858e-06
8.51855e-05
-1.63259e-06
8.55021e-05
-1.4092e-06
8.57692e-05
-1.1979e-06
8.59895e-05
-9.98092e-07
8.61654e-05
-8.09128e-07
8.62992e-05
-6.30299e-07
8.63929e-05
-4.60833e-07
8.64486e-05
-2.99892e-07
8.6468e-05
-1.46575e-07
8.64526e-05
3.53402e-11
8.64039e-05
1.40791e-07
8.63229e-05
2.7675e-07
8.62106e-05
4.09009e-07
8.60677e-05
5.38811e-07
8.58945e-05
6.6751e-07
8.56914e-05
7.96592e-07
8.5458e-05
9.27698e-07
8.51942e-05
1.06265e-06
8.48993e-05
1.20351e-06
8.45722e-05
1.35258e-06
8.42119e-05
1.51253e-06
8.3817e-05
1.68642e-06
8.33861e-05
1.87782e-06
8.29177e-05
2.09091e-06
8.24108e-05
2.33062e-06
8.18653e-05
2.60276e-06
8.12828e-05
2.91407e-06
8.06678e-05
3.27226e-06
8.00302e-05
3.68575e-06
7.93879e-05
4.163e-06
7.87713e-05
4.71101e-06
7.8228e-05
5.33257e-06
7.78263e-05
6.02166e-06
7.76528e-05
6.75623e-06
7.48681e-06
7.77871e-05
1.66236e-05
-1.76763e-06
1.72268e-05
-3.23845e-06
1.80648e-05
-4.42861e-06
1.91032e-05
-5.43433e-06
2.03155e-05
-6.30432e-06
2.16821e-05
-7.07476e-06
2.31892e-05
-7.77435e-06
2.48276e-05
-8.42489e-06
2.65914e-05
-9.04122e-06
2.84763e-05
-9.6313e-06
3.04785e-05
-1.01965e-05
3.25932e-05
-1.07324e-05
3.48134e-05
-1.12302e-05
3.71299e-05
-1.16784e-05
3.95302e-05
-1.20649e-05
4.19995e-05
-1.23786e-05
4.45207e-05
-1.26109e-05
4.70755e-05
-1.27563e-05
4.96451e-05
-1.28128e-05
5.22108e-05
-1.27817e-05
5.47549e-05
-1.26672e-05
5.72611e-05
-1.24756e-05
5.97148e-05
-1.22149e-05
6.21035e-05
-1.18938e-05
6.44164e-05
-1.15216e-05
6.66449e-05
-1.11072e-05
6.87822e-05
-1.06596e-05
7.08231e-05
-1.01866e-05
7.27642e-05
-9.69569e-06
7.46031e-05
-9.19336e-06
7.63389e-05
-8.6853e-06
7.79715e-05
-8.17642e-06
7.95017e-05
-7.67086e-06
8.0931e-05
-7.17207e-06
8.22615e-05
-6.68289e-06
8.34956e-05
-6.20561e-06
8.46361e-05
-5.74202e-06
8.56862e-05
-5.2935e-06
8.66491e-05
-4.86109e-06
8.75283e-05
-4.44548e-06
8.83272e-05
-4.04714e-06
8.90494e-05
-3.66628e-06
8.96983e-05
-3.30294e-06
9.02774e-05
-2.95701e-06
9.07901e-05
-2.62821e-06
9.12397e-05
-2.31617e-06
9.16294e-05
-2.02041e-06
9.19624e-05
-1.74034e-06
9.22415e-05
-1.47531e-06
9.24696e-05
-1.22458e-06
9.26493e-05
-9.87346e-07
9.27831e-05
-7.62727e-07
9.28733e-05
-5.49768e-07
9.29219e-05
-3.47443e-07
9.2931e-05
-1.54648e-07
9.29022e-05
2.96933e-08
9.2837e-05
2.06644e-07
9.27369e-05
3.77443e-07
9.26028e-05
5.43437e-07
9.24358e-05
7.06084e-07
9.22365e-05
8.66953e-07
9.20053e-05
1.02774e-06
9.17426e-05
1.19028e-06
9.14483e-05
1.35659e-06
9.11225e-05
1.52886e-06
9.0765e-05
1.70951e-06
9.03756e-05
1.90122e-06
8.99542e-05
2.10697e-06
8.9501e-05
2.33005e-06
8.90167e-05
2.5741e-06
8.85031e-05
2.84311e-06
8.79632e-05
3.14136e-06
8.74027e-05
3.47328e-06
8.68304e-05
3.84316e-06
8.62601e-05
4.2546e-06
8.5712e-05
4.70966e-06
8.5214e-05
5.20749e-06
8.48025e-05
5.74247e-06
8.45208e-05
6.30185e-06
8.44124e-05
6.86308e-06
7.39183e-06
8.45059e-05
1.77701e-05
-2.08506e-06
1.83967e-05
-3.86474e-06
1.92742e-05
-5.30552e-06
2.0367e-05
-6.52623e-06
2.16475e-05
-7.58378e-06
2.30951e-05
-8.52115e-06
2.46956e-05
-9.37338e-06
2.64398e-05
-1.01674e-05
2.8322e-05
-1.09217e-05
3.0339e-05
-1.16463e-05
3.24877e-05
-1.2343e-05
3.47637e-05
-1.30062e-05
3.71605e-05
-1.36246e-05
3.96679e-05
-1.41833e-05
4.22722e-05
-1.46667e-05
4.49567e-05
-1.50604e-05
4.77018e-05
-1.53532e-05
5.04864e-05
-1.55381e-05
5.32889e-05
-1.56124e-05
5.60879e-05
-1.55777e-05
5.88631e-05
-1.54395e-05
6.15962e-05
-1.52056e-05
6.42706e-05
-1.48863e-05
6.68724e-05
-1.44925e-05
6.93898e-05
-1.40358e-05
7.18132e-05
-1.35275e-05
7.41353e-05
-1.29786e-05
7.63507e-05
-1.23989e-05
7.84557e-05
-1.17976e-05
8.04481e-05
-1.11827e-05
8.2327e-05
-1.05611e-05
8.40925e-05
-9.93888e-06
8.57457e-05
-9.32104e-06
8.72884e-05
-8.71178e-06
8.8723e-05
-8.11451e-06
9.00523e-05
-7.532e-06
9.12795e-05
-6.96639e-06
9.24082e-05
-6.41933e-06
9.34419e-05
-5.89203e-06
9.43844e-05
-5.38531e-06
9.52395e-05
-4.89968e-06
9.60112e-05
-4.4354e-06
9.67032e-05
-3.99247e-06
9.73193e-05
-3.57072e-06
9.78631e-05
-3.16981e-06
9.83384e-05
-2.78926e-06
9.87485e-05
-2.42846e-06
9.90969e-05
-2.08671e-06
9.93866e-05
-1.76319e-06
9.96208e-05
-1.45701e-06
9.98023e-05
-1.1672e-06
9.99337e-05
-8.92689e-07
0.000100018
-6.32351e-07
0.000100056
-3.84967e-07
0.000100052
-1.49242e-07
0.000100007
7.60732e-08
9.99217e-05
2.9222e-07
9.97991e-05
5.00639e-07
9.96401e-05
7.02893e-07
9.94459e-05
9.00626e-07
9.92174e-05
1.09557e-06
9.89556e-05
1.28957e-06
9.86611e-05
1.48458e-06
9.83347e-05
1.68268e-06
9.7977e-05
1.88608e-06
9.75888e-05
2.09714e-06
9.71709e-05
2.31835e-06
9.67247e-05
2.55234e-06
9.62519e-05
2.80185e-06
9.57552e-05
3.06969e-06
9.52385e-05
3.35862e-06
9.47073e-05
3.67123e-06
9.41695e-05
4.00969e-06
9.36358e-05
4.37538e-06
9.31205e-05
4.76839e-06
9.26417e-05
5.18687e-06
9.22214e-05
5.62619e-06
9.18842e-05
6.07809e-06
9.16546e-05
6.52984e-06
9.1552e-05
6.96396e-06
7.35914e-06
9.15831e-05
1.89971e-05
-2.4103e-06
1.96479e-05
-4.51516e-06
2.05661e-05
-6.22303e-06
2.17149e-05
-7.67421e-06
2.30664e-05
-8.93413e-06
2.45992e-05
-1.00526e-05
2.62987e-05
-1.10714e-05
2.81563e-05
-1.20233e-05
3.01676e-05
-1.2931e-05
3.23305e-05
-1.38071e-05
3.46434e-05
-1.46537e-05
3.71031e-05
-1.54635e-05
3.97029e-05
-1.62219e-05
4.2432e-05
-1.69097e-05
4.52748e-05
-1.75067e-05
4.82115e-05
-1.79942e-05
5.12191e-05
-1.83579e-05
5.42727e-05
-1.85887e-05
5.73469e-05
-1.86835e-05
6.04168e-05
-1.86445e-05
6.3459e-05
-1.84785e-05
6.64526e-05
-1.81959e-05
6.9379e-05
-1.78094e-05
7.22225e-05
-1.73327e-05
7.49704e-05
-1.67803e-05
7.76122e-05
-1.61661e-05
8.01404e-05
-1.55034e-05
8.25492e-05
-1.48044e-05
8.4835e-05
-1.40801e-05
8.69957e-05
-1.33401e-05
8.90307e-05
-1.25928e-05
9.09406e-05
-1.18455e-05
9.27268e-05
-1.1104e-05
9.43915e-05
-1.03733e-05
9.59376e-05
-9.65747e-06
9.73685e-05
-8.95973e-06
9.86878e-05
-8.28258e-06
9.98994e-05
-7.6279e-06
0.000101007
-6.99709e-06
0.000102016
-6.39106e-06
0.00010293
-5.81038e-06
0.000103752
-5.25529e-06
0.000104488
-4.72577e-06
0.000105142
-4.22155e-06
0.000105716
-3.74222e-06
0.000106217
-3.28716e-06
0.000106646
-2.85563e-06
0.000107008
-2.44678e-06
0.000107307
-2.05963e-06
0.000107545
-1.69313e-06
0.000107725
-1.34612e-06
0.000107852
-1.01735e-06
0.000107926
-7.05517e-07
0.000107952
-4.09212e-07
0.000107931
-1.26972e-07
0.000107865
1.42629e-07
0.000107757
4.01e-07
0.000107609
6.49791e-07
0.000107421
8.9074e-07
0.000107197
1.12564e-06
0.000106936
1.35632e-06
0.000106641
1.58471e-06
0.000106313
1.81279e-06
0.000105953
2.04261e-06
0.000105562
2.27627e-06
0.000105142
2.51591e-06
0.000104696
2.7637e-06
0.000104226
3.02176e-06
0.000103735
3.29214e-06
0.000103227
3.57671e-06
0.000102707
3.87702e-06
0.000102183
4.19416e-06
0.000101662
4.52851e-06
0.000101157
4.87944e-06
0.000100679
5.24502e-06
0.000100242
5.62161e-06
9.98631e-05
6.00354e-06
9.95566e-05
6.38289e-06
9.93353e-05
6.74945e-06
9.92063e-05
7.0912e-06
7.3957e-06
9.9168e-05
2.03105e-05
-2.74502e-06
2.0987e-05
-5.19118e-06
2.19478e-05
-7.18313e-06
2.31555e-05
-8.88099e-06
2.45817e-05
-1.03591e-05
2.62048e-05
-1.16742e-05
2.80107e-05
-1.28755e-05
2.99918e-05
-1.40025e-05
3.21458e-05
-1.50829e-05
3.44731e-05
-1.61321e-05
3.69744e-05
-1.71525e-05
3.96477e-05
-1.81342e-05
4.24866e-05
-1.9058e-05
4.54785e-05
-1.98987e-05
4.86046e-05
-2.06298e-05
5.1841e-05
-2.12274e-05
5.51595e-05
-2.16732e-05
5.85302e-05
-2.19561e-05
6.19225e-05
-2.20724e-05
6.53072e-05
-2.20258e-05
6.86573e-05
-2.18252e-05
7.19488e-05
-2.1484e-05
7.51611e-05
-2.10181e-05
7.82769e-05
-2.0445e-05
8.12823e-05
-1.97822e-05
8.41666e-05
-1.90468e-05
8.69219e-05
-1.8255e-05
8.95425e-05
-1.74214e-05
9.20251e-05
-1.6559e-05
9.4368e-05
-1.56794e-05
9.65712e-05
-1.47924e-05
9.86357e-05
-1.39064e-05
0.000100564
-1.30284e-05
0.000102358
-1.2164e-05
0.000104022
-1.1318e-05
0.000105559
-1.04939e-05
0.000106975
-9.69473e-06
0.000108273
-8.92252e-06
0.000109458
-8.1788e-06
0.000110534
-7.46458e-06
0.000111507
-6.78044e-06
0.000112382
-6.12659e-06
0.000113162
-5.50292e-06
0.000113852
-4.90911e-06
0.000114457
-4.34458e-06
0.000114981
-3.8086e-06
0.000115428
-3.30027e-06
0.000115802
-2.81856e-06
0.000116107
-2.36233e-06
0.000116346
-1.93035e-06
0.000116523
-1.52127e-06
0.000116641
-1.13367e-06
0.000116703
-7.66041e-07
0.000116713
-4.16815e-07
0.000116671
-8.44009e-08
0.000116582
2.32802e-07
0.000116448
5.36403e-07
0.00011627
8.28249e-07
0.000116051
1.1102e-06
0.000115793
1.38414e-06
0.000115498
1.65197e-06
0.000115167
1.9156e-06
0.000114803
2.17698e-06
0.000114407
2.43802e-06
0.000113982
2.70064e-06
0.000113531
2.96667e-06
0.000113056
3.23786e-06
0.000112561
3.51579e-06
0.00011205
3.8018e-06
0.000111529
4.0969e-06
0.000111003
4.40166e-06
0.00011048
4.71604e-06
0.000109967
5.03929e-06
0.000109475
5.36968e-06
0.000109014
5.70446e-06
0.000108595
6.03964e-06
0.000108226
6.36999e-06
0.000107918
6.6891e-06
0.000107676
6.98968e-06
0.000107502
7.26402e-06
7.50523e-06
0.00010739
2.17165e-05
-3.09114e-06
2.24208e-05
-5.89497e-06
2.34271e-05
-8.18874e-06
2.46975e-05
-1.01503e-05
2.62034e-05
-1.18638e-05
2.79237e-05
-1.33929e-05
2.98454e-05
-1.47954e-05
3.19634e-05
-1.61185e-05
3.42789e-05
-1.73962e-05
3.67961e-05
-1.86469e-05
3.95188e-05
-1.98726e-05
4.24469e-05
-2.10594e-05
4.5573e-05
-2.21812e-05
4.88817e-05
-2.32043e-05
5.23491e-05
-2.4094e-05
5.59445e-05
-2.48195e-05
5.96329e-05
-2.53581e-05
6.33772e-05
-2.56968e-05
6.71407e-05
-2.58324e-05
7.08891e-05
-2.57704e-05
7.45911e-05
-2.55235e-05
7.82197e-05
-2.51089e-05
8.17524e-05
-2.45469e-05
8.51705e-05
-2.38592e-05
8.84595e-05
-2.30674e-05
9.16087e-05
-2.21921e-05
9.46101e-05
-2.12525e-05
9.74587e-05
-2.02661e-05
0.000100152
-1.92483e-05
0.000102689
-1.82123e-05
0.000105069
-1.71695e-05
0.000107297
-1.61297e-05
0.000109373
-1.51008e-05
0.000111302
-1.40892e-05
0.000113088
-1.31002e-05
0.000114735
-1.21379e-05
0.00011625
-1.12054e-05
0.000117636
-1.0305e-05
0.000118899
-9.43835e-06
0.000120044
-8.60649e-06
0.000121077
-7.80998e-06
0.000122002
-7.04896e-06
0.000122826
-6.32322e-06
0.000123552
-5.6323e-06
0.000124186
-4.97549e-06
0.000124732
-4.35187e-06
0.000125195
-3.76039e-06
0.000125578
-3.19982e-06
0.000125887
-2.66885e-06
0.000126125
-2.16604e-06
0.000126296
-1.68987e-06
0.000126403
-1.23872e-06
0.000126449
-8.10917e-07
0.000126439
-4.04685e-07
0.000126374
-1.84506e-08
0.000126259
3.49574e-07
0.000126095
7.01364e-07
0.000125885
1.03885e-06
0.000125632
1.36398e-06
0.000125338
1.67865e-06
0.000125006
1.98478e-06
0.000124637
2.28424e-06
0.000124235
2.57885e-06
0.000123803
2.87038e-06
0.000123342
3.16047e-06
0.000122858
3.45063e-06
0.000122353
3.74219e-06
0.000121831
4.0362e-06
0.000121299
4.33344e-06
0.00012076
4.63425e-06
0.000120222
4.93852e-06
0.000119691
5.24555e-06
0.000119175
5.55402e-06
0.000118681
5.86188e-06
0.000118217
6.16631e-06
0.000117791
6.46379e-06
0.000117409
6.75015e-06
0.000117076
7.02073e-06
0.000116793
7.27068e-06
0.00011656
7.49539e-06
7.6913e-06
0.000116372
2.32214e-05
-3.45088e-06
2.39564e-05
-6.62948e-06
2.50122e-05
-9.2437e-06
2.63502e-05
-1.14873e-05
2.79425e-05
-1.34546e-05
2.97689e-05
-1.52176e-05
3.18192e-05
-1.68437e-05
3.40927e-05
-1.83897e-05
3.65958e-05
-1.98968e-05
3.93384e-05
-2.13868e-05
4.23285e-05
-2.28598e-05
4.5567e-05
-2.42949e-05
4.90446e-05
-2.56556e-05
5.27399e-05
-2.68962e-05
5.66206e-05
-2.79712e-05
6.06466e-05
-2.88419e-05
6.47731e-05
-2.94809e-05
6.89542e-05
-2.98741e-05
7.31462e-05
-3.00204e-05
7.73087e-05
-2.99289e-05
8.14066e-05
-2.96173e-05
8.54102e-05
-2.91083e-05
8.92951e-05
-2.84278e-05
9.30424e-05
-2.76023e-05
9.66374e-05
-2.66582e-05
0.00010007
-2.56201e-05
0.000103332
-2.45109e-05
0.000106421
-2.33507e-05
0.000109334
-2.21574e-05
0.000112072
-2.09462e-05
0.000114637
-1.97301e-05
0.000117031
-1.85199e-05
0.000119259
-1.73246e-05
0.000121325
-1.61513e-05
0.000123235
-1.50058e-05
0.000124994
-1.38925e-05
0.000126607
-1.28148e-05
0.000128081
-1.17751e-05
0.000129421
-1.07752e-05
0.000130635
-9.81591e-06
0.000131726
-8.89785e-06
0.000132702
-8.02102e-06
0.000133567
-7.18507e-06
0.000134327
-6.38937e-06
0.000134988
-5.63302e-06
0.000135554
-4.91494e-06
0.00013603
-4.23384e-06
0.000136421
-3.58833e-06
0.000136732
-2.97687e-06
0.000136966
-2.39783e-06
0.000137128
-1.84952e-06
0.000137222
-1.33015e-06
0.000137251
-8.3786e-07
0.000137219
-3.70766e-07
0.000137129
7.29346e-08
0.000136985
4.95149e-07
0.000136789
8.98009e-07
0.000136545
1.28358e-06
0.000136256
1.65385e-06
0.000135925
2.01075e-06
0.000135554
2.35614e-06
0.000135147
2.69182e-06
0.000134706
3.01948e-06
0.000134235
3.34067e-06
0.000133739
3.6568e-06
0.00013322
3.96907e-06
0.000132683
4.27843e-06
0.000132133
4.58557e-06
0.000131574
4.89081e-06
0.000131013
5.19412e-06
0.000130455
5.49501e-06
0.000129907
5.79253e-06
0.000129374
6.08524e-06
0.000128863
6.37123e-06
0.00012838
6.64811e-06
0.000127928
6.91315e-06
0.000127513
7.16334e-06
0.000127137
7.39558e-06
0.000126799
7.60689e-06
0.000126497
7.79472e-06
7.95752e-06
0.000126229
2.48321e-05
-3.82667e-06
2.56016e-05
-7.39838e-06
2.67116e-05
-1.03529e-05
2.81238e-05
-1.28982e-05
2.98109e-05
-1.51402e-05
3.17556e-05
-1.71605e-05
3.39523e-05
-1.90383e-05
3.64071e-05
-2.08422e-05
3.9135e-05
-2.2622e-05
4.21531e-05
-2.4402e-05
4.54739e-05
-2.61775e-05
4.9098e-05
-2.79157e-05
5.301e-05
-2.95641e-05
5.71786e-05
-3.10611e-05
6.15586e-05
-3.23474e-05
6.60966e-05
-3.33759e-05
7.07356e-05
-3.41158e-05
7.54196e-05
-3.4554e-05
8.00967e-05
-3.46933e-05
8.47214e-05
-3.45493e-05
8.92549e-05
-3.41465e-05
9.36657e-05
-3.35148e-05
9.7929e-05
-3.26865e-05
0.000102026
-3.16946e-05
0.000105942
-3.05703e-05
0.00010967
-2.93429e-05
0.000113202
-2.80388e-05
0.000116537
-2.66812e-05
0.000119675
-2.52904e-05
0.000122617
-2.38835e-05
0.000125366
-2.24751e-05
0.000127928
-2.10769e-05
0.000130307
-1.96989e-05
0.000132509
-1.83488e-05
0.00013454
-1.70328e-05
0.000136408
-1.57556e-05
0.000138118
-1.45206e-05
0.000139677
-1.33305e-05
0.000141093
-1.21867e-05
0.000142371
-1.10902e-05
0.000143518
-1.00414e-05
0.000144541
-9.04017e-06
0.000145446
-8.08592e-06
0.000146238
-7.17783e-06
0.000146923
-6.31479e-06
0.000147507
-5.49548e-06
0.000147995
-4.71841e-06
0.000148391
-3.98196e-06
0.000148702
-3.28439e-06
0.00014893
-2.62387e-06
0.000149082
-1.9985e-06
0.00014916
-1.40635e-06
0.00014917
-8.45426e-07
0.000149115
-3.13706e-07
0.000148999
1.90885e-07
0.000148825
6.70392e-07
0.000148598
1.12703e-06
0.000148319
1.56295e-06
0.000147994
1.98017e-06
0.000147625
2.38061e-06
0.000147216
2.7661e-06
0.000146769
3.13831e-06
0.00014629
3.49881e-06
0.000145782
3.84897e-06
0.000145248
4.18999e-06
0.000144694
4.52283e-06
0.000144124
4.84818e-06
0.000143542
5.16649e-06
0.000142954
5.47785e-06
0.000142365
5.78205e-06
0.00014178
6.07852e-06
0.000141205
6.36635e-06
0.000140644
6.64431e-06
0.000140103
6.91087e-06
0.000139585
7.16427e-06
0.000139094
7.40261e-06
0.000138631
7.62395e-06
0.000138199
7.82643e-06
0.000137795
8.00843e-06
0.000137419
8.16872e-06
8.30695e-06
0.000137068
2.65559e-05
-4.22122e-06
2.73643e-05
-8.20621e-06
2.85348e-05
-1.15224e-05
3.00293e-05
-1.43914e-05
3.18228e-05
-1.6932e-05
3.39025e-05
-1.92382e-05
3.62707e-05
-2.14041e-05
3.89443e-05
-2.35132e-05
4.19499e-05
-2.56247e-05
4.53137e-05
-2.77627e-05
4.90512e-05
-2.99116e-05
5.31585e-05
-3.20194e-05
5.76083e-05
-3.40102e-05
6.23527e-05
-3.58014e-05
6.73284e-05
-3.73191e-05
7.24651e-05
-3.85084e-05
7.76915e-05
-3.93378e-05
8.29408e-05
-3.97988e-05
8.8154e-05
-3.99018e-05
9.3281e-05
-3.96716e-05
9.8281e-05
-3.91417e-05
0.000103122
-3.8351e-05
0.00010778
-3.73396e-05
0.000112237
-3.6147e-05
0.000116482
-3.48104e-05
0.000120508
-3.33637e-05
0.000124311
-3.18369e-05
0.000127891
-3.02563e-05
0.00013125
-2.86444e-05
0.000134392
-2.70203e-05
0.000137321
-2.53997e-05
0.000140045
-2.37955e-05
0.000142569
-2.22182e-05
0.000144901
-2.06761e-05
0.000147048
-1.91756e-05
0.000149019
-1.77215e-05
0.00015082
-1.63174e-05
0.00015246
-1.49657e-05
0.000153946
-1.36679e-05
0.000155285
-1.24248e-05
0.000156484
-1.12364e-05
0.00015755
-1.01024e-05
0.000158491
-9.02215e-06
0.000159311
-7.99441e-06
0.000160018
-7.01786e-06
0.000160617
-6.09092e-06
0.000161114
-5.21186e-06
0.000161514
-4.37883e-06
0.000161823
-3.58985e-06
0.000162045
-2.8429e-06
0.000162185
-2.1359e-06
0.000162248
-1.46674e-06
0.000162238
-8.33283e-07
0.00016216
-2.33411e-07
0.000162018
3.35199e-07
0.000161815
8.74764e-07
0.000161556
1.38759e-06
0.000161245
1.87588e-06
0.000160884
2.34165e-06
0.000160479
2.7868e-06
0.000160033
3.21311e-06
0.000159549
3.62217e-06
0.000159033
4.01542e-06
0.000158488
4.39413e-06
0.000157919
4.75933e-06
0.000157329
5.11183e-06
0.000156725
5.45222e-06
0.00015611
5.78082e-06
0.000155489
6.09768e-06
0.000154867
6.40261e-06
0.000154249
6.69516e-06
0.00015364
6.97464e-06
0.000153042
7.24019e-06
0.000152461
7.49079e-06
0.000151898
7.72532e-06
0.000151356
7.94265e-06
0.000150837
8.14172e-06
0.000150339
8.32161e-06
0.000149864
8.48163e-06
0.00014941
8.62141e-06
8.74132e-06
0.000148973
2.84005e-05
-4.63757e-06
2.92534e-05
-9.05851e-06
3.04921e-05
-1.27601e-05
3.20798e-05
-1.59777e-05
3.39952e-05
-1.88456e-05
3.62336e-05
-2.14743e-05
3.88096e-05
-2.39777e-05
4.17563e-05
-2.6457e-05
4.51151e-05
-2.89803e-05
4.89211e-05
-3.15654e-05
5.31885e-05
-3.41753e-05
5.79007e-05
-3.67277e-05
6.30099e-05
-3.91152e-05
6.84436e-05
-4.12308e-05
7.41153e-05
-4.29863e-05
7.99348e-05
-4.43232e-05
8.58163e-05
-4.52145e-05
9.16833e-05
-4.56609e-05
9.74713e-05
-4.56848e-05
0.000103128
-4.53229e-05
0.000108612
-4.46206e-05
0.000113893
-4.36268e-05
0.000118949
-4.23906e-05
0.000123766
-4.09587e-05
0.000128336
-3.93741e-05
0.000132653
-3.76754e-05
0.000136717
-3.58962e-05
0.000140532
-3.40657e-05
0.000144102
-3.22084e-05
0.000147432
-3.0345e-05
0.00015053
-2.84924e-05
0.000153404
-2.66641e-05
0.000156062
-2.48713e-05
0.000158514
-2.31224e-05
0.000160767
-2.14239e-05
0.000162831
-1.97807e-05
0.000164715
-1.81962e-05
0.000166427
-1.66726e-05
0.000167975
-1.52113e-05
0.000169368
-1.38126e-05
0.000170613
-1.24765e-05
0.000171717
-1.12023e-05
0.000172688
-9.98891e-06
0.000173533
-8.83492e-06
0.000174258
-7.73868e-06
0.00017487
-6.69834e-06
0.000175373
-5.71189e-06
0.000175775
-4.77721e-06
0.000176081
-3.89211e-06
0.000176296
-3.05435e-06
0.000176425
-2.26164e-06
0.000176473
-1.51172e-06
0.000176444
-8.02319e-07
0.000176345
-1.31209e-07
0.000176178
5.04157e-07
0.000175949
1.10618e-06
0.000175661
1.67727e-06
0.000175319
2.21964e-06
0.000174926
2.73531e-06
0.000174488
3.22618e-06
0.000174008
3.69397e-06
0.000173491
4.14024e-06
0.00017294
4.56636e-06
0.000172361
4.97352e-06
0.000171758
5.36269e-06
0.000171135
5.73465e-06
0.000170497
6.08996e-06
0.000169848
6.42897e-06
0.000169193
6.75183e-06
0.000168536
7.0585e-06
0.000167882
7.34876e-06
0.000167233
7.62228e-06
0.000166593
7.8786e-06
0.000165965
8.11722e-06
0.000165351
8.33761e-06
0.000164753
8.5393e-06
0.000164171
8.72191e-06
0.000163605
8.8852e-06
0.000163056
9.02911e-06
0.000162521
9.15385e-06
9.26023e-06
0.000162
3.03743e-05
-5.07926e-06
3.12785e-05
-9.96209e-06
3.25953e-05
-1.40758e-05
3.42906e-05
-1.76714e-05
3.63498e-05
-2.09028e-05
3.8781e-05
-2.39032e-05
4.16184e-05
-2.68123e-05
4.49165e-05
-2.9752e-05
4.87339e-05
-3.27943e-05
5.31108e-05
-3.59385e-05
5.80501e-05
-3.91106e-05
6.35104e-05
-4.21837e-05
6.94121e-05
-4.50123e-05
7.56505e-05
-4.74645e-05
8.21122e-05
-4.94431e-05
8.86868e-05
-5.08928e-05
9.52758e-05
-5.17982e-05
0.000101796
-5.21754e-05
0.000108179
-5.20629e-05
0.000114375
-5.15128e-05
0.000120344
-5.05839e-05
0.000126059
-4.93365e-05
0.000131503
-4.78289e-05
0.000136666
-4.61153e-05
0.000141542
-4.42445e-05
0.000146132
-4.22595e-05
0.000150439
-4.01973e-05
0.000154469
-3.80896e-05
0.000158229
-3.59627e-05
0.000161728
-3.38384e-05
0.000164976
-3.17344e-05
0.000167983
-2.9665e-05
0.000170759
-2.76412e-05
0.000173314
-2.56716e-05
0.000175658
-2.37628e-05
0.000177802
-2.19193e-05
0.000179756
-2.01442e-05
0.000181528
-1.84396e-05
0.000183129
-1.68063e-05
0.000184566
-1.52444e-05
0.000185848
-1.37535e-05
0.000186983
-1.23325e-05
0.000187979
-1.09799e-05
0.000188843
-9.69409e-06
0.000189581
-8.47295e-06
0.000190202
-7.31435e-06
0.00019071
-6.21598e-06
0.000191113
-5.17546e-06
0.000191415
-4.19034e-06
0.000191622
-3.25815e-06
0.00019174
-2.37642e-06
0.000191775
-1.54268e-06
0.00019173
-7.54513e-07
0.000191611
-9.69045e-09
0.000191423
6.94589e-07
0.000191171
1.36102e-06
0.000190858
1.99204e-06
0.00019049
2.58986e-06
0.00019007
3.15654e-06
0.000189604
3.69395e-06
0.000189095
4.20385e-06
0.000188549