/*--------------------------------*- C++ -*----------------------------------*\
  =========                 |
  \\      /  F ield         | OpenFOAM: The Open Source CFD Toolbox
   \\    /   O peration     | Website:  https://openfoam.org
    \\  /    A nd           | Version:  7
     \\/     M anipulation  |
\*---------------------------------------------------------------------------*/
FoamFile
{
    version     2.0;
    format      ascii;
    class       volScalarField;
    location    "0.7";
    object      p;
}
// * * * * * * * * * * * * * * * * * * * * * * * * * * * * * * * * * * * * * //

dimensions      [0 2 -2 0 0 0 0];

internalField   nonuniform List<scalar> 
2790
(
130.605
130.519
130.802
131.396
132.206
133.199
134.37
135.72
137.242
138.93
140.776
142.774
144.913
147.18
149.558
152.027
154.558
157.117
159.662
162.142
164.501
166.675
168.599
170.214
171.471
172.349
172.848
172.984
173.066
173.269
130.4
130.424
130.732
131.324
132.13
133.119
134.286
135.63
137.145
138.825
140.662
142.65
144.779
147.035
149.403
151.862
154.385
156.94
159.484
161.969
164.339
166.531
168.479
170.123
171.41
172.303
172.79
172.945
173.113
173.366
130.197
130.291
130.618
131.2
131.993
132.969
134.121
135.447
136.941
138.596
140.406
142.363
144.457
146.677
149.005
151.422
153.904
156.418
158.927
161.384
163.739
165.932
167.903
169.594
170.956
171.961
172.62
173.03
173.371
173.687
129.966
130.091
130.431
131.003
131.781
132.741
133.874
135.176
136.641
138.263
140.036
141.95
143.996
146.162
148.432
150.787
153.205
155.655
158.103
160.508
162.825
165.003
166.99
168.737
170.208
171.387
172.294
172.996
173.566
174.063
129.697
129.836
130.184
130.749
131.511
132.45
133.557
134.827
136.255
137.835
139.559
141.418
143.403
145.501
147.697
149.974
152.308
154.675
157.043
159.377
161.639
163.787
165.781
167.584
169.171
170.533
171.685
172.657
173.458
174.145
129.386
129.531
129.881
130.436
131.177
132.09
133.166
134.399
135.783
137.312
138.977
140.771
142.683
144.7
146.809
148.992
151.228
153.494
155.764
158.008
160.194
162.293
164.273
166.111
167.791
169.306
170.66
171.855
172.848
173.696
129.031
129.177
129.524
130.065
130.784
131.667
132.706
133.895
135.228
136.698
138.296
140.015
141.843
143.768
145.776
147.851
149.974
152.123
154.276
156.408
158.497
160.517
162.452
164.285
166.009
167.62
169.113
170.471
171.601
172.579
128.632
128.776
129.115
129.641
130.333
131.182
132.179
133.319
134.594
135.998
137.521
139.155
140.888
142.71
144.605
146.558
148.552
150.566
152.582
154.58
156.541
158.448
160.292
162.066
163.769
165.401
166.953
168.401
169.615
170.699
128.189
128.329
128.658
129.164
129.827
130.638
131.589
132.674
133.885
135.216
136.656
138.196
139.826
141.533
143.303
145.12
146.969
148.83
150.687
152.522
154.321
156.072
157.769
159.414
161.012
162.569
164.082
165.533
166.772
167.943
127.704
127.839
128.154
128.638
129.269
130.038
130.939
131.964
133.106
134.357
135.707
137.146
138.663
140.244
141.877
143.546
145.233
146.922
148.595
150.237
151.834
153.376
154.861
156.292
157.679
159.04
160.382
161.714
162.891
164.129
127.179
127.307
127.607
128.065
128.662
129.386
130.233
131.194
132.262
133.427
134.68
136.01
137.406
138.854
140.339
141.845
143.355
144.851
146.316
147.732
149.083
150.36
151.555
152.671
153.718
154.719
155.704
156.727
157.687
158.942
126.614
126.735
127.018
127.449
128.008
128.685
129.474
130.367
131.356
132.431
133.582
134.798
136.065
137.37
138.697
140.028
141.347
142.631
143.863
145.02
146.082
147.033
147.855
148.541
149.09
149.52
149.872
150.261
150.687
151.811
126.013
126.126
126.39
126.792
127.311
127.939
128.668
129.49
130.396
131.377
132.421
133.516
134.648
135.803
136.964
138.111
139.224
140.28
141.256
142.124
142.856
143.422
143.789
143.924
143.796
143.388
142.71
141.902
141.104
141.61
125.378
125.482
125.727
126.097
126.576
127.151
127.817
128.566
129.386
130.269
131.202
132.173
133.166
134.165
135.152
136.106
137.004
137.818
138.52
139.076
139.444
139.577
139.417
138.891
137.909
136.362
134.128
131.197
127.634
125.788
124.711
124.807
125.03
125.368
125.804
126.326
126.928
127.6
128.333
129.115
129.935
130.778
131.628
132.467
133.276
134.031
134.706
135.27
135.687
135.913
135.895
135.566
134.833
133.574
131.609
128.672
124.341
118
108.454
97.1991
22.1238
20.6753
18.1545
14.4993
9.77591
4.08575
-2.44472
-9.67214
-17.4407
-25.5843
-33.9259
-42.2771
-50.4353
-58.1828
-65.2864
-71.5001
-76.5716
-80.2492
-82.2796
-82.41
-80.4632
-76.2228
-69.5945
-60.5775
-49.2997
-35.9835
-20.8265
-4.45345
9.83549
13.0717
22.1179
20.5243
17.9263
14.1994
9.41191
3.66398
-2.91815
-10.1914
-18.0008
-26.1811
-34.5567
-42.9399
-51.1291
-58.9069
-66.0405
-72.2836
-77.3839
-81.0924
-83.1737
-83.4092
-81.5312
-77.3966
-70.9267
-62.1357
-51.1662
-38.2824
-23.7562
-8.04529
6.3103
9.45195
20.8137
19.0353
16.3413
12.5465
7.73033
1.9846
-4.57204
-11.8039
-19.5629
-27.6903
-36.0161
-44.357
-52.5143
-60.2722
-67.3979
-73.6434
-78.7532
-82.4759
-84.5737
-84.8132
-83.0177
-78.9677
-72.63
-64.0431
-53.3636
-40.8863
-26.9454
-11.9101
2.15022
6.06419
18.1959
16.3554
13.6579
9.86135
5.07289
-0.620909
-7.10793
-14.2604
-21.9381
-29.9894
-38.2499
-46.5403
-54.6642
-62.4063
-69.5328
-75.7931
-80.9277
-84.681
-86.8177
-87.1283
-85.3742
-81.4163
-75.2287
-66.868
-56.4933
-44.3933
-30.9075
-16.3821
-2.57861
3.00263
14.62
12.8268
10.2031
6.46283
1.74974
-3.85181
-10.2326
-17.2711
-24.8345
-32.7781
-40.9433
-49.1554
-57.2204
-64.9242
-72.0323
-78.2923
-83.441
-87.2181
-89.3823
-89.7137
-88.0293
-84.1645
-78.125
-69.992
-59.9238
-48.1794
-35.0677
-20.9294
-7.22835
0.361465
10.4965
8.80339
6.28818
2.63992
-1.96596
-7.45067
-13.7068
-20.6184
-28.0594
-35.8916
-43.9621
-52.1001
-60.114
-67.79
-74.8919
-81.1637
-86.3365
-90.1412
-92.3265
-92.6721
-91.0028
-87.191
-81.2579
-73.3083
-63.4963
-52.0391
-39.1968
-25.2925
-11.4891
-1.8781
6.21454
4.64039
2.23936
-1.30443
-5.79255
-11.1557
-17.2875
-24.0766
-31.4018
-39.1301
-47.1129
-55.1827
-63.1497
-70.8002
-77.8966
-84.1803
-89.3771
-93.2079
-95.407
-95.7455
-94.0761
-90.2846
-84.4183
-76.607
-66.9989
-55.7637
-43.1018
-29.2936
-15.2239
-3.75501
2.13326
0.676431
-1.62468
-5.07408
-9.45735
-14.7161
-20.7435
-27.4311
-34.6613
-42.3052
-50.2177
-58.2342
-66.1669
-73.8027
-80.903
-87.2068
-92.4345
-96.2952
-98.5037
-98.8201
-97.1195
-93.3072
-87.4605
-79.7361
-70.2763
-59.203
-46.6491
-32.8307
-18.393
-5.30689
-1.43097
-2.78909
-5.02079
-8.40606
-12.7187
-17.9104
-23.8705
-30.4923
-37.6604
-45.2488
-53.1157
-61.0992
-69.014
-76.6481
-83.7627
-90.0948
-95.3605
-99.2563
-101.474
-101.758
-100.002
-96.133
-90.2619
-82.5763
-73.2146
-62.253
-49.7536
-35.8563
-21.0059
-6.56656
-4.22079
-5.51156
-7.71681
-11.0849
-15.3789
-20.5568
-26.5007
-33.103
-40.2493
-47.817
-55.6666
-63.6396
-71.5538
-79.1996
-86.3389
-92.7083
-98.0208
-101.961
-104.194
-104.44
-102.613
-98.6592
-92.7281
-85.0423
-75.7387
-64.8509
-52.3711
-38.3608
-23.0978
-7.5645
-6.04985
-7.30839
-9.53915
-12.9507
-17.2923
-22.5225
-28.5105
-35.1449
-42.3126
-49.8953
-57.7556
-65.7391
-73.6678
-81.3362
-88.5079
-94.9215
-100.288
-104.283
-106.542
-106.753
-104.854
-100.802
-94.7899
-87.0778
-77.8047
-66.9667
-54.4903
-40.3632
-24.722
-8.33527
-6.81754
-8.07191
-10.3918
-13.9149
-18.38
-23.7309
-29.8211
-36.5399
-43.7738
-51.4046
-59.2987
-67.308
-75.2606
-82.9562
-90.1601
-96.6182
-102.041
-106.098
-108.4
-108.591
-106.63
-102.486
-96.3923
-88.6456
-79.3898
-68.5927
-56.1225
-41.9014
-25.9468
-8.92393
-6.4791
-7.77509
-10.2461
-13.9591
-18.6354
-24.1815
-30.4367
-37.2881
-44.6198
-52.3144
-60.2481
-68.2805
-76.247
-83.954
-91.1895
-97.6877
-103.154
-107.263
-109.615
-109.816
-107.818
-103.622
-97.481
-89.719
-80.4874
-69.7366
-57.2908
-43.0159
-26.8381
-9.37952
-5.05107
-6.45013
-9.14044
-13.1399
-18.1266
-23.9398
-30.4076
-37.417
-44.8601
-52.6252
-60.5981
-68.647
-76.6166
-84.325
-91.5692
-98.0805
-103.561
-107.692
-110.077
-110.303
-108.315
-104.135
-98.0144
-90.2889
-81.1138
-70.4289
-58.0291
-43.7391
-27.433
-9.72388
-2.58717
-4.21711
-7.1712
-11.5924
-17.0077
-23.1508
-29.859
-37.0348
-44.5854
-52.4114
-60.4083
-68.4536
-76.4007
-84.0758
-91.2776
-97.7528
-103.208
-107.324
-109.712
-109.973
-108.046
-103.957
-97.9461
-90.3376
-81.2774
-70.6935
-58.3651
-44.0933
-27.7462
-9.91894
124.001
124.088
124.29
124.594
124.985
125.451
125.986
126.579
127.221
127.9
128.602
129.313
130.015
130.69
131.315
131.865
132.311
132.615
132.738
132.624
132.209
131.402
130.082
128.071
125.095
120.702
114.052
103.392
83.1714
28.1529
123.241
123.318
123.497
123.766
124.11
124.518
124.982
125.494
126.041
126.612
127.193
127.767
128.317
128.822
129.258
129.598
129.807
129.848
129.671
129.216
128.405
127.134
125.256
122.561
118.724
113.218
105.116
92.8791
75.4539
50.5489
122.436
122.503
122.657
122.89
123.185
123.533
123.925
124.352
124.803
125.263
125.719
126.155
126.55
126.882
127.128
127.255
127.23
127.008
126.538
125.754
124.571
122.877
120.522
117.298
112.911
106.961
98.9433
88.3541
75.9231
61.9642
121.587
121.643
121.773
121.968
122.213
122.5
122.818
123.159
123.511
123.86
124.19
124.485
124.724
124.885
124.941
124.859
124.603
124.129
123.38
122.29
120.774
118.722
115.996
112.417
107.764
101.784
94.234
84.854
73.6739
60.2768
120.696
120.741
120.846
121.002
121.197
121.421
121.665
121.919
122.171
122.407
122.612
122.767
122.852
122.844
122.714
122.43
121.954
121.241
120.236
118.874
117.073
114.734
111.737
107.94
103.179
97.276
90.0545
81.295
70.8476
58.8363
119.765
119.799
119.879
119.996
120.139
120.3
120.469
120.636
120.789
120.914
120.994
121.012
120.946
120.773
120.464
119.988
119.306
118.375
117.141
115.544
113.509
110.951
107.77
103.854
99.0815
93.3235
86.4626
78.3944
69.0978
58.9085
118.797
118.821
118.874
118.952
119.044
119.142
119.237
119.318
119.372
119.387
119.345
119.229
119.018
118.687
118.21
117.554
116.684
115.556
114.124
112.331
110.112
107.397
104.105
100.151
95.448
89.9152
83.4914
76.1495
67.9098
59.0431
117.795
117.808
117.836
117.875
117.916
117.952
117.972
117.968
117.927
117.834
117.675
117.43
117.08
116.601
115.966
115.146
114.107
112.809
111.209
109.259
106.904
104.086
100.743
96.8145
92.2423
86.9792
80.9978
74.2985
66.9023
59.0299
116.763
116.765
116.768
116.768
116.759
116.734
116.682
116.596
116.461
116.265
115.993
115.626
115.146
114.529
113.751
112.783
111.595
110.152
108.416
106.344
103.895
101.02
97.6762
93.8193
89.4135
84.4334
78.8702
72.7365
66.058
59.0267
115.704
115.696
115.674
115.637
115.579
115.494
115.373
115.206
114.983
114.689
114.309
113.828
113.227
112.484
111.577
110.479
109.164
107.601
105.756
103.598
101.09
98.1976
94.8888
91.1353
86.9159
82.2198
77.0497
71.4257
65.3769
59.0654
114.625
114.606
114.561
114.487
114.381
114.239
114.051
113.808
113.5
113.113
112.634
112.047
111.335
110.479
109.457
108.248
106.826
105.166
103.241
101.025
98.4889
95.6091
92.3632
88.7339
84.7109
80.293
75.4899
70.3246
64.8258
59.1283
113.529
113.5
113.432
113.323
113.172
112.975
112.723
112.409
112.02
111.547
110.976
110.293
109.482
108.525
107.404
106.1
104.591
102.857
100.875
98.6255
96.0874
93.2436
90.0801
86.5879
82.7639
78.6131
74.1488
69.3944
64.3765
59.2076
112.422
112.384
112.294
112.151
111.958
111.709
111.397
111.015
110.553
110.001
109.346
108.576
107.676
106.632
105.427
104.044
102.467
100.679
98.661
96.399
93.8785
91.0883
88.0204
84.6715
81.0439
77.1457
72.9922
68.6055
64.0103
59.3002
111.311
111.264
111.153
110.979
110.745
110.448
110.08
109.636
109.106
108.481
107.751
106.904
105.927
104.808
103.533
102.088
100.459
98.6333
96.5975
94.3406
91.8534
89.1292
86.1649
82.9612
79.5234
75.862
71.9922
67.9349
63.7122
59.4022
110.202
110.146
110.015
109.813
109.541
109.199
108.78
108.279
107.687
106.998
106.2
105.285
104.243
103.061
101.729
100.235
98.5699
96.7221
94.6828
92.4447
90.0022
87.3525
84.4958
81.4354
78.1788
74.7372
71.1257
67.3631
63.4695
59.51
109.101
109.038
108.889
108.659
108.353
107.969
107.504
106.951
106.305
105.557
104.701
103.728
102.63
101.397
100.02
98.4907
96.8012
94.9441
92.9132
90.7043
88.3149
85.7447
82.9963
80.075
76.9893
73.7506
70.3733
66.8744
63.2718
59.62
108.016
107.945
107.78
107.525
107.188
106.767
106.26
105.661
104.966
104.168
103.261
102.239
101.095
99.8203
98.4095
96.8557
95.1533
93.2973
91.2843
89.1124
86.7812
84.2928
81.6512
78.8629
75.9368
72.8843
69.7187
66.4555
63.1105
59.7293
106.954
106.877
106.697
106.42
106.054
105.6
105.055
104.416
103.678
102.836
101.887
100.824
99.6423
98.3362
96.901
95.332
93.6256
91.7791
89.7911
87.6613
85.3914
82.9848
80.4466
77.7839
75.0058
72.1232
69.1484
66.0954
62.9782
59.8351
105.923
105.84
105.647
105.35
104.958
104.475
103.897
103.222
102.448
101.57
100.584
99.4884
98.2774
96.9478
95.4962
93.92
92.217
90.3864
88.4282
86.3439
84.1363
81.8098
79.3701
76.8249
74.1829
71.4544
68.651
65.7851
62.8692
59.9354
104.931
104.843
104.638
104.323
103.909
103.4
102.793
102.088
101.283
100.374
99.3595
98.2371
97.004
95.6579
94.1969
92.6198
90.926
89.1158
87.1908
85.1535
83.0075
80.758
78.4111
75.9745
73.4567
70.8674
68.2171
65.5171
62.7786
60.0285
103.987
103.894
103.678
103.348
102.915
102.383
101.752
101.021
100.189
99.2552
98.2176
97.0749
95.8257
94.469
93.0042
91.4313
89.7508
87.9642
86.0741
84.0837
81.9974
79.8207
77.5601
75.223
72.8176
70.3531
67.839
65.2855
62.7028
60.1133
103.098
103.002
102.776
102.432
101.982
101.431
100.78
100.027
99.1741
98.2198
97.1639
96.0061
94.746
93.3837
91.9195
90.3544
88.69
86.9288
85.0739
83.1292
81.0996
78.9908
76.8093
74.5624
72.2579
69.9043
67.5106
65.0857
62.639
60.1894
102.274
102.174
101.941
101.585
101.12
100.553
99.8841
99.1142
98.2437
97.2734
96.2037
95.0352
93.7683
92.404
90.9436
89.3889
87.7424
86.007
84.1865
82.2852
80.3084
78.2618
76.152
73.9858
71.7709
69.5151
67.2267
64.9139
62.5851
60.2563
101.523
101.42
101.18
100.814
100.337
99.756
99.0729
98.2886
97.4046
96.422
95.3423
94.1665
92.8962
91.5328
90.0786
88.5358
86.9077
85.1976
83.4097
81.5488
79.6202
77.6296
75.5836
73.4888
71.3524
69.1817
66.9845
64.7683
62.5408
60.3155
100.856
100.75
100.503
100.128
99.6402
99.048
98.3533
97.5576
96.6629
95.6711
94.5842
93.404
92.1325
90.7721
89.3252
87.7949
86.1847
84.4984
82.7406
80.9162
79.0305
77.0893
75.099
73.066
70.9972
68.8994
66.7799
64.6456
62.5036
60.3653
100.281
100.172
99.9189
99.5352
99.0389
98.4376
97.7338
96.9294
96.0267
95.0284
93.9369
92.7544
91.4836
90.1272
88.6882
87.1701
85.5766
83.912
82.1809
80.3885
78.54
76.6413
74.6985
72.7179
70.7059
68.6694
66.6147
64.5487
62.4778
60.4118
99.811
99.6981
99.4366
99.0441
98.5397
97.9307
97.2195
96.4081
95.4995
94.4966
93.4022
92.2189
90.9498
89.5979
88.1666
86.6596
85.0809
83.435
81.7267
79.961
78.1435
76.2797
74.3758
72.4377
70.4718
68.4844
66.4817
64.4701
62.4554
60.4462
99.4572
99.3379
99.067
98.667
98.1568
97.5422
96.8254
96.009
95.0962
94.0902
92.9941
91.811
90.5439
89.1962
87.7717
86.2741
84.7078
83.0772
81.3873
79.6432
77.8502
76.0141
74.1407
72.2359
70.3058
68.3566
66.3942
64.4247
62.454
60.4894
99.2359
99.0926
98.804
98.3978
97.8845
97.2666
96.5464
95.7271
94.8122
93.8051
92.7088
91.5265
90.2616
88.9176
87.4984
86.0079
84.4504
82.8307
81.1536
79.4242
77.648
75.8306
73.9777
72.0952
70.189
68.265
66.3291
64.387
62.4445
60.5076
99.2063
98.9999
98.6833
98.2702
97.7537
97.1321
96.4086
95.587
94.6709
93.6632
92.5673
91.3863
90.1236
88.7829
87.368
85.8829
84.3321
82.72
81.0518
79.3323
77.5671
75.7617
73.9217
72.053
70.1613
68.2524
66.3321
64.4061
62.4798
60.5588
-49.1686
-30.3913
-12.2462
34.3715
30.0678
22.9609
48.1446
38.9203
30.5601
46.1595
37.2256
30.334
47.4038
39.8879
33.6521
49.4209
42.8736
37.1399
50.7157
44.8905
39.7409
51.6373
46.4626
41.8954
52.4478
47.8395
43.7867
53.1758
49.0474
45.4346
53.8247
50.1068
46.8701
54.409
51.0455
48.1311
54.9399
51.8845
49.2475
55.4246
52.6383
50.2412
55.8678
53.3177
51.1294
56.2729
53.9309
51.9248
56.6423
54.4839
52.6371
56.9775
54.9812
53.274
57.2799
55.4266
53.8414
57.5509
55.8234
54.3447
57.7915
56.1743
54.7885
58.0035
56.4825
55.1772
58.1879
56.7502
55.5141
58.348
56.9818
55.8046
58.4826
57.1765
56.0491
58.6001
57.3439
56.257
58.6897
57.4734
56.4194
58.7777
57.5916
56.5612
58.8232
57.6585
56.6462
58.8989
57.7511
56.7474
0.737531
-1.4504
-4.61221
-9.59778
-15.5267
-22.0173
-28.9565
-36.2778
-43.9084
-51.7646
-59.7528
-67.7597
-75.6468
-83.2467
-90.3611
-96.7495
-102.128
-106.18
-108.533
-108.819
-106.973
-103.055
-97.2595
-89.8636
-80.9891
-70.551
-58.3257
-44.1121
-27.8014
-9.97457
14.0569
5.2648
-1.16517
-7.50009
-14.0207
-20.8005
-27.8908
-35.2822
-42.9262
-50.7531
-58.6775
-66.5935
-74.3692
-81.8432
-88.8221
-95.0742
-100.327
-104.271
-106.563
-106.876
-105.153
-101.474
-95.9776
-88.8723
-80.2434
-69.993
-57.9056
-43.8007
-27.6119
-9.92627
18.724
7.99956
0.922971
-5.79604
-12.7103
-19.7226
-26.8726
-34.2251
-41.7808
-49.4899
-57.274
-65.0313
-72.6338
-79.9247
-86.7158
-92.7837
-97.8679
-101.677
-103.9
-104.258
-102.699
-99.3042
-94.1567
-87.3901
-79.0437
-69.0084
-57.0905
-43.1507
-27.1792
-9.78808
20.552
9.95189
2.1919
-4.80131
-11.7702
-18.7895
-25.9046
-33.1605
-40.5628
-48.0789
-55.6457
-63.1708
-70.5326
-77.5796
-84.1297
-89.9689
-94.8516
-98.5087
-100.666
-101.089
-99.7282
-96.6446
-91.8628
-85.4452
-77.387
-67.5769
-55.8576
-42.1479
-26.5035
-9.57379
24.5793
14.0754
5.17624
-2.80919
-10.3108
-17.5457
-24.6982
-31.8894
-39.1563
-46.48
-53.8098
-61.0674
-68.1445
-74.9016
-81.1683
-86.7439
-91.4014
-94.8974
-96.9934
-97.4946
-96.3512
-93.5794
-89.1395
-83.0385
-75.2435
-65.6557
-54.1692
-40.7715
-25.5838
-9.29776
28.9632
19.0377
9.52866
0.673725
-7.53272
-15.259
-22.6986
-29.9999
-37.2435
-44.4499
-51.5946
-58.6171
-65.4249
-71.8945
-77.8725
-83.1777
-87.6061
-90.9419
-92.9796
-93.5583
-92.6166
-90.1142
-85.9514
-80.1041
-72.5346
-63.174
-51.9771
-39.0005
-24.423
-8.97546
32.6568
23.6968
14.2644
5.0861
-3.53581
-11.6783
-19.4754
-27.0253
-34.3916
-41.6067
-48.6684
-55.5384
-62.1438
-68.3798
-74.1123
-79.1814
-83.4074
-86.602
-88.5873
-89.224
-88.4258
-86.1035
-82.1348
-76.487
-69.1339
-60.0463
-49.2386
-36.827
-23.034
-8.61971
35.7848
27.8468
18.9206
9.89479
1.23796
-7.05201
-15.0526
-22.802
-30.3187
-37.6126
-44.6774
-51.4822
-57.9671
-64.044
-69.5971
-74.4874
-78.5575
-81.642
-83.5815
-84.2425
-83.5076
-81.2776
-77.4555
-72.0112
-64.9312
-56.223
-45.9508
-34.2742
-21.4444
-8.23501
38.4697
31.4682
23.2555
14.6994
6.32463
-1.8235
-9.78421
-17.5531
-25.1078
-32.4278
-39.4884
-46.2503
-52.6548
-58.6208
-64.0452
-68.8046
-72.7594
-75.7608
-77.66
-78.316
-77.5973
-75.4352
-71.7857
-66.6204
-59.931
-51.7524
-42.1835
-31.4105
-19.6989
-7.81531
40.7604
34.5751
27.1367
19.2204
11.3414
3.56657
-4.12308
-11.7005
-19.1173
-26.3283
-33.2896
-39.9498
-46.2436
-52.0903
-57.392
-62.0349
-65.8915
-68.8245
-70.6915
-71.345
-70.6624
-68.6243
-65.2321
-60.4581
-54.2962
-46.7978
-38.0819
-28.3454
-17.8562
-7.34842
42.7229
37.2337
30.542
23.3195
16.0433
8.78488
1.53264
-5.67914
-12.7903
-19.7417
-26.4765
-32.9328
-39.0391
-44.7125
-49.8572
-54.3652
-58.1175
-60.9861
-62.8371
-63.5285
-62.9562
-61.1368
-58.0994
-53.8215
-48.3004
-41.5956
-33.8328
-25.2077
-15.9794
-6.82509
44.4228
39.5237
33.51
26.9627
20.3135
13.6313
6.905
0.167592
-6.51947
-13.0924
-19.4885
-25.6411
-31.4758
-36.9086
-41.8464
-46.1864
-49.8174
-52.622
-54.4785
-55.2623
-54.8845
-53.3709
-50.7652
-47.0546
-42.2423
-36.3896
-29.6199
-22.1184
-14.1268
-6.24683
45.9098
41.5119
36.0965
30.1703
24.1224
18.0164
11.84
5.62126
-0.582343
-6.70853
-12.6949
-18.4748
-23.9748
-29.1137
-33.8025
-37.9452
-41.4397
-44.1805
-46.0611
-46.9786
-46.8558
-45.7044
-43.5729
-40.4599
-36.3758
-31.3807
-25.5896
-19.1716
-12.3456
-5.62767
47.2199
43.2495
38.356
32.9853
27.4886
21.9245
16.2795
10.5762
4.86592
-0.793466
-6.34321
-11.7204
-16.856
-21.6737
-26.0915
-30.0215
-33.3721
-36.0501
-37.9645
-39.0308
-39.1805
-38.421
-36.7731
-34.2515
-30.876
-26.7034
-21.8372
-16.428
-10.6689
-4.99009
48.3798
44.7756
40.3357
35.4547
30.4515
25.3797
20.2252
15.0058
9.76654
4.55963
-0.561344
-5.53896
-10.31
-14.8055
-18.9511
-22.6683
-25.8763
-28.494
-30.4438
-31.6565
-32.0779
-31.6937
-30.5108
-28.5501
-25.8378
-22.4273
-18.41
-13.9173
-9.11629
-4.35835
49.4095
46.1201
42.0738
37.6221
33.0548
28.4217
23.7084
18.9286
14.1214
9.33332
4.61243
0.0101655
-4.41696
-8.60733
-12.495
-16.0108
-19.0841
-21.6449
-23.6271
-24.973
-25.6387
-25.5983
-24.8456
-23.4005
-21.2931
-18.5727
-15.3195
-11.6464
-7.69632
-3.75302
50.3244
47.3059
43.6012
39.5245
35.3398
31.0935
26.7711
22.383
17.963
13.5522
9.19332
4.93186
0.817853
-3.09431
-6.74666
-10.0787
-13.029
-15.5372
-17.5467
-19.0084
-19.8853
-20.1476
-19.7809
-18.7999
-17.2341
-15.1295
-12.5553
-9.60829
-6.40989
-3.18828
51.1365
48.3512
44.9429
41.193
37.3427
33.4352
29.4562
25.4132
21.3355
17.2592
13.2219
9.26381
5.42883
1.76475
-1.67767
-4.84569
-7.68589
-10.146
-12.1772
-13.7372
-14.7934
-15.3167
-15.2897
-14.7194
-13.6331
-12.0722
-10.0969
-7.78953
-5.25318
-2.67186
51.8556
49.2712
46.1195
42.6539
39.0948
35.4826
31.8034
28.0623
24.2846
20.5018
16.7472
13.0559
9.46648
6.02079
2.76323
-0.260141
-3.00283
-5.41937
-7.46726
-9.10928
-10.3162
-11.0632
-11.3317
-11.1209
-10.455
-9.3709
-7.92069
-6.17448
-4.21998
-2.2065
52.4899
50.0782
47.1485
43.9294
40.623
37.2672
33.8484
30.3699
26.8532
23.3263
19.8182
16.3597
12.9846
9.72958
6.63355
3.73675
1.07986
-1.29738
-3.35768
-5.06803
-6.40169
-7.3392
-7.86186
-7.96305
-7.66321
-6.99496
-6.00302
-4.74731
-3.30281
-1.79165
53.0466
50.7829
48.0447
45.0386
41.9507
38.8163
35.6225
32.371
29.0803
25.7749
22.4803
19.2235
16.0343
12.9447
9.98889
7.20223
4.62038
2.27831
0.208909
-1.5585
-2.99983
-4.0979
-4.83619
-5.20657
-5.22393
-4.91626
-4.32229
-3.49343
-2.49416
-1.42529
53.5323
51.3951
48.8211
45.9983
43.0981
40.154
37.1535
34.097
31.0006
27.8857
24.7748
21.6917
18.6625
15.7154
12.8806
10.1891
7.67253
5.36169
3.28576
1.4709
-0.0611661
-1.29467
-2.21552
-2.81592
-3.10585
-3.10881
-2.85833
-2.39884
-1.78614
-1.10431
53.9521
51.9223
49.4884
46.8222
44.0824
41.3005
38.4649
35.5747
32.6439
29.6915
26.7374
23.8025
20.91
18.0847
15.3534
12.7436
10.2832
7.99982
5.91934
4.06525
2.45724
1.10991
0.0351997
-0.760202
-1.28237
-1.55073
-1.59444
-1.45214
-1.17249
-0.826291
54.3124
52.3731
50.0577
47.5239
44.9197
42.2749
39.5784
36.8287
34.0377
31.2225
28.4008
25.5911
22.814
20.0918
17.4481
14.9076
12.4952
10.2356
8.15212
6.26591
4.59492
3.15271
1.94944
0.9904
0.272559
-0.220269
-0.513464
-0.640901
-0.645369
-0.587331
54.6156
52.7516
50.5349
48.1116
45.6205
43.0899
40.5093
37.8763
35.2018
32.5007
29.7891
27.0837
24.4027
21.7663
19.1957
16.713
14.3409
12.1015
10.016
8.10373
6.38103
4.86058
3.55059
2.45654
1.57629
0.896393
0.394706
0.04128
-0.201846
-0.386794
54.8706
53.0678
50.932
48.5991
46.2003
43.7629
41.2767
38.739
36.1593
33.5512
30.9293
28.3088
25.7062
23.1397
20.6287
18.1934
15.8543
13.6317
11.5449
9.61175
7.84735
6.26349
4.86764
3.66401
2.65141
1.81851
1.1458
0.606475
0.166474
-0.219965
55.072
53.3175
51.2454
48.984
46.6581
44.2942
41.8825
39.4198
36.9148
34.38
31.8288
29.2752
26.7343
24.223
21.759
19.361
17.0481
14.8388
12.7513
10.802
9.00506
7.37148
5.90834
4.61918
3.50265
2.54912
1.74112
1.05433
0.457819
-0.0888197
55.2401
53.5211
51.497
49.2892
47.0178
44.7087
42.3525
39.9458
37.4964
35.016
32.5173
30.0132
27.5181
25.0475
22.6182
20.2477
17.9538
15.7542
13.6658
11.7041
9.88257
8.21166
6.6981
5.3446
4.1496
3.10455
2.19358
1.39419
0.677745
0.00825147
55.3466
53.6504
51.6579
49.4864
47.2517
44.9794
42.6602
40.2909
37.8787
35.4348
32.9712
30.5003
28.0359
25.5927
23.1869
20.8352
18.5545
16.3618
14.2734
12.304
10.4667
8.77177
7.2262
5.83217
4.58688
3.48201
2.50255
1.62686
0.827013
0.0682295
55.449
53.7562
51.7798
49.6283
47.4127
45.1587
42.8577
40.5066
38.1122
35.6855
33.2382
30.7825
28.3318
25.9006
23.5047
21.1604
18.8845
16.6934
14.6032
12.6282
10.781
9.07113
7.50451
6.08455
4.80988
3.67185
2.6552
1.73816
0.891819
0.0780768
)
;

boundaryField
{
    inlet
    {
        type            zeroGradient;
    }
    outlet
    {
        type            fixedValue;
        value           uniform 0;
    }
    flap
    {
        type            zeroGradient;
    }
    upperWall
    {
        type            zeroGradient;
    }
    lowerWall
    {
        type            zeroGradient;
    }
    frontAndBack
    {
        type            empty;
    }
}


// ************************************************************************* //
