/*--------------------------------*- C++ -*----------------------------------*\
  =========                 |
  \\      /  F ield         | OpenFOAM: The Open Source CFD Toolbox
   \\    /   O peration     | Website:  https://openfoam.org
    \\  /    A nd           | Version:  7
     \\/     M anipulation  |
\*---------------------------------------------------------------------------*/
FoamFile
{
    version     2.0;
    format      ascii;
    class       surfaceScalarField;
    location    "0.7";
    object      phi;
}
// * * * * * * * * * * * * * * * * * * * * * * * * * * * * * * * * * * * * * //

dimensions      [0 3 -1 0 0 0 0];

internalField   nonuniform List<scalar> 
5457
(
0.198401
0.00159863
0.196434
0.00196757
0.194103
0.00233054
0.191367
0.00273649
0.188224
0.00314295
0.184678
0.0035458
0.180725
0.00395337
0.176352
0.00437302
0.171542
0.00480986
0.166274
0.00526782
0.160524
0.00575025
0.154264
0.00625996
0.147465
0.00679891
0.140097
0.00736791
0.132131
0.00796606
0.123541
0.0085901
0.114307
0.00923351
0.104422
0.00988541
0.0938925
0.0105294
0.0827504
0.0111421
0.0710579
0.0116924
0.0589178
0.0121402
0.0464814
0.0124363
0.033957
0.0125244
0.0216114
0.0123456
0.00974939
0.011862
-0.00118107
0.0109305
-0.00711433
0.00593326
-0.00680752
-0.000306808
-0.00680752
0.199912
0.00168675
0.199129
0.00275048
0.197875
0.00358418
0.196189
0.00442291
0.194067
0.00526516
0.191507
0.00610536
0.188505
0.00695564
0.185048
0.00782946
0.181121
0.00873704
0.176703
0.00968652
0.171768
0.0106849
0.16629
0.0117381
0.160238
0.0128506
0.153581
0.0140245
0.146289
0.0152589
0.138331
0.016548
0.129684
0.0178801
0.120335
0.0192346
0.110285
0.0205798
0.0995566
0.02187
0.0882063
0.0230428
0.0763303
0.0240161
0.0640811
0.0246856
0.0516855
0.02492
0.0394843
0.0245468
0.0280563
0.02329
0.0184486
0.0205381
0.00952651
0.0148554
0.00226207
0.00695764
-0.00454545
0.199765
0.00192219
0.199041
0.00347429
0.197858
0.00476701
0.196269
0.00601164
0.194282
0.00725202
0.191895
0.00849222
0.189105
0.00974652
0.185901
0.0110326
0.182273
0.0123653
0.178203
0.013757
0.173669
0.0152182
0.168649
0.0167582
0.163116
0.0183841
0.15704
0.0201002
0.150392
0.0219069
0.143142
0.0237981
0.135263
0.0257593
0.126733
0.0277644
0.117542
0.0297711
0.107695
0.0317171
0.0972226
0.0335149
0.0861923
0.0350465
0.0747203
0.0361575
0.0629922
0.0366481
0.0512846
0.0362545
0.0399668
0.0346078
0.0293316
0.0311733
0.0189902
0.0251968
0.00932925
0.0166185
0.0047838
0.199687
0.00223509
0.198962
0.00419945
0.1978
0.0059293
0.196237
0.00757449
0.194288
0.00920065
0.191955
0.0108258
0.189234
0.0124674
0.18612
0.0141459
0.182606
0.0158799
0.178678
0.0176849
0.174322
0.0195745
0.16952
0.0215602
0.164252
0.0236515
0.158498
0.0258546
0.152234
0.028171
0.145436
0.0305955
0.138082
0.0331132
0.130151
0.0356956
0.121627
0.0382955
0.112502
0.0408417
0.102785
0.0432314
0.0925081
0.0453238
0.0817338
0.0469318
0.0705682
0.0478137
0.0591588
0.0476639
0.0476642
0.0461023
0.0361673
0.0426703
0.0245223
0.0368418
0.0125814
0.0285594
0.0173652
0.199651
0.0025836
0.198918
0.00493247
0.197775
0.0070723
0.196242
0.00910804
0.194333
0.0111099
0.19205
0.0131081
0.189393
0.0151246
0.186357
0.0171824
0.182934
0.0193025
0.179116
0.0215032
0.17489
0.0238001
0.170244
0.0262067
0.165162
0.0287337
0.159628
0.0313885
0.153625
0.0341735
0.147137
0.0370841
0.140144
0.040106
0.132629
0.0432105
0.124575
0.0463498
0.115966
0.0494502
0.106793
0.0524042
0.0970547
0.0550623
0.0867622
0.0572243
0.0759432
0.0586328
0.0646369
0.0589701
0.0528771
0.0578621
0.0406529
0.0548945
0.0278402
0.0496545
0.0142896
0.0421101
0.0316548
0.199637
0.00294667
0.198903
0.00566618
0.197784
0.0081918
0.196288
0.010604
0.194427
0.0129705
0.192206
0.0153295
0.189622
0.0177081
0.186673
0.0201317
0.183352
0.0226238
0.17965
0.0252046
0.175559
0.0278916
0.171066
0.0306997
0.166159
0.0336407
0.160824
0.0367229
0.155048
0.0399494
0.148816
0.0433164
0.142112
0.0468105
0.134918
0.0504046
0.127214
0.0540531
0.118979
0.0576852
0.110187
0.0611967
0.100808
0.0644414
0.0908104
0.0672219
0.0801601
0.0692831
0.06882
0.0703102
0.0567454
0.0699367
0.0438719
0.0677681
0.0301048
0.0634215
0.0153976
0.0568173
0.0470523
0.199634
0.00331239
0.198909
0.00639166
0.197818
0.00928283
0.196366
0.0120554
0.194564
0.0147732
0.192414
0.0174795
0.189916
0.020206
0.187067
0.0229807
0.183861
0.0258291
0.180292
0.0287735
0.176351
0.0318332
0.172026
0.0350242
0.167307
0.0383598
0.162181
0.041849
0.156634
0.0454961
0.150652
0.0492987
0.144217
0.0532451
0.13731
0.0573116
0.129906
0.0614572
0.121973
0.0656181
0.11347
0.0696996
0.104344
0.0735678
0.0945268
0.0770391
0.0839373
0.0798726
0.0724824
0.0817651
0.0600639
0.0823552
0.0465883
0.0812437
0.0319948
0.0780151
0.016328
0.0724841
0.0633803
0.199639
0.00367341
0.19893
0.00710109
0.197873
0.0103398
0.196472
0.0134557
0.194736
0.0165098
0.192667
0.0195482
0.190266
0.0226068
0.187531
0.0257161
0.184456
0.0289037
0.181036
0.0321937
0.177262
0.0356071
0.173125
0.0391615
0.168613
0.0428715
0.163715
0.0467476
0.158415
0.0507958
0.152698
0.055016
0.146543
0.0593998
0.139926
0.0639283
0.132816
0.0685678
0.125169
0.073265
0.116929
0.0779399
0.108019
0.0824773
0.0983419
0.0867162
0.0877758
0.0904387
0.0761807
0.0933601
0.0634128
0.0951231
0.0493513
0.0953052
0.0339508
0.0934155
0.017322
0.089113
0.0807023
0.199649
0.00402477
0.198962
0.00778797
0.197945
0.0113569
0.196602
0.0147984
0.19494
0.0181721
0.192962
0.0215262
0.190669
0.0248997
0.188059
0.0283257
0.185129
0.0318337
0.181873
0.0354496
0.178284
0.0391961
0.174353
0.0430925
0.17007
0.0471551
0.165421
0.0513964
0.160392
0.0558248
0.154964
0.0604435
0.149115
0.065249
0.142814
0.070229
0.136023
0.0753597
0.128686
0.0806015
0.120732
0.0858936
0.112064
0.0911456
0.102554
0.0962265
0.0920414
0.100951
0.080339
0.105063
0.0672485
0.108214
0.0526006
0.109953
0.0363285
0.109688
0.0185755
0.106866
0.0992779
0.199662
0.00436292
0.199003
0.008447
0.198031
0.0123288
0.196752
0.0160775
0.195171
0.0197531
0.193292
0.023405
0.191117
0.0270748
0.188645
0.0307981
0.185872
0.0346062
0.182795
0.0385267
0.179407
0.0425839
0.175701
0.046799
0.171666
0.0511901
0.16729
0.0557723
0.162557
0.0605571
0.157449
0.0655518
0.151939
0.070759
0.145993
0.0761749
0.139565
0.0817877
0.132592
0.0875748
0.124987
0.0934982
0.116635
0.0994983
0.107378
0.105483
0.097018
0.111311
0.085309
0.116772
0.0719769
0.121546
0.0567602
0.12517
0.0395036
0.126944
0.0203199
0.12605
0.119598
0.199678
0.00468516
0.199051
0.00907381
0.198129
0.0132505
0.196919
0.0172876
0.195426
0.0212461
0.193654
0.0251767
0.191606
0.0291232
0.189281
0.0331231
0.186678
0.0372096
0.183792
0.0414118
0.180621
0.0457556
0.177156
0.050264
0.173389
0.0549573
0.169308
0.059853
0.164899
0.0649664
0.160141
0.0703096
0.155008
0.075892
0.149463
0.0817195
0.143457
0.087794
0.13692
0.0941119
0.129756
0.100662
0.121834
0.10742
0.112974
0.114343
0.102936
0.12135
0.091408
0.1283
0.0780093
0.134945
0.0623185
0.140861
0.0439736
0.145289
0.022907
0.147116
0.142505
0.199696
0.0049894
0.199105
0.00966481
0.198238
0.0141176
0.197102
0.0184237
0.195702
0.0226453
0.194044
0.0268346
0.192131
0.0310369
0.189962
0.0352917
0.187538
0.0396336
0.184857
0.0440931
0.181915
0.0486978
0.178706
0.0534722
0.175225
0.0584386
0.171461
0.0636174
0.1674
0.0690273
0.163024
0.0746857
0.158307
0.0806089
0.153213
0.086813
0.147693
0.0933139
0.141677
0.100128
0.135066
0.107273
0.127722
0.114764
0.119451
0.122614
0.10998
0.130821
0.0989321
0.139347
0.0857952
0.148081
0.0699064
0.156749
0.0505001
0.164696
0.0269755
0.170641
0.16948
0.199715
0.00527397
0.199163
0.0102171
0.198354
0.0149265
0.197297
0.0194814
0.195996
0.0239457
0.194458
0.0283726
0.192686
0.0328092
0.190682
0.0372961
0.188446
0.0418693
0.185978
0.0465606
0.183277
0.0513988
0.18034
0.05641
0.17716
0.0616183
0.173731
0.0670465
0.170041
0.0727167
0.166076
0.078651
0.161813
0.0848724
0.157219
0.0914062
0.152251
0.0982819
0.146845
0.105535
0.140907
0.11321
0.134309
0.121363
0.126858
0.130065
0.118274
0.139405
0.108139
0.149482
0.0958217
0.160398
0.080366
0.172205
0.060344
0.184718
0.0338557
0.197129
0.203336
0.199736
0.00553756
0.199225
0.0107281
0.198478
0.0156739
0.197502
0.0204571
0.196305
0.0251429
0.194892
0.0297859
0.193267
0.0344342
0.191433
0.0391297
0.189393
0.0439093
0.187148
0.0488058
0.184698
0.053849
0.182041
0.0590662
0.179177
0.064483
0.176099
0.0701242
0.172801
0.0760145
0.169272
0.08218
0.165495
0.0886491
0.161447
0.0954549
0.157091
0.102638
0.152378
0.110248
0.147233
0.118355
0.141549
0.127046
0.135167
0.136447
0.127841
0.146731
0.11918
0.158143
0.108535
0.171044
0.0947526
0.185987
0.0756389
0.203831
0.0467108
0.226057
0.250047
0.199758
0.00577917
0.19929
0.0111962
0.198607
0.0163574
0.197716
0.0213476
0.196626
0.0262335
0.195341
0.0310704
0.193868
0.0359074
0.19221
0.0407873
0.190372
0.0457477
0.188356
0.0508221
0.186164
0.0560409
0.183798
0.0614321
0.181258
0.0670223
0.178545
0.0728377
0.175655
0.0789049
0.172582
0.0852524
0.169319
0.0919125
0.16585
0.0989231
0.162156
0.106332
0.158206
0.114199
0.153954
0.122607
0.149334
0.131666
0.144249
0.141533
0.138545
0.152434
0.131976
0.164713
0.1241
0.178919
0.114046
0.196041
0.0997187
0.218159
0.0742568
0.251519
0.324304
-0.0178352
0.0178352
-0.038486
0.0206508
-0.0596979
0.0212119
-0.0809294
0.0212315
-0.101856
0.0209262
-0.122265
0.0204096
-0.142003
0.0197383
-0.160948
0.0189447
-0.178995
0.0180472
-0.196049
0.0170542
-0.212015
0.0159658
-0.226791
0.0147755
-0.240262
0.0134715
-0.2523
0.0120377
-0.262756
0.0104558
-0.271462
0.00870602
-0.278231
0.00676889
-0.282859
0.00462866
-0.285137
0.00227815
-0.284746
-0.000391712
-0.281462
-0.00328314
-0.274851
-0.00661101
-0.264518
-0.0103335
-0.249944
-0.0145735
-0.230411
-0.0195334
-0.204949
-0.0254616
-0.172153
-0.0327961
-0.129105
-0.0430482
-0.0699971
-0.0591081
-0.0708609
-0.0211831
0.0390182
-0.0424672
0.041935
-0.0638528
0.0425975
-0.0851486
0.0425273
-0.106117
0.0418951
-0.126565
0.0408566
-0.146335
0.0395087
-0.165304
0.0379141
-0.183367
0.0361101
-0.200427
0.0341143
-0.216389
0.0319277
-0.231151
0.0295374
-0.244599
0.0269195
-0.256604
0.0240425
-0.267018
0.02087
-0.275676
0.0173638
-0.282395
0.0134881
-0.28698
0.00921329
-0.289204
0.00450199
-0.288918
-0.000677568
-0.285832
-0.00636883
-0.279774
-0.0126694
-0.270433
-0.0196742
-0.257434
-0.0275731
-0.240281
-0.0366859
-0.218325
-0.0474178
-0.190735
-0.0603856
-0.156916
-0.0768673
-0.118077
-0.0979471
-0.120873
-0.021115
0.0601332
-0.0420113
0.0628313
-0.0626777
0.0632639
-0.083064
0.0629136
-0.103032
0.0618632
-0.122451
0.0602752
-0.141206
0.0582645
-0.159205
0.0559123
-0.176363
0.0532682
-0.192603
0.0503543
-0.207844
0.0471686
-0.221995
0.0436886
-0.234952
0.0398762
-0.246591
0.035682
-0.256772
0.0310505
-0.265332
0.0259241
-0.272093
0.0202493
-0.276861
0.013981
-0.279453
0.00709369
-0.279623
-0.000507468
-0.277311
-0.008681
-0.272266
-0.0177144
-0.264304
-0.0276361
-0.253185
-0.0386919
-0.238596
-0.0512747
-0.220142
-0.0658722
-0.197479
-0.0830481
-0.170839
-0.103507
-0.140838
-0.127948
-0.15549
-0.0197696
0.0799028
-0.0393737
0.0824355
-0.058658
0.0825482
-0.0775795
0.081835
-0.0960581
0.0803417
-0.114021
0.0782385
-0.131402
0.0756447
-0.148137
0.0726473
-0.164166
0.0692974
-0.179424
0.0656127
-0.193836
0.0615808
-0.207312
0.0571639
-0.219741
0.0523055
-0.230995
0.0469361
-0.240924
0.0409797
-0.249361
0.0343609
-0.256123
0.0270111
-0.261019
0.0188769
-0.263848
0.00992284
-0.264474
0.000118611
-0.262718
-0.0104374
-0.258532
-0.0218995
-0.251799
-0.0343695
-0.242388
-0.0481029
-0.230127
-0.0635361
-0.214809
-0.0811897
-0.196359
-0.101499
-0.175143
-0.124723
-0.151842
-0.15125
-0.179576
-0.0178023
0.0977051
-0.0355054
0.100139
-0.052928
0.0999708
-0.0700219
0.0989289
-0.0867359
0.0970557
-0.103033
0.094536
-0.118876
0.0914871
-0.13422
0.0879919
-0.149016
0.0840935
-0.1632
0.0797966
-0.176692
0.0750723
-0.189392
0.069864
-0.201181
0.064095
-0.211922
0.0576764
-0.221456
0.0505145
-0.229615
0.0425191
-0.236214
0.0336104
-0.241067
0.02373
-0.244004
0.0128594
-0.244858
0.000973143
-0.243582
-0.0117134
-0.240117
-0.0253647
-0.234454
-0.0400328
-0.226573
-0.0559837
-0.216422
-0.0736872
-0.203932
-0.0936799
-0.189142
-0.116288
-0.172401
-0.141463
-0.154563
-0.169088
-0.196613
-0.0154287
0.113134
-0.0308596
0.115569
-0.0461031
0.115214
-0.0611183
0.113944
-0.0758739
0.111811
-0.0903528
0.109015
-0.10453
0.105664
-0.118371
0.101833
-0.131827
0.0975491
-0.14483
0.0927994
-0.157293
0.0875356
-0.16911
0.081681
-0.180154
0.0751394
-0.190281
0.0678028
-0.199327
0.059561
-0.207118
0.0503101
-0.213469
0.0399611
-0.218193
0.0284535
-0.221114
0.0157806
-0.222132
0.00199185
-0.221165
-0.0126808
-0.218261
-0.0282686
-0.213498
-0.0447963
-0.206958
-0.0625234
-0.198692
-0.0819534
-0.188722
-0.103649
-0.177128
-0.127882
-0.164206
-0.154386
-0.150825
-0.182468
-0.208713
-0.0127776
0.125911
-0.0256937
0.128486
-0.0385415
0.128062
-0.0512946
0.126697
-0.0639394
0.124456
-0.0764711
0.121547
-0.0888707
0.118064
-0.101105
0.114067
-0.113121
0.109565
-0.124847
0.104525
-0.13619
0.0988785
-0.147036
0.0925276
-0.157253
0.0853564
-0.166689
0.0772388
-0.175176
0.0680478
-0.182532
0.0576663
-0.188568
0.0459968
-0.193092
0.0329778
-0.195936
0.0186241
-0.196989
0.00304496
-0.196234
-0.0134357
-0.193757
-0.0307454
-0.189735
-0.0488186
-0.184353
-0.0679047
-0.177751
-0.0885561
-0.170009
-0.111391
-0.161213
-0.136678
-0.151591
-0.164008
-0.141877
-0.192182
-0.217143
-0.00993754
0.135849
-0.0201673
0.138715
-0.0304594
0.138354
-0.0408082
0.137046
-0.051217
0.134865
-0.061691
0.132021
-0.0722124
0.128585
-0.0827444
0.124599
-0.0932297
0.12005
-0.103591
0.114887
-0.11373
0.109017
-0.123528
0.102326
-0.13285
0.0946777
-0.141539
0.0859279
-0.149423
0.075932
-0.156315
0.0645581
-0.162016
0.0516982
-0.166325
0.0372863
-0.169055
0.0213547
-0.170092
0.00408209
-0.169448
-0.0140803
-0.167271
-0.0329227
-0.163836
-0.0522528
-0.159432
-0.0723092
-0.154268
-0.0937202
-0.148463
-0.117196
-0.142094
-0.143048
-0.135324
-0.170778
-0.128671
-0.198834
-0.22269
-0.00696374
0.142813
-0.0143799
0.146131
-0.0219908
0.145965
-0.0298207
0.144876
-0.0378906
0.142935
-0.0462145
0.140344
-0.0547723
0.137143
-0.0635203
0.133347
-0.0723934
0.128924
-0.0813098
0.123803
-0.0901677
0.117875
-0.0988475
0.111006
-0.107213
0.103043
-0.115111
0.0938254
-0.122366
0.0831873
-0.128786
0.0709782
-0.134161
0.0570733
-0.138269
0.0413944
-0.140893
0.0239788
-0.141883
0.00507125
-0.141287
-0.0146757
-0.139315
-0.0348948
-0.136346
-0.0552218
-0.13276
-0.0758955
-0.128821
-0.0976584
-0.124667
-0.12135
-0.120362
-0.147353
-0.116022
-0.175118
-0.11196
-0.202896
-0.22587
-0.00389423
0.146707
-0.008395
0.150632
-0.0132214
0.150792
-0.0184387
0.150093
-0.0240878
0.148584
-0.0301908
0.146447
-0.0367207
0.143673
-0.0436204
0.140247
-0.0508127
0.136116
-0.058213
0.131203
-0.0657164
0.125379
-0.0732046
0.118494
-0.0805467
0.110386
-0.0875962
0.100875
-0.0941844
0.0897754
-0.100118
0.0769116
-0.105177
0.0621328
-0.109119
0.0453359
-0.111681
0.0265414
-0.112626
0.00601626
-0.112066
-0.0152357
-0.110263
-0.0366985
-0.107694
-0.05779
-0.104816
-0.0787742
-0.101923
-0.100551
-0.0991524
-0.124121
-0.0965545
-0.149951
-0.0942257
-0.177447
-0.0923586
-0.204763
-0.227043
-0.000792224
0.147499
-0.00225413
0.152094
-0.00421161
0.152749
-0.00673383
0.152615
-0.00990406
0.151754
-0.0137413
0.150285
-0.0182091
0.148141
-0.0232227
0.14526
-0.0286821
0.141575
-0.034508
0.137029
-0.0405873
0.131458
-0.0468033
0.12471
-0.0530328
0.116615
-0.0591438
0.106986
-0.06498
0.0956117
-0.0703615
0.0822931
-0.0750711
0.0668424
-0.0788562
0.0491209
-0.0814248
0.0291099
-0.0823696
0.00696108
-0.0819055
-0.0156998
-0.0803274
-0.0382766
-0.0781924
-0.059925
-0.0759887
-0.0809779
-0.0740166
-0.102523
-0.0723965
-0.125741
-0.0711702
-0.151177
-0.070431
-0.178186
-0.0703789
-0.204816
-0.226479
0.0023817
0.145118
0.00401688
0.150459
0.00498431
0.151782
0.00520133
0.152398
0.00454206
0.152413
0.00300124
0.151825
0.000624513
0.150518
-0.00249121
0.148376
-0.0062093
0.145293
-0.0104256
0.141246
-0.0150241
0.136057
-0.0198875
0.129573
-0.0248995
0.121627
-0.0299449
0.112031
-0.034874
0.100541
-0.0395356
0.0869547
-0.0437418
0.0710486
-0.047286
0.0526652
-0.0499307
0.0317546
-0.0510391
0.00806956
-0.050759
-0.01598
-0.0495823
-0.0394533
-0.0480373
-0.06147
-0.0465756
-0.0824396
-0.045469
-0.103629
-0.0448183
-0.126392
-0.0446659
-0.151329
-0.0451128
-0.177739
-0.0464632
-0.203465
-0.224417
0.00564453
0.139473
0.0104603
0.145643
0.0143865
0.147855
0.0173218
0.149463
0.0191134
0.150622
0.0197977
0.151141
0.0194733
0.150842
0.0182583
0.149591
0.0162919
0.14726
0.013722
0.143815
0.0106686
0.13911
0.00724978
0.132992
0.00357554
0.125301
-0.000266414
0.115873
-0.00415596
0.10443
-0.00791867
0.0907174
-0.0114468
0.0745768
-0.0145221
0.0557404
-0.0167143
0.0339468
-0.0181365
0.00949179
-0.0184128
-0.0157036
-0.018014
-0.0398521
-0.0173583
-0.0621256
-0.016801
-0.0829969
-0.0165766
-0.103854
-0.016772
-0.126196
-0.0174429
-0.150659
-0.0187106
-0.176471
-0.021009
-0.201167
-0.221175
0.00917013
0.130303
0.0171575
0.137656
0.024087
0.140926
0.0296829
0.143867
0.0337993
0.146505
0.0365702
0.14837
0.0381682
0.149244
0.0387531
0.149006
0.0384769
0.147536
0.0375052
0.144787
0.0359722
0.140643
0.0340008
0.134964
0.0317082
0.127594
0.0292185
0.118363
0.0266208
0.107028
0.0240051
0.0933331
0.0215052
0.0770767
0.0192934
0.0579523
0.0174871
0.0357531
0.0159038
0.0110751
0.0149623
-0.0147621
0.0142866
-0.0391765
0.0137362
-0.0615752
0.0131599
-0.0824206
0.0124328
-0.103127
0.011472
-0.125235
0.0101796
-0.149366
0.0083512
-0.174643
0.0055848
-0.1984
-0.217276
0.0132134
0.117089
0.0241383
0.126731
0.0342653
0.130799
0.0423955
0.135737
0.0486098
0.140291
0.0532494
0.143731
0.0565815
0.145912
0.0588139
0.146774
0.0601177
0.146232
0.0606633
0.144242
0.0605943
0.140712
0.0600372
0.135521
0.0591104
0.128521
0.0579303
0.119543
0.0565875
0.108371
0.0551623
0.0947583
0.0537585
0.0784804
0.05246
0.0592509
0.0512282
0.0369848
0.0499119
0.0123915
0.0483296
-0.0131798
0.0465825
-0.0374294
0.0447728
-0.0597655
0.0430133
-0.0806611
0.0413445
-0.101458
0.0397191
-0.12361
0.0379845
-0.147632
0.0358342
-0.172493
0.0328928
-0.195459
-0.213153
0.207433
0.0060059
0.206994
0.011635
0.206354
0.0169973
0.205522
0.0221795
0.204506
0.0272495
0.203313
0.0322636
0.201949
0.0372714
0.20042
0.0423162
0.198732
0.0474362
0.196889
0.0526651
0.194896
0.0580335
0.192759
0.0635699
0.19048
0.0693011
0.188064
0.0752539
0.185513
0.0814556
0.18283
0.0879358
0.180014
0.0947281
0.177065
0.101872
0.173978
0.109418
0.170749
0.117429
0.167368
0.125988
0.163824
0.135209
0.160108
0.145249
0.156216
0.156327
0.152163
0.168766
0.148039
0.183042
0.144206
0.199874
0.142311
0.220055
0.152851
0.240979
0.25196
0.225194
0.212477
0.00621208
0.212078
0.0120338
0.211498
0.0175776
0.210745
0.0229321
0.209828
0.0281662
0.208756
0.0333363
0.207534
0.0384927
0.206172
0.0436787
0.204675
0.0489325
0.203053
0.0542879
0.201311
0.0597753
0.199458
0.0654228
0.197502
0.071257
0.195452
0.0773041
0.193316
0.083591
0.191106
0.0901465
0.188831
0.0970031
0.186504
0.104199
0.184143
0.11178
0.181768
0.119804
0.179411
0.128345
0.177122
0.137498
0.174985
0.147385
0.173152
0.15816
0.171914
0.170004
0.171873
0.183083
0.174357
0.19739
0.181807
0.212605
0.195048
0.227739
0.24185
0.205157
0.217644
0.00639544
0.21729
0.012388
0.216775
0.0180922
0.21611
0.0235977
0.215302
0.0289737
0.214361
0.0342772
0.213296
0.0395582
0.212115
0.04486
0.210827
0.0502203
0.209442
0.0556725
0.207971
0.0612462
0.206426
0.0669686
0.204817
0.0728653
0.20316
0.0789611
0.20147
0.0852808
0.199766
0.0918509
0.198069
0.0987002
0.196406
0.105862
0.194812
0.113373
0.193335
0.121281
0.192041
0.129639
0.191027
0.138512
0.190443
0.14797
0.190519
0.158084
0.191621
0.168903
0.194287
0.180417
0.199179
0.192498
0.206786
0.204997
0.216562
0.217963
0.229036
0.229376
0.222938
0.00655387
0.222633
0.0126937
0.22219
0.0185352
0.221619
0.0241684
0.22093
0.0296629
0.220131
0.0350754
0.219234
0.0404555
0.218248
0.045846
0.217184
0.051284
0.216055
0.0568017
0.214874
0.0624277
0.213655
0.0681875
0.212415
0.0741049
0.211174
0.0802022
0.209954
0.0865013
0.20878
0.0930246
0.207685
0.0997952
0.206708
0.106838
0.2059
0.114181
0.205327
0.121854
0.205079
0.129888
0.205277
0.138314
0.20609
0.147156
0.207749
0.156425
0.21055
0.166101
0.214847
0.17612
0.220993
0.186353
0.229425
0.196565
0.240881
0.206507
0.214054
0.255864
0.228362
0.00668538
0.228108
0.0129471
0.227743
0.018901
0.227274
0.0246373
0.226712
0.0302251
0.226066
0.0357208
0.225348
0.0411732
0.22457
0.0466243
0.223744
0.0521099
0.222885
0.0576608
0.222009
0.0633039
0.221134
0.0690628
0.22028
0.0749586
0.219472
0.0810104
0.218737
0.0872362
0.218108
0.093653
0.217626
0.100277
0.21734
0.107125
0.21731
0.114211
0.217615
0.121549
0.218354
0.129149
0.219654
0.137013
0.221678
0.145132
0.224627
0.153477
0.228741
0.161987
0.234299
0.170561
0.241622
0.17903
0.251091
0.187095
0.263121
0.194477
0.200156
0.277018
0.233918
0.00678814
0.23372
0.0131445
0.233437
0.0191846
0.233076
0.0249977
0.232649
0.0306526
0.232165
0.0362045
0.231637
0.0417013
0.231078
0.0471837
0.230502
0.0526859
0.229925
0.0582372
0.229367
0.0638622
0.228848
0.069582
0.228392
0.0754145
0.228027
0.0813752
0.227786
0.0874773
0.227707
0.0937321
0.227836
0.100149
0.228227
0.106733
0.228948
0.11349
0.230081
0.120416
0.231726
0.127504
0.234003
0.134736
0.23706
0.142076
0.241065
0.149471
0.246216
0.156837
0.252726
0.164051
0.260811
0.170945
0.270631
0.177275
0.282278
0.182831
0.187142
0.295292
0.239609
0.00686048
0.239471
0.0132829
0.239274
0.0193813
0.239028
0.025244
0.238742
0.0309384
0.238428
0.0365186
0.238098
0.0420311
0.237767
0.047515
0.23745
0.0530028
0.237165
0.0585216
0.236934
0.0640934
0.236779
0.0697367
0.236728
0.0754659
0.236811
0.0812924
0.237063
0.0872247
0.237528
0.0932678
0.238253
0.0994237
0.239296
0.10569
0.240725
0.11206
0.24262
0.118521
0.245077
0.125048
0.248202
0.13161
0.252121
0.138157
0.256969
0.144622
0.262893
0.150914
0.270031
0.156913
0.2785
0.162476
0.288352
0.167422
0.299603
0.17158
0.174701
0.312044
0.245439
0.00690098
0.245362
0.0133594
0.245256
0.0194873
0.245129
0.0253711
0.244991
0.0310767
0.244852
0.0366567
0.244728
0.0421558
0.244631
0.0476113
0.244581
0.0530536
0.244595
0.0585074
0.244696
0.0639923
0.244909
0.0695234
0.245263
0.0751118
0.245791
0.0807649
0.246529
0.0864861
0.247522
0.0922751
0.248818
0.0981273
0.250476
0.104033
0.252559
0.109977
0.255143
0.115937
0.258311
0.12188
0.262155
0.127766
0.266776
0.133537
0.272274
0.139124
0.278749
0.144439
0.286285
0.149377
0.29494
0.153821
0.304727
0.157635
0.315621
0.160686
0.162844
0.327477
0.25141
0.00690843
0.251397
0.0133719
0.251385
0.0194994
0.251381
0.0253751
0.251395
0.0310631
0.251438
0.0366139
0.251523
0.0420705
0.251666
0.0474679
0.251886
0.0528343
0.252201
0.0581918
0.252636
0.0635575
0.253216
0.0689432
0.253971
0.0743568
0.254935
0.0798016
0.256144
0.0852767
0.257642
0.090777
0.259477
0.0962923
0.261703
0.101807
0.264379
0.107301
0.267572
0.112744
0.271352
0.118101
0.275793
0.123324
0.280972
0.128358
0.28696
0.133136
0.293819
0.137579
0.301596
0.1416
0.310313
0.145105
0.319954
0.147995
0.330465
0.150174
0.15158
0.341729
0.257525
0.0068819
0.257579
0.0133184
0.257663
0.019415
0.257785
0.0252531
0.257954
0.0308943
0.258181
0.0363871
0.258479
0.0417722
0.258865
0.0470824
0.259355
0.0523435
0.259972
0.0575752
0.260738
0.0627916
0.261679
0.0680019
0.262826
0.0732105
0.26421
0.0784173
0.265869
0.0836178
0.267843
0.0888027
0.270177
0.093958
0.272921
0.0990642
0.276125
0.104096
0.279847
0.109022
0.284143
0.113804
0.289071
0.118396
0.294684
0.122745
0.301029
0.12679
0.308143
0.130466
0.316043
0.1337
0.324725
0.136422
0.334157
0.138562
0.344275
0.140057
0.140874
0.354981
0.263789
0.00682074
0.263909
0.0131978
0.264092
0.0192326
0.264342
0.0250031
0.264668
0.0305684
0.26508
0.0359746
0.265592
0.04126
0.26622
0.046455
0.26698
0.051583
0.267894
0.0566612
0.268985
0.0617011
0.270277
0.0667092
0.271801
0.0716871
0.273586
0.0766318
0.275668
0.0815357
0.278084
0.0863867
0.280875
0.0911679
0.284081
0.0958575
0.287749
0.100429
0.291922
0.104849
0.296645
0.109081
0.30196
0.113082
0.307901
0.116804
0.314496
0.120195
0.32176
0.123202
0.329692
0.125768
0.338272
0.127842
0.347459
0.129376
0.357188
0.130328
0.130688
0.367375
0.270203
0.00672457
0.270392
0.0130095
0.270673
0.0189513
0.271052
0.0246244
0.271535
0.030085
0.272133
0.0353766
0.272858
0.040535
0.273725
0.0455882
0.274751
0.0505571
0.275955
0.0554566
0.27736
0.0602959
0.278991
0.0650789
0.280873
0.069805
0.283036
0.0744688
0.285511
0.0790607
0.288331
0.0835665
0.291531
0.0879679
0.295146
0.0922421
0.299213
0.0963623
0.303764
0.100297
0.308833
0.104012
0.314447
0.107468
0.320626
0.110625
0.327383
0.113439
0.334716
0.115868
0.342613
0.117871
0.351044
0.11941
0.359965
0.120455
0.369313
0.12098
0.120987
0.379013
0.276772
0.00659331
0.277028
0.0127532
0.277408
0.0185711
0.277915
0.0241174
0.278555
0.0294452
0.279337
0.0345951
0.280272
0.0396004
0.281373
0.0444868
0.282657
0.0492728
0.284143
0.0539711
0.28585
0.0585888
0.287801
0.0631278
0.29002
0.0675856
0.292534
0.0719553
0.295369
0.0762257
0.298554
0.0803818
0.302117
0.0844048
0.306087
0.0882722
0.31049
0.0919585
0.315353
0.0954348
0.320695
0.0986699
0.326533
0.101631
0.332874
0.104283
0.33972
0.106593
0.34706
0.108529
0.354872
0.110059
0.363122
0.11116
0.371764
0.111813
0.38074
0.112004
0.111742
0.389986
0.283499
0.00642716
0.283822
0.0124296
0.284301
0.018093
0.284934
0.0234835
0.285729
0.028651
0.28669
0.0336333
0.28783
0.0384612
0.289159
0.0431576
0.290692
0.0477393
0.292447
0.0522168
0.29444
0.0565953
0.296693
0.0608753
0.299225
0.0650529
0.302061
0.06912
0.305221
0.073065
0.308731
0.0768726
0.312611
0.0805246
0.316883
0.0839997
0.321567
0.0872744
0.326679
0.0903231
0.33223
0.0931189
0.338226
0.0956343
0.344668
0.0978418
0.351546
0.0997155
0.358843
0.101231
0.366533
0.10237
0.374579
0.103114
0.382937
0.103455
0.391554
0.103388
0.102924
0.400371
0.290387
0.00622662
0.290777
0.0120395
0.291352
0.0175184
0.29211
0.0227252
0.293055
0.0277062
0.294192
0.0324963
0.295529
0.0371238
0.297077
0.0416094
0.298849
0.0459678
0.300858
0.0502076
0.30312
0.0543328
0.305653
0.0583425
0.308474
0.0622321
0.311601
0.0659929
0.315053
0.0696134
0.318847
0.0730787
0.322999
0.0763718
0.327526
0.0794734
0.332438
0.0823625
0.337744
0.0850172
0.343448
0.087415
0.349548
0.0895337
0.356038
0.0913523
0.362902
0.0928513
0.370119
0.0940145
0.37766
0.0948288
0.385488
0.0952857
0.393561
0.0953819
0.40183
0.0951185
0.09451
0.410244
0.29744
0.00599239
0.297895
0.0115844
0.298564
0.0168498
0.299443
0.0218458
0.300534
0.0266153
0.30184
0.0311902
0.303368
0.0355964
0.305125
0.0398523
0.307122
0.0439708
0.30937
0.0479592
0.311883
0.05182
0.314673
0.0555518
0.317756
0.0591494
0.321145
0.0626041
0.324853
0.0659049
0.328894
0.0690381
0.333278
0.0719881
0.338013
0.074738
0.343106
0.0772697
0.348558
0.079565
0.354367
0.0816057
0.360526
0.0833747
0.367022
0.0848562
0.373837
0.0860368
0.380946
0.0869058
0.388318
0.0874561
0.39592
0.0876844
0.403709
0.087592
0.411644
0.0871838
0.0864753
0.419679
0.304662
0.00572543
0.30518
0.0110662
0.30594
0.0160901
0.306936
0.0208495
0.308168
0.0253838
0.309636
0.0297222
0.311344
0.033888
0.313299
0.0378976
0.315507
0.0417623
0.317978
0.045488
0.320722
0.0490766
0.323748
0.0525259
0.327066
0.0558308
0.330687
0.0589831
0.33462
0.0619724
0.338871
0.0647866
0.343448
0.0674119
0.348352
0.0698338
0.353584
0.0720374
0.359141
0.0740079
0.365016
0.0757312
0.371196
0.0771945
0.377665
0.0783867
0.384403
0.079299
0.391383
0.0799256
0.398576
0.0802635
0.405947
0.0803135
0.413459
0.0800796
0.421074
0.0795693
0.0787984
0.428751
0.312057
0.00542685
0.312636
0.0104872
0.313483
0.0152427
0.314592
0.019741
0.315957
0.0240181
0.317579
0.0281003
0.319459
0.0320085
0.321599
0.0357574
0.324005
0.0393566
0.326682
0.0428111
0.329636
0.0461221
0.332875
0.0492873
0.336404
0.0523017
0.340229
0.0551578
0.344355
0.0578464
0.348785
0.0603569
0.353519
0.0626775
0.358557
0.0647963
0.363893
0.0667011
0.369521
0.0683806
0.375428
0.0698241
0.3816
0.0710226
0.388017
0.0719689
0.394658
0.072658
0.401497
0.0730874
0.408502
0.0732576
0.415644
0.0731718
0.422887
0.0728362
0.430197
0.0722597
0.0714576
0.437538
0.319628
0.00509792
0.320266
0.00984987
0.321197
0.0143114
0.322413
0.0185256
0.323906
0.0225249
0.325673
0.026333
0.327713
0.0299685
0.330026
0.0334441
0.332615
0.0367684
0.335481
0.0399453
0.338627
0.0429758
0.342057
0.0458575
0.345772
0.0485858
0.349776
0.0511542
0.354068
0.0535547
0.358646
0.0557781
0.363509
0.057815
0.36865
0.0596555
0.37406
0.0612905
0.37973
0.0627112
0.385644
0.0639102
0.391785
0.0648815
0.398133
0.065621
0.404664
0.0661266
0.411353
0.0663986
0.418171
0.0664396
0.425088
0.0662545
0.432074
0.0658509
0.439095
0.0652382
0.064431
0.446122
0.327381
0.00473996
0.328074
0.00915678
0.329086
0.0133001
0.330403
0.0172086
0.332016
0.0209113
0.33392
0.0244291
0.33611
0.0277783
0.338584
0.0309702
0.341341
0.034012
0.344379
0.0369071
0.347698
0.0396561
0.351299
0.0422568
0.35518
0.0447053
0.359338
0.0469959
0.363771
0.0491218
0.368473
0.0510756
0.373439
0.0528498
0.378657
0.0544367
0.384119
0.0558293
0.389808
0.0570216
0.39571
0.0580085
0.401805
0.0587868
0.408071
0.0593546
0.414486
0.0597119
0.421023
0.0598611
0.427657
0.059806
0.434359
0.0595528
0.4411
0.0591096
0.447852
0.0584858
0.0576953
0.454588
0.335319
0.00435434
0.336066
0.00841064
0.337153
0.012213
0.338566
0.0157957
0.340292
0.0191844
0.342324
0.0223973
0.344654
0.0254484
0.347277
0.0283477
0.350187
0.0311012
0.353383
0.0337118
0.356859
0.0361799
0.360612
0.0385037
0.364638
0.0406797
0.36893
0.0427032
0.373483
0.0445688
0.378288
0.0462706
0.383336
0.0478026
0.388613
0.0491593
0.394107
0.0503356
0.399801
0.0513276
0.405677
0.0521322
0.411716
0.0527481
0.417895
0.0531752
0.424192
0.0534152
0.430581
0.0534715
0.437038
0.0533489
0.443537
0.0530542
0.450051
0.0525954
0.456555
0.0519818
0.051226
0.463025
0.343448
0.00394232
0.344244
0.00761398
0.345403
0.011054
0.346907
0.0142923
0.34874
0.0173511
0.350892
0.020246
0.353351
0.0229888
0.356111
0.0255881
0.359163
0.0280489
0.362501
0.0303736
0.366119
0.0325625
0.370008
0.0346142
0.374162
0.0365258
0.378572
0.0382934