/*--------------------------------*- C++ -*----------------------------------*\
  =========                 |
  \\      /  F ield         | OpenFOAM: The Open Source CFD Toolbox
   \\    /   O peration     | Website:  https://openfoam.org
    \\  /    A nd           | Version:  7
     \\/     M anipulation  |
\*---------------------------------------------------------------------------*/
FoamFile
{
    version     2.0;
    format      ascii;
    class       volVectorField;
    location    "0.7";
    object      U;
}
// * * * * * * * * * * * * * * * * * * * * * * * * * * * * * * * * * * * * * //

dimensions      [0 1 -1 0 0 0 0];

internalField   nonuniform List<vector> 
2790
(
(9.94366 0.0207144 0)
(9.87433 0.0299642 0)
(9.772 0.0365376 0)
(9.64382 0.0432612 0)
(9.49558 0.0502338 0)
(9.32827 0.0574059 0)
(9.14113 0.0649078 0)
(8.93335 0.0729012 0)
(8.70415 0.0815236 0)
(8.45264 0.0908985 0)
(8.17769 0.101149 0)
(7.87802 0.1124 0)
(7.5522 0.124776 0)
(7.19875 0.138397 0)
(6.81618 0.153367 0)
(6.40309 0.169762 0)
(5.95833 0.187609 0)
(5.48118 0.20686 0)
(4.97155 0.227352 0)
(4.43035 0.248765 0)
(3.85979 0.270559 0)
(3.26382 0.29191 0)
(2.64854 0.311625 0)
(2.0225 0.328036 0)
(1.39673 0.338845 0)
(0.783663 0.340842 0)
(0.21723 0.314886 0)
(-0.369228 0.00565876 0)
(-0.411515 -0.225056 0)
(-0.168788 -0.336295 0)
(9.99817 0.0412918 0)
(9.98005 0.0635179 0)
(9.93252 0.0807744 0)
(9.85851 0.0987109 0)
(9.76241 0.117617 0)
(9.64528 0.137341 0)
(9.50654 0.158139 0)
(9.34545 0.180366 0)
(9.16125 0.204328 0)
(8.95304 0.230299 0)
(8.71973 0.258543 0)
(8.46 0.289315 0)
(8.17241 0.32285 0)
(7.85543 0.35934 0)
(7.50747 0.398903 0)
(7.12701 0.441537 0)
(6.7127 0.487058 0)
(6.26357 0.535017 0)
(5.77922 0.584603 0)
(5.26017 0.634524 0)
(4.70824 0.682876 0)
(4.12701 0.727012 0)
(3.52238 0.763398 0)
(2.90337 0.787434 0)
(2.28333 0.793069 0)
(1.6816 0.771379 0)
(1.12566 0.702523 0)
(0.647908 0.506232 0)
(0.275901 0.178707 0)
(0.02266 -0.382916 0)
(9.99527 0.0442013 0)
(9.97418 0.077175 0)
(9.92863 0.10608 0)
(9.85935 0.135861 0)
(9.76938 0.167231 0)
(9.65992 0.200175 0)
(9.5307 0.235044 0)
(9.38116 0.272341 0)
(9.21071 0.312547 0)
(9.01863 0.356109 0)
(8.80399 0.403469 0)
(8.56568 0.45506 0)
(8.30244 0.511289 0)
(8.01287 0.572506 0)
(7.6955 0.638948 0)
(7.34882 0.71067 0)
(6.97138 0.787443 0)
(6.56192 0.868615 0)
(6.11958 0.952943 0)
(5.64411 1.03838 0)
(5.13627 1.12185 0)
(4.59829 1.19896 0)
(4.03444 1.26371 0)
(3.45178 1.30802 0)
(2.86114 1.3209 0)
(2.27749 1.28611 0)
(1.71786 1.1763 0)
(1.19409 0.939619 0)
(0.700281 0.567528 0)
(0.333513 -0.00316856 0)
(9.9937 0.050884 0)
(9.97043 0.0958552 0)
(9.92472 0.137373 0)
(9.85671 0.179056 0)
(9.76856 0.222224 0)
(9.66139 0.267287 0)
(9.53519 0.314781 0)
(9.38959 0.365372 0)
(9.22416 0.41972 0)
(9.03841 0.478456 0)
(8.83167 0.542199 0)
(8.60314 0.61156 0)
(8.35189 0.687126 0)
(8.07688 0.769419 0)
(7.77701 0.858837 0)
(7.45111 0.95557 0)
(7.098 1.05947 0)
(6.71656 1.16986 0)
(6.30583 1.28534 0)
(5.86514 1.40347 0)
(5.39442 1.52042 0)
(4.89448 1.63061 0)
(4.36745 1.72617 0)
(3.81727 1.79643 0)
(3.25 1.82693 0)
(2.67357 1.798 0)
(2.09585 1.68248 0)
(1.52093 1.44548 0)
(0.930192 1.08039 0)
(0.446452 0.561372 0)
(9.99299 0.058989 0)
(9.96857 0.114357 0)
(9.92278 0.16698 0)
(9.85594 0.219566 0)
(9.76963 0.273785 0)
(9.66477 0.330415 0)
(9.54142 0.390135 0)
(9.3993 0.453702 0)
(9.23807 0.521883 0)
(9.05732 0.59542 0)
(8.85654 0.675041 0)
(8.6351 0.761465 0)
(8.39228 0.855384 0)
(8.12732 0.957427 0)
(7.8394 1.0681 0)
(7.52764 1.18769 0)
(7.19116 1.31614 0)
(6.82904 1.45284 0)
(6.4404 1.59637 0)
(6.02438 1.74418 0)
(5.5803 1.89214 0)
(5.10777 2.03407 0)
(4.60691 2.16118 0)
(4.07858 2.26144 0)
(3.52446 2.319 0)
(2.94677 2.31364 0)
(2.34732 2.22081 0)
(1.72709 2.01363 0)
(1.05991 1.68404 0)
(0.491129 1.20138 0)
(9.9927 0.0677034 0)
(9.96786 0.132845 0)
(9.92242 0.196059 0)
(9.85703 0.259426 0)
(9.77295 0.324637 0)
(9.67088 0.392689 0)
(9.55089 0.464387 0)
(9.41277 0.540576 0)
(9.25623 0.622117 0)
(9.08091 0.70986 0)
(8.88638 0.804634 0)
(8.67209 0.907259 0)
(8.43744 1.01852 0)
(8.18179 1.13913 0)
(7.90444 1.2697 0)
(7.60468 1.41059 0)
(7.28174 1.56184 0)
(6.93479 1.72294 0)
(6.56291 1.8926 0)
(6.16503 2.06834 0)
(5.73994 2.24612 0)
(5.28623 2.41974 0)
(4.80233 2.58027 0)
(4.28658 2.7155 0)
(3.73726 2.80946 0)
(3.15261 2.8424 0)
(2.53046 2.79155 0)
(1.87117 2.63302 0)
(1.14389 2.35704 0)
(0.51572 1.91973 0)
(9.99265 0.0766272 0)
(9.96791 0.151199 0)
(9.92325 0.224495 0)
(9.8596 0.298237 0)
(9.77811 0.374047 0)
(9.67931 0.453074 0)
(9.56324 0.536269 0)
(9.42975 0.624574 0)
(9.2786 0.718945 0)
(9.10948 0.820327 0)
(8.92199 0.929641 0)
(8.71564 1.04779 0)
(8.48988 1.17564 0)
(8.2441 1.314 0)
(7.97767 1.46353 0)
(7.68986 1.62471 0)
(7.37989 1.79769 0)
(7.04684 1.98211 0)
(6.68962 2.17688 0)
(6.30684 2.37983 0)
(5.8967 2.58728 0)
(5.45685 2.79349 0)
(4.98429 2.99007 0)
(4.47533 3.16536 0)
(3.92566 3.304 0)
(3.33068 3.38687 0)
(2.68547 3.39182 0)
(1.9911 3.29494 0)
(1.21273 3.08297 0)
(0.535388 2.69507 0)
(9.99275 0.0855256 0)
(9.96846 0.169229 0)
(9.92497 0.252124 0)
(9.8634 0.335783 0)
(9.78485 0.421769 0)
(9.68976 0.511334 0)
(9.57814 0.605555 0)
(9.44991 0.70547 0)
(9.30485 0.812121 0)
(9.1427 0.926537 0)
(8.9631 1.04973 0)
(8.76561 1.18268 0)
(8.54969 1.32635 0)
(8.31478 1.48162 0)
(8.0602 1.64927 0)
(7.78518 1.82989 0)
(7.48885 2.02379 0)
(7.17009 2.23083 0)
(6.82753 2.45024 0)
(6.45935 2.68028 0)
(6.06311 2.9179 0)
(5.63554 3.15818 0)
(5.17235 3.39374 0)
(4.6681 3.61403 0)
(4.11628 3.80473 0)
(3.50986 3.94737 0)
(2.8415 4.01957 0)
(2.11301 3.99521 0)
(1.28524 3.85514 0)
(0.558193 3.51901 0)
(9.99294 0.0942482 0)
(9.96938 0.186765 0)
(9.92738 0.278796 0)
(9.86821 0.371898 0)
(9.79296 0.467598 0)
(9.70199 0.56722 0)
(9.59534 0.671946 0)
(9.47293 0.782904 0)
(9.33462 0.901217 0)
(9.18018 1.028 0)
(9.00929 1.16433 0)
(8.82156 1.31131 0)
(8.61649 1.46996 0)
(8.39351 1.64128 0)
(8.15194 1.82618 0)
(7.89095 2.0254 0)
(7.60952 2.23946 0)
(7.30635 2.46852 0)
(6.97975 2.71223 0)
(6.62742 2.96946 0)
(6.2463 3.23798 0)
(5.83222 3.51401 0)
(5.37965 3.79154 0)
(4.88147 4.06161 0)
(4.32899 4.31141 0)
(3.71258 4.52329 0)
(3.02176 4.67426 0)
(2.25784 4.73453 0)
(1.37617 4.67653 0)
(0.590376 4.39693 0)
(9.99321 0.102691 0)
(9.97058 0.203661 0)
(9.93036 0.304371 0)
(9.87388 0.406418 0)
(9.80225 0.51133 0)
(9.71579 0.620482 0)
(9.61456 0.735143 0)
(9.49851 0.856525 0)
(9.36755 0.985828 0)
(9.2215 1.12424 0)
(9.06009 1.27293 0)
(8.88298 1.43306 0)
(8.68972 1.60579 0)
(8.47977 1.79221 0)
(8.25243 1.99339 0)
(8.00685 2.21025 0)
(7.7419 2.44359 0)
(7.45614 2.69395 0)
(7.14758 2.96149 0)
(6.81357 3.24583 0)
(6.45046 3.54578 0)
(6.05328 3.85893 0)
(5.61535 4.18108 0)
(5.12787 4.50539 0)
(4.57976 4.82118 0)
(3.95809 5.11237 0)
(3.24765 5.35572 0)
(2.44655 5.51719 0)
(1.50161 5.55826 0)
(0.639431 5.34659 0)
(9.99354 0.110776 0)
(9.972 0.2198 0)
(9.93379 0.328714 0)
(9.88028 0.439191 0)
(9.81256 0.552777 0)
(9.73098 0.670893 0)
(9.63558 0.794879 0)
(9.52637 0.926022 0)
(9.4033 1.06559 0)
(9.26625 1.21484 0)
(9.11503 1.37502 0)
(8.94933 1.54739 0)
(8.76879 1.73318 0)
(8.5729 1.93365 0)
(8.361 2.14999 0)
(8.13225 2.38337 0)
(7.88551 2.63489 0)
(7.61924 2.90552 0)
(7.33132 3.19603 0)
(7.01886 3.5069 0)
(6.67784 3.83816 0)
(6.3027 4.18905 0)
(5.88583 4.55758 0)
(5.41689 4.93968 0)
(4.88221 5.32789 0)
(4.26469 5.70917 0)
(3.54214 6.06181 0)
(2.70477 6.3488 0)
(1.68418 6.51886 0)
(0.717383 6.40043 0)
(9.9939 0.118447 0)
(9.97359 0.235083 0)
(9.93759 0.351709 0)
(9.88729 0.470078 0)
(9.82377 0.591773 0)
(9.74737 0.718251 0)
(9.65817 0.850915 0)
(9.55622 0.991115 0)
(9.44152 1.14018 0)
(9.31403 1.29943 0)
(9.17361 1.47018 0)
(9.02005 1.65377 0)
(8.85304 1.85154 0)
(8.67218 2.06485 0)
(8.47688 2.29509 0)
(8.26636 2.54366 0)
(8.03955 2.81196 0)
(7.79496 3.10144 0)
(7.53049 3.41351 0)
(7.24326 3.74961 0)
(6.92916 4.11106 0)
(6.58246 4.499 0)
(6.19506 4.91404 0)
(5.75558 5.35568 0)
(5.24806 5.82111 0)
(4.65084 6.30289 0)
(3.93237 6.78487 0)
(3.06832 7.23231 0)
(1.9613 7.58405 0)
(0.847234 7.61519 0)
(9.9943 0.125656 0)
(9.97531 0.249428 0)
(9.9417 0.37325 0)
(9.89482 0.498957 0)
(9.83573 0.628169 0)
(9.76478 0.762381 0)
(9.6821 0.903042 0)
(9.58777 1.05156 0)
(9.48187 1.2093 0)
(9.3644 1.37766 0)
(9.23533 1.558 0)
(9.09453 1.75173 0)
(8.94179 1.96029 0)
(8.77681 2.18515 0)
(8.59914 2.42785 0)
(8.40814 2.69003 0)
(8.2029 2.9734 0)
(7.98211 3.27985 0)
(7.74391 3.61144 0)
(7.48567 3.97053 0)
(7.20365 4.35979 0)
(6.89246 4.78231 0)
(6.54433 5.24158 0)
(6.1479 5.74134 0)
(5.68627 6.28501 0)
(5.13438 6.87418 0)
(4.45103 7.50529 0)
(3.5905 8.15886 0)
(2.40169 8.7829 0)
(1.07901 9.09813 0)
(9.99472 0.132368 0)
(9.97715 0.26277 0)
(9.94606 0.393252 0)
(9.90277 0.525723 0)
(9.84831 0.661842 0)
(9.78305 0.803136 0)
(9.70715 0.951092 0)
(9.62075 1.10716 0)
(9.52398 1.27275 0)
(9.41694 1.44928 0)
(9.29966 1.63819 0)
(9.17213 1.84092 0)
(9.03427 2.059 0)
(8.8859 2.294 0)
(8.72676 2.54758 0)
(8.5564 2.82158 0)
(8.37416 3.11799 0)
(8.17906 3.43907 0)
(7.96968 3.78747 0)
(7.74396 4.16635 0)
(7.49892 4.57959 0)
(7.23024 5.0321 0)
(6.93156 5.53014 0)
(6.59328 6.08187 0)
(6.20037 6.69791 0)
(5.72879 7.39197 0)
(5.13358 8.18167 0)
(4.35007 9.08606 0)
(3.14288 10.1231 0)
(1.53489 11.0838 0)
(9.99516 0.138554 0)
(9.97907 0.275054 0)
(9.95062 0.411638 0)
(9.91107 0.550276 0)
(9.8614 0.692662 0)
(9.80201 0.840351 0)
(9.73311 0.994857 0)
(9.65488 1.15766 0)
(9.56753 1.3302 0)
(9.47122 1.51392 0)
(9.36609 1.7103 0)
(9.25223 1.92083 0)
(9.12971 2.14706 0)
(8.99853 2.39066 0)
(8.85861 2.65338 0)
(8.70977 2.9372 0)
(8.55168 3.24431 0)
(8.3838 3.57726 0)
(8.20531 3.93913 0)
(8.01497 4.33366 0)
(7.81101 4.76565 0)
(7.59082 5.24134 0)
(7.35059 5.76916 0)
(7.0846 6.36084 0)
(6.78381 7.03324 0)
(6.43368 7.81195 0)
(6.0037 8.73902 0)
(5.44863 9.892 0)
(4.49143 11.468 0)
(2.56138 14.175 0)
(-0.528392 0.605304 0)
(-1.40771 0.669349 0)
(-2.47536 0.64045 0)
(-3.53832 0.600487 0)
(-4.59265 0.557187 0)
(-5.62597 0.513238 0)
(-6.62949 0.469505 0)
(-7.59644 0.426301 0)
(-8.52124 0.383717 0)
(-9.39896 0.341719 0)
(-10.2249 0.300191 0)
(-10.994 0.258961 0)
(-11.7011 0.217821 0)
(-12.3399 0.176547 0)
(-12.9035 0.134896 0)
(-13.384 0.0926156 0)
(-13.7724 0.0494583 0)
(-14.0593 0.00512782 0)
(-14.2336 -0.0408476 0)
(-14.2829 -0.0899819 0)
(-14.1937 -0.146142 0)
(-13.9487 -0.20862 0)
(-13.5277 -0.279214 0)
(-12.9089 -0.361095 0)
(-12.0647 -0.459234 0)
(-10.953 -0.581063 0)
(-9.49302 -0.740643 0)
(-7.52389 -0.968151 0)
(-4.79436 -1.29514 0)
(-0.803968 -1.60814 0)
(-0.674478 1.39113 0)
(-1.58826 1.48291 0)
(-2.676 1.474 0)
(-3.74432 1.43878 0)
(-4.80225 1.38632 0)
(-5.83833 1.32319 0)
(-6.84413 1.25322 0)
(-7.81287 1.17882 0)
(-8.73893 1.10147 0)
(-9.61736 1.02194 0)
(-10.4434 0.940509 0)
(-11.2123 0.857014 0)
(-11.9185 0.771022 0)
(-12.556 0.681917 0)
(-13.1178 0.588993 0)
(-13.596 0.491538 0)
(-13.9818 0.388927 0)
(-14.2659 0.280721 0)
(-14.4382 0.166426 0)
(-14.4882 0.0446981 0)
(-14.4028 -0.0865286 0)
(-14.1758 -0.226137 0)
(-13.7924 -0.374894 0)
(-13.2358 -0.537086 0)
(-12.4864 -0.719883 0)
(-11.5173 -0.933085 0)
(-10.2793 -1.1945 0)
(-8.6702 -1.54272 0)
(-6.58128 -2.01204 0)
(-4.43968 -2.45978 0)
(-0.681983 2.40517 0)
(-1.57276 2.48951 0)
(-2.63645 2.46264 0)
(-3.66173 2.39949 0)
(-4.6716 2.3084 0)
(-5.65683 2.19843 0)
(-6.61151 2.07563 0)
(-7.53056 1.9441 0)
(-8.40968 1.80645 0)
(-9.24496 1.66413 0)
(-10.0325 1.51768 0)
(-10.768 1.36695 0)
(-11.4467 1.21138 0)
(-12.0628 1.05017 0)
(-12.6097 0.882494 0)
(-13.0796 0.707655 0)
(-13.4641 0.52526 0)
(-13.7539 0.335363 0)
(-13.9393 0.138462 0)
(-14.0097 -0.0649037 0)
(-13.9542 -0.275294 0)
(-13.7707 -0.497787 0)
(-13.446 -0.733605 0)
(-12.9693 -0.987514 0)
(-12.328 -1.26755 0)
(-11.5069 -1.58343 0)
(-10.4785 -1.94773 0)
(-9.17956 -2.38268 0)
(-7.56576 -2.91168 0)
(-6.10625 -3.4705 0)
(-0.637393 3.4194 0)
(-1.46777 3.47258 0)
(-2.47136 3.40835 0)
(-3.42297 3.30624 0)
(-4.35853 3.17276 0)
(-5.26974 3.01797 0)
(-6.15342 2.84884 0)
(-7.00638 2.67035 0)
(-7.82568 2.48566 0)
(-8.60825 2.29643 0)
(-9.35064 2.10314 0)
(-10.0487 1.90537 0)
(-10.6975 1.70207 0)
(-11.291 1.49181 0)
(-11.8221 1.27303 0)
(-12.2828 1.04418 0)
(-12.6643 0.803922 0)
(-12.9571 0.551322 0)
(-13.1518 0.286027 0)
(-13.2393 0.00800996 0)
(-13.2069 -0.283109 0)
(-13.058 -0.585247 0)
(-12.7847 -0.901086 0)
(-12.3803 -1.23662 0)
(-11.8382 -1.60158 0)
(-11.1512 -2.00673 0)
(-10.3047 -2.46084 0)
(-9.26004 -2.97199 0)
(-8.00506 -3.55205 0)
(-6.94512 -4.15191 0)
(-0.57084 4.35354 0)
(-1.31631 4.37362 0)
(-2.23181 4.27123 0)
(-3.08876 4.13131 0)
(-3.93439 3.95897 0)
(-4.75952 3.76463 0)
(-5.56295 3.55527 0)
(-6.3427 3.33585 0)
(-7.09651 3.10935 0)
(-7.82156 2.87705 0)
(-8.5143 2.63887 0)
(-9.17022 2.39376 0)
(-9.78384 2.14005 0)
(-10.3487 1.87584 0)
(-10.8573 1.59928 0)
(-11.3013 1.30889 0)
(-11.6718 1.00378 0)
(-11.9594 0.683911 0)
(-12.1552 0.350284 0)
(-12.2504 0.00502677 0)
(-12.2349 -0.348955 0)
(-12.1147 -0.714073 0)
(-11.8853 -1.09204 0)
(-11.5453 -1.48876 0)
(-11.0933 -1.91477 0)
(-10.5278 -2.38129 0)
(-9.84263 -2.89406 0)
(-9.01454 -3.45157 0)
(-8.04713 -4.05331 0)
(-7.26166 -4.63786 0)
(-0.49291 5.17666 0)
(-1.13641 5.17182 0)
(-1.94452 5.03784 0)
(-2.69266 4.8661 0)
(-3.43768 4.66156 0)
(-4.16821 4.43513 0)
(-4.88454 4.19357 0)
(-5.58516 3.94157 0)
(-6.26802 3.68173 0)
(-6.93024 3.41486 0)
(-7.56796 3.14038 0)
(-8.17632 2.85677 0)
(-8.74946 2.56195 0)
(-9.28052 2.25365 0)
(-9.76174 1.92974 0)
(-10.1846 1.58846 0)
(-10.5398 1.22867 0)
(-10.8179 0.850111 0)
(-11.01 0.454061 0)
(-11.1075 0.0437778 0)
(-11.1031 -0.376288 0)
(-11.0033 -0.803264 0)
(-10.8097 -1.23877 0)
(-10.5252 -1.68897 0)
(-10.1535 -2.16541 0)
(-9.69697 -2.67991 0)
(-9.15454 -3.23628 0)
(-8.51301 -3.82619 0)
(-7.78129 -4.4353 0)
(-7.20053 -4.98531 0)
(-0.408622 5.87379 0)
(-0.937689 5.85442 0)
(-1.62518 5.69742 0)
(-2.25459 5.50203 0)
(-2.8909 5.27376 0)
(-3.5199 5.02402 0)
(-4.14319 4.75909 0)
(-4.75931 4.48316 0)
(-5.36618 4.19819 0)
(-5.96069 3.90435 0)
(-6.53869 3.60041 0)
(-7.09499 3.28426 0)
(-7.62338 2.95331 0)
(-8.1167 2.60485 0)
(-8.56688 2.23648 0)
(-8.96508 1.84635 0)
(-9.30185 1.43347 0)
(-9.56735 0.998137 0)
(-9.75197 0.542789 0)
(-9.84717 0.0730526 0)
(-9.84774 -0.403275 0)
(-9.76279 -0.882784 0)
(-9.59776 -1.36486 0)
(-9.36061 -1.85566 0)
(-9.05928 -2.36808 0)
(-8.69948 -2.91529 0)
(-8.28295 -3.50055 0)
(-7.80273 -4.1109 0)
(-7.26713 -4.71881 0)
(-6.84919 -5.2313 0)
(-0.321017 6.43504 0)
(-0.726036 6.41193 0)
(-1.28348 6.24108 0)
(-1.78664 6.03147 0)
(-2.30779 5.78918 0)
(-2.82935 5.52589 0)
(-3.35438 5.24705 0)
(-3.88116 4.95619 0)
(-4.40739 4.65453 0)
(-4.9297 4.34157 0)
(-5.44365 4.01545 0)
(-5.94383 3.67353 0)
(-6.42381 3.31281 0)
(-6.87625 2.93027 0)
(-7.29291 2.52328 0)
(-7.66476 2.08995 0)
(-7.98203 1.62939 0)
(-8.23419 1.14222 0)
(-8.4103 0.631813 0)
(-8.50071 0.105999 0)
(-8.50192 -0.424113 0)
(-8.42613 -0.950878 0)
(-8.28295 -1.47141 0)
(-8.08503 -1.99208 0)
(-7.84431 -2.52799 0)
(-7.56867 -3.09474 0)
(-7.26159 -3.69649 0)
(-6.9199 -4.31749 0)
(-6.5486 -4.91996 0)
(-6.26807 -5.39903 0)
(-0.232023 6.85304 0)
(-0.505012 6.83732 0)
(-0.925481 6.66209 0)
(-1.29634 6.44845 0)
(-1.69708 6.20266 0)
(-2.10625 5.93625 0)
(-2.52865 5.65346 0)
(-2.96191 5.35698 0)
(-3.4034 5.04729 0)
(-3.84944 4.72331 0)
(-4.2954 4.38261 0)
(-4.73572 4.02209 0)
(-5.16399 3.63837 0)
(-5.57293 3.22814 0)
(-5.9543 2.78844 0)
(-6.29904 2.31722 0)
(-6.59709 1.81355 0)
(-6.83689 1.27824 0)
(-7.0051 0.715602 0)
(-7.08958 0.1364 0)
(-7.08819 -0.443375 0)
(-7.01793 -1.01202 0)
(-6.89163 -1.56309 0)
(-6.72634 -2.10343 0)
(-6.53729 -2.65141 0)
(-6.33364 -3.22609 0)
(-6.1196 -3.83355 0)
(-5.89485 -4.45666 0)
(-5.66006 -5.0512 0)
(-5.50193 -5.50342 0)
(-0.143041 7.12243 0)
(-0.276777 7.12529 0)
(-0.555145 6.95523 0)
(-0.788493 6.74831 0)
(-1.0647 6.51012 0)
(-1.35753 6.25158 0)
(-1.674 5.97515 0)
(-2.01056 5.68251 0)
(-2.364 5.37348 0)
(-2.73027 5.04665 0)
(-3.10459 4.69906 0)
(-3.48136 4.32729 0)
(-3.85435 3.92771 0)
(-4.21663 3.4967 0)
(-4.56034 3.03093 0)
(-4.87666 2.52795 0)
(-5.15571 1.98656 0)
(-5.38485 1.40744 0)
(-5.54711 0.795488 0)
(-5.62571 0.16463 0)
(-5.62019 -0.462355 0)
(-5.55482 -1.06852 0)
(-5.44382 -1.64301 0)
(-5.30747 -2.19386 0)
(-5.16323 -2.744 0)
(-5.02057 -3.31698 0)
(-4.8836 -3.92125 0)
(-4.75502 -4.53885 0)
(-4.62983 -5.12264 0)
(-4.58516 -5.55453 0)
(-0.055675 7.23996 0)
(-0.0430286 7.27216 0)
(-0.175237 7.11717 0)
(-0.266214 6.92799 0)
(-0.41489 6.70903 0)
(-0.588601 6.46949 0)
(-0.797286 6.20959 0)
(-1.03542 5.93018 0)
(-1.29856 5.63062 0)
(-1.58232 5.309 0)
(-1.88183 4.96204 0)
(-2.19129 4.58631 0)
(-2.50475 4.17812 0)
(-2.81588 3.73363 0)
(-3.1175 3.24894 0)
(-3.40164 2.72116 0)
(-3.65947 2.1484 0)
(-3.87821 1.53073 0)
(-4.03614 0.872887 0)
(-4.10879 0.191388 0)
(-4.10003 -0.482629 0)
(-4.04421 -1.12171 0)
(-3.95256 -1.71257 0)
(-3.84616 -2.26588 0)
(-3.74317 -2.81025 0)
(-3.6527 -3.37433 0)
(-3.57804 -3.96894 0)
(-3.52621 -4.5751 0)
(-3.48321 -5.1438 0)
(-3.54472 -5.56 0)
(0.0302424 7.20365 0)
(0.192458 7.27142 0)
(0.213547 7.14391 0)
(0.265834 6.98452 0)
(0.247568 6.79859 0)
(0.194513 6.59118 0)
(0.0955163 6.36022 0)
(-0.0432224 6.10318 0)
(-0.216547 5.81897 0)
(-0.416591 5.50952 0)
(-0.6391 5.16951 0)
(-0.877912 4.79573 0)
(-1.12729 4.38465 0)
(-1.38159 3.93257 0)
(-1.63423 3.4362 0)
(-1.8781 2.89176 0)
(-2.10695 2.29436 0)
(-2.31048 1.64277 0)
(-2.46221 0.941591 0)
(-2.52696 0.212213 0)
(-2.5204 -0.505073 0)
(-2.48548 -1.16936 0)
(-2.4244 -1.76952 0)
(-2.355 -2.31889 0)
(-2.29401 -2.85215 0)
(-2.2499 -3.40333 0)
(-2.2249 -3.98505 0)
(-2.23234 -4.5767 0)
(-2.24511 -5.12531 0)
(-2.40134 -5.527 0)
(0.119773 7.01029 0)
(0.433065 7.11975 0)
(0.613613 7.03205 0)
(0.806344 6.91471 0)
(0.918334 6.77515 0)
(0.981896 6.61135 0)
(0.989472 6.41916 0)
(0.949352 6.19574 0)
(0.867459 5.93848 0)
(0.752103 5.64911 0)
(0.609075 5.32398 0)
(0.444621 4.96021 0)
(0.264374 4.55491 0)
(0.0740512 4.10518 0)
(-0.122259 3.60301 0)
(-0.31769 3.04551 0)
(-0.506053 2.43325 0)
(-0.688224 1.76217 0)
(-0.823944 1.03032 0)
(-0.859719 0.248525 0)
(-0.878505 -0.508816 0)
(-0.877873 -1.19606 0)
(-0.863471 -1.80342 0)
(-0.842931 -2.34747 0)
(-0.828796 -2.86887 0)
(-0.828379 -3.40708 0)
(-0.843517 -3.97599 0)
(-0.89407 -4.55312 0)
(-0.942179 -5.07833 0)
(-1.16996 -5.46251 0)
(0.2197 6.65251 0)
(0.685295 6.81632 0)
(1.02893 6.7803 0)
(1.35988 6.72102 0)
(1.59858 6.64346 0)
(1.77152 6.53548 0)
(1.87896 6.39121 0)
(1.9316 6.20799 0)
(1.93699 5.98344 0)
(1.90362 5.71896 0)
(1.83865 5.41268 0)
(1.74862 5.0624 0)
(1.63942 4.66586 0)
(1.51694 4.22088 0)
(1.38576 3.72307 0)
(1.25087 3.16747 0)
(1.11744 2.55242 0)
(0.98334 1.87476 0)
(0.886339 1.13234 0)
(0.855951 0.337672 0)
(0.815746 -0.459423 0)
(0.767036 -1.1769 0)
(0.720181 -1.79789 0)
(0.680177 -2.3441 0)
(0.64156 -2.86015 0)
(0.599312 -3.38947 0)
(0.549999 -3.94733 0)
(0.472238 -4.50972 0)
(0.397801 -5.01059 0)
(0.138519 -5.37102 0)
(0.334133 6.12525 0)
(0.957566 6.37691 0)
(1.46455 6.39889 0)
(1.93403 6.41514 0)
(2.29141 6.41495 0)
(2.5621 6.37391 0)
(2.75879 6.28549 0)
(2.89547 6.14829 0)
(2.98147 5.96128 0)
(3.02538 5.72598 0)
(3.03498 5.4421 0)
(3.01704 5.10842 0)
(2.97755 4.72332 0)
(2.92231 4.28487 0)
(2.85621 3.78974 0)
(2.78355 3.23399 0)
(2.70885 2.61525 0)
(2.63262 1.92936 0)
(2.57318 1.17722 0)
(2.54373 0.377576 0)
(2.48961 -0.412883 0)
(2.40216 -1.13126 0)
(2.29865 -1.75652 0)
(2.19785 -2.30695 0)
(2.10622 -2.82504 0)
(2.02431 -3.35338 0)
(1.94749 -3.90624 0)
(1.85418 -4.45694 0)
(1.76023 -4.937 0)
(1.5018 -5.26754 0)
(9.99563 0.14429 0)
(9.98109 0.286447 0)
(9.95542 0.428678 0)
(9.9198 0.573006 0)
(9.87516 0.721152 0)
(9.82195 0.874687 0)
(9.7604 1.03515 0)
(9.69077 1.20403 0)
(9.61332 1.38278 0)
(9.52832 1.57288 0)
(9.436 1.7758 0)
(9.3366 1.99306 0)
(9.23032 2.22624 0)
(9.11735 2.47702 0)
(8.99786 2.74725 0)
(8.87197 3.03895 0)
(8.73975 3.35443 0)
(8.60119 3.69641 0)
(8.45621 4.06817 0)
(8.3046 4.47376 0)
(8.14609 4.9184 0)
(7.9803 5.40896 0)
(7.80691 5.95478 0)
(7.62586 6.569 0)
(7.43802 7.27093 0)
(7.24796 8.09038 0)
(7.06843 9.07691 0)
(6.98643 10.3165 0)
(7.38783 11.9413 0)
(7.54178 14.4918 0)
(9.99612 0.149589 0)
(9.98322 0.296955 0)
(9.96048 0.444357 0)
(9.92895 0.593854 0)
(9.88957 0.747188 0)
(9.84277 0.905942 0)
(9.78884 1.07166 0)
(9.72809 1.24584 0)
(9.66087 1.42994 0)
(9.58754 1.62544 0)
(9.50843 1.83379 0)
(9.42392 2.05653 0)
(9.33439 2.29521 0)
(9.24021 2.55154 0)
(9.14183 2.82733 0)
(9.03968 3.12461 0)
(8.93427 3.44571 0)
(8.82616 3.79333 0)
(8.71603 4.17071 0)
(8.60478 4.58185 0)
(8.49366 5.03181 0)
(8.38457 5.52711 0)
(8.28064 6.07634 0)
(8.18727 6.69104 0)
(8.11445 7.3869 0)
(8.0823 8.18498 0)
(8.12658 9.11188 0)
(8.29806 10.1955 0)
(8.85165 11.3749 0)
(9.22155 12.3621 0)
(9.99664 0.154359 0)
(9.98544 0.306409 0)
(9.96573 0.458443 0)
(9.93847 0.612544 0)
(9.90453 0.770465 0)
(9.86435 0.933787 0)
(9.81827 1.10405 0)
(9.76667 1.28274 0)
(9.70996 1.47131 0)
(9.64858 1.67121 0)
(9.58299 1.88387 0)
(9.5137 2.11079 0)
(9.44124 2.35349 0)
(9.36623 2.61362 0)
(9.28933 2.89294 0)
(9.21134 3.1934 0)
(9.13315 3.51719 0)
(9.05589 3.86685 0)
(8.98097 4.24537 0)
(8.91023 4.65632 0)
(8.84624 5.10405 0)
(8.79265 5.59389 0)
(8.75491 6.13236 0)
(8.74135 6.7272 0)
(8.76472 7.38697 0)
(8.84456 8.11917 0)
(9.0079 8.9243 0)
(9.25834 9.78999 0)
(9.71493 10.6639 0)
(10.2326 11.3419 0)
(9.99716 0.158544 0)
(9.98773 0.314694 0)
(9.97114 0.47076 0)
(9.94827 0.628833 0)
(9.91991 0.790665 0)
(9.88651 0.957826 0)
(9.84848 1.13184 0)
(9.80622 1.31417 0)
(9.76021 1.50624 0)
(9.71099 1.70946 0)
(9.65912 1.92521 0)
(9.60522 2.15492 0)
(9.55001 2.40006 0)
(9.49428 2.66216 0)
(9.43896 2.94286 0)
(9.38511 3.24396 0)
(9.33402 3.56743 0)
(9.28728 3.91548 0)
(9.24688 4.29064 0)
(9.21538 4.69581 0)
(9.1962 5.13429 0)
(9.19394 5.60979 0)
(9.21493 6.12631 0)
(9.2678 6.68768 0)
(9.36396 7.29657 0)
(9.51774 7.95278 0)
(9.74844 8.64982 0)
(10.0595 9.37474 0)
(10.514 10.1204 0)
(11.1494 10.7832 0)
(9.9977 0.162094 0)
(9.99007 0.321713 0)
(9.97668 0.481163 0)
(9.95828 0.642531 0)
(9.93559 0.807553 0)
(9.9091 0.977781 0)
(9.87921 1.15471 0)
(9.8464 1.33976 0)
(9.81121 1.53431 0)
(9.77424 1.7397 0)
(9.73615 1.95726 0)
(9.69768 2.18833 0)
(9.65967 2.43426 0)
(9.62311 2.69644 0)
(9.5891 2.97636 0)
(9.55898 3.27556 0)
(9.53433 3.59571 0)
(9.51707 3.93862 0)
(9.50958 4.30623 0)
(9.51485 4.70062 0)
(9.53669 5.12397 0)
(9.57997 5.57838 0)
(9.6509 6.06565 0)
(9.7573 6.58678 0)
(9.90879 7.14128 0)
(10.1165 7.72626 0)
(10.3955 8.33535 0)
(10.7543 8.95689 0)
(11.2159 9.58408 0)
(11.8474 10.1486 0)
(9.99825 0.164963 0)
(9.99245 0.327373 0)
(9.98228 0.489516 0)
(9.96841 0.653458 0)
(9.95146 0.820911 0)
(9.93191 0.993389 0)
(9.91022 1.17234 0)
(9.8869 1.35915 0)
(9.86252 1.55513 0)
(9.83777 1.76153 0)
(9.81337 1.97961 0)
(9.79017 2.21057 0)
(9.76912 2.45564 0)
(9.75134 2.71604 0)
(9.73809 2.99304 0)
(9.73089 3.28789 0)
(9.73151 3.60193 0)
(9.74208 3.93647 0)
(9.76518 4.29285 0)
(9.80394 4.67233 0)
(9.8622 5.07602 0)
(9.94463 5.50469 0)
(10.0569 5.95847 0)
(10.2057 6.43655 0)
(10.3988 6.93662 0)
(10.6448 7.4543 0)
(10.9539 7.98244 0)
(11.3326 8.50848 0)
(11.7831 9.02003 0)
(12.3721 9.47914 0)
(9.9988 0.167107 0)
(9.99483 0.331589 0)
(9.98791 0.495695 0)
(9.97857 0.661453 0)
(9.96737 0.830538 0)
(9.95477 1.00442 0)
(9.94125 1.18449 0)
(9.92735 1.37207 0)
(9.91369 1.56838 0)
(9.90099 1.77462 0)
(9.89006 1.99189 0)
(9.88179 2.2213 0)
(9.87724 2.46389 0)
(9.8776 2.72071 0)
(9.88425 2.99276 0)
(9.8988 3.28101 0)
(9.92311 3.58639 0)
(9.95939 3.90977 0)
(10.0102 4.25188 0)
(10.0787 4.61324 0)
(10.1685 4.99406 0)
(10.2836 5.39405 0)
(10.4291 5.81219 0)
(10.6102 6.24645 0)
(10.833 6.6934 0)
(11.1032 7.14778 0)
(11.4269 7.60216 0)
(11.8079 8.04555 0)
(12.2418 8.46664 0)
(12.7915 8.84705 0)
(9.99935 0.168488 0)
(9.99721 0.334288 0)
(9.99352 0.49959 0)
(9.9887 0.666375 0)
(9.9832 0.836264 0)
(9.97748 1.01067 0)
(9.97202 1.19093 0)
(9.96739 1.37827 0)
(9.96425 1.57384 0)
(9.96333 1.77872 0)
(9.96547 1.9939 0)
(9.97164 2.22033 0)
(9.98292 2.4589 0)
(10.0006 2.71042 0)
(10.026 2.97565 0)
(10.0608 3.25527 0)
(10.1069 3.54982 0)
(10.1664 3.85972 0)
(10.2419 4.18518 0)
(10.3361 4.5261 0)
(10.4523 4.88197 0)
(10.594 5.25175 0)
(10.7652 5.63365 0)
(10.9699 6.02493 0)
(11.2124 6.4217 0)
(11.4964 6.81866 0)
(11.825 7.20909 0)
(12.2004 7.58448 0)
(12.6165 7.93594 0)
(13.1299 8.25334 0)
(9.99989 0.169075 0)
(9.99956 0.335405 0)
(9.99907 0.50111 0)
(9.9987 0.668104 0)
(9.99881 0.837948 0)
(9.99984 1.01199 0)
(10.0023 1.19148 0)
(10.0067 1.37758 0)
(10.0137 1.57133 0)
(10.0242 1.77368 0)
(10.0389 1.98552 0)
(10.0588 2.20763 0)
(10.0851 2.44071 0)
(10.1189 2.68538 0)
(10.1617 2.94213 0)
(10.2151 3.21135 0)
(10.2809 3.49326 0)
(10.3611 3.78787 0)
(10.4579 4.09495 0)
(10.5738 4.41391 0)
(10.7117 4.74375 0)
(10.8742 5.0829 0)
(11.0646 5.42917 0)
(11.2856 5.77953 0)
(11.5401 6.1301 0)
(11.8303 6.47601 0)
(12.1577 6.81155 0)
(12.5229 7.13011 0)
(12.9198 7.42467 0)
(13.3982 7.68886 0)
(10.0004 0.168842 0)
(10.0019 0.33489 0)
(10.0045 0.500181 0)
(10.0085 0.66655 0)
(10.0141 0.835487 0)
(10.0217 1.00826 0)
(10.0317 1.18605 0)
(10.0449 1.3699 0)
(10.0617 1.56077 0)
(10.083 1.75948 0)
(10.1096 1.96678 0)
(10.1425 2.1833 0)
(10.1828 2.40956 0)
(10.2316 2.64598 0)
(10.2903 2.89281 0)
(10.3604 3.15019 0)
(10.4435 3.41802 0)
(10.5416 3.69602 0)
(10.6565 3.98358 0)
(10.7903 4.27978 0)
(10.9453 4.58329 0)
(11.1236 4.89226 0)
(11.3276 5.20432 0)
(11.5591 5.51646 0)
(11.8198 5.82506 0)
(12.1108 6.12583 0)
(12.4325 6.41401 0)
(12.7845 6.68441 0)
(13.1611 6.93161 0)
(13.6069 7.15149 0)
(10.0009 0.167768 0)
(10.0041 0.332706 0)
(10.0098 0.49675 0)
(10.018 0.661649 0)
(10.0288 0.828811 0)
(10.0427 0.999422 0)
(10.0601 1.17457 0)
(10.0816 1.3552 0)
(10.1077 1.54217 0)
(10.1393 1.73617 0)
(10.1771 1.93782 0)
(10.222 2.14759 0)
(10.2751 2.36585 0)
(10.3375 2.59281 0)
(10.4104 2.82853 0)
(10.4953 3.0729 0)
(10.5936 3.32562 0)
(10.7068 3.58611 0)
(10.8366 3.85355 0)
(10.9847 4.12678 0)
(11.1528 4.40427 0)
(11.3425 4.68409 0)
(11.5554 4.96387 0)
(11.7926 5.24078 0)
(12.0549 5.51155 0)
(12.3428 5.77254 0)
(12.6558 6.01983 0)
(12.993 6.24939 0)
(13.3492 6.45717 0)
(13.7647 6.64038 0)
(10.0014 0.165841 0)
(10.0062 0.328827 0)
(10.0148 0.490786 0)
(10.0271 0.653366 0)
(10.043 0.81789 0)
(10.0629 0.985453 0)
(10.0873 1.15705 0)
(10.1166 1.33353 0)
(10.1515 1.51562 0)
(10.1926 1.70391 0)
(10.2407 1.89889 0)
(10.2966 2.10089 0)
(10.3613 2.31011 0)
(10.4359 2.5266 0)
(10.5214 2.75026 0)
(10.6191 2.98078 0)
(10.7301 3.21766 0)
(10.8559 3.46017 0)
(10.9976 3.70732 0)
(11.1567 3.95781 0)
(11.3344 4.21007 0)
(11.5317 4.46218 0)
(11.7496 4.71187 0)
(11.9888 4.95659 0)
(12.2494 5.1935 0)
(12.5312 5.41955 0)
(12.8336 5.63158 0)
(13.1552 5.82649 0)
(13.4915 6.00124 0)
(13.8788 6.15395 0)
(10.0019 0.163056 0)
(10.0083 0.323246 0)
(10.0197 0.482279 0)
(10.0357 0.641698 0)
(10.0565 0.80273 0)
(10.0821 0.966381 0)
(10.113 1.13354 0)
(10.1496 1.30497 0)
(10.1926 1.48129 0)
(10.2425 1.66296 0)
(10.3 1.85036 0)
(10.3658 2.04368 0)
(10.441 2.243 0)
(10.5262 2.44822 0)
(10.6226 2.65908 0)
(10.7311 2.87517 0)
(10.8527 3.09583 0)
(10.9885 3.32022 0)
(11.1395 3.54726 0)
(11.3066 3.77562 0)
(11.4907 4.00375 0)
(11.6925 4.2298 0)
(11.9124 4.45173 0)
(12.1506 4.66727 0)
(12.4069 4.87401 0)
(12.6808 5.06943 0)
(12.9712 5.25103 0)
(13.277 5.41643 0)
(13.5939 5.56336 0)
(13.9552 5.69053 0)
(10.0024 0.159415 0)
(10.0102 0.315967 0)
(10.0242 0.471241 0)
(10.0439 0.626667 0)
(10.0691 0.783378 0)
(10.1001 0.942282 0)
(10.137 1.10418 0)
(10.1804 1.26972 0)
(10.2308 1.43942 0)
(10.2887 1.61365 0)
(10.3546 1.79266 0)
(10.4293 1.97655 0)
(10.5135 2.16526 0)
(10.608 2.35859 0)
(10.7136 2.55618 0)
(10.831 2.75749 0)
(10.9611 2.9618 0)
(11.1047 3.16821 0)
(11.2625 3.37561 0)
(11.4351 3.5827 0)
(11.623 3.78799 0)
(11.8266 3.9898 0)
(12.046 4.18629 0)
(12.281 4.37552 0)
(12.5311 4.55546 0)
(12.7957 4.72407 0)
(13.0736 4.87939 0)
(13.3635 5.01958 0)
(13.6618 5.14297 0)
(13.9989 5.24869 0)
(10.0028 0.154925 0)
(10.0121 0.307007 0)
(10.0285 0.457703 0)
(10.0516 0.608327 0)
(10.0809 0.759911 0)
(10.1167 0.913271 0)
(10.1593 1.06911 0)
(10.2089 1.22798 0)
(10.2659 1.39032 0)
(10.3309 1.55638 0)
(10.4044 1.72632 0)
(10.4868 1.90014 0)
(10.5788 2.0777 0)
(10.6811 2.25871 0)
(10.7942 2.44272 0)
(10.9188 2.62914 0)
(11.0555 2.81721 0)
(11.2049 3.00601 0)
(11.3673 3.19445 0)
(11.5432 3.3813 0)
(11.7327 3.56518 0)
(11.936 3.74458 0)
(12.1529 3.91791 0)
(12.383 4.08351 0)
(12.6257 4.23971 0)
(12.8801 4.38487 0)
(13.1452 4.51746 0)
(13.4195 4.63608 0)
(13.7001 4.7395 0)
(14.0147 4.82716 0)
(10.0032 0.149601 0)
(10.0137 0.296398 0)
(10.0324 0.441716 0)
(10.0586 0.586753 0)
(10.0918 0.73244 0)
(10.1321 0.879502 0)
(10.1797 1.02855 0)
(10.2348 1.18005 0)
(10.2978 1.33434 0)
(10.3691 1.4916 0)
(10.4491 1.6519 0)
(10.5381 1.81516 0)
(10.6368 1.98117 0)
(10.7455 2.14958 0)
(10.8647 2.3199 0)
(10.9949 2.4915 0)
(11.1364 2.66362 0)
(11.2897 2.83535 0)
(11.4549 3.00566 0)
(11.6322 3.17341 0)
(11.8216 3.33736 0)
(12.0229 3.49618 0)
(12.2358 3.64851 0)
(12.4598 3.79296 0)
(12.6941 3.92816 0)
(12.9379 4.05282 0)
(13.19 4.16575 0)
(13.4493 4.26589 0)
(13.7131 4.35234 0)
(14.0068 4.42476 0)
(10.0035 0.143465 0)
(10.0153 0.284183 0)
(10.036 0.423349 0)
(10.065 0.562045 0)
(10.1017 0.701105 0)
(10.146 0.841161 0)
(10.1981 0.982741 0)
(10.2582 1.12623 0)
(10.3265 1.27187 0)
(10.4032 1.4198 0)
(10.4888 1.57 0)
(10.5834 1.72233 0)
(10.6875 1.87653 0)
(10.8013 2.03222 0)
(10.9253 2.18887 0)
(11.0596 2.34587 0)
(11.2044 2.50246 0)
(11.3601 2.65778 0)
(11.5265 2.81089 0)
(11.7036 2.96074 0)
(11.8914 3.10625 0)
(12.0894 3.24626 0)
(12.2972 3.37962 0)
(12.5143 3.50518 0)
(12.7398 3.62185 0)
(12.9727 3.7286 0)
(13.2122 3.82452 0)
(13.457 3.90881 0)
(13.7048 3.98084 0)
(13.9792 4.04041 0)
(10.0039 0.13654 0)
(10.0167 0.270412 0)
(10.0393 0.402684 0)
(10.0708 0.534321 0)
(10.1106 0.666064 0)
(10.1585 0.79846 0)
(10.2146 0.931955 0)
(10.279 1.06686 0)
(10.3519 1.20335 0)
(10.4333 1.34149 0)
(10.5235 1.48122 0)
(10.6227 1.62236 0)
(10.7311 1.76462 0)
(10.849 1.90757 0)
(10.9764 2.05072 0)
(11.1135 2.19345 0)
(11.2604 2.33505 0)
(11.4171 2.47472 0)