/*--------------------------------*- C++ -*----------------------------------*\
  =========                 |
  \\      /  F ield         | OpenFOAM: The Open Source CFD Toolbox
   \\    /   O peration     | Website:  https://openfoam.org
    \\  /    A nd           | Version:  7
     \\/     M anipulation  |
\*---------------------------------------------------------------------------*/
FoamFile
{
    version     2.0;
    format      ascii;
    class       surfaceVectorField;
    location    "0.7";
    object      Uf;
}
// * * * * * * * * * * * * * * * * * * * * * * * * * * * * * * * * * * * * * //

dimensions      [0 1 -1 0 0 0 0];

internalField   nonuniform List<vector> 
5457
(
(9.92007 0.0253946 0)
(9.97091 0.039144 0)
(9.82169 0.0332902 0)
(9.92719 0.0493433 0)
(9.70516 0.0399396 0)
(9.85226 0.0598596 0)
(9.56834 0.0467892 0)
(9.75116 0.0719866 0)
(9.41119 0.0538627 0)
(9.62899 0.0846791 0)
(9.2339 0.0612017 0)
(9.48677 0.0978439 0)
(9.03623 0.0689523 0)
(9.32384 0.111729 0)
(8.81758 0.0772639 0)
(9.1394 0.126579 0)
(8.57709 0.086267 0)
(8.9327 0.142591 0)
(8.3137 0.0960849 0)
(8.70284 0.159945 0)
(8.02618 0.106842 0)
(8.44871 0.178816 0)
(7.71319 0.118662 0)
(8.16901 0.199376 0)
(7.37324 0.131668 0)
(7.86231 0.221779 0)
(7.00485 0.145972 0)
(7.52709 0.246153 0)
(6.60654 0.161663 0)
(7.16182 0.272575 0)
(6.17704 0.178792 0)
(6.76505 0.301037 0)
(5.71536 0.19735 0)
(6.33552 0.331413 0)
(5.22109 0.217229 0)
(5.87238 0.363394 0)
(4.69462 0.238186 0)
(5.37539 0.396429 0)
(4.13752 0.259792 0)
(4.84526 0.429647 0)
(3.5529 0.281362 0)
(4.28401 0.461773 0)
(2.94589 0.301885 0)
(3.69541 0.491054 0)
(2.32407 0.319928 0)
(3.08546 0.515202 0)
(1.69785 0.333505 0)
(2.46293 0.5314 0)
(1.08057 0.339856 0)
(1.84003 0.536486 0)
(0.487469 0.327709 0)
(1.23263 0.527939 0)
(-0.0590533 0.158425 0)
(0.671443 0.498247 0)
(-0.355716 -0.111077 0)
(0.13934 0.277 0)
(-0.340376 -0.28134 0)
(-0.0678071 -0.0146701 0)
(-0.0730641 -0.333377 0)
(9.99559 0.0525377 0)
(9.99672 0.0413017 0)
(9.95645 0.0722493 0)
(9.97712 0.0689774 0)
(9.89377 0.0898498 0)
(9.93058 0.0920593 0)
(9.80945 0.108277 0)
(9.85893 0.11635 0)
(9.70333 0.127597 0)
(9.7659 0.141857 0)
(9.57536 0.147865 0)
(9.6526 0.168473 0)
(9.42524 0.169385 0)
(9.51862 0.196579 0)
(9.25242 0.19249 0)
(9.36331 0.226627 0)
(9.05606 0.217468 0)
(9.18598 0.259015 0)
(8.83513 0.24459 0)
(8.98583 0.294109 0)
(8.58839 0.274113 0)
(8.76186 0.33227 0)
(8.31449 0.306283 0)
(8.51284 0.373853 0)
(8.0119 0.341313 0)
(8.23742 0.419185 0)
(7.67907 0.379358 0)
(7.93415 0.468543 0)
(7.31443 0.420475 0)
(7.60148 0.522112 0)
(6.91653 0.464569 0)
(7.23791 0.579921 0)
(6.4842 0.511324 0)
(6.84204 0.64176 0)
(6.01674 0.560106 0)
(6.41275 0.707075 0)
(5.51423 0.609862 0)
(5.9494 0.774825 0)
(4.97783 0.658989 0)
(5.45214 0.84332 0)
(4.41031 0.705208 0)
(4.92226 0.910037 0)
(3.81652 0.745422 0)
(4.36265 0.97142 0)
(3.20406 0.775559 0)
(3.77841 1.02265 0)
(2.58428 0.790285 0)
(3.17758 1.05733 0)
(1.97422 0.782094 0)
(2.57223 1.0667 0)
(1.40282 0.736539 0)
(1.97954 1.03656 0)
(0.922432 0.603205 0)
(1.42176 0.936196 0)
(0.476326 0.340512 0)
(0.921 0.693538 0)
(0.113103 -0.105461 0)
(0.488091 0.332681 0)
(0.178087 -0.222599 0)
(9.98823 0.0608852 0)
(9.99448 0.0470666 0)
(9.95204 0.0918003 0)
(9.97231 0.0871291 0)
(9.8929 0.121148 0)
(9.92668 0.12244 0)
(9.81346 0.151733 0)
(9.85803 0.158143 0)
(9.71412 0.1839 0)
(9.76897 0.195388 0)
(9.59477 0.217818 0)
(9.66066 0.234337 0)
(9.45523 0.253915 0)
(9.53295 0.275454 0)
(9.29507 0.292684 0)
(9.38537 0.319343 0)
(9.11366 0.334588 0)
(9.21744 0.366577 0)
(8.91014 0.380072 0)
(9.02852 0.417699 0)
(8.68347 0.429572 0)
(8.81783 0.473243 0)
(8.43247 0.48351 0)
(8.58441 0.533738 0)
(8.1558 0.542263 0)
(8.32716 0.599685 0)
(7.85201 0.606124 0)
(8.04488 0.671526 0)
(7.51961 0.675238 0)
(7.73626 0.749587 0)
(7.15711 0.749515 0)
(7.39997 0.833996 0)
(6.76315 0.828514 0)
(7.03469 0.924564 0)
(6.33666 0.911283 0)
(6.63924 1.02064 0)
(5.87709 0.996173 0)
(6.2127 1.12088 0)
(5.38474 1.08062 0)
(5.75462 1.22303 0)
(4.86113 1.16087 0)
(5.26535 1.32361 0)
(4.30961 1.23172 0)
(4.74639 1.41758 0)
(3.73602 1.28613 0)
(4.20095 1.4979 0)
(3.14961 1.31454 0)
(3.63452 1.55495 0)
(2.56423 1.3033 0)
(3.05557 1.57546 0)
(1.99834 1.23055 0)
(2.47553 1.54028 0)
(1.46658 1.05655 0)
(1.90685 1.42098 0)
(0.949508 0.75135 0)
(1.35751 1.17634 0)
(0.466463 0.27877 0)
(0.815236 0.79462 0)
(0.389983 0.234272 0)
(9.98435 0.0736383 0)
(9.99334 0.0547284 0)
(9.9481 0.116862 0)
(9.9695 0.105315 0)
(9.88998 0.158464 0)
(9.92375 0.152294 0)
(9.81184 0.200898 0)
(9.85633 0.199256 0)
(9.71441 0.245025 0)
(9.7691 0.247889 0)
(9.59773 0.291318 0)
(9.66308 0.29873 0)
(9.46169 0.340379 0)
(9.5383 0.35235 0)
(9.30602 0.392871 0)
(9.39444 0.40946 0)
(9.13029 0.449439 0)
(9.23111 0.470769 0)
(8.93389 0.510709 0)
(9.04787 0.536962 0)
(8.71608 0.577294 0)
(8.84411 0.608711 0)
(8.47598 0.649795 0)
(8.61912 0.686679 0)
(8.21261 0.728764 0)
(8.37209 0.771508 0)
(7.92489 0.814662 0)
(8.1021 0.863773 0)
(7.61168 0.907782 0)
(7.8082 0.963928 0)
(7.27181 1.00814 0)
(7.48937 1.07221 0)
(6.90411 1.11532 0)
(7.14458 1.18851 0)
(6.50755 1.22829 0)
(6.7728 1.31219 0)
(6.08133 1.34511 0)
(6.37311 1.44182 0)
(5.6251 1.46264 0)
(5.94476 1.57488 0)
(5.13927 1.57617 0)
(5.48736 1.70735 0)
(4.62541 1.67896 0)
(5.00113 1.83329 0)
(4.08669 1.76172 0)
(4.48718 1.94425 0)
(3.52841 1.81186 0)
(3.94792 2.0287 0)
(2.95794 1.81229 0)
(3.38723 2.07126 0)
(2.38321 1.73955 0)
(2.81017 2.05186 0)
(1.80836 1.56256 0)
(2.22159 1.94505 0)
(1.22611 1.26075 0)
(1.62401 1.72 0)
(0.629068 0.817782 0)
(0.995052 1.36558 0)
(0.468791 0.850405 0)
(9.98257 0.0870036 0)
(9.99284 0.063262 0)
(9.94592 0.140983 0)
(9.96822 0.123698 0)
(9.88877 0.193587 0)
(9.9226 0.181651 0)
(9.8121 0.246999 0)
(9.85648 0.239598 0)
(9.71663 0.302438 0)
(9.77129 0.29933 0)
(9.60251 0.360632 0)
(9.66783 0.361709 0)
(9.46965 0.422298 0)
(9.54615 0.427449 0)
(9.31783 0.4882 0)
(9.40603 0.49735 0)
(9.1467 0.559091 0)
(9.24715 0.572233 0)
(8.95579 0.635706 0)
(9.06912 0.652895 0)
(8.74451 0.718769 0)
(8.87146 0.740116 0)
(8.51219 0.808985 0)
(8.65359 0.834666 0)
(8.25808 0.907015 0)
(8.41486 0.937287 0)
(7.98138 1.01343 0)
(8.15456 1.04865 0)
(7.68126 1.12861 0)
(7.87192 1.16931 0)
(7.35683 1.25269 0)
(7.56616 1.2996 0)
(7.00719 1.38531 0)
(7.23645 1.4395 0)
(6.63145 1.52546 0)
(6.88192 1.58845 0)
(6.22873 1.67116 0)
(6.50165 1.74506 0)
(5.7983 1.81904 0)
(6.09471 1.90683 0)
(5.33966 1.96395 0)
(5.66012 2.06962 0)
(4.85274 2.09838 0)
(5.197 2.2272 0)
(4.33811 2.21191 0)
(4.70462 2.37064 0)
(3.79716 2.29056 0)
(4.18258 2.48774 0)
(3.23185 2.31629 0)
(3.63086 2.56258 0)
(2.64386 2.26667 0)
(3.04969 2.57525 0)
(2.03264 2.11598 0)
(2.43889 2.50228 0)
(1.39201 1.84686 0)
(1.79913 2.31817 0)
(0.714479 1.43982 0)
(1.1019 2.01351 0)
(0.503425 1.55019 0)
(9.98185 0.100663 0)
(9.99267 0.072152 0)
(9.94516 0.16483 0)
(9.96789 0.142098 0)
(9.88919 0.228121 0)
(9.92284 0.210406 0)
(9.81439 0.292421 0)
(9.85832 0.278952 0)
(9.72136 0.35907 0)
(9.77553 0.349458 0)
(9.61029 0.428967 0)
(9.67509 0.423005 0)
(9.48112 0.502937 0)
(9.55706 0.500462 0)
(9.33365 0.581834 0)
(9.42126 0.582721 0)
(9.16758 0.666513 0)
(9.26741 0.670695 0)
(8.98252 0.757813 0)
(9.0952 0.765279 0)
(8.77794 0.85656 0)
(8.90418 0.867349 0)
(8.55329 0.963553 0)
(8.69386 0.977766 0)
(8.30794 1.07955 0)
(8.46366 1.09735 0)
(8.04122 1.20519 0)
(8.21295 1.22687 0)
(7.75242 1.34098 0)
(7.94106 1.36695 0)
(7.44081 1.48712 0)
(7.64727 1.51801 0)
(7.10559 1.64335 0)
(7.33081 1.68014 0)
(6.74588 1.80878 0)
(6.99082 1.8529 0)
(6.36072 1.98152 0)
(6.62626 2.03509 0)
(5.94897 2.15829 0)
(6.23594 2.22437 0)
(5.50935 2.33396 0)
(5.81832 2.41686 0)
(5.0404 2.50096 0)
(5.37154 2.60657 0)
(4.54052 2.6487 0)
(4.89331 2.78481 0)
(4.00801 2.76304 0)
(4.38095 2.93963 0)
(3.441 2.82613 0)
(3.83146 3.05537 0)
(2.83727 2.81667 0)
(3.24164 3.11265 0)
(2.19359 2.71134 0)
(2.60796 3.08909 0)
(1.50524 2.49338 0)
(1.93114 2.9609 0)
(0.769879 2.13577 0)
(1.17831 2.71674 0)
(0.525554 2.30424 0)
(9.98171 0.114359 0)
(9.9927 0.081107 0)
(9.94544 0.188285 0)
(9.96819 0.160292 0)
(9.89089 0.261807 0)
(9.92411 0.238429 0)
(9.81832 0.336595 0)
(9.8615 0.317133 0)
(9.72818 0.414033 0)
(9.78148 0.398029 0)
(9.62068 0.495169 0)
(9.68453 0.482334 0)
(9.49578 0.580949 0)
(9.57069 0.571058 0)
(9.35333 0.672323 0)
(9.43983 0.665186 0)
(9.19307 0.770242 0)
(9.29173 0.765719 0)
(9.01462 0.875637 0)
(9.12609 0.873642 0)
(8.81754 0.989422 0)
(8.94254 0.98992 0)
(8.60131 1.11248 0)
(8.74062 1.1155 0)
(8.36536 1.24565 0)
(8.51979 1.25129 0)
(8.10906 1.38966 0)
(8.27944 1.39813 0)
(7.83172 1.54508 0)
(8.01893 1.55674 0)
(7.53261 1.71223 0)
(7.73752 1.72766 0)
(7.21087 1.891 0)
(7.43437 1.9111 0)
(6.86552 2.08066 0)
(7.10847 2.10681 0)
(6.49531 2.27957 0)
(6.75858 2.31386 0)
(6.09867 2.4848 0)
(6.3831 2.53027 0)
(5.67352 2.69162 0)
(5.9799 2.75267 0)
(5.2172 2.89295 0)
(5.54619 2.97572 0)
(4.72634 3.07876 0)
(5.07832 3.19151 0)
(4.19686 3.23551 0)
(4.57171 3.38893 0)
(3.62412 3.34593 0)
(4.02097 3.55315 0)
(3.0032 3.38937 0)
(3.42027 3.66536 0)
(2.32942 3.3428 0)
(2.76348 3.70336 0)
(1.59974 3.18769 0)
(2.05205 3.64221 0)
(0.816398 2.8867 0)
(1.24898 3.46585 0)
(0.546791 3.10385 0)
(9.98195 0.127878 0)
(9.99284 0.0899469 0)
(9.94648 0.211172 0)
(9.96892 0.178083 0)
(9.89363 0.294453 0)
(9.92617 0.265576 0)
(9.82362 0.37929 0)
(9.8658 0.353967 0)
(9.73679 0.467087 0)
(9.7889 0.444815 0)
(9.63336 0.559007 0)
(9.69587 0.539419 0)
(9.51332 0.656109 0)
(9.58674 0.638908 0)
(9.37655 0.759432 0)
(9.46142 0.744364 0)
(9.22282 0.870012 0)
(9.31974 0.856867 0)
(9.05181 0.988868 0)
(9.16144 0.977488 0)
(8.86311 1.117 0)
(8.9862 1.10728 0)
(8.65625 1.25537 0)
(8.79358 1.24727 0)
(8.43066 1.40491 0)
(8.58309 1.39846 0)
(8.18573 1.56645 0)
(8.35415 1.56178 0)
(7.92075 1.74066 0)
(8.10607 1.73808 0)
(7.63488 1.928 0)
(7.83807 1.92802 0)
(7.32715 2.12855 0)
(7.54918 2.132 0)
(6.99631 2.34184 0)
(7.23822 2.35004 0)
(6.64078 2.56663 0)
(6.90364 2.58157 0)
(6.25844 2.80051 0)
(6.54339 2.82514 0)
(5.84643 3.03947 0)
(6.1547 3.07811 0)
(5.40095 3.27736 0)
(5.73388 3.3361 0)
(4.9171 3.5052 0)
(5.276 3.5924 0)
(4.38879 3.71052 0)
(4.77478 3.83724 0)
(3.80904 3.8769 0)
(4.22263 4.05702 0)
(3.17064 3.9839 0)
(3.61122 4.23362 0)
(2.46757 4.00724 0)
(2.93163 4.34433 0)
(1.69754 3.92434 0)
(2.18542 4.36119 0)
(0.866101 3.68506 0)
(1.33071 4.26096 0)
(0.574284 3.95215 0)
(9.98243 0.141059 0)
(9.99308 0.0985504 0)
(9.94809 0.23333 0)
(9.96998 0.195309 0)
(9.89723 0.325903 0)
(9.92887 0.291701 0)
(9.8301 0.42032 0)
(9.87105 0.389288 0)
(9.74698 0.518005 0)
(9.7976 0.489602 0)
(9.64808 0.620209 0)
(9.70889 0.594 0)
(9.53343 0.728088 0)
(9.60495 0.703709 0)
(9.40296 0.842768 0)
(9.48572 0.819899 0)
(9.25646 0.965364 0)
(9.35108 0.943728 0)
(9.09366 1.09698 0)
(9.20084 1.07635 0)
(8.91421 1.2387 0)
(9.03469 1.21889 0)
(8.71766 1.39158 0)
(8.85227 1.37247 0)
(8.50348 1.55665 0)
(8.65311 1.53819 0)
(8.27104 1.73484 0)
(8.43664 1.71709 0)
(8.01959 1.92698 0)
(8.20219 1.91016 0)
(7.74822 2.13371 0)
(7.9489 2.11823 0)
(7.45576 2.35536 0)
(7.67571 2.34194 0)
(7.14072 2.59183 0)
(7.38124 2.58166 0)
(6.80113 2.84238 0)
(7.06366 2.83728 0)
(6.4343 3.10533 0)
(6.7205 3.10804 0)
(6.03661 3.37764 0)
(6.34838 3.39223 0)
(5.6032 3.65443 0)
(5.94275 3.68672 0)
(5.12769 3.92819 0)
(5.4975 3.98638 0)
(4.60207 4.188 0)
(5.00467 4.28327 0)
(4.01695 4.41861 0)
(4.45438 4.56555 0)
(3.36242 4.59968 0)
(3.83533 4.81624 0)
(2.63003 4.70476 0)
(3.1347 5.01203 0)
(1.81643 4.70518 0)
(2.3522 5.12087 0)
(0.928777 4.53506 0)
(1.43889 5.10983 0)
(0.614903 4.86183 0)
(9.98309 0.153779 0)
(9.99337 0.10683 0)
(9.95014 0.254618 0)
(9.97129 0.211836 0)
(9.90155 0.356004 0)
(9.93207 0.316664 0)
(9.83759 0.459501 0)
(9.87708 0.422939 0)
(9.75854 0.566558 0)
(9.8074 0.532197 0)
(9.6646 0.678497 0)
(9.72339 0.645843 0)
(9.55585 0.796559 0)
(9.62507 0.765182 0)
(9.43223 0.921949 0)
(9.51244 0.891464 0)
(9.2936 1.05586 0)
(9.38542 1.02592 0)
(9.13975 1.19947 0)
(9.24387 1.16977 0)
(8.97036 1.35395 0)
(9.08756 1.32424 0)
(8.78503 1.52046 0)
(8.91616 1.49052 0)
(8.58328 1.70012 0)
(8.72926 1.66981 0)
(8.36448 1.894 0)
(8.52633 1.86329 0)
(8.12787 2.10312 0)
(8.30672 2.07208 0)
(7.87245 2.32832 0)
(8.06955 2.29724 0)
(7.59695 2.57027 0)
(7.81371 2.53971 0)
(7.29966 2.82932 0)
(7.53769 2.80024 0)
(6.97826 3.10535 0)
(7.23945 3.0793 0)
(6.6296 3.39759 0)
(6.91622 3.37693 0)
(6.24937 3.70422 0)
(6.56415 3.69256 0)
(5.83173 4.02193 0)
(6.17799 4.02457 0)
(5.36891 4.34517 0)
(5.75059 4.36985 0)
(4.8509 4.66517 0)
(5.27238 4.72285 0)
(4.26545 4.96851 0)
(4.73099 5.07437 0)
(3.59885 5.2355 0)
(4.11139 5.4096 0)
(2.83801 5.43742 0)
(3.3949 5.70566 0)
(1.97518 5.53797 0)
(2.57566 5.92651 0)
(1.01599 5.45116 0)
(1.5929 6.0271 0)
(0.678407 5.85693 0)
(9.98389 0.16594 0)
(9.99372 0.114721 0)
(9.95255 0.274908 0)
(9.97279 0.227555 0)
(9.90646 0.384613 0)
(9.93569 0.340337 0)
(9.84596 0.496663 0)
(9.88379 0.454772 0)
(9.77131 0.612541 0)
(9.81817 0.572423 0)
(9.68272 0.733626 0)
(9.73918 0.694732 0)
(9.5803 0.861234 0)
(9.64688 0.823073 0)
(9.46405 0.996639 0)
(9.54129 0.958763 0)
(9.33388 1.14111 0)
(9.42241 1.1031 0)
(9.18962 1.29589 0)
(9.29014 1.25737 0)
(9.03104 1.46223 0)
(9.14432 1.42287 0)
(8.85779 1.6414 0)
(8.98469 1.60088 0)
(8.66943 1.83461 0)
(8.81092 1.7927 0)
(8.4654 2.04311 0)
(8.62254 1.99962 0)
(8.24493 2.26807 0)
(8.41894 2.22295 0)
(8.00705 2.51064 0)
(8.19931 2.46398 0)
(7.7504 2.77182 0)
(7.96253 2.72395 0)
(7.47317 3.05251 0)
(7.7071 3.00406 0)
(7.17286 3.35332 0)
(7.43091 3.30543 0)
(6.846 3.67451 0)
(7.13106 3.62901 0)
(6.48782 4.0157 0)
(6.8035 3.97547 0)
(6.09172 4.37552 0)
(6.44258 4.34501 0)
(5.64872 4.75092 0)
(6.04044 4.73689 0)
(5.1468 5.13611 0)
(5.58623 5.14877 0)
(4.5704 5.52081 0)
(5.06514 5.57533 0)
(3.90046 5.8876 0)
(4.45776 6.00594 0)
(3.11593 6.20702 0)
(3.73726 6.42089 0)
(2.19868 6.43485 0)
(2.88654 6.78297 0)
(1.14535 6.45894 0)
(1.82274 7.03441 0)
(0.782309 6.97873 0)
(9.98479 0.177462 0)
(9.9941 0.12217 0)
(9.95524 0.294093 0)
(9.97445 0.242377 0)
(9.91188 0.411601 0)
(9.93965 0.362609 0)
(9.85508 0.531653 0)
(9.89106 0.484658 0)
(9.78512 0.655768 0)
(9.82975 0.610122 0)
(9.70222 0.785376 0)
(9.75608 0.74048 0)
(9.60654 0.921853 0)
(9.67014 0.877158 0)
(9.49811 1.06654 0)
(9.572 1.02153 0)
(9.37691 1.22075 0)
(9.4617 1.17496 0)
(9.24284 1.38582 0)
(9.33922 1.33879 0)
(9.09573 1.56307 0)
(9.20447 1.51436 0)
(8.93532 1.75383 0)
(9.05729 1.70305 0)
(8.76125 1.95947 0)
(8.89742 1.90626 0)
(8.57304 2.18135 0)
(8.72449 2.12539 0)
(8.36999 2.42086 0)
(8.53801 2.36191 0)
(8.15118 2.67941 0)
(8.33725 2.61734 0)
(7.91534 2.95843 0)
(8.12122 2.89325 0)
(7.66066 3.25934 0)
(7.88853 3.1913 0)
(7.38467 3.58357 0)
(7.6372 3.51325 0)
(7.08385 3.9325 0)
(7.36447 3.861 0)
(6.7533 4.30735 0)
(7.0664 4.23656 0)
(6.38611 4.709 0)
(6.73746 4.64206 0)
(5.97254 5.1375 0)
(6.36969 5.07955 0)
(5.499 5.59118 0)
(5.95174 5.55061 0)
(4.94661 6.06488 0)
(5.46717 6.05542 0)
(4.28976 6.54676 0)
(4.89261 6.59062 0)
(3.49532 7.01126 0)
(4.1917 7.14516 0)
(2.525 7.41028 0)
(3.32941 7.68897 0)
(1.34878 7.59981 0)
(2.18149 8.15924 0)
(0.963121 8.29977 0)
(9.98577 0.188282 0)
(9.99451 0.129138 0)
(9.95816 0.312079 0)
(9.97623 0.256226 0)
(9.91772 0.436855 0)
(9.94388 0.383385 0)
(9.86483 0.564335 0)
(9.8988 0.512483 0)
(9.79981 0.696077 0)
(9.84202 0.645158 0)
(9.72291 0.833552 0)
(9.77392 0.782922 0)
(9.6343 0.978186 0)
(9.69463 0.927245 0)
(9.53408 1.13137 0)
(9.60426 1.07955 0)
(9.42229 1.29449 0)
(9.50293 1.24124 0)
(9.29892 1.4689 0)
(9.39067 1.41371 0)
(9.16387 1.65602 0)
(9.2675 1.59836 0)
(9.01698 1.85725 0)
(9.13333 1.79662 0)
(8.85799 2.07406 0)
(8.98803 2.00998 0)
(8.68654 2.30795 0)
(8.83135 2.23995 0)
(8.50207 2.56051 0)
(8.66295 2.48815 0)
(8.30381 2.83341 0)
(8.48227 2.7563 0)
(8.09063 3.12846 0)
(8.28853 3.04627 0)
(7.86097 3.44763 0)
(8.08058 3.36015 0)
(7.61257 3.79313 0)
(7.85679 3.7003 0)
(7.34223 4.16749 0)
(7.61482 4.06949 0)
(7.04537 4.57358 0)
(7.35128 4.47104 0)
(6.71544 5.01469 0)
(7.06135 4.90897 0)
(6.34289 5.49445 0)
(6.73795 5.38823 0)
(5.91368 6.01642 0)
(6.37059 5.91483 0)
(5.40693 6.58312 0)
(5.94332 6.49585 0)
(4.79108 7.19351 0)
(5.43159 7.1388 0)
(4.0183 7.83598 0)
(4.7923 7.84968 0)
(3.0172 8.47461 0)
(3.97029 8.62372 0)
(1.69279 8.9424 0)
(2.77228 9.42578 0)
(1.30695 9.95775 0)
(9.98682 0.198348 0)
(9.99494 0.135592 0)
(9.96127 0.32879 0)
(9.97811 0.269043 0)
(9.92389 0.460279 0)
(9.94834 0.402583 0)
(9.87511 0.594596 0)
(9.90692 0.538148 0)
(9.81525 0.733333 0)
(9.85485 0.677414 0)
(9.74458 0.877998 0)
(9.79253 0.821921 0)
(9.66333 1.03006 0)
(9.72013 0.973171 0)
(9.57165 1.19094 0)
(9.63782 1.13262 0)
(9.46965 1.36207 0)
(9.54576 1.30172 0)
(9.35739 1.54486 0)
(9.44408 1.48188 0)
(9.23488 1.74077 0)
(9.33287 1.67455 0)
(9.10207 1.95127 0)
(9.21218 1.88122 0)
(8.95883 2.1779 0)
(9.08199 2.10342 0)
(8.80495 2.4223 0)
(8.94222 2.34277 0)
(8.64006 2.68622 0)
(8.79268 2.60099 0)
(8.46361 2.97155 0)
(8.63308 2.87997 0)
(8.27477 3.28045 0)
(8.46292 3.18183 0)
(8.07234 3.61535 0)
(8.28143 3.50898 0)
(7.85455 3.97918 0)
(8.08749 3.86429 0)
(7.61888 4.37544 0)
(7.87947 4.25125 0)
(7.36164 4.80855 0)
(7.65496 4.67422 0)
(7.07747 5.28409 0)
(7.41053 5.13885 0)
(6.75837 5.8093 0)
(7.14107 5.65262 0)
(6.39205 6.39357 0)
(6.83894 6.22568 0)
(5.95901 7.04909 0)
(6.49209 6.8722 0)
(5.42673 7.79154 0)
(6.08124 7.6126 0)
(4.73763 8.63927 0)
(5.56864 8.47791 0)
(3.78195 9.61077 0)
(4.89935 9.51606 0)
(2.33554 10.6092 0)
(3.81715 10.809 0)
(2.04813 12.2453 0)
(9.98792 0.207619 0)
(9.99539 0.141508 0)
(9.96452 0.344162 0)
(9.98006 0.280781 0)
(9.93034 0.481785 0)
(9.95298 0.420139 0)
(9.88581 0.62232 0)
(9.91535 0.561575 0)
(9.83129 0.767389 0)
(9.86815 0.706797 0)
(9.76706 0.918527 0)
(9.81179 0.857366 0)
(9.6934 1.07723 0)
(9.7465 1.01481 0)
(9.61052 1.24496 0)
(9.67249 1.18061 0)
(9.51859 1.42316 0)
(9.58999 1.35622 0)
(9.41778 1.61329 0)
(9.49923 1.5431 0)
(9.30819 1.81682 0)
(9.40039 1.74271 0)
(9.18989 2.0353 0)
(9.29362 1.95657 0)
(9.06292 2.27032 0)
(9.17907 2.18625 0)
(8.92725 2.52359 0)
(9.05682 2.43342 0)
(8.78273 2.79698 0)
(8.92693 2.69989 0)
(8.6291 3.09259 0)
(8.78934 2.98765 0)
(8.46593 3.41277 0)
(8.64395 3.29896 0)
(8.29252 3.76036 0)
(8.49045 3.63648 0)
(8.10782 4.13875 0)
(8.3284 4.00337 0)
(7.91029 4.55224 0)
(8.15707 4.40359 0)
(7.69768 5.00633 0)
(7.9754 4.84215 0)
(7.4667 5.5084 0)
(7.7819 5.32571 0)
(7.21243 6.06854 0)
(7.57446 5.8633 0)
(6.92726 6.70106 0)
(7.35014 6.46767 0)
(6.59879 7.42725 0)
(7.10477 7.15768 0)
(6.20502 8.28103 0)
(6.83317 7.9631 0)
(5.70232 9.3224 0)
(6.52607 8.93621 0)
(4.98594 10.6894 0)
(6.20308 10.185 0)
(3.71284 12.8377 0)
(5.91242 12.0265 0)
(5.00479 15.8818 0)
(-0.891759 0.636944 0)
(-0.601435 0.873423 0)
(-1.9243 0.655072 0)
(-1.49799 0.987424 0)
(-2.98489 0.620707 0)
(-2.57568 0.990298 0)
(-4.04647 0.579095 0)
(-3.64132 0.967804 0)
(-5.09278 0.535475 0)
(-4.69745 0.931357 0)
(-6.11326 0.491633 0)
(-5.73215 0.886909 0)
(-7.10017 0.448161 0)
(-6.73681 0.837479 0)
(-8.0474 0.405263 0)
(-7.70466 0.784823 0)
(-8.94976 0.362969 0)
(-8.63009 0.729985 0)
(-9.80247 0.321203 0)
(-9.50816 0.673526 0)
(-10.6008 0.279822 0)
(-10.3341 0.61565 0)
(-11.3395 0.238637 0)
(-11.1031 0.556295 0)
(-12.0131 0.197431 0)
(-11.8098 0.495219 0)
(-12.615 0.15597 0)
(-12.4479 0.432061 0)
(-13.1378 0.114009 0)
(-13.0107 0.366419 0)
(-13.5731 0.0712948 0)
(-13.49 0.297894 0)
(-13.9115 0.0275579 0)
(-13.8771 0.226141 0)
(-14.143 -0.0175852 0)
(-14.1626 0.150986 0)
(-14.2569 -0.0651212 0)
(-14.3359 0.0725575 0)
(-14.2373 -0.117726 0)
(-14.3855 -0.0121811 0)
(-14.0731 -0.177008 0)
(-14.2983 -0.0996848 0)
(-13.7426 -0.243495 0)
(-14.0622 -0.195987 0)
(-13.2259 -0.319666 0)
(-13.6601 -0.299107 0)
(-12.4972 -0.409578 0)
(-13.0724 -0.411872 0)
(-11.5206 -0.519421 0)
(-12.2755 -0.539011 0)
(-10.2475 -0.6599 0)
(-11.2352 -0.686001 0)
(-8.60767 -0.853037 0)
(-9.88614 -0.86274 0)
(-6.45526 -1.12969 0)
(-8.09704 -1.10569 0)
(-3.49985 -1.44977 0)
(-5.68782 -1.48233 0)
(-2.62183 -1.7351 0)
(-1.05915 1.43647 0)
(-0.678231 1.9108 0)
(-2.12336 1.47851 0)
(-1.58051 2.00513 0)
(-3.19264 1.4566 0)
(-2.65622 1.9887 0)
(-4.25743 1.41286 0)
(-3.70302 1.93854 0)
(-5.30587 1.35513 0)
(-4.73692 1.86461 0)
(-6.32823 1.28862 0)
(-5.74758 1.77545 0)
(-7.31675 1.21646 0)
(-6.72782 1.67633 0)
(-8.26522 1.14061 0)
(-7.67172 1.57067 0)
(-9.16837 1.06218 0)
(-8.57431 1.4606 0)
(-10.0214 0.981713 0)
(-9.43116 1.34729 0)
(-10.8195 0.899261 0)
(-10.238 1.23115 0)
(-11.5576 0.814532 0)
(-10.9901 1.11208 0)
(-12.23 0.727002 0)
(-11.6826 0.989577 0)
(-12.8302 0.63601 0)
(-12.3094 0.862943 0)
(-13.3509 0.540848 0)
(-12.8637 0.731381 0)
(-13.7838 0.440846 0)
(-13.3378 0.594136 0)
(-14.1198 0.335471 0)
(-13.7229 0.450622 0)
(-14.349 0.224257 0)
(-14.0099 0.300536 0)
(-14.4602 0.106289 0)
(-14.1888 0.143386 0)
(-14.4459 -0.0201312 0)
(-14.2489 -0.0210704 0)
(-14.2916 -0.155498 0)
(-14.1785 -0.193375 0)
(-13.9887 -0.299626 0)
(-13.9732 -0.375591 0)
(-13.5217 -0.455021 0)
(-13.6192 -0.569478 0)
(-12.8717 -0.627392 0)
(-13.1025 -0.779264 0)
(-12.0141 -0.82521 0)
(-12.4072 -1.01232 0)
(-10.9162 -1.06223 0)
(-11.5121 -1.27756 0)
(-9.53677 -1.36653 0)
(-10.3789 -1.58852 0)
(-7.84582 -1.77458 0)
(-8.92488 -1.97433 0)
(-5.90387 -2.23323 0)
(-7.07352 -2.45634 0)
(-5.27297 -2.9597 0)
(-1.05575 2.44684 0)
(-0.659688 2.94484 0)
(-2.10056 2.47624 0)
(-1.52027 3.0043 0)
(-3.13389 2.43144 0)
(-2.5539 2.95354 0)
(-4.1532 2.35449 0)
(-3.54235 2.86781 0)
(-5.1516 2.25407 0)
(-4.51506 2.75333 0)
(-6.12253 2.13776 0)
(-5.46329 2.61929 0)
(-7.06032 2.01065 0)
(-6.38246 2.47212 0)
(-7.96023 1.8761 0)
(-7.26847 2.31628 0)
(-8.81814 1.73614 0)
(-8.11768 2.15463 0)
(-9.63014 1.59178 0)
(-8.9266 1.98866 0)
(-10.3922 1.44321 0)
(-9.69156 1.81885 0)
(-11.0997 1.29009 0)
(-10.4084 1.64487 0)
(-11.7476 1.13174 0)
(-11.0721 1.46587 0)
(-12.3296 0.967333 0)
(-11.6769 1.28071 0)
(-12.8386 0.796119 0)
(-12.2159 1.08815 0)
(-13.2666 0.617547 0)
(-12.6812 0.887046 0)
(-13.6047 0.431446 0)
(-13.0642 0.676505 0)
(-13.843 0.238089 0)
(-13.3555 0.456059 0)
(-13.9726 0.0379944 0)
(-13.5456 0.22593 0)
(-13.9811 -0.168842 0)
(-13.6245 -0.0157808 0)
(-13.8655 -0.385211 0)
(-13.5806 -0.263578 0)
(-13.6133 -0.614287 0)
(-13.4144 -0.525154 0)
(-13.2152 -0.859042 0)
(-13.1153 -0.799937 0)
(-12.6592 -1.12586 0)
(-12.6748 -1.0935 0)
(-11.9298 -1.4236 0)
(-12.0831 -1.41489 0)
(-11.0071 -1.7634 0)
(-11.329 -1.77476 0)
(-9.87395 -2.16261 0)
(-10.3916 -2.18468 0)
(-8.54194 -2.64402 0)
(-9.2198 -2.65858 0)
(-7.04188 -3.18775 0)
(-7.78541 -3.20872 0)
(-6.52569 -3.80732 0)
(-0.988479 3.44567 0)
(-0.604116 3.91299 0)
(-1.96869 3.44085 0)
(-1.39204 3.94168 0)
(-2.9329 3.3579 0)
(-2.35159 3.85384 0)
(-3.87898 3.2403 0)
(-3.25587 3.73031 0)
(-4.8029 3.09629 0)
(-4.14646 3.57575 0)
(-5.70107 2.93442 0)
(-5.01463 3.3999 0)
(-6.57008 2.76066 0)
(-5.85818 3.20955 0)
(-7.40683 2.57911 0)
(-6.67454 3.00957 0)
(-8.20829 2.39217 0)
(-7.46109 2.80299 0)
(-8.97121 2.20094 0)
(-8.21491 2.59127 0)
(-9.69182 2.00544 0)
(-8.93247 2.37459 0)
(-10.3656 1.80494 0)
(-9.60947 2.15221 0)
(-10.9871 1.5982 0)
(-10.2407 1.92278 0)
(-11.5498 1.38373 0)
(-10.8198 1.68465 0)
(-12.0462 1.15997 0)
(-11.3397 1.43612 0)
(-12.4681 0.925485 0)
(-11.7921 1.17573 0)
(-12.8061 0.679131 0)
(-12.168 0.902409 0)
(-13.0509 0.420259 0)
(-12.4582 0.615761 0)
(-13.1924 0.14868 0)
(-12.6535 0.316036 0)
(-13.2237 -0.13581 0)
(-12.7449 0.00368846 0)
(-13.1359 -0.432373 0)
(-12.7209 -0.316909 0)
(-12.9266 -0.741279 0)
(-12.5864 -0.649224 0)
(-12.5899 -1.06685 0)
(-12.335 -0.99484 0)
(-12.1194 -1.41692 0)
(-11.9628 -1.35947 0)
(-11.5063 -1.80173 0)
(-11.4658 -1.75323 0)
(-10.7405 -2.23107 0)
(-10.8395 -2.18746 0)
(-9.81793 -2.71336 0)
(-10.0737 -2.67004 0)
(-8.75717 -3.25855 0)
(-9.13729 -3.20348 0)
(-7.59212 -3.8484 0)
(-8.02609 -3.79308 0)
(-7.10339 -4.3971 0)
(-0.890117 4.36346 0)
(-0.531875 4.78481 0)
(-1.77527 4.32304 0)
(-1.22636 4.78815 0)
(-2.6464 4.20211 0)
(-2.08817 4.66724 0)
(-3.50109 4.04617 0)
(-2.89071 4.50951 0)
(-4.33679 3.86296 0)
(-3.68603 4.31963 0)
(-5.15167 3.6612 0)
(-4.46386 4.10811 0)
(-5.94379 3.44687 0)
(-5.22375 3.88172 0)
(-6.71102 3.22395 0)
(-5.96393 3.64525 0)
(-7.45082 2.99459 0)
(-6.68226 3.40147 0)
(-8.16002 2.75938 0)
(-7.3759 3.15144 0)
(-8.83459 2.51778 0)
(-8.04113 2.89483 0)
(-9.4696 2.26842 0)
(-8.67327 2.63037 0)
(-10.0591 2.00952 0)
(-9.26665 2.35617 0)
(-10.5961 1.73921 0)
(-9.8146 2.07014 0)
(-11.0728 1.45582 0)
(-10.3095 1.77027 0)
(-11.4807 1.15816 0)
(-10.7429 1.45488 0)
(-11.8107 0.845759 0)
(-11.1058 1.12289 0)
(-12.0534 0.519091 0)
(-11.3887 0.774067 0)
(-12.2002 0.179718 0)
(-11.5826 0.409564 0)
(-12.2429 -0.169849 0)
(-11.6789 0.030262 0)
(-12.1791 -0.529333 0)
(-11.669 -0.355652 0)
(-12.0058 -0.900799 0)
(-11.559 -0.751952 0)
(-11.7227 -1.28803 0)
(-11.3475 -1.15877 0)
(-11.3286 -1.69922 0)
(-11.0352 -1.5822 0)
(-10.8211 -2.14524 0)
(-10.6234 -2.03334 0)
(-10.1966 -2.63461 0)
(-10.1124 -2.52398 0)
(-9.4571 -3.16948 0)
(-9.49858 -3.0591 0)
(-8.62007 -3.74884 0)
(-8.76377 -3.63347 0)
(-7.72817 -4.34209 0)
(-7.91421 -4.24042 0)
(-7.23109 -4.81425 0)
(-0.771437 5.17427 0)
(-0.450766 5.54038 0)
(-1.54298 5.10563 0)
(-1.03705 5.52599 0)
(-2.30516 4.953 0)
(-1.78485 5.37889 0)
(-3.05592 4.76505 0)
(-2.47362 5.19395 0)
(-3.7937 4.5497 0)
(-3.16429 4.97636 0)
(-4.51764 4.31579 0)
(-3.84405 4.7373 0)
(-5.22651 4.06908 0)
(-4.51386 4.48326 0)
(-5.91857 3.8132 0)
(-5.17224 4.21865 0)
(-6.59135 3.54989 0)
(-5.8171 3.94573 0)
(-7.24148 3.27926 0)
(-6.44546 3.66496 0)
(-7.86465 3.00027 0)
(-7.05333 3.37542 0)
(-8.4555 2.71112 0)
(-7.63566 3.07528 0)
(-9.00772 2.40964 0)
(-8.18642 2.76217 0)
(-9.51404 2.09363 0)
(-8.69861 2.43361 0)
(-9.96637 1.76114 0)
(-9.16431 2.0873 0)
(-10.3559 1.41071 0)
(-9.57483 1.72146 0)
(-10.6734 1.04165 0)
(-9.92082 1.33505 0)
(-10.9096 0.654452 0)
(-10.1926 0.928148 0)
(-11.0557 0.251371 0)
(-10.381 0.502604 0)
(-11.1066 -0.163745 0)
(-10.4773 0.0619409 0)
(-11.0583 -0.587225 0)
(-10.4754 -0.385022 0)
(-10.9131 -1.01841 0)
(-10.3831 -0.838038 0)
(-10.6749 -1.46118 0)
(-10.2037 -1.29665 0)
(-10.3479 -1.92434 0)
(-9.94292 -1.76702 0)
(-9.93459 -2.41959 0)
(-9.60637 -2.26144 0)
(-9.43612 -2.95477 0)
(-9.19822 -2.79258 0)
(-8.85642 -3.52771 0)
(-8.71874 -3.36409 0)
(-8.21028 -4.1271 0)
(-8.15787 -3.96539 0)
(-7.54127 -4.70702 0)
(-7.52421 -4.57597 0)
(-7.02486 -5.11053 0)
(-0.63888 5.86422 0)
(-0.36482 6.16613 0)
(-1.28468 5.77686 0)
(-0.831862 6.14357 0)
(-1.92708 5.60089 0)
(-1.45433 5.97871 0)
(-2.56473 5.38926 0)
(-2.02061 5.77528 0)
(-3.19697 5.15038 0)
(-2.59935 5.53914 0)
(-3.82355 4.89314 0)
(-3.17462 5.28187 0)
(-4.44354 4.62278 0)
(-3.74879 5.00937 0)
(-5.05523 4.34238 0)
(-4.32024 4.72547 0)
(-5.65604 4.05303 0)
(-4.88679 4.43176 0)
(-6.24234 3.7542 0)
(-5.44519 4.12806 0)
(-6.80948 3.44423 0)
(-5.99117 3.81282 0)
(-7.35181 3.12076 0)
(-6.51941 3.48365 0)
(-7.86266 2.78116 0)
(-7.0236 3.13776 0)
(-8.33446 2.42287 0)
(-7.49647 2.77229 0)
(-8.7588 2.04375 0)
(-7.92989 2.38471 0)
(-9.12661 1.64238 0)
(-8.31492 1.97317 0)
(-9.4284 1.21841 0)
(-8.64194 1.5367 0)
(-9.65462 0.773183 0)
(-8.90077 1.07573 0)
(-9.79679 0.310727 0)
(-9.08113 0.593166 0)
(-9.84945 -0.162265 0)
(-9.17394 0.0946895 0)
(-9.8117 -0.640164 0)
(-9.17483 -0.407943 0)
(-9.68786 -1.12094 0)
(-9.09446 -0.911466 0)
(-9.48674 -1.60733 0)
(-8.94036 -1.41308 0)
(-9.21767 -2.10881 0)
(-8.72282 -1.91911 0)
(-8.88754 -2.63841 0)
(-8.45179 -2.44364 0)
(-8.50047 -3.20442 0)
(-8.13408 -3.00115 0)
(-8.06065 -3.80208 0)
(-7.77227 -3.59549 0)
(-7.57955 -4.41122 0)
(-7.36132 -4.21253 0)
(-7.09386 -4.97199 0)
(-6.90787 -4.81958 0)
(-6.55863 -5.31695 0)
(-0.496877 6.42362 0)
(-0.27652 6.65279 0)
(-1.00836 6.32753 0)
(-0.615524 6.63271 0)
(-1.52297 6.13753 0)
(-1.10448 6.4592 0)
(-2.04041 5.91178 0)
(-1.54149 6.24701 0)
(-2.56085 5.65911 0)
(-2.00244 6.0024 0)
(-3.08455 5.38814 0)
(-2.4678 5.73703 0)
(-3.61062 5.10336 0)
(-2.94151 5.45578 0)
(-4.13722 4.80716 0)
(-3.42154 5.16178 0)
(-4.66149 4.49992 0)
(-3.9054 4.85588 0)
(-5.17955 4.18046 0)
(-4.38957 4.53726 0)
(-5.68649 3.84653 0)
(-4.86953 4.20377 0)
(-6.17641 3.49533 0)
(-5.33978 3.85256 0)
(-6.64248 3.12383 0)
(-5.7939 3.48041 0)
(-7.07693 2.72921 0)
(-6.22459 3.08416 0)
(-7.47114 2.3092 0)
(-6.62361 2.66101 0)
(-7.81573 1.86242 0)
(-6.9819 2.20899 0)
(-8.1008 1.38871 0)
(-7.28956 1.72718 0)
(-8.31623 0.890066 0)
(-7.53554 1.21627 0)
(-8.45276 0.372047 0)
(-7.7077 0.680135 0)
(-8.50462 -0.15589 0)
(-7.79514 0.126941 0)
(-8.47239 -0.684348 0)
(-7.79506 -0.427515 0)
(-8.36353 -1.20803 0)
(-7.72203 -0.976013 0)
(-8.19182 -1.72863 0)
(-7.58729 -1.51248 0)
(-7.97159 -2.25683 0)
(-7.40568 -2.04358 0)
(-7.71339 -2.80798 0)
(-7.1908 -2.58614 0)
(-7.42315 -3.39202 0)
(-6.95116 -3.15755 0)
(-7.10469 -4.00328 0)
(-6.69059 -3.76304 0)
(-6.76618 -4.61513 0)
(-6.40738 -4.38642 0)
(-6.43354 -5.15663 0)
(-6.10433 -4.98642 0)
(-5.885 -5.45278 0)
(-0.348187 6.84528 0)
(-0.187532 6.99381 0)
(-0.718997 6.75075 0)
(-0.390895 6.98732 0)
(-1.09954 6.55655 0)
(-0.740313 6.81452 0)
(-1.49104 6.32703 0)
(-1.04241 6.60392 0)
(-1.89453 6.07105 0)
(-1.38089 6.36156 0)
(-2.31073 5.79654 0)
(-1.73189 6.09875 0)
(-2.73862 5.50699 0)
(-2.10132 5.81888 0)
(-3.17601 5.20399 0)
(-2.48623 5.52418 0)
(-3.61967 4.88724 0)
(-2.8837 5.21479 0)
(-4.06549 4.555 0)
(-3.28986 4.8894 0)
(-4.50838 4.2045 0)
(-3.7 4.54534 0)
(-4.94238 3.83252 0)
(-4.10854 4.17936 0)
(-5.36066 3.43571 0)
(-4.50917 3.78794 0)
(-5.75554 3.01092 0)
(-4.89478 3.36762 0)
(-6.1183 2.55565 0)
(-5.25732 2.91527 0)
(-6.4393 2.06839 0)
(-5.58785 2.42866 0)
(-6.70806 1.54909 0)
(-5.8764 1.90676 0)
(-6.91347 1.00028 0)
(-6.11087 1.35028 0)
(-7.04467 0.429462 0)
(-6.2761 0.763709 0)
(-7.09413 -0.150023 0)
(-6.35765 0.157701 0)
(-7.06435 -0.724301 0)
(-6.35419 -0.445593 0)
(-6.96575 -1.28427 0)
(-6.28638 -1.03448 0)
(-6.8173 -1.83004 0)
(-6.16772 -1.59842 0)
(-6.63798 -2.37415 0)
(-6.0169 -2.14494 0)
(-6.44107 -2.93532 0)
(-5.85026 -2.69481 0)
(-6.23336 -3.52619 0)
(-5.67711 -3.26947 0)
(-6.0181 -4.14138 0)
(-5.5016 -3.87629 0)
(-5.80111 -4.75038 0)
(-5.32494 -4.49789 0)