/*--------------------------------*- C++ -*----------------------------------*\
  =========                 |
  \\      /  F ield         | OpenFOAM: The Open Source CFD Toolbox
   \\    /   O peration     | Website:  https://openfoam.org
    \\  /    A nd           | Version:  7
     \\/     M anipulation  |
\*---------------------------------------------------------------------------*/
FoamFile
{
    version     2.0;
    format      ascii;
    class       volVectorField;
    location    "0.76";
    object      U;
}
// * * * * * * * * * * * * * * * * * * * * * * * * * * * * * * * * * * * * * //

dimensions      [0 1 -1 0 0 0 0];

internalField   nonuniform List<vector> 
12013
(
(0.0999985 6.8516e-07 0)
(0.0999868 2.09745e-06 0)
(0.0999554 4.49295e-06 0)
(0.0998953 7.76609e-06 0)
(0.0998003 1.14407e-05 0)
(0.0996712 1.4861e-05 0)
(0.0995148 1.7493e-05 0)
(0.0993416 1.91177e-05 0)
(0.0991616 1.98344e-05 0)
(0.0989822 1.99346e-05 0)
(0.0988075 1.97465e-05 0)
(0.0986385 1.95297e-05 0)
(0.0984743 1.9435e-05 0)
(0.0983134 1.95174e-05 0)
(0.0981544 1.97692e-05 0)
(0.0979959 2.01529e-05 0)
(0.0978371 2.06278e-05 0)
(0.0976776 2.11595e-05 0)
(0.0975172 2.17253e-05 0)
(0.0973557 2.23126e-05 0)
(0.0971932 2.29172e-05 0)
(0.0970295 2.35388e-05 0)
(0.0968648 2.41805e-05 0)
(0.096699 2.48471e-05 0)
(0.0965319 2.55429e-05 0)
(0.0963635 2.62727e-05 0)
(0.0961937 2.70409e-05 0)
(0.0960224 2.7852e-05 0)
(0.0958494 2.87095e-05 0)
(0.0956746 2.96175e-05 0)
(0.0954977 3.0579e-05 0)
(0.0953187 3.15976e-05 0)
(0.0951373 3.26763e-05 0)
(0.0949534 3.38182e-05 0)
(0.0947667 3.50268e-05 0)
(0.0945772 3.63052e-05 0)
(0.0943846 3.76578e-05 0)
(0.0941888 3.9088e-05 0)
(0.0939895 4.0601e-05 0)
(0.0937865 4.22024e-05 0)
(0.0935797 4.38988e-05 0)
(0.0933687 4.56975e-05 0)
(0.0931535 4.76073e-05 0)
(0.0929336 4.96392e-05 0)
(0.0927088 5.18041e-05 0)
(0.0924787 5.41173e-05 0)
(0.0922431 5.65942e-05 0)
(0.0920014 5.92543e-05 0)
(0.0917533 6.21202e-05 0)
(0.0914983 6.52179e-05 0)
(0.0912356 6.85781e-05 0)
(0.0909647 7.22368e-05 0)
(0.0906848 7.62361e-05 0)
(0.0903951 8.06268e-05 0)
(0.0900944 8.54687e-05 0)
(0.0897817 9.08333e-05 0)
(0.0894556 9.68059e-05 0)
(0.0891145 0.000103491 0)
(0.0887566 0.000111014 0)
(0.0883798 0.00011953 0)
(0.0879814 0.00012923 0)
(0.0875585 0.000140353 0)
(0.0871074 0.000153199 0)
(0.0866238 0.000168148 0)
(0.0861023 0.000185694 0)
(0.0855363 0.000206476 0)
(0.0849177 0.000231342 0)
(0.0842362 0.000261428 0)
(0.0834788 0.000298285 0)
(0.0826286 0.000344068 0)
(0.0816634 0.000401826 0)
(0.0805536 0.000475955 0)
(0.079259 0.000572935 0)
(0.0777236 0.000702508 0)
(0.0758688 0.000879642 0)
(0.0735813 0.00112781 0)
(0.0706953 0.00148462 0)
(0.0669517 0.00201333 0)
(0.0619531 0.00284 0)
(0.0552469 0.004316 0)
(0.0477893 0.00802718 0)
(0.0999987 2.08304e-06 0)
(0.0999872 6.40876e-06 0)
(0.0999562 1.37471e-05 0)
(0.0998968 2.37808e-05 0)
(0.0998026 3.50532e-05 0)
(0.0996743 4.55532e-05 0)
(0.0995187 5.3641e-05 0)
(0.0993461 5.86404e-05 0)
(0.0991665 6.08541e-05 0)
(0.0989875 6.1173e-05 0)
(0.098813 6.0604e-05 0)
(0.098644 5.99429e-05 0)
(0.0984799 5.9654e-05 0)
(0.0983192 5.99059e-05 0)
(0.0981602 6.06755e-05 0)
(0.0980019 6.18507e-05 0)
(0.0978433 6.33049e-05 0)
(0.097684 6.49338e-05 0)
(0.0975238 6.66678e-05 0)
(0.0973626 6.84685e-05 0)
(0.0972003 7.03218e-05 0)
(0.0970369 7.22285e-05 0)
(0.0968725 7.41975e-05 0)
(0.0967069 7.62421e-05 0)
(0.0965401 7.8377e-05 0)
(0.096372 8.06163e-05 0)
(0.0962025 8.29738e-05 0)
(0.0960315 8.54625e-05 0)
(0.0958587 8.80943e-05 0)
(0.0956842 9.08801e-05 0)
(0.0955076 9.38306e-05 0)
(0.0953288 9.69557e-05 0)
(0.0951477 0.000100265 0)
(0.0949641 0.000103769 0)
(0.0947778 0.000107476 0)
(0.0945886 0.000111399 0)
(0.0943963 0.000115546 0)
(0.0942008 0.000119933 0)
(0.0940019 0.000124574 0)
(0.0937993 0.000129485 0)
(0.0935928 0.000134687 0)
(0.0933823 0.000140203 0)
(0.0931674 0.000146059 0)
(0.092948 0.000152287 0)
(0.0927237 0.000158925 0)
(0.0924942 0.000166014 0)
(0.0922591 0.000173605 0)
(0.0920181 0.000181757 0)
(0.0917706 0.000190538 0)
(0.0915163 0.000200026 0)
(0.0912544 0.000210318 0)
(0.0909844 0.000221521 0)
(0.0907055 0.000233765 0)
(0.0904169 0.000247203 0)
(0.0901175 0.000262017 0)
(0.0898062 0.000278425 0)
(0.0894817 0.000296686 0)
(0.0891425 0.000317115 0)
(0.0887868 0.000340095 0)
(0.0884125 0.000366092 0)
(0.0880172 0.000395685 0)
(0.0875979 0.000429591 0)
(0.0871513 0.000468711 0)
(0.086673 0.000514191 0)
(0.0861582 0.000567498 0)
(0.0856006 0.000630539 0)
(0.0849928 0.000705824 0)
(0.0843253 0.000796702 0)
(0.0835862 0.000907712 0)
(0.0827607 0.00104511 0)
(0.0818295 0.00121764 0)
(0.0807674 0.00143777 0)
(0.0795417 0.00172357 0)
(0.0781088 0.00210156 0)
(0.0764109 0.00261128 0)
(0.0743722 0.00331198 0)
(0.0718948 0.00429194 0)
(0.0688523 0.0056802 0)
(0.0651085 0.00766013 0)
(0.0607243 0.0104293 0)
(0.0568439 0.0138059 0)
(0.0999988 3.51724e-06 0)
(0.0999876 1.09217e-05 0)
(0.0999575 2.34799e-05 0)
(0.0998993 4.06794e-05 0)
(0.0998068 6.00346e-05 0)
(0.0996803 7.80986e-05 0)
(0.0995266 9.20491e-05 0)
(0.0993555 0.000100711 0)
(0.0991772 0.000104586 0)
(0.098999 0.000105194 0)
(0.0988249 0.000104258 0)
(0.0986563 0.000103146 0)
(0.0984923 0.000102657 0)
(0.0983317 0.000103086 0)
(0.098173 0.000104398 0)
(0.0980149 0.000106406 0)
(0.0978567 0.000108892 0)
(0.0976978 0.000111681 0)
(0.0975381 0.000114653 0)
(0.0973774 0.000117742 0)
(0.0972156 0.000120923 0)
(0.0970528 0.000124199 0)
(0.096889 0.000127583 0)
(0.096724 0.000131098 0)
(0.0965578 0.000134769 0)
(0.0963903 0.000138621 0)
(0.0962214 0.000142676 0)
(0.0960509 0.000146957 0)
(0.0958788 0.000151484 0)
(0.0957048 0.000156275 0)
(0.0955288 0.00016135 0)
(0.0953507 0.000166724 0)
(0.0951702 0.000172415 0)
(0.0949872 0.000178438 0)
(0.0948015 0.000184812 0)
(0.0946129 0.000191553 0)
(0.0944213 0.000198682 0)
(0.0942265 0.00020622 0)
(0.0940283 0.000214193 0)
(0.0938264 0.00022263 0)
(0.0936208 0.000231565 0)
(0.0934111 0.000241037 0)
(0.0931971 0.000251092 0)
(0.0929786 0.000261784 0)
(0.0927552 0.000273176 0)
(0.0925268 0.00028534 0)
(0.0922928 0.000298364 0)
(0.092053 0.000312344 0)
(0.0918069 0.000327399 0)
(0.091554 0.000343662 0)
(0.0912937 0.000361294 0)
(0.0910254 0.000380479 0)
(0.0907484 0.000401437 0)
(0.0904619 0.000424427 0)
(0.0901649 0.000449756 0)
(0.0898563 0.000477789 0)
(0.0895349 0.000508964 0)
(0.0891992 0.00054381 0)
(0.0888476 0.000582964 0)
(0.0884781 0.000627209 0)
(0.0880884 0.000677503 0)
(0.0876759 0.000735035 0)
(0.0872373 0.000801291 0)
(0.086769 0.000878146 0)
(0.0862663 0.000967991 0)
(0.0857239 0.0010739 0)
(0.0851352 0.0011999 0)
(0.0844924 0.00135128 0)
(0.0837856 0.00153512 0)
(0.083003 0.00176101 0)
(0.0821299 0.00204209 0)
(0.0811484 0.00239658 0)
(0.0800367 0.00284997 0)
(0.0787686 0.00343812 0)
(0.0773149 0.00421124 0)
(0.0756455 0.00523855 0)
(0.0737379 0.00661087 0)
(0.0715914 0.00843551 0)
(0.069266 0.0108096 0)
(0.0669975 0.0137076 0)
(0.065399 0.016555 0)
(0.0999989 4.97614e-06 0)
(0.0999882 1.55971e-05 0)
(0.0999591 3.36026e-05 0)
(0.0999028 5.83213e-05 0)
(0.099813 8.62095e-05 0)
(0.0996897 0.000112321 0)
(0.099539 0.000132579 0)
(0.0993706 0.000145256 0)
(0.0991944 0.000151035 0)
(0.0990175 0.000152073 0)
(0.0988443 0.000150837 0)
(0.0986761 0.000149295 0)
(0.0985124 0.000148611 0)
(0.0983521 0.000149224 0)
(0.0981937 0.000151094 0)
(0.098036 0.000153961 0)
(0.0978784 0.000157521 0)
(0.0977202 0.000161523 0)
(0.0975612 0.000165794 0)
(0.0974013 0.000170241 0)
(0.0972405 0.000174828 0)
(0.0970786 0.000179555 0)
(0.0969157 0.000184444 0)
(0.0967516 0.000189526 0)
(0.0965864 0.000194835 0)
(0.0964199 0.000200406 0)
(0.0962519 0.000206273 0)
(0.0960824 0.000212466 0)
(0.0959112 0.000219014 0)
(0.0957382 0.000225945 0)
(0.0955632 0.000233284 0)
(0.095386 0.000241055 0)
(0.0952065 0.000249283 0)
(0.0950245 0.000257989 0)
(0.0948398 0.0002672 0)
(0.0946523 0.00027694 0)
(0.0944617 0.000287238 0)
(0.094268 0.000298125 0)
(0.0940709 0.000309637 0)
(0.0938703 0.000321817 0)
(0.0936659 0.000334711 0)
(0.0934575 0.000348378 0)
(0.0932449 0.000362882 0)
(0.0930279 0.000378301 0)
(0.0928061 0.000394723 0)
(0.0925793 0.000412254 0)
(0.0923471 0.000431014 0)
(0.0921093 0.000451146 0)
(0.0918652 0.000472814 0)
(0.0916146 0.00049621 0)
(0.0913568 0.00052156 0)
(0.0910912 0.000549125 0)
(0.0908172 0.000579216 0)
(0.0905341 0.000612198 0)
(0.0902408 0.000648501 0)
(0.0899364 0.000688638 0)
(0.0896198 0.000733222 0)
(0.0892896 0.000782988 0)
(0.0889444 0.000838822 0)
(0.0885823 0.000901804 0)
(0.0882013 0.000973251 0)
(0.087799 0.00105479 0)
(0.0873727 0.00114843 0)
(0.0869193 0.00125669 0)
(0.0864349 0.00138277 0)
(0.0859151 0.00153071 0)
(0.0853548 0.00170573 0)
(0.0847481 0.00191459 0)
(0.0840879 0.00216615 0)
(0.0833662 0.00247213 0)
(0.0825741 0.0028481 0)
(0.0817018 0.00331486 0)
(0.0807395 0.00390018 0)
(0.0796791 0.00464079 0)
(0.078517 0.00558416 0)
(0.0772599 0.00678854 0)
(0.0759349 0.00831766 0)
(0.0746038 0.0102224 0)
(0.0733833 0.0124964 0)
(0.0724666 0.0149731 0)
(0.0720854 0.0171115 0)
(0.0999989 6.45705e-06 0)
(0.0999888 2.03839e-05 0)
(0.0999612 4.39958e-05 0)
(0.0999075 7.65098e-05 0)
(0.0998214 0.000113324 0)
(0.0997024 0.000147954 0)
(0.0995562 0.000175005 0)
(0.0993918 0.000192132 0)
(0.0992185 0.000200155 0)
(0.0990436 0.000201852 0)
(0.0988717 0.00020045 0)
(0.0987041 0.000198542 0)
(0.0985409 0.000197684 0)
(0.098381 0.000198482 0)
(0.0982231 0.000200913 0)
(0.0980661 0.000204652 0)
(0.0979092 0.00020931 0)
(0.097752 0.000214562 0)
(0.0975942 0.000220185 0)
(0.0974355 0.000226054 0)
(0.0972759 0.000232119 0)
(0.0971153 0.000238381 0)
(0.0969538 0.000244864 0)
(0.0967911 0.00025161 0)
(0.0966272 0.000258662 0)
(0.0964621 0.000266064 0)
(0.0962955 0.000273861 0)
(0.0961274 0.000282092 0)
(0.0959575 0.000290794 0)
(0.0957859 0.000300003 0)
(0.0956122 0.000309753 0)
(0.0954364 0.000320074 0)
(0.0952583 0.000330998 0)
(0.0950777 0.000342554 0)
(0.0948945 0.000354776 0)
(0.0947084 0.000367697 0)
(0.0945195 0.000381353 0)
(0.0943273 0.000395786 0)
(0.0941319 0.000411043 0)
(0.093933 0.000427179 0)
(0.0937303 0.000444257 0)
(0.0935238 0.000462351 0)
(0.0933132 0.000481546 0)
(0.0930983 0.000501943 0)
(0.0928788 0.000523659 0)
(0.0926544 0.00054683 0)
(0.0924248 0.000571612 0)
(0.0921897 0.000598191 0)
(0.0919486 0.000626779 0)
(0.0917012 0.000657625 0)
(0.0914469 0.000691019 0)
(0.0911852 0.000727301 0)
(0.0909155 0.000766867 0)
(0.0906371 0.000810183 0)
(0.0903491 0.000857802 0)
(0.0900508 0.000910374 0)
(0.0897409 0.000968675 0)
(0.0894185 0.00103363 0)
(0.0890821 0.00110635 0)
(0.0887303 0.00118819 0)
(0.0883613 0.00128076 0)
(0.0879733 0.00138606 0)
(0.087564 0.00150654 0)
(0.0871309 0.00164523 0)
(0.0866713 0.00180589 0)
(0.0861819 0.00199326 0)
(0.0856593 0.0022133 0)
(0.0850997 0.00247359 0)
(0.0844993 0.0027838 0)
(0.0838543 0.0031563 0)
(0.0831612 0.00360693 0)
(0.0824183 0.00415588 0)
(0.0816264 0.00482855 0)
(0.080791 0.00565611 0)
(0.0799264 0.00667495 0)
(0.0790599 0.00792336 0)
(0.0782386 0.00943253 0)
(0.0775359 0.0112066 0)
(0.0770524 0.0131855 0)
(0.0769009 0.0151858 0)
(0.0771387 0.0168316 0)
(0.099999 7.95096e-06 0)
(0.0999895 2.52177e-05 0)
(0.0999636 5.45102e-05 0)
(0.0999132 9.49961e-05 0)
(0.0998318 0.00014105 0)
(0.0997186 0.000184646 0)
(0.0995782 0.000219015 0)
(0.0994189 0.000241116 0)
(0.0992496 0.000251835 0)
(0.0990776 0.000254531 0)
(0.0989073 0.000253179 0)
(0.0987409 0.000251019 0)
(0.0985783 0.000250029 0)
(0.098419 0.000251017 0)
(0.0982618 0.000253996 0)
(0.0981057 0.000258598 0)
(0.0979499 0.000264359 0)
(0.097794 0.000270882 0)
(0.0976376 0.000277894 0)
(0.0974806 0.000285238 0)
(0.0973227 0.000292849 0)
(0.0971639 0.000300724 0)
(0.0970041 0.000308893 0)
(0.0968432 0.000317401 0)
(0.0966812 0.000326303 0)
(0.0965179 0.000335653 0)
(0.0963531 0.000345503 0)
(0.0961868 0.000355901 0)
(0.0960188 0.000366895 0)
(0.0958489 0.000378525 0)
(0.0956771 0.000390835 0)
(0.0955031 0.000403862 0)
(0.0953269 0.000417644 0)
(0.0951482 0.000432219 0)
(0.0949669 0.000447626 0)
(0.0947829 0.000463908 0)
(0.0945959 0.000481109 0)
(0.0944059 0.000499281 0)
(0.0942127 0.000518483 0)
(0.094016 0.000538781 0)
(0.0938158 0.000560255 0)
(0.0936119 0.000582995 0)
(0.0934039 0.000607108 0)
(0.0931918 0.000632716 0)
(0.0929753 0.000659964 0)
(0.0927541 0.000689018 0)
(0.092528 0.000720072 0)
(0.0922966 0.00075335 0)
(0.0920595 0.000789113 0)
(0.0918164 0.000827664 0)
(0.0915669 0.000869355 0)
(0.0913104 0.000914596 0)
(0.0910464 0.000963866 0)
(0.0907743 0.00101773 0)
(0.0904934 0.00107683 0)
(0.0902029 0.00114196 0)
(0.089902 0.00121404 0)
(0.0895898 0.00129414 0)
(0.0892651 0.00138357 0)
(0.0889268 0.00148389 0)
(0.0885736 0.00159696 0)
(0.088204 0.00172503 0)
(0.0878165 0.00187086 0)
(0.0874094 0.00203777 0)
(0.0869809 0.00222987 0)
(0.0865293 0.00245218 0)
(0.0860529 0.0027109 0)
(0.0855502 0.00301368 0)
(0.0850203 0.00336997 0)
(0.0844633 0.0037914 0)
(0.0838806 0.0042922 0)
(0.0832767 0.00488945 0)
(0.0826595 0.0056032 0)
(0.0820433 0.00645585 0)
(0.0814506 0.00747023 0)
(0.0809152 0.00866517 0)
(0.0804845 0.0100469 0)
(0.0802191 0.0115942 0)
(0.0801863 0.013236 0)
(0.0804388 0.0148263 0)
(0.0809691 0.0161324 0)
(0.099999 9.44322e-06 0)
(0.0999902 3.0026e-05 0)
(0.0999664 6.49758e-05 0)
(0.0999198 0.000113492 0)
(0.0998442 0.000169006 0)
(0.0997378 0.000221974 0)
(0.0996045 0.000264219 0)
(0.0994516 0.00029191 0)
(0.0992874 0.000305899 0)
(0.099119 0.000310053 0)
(0.0989511 0.000309063 0)
(0.0987861 0.000306826 0)
(0.0986246 0.000305776 0)
(0.0984661 0.000306958 0)
(0.0983099 0.000310462 0)
(0.098155 0.000315898 0)
(0.0980007 0.000322744 0)
(0.0978464 0.00033054 0)
(0.0976919 0.000338962 0)
(0.0975369 0.000347822 0)
(0.0973812 0.000357039 0)
(0.0972246 0.000366602 0)
(0.097067 0.000376543 0)
(0.0969085 0.000386914 0)
(0.0967487 0.000397776 0)
(0.0965877 0.000409191 0)
(0.0964252 0.00042122 0)
(0.0962612 0.000433919 0)
(0.0960955 0.000447343 0)
(0.0959279 0.000461541 0)
(0.0957584 0.000476562 0)
(0.0955868 0.000492451 0)
(0.0954129 0.000509253 0)
(0.0952366 0.000527013 0)
(0.0950578 0.000545777 0)
(0.0948763 0.000565595 0)
(0.094692 0.000586521 0)
(0.0945047 0.000608616 0)
(0.0943143 0.00063195 0)
(0.0941206 0.000656602 0)
(0.0939235 0.000682667 0)
(0.0937227 0.000710251 0)
(0.0935182 0.00073948 0)
(0.0933098 0.000770501 0)
(0.0930971 0.000803482 0)
(0.09288 0.000838621 0)
(0.0926583 0.000876143 0)
(0.0924316 0.000916313 0)
(0.0921996 0.000959433 0)
(0.0919621 0.00100586 0)
(0.0917186 0.00105599 0)
(0.0914687 0.00111031 0)
(0.091212 0.00116937 0)
(0.090948 0.0012338 0)
(0.0906761 0.00130435 0)
(0.0903957 0.00138191 0)
(0.0901061 0.00146749 0)
(0.0898067 0.00156231 0)
(0.0894967 0.00166781 0)
(0.0891752 0.00178566 0)
(0.0888415 0.0019179 0)
(0.0884945 0.0020669 0)
(0.0881335 0.00223555 0)
(0.0877577 0.00242725 0)
(0.0873664 0.00264614 0)
(0.0869591 0.00289712 0)
(0.0865359 0.0031861 0)
(0.0860973 0.00352012 0)
(0.085645 0.00390754 0)
(0.085182 0.00435818 0)
(0.0847134 0.00488335 0)
(0.0842472 0.00549576 0)
(0.0837956 0.00620899 0)
(0.0833758 0.00703635 0)
(0.0830116 0.00798869 0)
(0.0827342 0.00907042 0)
(0.082582 0.0102734 0)
(0.0825971 0.0115678 0)
(0.082818 0.012892 0)
(0.0832635 0.0141445 0)
(0.0839093 0.0151886 0)
(0.0999991 1.09192e-05 0)
(0.099991 3.47353e-05 0)
(0.0999695 7.52168e-05 0)
(0.0999272 0.000131695 0)
(0.0998579 0.000196774 0)
(0.0997594 0.000259466 0)
(0.0996344 0.000310163 0)
(0.099489 0.000344146 0)
(0.0993309 0.0003621 0)
(0.099167 0.000368295 0)
(0.0990021 0.000368084 0)
(0.0988391 0.000366016 0)
(0.098679 0.000365012 0)
(0.0985218 0.000366402 0)
(0.0983669 0.000370398 0)
(0.0982136 0.000376621 0)
(0.0980611 0.000384513 0)
(0.097909 0.000393562 0)
(0.0977568 0.000403399 0)
(0.0976042 0.000413803 0)
(0.0974511 0.000424675 0)
(0.0972972 0.000435996 0)
(0.0971424 0.000447794 0)
(0.0969865 0.000460125 0)
(0.0968295 0.000473057 0)
(0.0966713 0.000486656 0)
(0.0965116 0.000500991 0)
(0.0963503 0.000516126 0)
(0.0961874 0.000532121 0)
(0.0960227 0.000549033 0)
(0.095856 0.000566917 0)
(0.0956872 0.000585823 0)
(0.0955162 0.000605803 0)
(0.0953429 0.000626908 0)
(0.0951671 0.000649193 0)
(0.0949888 0.000672712 0)
(0.0948077 0.00069753 0)
(0.0946237 0.000723716 0)
(0.0944368 0.00075135 0)
(0.0942467 0.000780525 0)
(0.0940534 0.000811347 0)
(0.0938567 0.000843942 0)
(0.0936565 0.000878451 0)
(0.0934525 0.000915042 0)
(0.0932446 0.000953908 0)
(0.0930326 0.000995271 0)
(0.0928163 0.00103939 0)
(0.0925955 0.00108656 0)
(0.0923699 0.00113712 0)
(0.0921392 0.00119147 0)
(0.0919032 0.00125007 0)
(0.0916615 0.00131343 0)
(0.0914138 0.00138216 0)
(0.0911597 0.00145696 0)
(0.0908988 0.00153866 0)
(0.0906306 0.00162819 0)
(0.0903549 0.00172664 0)
(0.0900711 0.00183531 0)
(0.0897787 0.00195569 0)
(0.0894774 0.00208951 0)
(0.0891667 0.00223883 0)
(0.0888464 0.00240604 0)
(0.0885163 0.00259394 0)
(0.0881764 0.00280581 0)
(0.0878271 0.00304549 0)
(0.0874691 0.00331743 0)
(0.0871038 0.00362678 0)
(0.0867335 0.00397945 0)
(0.0863616 0.00438211 0)
(0.0859931 0.00484215 0)
(0.085635 0.00536751 0)
(0.0852969 0.00596625 0)
(0.0849919 0.00664591 0)
(0.0847365 0.00741228 0)
(0.0845517 0.00826755 0)
(0.084462 0.00920758 0)
(0.0844945 0.0102182 0)
(0.0846753 0.0112708 0)
(0.0850235 0.0123186 0)
(0.0855423 0.0132959 0)
(0.0862079 0.0141241 0)
(0.0999991 1.23656e-05 0)
(0.0999918 3.92798e-05 0)
(0.0999726 8.50716e-05 0)
(0.0999348 0.000149315 0)
(0.0998724 0.000223946 0)
(0.0997824 0.000296643 0)
(0.0996665 0.000356364 0)
(0.0995296 0.000397402 0)
(0.0993785 0.000420123 0)
(0.09922 0.000429059 0)
(0.0990589 0.000430146 0)
(0.0988986 0.000428568 0)
(0.0987405 0.000427762 0)
(0.0985851 0.000429394 0)
(0.098432 0.000433846 0)
(0.0982807 0.000440797 0)
(0.0981305 0.000449678 0)
(0.0979808 0.000459942 0)
(0.0978313 0.000471182 0)
(0.0976817 0.000483147 0)
(0.0975315 0.000495714 0)
(0.0973807 0.000508852 0)
(0.0972291 0.000522588 0)
(0.0970765 0.000536976 0)
(0.0969228 0.000552084 0)
(0.0967677 0.000567987 0)
(0.0966113 0.000584755 0)
(0.0964533 0.00060246 0)
(0.0962937 0.000621166 0)
(0.0961323 0.000640935 0)
(0.0959689 0.000661827 0)
(0.0958035 0.000683899 0)
(0.095636 0.000707207 0)
(0.0954662 0.000731809 0)
(0.095294 0.000757764 0)
(0.0951194 0.000785134 0)
(0.0949422 0.000813991 0)
(0.0947622 0.000844413 0)
(0.0945795 0.00087649 0)
(0.0943938 0.000910324 0)
(0.0942051 0.000946035 0)
(0.0940132 0.000983762 0)
(0.093818 0.00102366 0)
(0.0936195 0.00106593 0)
(0.0934173 0.00111076 0)
(0.0932115 0.00115841 0)
(0.0930018 0.00120916 0)
(0.092788 0.00126334 0)
(0.09257 0.00132131 0)
(0.0923476 0.0013835 0)
(0.0921205 0.0014504 0)
(0.0918886 0.00152256 0)
(0.0916516 0.00160064 0)
(0.0914093 0.00168536 0)
(0.0911615 0.00177758 0)
(0.0909079 0.00187827 0)
(0.0906484 0.00198854 0)
(0.0903828 0.00210969 0)
(0.090111 0.0022432 0)
(0.0898329 0.00239077 0)
(0.0895486 0.00255435 0)
(0.0892585 0.0027362 0)
(0.0889628 0.00293888 0)
(0.0886625 0.00316532 0)
(0.0883586 0.00341881 0)
(0.088053 0.00370306 0)
(0.0877479 0.00402218 0)
(0.0874467 0.00438063 0)
(0.0871539 0.00478316 0)
(0.0868753 0.0052346 0)
(0.0866185 0.00573961 0)
(0.086393 0.00630225 0)
(0.0862106 0.00692525 0)
(0.0860852 0.00760915 0)
(0.0860331 0.00835097 0)
(0.0860716 0.00914266 0)
(0.0862179 0.00996924 0)
(0.0864866 0.0108072 0)
(0.0868855 0.0116236 0)
(0.0874119 0.0123774 0)
(0.0880472 0.0130239 0)
(0.0999991 1.37744e-05 0)
(0.0999926 4.36117e-05 0)
(0.0999756 9.4414e-05 0)
(0.0999424 0.000166115 0)
(0.0998868 0.000250169 0)
(0.0998057 0.000333065 0)
(0.0996992 0.000402354 0)
(0.0995715 0.000451238 0)
(0.0994283 0.000479599 0)
(0.099276 0.000492072 0)
(0.0991196 0.00049507 0)
(0.0989627 0.00049438 0)
(0.0988074 0.000493974 0)
(0.0986543 0.000495909 0)
(0.0985036 0.000500793 0)
(0.0983547 0.000508409 0)
(0.0982072 0.000518212 0)
(0.0980605 0.000529642 0)
(0.0979141 0.000542261 0)
(0.0977678 0.000555789 0)
(0.0976211 0.000570082 0)
(0.0974739 0.000585094 0)
(0.0973258 0.000600841 0)
(0.0971769 0.000617376 0)
(0.0970268 0.000634766 0)
(0.0968755 0.000653087 0)
(0.0967227 0.000672413 0)
(0.0965685 0.000692816 0)
(0.0964126 0.000714366 0)
(0.096255 0.00073713 0)
(0.0960955 0.000761169 0)
(0.095934 0.000786545 0)
(0.0957705 0.000813318 0)
(0.0956048 0.000841551 0)
(0.0954368 0.000871307 0)
(0.0952665 0.000902655 0)
(0.0950938 0.000935672 0)
(0.0949185 0.000970443 0)
(0.0947406 0.00100707 0)
(0.0945601 0.00104566 0)
(0.0943767 0.00108634 0)
(0.0941905 0.00112926 0)
(0.0940014 0.00117461 0)
(0.0938091 0.00122257 0)
(0.0936138 0.00127337 0)
(0.0934151 0.00132727 0)
(0.0932131 0.00138458 0)
(0.0930076 0.00144564 0)
(0.0927986 0.00151083 0)
(0.0925858 0.00158061 0)
(0.0923692 0.00165546 0)
(0.0921487 0.00173598 0)
(0.0919242 0.00182281 0)
(0.0916956 0.0019167 0)
(0.0914629 0.00201849 0)
(0.0912261 0.00212913 0)
(0.0909852 0.00224972 0)
(0.0907402 0.00238149 0)
(0.0904915 0.00252582 0)
(0.0902394 0.00268429 0)
(0.0899843 0.00285865 0)
(0.0897269 0.00305088 0)
(0.0894683 0.00326315 0)
(0.0892098 0.00349788 0)
(0.0889531 0.00375766 0)
(0.0887007 0.00404531 0)
(0.0884554 0.00436373 0)
(0.0882211 0.00471588 0)
(0.0880025 0.00510463 0)
(0.0878055 0.00553252 0)
(0.0876371 0.00600151 0)
(0.0875057 0.0065126 0)
(0.0874208 0.00706527 0)
(0.0873931 0.00765696 0)
(0.0874338 0.00828227 0)
(0.0875543 0.00893224 0)
(0.0877644 0.00959367 0)
(0.0880711 0.0102487 0)
(0.0884768 0.0108752 0)
(0.0889767 0.0114479 0)
(0.0895576 0.0119413 0)
(0.0999992 1.51452e-05 0)
(0.0999933 4.77095e-05 0)
(0.0999784 0.000103172 0)
(0.0999494 0.000181942 0)
(0.0999005 0.000275189 0)
(0.0998279 0.000368381 0)
(0.0997311 0.000447718 0)
(0.0996128 0.000505224 0)
(0.0994781 0.000540126 0)
(0.0993327 0.000556989 0)
(0.0991819 0.000562584 0)
(0.0990293 0.000563248 0)
(0.0988775 0.000563504 0)
(0.0987275 0.000565842 0)
(0.0985797 0.000571157 0)
(0.0984339 0.000579386 0)
(0.0982895 0.000590047 0)
(0.0981462 0.000602589 0)
(0.0980034 0.000616556 0)
(0.0978607 0.000631644 0)
(0.0977178 0.000647686 0)
(0.0975745 0.000664618 0)
(0.0974305 0.000682446 0)
(0.0972855 0.000701213 0)
(0.0971395 0.000720984 0)
(0.0969923 0.000741831 0)
(0.0968437 0.00076383 0)
(0.0966936 0.000787053 0)
(0.0965419 0.000811572 0)
(0.0963886 0.000837454 0)
(0.0962334 0.000864764 0)
(0.0960764 0.000893565 0)
(0.0959173 0.000923921 0)
(0.0957563 0.000955896 0)
(0.0955931 0.000989557 0)
(0.0954278 0.00102498 0)
(0.0952602 0.00106224 0)
(0.0950903 0.00110143 0)
(0.094918 0.00114266 0)
(0.0947433 0.00118605 0)
(0.0945662 0.00123172 0)
(0.0943865 0.00127985 0)
(0.0942042 0.0013306 0)
(0.0940193 0.00138419 0)
(0.0938317 0.00144086 0)
(0.0936413 0.00150087 0)
(0.0934482 0.00156453 0)
(0.0932522 0.0016322 0)
(0.0930534 0.00170426 0)
(0.0928516 0.00178116 0)
(0.092647 0.00186341 0)
(0.0924396 0.00195157 0)
(0.0922292 0.00204629 0)
(0.0920162 0.00214826 0)
(0.0918005 0.00225831 0)
(0.0915823 0.00237732 0)
(0.091362 0.00250629 0)
(0.0911399 0.00264634 0)
(0.0909164 0.00279869 0)
(0.0906922 0.00296469 0)
(0.0904682 0.00314582 0)
(0.0902454 0.00334367 0)
(0.0900252 0.00355995 0)
(0.0898093 0.00379644 0)
(0.0895998 0.004055 0)
(0.0893993 0.00433746 0)
(0.089211 0.0046456 0)
(0.0890387 0.00498098 0)
(0.0888868 0.00534487 0)
(0.0887606 0.00573799 0)
(0.0886661 0.00616034 0)
(0.0886098 0.00661091 0)
(0.0885989 0.00708734 0)
(0.0886408 0.00758561 0)
(0.0887428 0.00809975 0)
(0.0889114 0.00862149 0)
(0.0891517 0.00914022 0)
(0.0894664 0.00964306 0)
(0.0898551 0.0101154 0)
(0.0903128 0.0105417 0)
(0.0908303 0.0109073 0)
(0.0999992 1.64855e-05 0)
(0.0999938 5.15823e-05 0)
(0.0999808 0.000111341 0)
(0.0999556 0.000196744 0)
(0.0999127 0.000298877 0)
(0.0998482 0.000402371 0)
(0.0997607 0.000492144 0)
(0.0996518 0.000558982 0)
(0.0995259 0.000601299 0)
(0.0993881 0.000623418 0)
(0.0992435 0.000632334 0)
(0.0990961 0.000634874 0)
(0.0989487 0.00063611 0)
(0.0988025 0.000639002 0)
(0.0986583 0.000644785 0)
(0.0985161 0.0006536 0)
(0.0983754 0.00066507 0)
(0.0982358 0.000678675 0)
(0.0980969 0.00069396 0)
(0.0979583 0.000710602 0)
(0.0978196 0.000728412 0)
(0.0976805 0.000747307 0)
(0.0975407 0.000767276 0)
(0.0974002 0.000788352 0)
(0.0972586 0.000810593 0)
(0.0971158 0.000834065 0)
(0.0969717 0.000858842 0)
(0.0968262 0.000884994 0)
(0.0966791 0.00091259 0)
(0.0965305 0.000941697 0)
(0.0963801 0.000972382 0)
(0.096228 0.00100471 0)
(0.096074 0.00103873 0)
(0.0959181 0.00107453 0)
(0.0957603 0.00111217 0)
(0.0956005 0.00115171 0)
(0.0954387 0.00119326 0)
(0.0952749 0.0012369 0)
(0.0951089 0.00128273 0)
(0.0949408 0.00133089 0)
(0.0947707 0.0013815 0)
(0.0945983 0.00143474 0)
(0.0944238 0.00149078 0)
(0.0942471 0.00154984 0)
(0.0940683 0.00161215 0)
(0.0938873 0.00167798 0)
(0.0937041 0.00174764 0)
(0.0935189 0.00182147 0)
(0.0933315 0.00189986 0)
(0.0931422 0.00198323 0)
(0.092951 0.00207207 0)
(0.092758 0.0021669 0)
(0.0925634 0.00226833 0)
(0.0923674 0.00237701 0)
(0.0921704 0.00249366 0)
(0.0919726 0.00261907 0)
(0.0917745 0.0027541 0)
(0.0915768 0.0028997 0)
(0.09138 0.00305686 0)
(0.0911852 0.00322667 0)
(0.0909933 0.00341024 0)
(0.0908057 0.00360875 0)
(0.0906239 0.00382337 0)
(0.0904498 0.00405528 0)
(0.0902857 0.00430556 0)
(0.0901341 0.00457519 0)
(0.089998 0.00486491 0)
(0.0898808 0.0051752 0)
(0.0897865 0.00550607 0)
(0.0897194 0.00585699 0)
(0.0896839 0.00622673 0)
(0.0896851 0.00661317 0)
(0.0897277 0.00701314 0)
(0.0898165 0.00742234 0)
(0.0899558 0.00783517 0)
(0.090149 0.00824475 0)
(0.0903981 0.00864301 0)
(0.0907035 0.00902093 0)
(0.0910635 0.00936894 0)
(0.0914739 0.00967755 0)
(0.091928 0.00993812 0)
(0.0999992 1.78098e-05 0)
(0.0999943 5.52677e-05 0)
(0.0999828 0.000118978 0)
(0.0999607 0.000210577 0)
(0.0999232 0.000321245 0)
(0.0998659 0.000434957 0)
(0.0997869 0.000535442 0)
(0.0996872 0.000612209 0)
(0.0995701 0.000662737 0)
(0.0994403 0.000690939 0)
(0.0993027 0.000703906 0)
(0.0991613 0.000708879 0)
(0.0990189 0.000711463 0)
(0.0988774 0.000715114 0)
(0.0987375 0.00072145 0)
(0.0985994 0.000730865 0)
(0.0984628 0.000743121 0)
(0.0983274 0.000757761 0)
(0.0981928 0.000774343 0)
(0.0980585 0.000792536 0)
(0.0979243 0.000812131 0)
(0.0977897 0.000833025 0)
(0.0976545 0.000855189 0)
(0.0975186 0.000878642 0)
(0.0973817 0.00090343 0)
(0.0972437 0.000929612 0)
(0.0971044 0.000957254 0)
(0.0969638 0.000986423 0)
(0.0968218 0.00101718 0)
(0.0966782 0.0010496 0)
(0.0965331 0.00108373 0)
(0.0963863 0.00111965 0)
(0.0962379 0.0011574 0)
(0.0960877 0.00119706 0)
(0.0959358 0.00123869 0)
(0.0957822 0.00128238 0)
(0.0956268 0.00132819 0)
(0.0954696 0.00137623 0)
(0.0953107 0.0014266 0)
(0.09515 0.00147943 0)
(0.0949875 0.00153484 0)
(0.0948234 0.00159301 0)
(0.0946575 0.00165411 0)
(0.09449 0.00171834 0)
(0.0943209 0.00178594 0)
(0.0941503 0.00185716 0)
(0.0939782 0.0019323 0)
(0.0938047 0.00201167 0)
(0.0936301 0.00209563 0)
(0.0934543 0.00218459 0)
(0.0932777 0.00227897 0)
(0.0931005 0.00237925 0)
(0.0929229 0.00248596 0)
(0.0927454 0.00259965 0)
(0.0925683 0.00272094 0)
(0.0923921 0.00285047 0)
(0.0922174 0.00298893 0)
(0.0920451 0.00313705 0)
(0.0918758 0.00329558 0)
(0.0917108 0.00346528 0)
(0.0915511 0.00364691 0)
(0.0913981 0.00384119 0)
(0.0912535 0.0040488 0)
(0.0911191 0.00427032 0)
(0.0909971 0.00450619 0)
(0.0908898 0.00475663 0)
(0.0907998 0.00502164 0)
(0.09073 0.00530084 0)
(0.0906835 0.00559345 0)
(0.0906635 0.00589818 0)
(0.0906734 0.00621315 0)
(0.0907165 0.00653583 0)
(0.0907958 0.00686295 0)
(0.090914 0.00719051 0)
(0.0910733 0.00751378 0)
(0.0912752 0.00782736 0)
(0.09152 0.00812534 0)
(0.0918069 0.00840152 0)
(0.0921338 0.00864968 0)
(0.0924972 0.00886392 0)
(0.0928923 0.00903911 0)
(0.0999992 1.91369e-05 0)
(0.0999947 5.88233e-05 0)
(0.0999843 0.000126191 0)
(0.0999648 0.000223584 0)
(0.0999316 0.000342423 0)
(0.0998806 0.000466196 0)
(0.0998094 0.000577545 0)
(0.0997182 0.000664703 0)
(0.0996098 0.00072411 0)
(0.0994882 0.000759139 0)
(0.0993581 0.000776852 0)
(0.0992233 0.000784825 0)
(0.0990868 0.000789164 0)
(0.0989506 0.000793833 0)
(0.0988156 0.000800863 0)
(0.0986821 0.000810939 0)
(0.0985501 0.000823996 0)
(0.0984193 0.000839668 0)
(0.0982893 0.000857544 0)
(0.0981597 0.000877293 0)
(0.0980301 0.000898692 0)
(0.0979003 0.000921617 0)
(0.09777 0.000946021 0)
(0.0976389 0.000971906 0)
(0.097507 0.000999303 0)
(0.097374 0.00102826 0)
(0.0972399 0.00105883 0)
(0.0971046 0.00109108 0)
(0.0969679 0.00112507 0)
(0.0968298 0.00116084 0)
(0.0966903 0.00119846 0)
(0.0965493 0.00123799 0)
(0.0964069 0.00127948 0)
(0.0962629 0.001323 0)
(0.0961175 0.0013686 0)
(0.0959706 0.00141637 0)
(0.0958222 0.00146637 0)
(0.0956723 0.0015187 0)
(0.0955211 0.00157345 0)
(0.0953685 0.00163076 0)
(0.0952145 0.00169074 0)
(0.0950593 0.00175354 0)
(0.0949029 0.00181935 0)
(0.0947455 0.00188833 0)
(0.094587 0.00196072 0)
(0.0944276 0.00203674 0)
(0.0942676 0.00211666 0)
(0.094107 0.00220075 0)
(0.093946 0.00228935 0)
(0.0937849 0.00238279 0)
(0.093624 0.00248144 0)
(0.0934636 0.0025857 0)
(0.0933041 0.00269599 0)
(0.0931459 0.00281276 0)
(0.0929896 0.00293649 0)
(0.0928357 0.00306764 0)
(0.0926851 0.00320671 0)
(0.0925384 0.00335421 0)
(0.0923966 0.00351059 0)
(0.0922609 0.00367632 0)
(0.0921324 0.00385179 0)
(0.0920125 0.00403732 0)
(0.0919028 0.00423314 0)
(0.0918048 0.00443934 0)
(0.0917206 0.00465583 0)
(0.091652 0.0048823 0)
(0.0916013 0.00511819 0)
(0.0915706 0.0053626 0)
(0.0915623 0.00561431 0)
(0.0915786 0.00587166 0)
(0.0916217 0.0061326 0)
(0.0916938 0.0063946 0)
(0.0917964 0.00665467 0)
(0.0919309 0.00690942 0)
(0.0920982 0.00715509 0)
(0.0922986 0.00738761 0)
(0.0925314 0.00760278 0)
(0.0927955 0.00779639 0)
(0.0930889 0.0079644 0)
(0.0934085 0.00810313 0)
(0.0937509 0.00820946 0)
(0.0999992 2.04862e-05 0)
(0.0999949 6.23159e-05 0)
(0.0999854 0.000133112 0)
(0.0999679 0.000235956 0)
(0.0999382 0.000362619 0)
(0.0998925 0.000496246 0)
(0.0998281 0.000618497 0)
(0.0997448 0.000716352 0)
(0.0996446 0.000785158 0)
(0.0995313 0.000827643 0)
(0.0994089 0.00085073 0)
(0.0992812 0.000862252 0)
(0.0991512 0.000868775 0)
(0.0990209 0.000874764 0)
(0.0988914 0.000882681 0)
(0.0987631 0.000893528 0)
(0.0986361 0.000907445 0)
(0.0985103 0.000924179 0)
(0.0983851 0.000943367 0)
(0.0982604 0.000964689 0)