/*--------------------------------*- C++ -*----------------------------------*\
  =========                 |
  \\      /  F ield         | OpenFOAM: The Open Source CFD Toolbox
   \\    /   O peration     | Website:  https://openfoam.org
    \\  /    A nd           | Version:  7
     \\/     M anipulation  |
\*---------------------------------------------------------------------------*/
FoamFile
{
    version     2.0;
    format      ascii;
    class       volScalarField;
    location    "6.25";
    object      T;
}
// * * * * * * * * * * * * * * * * * * * * * * * * * * * * * * * * * * * * * //

dimensions      [0 0 0 1 0 0 0];

internalField   nonuniform List<scalar> 
12013
(
300.103
300.311
300.525
300.741
300.96
301.179
301.397
301.614
301.827
302.036
302.242
302.442
302.637
302.826
303.01
303.188
303.359
303.525
303.685
303.84
303.989
304.133
304.272
304.407
304.537
304.663
304.786
304.905
305.021
305.136
305.248
305.359
305.469
305.579
305.689
305.8
305.914
306.03
306.15
306.275
306.406
306.545
306.693
306.851
307.022
307.207
307.408
307.628
307.869
308.135
308.427
308.75
309.108
309.503
309.941
310.425
310.962
311.557
312.214
312.942
313.746
314.635
315.617
316.701
317.896
319.215
320.668
322.27
324.035
325.982
328.129
330.5
333.122
336.027
339.257
342.863
346.913
351.503
356.78
362.985
370.58
300.103
300.311
300.525
300.742
300.961
301.18
301.398
301.614
301.828
302.037
302.243
302.443
302.638
302.828
303.011
303.189
303.361
303.527
303.687
303.842
303.991
304.135
304.274
304.409
304.539
304.665
304.788
304.907
305.024
305.138
305.25
305.361
305.471
305.581
305.691
305.802
305.916
306.032
306.152
306.277
306.408
306.547
306.695
306.853
307.023
307.208
307.409
307.629
307.87
308.135
308.427
308.75
309.107
309.502
309.939
310.423
310.959
311.552
312.209
312.935
313.738
314.625
315.605
316.686
317.879
319.193
320.642
322.238
323.996
325.934
328.07
330.426
333.029
335.909
339.104
342.66
346.636
351.107
356.173
361.957
368.571
300.103
300.312
300.525
300.743
300.962
301.181
301.4
301.616
301.83
302.04
302.245
302.446
302.641
302.831
303.015
303.193
303.365
303.531
303.691
303.846
303.995
304.14
304.279
304.413
304.544
304.67
304.793
304.912
305.029
305.143
305.255
305.366
305.476
305.585
305.696
305.807
305.92
306.036
306.156
306.281
306.412
306.551
306.698
306.856
307.026
307.21
307.411
307.631
307.871
308.136
308.427
308.749
309.105
309.499
309.935
310.417
310.952
311.543
312.197
312.921
313.72
314.604
315.578
316.654
317.839
319.146
320.584
322.168
323.911
325.829
327.941
330.266
332.828
335.655
338.777
342.231
346.06
350.31
355.027
360.24
365.908
300.103
300.312
300.526
300.744
300.963
301.183
301.402
301.619
301.833
302.044
302.25
302.451
302.646
302.836
303.021
303.199
303.371
303.538
303.698
303.853
304.003
304.147
304.286
304.421
304.551
304.678
304.801
304.92
305.037
305.151
305.263
305.374
305.484
305.593
305.703
305.815
305.928
306.044
306.164
306.288
306.419
306.557
306.704
306.862
307.031
307.215
307.415
307.634
307.873
308.137
308.427
308.748
309.102
309.494
309.928
310.408
310.94
311.528
312.178
312.897
313.691
314.567
315.535
316.601
317.775
319.067
320.489
322.053
323.771
325.658
327.731
330.007
332.506
335.25
338.262
341.568
345.192
349.156
353.467
358.105
363
300.103
300.313
300.528
300.746
300.966
301.186
301.406
301.624
301.838
302.049
302.256
302.457
302.654
302.844
303.029
303.208
303.38
303.547
303.708
303.863
304.013
304.158
304.298
304.432
304.563
304.689
304.812
304.932
305.048
305.163
305.275
305.386
305.496
305.605
305.715
305.826
305.939
306.055
306.174
306.298
306.429
306.566
306.713
306.87
307.039
307.222
307.421
307.638
307.877
308.139
308.428
308.746
309.098
309.488
309.918
310.395
310.922
311.505
312.15
312.862
313.648
314.515
315.471
316.523
317.681
318.954
320.352
321.887
323.569
325.413
327.432
329.64
332.053
334.687
337.558
340.68
344.063
347.709
351.607
355.722
359.988
300.104
300.314
300.53
300.749
300.97
301.191
301.411
301.63
301.845
302.057
302.265
302.467
302.664
302.855
303.041
303.22
303.393
303.561
303.722
303.878
304.028
304.173
304.313
304.448
304.579
304.706
304.829
304.948
305.065
305.179
305.291
305.402
305.512
305.621
305.731
305.842
305.954
306.07
306.189
306.313
306.443
306.58
306.725
306.881
307.049
307.231
307.429
307.645
307.881
308.142
308.428
308.744
309.093
309.479
309.905
310.377
310.898
311.475
312.111
312.814
313.589
314.443
315.384
316.418
317.554
318.801
320.168
321.664
323.301
325.088
327.038
329.16
331.467
333.969
336.674
339.588
342.711
346.034
349.539
353.189
356.933
300.104
300.316
300.532
300.752
300.974
301.197
301.418
301.638
301.855
302.068
302.276
302.479
302.677
302.87
303.056
303.236
303.41
303.578
303.74
303.897
304.048
304.193
304.333
304.469
304.6
304.727
304.85
304.97
305.087
305.201
305.313
305.424
305.534
305.643
305.752
305.863
305.975
306.09
306.209
306.332
306.461
306.597
306.742
306.897
307.063
307.244
307.44
307.654
307.888
308.146
308.429
308.741
309.086
309.467
309.888
310.354
310.868
311.435
312.062
312.752
313.513
314.351
315.272
316.282
317.391
318.605
319.932
321.381
322.961
324.679
326.545
328.567
330.751
333.103
335.626
338.32
341.178
344.188
347.328
350.568
353.869
300.105
300.317
300.536
300.757
300.981
301.204
301.427
301.649
301.867
302.081
302.291
302.496
302.695
302.888
303.076
303.257
303.432
303.601
303.764
303.921
304.073
304.219
304.36
304.496
304.628
304.755
304.878
304.998
305.115
305.23
305.342
305.452
305.562
305.671
305.78
305.89
306.002
306.116
306.234
306.356
306.485
306.62
306.763
306.917
307.082
307.26
307.454
307.665
307.897
308.151
308.431
308.739
309.078
309.453
309.868
310.325
310.829
311.386
311.999
312.675
313.419
314.236
315.132
316.114
317.189
318.363
319.642
321.035
322.547
324.186
325.957
327.864
329.913
332.104
334.436
336.906
339.505
342.218
345.026
347.904
350.822
300.106
300.32
300.54
300.763
300.988
301.214
301.439
301.662
301.882
302.098
302.31
302.516
302.717
302.912
303.101
303.284
303.46
303.63
303.794
303.953
304.105
304.252
304.394
304.53
304.662
304.79
304.914
305.034
305.151
305.266
305.378
305.488
305.598
305.706
305.815
305.925
306.036
306.149
306.266
306.388
306.515
306.649
306.791
306.942
307.105
307.281
307.472
307.681
307.909
308.159
308.434
308.736
309.07
309.437
309.843
310.29
310.783
311.326
311.924
312.582
313.304
314.096
314.963
315.912
316.946
318.073
319.298
320.626
322.062
323.611
325.276
327.06
328.965
330.989
333.129
335.379
337.729
340.166
342.673
345.229
347.813
300.107
300.323
300.545
300.77
300.998
301.226
301.453
301.679
301.901
302.119
302.333
302.542
302.745
302.942
303.132
303.317
303.495
303.667
303.832
303.991
304.145
304.293
304.436
304.573
304.706
304.834
304.958
305.079
305.196
305.311
305.423
305.533
305.642
305.751
305.859
305.968
306.079
306.191
306.307
306.427
306.553
306.685
306.825
306.975
307.135
307.308
307.496
307.701
307.925
308.17
308.439
308.734
309.06
309.419
309.814
310.25
310.729
311.256
311.836
312.472
313.169
313.932
314.766
315.674
316.663
317.737
318.899
320.155
321.507
322.959
324.512
326.168
327.925
329.78
331.73
333.768
335.884
338.066
340.3
342.571
344.86
300.108
300.327
300.551
300.78
301.01
301.241
301.471
301.699
301.924
302.145
302.362
302.573
302.779
302.978
303.171
303.357
303.538
303.711
303.878
304.039
304.194
304.343
304.487
304.626
304.759
304.888
305.013
305.134
305.252
305.366
305.479
305.589
305.698
305.806
305.913
306.022
306.131
306.243
306.358
306.477
306.6
306.731
306.868
307.015
307.173
307.343
307.527
307.727
307.945
308.184
308.447
308.735
309.051
309.4
309.783
310.204
310.668
311.177
311.735
312.346
313.014
313.744
314.54
315.404
316.342
317.356
318.451
319.629
320.892
322.241
323.678
325.202
326.81
328.5
330.267
332.103
334.001
335.949
337.937
339.952
341.981
300.109
300.331
300.559
300.791
301.024
301.259
301.492
301.724
301.953
302.177
302.397
302.611
302.82
303.022
303.218
303.407
303.59
303.765
303.935
304.098
304.254
304.405
304.55
304.69
304.825
304.955
305.08
305.202
305.32
305.435
305.547
305.657
305.765
305.873
305.98
306.088
306.196
306.307
306.42
306.537
306.659
306.787
306.922
307.066
307.22
307.386
307.565
307.76
307.973
308.205
308.459
308.738
309.044
309.381
309.75
310.156
310.601
311.088
311.622
312.206
312.842
313.535
314.288
315.104
315.986
316.937
317.959
319.055
320.225
321.469
322.788
324.18
325.643
327.173
328.764
330.412
332.108
333.843
335.609
337.396
339.192
300.111
300.337
300.569
300.804
301.042
301.281
301.518
301.754
301.987
302.215
302.439
302.658
302.87
303.076
303.275
303.467
303.652
303.831
304.003
304.168
304.327
304.48
304.627
304.768
304.904
305.035
305.161
305.284
305.402
305.517
305.63
305.74
305.848
305.955
306.061
306.168
306.275
306.384
306.496
306.611
306.731
306.856
306.988
307.128
307.279
307.44
307.614
307.803
308.009
308.233
308.478
308.747
309.041
309.364
309.718
310.105
310.53
310.994
311.501
312.053
312.655
313.307
314.015
314.779
315.602
316.486
317.433
318.444
319.519
320.658
321.86
323.123
324.445
325.821
327.249
328.72
330.231
331.773
333.339
334.92
336.51
300.113
300.344
300.58
300.82
301.063
301.307
301.549
301.79
302.028
302.262
302.49
302.713
302.93
303.14
303.343
303.539
303.728
303.91
304.085
304.253
304.415
304.57
304.719
304.862
304.999
305.132
305.259
305.382
305.501
305.617
305.729
305.839
305.947
306.054
306.159
306.265
306.371
306.478
306.588
306.701
306.818
306.94
307.069
307.205
307.351
307.507
307.675
307.858
308.055
308.271
308.506
308.763
309.044
309.352
309.688
310.056
310.458
310.897
311.375
311.894
312.457
313.067
313.726
314.435
315.197
316.013
316.883
317.808
318.788
319.823
320.911
322.05
323.237
324.47
325.744
327.054
328.395
329.761
331.147
332.545
333.95
300.116
300.352
300.594
300.84
301.088
301.338
301.587
301.833
302.077
302.317
302.551
302.779
303.001
303.216
303.424
303.625
303.818
304.004
304.183
304.355
304.519
304.677
304.829
304.974
305.113
305.247
305.376
305.5
305.62
305.736
305.849
305.959
306.067
306.172
306.277
306.382
306.486
306.592
306.699
306.81
306.924
307.043
307.168
307.3
307.44
307.591
307.752
307.927
308.116
308.322
308.546
308.79
309.057
309.348
309.666
310.013
310.391
310.802
311.248
311.732
312.256
312.821
313.43
314.083
314.782
315.528
316.322
317.162
318.049
318.983
319.961
320.982
322.043
323.141
324.273
325.435
326.622
327.83
329.053
330.288
331.527
300.119
300.361
300.61
300.863
301.118
301.375
301.631
301.885
302.135
302.382
302.623
302.858
303.086
303.307
303.521
303.727
303.926
304.117
304.3
304.476
304.644
304.805
304.96
305.108
305.25
305.385
305.516
305.641
305.762
305.879
305.992
306.102
306.209
306.314
306.418
306.521
306.624
306.728
306.833
306.941
307.052
307.167
307.288
307.415
307.55
307.694
307.848
308.015
308.195
308.39
308.602
308.833
309.084
309.357
309.655
309.979
310.332
310.714
311.128
311.576
312.059
312.578
313.136
313.733
314.369
315.046
315.764
316.522
317.32
318.156
319.03
319.94
320.884
321.858
322.859
323.886
324.933
325.998
327.076
328.163
329.256
300.123
300.372
300.629
300.89
301.154
301.419
301.683
301.945
302.205
302.459
302.708
302.951
303.187
303.415
303.636
303.849
304.053
304.25
304.438
304.619
304.792
304.957
305.115
305.266
305.411
305.549
305.681
305.808
305.93
306.048
306.161
306.271
306.378
306.483
306.586
306.687
306.789
306.89
306.993
307.098
307.205
307.316
307.432
307.554
307.683
307.82
307.967
308.125
308.295
308.479
308.678
308.894
309.129
309.384
309.661
309.962
310.288
310.64
311.021
311.432
311.874
312.347
312.854
313.395
313.97
314.58
315.225
315.904
316.616
317.361
318.138
318.945
319.779
320.639
321.522
322.426
323.348
324.284
325.231
326.187
327.148
300.127
300.386
300.651
300.922
301.195
301.47
301.745
302.017
302.286
302.55
302.809
303.061
303.305
303.542
303.771
303.992
304.203
304.407
304.602
304.788
304.966
305.136
305.298
305.453
305.601
305.742
305.877
306.006
306.129
306.247
306.361
306.471
306.578
306.682
306.784
306.884
306.984
307.083
307.183
307.284
307.388
307.495
307.606
307.723
307.845
307.975
308.114
308.262
308.422
308.594
308.78
308.981
309.199
309.435
309.691
309.967
310.266
310.589
310.937
311.31
311.711
312.139
312.597
313.083
313.599
314.145
314.72
315.324
315.956
316.616
317.303
318.014
318.749
319.505
320.281
321.074
321.882
322.702
323.533
324.371
325.215
300.132
300.401
300.678
300.96
301.245
301.531
301.817
302.101
302.382
302.657
302.927
303.19
303.445
303.692
303.93
304.16
304.38
304.591
304.793
304.987
305.171
305.346
305.514
305.673
305.824
305.969
306.106
306.237
306.362
306.482
306.596
306.707
306.813
306.917
307.017
307.116
307.214
307.311
307.408
307.506
307.605
307.708
307.814
307.924
308.04
308.163
308.293
308.432
308.58
308.74
308.913
309.098
309.299
309.516
309.75
310.003
310.275
310.568
310.883
311.22
311.581
311.966
312.375
312.809
313.269
313.754
314.264
314.798
315.356
315.937
316.541
317.166
317.81
318.472
319.151
319.845
320.551
321.269
321.995
322.729
323.467
300.138
300.42
300.709
301.004
301.302
301.602
301.902
302.2
302.494
302.783
303.066
303.341
303.608
303.867
304.117
304.357
304.587
304.807
305.018
305.219
305.41
305.592
305.765
305.929
306.085
306.233
306.374
306.507
306.634
306.755
306.871
306.982
307.088
307.191
307.291
307.388
307.483
307.578
307.672
307.766
307.862
307.96
308.06
308.165
308.274
308.388
308.51
308.639
308.777
308.924
309.083
309.253
309.437
309.634
309.847
310.076
310.322
310.586
310.869
311.171
311.494
311.837
312.201
312.587
312.993
313.422
313.871
314.341
314.831
315.341
315.869
316.415
316.977
317.555
318.148
318.752
319.368
319.994
320.627
321.268
321.913
300.145
300.441
300.745
301.056
301.37
301.686
302.002
302.315
302.625
302.93
303.228
303.518
303.8
304.072
304.334
304.587
304.828
305.06
305.28
305.49
305.689
305.879
306.058
306.228
306.389
306.541
306.685
306.822
306.951
307.074
307.19
307.301
307.408
307.51
307.609
307.704
307.798
307.89
307.981
308.071
308.163
308.256
308.351
308.449
308.551
308.658
308.771
308.89
309.017
309.152
309.297
309.452
309.618
309.797
309.989
310.195
310.416
310.653
310.905
311.174
311.461
311.765
312.087
312.427
312.785
313.161
313.554
313.966
314.394
314.839
315.299
315.775
316.264
316.767
317.282
317.808
318.343
318.887
319.438
319.996
320.558
300.154
300.466
300.788
301.116
301.449
301.783
302.118
302.45
302.779
303.101
303.417
303.724
304.023
304.311
304.588
304.854
305.109
305.353
305.584
305.804
306.013
306.211
306.397
306.574
306.74
306.897
307.045
307.185
307.317
307.441
307.559
307.671
307.777
307.879
307.977
308.071
308.162
308.251
308.339
308.426
308.514
308.601
308.691
308.783
308.878
308.977
309.081
309.19
309.306
309.429
309.561
309.701
309.852
310.012
310.185
310.369
310.566
310.776
311
311.238
311.491
311.759
312.042
312.34
312.654
312.982
313.326
313.684
314.057
314.444
314.844
315.257
315.681
316.117
316.563
317.019
317.483
317.955
318.433
318.918
319.406
300.163
300.496
300.838
301.187
301.541
301.897
302.254
302.608
302.957
303.301
303.637
303.964
304.282
304.588
304.882
305.165
305.435
305.692
305.936
306.167
306.387
306.593
306.788
306.972
307.145
307.307
307.459
307.602
307.737
307.864
307.983
308.096
308.202
308.303
308.4
308.492
308.582
308.668
308.753
308.836
308.919
309.002
309.086
309.172
309.26
309.351
309.446
309.546
309.652
309.763
309.882
310.008
310.143
310.287
310.44
310.604
310.778
310.964
311.162
311.372
311.594
311.829
312.076
312.337
312.61
312.896
313.195
313.506
313.83
314.165
314.511
314.868
315.236
315.613
315.999
316.393
316.794
317.203
317.617
318.037
318.461
300.175
300.53
300.896
301.269
301.648
302.03
302.411
302.791
303.165
303.533
303.893
304.243
304.582
304.909
305.223
305.523
305.81
306.082
306.341
306.585
306.816
307.033
307.237
307.428
307.607
307.775
307.933
308.08
308.217
308.346
308.467
308.58
308.687
308.788
308.883
308.974
309.061
309.145
309.227
309.306
309.385
309.463
309.542
309.621
309.703
309.786
309.873
309.964
310.059
310.16
310.266
310.379
310.499
310.627
310.763
310.908
311.062
311.226
311.399
311.583
311.777
311.982
312.198
312.425
312.662
312.911
313.17
313.439
313.719
314.009
314.308
314.616
314.934
315.259
315.592
315.932
316.279
316.632
316.99
317.353
317.72
300.188
300.57
300.963
301.365
301.773
302.184
302.595
303.003
303.406
303.802
304.189
304.565
304.929
305.279
305.615
305.936
306.241
306.531
306.805
307.063
307.306
307.534
307.748
307.948
308.134
308.308
308.471
308.622
308.763
308.894
309.016
309.13
309.237
309.338
309.432
309.521
309.606
309.687
309.766
309.842
309.916
309.989
310.063
310.136
310.211
310.288
310.367
310.449
310.534
310.625
310.72
310.82
310.927
311.04
311.16
311.287
311.423
311.566
311.718
311.879
312.048
312.227
312.414
312.611
312.817
313.032
313.256
313.489
313.731
313.981
314.239
314.505
314.779
315.059
315.346
315.64
315.939
316.243
316.553
316.866
317.183
300.203
300.617
301.042
301.477
301.919
302.363
302.808
303.25
303.686
304.114
304.531
304.937
305.329
305.705
306.065
306.408
306.734
307.043
307.334
307.607
307.863
308.103
308.327
308.536
308.73
308.911
309.078
309.233
309.377
309.511
309.635
309.75
309.857
309.957
310.05
310.138
310.22
310.299
310.374
310.446
310.516
310.585
310.653
310.721
310.79
310.86
310.931
311.005
311.082
311.162
311.247
311.336
311.43
311.53
311.636
311.748
311.866
311.992
312.125
312.265
312.412
312.567
312.73
312.901
313.079
313.265
313.459
313.66
313.869
314.085
314.307
314.537
314.773
315.014
315.262
315.515
315.773
316.035
316.302
316.573
316.847
300.221
300.671
301.134
301.607
302.087
302.571
303.055
303.535
304.009
304.473
304.926
305.364
305.787
306.193
306.58
306.948
307.296
307.625
307.934
308.223
308.494
308.746
308.981
309.199
309.401
309.587
309.76
309.919
310.066
310.202
310.327
310.443
310.55
310.649
310.741
310.827
310.907
310.983
311.055
311.124
311.19
311.254
311.318
311.38
311.443
311.506
311.571
311.637
311.706
311.778
311.853
311.932
312.015
312.103
312.196
312.294
312.398
312.508
312.623
312.745
312.874
313.009
313.15
313.298
313.453
313.614
313.782
313.956
314.136
314.322
314.514
314.712
314.916
315.124
315.338
315.556
315.779
316.005
316.235
316.469
316.706
300.242
300.733
301.24
301.758
302.283
302.812
303.34
303.865
304.381
304.887
305.379
305.854
306.312
306.749
307.166
307.56
307.933
308.283
308.611
308.917
309.202
309.467
309.713
309.94
310.149
310.342
310.519
310.683
310.832
310.97
311.096
311.212
311.319
311.417
311.508
311.592
311.67
311.743
311.812
311.877
311.939
312
312.058
312.116
312.173
312.231
312.289
312.349
312.411
312.475
312.541
312.611
312.685
312.762
312.844
312.93
313.021
313.117
313.218
313.325
313.437
313.554
313.678
313.806
313.941
314.08
314.226
314.377
314.533
314.694
314.86
315.032
315.207
315.388
315.572
315.761
315.953
316.149
316.348
316.55
316.755
300.266
300.806
301.363
301.932
302.51
303.09
303.67
304.245
304.81
305.362
305.898
306.414
306.909
307.382
307.83
308.253
308.65
309.023
309.371
309.694
309.994
310.271
310.527
310.763
310.979
311.178
311.359
311.526
311.678
311.817
311.944
312.059
312.166
312.263
312.352
312.434
312.51
312.58
312.646
312.708
312.767
312.823
312.877
312.931
312.983
313.036
313.089
313.143
313.198
313.255
313.315
313.377
313.442
313.511
313.583
313.659
313.739
313.824
313.912
314.006
314.104
314.207
314.315
314.427
314.544
314.666
314.793
314.924
315.06
315.2
315.345
315.494
315.646
315.803
315.963
316.126
316.293
316.463
316.636
316.811
316.989
300.294
300.891
301.506
302.135
302.772
303.413
304.051
304.683
305.302
305.906
306.49
307.051
307.588
308.097
308.578
309.031
309.455
309.85
310.217
310.557
310.871
311.16
311.426
311.669
311.892
312.095
312.28
312.449
312.603
312.742
312.869
312.985
313.09
313.185
313.273
313.353
313.426
313.494
313.557
313.616
313.672
313.725
313.775
313.825
313.874
313.922
313.97
314.019
314.07
314.121
314.175
314.231
314.289
314.35
314.415
314.483
314.554
314.629
314.708
314.791
314.877
314.968
315.063
315.162
315.265
315.372
315.484
315.599
315.718
315.841
315.967
316.097
316.23
316.367
316.507
316.649
316.795
316.943
317.093
317.246
317.4
300.326
300.99
301.672
302.37
303.076
303.784
304.489
305.185
305.866
306.527
307.164
307.774
308.354
308.902
309.418
309.901
310.351
310.768
311.154
311.51
311.837
312.136
312.41
312.659
312.887
313.093
313.281
313.451
313.605
313.745
313.871
313.985
314.089
314.183
314.268
314.346
314.418
314.483
314.544
314.6
314.653
314.704
314.752
314.799
314.844
314.889
314.934
314.98
315.026
315.074
315.123
315.174
315.227
315.283
315.342
315.403
315.467
315.535
315.606
315.68
315.758
315.839
315.924
316.012
316.104
316.199
316.298
316.4
316.506
316.614
316.726
316.84
316.958
317.078
317.201
317.326
317.453
317.583
317.715
317.848
317.984
300.364
301.104
301.865
302.641
303.426
304.212
304.993
305.76
306.509
307.232
307.926
308.588
309.214
309.802
310.353
310.865
311.34
311.778
312.181
312.55
312.888
313.195
313.475
313.729
313.96
314.168
314.356
314.526
314.68
314.819
314.944
315.057
315.159
315.251
315.335
315.411
315.48
315.544
315.603
315.658
315.71
315.758
315.805
315.85
315.893
315.937
315.98
316.023
316.067
316.112
316.159
316.207
316.257
316.309
316.363
316.42
316.48
316.542
316.607
316.675
316.746
316.82
316.897
316.977
317.06
317.146
317.235
317.327
317.421
317.518
317.618
317.72
317.825
317.932
318.041
318.151
318.264
318.379
318.495
318.613
318.732
300.407
301.236
302.087
302.954
303.829
304.704
305.569
306.416
307.239
308.03
308.785
309.5
310.172
310.8
311.384
311.924
312.422
312.878
313.294
313.674
314.019
314.332
314.615
314.871
315.102
315.311
315.498
315.667
315.819
315.956
316.08
316.191
316.291
316.382
316.465
316.54
316.608
316.671
316.729
316.784
316.835
316.883
316.929
316.974
317.018
317.061
317.104
317.147
317.19
317.235
317.28
317.327
317.376
317.426
317.478
317.533
317.59
317.649
317.71
317.774
317.841
317.91
317.981
318.056
318.132
318.211
318.292
318.376
318.462
318.55
318.64
318.733
318.827
318.923
319.02
319.12
319.22
319.322
319.426
319.53
319.636
300.458
301.388
302.343
303.315
304.293
305.267
306.226
307.161
308.063
308.926
309.743
310.512
311.23
311.896
312.51
313.073
313.589
314.058
314.484
314.87
315.219
315.534
315.817
316.073
316.302
316.509
316.694
316.861
317.011
317.146
317.267
317.377
317.476
317.566
317.648
317.723
317.792
317.855
317.914
317.97
318.022
318.072
318.12
318.166
318.211
318.256
318.301
318.345
318.39
318.436
318.483
318.531
318.58
318.631
318.683
318.737
318.793
318.851
318.911
318.973
319.037
319.103
319.171
319.241
319.313
319.387
319.463
319.541
319.62
319.701
319.784
319.869
319.954
320.042
320.13
320.22
320.31
320.402
320.495
320.588
320.682
300.516
301.564
302.638
303.729
304.823
305.908
306.971
308.001
308.987
309.923
310.803
311.623
312.383
313.081
313.719
314.3
314.828
315.304
315.734
316.121
316.469
316.782
317.063
317.315
317.541
317.744
317.926
318.09
318.237
318.37
318.49
318.599
318.698
318.788
318.871
318.948
319.018
319.084
319.146
319.205
319.26
319.314
319.365
319.415
319.465
319.513
319.562
319.61
319.659
319.708
319.758
319.809
319.861
319.913
319.968
320.023
320.08
320.139
320.198
320.26
320.323
320.388
320.454
320.521
320.591
320.661
320.733
320.806
320.881
320.957
321.034
321.112
321.191
321.271
321.352
321.433
321.516
321.599
321.682
321.766
321.85
300.583
301.765
302.976
304.202
305.427
306.634
307.81
308.94
310.013
311.021
311.959
312.824
313.617
314.339
314.995
315.585
316.116
316.592
317.019
317.401
317.744
318.05
318.325
318.571
318.792
318.99
319.169
319.33
319.475
319.607
319.728
319.837
319.938
320.031
320.117
320.197
320.271
320.342
320.409
320.472
320.534
320.593
320.65
320.706
320.762
320.816
320.87
320.925
320.979
321.033
321.088
321.143
321.199
321.256
321.313
321.372
321.431
321.491
321.552
321.615
321.678
321.742
321.807
321.874
321.941
322.009
322.078
322.148
322.219
322.29
322.362
322.435
322.508
322.582
322.656
322.731
322.806
322.881
322.956
323.032
323.108
300.659
301.996
303.362
304.74
306.109
307.451
308.745
309.977
311.134
312.209
313.197
314.095
314.907
315.638
316.295
316.883
317.409
317.878
318.297
318.67
319.004
319.303
319.57
319.81
320.026
320.22
320.396
320.555
320.7
320.833
320.955
321.067
321.172
321.269
321.36
321.445
321.526
321.604
321.677
321.748
321.817
321.884
321.949
322.013
322.076
322.138
322.199
322.26
322.321
322.381
322.442
322.503
322.564
322.625
322.686
322.748
322.81
322.873
322.936
322.999
323.063
323.128
323.193
323.258
323.324
323.39
323.457
323.524
323.591
323.658
323.726
323.794
323.862
323.93
323.998
324.066
324.134
324.202
324.27
324.338
324.405
300.745
302.257
303.799
305.346
306.874
308.358
309.775
311.105
312.329
313.447
314.46
315.372
316.19
316.92
317.57
318.149
318.663
319.121
319.527
319.89
320.213
320.502
320.761
320.994
321.205
321.396
321.57
321.729
321.875
322.01
322.136
322.252
322.362
322.465
322.563
322.656
322.745
322.83
322.912
322.991
323.069
323.144
323.217
323.29
323.361
323.43
323.499
323.568
323.635
323.702
323.769
323.835
323.901
323.966
324.032
324.097
324.161
324.226
324.291
324.355
324.42
324.484
324.549
324.613
324.677
324.741
324.805
324.869
324.933
324.996
325.06
325.123
325.186
325.248
325.31
325.372
325.434
325.495
325.556
325.616
325.676
300.842
302.55
304.287
306.021
307.72
309.343
310.856
312.248
313.516
314.659
315.684
316.598
317.409
318.128
318.764
319.326
319.823
320.263
320.654
321.002
321.313
321.592
321.843
322.069
322.276
322.464
322.637
322.796
322.945
323.083
323.212
323.334
323.45
323.56
323.665
323.765
323.862
323.955
324.046
324.134
324.219
324.303
324.384
324.464
324.543
324.62
324.696
324.77
324.844
324.916
324.988
325.058
325.128
325.197
325.265
325.333
325.399
325.466
325.531
325.596
325.661
325.724
325.788
325.851
325.913
325.974
326.036
326.096
326.156
326.216
326.275
326.333
326.391
326.448
326.504
326.56
326.615
326.67
326.724
326.777
326.83
300.945
302.863
304.812
306.744
308.584
310.304
311.885
313.32
314.61
315.76
316.779
317.68
318.472
319.169
319.782
320.322
320.797
321.218
321.591
321.923
322.221
322.488
322.731
322.951
323.153
323.338
323.51
323.67
323.82
323.961
324.094
324.221
324.341
324.457
324.568
324.675
324.778
324.878
324.975
325.07
325.162
325.252
325.339
325.425
325.509
325.591
325.672
325.751
325.829
325.905
325.98
326.054
326.126
326.197
326.267
326.336
326.404
326.471
326.536
326.601
326.665
326.728
326.79
326.851
326.911
326.97
327.029
327.086
327.143
327.198
327.253
327.307
327.36
327.413
327.464
327.515
327.565
327.614
327.662
327.709
327.756
301.035
303.146
305.292
307.355
309.289
311.07
312.684
314.133
315.42
316.558
317.558
318.435
319.202
319.874
320.462
320.979
321.433
321.835
322.192
322.511
322.797
323.055
323.29
323.504
323.702
323.884
324.055
324.214
324.364
324.506
324.641
324.77
324.893
325.012
325.126
325.236
325.343
325.446
325.547
325.645
325.74
325.833
325.924
326.013
326.1
326.185
326.268
326.349
326.429
326.507
326.584
326.659
326.733
326.805
326.876
326.945
327.013
327.08
327.146
327.21
327.273
327.335
327.396
327.456
327.515
327.572
327.629
327.684
327.739
327.792
327.844
327.896
327.946
327.995
328.043
328.091
328.137
328.183
328.227
328.271
328.314
380.738
388.685
395.375
401.211
406.394
411.033
415.189
418.897
422.17
425.011
427.408
429.339
430.77
431.652
431.92
431.483
430.211
427.909
424.245
418.563
409.214
402.887
398.04
394.073
390.697
387.751
385.133
382.775
380.628
378.655
376.829
375.128
373.534
372.033
370.614
369.265
367.978
366.747
365.565
364.427
363.327
362.263
361.229
360.222
359.241
358.282
357.342
356.421
355.515
354.624
353.746
352.879
352.023
351.176
350.337
349.506
348.682
347.864
347.051
346.244
345.442
344.644
343.851
343.062
342.278
341.497
340.721
339.949
339.182
338.419
337.661
336.907
336.159
335.416
334.678
333.947
333.222
332.503
331.792
331.088
330.392
329.704
329.026
328.356
327.696
327.046
326.406
325.778
325.161
324.555
323.962
323.381
322.813
322.258
321.717
321.189
320.674
320.173
319.687
319.214
318.755
318.311
317.88
317.463
317.06
316.671
316.295
315.933
315.583
315.247
314.923
314.611
314.311
314.022
313.745
313.479
313.223
312.978
312.742
312.516
312.299
312.09
311.89
311.698
311.513
311.335
311.165
311.001
310.843
310.691
310.544
310.403
310.266
310.135
310.007
309.884
309.765
309.649
309.536
309.427
309.32
309.217
309.115
309.016
308.92
308.825
308.732
308.641
308.551
308.463
308.376
308.29
308.205
308.121
308.038
307.956
307.874
307.793
307.713
307.634
307.556
375.996
382.901
389.121
394.712
399.754
404.305
408.406
412.078
415.331
418.162
420.56
422.5
423.949
424.861
425.174
424.804
423.64
421.525
418.243
413.525
407.326
401.968
397.497
393.711
390.437
387.554
384.979
382.651
380.526
378.571
376.758
375.068
373.483
371.989
370.575
369.231
367.949
366.722
365.543
364.407
363.31
362.247
361.214
360.21
359.229
358.271
357.333
356.412
355.508
354.617
353.74
352.874
352.018
351.171
350.333
349.502
348.678
347.86
347.048
346.241
345.439
344.641
343.848
343.06
342.275
341.495
340.719
339.947
339.18
338.417
337.658
336.905
336.156
335.413
334.676
333.945
333.22
332.501
331.79
331.086
330.39
329.702
329.023
328.354
327.694
327.044
326.404
325.776
325.159
324.553
323.96
323.379
322.811
322.256
321.715
321.187
320.672
320.172
319.685
319.212
318.754
318.309
317.879
317.462
317.059
316.67
316.294
315.932
315.582
315.246
314.922
314.61
314.31
314.022
313.744
313.478
313.223
312.977
312.742
312.515
312.298
312.09
311.89
311.697
311.513
311.335
311.165
311.001
310.843
310.691
310.544
310.403
310.267
310.135
310.007
309.884
309.765
309.649
309.536
309.427
309.321
309.217
309.116
309.017
308.92
308.825
308.732
308.641
308.551
308.463
308.376
308.29
308.205
308.121
308.038
307.956
307.875
307.794
307.713
307.634
307.556
371.904
377.812
383.399
388.587
393.363
397.736
401.713
405.302
408.502
411.304
413.692
415.642
417.122
418.088
418.486
418.247
417.284
415.495
412.776
409.08
404.623
400.301
396.4
392.941
389.869
387.119
384.636
382.375
380.3
378.382
376.6
374.934
373.368
371.891
370.49
369.158
367.885
366.665
365.493
364.363
363.271
362.212
361.184
360.182
359.205
358.249
357.313
356.395
355.492
354.603
353.727
352.862
352.007
351.161
350.324
349.494
348.67
347.853
347.041
346.235
345.433
344.636
343.843
343.055
342.27
341.49
340.714
339.942
339.175
338.412
337.654
336.9
336.152
335.409
334.672
333.94
333.215