/*--------------------------------*- C++ -*----------------------------------*\
  =========                 |
  \\      /  F ield         | OpenFOAM: The Open Source CFD Toolbox
   \\    /   O peration     | Website:  https://openfoam.org
    \\  /    A nd           | Version:  7
     \\/     M anipulation  |
\*---------------------------------------------------------------------------*/
FoamFile
{
    version     2.0;
    format      ascii;
    class       volScalarField;
    location    "3.7";
    object      p;
}
// * * * * * * * * * * * * * * * * * * * * * * * * * * * * * * * * * * * * * //

dimensions      [0 2 -2 0 0 0 0];

internalField   nonuniform List<scalar> 
2790
(
147.261
147.168
147.435
148.006
148.786
149.744
150.876
152.183
153.659
155.3
157.099
159.05
161.144
163.369
165.709
168.145
170.649
173.188
175.72
178.194
180.553
182.73
184.661
186.281
187.541
188.415
188.852
188.907
188.958
189.171
147.058
147.075
147.368
147.936
148.712
149.666
150.794
152.095
153.564
155.197
156.987
158.927
161.01
163.224
165.553
167.979
170.475
173.008
175.538
178.016
180.385
182.58
184.534
186.183
187.468
188.342
188.739
188.794
188.926
189.211
146.859
146.947
147.258
147.816
148.579
149.52
150.633
151.916
153.364
154.972
156.734
158.643
160.691
162.866
165.155
167.537
169.989
172.479
174.971
177.419
179.769
181.961
183.934
185.624
186.975
187.95
188.544
188.899
189.214
189.513
146.634
146.752
147.076
147.626
148.374
149.299
150.392
151.651
153.07
154.644
156.368
158.233
160.232
162.352
164.581
166.898
169.283
171.706
174.133
176.524
178.831
181.002
182.984
184.724
186.179
187.331
188.199
188.87
189.423
189.942
146.373
146.506
146.838
147.38
148.112
149.016
150.083
151.31
152.692
154.224
155.898
157.707
159.643
161.693
163.845
166.081
168.379
170.714
173.055
175.368
177.614
179.749
181.731
183.522
185.092
186.435
187.565
188.528
189.339
190.086
146.072
146.211
146.545
147.077
147.789
148.667
149.703
150.892
152.23
153.709
155.324
157.067
158.928
160.896
162.957
165.095
167.29
169.519
171.756
173.971
176.134
178.211
180.173
181.994
183.657
185.159
186.505
187.711
188.731
189.649
145.73
145.869
146.201
146.719
147.409
148.256
149.256
150.401
151.687
153.107
154.654
156.319
158.094
159.967
161.924
163.95
166.026
168.132
170.244
172.34
174.395
176.387
178.294
180.104
181.81
183.411
184.905
186.284
187.449
188.496
145.345
145.482
145.807
146.309
146.972
147.786
148.744
149.839
151.067
152.42
153.89
155.47
157.148
158.914
160.754
162.654
164.595
166.559
168.526
170.478
172.395
174.263
176.07
177.812
179.491
181.11
182.664
184.137
185.387
186.537
144.919
145.052
145.366
145.849
146.483
147.259
148.171
149.211
150.375
151.654
153.04
154.524
156.096
157.745
159.455
161.214
163.003
164.807
166.606
168.385
170.128
171.826
173.474
175.074
176.636
178.17
179.679
181.149
182.421
183.659
144.452
144.58
144.881
145.341
145.944
146.679
147.54
148.521
149.614
150.813
152.108
153.489
154.946
156.466
158.036
159.64
161.261
162.884
164.489
166.063
167.591
169.065
170.483
171.851
173.184
174.502
175.822
177.16
178.36
179.665
143.947
144.069
144.354
144.79
145.358
146.048
146.855
147.772
148.791
149.904
151.101
152.372
153.706
155.088
156.506
157.942
159.379
160.8
162.187
163.522
164.789
165.979
167.086
168.114
169.077
170.006
170.936
171.934
172.896
174.215
143.405
143.519
143.788
144.196
144.727
145.371
146.121
146.97
147.91
148.932
150.026
151.181
152.384
153.621
154.876
156.133
157.371
158.572
159.714
160.776
161.738
162.58
163.288
163.853
164.279
164.588
164.831
165.138
165.519
166.693
142.828
142.935
143.185
143.564
144.056
144.65
145.34
146.118
146.976
147.904
148.89
149.924
150.99
152.075
153.16
154.227
155.253
156.217
157.093
157.852
158.464
158.899
159.12
159.095
158.791
158.193
157.317
156.324
155.375
155.879
142.219
142.317
142.547
142.897
143.348
143.891
144.519
145.223
145.996
146.826
147.701
148.609
149.535
150.462
151.37
152.24
153.045
153.759
154.35
154.782
155.012
154.989
154.65
153.918
152.694
150.864
148.299
144.996
141.045
139.007
141.58
141.669
141.879
142.197
142.606
143.096
143.66
144.29
144.975
145.705
146.467
147.247
148.029
148.794
149.522
150.189
150.766
151.223
151.519
151.609
151.436
150.926
149.981
148.465
146.186
142.853
138.008
130.988
120.52
108.288
1.72487
1.70154
1.62064
1.50796
1.38827
1.27303
1.16575
1.06689
0.97587
0.891564
0.812626
0.737787
0.666093
0.59705
0.530663
0.467341
0.407667
0.35215
0.301202
0.255438
0.216044
0.184586
0.161797
0.145062
0.129799
0.112596
0.0924376
0.0694108
0.0446079
0.0177164
1.6649
1.63791
1.56221
1.45886
1.34875
1.24172
1.14113
1.04767
0.960925
0.879919
0.803454
0.73039
0.659887
0.591573
0.525608
0.462567
0.403133
0.347771
0.296724
0.250612
0.211144
0.180532
0.159219
0.14429
0.130323
0.113699
0.0937584
0.0712952
0.0460811
0.0189914
1.60234
1.56996
1.49736
1.40245
1.30217
1.20402
1.1109
1.02361
0.941859
0.864785
0.79132
0.720446
0.651435
0.584046
0.518622
0.455966
0.396945
0.342018
0.291212
0.245003
0.205447
0.175588
0.156127
0.143349
0.130531
0.11406
0.0939286
0.0714321
0.046374
0.0177498
1.54644
1.50874
1.43803
1.34982
1.25808
1.16782
1.08152
0.99996
0.922919
0.849627
0.779116
0.710463
0.643029
0.576674
0.511885
0.449669
0.391103
0.336732
0.286351
0.23986
0.199019
0.168435
0.151484
0.14237
0.131795
0.116397
0.0966388
0.0736716
0.048185
0.0177453
1.5145
1.47165
1.40292
1.319
1.2328
1.14745
1.06533
0.987223
0.912975
0.841907
0.773131
0.705799
0.639346
0.573703
0.509419
0.447543
0.389215
0.335134
0.285384
0.24048
0.202199
0.173219
0.153615
0.14157
0.130562
0.114018
0.0931443
0.0715067
0.0470475
0.0170602
1.52037
1.47099
1.40349
1.31966
1.23409
1.14893
1.06686
0.988698
0.914377
0.843262
0.774498
0.707269
0.641043
0.575766
0.511938
0.450471
0.392331
0.338188
0.288408
0.243794
0.206428
0.178014
0.158761
0.145283
0.131812
0.114484
0.0932485
0.0700198
0.0442497
0.014592
1.57211
1.51453
1.44147
1.35255
1.26081
1.17037
1.08381
1.00194
0.924609
0.851126
0.780625
0.712297
0.64559
0.580367
0.516965
0.45607
0.398448
0.344697
0.295294
0.251014
0.213365
0.183518
0.16199
0.145975
0.130439
0.11206
0.0904518
0.0663426
0.039936
0.0127577
1.66944
1.59812
1.51004
1.40726
1.30303
1.20225
1.1074
1.01909
0.936895
0.859895
0.787005
0.717278
0.650029
0.584908
0.521994
0.461726
0.404715
0.351558
0.302817
0.259166
0.221411
0.190365
0.166231
0.146889
0.128641
0.108744
0.0861944
0.0608618
0.0339486
0.0105091
1.79652
1.70128
1.58855
1.46444
1.34355
1.23049
1.12663
1.03164
0.94458
0.86437
0.7896
0.719083
0.651926
0.587478
0.525495
0.466172
0.410007
0.357643
0.309667
0.266518
0.228671
0.196618
0.170098
0.147511
0.126423
0.104731
0.080952
0.0544089
0.0277641
0.00829199
1.92074
1.79222
1.65492
1.51021
1.37146
1.2452
1.13266
1.03279
0.943405
0.862034
0.786761
0.716284
0.649811
0.586704
0.526312
0.468368
0.413297
0.361945
0.315027
0.272849
0.23538
0.202413
0.17349
0.147655
0.123607
0.0998778
0.0746902
0.0471378
0.0213676
0.00606818
2.0127
1.85251
1.68672
1.52299
1.37299
1.23986
1.12333
1.0216
0.932095
0.851667
0.777668
0.708662
0.644041
0.583092
0.524757
0.468368
0.414388
0.364128
0.318661
0.278031
0.241396
0.207757
0.176474
0.147307
0.120124
0.0941934
0.0675956
0.0392877
0.0147155
0.00376847
2.04818
1.85376
1.66291
1.48389
1.32918
1.19786
1.0857
0.98904
0.904928
0.829599
0.759612
0.693777
0.632438
0.575153
0.520094
0.465795
0.412865
0.363627
0.319986
0.281698
0.246683
0.212782
0.179127
0.146339
0.115685
0.0874163
0.0596342
0.0310671
0.00807191
0.00149093
1.95648
1.71179
1.52069
1.3586
1.22375
1.1121
1.01668
0.933346
0.861103
0.796082
0.733207
0.671839
0.614823
0.562795
0.51252
0.460826
0.408513
0.359842
0.318413
0.283674
0.251511
0.217927
0.181729
0.144705
0.109978
0.0792245
0.0507104
0.0226202
0.00164513
-0.000704338
1.60423
1.32201
1.20724
1.12635
1.04626
0.978996
0.917017
0.855567
0.801354
0.752651
0.699973
0.643019
0.590515
0.545861
0.502803
0.454386
0.401538
0.352162
0.313231
0.283893
0.256503
0.223988
0.184757
0.142359
0.102534
0.0690611
0.0405444
0.013995
-0.00443219
-0.00276867
0.817525
0.506261
0.643296
0.787515
0.800879
0.808703
0.799819
0.761119
0.724954
0.700831
0.663561
0.609164
0.559723
0.525254
0.493343
0.448746
0.392433
0.339328
0.302861
0.281972
0.262484
0.232048
0.188805
0.139175
0.0926504
0.0560886
0.0286895
0.00522309
-0.0100615
-0.00466306
140.9
140.981
141.17
141.454
141.819
142.254
142.752
143.304
143.899
144.526
145.171
145.819
146.453
147.053
147.596
148.055
148.399
148.59
148.584
148.324
147.738
146.729
145.165
142.851
139.488
134.581
127.208
115.452
93.2775
33.4246
140.173
140.244
140.41
140.66
140.979
141.357
141.786
142.257
142.759
143.28
143.804
144.316
144.798
145.228
145.581
145.828
145.935
145.859
145.548
144.939
143.946
142.456
140.311
137.278
133.001
126.894
117.924
104.359
84.8337
56.3904
139.404
139.465
139.608
139.822
140.093
140.412
140.771
141.159
141.565
141.977
142.378
142.753
143.081
143.34
143.503
143.539
143.41
143.07
142.465
141.523
140.152
138.234
135.601
132.026
127.183
120.616
111.736
99.907
85.6844
69.094
138.593
138.644
138.763
138.94
139.163
139.422
139.709
140.013
140.322
140.624
140.902
141.139
141.314
141.403
141.379
141.207
140.85
140.26
139.378
138.133
136.433
134.16
131.163
127.246
122.162
115.618
107.318
96.9329
84.4009
69.2856
137.743
137.784
137.878
138.018
138.192
138.39
138.604
138.824
139.036
139.229
139.384
139.484
139.509
139.432
139.226
138.856
138.284
137.461
136.33
134.821
132.847
130.303
127.06
122.961
117.826
111.457
103.653
94.1733
82.8502
69.8915
136.856
136.887
136.956
137.058
137.183
137.32
137.461
137.597
137.713
137.797
137.832
137.799
137.677
137.44
137.062
136.507
135.736
134.704
133.355
131.626
129.438
126.701
123.31
119.145
114.078
107.973
100.709
92.1861
82.3962
71.7523
135.935
135.955
136
136.064
136.139
136.216
136.286
136.338
136.36
136.338
136.255
136.093
135.831
135.444
134.904
134.178
133.23
132.015
130.483
128.578
126.232
123.372
119.915
115.776
110.866
105.107
98.4453
90.8698
82.4242
73.4443
134.983
134.992
135.013
135.04
135.066
135.083
135.082
135.053
134.983
134.858
134.663
134.379
133.985
133.457
132.769
131.89
130.786
129.415
127.736
125.697
123.245
120.322
116.866
112.818
108.126
102.75
96.6748
89.9221
82.5416
74.8051
134.003
134.002
133.999
133.989
133.967
133.926
133.857
133.749
133.59
133.368
133.066
132.666
132.15
131.494
130.673
129.659
128.421
126.924
125.129
122.997
120.484
117.546
114.141
110.23
105.785
100.792
95.2562
89.2119
82.7128
75.9862
133
132.989
132.962
132.917
132.849
132.751
132.615
132.432
132.189
131.875
131.473
130.967
130.338
129.567
128.629
127.499
126.15
124.552
122.674
120.483
117.946
115.031
111.712
107.965
103.779
99.1543
94.1084
88.6809
82.9248
77.0248
131.978
131.958
131.908
131.828
131.715
131.564
131.365
131.11
130.789
130.387
129.893
129.29
128.561
127.687
126.648
125.421
123.983
122.309
120.375
118.154
115.623
112.761
109.551
105.982
102.054
97.7755
93.1704
88.278
83.1462
77.9232
130.942
130.912
130.841
130.728
130.573
130.37
130.112
129.791
129.395
128.915
128.336
127.645
126.827
125.864
124.74
123.434
121.927
120.2
118.233
116.007
113.505
110.716
107.629
104.244
100.564
96.6054
92.3929
87.9626
83.3565
78.6937
129.897
129.859
129.767
129.624
129.428
129.177
128.864
128.48
128.017
127.464
126.81
126.042
125.146
124.108
122.913
121.544
119.987
118.226
116.246
114.034
111.579
108.876
105.92
102.715
99.2707
95.6038
91.7386
87.7076
83.5465
79.3515
128.85
128.803
128.692
128.52
128.287
127.992
127.627
127.187
126.662
126.044
125.323
124.487
123.525
122.424
121.173
119.757
118.166
116.387
114.41
112.227
109.831
107.221
104.398
101.368
98.1423
94.7388
91.18
87.4942
83.7117
79.9102
127.806
127.751
127.623
127.423
127.156
126.82
126.409
125.917
125.337
124.662
123.882
122.988
121.971
120.819
119.524
118.075
116.464
114.681
112.72
110.576
108.247
105.734
103.041
100.177
97.1524
93.9855
90.6965
87.3096
83.8503
80.3819
126.771
126.71
126.565
126.34
126.042
125.669
125.216
124.678
124.05
123.324
122.494
121.551
120.489
119.298
117.97
116.5
114.879
113.103
111.167
109.071
106.813
104.398
101.831
99.1204
96.2799
93.3245
90.2724
87.1446
83.9624
80.7774
125.753
125.685
125.525
125.279
124.952
124.545
124.055
123.477
122.807
122.038
121.165
120.183
119.084
117.862
116.513
115.031
113.41
111.65
109.747
107.702
105.517
103.197
100.749
98.1818
95.5076
92.7404
89.8964
86.9934
84.0493
81.1067
124.758
124.684
124.511
124.245
123.893
123.457
122.934
122.321
121.614
120.808
119.901
118.886
117.759
116.517
115.154
113.667
112.055
110.316
108.45
106.46
104.348
102.119
99.7824
97.3461
94.8215
92.2213
89.5598
86.852
84.1133
81.3784
123.794
123.715
123.53
123.245
122.871
122.41
121.858
121.215
120.477
119.642
118.706
117.666
116.519
115.262
113.892
112.409
110.81
109.098
107.272
105.336
103.294
101.152
98.9186
96.6012
94.2106
91.7582
89.2565
86.7184
84.1567
81.6005
122.867
122.784
122.588
122.288
121.895
121.411
120.836
120.167
119.404
118.544
117.585
116.526
115.365
114.1
112.729
111.254
109.673
107.989
106.204
104.322
102.348
100.287
98.1476
95.9375
93.6663
91.3443
88.9822
86.5913
84.1825
81.78
121.986
121.898
121.694
121.381
120.971
120.468
119.872
119.182
118.398
117.519
116.543
115.471
114.3
113.032
111.665
110.201
108.641
106.987
105.243
103.413
101.502
99.5154
97.4613
95.3473
93.1819
90.9743
88.7339
86.4705
84.1936
81.9232
121.158
121.067
120.855
120.53
120.106
119.587
118.974
118.267
117.466
116.572
115.584
114.502
113.327
112.059
110.699
109.249
107.711
106.088
104.384
102.602
100.749
98.8306
96.8534
94.8247
92.7524
90.6447
88.5101
86.3568
84.1933
82.0362
120.391
120.297
120.078
119.743
119.307
118.775
118.148
117.428
116.614
115.708
114.711
113.624
112.448
111.183
109.832
108.398
106.882
105.288
103.621
101.885
100.085
98.2276
96.3186
94.365
92.374
90.353
88.3094
86.2508
84.1842
82.1239
119.694
119.597
119.372
119.029
118.583
118.039
117.401
116.67
115.846
114.933
113.93
112.84
111.664
110.405
109.065
107.646
106.152
104.587
102.954
101.259
99.5069
97.7031
95.8539
93.9657
92.0449
90.0984
88.1327
86.1546
84.1705
82.1922
119.074
118.975
118.745
118.394
117.939
117.387
116.74
116
115.169
114.249
113.243
112.153
110.98
109.727
108.398
106.994
105.521
103.981
102.38
100.721
99.0103
97.2534
95.4557
93.6233
91.7623
89.8788
87.9788
86.0683
84.1532
82.2433
118.542
118.441
118.204
117.846
117.384
116.825
116.171
115.425
114.589
113.665
112.658
111.568
110.399
109.153
107.834
106.445
104.99
103.473
101.899
100.272
98.5969
96.8796
95.1255
93.3399
91.5288
89.6976
87.8521
85.9976
84.1396
82.2863
118.108
118.002
117.758
117.393
116.924
116.358
115.699
114.948
114.108
113.182
112.174
111.086
109.921
108.682
107.372
105.996
104.557
103.06
101.508
99.9073
98.2618
96.5769
94.858
93.1103
91.3391
89.5497
87.7474
85.9373
84.1241
82.3148
117.782
117.67
117.418
117.045
116.571
116.001
115.338
114.583
113.741
112.814
111.806
110.719
109.558
108.325
107.024
105.658
104.232
102.75
101.217
99.6367
98.0143
96.355
94.6636
92.9453
91.2052
89.4483
87.6796
85.9039
84.1259
82.3517
117.579
117.445
117.175
116.797
116.32
115.748
115.082
114.325
113.482
112.555
111.548
110.463
109.305
108.077
106.782
105.424
104.007
102.536
101.016
99.4496
97.843
96.2007
94.5278
92.829
91.1094
89.3738
87.627
85.8735
84.1177
82.3646
117.561
117.362
117.064
116.679
116.2
115.625
114.956
114.197
113.353
112.426
111.42
110.337
109.182
107.957
106.666
105.314
103.904
102.441
100.929
99.3722
97.7759
96.1448
94.4836
92.7972
91.0905
89.3681
87.6347
85.8948
84.1526
82.4125
-50.6278
-30.4345
-11.0488
36.0854
28.7809
17.0297
51.6692
39.6538
28.5399
53.0502
42.658
34.6524
57.3682
49.1048
42.3736
61.7428
54.853
48.9793
65
59.132
54.0946
67.5806
62.5651
58.264
69.7554
65.4299
61.7265
71.5907
67.8168
64.5934
73.1334
69.8064
66.9719
74.4326
71.4724
68.9555
75.5289
72.8725
70.6173
76.4543
74.0519
72.0145
77.2352
75.0471
73.1926
77.8935
75.8875
74.1878
78.4472
76.5969
75.029
78.9115
77.1949
75.7398
79.2993
77.698
76.3396
79.6217
78.1198
76.8445
79.8881
78.472
77.2681
80.1072
78.7649
77.6221
80.2855
79.0066
77.916
80.4312
79.2062
78.1597
80.5468
79.3669
78.3576
80.6439
79.5014
78.5221
80.7139
79.6013
78.6467
80.7855
79.6956
78.7582
80.8187
79.7451
78.8217
80.8875
79.8279
78.911
-2.16403
-2.00956
-0.579537
0.494011
0.560791
0.614663
0.664593
0.638054
0.621287
0.650563
0.640971
0.576497
0.519053
0.495885
0.483214
0.444325
0.380061
0.318581
0.285041
0.278266
0.272084
0.244888
0.195465
0.135336
0.0793905
0.0389399
0.0143163
-0.00366398
-0.0151141
-0.00638202
3.32572
0.228118
1.40952
1.08049
-0.0359384
0.0355551
0.538139
0.604084
0.567036
0.642391
0.633512
0.518421
0.437807
0.44718
0.48721
0.460099
0.376226
0.293413
0.258264
0.271237
0.286932
0.264228
0.204611
0.128866
0.0595855
0.0143095
-0.0044295
-0.0124898
-0.019155
-0.00792396
14.3213
5.88579
3.02083
0.817443
0.333123
1.2168
1.44658
0.513324
0.0302662
0.290713
0.640267
0.524697
0.402106
0.449941
0.53868
0.487121
0.350788
0.222977
0.184425
0.243523
0.31475
0.301141
0.223219
0.12402
0.0358222
-0.0164274
-0.0260326
-0.0182345
-0.0198451
-0.00930561
23.9457
14.097
8.26439
4.52615
2.6545
1.90341
0.92791
0.242515
0.27433
1.36015
1.4852
0.447591
0.0119895
0.0849172
0.425528
0.551356
0.37272
0.184386
0.150388
0.292921
0.397137
0.355073
0.239453
0.104983
-0.00996103
-0.0729582
-0.0679019
-0.0290304
-0.0188831
-0.0113351
33.063
23.3251
16.0184
10.7145
7.04383
4.54691
2.72701
1.65245
1.22952
1.313
0.83818
0.28174
0.0557084
0.521616
1.15792
0.934493
0.337145
-0.035709
-0.14849
0.0362153
0.39615
0.441606
0.276702
0.097455
-0.0477702
-0.120289
-0.0888337
0.00386075
0.0142077
-0.0114953
41
32.0887
24.2081
17.7768
12.8441
9.18134
6.49058
4.5789
3.27456
2.39599
1.61481
1.00448
0.657213
0.723991
0.806426
0.680098
0.297276
-0.0635338
-0.114257
0.475942
0.875474
0.581799
0.26973
0.0267187
-0.153065
-0.245793
-0.206329
-0.05083
0.0317236
-0.0218649
47.473
39.6774
31.9091
25.0227
19.3926
14.9182
11.382
8.61696
6.50334
4.91694
3.67793
2.68773
1.97453
1.56803
1.30423
1.02874
0.617651
0.242278
0.151659
0.417927
0.568977
0.518381
0.298941
0.0481718
-0.16134
-0.266826
-0.192728
0.114052
0.239966
-0.0233259
52.7459
46.021
38.769
31.9417
26.056
21.1029
16.9548
13.5223
10.7356
8.50371
6.69761
5.22534
4.07584
3.23636
2.60875
2.04962
1.48311
1.01142
0.774262
0.768967
0.784532
0.683413
0.424315
0.134224
-0.0963211
-0.210744
-0.166348
0.0193652
0.171805
-0.0926934
57.048
51.2347
44.6537
38.1816
32.3621
27.2458
22.7698
18.8985
15.6022
12.8274
10.4971
8.54852
6.94969
5.66729
4.62721
3.73341
2.93869
2.28368
1.83117
1.57012
1.37754
1.12379
0.784303
0.441908
0.170588
0.0138562
-0.00792475
0.0694264
0.101031
-0.331073
60.5586
55.4927
49.5915
43.6071
38.0517
33.0029
28.4324
24.336
20.7154
17.5522
14.8091
12.4461
10.4308
8.72874
7.28802
6.04874
4.97408
4.06881
3.3528
2.80948
2.36005
1.91764
1.45978
1.02715
0.669254
0.416703
0.274194
0.194234
0.0366638
-0.547384
63.4417
58.9826
53.7028
48.234
43.0358
38.1912
33.6876
29.5367
25.7594
22.3614
19.3306
16.6464
14.2866
12.2257
10.4298
8.86016
7.48726
6.30109
5.30032
4.46597
3.7475
3.0886
2.46517
1.89188
1.39707
0.998183
0.687875
0.41459
0.0629479
-0.627708
65.8293
61.8653
57.1266
52.1464
47.3294
42.754
38.4134
34.3247
30.5176
27.0108
23.8081
20.9036
18.287
15.9433
13.852
11.9886
10.3312
8.86626
7.58404
6.4663
5.47922
4.58467
3.76013
3.0064
2.33563
1.75352
1.24569
0.765077
0.226684
-0.556848
67.8206
64.2644
59.988
55.4473
50.9983
46.7114
42.5805
38.6228
34.8698
31.3464
28.065
25.0299
22.2398
19.6889
17.3667
15.2589
13.3511
11.6311
10.0876
8.70491
7.45935
6.32435
5.28074
4.32229
3.4502
2.66177
1.94014
1.24675
0.523106
-0.360661
69.4906
66.2737
62.3905
58.2357
54.1249
50.1201
46.2138
42.4207
38.7712
35.2915
31.9986
28.9024
26.0079
23.316
20.8234
18.5233
16.4075
14.4669
12.692
11.0703
9.58507
8.21742
6.95161
5.77842
4.69279
3.68724
2.74522
1.8371
0.924438
-0.0779475
70.8968
67.9648
64.4162
60.5972
56.7897
53.0481
49.3632
45.7463
42.2249
38.8248
35.5643
32.4564
29.5097
26.7296
24.1177
21.6727
19.3909
17.2669
15.2939
13.463
11.7621
10.1777
8.69729
7.31089
6.0106
4.78691
3.62487
2.50226
1.39432
0.249717
72.0842
69.3929
66.1301
62.6023
59.0633
55.5614
52.0855
48.6435
45.2596
41.9577
38.7563
35.6692
32.7073
29.8784
27.1876
24.637
22.2266
19.9541
17.8155
15.8049
13.914
12.1331
10.4522
8.86208
7.35396
5.91793
4.54087
3.20595
1.89655
0.585916
73.0883
70.6013
67.5833
64.308
61.0054
57.7187
54.4353
51.16
47.9137
44.718
41.5902
38.5444
35.5922
32.7428
30.0034
27.3785
24.8705
22.4797
20.2046
18.0417
15.9857
14.0296
12.1656
10.3857
8.68137
7.04298
5.459
3.91592
2.40115
0.904476
73.9377
71.6246
68.817
65.7604
62.6653
59.5701
56.4614
53.3414
50.2275
47.1389
44.0917
41.0991
38.1729
35.3228
32.5571
29.8819
27.3012
24.8172
22.4305
20.1395
17.9411
15.8306
13.8019
11.8482
9.96156
8.13312
6.35232
4.6074
2.88692
1.19068
74.6556
72.491
69.8641
66.9973
64.0835
61.158
58.2063
55.2284
52.2387
49.2542
46.2893
43.3562
40.466
37.6287
34.8529
32.1456
29.5119
26.9554
24.478
22.0799
19.7595
17.5138
15.3382
13.227
11.173
9.16799
7.20192
5.26362
3.34118
1.43946
75.2614
73.2235
70.7521
68.0496
65.2941
62.5178
59.706
56.8566
53.9816
51.0956
48.2113
45.3398
42.4915
39.6759
36.9016
34.1758
31.5046
28.8923
26.3418
23.8545
21.4301
19.0667
16.7612
14.5085
12.3022
10.1346
7.99581
5.87463
3.75792
1.65225
75.7711
73.8413
71.5035
68.9429
66.325
63.6795
60.9914
58.2571
55.4863
52.6915
49.8841
47.0736
44.2696
41.4811
38.7162
35.9823
33.2855
30.6309
28.0219
25.4608
22.9482
20.4832
18.0633
15.6845
13.3409
11.0249
8.72691
6.43514
4.13519
1.83338
76.1984
74.3606
72.1373
69.699
67.2001
64.6684
62.0888
59.4565
56.7791
54.0676
51.3315
48.5796
45.8201
43.0614
40.3111
37.5764
34.8633
32.1772
29.5219
26.9001
24.3132
21.7609
19.2415
16.7512
14.2849
11.8349
9.39175
6.94315
4.47356
1.98801
76.5546
74.7946
72.6689
70.3353
67.9387
65.5053
63.0201
60.4771
57.8824
55.2455
52.5746
49.8771
47.1606
44.4323
41.6996
38.969
36.2466
33.5375
30.8459
28.1747
25.5257
22.8991
20.2936
17.7059
15.131
12.5616
9.98789
7.39732
4.77354
2.11974
76.8504
75.1558
73.1128
70.8681
68.5586
66.2092
63.805
61.3393
58.8168
56.2456
53.6327
50.9848
48.3082
45.6096
42.8956
40.1723
37.4454
34.7201
32.0003
29.2894
26.589
23.8999
21.2208
18.549
15.8794
13.205
10.5158
7.79888
5.03748
2.23247
77.0921
75.4518
73.4778
71.3076
69.0712
66.7926
64.4569
62.0569
59.5961
57.0816
54.5194
51.9152
49.2746
46.6035
43.9079
41.1935
38.4655
35.7289
32.9877
30.245
27.5027
24.7616
22.0207
19.2774
16.5267
13.7616
10.9721
8.14507
5.26347
2.32588
77.2915
75.6953
73.7779
71.669
69.4928
67.2725
64.9936
62.6481
60.239
57.7721
55.2529
52.6861
50.0768
47.4302
44.7516
42.0464
39.3194
36.5753
33.818
31.0504
28.2745
25.4911
22.6993
19.8965
17.078
14.2365
11.362
8.44138
5.45726
2.40519
77.4452
75.8839
74.0113
71.951
69.8226
67.6487
65.415
63.1133
60.7457
58.3173
55.8329
53.2968
50.7134
48.0872
45.4234
42.7266
40.0016
37.2526
34.4833
31.6966
28.8945
26.0778
23.2454
20.3949
17.5215
14.618
11.6743
8.677
5.60897
2.4634
77.5757
76.04
74.2015
72.1781
70.0859
67.947
65.7477
63.4792
61.1431
58.7441
56.2865
53.774
51.2106
48.6006
45.9484
43.2586
40.5356
37.7834
35.0055
32.2048
29.3831
26.541
23.6778
20.7909
17.8753
14.9239
11.9264
8.86921
5.73502
2.51317
77.6559
76.1364
74.3202
72.3218
70.2539
68.1386
65.9621
63.7159
61.401
59.0218
56.5822
54.0857
51.5358
48.9368
46.2926
43.6078
40.8863
38.1322
35.3487
32.5388
29.704
26.8451
23.9612
21.0496
18.1055
15.1214
12.0869
8.98809
5.80763
2.53315
77.7445
76.2261
74.4221
72.4388
70.3846
68.2819
66.1176
63.8831
61.5792
59.2101
56.7795
54.2909
51.7475
49.1534
46.5126
43.8294
41.1077
38.3514
35.5639
32.7479
29.9051
27.0362
24.1402
21.2145
18.2541
15.2517
12.1962
9.07314
5.86233
2.53983
)
;

boundaryField
{
    inlet
    {
        type            zeroGradient;
    }
    outlet
    {
        type            fixedValue;
        value           uniform 0;
    }
    flap
    {
        type            zeroGradient;
    }
    upperWall
    {
        type            zeroGradient;
    }
    lowerWall
    {
        type            zeroGradient;
    }
    frontAndBack
    {
        type            empty;
    }
}


// ************************************************************************* //
