/*--------------------------------*- C++ -*----------------------------------*\
  =========                 |
  \\      /  F ield         | OpenFOAM: The Open Source CFD Toolbox
   \\    /   O peration     | Website:  https://openfoam.org
    \\  /    A nd           | Version:  7
     \\/     M anipulation  |
\*---------------------------------------------------------------------------*/
FoamFile
{
    version     2.0;
    format      ascii;
    class       surfaceScalarField;
    location    "3.7";
    object      phi;
}
// * * * * * * * * * * * * * * * * * * * * * * * * * * * * * * * * * * * * * //

dimensions      [0 3 -1 0 0 0 0];

internalField   nonuniform List<scalar> 
5457
(
0.198418
0.00158237
0.19648
0.00193735
0.194192
0.00228806
0.191509
0.00268354
0.188428
0.00308114
0.184951
0.00347669
0.181072
0.00387847
0.176778
0.00429388
0.17205
0.00472806
0.166865
0.00518503
0.161197
0.00566828
0.155016
0.00618077
0.148292
0.00672468
0.140991
0.00730102
0.133081
0.00790915
0.124535
0.00854608
0.11533
0.00920551
0.105453
0.00987681
0.0949094
0.0105437
0.0837262
0.0111832
0.0719618
0.0117644
0.0597136
0.0122482
0.0471249
0.0125887
0.0343847
0.0127403
0.0216894
0.0126952
0.00903912
0.0126503
-0.00291524
0.0119544
-0.00847184
0.0055566
-0.00804293
-0.000428914
-0.00804293
0.199928
0.00165421
0.199176
0.00268978
0.197965
0.00349897
0.196332
0.00431668
0.194272
0.00514114
0.191782
0.00596668
0.188855
0.00680536
0.185478
0.00767063
0.181633
0.00857282
0.177298
0.00952025
0.172446
0.0105202
0.167048
0.0115789
0.161072
0.0127011
0.154483
0.0138896
0.147248
0.0151439
0.139335
0.0164588
0.130718
0.0178231
0.121378
0.0192166
0.111314
0.0206082
0.100544
0.0219528
0.0891199
0.0231886
0.0771324
0.0242356
0.0647265
0.0249946
0.0521189
0.0253479
0.0396583
0.0251558
0.0281078
0.0242009
0.018597
0.0214651
0.00879899
0.0153546
0.00118438
0.0071857
-0.00685855
0.199781
0.00187364
0.199087
0.00338361
0.197946
0.00463988
0.196409
0.00585327
0.194483
0.00706722
0.192164
0.00828567
0.189447
0.00952271
0.186321
0.010796
0.182774
0.0121206
0.178785
0.013509
0.174333
0.0149721
0.169392
0.0165197
0.163934
0.0181595
0.157927
0.0198965
0.151339
0.0217318
0.144138
0.0236602
0.136293
0.0256682
0.127779
0.0277301
0.118582
0.0298047
0.108705
0.0318304
0.0981732
0.0337202
0.0870511
0.0353578
0.0754544
0.0365913
0.0635772
0.0372251
0.0517351
0.0369979
0.0403994
0.0355365
0.0297409
0.0321237
0.0191674
0.0259281
0.00959842
0.0167546
0.00273987
0.199703
0.00217057
0.199008
0.00407891
0.197887
0.00576039
0.196376
0.00736415
0.194488
0.0089553
0.192222
0.0105516
0.189575
0.0121703
0.186539
0.0138319
0.183105
0.0155549
0.179258
0.0173553
0.174983
0.0192469
0.170261
0.0212421
0.16507
0.0233509
0.159386
0.0255804
0.153184
0.0279332
0.146439
0.0304051
0.139125
0.0329822
0.131218
0.0356371
0.122699
0.0383236
0.113559
0.040971
0.103802
0.0434769
0.0934598
0.0457002
0.0825986
0.0474525
0.0713357
0.0484879
0.0598436
0.0484901
0.0483192
0.0470609
0.0368128
0.0436301
0.0251891
0.0375518
0.0133362
0.0286076
0.0160761
0.199667
0.00250316
0.198964
0.00478217
0.197863
0.0068617
0.196381
0.00884581
0.194532
0.010804
0.192318
0.0127662
0.189734
0.0147541
0.186776
0.0167904
0.183434
0.0188965
0.179698
0.0210909
0.175556
0.0233897
0.170991
0.025807
0.165987
0.0283545
0.160527
0.0310404
0.154592
0.0338685
0.148162
0.0368353
0.141216
0.0399277
0.133735
0.0431183
0.125699
0.0463601
0.11709
0.04958
0.107896
0.0526701
0.0981175
0.055479
0.0877676
0.0578023
0.0768816
0.059374
0.0655114
0.0598602
0.0537103
0.058862
0.0414559
0.0558846
0.028589
0.0504186
0.014853
0.0423436
0.0309291
0.199653
0.00285036
0.198949
0.00548623
0.197871
0.00793963
0.196427
0.01029
0.194627
0.012604
0.192473
0.0149197
0.189964
0.0172636
0.187093
0.0196611
0.183854
0.0221357
0.180237
0.024708
0.17623
0.0273961
0.171822
0.0302155
0.166997
0.033179
0.161741
0.0362961
0.156039
0.0395711
0.149873
0.0430016
0.143225
0.0465756
0.136076
0.0502673
0.128404
0.0540321
0.120184
0.0577993
0.11139
0.0614642
0.101992
0.0648776
0.0919576
0.0678364
0.0812568
0.0700748
0.0698569
0.0712602
0.0577192
0.0709996
0.0447626
0.0688412
0.0308505
0.0643307
0.0158739
0.0573203
0.0468029
0.19965
0.00320031
0.198954
0.00618221
0.197904
0.00898926
0.196505
0.0116897
0.194763
0.0143462
0.192681
0.0170016
0.190257
0.0196872
0.187487
0.0224307
0.184365
0.0252577
0.180883
0.0281908
0.177029
0.0312499
0.172792
0.0344519
0.168161
0.0378109
0.163119
0.0413375
0.157653
0.0450371
0.151746
0.0489088
0.145379
0.0529428
0.13853
0.0571165
0.131172
0.06139
0.123271
0.0656998
0.114785
0.0699506
0.105657
0.0740052
0.0958196
0.077674
0.0851892
0.0807053
0.0736711
0.0827782
0.0611641
0.0835067
0.0475574
0.0824479
0.0327602
0.0791279
0.0167837
0.0732968
0.0635867
0.199655
0.00354566
0.198975
0.00686233
0.197959
0.010005
0.19661
0.0130384
0.194934
0.0160223
0.192933
0.0190022
0.190607
0.0220133
0.187952
0.0250859
0.184962
0.0282476
0.18163
0.0315228
0.177947
0.0349331
0.173902
0.0384971
0.169483
0.0422303
0.164675
0.0461446
0.159465
0.0502477
0.153833
0.0545409
0.147758
0.0590177
0.141214
0.0636608
0.134166
0.0684379
0.126569
0.0732962
0.118364
0.0781554
0.109472
0.0828976
0.0997896
0.0873565
0.0891905
0.0913043
0.0775284
0.0944404
0.0646505
0.0963846
0.0504201
0.0966783
0.0347701
0.0947778
0.0177909
0.090276
0.0813775
0.199664
0.0038815
0.199006
0.00752015
0.19803
0.0109813
0.196739
0.0143298
0.195137
0.0176243
0.193227
0.020912
0.191009
0.0242311
0.18848
0.0276144
0.185637
0.0310915
0.182471
0.0346884
0.178976
0.0384284
0.175141
0.0423318
0.170955
0.046416
0.166405
0.0506948
0.161474
0.0551785
0.156143
0.0598719
0.150387
0.0647736
0.144175
0.0698733
0.137464
0.0751489
0.130198
0.0805622
0.1223
0.0860526
0.11367
0.0915283
0.104172
0.0968546
0.0936376
0.101838
0.0818685
0.106209
0.0686532
0.1096
0.0538054
0.111526
0.0372392
0.111344
0.0190848
0.10843
0.100462
0.199677
0.00420428
0.199047
0.00815041
0.198116
0.0119126
0.196887
0.0155581
0.195366
0.0191452
0.193556
0.0227226
0.191456
0.0263309
0.189065
0.0300052
0.18638
0.0337767
0.183395
0.0376732
0.180104
0.0417196
0.176498
0.0459379
0.172567
0.0503474
0.168297
0.0549647
0.163672
0.059803
0.158672
0.0648718
0.15327
0.0701759
0.14743
0.0757138
0.141102
0.0814761
0.134222
0.0874424
0.126699
0.0935763
0.118408
0.0998186
0.109187
0.106076
0.0988237
0.112202
0.0870572
0.117976
0.0735946
0.123062
0.058153
0.126968
0.0405555
0.128941
0.0209034
0.128082
0.121366
0.199693
0.00451137
0.199095
0.00874881
0.198213
0.0127942
0.197053
0.0167178
0.19562
0.0205786
0.193916
0.0244264
0.191943
0.0283039
0.1897
0.0322481
0.187185
0.0362916
0.184394
0.040464
0.181322
0.0447917
0.177962
0.0492983
0.174304
0.0540052
0.170337
0.0589318
0.166045
0.0640948
0.161408
0.0695089
0.156398
0.0751858
0.150977
0.0811343
0.145094
0.0873595
0.138675
0.0938609
0.131621
0.10063
0.123793
0.107647
0.115
0.114869
0.104988
0.122214
0.0934247
0.129539
0.0799042
0.136583
0.0639741
0.142898
0.04524
0.147676
0.0236148
0.149708
0.144981
0.199711
0.00480069
0.199148
0.00931184
0.19832
0.0136219
0.197234
0.0178041
0.195894
0.0219188
0.194303
0.0260169
0.192465
0.0301425
0.190378
0.0343342
0.188044
0.0386264
0.185458
0.0430496
0.182618
0.0476316
0.179519
0.0523979
0.176152
0.0573718
0.172509
0.0625751
0.168575
0.0680286
0.164332
0.0737518
0.159754
0.0797639
0.154804
0.0860843
0.149431
0.0927327
0.143562
0.0997301
0.137094
0.107098
0.129882
0.114859
0.12172
0.12303
0.11232
0.131614
0.10128
0.140579
0.0880534
0.14981
0.0719316
0.15902
0.0520941
0.167513
0.0278907
0.173911
0.172871
0.19973
0.00507064
0.199205
0.00983665
0.198435
0.0143919
0.197426
0.0188128
0.196184
0.0231609
0.194713
0.0274881
0.193016
0.0318399
0.191094
0.0362562
0.188948
0.0407723
0.186578
0.04542
0.183981
0.0502282
0.181155
0.0552237
0.178095
0.0604316
0.174794
0.0658762
0.171241
0.0715814
0.167422
0.0775716
0.163313
0.0838728
0.158883
0.090514
0.154087
0.0975289
0.148858
0.104958
0.143103
0.112854
0.136683
0.121279
0.129397
0.130316
0.120948
0.140063
0.110892
0.150636
0.0985537
0.162147
0.0829133
0.17466
0.0624478
0.187979
0.0351336
0.201225
0.208005
0.199751
0.00531995
0.199266
0.0103209
0.198557
0.0151014
0.197629
0.0197404
0.196489
0.0243008
0.195142
0.0288355
0.193591
0.0333908
0.19184
0.0380077
0.18989
0.0427223
0.187742
0.0475672
0.185398
0.0525722
0.182857
0.057765
0.180116
0.0631721
0.177173
0.0688196
0.17402
0.074734
0.170649
0.0809435
0.167042
0.0874796
0.163177
0.0943791
0.159019
0.101687
0.154517
0.10946
0.149596
0.117774
0.144145
0.12673
0.137997
0.136464
0.130892
0.147168
0.122416
0.159112
0.111874
0.17269
0.0980344
0.188499
0.0785565
0.207456
0.0486807
0.231101
0.256686
0.199772
0.00554767
0.19933
0.0107629
0.198684
0.0157479
0.19784
0.0205841
0.196806
0.0253353
0.195586
0.0300552
0.194186
0.034791
0.192609
0.0395841
0.190861
0.0444712
0.188942
0.0494854
0.186858
0.0546568
0.184609
0.0600139
0.182197
0.0655837
0.179624
0.0713936
0.176886
0.0774716
0.173981
0.0838484
0.170902
0.0905589
0.167636
0.0976448
0.164165
0.105158
0.160459
0.113166
0.156475
0.121758
0.152148
0.131057
0.147376
0.141236
0.142002
0.152542
0.135762
0.165352
0.128186
0.180265
0.118335
0.198351
0.103955
0.221837
0.0777273
0.257329
0.334413
0.00425816
-0.00425816
0.00828416
-0.004026
0.0116567
-0.00337257
0.014405
-0.00274829
0.0166383
-0.00223327
0.0184611
-0.00182278
0.0199626
-0.00150156
0.0212183
-0.00125563
0.0222896
-0.00107133
0.0232249
-0.000935261
0.0240595
-0.000834627
0.0248166
-0.000757115
0.0255077
-0.000691067
0.0261343
-0.000626651
0.0266922
-0.000557848
0.0271757
-0.00048359
0.0275812
-0.00040542
0.0279023
-0.000321139
0.0281225
-0.000220206
0.0282158
-9.32925e-05
0.0281594
5.63609e-05
0.0279647
0.00019475
0.0276957
0.000269028
0.0274303
0.000265407
0.027214
0.000216275
0.0270607
0.000153326
0.0269788
8.18526e-05
0.0269881
-9.30676e-06
0.0271105
-0.000122364
-0.000213627
0.00375777
-0.00801593
0.0074057
-0.00767393
0.0105241
-0.00649096
0.0131299
-0.00535407
0.0153202
-0.00442359
0.0171839
-0.00368648
0.018794
-0.00311164
0.0202099
-0.00267155
0.0214794
-0.00234087
0.02264
-0.00209587
0.0237198
-0.00191442
0.0247381
-0.00177533
0.0257053
-0.00165834
0.0266245
-0.00154582
0.0274931
-0.0014265
0.0283082
-0.00129867
0.0290706
-0.00116776
0.0297847
-0.00103524
0.0304498
-0.000885315
0.0310457
-0.000689177
0.0315399
-0.000437896
0.0319214
-0.000186744
0.032227
-3.65442e-05
0.0325184
-2.60421e-05
0.0328312
-9.653e-05
0.0331719
-0.000187375
0.0335323
-0.000278491
0.033898
-0.000375059
0.0342574
-0.000481724
-0.000508581
0.00303001
-0.0110459
0.00589104
-0.010535
0.00829529
-0.0088952
0.0102951
-0.00735392
0.0119781
-0.00610654
0.0134135
-0.00512186
0.0146571
-0.00435527
0.0157531
-0.00376753
0.0167363
-0.00332414
0.0176347
-0.00299426
0.0184697
-0.00274939
0.0192565
-0.00256211
0.0200036
-0.0024055
0.0207129
-0.0022551
0.0213805
-0.0020941
0.0220014
-0.0019196
0.0225761
-0.00174242
0.0231141
-0.0015732
0.0236253
-0.00139658
0.0241038
-0.00116764
0.0245227
-0.000856768
0.0248556
-0.000519639
0.0251115
-0.000292458
0.0253366
-0.000251153
0.0255552
-0.000315137
0.0257646
-0.000396836
0.025951
-0.000464843
0.0261016
-0.000525612
0.0262168
-0.00059697
-0.000628244
0.00224908
-0.013295
0.00419026
-0.0124761
0.00573287
-0.0104378
0.00698755
-0.0086086
0.00802701
-0.007146
0.0088976
-0.00599244
0.00963586
-0.00509353
0.0102695
-0.00440121
0.0108206
-0.00387524
0.0113071
-0.00348071
0.0117435
-0.0031858
0.0121413
-0.00295993
0.0125084
-0.0027726
0.0128477
-0.00259439
0.013156
-0.00240236
0.0134242
-0.00218784
0.0136446
-0.00196281
0.0138236
-0.0017522
0.0139848
-0.00155773
0.0141506
-0.00133346
0.0142886
-0.000994725
0.0142718
-0.00050284
0.0139945
-1.5222e-05
0.0135328
0.000210603
0.0130433
0.00017436
0.0125708
7.56565e-05
0.0121266
-2.06964e-05
0.0117254
-0.000124358
0.0114276
-0.000299213
-0.00057462
0.00135897
-0.014654
0.00228205
-0.0133992
0.00288881
-0.0110446
0.00331103
-0.00903082
0.00360892
-0.00744389
0.00380657
-0.00619009
0.00392386
-0.00521082
0.00397612
-0.00445347
0.00397585
-0.00387498
0.00393319
-0.00343805
0.003857
-0.0031096
0.00375549
-0.00285842
0.00363624
-0.00265336
0.00350575
-0.0024639
0.00336685
-0.00226346
0.00321362
-0.00203461
0.00302461
-0.0017738
0.00276113
-0.00148872
0.00239321
-0.00118982
0.00191953
-0.000859779
0.00139282
-0.000468015
0.000919453
-2.94766e-05
0.000588748
0.000315482
0.000333683
0.000465667
8.34402e-05
0.000424604
-8.97847e-05
0.000248882
-0.000197982
8.75009e-05
-0.000255613
-6.67272e-05
-0.00030888
-0.000245945
-0.000533676
0.000331472
-0.0149855
0.000177692
-0.0132454
-0.000212612
-0.0106543
-0.00065486
-0.00858857
-0.00117285
-0.0069259
-0.0017325
-0.00563044
-0.0023181
-0.00462522
-0.00291642
-0.00385515
-0.003519
-0.0032724
-0.0041202
-0.00283684
-0.00471521
-0.0025146
-0.00529868
-0.00227495
-0.0058646
-0.00208743
-0.00640617
-0.00192233
-0.00691527
-0.00175436
-0.00738305
-0.00156683
-0.00780331
-0.00135354
-0.00817594
-0.00111609
-0.00850941
-0.000856346
-0.0088046
-0.000564589
-0.0090431
-0.000229515
-0.00918361
0.000111036
-0.00926424
0.000396117
-0.00934307
0.000544494
-0.0094426
0.000524137
-0.00957691
0.000383192
-0.00970923
0.000219817
-0.00983475
5.87899e-05
-0.00991923
-0.000161464
-0.000462025
-0.000774299
-0.0142112
-0.00204248
-0.0119773
-0.00340469
-0.00929207
-0.00479618
-0.00719708
-0.00615404
-0.00556805
-0.00745206
-0.00433242
-0.00866983
-0.00340744
-0.0097962
-0.00272878
-0.010825
-0.00224357
-0.0117559
-0.00190594
-0.0125936
-0.00167689
-0.0133456
-0.00152299
-0.0140198
-0.00141324
-0.0146232
-0.00131899
-0.0151598
-0.00121776
-0.0156306
-0.00109595
-0.0160356
-0.00094854
-0.0163766
-0.000775085
-0.0166597
-0.000573265
-0.0168879
-0.000336422
-0.0170646
-5.27779e-05
-0.0171763
0.000222743
-0.0172411
0.000460875
-0.0172983
0.000601752
-0.0173812
0.000606975
-0.0175042
0.000506208
-0.0176478
0.000363431
-0.0177797
0.000190658
-0.0178882
-5.29072e-05
-0.000326045
-0.00196553
-0.0122456
-0.00432543
-0.00961736
-0.00668015
-0.00693735
-0.00892567
-0.00495156
-0.010984
-0.00350977
-0.0128233
-0.00249307
-0.014438
-0.00179278
-0.0158417
-0.00132506
-0.0170567
-0.0010286
-0.0181083
-0.000854308
-0.0190217
-0.000763464
-0.0198188
-0.000725954
-0.0205169
-0.000715054
-0.0211306
-0.000705349
-0.0216702
-0.000678179
-0.0221417
-0.00062444
-0.0225479
-0.000542332
-0.0228909
-0.000432052
-0.0231749
-0.000289235
-0.0234057
-0.000105693
-0.0235719
0.000113496
-0.023691
0.000341808
-0.02378
0.000549821
-0.0238604
0.000682185
-0.0239584
0.000705
-0.0240852
0.000633001
-0.0242276
0.000505833
-0.0243691
0.000332187
-0.0245151
9.30401e-05
-0.000141022
-0.00326918
-0.00897644
-0.00675789
-0.00612865
-0.010045
-0.00365022
-0.0130037
-0.00199285
-0.015578
-0.000935443
-0.0177747
-0.000296455
-0.0196167
4.92204e-05
-0.0211382
0.000196501
-0.022393
0.000226233
-0.0234423
0.000194963
-0.0243375
0.000131694
-0.0251164
5.29604e-05
-0.0258032
-2.82758e-05
-0.0264102
-9.83555e-05
-0.0269463
-0.000142031
-0.0274199
-0.00015081
-0.027835
-0.000127234
-0.0281918
-7.52421e-05
-0.0284883
7.24321e-06
-0.0287214
0.000127425
-0.0288987
0.000290726
-0.0290417
0.000484827
-0.029163
0.000671168
-0.0292787
0.000797841
-0.0294056
0.000831939
-0.0295512
0.000778612
-0.0297095
0.0006641
-0.0298735
0.000496175
-0.03005
0.000269494
6.68376e-05
-0.00485192
-0.00412453
-0.00986993
-0.00111064
-0.0141581
0.000637989
-0.0176493
0.00149833
-0.0204291
0.00184431
-0.0226319
0.00190637
-0.0243941
0.00181137
-0.0258311
0.00163359
-0.0270245
0.00141955
-0.0280273
0.00119781
-0.0288812
0.000985546
-0.0296157
0.000787478
-0.0302527
0.000608729
-0.0308134
0.000462313
-0.0313158
0.000360458
-0.0317694
0.00030279
-0.0321744
0.000277689
-0.0325244
0.000274828
-0.0328153
0.000298127
-0.0330531
0.000365181
-0.0332512
0.000488864
-0.0334239
0.000657477
-0.0335837
0.000830974
-0.0337426
0.000956732
-0.0339092
0.000998557
-0.0340854
0.000954865
-0.0342681
0.000846759
-0.0344586
0.000686644
-0.0346707
0.000481637
0.000306975
-0.00667348
0.00254895
-0.0124776
0.00469353
-0.0170159
0.00517626
-0.0206007
0.00508316
-0.0234652
0.00470881
-0.0257582
0.00419931
-0.0276043
0.00365748
-0.0291019
0.00313124
-0.0303276
0.00264518
-0.0313487
0.00221892
-0.0322196
0.00185646
-0.0329748
0.00154268
-0.0336328
0.00126675
-0.0342089
0.00103837
-0.0347215
0.000873137
-0.035187
0.000768242
-0.0356093
0.00069995
-0.0359806
0.000646201
-0.0362933
0.000610834
-0.0365511
0.000622907
-0.0367704
0.00070823
-0.0369723
0.000859326
-0.0371725
0.00103121
-0.0373789
0.00116317
-0.0375917
0.00121127
-0.0378058
0.00116898
-0.038018
0.00105898
-0.0382344
0.000903048
-0.0384701
0.000717301
0.000569479
-0.0077777
0.0103266
-0.0142807
0.0111966
-0.0193738
0.0102693
-0.0232843
0.00899368
-0.0262822
0.00770674
-0.0286017
0.00651877
-0.0304292
0.00548498
-0.0318949
0.00459701
-0.0330835
0.00383373
-0.034069
0.00320439
-0.0349172
0.00270468
-0.0356644
0.00228991
-0.0363198
0.00192211
-0.0368924
0.00161098
-0.0374056
0.00138638
-0.0378836
0.00124621
-0.0383308
0.00114715
-0.0387306
0.00104603
-0.0390651
0.000945358
-0.0393367
0.000894428
-0.0395704
0.00094194
-0.0397973
0.0010862
-0.0400367
0.00127066
-0.0402911
0.0014176
-0.04055
0.00147016
-0.0407994
0.00141836
-0.0410343
0.00129386
-0.0412663
0.00113506
-0.041516
0.000967014
0.000846627
-0.00928245
0.0196091
-0.0169386
0.0188527
-0.0224026
0.0157333
-0.0262978
0.0128888
-0.0291723
0.0105812
-0.0313232
0.00866971
-0.0329875
0.00714924
-0.0343245
0.00593408
-0.0354034
0.00491265
-0.0362929
0.00409383
-0.0370775
0.00348934
-0.0377972
0.00300954
-0.0384379
0.00256288
-0.0389916
0.00216464
-0.039489
0.00188379
-0.0399705
0.00172771
-0.0404428
0.0016194
-0.0408736
0.00147686
-0.0412266
0.0012984
-0.0415007
0.00116847
-0.0417352
0.00117644
-0.0419776
0.00132865
-0.0422526
0.00154557
-0.0425551
0.00172012
-0.0428613
0.00177638
-0.0431453
0.00170239
-0.043399
0.00154752
-0.0436408
0.00137687
-0.0438992
0.00122545
0.00113309
-0.0120422
0.0316513
-0.0211693
0.0279799
-0.0265239
0.0210879
-0.0298225
0.0161874
-0.0322497
0.0130084
-0.0339964
0.0104164
-0.0353178
0.00847065
-0.0364299
0.00704617
-0.0373396
0.00582236
-0.0380707
0.00482487
-0.0387497
0.00416832
-0.0394344
0.00369425
-0.0400598
0.00318831
-0.0405773
0.00268218
-0.0410336
0.00234001
-0.0415047
0.00219882
-0.0420043
0.00211904
-0.0424731
0.00194564
-0.0428411
0.00166638
-0.0430994
0.00142676
-0.0433126
0.0013897
-0.043557
0.00157304
-0.0438644
0.00185295
-0.0442185
0.00207422
-0.0445768
0.0021347
-0.0448968
0.00202237
-0.0451644
0.00181514
-0.0454079
0.00162034
-0.0456685
0.00148602
0.00142262
-0.0169333
0.0485845
-0.0278952
0.0389418
-0.0323932
0.0255859
-0.0338852
0.0176795
-0.0355204
0.0146436
-0.0365982
0.0114943
-0.0373438
0.00921625
-0.0381831
0.00788548
-0.0389387
0.0065779
-0.0394411
0.00532726
-0.0399452
0.00467244
-0.040598
0.00434705
-0.0412237
0.00381399
-0.0416851
0.00314356
-0.0420591
0.00271402
-0.0425009
0.00264067
-0.0430412
0.0026593
-0.0435692
0.00247367
-0.0439547
0.00205184
-0.0441717
0.00164376
-0.0443317
0.00154973
-0.0445619
0.00180324
-0.044903
0.00219401
-0.0453182
0.00248943
-0.0457382
0.00255472
-0.0460972
0.00238141
-0.0463715
0.0020894
-0.0466038
0.00185261
-0.0468585
0.00174074
0.0017088
0.207447
0.00576046
0.207034
0.0111755
0.206432
0.0163505
0.205647
0.0213686
0.204688
0.0262946
0.20356
0.0311828
0.202271
0.0360806
0.200825
0.0410299
0.199228
0.0460676
0.197487
0.0512268
0.195606
0.0565378
0.193591
0.0620288
0.191447
0.0677273
0.18918
0.0736606
0.186795
0.0798572
0.184295
0.0863485
0.181683
0.0931703
0.178962
0.100366
0.176132
0.107988
0.173191
0.116107
0.170134
0.124814
0.166958
0.134233
0.163658
0.144536
0.160235
0.155965
0.156714
0.168874
0.153188
0.183791
0.150025
0.201513
0.148909
0.222953
0.160651
0.245586
0.258699
0.236364
0.21249
0.00595291
0.212117
0.0115484
0.211574
0.0168942
0.210868
0.0220746
0.210007
0.0271552
0.209
0.0321904
0.207852
0.0372279
0.206573
0.0423093
0.205169
0.0474714
0.203649
0.0527471
0.202021
0.058166
0.200294
0.0637559
0.198477
0.0695435
0.196583
0.0755554
0.194621
0.081819
0.192605
0.0883644
0.19055
0.0952257
0.188472
0.102443
0.186394
0.110066
0.184344
0.118158
0.182362
0.126796
0.180509
0.136086
0.178885
0.14616
0.177662
0.157188
0.177162
0.169374
0.17804
0.182914
0.181714
0.197839
0.190793
0.213875
0.206285
0.230094
0.245566
0.219418
0.217658
0.00612288
0.217329
0.0118775
0.21685
0.0173729
0.21623
0.0226944
0.215477
0.0279077
0.214601
0.0330672
0.213608
0.0382202
0.212509
0.0434081
0.211314
0.048667
0.210032
0.0540288
0.208676
0.0595224
0.207257
0.0651743
0.205791
0.0710095
0.204294
0.0770527
0.202784
0.0833291
0.201283
0.0898655
0.199817
0.0966914
0.198419
0.103841
0.197131
0.111354
0.196009
0.11928
0.195131
0.127674
0.194611
0.136606
0.194618
0.146153
0.195416
0.15639
0.197417
0.167374
0.20123
0.1791
0.207626
0.191443
0.217264
0.204237
0.229858
0.2175
0.228653
0.246771
0.222951
0.00626837
0.22267
0.0121588
0.222262
0.0177812
0.221735
0.0232209
0.221099
0.0285434
0.220364
0.0338029
0.219538
0.0390461
0.218633
0.0443134
0.21766
0.0496399
0.216632
0.0550565
0.215564
0.0605902
0.214473
0.0662657
0.213376
0.0721059
0.212297
0.0781325
0.211259
0.0843669
0.210293
0.090831
0.209437
0.097548
0.208735
0.104543
0.208246
0.111843
0.208047
0.119479
0.208241
0.127481
0.208967
0.13588
0.210419
0.1447
0.212861
0.153948
0.216638
0.163596
0.22217
0.173568
0.229904
0.183708
0.240411
0.19373
0.254606
0.203305
0.210178
0.273081
0.228374
0.00638752
0.228144
0.0123889
0.227811
0.0181138
0.227385
0.0236473
0.226874
0.0290544
0.226289
0.0343883
0.22564
0.0396949
0.22494
0.0450134
0.224202
0.0503776
0.223442
0.0558164
0.222677
0.0613551
0.221927
0.0670158
0.221215
0.0728184
0.220566
0.0787808
0.220014
0.0849198
0.219593
0.0912514
0.21935
0.0977907
0.219341
0.104552
0.219634
0.11155
0.220317
0.118795
0.221505
0.126294
0.22334
0.134045
0.226009
0.142032
0.229741
0.150216
0.234816
0.158521
0.241563
0.166821
0.250359
0.174912
0.26165
0.18244
0.275906
0.189048
0.193654
0.292431
0.233929
0.00647866
0.233754
0.0125645
0.233501
0.0183662
0.233181
0.0239678
0.232802
0.0294334
0.232375
0.0348151
0.231913
0.0401575
0.231428
0.0454983
0.230936
0.0508694
0.230454
0.0562979
0.230003
0.0618064
0.229605
0.0674142
0.229285
0.0731377
0.229076
0.0789905
0.229011
0.0849842
0.229134
0.0911281
0.229496
0.0974291
0.230157
0.103891
0.231192
0.110515
0.232693
0.117295
0.23477
0.124216
0.23756
0.131255
0.241226
0.138366
0.245962
0.145481
0.251985
0.152497
0.259539
0.159268
0.268864
0.165587
0.280139
0.171165
0.293458
0.17573
0.17877
0.308341
0.23962
0.00654029
0.239502
0.0126827
0.239334
0.0185341
0.239124
0.024177
0.238883
0.0296743
0.238622
0.0350764
0.238353
0.0404264
0.238091
0.0457602
0.237853
0.0511076
0.237658
0.0564932
0.237527
0.0619371
0.237486
0.0674553
0.237563
0.0730604
0.237792
0.0787616
0.238212
0.0845649
0.238867
0.090473
0.239811
0.0964851
0.241107
0.102596
0.242828
0.108793
0.245064
0.115059
0.247917
0.121364
0.251505
0.127666
0.255965
0.133906
0.261445
0.14
0.268103
0.14584
0.276086
0.151284
0.285515
0.156158
0.296434
0.160246
0.308831
0.163333
0.165153
0.322448
0.245448
0.00657114
0.24539
0.0127411
0.24531
0.0186141
0.245216
0.0242708
0.245118
0.0297721
0.245028
0.0351668
0.244958
0.0404959
0.244925
0.0457934
0.244946
0.0510867
0.245041
0.0563979
0.245234
0.0617442
0.245551
0.0671383
0.246023
0.0725888
0.246684
0.0781006
0.247574
0.0836745
0.24874
0.0893073
0.250234
0.0949909
0.252118
0.100712
0.254461
0.10645
0.257343
0.112177
0.260853
0.117854
0.265089
0.12343
0.270157
0.128838
0.276161
0.133996
0.283202
0.138799
0.291361
0.143126
0.300684
0.146835
0.311159
0.14977
0.32272
0.151772
0.15271
0.335162
0.251418
0.0065702
0.251421
0.0127377
0.251432
0.0186036
0.251457
0.0242458
0.251506
0.0297231
0.251591
0.0350823
0.251724
0.0403623
0.251923
0.0455946
0.252205
0.0508044
0.252592
0.056011
0.253108
0.0612287
0.253779
0.0664669
0.254637
0.0717307
0.255717
0.0770207
0.257059
0.0823332
0.258706
0.0876597
0.26071
0.0929866
0.263128
0.0982945
0.266021
0.103557
0.269458
0.10874
0.273512
0.1138
0.278259
0.118682
0.283775
0.123323
0.290128
0.127643
0.297375
0.131552
0.305549
0.134951
0.314653
0.137732
0.32464
0.139783
0.335411
0.141001
0.141326
0.346796
0.257532
0.00653672
0.257599
0.0126711
0.257702
0.0185005
0.257848
0.0240996
0.258046
0.0295248
0.258308
0.0348207
0.258647
0.0400237
0.259078
0.0451629
0.259622
0.050261
0.260298
0.0553348
0.261131
0.0603956
0.262148
0.0654497
0.26338
0.0704989
0.26486
0.0755403
0.266627
0.0805664
0.268722
0.0855646
0.271191
0.0905173
0.274085
0.0954011
0.277456
0.100186
0.281359
0.104836
0.285853
0.109306
0.290991
0.113544
0.296823
0.11749
0.30339
0.121076
0.310715
0.124228
0.3188
0.126866
0.327617
0.128914
0.337104
0.130297
0.347155
0.13095
0.130853
0.357628
0.263794
0.00647023
0.263925
0.0125405
0.264121
0.0183037
0.26439
0.0238311
0.264738
0.0291764
0.265178
0.0343815
0.265721
0.0394804
0.266384
0.0444998
0.267185
0.0494599
0.268145
0.0543748
0.269287
0.0592533
0.270638
0.0640989
0.272227
0.0689106
0.274084
0.0736826
0.276246
0.0784043
0.27875
0.0830606
0.281636
0.0876313
0.284947
0.0920908
0.288724
0.0964085
0.293012
0.100548
0.297852
0.104467
0.303279
0.108117
0.309323
0.111447
0.316
0.114399
0.323312
0.116916
0.33124
0.118938
0.339741
0.120413
0.348746
0.121292
0.358155
0.121541
0.121158
0.36785
0.270207
0.00637054
0.270402
0.0123455
0.270692
0.018013
0.271083
0.0234403
0.271582
0.0286781
0.272197
0.0337657
0.272943
0.0387347
0.273834
0.0436091
0.274887
0.0484068
0.276122
0.0531396
0.277562
0.0578137
0.27923
0.0624304
0.281154
0.0669865
0.283363
0.0714738
0.285887
0.0758801
0.28876
0.0801884
0.292013
0.0843774
0.295683
0.0884215
0.299801
0.0922905
0.304399
0.0959501
0.309503
0.0993621
0.315135
0.102485
0.321306
0.105275
0.328018
0.107688
0.335255
0.109678
0.342988
0.111206
0.351166
0.112235
0.35972
0.112738
0.368561
0.112699
0.112129
0.37759
0.276774
0.00623777
0.277033
0.0120865
0.277417
0.0176288
0.277929
0.022928
0.278576
0.0280316
0.279365
0.0329763
0.280309
0.0377907
0.281421
0.0424969
0.282718
0.0471102
0.284217
0.0516402
0.28594
0.0560912
0.287907
0.0604628
0.290144
0.0647498
0.292675
0.0689428
0.295527
0.0730284
0.298726
0.0769891
0.302299
0.0808039
0.306273
0.0844479
0.31067
0.0878931
0.315512
0.0911088
0.320812
0.0940618
0.32658
0.0967174
0.332814
0.0990405
0.339505
0.100997
0.346628
0.102555
0.354145
0.103688
0.362007
0.104373
0.370147
0.104598
0.378488
0.104359
0.103672
0.386945
0.283498
0.00607228
0.28382
0.0117641
0.284297
0.0171524
0.284928
0.0222964
0.28572
0.02724
0.286679
0.0320173
0.287815
0.0366544
0.289141
0.0411709
0.290671
0.0455802
0.292422
0.0498899
0.29441
0.0541027
0.296656
0.0582167
0.29918
0.0622256
0.302004
0.0661195
0.305148
0.0698845
0.308633
0.0735036
0.31248
0.0769566
0.316707
0.0802209
0.321329
0.0832713
0.326357
0.0860812
0.331796
0.088623
0.337644
0.0908687
0.343893
0.0927915
0.350524
0.0943665
0.357507
0.0955721
0.364803
0.0963915
0.372363
0.0968138
0.380126
0.0968352
0.388026
0.096459
0.0957059
0.395992
0.290384
0.00587473
0.290768
0.0113797
0.291335
0.016586
0.292083
0.0215483
0.293015
0.0263075
0.294138
0.0308945
0.295459
0.0353332
0.29699
0.0396408
0.298741
0.0438289
0.300727
0.0479036
0.302964
0.0518662
0.305466
0.0557139
0.308252
0.05944
0.311337
0.0630341
0.314739
0.0664829
0.318472
0.0697705
0.32255
0.0728784
0.326985
0.0757864
0.331783
0.078473
0.336948
0.0809159
0.342479
0.0830927
0.348365
0.0849821
0.354593
0.0865643
0.361137
0.0878221
0.367967
0.0887421
0.375043
0.0893152
0.382319
0.0895381
0.389741
0.089413
0.397252
0.0889483
0.0881651
0.404793
0.297435
0.00564596
0.297879
0.010935
0.298533
0.0159321
0.299394
0.0206877
0.300462
0.0252391
0.301742
0.0296146
0.30324
0.0338355
0.304963
0.0379172
0.306923
0.0418696
0.309129
0.0456973
0.311594
0.049401
0.314331
0.0529771
0.317352
0.0564187
0.32067
0.0597161
0.324296
0.0628567
0.328241
0.0658261
0.332511
0.068608
0.337113
0.0711851
0.342046
0.0735394
0.347309
0.075653
0.352893
0.0775087
0.358785
0.0790905
0.364964
0.0803847
0.371406
0.0813806
0.378077
0.0820707
0.38494
0.082452
0.391953
0.0825258
0.399067
0.0822985
0.406234
0.081781
0.080994
0.413405
0.304654
0.00538705
0.305157
0.010432
0.305895
0.0151941
0.306864
0.019719
0.308062
0.0240408
0.309491
0.0281851
0.311156
0.032171
0.313061
0.0360119
0.315215
0.0397162
0.317624
0.0432878
0.320299
0.0467264
0.323247
0.0500285
0.326479
0.0531873
0.330001
0.0561937
0.333821
0.0590367
0.337944
0.0617034
0.342372
0.06418
0.347105
0.0664521
0.352139
0.0685052
0.357467
0.0703255
0.363075
0.0719001
0.368948
0.0732181
0.375062
0.0742705
0.381391
0.0750514
0.387904
0.075558
0.394565
0.0757914
0.401334
0.0757561
0.408172
0.0754608
0.415035
0.0749175
0.074146
0.421884
0.312046
0.00509921
0.312605
0.00987325
0.313423
0.0143754
0.314495
0.0186472
0.315817
0.0227191
0.317388
0.0266143
0.319209
0.0303497
0.321284
0.033937
0.323617
0.0373833
0.326213
0.0406918
0.329077
0.0438618
0.332216
0.0468897
0.335634
0.0497696
0.339335
0.0524931
0.34332
0.0550507
0.347592
0.0574315
0.352148
0.0596241
0.356983
0.0616169
0.36209
0.0633986
0.367456
0.0649591
0.373067
0.0662892
0.378903
0.067382
0.384942
0.0682323
0.391155
0.068838
0.397513
0.0691996
0.403984
0.0693207
0.410532
0.069208
0.417121
0.0688713
0.423716
0.0683229
0.0675808
0.430281
0.319615
0.00478375
0.320227
0.00926127
0.321122
0.0134802
0.322292
0.0174776
0.32373
0.0212811
0.325433
0.0249109
0.327401
0.028382
0.329633
0.0317048
0.332131
0.0348852
0.334897
0.0379256
0.337934
0.0408254
0.341242
0.0435813
0.344824
0.0461878
0.348679
0.048638
0.352806
0.0509237
0.357202
0.0530359
0.36186
0.0549655
0.366773
0.0567037
0.37193
0.0582421
0.377316
0.0595733
0.382913
0.0606917
0.388702
0.0615931
0.394659
0.0622756
0.400757
0.0627396
0.406969
0.0629878
0.413264
0.0630256
0.419612
0.0628608
0.425979
0.0625034
0.432337
0.0619655
0.0612635
0.438654
0.327365
0.00444204
0.328028
0.00859875
0.328995
0.0125124
0.330257
0.0162159
0.331805
0.0197336
0.333632
0.0230834
0.335736
0.0262784
0.338113
0.0293275
0.340763
0.0322356
0.343683
0.0350049
0.346874
0.0376346
0.350333
0.0401219
0.354059
0.042462
0.358048
0.0446492
0.362295
0.0466767
0.366793
0.0485376
0.371534
0.0502248
0.376506
0.0517317
0.381696
0.0530523