/*--------------------------------*- C++ -*----------------------------------*\
  =========                 |
  \\      /  F ield         | OpenFOAM: The Open Source CFD Toolbox
   \\    /   O peration     | Website:  https://openfoam.org
    \\  /    A nd           | Version:  7
     \\/     M anipulation  |
\*---------------------------------------------------------------------------*/
FoamFile
{
    version     2.0;
    format      ascii;
    class       volVectorField;
    location    "3.7";
    object      U;
}
// * * * * * * * * * * * * * * * * * * * * * * * * * * * * * * * * * * * * * //

dimensions      [0 1 -1 0 0 0 0];

internalField   nonuniform List<vector> 
2790
(
(9.94399 0.0205233 0)
(9.87572 0.0295878 0)
(9.77521 0.0359897 0)
(9.64943 0.0425563 0)
(9.50409 0.0493855 0)
(9.34007 0.0564283 0)
(9.15654 0.0638157 0)
(8.95263 0.0717113 0)
(8.72747 0.0802547 0)
(8.48009 0.0895727 0)
(8.20928 0.0997925 0)
(7.91366 0.111044 0)
(7.59171 0.123459 0)
(7.24181 0.137163 0)
(6.86237 0.152271 0)
(6.45184 0.168869 0)
(6.00894 0.186996 0)
(5.53275 0.206618 0)
(5.02304 0.22759 0)
(4.48053 0.249611 0)
(3.90725 0.272177 0)
(3.30693 0.294527 0)
(2.68539 0.315622 0)
(2.05073 0.334292 0)
(1.41191 0.35061 0)
(0.798132 0.372887 0)
(0.11085 0.325113 0)
(-0.469552 -0.114833 0)
(-0.453761 -0.297169 0)
(-0.23116 -0.423862 0)
(9.9985 0.0407033 0)
(9.98145 0.0623832 0)
(9.93574 0.0791406 0)
(9.86416 0.0966251 0)
(9.77097 0.115124 0)
(9.65715 0.134488 0)
(9.52206 0.154974 0)
(9.36485 0.176942 0)
(9.18472 0.200706 0)
(8.98068 0.226547 0)
(8.75154 0.254741 0)
(8.4959 0.285556 0)
(8.21223 0.319245 0)
(7.89886 0.356018 0)
(7.55408 0.396014 0)
(7.17625 0.439257 0)
(6.76385 0.485587 0)
(6.31574 0.534582 0)
(5.83134 0.585457 0)
(5.31098 0.636951 0)
(4.75626 0.687202 0)
(4.17053 0.733647 0)
(3.55942 0.772957 0)
(2.93168 0.801101 0)
(2.30007 0.813762 0)
(1.69306 0.807271 0)
(1.10726 0.747287 0)
(0.658963 0.547973 0)
(0.186558 0.224678 0)
(-0.00819927 -0.453702 0)
(9.99559 0.0432074 0)
(9.97556 0.0752724 0)
(9.9318 0.103347 0)
(9.86489 0.132372 0)
(9.77778 0.16306 0)
(9.67155 0.195398 0)
(9.54588 0.229741 0)
(9.40014 0.2666 0)
(9.23366 0.306467 0)
(9.04564 0.349802 0)
(8.8351 0.397065 0)
(8.60083 0.448714 0)
(8.34147 0.505182 0)
(8.05553 0.566852 0)
(7.74142 0.633998 0)
(7.39749 0.706716 0)
(7.02217 0.784821 0)
(6.61403 0.867708 0)
(6.17202 0.954179 0)
(5.69573 1.04224 0)
(5.18574 1.12887 0)
(4.64408 1.20978 0)
(4.07492 1.27916 0)
(3.4855 1.32934 0)
(2.88697 1.35011 0)
(2.29958 1.32646 0)
(1.73194 1.22083 0)
(1.21633 0.97307 0)
(0.701199 0.570221 0)
(0.358074 -0.156456 0)
(9.99403 0.0494998 0)
(9.97181 0.0932073 0)
(9.92788 0.133573 0)
(9.86224 0.17421 0)
(9.77693 0.216434 0)
(9.67298 0.260661 0)
(9.55031 0.307428 0)
(9.40849 0.357412 0)
(9.24702 0.411286 0)
(9.06534 0.469698 0)
(8.86269 0.533292 0)
(8.63821 0.602711 0)
(8.39087 0.678577 0)
(8.11955 0.761456 0)
(7.82303 0.851799 0)
(7.50005 0.949851 0)
(7.1493 1.05552 0)
(6.76951 1.16821 0)
(6.35957 1.28658 0)
(5.91869 1.40824 0)
(5.44663 1.52945 0)
(4.94411 1.64467 0)
(4.41329 1.74614 0)
(3.85839 1.82323 0)
(3.28594 1.86139 0)
(2.70652 1.84037 0)
(2.12575 1.72607 0)
(1.55434 1.47795 0)
(0.957999 1.0838 0)
(0.509443 0.502433 0)
(9.99331 0.0572144 0)
(9.96994 0.11096 0)
(9.92593 0.162106 0)
(9.86145 0.213349 0)
(9.77798 0.266358 0)
(9.67635 0.321914 0)
(9.55654 0.3807 0)
(9.41821 0.443485 0)
(9.26097 0.51105 0)
(9.08433 0.584161 0)
(8.88771 0.663575 0)
(8.67039 0.750047 0)
(8.4316 0.844314 0)
(8.17048 0.947059 0)
(7.88611 1.05885 0)
(7.57752 1.18004 0)
(7.24371 1.31065 0)
(6.88367 1.45014 0)
(6.49636 1.59718 0)
(6.08082 1.74929 0)
(5.63626 1.90238 0)
(5.16223 2.05029 0)
(4.6589 2.18416 0)
(4.12734 2.29175 0)
(3.56953 2.35659 0)
(2.98901 2.35737 0)
(2.38694 2.26504 0)
(1.76647 2.04776 0)
(1.09004 1.69154 0)
(0.536675 1.15429 0)
(9.99302 0.0655397 0)
(9.96923 0.128703 0)
(9.92556 0.190116 0)
(9.86253 0.251845 0)
(9.78128 0.31558 0)
(9.68244 0.382319 0)
(9.566 0.452873 0)
(9.43171 0.528097 0)
(9.2792 0.608873 0)
(9.10806 0.696074 0)
(8.91777 0.790564 0)
(8.70774 0.893204 0)
(8.47729 1.00483 0)
(8.22569 1.12623 0)
(7.95217 1.25805 0)
(7.65592 1.40077 0)
(7.33607 1.5545 0)
(6.9917 1.71881 0)
(6.62176 1.8925 0)
(6.22509 2.07317 0)
(5.80038 2.2568 0)
(5.34616 2.43717 0)
(4.86084 2.60518 0)
(4.34283 2.74822 0)
(3.79053 2.84958 0)
(3.20271 2.88826 0)
(2.57669 2.83833 0)
(1.91356 2.67175 0)
(1.17281 2.37417 0)
(0.549995 1.89458 0)
(9.99297 0.0740761 0)
(9.96926 0.146316 0)
(9.92637 0.217486 0)
(9.86508 0.289295 0)
(9.78642 0.363357 0)
(9.69084 0.440828 0)
(9.57834 0.522659 0)
(9.44871 0.609807 0)
(9.30164 0.703247 0)
(9.13677 0.803953 0)
(8.95364 0.912883 0)
(8.7517 1.03099 0)
(8.53034 1.15919 0)
(8.28889 1.29836 0)
(8.02661 1.44926 0)
(7.74272 1.61243 0)
(7.43634 1.78813 0)
(7.10646 1.9761 0)
(6.75187 2.17534 0)
(6.37109 2.38375 0)
(5.96221 2.59768 0)
(5.52276 2.81133 0)
(5.04966 3.01612 0)
(4.53915 3.19996 0)
(3.98681 3.34671 0)
(3.38806 3.43604 0)
(2.73739 3.44343 0)
(2.03635 3.34166 0)
(1.24182 3.11378 0)
(0.563547 2.69337 0)
(9.99306 0.0825896 0)
(9.96981 0.163609 0)
(9.92807 0.244053 0)
(9.86884 0.325483 0)
(9.79312 0.409449 0)
(9.70125 0.497207 0)
(9.59322 0.589838 0)
(9.46887 0.688392 0)
(9.32795 0.793931 0)
(9.17013 0.907516 0)
(8.99502 1.0302 0)
(8.8021 1.16301 0)
(8.59081 1.30697 0)
(8.36051 1.46305 0)
(8.11046 1.6321 0)
(7.83983 1.81481 0)
(7.54764 2.0116 0)
(7.23272 2.22244 0)
(6.89357 2.44666 0)
(6.52825 2.68261 0)
(6.1342 2.92728 0)
(5.70798 3.17571 0)
(5.24512 3.42032 0)
(4.73995 3.65018 0)
(4.18566 3.85026 0)
(3.57493 4.00097 0)
(2.89968 4.07804 0)
(2.16224 4.05257 0)
(1.31621 3.90194 0)
(0.58326 3.54043 0)
(9.99326 0.0909301 0)
(9.97072 0.180412 0)
(9.93046 0.269672 0)
(9.87362 0.360246 0)
(9.80117 0.45365 0)
(9.71343 0.551211 0)
(9.61037 0.654111 0)
(9.49187 0.763492 0)
(9.35775 0.880496 0)
(9.20772 1.00627 0)
(9.04144 1.14194 0)
(8.85847 1.28864 0)
(8.65827 1.44748 0)
(8.44021 1.61954 0)
(8.20358 1.80581 0)
(7.94747 2.00714 0)
(7.67081 2.22417 0)
(7.37221 2.45719 0)
(7.04986 2.70596 0)
(6.70136 2.96947 0)
(6.32346 3.24557 0)
(5.91179 3.53045 0)
(5.46053 3.818 0)
(4.9622 4.09896 0)
(4.40762 4.35988 0)
(3.78661 4.58218 0)
(3.08777 4.74123 0)
(2.31288 4.80469 0)
(1.41076 4.74138 0)
(0.614361 4.44227 0)
(9.99352 0.0989944 0)
(9.9719 0.196583 0)
(9.9334 0.2942 0)
(9.87924 0.393422 0)
(9.81039 0.49576 0)
(9.72716 0.602591 0)
(9.62952 0.715183 0)
(9.5174 0.834758 0)
(9.39067 0.962536 0)
(9.24911 1.09973 0)
(9.09244 1.24757 0)
(8.92026 1.40726 0)
(8.73212 1.58003 0)
(8.52741 1.76705 0)
(8.30543 1.96949 0)
(8.06526 2.18841 0)
(7.80575 2.4247 0)
(7.52533 2.67907 0)
(7.22197 2.95181 0)
(6.89285 3.24271 0)
(6.53414 3.55068 0)
(6.14062 3.87339 0)
(5.70523 4.20662 0)
(5.21869 4.54333 0)
(4.66923 4.87243 0)
(4.04312 5.17704 0)
(3.32394 5.43247 0)
(2.50999 5.60223 0)
(1.54202 5.64386 0)
(0.664128 5.41847 0)
(9.99384 0.106707 0)
(9.9733 0.212005 0)
(9.93679 0.317508 0)
(9.88557 0.424862 0)
(9.82063 0.535594 0)
(9.74224 0.651125 0)
(9.65043 0.772789 0)
(9.54516 0.901882 0)
(9.42636 1.03969 0)
(9.29388 1.1875 0)
(9.1475 1.34661 0)
(8.98692 1.51832 0)
(8.81173 1.70395 0)
(8.62141 1.90482 0)
(8.4153 2.12224 0)
(8.19252 2.35751 0)
(7.95189 2.61187 0)
(7.69181 2.88643 0)
(7.41009 3.18216 0)
(7.10371 3.49973 0)
(6.76845 3.83933 0)
(6.39848 4.20041 0)
(5.98575 4.58106 0)
(5.51932 4.97724 0)
(4.98466 5.38129 0)
(4.36358 5.77961 0)
(3.63222 6.14931 0)
(2.78042 6.45098 0)
(1.73367 6.62897 0)
(0.744937 6.50366 0)
(9.9942 0.114009 0)
(9.97487 0.22658 0)
(9.94055 0.33948 0)
(9.89251 0.454431 0)
(9.83172 0.57299 0)
(9.7585 0.696615 0)
(9.67287 0.826696 0)
(9.57486 0.964591 0)
(9.46446 1.11164 0)
(9.3416 1.2692 0)
(9.20613 1.43863 0)
(9.05784 1.6213 0)
(8.89641 1.81864 0)
(8.72144 2.0321 0)
(8.53235 2.26316 0)
(8.32835 2.51335 0)
(8.10834 2.78424 0)
(7.87082 3.07743 0)
(7.61364 3.39458 0)
(7.33379 3.73733 0)
(7.02701 4.10728 0)
(6.68728 4.50585 0)
(6.30608 4.93395 0)
(5.87133 5.39131 0)
(5.36609 5.87528 0)
(4.76727 6.37826 0)
(4.04113 6.88338 0)
(3.16187 7.35386 0)
(2.02507 7.72379 0)
(0.880898 7.75787 0)
(9.99459 0.120857 0)
(9.97657 0.240231 0)
(9.94461 0.360015 0)
(9.89995 0.482009 0)
(9.84355 0.607804 0)
(9.77574 0.73889 0)
(9.6966 0.876702 0)
(9.60621 1.02265 0)
(9.50461 1.17811 0)
(9.39182 1.3445 0)
(9.26778 1.52323 0)
(9.13238 1.71575 0)
(8.98544 1.92356 0)
(8.82665 2.14823 0)
(8.65559 2.3914 0)
(8.47164 2.65483 0)
(8.2739 2.94041 0)
(8.06107 3.2502 0)
(7.83127 3.58652 0)
(7.58182 3.95199 0)
(7.30885 4.34963 0)
(7.00676 4.78294 0)
(6.66739 5.25588 0)
(6.27872 5.77275 0)
(5.8228 6.33754 0)
(5.27292 6.95236 0)
(4.58506 7.61375 0)
(3.71054 8.3013 0)
(2.48869 8.95897 0)
(1.12476 9.29436 0)
(9.99501 0.127215 0)
(9.97837 0.252891 0)
(9.9489 0.37903 0)
(9.90779 0.507497 0)
(9.85597 0.639918 0)
(9.7938 0.777811 0)
(9.7214 0.922645 0)
(9.63891 1.07586 0)
(9.54644 1.23889 0)
(9.44409 1.41316 0)
(9.33191 1.60014 0)
(9.2099 1.80133 0)
(9.07801 2.01829 0)
(8.93609 2.25269 0)
(8.78393 2.5063 0)
(8.62111 2.78108 0)
(8.44704 3.07916 0)
(8.26077 3.40304 0)
(8.06093 3.75559 0)
(7.84545 4.14029 0)
(7.61134 4.56144 0)
(7.35416 5.02445 0)
(7.06728 5.53625 0)
(6.74064 6.10587 0)
(6.35827 6.745 0)
(5.89457 7.46876 0)
(5.30146 8.29633 0)
(4.50971 9.24831 0)
(3.2697 10.3428 0)
(1.60558 11.361 0)
(9.99544 0.133055 0)
(9.98026 0.264512 0)
(9.95339 0.396453 0)
(9.91595 0.530801 0)
(9.86887 0.669212 0)
(9.81251 0.813224 0)
(9.74705 0.964331 0)
(9.67268 1.124 0)
(9.5896 1.29368 0)
(9.49798 1.47483 0)
(9.39797 1.66894 0)
(9.28972 1.87754 0)
(9.17331 2.10225 0)
(9.0488 2.34478 0)
(8.91617 2.60701 0)
(8.77531 2.89101 0)
(8.62599 3.19914 0)
(8.46776 3.53415 0)
(8.29989 3.89935 0)
(8.12125 4.29883 0)
(7.93013 4.73782 0)
(7.72398 5.22315 0)
(7.49898 5.76406 0)
(7.24924 6.37337 0)
(6.96528 7.06954 0)
(6.63159 7.88041 0)
(6.21539 8.85147 0)
(5.66727 10.0658 0)
(4.69202 11.7319 0)
(2.68885 14.5958 0)
(0.13563 -0.139265 0)
(0.313305 -0.124773 0)
(0.497042 -0.0997772 0)
(0.654447 -0.0773596 0)
(0.781094 -0.0594594 0)
(0.882446 -0.0455666 0)
(0.96477 -0.0349311 0)
(1.03289 -0.0269159 0)
(1.09037 -0.0209668 0)
(1.13994 -0.0165913 0)
(1.18372 -0.0133575 0)
(1.22317 -0.0108877 0)
(1.25918 -0.00885751 0)
(1.29205 -0.00701411 0)
(1.32168 -0.00520854 0)
(1.34777 -0.00340391 0)
(1.37004 -0.00161063 0)
(1.38827 0.000248824 0)
(1.40198 0.00241917 0)
(1.41005 0.00510361 0)
(1.41121 0.00794899 0)
(1.40496 0.0101371 0)
(1.39273 0.0110137 0)
(1.37832 0.0103387 0)
(1.36549 0.00856854 0)
(1.35596 0.00632105 0)
(1.34986 0.00382546 0)
(1.34773 0.00101192 0)
(1.35107 -0.00151707 0)
(1.36284 -0.00354093 0)
(0.109653 -0.310495 0)
(0.280116 -0.289402 0)
(0.447762 -0.238204 0)
(0.593858 -0.19063 0)
(0.715216 -0.152387 0)
(0.816537 -0.122656 0)
(0.902842 -0.0998878 0)
(0.97791 -0.0827208 0)
(1.04452 -0.0699595 0)
(1.10482 -0.0605441 0)
(1.16043 -0.0535449 0)
(1.21258 -0.0481432 0)
(1.26202 -0.0436251 0)
(1.30909 -0.0394238 0)
(1.35379 -0.0352038 0)
(1.39593 -0.0309066 0)
(1.43536 -0.0266355 0)
(1.47216 -0.0223492 0)
(1.50654 -0.0176064 0)
(1.53831 -0.011866 0)
(1.56617 -0.00538269 0)
(1.58844 0.000359338 0)
(1.60528 0.00382445 0)
(1.61927 0.004634 0)
(1.6336 0.00386663 0)
(1.64971 0.00263277 0)
(1.66746 0.00112711 0)
(1.68597 -0.00108888 0)
(1.70388 -0.00379854 0)
(1.72457 -0.00574129 0)
(0.0826916 -0.482395 0)
(0.225143 -0.452186 0)
(0.354244 -0.375338 0)
(0.466716 -0.303987 0)
(0.559666 -0.246713 0)
(0.637633 -0.202027 0)
(0.704332 -0.167594 0)
(0.762473 -0.141372 0)
(0.814093 -0.121609 0)
(0.860785 -0.106787 0)
(0.903794 -0.0955833 0)
(0.944054 -0.0868263 0)
(0.98219 -0.0794725 0)
(1.0185 -0.072665 0)
(1.05297 -0.0658722 0)
(1.08531 -0.0590148 0)
(1.11523 -0.0523683 0)
(1.14281 -0.046096 0)
(1.16862 -0.0395947 0)
(1.19333 -0.0314649 0)
(1.21659 -0.0210015 0)
(1.23656 -0.0108741 0)
(1.25136 -0.00574933 0)
(1.26231 -0.00627382 0)
(1.27245 -0.00978605 0)
(1.28293 -0.0137518 0)
(1.29321 -0.0171303 0)
(1.30206 -0.0195736 0)
(1.30864 -0.0213904 0)
(1.31419 -0.0206319 0)
(0.0576426 -0.611211 0)
(0.164329 -0.566178 0)
(0.246581 -0.466624 0)
(0.319326 -0.377319 0)
(0.376949 -0.306664 0)
(0.424849 -0.25172 0)
(0.465099 -0.209413 0)
(0.499296 -0.177127 0)
(0.52873 -0.152698 0)
(0.554435 -0.134301 0)
(0.577236 -0.120365 0)
(0.597792 -0.109483 0)
(0.616634 -0.100385 0)
(0.634126 -0.0919779 0)
(0.650375 -0.0835213 0)
(0.665116 -0.0748369 0)
(0.677578 -0.0663422 0)
(0.687275 -0.058627 0)
(0.694695 -0.0516673 0)
(0.702019 -0.0445087 0)
(0.711118 -0.0356248 0)
(0.719363 -0.0243212 0)
(0.713302 -0.0134514 0)
(0.690255 -0.00725112 0)
(0.664054 -0.00584495 0)
(0.639107 -0.00499808 0)
(0.616687 -0.00419715 0)
(0.595817 -0.00483031 0)
(0.578273 -0.00653576 0)
(0.564362 -0.00905744 0)
(0.0321671 -0.699535 0)
(0.0964597 -0.63466 0)
(0.125887 -0.515775 0)
(0.155743 -0.414672 0)
(0.173159 -0.335651 0)
(0.186019 -0.274293 0)
(0.194237 -0.227015 0)
(0.198644 -0.190832 0)
(0.199956 -0.163341 0)
(0.198762 -0.142563 0)
(0.195516 -0.126822 0)
(0.190644 -0.114626 0)
(0.18467 -0.104587 0)
(0.178131 -0.095435 0)
(0.171456 -0.0861833 0)
(0.164671 -0.0763633 0)
(0.156342 -0.0661855 0)
(0.145423 -0.0561972 0)
(0.128682 -0.0462488 0)
(0.108014 -0.0348034 0)
(0.0820873 -0.0195793 0)
(0.0570457 -0.00151558 0)
(0.0375279 0.0128268 0)
(0.0244613 0.0171664 0)
(0.0105916 0.0137323 0)
(-0.002687 0.0076243 0)
(-0.00785474 0.00218786 0)
(-0.0106874 -0.00299236 0)
(-0.0132422 -0.00847504 0)
(-0.0193793 -0.0175832 0)
(0.00498932 -0.740538 0)
(0.02114 -0.652025 0)
(-0.0047771 -0.517171 0)
(-0.0207524 -0.409595 0)
(-0.0467859 -0.326041 0)
(-0.0730178 -0.261751 0)
(-0.101208 -0.212538 0)
(-0.130514 -0.175152 0)
(-0.160453 -0.146907 0)
(-0.190628 -0.125626 0)
(-0.220767 -0.109542 0)
(-0.250576 -0.0971456 0)
(-0.279668 -0.0870591 0)
(-0.307604 -0.0780602 0)
(-0.333945 -0.0691982 0)
(-0.358314 -0.0599306 0)
(-0.380479 -0.0501818 0)
(-0.400449 -0.0402233 0)
(-0.418444 -0.0303129 0)
(-0.4341 -0.0202832 0)
(-0.446524 -0.0100093 0)
(-0.455462 -0.000175164 0)
(-0.458761 0.00824309 0)
(-0.463132 0.0127845 0)
(-0.468913 0.0123109 0)
(-0.476229 0.00803343 0)
(-0.482842 0.0037771 0)
(-0.487727 0.000330273 0)
(-0.495398 -0.00449331 0)
(-0.502606 -0.0108461 0)
(-0.0264915 -0.726759 0)
(-0.0634144 -0.61131 0)
(-0.141993 -0.471619 0)
(-0.20737 -0.364286 0)
(-0.276085 -0.281388 0)
(-0.34188 -0.218866 0)
(-0.404416 -0.171974 0)
(-0.462855 -0.137236 0)
(-0.516675 -0.111855 0)
(-0.565637 -0.0935473 0)
(-0.609839 -0.0804402 0)
(-0.649591 -0.0709705 0)
(-0.685271 -0.0637511 0)
(-0.717221 -0.0575657 0)
(-0.74569 -0.0514898 0)
(-0.770806 -0.0449815 0)
(-0.792637 -0.0378619 0)
(-0.811297 -0.0301751 0)
(-0.826964 -0.0219475 0)
(-0.839761 -0.0130218 0)
(-0.849501 -0.00337802 0)
(-0.856065 0.00593195 0)
(-0.859273 0.0128219 0)
(-0.862222 0.0160806 0)
(-0.866248 0.0152359 0)
(-0.87205 0.0115699 0)
(-0.878919 0.00724842 0)
(-0.886097 0.00266777 0)
(-0.89309 -0.00347218 0)
(-0.898795 -0.010433 0)
(-0.0640729 -0.655124 0)
(-0.153348 -0.52081 0)
(-0.282695 -0.382228 0)
(-0.394887 -0.278958 0)
(-0.502029 -0.203077 0)
(-0.598808 -0.14873 0)
(-0.684595 -0.110322 0)
(-0.759566 -0.0836435 0)
(-0.824623 -0.0656159 0)
(-0.880967 -0.0538706 0)
(-0.929844 -0.0464507 0)
(-0.972421 -0.0418079 0)
(-1.00967 -0.0386581 0)
(-1.04237 -0.0359344 0)
(-1.07112 -0.0329039 0)
(-1.09632 -0.029209 0)
(-1.11822 -0.0247735 0)
(-1.13692 -0.0196328 0)
(-1.15256 -0.0137418 0)
(-1.16529 -0.00697831 0)
(-1.17538 0.000588253 0)
(-1.18156 0.00824743 0)
(-1.18621 0.0145652 0)
(-1.19024 0.0180672 0)
(-1.19487 0.0180535 0)
(-1.20078 0.0153516 0)
(-1.20785 0.011431 0)
(-1.21569 0.00662781 0)
(-1.22326 0.000291637 0)
(-1.22814 -0.00605075 0)
(-0.108007 -0.52416 0)
(-0.251358 -0.379608 0)
(-0.431337 -0.252139 0)
(-0.583723 -0.164021 0)
(-0.720669 -0.102982 0)
(-0.838918 -0.0626353 0)
(-0.939199 -0.0374462 0)
(-1.02273 -0.0229756 0)
(-1.09115 -0.0156439 0)
(-1.14803 -0.0124697 0)
(-1.19614 -0.0117053 0)
(-1.23765 -0.0122462 0)
(-1.2741 -0.0132697 0)
(-1.30643 -0.014067 0)
(-1.33491 -0.0140802 0)
(-1.3601 -0.0130257 0)
(-1.38228 -0.0109728 0)
(-1.40155 -0.00807058 0)
(-1.41789 -0.00430822 0)
(-1.43117 0.000428396 0)
(-1.44101 0.00604367 0)
(-1.44858 0.0120225 0)
(-1.45484 0.0173652 0)
(-1.46059 0.0205927 0)
(-1.46665 0.0209171 0)
(-1.47356 0.0187651 0)
(-1.48152 0.015135 0)
(-1.49054 0.0103666 0)
(-1.49925 0.00431472 0)
(-1.50345 -0.00112047 0)
(-0.163657 -0.335782 0)
(-0.373734 -0.194712 0)
(-0.617481 -0.0769528 0)
(-0.808237 -0.00855818 0)
(-0.961241 0.0247325 0)
(-1.08315 0.0388601 0)
(-1.18031 0.0421412 0)
(-1.25883 0.0395919 0)
(-1.32392 0.0344341 0)
(-1.37831 0.0283384 0)
(-1.42438 0.022186 0)
(-1.46383 0.0163457 0)
(-1.49785 0.0110806 0)
(-1.5275 0.00681284 0)
(-1.554 0.00399162 0)
(-1.57793 0.00267663 0)
(-1.59945 0.00254482 0)
(-1.61835 0.00326391 0)
(-1.6343 0.00484292 0)
(-1.64728 0.00759467 0)
(-1.65794 0.0117064 0)
(-1.66696 0.016713 0)
(-1.67505 0.0214554 0)
(-1.68289 0.0245001 0)
(-1.69097 0.0249994 0)
(-1.69954 0.0231334 0)
(-1.70892 0.0196483 0)
(-1.71928 0.0149353 0)
(-1.72911 0.0091951 0)
(-1.73419 0.00439739 0)
(-0.238698 -0.0508938 0)
(-0.498504 0.0991154 0)
(-0.756598 0.143217 0)
(-0.952322 0.152174 0)
(-1.11036 0.146235 0)
(-1.23706 0.132625 0)
(-1.33893 0.116022 0)
(-1.4213 0.0988355 0)
(-1.48846 0.0823527 0)
(-1.54398 0.0675158 0)
(-1.59089 0.0547309 0)
(-1.63127 0.043771 0)
(-1.66634 0.0344184 0)
(-1.69695 0.0269017 0)
(-1.72402 0.0215406 0)
(-1.74849 0.0181828 0)
(-1.77076 0.0161685 0)
(-1.79062 0.0148929 0)
(-1.80759 0.014389 0)
(-1.82161 0.0152691 0)
(-1.83327 0.0180044 0)
(-1.8436 0.0222156 0)
(-1.85354 0.0266183 0)
(-1.86366 0.0296248 0)
(-1.87406 0.0302142 0)
(-1.88469 0.0284001 0)
(-1.89579 0.0248831 0)
(-1.9076 0.0202293 0)
(-1.91842 0.014862 0)
(-1.92377 0.010544 0)
(-0.282593 0.328722 0)
(-0.571534 0.381337 0)
(-0.863212 0.362088 0)
(-1.08053 0.322704 0)
(-1.24894 0.278059 0)
(-1.37905 0.23442 0)
(-1.48088 0.195159 0)
(-1.56187 0.161046 0)
(-1.62715 0.131807 0)
(-1.68076 0.107595 0)
(-1.72625 0.0881769 0)
(-1.76594 0.0722755 0)
(-1.80073 0.0587438 0)
(-1.83109 0.0476427 0)
(-1.85806 0.0395637 0)
(-1.88292 0.0343043 0)
(-1.90625 0.0306582 0)
(-1.92749 0.0274728 0)
(-1.94567 0.024738 0)
(-1.96047 0.023548 0)
(-1.97277 0.0249097 0)
(-1.98412 0.0285732 0)
(-1.99578 0.0329744 0)
(-2.00819 0.0361385 0)
(-2.02099 0.036745 0)
(-2.03363 0.0346948 0)
(-2.04617 0.0308309 0)
(-2.05895 0.0260498 0)
(-2.07028 0.0209872 0)
(-2.0757 0.0171274 0)
(-0.334898 0.735094 0)
(-0.680175 0.722787 0)
(-1.00878 0.612029 0)
(-1.23299 0.502634 0)
(-1.39714 0.410474 0)
(-1.51937 0.332809 0)
(-1.61273 0.269793 0)
(-1.68643 0.219332 0)
(-1.74561 0.177985 0)
(-1.79396 0.144943 0)
(-1.8356 0.119856 0)
(-1.87323 0.100037 0)
(-1.90698 0.0827522 0)
(-1.93635 0.0680294 0)
(-1.96236 0.0573326 0)
(-1.98702 0.0506474 0)
(-2.01128 0.0459009 0)
(-2.03404 0.040968 0)
(-2.05337 0.0357302 0)
(-2.06851 0.0321164 0)
(-2.08078 0.0320797 0)
(-2.09258 0.0355512 0)
(-2.10566 0.0404152 0)
(-2.12031 0.0440036 0)
(-2.13556 0.0445544 0)
(-2.15023 0.0419212 0)
(-2.16405 0.0373184 0)
(-2.17752 0.0322001 0)
(-2.18917 0.0274253 0)
(-2.19461 0.0240509 0)
(-0.437475 1.23509 0)
(-0.866865 1.12228 0)
(-1.22253 0.874952 0)
(-1.42451 0.671045 0)
(-1.562 0.529603 0)
(-1.66236 0.417622 0)
(-1.73703 0.333134 0)
(-1.79694 0.270685 0)
(-1.84617 0.219564 0)
(-1.88606 0.177921 0)
(-1.92137 0.148126 0)
(-1.95599 0.125988 0)
(-1.98855 0.105594 0)
(-2.01631 0.087079 0)
(-2.04016 0.0739485 0)
(-2.06372 0.0668514 0)
(-2.08879 0.0621164 0)
(-2.1134 0.0557756 0)
(-2.1339 0.0474947 0)
(-2.1487 0.0407016 0)
(-2.15986 0.0390904 0)
(-2.17122 0.0428609 0)
(-2.18537 0.0488569 0)
(-2.20234 0.0532687 0)
(-2.22029 0.0537224 0)
(-2.23711 0.0500943 0)
(-2.25207 0.0442363 0)
(-2.26587 0.0384805 0)
(-2.27754 0.0339663 0)
(-2.28291 0.031091 0)
(-0.645702 2.16213 0)
(-1.17293 1.75412 0)
(-1.54524 1.16504 0)
(-1.67068 0.770692 0)
(-1.74371 0.610387 0)
(-1.80708 0.483302 0)
(-1.85079 0.384983 0)
(-1.89108 0.315436 0)
(-1.92969 0.253647 0)
(-1.95905 0.200166 0)
(-1.98462 0.168536 0)
(-2.01516 0.15015 0)
(-2.04712 0.129502 0)
(-2.07279 0.106756 0)
(-2.0927 0.0902471 0)
(-2.11377 0.0834061 0)
(-2.13985 0.0797024 0)
(-2.16735 0.0718756 0)
(-2.18951 0.0592823 0)
(-2.20313 0.0479346 0)
(-2.21161 0.0445306 0)
(-2.22139 0.0495869 0)
(-2.23633 0.0579315 0)
(-2.25599 0.0638953 0)
(-2.27718 0.0643211 0)
(-2.29644 0.0592241 0)
(-2.31233 0.0514293 0)
(-2.3259 0.0446414 0)
(-2.33714 0.0404427 0)
(-2.34235 0.0381479 0)
(9.9959 0.138451 0)
(9.98225 0.275247 0)
(9.9581 0.412537 0)
(9.92452 0.552287 0)
(9.88241 0.696176 0)
(9.83214 0.845754 0)
(9.77396 1.00253 0)
(9.70811 1.16798 0)
(9.63488 1.34356 0)
(9.55453 1.53074 0)
(9.46734 1.73101 0)
(9.37356 1.94593 0)
(9.27348 2.1771 0)
(9.16734 2.42629 0)
(9.05539 2.6954 0)
(8.93786 2.98657 0)
(8.81494 3.30225 0)
(8.68676 3.64532 0)
(8.5534 4.01931 0)
(8.41487 4.42858 0)
(8.27108 4.87879 0)
(8.12195 5.37738 0)
(7.96741 5.93454 0)
(7.80776 6.56462 0)
(7.64422 7.28869 0)
(7.48181 8.13936 0)
(7.33388 9.17062 0)
(7.29073 10.4761 0)
(7.75127 12.2007 0)
(7.93781 14.9205 0)
(9.99638 0.143411 0)
(9.98433 0.285104 0)
(9.96305 0.427267 0)
(9.9335 0.5719 0)
(9.89655 0.720694 0)
(9.8526 0.875206 0)
(9.80194 1.03695 0)
(9.74488 1.20739 0)
(9.68179 1.38799 0)
(9.61303 1.5802 0)
(9.539 1.78551 0)
(9.4601 2.00544 0)
(9.37678 2.2416 0)
(9.28952 2.49572 0)
(9.19884 2.76969 0)
(9.10532 3.06561 0)
(9.00961 3.38592 0)
(8.91246 3.73346 0)
(8.81479 4.11168 0)
(8.71778 4.52485 0)
(8.62304 4.97837 0)
(8.53295 5.47927 0)
(8.45122 6.03687 0)
(8.38413 6.66376 0)
(8.34289 7.37714 0)
(8.3496 8.2004 0)
(8.4432 9.16366 0)
(8.67968 10.3001 0)
(9.32804 11.5541 0)
(9.82032 12.6398 0)
(9.99688 0.147849 0)
(9.9865 0.293917 0)
(9.96818 0.44042 0)
(9.94281 0.589373 0)
(9.91119 0.742471 0)
(9.87375 0.901265 0)
(9.83082 1.06725 0)
(9.78278 1.24189 0)
(9.73007 1.42661 0)
(9.67316 1.62284 0)
(9.61254 1.83203 0)
(9.54878 2.05565 0)
(9.4825 2.29527 0)
(9.41439 2.55253 0)
(9.34525 2.82924 0)
(9.276 3.1274 0)
(9.20775 3.44928 0)
(9.14183 3.79751 0)
(9.07993 4.17521 0)
(9.02426 4.58614 0)
(8.97785 5.03489 0)
(8.94498 5.52714 0)
(8.93195 6.06985 0)
(8.94829 6.67142 0)
(9.00849 7.34125 0)
(9.13471 8.08795 0)
(9.35798 8.91332 0)
(9.68773 9.80611 0)
(10.2536 10.7147 0)
(10.9412 11.4285 0)
(9.9974 0.151711 0)
(9.98873 0.30158 0)
(9.97346 0.451829 0)
(9.95237 0.604475 0)
(9.92621 0.761206 0)
(9.89541 0.923554 0)
(9.86037 1.09299 0)
(9.82152 1.27095 0)
(9.77935 1.45882 0)
(9.73443 1.65798 0)
(9.68737 1.86981 0)
(9.63886 2.09571 0)
(9.58969 2.33716 0)
(9.54075 2.59568 0)
(9.4931 2.87293 0)
(9.44796 3.17072 0)
(9.40683 3.49104 0)
(9.37153 3.83615 0)
(9.34435 4.20864 0)
(9.32828 4.61147 0)
(9.32725 5.04804 0)
(9.34655 5.52219 0)
(9.39343 6.03802 0)
(9.47781 6.5995 0)
(9.61287 7.20938 0)
(9.81545 7.86727 0)
(10.1083 8.56604 0)
(10.5 9.29096 0)
(11.0573 10.0318 0)
(11.85 10.6755 0)
(9.99792 0.154952 0)
(9.991 0.308001 0)
(9.97883 0.461359 0)
(9.9621 0.61703 0)
(9.94148 0.77668 0)
(9.91742 0.941815 0)
(9.89035 1.11387 0)
(9.86075 1.29423 0)
(9.8292 1.48422 0)
(9.79631 1.68516 0)
(9.76281 1.89835 0)
(9.72949 2.12508 0)
(9.6973 2.3667 0)
(9.66729 2.62458 0)
(9.64073 2.90016 0)
(9.61909 3.19498 0)
(9.60417 3.5107 0)
(9.59813 3.84908 0)
(9.60366 4.21206 0)
(9.62417 4.60165 0)
(9.66395 5.01997 0)
(9.72855 5.46903 0)
(9.82503 5.95042 0)
(9.96234 6.46483 0)
(10.1515 7.01117 0)
(10.4057 7.58554 0)
(10.742 8.17979 0)
(11.1722 8.77922 0)
(11.7191 9.37226 0)
(12.4716 9.88404 0)
(9.99845 0.157527 0)
(9.9933 0.313094 0)
(9.98426 0.468884 0)
(9.97192 0.626872 0)
(9.95687 0.788691 0)
(9.93958 0.955806 0)
(9.92049 1.1296 0)
(9.90015 1.31141 0)
(9.87916 1.50248 0)
(9.85822 1.70404 0)
(9.83812 1.91729 0)
(9.81976 2.14339 0)
(9.80419 2.38353 0)
(9.7926 2.63889 0)
(9.78641 2.91067 0)
(9.78726 3.20009 0)
(9.79712 3.50839 0)
(9.81836 3.83682 0)
(9.85383 4.1866 0)
(9.90704 4.55885 0)
(9.98226 4.95446 0)
(10.0847 5.3739 0)
(10.2207 5.8169 0)
(10.3978 6.28201 0)
(10.6249 6.76595 0)
(10.9115 7.26294 0)
(11.2688 7.76375 0)
(11.7049 8.25283 0)
(12.2205 8.71348 0)
(12.8956 9.10421 0)
(9.99898 0.159397 0)
(9.9956 0.316782 0)
(9.9897 0.47429 0)
(9.98174 0.633852 0)
(9.97226 0.797057 0)
(9.96169 0.965318 0)
(9.95053 1.13996 0)
(9.93934 1.32223 0)
(9.92877 1.51331 0)
(9.91956 1.71432 0)
(9.91256 1.92633 0)
(9.90875 2.15037 0)
(9.90923 2.38744 0)
(9.91529 2.6385 0)
(9.92844 2.90448 0)
(9.95039 3.18627 0)
(9.98321 3.48468 0)
(10.0293 3.80045 0)
(10.0914 4.13412 0)
(10.173 4.48598 0)
(10.278 4.85595 0)
(10.4109 5.24331 0)
(10.5772 5.64648 0)
(10.7826 6.06265 0)
(11.0336 6.48734 0)
(11.3367 6.91384 0)
(11.6978 7.33281 0)
(12.1212 7.73083 0)
(12.6007 8.09335 0)
(13.2053 8.39988 0)
(9.99951 0.16053 0)
(9.99788 0.318998 0)
(9.99509 0.477479 0)
(9.99149 0.637845 0)
(9.9875 0.801628 0)
(9.98357 0.970179 0)
(9.98021 1.14475 0)
(9.97798 1.32651 0)
(9.97757 1.51653 0)
(9.97975 1.71583 0)
(9.98541 1.92534 0)
(9.99554 2.14593 0)
(10.0113 2.37841 0)
(10.034 2.62351 0)
(10.0652 2.8819 0)
(10.1066 3.15411 0)
(10.1602 3.44058 0)
(10.2284 3.74152 0)
(10.3137 4.05693 0)
(10.4192 4.38642 0)
(10.5483 4.72914 0)
(10.7049 5.08355 0)
(10.8931 5.44726 0)
(11.1171 5.81677 0)
(11.3814 6.18715 0)
(11.6895 6.55187 0)
(12.0445 6.90263 0)
(12.4477 7.22915 0)
(12.8915 7.52028 0)
(13.4339 7.76474 0)
(10 0.160896 0)
(10.0001 0.319689 0)
(10.0004 0.478373 0)
(10.0011 0.638751 0)
(10.0025 0.802286 0)
(10.005 0.970258 0)
(10.0092 1.14384 0)
(10.0157 1.3241 0)
(10.0251 1.51201 0)
(10.0382 1.70847 0)
(10.0559 1.91426 0)
(10.0793 2.1301 0)
(10.1094 2.3566 0)
(10.1476 2.59426 0)
(10.1953 2.84349 0)
(10.2543 3.10451 0)
(10.3264 3.37738 0)
(10.4137 3.66193 0)
(10.5186 3.95766 0)
(10.6436 4.26369 0)
(10.7917 4.57864 0)
(10.9658 4.90048 0)
(11.1689 5.22643 0)
(11.4039 5.55278 0)
(11.6734 5.87477 0)
(11.9793 6.18656 0)
(12.3224 6.48129 0)
(12.7025 6.75113 0)
(13.1118 6.98776 0)
(13.599 7.18433 0)
(10.0005 0.160474 0)
(10.0023 0.318811 0)
(10.0056 0.476911 0)
(10.0104 0.636495 0)
(10.017 0.798948 0)
(10.0259 0.965471 0)
(10.0374 1.13714 0)
(10.0522 1.31494 0)
(10.071 1.49973 0)
(10.0944 1.69227 0)
(10.1235 1.89321 0)
(10.1592 2.1031 0)
(10.2025 2.32236 0)
(10.2548 2.55129 0)
(10.3175 2.79004 0)
(10.392 3.03857 0)
(10.4801 3.29664 0)
(10.5837 3.56374 0)
(10.7047 3.83903 0)
(10.8453 4.12128 0)
(11.0076 4.40881 0)
(11.1939 4.69935 0)
(11.4062 4.99003 0)
(11.6463 5.27728 0)
(11.9154 5.5568 0)
(12.2143 5.82361 0)
(12.5424 6.0722 0)
(12.8984 6.29668 0)
(13.2753 6.49101 0)
(13.7148 6.65104 0)
(10.001 0.15925 0)
(10.0044 0.316335 0)
(10.0106 0.473054 0)
(10.0194 0.631031 0)
(10.031 0.791569 0)
(10.0459 0.955779 0)
(10.0644 1.12465 0)
(10.0871 1.29905 0)
(10.1147 1.47974 0)
(10.1479 1.66735 0)
(10.1875 1.86239 0)
(10.2345 2.06524 0)
(10.2899 2.27618 0)
(10.3549 2.49529 0)
(10.4307 2.72252 0)
(10.5188 2.95761 0)
(10.6205 3.20007 0)
(10.7375 3.44914 0)
(10.8714 3.70377 0)
(11.0237 3.96253 0)
(11.1962 4.22358 0)
(11.3903 4.48465 0)
(11.6073 4.74295 0)
(11.8481 4.99525 0)
(12.113 5.23782 0)
(12.4019 5.46657 0)
(12.7135 5.67718 0)
(13.0461 5.8653 0)
(13.3933 6.0267 0)
(13.7918 6.15886 0)
(10.0015 0.157215 0)
(10.0065 0.312248 0)
(10.0154 0.466783 0)
(10.028 0.622343 0)
(10.0444 0.780138 0)
(10.065 0.941191 0)
(10.09 1.10639 0)
(10.1202 1.27651 0)
(10.156 1.45218 0)
(10.1981 1.63392 0)
(10.2474 1.82211 0)
(10.3047 2.017 0)
(10.3709 2.21868 0)
(10.4471 2.4271 0)
(10.5344 2.64202 0)
(10.6339 2.86301 0)
(10.7469 3.08941 0)
(10.8747 3.3203 0)
(11.0184 3.55449 0)
(11.1793 3.79047 0)
(11.3585 4.02642 0)
(11.5569 4.26013 0)
(11.7751 4.48908 0)
(12.0134 4.71042 0)
(12.2715 4.92104 0)
(12.5487 5.11766 0)
(12.8435 5.29698 0)
(13.1539 5.45583 0)
(13.4745 5.5913 0)
(13.8377 5.70189 0)
(10.0019 0.154369 0)
(10.0084 0.306548 0)
(10.0199 0.458102 0)
(10.0361 0.610443 0)
(10.0571 0.764687 0)
(10.0829 0.921761 0)
(10.1141 1.08246 0)
(10.1512 1.24745 0)
(10.1945 1.41726 0)
(10.2449 1.59229 0)
(10.3029 1.7728 0)
(10.3694 1.95891 0)
(10.4451 2.15059 0)
(10.531 2.34765 0)
(10.628 2.54972 0)
(10.737 2.75623 0)
(10.8591 2.96642 0)
(10.9952 3.17929 0)
(11.1461 3.39359 0)
(11.3128 3.60784 0)
(11.4958 3.82027 0)
(11.6957 4.02888 0)
(11.9124 4.23144 0)
(12.146 4.42553 0)
(12.3957 4.6086 0)
(12.6605 4.7781 0)
(12.9388 4.93152 0)
(13.2286 5.06661 0)
(13.5254 5.18138 0)
(13.8582 5.27498 0)
(10.0024 0.150717 0)
(10.0102 0.299249 0)
(10.0241 0.447033 0)
(10.0438 0.59537 0)
(10.0689 0.745278 0)
(10.0997 0.897589 0)
(10.1366 1.053 0)
(10.1799 1.21208 0)
(10.2301 1.37525 0)
(10.2878 1.54282 0)
(10.3536 1.71494 0)
(10.4281 1.89161 0)
(10.5121 2.07271 0)
(10.6062 2.25793 0)
(10.7113 2.44681 0)
(10.828 2.63872 0)
(10.9571 2.83281 0)
(11.0994 3.02807 0)
(11.2553 3.22328 0)
(11.4254 3.417 0)
(11.6099 3.60763 0)
(11.809 3.79339 0)
(12.0224 3.97235 0)
(12.2497 4.14252 0)
(12.4901 4.30186 0)
(12.7423 4.44838 0)
(13.0048 4.58025 0)
(13.2757 4.69585 0)
(13.5513 4.79388 0)
(13.8578 4.87388 0)
(10.0027 0.146271 0)
(10.0119 0.290376 0)
(10.0281 0.433622 0)
(10.0508 0.577193 0)
(10.0798 0.722009 0)
(10.1152 0.86881 0)
(10.1572 1.0182 0)
(10.2062 1.17065 0)
(10.2626 1.3265 0)
(10.3268 1.48596 0)
(10.3994 1.64908 0)
(10.4809 1.81579 0)
(10.5718 1.98587 0)
(10.6728 2.15895 0)
(10.7843 2.33451 0)
(10.9071 2.51187 0)
(11.0414 2.69018 0)
(11.1879 2.86843 0)
(11.3469 3.04548 0)
(11.5184 3.22 0)
(11.7026 3.39056 0)
(11.8993 3.55562 0)
(12.108 3.71356 0)
(12.3282 3.86275 0)
(12.5588 4.00159 0)
(12.7987 4.12858 0)
(13.0463 4.24237 0)
(13.3 4.34184 0)
(13.5566 4.42612 0)
(13.8402 4.49506 0)
(10.0031 0.141051 0)
(10.0134 0.279968 0)
(10.0317 0.417928 0)
(10.0573 0.556 0)
(10.0898 0.695006 0)
(10.1293 0.835596 0)
(10.1759 0.978286 0)
(10.23 1.12346 0)
(10.2918 1.27138 0)
(10.3618 1.42216 0)
(10.4402 1.5758 0)
(10.5276 1.73214 0)
(10.6243 1.89092 0)
(10.7308 2.05171 0)
(10.8474 2.21397 0)
(10.9746 2.377 0)
(11.1127 2.53999 0)
(11.2618 2.70197 0)
(11.4221 2.86188 0)
(11.5936 3.01855 0)
(11.776 3.17071 0)
(11.9691 3.31708 0)
(12.1723 3.4563 0)
(12.3847 3.58709 0)
(12.6055 3.70819 0)
(12.8335 3.81848 0)
(13.0672 3.91698 0)
(13.3053 4.00294 0)
(13.545 4.0758 0)
(13.8085 4.13557 0)
(10.0034 0.13508 0)
(10.0148 0.268072 0)
(10.035 0.400027 0)