/*--------------------------------*- C++ -*----------------------------------*\
  =========                 |
  \\      /  F ield         | OpenFOAM: The Open Source CFD Toolbox
   \\    /   O peration     | Website:  https://openfoam.org
    \\  /    A nd           | Version:  7
     \\/     M anipulation  |
\*---------------------------------------------------------------------------*/
FoamFile
{
    version     2.0;
    format      ascii;
    class       surfaceVectorField;
    location    "3.7";
    object      Uf;
}
// * * * * * * * * * * * * * * * * * * * * * * * * * * * * * * * * * * * * * //

dimensions      [0 1 -1 0 0 0 0];

internalField   nonuniform List<vector> 
5457
(
(9.92088 0.0251097 0)
(9.97125 0.0387459 0)
(9.82401 0.032827 0)
(9.92859 0.0485854 0)
(9.70961 0.0393122 0)
(9.85548 0.0587685 0)
(9.57543 0.0460117 0)
(9.7568 0.0705937 0)
(9.42138 0.052949 0)
(9.63753 0.0830137 0)
(9.24754 0.0601662 0)
(9.49861 0.0959366 0)
(9.05362 0.0678107 0)
(9.3393 0.109612 0)
(8.83892 0.076034 0)
(9.15874 0.124288 0)
(8.60252 0.0849694 0)
(8.95609 0.140166 0)
(8.34327 0.0947437 0)
(8.73039 0.157432 0)
(8.05986 0.105486 0)
(8.48041 0.176267 0)
(7.75082 0.117326 0)
(8.20478 0.196854 0)
(7.41458 0.130393 0)
(7.90197 0.219358 0)
(7.04953 0.144808 0)
(7.57033 0.243919 0)
(6.65407 0.160669 0)
(7.20822 0.270628 0)
(6.22677 0.178041 0)
(6.81404 0.299495 0)
(5.7665 0.196924 0)
(6.38639 0.330408 0)
(5.27265 0.217229 0)
(5.92424 0.363078 0)
(4.74547 0.238732 0)
(5.42719 0.39697 0)
(4.18631 0.261029 0)
(4.89576 0.431231 0)
(3.59809 0.283485 0)
(4.33176 0.464615 0)
(2.98568 0.3052 0)
(3.73873 0.495422 0)
(2.35625 0.325068 0)
(3.1224 0.521512 0)
(1.71923 0.342549 0)
(2.4912 0.54056 0)
(1.08447 0.361882 0)
(1.85599 0.551678 0)
(0.451956 0.348714 0)
(1.2456 0.563024 0)
(-0.145762 0.102511 0)
(0.609056 0.54492 0)
(-0.423592 -0.207091 0)
(0.0947056 0.259415 0)
(-0.402146 -0.361272 0)
(-0.133601 -0.0205086 0)
(-0.119679 -0.393877 0)
(9.99641 0.0516728 0)
(9.99705 0.0405049 0)
(9.95879 0.070862 0)
(9.97851 0.067455 0)
(9.89824 0.0879873 0)
(9.93377 0.0898707 0)
(9.81658 0.105985 0)
(9.86453 0.113556 0)
(9.71358 0.124922 0)
(9.77438 0.138515 0)
(9.58908 0.144853 0)
(9.66435 0.164646 0)
(9.44274 0.166089 0)
(9.53397 0.192331 0)
(9.2739 0.188966 0)
(9.3825 0.222029 0)
(9.08166 0.213781 0)
(9.20919 0.254146 0)
(8.8649 0.240812 0)
(9.01316 0.289061 0)
(8.62231 0.270333 0)
(8.79332 0.327148 0)
(8.3524 0.302602 0)
(8.54837 0.36878 0)
(8.05358 0.337851 0)
(8.27685 0.414309 0)
(7.72415 0.376255 0)
(7.97719 0.464037 0)
(7.36241 0.417894 0)
(7.64775 0.518178 0)
(6.96677 0.462699 0)
(7.28687 0.576795 0)
(6.5359 0.510377 0)
(6.89301 0.639713 0)
(6.06891 0.560323 0)
(6.46488 0.706414 0)
(5.56568 0.611512 0)
(6.00168 0.775896 0)
(5.02721 0.662377 0)
(5.50336 0.846512 0)
(4.456 0.710702 0)
(4.971 0.915796 0)
(3.85662 0.753537 0)
(4.4073 0.9803 0)
(3.23632 0.787197 0)
(3.81717 1.03545 0)
(2.60595 0.807507 0)
(3.20859 1.07549 0)
(1.98292 0.810477 0)
(2.59352 1.09316 0)
(1.40539 0.776921 0)
(1.99632 1.0771 0)
(0.92985 0.646439 0)
(1.4196 0.978452 0)
(0.43995 0.384394 0)
(0.937648 0.716844 0)
(0.0592189 -0.118565 0)
(0.443879 0.343586 0)
(0.174937 -0.335876 0)
(9.98903 0.0594315 0)
(9.99481 0.045878 0)
(9.95434 0.0894773 0)
(9.97368 0.0848551 0)
(9.89729 0.118033 0)
(9.92984 0.119175 0)
(9.82046 0.147899 0)
(9.86357 0.153977 0)
(9.72416 0.179422 0)
(9.77735 0.190409 0)
(9.60821 0.212775 0)
(9.67226 0.228637 0)
(9.47234 0.248391 0)
(9.54809 0.269128 0)
(9.31607 0.286772 0)
(9.40431 0.312495 0)
(9.13868 0.328393 0)
(9.24034 0.359322 0)
(8.93925 0.373716 0)
(9.05549 0.410169 0)
(8.71665 0.423198 0)
(8.8489 0.46559 0)
(8.46961 0.477285 0)
(8.61952 0.526142 0)
(8.19669 0.536385 0)
(8.36617 0.592358 0)
(7.89635 0.600826 0)
(8.08754 0.66472 0)
(7.56695 0.670792 0)
(7.78223 0.743597 0)
(7.20688 0.746236 0)
(7.44877 0.829166 0)
(6.81463 0.82676 0)
(7.08573 0.921293 0)
(6.38895 0.91146 0)
(6.69177 1.01938 0)
(5.92912 0.998736 0)
(6.2658 1.12214 0)
(5.43524 1.08607 0)
(5.80721 1.2274 0)
(4.90866 1.16981 0)
(5.31618 1.33173 0)
(4.35256 1.24488 0)
(4.7941 1.43018 0)
(3.77272 1.30455 0)
(4.2441 1.51587 0)
(3.17886 1.33985 0)
(3.67195 1.57943 0)
(2.58675 1.33814 0)
(3.08645 1.60776 0)
(2.01997 1.27301 0)
(2.50305 1.58162 0)
(1.48704 1.09547 0)
(1.92885 1.46431 0)
(0.958368 0.769239 0)
(1.38534 1.21048 0)
(0.479921 0.202541 0)
(0.829599 0.801128 0)
(0.433758 0.134177 0)
(9.98515 0.0716147 0)
(9.99367 0.0531486 0)
(9.95039 0.113631 0)
(9.97087 0.102292 0)
(9.89436 0.154134 0)
(9.9269 0.147955 0)
(9.81882 0.195574 0)
(9.86185 0.193723 0)
(9.72441 0.238812 0)
(9.77746 0.241278 0)
(9.61112 0.284324 0)
(9.67466 0.291164 0)
(9.47874 0.332719 0)
(9.55342 0.343955 0)
(9.32694 0.384671 0)
(9.41335 0.400369 0)
(9.15523 0.440841 0)
(9.254 0.461135 0)
(8.96291 0.501875 0)
(9.07483 0.526954 0)
(8.74917 0.568417 0)
(8.8752 0.598525 0)
(8.51305 0.641097 0)
(8.6543 0.676548 0)
(8.25348 0.720512 0)
(8.41123 0.761702 0)
(7.96928 0.807168 0)
(8.14501 0.854614 0)
(7.65921 0.901411 0)
(7.85457 0.955791 0)
(7.32197 1.00332 0)
(7.53879 1.06554 0)
(6.95626 1.11254 0)
(7.19651 1.18381 0)
(6.56092 1.2281 0)
(6.82659 1.31004 0)
(6.13497 1.34814 0)
(6.42797 1.44288 0)
(5.67794 1.46957 0)
(5.99975 1.57986 0)
(5.19011 1.58775 0)
(5.54145 1.71705 0)
(4.67299 1.69601 0)
(5.05317 1.84851 0)
(4.12993 1.78514 0)
(4.53609 1.96582 0)
(3.56679 1.84254 0)
(3.99287 2.05731 0)
(2.99218 1.85075 0)
(3.42774 2.10716 0)
(2.41596 1.78254 0)
(2.84776 2.09453 0)
(1.84064 1.60053 0)
(2.25634 1.98881 0)
(1.25946 1.27852 0)
(1.6604 1.75314 0)
(0.666809 0.789643 0)
(1.02402 1.36788 0)
(0.523059 0.787276 0)
(9.98337 0.0844085 0)
(9.99316 0.0612923 0)
(9.94821 0.136839 0)
(9.96958 0.119929 0)
(9.89314 0.188034 0)
(9.92574 0.176242 0)
(9.81906 0.24017 0)
(9.86199 0.2327 0)
(9.72662 0.294468 0)
(9.77963 0.291088 0)
(9.61589 0.351658 0)
(9.67939 0.352274 0)
(9.48671 0.412467 0)
(9.56127 0.416976 0)
(9.33878 0.477671 0)
(9.42496 0.486004 0)
(9.1717 0.548042 0)
(9.27009 0.560197 0)
(8.98492 0.624343 0)
(9.0962 0.640376 0)
(8.77779 0.707328 0)
(8.90274 0.727353 0)
(8.54954 0.797744 0)
(8.68907 0.821937 0)
(8.29936 0.896301 0)
(8.45445 0.924917 0)
(8.02636 1.00362 0)
(8.19809 1.03703 0)
(7.7296 1.12017 0)
(7.91914 1.15888 0)
(7.40809 1.24613 0)
(7.61672 1.29088 0)
(7.06082 1.38123 0)
(7.28989 1.4331 0)
(6.68676 1.52454 0)
(6.93768 1.58506 0)
(6.28493 1.67414 0)
(6.55906 1.74545 0)
(5.85448 1.82675 0)
(6.15296 1.91183 0)
(5.39482 1.97722 0)
(5.71832 2.08012 0)
(4.90587 2.11803 0)
(5.25419 2.24405 0)
(4.38838 2.2386 0)
(4.75987 2.39458 0)
(3.84408 2.32456 0)
(4.23509 2.51919 0)
(3.27557 2.35699 0)
(3.68003 2.60126 0)
(2.68552 2.31066 0)
(3.09586 2.61975 0)
(2.07279 2.1551 0)
(2.48181 2.54741 0)
(1.42945 1.86752 0)
(1.84002 2.35384 0)
(0.742652 1.4197 0)
(1.13143 2.02467 0)
(0.543335 1.51466 0)
(9.98264 0.0974989 0)
(9.99299 0.0697939 0)
(9.94744 0.159776 0)
(9.96925 0.137585 0)
(9.89354 0.221349 0)
(9.92597 0.203929 0)
(9.82133 0.284093 0)
(9.8638 0.27069 0)
(9.73133 0.349348 0)
(9.78385 0.339584 0)
(9.62366 0.418018 0)
(9.68664 0.411697 0)
(9.49818 0.490935 0)
(9.57217 0.487901 0)
(9.35464 0.568968 0)
(9.44021 0.5691 0)
(9.19268 0.652994 0)
(9.29042 0.656225 0)
(9.01183 0.743883 0)
(9.12242 0.750201 0)
(8.81151 0.842498 0)
(8.93571 0.85194 0)
(8.59109 0.949685 0)
(8.72972 0.962344 0)
(8.34986 1.06625 0)
(8.50382 1.08229 0)
(8.08707 1.19293 0)
(8.25729 1.21261 0)
(7.80194 1.33026 0)
(7.98939 1.354 0)
(7.49363 1.47855 0)
(7.69932 1.50698 0)
(7.16123 1.63764 0)
(7.38621 1.67171 0)
(6.80378 1.8067 0)
(7.04908 1.84786 0)
(6.42019 1.98392 0)
(6.68682 2.0343 0)
(6.00922 2.16609 0)
(6.29809 2.22878 0)
(5.56951 2.34806 0)
(5.88129 2.42743 0)
(5.09959 2.52218 0)
(5.43446 2.62421 0)
(4.59788 2.67755 0)
(4.95525 2.81027 0)
(4.06284 2.79951 0)
(4.44099 2.97322 0)
(3.49284 2.86915 0)
(3.88867 3.09665 0)
(2.88596 2.863 0)
(3.29538 3.15996 0)
(2.23813 2.75404 0)
(2.65704 3.13801 0)
(1.54253 2.52118 0)
(1.97495 3.00334 0)
(0.793693 2.13151 0)
(1.20731 2.74078 0)
(0.556771 2.29203 0)
(9.9825 0.110628 0)
(9.99302 0.0783626 0)
(9.9477 0.182326 0)
(9.96954 0.155039 0)
(9.89522 0.253819 0)
(9.92722 0.230888 0)
(9.82524 0.326768 0)
(9.86696 0.307511 0)
(9.73813 0.402555 0)
(9.78977 0.386524 0)
(9.63403 0.482232 0)
(9.69605 0.469148 0)
(9.51285 0.566753 0)
(9.58578 0.556395 0)
(9.37437 0.657085 0)
(9.45879 0.649265 0)
(9.21827 0.754202 0)
(9.3148 0.748778 0)
(9.04413 0.859069 0)
(9.15345 0.855948 0)
(8.85144 0.972641 0)
(8.97433 0.971782 0)
(8.63962 1.09586 0)
(8.7769 1.09727 0)
(8.40803 1.22961 0)
(8.56058 1.23338 0)
(8.15596 1.37471 0)
(8.3247 1.38104 0)
(7.88266 1.53182 0)
(8.06853 1.54103 0)
(7.5873 1.70133 0)
(7.79127 1.714 0)
(7.26894 1.88324 0)
(7.49199 1.90025 0)
(6.92648 2.07691 0)
(7.16959 2.09964 0)
(6.55859 2.28079 0)
(6.82272 2.31132 0)
(6.16356 2.492 0)
(6.44967 2.53342 0)
(5.73924 2.70578 0)
(6.0482 2.76258 0)
(5.28286 2.91495 0)
(5.61537 2.99341 0)
(4.79098 3.10914 0)
(5.14739 3.21781 0)
(4.25946 3.27421 0)
(4.63955 3.42426 0)
(3.68356 3.39191 0)
(4.08624 3.59717 0)
(3.05821 3.43978 0)
(3.4815 3.71661 0)
(2.37787 3.39193 0)
(2.81853 3.75825 0)
(1.63801 3.22636 0)
(2.0993 3.69416 0)
(0.839186 2.90106 0)
(1.27901 3.50471 0)
(0.573403 3.11396 0)
(9.98273 0.123583 0)
(9.99316 0.0868189 0)
(9.94873 0.204312 0)
(9.97026 0.172095 0)
(9.89794 0.285255 0)
(9.92926 0.256978 0)
(9.8305 0.367968 0)
(9.87123 0.342991 0)
(9.7467 0.453852 0)
(9.79715 0.43168 0)
(9.64667 0.544076 0)
(9.70734 0.524351 0)
(9.53037 0.639704 0)
(9.6018 0.622133 0)
(9.39761 0.741792 0)
(9.48037 0.726121 0)
(9.24812 0.851403 0)
(9.34285 0.837415 0)
(9.08152 0.969589 0)
(9.18893 0.957117 0)
(8.89735 1.0974 0)
(9.01823 1.08632 0)
(8.69509 1.23585 0)
(8.83028 1.22611 0)
(8.47413 1.38594 0)
(8.62454 1.37754 0)
(8.23377 1.54858 0)
(8.40036 1.54164 0)
(7.97324 1.72455 0)
(8.15702 1.71932 0)
(7.69164 1.91438 0)
(7.89365 1.91137 0)
(7.38789 2.11828 0)
(7.60923 2.11829 0)
(7.06068 2.33589 0)
(7.30246 2.34021 0)
(6.70828 2.56604 0)
(6.97171 2.57668 0)
(6.32846 2.80641 0)
(6.6148 2.82635 0)
(5.91822 3.05298 0)
(6.22883 3.08662 0)
(5.4736 3.29948 0)
(5.80988 3.3531 0)
(4.98948 3.53663 0)
(5.35282 3.61893 0)
(4.45953 3.75142 0)
(4.85107 3.87397 0)
(3.87642 3.92651 0)
(4.29664 4.10396 0)
(3.23252 4.03996 0)
(3.68077 4.28976 0)
(2.521 4.06515 0)
(2.99373 4.40692 0)
(1.73851 3.97636 0)
(2.23756 4.4248 0)
(0.889544 3.71902 0)
(1.36348 4.31657 0)
(0.59881 3.98521 0)
(9.98321 0.136206 0)
(9.99339 0.0950421 0)
(9.95032 0.225575 0)
(9.97131 0.188592 0)
(9.90151 0.3155 0)
(9.93193 0.282053 0)
(9.83693 0.407506 0)
(9.87643 0.376964 0)
(9.75683 0.503014 0)
(9.80578 0.474843 0)
(9.66134 0.603276 0)
(9.72029 0.577051 0)
(9.55045 0.709455 0)
(9.61994 0.684813 0)
(9.42402 0.822693 0)
(9.50464 0.799311 0)
(9.28183 0.944133 0)
(9.37421 0.921724 0)
(9.12355 1.07491 0)
(9.22842 1.05323 0)
(8.94878 1.21616 0)
(9.06694 1.19502 0)
(8.75704 1.36901 0)
(8.88937 1.34824 0)
(8.54776 1.53454 0)
(8.69519 1.51408 0)
(8.32025 1.71379 0)
(8.48381 1.69366 0)
(8.07371 1.90768 0)
(8.2545 1.88804 0)
(7.80716 2.11695 0)
(8.00637 2.09819 0)
(7.51936 2.34207 0)
(7.73828 2.32488 0)
(7.20874 2.58306 0)
(7.44877 2.56859 0)
(6.87318 2.83929 0)
(7.13591 2.82935 0)
(6.50988 3.10917 0)
(6.7971 3.10653 0)
(6.11502 3.38971 0)
(6.4288 3.39851 0)
(5.68348 3.67595 0)
(6.0262 3.7022 0)
(5.20858 3.96016 0)
(5.58288 4.01241 0)
(4.68188 4.23098 0)
(5.09045 4.32092 0)
(4.09343 4.47236 0)
(4.53843 4.61539 0)
(3.43266 4.66265 0)
(3.91487 4.87793 0)
(2.69027 4.77334 0)
(3.20586 5.08373 0)
(1.86196 4.77266 0)
(2.41143 5.1982 0)
(0.954242 4.59004 0)
(1.47639 5.18463 0)
(0.639244 4.91984 0)
(9.98386 0.148372 0)
(9.99368 0.102946 0)
(9.95235 0.245975 0)
(9.9726 0.204398 0)
(9.90578 0.344404 0)
(9.9351 0.305974 0)
(9.84437 0.445202 0)
(9.88241 0.409275 0)
(9.76832 0.549814 0)
(9.81551 0.515821 0)
(9.67779 0.65956 0)
(9.7347 0.627014 0)
(9.5728 0.775685 0)
(9.63998 0.744158 0)
(9.45326 0.89941 0)
(9.53128 0.868512 0)
(9.319 1.03195 0)
(9.40851 1.00133 0)
(9.16976 1.17453 0)
(9.2715 1.14386 0)
(9.00521 1.32837 0)
(9.11997 1.29736 0)
(8.82491 1.49468 0)
(8.95359 1.46309 0)
(8.62833 1.67466 0)
(8.77192 1.64232 0)
(8.41484 1.86948 0)
(8.57441 1.83631 0)
(8.18361 2.08026 0)
(8.36037 2.04628 0)
(7.93362 2.30797 0)
(8.12889 2.27341 0)
(7.6635 2.55341 0)
(7.87882 2.51878 0)
(7.37148 2.81707 0)
(7.60857 2.78329 0)
(7.05512 3.099 0)
(7.31603 3.06756 0)
(6.71112 3.39853 0)
(6.99828 3.37183 0)
(6.33493 3.71396 0)
(6.6513 3.69564 0)
(5.92042 4.04199 0)
(6.26955 4.03753 0)
(5.45937 4.37699 0)
(5.84549 4.39441 0)
(4.94118 4.70985 0)
(5.36901 4.76064 0)
(4.35286 5.02656 0)
(4.82695 5.12671 0)
(3.67973 5.30628 0)
(4.20335 5.47711 0)
(2.90765 5.51837 0)
(3.47808 5.78761 0)
(2.02778 5.6233 0)
(2.6452 6.01976 0)
(1.04517 5.52982 0)
(1.63784 6.1243 0)
(0.704532 5.94352 0)
(9.98465 0.159985 0)
(9.99402 0.110465 0)
(9.95473 0.265387 0)
(9.97409 0.219405 0)
(9.91065 0.371826 0)
(9.93867 0.328619 0)
(9.85266 0.48089 0)
(9.88904 0.439783 0)
(9.78099 0.59405 0)
(9.82618 0.55444 0)
(9.6958 0.712684 0)
(9.75037 0.67403 0)
(9.59715 0.838107 0)
(9.66165 0.799919 0)
(9.485 0.97161 0)
(9.56001 0.933433 0)
(9.35925 1.11448 0)
(9.44541 1.07589 0)
(9.21971 1.26801 0)
(9.31774 1.2286 0)
(9.0661 1.43349 0)
(9.17682 1.39289 0)
(8.89808 1.61224 0)
(9.02238 1.57012 0)
(8.71519 1.80558 0)
(8.85407 1.76164 0)
(8.51684 2.01483 0)
(8.67143 1.96884 0)
(8.30225 2.24128 0)
(8.47383 2.19313 0)
(8.0704 2.48621 0)
(8.26043 2.43592 0)
(7.8199 2.75079 0)
(8.03012 2.6986 0)
(7.54887 3.03606 0)
(7.78132 2.98255 0)
(7.2547 3.34284 0)
(7.51187 3.28907 0)
(6.93377 3.67156 0)
(7.21875 3.61933 0)
(6.58107 4.02203 0)
(6.89773 3.97423 0)
(6.18964 4.39301 0)
(6.54288 4.35419 0)
(5.75 4.78152 0)
(6.14591 4.75867 0)
(5.24938 5.18168 0)
(5.69533 5.18546 0)
(4.67123 5.58283 0)
(5.17537 5.62919 0)
(3.99521 5.96667 0)
(4.56542 6.07886 0)
(3.1987 6.30195 0)
(3.83667 6.51376 0)
(2.262 6.54104 0)
(2.97114 6.89438 0)
(1.18074 6.56557 0)
(1.87937 7.15832 0)
(0.812918 7.09998 0)
(9.98553 0.170967 0)
(9.9944 0.117549 0)
(9.95738 0.283705 0)
(9.97572 0.233525 0)
(9.916 0.397642 0)
(9.94258 0.349876 0)
(9.86169 0.514419 0)
(9.89623 0.46836 0)
(9.79468 0.635541 0)
(9.83764 0.590548 0)
(9.71516 0.762433 0)
(9.76712 0.717916 0)
(9.62323 0.896468 0)
(9.68474 0.851879 0)
(9.51892 1.039 0)
(9.59053 0.993818 0)
(9.40218 1.19136 0)
(9.48453 1.1451 0)
(9.27291 1.35493 0)
(9.36671 1.3071 0)
(9.13091 1.53106 0)
(9.23695 1.48121 0)
(8.97593 1.72115 0)
(9.09511 1.66884 0)
(8.8076 1.92665 0)
(8.94093 1.87146 0)
(8.62543 2.14901 0)
(8.77405 2.09056 0)
(8.42874 2.38975 0)
(8.59397 2.32773 0)
(8.2166 2.65041 0)
(8.39999 2.58461 0)
(7.98769 2.93259 0)
(8.19112 2.86292 0)
(7.7402 3.2379 0)
(7.96594 3.16451 0)
(7.47153 3.568 0)
(7.72245 3.49137 0)
(7.17808 3.92452 0)
(7.45781 3.84565 0)
(6.85468 4.30895 0)
(7.16793 4.22967 0)
(6.49408 4.72246 0)
(6.84702 4.6459 0)
(6.08601 5.16536 0)
(6.48673 5.09678 0)
(5.61601 5.63619 0)
(6.07503 5.58429 0)
(5.064 6.12977 0)
(5.59444 6.10894 0)
(4.40267 6.63384 0)
(5.02009 6.66754 0)
(3.59658 7.12143 0)
(4.31309 7.24865 0)
(2.60471 7.54103 0)
(3.4362 7.82051 0)
(1.39453 7.74103 0)
(2.25688 8.31561 0)
(1.00283 8.46584 0)
(9.9865 0.181257 0)
(9.9948 0.124159 0)
(9.96026 0.300839 0)
(9.97747 0.246686 0)
(9.92176 0.421741 0)
(9.94676 0.369655 0)
(9.87132 0.545659 0)
(9.90387 0.494895 0)
(9.80922 0.67413 0)
(9.84976 0.624013 0)
(9.73566 0.808619 0)
(9.78477 0.758514 0)
(9.65079 0.950546 0)
(9.709 0.899851 0)
(9.55469 1.10131 0)
(9.62256 1.04945 0)
(9.4474 1.2623 0)
(9.52552 1.20872 0)
(9.32888 1.43493 0)
(9.41795 1.37907 0)
(9.19905 1.62064 0)
(9.29985 1.56195 0)
(9.05776 1.8209 0)
(9.17114 1.75884 0)
(8.90476 2.03724 0)
(9.03172 1.97127 0)
(8.73971 2.27127 0)
(8.88137 2.20085 0)
(8.56207 2.52469 0)
(8.71976 2.4493 0)
(8.37108 2.79933 0)
(8.54638 2.71847 0)
(8.16563 3.09716 0)
(8.36047 3.0104 0)
(7.94415 3.42037 0)
(8.16092 3.32735 0)
(7.70434 3.77144 0)
(7.9461 3.67195 0)
(7.44292 4.15319 0)
(7.71364 4.04726 0)
(7.15515 4.56888 0)
(7.4601 4.45697 0)
(6.83415 5.02224 0)
(7.18046 4.90558 0)
(6.46986 5.51741 0)
(6.86734 5.39861 0)
(6.04742 6.05852 0)
(6.50968 5.94277 0)
(5.54458 6.64862 0)
(6.09053 6.54597 0)
(4.92768 7.28701 0)
(5.58374 7.21665 0)
(4.14567 7.96163 0)
(4.94326 7.96159 0)
(3.12239 8.63406 0)
(4.11012 8.77596 0)
(1.75668 9.12867 0)
(2.8792 9.62165 0)
(1.36517 10.1864 0)
(9.98753 0.190804 0)
(9.99523 0.130264 0)
(9.96332 0.316715 0)
(9.97932 0.258831 0)
(9.92785 0.444031 0)
(9.95115 0.387878 0)
(9.88147 0.574499 0)
(9.91187 0.519296 0)
(9.82447 0.709689 0)
(9.86242 0.654725 0)
(9.7571 0.851093 0)
(9.80315 0.795694 0)
(9.67956 1.00017 0)
(9.73423 0.943683 0)
(9.59198 1.15835 0)
(9.6558 1.10015 0)
(9.49448 1.32707 0)
(9.56802 1.26653 0)
(9.38711 1.50777 0)
(9.47103 1.44427 0)
(9.26991 1.70193 0)
(9.36494 1.63485 0)
(9.14284 1.9111 0)
(9.24981 1.83978 0)
(9.00582 2.13689 0)
(9.12566 2.06066 0)
(8.85865 2.38101 0)
(8.99244 2.29918 0)
(8.70102 2.64533 0)
(8.85005 2.55717 0)
(8.53243 2.9319 0)
(8.69821 2.83664 0)
(8.35208 3.24304 0)
(8.53652 3.13985 0)
(8.15883 3.58142 0)
(8.36427 3.46944 0)
(7.95093 3.95024 0)
(8.18041 3.8285 0)
(7.72583 4.35338 0)
(7.98335 4.22086 0)
(7.4798 4.79571 0)
(7.77073 4.65131 0)
(7.20727 5.28341 0)
(7.53907 5.12605 0)
(6.89986 5.82447 0)
(7.28313 5.6533 0)
(6.54462 6.42926 0)
(6.99494 6.24422 0)
(6.12081 7.1112 0)
(6.66177 6.91431 0)
(5.59369 7.88749 0)
(6.26308 7.68587 0)
(4.90172 8.77801 0)
(5.75842 8.59243 0)
(3.92783 9.80207 0)
(5.08849 9.6853 0)
(2.43404 10.8579 0)
(3.98086 11.0502 0)
(2.14722 12.5704 0)
(9.98861 0.199569 0)
(9.99567 0.13584 0)
(9.96652 0.331271 0)
(9.98124 0.269914 0)
(9.93419 0.46443 0)
(9.9557 0.404483 0)
(9.89201 0.600834 0)
(9.92016 0.541489 0)
(9.84029 0.742079 0)
(9.87551 0.682597 0)
(9.7793 0.889681 0)
(9.82214 0.829352 0)
(9.70929 1.04512 0)
(9.76025 0.983255 0)
(9.63047 1.20985 0)
(9.69007 1.14578 0)
(9.54303 1.38534 0)
(9.61181 1.31837 0)
(9.44712 1.57304 0)
(9.52572 1.50251 0)
(9.34289 1.77449 0)
(9.432 1.69967 0)
(9.23045 1.99124 0)
(9.33085 1.9114 0)
(9.10987 2.22496 0)
(9.22245 2.13933 0)
(8.98118 2.47746 0)
(9.10695 2.38518 0)
(8.84429 2.75071 0)
(8.98447 2.65085 0)
(8.69905 3.04692 0)
(8.85506 2.93844 0)
(8.54508 3.36865 0)
(8.71869 3.25038 0)
(8.3818 3.71893 0)
(8.5752 3.58948 0)
(8.20824 4.10148 0)
(8.42427 3.95919 0)
(8.02296 4.52095 0)
(8.2653 4.36375 0)
(7.82377 4.98339 0)
(8.0974 4.80864 0)
(7.60739 5.49684 0)
(7.91923 5.3011 0)
(7.36879 6.07236 0)
(7.7288 5.85099 0)
(7.10008 6.72561 0)
(7.52325 6.47224 0)
(6.7881 7.47982 0)
(7.29837 7.18545 0)
(6.40932 8.37174 0)
(7.04871 8.02303 0)
(5.91674 9.46591 0)
(6.76413 9.0415 0)
(5.19774 10.9088 0)
(6.46374 10.3567 0)
(3.88637 13.181 0)
(6.19291 12.3042 0)
(5.26402 16.3768 0)
(0.212908 -0.132106 0)
(0.122641 -0.20853 0)
(0.414208 -0.112424 0)
(0.296711 -0.192504 0)
(0.582837 -0.0887024 0)
(0.472402 -0.157452 0)
(0.720251 -0.0685164 0)
(0.624153 -0.125276 0)
(0.831915 -0.052596 0)
(0.748155 -0.0993957 0)
(0.923054 -0.0403124 0)
(0.849492 -0.07921 0)
(0.998132 -0.0309714 0)
(0.933806 -0.0637101 0)
(1.06091 -0.0239769 0)
(1.0054 -0.0520169 0)
(1.11448 -0.0188052 0)
(1.06744 -0.0433337 0)
(1.16124 -0.0149937 0)
(1.12238 -0.0369366 0)
(1.20297 -0.0121374 0)
(1.17208 -0.0321837 0)
(1.24083 -0.00988475 0)
(1.21788 -0.0285053 0)
(1.27538 -0.00794683 0)
(1.2606 -0.0254041 0)
(1.30672 -0.00612211 0)
(1.30057 -0.022492 0)
(1.33461 -0.00431701 0)
(1.33774 -0.0195496 0)
(1.35879 -0.00251799 0)
(1.37185 -0.016547 0)
(1.37906 -0.000692013 0)
(1.4027 -0.0135446 0)
(1.39512 0.00132103 0)
(1.43021 -0.0104755 0)
(1.40613 0.00374535 0)
(1.45426 -0.00701343 0)
(1.41079 0.0065093 0)
(1.47418 -0.00290113 0)
(1.40797 0.00902996 0)
(1.48869 0.00171127 0)
(1.39823 0.0105701 0)
(1.4967 0.00577347 0)
(1.38478 0.0106802 0)
(1.499 0.00778711 0)
(1.37151 0.00946418 0)
(1.49879 0.00750088 0)
(1.3607 0.00745822 0)
(1.49955 0.00596795 0)
(1.35303 0.00508816 0)
(1.50283 0.00413098 0)
(1.34894 0.0024355 0)
(1.50866 0.00215323 0)
(1.34941 -0.000237465 0)
(1.51685 -0.000239043 0)
(1.35552 -0.00251691 0)
(1.52747 -0.00306868 0)
(1.5437 -0.00523086 0)
(0.187889 -0.300075 0)
(0.0961722 -0.392555 0)
(0.370285 -0.264109 0)
(0.25263 -0.366931 0)
(0.526204 -0.214701 0)
(0.401003 -0.303037 0)
(0.656493 -0.171737 0)
(0.530287 -0.244057 0)
(0.766009 -0.137699 0)
(0.637441 -0.19688 0)
(0.859194 -0.111408 0)
(0.727085 -0.160198 0)
(0.939698 -0.0914068 0)
(0.803587 -0.132024 0)
(1.01049 -0.0764164 0)
(0.870192 -0.110675 0)
(1.07397 -0.0653081 0)
(0.929308 -0.094685 0)
(1.132 -0.0570863 0)
(0.9828 -0.0827731 0)
(1.18599 -0.0508763 0)
(1.03211 -0.0738213 0)
(1.2369 -0.0459111 0)
(1.07832 -0.066841 0)
(1.28527 -0.0415495 0)
(1.1221 -0.0609615 0)
(1.33122 -0.037339 0)
(1.16379 -0.0554831 0)
(1.37466 -0.0330809 0)
(1.20338 -0.0499913 0)
(1.41541 -0.0287966 0)
(1.24062 -0.0444365 0)
(1.45353 -0.0245179 0)
(1.2753 -0.0390134 0)
(1.48923 -0.0200061 0)
(1.30748 -0.0337693 0)
(1.52249 -0.0147705 0)
(1.33758 -0.0281967 0)
(1.55228 -0.0086631 0)
(1.36582 -0.0214314 0)
(1.577 -0.00254598 0)
(1.39138 -0.0132957 0)
(1.59607 0.00207119 0)
(1.4125 -0.00553614 0)
(1.61135 0.00422439 0)
(1.42832 -0.00105779 0)
(1.62592 0.0042549 0)
(1.44079 -0.000735995 0)
(1.64156 0.00325707 0)
(1.45302 -0.00266367 0)
(1.6586 0.00188894 0)
(1.46632 -0.00504835 0)
(1.67661 3.23538e-05 0)
(1.48033 -0.00732605 0)
(1.6949 -0.00242752 0)
(1.49401 -0.00963334 0)
(1.71287 -0.00475831 0)
(1.50626 -0.0120808 0)
(1.51938 -0.0124531 0)
(0.1515 -0.467471 0)
(0.0701671 -0.540941 0)
(0.294552 -0.414222 0)
(0.194736 -0.503732 0)
(0.414764 -0.340089 0)
(0.300413 -0.415281 0)
(0.514757 -0.275692 0)
(0.393021 -0.335216 0)
(0.598904 -0.224637 0)
(0.468308 -0.271782 0)
(0.670673 -0.185016 0)
(0.531241 -0.222573 0)
(0.732854 -0.15464 0)
(0.584715 -0.184791 0)
(0.787653 -0.131609 0)
(0.630884 -0.156078 0)
(0.836817 -0.114286 0)
(0.671412 -0.134457 0)
(0.881736 -0.101252 0)
(0.70761 -0.118253 0)
(0.923484 -0.0912571 0)
(0.740515 -0.106018 0)
(0.962823 -0.0831933 0)
(0.770923 -0.0964629 0)
(1.00018 -0.0761094 0)
(0.799412 -0.0884275 0)
(1.03564 -0.0693092 0)
(0.826314 -0.080941 0)
(1.06902 -0.0624845 0)
(0.85167 -0.0733873 0)
(1.10007 -0.0557312 0)
(0.875211 -0.0656828 0)
(1.1288 -0.0492696 0)
(0.896405 -0.0582123 0)
(1.1557 -0.0428842 0)
(0.915041 -0.0513176 0)
(1.18127 -0.0355784 0)
(0.93166 -0.0444801 0)
(1.20519 -0.0262957 0)
(0.947673 -0.0363103 0)
(1.22613 -0.0159983 0)
(0.963852 -0.0260138 0)
(1.24278 -0.00834235 0)
(0.977962 -0.015405 0)
(1.25557 -0.00600845 0)
(0.982332 -0.0084653 0)
(1.26683 -0.00800895 0)
(0.976281 -0.00709803 0)
(1.27776 -0.0117452 0)
(0.96825 -0.00869598 0)
(1.28823 -0.0154209 0)
(0.96102 -0.0106918 0)
(1.29755 -0.0183374 0)
(0.954947 -0.0122283 0)
(1.30508 -0.0204712 0)
(0.948937 -0.0135003 0)
(1.31084 -0.0210157 0)
(0.943456 -0.014971 0)
(0.939278 -0.0153832 0)
(0.112454 -0.588964 0)
(0.0449048 -0.651082 0)
(0.209513 -0.516996 0)
(0.130394 -0.59655 0)
(0.286644 -0.422505 0)
(0.186234 -0.4873 0)
(0.349377 -0.342413 0)
(0.237534 -0.392409 0)
(0.401351 -0.27952 0)
(0.275054 -0.318045 0)
(0.44488 -0.230819 0)
(0.305434 -0.260405 0)
(0.481793 -0.193463 0)
(0.329668 -0.216115 0)
(0.513477 -0.165058 0)
(0.34897 -0.182329 0)
(0.541032 -0.143609 0)
(0.364343 -0.156748 0)
(0.565355 -0.127416 0)
(0.376599 -0.137465 0)
(0.587175 -0.114989 0)
(0.386376 -0.122846 0)
(0.607067 -0.104989 0)
(0.394218 -0.111441 0)
(0.625422 -0.0962318 0)
(0.400652 -0.101923 0)
(0.642387 -0.0878001 0)
(0.406129 -0.0931189 0)
(0.6578 -0.079231 0)
(0.410916 -0.0841901 0)
(0.671212 -0.0706403 0)
(0.414894 -0.0748613 0)
(0.682231 -0.0625307 0)
(0.41696 -0.0655751 0)
(0.691181 -0.0551888 0)
(0.416349 -0.0571564 0)
(0.699239 -0.0481308 0)
(0.411689 -0.0496128 0)
(0.70753 -0.0401198 0)
(0.405016 -0.0414669 0)
(0.714428 -0.0300405 0)
(0.396603 -0.0302025 0)
(0.713588 -0.0189512 0)
(0.388204 -0.014907 0)
(0.699726 -0.0103883 0)
(0.375415 -0.000440608 0)
(0.676638 -0.00655644 0)
(0.357358 0.005952 0)
(0.652163 -0.00542658 0)
(0.337323 0.00481134 0)
(0.628539 -0.0046024 0)
(0.31821 0.00203838 0)
(0.606331 -0.00450995 0)
(0.304416 -0.000544444 0)
(0.586268 -0.00567285 0)
(0.292565 -0.00319412 0)
(0.571381 -0.00778153 0)
(0.282515 -0.00750373 0)
(0.272492 -0.0140701 0)
(0.0679483 -0.667485 0)
(0.0185782 -0.717634 0)
(0.114102 -0.575928 0)
(0.0587998 -0.640688 0)
(0.14444 -0.465827 0)
(0.0605549 -0.515627 0)
(0.165552 -0.375633 0)
(0.0674951 -0.411655 0)
(0.180446 -0.305338 0)
(0.0631863 -0.331303 0)
(0.190328 -0.250936 0)
(0.0565007 -0.268994 0)
(0.196193 -0.209139 0)
(0.0465148 -0.221091 0)
(0.198806 -0.17725 0)
(0.0340652 -0.184494 0)
(0.198793 -0.153076 0)
(0.0197517 -0.156738 0)
(0.19666 -0.134787 0)
(0.00406744 -0.13578 0)
(0.19285 -0.120797 0)
(-0.0126254 -0.119908 0)
(0.187774 -0.109666 0)
(-0.0299661 -0.107619 0)
(0.181812 -0.100066 0)
(-0.0474993 -0.097539 0)
(0.175287 -0.0908644 0)
(-0.0647361 -0.0884353 0)
(0.168342 -0.081332 0)
(-0.0812447 -0.0793224 0)
(0.160681 -0.0713352 0)
(-0.0968212 -0.0696183 0)
(0.15123 -0.061251 0)
(-0.112068 -0.0592605 0)
(0.138056 -0.0512824 0)
(-0.127513 -0.0485618 0)
(0.11966 -0.0405945 0)
(-0.144881 -0.0378949 0)
(0.0959763 -0.0272823 0)
(-0.163043 -0.0267367 0)
(0.0696408 -0.0106554 0)
(-0.182219 -0.0142102 0)
(0.0459726 0.00556993 0)
(-0.199208 -0.00087385 0)
(0.0294374 0.0149707 0)
(-0.210617 0.00913176 0)
(0.0166842 0.0154699 0)
(-0.219335 0.0131606 0)
(0.00417201 0.0107148 0)
(-0.229161 0.0117166 0)
(-0.00448923 0.00493857 0)
(-0.239458 0.0067055 0)
(-0.00989911 -0.000371297 0)
(-0.245349 0.00230182 0)
(-0.0127806 -0.00570094 0)
(-0.249207 -0.00171388 0)
(-0.015444 -0.0129747 0)
(-0.25432 -0.00616788 0)
(-0.260993 -0.0130676 0)
(0.0165736 -0.696811 0)
(-0.0107511 -0.733866 0)
(0.00888458 -0.585404 0)
(-0.0211372 -0.633335 0)
(-0.0106306 -0.464026 0)
(-0.073385 -0.497405 0)
(-0.032743 -0.368317 0)
(-0.114061 -0.391496 0)
(-0.0586425 -0.29428 0)
(-0.161435 -0.308249 0)
(-0.0866248 -0.237439 0)
(-0.207449 -0.244674 0)
(-0.115905 -0.194068 0)
(-0.252812 -0.196245 0)
(-0.145821 -0.161198 0)
(-0.296685 -0.159708 0)
(-0.17595 -0.136394 0)
(-0.338564 -0.132364 0)
(-0.20601 -0.11768 0)
(-0.378132 -0.112036 0)
(-0.23576 -0.103418 0)
(-0.415303 -0.0969644 0)
(-0.264934 -0.0921626 0)
(-0.450084 -0.0856515 0)
(-0.29323 -0.0826134 0)
(-0.48247 -0.0767353 0)
(-0.320308 -0.0736821 0)
(-0.512412 -0.0689972 0)
(-0.345763 -0.0646197 0)
(-0.539818 -0.0614812 0)
(-0.369152 -0.0551145 0)
(-0.56456 -0.0536123 0)
(-0.390165 -0.0452621 0)
(-0.586558 -0.0452201 0)
(-0.408797 -0.0353273 0)
(-0.605873 -0.0364066 0)
(-0.42547 -0.025358 0)
(-0.622704 -0.0272741 0)
(-0.44023 -0.0152077 0)
(-0.636931 -0.0175571 0)
(-0.452155 -0.00515101 0)
(-0.648013 -0.00696869 0)
(-0.45918 0.00398366 0)
(-0.655763 0.00329171 0)
(-0.463212 0.0104867 0)
(-0.659017 0.0114658 0)
(-0.467154 0.0125506 0)
(-0.662677 0.0153884 0)
(-0.47213 0.0101977 0)
(-0.66758 0.0144632 0)
(-0.478846 0.0059307 0)
(-0.674139 0.0103242 0)
(-0.485462 0.00207428 0)
(-0.680881 0.00578256 0)
(-0.491737 -0.0020527 0)
(-0.686912 0.00151001 0)
(-0.495961 -0.00763175 0)
(-0.694244 -0.00404923 0)
(-0.700701 -0.0113131 0)
(-0.0387149 -0.669724 0)
(-0.0452822 -0.695947 0)
(-0.102124 -0.542299 0)
(-0.108381 -0.572696 0)
(-0.170234 -0.418593 0)
(-0.212344 -0.433809 0)
(-0.239809 -0.323332 0)
(-0.301129 -0.328067 0)
(-0.307702 -0.250501 0)
(-0.389057 -0.247816 0)
(-0.372603 -0.195701 0)
(-0.470344 -0.188268 0)
(-0.433492 -0.154813 0)
(-0.544505 -0.144575 0)
(-0.48981 -0.124697 0)
(-0.611211 -0.113046 0)
(-0.541252 -0.102811 0)
(-0.670649 -0.0907493 0)
(-0.587797 -0.0870721 0)
(-0.723302 -0.0752718 0)
(-0.629682 -0.0757619 0)
(-0.769841 -0.0646619 0)
(-0.667281 -0.0674039 0)
(-0.811006 -0.0573402 0)
(-0.70099 -0.0606953 0)
(-0.847471 -0.0519515 0)
(-0.731158 -0.054564 0)
(-0.879796 -0.0473416 0)
(-0.757988 -0.0482745 0)
(-0.908404 -0.042676 0)
(-0.781532 -0.0414642 0)
(-0.933565 -0.0375003 0)
(-0.801781 -0.0340644 0)
(-0.955426 -0.0316896 0)
(-0.818832 -0.0261105 0)
(-0.974108 -0.0252831 0)
(-0.832986 -0.017538 0)
(-0.98976 -0.0182581 0)
(-0.844394 -0.00825754 0)
(-1.00253 -0.0104618 0)
(-0.853231 0.00122133 0)
(-1.01244 -0.00160248 0)
(-0.858816 0.00933574 0)
(-1.01881 0.00660335 0)
(-0.862054 0.0144318 0)
(-1.02274 0.0133402 0)
(-0.864917 0.0156633 0)
(-1.02623 0.0170066 0)
(-0.869059 0.0134248 0)
(-1.03056 0.016749 0)
(-0.87521 0.009435 0)
(-1.03642 0.0136385 0)
(-0.882391 0.00498546 0)
(-1.04339 0.00956048 0)
(-0.888984 -0.000365516 0)
(-1.0509 0.00489704 0)
(-0.894412 -0.00691097 0)
(-1.05817 -0.00132682 0)
(-1.06347 -0.00798352 0)
(-0.0982767 -0.588769 0)
(-0.0860398 -0.599692 0)
(-0.216272 -0.452347 0)
(-0.202353 -0.459857 0)
(-0.334008 -0.33121 0)
(-0.357016 -0.323877 0)
(-0.446284 -0.241471 0)
(-0.489305 -0.225709 0)
(-0.549198 -0.176228 0)
(-0.611349 -0.156208 0)
(-0.641165 -0.129755 0)
(-0.718863 -0.108338 0)
(-0.721899 -0.0971419 0)
(-0.811897 -0.0760662 0)
(-0.792085 -0.0747374 0)
(-0.891146 -0.0548933 0)
(-0.852833 -0.0598134 0)
(-0.957886 -0.0416055 0)
(-0.905415 -0.050205 0)
(-1.0145 -0.0337395 0)
(-0.951086 -0.0441571 0)
(-1.06299 -0.0294396 0)
(-0.990938 -0.0402518 0)
(-1.10503 -0.0273321 0)
(-1.02585 -0.0373125 0)
(-1.14189 -0.0262858 0)
(-1.05653 -0.0344373 0)
(-1.1744 -0.0253167 0)
(-1.08351 -0.0310785 0)
(-1.20302 -0.0237666 0)
(-1.10708 -0.0270178 0)
(-1.22821 -0.0213665 0)
(-1.12739 -0.0222339 0)
(-1.25025 -0.0181187 0)
(-1.14455 -0.0167225 0)
(-1.26924 -0.0140934 0)
(-1.15875 -0.0104005 0)
(-1.28522 -0.00921197 0)
(-1.17028 -0.00324024 0)
(-1.29823 -0.00328674 0)
(-1.1786 0.00437208 0)
(-1.30819 0.00344604 0)
(-1.18455 0.0113685 0)
(-1.31507 0.0101331 0)
(-1.189 0.0162953 0)
(-1.32052 0.0159148 0)
(-1.19302 0.0180604 0)
(-1.32541 0.0192797 0)
(-1.19792 0.0167187 0)
(-1.33076 0.019454 0)
(-1.20426 0.0134147 0)
(-1.33717 0.0170546 0)
(-1.21138 0.00905811 0)
(-1.34469 0.0133065 0)
(-1.21846 0.00349758 0)
(-1.35312 0.00853218 0)
(-1.22575 -0.00284166 0)
(-1.36125 0.00233328 0)
(-1.36579 -0.00345305 0)
(-0.163459 -0.452748 0)
(-0.135832 -0.439594 0)
(-0.337894 -0.316635 0)
(-0.312546 -0.293043 0)
(-0.502251 -0.208606 0)