/*--------------------------------*- C++ -*----------------------------------*\
  =========                 |
  \\      /  F ield         | OpenFOAM: The Open Source CFD Toolbox
   \\    /   O peration     | Website:  https://openfoam.org
    \\  /    A nd           | Version:  7
     \\/     M anipulation  |
\*---------------------------------------------------------------------------*/
FoamFile
{
    version     2.0;
    format      ascii;
    class       volScalarField;
    location    "6.98";
    object      T;
}
// * * * * * * * * * * * * * * * * * * * * * * * * * * * * * * * * * * * * * //

dimensions      [0 0 0 1 0 0 0];

internalField   nonuniform List<scalar> 
12013
(
300.115
300.348
300.587
300.83
301.074
301.319
301.562
301.804
302.041
302.275
302.503
302.726
302.943
303.154
303.358
303.555
303.746
303.93
304.107
304.278
304.443
304.603
304.756
304.904
305.047
305.186
305.32
305.45
305.577
305.7
305.821
305.939
306.055
306.171
306.285
306.4
306.515
306.632
306.752
306.875
307.002
307.136
307.276
307.425
307.585
307.756
307.942
308.144
308.366
308.608
308.876
309.171
309.497
309.859
310.26
310.706
311.201
311.75
312.361
313.038
313.79
314.624
315.549
316.573
317.708
318.964
320.353
321.89
323.59
325.471
327.552
329.858
332.416
335.259
338.428
341.975
345.97
350.509
355.739
361.901
369.461
300.115
300.348
300.587
300.83
301.075
301.319
301.563
301.804
302.042
302.276
302.505
302.728
302.945
303.155
303.359
303.557
303.748
303.932
304.109
304.28
304.446
304.605
304.758
304.907
305.05
305.188
305.323
305.453
305.579
305.703
305.823
305.941
306.058
306.173
306.288
306.402
306.518
306.635
306.754
306.877
307.005
307.138
307.278
307.427
307.587
307.758
307.944
308.146
308.367
308.609
308.876
309.171
309.497
309.858
310.259
310.704
311.198
311.747
312.356
313.032
313.783
314.615
315.538
316.56
317.691
318.943
320.328
321.859
323.552
325.424
327.495
329.786
332.325
335.143
338.277
341.775
345.696
350.116
355.135
360.878
367.457
300.115
300.349
300.588
300.831
301.076
301.321
301.565
301.806
302.045
302.279
302.508
302.731
302.948
303.159
303.363
303.561
303.752
303.936
304.114
304.285
304.45
304.61
304.763
304.912
305.055
305.194
305.328
305.458
305.585
305.708
305.829
305.947
306.063
306.179
306.293
306.408
306.523
306.64
306.759
306.882
307.009
307.143
307.283
307.432
307.591
307.762
307.947
308.149
308.369
308.611
308.877
309.171
309.496
309.857
310.256
310.7
311.192
311.739
312.346
313.019
313.767
314.595
315.513
316.529
317.654
318.897
320.272
321.791
323.469
325.322
327.368
329.629
332.128
334.892
337.954
341.351
345.125
349.324
353.996
359.168
364.802
300.115
300.349
300.589
300.832
301.078
301.323
301.568
301.81
302.048
302.283
302.512
302.736
302.954
303.165
303.37
303.568
303.759
303.943
304.121
304.293
304.458
304.618
304.772
304.92
305.064
305.203
305.337
305.467
305.594
305.717
305.838
305.956
306.072
306.188
306.302
306.417
306.532
306.649
306.768
306.89
307.017
307.15
307.29
307.439
307.597
307.768
307.952
308.153
308.373
308.614
308.879
309.172
309.496
309.854
310.252
310.693
311.183
311.726
312.329
312.998
313.74
314.562
315.472
316.479
317.593
318.823
320.181
321.68
323.334
325.156
327.164
329.375
331.811
334.493
337.446
340.695
344.266
348.18
352.446
357.045
361.906
300.116
300.35
300.591
300.835
301.081
301.327
301.572
301.815
302.054
302.289
302.519
302.744
302.962
303.174
303.379
303.577
303.769
303.954
304.132
304.304
304.47
304.63
304.784
304.933
305.077
305.216
305.35
305.48
305.607
305.731
305.851
305.97
306.086
306.201
306.315
306.43
306.545
306.661
306.78
306.903
307.029
307.162
307.301
307.449
307.607
307.777
307.961
308.16
308.379
308.618
308.882
309.173
309.495
309.851
310.245
310.683
311.168
311.707
312.305
312.967
313.701
314.513
315.412
316.406
317.504
318.715
320.05
321.521
323.139
324.918
326.872
329.016
331.367
333.94
336.753
339.819
343.149
346.747
350.601
354.677
358.91
300.116
300.351
300.593
300.838
301.085
301.332
301.578
301.822
302.062
302.298
302.529
302.754
302.973
303.186
303.392
303.591
303.783
303.969
304.148
304.32
304.487
304.647
304.802
304.951
305.095
305.234
305.368
305.499
305.626
305.749
305.87
305.988
306.105
306.22
306.334
306.448
306.563
306.679
306.798
306.92
307.046
307.178
307.316
307.463
307.62
307.789
307.972
308.17
308.387
308.625
308.886
309.175
309.493
309.846
310.237
310.669
311.15
311.682
312.271
312.925
313.648
314.448
315.332
316.308
317.384
318.57
319.874
321.307
322.879
324.603
326.488
328.548
330.793
333.235
335.882
338.742
341.813
345.089
348.551
352.163
355.874
300.117
300.353
300.596
300.842
301.09
301.338
301.586
301.831
302.072
302.309
302.542
302.768
302.988
303.202
303.409
303.609
303.802
303.989
304.168
304.342
304.508
304.669
304.824
304.974
305.118
305.258
305.393
305.523
305.65
305.774
305.895
306.013
306.129
306.244
306.358
306.472
306.587
306.703
306.821
306.942
307.068
307.199
307.337
307.483
307.639
307.806
307.987
308.184
308.398
308.634
308.892
309.177
309.492
309.84
310.226
310.652
311.125
311.649
312.229
312.871
313.58
314.364
315.229
316.182
317.231
318.383
319.649
321.035
322.551
324.207
326.01
327.969
330.093
332.386
334.853
337.493
340.3
343.264
346.362
349.565
352.834
300.117
300.355
300.599
300.847
301.097
301.347
301.596
301.842
302.086
302.324
302.558
302.786
303.008
303.223
303.431
303.632
303.827
304.014
304.195
304.369
304.537
304.698
304.854
305.004
305.149
305.289
305.424
305.555
305.682
305.806
305.927
306.045
306.162
306.276
306.39
306.504
306.618
306.733
306.851
306.971
307.096
307.226
307.363
307.508
307.662
307.828
308.007
308.201
308.413
308.645
308.9
309.181
309.491
309.834
310.212
310.631
311.095
311.608
312.176
312.803
313.496
314.259
315.1
316.025
317.041
318.155
319.373
320.704
322.154
323.73
325.439
327.286
329.275
331.408
333.686
336.103
338.652
341.32
344.087
346.929
349.815
300.118
300.358
300.604
300.854
301.105
301.357
301.608
301.857
302.102
302.343
302.579
302.809
303.032
303.249
303.459
303.662
303.857
304.046
304.228
304.403
304.572
304.735
304.891
305.042
305.188
305.328
305.464
305.596
305.723
305.847
305.968
306.086
306.202
306.317
306.431
306.544
306.657
306.772
306.889
307.009
307.133
307.261
307.397
307.54
307.693
307.856
308.033
308.224
308.433
308.661
308.912
309.187
309.491
309.827
310.197
310.607
311.06
311.56
312.113
312.722
313.394
314.133
314.946
315.838
316.815
317.882
319.047
320.313
321.688
323.176
324.781
326.506
328.352
330.32
332.406
334.605
336.907
339.3
341.766
344.287
346.838
300.119
300.361
300.61
300.862
301.116
301.371
301.624
301.876
302.123
302.367
302.605
302.837
303.063
303.281
303.493
303.698
303.896
304.086
304.27
304.447
304.617
304.78
304.938
305.09
305.236
305.377
305.514
305.646
305.774
305.898
306.019
306.137
306.253
306.368
306.481
306.594
306.707
306.821
306.937
307.056
307.178
307.306
307.439
307.581
307.731
307.892
308.065
308.253
308.458
308.682
308.927
309.196
309.493
309.82
310.181
310.58
311.019
311.504
312.039
312.628
313.276
313.987
314.767
315.62
316.552
317.567
318.671
319.867
321.16
322.552
324.046
325.643
327.343
329.144
331.042
333.029
335.098
337.237
339.432
341.667
343.924
300.121
300.366
300.617
300.872
301.129
301.387
301.644
301.898
302.149
302.395
302.637
302.872
303.1
303.322
303.536
303.743
303.943
304.136
304.321
304.5
304.671
304.837
304.996
305.149
305.296
305.438
305.575
305.708
305.836
305.961
306.082
306.2
306.316
306.43
306.543
306.656
306.768
306.881
306.996
307.114
307.235
307.36
307.492
307.631
307.779
307.937
308.107
308.291
308.491
308.709
308.948
309.21
309.498
309.815
310.165
310.55
310.975
311.442
311.956
312.521
313.141
313.821
314.563
315.374
316.256
317.214
318.251
319.37
320.575
321.867
323.246
324.713
326.267
327.903
329.619
331.406
333.258
335.164
337.114
339.093
341.089
300.122
300.371
300.625
300.884
301.145
301.407
301.667
301.926
302.18
302.431
302.675
302.914
303.146
303.37
303.588
303.798
304.001
304.196
304.384
304.564
304.738
304.905
305.066
305.22
305.369
305.512
305.65
305.784
305.913
306.038
306.159
306.277
306.393
306.507
306.62
306.731
306.843
306.955
307.069
307.185
307.304
307.428
307.557
307.694
307.838
307.993
308.158
308.338
308.532
308.744
308.976
309.229
309.508
309.814
310.151
310.521
310.928
311.375
311.866
312.405
312.994
313.638
314.339
315.103
315.931
316.827
317.793
318.832
319.946
321.134
322.397
323.735
325.144
326.622
328.164
329.764
331.416
333.11
334.837
336.588
338.353
300.124
300.377
300.636
300.899
301.165
301.431
301.696
301.959
302.218
302.473
302.722
302.965
303.201
303.43
303.651
303.864
304.07
304.269
304.459
304.643
304.819
304.988
305.151
305.307
305.458
305.602
305.741
305.876
306.005
306.131
306.253
306.371
306.487
306.601
306.713
306.824
306.934
307.045
307.158
307.272
307.389
307.511
307.638
307.771
307.912
308.062
308.223
308.397
308.585
308.79
309.013
309.257
309.525
309.818
310.14
310.494
310.881
311.307
311.772
312.281
312.836
313.442
314.099
314.812
315.583
316.414
317.307
318.264
319.284
320.369
321.517
322.728
323.998
325.325
326.704
328.13
329.597
331.098
332.626
334.173
335.73
300.127
300.384
300.648
300.917
301.188
301.46
301.731
301.999
302.264
302.524
302.778
303.026
303.267
303.5
303.726
303.944
304.154
304.356
304.55
304.737
304.916
305.088
305.254
305.412
305.564
305.71
305.851
305.986
306.117
306.243
306.365
306.484
306.6
306.713
306.825
306.935
307.044
307.154
307.265
307.377
307.493
307.611
307.735
307.865
308.002
308.147
308.303
308.471
308.652
308.849
309.063
309.296
309.552
309.831
310.137
310.472
310.839
311.24
311.678
312.155
312.675
313.239
313.85
314.511
315.222
315.987
316.805
317.678
318.606
319.589
320.625
321.713
322.851
324.036
325.263
326.529
327.828
329.154
330.502
331.866
333.239
300.13
300.393
300.663
300.938
301.216
301.494
301.772
302.047
302.318
302.585
302.845
303.099
303.346
303.585
303.816
304.039
304.254
304.461
304.659
304.85
305.033
305.208
305.376
305.537
305.692
305.84
305.982
306.119
306.251
306.378
306.5
306.619
306.735
306.848
306.959
307.068
307.177
307.285
307.394
307.504
307.617
307.733
307.853
307.979
308.112
308.252
308.402
308.563
308.737
308.924
309.128
309.35
309.592
309.857
310.145
310.46
310.805
311.18
311.588
312.032
312.514
313.036
313.599
314.206
314.857
315.555
316.299
317.089
317.927
318.811
319.74
320.712
321.726
322.778
323.865
324.984
326.13
327.298
328.485
329.685
330.893
300.133
300.404
300.681
300.963
301.249
301.535
301.82
302.103
302.382
302.657
302.925
303.186
303.44
303.686
303.923
304.152
304.373
304.585
304.789
304.984
305.171
305.351
305.522
305.686
305.844
305.994
306.139
306.277
306.41
306.538
306.661
306.78
306.896
307.009
307.119
307.228
307.335
307.442
307.548
307.657
307.766
307.879
307.996
308.117
308.245
308.38
308.524
308.677
308.842
309.021
309.214
309.423
309.651
309.899
310.169
310.464
310.784
311.132
311.51
311.92
312.364
312.842
313.357
313.909
314.501
315.132
315.803
316.514
317.264
318.054
318.881
319.745
320.643
321.573
322.532
323.517
324.524
325.551
326.593
327.646
328.707
300.137
300.416
300.702
300.993
301.288
301.583
301.878
302.17
302.459
302.742
303.019
303.289
303.551
303.805
304.05
304.286
304.514
304.732
304.942
305.143
305.335
305.519
305.695
305.863
306.023
306.177
306.323
306.464
306.598
306.727
306.852
306.971
307.087
307.2
307.309
307.417
307.522
307.627
307.732
307.838
307.945
308.054
308.167
308.284
308.406
308.535
308.672
308.817
308.974
309.142
309.323
309.52
309.733
309.964
310.215
310.488
310.784
311.104
311.451
311.827
312.231
312.666
313.133
313.632
314.165
314.732
315.333
315.967
316.635
317.336
318.069
318.831
319.623
320.441
321.283
322.147
323.03
323.929
324.841
325.764
326.693
300.142
300.431
300.727
301.029
301.334
301.64
301.946
302.249
302.548
302.842
303.13
303.41
303.682
303.945
304.199
304.444
304.68
304.906
305.123
305.33
305.529
305.718
305.899
306.071
306.235
306.392
306.541
306.684
306.82
306.951
307.076
307.196
307.312
307.424
307.533
307.64
307.744
307.847
307.95
308.053
308.156
308.262
308.37
308.482
308.599
308.722
308.851
308.989
309.136
309.293
309.463
309.645
309.843
310.057
310.288
310.539
310.81
311.103
311.419
311.76
312.126
312.519
312.939
313.386
313.863
314.368
314.902
315.465
316.056
316.674
317.319
317.989
318.683
319.4
320.136
320.892
321.663
322.448
323.244
324.05
324.862
300.148
300.448
300.756
301.07
301.388
301.707
302.026
302.342
302.654
302.96
303.26
303.552
303.836
304.11
304.375
304.63
304.875
305.11
305.336
305.551
305.756
305.951
306.138
306.315
306.484
306.644
306.797
306.942
307.081
307.213
307.339
307.46
307.576
307.688
307.796
307.902
308.005
308.106
308.206
308.306
308.406
308.508
308.612
308.718
308.829
308.945
309.067
309.196
309.333
309.48
309.637
309.806
309.988
310.184
310.396
310.625
310.872
311.137
311.423
311.73
312.059
312.41
312.785
313.184
313.607
314.055
314.526
315.022
315.542
316.084
316.649
317.235
317.841
318.466
319.108
319.765
320.437
321.12
321.814
322.515
323.223
300.154
300.468
300.79
301.119
301.451
301.786
302.119
302.45
302.777
303.098
303.413
303.719
304.016
304.303
304.581
304.848
305.104
305.349
305.584
305.808
306.021
306.224
306.417
306.6
306.774
306.938
307.095
307.243
307.384
307.518
307.646
307.767
307.884
307.996
308.103
308.207
308.309
308.408
308.505
308.602
308.699
308.796
308.896
308.997
309.102
309.211
309.325
309.445
309.572
309.708
309.853
310.008
310.174
310.353
310.546
310.753
310.976
311.215
311.471
311.745
312.039
312.351
312.684
313.037
313.41
313.804
314.218
314.653
315.107
315.581
316.073
316.583
317.11
317.653
318.21
318.78
319.363
319.956
320.558
321.167
321.783
300.162
300.492
300.83
301.176
301.526
301.877
302.229
302.577
302.922
303.26
303.591
303.914
304.227
304.529
304.821
305.102
305.371
305.628
305.873
306.107
306.33
306.541
306.741
306.931
307.11
307.28
307.44
307.592
307.736
307.872
308.001
308.124
308.24
308.352
308.459
308.562
308.661
308.758
308.853
308.947
309.04
309.133
309.228
309.323
309.422
309.524
309.63
309.742
309.859
309.984
310.116
310.258
310.409
310.571
310.744
310.931
311.13
311.344
311.572
311.816
312.076
312.352
312.645
312.955
313.283
313.627
313.989
314.368
314.763
315.175
315.602
316.044
316.501
316.971
317.453
317.946
318.45
318.963
319.484
320.012
320.546
300.171
300.519
300.877
301.243
301.612
301.985
302.356
302.726
303.09
303.449
303.799
304.141
304.472
304.792
305.101
305.397
305.68
305.951
306.209
306.454
306.687
306.907
307.116
307.313
307.498
307.674
307.839
307.994
308.141
308.28
308.41
308.534
308.651
308.763
308.869
308.971
309.068
309.163
309.255
309.346
309.435
309.524
309.613
309.703
309.795
309.89
309.989
310.091
310.199
310.313
310.433
310.561
310.698
310.843
310.999
311.165
311.343
311.533
311.735
311.95
312.179
312.421
312.678
312.949
313.235
313.535
313.85
314.178
314.521
314.877
315.247
315.629
316.023
316.428
316.844
317.27
317.704
318.147
318.596
319.052
319.514
300.182
300.552
300.932
301.32
301.714
302.11
302.505
302.898
303.287
303.668
304.041
304.405
304.757
305.097
305.425
305.738
306.039
306.325
306.597
306.855
307.099
307.329
307.547
307.752
307.944
308.126
308.296
308.455
308.605
308.746
308.879
309.004
309.121
309.233
309.338
309.439
309.535
309.627
309.716
309.803
309.888
309.973
310.057
310.142
310.228
310.315
310.406
310.5
310.598
310.701
310.81
310.925
311.048
311.178
311.316
311.464
311.621
311.789
311.966
312.155
312.356
312.568
312.792
313.028
313.276
313.536
313.808
314.093
314.388
314.696
315.014
315.343
315.682
316.031
316.388
316.755
317.128
317.509
317.897
318.289
318.687
300.194
300.589
300.996
301.411
301.831
302.255
302.678
303.099
303.515
303.923
304.322
304.711
305.087
305.45
305.799
306.133
306.451
306.754
307.042
307.314
307.571
307.813
308.04
308.254
308.454
308.641
308.817
308.981
309.134
309.278
309.412
309.538
309.656
309.767
309.872
309.971
310.065
310.155
310.241
310.325
310.406
310.486
310.565
310.644
310.723
310.804
310.887
310.973
311.062
311.155
311.253
311.356
311.464
311.58
311.703
311.833
311.971
312.118
312.274
312.439
312.614
312.798
312.993
313.197
313.412
313.637
313.872
314.117
314.371
314.636
314.909
315.192
315.483
315.782
316.089
316.403
316.724
317.051
317.384
317.722
318.064
300.209
300.633
301.07
301.516
301.968
302.424
302.88
303.332
303.779
304.218
304.647
305.064
305.468
305.856
306.229
306.585
306.924
307.246
307.551
307.838
308.109
308.363
308.601
308.824
309.032
309.226
309.407
309.576
309.733
309.879
310.015
310.142
310.26
310.371
310.474
310.572
310.664
310.751
310.834
310.914
310.992
311.067
311.141
311.214
311.288
311.362
311.437
311.515
311.595
311.678
311.765
311.857
311.954
312.056
312.163
312.278
312.399
312.527
312.663
312.807
312.958
313.118
313.287
313.463
313.648
313.842
314.044
314.255
314.474
314.7
314.935
315.177
315.427
315.683
315.946
316.216
316.491
316.771
317.057
317.347
317.641
300.225
300.684
301.156
301.638
302.128
302.62
303.113
303.602
304.086
304.56
305.022
305.472
305.906
306.323
306.722
307.103
307.465
307.807
308.13
308.434
308.719
308.986
309.235
309.468
309.684
309.885
310.072
310.245
310.405
310.554
310.691
310.819
310.937
311.048
311.15
311.246
311.336
311.42
311.5
311.576
311.649
311.72
311.789
311.857
311.924
311.992
312.06
312.13
312.202
312.276
312.353
312.434
312.519
312.609
312.703
312.803
312.909
313.021
313.139
313.263
313.394
313.532
313.678
313.83
313.989
314.156
314.33
314.51
314.698
314.892
315.094
315.301
315.515
315.734
315.959
316.19
316.426
316.666
316.91
317.159
317.411
300.245
300.743
301.256
301.78
302.312
302.848
303.383
303.915
304.439
304.953
305.454
305.939
306.407
306.856
307.285
307.693
308.079
308.443
308.785
309.107
309.407
309.687
309.948
310.19
310.415
310.622
310.814
310.992
311.155
311.306
311.445
311.573
311.691
311.801
311.902
311.995
312.083
312.164
312.241
312.313
312.382
312.448
312.512
312.574
312.636
312.697
312.759
312.821
312.885
312.951
313.019
313.09
313.165
313.243
313.326
313.413
313.504
313.601
313.704
313.811
313.925
314.044
314.169
314.3
314.437
314.58
314.729
314.884
315.045
315.212
315.384
315.562
315.745
315.933
316.126
316.323
316.525
316.73
316.94
317.153
317.369
300.268
300.812
301.372
301.945
302.526
303.111
303.696
304.275
304.846
305.405
305.949
306.475
306.98
307.464
307.924
308.361
308.773
309.16
309.523
309.862
310.178
310.472
310.744
310.996
311.228
311.442
311.639
311.82
311.986
312.139
312.278
312.406
312.524
312.632
312.731
312.822
312.907
312.985
313.058
313.127
313.191
313.253
313.312
313.369
313.425
313.48
313.535
313.591
313.647
313.705
313.765
313.828
313.893
313.961
314.033
314.109
314.188
314.272
314.36
314.454
314.551
314.654
314.762
314.875
314.993
315.116
315.244
315.377
315.515
315.658
315.806
315.958
316.115
316.276
316.442
316.611
316.784
316.96
317.14
317.322
317.508
300.294
300.892
301.507
302.136
302.774
303.416
304.056
304.69
305.314
305.924
306.515
307.085
307.632
308.153
308.647
309.114
309.553
309.965
310.349
310.706
311.037
311.344
311.627
311.887
312.127
312.346
312.547
312.731
312.899
313.052
313.192
313.319
313.435
313.541
313.638
313.727
313.808
313.883
313.952
314.017
314.077
314.134
314.188
314.24
314.291
314.341
314.39
314.439
314.49
314.541
314.593
314.648
314.705
314.764
314.827
314.892
314.961
315.034
315.111
315.191
315.276
315.365
315.458
315.555
315.657
315.763
315.874
315.988
316.107
316.23
316.357
316.488
316.623
316.761
316.903
317.049
317.197
317.349
317.503
317.66
317.819
300.324
300.984
301.664
302.357
303.06
303.767
304.471
305.167
305.851
306.516
307.16
307.778
308.369
308.93
309.46
309.959
310.426
310.861
311.266
311.64
311.986
312.305
312.597
312.865
313.11
313.334
313.538
313.724
313.892
314.045
314.184
314.31
314.424
314.528
314.622
314.707
314.785
314.857
314.922
314.983
315.039
315.091
315.141
315.189
315.234
315.279
315.323
315.367
315.412
315.457
315.503
315.551
315.601
315.653
315.707
315.765
315.825
315.888
315.955
316.025
316.098
316.176
316.256
316.341
316.429
316.521
316.617
316.716
316.819
316.925
317.035
317.148
317.265
317.384
317.507
317.632
317.76
317.891
318.024
318.159
318.296
300.36
301.092
301.845
302.613
303.391
304.172
304.948
305.714
306.463
307.191
307.891
308.562
309.2
309.803
310.369
310.9
311.394
311.853
312.276
312.667
313.026
313.354
313.654
313.928
314.177
314.404
314.609
314.795
314.963
315.114
315.251
315.375
315.486
315.587
315.678
315.76
315.834
315.902
315.964
316.02
316.073
316.122
316.167
316.211
316.252
316.293
316.333
316.372
316.412
316.452
316.493
316.536
316.58
316.626
316.674
316.725
316.778
316.834
316.892
316.954
317.018
317.086
317.157
317.231
317.308
317.389
317.472
317.559
317.649
317.742
317.837
317.936
318.037
318.141
318.247
318.356
318.467
318.58
318.696
318.813
318.932
300.401
301.216
302.054
302.908
303.772
304.637
305.495
306.339
307.161
307.956
308.718
309.443
310.13
310.775
311.378
311.939
312.459
312.939
313.379
313.783
314.152
314.488
314.793
315.071
315.321
315.548
315.752
315.937
316.103
316.252
316.386
316.506
316.615
316.712
316.799
316.878
316.949
317.013
317.072
317.125
317.174
317.22
317.262
317.303
317.341
317.379
317.415
317.451
317.488
317.524
317.562
317.601
317.641
317.682
317.726
317.771
317.819
317.869
317.922
317.977
318.035
318.095
318.158
318.224
318.293
318.364
318.438
318.515
318.594
318.676
318.76
318.847
318.936
319.027
319.12
319.216
319.313
319.412
319.512
319.615
319.718
300.448
301.359
302.295
303.249
304.21
305.171
306.12
307.05
307.951
308.818
309.645
310.427
311.162
311.849
312.487
313.076
313.618
314.115
314.569
314.982
315.358
315.697
316.005
316.282
316.532
316.756
316.958
317.139
317.302
317.447
317.577
317.694
317.799
317.892
317.976
318.052
318.12
318.181
318.237
318.288
318.335
318.379
318.419
318.458
318.495
318.53
318.565
318.6
318.634
318.669
318.705
318.741
318.779
318.818
318.859
318.901
318.946
318.992
319.041
319.091
319.144
319.2
319.257
319.317
319.38
319.444
319.511
319.58
319.651
319.724
319.8
319.877
319.956
320.037
320.12
320.204
320.29
320.377
320.466
320.556
320.647
300.503
301.525
302.574
303.64
304.713
305.78
306.831
307.855
308.841
309.784
310.677
311.515
312.298
313.023
313.691
314.303
314.863
315.371
315.833
316.251
316.628
316.967
317.272
317.546
317.792
318.012
318.21
318.386
318.544
318.684
318.811
318.923
319.024
319.115
319.196
319.269
319.335
319.395
319.45
319.5
319.546
319.589
319.63
319.668
319.705
319.741
319.776
319.811
319.845
319.88
319.916
319.952
319.989
320.028
320.068
320.109
320.152
320.197
320.244
320.292
320.342
320.394
320.448
320.505
320.562
320.622
320.684
320.747
320.812
320.879
320.948
321.018
321.089
321.162
321.237
321.312
321.389
321.467
321.546
321.625
321.706
300.566
301.715
302.893
304.088
305.286
306.473
307.635
308.76
309.836
310.856
311.814
312.705
313.529
314.286
314.977
315.606
316.175
316.689
317.151
317.567
317.941
318.275
318.574
318.842
319.081
319.295
319.485
319.656
319.808
319.944
320.066
320.175
320.273
320.362
320.441
320.514
320.579
320.639
320.695
320.746
320.793
320.838
320.881
320.921
320.96
320.998
321.036
321.073
321.11
321.147
321.185
321.223
321.262
321.303
321.344
321.386
321.43
321.475
321.521
321.569
321.618
321.669
321.721
321.775
321.831
321.887
321.945
322.005
322.066
322.128
322.191
322.256
322.322
322.388
322.456
322.524
322.594
322.664
322.735
322.806
322.878
300.638
301.933
303.259
304.6
305.938
307.257
308.539
309.769
310.936
312.031
313.048
313.984
314.841
315.62
316.326
316.96
317.529
318.039
318.495
318.902
319.266
319.59
319.879
320.137
320.368
320.573
320.757
320.922
321.069
321.201
321.32
321.427
321.524
321.612
321.692
321.766
321.833
321.896
321.954
322.008
322.06
322.109
322.155
322.2
322.244
322.287
322.329
322.371
322.413
322.454
322.496
322.538
322.581
322.625
322.669
322.714
322.76
322.806
322.854
322.903
322.953
323.004
323.056
323.109
323.163
323.218
323.274
323.331
323.389
323.448
323.507
323.567
323.628
323.69
323.752
323.815
323.878
323.941
324.005
324.07
324.134
300.721
302.183
303.676
305.18
306.674
308.135
309.543
310.88
312.134
313.297
314.362
315.328
316.201
316.985
317.688
318.316
318.876
319.374
319.818
320.212
320.562
320.874
321.152
321.4
321.621
321.819
321.996
322.155
322.298
322.428
322.546
322.653
322.751
322.841
322.924
323.001
323.072
323.14
323.203
323.263
323.321
323.376
323.429
323.481
323.531
323.581
323.63
323.678
323.726
323.773
323.821
323.869
323.916
323.964
324.013
324.061
324.111
324.16
324.21
324.261
324.312
324.364
324.417
324.47
324.523
324.577
324.632
324.687
324.742
324.798
324.855
324.911
324.968
325.025
325.083
325.14
325.198
325.256
325.313
325.371
325.429
300.814
302.465
304.147
305.834
307.497
309.109
310.646
312.082
313.402
314.605
315.692
316.67
317.544
318.323
319.014
319.628
320.171
320.652
321.078
321.456
321.791
322.088
322.353
322.59
322.802
322.992
323.164
323.319
323.461
323.59
323.708
323.817
323.918
324.011
324.099
324.182
324.26
324.334
324.404
324.472
324.537
324.6
324.661
324.721
324.779
324.836
324.893
324.948
325.003
325.057
325.111
325.165
325.218
325.271
325.324
325.377
325.429
325.482
325.535
325.587
325.64
325.693
325.746
325.799
325.852
325.906
325.959
326.012
326.065
326.119
326.172
326.225
326.278
326.331
326.384
326.436
326.489
326.541
326.593
326.645
326.696
300.919
302.781
304.674
306.56
308.406
310.161
311.793
313.292
314.654
315.879
316.975
317.949
318.812
319.574
320.245
320.836
321.356
321.815
322.219
322.577
322.895
323.177
323.429
323.655
323.858
324.042
324.21
324.362
324.503
324.632
324.753
324.865
324.97
325.069
325.162
325.251
325.336
325.418
325.496
325.572
325.645
325.716
325.785
325.852
325.918
325.983
326.047
326.109
326.17
326.231
326.291
326.349
326.408
326.465
326.522
326.578
326.634
326.689
326.744
326.798
326.852
326.905
326.959
327.011
327.064
327.116
327.167
327.219
327.27
327.32
327.37
327.42
327.469
327.518
327.566
327.614
327.662
327.709
327.755
327.801
327.847
301.03
303.121
305.242
307.336
309.326
311.181
312.882
314.422
315.803
317.031
318.117
319.072
319.91
320.644
321.287
321.849
322.342
322.775
323.157
323.494
323.794
324.061
324.301
324.516
324.712
324.891
325.054
325.205
325.345
325.476
325.598
325.713
325.822
325.926
326.025
326.119
326.21
326.298
326.383
326.465
326.545
326.622
326.698
326.771
326.843
326.914
326.983
327.051
327.117
327.182
327.246
327.309
327.37
327.431
327.49
327.549
327.607
327.664
327.719
327.775
327.829
327.883
327.935
327.987
328.039
328.09
328.139
328.189
328.237
328.285
328.332
328.379
328.425
328.47
328.514
328.558
328.601
328.643
328.685
328.726
328.767
301.129
303.431
305.758
307.99
310.077
311.993
313.726
315.277
316.652
317.864
318.925
319.852
320.66
321.364
321.978
322.513
322.981
323.392
323.754
324.074
324.359
324.614
324.844
325.052
325.241
325.415
325.576
325.725
325.864
325.994
326.117
326.234
326.345
326.451
326.553
326.651
326.745
326.836
326.924
327.01
327.093
327.174
327.253
327.33
327.405
327.479
327.551
327.621
327.69
327.757
327.823
327.888
327.951
328.013
328.074
328.134
328.193
328.25
328.307
328.362
328.417
328.47
328.523
328.574
328.625
328.675
328.723
328.771
328.818
328.864
328.91
328.954
328.998
329.04
329.082
329.123
329.164
329.203
329.242
329.28
329.317
379.59
387.519
394.197
400.027
405.208
409.85
414.012
417.729
421.015
423.871
426.286
428.237
429.689
430.593
430.884
430.47
429.222
426.942
423.301
417.638
408.309
402
397.17
393.219
389.858
386.926
384.322
381.977
379.843
377.882
376.069
374.38
372.798
371.31
369.902
368.566
367.292
366.074
364.906
363.781
362.696
361.646
360.628
359.638
358.674
357.733
356.812
355.91
355.025
354.155
353.299
352.456
351.623
350.801
349.988
349.184
348.387
347.598
346.814
346.038
345.266
344.501
343.74
342.985
342.234
341.488
340.747
340.011
339.28
338.553
337.832
337.116
336.405
335.7
335
334.306
333.619
332.938
332.264
331.598
330.938
330.287
329.644
329.01
328.384
327.768
327.162
326.566
325.98
325.405
324.841
324.289
323.748
323.22
322.703
322.199
321.708
321.229
320.764
320.311
319.871
319.444
319.03
318.629
318.241
317.865
317.502
317.151
316.812
316.486
316.17
315.866
315.573
315.291
315.02
314.758
314.506
314.264
314.03
313.806
313.589
313.381
313.18
312.987
312.8
312.62
312.446
312.278
312.116
311.959
311.807
311.66
311.518
311.379
311.244
311.113
310.986
310.862
310.741
310.622
310.506
310.393
310.282
310.173
310.067
309.962
309.859
309.757
309.658
309.559
309.462
309.366
309.272
309.179
309.086
308.995
308.905
308.816
308.728
308.641
308.557
374.853
381.739
387.945
393.53
398.569
403.122
407.228
410.91
414.175
417.022
419.437
421.397
422.868
423.802
424.138
423.792
422.652
420.56
417.3
412.602
406.423
401.082
396.629
392.858
389.599
386.73
384.169
381.854
379.742
377.799
375.999
374.321
372.748
371.266
369.864
368.533
367.263
366.049
364.883
363.761
362.679
361.631
360.614
359.626
358.663
357.722
356.803
355.902
355.017
354.148
353.293
352.45
351.618
350.796
349.984
349.18
348.383
347.594
346.811
346.034
345.263
344.498
343.737
342.982
342.231
341.486
340.745
340.009
339.277
338.551
337.83
337.114
336.403
335.697
334.998
334.304
333.617
332.936
332.262
331.596
330.936
330.285
329.642
329.008
328.382
327.766
327.16
326.563
325.978
325.403
324.839
324.287
323.746
323.218
322.701
322.198
321.706
321.228
320.762
320.309
319.87
319.443
319.029
318.628
318.24
317.864
317.501
317.15
316.811
316.485
316.169
315.865
315.573
315.291
315.019
314.757
314.506
314.263
314.03
313.805
313.589
313.381
313.18
312.986
312.8
312.62
312.446
312.278
312.116
311.959
311.808
311.66
311.518
311.379
311.245
311.114
310.986
310.862
310.741
310.622
310.507
310.393
310.283
310.174
310.067
309.962
309.859
309.758
309.658
309.56
309.463
309.367
309.272
309.179
309.087
308.995
308.905
308.816
308.728
308.642
308.557
370.771
376.658
382.23
387.41
392.182
396.555
400.538
404.136
407.348
410.164
412.57
414.54
416.041
417.03
417.452
417.237
416.298
414.533
411.835
408.16
403.723
399.418
395.535
392.091
389.034
386.298
383.828
381.58
379.518
377.613
375.842
374.188
372.635
371.169
369.78
368.46
367.2
365.993
364.834
363.718
362.64
361.597
360.584
359.599
358.638
357.701
356.783
355.884
355.002
354.134
353.28
352.438
351.607
350.786
349.975
349.171
348.375
347.587
346.804
346.028
345.257
344.492
343.732
342.977
342.226
341.481
340.74
340.004
339.273
338.547
337.825