/*--------------------------------*- C++ -*----------------------------------*\
  =========                 |
  \\      /  F ield         | OpenFOAM: The Open Source CFD Toolbox
   \\    /   O peration     | Website:  https://openfoam.org
    \\  /    A nd           | Version:  7
     \\/     M anipulation  |
\*---------------------------------------------------------------------------*/
FoamFile
{
    version     2.0;
    format      ascii;
    class       volScalarField;
    location    "0.2";
    object      p;
}
// * * * * * * * * * * * * * * * * * * * * * * * * * * * * * * * * * * * * * //

dimensions      [0 2 -2 0 0 0 0];

internalField   nonuniform List<scalar> 
2790
(
68.9247
68.821
69.0627
69.5955
70.3266
71.2259
72.2917
73.5241
74.9194
76.4726
78.1783
80.0301
82.0205
84.1395
86.3749
88.7112
91.1294
93.6061
96.1138
98.6197
101.087
103.473
105.734
107.824
109.698
111.316
112.646
113.668
114.354
114.809
68.7251
68.732
68.9989
69.5288
70.2564
71.1526
72.2144
73.4413
74.8301
76.376
78.0737
79.9172
81.899
84.0096
86.237
88.5662
90.9787
93.4519
95.9589
98.4678
100.942
103.341
105.62
107.733
109.636
111.286
112.651
113.714
114.431
114.937
68.5331
68.6101
68.8963
69.4164
70.1314
71.0157
72.0636
73.2738
74.6433
76.1676
77.8414
79.6589
81.6128
83.6939
85.8908
88.1891
90.5714
93.0163
95.4983
97.9876
100.45
102.845
105.132
107.266
109.202
110.898
112.317
113.444
114.207
114.778
68.3182
68.4261
68.7252
69.2371
69.9382
70.8071
71.8366
73.0245
74.3677
75.8618
77.5016
79.2813
81.1936
83.2298
85.3788
87.6272
89.9585
92.3531
94.7874
97.2339
99.661
102.033
104.31
106.449
108.409
110.145
111.616
112.806
113.617
114.252
68.0707
68.1928
68.5007
69.0057
69.6911
70.54
71.5453
72.7038
74.0125
75.4668
77.0616
78.7909
80.6476
82.6232
84.707
86.8865
89.1463
91.4683
93.8314
96.2108
98.5781
100.901
103.144
105.268
107.232
108.993
110.504
111.75
112.603
113.299
67.7863
67.9142
68.2249
68.7207
69.3871
70.2112
71.1864
72.3091
73.5757
74.9816
76.5214
78.1891
79.9775
81.878
83.8804
85.9727
88.1407
90.3679
92.6352
94.9207
97.1995
99.4437
101.622
103.699
105.638
107.397
108.927
110.214
111.102
111.855
67.4633
67.5924
67.9005
68.3839
69.0285
69.8237
70.7637
71.8445
73.0619
74.4111
75.8865
77.4816
79.1891
81.0003
82.9052
84.8921
86.9477
89.0567
91.202
93.3643
95.5221
97.6515
99.7259
101.716
103.589
105.308
106.824
108.127
109.038
109.846
67.1012
67.2286
67.53
67.9979
68.6176
69.3801
70.28
71.313
72.4744
73.7591
75.1608
76.6729
78.2876
79.9958
81.7874
83.6509
85.5732
87.5401
89.5356
91.5424
93.5419
95.5138
97.4364
99.2864
101.038
102.662
104.114
105.395
106.307
107.17
66.7007
66.8244
67.1158
67.565
68.1569
68.8829
69.7381
70.7179
71.8171
73.0298
74.3496
75.7689
77.2794
78.8715
80.5347
82.257
84.0253
85.8253
87.6417
89.458
91.2572
93.0216
94.7336
96.3753
97.9289
99.3781
100.69
101.884
102.758
103.672
66.2628
66.3815
66.6601
67.0879
67.649
68.3351
69.1415
70.0632
71.0943
72.2285
73.4585
74.776
76.1719
77.6359
79.1563
80.7205
82.3144
83.923
85.5301
87.1188
88.6716
90.1713
91.6017
92.9488
94.2021
95.3593
96.4076
97.4011
98.1586
99.1071
65.7889
65.9015
66.1655
66.5692
67.0968
67.74
68.4939
69.353
70.311
71.3607
72.4939
73.7017
74.9737
76.2984
77.663
79.0534
80.4538
81.8472
83.2154
84.5387
85.7966
86.9687
88.0356
88.9817
89.7987
90.4951
91.083
91.6706
92.1406
93.0693
65.281
65.3867
65.6343
66.0118
66.5035
67.101
67.7991
68.5918
69.4723
70.4323
71.4629
72.554
73.694
74.87
76.0674
77.27
78.4598
79.6166
80.7181
81.7398
82.6547
83.4339
84.0478
84.4691
84.6778
84.6776
84.4947
84.3005
84.1081
84.8342
64.7411
64.8393
65.0691
65.4186
65.8724
66.4218
67.0614
67.7845
68.5836
69.4498
70.3729
71.3417
72.3431
73.3625
74.3834
75.3869
76.3518
77.2537
78.0649
78.7533
79.2815
79.6064
79.6784
79.4425
78.8424
77.8381
76.4174
74.7663
73.0651
72.9767
64.1713
64.2616
64.4725
64.7926
65.2067
65.7062
66.285
66.936
67.6509
68.4199
69.2318
70.0739
70.9318
71.789
72.6264
73.4225
74.152
74.7857
75.289
75.62
75.7278
75.549
75.0037
73.9905
72.3804
70.0205
66.7298
62.481
57.348
54.2399
63.5743
63.6562
63.8474
64.1369
64.51
64.958
65.4743
66.0514
66.6799
67.3493
68.0474
68.76
69.4713
70.1625
70.8124
71.396
71.8843
72.2424
72.4281
72.3888
72.0578
71.3479
70.1416
68.2755
65.513
61.5031
55.6805
47.2255
34.5573
19.3109
-95.5038
-96.2425
-97.6156
-99.6398
-102.331
-105.588
-109.178
-112.721
-115.694
-117.476
-117.435
-115.046
-110.022
-102.361
-92.4328
-80.9141
-68.6418
-56.448
-45.0206
-34.8251
-26.0996
-18.4359
-11.7661
-6.6275
-2.91014
-0.375844
1.17848
1.92132
1.98193
1.46526
-95.5956
-96.3545
-97.7889
-99.8885
-102.702
-106.119
-109.901
-113.651
-116.825
-118.777
-118.852
-116.516
-111.487
-103.772
-93.7545
-82.1257
-69.7283
-57.3991
-45.8323
-35.5014
-26.6524
-18.8587
-12.0979
-6.91619
-3.15143
-0.572568
1.02157
1.80105
1.89755
1.45257
-96.2901
-97.1146
-98.6788
-100.938
-103.97
-107.649
-111.729
-115.791
-119.261
-121.456
-121.683
-119.38
-114.28
-106.378
-96.1035
-84.187
-71.5013
-58.9004
-47.0879
-36.5435
-27.4804
-19.4683
-12.5733
-7.31144
-3.47285
-0.829784
0.820092
1.65112
1.79868
1.43775
-97.6445
-98.554
-100.28
-102.766
-106.113
-110.176
-114.694
-119.215
-123.121
-125.672
-126.117
-123.858
-118.617
-110.389
-99.6723
-87.2685
-74.1024
-61.0588
-48.861
-37.9958
-28.5754
-20.2506
-13.2143
-7.83949
-3.90436
-1.17879
0.544007
1.44394
1.66051
1.39894
-99.6294
-100.642
-102.562
-105.344
-109.103
-113.675
-118.775
-123.909
-128.393
-131.41
-132.131
-129.903
-124.439
-115.732
-104.389
-91.304
-77.4751
-63.8304
-51.1174
-39.8126
-29.9074
-21.1993
-14.0027
-8.48782
-4.43389
-1.60745
0.205076
1.19021
1.49212
1.34224
-102.191
-103.323
-105.472
-108.621
-112.891
-118.099
-123.93
-129.834
-135.047
-138.649
-139.7
-137.472
-131.667
-122.315
-110.155
-96.1994
-81.5365
-67.1472
-53.7979
-41.9207
-31.4183
-22.3024
-14.9217
-9.2449
-5.05388
-2.11087
-0.194028
0.890678
1.29262
1.26471
-105.221
-106.481
-108.89
-112.468
-117.34
-123.303
-130.008
-136.838
-142.93
-147.228
-148.651
-146.375
-140.099
-129.936
-116.784
-101.79
-86.1508
-70.8994
-56.8111
-44.1996
-33.0321
-23.5542
-15.9538
-10.0953
-5.75293
-2.68061
-0.647048
0.549715
1.06482
1.16689
-108.513
-109.902
-112.593
-116.653
-122.203
-129.025
-136.732
-144.634
-151.745
-156.841
-158.667
-156.287
-149.399
-138.278
-123.995
-107.841
-91.1296
-74.9313
-59.9888
-46.5233
-34.7286
-24.9199
-17.0734
-11.0198
-6.51709
-3.30655
-1.14676
0.172182
0.811527
1.04927
-111.757
-113.267
-116.255
-120.833
-127.117
-134.877
-143.688
-152.782
-161.037
-167.021
-169.257
-166.708
-159.076
-146.899
-131.422
-114.05
-96.2363
-79.0395
-63.1067
-48.8011
-36.5053
-26.3483
-18.2468
-11.9954
-7.32984
-3.97677
-1.68459
-0.235996
0.536378
0.913216
-114.545
-116.168
-119.463
-124.577
-131.622
-140.359
-150.33
-160.687
-170.169
-177.097
-179.72
-176.96
-168.481
-155.244
-138.637
-120.08
-101.185
-82.9267
-66.0203
-51.0347
-38.2685
-27.7792
-19.4356
-12.9959
-8.1725
-4.67777
-2.25078
-0.668016
0.243576
0.760742
-116.418
-118.156
-121.766
-127.408
-135.2
-144.897
-156.013
-167.629
-178.344
-186.188
-189.141
-186.19
-176.873
-162.719
-145.165
-125.587
-105.609
-86.3633
-68.6586
-53.0929
-39.9231
-29.1503
-20.5983
-13.9926
-9.02475
-5.39477
-2.83456
-1.11628
-0.062119
0.594524
-116.95
-118.813
-122.748
-128.884
-137.352
-147.906
-160.036
-172.755
-184.526
-193.097
-196.308
-193.448
-183.599
-168.862
-150.473
-130.086
-109.188
-89.1342
-70.8314
-54.8402
-41.378
-30.4002
-21.6931
-14.9563
-9.86536
-6.11205
-3.42431
-1.57247
-0.375411
0.417864
-115.822
-117.859
-122.167
-128.773
-137.825
-149.084
-162.017
-175.592
-188.17
-197.333
-200.816
-198.026
-188.176
-172.954
-153.992
-132.978
-111.524
-91.0074
-72.3724
-56.1591
-42.5521
-31.473
-22.681
-15.8586
-10.6732
-6.81356
-4.00793
-2.02777
-0.690523
0.23466
-112.846
-115.196
-119.966
-127.02
-136.571
-148.379
-161.871
-175.987
-189.016
-198.525
-202.132
-199.242
-189.437
-174.196
-155.14
-133.986
-112.412
-91.817
-73.1582
-56.9599
-43.3817
-32.3229
-23.5283
-16.6744
-11.4288
-7.48436
-4.57406
-2.47387
-1.002
0.0488273
-108.04
-111.223
-116.425
-123.813
-133.784
-145.979
-159.726
-173.937
-186.888
-196.275
-199.822
-196.929
-187.435
-172.564
-153.849
-133.014
-111.759
-91.4782
-73.1205
-57.1892
-43.8254
-32.9178
-24.2095
-17.3831
-12.1159
-8.11167
-5.11312
-2.90407
-1.30583
-0.136795
62.9405
63.0137
63.1842
63.4416
63.7721
64.1666
64.6182
65.1186
65.658
66.2247
66.8055
67.3851
67.9456
68.4667
68.9244
69.2908
69.5325
69.6092
69.471
69.0549
68.2783
67.0304
65.1559
62.4273
58.492
52.7643
44.1433
30.3125
3.94258
-69.0042
62.2627
62.3267
62.4755
62.6994
62.9852
63.324
63.7083
64.1294
64.5765
65.0372
65.4972
65.9399
66.346
66.6931
66.955
67.1007
67.0931
66.887
66.4259
65.6376
64.4272
62.6658
60.1721
56.679
51.7724
44.7709
34.4594
18.7668
-3.97676
-36.9006
61.5464
61.6008
61.7271
61.9163
62.1561
62.4377
62.753
63.0928
63.4457
63.7986
64.1361
64.4404
64.6909
64.8636
64.9302
64.8573
64.6048
64.1237
63.3528
62.2146
60.6075
58.396
55.3942
51.3411
45.8643
38.4425
28.3985
15.0097
-1.08317
-19.4204
60.7929
60.8375
60.9407
61.0944
61.2873
61.5106
61.7559
62.0135
62.2714
62.5158
62.7306
62.897
62.9932
62.994
62.8696
62.5849
62.0979
61.3576
60.301
58.8491
56.9013
54.3272
50.9572
46.5704
40.8868
33.5741
24.2922
12.6667
-1.43667
-18.4989
60.0041
60.0387
60.1185
60.2362
60.3817
60.5462
60.7212
60.8963
61.0594
61.196
61.2895
61.3203
61.2659
61.1003
60.7928
60.3077
59.6023
58.6256
57.3156
55.5963
53.3736
50.5311
46.9249
42.3807
36.6938
29.6343
20.9622
10.3845
-2.36059
-17.0955
59.1823
59.2069
59.2631
59.3447
59.4426
59.5484
59.6533
59.7468
59.8162
59.847
59.822
59.7214
59.5224
59.1985
58.7191
58.0488
57.1456
55.9604
54.4348
52.4988
50.069
47.0464
43.3145
38.7398
33.1736
26.457
18.4359
8.97293
-1.99455
-14.0598
58.3302
58.3448
58.3776
58.4232
58.4739
58.5217
58.5575
58.5709
58.549
58.4771
58.338
58.1119
57.7761
57.3045
56.6673
55.83
54.753
53.3904
51.6892
49.5879
47.0154
43.8912
40.125
35.6192
30.2728
23.9892
16.6919
8.34298
-1.05041
-11.1689
57.451
57.4557
57.4653
57.4755
57.4799
57.4708
57.4394
57.3749
57.265
57.0947
56.8474
56.5034
56.0406
55.4339
54.6548
53.671
52.446
50.9385
49.102
46.8843
44.2276
41.0691
37.3423
32.9803
27.9201
22.1103
15.5203
8.1514
0.0283216
-8.59176
56.5482
56.5433
56.5303
56.5059
56.4652
56.4011
56.3047
56.1658
55.9719
55.7088
55.3601
54.907
54.3285
53.6008
52.6973
51.5887
50.2423
48.622
46.6885
44.3993
41.709
38.5712
34.9396
30.7714
26.0313
20.6967
14.7635
8.2529
1.20426
-6.16617
55.6259
55.6116
55.5767
55.519
55.4349
55.318
55.1598
54.9503
54.6775
54.328
53.8859
53.3338
52.6518
51.818
50.8085
49.597
48.1553
46.4528
44.4574
42.1358
39.4543
36.3799
32.8828
28.9386
24.5311
19.6565
14.3267
8.57397
2.44453
-3.88678
54.6885
54.6652
54.6093
54.5198
54.3944
54.2275
54.0111
53.7355
53.3897
52.9608
52.4342
51.7936
51.021
50.0967
48.9995
47.7067
46.1943
44.4377
42.4115
40.0907
37.4514
34.4722
31.1357
27.4308
23.3547
18.9152
14.1332
9.04458
3.69555
-1.77524
53.7406
53.7088
53.6331
53.5135
53.3492
53.1356
52.865
52.5285
52.1159
51.6154
51.0135
50.2957
49.4457
48.4463
47.2791
45.9253
44.3652
42.5794
40.5488
38.2556
35.6842
32.8222
29.6617
26.2009
22.4454
18.4098
14.119
9.60851
4.92145
0.167483
52.7874
52.7476
52.6534
52.5057
52.3053
52.0484
51.7281
51.3363
50.8637
50.2995
49.632
48.848
47.9337
46.874
45.6539
44.2577
42.6702
40.8766
38.8634
36.619
34.1341
31.4034
28.4258
25.2055
21.7535
18.0878
14.2341
10.2257
6.10113
1.94719
51.8342
51.7871
51.6757
51.5021
51.2686
50.9723
50.6071
50.1657
49.6399
49.0204
48.2967
47.4577
46.4915
45.3857
44.128
42.7062
41.1089
39.3254
37.347
35.1669
32.7812
30.1894
27.395
24.4064
21.2374
17.9069
14.44
10.8667
7.2209
3.57096
50.8867
50.8329
50.7058
50.5087
50.2453
49.9135
49.5083
49.0232
48.4513
47.7844
47.014
46.1305
45.1242
43.9853
42.7039
41.2711
39.6787
37.9198
35.9894
33.8846
31.6054
29.1548
26.5395
23.7702
20.8615
17.8326
14.7066
11.5102
8.27223
5.04704
49.9509
49.8909
49.7497
49.5316
49.2414
48.8782
48.4379
47.9151
47.3039
46.5977
45.7894
44.8713
43.8358
42.6752
41.3823
39.9508
38.3754
36.6522
34.7793
32.7567
30.5873
28.2765
25.8327
23.2678
20.5966
17.8373
15.0107
12.1402
9.25042
6.38428
49.0326
48.9673
48.8136
48.5767
48.263
47.8726
47.4021
46.8473
46.2034
45.4653
44.6275
43.684
42.6289
41.4568
40.1627
38.7425
37.1935
35.5142
33.7049
31.7682
29.7086
27.533
25.2511
22.8747
20.4184
17.8988
15.3345
12.7458
10.1534
7.59161
48.1383
48.0681
47.9035
47.6505
47.3164
46.9027
46.4067
45.8253
45.1551
44.3921
43.5323
42.5713
41.5052
40.3302
39.0432
37.6424
36.1268
34.4969
32.7549
30.9047
28.9523
26.9055
24.7742
22.57
20.3067
17.9994
15.6644
13.3191
10.9811
8.67771
47.2741
47.1999
47.0259
46.7589
46.4076
45.9742
45.4573
44.8545
44.1636
43.382
42.5069
41.5356
40.4656
39.2947
38.0217
36.6461
35.1687
33.5915
31.9179
30.153
28.3033
26.3773
24.3845
22.3364
20.2454
18.1252
15.9901
13.8549
11.7345
9.65088
46.4467
46.3689
46.1869
45.9082
45.5425
45.0931
44.5592
43.9397
43.2333
42.4386
41.5542
40.5785
39.5105
38.3494
37.0952
35.749
34.3127
32.7894
31.1835
29.5007
27.748
25.9337
24.0673
22.1594
20.2214
18.2654
16.304
14.3499
12.4156
10.5189
45.6624
45.5817
45.393
45.1046
44.7272
44.2648
43.7178
43.0857
42.3683
41.5653
40.6763
39.7011
38.6397
37.4925
36.2608
34.9465
33.5525
32.0827
30.5422
28.9371
27.2744
25.5624
23.81
22.027
20.2239
18.4114
16.6005
14.8021
13.0268
11.289
44.9279
44.8448
44.6505
44.3542
43.9673
43.4948
42.9378
42.2967
41.5722
40.7648
39.8753
38.9044
37.853
36.7226
35.5153
34.2339
32.882
31.4641
29.9856
28.4526
26.8724
25.2528
23.6022
21.9297
20.2448
18.5569
16.8758
15.2107
13.5707
11.9678
44.25
44.1648
43.966
43.6631
43.2687
42.7885
42.2243
41.5771
40.8485
40.04
39.153
38.189
37.1499
36.038
34.8559
33.6072
32.296
30.927
29.5059
28.039
26.5332
24.996
23.4353
21.8596
20.2772
18.6968
17.1267
15.5752
14.05
12.5609
43.6356
43.5486
43.3459
43.0376
42.6372
42.1512
41.582
40.9312
40.201
39.3936
38.5112
37.556
36.5305
35.4375
34.2804
33.0631
31.79
30.4662
29.0973
27.6896
26.2498
24.785
23.3028
21.8106
20.3163
18.8276
17.3519
15.8963
14.4676
13.074
43.0919
43.0032
42.7967
42.4836
42.0784
41.5881
41.0155
40.3628
39.6326
38.8279
37.9513
37.0057
35.994
34.9196
33.7862
32.5979
31.3596
30.0763
28.7538
27.3981
26.0157
24.6134
23.1982
21.7772
20.3574
18.9458
17.549
16.1733
14.8248
13.5102
42.6265
42.5358
42.3252
42.0075
41.5984
41.1051
40.5305
39.8772
39.1484
38.3473
37.4771
36.5411
35.5427
34.4855
33.3736
32.2113
31.0036
29.7556
28.4729
27.1616
25.8279
24.4782
23.1192
21.7573
20.3991
19.051
17.719
16.4088
15.1257
13.8756
42.2478
42.1542
41.9377
41.6144
41.2012
40.7053
40.1292
39.4758
38.7486
37.9514
37.0875
36.1604
35.174
34.132
33.0388
31.8987
30.7169
29.4984
28.2488
26.974
25.68
24.3729
23.0591
21.7446
20.4357
19.1381
17.8574
16.5988
15.3672
14.1674
41.9662
41.8673
41.643
41.3145
40.8987
40.401
39.8238
39.1705
38.445
37.6511
36.7924
35.8728
34.8962
33.8665
32.7882
31.6659
30.5045
29.3092
28.0855
26.839
25.5757
24.3014
23.0222
21.744
20.4724
19.213
17.971
16.7514
15.5585
14.397
41.7941
41.6728
41.4322
41.0991
40.6825
40.1841
39.6066
38.9541
38.2305
37.4397
36.5856
35.6719
34.7028
33.6823
32.6148
31.5052
30.3582
29.179
27.9731
26.7461
25.5036
24.2516
22.9957
21.7418
20.4952
19.2614
18.0452
16.8514
15.6841
14.5474
41.7944
41.6064
41.3375
40.9989
40.5804
40.0798
39.5005
38.8473
38.1243
37.3351
36.4835
35.5735
34.6091
33.5944
32.5338
31.432
30.2939
29.1245
27.9292
26.7134
25.4829
24.2433
23.0003
21.7594
20.5261
19.3056
18.1028
16.9221
15.7676
14.6432
-177.932
-156.786
-126.238
-60.606
-66.4935
-72.2185
-38.8913
-52.1321
-62.9056
-37.5028
-49.9578
-59.2721
-31.9068
-41.9316
-50.0888
-25.9047
-34.2658
-41.4107
-21.1069
-28.1682
-34.2229
-16.9639
-22.8844
-27.9331
-13.2217
-18.1928
-22.4104
-9.86817
-14.0681
-17.6161
-6.87903
-10.4498
-13.4574
-4.21415
-7.26916
-9.83919
-1.83798
-4.46893
-6.68244
0.280234
-2.00053
-3.92151
2.16785
0.177533
-1.50188
3.84887
2.10036
0.62151
5.34425
3.79772
2.48616
6.67233
5.29496
4.12348
7.84914
6.61374
5.5599
8.88875
7.77265
6.81779
9.80338
8.78754
7.916
10.6038
9.67209
8.87064
11.2988
10.4375
9.69482
11.8969
11.0941
10.4004
12.4029
11.6482
10.9949
12.8251
12.1094
11.4885
13.1609
12.4756
11.8807
13.4243
12.7617
12.1853
13.5963
12.9494
12.3865
13.7074
13.0711
12.5146
-100.225
-107.216
-112.399
-119.726
-129.973
-142.319
-155.938
-169.749
-182.126
-191.016
-194.423
-191.56
-182.482
-168.209
-150.171
-130.059
-109.538
-89.9597
-72.2296
-56.8221
-43.8631
-33.2417
-24.7126
-17.9758
-12.7281
-8.69114
-5.6223
-3.31657
-1.60083
-0.320709
-85.0702
-98.1018
-106.239
-115.102
-125.873
-138.082
-151.114
-164.037
-175.419
-183.52
-186.585
-183.641
-174.882
-161.263
-144.137
-125.103
-105.715
-87.2185
-70.4426
-55.8177
-43.4576
-33.2617
-25.0091
-18.4288
-13.2463
-9.20778
-6.09018
-3.70294
-1.88131
-0.498198
-78.4096
-92.7412
-101.899
-111.124
-121.869
-133.653
-145.813
-157.527
-167.607
-174.572
-176.863
-173.474
-164.842
-151.917
-135.933
-118.316
-100.43
-83.3595
-67.8268
-54.2118
-42.6207
-32.9743
-25.0866
-18.726
-13.6539
-9.64659
-6.50438
-4.05391
-2.14125
-0.665487
-71.6583
-85.418
-96.344
-106.56
-117.195
-128.263
-139.336
-149.678
-158.219
-163.602
-164.612
-160.651
-152.275
-140.312
-125.815
-109.977
-93.9263
-78.5655
-64.5047
-52.0763
-41.3879
-32.3906
-24.9428
-18.8581
-13.9392
-9.99598
-6.85487
-4.36161
-2.37511
-0.818841
-61.1866
-74.2636
-86.5468
-98.0461
-109.04
-119.676
-129.759
-138.71
-145.609
-149.276
-149.098
-145.025
-137.424
-126.898
-114.286
-100.541
-86.5692
-73.1021
-60.6527
-49.5183
-39.8172
-31.5375
-24.5853
-18.8229
-14.0954
-10.248
-7.1342
-4.61998
-2.57856
-0.955567
-50.8798
-62.4459
-74.5826
-86.2936
-97.1719
-107.236
-116.338
-124.001
-129.477
-132.025
-131.432
-127.843
-121.458
-112.686
-102.168
-90.6427
-78.818
-67.2844
-56.4752
-46.6629
-37.9799
-30.4516
-24.0303
-18.6245
-14.1208
-10.3983
-7.33737
-4.8246
-2.74827
-1.07366
-41.9533
-51.6386
-62.5789
-73.4643
-83.5357
-92.6678
-100.713
-107.289
-111.843
-113.936
-113.525
-110.745
-105.723
-98.7444
-90.2783
-80.8805
-71.0971
-61.4019
-52.1625
-43.63
-35.9483
-29.174
-23.299
-18.2724
-14.0179
-10.4458
-7.46199
-4.97283
-2.88204
-1.17188
-34.227
-42.1949
-51.5896
-61.1598
-70.0562
-78.0745
-85.0763
-90.7719
-94.7776
-96.8005
-96.8122
-94.9
-91.1648
-85.812
-79.1769
-71.6689
-63.7059
-55.6666
-47.8611
-40.5184
-33.7871
-27.7453
-22.4157
-17.78
-13.7931
-10.3929
-7.50818
-5.06385
-2.97883
-1.24969
-27.5985
-34.1694
-42.0709
-50.247
-57.9028
-64.8142
-70.8617
-75.8324
-79.4621
-81.532
-81.9831
-80.848
-78.2105
-74.2232
-69.1243
-63.2125
-56.8056
-50.2044
-43.6683
-37.4016
-31.5499
-26.2034
-21.4057
-17.1635
-13.4562
-10.2449
-7.47835
-5.09849
-3.03866
-1.30718
-21.9529
-27.4269
-34.044
-40.9546
-47.473
-53.3886
-58.6037
-62.9619
-66.2752
-68.3754
-69.1808
-68.6718
-66.914
-64.0226
-60.1672
-55.5648
-50.4556
-45.0768
-39.6427
-34.3316
-29.2801
-24.5824
-20.2947
-16.4407
-13.019
-10.0091
-7.37683
-5.07905
-3.06254
-1.34494
-17.1282
-21.7442
-27.3114
-33.1537
-38.6999
-43.7667
-48.276
-52.111
-55.1311
-57.2145
-58.261
-58.2234
-57.1454
-55.1121
-52.2445
-48.6999
-44.6587
-40.3066
-35.8181
-31.3458
-27.0133
-22.9132
-19.1073
-15.6306
-12.4952
-9.69484
-7.20955
-5.00906
-3.05231
-1.364
-12.9802
-16.9186
-21.6421
-26.6094
-31.3502
-35.7108
-39.6297
-43.0183
-45.7684
-47.7834
-48.9739
-49.2771
-48.7143
-47.3451
-45.2559
-42.5599
-39.3921
-35.8963
-32.2132
-28.4711
-24.7789
-21.2233
-17.8674
-14.7522
-11.8991
-9.3125
-6.98363
-4.89306
-3.01051
-1.36573
-9.39575
-12.7921
-16.8373
-21.0938
-25.1742
-28.9515
-32.3783
-35.3862
-37.8898
-39.8112
-41.0733
-41.614
-41.4353
-40.5763
-39.0973
-37.0796
-34.6231
-31.8384
-28.8377
-25.7271
-22.6006
-19.5369
-16.597
-13.8242
-11.2456
-8.87328
-6.70703
-4.73635
-2.94024
-1.3518
-6.28565
-9.24258
-12.7389
-16.4171
-19.9564
-23.2524
-26.2687
-28.952
-31.2338
-33.0505
-34.337
-35.0377
-35.1423
-34.6732
-33.6715
-32.1946
-30.316
-28.12
-25.695
-23.1277
-20.4979
-17.8752
-15.3162
-12.8644
-10.5494
-8.38868
-6.38825
-4.54476
-2.84503
-1.32404
-3.57832
-6.17522
-9.22396
-12.4294
-15.524
-18.4218
-21.0949
-23.5016
-25.5864
-27.2963
-28.5775
-29.3824
-29.6934
-29.5209
-28.8915
-27.8451
-26.4351
-24.7251
-22.7842
-20.6822
-18.486
-16.2558
-14.0431
-11.8892
-9.82478
-7.87016
-6.036
-4.32442
-2.72869
-1.28444
-1.21607
-3.51534
-6.19637
-9.01311
-11.7407
-14.3079
-16.6933
-18.8641
-20.7749
-22.3815
-23.6393
-24.5094
-24.9691
-25.0209
-24.6811
-23.9768
-22.9461
-21.6364
-20.1011
-18.3961
-16.5765
-14.6937
-12.7934
-10.9138
-9.085
-7.32885
-5.65897
-4.08159
-2.59518
-1.23506
0.848104
-1.20332
-3.58028
-6.07571
-8.49898
-10.7905
-12.934
-14.9035
-16.6616
-18.1708
-19.3941
-20.3026
-20.8679
-21.0884
-20.9735
-20.5406
-19.8164
-18.8358
-17.6396
-16.2721
-14.7781
-13.2011
-11.5807
-9.95159
-8.34246
-6.77533
-5.26563
-3.82251
-2.44852
-1.17796
2.65293
0.809145
-1.31497
-3.54347
-5.71329
-7.77417
-9.71376
-11.5113
-13.136
-14.5564
-15.7451
-16.6672
-17.3051
-17.652
-17.7112
-17.4932
-17.0162
-16.3055
-15.392
-14.3104
-13.0969
-11.7875
-10.4165
-9.01459
-7.60842
-6.21947
-4.86404
-3.55324
-2.29269
-1.11517
4.23051
2.56149
0.648585
-1.35724
-3.31518
-5.18246
-6.94969
-8.60025
-10.1085
-11.4476
-12.5937
-13.5211
-14.2092
-14.6502
-14.8438
-14.7958
-14.518
-14.0283
-13.3501
-12.5099
-11.5368
-10.4607
-9.31044
-8.11316
-6.89298
-5.67037
-4.46179
-3.27955
-2.13154
-1.04864
5.60767
4.08621
2.3503
0.530804
-1.24952
-2.9539
-4.57521
-6.1001
-7.50702
-8.77318
-9.87809
-10.8006
-11.5215
-12.0318
-12.3288
-12.4149
-12.2972
-11.9883
-11.505
-10.8681
-10.1005
-9.22651
-8.2706
-7.25626
-6.20512
-5.1363
-4.06591
-3.0069
-1.96874
-0.980222
6.80677
5.4101
3.8228
2.15949
0.528284
-1.03886
-2.53658
-3.95407
-5.27314
-6.47422
-7.53958
-8.45124
-9.1925
-9.7534
-10.1297
-10.3213
-10.3321
-10.1704
-9.84854
-9.38206
-8.78913
-8.08948
-7.30355
-6.45156
-5.55274
-4.62467
-3.68284
-2.74037
-1.80775
-0.911647
7.84665
6.55547
5.09295
3.56055
2.05452
0.602936
-0.790209
-2.11612
-3.35929
-4.50278
-5.53107
-6.42881
-7.18142
-7.77873
-8.21548
-8.48986
-8.60346
-8.56145
-8.37252
-8.04839
-7.60324
-7.053
-6.41469
-5.70563
-4.94277
-4.14216
-3.31844
-2.48461
-1.6518
-0.844516
8.74269
7.54043
6.18242
4.75949
3.35828
2.00373
0.698785
-0.549352
-1.72732
-2.82031
-3.81465
-4.69708
-5.45482
-6.07789
-6.5604
-6.89944
-7.09492
-7.14974
-7.06984
-6.86391
-6.54295
-6.11981
-5.60862
-5.02416
-4.38135
-3.69473
-2.97803
-2.24394
-1.50388
-0.780304
9.50828
8.38049
7.10952
5.77762
4.46366
3.19009
1.95905
0.776469
-0.345991
-1.39527
-2.35917
-3.22611
-3.98489
-4.62583
-5.14275
-5.53203
-5.79241
-5.92513
-5.93406
-5.82555
-5.60811
-5.29208
-4.88918
-4.41208
-3.87388
-3.28773
-2.66646
-2.0223
-1.36676
-0.720365
10.1527
9.08661
7.88736
6.63038
5.3883
4.1816
3.01179
1.88383
0.807996
-0.204027
-1.14126
-1.99343
-2.75065
-3.40359
-3.94605
-4.37398
-4.68528
-4.88001
-4.96051
-4.93134
-4.79907
-4.57204
-4.26005
-3.87396
-3.42533
-2.92607
-2.38814
-1.82329
-1.24296
-0.665897
10.6864
9.67036
8.52916
7.3327
6.14872
4.99616
3.87607
2.79264
1.75508
0.773958
-0.140728
-0.979811
-1.7339
-2.39472
-2.95602
-3.41342
-3.76427
-4.00779
-4.14518
-4.17965
-4.11631
-3.96192
-3.72472
-3.41414
-3.04045
-2.6145
-2.14744
-1.65054
-1.13508
-0.618201
11.111
10.1344
9.03874
7.88977
6.75144
5.64153
4.56071
3.51259
2.50557
1.54938
0.65325
-0.174281
-0.92477
-1.59041
-2.16506
-2.64418
-3.02475
-3.30542
-3.48661
-3.57054
-3.56119
-3.46415
-3.28647
-3.03641
-2.72321
-2.35683
-1.94772
-1.5067
-1.04484
-0.577912
11.4382
10.4907
9.42871
8.31476
7.21008
6.13161
5.07978
4.05778
3.07341
2.1358
1.25362
0.434917
-0.31258
-0.981554
-1.56593
-2.06104
-2.46359
-2.77184
-2.98564
-3.10654
-3.13771
-3.0839
-2.95126
-2.7472
-2.48016
-2.15939
-1.79478
-1.39671
-0.976013
-0.547077
11.6564
10.728
9.68849
8.59839
7.51661
6.45947
5.42733
4.42315
3.45434
2.52966
1.65749
0.84581
0.101806
-0.568026
-1.15779
-1.66272
-2.07936
-2.40569
-2.6412
-2.78695
-2.84557
-2.82121
-2.71941
-2.54699
-2.3118
-2.02258
-1.68876
-1.32032
-0.92778
-0.524265
11.788
10.8642
9.83498
8.75674
7.68599
6.63883
5.61581
4.61982
3.65805
2.73891
1.87044
1.05995
0.314921
-0.35747
-0.951505
-1.46265
-1.8875
-2.22394
-2.47129
-2.63038
-2.70356
-2.69466
-2.60892
-2.45279
-2.23383
-1.9605
-1.64195
-1.28779
-0.907903
-0.51261
)
;

boundaryField
{
    inlet
    {
        type            zeroGradient;
    }
    outlet
    {
        type            fixedValue;
        value           uniform 0;
    }
    flap
    {
        type            zeroGradient;
    }
    upperWall
    {
        type            zeroGradient;
    }
    lowerWall
    {
        type            zeroGradient;
    }
    frontAndBack
    {
        type            empty;
    }
}


// ************************************************************************* //
