/*--------------------------------*- C++ -*----------------------------------*\
  =========                 |
  \\      /  F ield         | OpenFOAM: The Open Source CFD Toolbox
   \\    /   O peration     | Website:  https://openfoam.org
    \\  /    A nd           | Version:  7
     \\/     M anipulation  |
\*---------------------------------------------------------------------------*/
FoamFile
{
    version     2.0;
    format      ascii;
    class       surfaceScalarField;
    location    "0.2";
    object      phi;
}
// * * * * * * * * * * * * * * * * * * * * * * * * * * * * * * * * * * * * * //

dimensions      [0 3 -1 0 0 0 0];

internalField   nonuniform List<scalar> 
5457
(
0.198447
0.0015525
0.196569
0.0018784
0.194369
0.00219988
0.191803
0.00256639
0.188868
0.00293481
0.185568
0.00330015
0.181899
0.00366931
0.177851
0.00404752
0.173414
0.00443688
0.168576
0.00483778
0.163327
0.00524969
0.157655
0.0056716
0.151553
0.00610218
0.145013
0.00653991
0.13803
0.00698299
0.130601
0.00742906
0.122726
0.00787482
0.114411
0.00831543
0.105667
0.00874388
0.0965164
0.0091504
0.0869944
0.00952196
0.0771523
0.00984214
0.067061
0.0100913
0.0568137
0.0102473
0.0465262
0.0102875
0.0363365
0.0101898
0.0263915
0.009945
0.0169515
0.00943996
0.00795886
0.00899266
0.00795886
0.199958
0.00159457
0.199265
0.00257178
0.198141
0.00332346
0.196622
0.00408531
0.194701
0.00485593
0.192372
0.00562923
0.189625
0.00641585
0.186447
0.00722612
0.182818
0.00806535
0.178721
0.00893515
0.174136
0.00983491
0.169045
0.0107626
0.163432
0.0117152
0.157283
0.012689
0.150586
0.0136796
0.143334
0.0146814
0.135521
0.0156871
0.12715
0.0166863
0.118229
0.0176651
0.108776
0.0186039
0.0988202
0.0194776
0.0884081
0.0202542
0.0776032
0.0208961
0.0664896
0.021361
0.0551721
0.021605
0.0437745
0.0215873
0.0324326
0.0212869
0.0212549
0.0206177
0.0103468
0.0199007
0.0183057
0.199809
0.00178507
0.199173
0.00320826
0.198116
0.00438005
0.196689
0.00551254
0.194894
0.00665067
0.192725
0.00779893
0.19017
0.00897082
0.187215
0.010181
0.183841
0.0114389
0.180028
0.0127483
0.175753
0.0141099
0.170994
0.0155216
0.16573
0.0169795
0.15994
0.0184787
0.153607
0.0200129
0.146714
0.0215743
0.139248
0.0231525
0.131201
0.0247335
0.122569
0.0262977
0.113354
0.0278186
0.10357
0.0292611
0.0932439
0.0305807
0.0824164
0.0317237
0.0711483
0.032629
0.0595206
0.0332327
0.0476346
0.0334733
0.0356036
0.033318
0.0235388
0.0326825
0.011584
0.0318554
0.0298898
0.199732
0.00205338
0.199093
0.00384702
0.198055
0.00541754
0.196652
0.00691612
0.194892
0.00841047
0.192771
0.00992017
0.190279
0.011463
0.187403
0.013057
0.184126
0.0147151
0.180431
0.0164439
0.176296
0.0182453
0.171699
0.0201179
0.166621
0.0220579
0.16104
0.0240598
0.154936
0.0261168
0.14829
0.0282202
0.141084
0.0303584
0.133302
0.0325157
0.12493
0.0346697
0.115959
0.0367898
0.106386
0.0388344
0.0962164
0.0407498
0.0854705
0.0424696
0.0741834
0.0439162
0.062411
0.0450051
0.0502329
0.0456513
0.0377506
0.0458002
0.0250849
0.0453482
0.0123992
0.0445411
0.042289
0.199696
0.00235777
0.199048
0.00449463
0.198028
0.00643716
0.196652
0.00829232
0.194929
0.0101334
0.192856
0.0119934
0.190423
0.0138957
0.187619
0.0158616
0.184427
0.017907
0.18083
0.0200408
0.176809
0.0222664
0.172344
0.024583
0.167414
0.0269872
0.162001
0.0294735
0.156082
0.0320355
0.149638
0.0346647
0.142646
0.0373499
0.135086
0.0400757
0.126936
0.0428196
0.118176
0.0455498
0.108789
0.0482218
0.0987622
0.0507764
0.0880939
0.0531378
0.0767961
0.055214
0.0649012
0.0569
0.0524697
0.0580828
0.0395954
0.0586746
0.0264054
0.0585382
0.0130899
0.0578566
0.0553789
0.199681
0.00267725
0.199031
0.00514401
0.198033
0.00743488
0.196693
0.00963304
0.195016
0.0118102
0.193001
0.0140087
0.190638
0.0162583
0.187916
0.0185835
0.18482
0.0210028
0.181334
0.0235273
0.177438
0.0261618
0.173115
0.0289062
0.168345
0.0317577
0.163106
0.0347117
0.157379
0.0377624
0.151141
0.0409029
0.144367
0.0441238
0.137031
0.0474119
0.129104
0.050747
0.120554
0.0540992
0.111351
0.0574249
0.101464
0.0606631
0.0908697
0.0637326
0.0795543
0.0665294
0.067526
0.0689283
0.0548247
0.0707841
0.0415344
0.0719649
0.027789
0.0722837
0.0138091
0.0718365
0.069188
0.199677
0.003
0.199035
0.0057864
0.198064
0.0084059
0.196765
0.0109315
0.195144
0.013432
0.193196
0.0159559
0.190916
0.0185387
0.188291
0.0212086
0.185307
0.0239865
0.181949
0.0268854
0.1782
0.0299115
0.17404
0.0330658
0.169451
0.0363463
0.164413
0.0397496
0.158904
0.0432715
0.1529
0.0469075
0.146372
0.0506517
0.139289
0.0544948
0.131614
0.0584218
0.123305
0.0624078
0.114316
0.0664141
0.104597
0.0703828
0.0940974
0.0742318
0.0827769
0.0778498
0.0706119
0.0810933
0.0576131
0.0837828
0.043847
0.085731
0.0294494
0.0866812
0.0146746
0.0866113
0.0838626
0.199681
0.00331874
0.199054
0.00641406
0.198115
0.00934477
0.196865
0.0121811
0.195307
0.0149903
0.193438
0.0178247
0.191252
0.0207251
0.188737
0.0237231
0.185882
0.0268419
0.18267
0.0300966
0.179087
0.0334947
0.175115
0.0370383
0.170735
0.0407265
0.165927
0.0445576
0.160668
0.0485297
0.154934
0.0526419
0.148693
0.0568929
0.141908
0.0612797
0.134535
0.0657948
0.126521
0.0704221
0.117802
0.0751325
0.108308
0.079877
0.0979597
0.08458
0.0866794
0.0891301
0.074401
0.0933717
0.0610907
0.0970932
0.0467783
0.100043
0.031587
0.101873
0.0158023
0.102396
0.0996649
0.19969
0.00362858
0.199084
0.00702064
0.198182
0.0102459
0.196988
0.0133758
0.195501
0.0164773
0.19372
0.0196058
0.191638
0.0228064
0.189248
0.0261139
0.186536
0.0295541
0.183489
0.0331436
0.180092
0.0368912
0.17633
0.0408004
0.172185
0.0448717
0.167637
0.0491052
0.162665
0.0535022
0.157241
0.0580658
0.151333
0.062801
0.1449
0.0677127
0.137891
0.0728038
0.130242
0.0780708
0.121875
0.0834994
0.112695
0.0890572
0.10259
0.0946846
0.0914381
0.100282
0.0791137
0.105696
0.0655133
0.110694
0.0505964
0.11496
0.0344376
0.118031
0.0173362
0.119497
0.117001
0.199703
0.00392601
0.199122
0.00760092
0.198264
0.0111039
0.19713
0.0145096
0.195722
0.0178858
0.194037
0.0212905
0.192071
0.0247722
0.189816
0.0283691
0.187261
0.0321089
0.184395
0.03601
0.181204
0.0400823
0.177674
0.0443304
0.173789
0.0487565
0.169532
0.0533628
0.16488
0.0581539
0.159808
0.063138
0.154282
0.0683269
0.148259
0.0737352
0.141685
0.0793781
0.134487
0.0852688
0.126573
0.0914134
0.117826
0.0978044
0.108099
0.104411
0.0972177
0.111164
0.08498
0.117934
0.0711779
0.124496
0.0556444
0.130494
0.0383331
0.135343
0.0194948
0.138336
0.136496
0.199718
0.00420842
0.199168
0.00815065
0.198358
0.0119141
0.19729
0.0155771
0.195967
0.0192092
0.194386
0.0228709
0.192545
0.0266135
0.190436
0.0304779
0.188051
0.0344939
0.18538
0.0386811
0.182412
0.0430506
0.179134
0.0476082
0.175533
0.0523574
0.171593
0.0573025
0.167296
0.0624517
0.162615
0.0678182
0.157521
0.0734213
0.15197
0.079286
0.145907
0.0854418
0.139254
0.0919211
0.131912
0.0987553
0.123746
0.105971
0.114579
0.113579
0.104178
0.121564
0.0922529
0.129859
0.078452
0.138297
0.0623998
0.146546
0.043791
0.153951
0.0226587
0.159468
0.159155
0.199735
0.00447377
0.199219
0.00866637
0.198461
0.0126722
0.197464
0.0165735
0.196232
0.020442
0.194762
0.0243402
0.193054
0.0283221
0.191101
0.0324309
0.188897
0.0366979
0.186434
0.041144
0.183703
0.0457812
0.180695
0.050616
0.1774
0.0556532
0.173803
0.060899
0.16989
0.0663648
0.16564
0.0720686
0.161024
0.078037
0.156005
0.0843052
0.150529
0.0909176
0.144523
0.0979268
0.137886
0.105393
0.130475
0.113382
0.122092
0.121962
0.112462
0.131194
0.101202
0.141119
0.0877898
0.151709
0.0715438
0.162792
0.0516679
0.173827
0.0275615
0.183574
0.186716
0.199753
0.00472047
0.199274
0.00914525
0.198572
0.0133747
0.197651
0.0174946
0.196514
0.0215791
0.195161
0.0256925
0.193592
0.0298912
0.191803
0.0342199
0.18979
0.0387116
0.187546
0.0433878
0.185066
0.0482612
0.182343
0.0533387
0.17937
0.0586259
0.176139
0.0641305
0.172637
0.0698663
0.16885
0.0758556
0.164756
0.0821311
0.160324
0.0887372
0.15551
0.0957317
0.15025
0.103186
0.144453
0.11119
0.137986
0.119849
0.130654
0.129294
0.122164
0.139684
0.112077
0.151205
0.0997148
0.164071
0.0840302
0.178477
0.0634286
0.194429
0.0357663
0.211237
0.222482
0.199773
0.00494728
0.199333
0.00958504
0.19869
0.0140186
0.197847
0.018337
0.19681
0.0226165
0.195579
0.0269231
0.194155
0.031315
0.192537
0.0358385
0.190721
0.0405274
0.188705
0.0454038
0.186486
0.0504803
0.18406
0.0557642
0.181425
0.061261
0.178576
0.0669794
0.175508
0.0729346
0.172212
0.0791518
0.168675
0.085668
0.164877
0.0925347
0.160789
0.0998198
0.156365
0.10761
0.151537
0.116018
0.146201
0.125185
0.140198
0.135298
0.133275
0.146607
0.125018
0.159462
0.114716
0.174373
0.101079
0.192114
0.0815854
0.213922
0.0510181
0.241804
0.273501
0.199794
0.00515328
0.199395
0.00998399
0.198812
0.0146016
0.198051
0.0190979
0.197117
0.023551
0.196012
0.0280283
0.194737
0.0325895
0.193294
0.0372818
0.191682
0.0421397
0.1899
0.0471853
0.187949
0.0524311
0.18583
0.0578836
0.183543
0.0635481
0.181089
0.069433
0.17847
0.0755539
0.175685
0.081937
0.172731
0.0886214
0.169604
0.0956623
0.16629
0.103133
0.162772
0.111129
0.159015
0.119775
0.154967
0.129233
0.150543
0.139722
0.1456
0.15155
0.139892
0.16517
0.132956
0.181309
0.123827
0.201243
0.110094
0.227655
0.0836548
0.268243
0.357155
-0.0134061
0.0134061
-0.0279908
0.0145847
-0.0438913
0.0159005
-0.0606542
0.0167629
-0.0780051
0.0173509
-0.0954176
0.0174126
-0.112272
0.0168546
-0.127853
0.0155812
-0.141385
0.0135315
-0.152076
0.010691
-0.159182
0.00710562
-0.162062
0.00288022
-0.160278
-0.00178356
-0.153601
-0.00667754
-0.14221
-0.0113904
-0.12665
-0.0155599
-0.107725
-0.0189253
-0.0863868
-0.0213384
-0.0636279
-0.0227589
-0.040349
-0.0232788
-0.0173374
-0.0230116
0.00473043
-0.0220678
0.025476
-0.0207456
0.0446076
-0.0191316
0.0620937
-0.017486
0.0779421
-0.0158484
0.0922073
-0.0142652
0.104999
-0.0127913
0.116485
-0.0114861
-0.0107735
-0.0146872
0.0280933
-0.0304904
0.030388
-0.0471483
0.0325583
-0.0645853
0.0341999
-0.0824442
0.0352098
-0.100236
0.035204
-0.117335
0.0339538
-0.133018
0.0312645
-0.146496
0.0270096
-0.156963
0.0211584
-0.163661
0.0138036
-0.165965
0.00518393
-0.163426
-0.00432236
-0.155934
-0.01417
-0.143746
-0.0235781
-0.127454
-0.0318518
-0.107883
-0.038496
-0.0859734
-0.0432484
-0.062669
-0.0460633
-0.0388863
-0.0470616
-0.0153668
-0.0465311
0.00715205
-0.0445867
0.0282548
-0.0418483
0.0478353
-0.0387122
0.0658262
-0.0354769
0.0822227
-0.032245
0.0970747
-0.0291172
0.110479
-0.0261952
0.122564
-0.023571
-0.0216147
-0.0152904
0.0433838
-0.0316598
0.0467573
-0.0488362
0.0497347
-0.0666997
0.0520634
-0.0848922
0.0534023
-0.102915
0.0532265
-0.120139
0.0511783
-0.135834
0.046959
-0.149197
0.0403729
-0.159407
0.0313686
-0.165689
0.0200851
-0.167399
0.00689418
-0.164123
-0.00759818
-0.15581
-0.0224832
-0.142833
-0.0365551
-0.125875
-0.0488099
-0.105814
-0.0585566
-0.0836067
-0.065456
-0.060194
-0.069476
-0.0364596
-0.070796
-0.0130766
-0.0699141
0.00928489
-0.0669482
0.0301613
-0.0627248
0.0495397
-0.0580905
0.06734
-0.0532772
0.0835529
-0.0484579
0.0982281
-0.0437924
0.111458
-0.0394254
0.123363
-0.0354757
-0.0322879
-0.0156185
0.0590023
-0.0323185
0.0634574
-0.0498191
0.0672352
-0.0679673
0.0702116
-0.0863855
0.0718205
-0.104562
0.0714032
-0.121855
0.0684707
-0.137508
0.0626129
-0.15069
0.0535545
-0.160538
0.0412163
-0.166237
0.0257842
-0.167135
0.00779205
-0.162858
-0.0118745
-0.15351
-0.0318314
-0.139596
-0.0504696
-0.121896
-0.0665092
-0.101344
-0.0791089
-0.0789064
-0.0878937
-0.0555111
-0.0928713
-0.0319335
-0.0943735
-0.00895745
-0.0928902
0.0129187
-0.0888244
0.0334036
-0.0832097
0.0523915
-0.0770784
0.0698163
-0.070702
0.0856745
-0.064316
0.100017
-0.058135
0.112934
-0.0523427
0.124542
-0.047083
-0.0426702
-0.0156976
0.0746998
-0.0324565
0.0802163
-0.0499988
0.0847775
-0.068156
0.0883688
-0.0865366
0.0902011
-0.104619
0.0894852
-0.121742
0.0855945
-0.137127
0.0779974
-0.149901
0.0663287
-0.159159
0.050474
-0.164054
0.0306797
-0.163927
0.00766434
-0.158488
-0.0173134
-0.14802
-0.0422995
-0.133164
-0.065325
-0.114797
-0.0848764
-0.0938958
-0.10001
-0.0714228
-0.110367
-0.0482614
-0.116033
-0.0251167
-0.117518
-0.00279394
-0.115213
0.0183428
-0.109961
0.0381841
-0.103051
0.0565642
-0.0954585
0.0734138
-0.0875516
0.0887356
-0.0796379
0.102584
-0.0719834
0.115048
-0.0648065
0.126239
-0.0582744
-0.0526658
-0.0154087
0.0901085
-0.0318244
0.0966321
-0.0489887
0.101942
-0.0667311
0.106111
-0.0846657
0.108136
-0.102273
0.107092
-0.118887
0.102208
-0.133706
0.0928166
-0.145821
0.0784435
-0.154273
0.0589262
-0.158168
0.0345748
-0.156881
0.00637761
-0.150219
-0.0239758
-0.138661
-0.0538575
-0.12299
-0.0809962
-0.104155
-0.103711
-0.0831569
-0.121009
-0.0609319
-0.132592
-0.0382768
-0.138688
-0.0159362
-0.139859
0.00543916
-0.136588
0.0256223
-0.130144
0.04458
-0.122009
0.062126
-0.113004
0.0781914
-0.103617
0.0927873
-0.0942337
0.105972
-0.0851685
0.117835
-0.0766691
0.128484
-0.0689233
-0.0621665
-0.0145956
0.104704
-0.030122
0.112158
-0.0463517
0.118171
-0.0631333
0.122893
-0.0801097
0.125112
-0.0967829
0.123766
-0.112496
0.117921
-0.126434
0.106755
-0.137645
0.0896541
-0.1451
0.0663814
-0.14784
0.0373149
-0.145284
0.0038211
-0.137406
-0.031853
-0.124907
-0.0663573
-0.108679
-0.0972235
-0.0897051
-0.122685
-0.0689694
-0.141744
-0.0473432
-0.154218
-0.025562
-0.160469
-0.00443128
-0.16099
0.015687
-0.156707
0.0347309
-0.149188
0.0525785
-0.139856
0.0690662
-0.129492
0.0841405
-0.118691
0.0978232
-0.107916
0.110179
-0.0975241
0.121296
-0.0877859
0.131278
-0.0789057
-0.07107
-0.0131144
0.117819
-0.0270805
0.126125
-0.0417105
0.132801
-0.0568936
0.138076
-0.0723225
0.140541
-0.0875379
0.138981
-0.101904
0.132287
-0.114599
0.119451
-0.124628
0.0996825
-0.130869
0.0726224
-0.132373
0.0388196
-0.128489
-6.32344e-05
-0.119499
-0.0408431
-0.106343
-0.0795131
-0.0899634
-0.113603
-0.0712996
-0.141349
-0.0512885
-0.161755
-0.0307185
-0.174788
-0.0102907
-0.180897
0.00930538
-0.180586
0.0279142
-0.175315
0.0455941
-0.166868
0.0621015
-0.156364
0.0773109
-0.144702
0.0911943
-0.132575
0.103787
-0.120509
0.115158
-0.108895
0.125395
-0.0980232
0.134596
-0.0881068
-0.0792819
-0.0108609
0.128679
-0.0225128
0.137776
-0.0348063
0.145095
-0.0476884
0.150958
-0.0609171
0.15377
-0.0740881
0.152152
-0.0866031
0.144802
-0.0976485
0.130496
-0.106197
0.108231
-0.11109
0.0775154
-0.111148
0.0388775
-0.105946
-0.00526481
-0.0960703
-0.0507189
-0.0827035
-0.0928798
-0.0667318
-0.129575
-0.0489306
-0.15915
-0.0301917
-0.180494
-0.0111495
-0.19383
0.00732921
-0.199376
0.0250277
-0.198284
0.0420394
-0.192327
0.0580942
-0.182923
0.0730189
-0.171288
0.0867345
-0.158417
0.0992387
-0.145079
0.110578
-0.131848
0.120827
-0.119144
0.130068
-0.107264
0.138389
-0.0964277
-0.0867217
-0.00779181
0.136471
-0.0163453
0.14633
-0.0255397
0.154289
-0.0353856
0.160804
-0.0457149
0.164099
-0.0561914
0.162629
-0.0662749
0.154886
-0.0751872
0.139408
-0.0819184
0.114962
-0.0852957
0.0808927
-0.0837368
0.0373186
-0.0773032
-0.0116984
-0.0669328
-0.0610893
-0.053965
-0.105848
-0.0390975
-0.144442
-0.0227588
-0.175489
-0.00588638
-0.197367
0.0108178
-0.210534
0.0270527
-0.21561
0.0428416
-0.214073
0.0579111
-0.207397
0.0720537
-0.197065
0.0851524
-0.184387
0.0971685
-0.170433
0.108121
-0.156032
0.118066
-0.141793
0.127075
-0.128153
0.135223
-0.115412
0.142584
-0.103789
-0.0933255
-0.00394021
0.140411
-0.00863912
0.151029
-0.0140092
0.159659
-0.0201033
0.166898
-0.0268236
0.170819
-0.033907
0.169712
-0.0408853
0.161864
-0.0470323
0.145555
-0.0514008
0.119331
-0.052528
0.0820199
-0.0497286
0.0345192
-0.0424664
-0.0189606
-0.0322901
-0.0712656
-0.0204619
-0.117676
-0.00717367
-0.157731
0.00669002
-0.189353
0.0208517
-0.211528
0.0350282
-0.224711
0.0490101
-0.229592
0.0624993
-0.227562
0.0752871
-0.220184
0.0872349
-0.209013
0.0982772
-0.195429
0.108408
-0.180564
0.117661
-0.165285
0.126094
-0.150226
0.133771
-0.13583
0.140754
-0.122395
0.147098
-0.110133
-0.0990488
0.000569016
0.139842
0.000400186
0.151198
-0.000543939
0.160604
-0.00228769
0.168642
-0.00476747
0.173299
-0.00781967
0.172764
-0.0110709
0.165115
-0.0138567
0.148341
-0.0150071
0.120481
-0.013227
0.0802398
-0.00802541
0.0293177
-0.000860742
-0.0261253
0.00707885
-0.0792052
0.0167378
-0.127335
0.0273094
-0.168302
0.0384671
-0.20051
0.0500215
-0.223083
0.0615623
-0.236252
0.0728432
-0.240873
0.083649
-0.238368
0.0938395
-0.230375
0.103339
-0.218512
0.112125
-0.204215
0.120216
-0.188655
0.127654
-0.172723
0.134489
-0.157062
0.140772
-0.142113
0.146545
-0.128167
0.151838
-0.115426
-0.103867
0.00579484
0.134048
0.0106364
0.146356
0.0144103
0.15683
0.0173567
0.165695
0.019512
0.171144
0.0209676
0.171308
0.0220657
0.164017
0.0235049
0.146902
0.0263292
0.117657
0.0309418
0.0756271
0.0365976
0.0236619
0.0425112
-0.0320389
0.0490667
-0.0857607
0.0563705
-0.134639
0.0643382
-0.17627
0.0727293
-0.208901
0.0813129
-0.231666
0.0898043
-0.244743
0.0980155
-0.249084
0.105821
-0.246173
0.113157
-0.237711
0.120007
-0.225362
0.126387
-0.210596
0.132333
-0.1946
0.137883
-0.178273
0.143074
-0.162253
0.147934
-0.146973
0.152478
-0.132711
0.156712
-0.11966
-0.107776
0.0121349
0.121913
0.0221219
0.136369
0.030585
0.148366
0.0382894
0.157991
0.0451789
0.164254
0.0513212
0.165166
0.0571061
0.158232
0.0631512
0.140857
0.0698623
0.110946
0.0767196
0.0687698
0.0826551
0.0177263
0.0876719
-0.0370557
0.0925435
-0.0906323
0.0976258
-0.139721
0.102962
-0.181606
0.108407
-0.214347
0.113793
-0.237052
0.118968
-0.249918
0.123857
-0.253974
0.128446
-0.250762
0.132757
-0.242022
0.136837
-0.229442
0.140733
-0.214492
0.144487
-0.198354
0.148128
-0.181914
0.151671
-0.165796
0.155114
-0.150416
0.158443
-0.13604
0.161631
-0.122849
-0.110791
0.0209371
0.100976
0.0347582
0.122548
0.0476115
0.135513
0.0600252
0.145577
0.0714569
0.152823
0.0820755
0.154547
0.0922861
0.148022
0.102379
0.130763
0.112065
0.10126
0.120505
0.0603303
0.127032
0.0111986
0.131726
-0.0417493
0.135493
-0.0943998
0.138794
-0.143022
0.141738
-0.184549
0.144287
-0.216896
0.146418
-0.239183
0.148163
-0.251663
0.149611
-0.255423
0.150888
-0.252038
0.152116
-0.24325
0.1534
-0.230726
0.154816
-0.215908
0.156405
-0.199943
0.158175
-0.183685
0.160113
-0.167734
0.162183
-0.152486
0.164338
-0.138195
0.166518
-0.125029
-0.112941
0.207469
0.00534437
0.207099
0.0103536
0.20656
0.0151405
0.205859
0.0197993
0.205
0.0244093
0.203989
0.0290393
0.202829
0.03375
0.201521
0.0385894
0.200069
0.0435919
0.198475
0.0487794
0.196743
0.0541634
0.194877
0.0597496
0.192883
0.0655419
0.190768
0.0715474
0.188542
0.0777805
0.186212
0.0842665
0.18379
0.0910439
0.181285
0.098167
0.178709
0.105709
0.176074
0.113764
0.173393
0.122456
0.17068
0.131945
0.167958
0.142444
0.165262
0.154245
0.162667
0.167766
0.160349
0.183626
0.158836
0.202757
0.160234
0.226257
0.177096
0.251381
0.265696
0.268555
0.212512
0.00551554
0.212181
0.0106843
0.2117
0.0156215
0.211076
0.0204231
0.210316
0.0251695
0.209425
0.0299304
0.208408
0.0347669
0.20727
0.0397272
0.206016
0.0448457
0.204653
0.0501431
0.203186
0.0556298
0.201627
0.0613095
0.199984
0.0671841
0.198273
0.0732582
0.19651
0.0795437
0.194715
0.0860623
0.19291
0.0928487
0.191124
0.0999524
0.189394
0.107439
0.187764
0.115394
0.186297
0.123923
0.185081
0.133161
0.184252
0.143273
0.184034
0.154463
0.184831
0.166969
0.187441
0.181017
0.193557
0.196641
0.206289
0.213525
0.226954
0.230716
0.24704
0.245611
0.217678
0.00566477
0.21739
0.0109722
0.216973
0.0160389
0.216434
0.020962
0.215781
0.0258227
0.21502
0.030691
0.214159
0.035628
0.213204
0.0406819
0.212164
0.0458858
0.211048
0.0512596
0.209866
0.0568115
0.208633
0.0625427
0.207365
0.0684521
0.206082
0.0745409
0.20481
0.0808164
0.203577
0.0872952
0.20242
0.0940051
0.201386
0.100987
0.200532
0.108293
0.199936
0.115991
0.199699
0.12416
0.199967
0.132893
0.200953
0.142288
0.202974
0.152442
0.20652
0.163423
0.212305
0.175231
0.221216
0.18773
0.233993
0.200748
0.250308
0.214401
0.226059
0.271289
0.222971
0.00579017
0.22273
0.0112136
0.222381
0.0163876
0.221934
0.0214096
0.221396
0.0263609
0.220775
0.0313116
0.22008
0.0363226
0.219321
0.0414409
0.218508
0.0466988
0.217654
0.0521141
0.216773
0.0576925
0.215883
0.0634322
0.215007
0.0693283
0.214171
0.0753772
0.213406
0.0815808
0.212753
0.0879484
0.212259
0.0944989
0.211985
0.101261
0.212007
0.108271
0.212422
0.115575
0.213362
0.123221
0.214997
0.131258
0.21756
0.139724
0.221365
0.148637
0.226813
0.157975
0.234384
0.16766
0.244585
0.177529
0.258045
0.187288
0.275825
0.196621
0.20324
0.298644
0.228393
0.00589006
0.228202
0.0114052
0.227927
0.0166627
0.227577
0.0217596
0.227161
0.0267768
0.226688
0.0317839
0.22617
0.0368409
0.225617
0.0419939
0.225043
0.0472733
0.224462
0.0526945
0.223894
0.0582605
0.223361
0.0639657
0.222888
0.0698008
0.222508
0.0757568
0.22226
0.0818289
0.22219
0.0880183
0.222356
0.0943335
0.222827
0.10079
0.223691
0.107407
0.225059
0.114208
0.227069
0.121212
0.229896
0.12843
0.233761
0.135859
0.238936
0.143463
0.245743
0.151168
0.254561
0.158842
0.265823
0.166267
0.280041
0.173071
0.297782
0.17888
0.182665
0.318356
0.233948
0.00596292
0.233809
0.0115443
0.233611
0.0168603
0.233364
0.0220068
0.233076
0.0270641
0.23276
0.0321007
0.232425
0.0371754
0.232087
0.0423325
0.231759
0.0476006
0.231462
0.0529923
0.231215
0.0585073
0.231044
0.064136
0.230981
0.0698643
0.23106
0.0756774
0.231326
0.0815632
0.23183
0.0875144
0.232635
0.0935287
0.233816
0.0996082
0.235466
0.105757
0.237697
0.111977
0.240644
0.118264
0.244472
0.124602
0.249376
0.130955
0.25558
0.137258
0.263344
0.143404
0.272948
0.149238
0.284675
0.15454
0.298742
0.159003
0.315286
0.162336
0.164074
0.333877
0.239637
0.00600746
0.239553
0.0116283
0.239436
0.0169767
0.239296
0.0221469
0.239143
0.0272179
0.238987
0.0322565
0.238842
0.03732
0.238724
0.0424508
0.238649
0.047675
0.238639
0.0530023
0.238718
0.0584291
0.238912
0.0639415
0.239256
0.0695203
0.239789
0.075145
0.240555
0.0807963
0.241611
0.0864584
0.243021
0.0921191
0.244861
0.0977683
0.247222
0.103396
0.25021
0.108989
0.25395
0.114524
0.258585
0.119967
0.264278
0.125263
0.271204
0.130331
0.27955
0.135059
0.289493
0.139295
0.30118
0.142852
0.314683
0.145501
0.330018
0.147001
0.147104
0.346987
0.245464
0.00602264
0.245437
0.0116553
0.245404
0.0170093
0.245375
0.0221766
0.245358
0.0272342
0.245368
0.0322473
0.245417
0.0372709
0.245522
0.0423454
0.245703
0.047494
0.245982
0.0527236
0.246384
0.058027
0.246939
0.0633861
0.247682
0.0687771
0.248654
0.0741736
0.2499
0.0795499
0.251476
0.0848825
0.253445
0.0901504
0.255879
0.0953336
0.258864
0.100411
0.262495
0.105358
0.26688
0.11014
0.272135
0.114711
0.278388
0.11901
0.285766
0.122954
0.294388
0.126436
0.304356
0.129327
0.315734
0.131475
0.328526
0.132708
0.34268
0.132847
0.131761
0.358024
0.251432
0.00600771
0.251464
0.0116239
0.251517
0.0169561
0.2516
0.0220935
0.251723
0.0271109
0.251899
0.032071
0.252144
0.0370266
0.252474
0.0420156
0.252909
0.0470584
0.253474
0.052159
0.254194
0.0573066
0.255101
0.0624795
0.256229
0.0676492
0.257618
0.0727845
0.259314
0.0778539
0.261369
0.0828275
0.263842
0.0876772
0.2668
0.0923757
0.270317
0.0968942
0.274474
0.1012
0.27936
0.105254
0.285065
0.109006
0.29168
0.112395
0.299289
0.115345
0.307962
0.117763
0.317744
0.119545
0.328645
0.120574
0.340624
0.120729
0.353581
0.11989
0.117994
0.367348
0.257544
0.00596219
0.257635
0.0115331
0.257775
0.016816
0.257972
0.0218967
0.258236
0.0268471
0.258579
0.0317273
0.259018
0.0365878
0.25957
0.0414634
0.260257
0.0463722
0.261101
0.051315
0.262129
0.056278
0.263373
0.061236
0.264865
0.0661569
0.266645
0.071005
0.268754
0.0757444
0.271241
0.0803404
0.274159
0.0847597
0.277564
0.0889699
0.281521
0.092938
0.286093
0.0966279
0.291348
0.0999988
0.297352
0.103003
0.304163
0.105584
0.311832
0.107676
0.320388
0.109207
0.329838
0.110095
0.340154
0.110258
0.351266
0.109617
0.363059
0.108097
0.105677
0.375376
0.263804
0.00588592
0.263954
0.0113828
0.264181
0.0165889
0.264492
0.0215862
0.264895
0.0264434
0.265405
0.0312179
0.266035
0.0359573
0.266805
0.0406937
0.267735
0.0454424
0.268848
0.0502018
0.270171
0.0549552
0.271732
0.0596747
0.273564
0.0643249
0.275702
0.0688672
0.278184
0.0732623
0.281052
0.0774721
0.284352
0.0814603
0.28813
0.0851919
0.292436
0.0886321
0.297319
0.0917448
0.302826
0.0944912
0.309001
0.0968283
0.315876
0.0987086
0.323472
0.10008
0.331792
0.100887
0.340813
0.101073
0.350487
0.100585
0.360731
0.099373
0.371428
0.0973997
0.0946674
0.382438
0.270214
0.00577903
0.270423
0.0111732
0.270737
0.0162754
0.27116
0.0211633
0.271701
0.0259021
0.272373
0.0305462
0.27319
0.0351402
0.27417
0.0397136
0.275333
0.0442792
0.276702
0.0488329
0.278302
0.0533558
0.280158
0.0578179
0.282302
0.0621818
0.284762
0.0664065
0.287574
0.0704509
0.290771
0.0742752
0.294389
0.0778416
0.298467
0.0811146
0.303039
0.08406
0.308139
0.086644
0.313799
0.088832
0.320039
0.0905879
0.326873
0.0918744
0.3343
0.0926528
0.342303
0.0928849
0.350842
0.0925343
0.359857
0.0915696
0.369262
0.0899675
0.378948
0.0877141
0.0848279
0.388787
0.276778
0.00564196
0.277046
0.0109054
0.277444
0.0158772
0.277977
0.0206304
0.278652
0.0252268
0.279481
0.0297172
0.280478
0.0341435
0.281659
0.0385325
0.283043
0.0428947
0.284652
0.0472241
0.286508
0.0515
0.288635
0.055691
0.291058
0.0597584
0.293805
0.0636604
0.2969
0.0673549
0.300374
0.0708019
0.304252
0.0739638
0.30856
0.0768061
0.313323
0.079297
0.318561
0.0814064
0.324287
0.0831052
0.33051
0.0843654
0.337225
0.0851597
0.344416
0.085462
0.352052
0.0852488
0.360085
0.0845006
0.368451
0.0832037
0.377066
0.0813524
0.38583
0.07895
0.0760245
0.394634
0.283499
0.00547543
0.283824
0.0105807
0.284305
0.0153965
0.284944
0.019991
0.285749
0.0244222
0.286728
0.0287376
0.287896
0.032976
0.289266
0.0371619
0.290858
0.0413035
0.292688
0.0453934
0.294778
0.0494099
0.297148
0.0533208
0.29982
0.057087
0.302814
0.0606667
0.30615
0.0640183
0.30985
0.0671024
0.31393
0.0698831
0.318408
0.0723281
0.323296
0.0744089
0.328603
0.0761001
0.334329
0.0773789
0.34047
0.0782249
0.347009
0.0786204
0.35392
0.0785504
0.361166
0.0780036
0.368693
0.0769735
0.376437
0.0754597
0.384321
0.0734688
0.392255
0.0710152
0.068132
0.400148
0.290381
0.00528041
0.290761
0.0102011
0.291321
0.0148364
0.292062
0.0192495
0.29299
0.0234944
0.294113
0.0276152
0.295441
0.0316479
0.296988
0.0356144
0.29877
0.0395215
0.300803
0.0433604
0.303104
0.0471089
0.30569
0.0507349
0.308577
0.0541999
0.311781
0.0574628
0.315316
0.0604832
0.319195
0.0632237
0.323428
0.0656505
0.328021
0.0677347
0.332978
0.0694516
0.338298
0.0707809
0.343971
0.0717058
0.349982
0.0722133
0.356309
0.0722939
0.362917
0.0719418
0.369766
0.0711554
0.376801
0.0699381
0.383962
0.0682987
0.391178
0.0662522
0.398374
0.0638196
0.061036
0.40547
0.297428
0.00505811
0.29786
0.00976902
0.298496
0.0142006
0.299334
0.018411
0.300379
0.0224502
0.301635
0.026359
0.303112
0.0301703
0.304823
0.0339041
0.306779
0.0375654
0.308994
0.0411451
0.311482
0.0446209
0.314256
0.0479612
0.317327
0.0511287
0.320706
0.054084
0.3244
0.0567888
0.328416
0.059208
0.332756
0.0613109
0.337418
0.0630721
0.342399
0.0644711
0.347687
0.0654925
0.353268
0.0661252
0.359118
0.0663626
0.36521
0.0662019
0.371507
0.0656449
0.377965
0.0646971
0.384535
0.063369
0.391158
0.0616756
0.397773
0.0596369
0.404315
0.0572778
0.054633
0.410718
0.304643
0.00480989
0.305125
0.0092872
0.305832
0.0134933
0.306762
0.0174814
0.307915
0.0212973
0.309295
0.0249785
0.310911
0.0285552
0.312769
0.0320452
0.314882
0.0354527
0.317259
0.0387679
0.319911
0.0419692
0.322846
0.0450261
0.326072
0.0479032
0.329592
0.0505632
0.333411
0.0529705
0.337526
0.0550927
0.341934
0.0569026
0.346628
0.0583784
0.351595
0.0595038
0.35682
0.0602678
0.362281
0.0606644
0.367951
0.0606922
0.373799
0.060354
0.379787
0.0596568
0.385872
0.0586118
0.392008
0.0572337
0.398142
0.0555417
0.40422
0.0535584
0.410188
0.05131
0.0488301
0.415991
0.312031
0.00453726
0.31256
0.00875859
0.313334
0.012719
0.314348
0.0164668
0.315602
0.0200436
0.317097
0.0234837
0.318837
0.0268147
0.32083
0.0300525
0.323082
0.0332003
0.325602
0.0362484
0.328395
0.0391762
0.331466
0.0419548
0.334818
0.044551
0.338452
0.04693
0.342363
0.0490593
0.346546
0.0509096
0.350991
0.0524573
0.355686
0.053684
0.360612
0.0545772
0.36575
0.05513
0.371074
0.0553404
0.376555
0.0552113
0.382159
0.0547497
0.38785
0.0539663
0.393586
0.0528757
0.399324
0.0514958
0.405018
0.0498474
0.410622
0.0479544
0.416089
0.045843
0.0435445
0.421375
0.319595
0.0042418
0.320167
0.00818626
0.321004
0.0118824
0.322097
0.0153734
0.323444
0.0186972
0.325043
0.0218848
0.326896
0.024961
0.329009
0.0279402
0.331384
0.0308248
0.334027
0.0336055
0.336941
0.0362629
0.340125
0.0387701
0.34358
0.0410964
0.3473
0.04321
0.351278
0.0450815
0.355502
0.046685
0.35996
0.0479999
0.364632
0.0490115
0.369499
0.0497106
0.374535
0.0500935
0.379714
0.0501616
0.385005
0.0499209
0.390373
0.0493811
0.395784
0.0485556
0.401199
0.0474611
0.406578
0.0461166
0.411881
0.0445439
0.417069
0.0427666
0.422102
0.0408098
0.0387022
0.426945
0.32734
0.00392506
0.327953
0.00757332
0.328847
0.010988
0.330013
0.0142076
0.331444
0.0172661
0.333138
0.0201913
0.335093
0.0230056
0.337312
0.0257216
0.339795
0.0283414
0.342544
0.0308562
0.345559
0.0332479
0.348837
0.035492
0.352373
0.0375605
0.356158
0.0394248
0.360181
0.0410585
0.364427
0.0424391
0.368878
0.0435492
0.373512
0.0443769
0.378307
0.044916
0.383235
0.0451654
0.388268
0.0451291
0.393373
0.0448149
0.39852
0.0442346
0.403673
0.0434029
0.408797
0.0423372
0.413856
0.0410571
0.418816
0.0395839
0.423642
0.0379401
0.428303
0.0361494
0.0342376
0.432767
0.33527
0.00358855
0.335921
0.00692269
0.336869
0.0100403
0.338101
0.0129753
0.339609
0.0157579
0.341388
0.0184127
0.343434
0.0209594
0.345746
0.0234094
0.348324
0.0257641
0.351164
0.0280156
0.354264
0.0301476
0.357619
0.0321377
0.361218
0.0339609
0.365052
0.0355917
0.369103
0.0370069
0.373355
0.0381872
0.377787
0.0391179
0.382374
0.0397898
0.38709
0.0401991
0.391909
0.0403467
0.3968
0.040238
0.401733
0.0398824
0.406675
0.0392923
0.411595
0.0384831
0.41646
0.0374722
0.421239
0.0362784
0.4259
0.0349222
0.430416
0.0334245
0.434758
0.0318069
0.0300924
0.438904
0.343391
0.00323359
0.344076
0.006237
0.345073
0.00904322
0.346367
0.011682
0.347945
0.0141795
0.349801
0.0165571
0.351928
0.018832
0.354323
0.0210142
0.356982
0.0231049
0.359901
0.0250968
0.363073
0.0269754
0.36649
0.0287209
0.37014
0.030311
0.374008
0.0317236
0.378077
0.0329384
0.382325