/*--------------------------------*- C++ -*----------------------------------*\
  =========                 |
  \\      /  F ield         | OpenFOAM: The Open Source CFD Toolbox
   \\    /   O peration     | Website:  https://openfoam.org
    \\  /    A nd           | Version:  7
     \\/     M anipulation  |
\*---------------------------------------------------------------------------*/
FoamFile
{
    version     2.0;
    format      ascii;
    class       volVectorField;
    location    "0.2";
    object      U;
}
// * * * * * * * * * * * * * * * * * * * * * * * * * * * * * * * * * * * * * //

dimensions      [0 1 -1 0 0 0 0];

internalField   nonuniform List<vector> 
2790
(
(9.94458 0.0201746 0)
(9.87832 0.0288529 0)
(9.78142 0.034843 0)
(9.66079 0.0409668 0)
(9.52204 0.0473039 0)
(9.36607 0.053776 0)
(9.19214 0.0604729 0)
(8.99953 0.0674998 0)
(8.78769 0.0749215 0)
(8.55608 0.0827751 0)
(8.30418 0.0910875 0)
(8.03144 0.0998843 0)
(7.73739 0.109193 0)
(7.42165 0.119047 0)
(7.08389 0.12948 0)
(6.72393 0.140524 0)
(6.34167 0.152199 0)
(5.93725 0.164495 0)
(5.51107 0.177358 0)
(5.06395 0.190672 0)
(4.59728 0.204232 0)
(4.11316 0.217737 0)
(3.6146 0.230777 0)
(3.10564 0.242847 0)
(2.59148 0.253376 0)
(2.07849 0.261776 0)
(1.57229 0.267934 0)
(1.10466 0.266946 0)
(0.536886 0.272406 0)
(0.367448 0.262986 0)
(9.99909 0.039626 0)
(9.98405 0.060174 0)
(9.94195 0.0757612 0)
(9.87544 0.0920432 0)
(9.78862 0.109302 0)
(9.68233 0.127365 0)
(9.5558 0.146444 0)
(9.40806 0.166813 0)
(9.23827 0.188656 0)
(9.04551 0.212075 0)
(8.82884 0.237131 0)
(8.58735 0.263855 0)
(8.32016 0.292254 0)
(8.02651 0.322318 0)
(7.70577 0.354016 0)
(7.35745 0.387276 0)
(6.98122 0.421967 0)
(6.577 0.457859 0)
(6.14502 0.494583 0)
(5.68589 0.531581 0)
(5.20079 0.568059 0)
(4.69156 0.602958 0)
(4.16088 0.634939 0)
(3.6124 0.662415 0)
(3.0508 0.68364 0)
(2.48192 0.696841 0)
(1.90955 0.700873 0)
(1.36553 0.691141 0)
(0.719574 0.680795 0)
(0.422881 0.634734 0)
(9.99617 0.0413897 0)
(9.97808 0.0715817 0)
(9.93782 0.0977377 0)
(9.8758 0.124822 0)
(9.79476 0.153574 0)
(9.6956 0.183988 0)
(9.57778 0.216389 0)
(9.44042 0.251198 0)
(9.2826 0.288734 0)
(9.10335 0.329203 0)
(8.90158 0.372732 0)
(8.67619 0.419394 0)
(8.42608 0.469216 0)
(8.1502 0.522193 0)
(7.8476 0.578276 0)
(7.51743 0.637359 0)
(7.15895 0.69924 0)
(6.7716 0.763568 0)
(6.35505 0.829773 0)
(5.90926 0.896988 0)
(5.4346 0.963969 0)
(4.93201 1.02904 0)
(4.40312 1.09004 0)
(3.85045 1.14439 0)
(3.27746 1.18918 0)
(2.68899 1.22143 0)
(2.08682 1.23902 0)
(1.50389 1.23709 0)
(0.816454 1.22845 0)
(0.445107 1.17024 0)
(9.9946 0.0469807 0)
(9.9743 0.0881002 0)
(9.93382 0.125833 0)
(9.87299 0.163836 0)
(9.79363 0.203481 0)
(9.69656 0.245226 0)
(9.58147 0.289617 0)
(9.44761 0.337262 0)
(9.29417 0.388671 0)
(9.12026 0.444215 0)
(8.92491 0.504158 0)
(8.70705 0.56868 0)
(8.46564 0.637895 0)
(8.19963 0.711862 0)
(7.908 0.790586 0)
(7.58976 0.873992 0)
(7.24399 0.961891 0)
(6.86983 1.05391 0)
(6.46651 1.14939 0)
(6.03345 1.24732 0)
(5.5703 1.34617 0)
(5.07712 1.44386 0)
(4.55447 1.53761 0)
(4.00365 1.62405 0)
(3.42686 1.69925 0)
(2.82792 1.75906 0)
(2.20677 1.80029 0)
(1.59786 1.81723 0)
(0.881614 1.82101 0)
(0.456409 1.76094 0)
(9.99387 0.0539999 0)
(9.97239 0.104444 0)
(9.93177 0.152245 0)
(9.87203 0.200166 0)
(9.7944 0.24997 0)
(9.69951 0.30252 0)
(9.58708 0.358553 0)
(9.45647 0.418801 0)
(9.3069 0.483902 0)
(9.13755 0.554342 0)
(8.94749 0.630477 0)
(8.73576 0.712564 0)
(8.50134 0.800785 0)
(8.24322 0.895265 0)
(7.96039 0.996074 0)
(7.65183 1.10321 0)
(7.31647 1.21656 0)
(6.95327 1.33579 0)
(6.56113 1.46032 0)
(6.13901 1.58908 0)
(5.68594 1.72049 0)
(5.20117 1.85221 0)
(4.68427 1.98109 0)
(4.13542 2.1031 0)
(3.55559 2.21343 0)
(2.94769 2.30666 0)
(2.31001 2.37824 0)
(1.67841 2.42099 0)
(0.936899 2.44319 0)
(0.465222 2.38614 0)
(9.99357 0.0616404 0)
(9.97164 0.120804 0)
(9.9313 0.178175 0)
(9.87291 0.235916 0)
(9.79739 0.295842 0)
(9.70515 0.359075 0)
(9.59591 0.426521 0)
(9.4691 0.49904 0)
(9.32399 0.57739 0)
(9.15978 0.662177 0)
(8.97562 0.753866 0)
(8.77055 0.852806 0)
(8.54363 0.959266 0)
(8.29386 1.07346 0)
(8.02021 1.19557 0)
(7.7216 1.32569 0)
(7.39687 1.46384 0)
(7.04474 1.60984 0)
(6.66384 1.76322 0)
(6.25265 1.92307 0)
(5.80962 2.08784 0)
(5.33315 2.25518 0)
(4.82185 2.42172 0)
(4.2747 2.58296 0)
(3.69139 2.73326 0)
(3.07386 2.86584 0)
(2.41876 2.9743 0)
(1.76285 3.04929 0)
(0.994137 3.09517 0)
(0.47585 3.04425 0)
(9.99351 0.0695045 0)
(9.97163 0.137059 0)
(9.932 0.203505 0)
(9.87525 0.270671 0)
(9.8022 0.340336 0)
(9.71307 0.413816 0)
(9.60759 0.492206 0)
(9.48524 0.576503 0)
(9.34533 0.66759 0)
(9.18713 0.766186 0)
(9.0098 0.872854 0)
(8.81245 0.988032 0)
(8.59416 1.11208 0)
(8.35393 1.24531 0)
(8.09074 1.38802 0)
(7.80343 1.54047 0)
(7.49071 1.70284 0)
(7.15112 1.87519 0)
(6.78294 2.05729 0)
(6.38421 2.24849 0)
(5.95271 2.44749 0)
(5.48601 2.65213 0)
(4.98157 2.85907 0)
(4.43705 3.06354 0)
(3.85054 3.25918 0)
(3.22265 3.43781 0)
(2.54817 3.59072 0)
(1.86377 3.70562 0)
(1.06211 3.78163 0)
(0.491658 3.74047 0)
(9.99359 0.0773592 0)
(9.97212 0.153021 0)
(9.93357 0.228075 0)
(9.8788 0.304224 0)
(9.80855 0.383218 0)
(9.72298 0.466519 0)
(9.62182 0.55539 0)
(9.50456 0.650965 0)
(9.37061 0.754238 0)
(9.21926 0.866034 0)
(9.04974 0.98701 0)
(8.86122 1.1177 0)
(8.6528 1.25855 0)
(8.42353 1.41001 0)
(8.17235 1.5725 0)
(7.89807 1.74647 0)
(7.59931 1.93235 0)
(7.27438 2.13048 0)
(6.92129 2.34102 0)
(6.5376 2.56371 0)
(6.12042 2.79774 0)
(5.66639 3.04135 0)
(5.17171 3.29155 0)
(4.63242 3.54363 0)
(4.04457 3.79079 0)
(3.40671 4.02354 0)
(2.71107 4.23052 0)
(1.99273 4.39556 0)
(1.14919 4.51083 0)
(0.516154 4.48485 0)
(9.99377 0.0850556 0)
(9.97298 0.168524 0)
(9.93584 0.251741 0)
(9.88334 0.33641 0)
(9.81625 0.424284 0)
(9.73466 0.51693 0)
(9.63831 0.615762 0)
(9.52676 0.722038 0)
(9.39946 0.836863 0)
(9.25578 0.961158 0)
(9.09502 1.09567 0)
(8.9164 1.24103 0)
(8.71909 1.3978 0)
(8.50218 1.56652 0)
(8.26465 1.7478 0)
(8.00528 1.9423 0)
(7.72263 2.15076 0)
(7.41487 2.37388 0)
(7.07975 2.61229 0)
(6.71442 2.86633 0)
(6.31537 3.13585 0)
(5.87827 3.41987 0)
(5.39796 3.71613 0)
(4.86853 4.0205 0)
(4.28342 4.32625 0)
(3.63805 4.62303 0)
(2.92085 4.8968 0)
(2.16287 5.12659 0)
(1.26549 5.29517 0)
(0.553944 5.29348 0)
(9.99403 0.0924911 0)
(9.97411 0.183425 0)
(9.93865 0.274363 0)
(9.88872 0.36707 0)
(9.82511 0.463329 0)
(9.74789 0.564797 0)
(9.65682 0.673012 0)
(9.55152 0.789353 0)
(9.43152 0.915024 0)
(9.29627 1.05104 0)
(9.14513 1.19823 0)
(8.97742 1.35731 0)
(8.7924 1.52894 0)
(8.58923 1.71382 0)
(8.36695 1.91271 0)
(8.12438 2.12654 0)
(7.86008 2.35634 0)
(7.57216 2.60329 0)
(7.25823 2.86857 0)
(6.91515 3.15329 0)
(6.53888 3.45821 0)
(6.12423 3.78349 0)
(5.66465 4.12814 0)
(5.15213 4.48934 0)
(4.57688 4.86139 0)
(3.9299 5.23411 0)
(3.19382 5.59151 0)
(2.3918 5.90738 0)
(1.42571 6.15211 0)
(0.612344 6.19121 0)
(9.99433 0.0995908 0)
(9.97544 0.19761 0)
(9.9419 0.295811 0)
(9.89482 0.396055 0)
(9.83497 0.500168 0)
(9.76248 0.609889 0)
(9.67712 0.726865 0)
(9.57857 0.852579 0)
(9.46645 0.988326 0)
(9.34029 1.1352 0)
(9.19957 1.29411 0)
(9.0437 1.46586 0)
(8.87205 1.6512 0)
(8.6839 1.85095 0)
(8.47838 2.06607 0)
(8.25444 2.29773 0)
(8.0107 2.54731 0)
(7.74536 2.81648 0)
(7.456 3.10709 0)
(7.13941 3.4211 0)
(6.79123 3.76046 0)
(6.40568 4.12681 0)
(5.97506 4.52109 0)
(5.4893 4.94276 0)
(4.93508 5.38862 0)
(4.29768 5.85068 0)
(3.55129 6.31326 0)
(2.70535 6.74633 0)
(1.65397 7.10542 0)
(0.704637 7.2175 0)
(9.99468 0.106298 0)
(9.97695 0.210982 0)
(9.94552 0.315973 0)
(9.9015 0.423228 0)
(9.8457 0.534636 0)
(9.77824 0.652006 0)
(9.69895 0.777076 0)
(9.60759 0.911422 0)
(9.50386 1.05642 0)
(9.3874 1.21323 0)
(9.25779 1.38283 0)
(9.11458 1.56608 0)
(8.95726 1.76384 0)
(8.78527 1.97703 0)
(8.5979 2.20678 0)
(8.39427 2.4545 0)
(8.1732 2.72193 0)
(7.93307 3.01123 0)
(7.67168 3.32492 0)
(7.38594 3.66595 0)
(7.07159 4.03757 0)
(6.7227 4.44328 0)
(6.33096 4.88653 0)
(5.88484 5.3702 0)
(5.36788 5.89556 0)
(4.7591 6.46006 0)
(4.02161 7.05332 0)
(3.1431 7.64746 0)
(1.99295 8.18603 0)
(0.85754 8.43929 0)
(9.99505 0.112567 0)
(9.97859 0.223463 0)
(9.94943 0.334747 0)
(9.90868 0.448472 0)
(9.85715 0.566588 0)
(9.79498 0.69097 0)
(9.72208 0.823433 0)
(9.63828 0.965627 0)
(9.54338 1.11899 0)
(9.43712 1.28475 0)
(9.31921 1.46393 0)
(9.18935 1.65744 0)
(9.04719 1.8662 0)
(8.89234 2.09123 0)
(8.72432 2.33382 0)
(8.54249 2.59557 0)
(8.34595 2.87855 0)
(8.13346 3.18536 0)
(7.90319 3.51919 0)
(7.65256 3.88392 0)
(7.37782 4.28418 0)
(7.07356 4.72548 0)
(6.73185 5.2142 0)
(6.34103 5.75764 0)
(5.88316 6.36364 0)
(5.3325 7.03943 0)
(4.64088 7.78836 0)
(3.76631 8.59999 0)
(2.52315 9.42812 0)
(1.13029 9.98281 0)
(9.99545 0.118365 0)
(9.98033 0.234989 0)
(9.95357 0.352051 0)
(9.91626 0.471687 0)
(9.86918 0.595906 0)
(9.81253 0.726639 0)
(9.74628 0.865765 0)
(9.67034 1.015 0)
(9.58461 1.17582 0)
(9.48896 1.3495 0)
(9.38322 1.53708 0)
(9.26726 1.73953 0)
(9.14091 1.95779 0)
(9.004 2.19296 0)
(8.8563 2.44641 0)
(8.69748 2.71993 0)
(8.52703 3.01581 0)
(8.3442 3.33702 0)
(8.14778 3.6873 0)
(7.936 4.07135 0)
(7.70614 4.49502 0)
(7.45414 4.96569 0)
(7.17377 5.49267 0)
(6.85537 6.08801 0)
(6.48308 6.76743 0)
(6.03178 7.5518 0)
(5.44927 8.46872 0)
(4.66716 9.55272 0)
(3.4072 10.84 0)
(1.66865 12.1262 0)
(9.99587 0.123664 0)
(9.98215 0.245513 0)
(9.9579 0.367816 0)
(9.92415 0.492783 0)
(9.88168 0.622474 0)
(9.83072 0.758865 0)
(9.77132 0.903886 0)
(9.70347 1.05929 0)
(9.62717 1.22661 0)
(9.54242 1.40711 0)
(9.44921 1.60187 0)
(9.34755 1.81186 0)
(9.23749 2.03802 0)
(9.11909 2.28149 0)
(8.9924 2.54368 0)
(8.85747 2.82647 0)
(8.71424 3.1323 0)
(8.56255 3.46438 0)
(8.40202 3.82681 0)
(8.23194 4.22483 0)
(8.0511 4.66516 0)
(7.85758 5.15651 0)
(7.64822 5.71046 0)
(7.418 6.34283 0)
(7.15819 7.07626 0)
(6.85468 7.94503 0)
(6.47329 9.00503 0)
(5.96582 10.3598 0)
(5.01015 12.2596 0)
(2.88492 15.5973 0)
(-0.258205 0.407419 0)
(-1.09549 0.420374 0)
(-1.77662 0.437694 0)
(-2.62546 0.438124 0)
(-3.48368 0.431038 0)
(-4.3625 0.410765 0)
(-5.22864 0.377337 0)
(-6.04811 0.330571 0)
(-6.78266 0.271094 0)
(-7.3921 0.200251 0)
(-7.83705 0.120018 0)
(-8.08253 0.0327521 0)
(-8.10288 -0.0594723 0)
(-7.88069 -0.154038 0)
(-7.41698 -0.242811 0)
(-6.73205 -0.318531 0)
(-5.86155 -0.376232 0)
(-4.85132 -0.413398 0)
(-3.75087 -0.429966 0)
(-2.60397 -0.428372 0)
(-1.445 -0.410222 0)
(-0.289622 -0.37779 0)
(0.758353 -0.340307 0)
(1.75685 -0.301296 0)
(2.67779 -0.264497 0)
(3.5145 -0.230313 0)
(4.26903 -0.199169 0)
(4.946 -0.171574 0)
(5.55101 -0.148011 0)
(6.21839 -0.13446 0)
(-0.292156 1.01317 0)
(-1.18923 1.06958 0)
(-1.9199 1.12207 0)
(-2.80522 1.15327 0)
(-3.69156 1.16331 0)
(-4.59314 1.14023 0)
(-5.47548 1.07907 0)
(-6.30453 0.976288 0)
(-7.0413 0.830946 0)
(-7.64465 0.645066 0)
(-8.07421 0.423982 0)
(-8.29457 0.17637 0)
(-8.28012 -0.086853 0)
(-8.01896 -0.349404 0)
(-7.51571 -0.589692 0)
(-6.7929 -0.790866 0)
(-5.88753 -0.942528 0)
(-4.84561 -1.04089 0)
(-3.71579 -1.08794 0)
(-2.5381 -1.08947 0)
(-1.35746 -1.05364 0)
(-0.172544 -0.985257 0)
(0.890227 -0.90148 0)
(1.91007 -0.81226 0)
(2.85369 -0.72546 0)
(3.71587 -0.642847 0)
(4.49831 -0.566044 0)
(5.20512 -0.496684 0)
(5.83916 -0.43624 0)
(6.534 -0.393753 0)
(-0.318269 1.73958 0)
(-1.22677 1.8339 0)
(-1.99182 1.91138 0)
(-2.90016 1.95779 0)
(-3.80498 1.96497 0)
(-4.72105 1.91577 0)
(-5.61272 1.80168 0)
(-6.44595 1.61713 0)
(-7.18108 1.36091 0)
(-7.77594 1.03686 0)
(-8.18878 0.654634 0)
(-8.38306 0.230276 0)
(-8.33377 -0.214987 0)
(-8.03339 -0.653589 0)
(-7.48994 -1.05015 0)
(-6.73079 -1.37765 0)
(-5.79631 -1.62033 0)
(-4.73402 -1.77373 0)
(-3.5925 -1.84244 0)
(-2.41287 -1.83631 0)
(-1.23501 -1.77299 0)
(-0.0599628 -1.65757 0)
(0.992796 -1.51736 0)
(2.00273 -1.37166 0)
(2.93561 -1.22819 0)
(3.78778 -1.09066 0)
(4.56081 -0.962291 0)
(5.25872 -0.845816 0)
(5.88255 -0.743255 0)
(6.56929 -0.662574 0)
(-0.340261 2.49995 0)
(-1.24288 2.62852 0)
(-2.03383 2.72503 0)
(-2.95638 2.78235 0)
(-3.87374 2.78307 0)
(-4.79973 2.70544 0)
(-5.69744 2.53719 0)
(-6.53222 2.27032 0)
(-7.26294 1.90274 0)
(-7.84524 1.43928 0)
(-8.2347 0.892991 0)
(-8.39275 0.286536 0)
(-8.29428 -0.348779 0)
(-7.94253 -0.967161 0)
(-7.34962 -1.51946 0)
(-6.54855 -1.97006 0)
(-5.58342 -2.2994 0)
(-4.50298 -2.50343 0)
(-3.35518 -2.58967 0)
(-2.18401 -2.57445 0)
(-1.0058 -2.4789 0)
(0.125955 -2.31476 0)
(1.16727 -2.11693 0)
(2.15686 -1.91422 0)
(3.06973 -1.71416 0)
(3.90312 -1.52232 0)
(4.65866 -1.34332 0)
(5.34035 -1.18079 0)
(5.94777 -1.03715 0)
(6.6188 -0.919384 0)
(-0.356119 3.26927 0)
(-1.23965 3.43117 0)
(-2.04343 3.54552 0)
(-2.96564 3.61208 0)
(-3.88229 3.60391 0)
(-4.80544 3.49476 0)
(-5.69712 3.2682 0)
(-6.52192 2.91335 0)
(-7.23695 2.42686 0)
(-7.79538 1.81468 0)
(-8.14979 1.09438 0)
(-8.25934 0.297652 0)
(-8.10126 -0.530739 0)
(-7.69225 -1.32597 0)
(-7.04775 -2.02673 0)
(-6.20679 -2.59029 0)
(-5.21671 -2.99507 0)
(-4.12706 -3.23903 0)
(-2.98543 -3.33431 0)
(-1.83121 -3.30455 0)
(-0.670905 -3.16855 0)
(0.407075 -2.95416 0)
(1.42403 -2.70244 0)
(2.38181 -2.44408 0)
(3.26436 -2.18877 0)
(4.06956 -1.94397 0)
(4.79908 -1.71562 0)
(5.45703 -1.50813 0)
(6.04185 -1.32428 0)
(6.69016 -1.16999 0)
(-0.361257 4.03323 0)
(-1.20877 4.22712 0)
(-2.00446 4.35866 0)
(-2.90478 4.43316 0)
(-3.79997 4.4145 0)
(-4.70048 4.27198 0)
(-5.56815 3.98484 0)
(-6.36718 3.5389 0)
(-7.0531 2.9291 0)
(-7.57613 2.16225 0)
(-7.88465 1.26097 0)
(-7.93407 0.26727 0)
(-7.71277 -0.756902 0)
(-7.24557 -1.72518 0)
(-6.55374 -2.56572 0)
(-5.68154 -3.23085 0)
(-4.6783 -3.69888 0)
(-3.59347 -3.97185 0)
(-2.47369 -4.06813 0)
(-1.34474 -4.01493 0)
(-0.234467 -3.8331 0)
(0.789103 -3.56843 0)
(1.76683 -3.2657 0)
(2.68123 -2.95337 0)
(3.52275 -2.64436 0)
(4.28986 -2.34827 0)
(4.98443 -2.07228 0)
(5.61072 -1.82144 0)
(6.16642 -1.59886 0)
(6.78441 -1.40924 0)
(-0.350403 4.7716 0)
(-1.13911 4.99504 0)
(-1.89798 5.14259 0)
(-2.74862 5.22415 0)
(-3.59582 5.19486 0)
(-4.44933 5.01933 0)
(-5.27178 4.67195 0)
(-6.02769 4.13453 0)
(-6.67104 3.39937 0)
(-7.14804 2.47347 0)
(-7.40094 1.38524 0)
(-7.3798 0.188905 0)
(-7.0936 -1.02963 0)
(-6.57286 -2.16249 0)
(-5.84469 -3.13015 0)
(-4.95673 -3.88289 0)
(-3.95833 -4.40089 0)
(-2.89718 -4.69187 0)
(-1.81541 -4.77998 0)
(-0.728297 -4.6925 0)
(0.300664 -4.46444 0)
(1.27132 -4.1517 0)
(2.19491 -3.8001 0)
(3.05461 -3.4359 0)
(3.84443 -3.07545 0)
(4.56365 -2.73049 0)
(5.21448 -2.40932 0)
(5.80135 -2.11749 0)
(6.32157 -1.85836 0)
(6.90181 -1.63523 0)
(-0.318933 5.45585 0)
(-1.02038 5.70611 0)
(-1.70735 5.86881 0)
(-2.47579 5.958 0)
(-3.24419 5.92041 0)
(-4.02289 5.71539 0)
(-4.77609 5.31169 0)
(-5.46926 4.68599 0)
(-6.0547 3.82655 0)
(-6.47348 2.73928 0)
(-6.66068 1.45905 0)
(-6.56106 0.0593668 0)
(-6.21299 -1.34733 0)
(-5.6498 -2.63023 0)
(-4.90377 -3.70811 0)
(-4.02258 -4.5329 0)
(-3.05266 -5.08729 0)
(-2.03825 -5.38539 0)
(-1.01386 -5.45554 0)
(0.000501903 -5.32568 0)
(0.940661 -5.05463 0)
(1.84869 -4.69793 0)
(2.70446 -4.29903 0)
(3.49816 -3.88536 0)
(4.22589 -3.47634 0)
(4.88784 -3.08561 0)
(5.48668 -2.7224 0)
(6.02695 -2.39256 0)
(6.50581 -2.09959 0)
(7.04147 -1.84534 0)
(-0.263827 6.05083 0)
(-0.845243 6.32619 0)
(-1.42108 6.50444 0)
(-2.07167 6.60406 0)
(-2.72727 6.56345 0)
(-3.40027 6.33594 0)
(-4.05715 5.88368 0)
(-4.66549 5.17669 0)
(-5.17678 4.1973 0)
(-5.52585 2.94861 0)
(-5.63584 1.47521 0)
(-5.4439 -0.123544 0)
(-5.04568 -1.70429 0)
(-4.45918 -3.11518 0)
(-3.72208 -4.2823 0)
(-2.877 -5.16298 0)
(-1.96341 -5.74094 0)
(-1.02164 -6.03576 0)
(-0.0725051 -6.07546 0)
(0.819789 -5.90827 0)
(1.68688 -5.59766 0)
(2.51404 -5.19988 0)
(3.28909 -4.75565 0)
(4.00548 -4.29557 0)
(4.6611 -3.84166 0)
(5.2571 -3.40905 0)
(5.7965 -3.00762 0)
(6.28379 -2.64342 0)
(6.71622 -2.31988 0)
(7.20141 -2.03743 0)
(-0.184334 6.51752 0)
(-0.610806 6.81832 0)
(-1.03468 7.01438 0)
(-1.53065 7.12955 0)
(-2.03746 7.09404 0)
(-2.57124 6.85455 0)
(-3.10132 6.3657 0)
(-3.59926 5.58932 0)
(-4.01769 4.49995 0)
(-4.28362 3.09656 0)
(-4.29953 1.43589 0)
(-4.00222 -0.358567 0)
(-3.57769 -2.08601 0)
(-2.99723 -3.59618 0)
(-2.30356 -4.83188 0)
(-1.52684 -5.75323 0)
(-0.700783 -6.34209 0)
(0.144648 -6.62179 0)
(0.957647 -6.62973 0)
(1.75726 -6.43152 0)
(2.5284 -6.08683 0)
(3.25874 -5.64942 0)
(3.93992 -5.16286 0)
(4.56785 -4.66054 0)
(5.14202 -4.1664 0)
(5.6643 -3.69666 0)
(6.13786 -3.26162 0)
(6.56689 -2.86729 0)
(6.94876 -2.51697 0)
(7.3788 -2.20972 0)
(-0.0824492 6.81647 0)
(-0.319505 7.14558 0)
(-0.552043 7.36369 0)
(-0.858565 7.50117 0)
(-1.18078 7.48048 0)
(-1.54065 7.24101 0)
(-1.91026 6.72854 0)
(-2.26737 5.89381 0)
(-2.56676 4.70067 0)
(-2.71778 3.14811 0)
(-2.58835 1.30712 0)
(-2.2269 -0.634685 0)
(-1.81496 -2.46947 0)
(-1.28187 -4.04632 0)
(-0.670601 -5.33342 0)
(0.0120064 -6.28616 0)
(0.705268 -6.86186 0)
(1.4099 -7.12384 0)
(2.11136 -7.11343 0)
(2.79667 -6.88902 0)
(3.45281 -6.5118 0)
(4.07081 -6.0379 0)
(4.64535 -5.51369 0)
(5.17453 -4.97463 0)
(5.65898 -4.44607 0)
(6.101 -3.94491 0)
(6.5036 -3.48161 0)
(6.87031 -3.062 0)
(7.19862 -2.68912 0)
(7.57018 -2.36087 0)
(0.0366258 6.90981 0)
(0.0205386 7.27425 0)
(0.0140739 7.52347 0)
(-0.0750083 7.69405 0)
(-0.181137 7.70138 0)
(-0.336043 7.4791 0)
(-0.513745 6.96541 0)
(-0.701372 6.10405 0)
(-0.855343 4.85541 0)
(-0.840059 3.20477 0)
(-0.534742 1.20471 0)
(-0.14268 -0.91581 0)
(0.206353 -2.84091 0)
(0.643211 -4.45415 0)
(1.13387 -5.75402 0)
(1.6669 -6.69806 0)
(2.2284 -7.2873 0)
(2.80173 -7.54492 0)
(3.36944 -7.51768 0)
(3.91959 -7.26869 0)
(4.44317 -6.86233 0)
(4.93457 -6.35721 0)
(5.39122 -5.80176 0)
(5.8129 -5.23295 0)
(6.20103 -4.67697 0)
(6.55788 -4.15103 0)
(6.88591 -3.66553 0)
(7.18767 -3.226 0)
(7.4606 -2.83518 0)
(7.77181 -2.49004 0)
(0.173888 6.77052 0)
(0.407065 7.17781 0)
(0.64503 7.47001 0)
(0.791976 7.67874 0)
(0.9194 7.72289 0)
(0.993394 7.53258 0)
(1.03581 7.03668 0)
(1.05837 6.16397 0)
(1.11904 4.84841 0)
(1.35734 3.07468 0)
(1.76874 0.995109 0)
(2.10196 -1.10694 0)
(2.35717 -3.04047 0)
(2.67726 -4.71836 0)
(3.04767 -6.06009 0)
(3.44871 -7.02993 0)
(3.86702 -7.6236 0)
(4.28931 -7.87254 0)
(4.70328 -7.82928 0)
(5.10092 -7.5593 0)
(5.4775 -7.1295 0)
(5.8309 -6.60041 0)
(6.161 -6.02189 0)
(6.4689 -5.4317 0)
(6.75634 -4.85639 0)
(7.02512 -4.31314 0)
(7.27675 -3.8121 0)
(7.51247 -3.35845 0)
(7.72946 -2.95458 0)
(7.97988 -2.59683 0)
(0.348236 6.35488 0)
(0.853549 6.84302 0)
(1.3363 7.19281 0)
(1.72249 7.44178 0)
(2.08567 7.52721 0)
(2.39757 7.37342 0)
(2.67558 6.89819 0)
(2.93784 6.02071 0)
(3.23541 4.67985 0)
(3.61894 2.9089 0)
(4.065 0.856939 0)
(4.35083 -1.26944 0)
(4.56268 -3.23589 0)
(4.79274 -4.93228 0)
(5.04458 -6.28815 0)
(5.30716 -7.26396 0)
(5.57146 -7.85571 0)
(5.82981 -8.09523 0)
(6.07665 -8.03821 0)
(6.30983 -7.75247 0)
(6.52967 -7.30673 0)
(6.73781 -6.76268 0)
(6.93641 -6.17071 0)
(7.12751 -5.56872 0)
(7.3127 -4.98306 0)
(7.49289 -4.43059 0)
(7.66828 -3.92106 0)
(7.83849 -3.45932 0)
(8.00024 -3.04741 0)
(8.19075 -2.68139 0)
(0.607338 5.49302 0)
(1.38803 6.28451 0)
(2.07882 6.71725 0)
(2.69409 6.99968 0)
(3.286 7.12694 0)
(3.82673 7.01203 0)
(4.33104 6.56001 0)
(4.81863 5.68769 0)
(5.30948 4.35208 0)
(5.79553 2.60912 0)
(6.26328 0.607161 0)
(6.5436 -1.45389 0)
(6.73269 -3.38878 0)
(6.89725 -5.07572 0)
(7.04639 -6.42806 0)
(7.17642 -7.39764 0)
(7.28557 -7.97963 0)
(7.37502 -8.2073 0)
(7.44848 -8.13874 0)
(7.51164 -7.84337 0)
(7.57082 -7.39053 0)
(7.63165 -6.84185 0)
(7.69836 -6.24722 0)
(7.77354 -5.64386 0)
(7.85816 -5.05742 0)
(7.95187 -4.50417 0)
(8.05322 -3.9934 0)
(8.16007 -3.52963 0)
(8.26853 -3.11468 0)
(8.40118 -2.74462 0)
(9.99631 0.128528 0)
(9.98406 0.255169 0)
(9.96245 0.382263 0)
(9.93243 0.51208 0)
(9.89478 0.646719 0)
(9.84979 0.788193 0)
(9.79756 0.938468 0)
(9.73819 1.09933 0)
(9.6718 1.27231 0)
(9.59851 1.45869 0)
(9.51846 1.65954 0)
(9.43186 1.87579 0)
(9.33896 2.10839 0)
(9.24007 2.35843 0)
(9.13558 2.62732 0)
(9.02593 2.91693 0)
(8.91159 3.22974 0)
(8.79308 3.56902 0)
(8.67096 3.93898 0)
(8.54581 4.34503 0)
(8.41829 4.7942 0)
(8.28917 5.29566 0)
(8.15954 5.86173 0)
(8.03116 6.50952 0)
(7.90727 7.26395 0)
(7.79658 8.16356 0)
(7.71807 9.27205 0)
(7.78195 10.7015 0)
(8.47012 12.6263 0)
(8.95714 15.7221 0)
(9.99678 0.132962 0)
(9.98607 0.263957 0)
(9.96722 0.395372 0)
(9.9411 0.529519 0)
(9.90847 0.668527 0)
(9.86964 0.814433 0)
(9.82482 0.969224 0)
(9.77419 1.13469 0)
(9.71798 1.31238 0)
(9.65645 1.50355 0)
(9.58991 1.70922 0)
(9.51875 1.93028 0)
(9.44343 2.16761 0)
(9.36454 2.42224 0)
(9.2828 2.69549 0)
(9.19904 2.98913 0)
(9.11429 3.30553 0)
(9.02978 3.64782 0)
(8.947 4.02 0)
(8.86787 4.42726 0)
(8.79491 4.87617 0)
(8.73164 5.37524 0)
(8.68326 5.93554 0)
(8.65809 6.5718 0)
(8.67034 7.30394 0)
(8.74732 8.15897 0)
(8.93626 9.17154 0)
(9.30458 10.3806 0)
(10.1573 11.7263 0)
(10.9165 12.8513 0)
(9.99726 0.136885 0)
(9.98816 0.271723 0)
(9.97216 0.406931 0)
(9.95007 0.544844 0)
(9.9226 0.68761 0)
(9.89013 0.837275 0)
(9.8529 0.995828 0)
(9.81121 1.16506 0)
(9.7654 1.34647 0)
(9.71586 1.5413 0)
(9.66305 1.7505 0)
(9.60754 1.97488 0)
(9.55001 2.2152 0)
(9.49132 2.47238 0)
(9.43248 2.74756 0)
(9.37474 3.04233 0)
(9.31962 3.35881 0)
(9.269 3.69976 0)
(9.22524 4.06874 0)
(9.19138 4.47022 0)
(9.17148 4.90972 0)
(9.17111 5.39406 0)
(9.19822 5.93145 0)
(9.2645 6.53165 0)
(9.38735 7.20534 0)
(9.59292 7.96217 0)
(9.9172 8.80376 0)
(10.3729 9.71647 0)
(11.0918 10.6448 0)
(11.9975 11.3497 0)
(9.99775 0.140248 0)
(9.9903 0.278367 0)
(9.97722 0.416784 0)
(9.95926 0.557843 0)
(9.93707 0.703691 0)
(9.91105 0.856369 0)
(9.88155 1.01785 0)
(9.84893 1.18991 0)
(9.81364 1.374 0)
(9.77619 1.57129 0)
(9.73718 1.78264 0)
(9.69736 2.00876 0)
(9.6576 2.25026 0)
(9.619 2.50785 0)
(9.58284 2.78249 0)
(9.55072 3.07544 0)
(9.52458 3.38845 0)
(9.50682 3.72378 0)
(9.50047 4.08428 0)
(9.50937 4.47342 0)
(9.53852 4.89527 0)
(9.59454 5.35445 0)
(9.68626 5.85585 0)
(9.82554 6.40411 0)
(10.0279 7.00235 0)
(10.3127 7.65008 0)
(10.7057 8.33934 0)
(11.2188 9.05405 0)
(11.9183 9.7868 0)
(12.9146 10.4273 0)
(9.99825 0.143006 0)
(9.99247 0.283804 0)
(9.98237 0.424808 0)
(9.96858 0.568351 0)
(9.95172 0.716567 0)
(9.93222 0.871476 0)
(9.91049 1.03503 0)
(9.88697 1.20893 0)
(9.86221 1.3946 0)
(9.83681 1.59311 0)
(9.81153 1.80521 0)
(9.78723 2.03145 0)
(9.76498 2.27227 0)
(9.74603 2.52817 0)
(9.73193 2.79978 0)
(9.72451 3.08804 0)
(9.72605 3.3942 0)
(9.73928 3.71991 0)
(9.76763 4.06719 0)
(9.81536 4.43837 0)
(9.88782 4.83597 0)
(9.99178 5.26248 0)
(10.1357 5.71992 0)
(10.3303 6.20923 0)
(10.5885 6.7293 0)
(10.9253 7.2759 0)
(11.3602 7.84033 0)
(11.9084 8.40733 0)
(12.5919 8.96604 0)
(13.5306 9.44465 0)
(9.99876 0.145121 0)
(9.99466 0.287956 0)
(9.98754 0.430888 0)
(9.97794 0.57622 0)
(9.96642 0.726057 0)
(9.95344 0.882383 0)
(9.93945 1.0471 0)
(9.92497 1.22186 0)
(9.91061 1.40799 0)
(9.8971 1.60645 0)
(9.88528 1.81788 0)
(9.87613 2.04265 0)
(9.87084 2.28098 0)
(9.87082 2.53312 0)
(9.87776 2.79937 0)
(9.89368 3.08026 0)
(9.921 3.37652 0)
(9.96264 3.68912 0)
(10.0222 4.01923 0)
(10.1039 4.36807 0)
(10.213 4.73674 0)
(10.3559 5.12593 0)
(10.5402 5.53553 0)
(10.7748 5.96407 0)
(11.07 6.40805 0)
(11.4371 6.86114 0)
(11.8891 7.3133 0)
(12.4361 7.74801 0)
(13.0783 8.14706 0)
(13.9189 8.4711 0)
(9.99926 0.146559 0)
(9.99684 0.290757 0)
(9.99269 0.434926 0)
(9.98726 0.581323 0)
(9.98104 0.732008 0)
(9.97449 0.888912 0)
(9.96813 1.05387 0)
(9.96252 1.22847 0)
(9.95835 1.41394 0)
(9.9564 1.61111 0)
(9.9576 1.82047 0)
(9.96301 2.04221 0)
(9.97392 2.27633 0)
(9.9918 2.52278 0)
(10.0184 2.78152 0)
(10.0559 3.05266 0)
(10.1066 3.3364 0)
(10.1736 3.63305 0)
(10.2603 3.94297 0)
(10.3707 4.26639 0)
(10.5096 4.60323 0)
(10.6826 4.95282 0)
(10.8961 5.31353 0)
(11.1571 5.68235 0)
(11.4732 6.05438 0)
(11.8521 6.4222 0)
(12.3009 6.77543 0)
(12.8252 7.0995 0)
(13.4188 7.37811 0)
(14.1692 7.59174 0)
(9.99976 0.14729 0)
(9.99899 0.29215 0)
(9.99778 0.436842 0)
(9.99645 0.583559 0)
(9.99542 0.734301 0)
(9.99518 0.890933 0)
(9.99625 1.05522 0)
(9.99925 1.22865 0)
(10.0049 1.41234 0)
(10.0141 1.607 0)
(10.0277 1.81295 0)
(10.0469 2.03018 0)
(10.073 2.25847 0)
(10.1075 2.49748 0)
(10.1522 2.74683 0)
(10.2091 3.0062 0)
(10.2806 3.2753 0)
(10.3695 3.55385 0)
(10.4789 3.84149 0)
(10.6126 4.13766 0)
(10.7746 4.44135 0)
(10.9695 4.75093 0)
(11.2023 5.06382 0)
(11.4783 5.37619 0)
(11.8025 5.6826 0)
(12.1795 5.97573 0)
(12.613 6.24626 0)
(13.1051 6.48267 0)
(13.6484 6.67221 0)
(14.3148 6.80326 0)
(10.0002 0.147293 0)
(10.0011 0.292093 0)
(10.0027 0.436576 0)
(10.0054 0.582853 0)
(10.0094 0.732853 0)
(10.0153 0.888362 0)
(10.0235 1.05106 0)
(10.0348 1.22232 0)
(10.0498 1.40315 0)
(10.0695 1.59413 0)
(10.0948 1.7954 0)
(10.1268 2.00677 0)
(10.1669 2.22778 0)
(10.2166 2.45782 0)
(10.2774 2.69618 0)
(10.3515 2.94217 0)
(10.4409 3.19505 0)
(10.5481 3.45404 0)
(10.676 3.71821 0)
(10.8277 3.98637 0)
(11.0065 4.25691 0)
(11.216 4.52758 0)
(11.4598 4.79531 0)
(11.7415 5.05603 0)
(12.0642 5.30443 0)
(12.4303 5.53392 0)
(12.8411 5.73665 0)
(13.2964 5.90365 0)
(13.7887 6.02508 0)
(14.3763 6.09319 0)
(10.0007 0.146553 0)
(10.0031 0.290558 0)
(10.0076 0.434088 0)
(10.0141 0.579162 0)
(10.0229 0.727623 0)
(10.0346 0.881166 0)
(10.0497 1.04137 0)
(10.0688 1.20951 0)
(10.0926 1.38646 0)
(10.1221 1.57265 0)
(10.1582 1.76809 0)
(10.202 1.97237 0)
(10.2547 2.18484 0)
(10.3179 2.40461 0)
(10.3929 2.63073 0)
(10.4816 2.86213 0)
(10.586 3.09774 0)
(10.7081 3.33636 0)
(10.8503 3.57665 0)
(11.0152 3.81699 0)
(11.2051 4.05539 0)
(11.4229 4.28931 0)
(11.6709 4.51557 0)
(11.9513 4.73019 0)
(12.2657 4.92838 0)
(12.615 5.10449 0)
(12.9987 5.25216 0)
(13.4154 5.36448 0)
(13.8578 5.43422 0)
(14.3739 5.45631 0)
(10.0012 0.145061 0)
(10.0051 0.28753 0)
(10.0121 0.429363 0)
(10.0223 0.572473 0)
(10.0358 0.718608 0)
(10.053 0.869363 0)
(10.0745 1.02621 0)
(10.1009 1.19031 0)
(10.1329 1.36242 0)
(10.1714 1.54283 0)
(10.2173 1.73138 0)
(10.2717 1.92752 0)
(10.3357 2.13038 0)
(10.4105 2.33887 0)
(10.4977 2.55179 0)
(10.5987 2.76782 0)
(10.7151 2.98559 0)
(10.8487 3.20362 0)
(11.0014 3.42028 0)
(11.175 3.63371 0)
(11.3713 3.84174 0)
(11.5922 4.04178 0)
(11.8391 4.23076 0)
(12.113 4.40506 0)
(12.4145 4.56054 0)
(12.7432 4.69256 0)
(13.0978 4.79614 0)
(13.4762 4.86616 0)
(13.8718 4.89753 0)
(14.3243 4.88708 0)
(10.0016 0.142819 0)
(10.0069 0.28301 0)
(10.0165 0.422407 0)
(10.0301 0.562805 0)
(10.0479 0.705847 0)
(10.0703 0.853023 0)
(10.0977 1.0057 0)
(10.1308 1.16491 0)
(10.1703 1.33129 0)
(10.2169 1.50502 0)
(10.2716 1.68578 0)
(10.3353 1.87288 0)
(10.409 2.06528 0)
(10.4939 2.26173 0)
(10.5911 2.46083 0)
(10.7019 2.66106 0)
(10.8277 2.86086 0)
(10.9697 3.05856 0)
(11.1293 3.25237 0)
(11.3079 3.44035 0)
(11.5067 3.62028 0)
(11.7266 3.78969 0)
(11.9683 3.94579 0)
(12.2321 4.08542 0)
(12.5177 4.20515 0)
(12.824 4.30132 0)
(13.1494 4.37016 0)
(13.4911 4.40802 0)
(13.8436 4.41145 0)
(14.2401 4.37859 0)
(10.002 0.139831 0)
(10.0087 0.277015 0)
(10.0206 0.413249 0)
(10.0374 0.550206 0)
(10.0592 0.689418 0)
(10.0863 0.832265 0)
(10.1192 0.979996 0)
(10.1584 1.13354 0)
(10.2045 1.29341 0)
(10.2584 1.45967 0)
(10.3208 1.63188 0)
(10.3925 1.80921 0)
(10.4745 1.99053 0)
(10.5676 2.17442 0)
(10.6729 2.35936 0)
(10.7913 2.54372 0)
(10.9238 2.72578 0)
(11.0714 2.90381 0)
(11.2351 3.07595 0)
(11.4155 3.24027 0)
(11.6134 3.39466 0)
(11.8291 3.53685 0)
(12.0628 3.6644 0)
(12.3142 3.77468 0)
(12.5823 3.86494 0)
(12.8658 3.93239 0)
(13.1626 3.97429 0)
(13.4703 3.98811 0)
(13.7839 3.97166 0)
(14.1315 3.92398 0)
(10.0024 0.136114 0)
(10.0103 0.269575 0)
(10.0243 0.40194 0)
(10.0441 0.534756 0)
(10.0696 0.669436 0)
(10.101 0.807251 0)
(10.1387 0.949336 0)
(10.1834 1.09651 0)
(10.2355 1.24918 0)
(10.2956 1.40729 0)
(10.3646 1.57033 0)
(10.4431 1.73736 0)
(10.5318 1.90715 0)
(10.6316 2.07821 0)
(10.743 2.24893 0)
(10.8669 2.41759 0)
(11.004 2.58246 0)
(11.1548 2.74175 0)
(11.3198 2.89367 0)
(11.4995 3.03635 0)
(11.6941 3.16787 0)
(11.9034 3.28623 0)
(12.1272 3.38936 0)
(12.3647 3.47513 0)
(12.6147 3.54144 0)
(12.8758 3.58622 0)
(13.1457 3.60756 0)
(13.4222 3.60383 0)
(13.7011 3.57371 0)
(14.0063 3.5169 0)
(10.0027 0.131687 0)
(10.0117 0.260732 0)
(10.0277 0.388551 0)
(10.0502 0.516557 0)
(10.079 0.646049 0)
(10.1142 0.778183 0)
(10.1563 0.913985 0)
(10.2057 1.05417 0)
(10.2629 1.19904 0)
(10.3285 1.34847 0)
(10.403 1.50186 0)
(10.487 1.6582 0)
(10.5811 1.81621 0)
(10.6858 1.97436 0)
(10.8018 2.13099 0)
(10.9293 2.28439 0)
(11.0689 2.43281 0)
(11.2208 2.57453 0)
(11.3853 2.70783 0)
(11.5622 2.83098 0)
(11.7516 2.94229 0)
(11.953 3.04004 0)
(12.1656 3.12254 0)
(12.3887 3.18814 0)
(12.6209 3.23525 0)
(12.8604 3.26242 0)
(13.1055 3.26841 0)
(13.3538 3.25223 0)
(13.6021 3.2132 0)
(13.8707 3.15145 0)
(10.003 0.126577 0)
(10.013 0.250542 0)
(10.0308 0.373168 0)
(10.0557 0.495736 0)
(10.0874 0.61943 0)
(10.126 0.745294 0)
(10.1719 0.874247 0)
(10.2254 1.00691 0)
(10.2869 1.1435 0)
(10.357 1.28381 0)
(10.4359 1.4272 0)
(10.5243 1.57262 0)
(10.6225 1.71877 0)
(10.7308 1.8641 0)
(10.8497 2.00697 0)
(10.9793 2.14569 0)
(11.1197 2.27858 0)
(11.2711 2.404 0)
(11.4333 2.52034 0)
(11.606 2.62607 0)
(11.7889 2.71972 0)
(11.9813 2.79986 0)
(12.1824 2.86515 0)
(12.3911 2.91433 0)
(12.606 2.94629 0)
(12.8255 2.96005 0)
(13.0479 2.95487 0)
(13.2711 2.93023 0)
(13.4924 2.88592 0)
(13.7297 2.82232 0)
(10.0033 0.120816 0)
(10.0142 0.239069 0)
(10.0335 0.355893 0)
(10.0605 0.47244 0)
(10.0948 0.589776 0)
(10.1363 0.708841 0)
(10.1854 0.830452 0)
(10.2424 0.955136 0)
(10.3075 1.08305 0)
(10.3811 1.21393 0)
(10.4636 1.34709 0)
(10.5553 1.48149 0)
(10.6563 1.61582 0)
(10.767 1.74857 0)
(10.8875 1.87814 0)
(11.0178 2.0029 0)
(11.1577 2.12126 0)
(11.3072 2.23169 0)
(11.4659 2.33275 0)
(11.6334 2.42309 0)
(11.809 2.50146 0)
(11.992 2.5667 0)
(12.1814 2.61779 0)
(12.3761 2.6538 0)
(12.5747 2.674 0)
(12.7758 2.67778 0)
(12.9777 2.66476 0)
(13.1788 2.63478 0)
(13.3767 2.58791 0)
(13.587 2.52471 0)
(10.0035 0.114439 0)
(10.0152 0.226385 0)
(10.0359 0.336839 0)
(10.0647 0.446825 0)
(10.1012 0.557299 0)
(10.1452 0.669097 0)
(10.197 0.782942 0)
(10.2568 0.899281 0)
(10.3248 1.01821 0)
(10.4012 1.13943 0)
(10.4863 1.26225 0)
(10.5803 1.38564 0)
(10.6832 1.50831 0)
(10.7952 1.62882 0)
(10.9161 1.74563 0)
(11.0459 1.85722 0)
(11.1843 1.9621 0)
(11.331 2.05887 0)
(11.4853 2.14627 0)
(11.6468 2.22311 0)