/*--------------------------------*- C++ -*----------------------------------*\
  =========                 |
  \\      /  F ield         | OpenFOAM: The Open Source CFD Toolbox
   \\    /   O peration     | Website:  https://openfoam.org
    \\  /    A nd           | Version:  7
     \\/     M anipulation  |
\*---------------------------------------------------------------------------*/
FoamFile
{
    version     2.0;
    format      ascii;
    class       surfaceVectorField;
    location    "0.2";
    object      Uf;
}
// * * * * * * * * * * * * * * * * * * * * * * * * * * * * * * * * * * * * * //

dimensions      [0 1 -1 0 0 0 0];

internalField   nonuniform List<vector> 
5457
(
(9.92237 0.0245656 0)
(9.97184 0.0380145 0)
(9.82845 0.0318837 0)
(9.93118 0.0471071 0)
(9.71846 0.0379415 0)
(9.86168 0.0565038 0)
(9.59014 0.0441732 0)
(9.76812 0.0675119 0)
(9.4434 0.0505786 0)
(9.65533 0.0790713 0)
(9.27839 0.0571645 0)
(9.5242 0.0910651 0)
(9.09493 0.0640283 0)
(9.37397 0.103701 0)
(8.89255 0.071255 0)
(9.2038 0.117157 0)
(8.67071 0.0788952 0)
(9.01298 0.131534 0)
(8.42882 0.086981 0)
(8.8008 0.146888 0)
(8.16633 0.0955385 0)
(8.56651 0.16325 0)
(7.88275 0.104594 0)
(8.30939 0.180637 0)
(7.57765 0.114179 0)
(8.02878 0.199052 0)
(7.25065 0.124326 0)
(7.72408 0.218491 0)
(6.9015 0.135068 0)
(7.39483 0.238937 0)
(6.53005 0.146431 0)
(7.04069 0.260349 0)
(6.13631 0.15842 0)
(6.66145 0.282646 0)
(5.72053 0.171003 0)
(6.25713 0.30568 0)
(5.28334 0.184095 0)
(5.82804 0.329206 0)
(4.82582 0.197533 0)
(5.37492 0.352845 0)
(4.34972 0.211065 0)
(4.89904 0.376054 0)
(3.85762 0.224335 0)
(4.40236 0.398102 0)
(3.35305 0.236884 0)
(3.88774 0.418052 0)
(2.84069 0.248174 0)
(3.35902 0.434786 0)
(2.32631 0.257626 0)
(2.82114 0.447047 0)
(1.81682 0.264892 0)
(2.2802 0.453513 0)
(1.31957 0.267434 0)
(1.74092 0.453326 0)
(0.847576 0.269709 0)
(1.23509 0.440714 0)
(0.397943 0.26764 0)
(0.62823 0.429987 0)
(0.395165 0.389761 0)
(9.9979 0.0500228 0)
(9.99763 0.0390445 0)
(9.96323 0.0680607 0)
(9.98107 0.0644957 0)
(9.90705 0.0839995 0)
(9.93988 0.0853627 0)
(9.8311 0.100776 0)
(9.87562 0.107469 0)
(9.73505 0.118441 0)
(9.79169 0.130831 0)
(9.61859 0.137018 0)
(9.68897 0.155334 0)
(9.48127 0.15675 0)
(9.56679 0.181323 0)
(9.32234 0.177865 0)
(9.42424 0.209163 0)
(9.14091 0.200505 0)
(9.26043 0.239102 0)
(8.93604 0.224753 0)
(9.07443 0.271295 0)
(8.70678 0.250653 0)
(8.86521 0.305838 0)
(8.45223 0.278224 0)
(8.63177 0.342782 0)
(8.17158 0.307466 0)
(8.37312 0.382147 0)
(7.86413 0.338357 0)
(8.08836 0.423925 0)
(7.5293 0.370845 0)
(7.77669 0.468075 0)
(7.16668 0.404829 0)
(7.43744 0.514505 0)
(6.77607 0.440127 0)
(7.07008 0.563047 0)
(6.35752 0.476441 0)
(6.6743 0.613401 0)
(5.91147 0.513303 0)
(6.25004 0.665087 0)
(5.43879 0.550038 0)
(5.79757 0.717378 0)
(4.94101 0.585717 0)
(5.31769 0.769234 0)
(4.4204 0.619139 0)
(4.81178 0.819257 0)
(3.88016 0.648841 0)
(4.282 0.865666 0)
(3.32448 0.673154 0)
(3.73143 0.906328 0)
(2.7586 0.690319 0)
(3.16413 0.938858 0)
(2.18873 0.698881 0)
(2.58546 0.96078 0)
(1.62163 0.695949 0)
(1.99819 0.97033 0)
(1.06274 0.685906 0)
(1.43471 0.962557 0)
(0.517342 0.657489 0)
(0.768014 0.951557 0)
(0.433994 0.896465 0)
(9.99047 0.0566661 0)
(9.99538 0.0437093 0)
(9.95865 0.084816 0)
(9.97619 0.0804576 0)
(9.90582 0.111442 0)
(9.93582 0.112501 0)
(9.83446 0.13937 0)
(9.87439 0.145014 0)
(9.74472 0.168963 0)
(9.79419 0.179186 0)
(9.63624 0.200382 0)
(9.69608 0.215206 0)
(9.50849 0.234001 0)
(9.57963 0.253531 0)
(9.36074 0.27019 0)
(9.44402 0.294694 0)
(9.19207 0.30921 0)
(9.28839 0.339112 0)
(9.00141 0.351228 0)
(9.11181 0.387074 0)
(8.78766 0.396342 0)
(8.91324 0.438779 0)
(8.54971 0.444603 0)
(8.69162 0.494353 0)
(8.28649 0.496021 0)
(8.44586 0.553869 0)
(7.997 0.55057 0)
(8.17492 0.617354 0)
(7.68033 0.60817 0)
(7.8778 0.684783 0)
(7.33569 0.668669 0)
(7.55359 0.756065 0)
(6.96242 0.731788 0)
(7.20147 0.830999 0)
(6.56006 0.797066 0)
(6.82072 0.909218 0)
(6.12843 0.863782 0)
(6.41078 0.990105 0)
(5.66769 0.930879 0)
(5.97135 1.0727 0)
(5.17852 0.996891 0)
(5.50245 1.15562 0)
(4.66219 1.0599 0)
(5.00456 1.23695 0)
(4.12082 1.11754 0)
(4.47879 1.31422 0)
(3.55741 1.16705 0)
(3.92705 1.38442 0)
(2.97603 1.2055 0)
(3.35216 1.44415 0)
(2.38173 1.23033 0)
(2.75846 1.48979 0)
(1.78018 1.23804 0)
(2.1468 1.51874 0)
(1.17694 1.23272 0)
(1.55087 1.52581 0)
(0.579202 1.199 0)
(0.849034 1.52318 0)
(0.450758 1.46376 0)
(9.98658 0.0677862 0)
(9.99423 0.0502791 0)
(9.95465 0.107192 0)
(9.97335 0.0964767 0)
(9.90277 0.145062 0)
(9.9328 0.139149 0)
(9.83259 0.183895 0)
(9.87251 0.181937 0)
(9.7446 0.224603 0)
(9.79401 0.226599 0)
(9.63854 0.267687 0)
(9.69803 0.27374 0)
(9.51393 0.313724 0)
(9.58428 0.323964 0)
(9.37013 0.363274 0)
(9.45204 0.37794 0)
(9.20632 0.416775 0)
(9.30054 0.436237 0)
(9.02155 0.474545 0)
(9.12891 0.499281 0)
(8.81478 0.536804 0)
(8.9362 0.567377 0)
(8.58496 0.603701 0)
(8.7214 0.640743 0)
(8.33104 0.67532 0)
(8.48349 0.719524 0)
(8.05199 0.751694 0)
(8.22143 0.803811 0)
(7.74679 0.832787 0)
(7.9342 0.893639 0)
(7.4145 0.918467 0)
(7.62079 0.988967 0)
(7.05421 1.00845 0)
(7.28023 1.08964 0)
(6.6651 1.10222 0)
(6.91155 1.1953 0)
(6.2465 1.19894 0)
(6.51382 1.30531 0)
(5.79794 1.29734 0)
(6.08623 1.41864 0)
(5.31928 1.3956 0)
(5.62812 1.5337 0)
(4.81082 1.49129 0)
(5.13914 1.64827 0)
(4.27352 1.58135 0)
(4.61937 1.75939 0)
(3.70917 1.6621 0)
(4.06954 1.86333 0)
(3.12055 1.72951 0)
(3.49122 1.95572 0)
(2.51164 1.77992 0)
(2.88781 2.03179 0)
(1.88753 1.80886 0)
(2.25839 2.08773 0)
(1.25424 1.81914 0)
(1.63814 2.11713 0)
(0.619962 1.79062 0)
(0.909257 2.12975 0)
(0.460815 2.07097 0)
(9.98478 0.0795236 0)
(9.99372 0.0577322 0)
(9.9524 0.12863 0)
(9.97202 0.112717 0)
(9.90142 0.176492 0)
(9.93154 0.165338 0)
(9.83261 0.225365 0)
(9.87247 0.218139 0)
(9.74646 0.276559 0)
(9.79589 0.27302 0)
(9.6428 0.330871 0)
(9.70233 0.330949 0)
(9.52117 0.389037 0)
(9.5915 0.392717 0)
(9.38094 0.451741 0)
(9.46278 0.459121 0)
(9.22134 0.519543 0)
(9.31545 0.530863 0)
(9.04149 0.592864 0)
(9.14867 0.608493 0)
(8.84044 0.672011 0)
(8.96155 0.692422 0)
(8.61718 0.757202 0)
(8.75315 0.782954 0)
(8.37072 0.84859 0)
(8.52248 0.880315 0)
(8.10004 0.946272 0)
(8.26854 0.984677 0)
(7.8041 1.05028 0)
(7.9903 1.09616 0)
(7.48188 1.16056 0)
(7.68672 1.21481 0)
(7.1323 1.27689 0)
(7.35667 1.34058 0)
(6.7543 1.3988 0)
(6.99901 1.47321 0)
(6.34681 1.52547 0)
(6.61248 1.61215 0)
(5.90881 1.65557 0)
(6.19583 1.75643 0)
(5.43944 1.78714 0)
(5.74778 1.90444 0)
(4.93811 1.91742 0)
(5.26716 2.05384 0)
(4.4047 2.04282 0)
(4.75306 2.20135 0)
(3.8398 2.15892 0)
(4.20506 2.34269 0)
(3.24506 2.2606 0)
(3.62349 2.47262 0)
(2.62349 2.34288 0)
(3.01077 2.58507 0)
(1.97977 2.39987 0)
(2.36438 2.67458 0)
(1.32027 2.43222 0)
(1.72063 2.73291 0)
(0.654494 2.41432 0)
(0.965518 2.76643 0)
(0.470536 2.71201 0)
(9.98403 0.0915756 0)
(9.99354 0.0655549 0)
(9.95156 0.149832 0)
(9.97163 0.129003 0)
(9.90167 0.207391 0)
(9.93165 0.190964 0)
(9.83463 0.266237 0)
(9.87408 0.253409 0)
(9.7508 0.327836 0)
(9.79979 0.318198 0)
(9.65003 0.393201 0)
(9.70911 0.386561 0)
(9.5319 0.463214 0)
(9.60175 0.459488 0)
(9.3958 0.538683 0)
(9.47717 0.537907 0)
(9.24101 0.62029 0)
(9.33466 0.622641 0)
(9.06668 0.70857 0)
(9.17346 0.714353 0)
(8.87192 0.803927 0)
(8.99271 0.813557 0)
(8.65576 0.906672 0)
(8.7915 0.920645 0)
(8.41723 1.01705 0)
(8.56889 1.03593 0)
(8.15532 1.13524 0)
(8.3239 1.15968 0)
(7.86897 1.2614 0)
(8.05548 1.29212 0)
(7.55706 1.39559 0)
(7.76252 1.43343 0)
(7.21837 1.53771 0)
(7.44379 1.58371 0)
(6.85156 1.68744 0)
(7.09793 1.74289 0)
(6.45519 1.8441 0)
(6.72339 1.91062 0)
(6.02772 2.00644 0)
(6.31843 2.0861 0)
(5.56756 2.17251 0)
(5.88116 2.2679 0)
(5.07322 2.33944 0)
(5.40958 2.45374 0)
(4.54348 2.50331 0)
(4.90171 2.64026 0)
(3.97771 2.65901 0)
(4.35588 2.82279 0)
(3.3763 2.80034 0)
(3.77096 2.99532 0)
(2.74124 2.92072 0)
(3.14825 3.15037 0)
(2.07672 3.01224 0)
(2.48346 3.2804 0)
(1.38945 3.07251 0)
(1.81331 3.37463 0)
(0.690455 3.06941 0)
(1.02812 3.43488 0)
(0.483754 3.38827 0)
(9.98386 0.103685 0)
(9.99355 0.0734579 0)
(9.95174 0.170679 0)
(9.97187 0.145113 0)
(9.90319 0.23749 0)
(9.93279 0.215905 0)
(9.83827 0.30592 0)
(9.87703 0.287565 0)
(9.75718 0.377515 0)
(9.80538 0.361892 0)
(9.65982 0.453479 0)
(9.71803 0.440291 0)
(9.5458 0.534858 0)
(9.6147 0.523937 0)
(9.41455 0.622591 0)
(9.4949 0.613891 0)
(9.26537 0.717477 0)
(9.35797 0.711093 0)
(9.09746 0.820157 0)
(9.2032 0.816313 0)
(8.90998 0.931131 0)
(9.02977 0.930162 0)
(8.702 1.0508 0)
(8.83684 1.05313 0)
(8.47257 1.17949 0)
(8.62348 1.18561 0)
(8.22067 1.31752 0)
(8.38873 1.32799 0)
(7.94522 1.46516 0)
(8.13154 1.48062 0)
(7.64499 1.62263 0)
(7.85075 1.64386 0)
(7.31859 1.79005 0)
(7.54501 1.81801 0)
(6.96445 1.96733 0)
(7.21275 2.00326 0)
(6.58071 2.15403 0)
(6.85211 2.19957 0)
(6.16527 2.34918 0)
(6.46091 2.40648 0)
(5.71581 2.55104 0)
(6.03657 2.62292 0)
(5.22983 2.75684 0)
(5.5762 2.84689 0)
(4.70487 2.96253 0)
(5.07664 3.07521 0)
(4.13885 3.16253 0)
(4.53473 3.30311 0)
(3.53059 3.34956 0)
(3.94755 3.52396 0)
(2.88065 3.51518 0)
(3.31468 3.7289 0)
(2.19235 3.64886 0)
(2.62962 3.90791 0)
(1.47247 3.74408 0)
(1.92825 4.0468 0)
(0.73373 3.76081 0)
(1.10565 4.14134 0)
(0.503906 4.10691 0)
(9.98406 0.115642 0)
(9.99368 0.0812626 0)
(9.95268 0.190997 0)
(9.97255 0.160854 0)
(9.90574 0.266605 0)
(9.93471 0.240019 0)
(9.84325 0.344193 0)
(9.88107 0.320439 0)
(9.76534 0.425366 0)
(9.8124 0.403877 0)
(9.6719 0.511485 0)
(9.72882 0.491861 0)
(9.56258 0.603748 0)
(9.63006 0.585728 0)
(9.43685 0.703218 0)
(9.51566 0.686673 0)
(9.29408 0.810804 0)
(9.38503 0.795744 0)
(9.13352 0.927245 0)
(9.23752 0.913815 0)
(8.95436 1.05313 0)
(9.07238 1.04159 0)
(8.75573 1.18897 0)
(8.88881 1.17965 0)
(8.53673 1.33519 0)
(8.68594 1.32849 0)
(8.29633 1.49223 0)
(8.46285 1.48862 0)
(8.03341 1.66052 0)
(8.2185 1.66054 0)
(7.74669 1.84052 0)
(7.95168 1.84482 0)
(7.43463 2.0326 0)
(7.66097 2.04202 0)
(7.09539 2.23701 0)
(7.34463 2.25268 0)
(6.72674 2.4537 0)
(7.00052 2.47716 0)
(6.32603 2.68212 0)
(6.62601 2.71552 0)
(5.89011 2.921 0)
(6.2179 2.96723 0)
(5.4154 3.16794 0)
(5.77233 3.23092 0)
(4.89798 3.4191 0)
(5.28483 3.50391 0)
(4.33397 3.66869 0)
(4.75048 3.78172 0)
(3.72005 3.90856 0)
(4.16399 4.05752 0)
(3.05453 4.12826 0)
(3.52238 4.3213 0)
(2.33892 4.31403 0)
(2.81596 4.56031 0)
(1.57935 4.45389 0)
(2.0778 4.75602 0)
(0.790117 4.49769 0)
(1.20734 4.89609 0)
(0.535049 4.88078 0)
(9.98451 0.127288 0)
(9.9939 0.0888492 0)
(9.95418 0.210629 0)
(9.97354 0.176065 0)
(9.90912 0.294582 0)
(9.93724 0.263165 0)
(9.84939 0.380872 0)
(9.88603 0.351866 0)
(9.77504 0.471161 0)
(9.82068 0.44394 0)
(9.68599 0.566937 0)
(9.74128 0.541008 0)
(9.58192 0.669535 0)
(9.64757 0.644548 0)
(9.46238 0.780137 0)
(9.53914 0.755877 0)
(9.32678 0.899753 0)
(9.41549 0.876147 0)
(9.17443 1.02922 0)
(9.27602 1.00633 0)
(9.0046 1.16922 0)
(9.12007 1.14721 0)
(8.8165 1.32035 0)
(8.94691 1.29947 0)
(8.60924 1.48316 0)
(8.75575 1.46371 0)
(8.38185 1.65824 0)
(8.54571 1.64055 0)
(8.13323 1.84621 0)
(8.3158 1.83068 0)
(7.86204 2.04778 0)
(8.06483 2.0349 0)
(7.56663 2.26365 0)
(7.79135 2.25408 0)
(7.24498 2.49451 0)
(7.49352 2.48916 0)
(6.89453 2.74082 0)
(7.16899 2.74105 0)
(6.51209 3.0027 0)
(6.81479 3.01046 0)
(6.09375 3.27955 0)
(6.42713 3.29767 0)
(5.63474 3.56977 0)
(6.00125 3.60225 0)
(5.12951 3.87013 0)
(5.5313 3.92251 0)
(4.5719 4.1752 0)
(5.01033 4.2549 0)
(3.95569 4.47641 0)
(4.43015 4.59308 0)
(3.27567 4.76155 0)
(3.78397 4.92661 0)
(2.52982 5.01306 0)
(3.05733 5.24028 0)
(1.72188 5.21189 0)
(2.27733 5.5104 0)
(0.86681 5.29431 0)
(1.3456 5.7138 0)
(0.583144 5.72977 0)
(9.98513 0.138502 0)
(9.99418 0.0961322 0)
(9.95611 0.229437 0)
(9.97477 0.190618 0)
(9.91321 0.32127 0)
(9.94028 0.285203 0)
(9.85652 0.415775 0)
(9.89177 0.381692 0)
(9.7861 0.514669 0)
(9.83004 0.481888 0)
(9.70187 0.619551 0)
(9.75519 0.587495 0)
(9.60357 0.731878 0)
(9.66697 0.700107 0)
(9.49081 0.852939 0)
(9.56505 0.821155 0)
(9.36307 0.983843 0)
(9.44899 0.951888 0)
(9.21975 1.12551 0)
(9.31828 1.09336 0)
(9.0602 1.27872 0)
(9.17235 1.24644 0)
(8.8837 1.44415 0)
(9.01056 1.4119 0)
(8.68946 1.62249 0)
(8.83223 1.59043 0)
(8.47658 1.81446 0)
(8.63657 1.78279 0)
(8.24399 2.0209 0)
(8.42266 1.98985 0)
(7.99038 2.24281 0)
(8.18941 2.21265 0)
(7.71408 2.48129 0)
(7.93539 2.45242 0)
(7.41296 2.73751 0)
(7.65876 2.71055 0)
(7.08425 3.01263 0)
(7.35712 2.98857 0)
(6.72434 3.30757 0)
(7.02728 3.28802 0)
(6.32864 3.6228 0)
(6.66505 3.61022 0)
(5.89128 3.95788 0)
(6.26495 3.95606 0)
(5.40496 4.3109 0)
(5.81985 4.32544 0)
(4.86089 4.67759 0)
(5.32072 4.71659 0)
(4.249 5.04998 0)
(4.75598 5.12488 0)
(3.5589 5.41495 0)
(4.11379 5.54089 0)
(2.78222 5.75133 0)
(3.37255 5.94835 0)
(1.91666 6.03121 0)
(2.54857 6.3186 0)
(0.974741 6.17189 0)
(1.53984 6.61456 0)
(0.65849 6.68447 0)
(9.98588 0.149186 0)
(9.9945 0.103047 0)
(9.95839 0.247297 0)
(9.9762 0.204404 0)
(9.91788 0.346532 0)
(9.94371 0.306013 0)
(9.86451 0.448733 0)
(9.89816 0.409774 0)
(9.79833 0.555684 0)
(9.84034 0.517546 0)
(9.71931 0.669076 0)
(9.77036 0.631105 0)
(9.62725 0.790473 0)
(9.68803 0.752145 0)
(9.52181 0.921263 0)
(9.59308 0.882195 0)
(9.40256 1.06264 0)
(9.48515 1.02259 0)
(9.269 1.21561 0)
(9.36385 1.17446 0)
(9.12059 1.38101 0)
(9.22868 1.33875 0)
(8.9567 1.55964 0)
(9.07914 1.51629 0)
(8.77665 1.75227 0)
(8.91466 1.70789 0)
(8.57967 1.9598 0)
(8.73458 1.91441 0)
(8.36478 2.18328 0)
(8.53814 2.13691 0)
(8.13077 2.42401 0)
(8.32435 2.37667 0)
(7.87605 2.68351 0)
(8.09195 2.63527 0)
(7.59851 2.96352 0)
(7.83921 2.9146 0)
(7.29533 3.26597 0)
(7.56384 3.21687 0)
(6.96272 3.5928 0)
(7.26267 3.54453 0)
(6.59562 3.94582 0)
(6.93141 3.90018 0)
(6.18732 4.32631 0)
(6.56419 4.28637 0)
(5.72893 4.73444 0)
(6.15301 4.70524 0)
(5.2089 5.16835 0)
(5.68707 5.15788 0)
(4.61265 5.62241 0)
(5.15148 5.64309 0)
(3.9226 6.08473 0)
(4.52839 6.15513 0)
(3.11999 6.53238 0)
(3.78645 6.68006 0)
(2.18955 6.92802 0)
(2.92422 7.18737 0)
(1.13294 7.16213 0)
(1.82346 7.62501 0)
(0.781088 7.79411 0)
(9.98673 0.159265 0)
(9.99486 0.109545 0)
(9.96095 0.264104 0)
(9.97777 0.217337 0)
(9.92304 0.370241 0)
(9.94747 0.325484 0)
(9.87322 0.479598 0)
(9.90509 0.435986 0)
(9.81158 0.594022 0)
(9.85142 0.55076 0)
(9.73812 0.715288 0)
(9.78661 0.671649 0)
(9.65269 0.845052 0)
(9.71052 0.800433 0)
(9.55504 0.984787 0)
(9.62294 0.938724 0)
(9.44484 1.13576 0)
(9.52362 1.08793 0)
(9.32169 1.29904 0)
(9.41226 1.24924 0)
(9.18516 1.47555 0)
(9.2885 1.42367 0)
(9.03477 1.66614 0)
(9.15196 1.61209 0)
(8.86998 1.8717 0)
(9.00222 1.81539 0)
(8.69016 2.09327 0)
(8.8388 2.03457 0)
(8.49451 2.33212 0)
(8.66111 2.2708 0)
(8.28199 2.58981 0)
(8.46838 2.52562 0)
(8.05121 2.86831 0)
(8.25957 2.80093 0)
(7.80024 3.16995 0)
(8.03326 3.09911 0)
(7.52646 3.49747 0)
(7.78743 3.42303 0)
(7.22617 3.85398 0)
(7.51925 3.77611 0)
(6.89429 4.24285 0)
(7.22471 4.16232 0)
(6.52373 4.66756 0)
(6.89813 4.58614 0)
(6.10459 5.13126 0)
(6.53141 5.05252 0)
(5.62309 5.63602 0)
(6.11293 5.56647 0)
(5.06011 6.18119 0)
(5.62552 6.13239 0)
(4.38949 6.76024 0)
(5.0458 6.75207 0)
(3.57719 7.35394 0)
(4.33124 7.4206 0)
(2.58339 7.91996 0)
(3.45471 8.11529 0)
(1.37807 8.31417 0)
(2.25805 8.77766 0)
(0.993917 9.14385 0)
(9.98767 0.168677 0)
(9.99525 0.115585 0)
(9.96372 0.27977 0)
(9.97946 0.229347 0)
(9.9286 0.392289 0)
(9.9515 0.343527 0)
(9.88254 0.508236 0)
(9.91247 0.460218 0)
(9.82569 0.629522 0)
(9.86316 0.581396 0)
(9.75807 0.757993 0)
(9.80376 0.708966 0)
(9.67962 0.895379 0)
(9.73418 0.844777 0)
(9.59016 1.04323 0)
(9.65431 0.990509 0)
(9.48948 1.20286 0)
(9.564 1.14763 0)
(9.37729 1.37541 0)
(9.46304 1.31737 0)
(9.25329 1.56184 0)
(9.35122 1.50079 0)
(9.11716 1.76306 0)
(9.2283 1.69881 0)
(8.96852 1.98006 0)
(9.09405 1.91236 0)
(8.80695 2.21398 0)
(8.94817 2.14253 0)
(8.63187 2.46626 0)
(8.79031 2.39062 0)
(8.44252 2.73875 0)
(8.61998 2.65834 0)
(8.23781 3.03379 0)
(8.43649 2.94788 0)
(8.01621 3.35427 0)
(8.23883 3.26204 0)
(7.7755 3.70373 0)
(8.02549 3.60429 0)
(7.51252 4.08644 0)
(7.79428 3.97893 0)
(7.22267 4.50747 0)
(7.54198 4.39126 0)
(6.89932 4.97276 0)
(7.26385 4.84773 0)
(6.53268 5.48917 0)
(6.95281 5.35629 0)
(6.1082 6.06426 0)
(6.5982 5.92667 0)
(5.60385 6.70557 0)
(6.18312 6.57072 0)
(4.98574 7.41837 0)
(5.68214 7.30227 0)
(4.20151 8.19903 0)
(5.04507 8.13556 0)
(3.17143 9.019 0)
(4.21674 9.0771 0)
(1.78832 9.70878 0)
(2.96518 10.1003 0)
(1.39947 10.8954 0)
(9.98866 0.177374 0)
(9.99566 0.121139 0)
(9.96667 0.29422 0)
(9.98124 0.240376 0)
(9.93448 0.412584 0)
(9.95574 0.360065 0)
(9.89236 0.534539 0)
(9.92021 0.482378 0)
(9.84049 0.662054 0)
(9.87543 0.609346 0)
(9.77896 0.797033 0)
(9.82163 0.742924 0)
(9.70776 0.941272 0)
(9.7588 0.885018 0)
(9.62683 1.09637 0)
(9.68691 1.03736 0)
(9.53604 1.2637 0)
(9.60589 1.20146 0)
(9.43524 1.44441 0)
(9.51569 1.37858 0)
(9.32428 1.63952 0)
(9.41622 1.56979 0)
(9.20301 1.84996 0)
(9.30741 1.77605 0)
(9.07126 2.07678 0)
(9.1892 1.99832 0)
(8.92881 2.3212 0)
(9.06154 2.2377 0)
(8.7754 2.5848 0)
(8.92435 2.4956 0)
(8.61059 2.86963 0)
(8.77747 2.77385 0)
(8.43375 3.17833 0)
(8.62064 3.07483 0)
(8.24387 3.51425 0)
(8.45338 3.40163 0)
(8.03947 3.88162 0)
(8.2749 3.7582 0)
(7.81827 4.28572 0)
(8.08397 4.14952 0)
(7.57686 4.73317 0)
(7.87862 4.58194 0)
(7.31006 5.23233 0)
(7.65586 5.06357 0)
(7.00989 5.7939 0)
(7.411 5.605 0)
(6.66373 6.43178 0)
(7.13669 6.22042 0)
(6.25089 7.1643 0)
(6.82064 6.92952 0)
(5.73581 8.01574 0)
(6.44323 7.76076 0)
(5.05393 9.0172 0)
(5.96128 8.75721 0)
(4.07927 10.204 0)
(5.31649 9.98716 0)
(2.5509 11.4908 0)
(4.20868 11.5619 0)
(2.27678 13.3938 0)
(9.9897 0.185316 0)
(9.99609 0.126183 0)
(9.96975 0.307395 0)
(9.98309 0.250381 0)
(9.9406 0.431046 0)
(9.96013 0.375039 0)
(9.90256 0.558404 0)
(9.92821 0.502394 0)
(9.85584 0.691484 0)
(9.88811 0.634523 0)
(9.80058 0.832242 0)
(9.84008 0.773421 0)
(9.73686 0.982518 0)
(9.78419 0.921036 0)
(9.66469 1.14395 0)
(9.7205 1.07914 0)
(9.58408 1.31794 0)
(9.64907 1.24926 0)
(9.495 1.50566 0)
(9.56994 1.43267 0)
(9.39746 1.70812 0)
(9.48319 1.63046 0)
(9.29149 1.92629 0)
(9.38892 1.84356 0)
(9.17714 2.16121 0)
(9.28727 2.07293 0)
(9.05446 2.41415 0)
(9.17844 2.31968 0)
(8.92349 2.68676 0)
(9.06265 2.58523 0)
(8.78423 2.98121 0)
(8.94011 2.87146 0)
(8.63656 3.30033 0)
(8.81106 3.18084 0)
(8.48018 3.64776 0)
(8.67565 3.51661 0)
(8.31451 4.0282 0)
(8.53396 3.88294 0)
(8.13858 4.44763 0)
(8.38593 4.28521 0)
(7.95074 4.91377 0)
(8.23125 4.73031 0)
(7.74836 5.4368 0)
(8.06932 5.22729 0)
(7.52715 6.03042 0)
(7.89908 5.78828 0)
(7.28001 6.71393 0)
(7.71882 6.43014 0)
(6.99461 7.51584 0)
(7.52569 7.17757 0)
(6.6478 8.48137 0)
(7.31678 8.06947 0)
(6.19134 9.69052 0)
(7.08398 9.17335 0)
(5.5047 11.3211 0)
(6.85682 10.6283 0)
(4.18274 13.9484 0)
(6.70763 12.8261 0)
(5.86398 17.4906 0)
(-0.670307 0.413819 0)
(-0.27518 0.656525 0)
(-1.39954 0.428931 0)
(-1.14236 0.697372 0)
(-2.19457 0.437906 0)
(-1.84826 0.74233 0)
(-3.03271 0.434623 0)
(-2.71534 0.764108 0)
(-3.90025 0.421022 0)
(-3.58762 0.77223 0)
(-4.77088 0.394251 0)
(-4.47782 0.756673 0)
(-5.61361 0.354234 0)
(-5.35206 0.715127 0)
(-6.39267 0.301188 0)
(-6.17632 0.645485 0)
(-7.06925 0.236096 0)
(-6.91198 0.547333 0)
(-7.6038 0.160614 0)
(-7.51837 0.422224 0)
(-7.95908 0.0769065 0)
(-7.95563 0.273997 0)
(-8.10309 -0.0128091 0)
(-8.18855 0.10844 0)
(-8.01391 -0.10619 0)
(-8.1915 -0.0655649 0)
(-7.68004 -0.197894 0)
(-7.94983 -0.239673 0)
(-7.11052 -0.280219 0)
(-7.46634 -0.399173 0)
(-6.33252 -0.347037 0)
(-6.76247 -0.532412 0)
(-5.38626 -0.394593 0)
(-5.87454 -0.632273 0)
(-4.31934 -0.421583 0)
(-4.84847 -0.696054 0)
(-3.18139 -0.429178 0)
(-3.73333 -0.724858 0)
(-2.01745 -0.419405 0)
(-2.57103 -0.723905 0)
(-0.866871 -0.3942 0)
(-1.40123 -0.698695 0)
(0.236521 -0.359273 0)
(-0.231083 -0.654214 0)
(1.2738 -0.321034 0)
(0.82429 -0.60049 0)
(2.23038 -0.283116 0)
(1.83346 -0.540693 0)
(3.10468 -0.247609 0)
(2.76574 -0.482514 0)
(3.8971 -0.214927 0)
(3.61519 -0.426997 0)
(4.61036 -0.185536 0)
(4.38367 -0.375263 0)
(5.24993 -0.159934 0)
(5.07556 -0.328543 0)
(5.82424 -0.141317 0)
(5.69509 -0.288053 0)
(6.3762 -0.263801 0)
(-0.734359 1.04104 0)
(-0.305212 1.37578 0)
(-1.52452 1.09551 0)
(-1.208 1.45301 0)
(-2.35741 1.13748 0)
(-1.95586 1.52002 0)
(-3.22926 1.15823 0)
(-2.85269 1.55894 0)
(-4.12221 1.15191 0)
(-3.74827 1.56707 0)
(-5.01178 1.11002 0)
(-4.65709 1.52981 0)
(-5.86674 1.02829 0)
(-5.5441 1.44063 0)
(-6.6509 0.904485 0)
(-6.37524 1.2952 0)
(-7.3248 0.739117 0)
(-7.11119 1.0925 0)
(-7.84817 0.535845 0)
(-7.71029 0.835617 0)
(-8.18307 0.301656 0)
(-8.13149 0.532275 0)
(-8.29826 0.0463311 0)
(-8.33882 0.195174 0)
(-8.17132 -0.216559 0)
(-8.30695 -0.158893 0)
(-7.79669 -0.468112 0)
(-8.02617 -0.508596 0)
(-7.18731 -0.689077 0)
(-7.50283 -0.826288 0)
(-6.37271 -0.865791 0)
(-6.76185 -1.08987 0)
(-5.39417 -0.991121 0)
(-5.84192 -1.28611 0)
(-4.29867 -1.06413 0)
(-4.78982 -1.41076 0)
(-3.13345 -1.0887 0)
(-3.65415 -1.46709 0)
(-1.94431 -1.07177 0)
(-2.47549 -1.46348 0)
(-0.768341 -1.01986 0)
(-1.29623 -1.41281 0)
(0.357603 -0.943869 0)
(-0.116253 -1.3218 0)
(1.41274 -0.857403 0)
(0.941511 -1.21132 0)
(2.39177 -0.769379 0)
(1.9564 -1.09407 0)
(3.29131 -0.684647 0)
(2.89465 -0.978958 0)
(4.11114 -0.604904 0)
(3.75182 -0.868762 0)
(4.85374 -0.531778 0)
(4.52956 -0.765963 0)
(5.52393 -0.466823 0)
(5.23192 -0.672822 0)
(6.12818 -0.41525 0)
(5.86085 -0.591121 0)
(6.55165 -0.529258 0)
(-0.764522 1.78618 0)
(-0.329265 2.12459 0)
(-1.58299 1.87218 0)
(-1.23482 2.23572 0)
(-2.44181 1.93431 0)
(-2.01282 2.32191 0)
(-3.33498 1.96134 0)
(-2.92827 2.37322 0)
(-4.24461 1.94066 0)
(-3.83936 2.37676 0)
(-5.14573 1.85941 0)
(-4.76039 2.31299 0)
(-6.00696 1.71051 0)
(-5.65508 2.17145 0)
(-6.79168 1.49055 0)
(-6.48908 1.94538 0)
(-7.45985 1.20082 0)
(-7.22201 1.63303 0)
(-7.97036 0.848031 0)
(-7.81059 1.23885 0)
(-8.28444 0.444991 0)
(-8.21174 0.774493 0)
(-8.36995 0.0103051 0)
(-8.3879 0.259565 0)
(-8.20616 -0.431668 0)
(-8.31403 -0.279314 0)
(-7.7905 -0.849499 0)
(-7.98796 -0.806976 0)
(-7.14165 -1.21194 0)
(-7.41978 -1.28106 0)
(-6.29374 -1.49754 0)
(-6.63967 -1.67013 0)
(-5.29071 -1.69611 0)
(-5.68987 -1.95631 0)
(-4.18033 -1.80767 0)
(-4.6185 -2.13516 0)
(-3.0097 -1.83941 0)
(-3.47384 -2.21277 0)
(-1.82298 -1.80503 0)
(-2.29844 -2.20155 0)
(-0.653831 -1.71597 0)
(-1.1204 -2.12278 0)
(0.464244 -1.5883 0)
(0.0329963 -1.98472 0)
(1.50807 -1.44538 0)
(1.08003 -1.81559 0)
(2.47698 -1.30078 0)
(2.07979 -1.64174 0)
(3.367 -1.16024 0)
(3.00267 -1.47015 0)
(4.17765 -1.02724 0)
(3.84545 -1.30558 0)
(4.91141 -0.904749 0)
(4.60974 -1.15201 0)
(5.57291 -0.795148 0)
(5.29954 -1.01264 0)
(6.16815 -0.703397 0)
(5.91516 -0.88967 0)
(6.59405 -0.790601 0)
(-0.780925 2.56347 0)
(-0.34819 2.88945 0)
(-1.61593 2.6762 0)
(-1.24126 3.03423 0)
(-2.49095 2.75335 0)
(-2.03863 3.13894 0)
(-3.39836 2.7827 0)
(-2.96101 3.20048 0)
(-4.31927 2.74471 0)
(-3.87801 3.19649 0)
(-5.22811 2.62232 0)
(-4.80258 3.10286 0)
(-6.09273 2.40535 0)
(-5.69728 2.90516 0)
(-6.87542 2.08873 0)
(-6.52707 2.59387 0)
(-7.5345 1.67378 0)
(-7.24994 2.16621 0)
(-8.02689 1.1694 0)
(-7.82031 1.62777 0)
(-8.31184 0.593387 0)
(-8.19224 0.994253 0)
(-8.35673 -0.0273253 0)
(-8.32604 0.29337 0)
(-8.14292 -0.654275 0)
(-8.19777 -0.436515 0)
(-7.67551 -1.24001 0)
(-7.81739 -1.14251 0)
(-6.97978 -1.74207 0)
(-7.19868 -1.76869 0)
(-6.09482 -2.13276 0)
(-6.37767 -2.27575 0)
(-5.0672 -2.4002 0)
(-5.40007 -2.64294 0)
(-3.94532 -2.54604 0)
(-4.31502 -2.86707 0)
(-2.77555 -2.58215 0)
(-3.1703 -2.95789 0)
(-1.59668 -2.52724 0)
(-2.00761 -2.93475 0)
(-0.447872 -2.39781 0)
(-0.838353 -2.8204 0)
(0.645934 -2.21703 0)
(0.266515 -2.63325 0)
(1.67018 -2.01679 0)
(1.29565 -2.40854 0)
(2.61957 -1.81539 0)
(2.26933 -2.17837 0)
(3.49082 -1.61939 0)
(3.16704 -1.95097 0)
(4.28372 -1.43389 0)
(3.98634 -1.73284 0)
(5.00085 -1.26303 0)
(4.72887 -1.52931 0)
(5.64672 -1.10983 0)
(5.39869 -1.34442 0)
(6.22709 -0.97897 0)
(5.99481 -1.18076 0)
(6.65448 -1.04482 0)
(-0.784879 3.34926 0)
(-0.358688 3.65819 0)
(-1.62283 3.48766 0)
(-1.22421 3.83557 0)
(-2.49994 3.5784 0)
(-2.02394 3.95792 0)
(-3.4078 3.60804 0)
(-2.93521 4.02815 0)
(-4.32683 3.54998 0)
(-3.84113 4.01456 0)
(-5.23093 3.38283 0)
(-4.75296 3.88863 0)
(-6.08712 3.0929 0)
(-5.63264 3.63171 0)
(-6.85635 2.67301 0)
(-6.44455 3.23121 0)
(-7.49506 2.12442 0)
(-7.14502 2.68291 0)
(-7.95794 1.45883 0)
(-7.68575 1.99339 0)
(-8.20272 0.700777 0)
(-8.01722 1.18303 0)
(-8.19633 -0.111594 0)
(-8.09671 0.288561 0)
(-7.92439 -0.923603 0)
(-7.90702 -0.636452 0)
(-7.40099 -1.67216 0)
(-7.46891 -1.51823 0)
(-6.65822 -2.30515 0)
(-6.80075 -2.28929 0)
(-5.73986 -2.79026 0)
(-5.94417 -2.90421 0)
(-4.69479 -3.11559 0)
(-4.94751 -3.34123 0)
(-3.57114 -3.2861 0)
(-3.86027 -3.60014 0)
(-2.41307 -3.31961 0)
(-2.72956 -3.69557 0)
(-1.25583 -3.23736 0)
(-1.58798 -3.65448 0)
(-0.139697 -3.06264 0)
(-0.452686 -3.49817 0)
(0.917138 -2.82981 0)
(0.598089 -3.25986 0)
(1.90921 -2.57481 0)
(1.59543 -2.98285 0)
(2.82821 -2.31795 0)
(2.53152 -2.69783 0)
(3.67069 -2.06783 0)
(3.39356 -2.41592 0)
(4.43678 -1.83116 0)
(4.17971 -2.14565 0)
(5.1292 -1.61311 0)
(4.89176 -1.89361 0)
(5.75239 -1.4173 0)
(5.53387 -1.66455 0)
(6.31196 -1.24805 0)
(6.10413 -1.46142 0)
(6.73729 -1.28957 0)
(-0.770433 4.12901 0)
(-0.35583 4.41279 0)
(-1.59122 4.2921 0)
(-1.17394 4.62049 0)
(-2.44943 4.39547 0)
(-1.95122 4.75925 0)
(-3.33655 4.42394 0)
(-2.8267 4.8369 0)
(-4.23328 4.34409 0)
(-3.69789 4.81277 0)
(-5.11365 4.13013 0)
(-4.57491 4.65376 0)
(-5.94434 3.76454 0)
(-5.41996 4.33662 0)
(-6.68531 3.23765 0)
(-6.19744 3.84513 0)
(-7.29104 2.55026 0)
(-6.86207 3.17294 0)
(-7.71365 1.71699 0)
(-7.36209 2.32719 0)
(-7.90841 0.770059 0)
(-7.64279 1.33323 0)
(-7.84407 -0.238696 0)
(-7.65694 0.240116 0)
(-7.51095 -1.23526 0)
(-7.40319 -0.881365 0)
(-6.93305 -2.14043 0)
(-6.90922 -1.93308 0)
(-6.14949 -2.89431 0)
(-6.19922 -2.83849 0)
(-5.20776 -3.46207 0)
(-5.31914 -3.54868 0)
(-4.15784 -3.83373 0)
(-4.31832 -4.04276 0)
(-3.0466 -4.01941 0)
(-3.24533 -4.32511 0)
(-1.91384 -4.04185 0)
(-2.14455 -4.41712 0)
(-0.796808 -3.9251 0)
(-1.03652 -4.34921 0)
(0.271958 -3.70235 0)
(0.0330984 -4.14719 0)
(1.28111 -3.41888 0)
(1.03021 -3.8582 0)
(2.229 -3.1114 0)
(1.98087 -3.53159 0)
(3.1063 -2.80072 0)
(2.86792 -3.19371 0)
(3.90957 -2.49809 0)
(3.68359 -2.85924 0)
(4.63936 -2.21192 0)
(4.42676 -2.5389 0)
(5.29862 -1.94836 0)
(5.09946 -2.24046 0)
(5.89174 -1.71148 0)
(5.70604 -1.96924 0)
(6.42419 -1.50518 0)
(6.244 -1.72848 0)
(6.84311 -1.52221 0)
(-0.729781 4.88198 0)
(-0.334668 5.12756 0)
(-1.5061 5.06793 0)
(-1.07975 5.36289 0)
(-2.31759 5.18288 0)
(-1.80266 5.51695 0)
(-3.15666 5.20968 0)
(-2.61221 5.60186 0)
(-4.00549 5.10814 0)
(-3.42 5.56833 0)
(-4.83914 4.84772 0)
(-4.23611 5.3783 0)
(-5.62478 4.40645 0)
(-5.02394 5.0033 0)
(-6.32171 3.77134 0)
(-5.74847 4.42256 0)
(-6.88224 2.94195 0)
(-6.36287 3.62639 0)
(-7.255 1.93585 0)
(-6.81076 2.62163 0)
(-7.392 0.794219 0)
(-7.03081 1.43889 0)
(-7.26418 -0.413083 0)
(-6.97043 0.143864 0)
(-6.87032 -1.58929 0)
(-6.65329 -1.17094 0)
(-6.24533 -2.64054 0)
(-6.11133 -2.38172 0)
(-5.43396 -3.50203 0)
(-5.37423 -3.40717 0)
(-4.48526 -4.1388 0)
(-4.48966 -4.19792 0)
(-3.44847 -4.54464 0)
(-3.5055 -4.73552 0)
(-2.36716 -4.7354 0)
(-2.46772 -5.03055 0)
(-1.2781 -4.73676 0)
(-1.41463 -5.11084 0)
(-0.221564 -4.57983 0)
(-0.363898 -5.00632 0)
(0.784351 -4.30994 0)
(0.620662 -4.75803 0)
(1.73655 -3.978 0)
(1.56 -4.42277 0)
(2.62892 -3.62018 0)
(2.44969 -4.0482 0)
(3.45331 -3.25783 0)
(3.27639 -3.65968 0)
(4.20702 -2.90503 0)
(4.03516 -3.2752 0)
(4.89116 -2.57182 0)
(4.72575 -2.90754 0)
(5.50894 -2.26515 0)
(5.35058 -2.56549 0)
(6.06478 -1.98947 0)
(5.91415 -2.25477 0)
(6.5639 -1.74813 0)
(6.41369 -1.97882 0)
(6.97164 -1.74022 0)
(-0.65572 5.57949 0)
(-0.29138 5.7698 0)
(-1.35403 5.78649 0)
(-0.932811 6.03068 0)
(-2.08553 5.91287 0)
(-1.56421 6.19997 0)
(-2.84468 5.93943 0)
(-2.27373 6.29396 0)
(-3.61612 5.81913 0)
(-2.98573 6.25502 0)
(-4.37689 5.51595 0)
(-3.71158 6.0395 0)
(-5.09519 5.00258 0)
(-4.41662 5.61284 0)
(-5.72996 4.26141 0)
(-5.06737 4.94849 0)
(-6.23138 3.28942 0)
(-5.61574 4.03203 0)
(-6.54343 2.10682 0)
(-5.99967 2.8681 0)
(-6.61866 0.767573 0)
(-6.14826 1.49691 0)
(-6.42445 -0.635576 0)
(-6.00248 -0.00238077 0)
(-5.97494 -1.98112 0)
(-5.62933 -1.50142 0)
(-5.31715 -3.16273 0)
(-5.05449 -2.85392 0)
(-4.49817 -4.11558 0)
(-4.31292 -3.98119 0)
(-3.56498 -4.80679 0)
(-3.44979 -4.83654 0)
(-2.56443 -5.23456 0)
(-2.50804 -5.40406 0)
(-1.53592 -5.42005 0)
(-1.52995 -5.70155 0)
(-0.514535 -5.39139 0)
(-0.543181 -5.76145 0)
(0.465269 -5.19178 0)
(0.410146 -5.6157 0)
(1.39571 -4.87841 0)
(1.31377 -5.32305 0)
(2.27971 -4.50087 0)
(2.18136 -4.9469 0)
(3.10508 -4.09467 0)
(2.99678 -4.52601 0)
(3.86555 -3.68329 0)
(3.75182 -4.08952 0)
(4.55972 -3.28331 0)
(4.44349 -3.6583 0)
(5.18933 -2.90617 0)
(5.07247 -3.24681 0)
(5.7579 -2.55945 0)
(5.64159 -2.86463 0)
(6.26977 -2.24783 0)
(6.15537 -2.51772 0)
(6.72982 -1.97398 0)
(6.61102 -2.20957 0)
(7.12144 -1.94129 0)
(-0.543047 6.18686 0)
(-0.224081 6.30168 0)
(-1.12564 6.41425 0)
(-0.728024 6.58782 0)
(-1.74032 6.55366 0)
(-1.22788 6.7739 0)
(-2.38442 6.584 0)
(-1.80116 6.88116 0)
(-3.04585 6.45106 0)
(-2.38236 6.84379 0)
(-3.7044 6.11251 0)
(-2.98575 6.61185 0)
(-4.33016 5.53441 0)
(-3.57924 6.14384 0)
(-4.88242 4.69285 0)
(-4.13238 5.40607 0)
(-5.30984 3.58042 0)
(-4.59724 4.37779 0)
(-5.55449 2.22071 0)
(-4.90474 3.06134 0)
(-5.55738 0.685385 0)
(-4.96768 1.49914 0)
(-5.29731 -0.904472 0)
(-4.72306 -0.198219 0)
(-4.80351 -2.40131 0)
(-4.31168 -1.86446 0)
(-4.13518 -3.69177 0)
(-3.7282 -3.33368 0)
(-3.33659 -4.71738 0)
(-3.01282 -4.54091 0)
(-2.44653 -5.44851 0)
(-2.20192 -5.44564 0)
(-1.50959 -5.88659 0)
(-1.3321 -6.03011 0)
(-0.557476 -6.05537 0)
(-0.438498 -6.3227 0)
(0.36646 -5.99286 0)
(0.442571 -6.34999 0)
(1.25139 -5.75482 0)
(1.28852 -6.16607 0)
(2.10197 -5.40115 0)
(2.10764 -5.83956 0)
(2.90471 -4.98042 0)
(2.88639 -5.42285 0)
(3.65094 -4.52836 0)
(3.6145 -4.95801 0)
(4.33673 -4.07133 0)
(4.28667 -4.47715 0)
(4.96193 -3.62794 0)
(4.90156 -4.00335 0)
(5.52892 -3.21073 0)
(5.4607 -3.55233 0)
(6.04136 -2.8277 0)
(5.96718 -3.13423 0)
(6.5034 -2.48358 0)
(6.42534 -2.75507 0)