/*--------------------------------*- C++ -*----------------------------------*\
  =========                 |
  \\      /  F ield         | OpenFOAM: The Open Source CFD Toolbox
   \\    /   O peration     | Website:  https://openfoam.org
    \\  /    A nd           | Version:  7
     \\/     M anipulation  |
\*---------------------------------------------------------------------------*/
FoamFile
{
    version     2.0;
    format      ascii;
    class       surfaceScalarField;
    location    "10";
    object      phi;
}
// * * * * * * * * * * * * * * * * * * * * * * * * * * * * * * * * * * * * * //

dimensions      [1 0 -1 0 0 0 0];

internalField   nonuniform List<scalar> 
23692
(
1.19614e-05
-3.27011e-07
1.25116e-05
-5.5014e-07
1.32443e-05
-7.32512e-07
1.41284e-05
-8.839e-07
1.51426e-05
-1.01393e-06
1.62728e-05
-1.12993e-06
1.75108e-05
-1.23764e-06
1.88526e-05
-1.34144e-06
2.02972e-05
-1.44411e-06
2.18444e-05
-1.54673e-06
2.34936e-05
-1.64872e-06
2.52422e-05
-1.74813e-06
2.70849e-05
-1.84205e-06
2.90126e-05
-1.92716e-06
3.10134e-05
-2.00025e-06
3.30727e-05
-2.05863e-06
3.51737e-05
-2.10042e-06
3.7299e-05
-2.12462e-06
3.94307e-05
-2.1311e-06
4.15519e-05
-2.12052e-06
4.36466e-05
-2.09408e-06
4.57007e-05
-2.05341e-06
4.77018e-05
-2.00038e-06
4.96394e-05
-1.93695e-06
5.15051e-05
-1.86503e-06
5.32923e-05
-1.78648e-06
5.49959e-05
-1.70297e-06
5.66126e-05
-1.61601e-06
5.81401e-05
-1.52691e-06
5.95776e-05
-1.43682e-06
6.09249e-05
-1.34667e-06
6.21829e-05
-1.25727e-06
6.33528e-05
-1.16925e-06
6.44365e-05
-1.08313e-06
6.54364e-05
-9.99308e-07
6.63552e-05
-9.18096e-07
6.71955e-05
-8.39719e-07
6.79604e-05
-7.64336e-07
6.86531e-05
-6.9205e-07
6.92765e-05
-6.22919e-07
6.98341e-05
-5.56962e-07
7.03288e-05
-4.94167e-07
7.07638e-05
-4.34497e-07
7.11422e-05
-3.77895e-07
7.1467e-05
-3.24285e-07
7.17411e-05
-2.73579e-07
7.19672e-05
-2.25675e-07
7.21481e-05
-1.8046e-07
7.22863e-05
-1.3781e-07
7.23843e-05
-9.75896e-08
7.24443e-05
-5.96512e-08
7.24685e-05
-2.38311e-08
7.24588e-05
1.00246e-08
7.24171e-05
4.20408e-08
7.2345e-05
7.23435e-08
7.22442e-05
1.01097e-07
7.21159e-05
1.28492e-07
7.19614e-05
1.54733e-07
7.17815e-05
1.80046e-07
7.1577e-05
2.04676e-07
7.13482e-05
2.28901e-07
7.10952e-05
2.53029e-07
7.08179e-05
2.77414e-07
7.05154e-05
3.02467e-07
7.01867e-05
3.28668e-07
6.98301e-05
3.56598e-07
6.9443e-05
3.86963e-07
6.90223e-05
4.20649e-07
6.85634e-05
4.58791e-07
6.80603e-05
5.02891e-07
6.75052e-05
5.5499e-07
6.6887e-05
6.17974e-07
6.61907e-05
6.9607e-07
6.53947e-05
7.95751e-07
6.44671e-05
9.27383e-07
6.33584e-05
1.1084e-06
6.19885e-05
1.36965e-06
6.02192e-05
1.76902e-06
5.7792e-05
2.42688e-06
5.41458e-05
3.64595e-06
6.77227e-06
4.73732e-05
1.27869e-05
-6.6589e-07
1.33712e-05
-1.13435e-06
1.41516e-05
-1.51274e-06
1.50942e-05
-1.82626e-06
1.61763e-05
-2.09576e-06
1.73828e-05
-2.33614e-06
1.87049e-05
-2.55937e-06
2.01385e-05
-2.77459e-06
2.16824e-05
-2.98759e-06
2.33368e-05
-3.20065e-06
2.51012e-05
-3.4126e-06
2.6973e-05
-3.61936e-06
2.89464e-05
-3.81487e-06
3.10121e-05
-3.99218e-06
3.31571e-05
-4.14459e-06
3.53655e-05
-4.26645e-06
3.76196e-05
-4.35381e-06
3.99002e-05
-4.40456e-06
4.21883e-05
-4.41844e-06
4.44652e-05
-4.39678e-06
4.6714e-05
-4.34213e-06
4.89192e-05
-4.25786e-06
5.10674e-05
-4.14787e-06
5.31474e-05
-4.01624e-06
5.51501e-05
-3.86699e-06
5.70682e-05
-3.70394e-06
5.88966e-05
-3.53061e-06
6.06314e-05
-3.35012e-06
6.22704e-05
-3.16522e-06
6.38126e-05
-2.97826e-06
6.52578e-05
-2.79122e-06
6.6607e-05
-2.60572e-06
6.78615e-05
-2.42312e-06
6.90236e-05
-2.24447e-06
7.00955e-05
-2.07061e-06
7.10803e-05
-1.90216e-06
7.19808e-05
-1.73961e-06
7.28004e-05
-1.58328e-06
7.35423e-05
-1.43337e-06
7.421e-05
-1.29002e-06
7.48069e-05
-1.15324e-06
7.53363e-05
-1.02302e-06
7.58017e-05
-8.99281e-07
7.62063e-05
-7.81896e-07
7.65532e-05
-6.70711e-07
7.68457e-05
-5.65538e-07
7.70867e-05
-4.66166e-07
7.7279e-05
-3.72358e-07
7.74255e-05
-2.83857e-07
7.75288e-05
-2.00381e-07
7.75911e-05
-1.21625e-07
7.76149e-05
-4.72507e-08
7.76023e-05
2.3055e-08
7.75551e-05
8.95555e-08
7.74752e-05
1.52525e-07
7.73643e-05
2.12307e-07
7.72237e-05
2.6929e-07
7.70547e-05
3.239e-07
7.68584e-05
3.76596e-07
7.66353e-05
4.27886e-07
7.6386e-05
4.78331e-07
7.61105e-05
5.28561e-07
7.58087e-05
5.79294e-07
7.54798e-05
6.31355e-07
7.51228e-05
6.85712e-07
7.47358e-05
7.43518e-07
7.43165e-05
8.06173e-07
7.38617e-05
8.75411e-07
7.33669e-05
9.53433e-07
7.28265e-05
1.0431e-06
7.22331e-05
1.14825e-06
7.15767e-05
1.27415e-06
7.08442e-05
1.42829e-06
7.0018e-05
1.6217e-06
6.9074e-05
1.87108e-06
6.79796e-05
2.20257e-06
6.66907e-05
2.65824e-06
6.51521e-05
3.30732e-06
6.33101e-05
4.26863e-06
6.12042e-05
5.75149e-06
8.04971e-06
5.99265e-05
1.36649e-05
-1.01257e-06
1.42803e-05
-1.7496e-06
1.51062e-05
-2.3385e-06
1.61069e-05
-2.82672e-06
1.72577e-05
-3.24625e-06
1.85423e-05
-3.6204e-06
1.99513e-05
-3.96796e-06
2.14804e-05
-4.30327e-06
2.31289e-05
-4.6355e-06
2.4897e-05
-4.96827e-06
2.67848e-05
-5.29981e-06
2.87898e-05
-5.62371e-06
3.0906e-05
-5.93043e-06
3.31234e-05
-6.20897e-06
3.54282e-05
-6.4487e-06
3.78031e-05
-6.64068e-06
4.02287e-05
-6.7786e-06
4.2684e-05
-6.85912e-06
4.51481e-05
-6.8818e-06
4.76007e-05
-6.84872e-06
5.00233e-05
-6.76388e-06
5.23988e-05
-6.63265e-06
5.47128e-05
-6.46113e-06
5.69531e-05
-6.25574e-06
5.91097e-05
-6.02282e-06
6.11749e-05
-5.76835e-06
6.31429e-05
-5.49786e-06
6.50098e-05
-5.21624e-06
6.67731e-05
-4.92778e-06
6.84318e-05
-4.63616e-06
6.99857e-05
-4.34445e-06
7.1436e-05
-4.05523e-06
7.27842e-05
-3.77056e-06
7.40325e-05
-3.4921e-06
7.51838e-05
-3.22114e-06
7.6241e-05
-2.95866e-06
7.72075e-05
-2.70539e-06
7.80867e-05
-2.46184e-06
7.88823e-05
-2.22832e-06
7.9598e-05
-2.00501e-06
8.02373e-05
-1.79197e-06
8.08041e-05
-1.58914e-06
8.13018e-05
-1.3964e-06
8.17341e-05
-1.21355e-06
8.21043e-05
-1.04034e-06
8.24158e-05
-8.76486e-07
8.26718e-05
-7.21643e-07
8.28754e-05
-5.75444e-07
8.30295e-05
-4.37485e-07
8.31369e-05
-3.0733e-07
8.32002e-05
-1.84499e-07
8.32218e-05
-6.84735e-08
8.3204e-05
4.12256e-08
8.31489e-05
1.45013e-07
8.30584e-05
2.43338e-07
8.29343e-05
3.36739e-07
8.2778e-05
4.25819e-07
8.25909e-05
5.11231e-07
8.2374e-05
5.9368e-07
8.21281e-05
6.73937e-07
8.18537e-05
7.52854e-07
8.1551e-05
8.31381e-07
8.12198e-05
9.10591e-07
8.08594e-05
9.9171e-07
8.04689e-05
1.07616e-06
8.00468e-05
1.16563e-06
7.95908e-05
1.26211e-06
7.9098e-05
1.36808e-06
7.85647e-05
1.48657e-06
7.79862e-05
1.62147e-06
7.73564e-05
1.77781e-06
7.6668e-05
1.96227e-06
7.59122e-05
2.18389e-06
7.50785e-05
2.45511e-06
7.41559e-05
2.79339e-06
7.3135e-05
3.22324e-06
7.20138e-05
3.77907e-06
7.0813e-05
4.50779e-06
6.96117e-05
5.46959e-06
6.8638e-05
6.72489e-06
8.26252e-06
6.84249e-05
1.4601e-05
-1.36453e-06
1.52441e-05
-2.39255e-06
1.61135e-05
-3.20775e-06
1.71715e-05
-3.88442e-06
1.83913e-05
-4.46577e-06
1.97555e-05
-4.9842e-06
2.1254e-05
-5.46604e-06
2.28826e-05
-5.93144e-06
2.46411e-05
-6.39338e-06
2.65304e-05
-6.85707e-06
2.85513e-05
-7.32008e-06
3.07017e-05
-7.77343e-06
3.29755e-05
-8.20358e-06
3.53622e-05
-8.59494e-06
3.78466e-05
-8.93232e-06
4.04096e-05
-9.20299e-06
4.30297e-05
-9.39792e-06
4.56837e-05
-9.51234e-06
4.83484e-05
-9.54563e-06
5.10012e-05
-9.50071e-06
5.36214e-05
-9.38329e-06
5.61905e-05
-9.20094e-06
5.86925e-05
-8.9623e-06
6.1114e-05
-8.67642e-06
6.34442e-05
-8.35219e-06
6.56747e-05
-7.99805e-06
6.77994e-05
-7.6217e-06
6.98139e-05
-7.22999e-06
7.17159e-05
-6.82891e-06
7.35041e-05
-6.42357e-06
7.51787e-05
-6.01826e-06
7.67408e-05
-5.61652e-06
7.81923e-05
-5.22122e-06
7.95356e-05
-4.83465e-06
8.07738e-05
-4.45859e-06
8.19103e-05
-4.09439e-06
8.29487e-05
-3.74303e-06
8.38928e-05
-3.40521e-06
8.47465e-05
-3.08136e-06
8.55139e-05
-2.7717e-06
8.61989e-05
-2.47629e-06
8.68055e-05
-2.19507e-06
8.73376e-05
-1.92783e-06
8.7799e-05
-1.6743e-06
8.81934e-05
-1.43413e-06
8.85244e-05
-1.2069e-06
8.87955e-05
-9.92135e-07
8.90099e-05
-7.89324e-07
8.91708e-05
-5.97901e-07
8.92812e-05
-4.17259e-07
8.93439e-05
-2.46739e-07
8.93615e-05
-8.5629e-08
8.93365e-05
6.67224e-08
8.92709e-05
2.10895e-07
8.91671e-05
3.47539e-07
8.90267e-05
4.77409e-07
8.88515e-05
6.01332e-07
8.86428e-05
7.20195e-07
8.84017e-05
8.3495e-07
8.81292e-05
9.46631e-07
8.78258e-05
1.05637e-06
8.74919e-05
1.16542e-06
8.71273e-05
1.27519e-06
8.67318e-05
1.38725e-06
8.63045e-05
1.50342e-06
8.58443e-05
1.62581e-06
8.53494e-05
1.75688e-06
8.48178e-05
1.89958e-06
8.42468e-05
2.05749e-06
8.36331e-05
2.23498e-06
8.29732e-05
2.4375e-06
8.22633e-05
2.67191e-06
8.15e-05
2.94692e-06
8.06813e-05
3.27355e-06
7.98086e-05
3.66572e-06
7.88911e-05
4.14048e-06
7.79522e-05
4.71764e-06
7.7042e-05
5.41763e-06
7.62556e-05
6.25564e-06
7.57523e-05
7.2278e-06
8.27941e-06
7.57351e-05
1.56006e-05
-1.72049e-06
1.62687e-05
-3.06052e-06
1.71797e-05
-4.11854e-06
1.82939e-05
-4.99836e-06
1.95829e-05
-5.75448e-06
2.1028e-05
-6.42891e-06
2.26188e-05
-7.05636e-06
2.43514e-05
-7.66354e-06
2.62264e-05
-8.26779e-06
2.82462e-05
-8.87622e-06
3.04125e-05
-9.48572e-06
3.27241e-05
-1.00843e-05
3.51749e-05
-1.06537e-05
3.77536e-05
-1.11729e-05
4.04433e-05
-1.16212e-05
4.32225e-05
-1.19814e-05
4.60668e-05
-1.22414e-05
4.895e-05
-1.23946e-05
5.18456e-05
-1.24404e-05
5.47284e-05
-1.23827e-05
5.75752e-05
-1.22292e-05
6.03654e-05
-1.19903e-05
6.30813e-05
-1.16773e-05
6.57082e-05
-1.13024e-05
6.82343e-05
-1.08774e-05
7.06507e-05
-1.04135e-05
7.29507e-05
-9.92085e-06
7.513e-05
-9.40839e-06
7.7186e-05
-8.884e-06
7.91176e-05
-8.35435e-06
8.09253e-05
-7.82504e-06
8.26103e-05
-7.30067e-06
8.41749e-05
-6.78495e-06
8.56219e-05
-6.28083e-06
8.69547e-05
-5.79062e-06
8.81772e-05
-5.31602e-06
8.92933e-05
-4.85831e-06
9.03072e-05
-4.41834e-06
9.12232e-05
-3.99665e-06
9.20458e-05
-3.59352e-06
9.27793e-05
-3.20901e-06
9.34279e-05
-2.84298e-06
9.39959e-05
-2.49517e-06
9.44875e-05
-2.16521e-06
9.49067e-05
-1.85263e-06
9.52573e-05
-1.55685e-06
9.5543e-05
-1.27728e-06
9.57675e-05
-1.01321e-06
9.59341e-05
-7.63928e-07
9.6046e-05
-5.2863e-07
9.61062e-05
-3.06468e-07
9.61176e-05
-9.65326e-08
9.60827e-05
1.02011e-07
9.60041e-05
2.89925e-07
9.58839e-05
4.68086e-07
9.57242e-05
6.37482e-07
9.55267e-05
7.99171e-07
9.52929e-05
9.54273e-07
9.5024e-05
1.10398e-06
9.47213e-05
1.24959e-06
9.43853e-05
1.39247e-06
9.40167e-05
1.53417e-06
9.36156e-05
1.67635e-06
9.3182e-05
1.82088e-06
9.27155e-05
1.96986e-06
9.22156e-05
2.12568e-06
9.16814e-05
2.29106e-06
9.11117e-05
2.46917e-06
9.05053e-05
2.66367e-06
8.98612e-05
2.87889e-06
8.91786e-05
3.11991e-06
8.84575e-05
3.39272e-06
8.76999e-05
3.70426e-06
8.69107e-05
4.06249e-06
8.61e-05
4.47606e-06
8.52865e-05
4.95367e-06
8.45012e-05
5.50252e-06
8.3793e-05
6.1255e-06
8.32317e-05
6.81657e-06
8.29056e-05
7.55353e-06
8.28713e-06
8.28975e-05
1.66691e-05
-2.08021e-06
1.73604e-05
-3.7517e-06
1.83115e-05
-5.06945e-06
1.94813e-05
-6.16782e-06
2.08399e-05
-7.11272e-06
2.23676e-05
-7.95619e-06
2.40539e-05
-8.74222e-06
2.5896e-05
-9.50502e-06
2.78959e-05
-1.02671e-05
3.00582e-05
-1.10378e-05
3.23864e-05
-1.18132e-05
3.48804e-05
-1.25776e-05
3.75344e-05
-1.33069e-05
4.03355e-05
-1.39732e-05
4.32646e-05
-1.45494e-05
4.62966e-05
-1.50126e-05
4.9403e-05
-1.53469e-05
5.25534e-05
-1.55442e-05
5.57175e-05
-1.56036e-05
5.88665e-05
-1.55308e-05
6.19741e-05
-1.53359e-05
6.50173e-05
-1.50325e-05
6.79765e-05
-1.46355e-05
7.08357e-05
-1.41606e-05
7.35822e-05
-1.3623e-05
7.62065e-05
-1.30369e-05
7.87016e-05
-1.24151e-05
8.10633e-05
-1.17691e-05
8.3289e-05
-1.11087e-05
8.5378e-05
-1.04424e-05
8.7331e-05
-9.77709e-06
8.91497e-05
-9.11848e-06
9.08368e-05
-8.47119e-06
9.23958e-05
-7.83886e-06
9.38303e-05
-7.2243e-06
9.51448e-05
-6.62963e-06
9.63437e-05
-6.05635e-06
9.74317e-05
-5.5055e-06
9.84136e-05
-4.97771e-06
9.92942e-05
-4.47328e-06
0.000100078
-3.99223e-06
0.00010077
-3.53438e-06
0.000101375
-3.09938e-06
0.000101898
-2.68672e-06
0.000102341
-2.29577e-06
0.000102711
-1.92584e-06
0.000103011
-1.57613e-06
0.000103244
-1.24579e-06
0.000103414
-9.33873e-07
0.000103526
-6.39411e-07
0.000103581
-3.6135e-07
0.000103584
-9.85751e-08
0.000103536
1.49942e-07
0.000103441
3.85167e-07
0.000103302
6.08232e-07
0.000103119
8.20367e-07
0.000102896
1.02286e-06
0.000102633
1.21707e-06
0.000102333
1.4044e-06
0.000101997
1.58637e-06
0.000101625
1.76459e-06
0.000101218
1.94082e-06
0.000100778
2.11692e-06
0.000100303
2.29495e-06
9.97962e-05
2.47718e-06
9.92557e-05
2.66609e-06
9.86822e-05
2.86444e-06
9.8076e-05
3.0753e-06
9.74374e-05
3.30207e-06
9.67676e-05
3.54852e-06
9.60685e-05
3.81879e-06
9.53436e-05
4.11731e-06
9.45989e-05
4.44869e-06
9.38437e-05
4.81737e-06
9.30923e-05
5.22711e-06
9.23656e-05
5.68008e-06
9.16922e-05
6.1755e-06
9.11096e-05
6.70773e-06
9.06619e-05
7.2639e-06
9.03938e-05
7.82128e-06
8.34543e-06
9.03351e-05
1.78122e-05
-2.44432e-06
1.85259e-05
-4.46521e-06
1.95165e-05
-6.05981e-06
2.07416e-05
-7.39264e-06
2.21706e-05
-8.54134e-06
2.37832e-05
-9.56834e-06
2.55695e-05
-1.0528e-05
2.75283e-05
-1.14632e-05
2.96646e-05
-1.24027e-05
3.19859e-05
-1.33585e-05
3.44988e-05
-1.43253e-05
3.72047e-05
-1.52826e-05
4.00974e-05
-1.61988e-05
4.31621e-05
-1.7037e-05
4.63753e-05
-1.77617e-05
4.97071e-05
-1.83435e-05
5.31233e-05
-1.87621e-05
5.65878e-05
-1.90077e-05
6.00652e-05
-1.90801e-05
6.35225e-05
-1.8987e-05
6.69297e-05
-1.87421e-05
7.02612e-05
-1.8363e-05
7.34956e-05
-1.78689e-05
7.66156e-05
-1.72796e-05
7.96078e-05
-1.66142e-05
8.24623e-05
-1.58903e-05
8.51723e-05
-1.5124e-05
8.77335e-05
-1.43293e-05
9.0144e-05
-1.35182e-05
9.24034e-05
-1.27008e-05
9.45129e-05
-1.18857e-05
9.64751e-05
-1.10797e-05
9.82931e-05
-1.02882e-05
9.9971e-05
-9.51579e-06
0.000101513
-8.7656e-06
0.000102925
-8.04016e-06
0.000104211
-7.34122e-06
0.000105376
-6.66995e-06
0.000106426
-6.02705e-06
0.000107367
-5.41281e-06
0.000108202
-4.82722e-06
0.000108939
-4.26998e-06
0.000109581
-3.74063e-06
0.000110133
-3.23851e-06
0.000110601
-2.76284e-06
0.000110989
-2.31273e-06
0.000111301
-1.88719e-06
0.000111541
-1.48518e-06
0.000111713
-1.10555e-06
0.000111821
-7.47129e-07
0.000111869
-4.08645e-07
0.00011186
-8.87946e-08
0.000111797
2.13668e-07
0.000111683
4.99945e-07
0.00011152
7.71442e-07
0.000111311
1.02963e-06
0.000111058
1.27604e-06
0.000110763
1.5122e-06
0.000110428
1.73977e-06
0.000110054
1.96042e-06
0.000109643
2.17596e-06
0.000109196
2.38828e-06
0.000108713
2.59939e-06
0.000108197
2.81141e-06
0.000107648
3.02662e-06
0.000107066
3.24746e-06
0.000106454
3.47648e-06
0.000105813
3.71643e-06
0.000105145
3.97014e-06
0.000104452
4.24052e-06
0.00010374
4.53048e-06
0.000103015
4.84272e-06
0.000102284
5.17953e-06
0.000101558
5.54241e-06
0.000100853
5.93154e-06
0.000100188
6.34511e-06
9.95846e-05
6.77851e-06
9.90686e-05
7.22342e-06
9.8665e-05
7.66704e-06
9.83941e-05
8.09176e-06
8.4762e-06
9.82629e-05
1.90357e-05
-2.81413e-06
1.97718e-05
-5.20116e-06
2.08021e-05
-7.08993e-06
2.20834e-05
-8.67353e-06
2.35845e-05
-1.00421e-05
2.52855e-05
-1.12688e-05
2.71778e-05
-1.24198e-05
2.92637e-05
-1.35484e-05
3.15525e-05
-1.46908e-05
3.40567e-05
-1.58618e-05
3.67864e-05
-1.70543e-05
3.97449e-05
-1.82403e-05
4.29249e-05
-1.93778e-05
4.63073e-05
-2.04184e-05
4.98626e-05
-2.13159e-05
5.35531e-05
-2.2033e-05
5.73367e-05
-2.25447e-05
6.11703e-05
-2.28402e-05
6.50121e-05
-2.29208e-05
6.8824e-05
-2.27978e-05
7.25725e-05
-2.24895e-05
7.62292e-05
-2.20186e-05
7.97712e-05
-2.14097e-05
8.31801e-05
-2.06874e-05
8.64423e-05
-1.98753e-05
8.9548e-05
-1.8995e-05
9.24908e-05
-1.80657e-05
9.52669e-05
-1.71043e-05
9.78751e-05
-1.61253e-05
0.000100316
-1.51405e-05
0.000102591
-1.41601e-05
0.000104705
-1.31919e-05
0.00010666
-1.22426e-05
0.000108462
-1.13169e-05
0.000110116
-1.04188e-05
0.000111628
-9.55101e-06
0.000113004
-8.71553e-06
0.000114248
-7.91362e-06
0.000115368
-7.14599e-06
0.000116369
-6.4129e-06
0.000117257
-5.71423e-06
0.000118038
-5.04959e-06
0.000118716
-4.41833e-06
0.000119298
-3.81963e-06
0.000119789
-3.25251e-06
0.000120193
-2.71587e-06
0.000120515
-2.20852e-06
0.000120759
-1.72918e-06
0.000120931
-1.27652e-06
0.000121034
-8.49103e-07
0.000121071
-4.45472e-07
0.000121047
-6.41442e-08
0.000120965
2.96362e-07
0.000120828
6.37546e-07
0.000120639
9.61094e-07
0.0001204
1.26871e-06
0.000120114
1.56212e-06
0.000119784
1.84306e-06
0.000119411
2.11334e-06
0.000118996
2.3748e-06
0.000118543
2.62936e-06
0.000118053
2.87898e-06
0.000117526
3.12571e-06
0.000116966
3.37166e-06
0.000116374
3.61898e-06
0.000115751
3.8699e-06
0.000115101
4.12665e-06
0.000114426
4.39145e-06
0.00011373
4.66643e-06
0.000113016
4.95355e-06
0.000112292
5.25448e-06
0.000111564
5.57039e-06
0.000110842
5.90175e-06
0.000110136
6.24803e-06
0.00010946
6.60732e-06
0.000108828
6.97604e-06
0.000108258
7.34852e-06
0.000107764
7.71682e-06
0.00010736
8.07073e-06
0.000107053
8.39818e-06
8.68678e-06
0.000106842
2.03453e-05
-3.19143e-06
2.11049e-05
-5.96057e-06
2.21763e-05
-8.16104e-06
2.35154e-05
-1.00123e-05
2.50916e-05
-1.16178e-05
2.68861e-05
-1.30627e-05
2.88936e-05
-1.44267e-05
3.11217e-05
-1.57758e-05
3.35865e-05
-1.71549e-05
3.63075e-05
-1.8582e-05
3.92995e-05
-2.00454e-05
4.25669e-05
-2.15067e-05
4.60989e-05
-2.29088e-05
4.98693e-05
-2.41878e-05
5.38385e-05
-2.52841e-05
5.79582e-05
-2.61515e-05
6.21759e-05
-2.67613e-05
6.64395e-05
-2.71027e-05
7.07001e-05
-2.71803e-05
7.49146e-05
-2.7011e-05
7.90457e-05
-2.66194e-05
8.3063e-05
-2.60348e-05
8.69425e-05
-2.5288e-05
9.06656e-05
-2.44093e-05
9.42188e-05
-2.34274e-05
9.75932e-05
-2.23681e-05
0.000100783
-2.12544e-05
0.000103786
-2.0106e-05
0.000106601
-1.89396e-05
0.000109231
-1.77693e-05
0.000111679
-1.66065e-05
0.000113949
-1.54603e-05
0.000116045
-1.43379e-05
0.000117974
-1.32451e-05
0.000119743
-1.2186e-05
0.000121356
-1.11636e-05
0.000122822
-1.01802e-05
0.000124146
-9.23689e-06
0.000125336
-8.33449e-06
0.000126397
-7.47312e-06
0.000127336
-6.65255e-06
0.00012816
-5.87219e-06
0.000128874
-5.1312e-06
0.000129484
-4.42856e-06
0.000129995
-3.76304e-06
0.000130413
-3.13334e-06
0.000130744
-2.53801e-06
0.000130991
-1.97555e-06
0.000131159
-1.44437e-06
0.000131254
-9.42814e-07
0.000131278
-4.69181e-07
0.000131237
-2.19021e-08
0.000131133
4.00778e-07
0.00013097
8.00784e-07
0.000130752
1.18003e-06
0.000130481
1.54042e-06
0.000130159
1.88387e-06
0.00012979
2.21227e-06
0.000129376
2.52758e-06
0.00012892
2.83173e-06
0.000128423
3.12669e-06
0.000127887
3.41446e-06
0.000127316
3.69703e-06
0.000126712
3.97638e-06
0.000126076
4.25448e-06
0.000125413
4.53323e-06
0.000124725
4.81446e-06
0.000124016
5.09981e-06
0.000123292
5.39071e-06
0.000122557
5.68825e-06
0.000121818
5.99308e-06
0.000121083
6.30524e-06
0.00012036
6.62403e-06
0.00011966
6.94782e-06
0.000118993
7.27388e-06
0.000118371
7.59827e-06
0.000117803
7.91581e-06
0.000117299
8.22014e-06
0.000116866
8.50398e-06
0.000116504
8.75973e-06
8.98059e-06
0.000116209
2.17473e-05
-3.57836e-06
2.25323e-05
-6.74533e-06
2.36469e-05
-9.27542e-06
2.50469e-05
-1.14119e-05
2.67028e-05
-1.32732e-05
2.85986e-05
-1.49579e-05
3.07348e-05
-1.65622e-05
3.31274e-05
-1.81676e-05
3.58029e-05
-1.98295e-05
3.87897e-05
-2.15678e-05
4.21076e-05
-2.33624e-05
4.57597e-05
-2.51578e-05
4.97277e-05
-2.68757e-05
5.39729e-05
-2.84318e-05
5.84411e-05
-2.97511e-05
6.30695e-05
-3.07787e-05
6.7793e-05
-3.14836e-05
7.25493e-05
-3.18578e-05
7.72826e-05
-3.19123e-05
8.19446e-05
-3.16717e-05
8.64957e-05
-3.11692e-05
9.0904e-05
-3.04419e-05
9.51455e-05
-2.95282e-05
9.92022e-05
-2.84648e-05
0.000103062
-2.72858e-05
0.000106717
-2.60218e-05
0.000110163
-2.46993e-05
0.000113399
-2.3341e-05
0.000116427
-2.19663e-05
0.00011925
-2.05907e-05
0.000121872
-1.92272e-05
0.000124299
-1.78859e-05
0.000126537
-1.65749e-05
0.000128593
-1.53003e-05
0.000130475
-1.40666e-05
0.00013219
-1.28771e-05
0.000133745
-1.17339e-05
0.000135148
-1.06384e-05
0.000136405
-9.59099e-06
0.000137525
-8.59181e-06
0.000138514
-7.64038e-06
0.000139379
-6.73592e-06
0.000140126
-5.87734e-06
0.000140762
-5.06334e-06
0.000141292
-4.29247e-06
0.000141723
-3.56314e-06
0.000142059
-2.87366e-06
0.000142307
-2.22225e-06
0.00014247
-1.60709e-06
0.000142555
-1.02629e-06
0.000142564
-4.77928e-07
0.000142503
3.97899e-08
0.000142376
5.28882e-07
0.000142185
9.91608e-07
0.000141936
1.43013e-06
0.00014163
1.84654e-06
0.000141272
2.2429e-06
0.000140863
2.62127e-06
0.000140407
2.98367e-06
0.000139907
3.33211e-06
0.000139366
3.66857e-06
0.000138785
3.99498e-06
0.000138169
4.31324e-06
0.000137521
4.62517e-06
0.000136843
4.93246e-06
0.000136139
5.23671e-06
0.000135414
5.53927e-06
0.000134673
5.84131e-06
0.00013392
6.14362e-06
0.000133161
6.44666e-06
0.000132404
6.75036e-06
0.000131654
7.05411e-06
0.000130922
7.35663e-06
0.000130213
7.65595e-06
0.000129537
7.94933e-06
0.000128902
8.23332e-06
0.000128313
8.50381e-06
0.000127777
8.75626e-06
0.000127294
8.98592e-06
0.000126865
9.18831e-06
9.36006e-06
0.000126486
2.3248e-05
-3.97734e-06
2.4061e-05
-7.55817e-06
2.52223e-05
-1.04364e-05
2.66878e-05
-1.28769e-05
2.84302e-05
-1.50151e-05
3.0439e-05
-1.69661e-05
3.27242e-05
-1.88466e-05
3.5315e-05
-2.07575e-05
3.8252e-05
-2.27657e-05
4.15744e-05
-2.48892e-05
4.53051e-05
-2.70921e-05
4.94407e-05
-2.92924e-05
5.39484e-05
-3.13823e-05
5.87701e-05
-3.32523e-05
6.38317e-05
-3.48114e-05
6.90523e-05
-3.59981e-05
7.43529e-05
-3.67829e-05
7.96611e-05
-3.71647e-05
8.49147e-05
-3.71645e-05
9.0062e-05
-3.68177e-05
9.5062e-05
-3.61678e-05
9.98834e-05
-3.52619e-05
0.000104503
-3.41464e-05
0.000108905
-3.28652e-05
0.000113079
-3.14582e-05
0.000117019
-2.99606e-05
0.000120724
-2.84027e-05
0.000124194
-2.68102e-05
0.000127434
-2.52044e-05
0.000130447
-2.36029e-05
0.000133241
-2.20197e-05
0.000135823
-2.0466e-05
0.000138199
-1.89503e-05
0.00014038
-1.74791e-05
0.000142371
-1.60572e-05
0.000144184
-1.4688e-05
0.000145824
-1.33734e-05
0.000147302
-1.21147e-05
0.000148624
-1.09122e-05
0.0001498
-9.76586e-06
0.000150835
-8.67482e-06
0.000151738
-7.63804e-06
0.000152516
-6.65417e-06
0.000153176
-5.72161e-06
0.000153723
-4.83861e-06
0.000154164
-4.00327e-06
0.000154505
-3.21363e-06
0.000154751
-2.46765e-06
0.000154908
-1.76323e-06
0.000154981
-1.09827e-06
0.000154975
-4.70615e-07
0.000154893
1.21864e-07
0.000154741
6.81464e-07
0.000154523
1.21065e-06
0.000154242
1.71183e-06
0.000153902
2.18729e-06
0.000153506
2.63923e-06
0.000153058
3.06979e-06
0.000152561
3.48108e-06
0.000152018
3.87511e-06
0.000151433
4.25384e-06
0.000150809
4.61912e-06
0.00015015
4.97272e-06
0.000149459
5.31624e-06
0.000148741
5.65115e-06
0.000147999
5.97871e-06
0.000147238
6.29993e-06
0.000146464
6.61555e-06
0.000145681
6.92597e-06
0.000144896
7.23121e-06
0.000144116
7.53086e-06
0.000143345
7.82403e-06
0.000142592
8.10937e-06
0.000141863
8.38504e-06
0.000141163
8.64876e-06
0.000140498
8.89789e-06
0.000139872
9.12954e-06
0.000139287
9.34076e-06
0.000138744
9.52875e-06
0.000138241
9.69113e-06
9.82655e-06
0.000137774
2.48541e-05
-4.39099e-06
2.56988e-05
-8.40268e-06
2.69113e-05
-1.16486e-05
2.84486e-05
-1.44137e-05
3.02878e-05
-1.68537e-05
3.24276e-05
-1.91053e-05
3.48929e-05
-2.13112e-05
3.77322e-05
-2.3596e-05
4.10045e-05
-2.6037e-05
4.47593e-05
-2.86429e-05
4.90171e-05
-3.13488e-05
5.3759e-05
-3.4033e-05
5.89274e-05
-3.65494e-05
6.44369e-05
-3.87606e-05
7.01885e-05
-4.05616e-05
7.60815e-05
-4.18897e-05
8.2023e-05
-4.27229e-05
8.79321e-05
-4.30725e-05
9.37424e-05
-4.29733e-05
9.9401e-05
-4.24747e-05
0.000104868
-4.16329e-05
0.000110113
-4.05056e-05
0.000115116
-3.91483e-05
0.000119865
-3.76123e-05
0.000124351
-3.59433e-05
0.000128573
-3.4181e-05
0.000132532
-3.23595e-05
0.00013623
-3.0507e-05
0.000139674
-2.86471e-05
0.000142871
-2.67985e-05
0.000145829
-2.49765e-05
0.000148558
-2.31928e-05
0.000151065
-2.14565e-05
0.000153362
-1.97742e-05
0.000155457
-1.81509e-05
0.00015736
-1.65896e-05
0.00015908
-1.50924e-05
0.000160627
-1.36602e-05
0.000162009
-1.22931e-05
0.000163235
-1.09906e-05
0.000164313
-9.75161e-06
0.000165251
-8.57478e-06
0.000166057
-7.45839e-06
0.000166737
-6.40049e-06
0.000167298
-5.39899e-06
0.000167748
-4.45169e-06
0.000168091
-3.55629e-06
0.000168335
-2.71048e-06
0.000168485
-1.91189e-06
0.000168546
-1.15816e-06
0.000168523
-4.46925e-07
0.000168421
2.24285e-07
0.000168245
8.5807e-07
0.000168
1.45712e-06
0.000167688
2.02402e-06
0.000167315
2.56121e-06
0.000166884
3.07102e-06
0.000166398
3.55567e-06
0.000165863
4.0173e-06
0.00016528
4.45791e-06
0.000164655
4.87942e-06
0.000163991
5.28359e-06
0.000163292
5.67203e-06
0.000162562
6.0462e-06
0.000161806
6.40734e-06
0.000161028
6.75646e-06
0.000160234
7.09434e-06
0.000159428
7.42145e-06
0.000158616
7.73798e-06
0.000157803
8.04376e-06
0.000156995
8.33831e-06
0.000156198
8.6208e-06
0.000155417
8.89009e-06
0.000154657
9.14475e-06
0.000153923
9.38315e-06
0.000153217
9.60353e-06
0.000152542
9.8041e-06
0.000151899
9.98319e-06
0.000151288
1.01394e-05
0.000150707
1.02716e-05
1.03799e-05
0.000150153
2.65727e-05
-4.8222e-06
2.74537e-05
-9.28341e-06
2.87235e-05
-1.2918e-05
3.03418e-05
-1.60315e-05
3.22932e-05
-1.88045e-05
3.45915e-05
-2.14028e-05
3.72844e-05
-2.40032e-05
4.04469e-05
-2.67575e-05
4.4159e-05
-2.9748e-05
4.84758e-05
-3.29585e-05
5.3404e-05
-3.62757e-05
5.88951e-05
-3.95228e-05
6.48552e-05
-4.25081e-05
7.11644e-05
-4.50683e-05
7.76956e-05
-4.70914e-05
8.43294e-05
-4.85219e-05
9.09611e-05
-4.93531e-05
9.75049e-05
-4.96147e-05
0.000103893
-4.93597e-05
0.000110074
-4.8654e-05
0.00011601
-4.75679e-05
0.000121677
-4.61708e-05
0.000127058
-4.45275e-05
0.000132144
-4.26966e-05
0.000136932
-4.07295e-05
0.000141423
-3.86702e-05
0.000145621
-3.6556e-05
0.000149533
-3.44177e-05
0.000153168
-3.22802e-05
0.000156535
-3.01637e-05
0.000159644
-2.80841e-05
0.000162506
-2.60536e-05
0.000165133
-2.40814e-05
0.000167535
-2.21743e-05
0.000169722
-2.03369e-05
0.000171706
-1.85723e-05
0.000173497
-1.6882e-05
0.000175105
-1.52667e-05
0.00017654
-1.37261e-05
0.00017781
-1.22594e-05
0.000178925
-1.0865e-05
0.000179893
-9.54113e-06
0.000180721
-8.2857e-06
0.000181418
-7.09639e-06
0.000181991
-5.97073e-06
0.000182447
-4.90615e-06
0.000182792
-3.90004e-06
0.000183032
-2.94976e-06
0.000183174
-2.05265e-06
0.000183223
-1.20611e-06
0.000183185
-4.07529e-07
0.000183064
3.45895e-07
0.000182866
1.05706e-06
0.000182595
1.72886e-06
0.000182256
2.36406e-06
0.000181852
2.96521e-06
0.000181389
3.53474e-06
0.000180871
4.07494e-06
0.0001803
4.58796e-06
0.000179683
5.07581e-06
0.000179022
5.54036e-06
0.000178323
5.98327e-06
0.000177589
6.40608e-06
0.000176826
6.81009e-06
0.000176037
7.1964e-06
0.000175227
7.5659e-06
0.000174403
7.91923e-06
0.000173567
8.25676e-06
0.000172727
8.57864e-06
0.000171885
8.88473e-06
0.000171049
9.17468e-06
0.000170222
9.4479e-06
0.000169408
9.70364e-06
0.000168611
9.941e-06
0.000167835
1.0159e-05
0.000167082
1.03567e-05
0.000166352
1.05332e-05
0.000165647
1.06878e-05
0.000164966
1.082e-05
0.000164307
1.09298e-05
1.10176e-05
0.000163669
2.84115e-05
-5.27425e-06
2.93345e-05
-1.02061e-05
3.06699e-05
-1.4253e-05
3.23826e-05
-1.77437e-05
3.44697e-05
-2.0891e-05
3.69688e-05
-2.3901e-05
3.99611e-05
-2.69945e-05
4.35551e-05
-3.03504e-05
4.78497e-05
-3.40414e-05
5.28932e-05
-3.80007e-05
5.866e-05
-4.20412e-05
6.50548e-05
-4.59161e-05
7.19363e-05
-4.93881e-05
7.91458e-05
-5.22762e-05
8.65297e-05
-5.44737e-05
9.3953e-05
-5.59435e-05
0.000101304
-5.67028e-05
0.000108497
-5.68054e-05
0.000115465
-5.63262e-05
0.000122162
-5.53495e-05
0.000128557
-5.39608e-05
0.000134629
-5.22411e-05
0.000140368
-5.02646e-05
0.00014577
-4.8097e-05
0.000150837
-4.57946e-05
0.000155574
-4.34056e-05
0.00015999
-4.09699e-05
0.000164094
-3.852e-05
0.000167898
-3.60825e-05
0.000171415
-3.36781e-05
0.000174655
-3.13232e-05
0.000177634
-2.90301e-05
0.000180362
-2.68081e-05
0.000182853
-2.46635e-05
0.000185119
-2.26008e-05
0.000187171
-2.06226e-05
0.00018902
-1.87301e-05
0.000190679
-1.69234e-05
0.000192156
-1.52017e-05
0.000193462
-1.35637e-05
0.000194606
-1.20075e-05
0.000195597
-1.05307e-05
0.000196443
-9.13072e-06
0.000197153
-7.80492e-06
0.000197734
-6.55037e-06
0.000198193
-5.36412e-06
0.000198538
-4.2432e-06
0.000198774
-3.18463e-06
0.000198908
-2.18547e-06
0.000198946
-1.24282e-06
0.000198893
-3.53843e-07
0.000198755
4.84594e-07
0.000198538
1.27567e-06
0.000198245
2.02248e-06
0.000197882
2.72791e-06
0.000197453
3.39465e-06
0.000196963
4.02522e-06
0.000196417
4.62194e-06
0.000195819
5.18702e-06
0.000195173
5.72244e-06
0.000194483
6.23005e-06
0.000193756
6.71149e-06
0.000192994
7.16822e-06
0.000192203
7.60148e-06
0.000191387
8.01233e-06
0.000190551
8.40161e-06
0.000189701
8.76994e-06
0.00018884
9.11777e-06
0.000187973
9.44531e-06
0.000187105
9.75262e-06
0.00018624
1.00396e-05
0.000185382
1.0306e-05
0.000184534
1.05515e-05
0.000183699
1.07757e-05
0.000182879
1.09784e-05
0.000182077
1.11591e-05
0.000181292
1.13178e-05
0.000180525
1.14543e-05
0.000179775
1.1569e-05
0.000179043
1.16622e-05
1.17349e-05
0.000178325
3.03787e-05
-5.75093e-06
3.1351e-05
-1.11782e-05
3.27636e-05
-1.56652e-05
3.45904e-05
-1.95698e-05
3.68494e-05
-2.31492e-05
3.96145e-05
-2.66652e-05
4.30126e-05
-3.03915e-05
4.71895e-05
-3.45262e-05
5.22521e-05
-3.91027e-05
5.82186e-05
-4.39659e-05
6.50065e-05
-4.88276e-05
7.24566e-05
-5.33647e-05
8.03737e-05
-5.73036e-05
8.85617e-05
-6.04625e-05
9.68459e-05
-6.27561e-05
0.000105082
-6.41779e-05
0.000113158
-6.4777e-05
0.000120991
-6.46363e-05
0.000128522
-6.3855e-05
0.000135711
-6.25369e-05
0.000142535
-6.07826e-05
0.000148981
-5.8685e-05
0.000155045
-5.63268e-05
0.00016073
-5.37798e-05
0.000166042
-5.11053e-05
0.000170993
-4.83544e-05
0.000175594
-4.55691e-05
0.00017986
-4.27836e-05
0.000183804
-4.00249e-05
0.000187442
-3.73142e-05
0.000190789
-3.4668e-05
0.000193859
-3.20983e-05
0.000196667
-2.96141e-05
0.000199227
-2.72213e-05
0.000201552
-2.49237e-05
0.000203654
-2.27235e-05
0.000205547
-2.06212e-05
0.000207242
-1.86163e-05
0.000208749
-1.67075e-05
0.00021008
-1.48928e-05
0.000211244
-1.31697e-05
0.00021225
-1.15354e-05
0.000213108
-9.98681e-06
0.000213825
-8.5207e-06
0.00021441
-7.13376e-06
0.00021487
-5.82261e-06
0.000215212
-4.58389e-06
0.000215443
-3.41429e-06
0.000215569
-2.31053e-06
0.000215597
-1.26944e-06
0.000215532
-2.87914e-07
0.000215381
6.37479e-07
0.000215147
1.51018e-06
0.000214837
2.33347e-06
0.000214456
3.11036e-06
0.000214008
3.84366e-06
0.000213498
4.53596e-06
0.000212931
5.18967e-06
0.000212311
5.80702e-06
0.000211645
6.39003e-06
0.000210935
6.94054e-06
0.000210186
7.46021e-06
0.000209404
7.9505e-06
0.000208594
8.41267e-06
0.000207758
8.8478e-06