/*--------------------------------*- C++ -*----------------------------------*\
  =========                 |
  \\      /  F ield         | OpenFOAM: The Open Source CFD Toolbox
   \\    /   O peration     | Website:  https://openfoam.org
    \\  /    A nd           | Version:  7
     \\/     M anipulation  |
\*---------------------------------------------------------------------------*/
FoamFile
{
    version     2.0;
    format      ascii;
    class       volScalarField;
    location    "10";
    object      T;
}
// * * * * * * * * * * * * * * * * * * * * * * * * * * * * * * * * * * * * * //

dimensions      [0 0 0 1 0 0 0];

internalField   nonuniform List<scalar> 
12013
(
300.147
300.444
300.748
301.056
301.366
301.675
301.982
302.284
302.582
302.872
303.155
303.43
303.696
303.953
304.201
304.439
304.668
304.888
305.099
305.302
305.497
305.684
305.864
306.036
306.202
306.362
306.516
306.664
306.807
306.946
307.08
307.211
307.339
307.463
307.586
307.706
307.826
307.946
308.066
308.188
308.311
308.439
308.571
308.71
308.855
309.011
309.177
309.357
309.553
309.766
310.001
310.26
310.547
310.865
311.22
311.614
312.055
312.546
313.094
313.707
314.39
315.152
316.002
316.949
318.004
319.179
320.485
321.938
323.554
325.35
327.347
329.57
332.047
334.812
337.905
341.382
345.31
349.789
354.964
361.081
368.605
300.147
300.444
300.748
301.056
301.366
301.676
301.983
302.286
302.583
302.874
303.157
303.432
303.698
303.955
304.203
304.441
304.67
304.891
305.102
305.305
305.5
305.687
305.867
306.039
306.205
306.365
306.519
306.667
306.81
306.949
307.084
307.214
307.342
307.466
307.589
307.709
307.829
307.949
308.069
308.19
308.314
308.442
308.574
308.712
308.858
309.013
309.179
309.359
309.554
309.768
310.002
310.261
310.547
310.865
311.219
311.613
312.053
312.543
313.091
313.702
314.384
315.144
315.992
316.937
317.989
319.159
320.461
321.909
323.518
325.305
327.292
329.501
331.959
334.699
337.758
341.185
345.04
349.4
354.366
360.064
366.608
300.147
300.444
300.749
301.058
301.368
301.678
301.985
302.288
302.586
302.877
303.161
303.436
303.702
303.96
304.208
304.446
304.676
304.896
305.108
305.311
305.506
305.693
305.873
306.046
306.212
306.371
306.525
306.674
306.817
306.956
307.09
307.221
307.348
307.473
307.595
307.716
307.836
307.955
308.075
308.196
308.32
308.447
308.579
308.717
308.863
309.018
309.184
309.363
309.558
309.771
310.005
310.263
310.548
310.865
311.218
311.611
312.049
312.537
313.082
313.691
314.37
315.126
315.97
316.909
317.954
319.117
320.409
321.845
323.439
325.207
327.17
329.349
331.767
334.454
337.442
340.769
344.478
348.619
353.239
358.367
363.967
300.147
300.445
300.75
301.06
301.37
301.681
301.989
302.293
302.591
302.883
303.167
303.442
303.709
303.967
304.216
304.455
304.684
304.905
305.117
305.321
305.516
305.703
305.883
306.056
306.222
306.382
306.536
306.685
306.828
306.967
307.102
307.232
307.36
307.484
307.606
307.727
307.847
307.966
308.086
308.207
308.33
308.457
308.589
308.726
308.872
309.026
309.191
309.37
309.564
309.776
310.009
310.266
310.55
310.865
311.216
311.607
312.042
312.527
313.069
313.673
314.346
315.097
315.933
316.863
317.898
319.048
320.324
321.74
323.31
325.048
326.974
329.104
331.46
334.066
336.946
340.126
343.633
347.49
351.706
356.263
361.091
300.147
300.446
300.752
301.062
301.374
301.685
301.994
302.299
302.598
302.891
303.176
303.452
303.72
303.978
304.227
304.467
304.697
304.919
305.131
305.335
305.531
305.718
305.899
306.072
306.238
306.399
306.553
306.701
306.845
306.984
307.118
307.249
307.376
307.501
307.623
307.743
307.862
307.982
308.101
308.222
308.345
308.472
308.603
308.74
308.884
309.038
309.203
309.38
309.573
309.784
310.015
310.27
310.553
310.866
311.214
311.601
312.032
312.513
313.049
313.647
314.313
315.055
315.88
316.798
317.817
318.948
320.201
321.589
323.125
324.821
326.694
328.758
331.03
333.528
336.269
339.268
342.536
346.079
349.884
353.92
358.12
300.148
300.448
300.755
301.066
301.379
301.692
302.002
302.308
302.608
302.902
303.188
303.466
303.734
303.994
304.244
304.484
304.715
304.937
305.15
305.355
305.551
305.739
305.92
306.094
306.261
306.421
306.575
306.724
306.868
307.007
307.141
307.272
307.399
307.523
307.645
307.766
307.885
308.003
308.123
308.243
308.366
308.492
308.622
308.758
308.902
309.055
309.218
309.394
309.586
309.795
310.024
310.277
310.557
310.866
311.21
311.593
312.02
312.494
313.023
313.612
314.268
314.998
315.808
316.709
317.707
318.813
320.037
321.388
322.879
324.521
326.326
328.307
330.475
332.844
335.421
338.215
341.226
344.449
347.864
351.436
355.116
300.149
300.45
300.759
301.072
301.386
301.7
302.012
302.32
302.622
302.917
303.204
303.483
303.753
304.014
304.265
304.507
304.739
304.962
305.176
305.381
305.578
305.767
305.949
306.123
306.29
306.451
306.606
306.755
306.898
307.037
307.172
307.302
307.43
307.554
307.675
307.795
307.914
308.033
308.151
308.271
308.393
308.518
308.648
308.783
308.926
309.077
309.239
309.414
309.603
309.81
310.037
310.286
310.562
310.868
311.207
311.584
312.003
312.47
312.99
313.568
314.21
314.924
315.717
316.595
317.567
318.642
319.828
321.134
322.57
324.145
325.869
327.751
329.8
332.022
334.42
336.997
339.747
342.658
345.712
348.876
352.114
300.15
300.453
300.764
301.078
301.395
301.711
302.025
302.335
302.639
302.936
303.226
303.506
303.778
304.04
304.293
304.536
304.77
304.994
305.209
305.416
305.614
305.803
305.986
306.16
306.328
306.489
306.645
306.794
306.938
307.077
307.212
307.342
307.469
307.593
307.715
307.834
307.953
308.07
308.188
308.308
308.429
308.553
308.681
308.816
308.957
309.106
309.266
309.439
309.626
309.83
310.053
310.299
310.57
310.871
311.204
311.573
311.984
312.441
312.949
313.513
314.14
314.834
315.604
316.455
317.396
318.432
319.572
320.825
322.196
323.694
325.326
327.097
329.013
331.077
333.289
335.645
338.139
340.757
343.48
346.284
349.14
300.151
300.457
300.77
301.087
301.406
301.725
302.042
302.354
302.661
302.96
303.252
303.535
303.809
304.074
304.329
304.573
304.809
305.035
305.251
305.459
305.658
305.849
306.032
306.208
306.377
306.538
306.694
306.844
306.988
307.127
307.262
307.393
307.519
307.643
307.764
307.883
308.001
308.118
308.236
308.354
308.474
308.597
308.724
308.857
308.996
309.144
309.302
309.471
309.655
309.856
310.075
310.316
310.582
310.876
311.201
311.562
311.963
312.407
312.901
313.449
314.056
314.727
315.47
316.289
317.192
318.184
319.272
320.462
321.76
323.172
324.702
326.354
328.13
330.03
332.053
334.193
336.441
338.785
341.209
343.693
346.215
300.152
300.461
300.777
301.098
301.42
301.742
302.062
302.378
302.688
302.991
303.285
303.572
303.848
304.115
304.372
304.62
304.857
305.085
305.304
305.513
305.714
305.906
306.091
306.267
306.437
306.6
306.756
306.906
307.051
307.19
307.325
307.456
307.582
307.706
307.826
307.945
308.062
308.179
308.295
308.412
308.531
308.653
308.778
308.909
309.046
309.191
309.346
309.513
309.693
309.889
310.103
310.339
310.598
310.884
311.201
311.551
311.939
312.37
312.847
313.375
313.959
314.604
315.315
316.098
316.958
317.9
318.929
320.05
321.268
322.587
324.008
325.535
327.167
328.903
330.74
332.671
334.688
336.78
338.933
341.132
343.36
300.154
300.466
300.786
301.111
301.437
301.764
302.087
302.407
302.721
303.028
303.326
303.616
303.896
304.166
304.427
304.677
304.917
305.147
305.368
305.58
305.783
305.977
306.163
306.341
306.512
306.675
306.832
306.983
307.128
307.268
307.403
307.533
307.66
307.783
307.903
308.021
308.138
308.253
308.368
308.484
308.602
308.722
308.845
308.974
309.108
309.251
309.402
309.565
309.741
309.932
310.14
310.369
310.62
310.898
311.204
311.542
311.916
312.33
312.788
313.294
313.852
314.467
315.143
315.884
316.696
317.583
318.548
319.595
320.728
321.949
323.258
324.658
326.146
327.72
329.377
331.11
332.912
334.773
336.682
338.626
340.593
300.156
300.473
300.798
301.127
301.458
301.789
302.118
302.443
302.761
303.073
303.376
303.67
303.954
304.228
304.492
304.746
304.99
305.223
305.447
305.661
305.866
306.063
306.251
306.431
306.603
306.768
306.926
307.077
307.223
307.363
307.498
307.629
307.755
307.878
307.998
308.115
308.23
308.345
308.459
308.573
308.689
308.807
308.928
309.054
309.186
309.324
309.472
309.631
309.801
309.987
310.188
310.409
310.652
310.919
311.213
311.537
311.896
312.291
312.727
313.208
313.737
314.318
314.955
315.652
316.413
317.24
318.137
319.107
320.151
321.272
322.468
323.741
325.088
326.506
327.992
329.54
331.143
332.793
334.481
336.198
337.933
300.159
300.481
300.811
301.146
301.483
301.821
302.155
302.486
302.81
303.127
303.436
303.735
304.024
304.303
304.572
304.83
305.078
305.315
305.542
305.76
305.968
306.167
306.357
306.539
306.713
306.88
307.039
307.192
307.338
307.479
307.614
307.744
307.871
307.993
308.112
308.228
308.343
308.456
308.568
308.681
308.795
308.91
309.029
309.152
309.28
309.415
309.559
309.712
309.877
310.056
310.25
310.462
310.694
310.95
311.23
311.54
311.88
312.255
312.668
313.121
313.618
314.163
314.759
315.409
316.115
316.88
317.707
318.597
319.551
320.571
321.656
322.804
324.015
325.285
326.611
327.986
329.407
330.866
332.355
333.868
335.396
300.162
300.491
300.827
301.169
301.514
301.858
302.2
302.537
302.868
303.192
303.508
303.813
304.109
304.393
304.668
304.931
305.184
305.426
305.657
305.879
306.09
306.293
306.486
306.67
306.846
307.015
307.175
307.329
307.477
307.618
307.753
307.884
308.01
308.132
308.25
308.365
308.479
308.59
308.701
308.811
308.923
309.036
309.151
309.271
309.395
309.526
309.665
309.812
309.971
310.142
310.328
310.531
310.752
310.994
311.261
311.553
311.874
312.227
312.614
313.038
313.502
314.009
314.561
315.16
315.81
316.512
317.267
318.077
318.943
319.864
320.84
321.87
322.951
324.082
325.258
326.475
327.73
329.015
330.326
331.656
333
300.166
300.502
300.847
301.197
301.55
301.902
302.253
302.598
302.938
303.27
303.593
303.906
304.209
304.501
304.782
305.052
305.31
305.558
305.795
306.021
306.237
306.443
306.64
306.827
307.006
307.176
307.339
307.494
307.642
307.784
307.92
308.051
308.176
308.298
308.415
308.529
308.641
308.751
308.86
308.968
309.077
309.187
309.299
309.415
309.535
309.661
309.794
309.935
310.087
310.25
310.427
310.619
310.828
311.057
311.307
311.582
311.882
312.211
312.571
312.965
313.394
313.861
314.368
314.917
315.51
316.148
316.833
317.564
318.343
319.168
320.04
320.957
321.917
322.918
323.957
325.03
326.133
327.262
328.413
329.58
330.758
300.17
300.516
300.87
301.23
301.592
301.955
302.315
302.671
303.021
303.362
303.695
304.017
304.329
304.629
304.918
305.195
305.461
305.715
305.958
306.19
306.411
306.622
306.822
307.013
307.195
307.368
307.533
307.69
307.839
307.982
308.118
308.249
308.374
308.495
308.612
308.725
308.835
308.943
309.049
309.155
309.261
309.368
309.476
309.588
309.703
309.824
309.951
310.086
310.229
310.384
310.55
310.731
310.928
311.142
311.376
311.631
311.91
312.215
312.547
312.909
313.302
313.729
314.191
314.689
315.226
315.801
316.416
317.072
317.767
318.502
319.276
320.087
320.935
321.816
322.729
323.671
324.637
325.626
326.633
327.654
328.686
300.175
300.532
300.897
301.269
301.643
302.017
302.39
302.757
303.118
303.471
303.815
304.148
304.47
304.78
305.079
305.365
305.639
305.901
306.152
306.39
306.617
306.834
307.039
307.234
307.419
307.595
307.762
307.921
308.072
308.216
308.353
308.483
308.608
308.728
308.844
308.956
309.064
309.17
309.274
309.377
309.48
309.583
309.687
309.794
309.904
310.019
310.14
310.267
310.403
310.548
310.704
310.873
311.056
311.255
311.471
311.707
311.964
312.243
312.547
312.877
313.235
313.622
314.039
314.488
314.969
315.484
316.033
316.616
317.232
317.882
318.565
319.279
320.023
320.795
321.594
322.416
323.26
324.123
325.001
325.892
326.793
300.182
300.551
300.929
301.314
301.702
302.091
302.477
302.859
303.233
303.6
303.956
304.302
304.637
304.959
305.269
305.566
305.85
306.121
306.38
306.626
306.86
307.083
307.294
307.493
307.683
307.862
308.032
308.193
308.346
308.49
308.628
308.759
308.883
309.003
309.117
309.227
309.334
309.437
309.538
309.638
309.737
309.836
309.937
310.039
310.143
310.252
310.365
310.485
310.612
310.747
310.893
311.049
311.218
311.402
311.6
311.816
312.051
312.305
312.581
312.879
313.202
313.549
313.923
314.324
314.753
315.21
315.696
316.21
316.753
317.324
317.923
318.548
319.198
319.871
320.567
321.283
322.017
322.767
323.531
324.306
325.091
300.189
300.573
300.967
301.368
301.772
302.177
302.58
302.977
303.368
303.751
304.123
304.484
304.833
305.169
305.492
305.801
306.097
306.379
306.648
306.903
307.145
307.374
307.592
307.797
307.991
308.174
308.347
308.511
308.665
308.811
308.949
309.08
309.204
309.323
309.436
309.544
309.648
309.749
309.848
309.944
310.039
310.134
310.229
310.326
310.425
310.527
310.633
310.745
310.863
310.988
311.122
311.266
311.421
311.588
311.77
311.965
312.178
312.407
312.655
312.923
313.211
313.521
313.853
314.209
314.588
314.991
315.418
315.87
316.345
316.844
317.366
317.91
318.475
319.06
319.663
320.284
320.92
321.57
322.232
322.905
323.585
300.198
300.599
301.011
301.431
301.854
302.278
302.7
303.117
303.527
303.927
304.318
304.696
305.062
305.414
305.753
306.076
306.386
306.68
306.96
307.225
307.477
307.714
307.938
308.15
308.349
308.537
308.713
308.879
309.036
309.183
309.322
309.453
309.576
309.694
309.805
309.912
310.014
310.112
310.207
310.3
310.391
310.481
310.571
310.662
310.755
310.85
310.948
311.052
311.16
311.275
311.398
311.529
311.67
311.822
311.985
312.162
312.352
312.557
312.779
313.017
313.273
313.547
313.84
314.153
314.486
314.839
315.212
315.606
316.02
316.453
316.906
317.377
317.866
318.372
318.893
319.429
319.979
320.54
321.112
321.693
322.282
300.208
300.63
301.063
301.504
301.95
302.396
302.84
303.28
303.711
304.134
304.545
304.944
305.33
305.701
306.057
306.397
306.722
307.03
307.323
307.599
307.861
308.108
308.34
308.558
308.763
308.955
309.135
309.304
309.463
309.611
309.751
309.882
310.005
310.121
310.231
310.335
310.435
310.53
310.621
310.71
310.796
310.882
310.966
311.052
311.138
311.226
311.317
311.411
311.51
311.615
311.726
311.844
311.971
312.108
312.254
312.411
312.581
312.763
312.959
313.169
313.395
313.635
313.892
314.166
314.456
314.764
315.088
315.429
315.787
316.162
316.553
316.959
317.381
317.816
318.265
318.727
319.199
319.683
320.175
320.676
321.184
300.219
300.665
301.124
301.59
302.061
302.534
303.004
303.469
303.927
304.375
304.811
305.233
305.642
306.034
306.41
306.769
307.11
307.435
307.742
308.031
308.304
308.56
308.801
309.027
309.238
309.435
309.619
309.792
309.952
310.102
310.242
310.373
310.495
310.61
310.718
310.82
310.916
311.008
311.095
311.18
311.262
311.342
311.421
311.5
311.579
311.66
311.743
311.828
311.918
312.012
312.112
312.218
312.331
312.452
312.582
312.722
312.871
313.032
313.204
313.388
313.585
313.795
314.019
314.256
314.508
314.774
315.054
315.348
315.657
315.98
316.315
316.665
317.026
317.4
317.785
318.181
318.586
319.001
319.424
319.854
320.291
300.233
300.707
301.194
301.69
302.191
302.694
303.195
303.691
304.178
304.655
305.119
305.569
306.003
306.419
306.818
307.198
307.559
307.9
308.223
308.526
308.812
309.079
309.329
309.562
309.78
309.982
310.171
310.346
310.509
310.66
310.8
310.931
311.052
311.165
311.271
311.37
311.463
311.551
311.634
311.714
311.791
311.865
311.938
312.011
312.083
312.156
312.231
312.308
312.388
312.472
312.561
312.655
312.755
312.861
312.976
313.098
313.229
313.369
313.519
313.679
313.85
314.032
314.225
314.43
314.647
314.876
315.117
315.37
315.635
315.911
316.199
316.498
316.807
317.127
317.456
317.794
318.141
318.496
318.858
319.227
319.602
300.249
300.756
301.276
301.807
302.343
302.881
303.417
303.947
304.469
304.979
305.476
305.956
306.419
306.863
307.287
307.69
308.072
308.433
308.773
309.091
309.39
309.668
309.928
310.17
310.394
310.602
310.794
310.972
311.137
311.289
311.429
311.559
311.679
311.79
311.893
311.989
312.078
312.162
312.241
312.316
312.387
312.456
312.523
312.589
312.654
312.72
312.786
312.855
312.926
312.999
313.077
313.159
313.247
313.34
313.439
313.545
313.659
313.78
313.909
314.048
314.195
314.352
314.518
314.694
314.88
315.076
315.283
315.499
315.725
315.961
316.207
316.462
316.726
316.998
317.279
317.568
317.864
318.166
318.476
318.791
319.111
300.268
300.812
301.372
301.942
302.519
303.098
303.674
304.245
304.806
305.355
305.888
306.403
306.899
307.373
307.825
308.253
308.658
309.04
309.397
309.732
310.044
310.335
310.605
310.854
311.085
311.298
311.494
311.675
311.841
311.994
312.134
312.262
312.38
312.489
312.589
312.681
312.766
312.845
312.919
312.989
313.054
313.117
313.178
313.237
313.295
313.353
313.411
313.471
313.533
313.597
313.664
313.735
313.81
313.891
313.976
314.067
314.165
314.269
314.38
314.499
314.625
314.759
314.901
315.051
315.21
315.378
315.553
315.738
315.93
316.131
316.34
316.557
316.782
317.014
317.253
317.498
317.75
318.008
318.272
318.541
318.814
300.289
300.878
301.483
302.099
302.723
303.349
303.973
304.589
305.195
305.787
306.361
306.915
307.447
307.955
308.437
308.893
309.323
309.726
310.103
310.454
310.781
311.083
311.363
311.62
311.857
312.075
312.274
312.457
312.624
312.776
312.915
313.042
313.158
313.263
313.359
313.447
313.528
313.602
313.67
313.734
313.794
313.85
313.904
313.956
314.007
314.057
314.108
314.159
314.212
314.267
314.324
314.385
314.449
314.517
314.59
314.667
314.75
314.839
314.933
315.034
315.142
315.256
315.377
315.504
315.64
315.782
315.931
316.088
316.251
316.422
316.6
316.784
316.975
317.172
317.375
317.583
317.798
318.017
318.242
318.47
318.704
300.315
300.954
301.612
302.282
302.96
303.64
304.317
304.987
305.643
306.284
306.904
307.501
308.073
308.616
309.131
309.617
310.073
310.498
310.895
311.263
311.603
311.917
312.206
312.471
312.713
312.935
313.137
313.32
313.487
313.638
313.775
313.899
314.011
314.113
314.204
314.288
314.363
314.432
314.494
314.552
314.605
314.655
314.703
314.748
314.791
314.834
314.877
314.92
314.965
315.01
315.059
315.109
315.163
315.22
315.281
315.347
315.416
315.491
315.571
315.656
315.747
315.844
315.946
316.054
316.169
316.289
316.416
316.549
316.688
316.832
316.983
317.139
317.301
317.468
317.641
317.818
318
318.187
318.378
318.573
318.771
300.344
301.043
301.761
302.493
303.234
303.976
304.715
305.444
306.158
306.853
307.524
308.168
308.782
309.365
309.915
310.431
310.913
311.362
311.778
312.162
312.515
312.84
313.137
313.408
313.654
313.878
314.081
314.264
314.43
314.579
314.712
314.833
314.94
315.037
315.124
315.201
315.271
315.334
315.39
315.441
315.488
315.532
315.572
315.61
315.647
315.682
315.718
315.753
315.79
315.827
315.867
315.909
315.953
316
316.051
316.105
316.164
316.226
316.293
316.365
316.441
316.523
316.609
316.701
316.798
316.9
317.007
317.12
317.237
317.36
317.488
317.621
317.758
317.9
318.047
318.198
318.353
318.512
318.674
318.84
319.009
300.378
301.145
301.934
302.738
303.55
304.364
305.172
305.969
306.747
307.502
308.229
308.924
309.584
310.208
310.793
311.34
311.849
312.32
312.754
313.153
313.519
313.852
314.155
314.43
314.679
314.903
315.105
315.287
315.449
315.594
315.724
315.839
315.942
316.033
316.113
316.185
316.248
316.304
316.354
316.399
316.439
316.476
316.51
316.541
316.571
316.6
316.628
316.657
316.686
316.716
316.748
316.782
316.818
316.857
316.898
316.943
316.992
317.044
317.1
317.16
317.224
317.293
317.366
317.443
317.525
317.612
317.703
317.799
317.899
318.003
318.112
318.225
318.342
318.463
318.588
318.716
318.849
318.984
319.123
319.264
319.409
300.417
301.264
302.135
303.021
303.916
304.811
305.698
306.57
307.419
308.24
309.027
309.776
310.485
311.15
311.772
312.35
312.884
313.375
313.826
314.237
314.612
314.951
315.258
315.535
315.784
316.006
316.205
316.383
316.541
316.68
316.804
316.913
317.009
317.094
317.167
317.232
317.289
317.338
317.382
317.42
317.454
317.484
317.512
317.537
317.561
317.583
317.606
317.628
317.651
317.675
317.7
317.727
317.756
317.787
317.822
317.859
317.899
317.942
317.989
318.04
318.094
318.152
318.214
318.28
318.35
318.424
318.502
318.583
318.669
318.758
318.851
318.948
319.048
319.152
319.259
319.369
319.482
319.598
319.717
319.838
319.962
300.462
301.402
302.366
303.348
304.337
305.324
306.3
307.256
308.183
309.075
309.926
310.732
311.489
312.197
312.854
313.46
314.017
314.526
314.99
315.41
315.79
316.133
316.44
316.715
316.96
317.179
317.372
317.544
317.695
317.828
317.944
318.046
318.135
318.212
318.278
318.336
318.386
318.429
318.466
318.498
318.526
318.551
318.572
318.592
318.611
318.628
318.645
318.663
318.68
318.699
318.719
318.741
318.765
318.79
318.819
318.85
318.884
318.92
318.96
319.004
319.05
319.1
319.153
319.21
319.27
319.334
319.401
319.471
319.545
319.622
319.703
319.786
319.873
319.962
320.055
320.15
320.247
320.347
320.45
320.554
320.661
300.515
301.561
302.634
303.724
304.82
305.912
306.987
308.035
309.047
310.015
310.933
311.796
312.602
313.349
314.038
314.669
315.245
315.767
316.239
316.664
317.045
317.386
317.689
317.959
318.198
318.409
318.595
318.758
318.9
319.025
319.133
319.226
319.307
319.377
319.436
319.487
319.53
319.567
319.598
319.625
319.648
319.668
319.685
319.701
319.716
319.729
319.743
319.757
319.771
319.786
319.803
319.821
319.841
319.863
319.888
319.915
319.944
319.976
320.011
320.049
320.09
320.134
320.181
320.231
320.284
320.34
320.399
320.461
320.525
320.593
320.664
320.737
320.812
320.891
320.971
321.054
321.139
321.226
321.315
321.406
321.499
300.576
301.745
302.942
304.157
305.375
306.583
307.768
308.916
310.018
311.065
312.051
312.97
313.822
314.605
315.32
315.97
316.558
317.086
317.56
317.984
318.36
318.695
318.99
319.251
319.48
319.681
319.856
320.009
320.142
320.257
320.356
320.441
320.514
320.576
320.629
320.673
320.711
320.743
320.77
320.793
320.812
320.829
320.844
320.857
320.87
320.881
320.893
320.906
320.918
320.932
320.948
320.964
320.983
321.003
321.026
321.051
321.078
321.107
321.14
321.174
321.212
321.252
321.295
321.34
321.388
321.439
321.492
321.548
321.606
321.667
321.73
321.795
321.862
321.932
322.003
322.076
322.152
322.228
322.307
322.387
322.468
300.646
301.956
303.297
304.653
306.008
307.346
308.65
309.906
311.102
312.229
313.28
314.251
315.142
315.953
316.687
317.347
317.938
318.466
318.935
319.35
319.716
320.039
320.322
320.569
320.786
320.974
321.137
321.279
321.401
321.506
321.596
321.674
321.74
321.796
321.843
321.884
321.918
321.946
321.971
321.992
322.01
322.026
322.041
322.054
322.066
322.079
322.091
322.104
322.118
322.133
322.149
322.167
322.186
322.207
322.23
322.255
322.282
322.311
322.343
322.376
322.412
322.451
322.492
322.534
322.58
322.627
322.677
322.728
322.782
322.838
322.895
322.955
323.016
323.079
323.143
323.209
323.277
323.345
323.415
323.486
323.559
300.727
302.199
303.703
305.22
306.728
308.209
309.642
311.01
312.3
313.503
314.613
315.628
316.548
317.376
318.117
318.777
319.362
319.879
320.335
320.735
321.085
321.391
321.657
321.889
322.09
322.264
322.415
322.545
322.657
322.754
322.837
322.908
322.969
323.021
323.065
323.104
323.137
323.165
323.19
323.212
323.232
323.25
323.267
323.283
323.299
323.314
323.33
323.347
323.364
323.382
323.401
323.422
323.444
323.468
323.494
323.521
323.55
323.581
323.614
323.649
323.685
323.724
323.764
323.806
323.85
323.896
323.944
323.993
324.044
324.096
324.15
324.206
324.262
324.32
324.379
324.44
324.501
324.563
324.626
324.69
324.755
300.819
302.477
304.167
305.864
307.543
309.177
310.745
312.227
313.608
314.878
316.035
317.079
318.016
318.846
319.58
320.226
320.793
321.289
321.723
322.101
322.43
322.715
322.963
323.178
323.364
323.525
323.664
323.785
323.889
323.979
324.057
324.125
324.184
324.235
324.28
324.32
324.355
324.387
324.415
324.442
324.466
324.49
324.512
324.534
324.555
324.577
324.599
324.621
324.644
324.668
324.693
324.719
324.747
324.775
324.805
324.836
324.869
324.903
324.939
324.976
325.015
325.055
325.096
325.139
325.184
325.229
325.276
325.324
325.373
325.424
325.475
325.527
325.581
325.635
325.69
325.745
325.802
325.859
325.916
325.974
326.033
300.924
302.794
304.694
306.593
308.457
310.256
311.96
313.55
315.013
316.332
317.513
318.563
319.49
320.304
321.017
321.639
322.18
322.65
323.058
323.411
323.716
323.981
324.21
324.409
324.581
324.731
324.861
324.974
325.074
325.161
325.238
325.305
325.366
325.42
325.469
325.514
325.555
325.593
325.628
325.662
325.694
325.726
325.756
325.786
325.816
325.846
325.876
325.907
325.938
325.969
326.002
326.035
326.068
326.103
326.138
326.175
326.212
326.251
326.29
326.331
326.372
326.415
326.458
326.502
326.547
326.593
326.64
326.687
326.736
326.784
326.834
326.884
326.934
326.985
327.036
327.088
327.14
327.192
327.245
327.297
327.35
301.044
303.155
305.292
307.413
309.477
311.446
313.278
314.946
316.449
317.787
318.97
320.008
320.914
321.702
322.384
322.974
323.483
323.922
324.3
324.627
324.909
325.153
325.365
325.55
325.711
325.852
325.976
326.086
326.183
326.271
326.35
326.421
326.486
326.547
326.603
326.655
326.705
326.752
326.797
326.84
326.883
326.924
326.965
327.005
327.045
327.084
327.124
327.163
327.203
327.243
327.283
327.323
327.364
327.405
327.447
327.489
327.531
327.574
327.617
327.661
327.705
327.75
327.795
327.841
327.887
327.933
327.979
328.026
328.073
328.121
328.168
328.216
328.263
328.311
328.359
328.406
328.454
328.502
328.549
328.597
328.644
301.178
303.561
305.962
308.328
310.594
312.694
314.606
316.323
317.845
319.183
320.349
321.36
322.231
322.981
323.624
324.175
324.648
325.053
325.401
325.702
325.961
326.187
326.384
326.556
326.709
326.844
326.965
327.074
327.173
327.264
327.347
327.425
327.497
327.566
327.63
327.692
327.752
327.809
327.864
327.919
327.971
328.023
328.074
328.124
328.174
328.223
328.272
328.32
328.368
328.416
328.464
328.511
328.558
328.605
328.652
328.698
328.745
328.792
328.838
328.885
328.931
328.978
329.024
329.07
329.116
329.162
329.208
329.254
329.3
329.345
329.39
329.435
329.48
329.524
329.568
329.612
329.656
329.699
329.741
329.784
329.826
301.325
304.006
306.699
309.288
311.698
313.893
315.858
317.595
319.112
320.426
321.556
322.524
323.35
324.053
324.652
325.162
325.597
325.969
326.289
326.565
326.804
327.014
327.198
327.362
327.508
327.64
327.76
327.87
327.971
328.066
328.154
328.238
328.318
328.394
328.467
328.537
328.606
328.672
328.737
328.8
328.861
328.922
328.982
329.04
329.098
329.155
329.211
329.266
329.32
329.374
329.427
329.48
329.532
329.583
329.634
329.684
329.734
329.783
329.832
329.88
329.928
329.975
330.022
330.068
330.114
330.159
330.204
330.249
330.292
330.336
330.379
330.421
330.463
330.504
330.544
330.585
330.624
330.663
330.702
330.74
330.777
301.465
304.444
307.367
310.106
312.61
314.852
316.83
318.554
320.041
321.315
322.401
323.322
324.102
324.763
325.322
325.797
326.201
326.547
326.845
327.102
327.327
327.525
327.7
327.857
327.999
328.128
328.247
328.357
328.46
328.557
328.649
328.737
328.821
328.902
328.98
329.055
329.129
329.2
329.27
329.338
329.405
329.471
329.535
329.598
329.66
329.721
329.782
329.841
329.899
329.956
330.012
330.068
330.122
330.176
330.229
330.281
330.333
330.383
330.433
330.482
330.531
330.578
330.625
330.672
330.717
330.762
330.806
330.849
330.892
330.934
330.975
331.015
331.055
331.094
331.133
331.171
331.208
331.244
331.28
331.315
331.349
378.709
386.629
393.308
399.148
404.346
409.01
413.199
416.948
420.27
423.165
425.621
427.616
429.114
430.065
430.402
430.034
428.831
426.596
422.996
417.374
408.084
401.811
397.018
393.101
389.774
386.876
384.304
381.991
379.888
377.959
376.177
374.52
372.97
371.514
370.139
368.836
367.596
366.413
365.281
364.193
363.146
362.136
361.158
360.21
359.289
358.392
357.518
356.664
355.828
355.009
354.205
353.416
352.639
351.875
351.121
350.377
349.642
348.916
348.198
347.488
346.784
346.088
345.398
344.715
344.037
343.366
342.701
342.041
341.388
340.74
340.099
339.463
338.834
338.21
337.593
336.982
336.378
335.78
335.188
334.603
334.026
333.455
332.892
332.336
331.787
331.246
330.713
330.189
329.672
329.164
328.665
328.174
327.693
327.22
326.757
326.304
325.86
325.426
325.001
324.587
324.183
323.788
323.404
323.03
322.666
322.312
321.968
321.635
321.311
320.996
320.692
320.397
320.111
319.834
319.566
319.307
319.056
318.814
318.58
318.353
318.134
317.921
317.716
317.518
317.325
317.139
316.958
316.783
316.613
316.448
316.288
316.132
315.98
315.832
315.687
315.546
315.408
315.272
315.14
315.01
314.882
314.756
314.633
314.511
314.391
314.272
314.154
314.038
313.923
313.809
313.696
313.584
313.473
313.362
313.252
313.143
313.034
312.926
312.82
312.714
312.61
373.981
380.855
387.061
392.654
397.708
402.282
406.416
410.129
413.43
416.316
418.772
420.776
422.293
423.274
423.657
423.358
422.263
420.215
416.997
412.34
406.199
400.895
396.478
392.742
389.516
386.681
384.151
381.869
379.788
377.876
376.108
374.461
372.919
371.47
370.101
368.803
367.567
366.388
365.258
364.173
363.128
362.12
361.143
360.197
359.277
358.382
357.508
356.655
355.82
355.002
354.199
353.41
352.634
351.869
351.116
350.372
349.638
348.912
348.194
347.484
346.781
346.085
345.395
344.712
344.035
343.363
342.698
342.039
341.386
340.738
340.097
339.461
338.832
338.208
337.591
336.98
336.376
335.778
335.186
334.602
334.024
333.453
332.89
332.334
331.785
331.245
330.712
330.187
329.671
329.163
328.663
328.173
327.691
327.219
326.756
326.302
325.858
325.424
325
324.586
324.181
323.787
323.403
323.029
322.665
322.311
321.967
321.634
321.31
320.996
320.691
320.396
320.11
319.833
319.566
319.307
319.056
318.814
318.579
318.352
318.133
317.921
317.716
317.517
317.325
317.139
316.958
316.783
316.613
316.448
316.288
316.132
315.98
315.832
315.687
315.546
315.408
315.272
315.14
315.01
314.882
314.757
314.633
314.511
314.391
314.272
314.155
314.039
313.923
313.81
313.697
313.584
313.473
313.362
313.252
313.143
313.035
312.927
312.82
312.714
312.61
369.912
375.787
381.357
386.542
391.328
395.721
399.729
403.358
406.604
409.459
411.907
413.921
415.468
416.504
416.973
416.805
415.912
414.191
411.537
407.903
403.504
399.236
395.388
391.979
388.955
386.251
383.813
381.597
379.566
377.692
375.953
374.33
372.808
371.374
370.018
368.73
367.504
366.332
365.209
364.13
363.09
362.085
361.113
360.169
359.252
358.359
357.488
356.637
355.803
354.987
354.185
353.397
352.622
351.859
351.106
350.363
349.63
348.904
348.187
347.477
346.775
346.079
345.389
344.706
344.029
343.358
342.693
342.034
341.381
340.734
340.092
339.457
338.828
338.204
337.587
336.976
336.372