/*--------------------------------*- C++ -*----------------------------------*\
  =========                 |
  \\      /  F ield         | OpenFOAM: The Open Source CFD Toolbox
   \\    /   O peration     | Website:  https://openfoam.org
    \\  /    A nd           | Version:  7
     \\/     M anipulation  |
\*---------------------------------------------------------------------------*/
FoamFile
{
    version     2.0;
    format      ascii;
    class       volVectorField;
    location    "10";
    object      U;
}
// * * * * * * * * * * * * * * * * * * * * * * * * * * * * * * * * * * * * * //

dimensions      [0 1 -1 0 0 0 0];

internalField   nonuniform List<vector> 
12013
(
(0.100991 -0.000264328 0)
(0.10482 -0.000455281 0)
(0.110579 -0.000619176 0)
(0.117713 -0.000763279 0)
(0.12606 -0.000894566 0)
(0.135478 -0.00101854 0)
(0.14587 -0.00113984 0)
(0.157189 -0.00126221 0)
(0.169419 -0.00138824 0)
(0.182558 -0.00151903 0)
(0.196608 -0.00165416 0)
(0.211559 -0.00179171 0)
(0.227377 -0.00192858 0)
(0.244002 -0.002061 0)
(0.261343 -0.00218495 0)
(0.279281 -0.00229673 0)
(0.29768 -0.00239321 0)
(0.316388 -0.00247211 0)
(0.335247 -0.00253205 0)
(0.354103 -0.00257251 0)
(0.372811 -0.00259374 0)
(0.391236 -0.00259655 0)
(0.409259 -0.00258221 0)
(0.42678 -0.00255228 0)
(0.443714 -0.00250845 0)
(0.459993 -0.00245247 0)
(0.475564 -0.00238605 0)
(0.490391 -0.00231083 0)
(0.504447 -0.00222831 0)
(0.517719 -0.00213988 0)
(0.5302 -0.00204675 0)
(0.541893 -0.00195002 0)
(0.552807 -0.00185063 0)
(0.562957 -0.0017494 0)
(0.572362 -0.00164704 0)
(0.581042 -0.00154414 0)
(0.589022 -0.00144122 0)
(0.59633 -0.00133869 0)
(0.602991 -0.00123691 0)
(0.609036 -0.00113618 0)
(0.614493 -0.00103672 0)
(0.619393 -0.000938752 0)
(0.623764 -0.000842412 0)
(0.627637 -0.000747812 0)
(0.631041 -0.000655032 0)
(0.634006 -0.000564128 0)
(0.636559 -0.000475119 0)
(0.638729 -0.000387989 0)
(0.640544 -0.000302688 0)
(0.642032 -0.000219132 0)
(0.643217 -0.000137193 0)
(0.644126 -5.66816e-05 0)
(0.644784 2.25918e-05 0)
(0.645213 0.000100795 0)
(0.645439 0.000178106 0)
(0.645484 0.000254806 0)
(0.64537 0.000331275 0)
(0.645119 0.000407974 0)
(0.64475 0.000485464 0)
(0.644283 0.000564421 0)
(0.643736 0.000645672 0)
(0.643123 0.000730224 0)
(0.642458 0.000819313 0)
(0.641754 0.000914468 0)
(0.641019 0.0010176 0)
(0.640258 0.00113111 0)
(0.639472 0.00125808 0)
(0.638655 0.00140252 0)
(0.637795 0.00156972 0)
(0.636868 0.00176689 0)
(0.635837 0.00200408 0)
(0.634643 0.00229576 0)
(0.633199 0.00266354 0)
(0.631368 0.00314121 0)
(0.628941 0.00378405 0)
(0.625579 0.00468765 0)
(0.620726 0.00602743 0)
(0.613394 0.00815194 0)
(0.601802 0.0118844 0)
(0.582798 0.0201727 0)
(0.563943 0.0537534 0)
(0.100899 -0.000804853 0)
(0.104705 -0.00139305 0)
(0.110429 -0.00189492 0)
(0.117534 -0.0023354 0)
(0.125855 -0.00273645 0)
(0.135248 -0.00311488 0)
(0.145617 -0.00348487 0)
(0.156917 -0.00385798 0)
(0.169129 -0.00424207 0)
(0.182256 -0.00464056 0)
(0.1963 -0.00505211 0)
(0.211251 -0.00547087 0)
(0.227079 -0.00588742 0)
(0.243723 -0.00629022 0)
(0.261091 -0.00666714 0)
(0.279067 -0.00700687 0)
(0.297511 -0.0073 0)
(0.316269 -0.00753964 0)
(0.335184 -0.00772167 0)
(0.3541 -0.00784456 0)
(0.372867 -0.00790905 0)
(0.391352 -0.0079177 0)
(0.409434 -0.00787434 0)
(0.427012 -0.00778368 0)
(0.443999 -0.00765084 0)
(0.460328 -0.00748111 0)
(0.475946 -0.00727967 0)
(0.490816 -0.00705143 0)
(0.504911 -0.00680096 0)
(0.518217 -0.00653241 0)
(0.530729 -0.00624947 0)
(0.54245 -0.00595545 0)
(0.553389 -0.0056532 0)
(0.56356 -0.00534519 0)
(0.572982 -0.00503357 0)
(0.581677 -0.00472015 0)
(0.589671 -0.00440648 0)
(0.596988 -0.00409384 0)
(0.603658 -0.00378331 0)
(0.609708 -0.0034758 0)
(0.615169 -0.00317204 0)
(0.62007 -0.00287262 0)
(0.624442 -0.002578 0)
(0.628312 -0.00228855 0)
(0.631713 -0.00200452 0)
(0.634671 -0.00172607 0)
(0.637217 -0.00145325 0)
(0.639379 -0.00118602 0)
(0.641183 -0.000924255 0)
(0.642658 -0.000667689 0)
(0.643828 -0.000415925 0)
(0.644721 -0.000168398 0)
(0.64536 7.54492e-05 0)
(0.645769 0.000316063 0)
(0.645973 0.000553967 0)
(0.645993 0.000790019 0)
(0.645852 0.00102537 0)
(0.645571 0.00126144 0)
(0.64517 0.00149993 0)
(0.644667 0.00174291 0)
(0.644081 0.00199289 0)
(0.643426 0.00225293 0)
(0.642717 0.00252677 0)
(0.641965 0.00281901 0)
(0.64118 0.0031354 0)
(0.640366 0.00348312 0)
(0.639526 0.00387134 0)
(0.638656 0.00431191 0)
(0.637746 0.00482042 0)
(0.636776 0.00541784 0)
(0.635715 0.00613309 0)
(0.634517 0.00700723 0)
(0.633111 0.00810041 0)
(0.631394 0.0095041 0)
(0.629221 0.011363 0)
(0.626376 0.0139155 0)
(0.622558 0.017572 0)
(0.61734 0.0230691 0)
(0.610174 0.031808 0)
(0.600957 0.046535 0)
(0.597769 0.072496 0)
(0.100792 -0.00136187 0)
(0.104536 -0.00238493 0)
(0.110186 -0.00325005 0)
(0.117228 -0.00400888 0)
(0.125493 -0.00469965 0)
(0.134834 -0.0053513 0)
(0.145158 -0.00598847 0)
(0.156417 -0.00663125 0)
(0.168596 -0.00729335 0)
(0.1817 -0.00798082 0)
(0.195734 -0.00869143 0)
(0.210691 -0.00941508 0)
(0.226544 -0.0101355 0)
(0.243231 -0.0108325 0)
(0.260664 -0.0114851 0)
(0.278721 -0.0120736 0)
(0.297262 -0.0125815 0)
(0.31613 -0.0129969 0)
(0.335164 -0.0133125 0)
(0.354203 -0.0135257 0)
(0.373096 -0.0136378 0)
(0.391705 -0.0136533 0)
(0.409908 -0.0135787 0)
(0.427601 -0.0134223 0)
(0.444697 -0.013193 0)
(0.461128 -0.0128999 0)
(0.47684 -0.0125521 0)
(0.491795 -0.012158 0)
(0.505968 -0.0117255 0)
(0.519344 -0.0112618 0)
(0.531918 -0.0107733 0)
(0.543694 -0.0102657 0)
(0.554681 -0.00974396 0)
(0.564894 -0.00921232 0)
(0.574352 -0.00867447 0)
(0.583078 -0.00813354 0)
(0.591096 -0.00759218 0)
(0.598434 -0.00705262 0)
(0.605119 -0.00651671 0)
(0.611181 -0.005986 0)
(0.616649 -0.00546174 0)
(0.621554 -0.00494494 0)
(0.625926 -0.0044364 0)
(0.629794 -0.00393672 0)
(0.633188 -0.00344633 0)
(0.636137 -0.00296548 0)
(0.63867 -0.00249426 0)
(0.640816 -0.00203261 0)
(0.642601 -0.00158026 0)
(0.644053 -0.00113677 0)
(0.645199 -0.000701443 0)
(0.646063 -0.000273315 0)
(0.64667 0.000148544 0)
(0.647044 0.000564925 0)
(0.647209 0.000976825 0)
(0.647187 0.00138576 0)
(0.647001 0.00179372 0)
(0.64667 0.00220313 0)
(0.646215 0.00261691 0)
(0.645654 0.00303857 0)
(0.645005 0.00347237 0)
(0.644283 0.00392347 0)
(0.643503 0.00439814 0)
(0.642677 0.00490408 0)
(0.641814 0.00545078 0)
(0.640921 0.00605011 0)
(0.640002 0.006717 0)
(0.639056 0.0074706 0)
(0.638077 0.00833573 0)
(0.637055 0.00934526 0)
(0.635969 0.0105435 0)
(0.634789 0.0119918 0)
(0.633478 0.0137765 0)
(0.631982 0.0160231 0)
(0.630242 0.0189178 0)
(0.628197 0.0227435 0)
(0.625822 0.0279373 0)
(0.6232 0.0351807 0)
(0.620711 0.0455439 0)
(0.619483 0.0606277 0)
(0.623447 0.0819001 0)
(0.100678 -0.00192738 0)
(0.104336 -0.00342486 0)
(0.109878 -0.00468047 0)
(0.116824 -0.00578228 0)
(0.125003 -0.00678492 0)
(0.134268 -0.00773056 0)
(0.144522 -0.00865544 0)
(0.15572 -0.00958911 0)
(0.167852 -0.0105519 0)
(0.180926 -0.0115529 0)
(0.194952 -0.0125891 0)
(0.209929 -0.0136457 0)
(0.225831 -0.0146989 0)
(0.242602 -0.0157189 0)
(0.260149 -0.0166746 0)
(0.27835 -0.0175367 0)
(0.297058 -0.0182809 0)
(0.316111 -0.0188895 0)
(0.335342 -0.0193519 0)
(0.354584 -0.0196641 0)
(0.37368 -0.0198282 0)
(0.392489 -0.0198507 0)
(0.410884 -0.0197415 0)
(0.428758 -0.0195128 0)
(0.446024 -0.0191777 0)
(0.462611 -0.0187496 0)
(0.478467 -0.0182417 0)
(0.493551 -0.0176665 0)
(0.50784 -0.0170357 0)
(0.52132 -0.0163596 0)
(0.533986 -0.0156476 0)
(0.545842 -0.0149081 0)
(0.556899 -0.0141481 0)
(0.567172 -0.013374 0)
(0.57668 -0.012591 0)
(0.585449 -0.0118037 0)
(0.593502 -0.0110159 0)
(0.600867 -0.0102309 0)
(0.607573 -0.00945129 0)
(0.613651 -0.00867929 0)
(0.619129 -0.00791672 0)
(0.624038 -0.00716502 0)
(0.628408 -0.00642531 0)
(0.632271 -0.00569844 0)
(0.635655 -0.004985 0)
(0.63859 -0.00428534 0)
(0.641104 -0.00359956 0)
(0.643227 -0.00292753 0)
(0.644986 -0.00226887 0)
(0.646407 -0.00162288 0)
(0.647518 -0.00098859 0)
(0.648342 -0.000364601 0)
(0.648907 0.0002504 0)
(0.649234 0.000857592 0)
(0.649348 0.00145855 0)
(0.649272 0.00205554 0)
(0.649026 0.00265142 0)
(0.648631 0.00324969 0)
(0.648108 0.00385448 0)
(0.647475 0.0044708 0)
(0.646749 0.00510461 0)
(0.645946 0.00576313 0)
(0.645081 0.00645506 0)
(0.644167 0.00719098 0)
(0.643215 0.00798383 0)
(0.642234 0.00884958 0)
(0.641231 0.0098081 0)
(0.640209 0.0108844 0)
(0.639171 0.0121104 0)
(0.638113 0.013527 0)
(0.637033 0.0151882 0)
(0.635922 0.0171651 0)
(0.634775 0.0195537 0)
(0.633594 0.0224843 0)
(0.632394 0.0261347 0)
(0.631234 0.0307479 0)
(0.630248 0.0366491 0)
(0.629722 0.0442554 0)
(0.630207 0.0540509 0)
(0.63265 0.0664426 0)
(0.638688 0.0811933 0)
(0.10056 -0.00249945 0)
(0.104123 -0.00450787 0)
(0.109531 -0.00618234 0)
(0.116354 -0.00765341 0)
(0.124421 -0.00899187 0)
(0.133583 -0.0102541 0)
(0.143746 -0.0114893 0)
(0.154868 -0.0127377 0)
(0.166943 -0.0140271 0)
(0.179986 -0.0153704 0)
(0.194017 -0.0167639 0)
(0.20904 -0.0181876 0)
(0.225036 -0.0196088 0)
(0.241949 -0.020987 0)
(0.259684 -0.0222791 0)
(0.278113 -0.023445 0)
(0.297082 -0.0244513 0)
(0.316418 -0.0252737 0)
(0.335944 -0.0258977 0)
(0.355485 -0.0263183 0)
(0.374877 -0.0265383 0)
(0.39397 -0.026567 0)
(0.412634 -0.0264181 0)
(0.43076 -0.0261082 0)
(0.448258 -0.0256552 0)
(0.465057 -0.0250776 0)
(0.481102 -0.0243932 0)
(0.496357 -0.0236189 0)
(0.510797 -0.0227704 0)
(0.524409 -0.0218618 0)
(0.537191 -0.0209056 0)
(0.549147 -0.0199129 0)
(0.560289 -0.0188934 0)
(0.570634 -0.0178554 0)
(0.580203 -0.0168059 0)
(0.589021 -0.0157511 0)
(0.597113 -0.0146959 0)
(0.604509 -0.0136446 0)
(0.611237 -0.0126008 0)
(0.617329 -0.0115674 0)
(0.622814 -0.0105467 0)
(0.627724 -0.0095406 0)
(0.632089 -0.00855054 0)
(0.635941 -0.00757762 0)
(0.639308 -0.00662259 0)
(0.642222 -0.00568586 0)
(0.64471 -0.00476753 0)
(0.646802 -0.00386738 0)
(0.648524 -0.00298488 0)
(0.649905 -0.00211912 0)
(0.650971 -0.00126875 0)
(0.651746 -0.000431972 0)
(0.652257 0.000392921 0)
(0.652527 0.00120754 0)
(0.652579 0.00201413 0)
(0.652436 0.00281578 0)
(0.65212 0.00361629 0)
(0.651651 0.00442018 0)
(0.651049 0.00523284 0)
(0.650333 0.00606066 0)
(0.64952 0.00691125 0)
(0.648628 0.00779369 0)
(0.647671 0.00871883 0)
(0.646664 0.00969974 0)
(0.645621 0.0107522 0)
(0.644553 0.0118952 0)
(0.643471 0.0131523 0)
(0.642385 0.0145523 0)
(0.641303 0.0161307 0)
(0.640236 0.0179322 0)
(0.639194 0.0200127 0)
(0.638192 0.0224428 0)
(0.637254 0.0253117 0)
(0.636419 0.0287313 0)
(0.635755 0.0328399 0)
(0.635374 0.0378029 0)
(0.635458 0.0438053 0)
(0.636292 0.0510264 0)
(0.638299 0.0595796 0)
(0.642039 0.0693884 0)
(0.648172 0.0799613 0)
(0.10044 -0.00307745 0)
(0.103908 -0.00563025 0)
(0.109168 -0.00775269 0)
(0.115846 -0.00962052 0)
(0.123779 -0.0113207 0)
(0.13282 -0.0129244 0)
(0.142875 -0.0144952 0)
(0.153909 -0.0160856 0)
(0.165925 -0.0177325 0)
(0.178948 -0.0194532 0)
(0.19301 -0.0212433 0)
(0.208128 -0.023077 0)
(0.224285 -0.0249111 0)
(0.241426 -0.0266918 0)
(0.259453 -0.0283622 0)
(0.278226 -0.029869 0)
(0.297576 -0.0311683 0)
(0.317317 -0.0322281 0)
(0.337257 -0.0330301 0)
(0.357209 -0.033568 0)
(0.376997 -0.0338462 0)
(0.396466 -0.0338776 0)
(0.41548 -0.0336803 0)
(0.433927 -0.0332763 0)
(0.451715 -0.0326894 0)
(0.468774 -0.0319434 0)
(0.48505 -0.0310616 0)
(0.500508 -0.0300658 0)
(0.515125 -0.0289762 0)
(0.528889 -0.0278109 0)
(0.541801 -0.0265859 0)
(0.553868 -0.0253154 0)
(0.565102 -0.0240116 0)
(0.575523 -0.0226851 0)
(0.585154 -0.0213447 0)
(0.594019 -0.0199981 0)
(0.602148 -0.0186517 0)
(0.60957 -0.0173109 0)
(0.616314 -0.0159799 0)
(0.622414 -0.0146625 0)
(0.627899 -0.0133615 0)
(0.632801 -0.0120793 0)
(0.637153 -0.0108176 0)
(0.640984 -0.0095777 0)
(0.644326 -0.00836053 0)
(0.647208 -0.00716651 0)
(0.649659 -0.00599574 0)
(0.651709 -0.00484791 0)
(0.653385 -0.00372228 0)
(0.654715 -0.00261769 0)
(0.655724 -0.00153247 0)
(0.656439 -0.00046441 0)
(0.656886 0.000588605 0)
(0.657087 0.00162867 0)
(0.657067 0.00265881 0)
(0.656848 0.00368299 0)
(0.656452 0.00470591 0)
(0.655899 0.00573312 0)
(0.65521 0.00677115 0)
(0.654403 0.00782765 0)
(0.653498 0.00891165 0)
(0.652511 0.0100338 0)
(0.651459 0.0112067 0)
(0.650359 0.0124452 0)
(0.649227 0.0137669 0)
(0.648077 0.0151929 0)
(0.646925 0.0167482 0)
(0.645786 0.018463 0)
(0.644678 0.0203731 0)
(0.643621 0.0225216 0)
(0.642637 0.0249603 0)
(0.64176 0.0277502 0)
(0.641032 0.0309631 0)
(0.640514 0.0346806 0)
(0.640291 0.0389919 0)
(0.640485 0.0439866 0)
(0.641259 0.0497398 0)
(0.642829 0.0562865 0)
(0.645455 0.0635799 0)
(0.64942 0.0714332 0)
(0.654952 0.0794555 0)
(0.100318 -0.00366182 0)
(0.1037 -0.00678977 0)
(0.108806 -0.00938974 0)
(0.115325 -0.0116828 0)
(0.123109 -0.0137723 0)
(0.132014 -0.0157449 0)
(0.141952 -0.0176801 0)
(0.152895 -0.0196448 0)
(0.16486 -0.0216867 0)
(0.177891 -0.0238289 0)
(0.192035 -0.0260659 0)
(0.207321 -0.0283647 0)
(0.22374 -0.0306691 0)
(0.241234 -0.0329087 0)
(0.259691 -0.0350092 0)
(0.278955 -0.0369016 0)
(0.298835 -0.0385293 0)
(0.319124 -0.0398522 0)
(0.339611 -0.0408476 0)
(0.360092 -0.0415092 0)
(0.380382 -0.041844 0)
(0.400315 -0.0418691 0)
(0.419753 -0.0416091 0)
(0.43858 -0.0410922 0)
(0.456706 -0.040349 0)
(0.47406 -0.0394098 0)
(0.490594 -0.0383039 0)
(0.506273 -0.0370589 0)
(0.521078 -0.0356996 0)
(0.535001 -0.0342487 0)
(0.548045 -0.032726 0)
(0.56022 -0.0311487 0)
(0.571542 -0.029532 0)
(0.582032 -0.0278887 0)
(0.591715 -0.0262297 0)
(0.600618 -0.0245642 0)
(0.608773 -0.0229 0)
(0.616208 -0.0212435 0)
(0.622957 -0.0195999 0)
(0.629051 -0.0179735 0)
(0.634524 -0.0163679 0)
(0.639406 -0.0147857 0)
(0.643731 -0.0132289 0)
(0.647529 -0.0116992 0)
(0.650832 -0.0101974 0)
(0.65367 -0.00872401 0)
(0.656073 -0.00727912 0)
(0.658069 -0.00586226 0)
(0.659687 -0.00447251 0)
(0.660954 -0.00310843 0)
(0.661897 -0.00176804 0)
(0.66254 -0.000448784 0)
(0.662912 0.000851909 0)
(0.663036 0.00213671 0)
(0.662935 0.00340949 0)
(0.662631 0.00467505 0)
(0.662147 0.00593899 0)
(0.661503 0.00720777 0)
(0.66072 0.0084889 0)
(0.659818 0.00979109 0)
(0.658816 0.0111245 0)
(0.657732 0.0125008 0)
(0.656585 0.0139338 0)
(0.655394 0.0154393 0)
(0.654176 0.0170358 0)
(0.652951 0.0187446 0)
(0.651737 0.0205908 0)
(0.650557 0.0226029 0)
(0.649433 0.0248141 0)
(0.648393 0.0272621 0)
(0.64747 0.0299893 0)
(0.646705 0.0330427 0)
(0.64615 0.0364722 0)
(0.645871 0.0403279 0)
(0.64595 0.0446555 0)
(0.646489 0.0494877 0)
(0.647612 0.0548324 0)
(0.649455 0.0606556 0)
(0.652159 0.0668617 0)
(0.655839 0.0732739 0)
(0.660538 0.0796275 0)
(0.100193 -0.00425418 0)
(0.103504 -0.00798585 0)
(0.108457 -0.0110932 0)
(0.114811 -0.0138407 0)
(0.122438 -0.016349 0)
(0.1312 -0.0187206 0)
(0.141017 -0.0210534 0)
(0.151877 -0.0234313 0)
(0.163818 -0.0259155 0)
(0.176906 -0.0285358 0)
(0.191212 -0.0312854 0)
(0.206779 -0.0341212 0)
(0.223602 -0.0369695 0)
(0.241612 -0.0397385 0)
(0.260675 -0.0423317 0)
(0.280608 -0.0446609 0)
(0.301189 -0.046655 0)
(0.322182 -0.0482653 0)
(0.343351 -0.0494658 0)
(0.364477 -0.0502513 0)
(0.385361 -0.0506331 0)
(0.405832 -0.0506352 0)
(0.425748 -0.0502895 0)
(0.444995 -0.0496327 0)
(0.463484 -0.0487029 0)
(0.48115 -0.0475382 0)
(0.497946 -0.0461749 0)
(0.513845 -0.0446464 0)
(0.528831 -0.0429832 0)
(0.542901 -0.0412125 0)
(0.556062 -0.0393583 0)
(0.568329 -0.0374412 0)
(0.579719 -0.0354791 0)
(0.590259 -0.0334874 0)
(0.599975 -0.0314788 0)
(0.608897 -0.0294644 0)
(0.617056 -0.027453 0)
(0.624487 -0.0254522 0)
(0.631221 -0.0234682 0)
(0.637292 -0.0215058 0)
(0.642734 -0.0195691 0)
(0.64758 -0.017661 0)
(0.651862 -0.015784 0)
(0.655613 -0.0139397 0)
(0.658863 -0.0121291 0)
(0.661644 -0.0103526 0)
(0.663985 -0.00861034 0)
(0.665916 -0.00690157 0)
(0.667465 -0.00522521 0)
(0.668659 -0.00357955 0)
(0.669525 -0.00196232 0)
(0.670088 -0.000370735 0)
(0.670379 0.00119827 0)
(0.670417 0.00274813 0)
(0.670227 0.00428355 0)
(0.669833 0.00581013 0)
(0.669256 0.00733421 0)
(0.668517 0.00886302 0)
(0.667638 0.0104048 0)
(0.666639 0.0119691 0)
(0.66554 0.0135667 0)
(0.664361 0.0152099 0)
(0.663122 0.0169129 0)
(0.661844 0.0186915 0)
(0.660546 0.0205639 0)
(0.659252 0.0225504 0)
(0.657983 0.0246741 0)
(0.656766 0.0269601 0)
(0.655628 0.0294364 0)
(0.654601 0.0321328 0)
(0.653723 0.0350805 0)
(0.653036 0.0383108 0)
(0.652593 0.0418531 0)
(0.652452 0.0457312 0)
(0.652682 0.049959 0)
(0.653358 0.0545346 0)
(0.654561 0.0594325 0)
(0.656365 0.0645958 0)
(0.658834 0.0699291 0)
(0.661998 0.0752964 0)
(0.66583 0.0805308 0)
(0.100063 -0.00485709 0)
(0.10332 -0.00921949 0)
(0.108132 -0.0128643 0)
(0.114319 -0.0160964 0)
(0.121788 -0.0190547 0)
(0.130407 -0.0218591 0)
(0.140112 -0.0246287 0)
(0.150911 -0.0274684 0)
(0.162875 -0.0304558 0)
(0.176101 -0.0336289 0)
(0.190688 -0.0369778 0)
(0.206695 -0.040444 0)
(0.22411 -0.0439295 0)
(0.242843 -0.0473137 0)
(0.262722 -0.0504717 0)
(0.283522 -0.0532923 0)
(0.30498 -0.0556889 0)
(0.326827 -0.0576048 0)
(0.3488 -0.0590128 0)
(0.370663 -0.0599114 0)
(0.392208 -0.0603195 0)
(0.41326 -0.0602701 0)
(0.433679 -0.0598049 0)
(0.453355 -0.0589705 0)
(0.472203 -0.0578146 0)
(0.490166 -0.0563838 0)
(0.507205 -0.0547218 0)
(0.523297 -0.0528691 0)
(0.538435 -0.0508618 0)
(0.552621 -0.0487321 0)
(0.565867 -0.0465081 0)
(0.578191 -0.044214 0)
(0.589618 -0.0418706 0)
(0.600176 -0.0394956 0)
(0.609893 -0.0371038 0)
(0.618804 -0.0347077 0)
(0.626942 -0.0323176 0)
(0.634341 -0.029942 0)
(0.641036 -0.0275878 0)
(0.647062 -0.0252606 0)
(0.652453 -0.0229646 0)
(0.657243 -0.0207035 0)
(0.661465 -0.0184795 0)
(0.665152 -0.0162945 0)
(0.668335 -0.0141496 0)
(0.671046 -0.0120451 0)
(0.673315 -0.00998087 0)
(0.67517 -0.00795613 0)
(0.676641 -0.00596955 0)
(0.677754 -0.00401914 0)
(0.678538 -0.00210229 0)
(0.679016 -0.000216338 0)
(0.67922 0.00164234 0)
(0.67917 0.00347825 0)
(0.67889 0.00529691 0)
(0.678404 0.00710452 0)
(0.677733 0.00890801 0)
(0.676901 0.0107152 0)
(0.675927 0.0125347 0)
(0.674834 0.0143765 0)
(0.673643 0.0162517 0)
(0.672374 0.0181724 0)
(0.671049 0.0201525 0)
(0.669691 0.0222072 0)
(0.668321 0.0243531 0)
(0.666964 0.0266084 0)
(0.665646 0.0289927 0)
(0.664393 0.0315265 0)
(0.663236 0.0342313 0)
(0.662209 0.0371282 0)
(0.661347 0.0402374 0)
(0.660692 0.0435762 0)
(0.660289 0.0471574 0)
(0.660185 0.0509863 0)
(0.660432 0.0550577 0)
(0.661078 0.0593521 0)
(0.662169 0.0638328 0)
(0.663741 0.0684428 0)
(0.665811 0.0731044 0)
(0.668371 0.0777221 0)
(0.671376 0.0821942 0)
(0.0999264 -0.00547381 0)
(0.103149 -0.0104932 0)
(0.107833 -0.0147063 0)
(0.113861 -0.018454 0)
(0.121175 -0.0218961 0)
(0.129661 -0.0251718 0)
(0.139273 -0.028426 0)
(0.150055 -0.03179 0)
(0.162119 -0.0353617 0)
(0.175607 -0.0391877 0)
(0.190646 -0.0432503 0)
(0.207304 -0.0474669 0)
(0.225548 -0.0517044 0)
(0.245244 -0.0558028 0)
(0.266167 -0.0596025 0)
(0.288033 -0.0629661 0)
(0.310532 -0.065792 0)
(0.333356 -0.0680183 0)
(0.35622 -0.0696209 0)
(0.378872 -0.0706062 0)
(0.401102 -0.0710043 0)
(0.422737 -0.0708603 0)
(0.443642 -0.0702287 0)
(0.463715 -0.0691678 0)
(0.482884 -0.067736 0)
(0.501098 -0.0659894 0)
(0.518329 -0.0639802 0)
(0.534563 -0.061756 0)
(0.5498 -0.0593589 0)
(0.564049 -0.0568261 0)
(0.577329 -0.0541901 0)
(0.589663 -0.0514784 0)
(0.60108 -0.0487148 0)
(0.611611 -0.0459193 0)
(0.62129 -0.0431085 0)
(0.630152 -0.0402964 0)
(0.638232 -0.0374944 0)
(0.645568 -0.034712 0)
(0.652195 -0.0319568 0)
(0.658149 -0.0292348 0)
(0.663466 -0.0265507 0)
(0.668179 -0.0239081 0)
(0.672323 -0.0213097 0)
(0.675931 -0.0187572 0)
(0.679034 -0.0162517 0)
(0.681664 -0.0137935 0)
(0.68385 -0.0113821 0)
(0.685623 -0.00901676 0)
(0.68701 -0.00669579 0)
(0.688039 -0.004417 0)
(0.688738 -0.00217749 0)
(0.689132 2.53608e-05 0)
(0.68925 0.00219566 0)
(0.689113 0.00433905 0)
(0.688746 0.00646172 0)
(0.688173 0.00857034 0)
(0.687415 0.0106722 0)
(0.686495 0.0127754 0)
(0.685435 0.0148888 0)
(0.684257 0.0170222 0)
(0.682983 0.0191865 0)
(0.681634 0.0213933 0)
(0.680235 0.0236554 0)
(0.678807 0.0259865 0)
(0.677375 0.028401 0)
(0.675963 0.030914 0)
(0.674599 0.0335411 0)
(0.67331 0.0362975 0)
(0.672126 0.0391981 0)
(0.671079 0.0422559 0)
(0.670202 0.0454816 0)
(0.669531 0.0488819 0)
(0.6691 0.0524581 0)
(0.668947 0.0562043 0)
(0.669104 0.0601058 0)
(0.6696 0.0641374 0)
(0.670459 0.0682628 0)
(0.671689 0.0724341 0)
(0.673288 0.0765935 0)
(0.675232 0.0806772 0)
(0.677475 0.0846245 0)
(0.09978 -0.00610803 0)
(0.10299 -0.0118107 0)
(0.107564 -0.0166237 0)
(0.113442 -0.02092 0)
(0.120613 -0.0248829 0)
(0.128985 -0.0286758 0)
(0.138542 -0.0324756 0)
(0.149379 -0.0364471 0)
(0.161662 -0.0407131 0)
(0.175587 -0.0453264 0)
(0.191309 -0.050252 0)
(0.208883 -0.0553685 0)
(0.228233 -0.0604916 0)
(0.249153 -0.0654103 0)
(0.271342 -0.0699239 0)
(0.294447 -0.0738688 0)
(0.318108 -0.077132 0)
(0.341982 -0.0796525 0)
(0.365767 -0.0814152 0)
(0.389206 -0.0824403 0)
(0.412092 -0.0827734 0)
(0.434261 -0.0824758 0)
(0.45559 -0.0816168 0)
(0.475991 -0.0802683 0)
(0.495404 -0.0785008 0)
(0.513792 -0.0763806 0)
(0.531136 -0.0739688 0)
(0.547435 -0.0713201 0)
(0.562696 -0.0684829 0)
(0.576938 -0.0654994 0)
(0.590184 -0.062406 0)
(0.602465 -0.0592339 0)
(0.613813 -0.0560094 0)
(0.624264 -0.0527545 0)
(0.633854 -0.0494877 0)
(0.642621 -0.0462243 0)
(0.650603 -0.0429767 0)
(0.657839 -0.0397551 0)
(0.664365 -0.0365676 0)
(0.670218 -0.0334207 0)
(0.675435 -0.0303192 0)
(0.680049 -0.027267 0)
(0.684097 -0.0242666 0)
(0.687609 -0.0213198 0)
(0.690619 -0.0184275 0)
(0.693158 -0.0155898 0)
(0.695255 -0.0128063 0)
(0.696941 -0.0100758 0)
(0.698242 -0.00739643 0)
(0.699188 -0.00476592 0)
(0.699804 -0.00218123 0)
(0.700119 0.000360775 0)
(0.700156 0.00286474 0)
(0.69994 0.00533693 0)
(0.699495 0.007784 0)
(0.698844 0.0102129 0)
(0.698011 0.0126312 0)
(0.697016 0.0150469 0)
(0.695884 0.0174688 0)
(0.694636 0.0199063 0)
(0.693294 0.0223694 0)
(0.691882 0.0248689 0)
(0.690423 0.0274159 0)
(0.68894 0.030022 0)
(0.687458 0.0326989 0)
(0.686002 0.0354585 0)
(0.684597 0.038312 0)
(0.683272 0.0412696 0)
(0.682053 0.0443403 0)
(0.680969 0.0475305 0)
(0.680048 0.0508438 0)
(0.679319 0.0542796 0)
(0.678808 0.0578325 0)
(0.67854 0.0614913 0)
(0.678534 0.0652384 0)
(0.678807 0.0690492 0)
(0.679366 0.0728927 0)
(0.680207 0.0767323 0)
(0.681318 0.0805274 0)
(0.682673 0.0842364 0)
(0.684231 0.0878238 0)
(0.0996213 -0.00676385 0)
(0.10284 -0.0131775 0)
(0.107327 -0.0186233 0)
(0.113068 -0.0235037 0)
(0.120116 -0.0280301 0)
(0.128406 -0.0323969 0)
(0.137971 -0.0368231 0)
(0.148971 -0.0415163 0)
(0.161648 -0.0466269 0)
(0.176253 -0.0522063 0)
(0.192949 -0.0581841 0)
(0.211752 -0.0643772 0)
(0.232502 -0.0705302 0)
(0.254893 -0.0763693 0)
(0.278533 -0.0816505 0)
(0.302996 -0.0861889 0)
(0.327874 -0.0898686 0)
(0.352803 -0.0926385 0)
(0.377473 -0.0945006 0)
(0.401633 -0.0954953 0)
(0.425089 -0.0956889 0)
(0.447693 -0.0951618 0)
(0.469341 -0.0940008 0)
(0.48996 -0.0922927 0)
(0.509508 -0.0901208 0)
(0.527962 -0.0875621 0)
(0.545317 -0.0846865 0)
(0.561582 -0.0815561 0)
(0.576776 -0.0782251 0)
(0.590923 -0.0747407 0)
(0.604055 -0.071143 0)
(0.616207 -0.0674663 0)
(0.627417 -0.0637393 0)
(0.637725 -0.0599859 0)
(0.647169 -0.0562262 0)
(0.65579 -0.0524763 0)
(0.663627 -0.0487497 0)
(0.670721 -0.0450569 0)
(0.67711 -0.0414066 0)
(0.682831 -0.0378052 0)
(0.68792 -0.034258 0)
(0.692413 -0.0307686 0)
(0.696344 -0.0273396 0)
(0.699747 -0.0239725 0)
(0.702652 -0.0206681 0)
(0.705091 -0.0174264 0)
(0.707094 -0.0142466 0)
(0.70869 -0.0111273 0)
(0.709906 -0.00806656 0)
(0.710771 -0.00506195 0)
(0.711309 -0.00211037 0)
(0.711551 0.000792023 0)
(0.711518 0.00365049 0)
(0.711235 0.00647153 0)
(0.710725 0.00926207 0)
(0.710012 0.0120292 0)
(0.709119 0.0147803 0)
(0.708069 0.0175233 0)
(0.706883 0.0202665 0)
(0.705584 0.0230184 0)
(0.704196 0.0257882 0)
(0.70274 0.028585 0)
(0.701241 0.0314181 0)
(0.699721 0.034297 0)
(0.698205 0.0372304 0)
(0.696716 0.0402269 0)
(0.695279 0.0432937 0)
(0.693919 0.046437 0)
(0.69266 0.0496607 0)
(0.691526 0.0529668 0)
(0.690541 0.0563538 0)
(0.689726 0.0598174 0)
(0.689099 0.0633488 0)
(0.688676 0.0669355 0)
(0.688469 0.0705606 0)
(0.688483 0.0742032 0)
(0.688717 0.0778391 0)
(0.689163 0.0814417 0)
(0.689806 0.0849835 0)
(0.69062 0.0884382 0)
(0.691575 0.0917858 0)
(0.0994473 -0.00744572 0)
(0.102699 -0.0146001 0)
(0.107121 -0.020714 0)
(0.112747 -0.0262184 0)
(0.119698 -0.0313593 0)
(0.127958 -0.0363744 0)
(0.137627 -0.0415384 0)
(0.148953 -0.047112 0)
(0.162268 -0.0532715 0)
(0.177864 -0.0600486 0)
(0.195884 -0.0673069 0)
(0.21625 -0.0747699 0)
(0.238678 -0.0820904 0)
(0.26274 -0.0889255 0)
(0.287942 -0.0949932 0)
(0.313798 -0.100099 0)
(0.339867 -0.104137 0)
(0.365777 -0.107078 0)
(0.391225 -0.10895 0)
(0.415979 -0.109821 0)
(0.439865 -0.109781 0)
(0.462761 -0.108933 0)
(0.484583 -0.107384 0)
(0.505279 -0.105235 0)
(0.524826 -0.102582 0)
(0.543216 -0.0995148 0)
(0.56046 -0.0961104 0)
(0.576577 -0.0924382 0)
(0.591595 -0.088558 0)
(0.605548 -0.0845214 0)
(0.618475 -0.0803719 0)
(0.630415 -0.0761465 0)
(0.641411 -0.071876 0)
(0.651506 -0.0675858 0)
(0.660741 -0.0632971 0)
(0.66916 -0.059027 0)
(0.676803 -0.0547892 0)
(0.683711 -0.0505949 0)
(0.689923 -0.0464527 0)
(0.695477 -0.0423693 0)
(0.70041 -0.0383497 0)
(0.704757 -0.0343974 0)
(0.708552 -0.0305149 0)
(0.711828 -0.0267035 0)
(0.714617 -0.0229636 0)
(0.716949 -0.0192949 0)
(0.718852 -0.0156965 0)
(0.720357 -0.0121668 0)
(0.72149 -0.00870363 0)
(0.722279 -0.00530434 0)
(0.722748 -0.00196582 0)
(0.722926 0.00131634 0)
(0.722835 0.00454796 0)
(0.722499 0.00773571 0)
(0.721941 0.0108865 0)
(0.721185 0.0140074 0)
(0.720252 0.0171055 0)
(0.719166 0.0201881 0)
(0.717949 0.0232629 0)
(0.716624 0.0263374 0)
(0.715211 0.0294195 0)
(0.713735 0.0325166 0)
(0.712217 0.0356363 0)
(0.71068 0.0387855 0)
(0.709147 0.0419704 0)
(0.707639 0.0451966 0)
(0.70618 0.0484683 0)
(0.704791 0.051788 0)
(0.703493 0.0551567 0)
(0.702305 0.058573 0)
(0.701246 0.062033 0)
(0.70033 0.0655306 0)
(0.699572 0.0690563 0)
(0.698979 0.0725985 0)
(0.698557 0.0761428 0)
(0.698307 0.0796727 0)
(0.698223 0.0831706 0)
(0.698296 0.0866179 0)
(0.698511 0.0899967 0)
(0.698848 0.0932906 0)
(0.699282 0.0964893 0)
(0.0992545 -0.00815859 0)
(0.102563 -0.016087 0)
(0.106948 -0.0229078 0)
(0.112485 -0.0290828 0)
(0.119381 -0.0349039 0)
(0.127691 -0.0406691 0)
(0.137606 -0.0467279 0)
(0.149492 -0.0534027 0)
(0.163767 -0.0608828 0)
(0.180735 -0.069144 0)
(0.200455 -0.077938 0)
(0.2227 -0.0868596 0)
(0.247025 -0.0954543 0)
(0.272868 -0.103315 0)
(0.299649 -0.110137 0)
(0.326836 -0.115736 0)
(0.35398 -0.120033 0)
(0.380719 -0.123032 0)
(0.406773 -0.124797 0)
(0.43194 -0.125428 0)
(0.456074 -0.125044 0)
(0.479081 -0.123772 0)
(0.500902 -0.121737 0)
(0.521509 -0.119058 0)
(0.540898 -0.115845 0)
(0.559078 -0.112195 0)
(0.576073 -0.108194 0)
(0.591915 -0.103919 0)
(0.606641 -0.0994341 0)
(0.620293 -0.0947944 0)
(0.632915 -0.0900467 0)
(0.644554 -0.0852299 0)
(0.655254 -0.0803765 0)
(0.665062 -0.0755132 0)
(0.674022 -0.0706618 0)
(0.682178 -0.0658398 0)
(0.689574 -0.0610614 0)
(0.696249 -0.0563378 0)
(0.702243 -0.0516774 0)
(0.707596 -0.0470869 0)
(0.712342 -0.0425711 0)
(0.716518 -0.0381331 0)
(0.720157 -0.033775 0)
(0.72329 -0.0294979 0)
(0.72595 -0.0253019 0)
(0.728166 -0.0211863 0)
(0.729966 -0.01715 0)
(0.731379 -0.0131909 0)
(0.732432 -0.00930694 0)
(0.73315 -0.00549521 0)
(0.733558 -0.00175255 0)
(0.733684 0.00192596 0)
(0.733548 0.00554653 0)
(0.733174 0.00911592 0)
(0.732586 0.0126409 0)
(0.731806 0.0161281 0)
(0.730856 0.0195842 0)
(0.729757 0.0230158 0)
(0.728533 0.0264298 0)
(0.727203 0.0298325 0)
(0.725791 0.0332305 0)
(0.724317 0.0366295 0)
(0.722803 0.0400353 0)
(0.72127 0.0434527 0)
(0.719738 0.0468859 0)
(0.718228 0.0503377 0)
(0.71676 0.0538101 0)
(0.715351 0.0573035 0)
(0.71402 0.0608167 0)
(0.712781 0.0643467 0)
(0.711648 0.0678887 0)
(0.710633 0.0714362 0)
(0.709743 0.0749807 0)
(0.708983 0.0785124 0)
(0.708356 0.08202 0)
(0.707858 0.0854914 0)
(0.707485 0.0889142 0)
(0.707226 0.0922761 0)
(0.707068 0.0955657 0)
(0.706996 0.0987733 0)
(0.706991 0.101895 0)
(0.0990391 -0.00890813 0)
(0.102432 -0.0176491 0)
(0.106812 -0.0252212 0)
(0.112295 -0.0321247 0)
(0.119198 -0.0387146 0)
(0.127676 -0.0453748 0)
(0.138045 -0.0525517 0)
(0.150806 -0.06063 0)
(0.166444 -0.0697772 0)
(0.185207 -0.0798528 0)
(0.20699 -0.090439 0)
(0.231363 -0.100971 0)
(0.257701 -0.110887 0)
(0.28532 -0.119738 0)
(0.313582 -0.127223 0)
(0.341942 -0.133189 0)
(0.369962 -0.137602 0)
(0.397312 -0.140514 0)
(0.423748 -0.14203 0)
(0.449102 -0.142286 0)
(0.473266 -0.141434 0)
(0.496176 -0.139623 0)
(0.5178 -0.137 0)
(0.538134 -0.133698 0)
(0.557194 -0.129839 0)
(0.575005 -0.125531 0)
(0.591605 -0.120867 0)
(0.607036 -0.115929 0)
(0.621346 -0.110785 0)
(0.634584 -0.105493 0)
(0.646799 -0.100103 0)
(0.658041 -0.0946547 0)
(0.668361 -0.0891822 0)
(0.677805 -0.0837126 0)
(0.686421 -0.0782681 0)
(0.694253 -0.0728664 0)
(0.701346 -0.0675216 0)
(0.70774 -0.0622445 0)
(0.713475 -0.0570435 0)
(0.718589 -0.0519246 0)
(0.723117 -0.0468924 0)
(0.727096 -0.0419495 0)
(0.730557 -0.0370977 0)
(0.733531 -0.0323374 0)
(0.73605 -0.0276685 0)
(0.738142 -0.0230898 0)
(0.739835 -0.0185999 0)
(0.741155 -0.0141965 0)
(0.742129 -0.00987711 0)
(0.742782 -0.00563888 0)
(0.743138 -0.00147854 0)
(0.743222 0.00260923 0)
(0.743055 0.00663088 0)
(0.74266 0.0105931 0)
(0.74206 0.0145023 0)
(0.741276 0.0183647 0)
(0.740329 0.0221863 0)
(0.73924 0.0259731 0)
(0.738031 0.0297308 0)
(0.736722 0.0334649 0)
(0.735333 0.0371802 0)
(0.733885 0.0408815 0)
(0.732396 0.0445726 0)
(0.730888 0.0482567 0)
(0.729377 0.0519363 0)
(0.727881 0.0556125 0)
(0.726418 0.0592858 0)
(0.725003 0.0629552 0)
(0.72365 0.0666185 0)
(0.72237 0.0702722 0)
(0.721175 0.0739116 0)
(0.720071 0.0775308 0)
(0.719064 0.081123 0)
(0.718156 0.0846803 0)
(0.717348 0.0881947 0)
(0.716636 0.0916576 0)
(0.716014 0.0950609 0)
(0.715474 0.0983967 0)
(0.715006 0.101658 0)
(0.714597 0.10484 0)
(0.714233 0.107942 0)
(0.0987968 -0.00970109 0)
(0.102305 -0.0193 0)
(0.106719 -0.0276771 0)
(0.112196 -0.0353854 0)
(0.119197 -0.0428694 0)
(0.128015 -0.0506344 0)
(0.139131 -0.0592448 0)
(0.153176 -0.0691263 0)
(0.17064 -0.0803557 0)
(0.191617 -0.0925904 0)
(0.215754 -0.105186 0)
(0.242384 -0.117406 0)
(0.270715 -0.12861 0)
(0.299981 -0.138337 0)
(0.329519 -0.146327 0)
(0.358803 -0.152484 0)
(0.387433 -0.156834 0)
(0.415121 -0.159484 0)
(0.441671 -0.160587 0)