/*--------------------------------*- C++ -*----------------------------------*\
  =========                 |
  \\      /  F ield         | OpenFOAM: The Open Source CFD Toolbox
   \\    /   O peration     | Website:  https://openfoam.org
    \\  /    A nd           | Version:  7
     \\/     M anipulation  |
\*---------------------------------------------------------------------------*/
FoamFile
{
    version     2.0;
    format      ascii;
    class       surfaceScalarField;
    location    "0.4";
    object      phi;
}
// * * * * * * * * * * * * * * * * * * * * * * * * * * * * * * * * * * * * * //

dimensions      [1 0 -1 0 0 0 0];

internalField   nonuniform List<scalar> 
23692
(
1.16435e-05
-8.52775e-09
1.16498e-05
-6.27101e-09
1.16496e-05
2.89545e-10
1.16446e-05
5.02833e-09
1.1639e-05
5.74184e-09
1.16356e-05
3.59051e-09
1.16354e-05
5.02953e-10
1.1638e-05
-2.34155e-09
1.16431e-05
-4.66946e-09
1.16504e-05
-6.69435e-09
1.16598e-05
-8.73093e-09
1.16717e-05
-1.10105e-08
1.16864e-05
-1.36564e-08
1.17045e-05
-1.67164e-08
1.17263e-05
-2.02022e-08
1.17524e-05
-2.41125e-08
1.17832e-05
-2.84451e-08
1.18193e-05
-3.32005e-08
1.1861e-05
-3.83844e-08
1.1909e-05
-4.40076e-08
1.19636e-05
-5.0084e-08
1.20255e-05
-5.66275e-08
1.20953e-05
-6.36523e-08
1.21734e-05
-7.11723e-08
1.22604e-05
-7.92003e-08
1.2357e-05
-8.7747e-08
1.24636e-05
-9.68186e-08
1.2581e-05
-1.06417e-07
1.27096e-05
-1.1654e-07
1.28501e-05
-1.27175e-07
1.30029e-05
-1.38306e-07
1.31686e-05
-1.49908e-07
1.33477e-05
-1.61949e-07
1.35405e-05
-1.74389e-07
1.37474e-05
-1.87179e-07
1.39686e-05
-2.00266e-07
1.42046e-05
-2.13587e-07
1.44553e-05
-2.27073e-07
1.47208e-05
-2.40652e-07
1.50011e-05
-2.54244e-07
1.52961e-05
-2.67765e-07
1.56057e-05
-2.81128e-07
1.59294e-05
-2.94242e-07
1.62669e-05
-3.07013e-07
1.66176e-05
-3.19344e-07
1.6981e-05
-3.31137e-07
1.73564e-05
-3.4229e-07
1.77428e-05
-3.52701e-07
1.81395e-05
-3.62265e-07
1.85453e-05
-3.70878e-07
1.89592e-05
-3.78435e-07
1.93798e-05
-3.84827e-07
1.98058e-05
-3.89946e-07
2.02358e-05
-3.93682e-07
2.06682e-05
-3.95924e-07
2.11013e-05
-3.96556e-07
2.15333e-05
-3.95457e-07
2.19622e-05
-3.92501e-07
2.23861e-05
-3.87553e-07
2.28028e-05
-3.80465e-07
2.32098e-05
-3.71072e-07
2.36046e-05
-3.59187e-07
2.39845e-05
-3.44594e-07
2.43464e-05
-3.27038e-07
2.46871e-05
-3.06207e-07
2.50029e-05
-2.8172e-07
2.52896e-05
-2.53097e-07
2.55424e-05
-2.19724e-07
2.57557e-05
-1.808e-07
2.5923e-05
-1.35259e-07
2.60361e-05
-8.16633e-08
2.6085e-05
-1.80241e-08
2.60566e-05
5.87674e-08
2.59327e-05
1.53595e-07
2.56878e-05
2.73935e-07
2.52844e-05
4.3185e-07
2.46646e-05
6.47714e-07
2.37342e-05
9.57497e-07
2.23302e-05
1.43047e-06
2.01377e-05
2.2182e-06
3.79579e-06
1.63668e-05
1.24592e-05
-1.78171e-08
1.24663e-05
-1.32812e-08
1.24663e-05
2.75623e-10
1.24613e-05
1.01791e-08
1.24554e-05
1.1777e-08
1.24518e-05
7.42447e-09
1.24514e-05
1.09414e-09
1.24542e-05
-4.7717e-09
1.24596e-05
-9.58975e-09
1.24673e-05
-1.37907e-08
1.24773e-05
-1.80138e-08
1.249e-05
-2.27335e-08
1.25057e-05
-2.82036e-08
1.25249e-05
-3.45226e-08
1.25482e-05
-4.17145e-08
1.2576e-05
-4.97781e-08
1.26088e-05
-5.87083e-08
1.26471e-05
-6.85065e-08
1.26915e-05
-7.91846e-08
1.27425e-05
-9.07637e-08
1.28006e-05
-1.03272e-07
1.28663e-05
-1.16738e-07
1.29404e-05
-1.31191e-07
1.30233e-05
-1.46659e-07
1.31156e-05
-1.63166e-07
1.3218e-05
-1.80734e-07
1.33311e-05
-1.99377e-07
1.34555e-05
-2.19097e-07
1.35918e-05
-2.39886e-07
1.37406e-05
-2.61723e-07
1.39024e-05
-2.8457e-07
1.40777e-05
-3.08376e-07
1.42671e-05
-3.33074e-07
1.4471e-05
-3.58582e-07
1.46897e-05
-3.84801e-07
1.49236e-05
-4.11616e-07
1.51728e-05
-4.389e-07
1.54375e-05
-4.66512e-07
1.57177e-05
-4.94299e-07
1.60135e-05
-5.221e-07
1.63247e-05
-5.49741e-07
1.6651e-05
-5.77042e-07
1.69921e-05
-6.03816e-07
1.73475e-05
-6.2987e-07
1.77168e-05
-6.55004e-07
1.80992e-05
-6.79016e-07
1.8494e-05
-7.01698e-07
1.89003e-05
-7.22839e-07
1.9317e-05
-7.42224e-07
1.97432e-05
-7.5964e-07
2.01775e-05
-7.74869e-07
2.06187e-05
-7.87692e-07
2.10653e-05
-7.97885e-07
2.15157e-05
-8.05225e-07
2.19683e-05
-8.09484e-07
2.24212e-05
-8.10426e-07
2.28727e-05
-8.07806e-07
2.33206e-05
-8.01367e-07
2.37628e-05
-7.90837e-07
2.4197e-05
-7.75915e-07
2.46206e-05
-7.5627e-07
2.50311e-05
-7.31528e-07
2.54256e-05
-7.01256e-07
2.58009e-05
-6.64944e-07
2.61536e-05
-6.21977e-07
2.648e-05
-5.71606e-07
2.67758e-05
-5.1289e-07
2.70361e-05
-4.44637e-07
2.72555e-05
-3.65301e-07
2.74274e-05
-2.72851e-07
2.7544e-05
-1.64561e-07
2.75958e-05
-3.6683e-08
2.75708e-05
1.16284e-07
2.74537e-05
3.0249e-07
2.7225e-05
5.33912e-07
2.68587e-05
8.28643e-07
2.63218e-05
1.2145e-06
2.55741e-05
1.73437e-06
2.45782e-05
2.4549e-06
2.33556e-05
3.46846e-06
4.78779e-06
2.23906e-05
1.33322e-05
-2.80409e-08
1.33404e-05
-2.14458e-08
1.33412e-05
-4.87407e-10
1.33365e-05
1.50781e-08
1.33305e-05
1.79077e-08
1.33266e-05
1.14703e-08
1.33262e-05
1.83829e-09
1.3329e-05
-7.19807e-09
1.33346e-05
-1.46871e-08
1.33426e-05
-2.12474e-08
1.33533e-05
-2.78389e-08
1.33667e-05
-3.51828e-08
1.33834e-05
-4.36672e-08
1.34039e-05
-5.34474e-08
1.34286e-05
-6.4563e-08
1.34581e-05
-7.70126e-08
1.34929e-05
-9.07901e-08
1.35336e-05
-1.05898e-07
1.35806e-05
-1.22354e-07
1.36345e-05
-1.40191e-07
1.36959e-05
-1.5945e-07
1.37654e-05
-1.80174e-07
1.38436e-05
-2.02408e-07
1.3931e-05
-2.26191e-07
1.40284e-05
-2.51561e-07
1.41363e-05
-2.78549e-07
1.42553e-05
-3.07174e-07
1.43862e-05
-3.37439e-07
1.45295e-05
-3.69328e-07
1.46858e-05
-4.02806e-07
1.48556e-05
-4.37815e-07
1.50396e-05
-4.74274e-07
1.52382e-05
-5.12078e-07
1.54517e-05
-5.51099e-07
1.56807e-05
-5.91182e-07
1.59253e-05
-6.32149e-07
1.61857e-05
-6.73804e-07
1.64622e-05
-7.1593e-07
1.67546e-05
-7.58292e-07
1.7063e-05
-8.00636e-07
1.73872e-05
-8.42699e-07
1.77269e-05
-8.84201e-07
1.80816e-05
-9.24856e-07
1.8451e-05
-9.64364e-07
1.88344e-05
-1.00242e-06
1.9231e-05
-1.03872e-06
1.96401e-05
-1.07293e-06
2.00607e-05
-1.10474e-06
2.04917e-05
-1.13381e-06
2.09319e-05
-1.15982e-06
2.138e-05
-1.18244e-06
2.18347e-05
-1.20133e-06
2.22943e-05
-1.21615e-06
2.27572e-05
-1.22656e-06
2.32218e-05
-1.23222e-06
2.3686e-05
-1.23276e-06
2.41479e-05
-1.22783e-06
2.46054e-05
-1.21703e-06
2.50562e-05
-1.19995e-06
2.54979e-05
-1.17615e-06
2.5928e-05
-1.14513e-06
2.63437e-05
-1.10635e-06
2.67422e-05
-1.05916e-06
2.71201e-05
-1.00283e-06
2.74743e-05
-9.36463e-07
2.78008e-05
-8.58991e-07
2.80956e-05
-7.6908e-07
2.8354e-05
-6.6506e-07
2.8571e-05
-5.44799e-07
2.87405e-05
-4.05537e-07
2.88558e-05
-2.43639e-07
2.89089e-05
-5.42432e-08
2.88908e-05
1.69324e-07
2.87914e-05
4.36204e-07
2.85999e-05
7.58931e-07
2.83067e-05
1.15473e-06
2.79066e-05
1.64686e-06
2.74073e-05
2.26514e-06
2.68506e-05
3.0424e-06
2.63574e-05
3.99177e-06
5.01476e-06
2.61598e-05
1.42665e-05
-3.94293e-08
1.42763e-05
-3.1226e-08
1.42785e-05
-2.57943e-09
1.42745e-05
1.92424e-08
1.42687e-05
2.38667e-08
1.42647e-05
1.56698e-08
1.4264e-05
2.80246e-09
1.42667e-05
-9.51566e-09
1.42724e-05
-1.98725e-08
1.42809e-05
-2.90153e-08
1.42921e-05
-3.81962e-08
1.43064e-05
-4.83761e-08
1.43241e-05
-6.00828e-08
1.43458e-05
-7.35326e-08
1.4372e-05
-8.87859e-08
1.44033e-05
-1.05845e-07
1.44401e-05
-1.24704e-07
1.44831e-05
-1.45367e-07
1.45327e-05
-1.67859e-07
1.45895e-05
-1.92222e-07
1.46542e-05
-2.18513e-07
1.47273e-05
-2.46787e-07
1.48094e-05
-2.77102e-07
1.49012e-05
-3.0951e-07
1.50032e-05
-3.44061e-07
1.51163e-05
-3.80791e-07
1.52409e-05
-4.19723e-07
1.53777e-05
-4.60857e-07
1.55273e-05
-5.04169e-07
1.56904e-05
-5.49606e-07
1.58674e-05
-5.97086e-07
1.60589e-05
-6.46494e-07
1.62655e-05
-6.97684e-07
1.64873e-05
-7.50476e-07
1.67249e-05
-8.04658e-07
1.69785e-05
-8.59986e-07
1.72482e-05
-9.16188e-07
1.75342e-05
-9.72967e-07
1.78363e-05
-1.03e-06
1.81546e-05
-1.08694e-06
1.84887e-05
-1.14343e-06
1.88383e-05
-1.19908e-06
1.92031e-05
-1.25351e-06
1.95823e-05
-1.30631e-06
1.99754e-05
-1.35706e-06
2.03816e-05
-1.40534e-06
2.07999e-05
-1.45071e-06
2.12293e-05
-1.49274e-06
2.16687e-05
-1.53098e-06
2.21167e-05
-1.565e-06
2.2572e-05
-1.59433e-06
2.30331e-05
-1.61853e-06
2.34984e-05
-1.63714e-06
2.39662e-05
-1.64972e-06
2.44345e-05
-1.65578e-06
2.49015e-05
-1.65487e-06
2.53651e-05
-1.64649e-06
2.5823e-05
-1.63013e-06
2.6273e-05
-1.60525e-06
2.67127e-05
-1.57128e-06
2.71393e-05
-1.52757e-06
2.75503e-05
-1.47342e-06
2.79427e-05
-1.40803e-06
2.83133e-05
-1.33045e-06
2.8659e-05
-1.23958e-06
2.89762e-05
-1.13412e-06
2.9261e-05
-1.01244e-06
2.95095e-05
-8.72572e-07
2.9717e-05
-7.12039e-07
2.98788e-05
-5.27713e-07
2.99897e-05
-3.15602e-07
3.00444e-05
-7.0585e-08
3.00375e-05
2.13871e-07
2.99648e-05
5.45888e-07
2.98243e-05
9.35604e-07
2.96193e-05
1.39534e-06
2.93619e-05
1.9391e-06
2.90809e-05
2.5803e-06
2.88316e-05
3.32513e-06
2.87015e-05
4.15474e-06
4.98269e-06
2.87657e-05
1.52664e-05
-5.22185e-08
1.52784e-05
-4.31386e-08
1.52825e-05
-6.6608e-09
1.52798e-05
2.2101e-08
1.52745e-05
2.93201e-08
1.52705e-05
1.99262e-08
1.52696e-05
4.04094e-09
1.52721e-05
-1.1614e-08
1.52778e-05
-2.50482e-08
1.52866e-05
-3.70355e-08
1.52984e-05
-4.90671e-08
1.53135e-05
-6.23263e-08
1.53323e-05
-7.74806e-08
1.53553e-05
-9.48148e-08
1.53831e-05
-1.14416e-07
1.54161e-05
-1.36296e-07
1.5455e-05
-1.60451e-07
1.55002e-05
-1.86891e-07
1.55524e-05
-2.15646e-07
1.56121e-05
-2.46772e-07
1.56799e-05
-2.80334e-07
1.57564e-05
-3.16403e-07
1.58423e-05
-3.55048e-07
1.59381e-05
-3.96331e-07
1.60446e-05
-4.40311e-07
1.61624e-05
-4.87028e-07
1.6292e-05
-5.36504e-07
1.64342e-05
-5.88734e-07
1.65895e-05
-6.4368e-07
1.67586e-05
-7.01269e-07
1.69419e-05
-7.61389e-07
1.71399e-05
-8.2389e-07
1.73531e-05
-8.88578e-07
1.75819e-05
-9.55218e-07
1.78266e-05
-1.02354e-06
1.80873e-05
-1.09322e-06
1.83643e-05
-1.16391e-06
1.86574e-05
-1.23523e-06
1.89667e-05
-1.30677e-06
1.9292e-05
-1.37808e-06
1.9633e-05
-1.4487e-06
1.99893e-05
-1.51816e-06
2.03603e-05
-1.58593e-06
2.07454e-05
-1.65152e-06
2.11439e-05
-1.71439e-06
2.15549e-05
-1.774e-06
2.19774e-05
-1.82981e-06
2.24102e-05
-1.88125e-06
2.28521e-05
-1.92778e-06
2.33018e-05
-1.96882e-06
2.37579e-05
-2.00382e-06
2.42186e-05
-2.03221e-06
2.46823e-05
-2.05342e-06
2.51473e-05
-2.06689e-06
2.56115e-05
-2.07203e-06
2.60731e-05
-2.06827e-06
2.65298e-05
-2.05501e-06
2.69794e-05
-2.03162e-06
2.74196e-05
-1.99747e-06
2.78479e-05
-1.95184e-06
2.82619e-05
-1.89399e-06
2.86587e-05
-1.8231e-06
2.90357e-05
-1.73822e-06
2.93898e-05
-1.63829e-06
2.97181e-05
-1.52209e-06
3.00174e-05
-1.38815e-06
3.02844e-05
-1.23476e-06
3.05157e-05
-1.05983e-06
3.07079e-05
-8.6083e-07
3.08576e-05
-6.34684e-07
3.09617e-05
-3.77616e-07
3.10176e-05
-8.50402e-08
3.10237e-05
2.48449e-07
3.09808e-05
6.28785e-07
3.08932e-05
1.06245e-06
3.07711e-05
1.55605e-06
3.06329e-05
2.11513e-06
3.05088e-05
2.74162e-06
3.04416e-05
3.42885e-06
3.04803e-05
4.15196e-06
4.85156e-06
3.06467e-05
1.63365e-05
-6.66357e-08
1.63511e-05
-5.77055e-08
1.63579e-05
-1.34206e-08
1.63571e-05
2.30357e-08
1.63528e-05
3.38747e-08
1.63489e-05
2.40909e-08
1.63477e-05
5.57394e-09
1.63499e-05
-1.34035e-08
1.63556e-05
-3.01216e-08
1.63646e-05
-4.52464e-08
1.63769e-05
-6.04263e-08
1.63928e-05
-7.70365e-08
1.64127e-05
-9.58796e-08
1.64371e-05
-1.17316e-07
1.64664e-05
-1.4147e-07
1.65013e-05
-1.68367e-07
1.65422e-05
-1.98011e-07
1.65897e-05
-2.3042e-07
1.66443e-05
-2.65632e-07
1.67068e-05
-3.03714e-07
1.67775e-05
-3.44743e-07
1.68573e-05
-3.888e-07
1.69467e-05
-4.35963e-07
1.70463e-05
-4.86305e-07
1.71568e-05
-5.39886e-07
1.72789e-05
-5.96751e-07
1.7413e-05
-6.56915e-07
1.75599e-05
-7.20363e-07
1.77202e-05
-7.87039e-07
1.78943e-05
-8.56844e-07
1.80828e-05
-9.29634e-07
1.82862e-05
-1.00521e-06
1.85048e-05
-1.08334e-06
1.8739e-05
-1.16372e-06
1.8989e-05
-1.246e-06
1.9255e-05
-1.32981e-06
1.9537e-05
-1.4147e-06
1.9835e-05
-1.50021e-06
2.01489e-05
-1.58582e-06
2.04783e-05
-1.671e-06
2.0823e-05
-1.75518e-06
2.11823e-05
-1.83777e-06
2.15559e-05
-1.91816e-06
2.19427e-05
-1.99571e-06
2.23422e-05
-2.06979e-06
2.27532e-05
-2.13975e-06
2.31747e-05
-2.20491e-06
2.36055e-05
-2.26461e-06
2.40443e-05
-2.31817e-06
2.44895e-05
-2.36493e-06
2.49398e-05
-2.4042e-06
2.53933e-05
-2.43531e-06
2.58483e-05
-2.45759e-06
2.63031e-05
-2.47037e-06
2.67555e-05
-2.47296e-06
2.72036e-05
-2.46469e-06
2.76452e-05
-2.44487e-06
2.8078e-05
-2.41278e-06
2.84998e-05
-2.36768e-06
2.89081e-05
-2.3088e-06
2.93005e-05
-2.2353e-06
2.96744e-05
-2.14629e-06
3.00273e-05
-2.04075e-06
3.03564e-05
-1.91759e-06
3.06592e-05
-1.77553e-06
3.0933e-05
-1.61312e-06
3.11751e-05
-1.42868e-06
3.13831e-05
-1.22026e-06
3.15547e-05
-9.85558e-07
3.16882e-05
-7.21912e-07
3.17824e-05
-4.2622e-07
3.18371e-05
-9.49621e-08
3.18541e-05
2.75659e-07
3.18372e-05
6.89076e-07
3.17941e-05
1.1482e-06
3.17372e-05
1.65497e-06
3.16845e-05
2.20923e-06
3.16598e-05
2.80697e-06
3.16911e-05
3.43753e-06
3.1803e-05
4.07945e-06
4.69577e-06
3.19976e-05
1.74816e-05
-8.28683e-08
1.74993e-05
-7.53877e-08
1.75095e-05
-2.34974e-08
1.75112e-05
2.14322e-08
1.75082e-05
3.70981e-08
1.75046e-05
2.79529e-08
1.75032e-05
7.35882e-09
1.75051e-05
-1.48395e-08
1.75107e-05
-3.50263e-08
1.75198e-05
-5.35936e-08
1.75327e-05
-7.22442e-08
1.75494e-05
-9.24958e-08
1.75704e-05
-1.15278e-07
1.75962e-05
-1.41034e-07
1.76271e-05
-1.69931e-07
1.76637e-05
-2.02019e-07
1.77065e-05
-2.37317e-07
1.77562e-05
-2.75851e-07
1.78132e-05
-3.17673e-07
1.78782e-05
-3.62857e-07
1.79518e-05
-4.11493e-07
1.80345e-05
-4.6367e-07
1.81271e-05
-5.19473e-07
1.823e-05
-5.7898e-07
1.83441e-05
-6.42254e-07
1.84698e-05
-7.09333e-07
1.86077e-05
-7.80225e-07
1.87586e-05
-8.54897e-07
1.89228e-05
-9.33272e-07
1.9101e-05
-1.01522e-06
1.92936e-05
-1.10055e-06
1.95009e-05
-1.18903e-06
1.97234e-05
-1.28035e-06
1.99613e-05
-1.37416e-06
2.02148e-05
-1.47004e-06
2.04839e-05
-1.56751e-06
2.07686e-05
-1.66608e-06
2.10688e-05
-1.76515e-06
2.13843e-05
-1.86415e-06
2.17147e-05
-1.96241e-06
2.20596e-05
-2.05928e-06
2.24184e-05
-2.15404e-06
2.27904e-05
-2.24598e-06
2.31747e-05
-2.33436e-06
2.35705e-05
-2.41842e-06
2.39766e-05
-2.4974e-06
2.43918e-05
-2.5705e-06
2.4815e-05
-2.63696e-06
2.52446e-05
-2.696e-06
2.56791e-05
-2.74682e-06
2.6117e-05
-2.78864e-06
2.65564e-05
-2.8207e-06
2.69956e-05
-2.84223e-06
2.74327e-05
-2.85245e-06
2.78656e-05
-2.85061e-06
2.82924e-05
-2.83594e-06
2.87107e-05
-2.80768e-06
2.91186e-05
-2.76505e-06
2.95136e-05
-2.70725e-06
2.98935e-05
-2.63346e-06
3.02561e-05
-2.54282e-06
3.05988e-05
-2.4344e-06
3.09196e-05
-2.30722e-06
3.1216e-05
-2.16019e-06
3.14859e-05
-1.99212e-06
3.17272e-05
-1.8017e-06
3.19381e-05
-1.58746e-06
3.2117e-05
-1.34775e-06
3.22631e-05
-1.08075e-06
3.23758e-05
-7.84461e-07
3.24557e-05
-4.56711e-07
3.25047e-05
-9.52435e-08
3.25263e-05
3.02099e-07
3.25262e-05
7.36493e-07
3.25129e-05
1.20806e-06
3.24982e-05
1.71562e-06
3.24967e-05
2.25601e-06
3.25252e-05
2.82305e-06
3.26003e-05
3.40639e-06
3.2733e-05
3.99015e-06
4.55246e-06
3.29191e-05
1.87069e-05
-1.01043e-07
1.87281e-05
-9.65271e-08
1.87421e-05
-3.74047e-08
1.87469e-05
1.67447e-08
1.87457e-05
3.85476e-08
1.87427e-05
3.12354e-08
1.87412e-05
9.27061e-09
1.87428e-05
-1.59468e-08
1.87482e-05
-3.97389e-08
1.87575e-05
-6.20421e-08
1.87708e-05
-8.44861e-08
1.87884e-05
-1.08674e-07
1.88105e-05
-1.35644e-07
1.88375e-05
-1.65924e-07
1.88699e-05
-1.99736e-07
1.89082e-05
-2.37162e-07
1.89529e-05
-2.7824e-07
1.90046e-05
-3.23013e-07
1.90638e-05
-3.71545e-07
1.91311e-05
-4.23921e-07
1.92071e-05
-4.80238e-07
1.92924e-05
-5.40593e-07
1.93876e-05
-6.05077e-07
1.94934e-05
-6.73768e-07
1.96103e-05
-7.46725e-07
1.97389e-05
-8.23978e-07
1.98799e-05
-9.05518e-07
2.00336e-05
-9.91292e-07
2.02008e-05
-1.08119e-06
2.03817e-05
-1.17505e-06
2.05769e-05
-1.27263e-06
2.07866e-05
-1.37364e-06
2.10112e-05
-1.47772e-06
2.12507e-05
-1.58444e-06
2.15054e-05
-1.6933e-06
2.17751e-05
-1.80376e-06
2.20599e-05
-1.91521e-06
2.23594e-05
-2.02698e-06
2.26733e-05
-2.13838e-06
2.30012e-05
-2.24866e-06
2.33426e-05
-2.35703e-06
2.36966e-05
-2.46271e-06
2.40627e-05
-2.56484e-06
2.44397e-05
-2.66258e-06
2.48268e-05
-2.75506e-06
2.52226e-05
-2.84141e-06
2.5626e-05
-2.92073e-06
2.60356e-05
-2.99214e-06
2.64498e-05
-3.05475e-06
2.68671e-05
-3.10768e-06
2.72858e-05
-3.15006e-06
2.77041e-05
-3.18102e-06
2.81201e-05
-3.19971e-06
2.8532e-05
-3.20528e-06
2.89377e-05
-3.19692e-06
2.93351e-05
-3.17379e-06
2.97223e-05
-3.13509e-06
3.0097e-05
-3.08001e-06
3.04572e-05
-3.00772e-06
3.08007e-05
-2.91741e-06
3.11254e-05
-2.80822e-06
3.14293e-05
-2.67929e-06
3.17104e-05
-2.52969e-06
3.19668e-05
-2.35848e-06
3.2197e-05
-2.16464e-06
3.23995e-05
-1.9471e-06
3.25733e-05
-1.70474e-06
3.27177e-05
-1.43636e-06
3.28329e-05
-1.14076e-06
3.29197e-05
-8.16711e-07
3.29798e-05
-4.63027e-07
3.30163e-05
-7.85978e-08
3.30335e-05
3.37314e-07
3.30377e-05
7.84048e-07
3.30369e-05
1.25986e-06
3.3041e-05
1.7619e-06
3.30608e-05
2.28582e-06
3.31076e-05
2.82536e-06
3.31905e-05
3.37194e-06
3.3314e-05
3.91461e-06
4.44066e-06
3.34731e-05
2.00179e-05
-1.21204e-07
2.00428e-05
-1.21301e-07
2.00609e-05
-5.54704e-08
2.00693e-05
8.55395e-09
2.00702e-05
3.78093e-08
2.00682e-05
3.36109e-08
2.00668e-05
1.10996e-08
2.00682e-05
-1.68295e-08
2.00735e-05
-4.429e-08
2.00829e-05
-7.05768e-08
2.00967e-05
-9.71131e-08
2.0115e-05
-1.25515e-07
2.01381e-05
-1.56903e-07
2.01664e-05
-1.9189e-07
2.02001e-05
-2.30758e-07
2.024e-05
-2.7363e-07
2.02863e-05
-3.20571e-07
2.03397e-05
-3.71642e-07
2.04008e-05
-4.26924e-07
2.047e-05
-4.8651e-07
2.0548e-05
-5.50506e-07
2.06354e-05
-6.19013e-07
2.07327e-05
-6.92122e-07
2.08405e-05
-7.69909e-07
2.09594e-05
-8.52425e-07
2.10901e-05
-9.39683e-07
2.12328e-05
-1.03165e-06
2.13883e-05
-1.12825e-06
2.1557e-05
-1.22934e-06
2.17391e-05
-1.33469e-06
2.19351e-05
-1.44404e-06
2.21453e-05
-1.55701e-06
2.23697e-05
-1.67319e-06
2.26086e-05
-1.79207e-06
2.28618e-05
-1.91307e-06
2.31293e-05
-2.03556e-06
2.34109e-05
-2.15883e-06
2.37063e-05
-2.28214e-06
2.4015e-05
-2.40468e-06
2.43364e-05
-2.5256e-06
2.46699e-05
-2.64402e-06
2.50148e-05
-2.75901e-06
2.537e-05
-2.86965e-06
2.57346e-05
-2.97498e-06
2.61074e-05
-3.07401e-06
2.64873e-05
-3.16577e-06
2.68727e-05
-3.24926e-06
2.72623e-05
-3.32351e-06
2.76544e-05
-3.38752e-06
2.80476e-05
-3.44034e-06
2.84399e-05
-3.481e-06
2.88297e-05
-3.50857e-06
2.92149e-05
-3.52213e-06
2.95939e-05
-3.52079e-06
2.99644e-05
-3.50368e-06
3.03247e-05
-3.46994e-06
3.06727e-05
-3.41875e-06
3.10064e-05
-3.34929e-06
3.13238e-05
-3.26078e-06
3.16231e-05
-3.15244e-06
3.19023e-05
-3.02348e-06
3.21599e-05
-2.87314e-06
3.23943e-05
-2.70067e-06
3.26041e-05
-2.5053e-06
3.27882e-05
-2.28628e-06
3.29459e-05
-2.04288e-06
3.30769e-05
-1.77439e-06
3.31815e-05
-1.48016e-06
3.32604e-05
-1.15963e-06
3.33155e-05
-8.12371e-07
3.33493e-05
-4.38062e-07
3.33651e-05
-3.6294e-08
3.33674e-05
3.92367e-07
3.33624e-05
8.45715e-07
3.33572e-05
1.32108e-06
3.33595e-05
1.81497e-06
3.33771e-05
2.32293e-06
3.34172e-05
2.83941e-06
3.34849e-05
3.3578e-06
3.35818e-05
3.87069e-06
4.37073e-06
3.37042e-05
2.14206e-05
-1.4332e-07
2.14491e-05
-1.49713e-07
2.14715e-05
-7.78106e-08
2.14837e-05
-3.39667e-09
2.14872e-05
3.45361e-08
2.14864e-05
3.47314e-08
2.14854e-05
1.25697e-08
2.14868e-05
-1.76634e-08
2.1492e-05
-4.87599e-08
2.15016e-05
-7.92044e-08
2.15158e-05
-1.10077e-07
2.15348e-05
-1.42928e-07
2.15588e-05
-1.7893e-07
2.15881e-05
-2.18768e-07
2.1623e-05
-2.62792e-07
2.16641e-05
-3.11169e-07
2.17118e-05
-3.63998e-07
2.17667e-05
-4.21363e-07
2.18291e-05
-4.83359e-07
2.18998e-05
-5.50093e-07
2.19792e-05
-6.21673e-07
2.20679e-05
-6.98202e-07
2.21664e-05
-7.79769e-07
2.22754e-05
-8.66442e-07
2.23953e-05
-9.58256e-07
2.25267e-05
-1.0552e-06
2.267e-05
-1.15722e-06
2.28256e-05
-1.2642e-06
2.2994e-05
-1.37594e-06
2.31755e-05
-1.49219e-06
2.33702e-05
-1.61259e-06
2.35785e-05
-1.73673e-06
2.38002e-05
-1.86411e-06
2.40355e-05
-1.99413e-06
2.42843e-05
-2.12616e-06
2.45463e-05
-2.25945e-06
2.48211e-05
-2.39321e-06
2.51084e-05
-2.5266e-06
2.54076e-05
-2.6587e-06
2.57181e-05
-2.78858e-06
2.6039e-05
-2.91524e-06
2.63694e-05
-3.03766e-06
2.67084e-05
-3.15481e-06
2.70549e-05
-3.26562e-06
2.74075e-05
-3.36901e-06
2.77649e-05
-3.46392e-06
2.81258e-05
-3.54925e-06
2.84885e-05
-3.62393e-06
2.88516e-05
-3.68692e-06
2.92132e-05
-3.73715e-06
2.95716e-05
-3.77362e-06
2.99252e-05
-3.79534e-06
3.02719e-05
-3.80134e-06
3.06099e-05
-3.7907e-06
3.09374e-05
-3.76254e-06
3.12525e-05
-3.71601e-06
3.15533e-05
-3.6503e-06
3.1838e-05
-3.56464e-06
3.2105e-05
-3.4583e-06
3.23526e-05
-3.3306e-06
3.25792e-05
-3.18089e-06
3.27836e-05
-3.00857e-06
3.29647e-05
-2.81308e-06
3.31216e-05
-2.59392e-06
3.32538e-05
-2.35065e-06
3.33611e-05
-2.08294e-06
3.3444e-05
-1.79052e-06
3.35033e-05
-1.47327e-06
3.35405e-05
-1.13123e-06
3.35577e-05
-7.64633e-07
3.35577e-05
-3.73823e-07
3.35441e-05
4.09274e-08
3.35216e-05
4.77915e-07
3.34954e-05
9.34156e-07
3.34716e-05
1.40655e-06
3.34561e-05
1.89153e-06
3.34544e-05
2.38497e-06
3.34714e-05
2.88226e-06
3.351e-05
3.37841e-06
3.3571e-05
3.86839e-06
4.34788e-06
3.36521e-05
2.29213e-05
-1.67296e-07
2.29533e-05
-1.81612e-07
2.29799e-05
-1.04343e-07
2.29959e-05
-1.91878e-08
2.30022e-05
2.84816e-08
2.3003e-05
3.42726e-08
2.30027e-05
1.33772e-08
2.30043e-05
-1.86654e-08
2.30096e-05
-5.32587e-08
2.30194e-05
-8.79356e-08
2.3034e-05
-1.23308e-07
2.30535e-05
-1.60779e-07
2.30781e-05
-2.01534e-07
2.31082e-05
-2.46316e-07
2.31441e-05
-2.95537e-07
2.31861e-05
-3.49418e-07
2.32348e-05
-4.08091e-07
2.32905e-05
-4.71668e-07
2.33538e-05
-5.4026e-07
2.34252e-05
-6.1398e-07
2.35052e-05
-6.92942e-07
2.35943e-05
-7.77245e-07
2.36931e-05
-8.66972e-07
2.38021e-05
-9.62177e-07
2.39216e-05
-1.06287e-06
2.40523e-05
-1.16902e-06
2.41944e-05
-1.28053e-06
2.43484e-05
-1.39723e-06
2.45145e-05
-1.51889e-06
2.4693e-05
-1.64519e-06
2.4884e-05
-1.77571e-06
2.50875e-05
-1.90996e-06
2.53036e-05
-2.04736e-06
2.55321e-05
-2.18726e-06
2.57728e-05
-2.32889e-06
2.60253e-05
-2.47145e-06
2.62893e-05
-2.61405e-06
2.65641e-05
-2.75575e-06
2.6849e-05
-2.89553e-06
2.71434e-05
-3.03236e-06
2.74463e-05
-3.16515e-06
2.77567e-05
-3.29278e-06
2.80735e-05
-3.41412e-06
2.83955e-05
-3.52801e-06
2.87213e-05
-3.63329e-06
2.90495e-05
-3.72879e-06
2.93788e-05
-3.81336e-06
2.97074e-05
-3.88585e-06
3.00337e-05
-3.94514e-06
3.03562e-05
-3.99014e-06
3.06729e-05
-4.01978e-06
3.09823e-05
-4.03305e-06
3.12824e-05
-4.02897e-06
3.15716e-05
-4.00663e-06
3.1848e-05
-3.96514e-06
3.211e-05
-3.9037e-06
3.23559e-05
-3.82156e-06
3.25842e-05
-3.71803e-06
3.27934e-05
-3.59249e-06
3.29821e-05
-3.44439e-06
3.31494e-05
-3.27327e-06
3.32943e-05
-3.07871e-06
3.34161e-05
-2.86043e-06
3.35146e-05
-2.61821e-06
3.35896e-05
-2.35197e-06
3.36417e-05
-2.06175e-06
3.36717e-05
-1.74774e-06
3.3681e-05
-1.41029e-06
3.36714e-05
-1.04994e-06
3.36452e-05
-6.67366e-07
3.36052e-05
-2.6332e-07
3.35548e-05
1.61122e-07
3.34988e-05
6.03172e-07
3.34419e-05
1.05968e-06
3.33889e-05
1.52747e-06
3.33446e-05
2.0032e-06
3.33131e-05
2.48325e-06
3.32977e-05
2.96386e-06
3.33005e-05
3.44123e-06
3.33222e-05
3.91186e-06
4.37311e-06
3.33615e-05
2.45269e-05
-1.92997e-07
2.45621e-05
-2.16739e-07
2.45927e-05
-1.34826e-07
2.46124e-05
-3.87395e-08
2.46217e-05
1.95228e-08
2.46243e-05
3.19754e-08
2.4625e-05
1.3241e-08
2.4627e-05
-2.00515e-08
2.46325e-05
-5.7895e-08
2.46424e-05
-9.67664e-08
2.46572e-05
-1.36701e-07
2.46771e-05
-1.78878e-07
2.47022e-05
-2.24448e-07
2.47328e-05
-2.74196e-07
2.47692e-05
-3.28588e-07
2.48116e-05
-3.87895e-07
2.48607e-05
-4.52289e-07
2.49166e-05
-5.21905e-07
2.498e-05
-5.9687e-07
2.50513e-05
-6.77303e-07
2.51309e-05
-7.63321e-07
2.52194e-05
-8.55014e-07
2.53172e-05
-9.52452e-07
2.54247e-05
-1.05567e-06
2.55423e-05
-1.16465e-06
2.56705e-05
-1.27932e-06
2.58095e-05
-1.39954e-06
2.59595e-05
-1.5251e-06
2.61209e-05
-1.6557e-06
2.62937e-05
-1.79096e-06
2.6478e-05
-1.93039e-06
2.66736e-05
-2.07342e-06
2.68805e-05
-2.2194e-06
2.70984e-05
-2.36757e-06
2.7327e-05
-2.51711e-06
2.75657e-05
-2.6671e-06
2.78141e-05
-2.81657e-06
2.80714e-05
-2.96448e-06
2.83368e-05
-3.10973e-06
2.86095e-05
-3.25119e-06
2.88885e-05
-3.38768e-06
2.91726e-05
-3.51799e-06
2.94607e-05
-3.64091e-06
2.97514e-05
-3.75519e-06
3.00435e-05
-3.8596e-06
3.03353e-05
-3.95291e-06
3.06254e-05
-4.03389e-06
3.09123e-05
-4.10135e-06
3.11942e-05
-4.15413e-06
3.14696e-05
-4.19111e-06
3.17367e-05
-4.21121e-06
3.19939e-05
-4.2134e-06
3.22395e-05
-4.19673e-06
3.2472e-05
-4.16032e-06
3.26896e-05
-4.10333e-06
3.2891e-05
-4.02503e-06
3.30747e-05
-3.92477e-06
3.32394e-05
-3.80198e-06
3.33842e-05
-3.65619e-06
3.35079e-05
-3.48701e-06
3.361e-05
-3.2942e-06
3.36899e-05
-3.07759e-06
3.37475e-05
-2.83715e-06
3.37829e-05
-2.573e-06
3.37966e-05
-2.28538e-06
3.37894e-05
-1.97472e-06
3.37628e-05
-1.64161e-06
3.37182e-05
-1.28681e-06
3.3658e-05
-9.11246e-07
3.35844e-05
-5.15862e-07
3.34996e-05
-1.01167e-07
3.34073e-05
3.30267e-07
3.33122e-05
7.74478e-07
3.32187e-05
1.22873e-06
3.3131e-05
1.69022e-06
3.30527e-05
2.15594e-06
3.2987e-05
2.62278e-06
3.29365e-05
3.08765e-06
3.29029e-05
3.54759e-06
3.2887e-05
4.00001e-06
4.44324e-06
3.28886e-05
2.62446e-05
-2.20267e-07
2.62827e-05
-2.54769e-07
2.6317e-05
-1.68904e-07
2.63403e-05
-6.1834e-08
2.63524e-05
7.66822e-09
2.63571e-05
2.76866e-08
2.63589e-05
1.19513e-08
2.63615e-05
-2.19907e-08
2.63673e-05
-6.27389e-08
2.63773e-05
-1.05649e-07
2.63922e-05
-1.50096e-07
2.64122e-05
-1.96964e-07
2.64374e-05
-2.47321e-07
2.6468e-05
-3.01968e-07
2.65043e-05
-3.61418e-07
2.65466e-05
-4.25984e-07
2.65953e-05
-4.95877e-07
2.66507e-05
-5.71252e-07
2.67133e-05
-6.52252e-07
2.67834e-05
-7.39e-07
2.68615e-05
-8.31605e-07
2.69479e-05
-9.30146e-07
2.70432e-05
-1.03468e-06
2.71475e-05
-1.1452e-06
2.72613e-05
-1.26167e-06
2.73849e-05
-1.38397e-06
2.75184e-05
-1.5119e-06
2.7662e-05
-1.6452e-06
2.78159e-05
-1.78351e-06
2.79799e-05
-1.92636e-06
2.81541e-05
-2.07321e-06
2.83382e-05
-2.2234e-06
2.8532e-05
-2.3762e-06
2.8735e-05
-2.53075e-06
2.89469e-05
-2.68616e-06
2.91669e-05
-2.84142e-06
2.93945e-05
-2.99548e-06
2.96288e-05
-3.14719e-06
2.98689e-05
-3.29538e-06
3.01139e-05
-3.43884e-06
3.03626e-05
-3.5763e-06
3.06138e-05
-3.70648e-06
3.08663e-05
-3.8281e-06
3.11186e-05
-3.93984e-06
3.13695e-05
-4.04041e-06
3.16174e-05
-4.12853e-06
3.18609e-05
-4.20294e-06
3.20982e-05
-4.26243e-06
3.23279e-05
-4.3058e-06
3.25484e-05
-4.33194e-06
3.27581e-05
-4.33978e-06
3.29555e-05
-4.32833e-06
3.3139e-05
-4.29669e-06
3.33073e-05
-4.24401e-06
3.34591e-05
-4.16958e-06
3.3593e-05
-4.07276e-06
3.3708e-05
-3.95303e-06
3.38033e-05
-3.80997e-06
3.38779e-05
-3.64329e-06
3.39315e-05
-3.45282e-06
3.39638e-05
-3.23852e-06
3.39746e-05
-3.00051e-06
3.39643e-05
-2.73904e-06
3.39335e-05
-2.45451e-06
3.38831e-05
-2.14751e-06
3.38143e-05
-1.81878e-06
3.37287e-05
-1.46922e-06
3.36282e-05
-1.09988e-06
3.35147e-05
-7.11834e-07
3.33904e-05
-3.06091e-07
3.32584e-05
1.15827e-07
3.31231e-05
5.49962e-07
3.29885e-05
9.92963e-07
3.28583e-05
1.44229e-06
3.27359e-05
1.89542e-06
3.26244e-05
2.3497e-06
3.25264e-05
2.80247e-06
3.24441e-05
3.25114e-06
3.2379e-05
3.6933e-06
3.23321e-05
4.12695e-06
4.55091e-06
3.2304e-05
2.80824e-05
-2.48943e-07
2.81231e-05
-2.9534e-07
2.81605e-05
-2.06156e-07
2.8187e-05
-8.81432e-08
2.82019e-05
-6.94163e-09
2.82086e-05
2.13807e-08
2.82117e-05
9.40631e-09
2.8215e-05
-2.45646e-08
2.82211e-05
-6.77882e-08
2.82311e-05
-1.14469e-07
2.82458e-05
-1.63258e-07
2.82655e-05
-2.14689e-07
2.82903e-05
-2.69698e-07
2.83205e-05
-3.29078e-07
2.83561e-05
-3.93368e-07
2.83975e-05
-4.62923e-07
2.8445e-05
-5.37979e-07
2.84989e-05
-6.18714e-07
2.85595e-05
-7.05277e-07
2.86271e-05
-7.97793e-07
2.87022e-05
-8.96358e-07
2.87851e-05
-1.00104e-06
2.8876e-05
-1.11186e-06
2.89752e-05
-1.22878e-06
2.9083e-05
-1.35172e-06
2.91995e-05
-1.48052e-06
2.93249e-05
-1.61491e-06
2.94591e-05
-1.75458e-06
2.96022e-05
-1.89908e-06
2.9754e-05
-2.04788e-06
2.99143e-05
-2.20036e-06
3.00827e-05
-2.35578e-06
3.0259e-05
-2.51332e-06
3.04425e-05
-2.67206e-06
3.06327e-05
-2.83099e-06
3.08288e-05
-2.98905e-06
3.103e-05
-3.14509e-06
3.12354e-05
-3.29789e-06
3.1444e-05
-3.44622e-06
3.16548e-05
-3.58876e-06
3.18665e-05
-3.72421e-06
3.20779e-05
-3.85122e-06
3.22877e-05
-3.96844e-06
3.24945e-05
-4.07452e-06
3.26968e-05
-4.16813e-06
3.28933e-05
-4.24797e-06
3.30825e-05
-4.31276e-06
3.32628e-05
-4.36129e-06
3.34328e-05
-4.39238e-06
3.3591e-05
-4.40493e-06
3.3736e-05
-4.39794e-06
3.38665e-05
-4.37047e-06
3.39812e-05
-4.3217e-06
3.4079e-05
-4.25088e-06
3.41588e-05
-4.15743e-06
3.42196e-05
-4.04083e-06
3.42609e-05
-3.90073e-06
3.42819e-05
-3.7369e-06
3.42825e-05
-3.54925e-06
3.42625e-05
-3.33783e-06
3.42221e-05
-3.10285e-06
3.41616e-05
-2.84468e-06
3.40819e-05
-2.56385e-06
3.39838e-05
-2.26105e-06
3.38687e-05
-1.93715e-06
3.37381e-05
-1.59314e-06
3.35938e-05
-1.23019e-06
3.34379e-05
-8.4948e-07
3.32724e-05
-4.52174e-07
3.30991e-05
-3.90898e-08
3.29225e-05
3.85765e-07
3.27472e-05
8.1811e-07
3.25766e-05
1.25587e-06
3.24139e-05
1.69687e-06
3.22618e-05
2.1388e-06
3.2123e-05
2.57931e-06
3.19997e-05
3.01606e-06
3.18938e-05
3.44681e-06
3.18067e-05
3.86953e-06
3.17397e-05
4.28255e-06
4.68497e-06
3.16938e-05
3.00487e-05
-2.78854e-07
3.00915e-05
-3.38075e-07
3.01316e-05
-2.46106e-07
3.01609e-05
-1.1725e-07
3.01783e-05
-2.40397e-08
3.0187e-05
1.31733e-08
3.01913e-05
5.63974e-09
3.01953e-05
-2.77378e-08
3.02015e-05
-7.29393e-08
3.02113e-05
-1.23014e-07
3.02255e-05
-1.75859e-07
3.02445e-05
-2.31605e-07
3.02684e-05
-2.91013e-07
3.02974e-05
-3.54842e-07
3.03315e-05
-4.23639e-07
3.03711e-05
-4.97792e-07
3.04163e-05
-5.77548e-07
3.04674e-05
-6.63104e-07
3.05247e-05
-7.54612e-07
3.05885e-05
-8.52188e-07
3.06589e-05
-9.5591e-07
3.07363e-05
-1.06582e-06
3.08208e-05
-1.18192e-06
3.09126e-05
-1.30412e-06
3.10118e-05
-1.43229e-06
3.11186e-05
-1.5662e-06
3.12327e-05
-1.70555e-06
3.13543e-05
-1.84993e-06
3.14831e-05
-1.99883e-06
3.16187e-05
-2.15164e-06
3.1761e-05
-2.30767e-06
3.19094e-05
-2.46608e-06
3.20634e-05
-2.62599e-06
3.22223e-05
-2.7864e-06
3.23854e-05
-2.94623e-06
3.25519e-05
-3.10432e-06
3.27209e-05
-3.25947e-06
3.28913e-05
-3.4104e-06
3.30621e-05
-3.55579e-06
3.32321e-05
-3.69429e-06
3.34e-05
-3.82455e-06
3.35647e-05
-3.94516e-06
3.37248e-05
-4.05476e-06
3.38789e-05
-4.15197e-06
3.40256e-05
-4.23546e-06
3.41635e-05
-4.30391e-06
3.42913e-05
-4.35607e-06
3.44076e-05
-4.39075e-06
3.45111e-05
-4.40684e-06
3.46005e-05
-4.40328e-06
3.46746e-05
-4.37915e-06
3.47323e-05
-4.33361e-06
3.47727e-05
-4.26595e-06
3.47949e-05
-4.17557e-06
3.47982e-05
-4.062e-06
3.47821e-05
-3.92494e-06
3.47463e-05
-3.76419e-06