/*--------------------------------*- C++ -*----------------------------------*\
  =========                 |
  \\      /  F ield         | OpenFOAM: The Open Source CFD Toolbox
   \\    /   O peration     | Website:  https://openfoam.org
    \\  /    A nd           | Version:  7
     \\/     M anipulation  |
\*---------------------------------------------------------------------------*/
FoamFile
{
    version     2.0;
    format      ascii;
    class       surfaceScalarField;
    location    "7.85";
    object      phi;
}
// * * * * * * * * * * * * * * * * * * * * * * * * * * * * * * * * * * * * * //

dimensions      [1 0 -1 0 0 0 0];

internalField   nonuniform List<scalar> 
23692
(
1.19372e-05
-3.02769e-07
1.24534e-05
-5.16029e-07
1.31473e-05
-6.93539e-07
1.39906e-05
-8.42844e-07
1.49631e-05
-9.72037e-07
1.60507e-05
-1.08695e-06
1.72433e-05
-1.19193e-06
1.85344e-05
-1.29023e-06
1.99192e-05
-1.3839e-06
2.1394e-05
-1.47385e-06
2.29549e-05
-1.55989e-06
2.45969e-05
-1.64095e-06
2.63134e-05
-1.71532e-06
2.80956e-05
-1.78102e-06
2.99329e-05
-1.83612e-06
3.18131e-05
-1.87896e-06
3.37228e-05
-1.90842e-06
3.56479e-05
-1.92389e-06
3.75746e-05
-1.92537e-06
3.94892e-05
-1.91333e-06
4.13792e-05
-1.88867e-06
4.32331e-05
-1.85258e-06
4.50408e-05
-1.80643e-06
4.67938e-05
-1.7517e-06
4.8485e-05
-1.68986e-06
5.01086e-05
-1.62234e-06
5.16604e-05
-1.55047e-06
5.31372e-05
-1.47547e-06
5.45369e-05
-1.39842e-06
5.58584e-05
-1.32027e-06
5.71015e-05
-1.24184e-06
5.82665e-05
-1.16382e-06
5.93545e-05
-1.08676e-06
6.03669e-05
-1.01116e-06
6.13054e-05
-9.37382e-07
6.21723e-05
-8.65721e-07
6.29699e-05
-7.96406e-07
6.37006e-05
-7.29603e-07
6.43671e-05
-6.65429e-07
6.49722e-05
-6.03957e-07
6.55184e-05
-5.45226e-07
6.60087e-05
-4.89244e-07
6.64457e-05
-4.35994e-07
6.68321e-05
-3.85439e-07
6.71706e-05
-3.37523e-07
6.74637e-05
-2.92175e-07
6.77139e-05
-2.49314e-07
6.79236e-05
-2.08843e-07
6.80951e-05
-1.70657e-07
6.82306e-05
-1.3464e-07
6.8332e-05
-1.00663e-07
6.84014e-05
-6.85914e-08
6.84404e-05
-3.82748e-08
6.84506e-05
-9.55171e-09
6.84336e-05
1.77291e-08
6.83905e-05
4.37093e-08
6.83226e-05
6.85538e-08
6.82307e-05
9.24591e-08
6.81156e-05
1.15645e-07
6.79777e-05
1.38353e-07
6.78174e-05
1.60854e-07
6.76344e-05
1.83455e-07
6.74283e-05
2.06502e-07
6.71983e-05
2.30399e-07
6.6943e-05
2.55622e-07
6.66606e-05
2.82739e-07
6.63485e-05
3.12445e-07
6.60032e-05
3.45612e-07
6.56201e-05
3.83355e-07
6.51932e-05
4.27152e-07
6.47144e-05
4.79014e-07
6.41729e-05
5.41785e-07
6.35534e-05
6.19639e-07
6.28346e-05
7.18969e-07
6.19848e-05
8.50023e-07
6.09549e-05
1.03004e-06
5.96655e-05
1.2895e-06
5.79801e-05
1.6856e-06
5.5643e-05
2.33714e-06
5.21011e-05
3.54202e-06
6.60721e-06
4.5494e-05
1.27625e-05
-6.16938e-07
1.33109e-05
-1.06432e-06
1.40503e-05
-1.43262e-06
1.49498e-05
-1.74184e-06
1.59879e-05
-2.00959e-06
1.71493e-05
-2.24772e-06
1.84235e-05
-2.46529e-06
1.98032e-05
-2.66906e-06
2.12835e-05
-2.86332e-06
2.28607e-05
-3.04996e-06
2.45305e-05
-3.22861e-06
2.62877e-05
-3.39703e-06
2.81253e-05
-3.55168e-06
3.00339e-05
-3.68841e-06
3.20023e-05
-3.80317e-06
3.40172e-05
-3.89255e-06
3.60642e-05
-3.95412e-06
3.81284e-05
-3.98664e-06
4.01944e-05
-3.99007e-06
4.22479e-05
-3.9654e-06
4.42751e-05
-3.9145e-06
4.62638e-05
-3.83982e-06
4.8203e-05
-3.74425e-06
5.00835e-05
-3.63083e-06
5.18977e-05
-3.50263e-06
5.36394e-05
-3.36263e-06
5.53039e-05
-3.21359e-06
5.68879e-05
-3.05805e-06
5.83891e-05
-2.89827e-06
5.98064e-05
-2.7362e-06
6.11394e-05
-2.57355e-06
6.23886e-05
-2.41173e-06
6.35551e-05
-2.25195e-06
6.46404e-05
-2.09518e-06
6.56465e-05
-1.94219e-06
6.65756e-05
-1.79359e-06
6.74303e-05
-1.64986e-06
6.82132e-05
-1.51134e-06
6.89272e-05
-1.37828e-06
6.95752e-05
-1.25081e-06
7.01602e-05
-1.12902e-06
7.0685e-05
-1.01293e-06
7.11525e-05
-9.02493e-07
7.15658e-05
-7.97636e-07
7.19275e-05
-6.98243e-07
7.22405e-05
-6.04165e-07
7.25074e-05
-5.15228e-07
7.27307e-05
-4.31234e-07
7.29129e-05
-3.51963e-07
7.30563e-05
-2.77172e-07
7.31631e-05
-2.06599e-07
7.32353e-05
-1.39957e-07
7.32747e-05
-7.69381e-08
7.32831e-05
-1.721e-08
7.3262e-05
3.95393e-08
7.32128e-05
9.36053e-08
7.31367e-05
1.45334e-07
7.30346e-05
1.95129e-07
7.29074e-05
2.43441e-07
7.27555e-05
2.90767e-07
7.25793e-05
3.37657e-07
7.23785e-05
3.84734e-07
7.21527e-05
4.32702e-07
7.19012e-05
4.82374e-07
7.16225e-05
5.34704e-07
7.13148e-05
5.90824e-07
7.09754e-05
6.5211e-07
7.06011e-05
7.20265e-07
7.01873e-05
7.97453e-07
6.97282e-05
8.8649e-07
6.92164e-05
9.91145e-07
6.86417e-05
1.11662e-06
6.79913e-05
1.27029e-06
6.72474e-05
1.46305e-06
6.63863e-05
1.71137e-06
6.53754e-05
2.04108e-06
6.41713e-05
2.49373e-06
6.27194e-05
3.13766e-06
6.09666e-05
4.09006e-06
5.8952e-05
5.55676e-06
7.82043e-06
5.77389e-05
1.36409e-05
-9.39116e-07
1.42194e-05
-1.64255e-06
1.50028e-05
-2.21569e-06
1.59586e-05
-2.69716e-06
1.70636e-05
-3.11396e-06
1.83012e-05
-3.4846e-06
1.966e-05
-3.82329e-06
2.11325e-05
-4.14063e-06
2.27136e-05
-4.44338e-06
2.43993e-05
-4.73454e-06
2.61854e-05
-5.01355e-06
2.80665e-05
-5.2769e-06
3.00351e-05
-5.51902e-06
3.20814e-05
-5.73339e-06
3.41932e-05
-5.9136e-06
3.63563e-05
-6.05423e-06
3.85551e-05
-6.15144e-06
4.07732e-05
-6.20324e-06
4.29941e-05
-6.20953e-06
4.5202e-05
-6.17185e-06
4.73821e-05
-6.0931e-06
4.9521e-05
-5.97716e-06
5.16068e-05
-5.82852e-06
5.36294e-05
-5.65196e-06
5.55806e-05
-5.45231e-06
5.74536e-05
-5.2342e-06
5.92435e-05
-5.00199e-06
6.09466e-05
-4.75963e-06
6.25604e-05
-4.51065e-06
6.40838e-05
-4.25812e-06
6.55164e-05
-4.0047e-06
6.68586e-05
-3.7526e-06
6.81118e-05
-3.50368e-06
6.92774e-05
-3.25945e-06
7.03577e-05
-3.02114e-06
7.13551e-05
-2.78969e-06
7.22724e-05
-2.56582e-06
7.31124e-05
-2.35008e-06
7.38782e-05
-2.14283e-06
7.4573e-05
-1.9443e-06
7.51998e-05
-1.75461e-06
7.57618e-05
-1.57378e-06
7.62622e-05
-1.40175e-06
7.67041e-05
-1.23838e-06
7.70904e-05
-1.08351e-06
7.74242e-05
-9.36891e-07
7.77083e-05
-7.98252e-07
7.79453e-05
-6.67283e-07
7.8138e-05
-5.43638e-07
7.82887e-05
-4.26938e-07
7.83997e-05
-3.16771e-07
7.84733e-05
-2.12694e-07
7.85115e-05
-1.14227e-07
7.85159e-05
-2.08596e-08
7.84883e-05
6.78883e-08
7.84302e-05
1.52479e-07
7.83428e-05
2.33457e-07
7.82271e-05
3.11445e-07
7.8084e-05
3.87133e-07
7.79141e-05
4.61275e-07
7.77176e-05
5.34707e-07
7.74945e-05
6.08365e-07
7.72444e-05
6.83303e-07
7.69665e-05
7.60729e-07
7.66596e-05
8.42042e-07
7.63219e-05
9.28891e-07
7.59511e-05
1.02325e-06
7.55442e-05
1.12753e-06
7.50973e-05
1.24473e-06
7.46054e-05
1.37866e-06
7.40625e-05
1.53426e-06
7.34613e-05
1.71812e-06
7.27927e-05
1.93912e-06
7.20464e-05
2.20955e-06
7.12113e-05
2.5466e-06
7.02781e-05
2.97449e-06
6.92448e-05
3.52717e-06
6.81317e-05
4.25097e-06
6.70165e-05
5.20534e-06
6.61237e-05
6.44971e-06
7.97004e-06
6.59742e-05
1.45781e-05
-1.26733e-06
1.51839e-05
-2.2481e-06
1.601e-05
-3.0414e-06
1.7022e-05
-3.70866e-06
1.81949e-05
-4.28619e-06
1.95107e-05
-4.79969e-06
2.09574e-05
-5.26909e-06
2.2527e-05
-5.70921e-06
2.42143e-05
-6.12959e-06
2.60154e-05
-6.53447e-06
2.79263e-05
-6.92313e-06
2.99413e-05
-7.29065e-06
3.20529e-05
-7.62919e-06
3.42504e-05
-7.92951e-06
3.65208e-05
-8.18252e-06
3.88486e-05
-8.3805e-06
4.12167e-05
-8.51797e-06
4.36071e-05
-8.59208e-06
4.60018e-05
-8.60259e-06
4.83832e-05
-8.55167e-06
5.07351e-05
-8.44337e-06
5.30426e-05
-8.28311e-06
5.52929e-05
-8.0772e-06
5.74749e-05
-7.83235e-06
5.95795e-05
-7.55531e-06
6.15995e-05
-7.25258e-06
6.35294e-05
-6.93023e-06
6.53651e-05
-6.59381e-06
6.71042e-05
-6.24821e-06
6.87454e-05
-5.89772e-06
7.02883e-05
-5.54603e-06
7.17334e-05
-5.19623e-06
7.30821e-05
-4.85089e-06
7.43362e-05
-4.51212e-06
7.54981e-05
-4.18158e-06
7.65705e-05
-3.86059e-06
7.75562e-05
-3.55015e-06
7.84585e-05
-3.251e-06
7.92806e-05
-2.96364e-06
8.0026e-05
-2.68837e-06
8.06981e-05
-2.42536e-06
8.13002e-05
-2.17462e-06
8.18357e-05
-1.93606e-06
8.2308e-05
-1.7095e-06
8.27204e-05
-1.49468e-06
8.30759e-05
-1.29126e-06
8.33776e-05
-1.09887e-06
8.36285e-05
-9.17072e-07
8.38313e-05
-7.45375e-07
8.39886e-05
-5.83255e-07
8.41029e-05
-4.30144e-07
8.41766e-05
-2.85425e-07
8.42117e-05
-1.48437e-07
8.42102e-05
-1.84878e-08
8.41738e-05
1.05074e-07
8.41042e-05
2.22895e-07
8.40026e-05
3.35733e-07
8.38703e-05
4.4444e-07
8.37082e-05
5.49945e-07
8.35168e-05
6.53258e-07
8.32967e-05
7.55491e-07
8.30477e-05
8.57876e-07
8.27697e-05
9.61789e-07
8.24622e-05
1.06879e-06
8.2124e-05
1.18065e-06
8.17539e-05
1.29944e-06
8.135e-05
1.42759e-06
8.09099e-05
1.56799e-06
8.04308e-05
1.72413e-06
7.99094e-05
1.90032e-06
7.93421e-05
2.10191e-06
7.87248e-05
2.33564e-06
7.80541e-05
2.61005e-06
7.73279e-05
2.93602e-06
7.65475e-05
3.32724e-06
7.57216e-05
3.80053e-06
7.48735e-05
4.37543e-06
7.40525e-05
5.07215e-06
7.33523e-05
5.90569e-06
7.29301e-05
6.87207e-06
7.91586e-06
7.29845e-05
1.55792e-05
-1.60066e-06
1.62103e-05
-2.87896e-06
1.70778e-05
-3.90856e-06
1.81459e-05
-4.77613e-06
1.93876e-05
-5.52723e-06
2.07839e-05
-6.19515e-06
2.23218e-05
-6.80607e-06
2.39932e-05
-7.37955e-06
2.5793e-05
-7.92825e-06
2.77177e-05
-8.45789e-06
2.97635e-05
-8.96756e-06
3.1925e-05
-9.45075e-06
3.41943e-05
-9.89698e-06
3.65602e-05
-1.02938e-05
3.90083e-05
-1.06291e-05
4.15217e-05
-1.08922e-05
4.40813e-05
-1.10759e-05
4.66671e-05
-1.11762e-05
4.92589e-05
-1.11927e-05
5.18373e-05
-1.11283e-05
5.4384e-05
-1.09883e-05
5.68826e-05
-1.078e-05
5.93189e-05
-1.05117e-05
6.16806e-05
-1.01923e-05
6.39578e-05
-9.83078e-06
6.61426e-05
-9.43565e-06
6.8229e-05
-9.01493e-06
7.02127e-05
-8.5759e-06
7.20912e-05
-8.125e-06
7.3863e-05
-7.66785e-06
7.55279e-05
-7.20925e-06
7.70865e-05
-6.75323e-06
7.85403e-05
-6.30315e-06
7.98915e-05
-5.86173e-06
8.11427e-05
-5.43114e-06
8.22967e-05
-5.01307e-06
8.33568e-05
-4.60882e-06
8.43266e-05
-4.21932e-06
8.52096e-05
-3.8452e-06
8.60095e-05
-3.48686e-06
8.67301e-05
-3.14449e-06
8.73749e-05
-2.81809e-06
8.79477e-05
-2.50753e-06
8.8452e-05
-2.21256e-06
8.88914e-05
-1.93284e-06
8.92693e-05
-1.66792e-06
8.95889e-05
-1.41729e-06
8.98534e-05
-1.18039e-06
9.00657e-05
-9.56575e-07
9.02287e-05
-7.45164e-07
9.0345e-05
-5.45413e-07
9.04171e-05
-3.56524e-07
9.04472e-05
-1.77641e-07
9.04376e-05
-7.90237e-09
9.039e-05
1.53515e-07
9.03063e-05
3.07482e-07
9.01878e-05
4.54975e-07
9.00359e-05
5.97071e-07
8.98517e-05
7.34934e-07
8.96358e-05
8.69818e-07
8.93888e-05
1.00309e-06
8.91111e-05
1.13624e-06
8.88025e-05
1.27091e-06
8.84629e-05
1.40895e-06
8.80916e-05
1.55241e-06
8.76879e-05
1.70362e-06
8.72506e-05
1.86526e-06
8.67786e-05
2.04042e-06
8.62704e-05
2.23271e-06
8.57247e-05
2.44635e-06
8.51406e-05
2.68633e-06
8.4518e-05
2.95849e-06
8.38587e-05
3.26969e-06
8.31672e-05
3.6277e-06
8.24536e-05
4.04104e-06
8.17361e-05
4.51827e-06
8.10453e-05
5.06645e-06
8.04292e-05
5.68846e-06
7.99568e-05
6.37826e-06
7.97152e-05
7.1138e-06
7.84577e-06
7.97855e-05
1.66495e-05
-1.93909e-06
1.73047e-05
-3.53392e-06
1.82131e-05
-4.81649e-06
1.93372e-05
-5.89969e-06
2.06491e-05
-6.83833e-06
2.21283e-05
-7.67346e-06
2.37614e-05
-8.43811e-06
2.55401e-05
-9.15719e-06
2.74601e-05
-9.84695e-06
2.95184e-05
-1.05148e-05
3.1712e-05
-1.11597e-05
3.4036e-05
-1.17732e-05
3.64822e-05
-1.23416e-05
3.90386e-05
-1.28486e-05
4.16894e-05
-1.32781e-05
4.44153e-05
-1.36164e-05
4.71948e-05
-1.38537e-05
5.00052e-05
-1.39848e-05
5.28234e-05
-1.40092e-05
5.56276e-05
-1.39306e-05
5.8397e-05
-1.37559e-05
6.11135e-05
-1.34946e-05
6.37609e-05
-1.31573e-05
6.6326e-05
-1.27555e-05
6.87976e-05
-1.23006e-05
7.11674e-05
-1.18035e-05
7.34288e-05
-1.12745e-05
7.55774e-05
-1.07227e-05
7.76104e-05
-1.01562e-05
7.95265e-05
-9.5822e-06
8.13257e-05
-9.00663e-06
8.30087e-05
-8.43457e-06
8.45775e-05
-7.87021e-06
8.60344e-05
-7.31693e-06
8.73823e-05
-6.77741e-06
8.86247e-05
-6.25377e-06
8.9765e-05
-5.74756e-06
9.08072e-05
-5.25994e-06
9.17553e-05
-4.79167e-06
9.26131e-05
-4.34322e-06
9.33849e-05
-3.91478e-06
9.40746e-05
-3.50636e-06
9.46863e-05
-3.11776e-06
9.52238e-05
-2.74865e-06
9.56908e-05
-2.39858e-06
9.60912e-05
-2.06697e-06
9.64284e-05
-1.7532e-06
9.67057e-05
-1.45652e-06
9.69265e-05
-1.17615e-06
9.70937e-05
-9.11223e-07
9.72102e-05
-6.60815e-07
9.72787e-05
-4.23936e-07
9.73016e-05
-1.99525e-07
9.72813e-05
1.34358e-08
9.72198e-05
2.15945e-07
9.7119e-05
4.09133e-07
9.69807e-05
5.94193e-07
9.68061e-05
7.72422e-07
9.65966e-05
9.45203e-07
9.63532e-05
1.11401e-06
9.60765e-05
1.28042e-06
9.57673e-05
1.44614e-06
9.54258e-05
1.61303e-06
9.50522e-05
1.78308e-06
9.46466e-05
1.95852e-06
9.4209e-05
2.14178e-06
9.37391e-05
2.33555e-06
9.32371e-05
2.54284e-06
9.27033e-05
2.76697e-06
9.21384e-05
3.01163e-06
9.15442e-05
3.28084e-06
9.0924e-05
3.57895e-06
9.02836e-05
3.91043e-06
8.96319e-05
4.27964e-06
8.8983e-05
4.69024e-06
8.83572e-05
5.14433e-06
8.77827e-05
5.64109e-06
8.72965e-05
6.1749e-06
8.6942e-05
6.73299e-06
8.67632e-05
7.29277e-06
7.81991e-06
8.67892e-05
1.77947e-05
-2.28336e-06
1.84737e-05
-4.21262e-06
1.94229e-05
-5.76526e-06
2.06039e-05
-7.08008e-06
2.19877e-05
-8.22127e-06
2.35529e-05
-9.23776e-06
2.5286e-05
-1.017e-05
2.71791e-05
-1.10491e-05
2.92289e-05
-1.18954e-05
3.14339e-05
-1.27184e-05
3.37924e-05
-1.35166e-05
3.63001e-05
-1.42793e-05
3.89487e-05
-1.49885e-05
4.1725e-05
-1.56231e-05
4.4611e-05
-1.61622e-05
4.75843e-05
-1.65878e-05
5.062e-05
-1.68874e-05
5.36915e-05
-1.70543e-05
5.67723e-05
-1.7088e-05
5.98371e-05
-1.69934e-05
6.28626e-05
-1.67794e-05
6.5828e-05
-1.6458e-05
6.87155e-05
-1.60429e-05
7.15104e-05
-1.55484e-05
7.42007e-05
-1.49889e-05
7.67772e-05
-1.43781e-05
7.92333e-05
-1.37286e-05
8.15643e-05
-1.30518e-05
8.37676e-05
-1.23575e-05
8.5842e-05
-1.16547e-05
8.77877e-05
-1.09504e-05
8.9606e-05
-1.0251e-05
9.12991e-05
-9.5615e-06
9.28699e-05
-8.8859e-06
9.43218e-05
-8.22747e-06
9.56585e-05
-7.58871e-06
9.68841e-05
-6.97148e-06
9.8003e-05
-6.37712e-06
9.90195e-05
-5.80652e-06
9.99381e-05
-5.26019e-06
0.000100763
-4.73835e-06
0.000101499
-4.24093e-06
0.000102151
-3.76769e-06
0.000102722
-3.31818e-06
0.000103217
-2.89182e-06
0.000103639
-2.48792e-06
0.000103993
-2.10566e-06
0.000104282
-1.74415e-06
0.000104509
-1.40243e-06
0.000104679
-1.07944e-06
0.000104793
-7.74072e-07
0.000104855
-4.85134e-07
0.000104868
-2.11367e-07
0.000104834
4.843e-08
0.000104756
2.95452e-07
0.000104635
5.31046e-07
0.000104474
7.56644e-07
0.000104273
9.73755e-07
0.000104035
1.18396e-06
0.000103761
1.3889e-06
0.000103452
1.59035e-06
0.000103109
1.79014e-06
0.000102732
1.99024e-06
0.000102323
2.19274e-06
0.000101882
2.39986e-06
0.000101411
2.61397e-06
0.000100909
2.83758e-06
0.000100379
3.07335e-06
9.98223e-05
3.32404e-06
9.92419e-05
3.59248e-06
9.86416e-05
3.88149e-06
9.80272e-05
4.19369e-06
9.74067e-05
4.53127e-06
9.67909e-05
4.89567e-06
9.61945e-05
5.287e-06
9.56356e-05
5.70342e-06
9.51366e-05
6.14034e-06
9.47223e-05
6.58945e-06
9.44175e-05
7.03803e-06
9.42419e-05
7.46855e-06
7.85971e-06
9.42023e-05
1.90204e-05
-2.63482e-06
1.97237e-05
-4.91562e-06
2.07148e-05
-6.75585e-06
2.19543e-05
-8.3189e-06
2.34126e-05
-9.67874e-06
2.50681e-05
-1.08922e-05
2.69074e-05
-1.20081e-05
2.8924e-05
-1.30644e-05
3.11165e-05
-1.40865e-05
3.34859e-05
-1.50861e-05
3.60322e-05
-1.60613e-05
3.87524e-05
-1.69977e-05
4.16377e-05
-1.78719e-05
4.46729e-05
-1.86564e-05
4.78366e-05
-1.93239e-05
5.11021e-05
-1.98513e-05
5.44393e-05
-2.02226e-05
5.78168e-05
-2.04297e-05
6.12034e-05
-2.04725e-05
6.45697e-05
-2.03576e-05
6.78891e-05
-2.00967e-05
7.11383e-05
-1.9705e-05
7.42975e-05
-1.91999e-05
7.73506e-05
-1.85993e-05
8.02848e-05
-1.79211e-05
8.30907e-05
-1.71818e-05
8.57612e-05
-1.6397e-05
8.8292e-05
-1.55805e-05
9.06807e-05
-1.47441e-05
9.29265e-05
-1.38984e-05
9.50302e-05
-1.30521e-05
9.69937e-05
-1.22125e-05
9.88196e-05
-1.13854e-05
0.000100511
-1.05758e-05
0.000102073
-9.78731e-06
0.000103509
-9.02289e-06
0.000104824
-8.28465e-06
0.000106023
-7.57411e-06
0.000107111
-6.89225e-06
0.000108092
-6.23962e-06
0.000108972
-5.61639e-06
0.000109755
-5.02245e-06
0.000110446
-4.45745e-06
0.00011105
-3.92081e-06
0.000111572
-3.41181e-06
0.000112015
-2.92958e-06
0.000112384
-2.47314e-06
0.000112683
-2.04142e-06
0.000112915
-1.63324e-06
0.000113084
-1.24737e-06
0.000113194
-8.82493e-07
0.000113247
-5.3722e-07
0.000113247
-2.10095e-07
0.000113196
1.0028e-07
0.000113098
3.95302e-07
0.000112953
6.76543e-07
0.000112765
9.4566e-07
0.000112535
1.20435e-06
0.000112266
1.45436e-06
0.000111958
1.69747e-06
0.000111614
1.93557e-06
0.000111234
2.17056e-06
0.000110821
2.40444e-06
0.000110375
2.63927e-06
0.000109898
2.87716e-06
0.000109392
3.12027e-06
0.00010886
3.37076e-06
0.000108303
3.63079e-06
0.000107725
3.90241e-06
0.00010713
4.18752e-06
0.000106524
4.48771e-06
0.000105914
4.80407e-06
0.000105309
5.13701e-06
0.000104719
5.48594e-06
0.000104158
5.84892e-06
0.000103639
6.22233e-06
0.000103179
6.60052e-06
0.000102793
6.97555e-06
0.000102494
7.33721e-06
0.00010229
7.67349e-06
7.97197e-06
0.000102178
2.03324e-05
-2.99527e-06
2.10615e-05
-5.64433e-06
2.20964e-05
-7.7902e-06
2.3397e-05
-9.61882e-06
2.49338e-05
-1.12146e-05
2.66852e-05
-1.26426e-05
2.86391e-05
-1.39608e-05
3.07916e-05
-1.52154e-05
3.31445e-05
-1.64378e-05
3.57024e-05
-1.76423e-05
3.84683e-05
-1.88254e-05
4.14402e-05
-1.99677e-05
4.46083e-05
-2.1038e-05
4.79538e-05
-2.19998e-05
5.14498e-05
-2.28178e-05
5.50632e-05
-2.34625e-05
5.87571e-05
-2.39142e-05
6.24934e-05
-2.41638e-05
6.62354e-05
-2.42122e-05
6.99488e-05
-2.40687e-05
7.36033e-05
-2.37489e-05
7.7173e-05
-2.32723e-05
8.06362e-05
-2.26609e-05
8.3976e-05
-2.19367e-05
8.71789e-05
-2.11217e-05
9.02353e-05
-2.0236e-05
9.31387e-05
-1.92981e-05
9.5885e-05
-1.83245e-05
9.84724e-05
-1.73293e-05
0.000100901
-1.63248e-05
0.000103172
-1.53211e-05
0.000105289
-1.43267e-05
0.000107254
-1.33485e-05
0.000109072
-1.23919e-05
0.000110748
-1.14612e-05
0.000112287
-1.05597e-05
0.000113694
-9.68966e-06
0.000114975
-8.85278e-06
0.000116134
-8.05011e-06
0.000117179
-7.28217e-06
0.000118113
-6.54909e-06
0.000118943
-5.85065e-06
0.000119674
-5.18636e-06
0.00012031
-4.55549e-06
0.000120857
-3.95714e-06
0.00012132
-3.39025e-06
0.000121702
-2.85366e-06
0.000122008
-2.34606e-06
0.000122242
-1.86611e-06
0.000122409
-1.41234e-06
0.000122511
-9.83232e-07
0.000122552
-5.77212e-07
0.000122536
-1.92632e-07
0.000122465
1.72125e-07
0.000122343
5.18663e-07
0.000122172
8.48786e-07
0.000121954
1.16435e-06
0.000121692
1.46721e-06
0.000121389
1.75924e-06
0.000121045
2.04232e-06
0.000120663
2.31838e-06
0.000120245
2.58934e-06
0.000119793
2.85716e-06
0.000119309
3.12376e-06
0.000118796
3.39105e-06
0.000118256
3.66088e-06
0.000117692
3.93501e-06
0.000117108
4.21502e-06
0.000116509
4.50226e-06
0.000115899
4.79777e-06
0.000115285
5.10212e-06
0.000114675
5.4153e-06
0.000114075
5.73655e-06
0.000113498
6.06418e-06
0.000112951
6.39543e-06
0.000112448
6.72634e-06
0.000111997
7.05168e-06
0.000111608
7.36507e-06
0.000111286
7.65922e-06
0.000111033
7.92646e-06
8.15996e-06
0.000110846
2.1737e-05
-3.36684e-06
2.2494e-05
-6.40101e-06
2.35757e-05
-8.87125e-06
2.49414e-05
-1.09837e-05
2.65619e-05
-1.28341e-05
2.8417e-05
-1.44965e-05
3.04971e-05
-1.60395e-05
3.28025e-05
-1.75192e-05
3.53406e-05
-1.89742e-05
3.8121e-05
-2.04209e-05
4.11505e-05
-2.18529e-05
4.44275e-05
-2.32426e-05
4.79392e-05
-2.45476e-05
5.16609e-05
-2.57192e-05
5.55572e-05
-2.67118e-05
5.95857e-05
-2.74886e-05
6.37002e-05
-2.80264e-05
6.78548e-05
-2.8316e-05
7.20057e-05
-2.83607e-05
7.61138e-05
-2.81743e-05
8.0145e-05
-2.77776e-05
8.4071e-05
-2.71958e-05
8.7869e-05
-2.64564e-05
9.15212e-05
-2.55865e-05
9.50145e-05
-2.46125e-05
9.83397e-05
-2.35586e-05
0.000101491
-2.24468e-05
0.000104465
-2.12961e-05
0.000107261
-2.01231e-05
0.00010988
-1.89418e-05
0.000112325
-1.77638e-05
0.0001146
-1.65989e-05
0.000116708
-1.54547e-05
0.000118656
-1.43372e-05
0.000120448
-1.32513e-05
0.000122091
-1.22004e-05
0.000123591
-1.11872e-05
0.000124953
-1.02133e-05
0.000126185
-9.27983e-06
0.000127292
-8.38721e-06
0.000128281
-7.53547e-06
0.000129156
-6.72425e-06
0.000129924
-5.95288e-06
0.000130591
-5.22045e-06
0.000131162
-4.52585e-06
0.000131641
-3.8678e-06
0.000132034
-3.24492e-06
0.000132345
-2.65568e-06
0.000132579
-2.09851e-06
0.00013274
-1.57173e-06
0.000132832
-1.07362e-06
0.000132859
-6.02401e-07
0.000132824
-1.56261e-07
0.00013273
2.66659e-07
0.000132582
6.6819e-07
0.000132382
1.05035e-06
0.000132132
1.41517e-06
0.000131836
1.76463e-06
0.000131495
2.10068e-06
0.000131113
2.42528e-06
0.000130692
2.74032e-06
0.000130235
3.04772e-06
0.000129744
3.34928e-06
0.000129221
3.64678e-06
0.000128671
3.94187e-06
0.000128097
4.23607e-06
0.000127502
4.53068e-06
0.000126891
4.8268e-06
0.000126268
5.12517e-06
0.000125641
5.42617e-06
0.000125013
5.72968e-06
0.000124394
6.03503e-06
0.00012379
6.34088e-06
0.00012321
6.6452e-06
0.00012266
6.94521e-06
0.00012215
7.2374e-06
0.000121684
7.5176e-06
0.000121268
7.7812e-06
0.000120904
8.0234e-06
0.000120592
8.23963e-06
8.42641e-06
0.000120325
2.32405e-05
-3.75195e-06
2.40286e-05
-7.18874e-06
2.5161e-05
-1.0003e-05
2.6597e-05
-1.24189e-05
2.83086e-05
-1.45446e-05
3.02781e-05
-1.64646e-05
3.25005e-05
-1.82604e-05
3.49833e-05
-2.00003e-05
3.77417e-05
-2.17307e-05
4.07925e-05
-2.34697e-05
4.4146e-05
-2.52043e-05
4.77994e-05
-2.68938e-05
5.17336e-05
-2.84794e-05
5.59133e-05
-2.98965e-05
6.02908e-05
-3.10868e-05
6.48109e-05
-3.20062e-05
6.94162e-05
-3.26291e-05
7.40511e-05
-3.29482e-05
7.86649e-05
-3.29718e-05
8.32134e-05
-3.27201e-05
8.76596e-05
-3.2221e-05
9.19735e-05
-3.15071e-05
9.61318e-05
-3.0612e-05
0.000100117
-2.95691e-05
0.000103917
-2.84098e-05
0.000107524
-2.71625e-05
0.000110932
-2.58527e-05
0.000114141
-2.45025e-05
0.000117151
-2.31306e-05
0.000119965
-2.17529e-05
0.000122586
-2.03825e-05
0.00012502
-1.90301e-05
0.000127272
-1.77041e-05
0.000129348
-1.64112e-05
0.000131256
-1.51565e-05
0.000133002
-1.39438e-05
0.000134593
-1.27756e-05
0.000136035
-1.16538e-05
0.000137337
-1.05793e-05
0.000138505
-9.55251e-06
0.000139544
-8.57321e-06
0.000140463
-7.64086e-06
0.000141267
-6.75459e-06
0.000141962
-5.91325e-06
0.000142553
-5.11549e-06
0.000143047
-4.35979e-06
0.000143449
-3.6445e-06
0.000143762
-2.96788e-06
0.000143994
-2.3281e-06
0.000144147
-1.72326e-06
0.000144226
-1.15144e-06
0.000144236
-6.10662e-07
0.00014418
-9.89604e-08
0.000144063
3.85771e-07
0.000143887
8.45626e-07
0.000143655
1.28283e-06
0.000143372
1.69953e-06
0.00014304
2.09779e-06
0.000142663
2.47963e-06
0.000142242
2.84701e-06
0.000141781
3.2018e-06
0.000141284
3.54582e-06
0.000140754
3.88076e-06
0.000140193
4.20817e-06
0.000139606
4.52946e-06
0.000138997
4.84583e-06
0.000138371
5.15824e-06
0.000137731
5.46736e-06
0.000137083
5.77353e-06
0.000136433
6.07671e-06
0.000135787
6.37641e-06
0.000135151
6.67171e-06
0.000134531
6.96116e-06
0.000133934
7.24288e-06
0.000133365
7.51449e-06
0.000132829
7.7733e-06
0.000132331
8.01632e-06
0.000131872
8.24051e-06
0.000131453
8.44296e-06
0.000131072
8.62116e-06
8.77365e-06
0.000130725
2.48498e-05
-4.15325e-06
2.56729e-05
-8.01146e-06
2.68612e-05
-1.11906e-05
2.83746e-05
-1.39313e-05
3.01872e-05
-1.63559e-05
3.22859e-05
-1.8562e-05
3.4674e-05
-2.06469e-05
3.73694e-05
-2.26938e-05
4.03986e-05
-2.47579e-05
4.37866e-05
-2.68556e-05
4.75459e-05
-2.89613e-05
5.16683e-05
-3.10138e-05
5.61225e-05
-3.2931e-05
6.0857e-05
-3.46284e-05
6.58066e-05
-3.60337e-05
7.09003e-05
-3.70971e-05
7.60674e-05
-3.77933e-05
8.12424e-05
-3.81204e-05
8.63682e-05
-3.80947e-05
9.13966e-05
-3.77455e-05
9.62886e-05
-3.71102e-05
0.000101014
-3.62297e-05
0.00010555
-3.51454e-05
0.000109882
-3.38973e-05
0.000113997
-3.25221e-05
0.00011789
-3.10529e-05
0.000121559
-2.95187e-05
0.000125004
-2.79444e-05
0.000128227
-2.63511e-05
0.000131233
-2.47563e-05
0.000134028
-2.31744e-05
0.000136617
-2.16169e-05
0.000139009
-2.0093e-05
0.00014121
-1.86098e-05
0.000143229
-1.71726e-05
0.000145073
-1.57853e-05
0.00014675
-1.44506e-05
0.000148269
-1.317e-05
0.000149637
-1.19445e-05
0.000150861
-1.07741e-05
0.000151948
-9.6585e-06
0.000152906
-8.59689e-06
0.000153742
-7.5881e-06
0.000154462
-6.63072e-06
0.000155071
-5.72311e-06
0.000155577
-4.86347e-06
0.000155985
-4.0499e-06
0.000156299
-3.28039e-06
0.000156526
-2.55285e-06
0.000156669
-1.86516e-06
0.000156735
-1.21515e-06
0.000156726
-6.00647e-07
0.000156649
-1.96342e-08
0.000156506
5.30262e-07
0.000156301
1.05154e-06
0.000156039
1.54653e-06
0.000155722
2.01745e-06
0.000155355
2.46645e-06
0.00015494
2.89556e-06
0.000154482
3.30674e-06
0.000153983
3.70181e-06
0.000153447
4.08249e-06
0.000152879
4.45033e-06
0.000152281
4.8067e-06
0.000151659
5.15281e-06
0.000151016
5.4896e-06
0.000150357
5.81779e-06
0.000149687
6.13779e-06
0.000149012
6.44971e-06
0.000148336
6.75334e-06
0.000147665
7.04811e-06
0.000147004
7.33313e-06
0.000146358
7.60717e-06
0.000145733
7.86872e-06
0.000145132
8.11606e-06
0.000144559
8.34732e-06
0.000144015
8.56062e-06
0.000143502
8.75415e-06
0.000143019
8.92634e-06
0.000142564
9.07606e-06
9.20304e-06
0.000142135
2.6572e-05
-4.57371e-06
2.74351e-05
-8.87407e-06
2.8686e-05
-1.24408e-05
3.02861e-05
-1.55304e-05
3.22133e-05
-1.82818e-05
3.44629e-05
-2.081e-05
3.70504e-05
-2.32326e-05
4.00095e-05
-2.56509e-05
4.33811e-05
-2.81273e-05
4.71981e-05
-3.06702e-05
5.14705e-05
-3.32312e-05
5.61773e-05
-3.57178e-05
6.12664e-05
-3.80174e-05
6.66631e-05
-4.00222e-05
7.228e-05
-4.16477e-05
7.80277e-05
-4.28417e-05
8.38219e-05
-4.35845e-05
8.95887e-05
-4.3884e-05
9.52655e-05
-4.37683e-05
0.000100802
-4.3279e-05
0.00010616
-4.24647e-05
0.00011131
-4.13762e-05
0.000116231
-4.00635e-05
0.00012091
-3.85735e-05
0.00012534
-3.69486e-05
0.000129516
-3.52264e-05
0.00013344
-3.34394e-05
0.000137114
-3.16152e-05
0.000140543
-2.97769e-05
0.000143733
-2.79436e-05
0.000146693
-2.61307e-05
0.000149429
-2.43505e-05
0.000151952
-2.26127e-05
0.000154269
-2.09245e-05
0.000156391
-1.92914e-05
0.000158326
-1.77173e-05
0.000160083
-1.62047e-05
0.00016167
-1.4755e-05
0.000163097
-1.33688e-05
0.000164371
-1.20459e-05
0.000165501
-1.07858e-05
0.000166494
-9.5873e-06
0.000167357
-8.44886e-06
0.000168098
-7.36879e-06
0.000168722
-6.34512e-06
0.000169236
-5.37575e-06
0.000169647
-4.45849e-06
0.00016996
-3.59102e-06
0.00017018
-2.77103e-06
0.000170313
-1.99614e-06
0.000170364
-1.26397e-06
0.000170337
-5.72161e-07
0.000170237
8.16006e-08
0.000170069
6.99863e-07
0.000169837
1.28532e-06
0.000169545
1.84045e-06
0.000169196
2.36758e-06
0.000168795
2.86888e-06
0.000168346
3.34643e-06
0.000167851
3.80216e-06
0.000167317
4.23785e-06
0.000166745
4.65511e-06
0.000166141
5.05541e-06
0.000165509
5.43998e-06
0.000164853
5.80987e-06
0.000164178
6.16591e-06
0.000163488
6.50865e-06
0.000162788
6.83842e-06
0.000162083
7.15528e-06
0.000161378
7.45903e-06
0.000160678
7.74923e-06
0.000159986
8.02522e-06
0.000159308
8.28614e-06
0.000158646
8.53099e-06
0.000158004
8.7587e-06
0.000157384
8.96819e-06
0.000156787
9.15844e-06
0.000156213
9.32859e-06
0.000155661
9.47802e-06
0.000155132
9.60646e-06
9.71435e-06
0.000154621
2.84149e-05
-5.01667e-06
2.9324e-05
-9.78263e-06
3.06461e-05
-1.37622e-05
3.23455e-05
-1.72286e-05
3.44069e-05
-2.03418e-05
3.68386e-05
-2.32401e-05
3.96754e-05
-2.60675e-05
4.29722e-05
-2.89455e-05
4.67862e-05
-3.19389e-05
5.11541e-05
-3.50355e-05
5.60742e-05
-3.81486e-05
6.1501e-05
-4.11417e-05
6.73516e-05
-4.3865e-05
7.35206e-05
-4.61881e-05
7.98955e-05
-4.80193e-05
8.6368e-05
-4.93109e-05
9.28423e-05
-5.00554e-05
9.92377e-05
-5.02759e-05
0.000105489
-5.00167e-05
0.000111548
-4.93341e-05
0.000117377
-4.82898e-05
0.00012295
-4.69456e-05
0.00012825
-4.53606e-05
0.000133269
-4.35885e-05
0.000138001
-4.16775e-05
0.000142448
-3.96695e-05
0.000146612
-3.76002e-05
0.0001505
-3.54996e-05
0.000154119
-3.33927e-05
0.000157478
-3.12996e-05
0.000160587
-2.92367e-05
0.000163457
-2.72166e-05
0.000166096
-2.52493e-05
0.000168517
-2.33422e-05
0.000170729
-2.15006e-05
0.000172743
-1.97282e-05
0.000174569
-1.80272e-05
0.000176215
-1.63988e-05
0.000177693
-1.48431e-05
0.000179009
-1.33598e-05
0.000180174
-1.19478e-05
0.000181195
-1.06055e-05
0.00018208
-9.33108e-06
0.000182836
-8.12243e-06
0.00018347
-6.97724e-06
0.00018399
-5.89307e-06
0.000184401
-4.86739e-06
0.00018471
-3.89762e-06
0.000184922
-2.98113e-06
0.000185044
-2.11533e-06
0.000185079
-1.29763e-06
0.000185034
-5.25457e-07
0.000184914
2.03859e-07
0.000184723
8.93075e-07
0.000184465
1.54496e-06
0.000184145
2.16214e-06
0.000183767
2.74702e-06
0.000183335
3.30183e-06
0.000182855
3.82866e-06
0.000182329
4.32943e-06
0.000181762
4.80591e-06
0.000181159
5.25966e-06
0.000180523
5.69207e-06
0.00017986
6.10433e-06
0.000179174
6.49742e-06
0.000178469
6.87211e-06
0.000177749
7.22896e-06
0.00017702
7.56833e-06
0.000176286
7.89036e-06
0.000175551
8.19503e-06
0.000174819
8.48212e-06
0.000174093
8.75133e-06
0.000173378
9.00221e-06
0.000172676
9.23429e-06
0.000171988
9.44709e-06
0.000171316
9.64018e-06
0.000170662
9.81324e-06
0.000170025
9.96609e-06
0.000169405
1.00987e-05
0.000168801
1.02115e-05
1.03052e-05
0.00016821
3.03868e-05
-5.486e-06
3.13494e-05
-1.07447e-05
3.27541e-05
-1.5166e-05
3.45702e-05
-1.90435e-05
3.67939e-05
-2.2564e-05
3.94543e-05
-2.58985e-05
4.26134e-05
-2.92245e-05
4.6353e-05
-3.26827e-05
5.07445e-05
-3.63278e-05
5.58183e-05
-4.01064e-05
6.15455e-05
-4.38729e-05
6.78411e-05
-4.74341e-05
7.4581e-05
-5.06016e-05
8.16247e-05
-5.32283e-05
8.88338e-05
-5.52249e-05
9.60843e-05
-5.65578e-05
0.000103272
-5.72393e-05
0.000110313
-5.73136e-05
0.000117145
-5.68449e-05
0.000123721
-5.59065e-05
0.00013001
-5.45743e-05
0.00013599
-5.29218e-05
0.00014165
-5.10168e-05
0.000146985
-4.89202e-05
0.000151997
-4.66854e-05
0.000156689
-4.43581e-05
0.000161069
-4.19769e-05
0.000165147
-3.95738e-05
0.000168933
-3.7175e-05
0.000172439
-3.48017e-05
0.000175676
-3.24706e-05
0.000178658
-3.01946e-05
0.000181395
-2.79835e-05
0.000183901
-2.58447e-05
0.000186187
-2.37832e-05
0.000188265
-2.18023e-05
0.000190144
-1.99037e-05
0.000191837
-1.80883e-05
0.000193353
-1.63558e-05
0.000194701
-1.47052e-05
0.000195891
-1.3135e-05
0.000196932
-1.16432e-05
0.000197831
-1.02275e-05
0.000198597
-8.88548e-06
0.000199236
-7.61434e-06
0.000199757
-6.41128e-06
0.000200166
-5.27343e-06
0.000200468
-4.19789e-06
0.000200671
-3.18176e-06
0.000200781
-2.22216e-06
0.000200801
-1.31627e-06
0.000200739
-4.61344e-07
0.0002006
3.45615e-07
0.000200387
1.10759e-06
0.000200106
1.82749e-06
0.000199762
2.50801e-06
0.00019936
3.15165e-06
0.000198902
3.7607e-06
0.000198395
4.33729e-06
0.000197843
4.88336e-06
0.00019725
5.40066e-06
0.00019662
5.89078e-06
0.000195958
6.35509e-06
0.000195269