/*--------------------------------*- C++ -*----------------------------------*\
  =========                 |
  \\      /  F ield         | OpenFOAM: The Open Source CFD Toolbox
   \\    /   O peration     | Website:  https://openfoam.org
    \\  /    A nd           | Version:  7
     \\/     M anipulation  |
\*---------------------------------------------------------------------------*/
FoamFile
{
    version     2.0;
    format      ascii;
    class       volScalarField;
    location    "6.15";
    object      T;
}
// * * * * * * * * * * * * * * * * * * * * * * * * * * * * * * * * * * * * * //

dimensions      [0 0 0 1 0 0 0];

internalField   nonuniform List<scalar> 
12013
(
300.101
300.305
300.514
300.727
300.941
301.156
301.37
301.582
301.791
301.997
302.198
302.395
302.586
302.772
302.952
303.127
303.295
303.458
303.615
303.767
303.914
304.055
304.192
304.324
304.452
304.577
304.697
304.815
304.93
305.043
305.154
305.264
305.373
305.482
305.592
305.704
305.817
305.934
306.055
306.181
306.314
306.455
306.605
306.766
306.94
307.128
307.333
307.558
307.805
308.076
308.375
308.705
309.07
309.473
309.92
310.414
310.96
311.565
312.234
312.973
313.79
314.691
315.686
316.783
317.993
319.325
320.792
322.409
324.189
326.149
328.311
330.696
333.332
336.251
339.494
343.112
347.174
351.775
357.062
363.275
370.877
300.101
300.305
300.515
300.727
300.942
301.157
301.371
301.583
301.792
301.998
302.199
302.396
302.588
302.773
302.954
303.128
303.297
303.46
303.617
303.769
303.916
304.057
304.194
304.326
304.454
304.579
304.699
304.817
304.932
305.045
305.156
305.266
305.375
305.485
305.594
305.706
305.819
305.936
306.057
306.183
306.316
306.457
306.606
306.767
306.941
307.129
307.334
307.559
307.805
308.076
308.375
308.705
309.069
309.472
309.918
310.411
310.957
311.561
312.229
312.967
313.782
314.681
315.674
316.769
317.975
319.303
320.766
322.376
324.149
326.101
328.252
330.622
333.239
336.133
339.341
342.909
346.896
351.378
356.454
362.247
368.868
300.101
300.305
300.515
300.728
300.943
301.158
301.372
301.585
301.794
302
302.202
302.399
302.591
302.777
302.957
303.132
303.301
303.464
303.621
303.773
303.92
304.062
304.198
304.331
304.459
304.583
304.704
304.822
304.937
305.05
305.161
305.271
305.38
305.489
305.599
305.71
305.824
305.94
306.061
306.187
306.32
306.46
306.61
306.77
306.944
307.132
307.337
307.561
307.806
308.077
308.375
308.704
309.067
309.469
309.913
310.405
310.95
311.551
312.217
312.952
313.763
314.659
315.647
316.736
317.935
319.255
320.708
322.306
324.063
325.996
328.122
330.461
333.038
335.878
339.012
342.479
346.319
350.58
355.307
360.528
366.203
300.101
300.306
300.516
300.729
300.945
301.16
301.375
301.588
301.798
302.004
302.206
302.403
302.595
302.782
302.963
303.138
303.307
303.47
303.628
303.78
303.927
304.069
304.206
304.338
304.467
304.591
304.712
304.83
304.945
305.058
305.169
305.279
305.388
305.497
305.607
305.718
305.831
305.948
306.068
306.194
306.326
306.466
306.616
306.776
306.949
307.136
307.34
307.563
307.808
308.078
308.374
308.702
309.064
309.464
309.906
310.396
310.937
311.536
312.197
312.927
313.733
314.623
315.603
316.682
317.87
319.176
320.613
322.19
323.923
325.824
327.911
330.201
332.714
335.471
338.496
341.814
345.45
349.424
353.744
358.391
363.293
300.101
300.307
300.517
300.731
300.947
301.163
301.379
301.592
301.803
302.01
302.212
302.41
302.603
302.79
302.971
303.146
303.316
303.48
303.638
303.79
303.938
304.08
304.217
304.35
304.478
304.603
304.724
304.841
304.957
305.069
305.18
305.29
305.399
305.508
305.618
305.729
305.842
305.958
306.079
306.204
306.336
306.475
306.624
306.784
306.956
307.142
307.346
307.568
307.811
308.079
308.374
308.7
309.059
309.457
309.896
310.382
310.919
311.513
312.168
312.892
313.69
314.569
315.538
316.604
317.775
319.062
320.475
322.023
323.72
325.578
327.611
329.833
332.26
334.907
337.791
340.924
344.318
347.975
351.882
356.005
360.277
300.102
300.308
300.519
300.734
300.951
301.168
301.384
301.598
301.81
302.017
302.221
302.419
302.613
302.8
302.982
303.158
303.329
303.493
303.651
303.804
303.952
304.094
304.232
304.365
304.494
304.618
304.74
304.857
304.973
305.086
305.197
305.306
305.415
305.524
305.634
305.744
305.857
305.973
306.093
306.218
306.349
306.488
306.636
306.795
306.966
307.151
307.353
307.574
307.815
308.081
308.374
308.697
309.053
309.447
309.882
310.363
310.894
311.481
312.129
312.843
313.63
314.497
315.45
316.498
317.647
318.908
320.289
321.799
323.45
325.252
327.215
329.351
331.672
334.186
336.904
339.829
342.963
346.297
349.81
353.468
357.219
300.102
300.309
300.522
300.738
300.955
301.174
301.391
301.606
301.819
302.028
302.232
302.432
302.626
302.815
302.998
303.174
303.345
303.51
303.67
303.823
303.971
304.114
304.252
304.386
304.515
304.639
304.761
304.879
304.994
305.107
305.218
305.328
305.437
305.545
305.654
305.765
305.877
305.993
306.112
306.236
306.367
306.505
306.652
306.809
306.979
307.163
307.363
307.582
307.821
308.084
308.374
308.693
309.046
309.435
309.864
310.339
310.863
311.441
312.078
312.78
313.553
314.403
315.336
316.36
317.482
318.71
320.051
321.514
323.108
324.84
326.72
328.755
330.953
333.317
335.853
338.558
341.426
344.446
347.595
350.843
354.151
300.103
300.311
300.525
300.742
300.961
301.181
301.4
301.617
301.831
302.041
302.247
302.448
302.643
302.833
303.017
303.195
303.367
303.533
303.693
303.847
303.996
304.14
304.278
304.412
304.541
304.667
304.788
304.907
305.022
305.135
305.246
305.355
305.464
305.573
305.681
305.791
305.903
306.018
306.137
306.26
306.39
306.527
306.672
306.828
306.996
307.178
307.376
307.592
307.829
308.089
308.375
308.689
309.037
309.42
309.842
310.308
310.823
311.39
312.014
312.701
313.456
314.286
315.195
316.19
317.278
318.465
319.759
321.166
322.692
324.344
326.128
328.049
330.111
332.314
334.659
337.14
339.749
342.471
345.288
348.174
351.099
300.104
300.314
300.529
300.748
300.969
301.191
301.411
301.63
301.846
302.058
302.265
302.468
302.665
302.857
303.042
303.221
303.395
303.562
303.723
303.878
304.028
304.172
304.311
304.446
304.576
304.701
304.823
304.942
305.057
305.17
305.281
305.391
305.499
305.607
305.716
305.825
305.936
306.05
306.168
306.291
306.419
306.555
306.699
306.853
307.019
307.198
307.394
307.607
307.84
308.095
308.376
308.685
309.026
309.402
309.816
310.272
310.775
311.328
311.937
312.606
313.34
314.144
315.024
315.985
317.033
318.173
319.411
320.753
322.202
323.765
325.443
327.241
329.158
331.195
333.346
335.607
337.967
340.413
342.929
345.493
348.083
300.105
300.317
300.534
300.756
300.979
301.202
301.425
301.646
301.864
302.079
302.288
302.493
302.692
302.886
303.073
303.254
303.429
303.597
303.76
303.916
304.067
304.213
304.353
304.488
304.618
304.745
304.867
304.986
305.101
305.215
305.325
305.435
305.543
305.651
305.759
305.867
305.978
306.091
306.208
306.329
306.456
306.59
306.732
306.884
307.047
307.224
307.416
307.625
307.854
308.104
308.379
308.682
309.015
309.381
309.785
310.229
310.718
311.256
311.846
312.493
313.202
313.977
314.823
315.744
316.746
317.833
319.009
320.278
321.643
323.109
324.675
326.343
328.112
329.98
331.941
333.989
336.115
338.307
340.549
342.827
345.123
300.106
300.32
300.541
300.765
300.99
301.217
301.443
301.667
301.887
302.104
302.317
302.524
302.726
302.921
303.111
303.294
303.471
303.641
303.805
303.963
304.116
304.262
304.403
304.54
304.671
304.798
304.921
305.04
305.156
305.269
305.38
305.489
305.597
305.704
305.812
305.92
306.029
306.141
306.257
306.376
306.502
306.634
306.773
306.923
307.083
307.256
307.444
307.649
307.872
308.117
308.385
308.68
309.003
309.359
309.751
310.181
310.654
311.173
311.741
312.363
313.043
313.785
314.592
315.469
316.42
317.447
318.555
319.746
321.022
322.385
323.834
325.37
326.991
328.693
330.47
332.317
334.224
336.182
338.178
340.2
342.235
300.107
300.325
300.548
300.776
301.005
301.235
301.464
301.691
301.915
302.136
302.351
302.562
302.767
302.965
303.157
303.343
303.522
303.695
303.861
304.021
304.175
304.323
304.465
304.603
304.735
304.863
304.986
305.106
305.222
305.336
305.447
305.556
305.663
305.77
305.877
305.984
306.092
306.203
306.317
306.435
306.558
306.688
306.825
306.971
307.128
307.297
307.481
307.68
307.897
308.134
308.395
308.68
308.993
309.337
309.715
310.129
310.583
311.08
311.624
312.218
312.866
313.571
314.335
315.164
316.058
317.022
318.057
319.165
320.348
321.605
322.937
324.341
325.815
327.356
328.959
330.616
332.322
334.066
335.84
337.634
339.436
300.109
300.331
300.558
300.789
301.022
301.256
301.489
301.721
301.949
302.174
302.393
302.607
302.816
303.018
303.213
303.402
303.584
303.759
303.928
304.09
304.246
304.396
304.541
304.679
304.813
304.942
305.066
305.186
305.303
305.417
305.528
305.637
305.744
305.85
305.956
306.062
306.169
306.279
306.391
306.507
306.628
306.754
306.889
307.031
307.184
307.349
307.526
307.719
307.93
308.159
308.41
308.685
308.986
309.316
309.678
310.074
310.508
310.981
311.498
312.061
312.673
313.337
314.056
314.832
315.667
316.563
317.523
318.546
319.633
320.785
321.999
323.274
324.607
325.995
327.432
328.914
330.434
331.985
333.558
335.147
336.743
300.111
300.337
300.569
300.805
301.043
301.282
301.52
301.757
301.99
302.219
302.443
302.662
302.875
303.081
303.281
303.473
303.659
303.837
304.009
304.174
304.333
304.485
304.631
304.772
304.907
305.037
305.162
305.283
305.401
305.514
305.626
305.734
305.841
305.947
306.052
306.157
306.263
306.37
306.48
306.594
306.712
306.836
306.966
307.105
307.253
307.412
307.584
307.77
307.973
308.193
308.434
308.697
308.985
309.3
309.644
310.02
310.431
310.878
311.365
311.895
312.469
313.09
313.76
314.48
315.254
316.081
316.963
317.9
318.893
319.939
321.039
322.189
323.388
324.631
325.915
327.235
328.585
329.96
331.353
332.759
334.17
300.114
300.345
300.582
300.824
301.068
301.313
301.557
301.799
302.038
302.273
302.503
302.728
302.945
303.157
303.361
303.558
303.748
303.93
304.106
304.274
304.436
304.591
304.739
304.882
305.019
305.151
305.277
305.399
305.517
305.632
305.743
305.851
305.958
306.063
306.167
306.271
306.375
306.481
306.589
306.7
306.815
306.935
307.062
307.196
307.339
307.492
307.657
307.836
308.029
308.24
308.469
308.719
308.992
309.29
309.616
309.97
310.356
310.776
311.232
311.726
312.26
312.835
313.455
314.119
314.829
315.587
316.391
317.243
318.142
319.087
320.076
321.108
322.18
323.288
324.43
325.601
326.797
328.013
329.245
330.486
331.733
300.117
300.354
300.598
300.846
301.097
301.349
301.6
301.85
302.096
302.338
302.574
302.805
303.029
303.246
303.456
303.659
303.854
304.041
304.221
304.393
304.558
304.717
304.868
305.013
305.153
305.286
305.414
305.538
305.656
305.771
305.883
305.991
306.097
306.201
306.304
306.407
306.51
306.613
306.719
306.827
306.939
307.055
307.177
307.307
307.444
307.591
307.748
307.918
308.102
308.302
308.519
308.756
309.013
309.293
309.598
309.929
310.289
310.68
311.103
311.56
312.052
312.582
313.15
313.757
314.405
315.092
315.821
316.59
317.399
318.246
319.131
320.051
321.005
321.989
323
324.036
325.092
326.165
327.25
328.345
329.444
300.121
300.366
300.617
300.873
301.132
301.392
301.652
301.91
302.164
302.414
302.659
302.897
303.129
303.353
303.569
303.778
303.979
304.172
304.357
304.534
304.704
304.866
305.021
305.169
305.311
305.447
305.577
305.701
305.821
305.937
306.049
306.157
306.263
306.366
306.468
306.569
306.67
306.771
306.874
306.979
307.088
307.2
307.317
307.441
307.572
307.712
307.862
308.023
308.197
308.385
308.589
308.81
309.051
309.312
309.596
309.904
310.237
310.597
310.987
311.406
311.857
312.34
312.857
313.407
313.993
314.613
315.268
315.957
316.68
317.435
318.222
319.039
319.883
320.753
321.645
322.558
323.487
324.431
325.386
326.349
327.317
300.125
300.379
300.639
300.905
301.174
301.443
301.713
301.98
302.244
302.504
302.758
303.005
303.246
303.478
303.703
303.919
304.127
304.327
304.518
304.701
304.875
305.042
305.201
305.353
305.498
305.636
305.768
305.895
306.016
306.133
306.245
306.353
306.458
306.561
306.662
306.761
306.86
306.959
307.059
307.161
307.265
307.373
307.486
307.604
307.728
307.861
308.002
308.153
308.317
308.493
308.683
308.889
309.112
309.354
309.616
309.899
310.205
310.536
310.891
311.273
311.682
312.119
312.586
313.081
313.607
314.162
314.747
315.361
316.003
316.673
317.369
318.09
318.834
319.599
320.384
321.185
322.001
322.83
323.668
324.513
325.363
300.13
300.394
300.666
300.942
301.222
301.503
301.784
302.063
302.339
302.61
302.875
303.133
303.383
303.626
303.86
304.085
304.301
304.508
304.707
304.896
305.077
305.249
305.413
305.569
305.718
305.859
305.994
306.122
306.245
306.362
306.475
306.584
306.689
306.791
306.89
306.988
307.085
307.182
307.279
307.377
307.477
307.58
307.687
307.799
307.917
308.041
308.174
308.316
308.468
308.631
308.808
308.998
309.204
309.426
309.666
309.924
310.203
310.503
310.825
311.17
311.539
311.932
312.35
312.793
313.261
313.755
314.274
314.817
315.385
315.975
316.588
317.221
317.874
318.545
319.233
319.934
320.649
321.374
322.107
322.848
323.593
300.136
300.412
300.696
300.986
301.279
301.574
301.868
302.161
302.45
302.734
303.011
303.282
303.545
303.799
304.044
304.279
304.505
304.721
304.928
305.125
305.313
305.491
305.661
305.822
305.974
306.119
306.257
306.388
306.512
306.631
306.745
306.854
306.958
307.06
307.158
307.254
307.349
307.443
307.537
307.631
307.727
307.825
307.927
308.032
308.143
308.259
308.383
308.515
308.655
308.806
308.969
309.143
309.331
309.534
309.752
309.986
310.238
310.509
310.798
311.108
311.438
311.788
312.16
312.554
312.969
313.405
313.863
314.341
314.84
315.358
315.895
316.449
317.02
317.606
318.206
318.819
319.442
320.075
320.716
321.362
322.014
300.143
300.434
300.732
301.037
301.346
301.656
301.967
302.275
302.58
302.879
303.172
303.457
303.733
304.001
304.258
304.506
304.743
304.97
305.186
305.392
305.588
305.773
305.949
306.115
306.273
306.422
306.563
306.697
306.823
306.944
307.058
307.167
307.272
307.373
307.47
307.564
307.657
307.748
307.838
307.929
308.021
308.114
308.21
308.309
308.412
308.521
308.635
308.757
308.886
309.024
309.172
309.331
309.502
309.686
309.882
310.094
310.32
310.562
310.821
311.096
311.389
311.7
312.029
312.377
312.742
313.126
313.527
313.947
314.383
314.835
315.304
315.787
316.284
316.795
317.317
317.85
318.392
318.943
319.501
320.065
320.634
300.151
300.458
300.774
301.097
301.424
301.753
302.082
302.408
302.731
303.048
303.358
303.66
303.953
304.236
304.509
304.77
305.02
305.259
305.486
305.702
305.906
306.1
306.283
306.456
306.619
306.772
306.917
307.054
307.183
307.305
307.421
307.53
307.635
307.735
307.831
307.924
308.014
308.102
308.189
308.276
308.363
308.451
308.541
308.634
308.73
308.831
308.936
309.047
309.166
309.292
309.426
309.57
309.724
309.889
310.065
310.254
310.456
310.671
310.901
311.145
311.404
311.678
311.968
312.272
312.593
312.929
313.279
313.645
314.025
314.419
314.826
315.246
315.678
316.121
316.574
317.037
317.508
317.986
318.471
318.961
319.456
300.161
300.487
300.824
301.167
301.515
301.865
302.215
302.564
302.907
303.245
303.576
303.897
304.209
304.51
304.799
305.076
305.341
305.593
305.833
306.06
306.275
306.477
306.668
306.848
307.017
307.176
307.325
307.465
307.597
307.721
307.837
307.948
308.052
308.152
308.246
308.338
308.425
308.511
308.595
308.678
308.76
308.843
308.928
309.014
309.103
309.195
309.292
309.393
309.501
309.615
309.736
309.865
310.003
310.151
310.308
310.476
310.655
310.846
311.048
311.263
311.491
311.731
311.985
312.251
312.531
312.823
313.129
313.446
313.776
314.118
314.471
314.835
315.209
315.593
315.985
316.386
316.794
317.208
317.629
318.054
318.484
300.172
300.521
300.881
301.248
301.621
301.996
302.371
302.744
303.113
303.475
303.828
304.172
304.505
304.827
305.135
305.43
305.711
305.979
306.232
306.472
306.698
306.91
307.11
307.297
307.473
307.637
307.791
307.935
308.07
308.196
308.314
308.425
308.529
308.628
308.722
308.811
308.897
308.98
309.06
309.139
309.217
309.295
309.374
309.454
309.536
309.62
309.708
309.8
309.897
310
310.109
310.224
310.347
310.478
310.618
310.766
310.924
311.092
311.27
311.459
311.658
311.868
312.089
312.321
312.565
312.819
313.084
313.359
313.645
313.941
314.246
314.561
314.884
315.215
315.554
315.901
316.253
316.612
316.976
317.345
317.717
300.185
300.561
300.948
301.343
301.745
302.149
302.553
302.954
303.351
303.741
304.121
304.491
304.848
305.192
305.522
305.837
306.137
306.421
306.69
306.943
307.181
307.405
307.614
307.81
307.993
308.163
308.321
308.469
308.607
308.735
308.855
308.966
309.071
309.169
309.262
309.349
309.433
309.512
309.59
309.665
309.738
309.812
309.885
309.958
310.034
310.111
310.191
310.274
310.361
310.453
310.55
310.653
310.762
310.878
311.001
311.132
311.271
311.418
311.574
311.739
311.913
312.096
312.288
312.49
312.701
312.921
313.151
313.389
313.636
313.892
314.156
314.427
314.706
314.993
315.285
315.584
315.889
316.199
316.513
316.832
317.155
300.2
300.607
301.026
301.454
301.888
302.326
302.763
303.198
303.627
304.048
304.459
304.858
305.243
305.613
305.967
306.304
306.624
306.927
307.212
307.48
307.732
307.967
308.186
308.391
308.581
308.757
308.921
309.073
309.213
309.344
309.465
309.577
309.682
309.779
309.87
309.956
310.037
310.114
310.188
310.26
310.329
310.397
310.465
310.533
310.602
310.672
310.744
310.819
310.897
310.979
311.066
311.157
311.253
311.356
311.464
311.579
311.701
311.83
311.966
312.11
312.261
312.42
312.588
312.763
312.946
313.137
313.335
313.541
313.755
313.976
314.204
314.438
314.679
314.926
315.178
315.437
315.7
315.967
316.239
316.515
316.794
300.218
300.66
301.116
301.582
302.055
302.531
303.007
303.48
303.946
304.404
304.849
305.28
305.696
306.095
306.475
306.837
307.179
307.502
307.805
308.089
308.354
308.602
308.832
309.045
309.242
309.425
309.594
309.75
309.893
310.026
310.148
310.261
310.365
310.462
310.552
310.636
310.715
310.789
310.859
310.927
310.992
311.056
311.119
311.181
311.244
311.308
311.373
311.44
311.51
311.583
311.66
311.741
311.826
311.916
312.011
312.112
312.219
312.332
312.451
312.576
312.708
312.847
312.992
313.144
313.303
313.468
313.64
313.819
314.003
314.194
314.391
314.594
314.802
315.015
315.234
315.456
315.684
315.915
316.15
316.388
316.63
300.238
300.722
301.221
301.731
302.249
302.769
303.29
303.806
304.315
304.813
305.297
305.765
306.215
306.645
307.055
307.442
307.808
308.152
308.474
308.775
309.055
309.315
309.555
309.777
309.982
310.171
310.344
310.504
310.65
310.784
310.908
311.021
311.125
311.22
311.309
311.391
311.467
311.539
311.606
311.67
311.732
311.791
311.849
311.907
311.964
312.022
312.081
312.141
312.204
312.269
312.337
312.408
312.483
312.563
312.647
312.735
312.829
312.928
313.032
313.142
313.257
313.378
313.505
313.637
313.775
313.919
314.068
314.223
314.383
314.549
314.719
314.895
315.075
315.26
315.449
315.642
315.838
316.039
316.242
316.448
316.658
300.262
300.795
301.343
301.904
302.473
303.045
303.616
304.182
304.739
305.283
305.81
306.319
306.806
307.271
307.711
308.127
308.518
308.884
309.226
309.543
309.838
310.11
310.36
310.591
310.803
310.997
311.175
311.338
311.486
311.622
311.745
311.858
311.962
312.056
312.143
312.223
312.297
312.366
312.43
312.491
312.549
312.604
312.658
312.711
312.764
312.816
312.87
312.924
312.98
313.039
313.099
313.163
313.23
313.3
313.374
313.453
313.535
313.622
313.714
313.81
313.911
314.017
314.128
314.244
314.365
314.49
314.621
314.756
314.895
315.04
315.188
315.341
315.497
315.658
315.822
315.99
316.161
316.334
316.511
316.69
316.872
300.29
300.879
301.485
302.105
302.733
303.364
303.993
304.616
305.226
305.821
306.397
306.949
307.478
307.979
308.453
308.898
309.315
309.703
310.064
310.398
310.706
310.99
311.25
311.489
311.707
311.905
312.087
312.251
312.401
312.538
312.661
312.774
312.876
312.969
313.054
313.132
313.204
313.27
313.332
313.39
313.444
313.497
313.547
313.596
313.645
313.693
313.742
313.791
313.842
313.895
313.95
314.007
314.067
314.13
314.196
314.266
314.339
314.417
314.498
314.584
314.673
314.767
314.865
314.967
315.073
315.184
315.299
315.417
315.54
315.666
315.796
315.93
316.067
316.207
316.351
316.497
316.646
316.798
316.952
317.108
317.267
300.322
300.976
301.649
302.337
303.033
303.732
304.427
305.113
305.784
306.436
307.064
307.665
308.236
308.776
309.284
309.759
310.202
310.613
310.992
311.341
311.662
311.956
312.225
312.469
312.692
312.894
313.078
313.244
313.395
313.531
313.654
313.765
313.866
313.958
314.041
314.117
314.187
314.251
314.31
314.366
314.418
314.467
314.515
314.561
314.607
314.652
314.697
314.743
314.79
314.839
314.889
314.941
314.996
315.054
315.114
315.177
315.244
315.314
315.387
315.464
315.544
315.628
315.716
315.807
315.902
316.001
316.102
316.208
316.316
316.428
316.543
316.661
316.782
316.906
317.032
317.161
317.292
317.425
317.56
317.697
317.836
300.359
301.089
301.84
302.606
303.38
304.156
304.926
305.683
306.421
307.135
307.819
308.471
309.088
309.668
310.211
310.715
311.183
311.614
312.01
312.373
312.704
313.007
313.281
313.53
313.756
313.96
314.144
314.311
314.461
314.596
314.718
314.828
314.928
315.018
315.1
315.174
315.242
315.304
315.362
315.416
315.466
315.514
315.56
315.605
315.649
315.692
315.736
315.78
315.824
315.87
315.918
315.967
316.019
316.072
316.129
316.187
316.249
316.314
316.381
316.452
316.525
316.602
316.682
316.765
316.851
316.939
317.031
317.126
317.224
317.324
317.427
317.532
317.64
317.75
317.862
317.976
318.092
318.21
318.329
318.45
318.572
300.402
301.22
302.06
302.916
303.78
304.643
305.497
306.333
307.145
307.925
308.67
309.375
310.038
310.658
311.234
311.766
312.255
312.704
313.114
313.488
313.827
314.135
314.413
314.664
314.891
315.095
315.279
315.444
315.593
315.727
315.847
315.956
316.054
316.142
316.223
316.296
316.363
316.425
316.482
316.535
316.586
316.634
316.68
316.724
316.768
316.811
316.855
316.898
316.943
316.988
317.035
317.083
317.133
317.185
317.239
317.296
317.354
317.416
317.48
317.546
317.615
317.686
317.761
317.837
317.917
317.998
318.083
318.169
318.258
318.349
318.442
318.538
318.635
318.734
318.834
318.936
319.04
319.145
319.252
319.359
319.467
300.452
301.371
302.314
303.273
304.239
305.201
306.148
307.072
307.962
308.814
309.621
310.38
311.088
311.745
312.35
312.906
313.414
313.876
314.296
314.676
315.019
315.329
315.607
315.858
316.083
316.286
316.468
316.631
316.778
316.91
317.029
317.136
317.233
317.321
317.401
317.475
317.542
317.605
317.663
317.718
317.769
317.819
317.867
317.913
317.959
318.004
318.049
318.095
318.141
318.187
318.235
318.285
318.335
318.388
318.442
318.498
318.556
318.616
318.678
318.742
318.809
318.877
318.947
319.02
319.095
319.171
319.25
319.33
319.413
319.496
319.582
319.669
319.758
319.848
319.939
320.031
320.125
320.219
320.314
320.41
320.507
300.51
301.545
302.606
303.684
304.765
305.837
306.888
307.905
308.88
309.804
310.673
311.483
312.233
312.922
313.552
314.125
314.645
315.115
315.539
315.92
316.263
316.571
316.847
317.095
317.317
317.516
317.695
317.855
318
318.13
318.248
318.355
318.452
318.541
318.622
318.698
318.767
318.832
318.894
318.952
319.007
319.06
319.112
319.162
319.212
319.261
319.311
319.36
319.41
319.46
319.511
319.564
319.617
319.672
319.728
319.785
319.844
319.904
319.966
320.03
320.095
320.162
320.231
320.301
320.372
320.445
320.52
320.595
320.672
320.751
320.83
320.911
320.992
321.075
321.158
321.242
321.327
321.412
321.498
321.584
321.671
300.576
301.745
302.942
304.154
305.364
306.558
307.72
308.837
309.898
310.894
311.821
312.676
313.459
314.173
314.82
315.403
315.927
316.397
316.818
317.195
317.532
317.834
318.104
318.347
318.564
318.759
318.935
319.093
319.236
319.366
319.485
319.593
319.692
319.783
319.868
319.947
320.022
320.092
320.158
320.222
320.283
320.342
320.4
320.457
320.513
320.568
320.623
320.678
320.734
320.789
320.845
320.902
320.96
321.018
321.077
321.137
321.198
321.26
321.324
321.388
321.453
321.52
321.587
321.655
321.725
321.795
321.867
321.939
322.012
322.085
322.16
322.234
322.31
322.386
322.462
322.539
322.616
322.693
322.771
322.848
322.926
300.652
301.974
303.325
304.688
306.042
307.369
308.649
309.867
311.011
312.075
313.052
313.94
314.743
315.465
316.114
316.695
317.214
317.678
318.091
318.46
318.789
319.084
319.348
319.584
319.797
319.988
320.162
320.319
320.462
320.594
320.714
320.825
320.929
321.025
321.115
321.2
321.281
321.358
321.432
321.503
321.572
321.64
321.705
321.77
321.833
321.896
321.959
322.021
322.083
322.145
322.207
322.269
322.331
322.394
322.457
322.52
322.584
322.648
322.713
322.779
322.844
322.911
322.978
323.045
323.113
323.181
323.249
323.318
323.387
323.457
323.526
323.596
323.666
323.736
323.806
323.876
323.946
324.015
324.085
324.154
324.224
300.738
302.233
303.759
305.29
306.802
308.27
309.672
310.988
312.2
313.306
314.308
315.211
316.02
316.742
317.385
317.957
318.466
318.917
319.319
319.677
319.997
320.282
320.539
320.769
320.978
321.167
321.339
321.496
321.641
321.775
321.9
322.016
322.125
322.228
322.325
322.418
322.507
322.592
322.675
322.755
322.833
322.908
322.983
323.056
323.128
323.199
323.269
323.338
323.407
323.475
323.543
323.61
323.678
323.744
323.811
323.878
323.944
324.01
324.076
324.143
324.209
324.275
324.341
324.407
324.473
324.538
324.604
324.67
324.735
324.8
324.865
324.93
324.994
325.058
325.122
325.186
325.249
325.311
325.373
325.435
325.496
300.833
302.524
304.243
305.96
307.642
309.249
310.747
312.126
313.381
314.513
315.527
316.432
317.235
317.946
318.575
319.131
319.623
320.059
320.446
320.79
321.098
321.374
321.623
321.847
322.052
322.239
322.411
322.569
322.717
322.854
322.983
323.105
323.221
323.331
323.436
323.537
323.634
323.728
323.819
323.907
323.994
324.078
324.161
324.241
324.321
324.399
324.476
324.552
324.626
324.7
324.773
324.844
324.915
324.986
325.055
325.124
325.192
325.26
325.327
325.393
325.459
325.524
325.589
325.653
325.717
325.78
325.842
325.904
325.966
326.027
326.087
326.147
326.206
326.264
326.322
326.379
326.435
326.491
326.546
326.601
326.655
300.935
302.835
304.765
306.679
308.502
310.205
311.771
313.193
314.47
315.609
316.619
317.51
318.295
318.985
319.592
320.126
320.597
321.013
321.383
321.713
322.008
322.273
322.514
322.733
322.934
323.118
323.29
323.449
323.599
323.74
323.873
324
324.121
324.237
324.348
324.456
324.56
324.66
324.758
324.854
324.947
325.037
325.126
325.213
325.298
325.381
325.463
325.543
325.622
325.7
325.776
325.851
325.924
325.996
326.068
326.138
326.207
326.275
326.342
326.408
326.473
326.537
326.6
326.662
326.724
326.784
326.844
326.902
326.96
327.017
327.073
327.128
327.182
327.236
327.288
327.34
327.391
327.441
327.49
327.538
327.586
301.025
303.116
305.242
307.286
309.203
310.967
312.567
314.002
315.277
316.404
317.394
318.263
319.023
319.688
320.271
320.783
321.233
321.632
321.986
322.302
322.586
322.843
323.076
323.289
323.486
323.669
323.838
323.998
324.148
324.29
324.425
324.555
324.678
324.797
324.912
325.023
325.131
325.235
325.337
325.436
325.532
325.626
325.718
325.808
325.896
325.982
326.066
326.149
326.23
326.309
326.387
326.463
326.538
326.611
326.683
326.754
326.823
326.891
326.958
327.023
327.088
327.151
327.213
327.274
327.334
327.392
327.45
327.506
327.562
327.616
327.67
327.722
327.773
327.823
327.873
327.921
327.968
328.014
328.06
328.104
328.148
381.041
388.992
395.684
401.521
406.704
411.342
415.496
419.2
422.471
425.307
427.7
429.626
431.052
431.928
432.19
431.747
430.469
428.161
424.492
418.804
409.451
403.118
398.267
394.296
390.916
387.965
385.343
382.981
380.83
378.853
377.024
375.319
373.722
372.217
370.794
369.441
368.151
366.916
365.73
364.588
363.484
362.415
361.377
360.366
359.38
358.417
357.473
356.546
355.636
354.74
353.856
352.984
352.123
351.27
350.426
349.589
348.758
347.934
347.116
346.303
345.494
344.69
343.891
343.095
342.304
341.518
340.735
339.956
339.182
338.413
337.648
336.888
336.133
335.383
334.639
333.901
333.17
332.445
331.727
331.017
330.315
329.621
328.936
328.261
327.595
326.94
326.295
325.661
325.039
324.429
323.831
323.245
322.673
322.114
321.568
321.036
320.518
320.014
319.524
319.048
318.587
318.14
317.706
317.288
316.883
316.491
316.114
315.75
315.399
315.061
314.736
314.423
314.122
313.834
313.556
313.29
313.034
312.788
312.553
312.327
312.11
311.902
311.702
311.511
311.327
311.15
310.981
310.818
310.661
310.51
310.365
310.225
310.09
309.96
309.834
309.713
309.595
309.481
309.37
309.262
309.157
309.055
308.956
308.858
308.763
308.67
308.579
308.489
308.401
308.314
308.228
308.144
308.06
307.977
307.895
307.814
307.733
307.653
307.573
307.494
307.417
376.298
383.207
389.429
395.022
400.063
404.614
408.712
412.382
415.631
418.459
420.852
422.787
424.231
425.137
425.444
425.068
423.898
421.777
418.489
413.766
407.562
402.199
397.724
393.933
390.655
387.768
385.189
382.857
380.728
378.769
376.953
375.259
373.67
372.173
370.755
369.407
368.122
366.89
365.707
364.568
363.466
362.399
361.363
360.354
359.369
358.406
357.463
356.538
355.628
354.733
353.85
352.978
352.117
351.265
350.421
349.584
348.755
347.931
347.112
346.299
345.491
344.687
343.888
343.093
342.302
341.515
340.732
339.954
339.18
338.41
337.645
336.885
336.13
335.381
334.637
333.899
333.167
332.443
331.725
331.015
330.313
329.619
328.934
328.259
327.593
326.937
326.293
325.659
325.037
324.426
323.828
323.243
322.671
322.112
321.566
321.034
320.516
320.012
319.522
319.047
318.585
318.138
317.705
317.286
316.881
316.49
316.113
315.749
315.398
315.06
314.735
314.422
314.122
313.833
313.555
313.289
313.033
312.788
312.552
312.326
312.11
311.902
311.702
311.511
311.327
311.15
310.981
310.818
310.661
310.51
310.365
310.225
310.09
309.96
309.834
309.713
309.595
309.481
309.37
309.262
309.158
309.055
308.956
308.859
308.764
308.67
308.579
308.489
308.401
308.314
308.229
308.144
308.06
307.978
307.896
307.814
307.734
307.653
307.574
307.495
307.417
372.205
378.117
383.707
388.896
393.672
398.044
402.02
405.606
408.802
411.6
413.983
415.929
417.403
418.364
418.756
418.51
417.541
415.747
413.021
409.32
404.859
400.531
396.626
393.163
390.086
387.332
384.845
382.58
380.501
378.581
376.795
375.125
373.556
372.074
370.67
369.334
368.057
366.834
365.658
364.524
363.428
362.365
361.332
360.326
359.345
358.384
357.444
356.52
355.612
354.718
353.837
352.967
352.106
351.255
350.412
349.576
348.747
347.924
347.106
346.293
345.485
344.682
343.883
343.088
342.297
341.51
340.728
339.949
339.175
338.406