# vtk DataFile Version 2.0

ASCII

DATASET UNSTRUCTURED_GRID

POINTS 161 float 

1.2479480269999997e-03  0.0000000000000000e+00  2.5000000000000005e-02
3.7564605215000004e-03  0.0000000000000000e+00  2.5000000000000001e-02
6.2903334465000014e-03  0.0000000000000000e+00  2.5000000000000005e-02
8.8498231920000007e-03  0.0000000000000000e+00  2.5000000000000005e-02
1.1435188734999997e-02  0.0000000000000000e+00  2.5000000000000001e-02
1.4046691670000002e-02  0.0000000000000000e+00  2.5000000000000001e-02
1.6684596245000002e-02  0.0000000000000000e+00  2.5000000000000001e-02
1.9349169374999996e-02  0.0000000000000000e+00  2.4999999999999998e-02
2.2040680664999996e-02  0.0000000000000000e+00  2.5000000000000001e-02
2.4759402454999999e-02  0.0000000000000000e+00  2.4999999999999998e-02
2.7505609844999997e-02  0.0000000000000000e+00  2.5000000000000001e-02
3.0279580699999999e-02  0.0000000000000000e+00  2.5000000000000001e-02
3.3081595699999994e-02  0.0000000000000000e+00  2.5000000000000001e-02
3.5911938370000000e-02  0.0000000000000000e+00  2.5000000000000005e-02
3.8770895094999994e-02  0.0000000000000000e+00  2.5000000000000005e-02
4.1658755154999998e-02  0.0000000000000000e+00  2.5000000000000001e-02
4.4575810750000000e-02  0.0000000000000000e+00  2.5000000000000005e-02
4.7522357044999998e-02  0.0000000000000000e+00  2.5000000000000001e-02
5.0498692184999992e-02  0.0000000000000000e+00  2.5000000000000001e-02
5.3505117319999997e-02  0.0000000000000000e+00  2.5000000000000001e-02
5.6541936659999993e-02  0.0000000000000000e+00  2.5000000000000005e-02
5.9609457479999996e-02  0.0000000000000000e+00  2.5000000000000001e-02
6.2707990165000005e-02  0.0000000000000000e+00  2.5000000000000001e-02
6.5837848234999982e-02  0.0000000000000000e+00  2.4999999999999998e-02
6.8999348380000006e-02  0.0000000000000000e+00  2.5000000000000001e-02
7.2192810504999996e-02  0.0000000000000000e+00  2.5000000000000005e-02
7.5418557725000002e-02  0.0000000000000000e+00  2.5000000000000005e-02
7.8676916434999994e-02  0.0000000000000000e+00  2.5000000000000005e-02
8.1968216339999997e-02  0.0000000000000000e+00  2.5000000000000001e-02
8.5292790460000004e-02  0.0000000000000000e+00  2.5000000000000001e-02
8.8650975185000008e-02  0.0000000000000000e+00  2.5000000000000001e-02
9.2043110309999981e-02  0.0000000000000000e+00  2.5000000000000001e-02
9.5469539070000012e-02  0.0000000000000000e+00  2.5000000000000005e-02
9.8930608189999977e-02  0.0000000000000000e+00  2.5000000000000005e-02
1.0242666780000000e-01  0.0000000000000000e+00  2.5000000000000005e-02
1.0595807170000000e-01  0.0000000000000000e+00  2.4999999999999998e-02
1.0952517724999998e-01  0.0000000000000000e+00  2.5000000000000001e-02
1.1312834529999997e-01  0.0000000000000000e+00  2.5000000000000001e-02
1.1676794049999999e-01  0.0000000000000000e+00  2.5000000000000001e-02
1.2044433110000000e-01  0.0000000000000000e+00  2.5000000000000001e-02
1.2415788905000000e-01  0.0000000000000000e+00  2.5000000000000001e-02
1.2790899015000001e-01  0.0000000000000000e+00  2.5000000000000005e-02
1.3169801395000000e-01  0.0000000000000000e+00  2.4999999999999998e-02
1.3552534380000000e-01  0.0000000000000000e+00  2.5000000000000005e-02
1.3939136699999999e-01  0.0000000000000000e+00  2.5000000000000001e-02
1.4329647475000001e-01  0.0000000000000000e+00  2.5000000000000005e-02
1.4724106214999999e-01  0.0000000000000000e+00  2.4999999999999998e-02
1.5122552830000000e-01  0.0000000000000000e+00  2.5000000000000001e-02
1.5525027640000000e-01  0.0000000000000000e+00  2.5000000000000001e-02
1.5931571375000000e-01  0.0000000000000000e+00  2.4999999999999998e-02
1.6342225165000002e-01  0.0000000000000000e+00  2.5000000000000005e-02
1.6757030559999997e-01  0.0000000000000000e+00  2.5000000000000001e-02
1.7176029529999998e-01  0.0000000000000000e+00  2.5000000000000005e-02
1.7599264474999998e-01  0.0000000000000000e+00  2.5000000000000005e-02
1.8026778220000000e-01  0.0000000000000000e+00  2.5000000000000001e-02
1.8458614020000003e-01  0.0000000000000000e+00  2.5000000000000005e-02
1.8894815575000001e-01  0.0000000000000000e+00  2.5000000000000001e-02
1.9335427015000003e-01  0.0000000000000000e+00  2.5000000000000001e-02
1.9780492924999996e-01  0.0000000000000000e+00  2.5000000000000001e-02
2.0230058344999999e-01  0.0000000000000000e+00  2.5000000000000001e-02
2.0684168754999999e-01  0.0000000000000000e+00  2.5000000000000001e-02
2.1142870105000000e-01  0.0000000000000000e+00  2.5000000000000001e-02
2.1606208815000000e-01  0.0000000000000000e+00  2.5000000000000001e-02
2.2074231759999996e-01  0.0000000000000000e+00  2.4999999999999998e-02
2.2546986299999996e-01  0.0000000000000000e+00  2.5000000000000001e-02
2.3024520269999998e-01  0.0000000000000000e+00  2.5000000000000005e-02
2.3506881985000003e-01  0.0000000000000000e+00  2.4999999999999998e-02
2.3994120254999998e-01  0.0000000000000000e+00  2.5000000000000001e-02
2.4486284384999998e-01  0.0000000000000000e+00  2.5000000000000001e-02
2.4983424174999996e-01  0.0000000000000000e+00  2.4999999999999998e-02
2.5485589919999996e-01  0.0000000000000000e+00  2.5000000000000005e-02
2.5992832429999996e-01  0.0000000000000000e+00  2.5000000000000005e-02
2.6505203035000002e-01  0.0000000000000000e+00  2.5000000000000001e-02
2.7022753580000008e-01  0.0000000000000000e+00  2.5000000000000005e-02
2.7545536429999989e-01  0.0000000000000000e+00  2.5000000000000001e-02
2.8073604484999998e-01  0.0000000000000000e+00  2.5000000000000001e-02
2.8607011174999997e-01  0.0000000000000000e+00  2.5000000000000001e-02
2.9145810470000000e-01  0.0000000000000000e+00  2.5000000000000001e-02
2.9690056894999994e-01  0.0000000000000000e+00  2.5000000000000005e-02
3.0239805515000001e-01  0.0000000000000000e+00  2.5000000000000001e-02
3.0795111949999998e-01  0.0000000000000000e+00  2.5000000000000001e-02
3.1356032395000000e-01  0.0000000000000000e+00  2.5000000000000001e-02
3.1922623605000000e-01  0.0000000000000000e+00  2.5000000000000005e-02
3.2494942910000002e-01  0.0000000000000000e+00  2.5000000000000001e-02
3.3073048220000001e-01  0.0000000000000000e+00  2.5000000000000001e-02
3.3656998030000002e-01  0.0000000000000000e+00  2.5000000000000001e-02
3.4246851424999997e-01  0.0000000000000000e+00  2.5000000000000001e-02
3.4842668090000001e-01  0.0000000000000000e+00  2.4999999999999998e-02
3.5444508315000001e-01  0.0000000000000000e+00  2.4999999999999998e-02
3.6052432990000000e-01  0.0000000000000000e+00  2.5000000000000001e-02
3.6666503630000002e-01  0.0000000000000000e+00  2.5000000000000005e-02
3.7286782369999993e-01  0.0000000000000000e+00  2.5000000000000001e-02
3.7913331969999992e-01  0.0000000000000000e+00  2.5000000000000001e-02
3.8546215830000002e-01  0.0000000000000000e+00  2.5000000000000001e-02
3.9185497989999996e-01  0.0000000000000000e+00  2.5000000000000001e-02
3.9831243130000005e-01  0.0000000000000000e+00  2.5000000000000001e-02
4.0483516589999996e-01  0.0000000000000000e+00  2.5000000000000001e-02
4.1142384369999990e-01  0.0000000000000000e+00  2.5000000000000005e-02
4.1807913139999997e-01  0.0000000000000000e+00  2.5000000000000001e-02
4.2480170239999998e-01  0.0000000000000000e+00  2.4999999999999998e-02
4.3159223684999998e-01  0.0000000000000000e+00  2.5000000000000001e-02
4.3845142189999992e-01  0.0000000000000000e+00  2.5000000000000001e-02
4.4537995159999993e-01  0.0000000000000000e+00  2.4999999999999998e-02
4.5237852700000009e-01  0.0000000000000000e+00  2.5000000000000005e-02
4.5944785625000001e-01  0.0000000000000000e+00  2.5000000000000005e-02
4.6658865464999993e-01  0.0000000000000000e+00  2.5000000000000001e-02
4.7380164474999992e-01  0.0000000000000000e+00  2.5000000000000001e-02
4.8108755635000006e-01  0.0000000000000000e+00  2.5000000000000005e-02
4.8844712664999984e-01  0.0000000000000000e+00  2.4999999999999998e-02
4.9588110034999994e-01  0.0000000000000000e+00  2.5000000000000001e-02
5.0339022965000002e-01  0.0000000000000000e+00  2.5000000000000001e-02
5.1097527440000001e-01  0.0000000000000000e+00  2.4999999999999998e-02
5.1863700204999996e-01  0.0000000000000000e+00  2.4999999999999998e-02
5.2637618780000006e-01  0.0000000000000000e+00  2.5000000000000005e-02
5.3419361479999994e-01  0.0000000000000000e+00  2.5000000000000001e-02
5.4209007400000009e-01  0.0000000000000000e+00  2.5000000000000001e-02
5.5006636439999990e-01  0.0000000000000000e+00  2.5000000000000005e-02
5.5812329314999998e-01  0.0000000000000000e+00  2.5000000000000005e-02
5.6626167539999994e-01  0.0000000000000000e+00  2.4999999999999998e-02
5.7448233464999998e-01  0.0000000000000000e+00  2.5000000000000005e-02
5.8278610269999997e-01  0.0000000000000000e+00  2.5000000000000001e-02
5.9117381974999994e-01  0.0000000000000000e+00  2.5000000000000001e-02
5.9964633454999994e-01  0.0000000000000000e+00  2.5000000000000001e-02
6.0820450430000006e-01  0.0000000000000000e+00  2.5000000000000005e-02
6.1684919499999991e-01  0.0000000000000000e+00  2.5000000000000005e-02
6.2558128135000002e-01  0.0000000000000000e+00  2.5000000000000001e-02
6.3440164689999989e-01  0.0000000000000000e+00  2.4999999999999998e-02
6.4331118415000010e-01  0.0000000000000000e+00  2.5000000000000005e-02
6.5231079455000007e-01  0.0000000000000000e+00  2.5000000000000005e-02
6.6140138875000010e-01  0.0000000000000000e+00  2.5000000000000001e-02
6.7058388660000001e-01  0.0000000000000000e+00  2.5000000000000005e-02
6.7985921719999987e-01  0.0000000000000000e+00  2.5000000000000001e-02
6.8922831899999992e-01  0.0000000000000000e+00  2.5000000000000001e-02
6.9869214009999991e-01  0.0000000000000000e+00  2.5000000000000001e-02
7.0825163804999991e-01  0.0000000000000000e+00  2.4999999999999998e-02
7.1790778009999989e-01  0.0000000000000000e+00  2.5000000000000005e-02
7.2766154335000000e-01  0.0000000000000000e+00  2.5000000000000005e-02
7.3751391470000005e-01  0.0000000000000000e+00  2.5000000000000001e-02
7.4746589105000005e-01  0.0000000000000000e+00  2.5000000000000005e-02
7.5751847934999994e-01  0.0000000000000000e+00  2.4999999999999998e-02
7.6767269680000005e-01  0.0000000000000000e+00  2.5000000000000005e-02
7.7792957085000014e-01  0.0000000000000000e+00  2.5000000000000005e-02
7.8829013930000025e-01  0.0000000000000000e+00  2.5000000000000008e-02
7.9875545049999996e-01  0.0000000000000000e+00  2.5000000000000001e-02
8.0932656339999998e-01  0.0000000000000000e+00  2.5000000000000005e-02
8.2000454754999996e-01  0.0000000000000000e+00  2.5000000000000001e-02
8.3079048344999984e-01  0.0000000000000000e+00  2.5000000000000001e-02
8.4168546244999998e-01  0.0000000000000000e+00  2.4999999999999998e-02
8.5269058695000000e-01  0.0000000000000000e+00  2.5000000000000001e-02
8.6380697049999988e-01  0.0000000000000000e+00  2.5000000000000001e-02
8.7503573784999988e-01  0.0000000000000000e+00  2.5000000000000001e-02
8.8637802524999998e-01  0.0000000000000000e+00  2.4999999999999998e-02
8.9783498034999998e-01  0.0000000000000000e+00  2.5000000000000001e-02
9.0940776234999998e-01  0.0000000000000000e+00  2.5000000000000001e-02
9.2109754224999985e-01  0.0000000000000000e+00  2.5000000000000005e-02
9.3290550294999997e-01  0.0000000000000000e+00  2.5000000000000001e-02
9.4483283914999994e-01  0.0000000000000000e+00  2.5000000000000001e-02
9.5688075770000003e-01  0.0000000000000000e+00  2.4999999999999998e-02
9.6905047765000007e-01  0.0000000000000000e+00  2.5000000000000001e-02
9.8134323039999993e-01  0.0000000000000000e+00  2.5000000000000001e-02
9.9376025984999994e-01  0.0000000000000000e+00  2.4999999999999998e-02

CELLS 0 0


CELL_TYPES 0


POINT_DATA 161

VECTORS VertexNormals float

0.0000000000000000e+00 0.0000000000000000e+00 0.0000000000000000e+00 
0.0000000000000000e+00 0.0000000000000000e+00 0.0000000000000000e+00 
0.0000000000000000e+00 0.0000000000000000e+00 0.0000000000000000e+00 
0.0000000000000000e+00 0.0000000000000000e+00 0.0000000000000000e+00 
0.0000000000000000e+00 0.0000000000000000e+00 0.0000000000000000e+00 
0.0000000000000000e+00 0.0000000000000000e+00 0.0000000000000000e+00 
0.0000000000000000e+00 0.0000000000000000e+00 0.0000000000000000e+00 
0.0000000000000000e+00 0.0000000000000000e+00 0.0000000000000000e+00 
0.0000000000000000e+00 0.0000000000000000e+00 0.0000000000000000e+00 
0.0000000000000000e+00 0.0000000000000000e+00 0.0000000000000000e+00 
0.0000000000000000e+00 0.0000000000000000e+00 0.0000000000000000e+00 
0.0000000000000000e+00 0.0000000000000000e+00 0.0000000000000000e+00 
0.0000000000000000e+00 0.0000000000000000e+00 0.0000000000000000e+00 
0.0000000000000000e+00 0.0000000000000000e+00 0.0000000000000000e+00 
0.0000000000000000e+00 0.0000000000000000e+00 0.0000000000000000e+00 
0.0000000000000000e+00 0.0000000000000000e+00 0.0000000000000000e+00 
0.0000000000000000e+00 0.0000000000000000e+00 0.0000000000000000e+00 
0.0000000000000000e+00 0.0000000000000000e+00 0.0000000000000000e+00 
0.0000000000000000e+00 0.0000000000000000e+00 0.0000000000000000e+00 
0.0000000000000000e+00 0.0000000000000000e+00 0.0000000000000000e+00 
0.0000000000000000e+00 0.0000000000000000e+00 0.0000000000000000e+00 
0.0000000000000000e+00 0.0000000000000000e+00 0.0000000000000000e+00 
0.0000000000000000e+00 0.0000000000000000e+00 0.0000000000000000e+00 
0.0000000000000000e+00 0.0000000000000000e+00 0.0000000000000000e+00 
0.0000000000000000e+00 0.0000000000000000e+00 0.0000000000000000e+00 
0.0000000000000000e+00 0.0000000000000000e+00 0.0000000000000000e+00 
0.0000000000000000e+00 0.0000000000000000e+00 0.0000000000000000e+00 
0.0000000000000000e+00 0.0000000000000000e+00 0.0000000000000000e+00 
0.0000000000000000e+00 0.0000000000000000e+00 0.0000000000000000e+00 
0.0000000000000000e+00 0.0000000000000000e+00 0.0000000000000000e+00 
0.0000000000000000e+00 0.0000000000000000e+00 0.0000000000000000e+00 
0.0000000000000000e+00 0.0000000000000000e+00 0.0000000000000000e+00 
0.0000000000000000e+00 0.0000000000000000e+00 0.0000000000000000e+00 
0.0000000000000000e+00 0.0000000000000000e+00 0.0000000000000000e+00 
0.0000000000000000e+00 0.0000000000000000e+00 0.0000000000000000e+00 
0.0000000000000000e+00 0.0000000000000000e+00 0.0000000000000000e+00 
0.0000000000000000e+00 0.0000000000000000e+00 0.0000000000000000e+00 
0.0000000000000000e+00 0.0000000000000000e+00 0.0000000000000000e+00 
0.0000000000000000e+00 0.0000000000000000e+00 0.0000000000000000e+00 
0.0000000000000000e+00 0.0000000000000000e+00 0.0000000000000000e+00 
0.0000000000000000e+00 0.0000000000000000e+00 0.0000000000000000e+00 
0.0000000000000000e+00 0.0000000000000000e+00 0.0000000000000000e+00 
0.0000000000000000e+00 0.0000000000000000e+00 0.0000000000000000e+00 
0.0000000000000000e+00 0.0000000000000000e+00 0.0000000000000000e+00 
0.0000000000000000e+00 0.0000000000000000e+00 0.0000000000000000e+00 
0.0000000000000000e+00 0.0000000000000000e+00 0.0000000000000000e+00 
0.0000000000000000e+00 0.0000000000000000e+00 0.0000000000000000e+00 
0.0000000000000000e+00 0.0000000000000000e+00 0.0000000000000000e+00 
0.0000000000000000e+00 0.0000000000000000e+00 0.0000000000000000e+00 
0.0000000000000000e+00 0.0000000000000000e+00 0.0000000000000000e+00 
0.0000000000000000e+00 0.0000000000000000e+00 0.0000000000000000e+00 
0.0000000000000000e+00 0.0000000000000000e+00 0.0000000000000000e+00 
0.0000000000000000e+00 0.0000000000000000e+00 0.0000000000000000e+00 
0.0000000000000000e+00 0.0000000000000000e+00 0.0000000000000000e+00 
0.0000000000000000e+00 0.0000000000000000e+00 0.0000000000000000e+00 
0.0000000000000000e+00 0.0000000000000000e+00 0.0000000000000000e+00 
0.0000000000000000e+00 0.0000000000000000e+00 0.0000000000000000e+00 
0.0000000000000000e+00 0.0000000000000000e+00 0.0000000000000000e+00 
0.0000000000000000e+00 0.0000000000000000e+00 0.0000000000000000e+00 
0.0000000000000000e+00 0.0000000000000000e+00 0.0000000000000000e+00 
0.0000000000000000e+00 0.0000000000000000e+00 0.0000000000000000e+00 
0.0000000000000000e+00 0.0000000000000000e+00 0.0000000000000000e+00 
0.0000000000000000e+00 0.0000000000000000e+00 0.0000000000000000e+00 
0.0000000000000000e+00 0.0000000000000000e+00 0.0000000000000000e+00 
0.0000000000000000e+00 0.0000000000000000e+00 0.0000000000000000e+00 
0.0000000000000000e+00 0.0000000000000000e+00 0.0000000000000000e+00 
0.0000000000000000e+00 0.0000000000000000e+00 0.0000000000000000e+00 
0.0000000000000000e+00 0.0000000000000000e+00 0.0000000000000000e+00 
0.0000000000000000e+00 0.0000000000000000e+00 0.0000000000000000e+00 
0.0000000000000000e+00 0.0000000000000000e+00 0.0000000000000000e+00 
0.0000000000000000e+00 0.0000000000000000e+00 0.0000000000000000e+00 
0.0000000000000000e+00 0.0000000000000000e+00 0.0000000000000000e+00 
0.0000000000000000e+00 0.0000000000000000e+00 0.0000000000000000e+00 
0.0000000000000000e+00 0.0000000000000000e+00 0.0000000000000000e+00 
0.0000000000000000e+00 0.0000000000000000e+00 0.0000000000000000e+00 
0.0000000000000000e+00 0.0000000000000000e+00 0.0000000000000000e+00 
0.0000000000000000e+00 0.0000000000000000e+00 0.0000000000000000e+00 
0.0000000000000000e+00 0.0000000000000000e+00 0.0000000000000000e+00 
0.0000000000000000e+00 0.0000000000000000e+00 0.0000000000000000e+00 
0.0000000000000000e+00 0.0000000000000000e+00 0.0000000000000000e+00 
0.0000000000000000e+00 0.0000000000000000e+00 0.0000000000000000e+00 
0.0000000000000000e+00 0.0000000000000000e+00 0.0000000000000000e+00 
0.0000000000000000e+00 0.0000000000000000e+00 0.0000000000000000e+00 
0.0000000000000000e+00 0.0000000000000000e+00 0.0000000000000000e+00 
0.0000000000000000e+00 0.0000000000000000e+00 0.0000000000000000e+00 
0.0000000000000000e+00 0.0000000000000000e+00 0.0000000000000000e+00 
0.0000000000000000e+00 0.0000000000000000e+00 0.0000000000000000e+00 
0.0000000000000000e+00 0.0000000000000000e+00 0.0000000000000000e+00 
0.0000000000000000e+00 0.0000000000000000e+00 0.0000000000000000e+00 
0.0000000000000000e+00 0.0000000000000000e+00 0.0000000000000000e+00 
0.0000000000000000e+00 0.0000000000000000e+00 0.0000000000000000e+00 
0.0000000000000000e+00 0.0000000000000000e+00 0.0000000000000000e+00 
0.0000000000000000e+00 0.0000000000000000e+00 0.0000000000000000e+00 
0.0000000000000000e+00 0.0000000000000000e+00 0.0000000000000000e+00 
0.0000000000000000e+00 0.0000000000000000e+00 0.0000000000000000e+00 
0.0000000000000000e+00 0.0000000000000000e+00 0.0000000000000000e+00 
0.0000000000000000e+00 0.0000000000000000e+00 0.0000000000000000e+00 
0.0000000000000000e+00 0.0000000000000000e+00 0.0000000000000000e+00 
0.0000000000000000e+00 0.0000000000000000e+00 0.0000000000000000e+00 
0.0000000000000000e+00 0.0000000000000000e+00 0.0000000000000000e+00 
0.0000000000000000e+00 0.0000000000000000e+00 0.0000000000000000e+00 
0.0000000000000000e+00 0.0000000000000000e+00 0.0000000000000000e+00 
0.0000000000000000e+00 0.0000000000000000e+00 0.0000000000000000e+00 
0.0000000000000000e+00 0.0000000000000000e+00 0.0000000000000000e+00 
0.0000000000000000e+00 0.0000000000000000e+00 0.0000000000000000e+00 
0.0000000000000000e+00 0.0000000000000000e+00 0.0000000000000000e+00 
0.0000000000000000e+00 0.0000000000000000e+00 0.0000000000000000e+00 
0.0000000000000000e+00 0.0000000000000000e+00 0.0000000000000000e+00 
0.0000000000000000e+00 0.0000000000000000e+00 0.0000000000000000e+00 
0.0000000000000000e+00 0.0000000000000000e+00 0.0000000000000000e+00 
0.0000000000000000e+00 0.0000000000000000e+00 0.0000000000000000e+00 
0.0000000000000000e+00 0.0000000000000000e+00 0.0000000000000000e+00 
0.0000000000000000e+00 0.0000000000000000e+00 0.0000000000000000e+00 
0.0000000000000000e+00 0.0000000000000000e+00 0.0000000000000000e+00 
0.0000000000000000e+00 0.0000000000000000e+00 0.0000000000000000e+00 
0.0000000000000000e+00 0.0000000000000000e+00 0.0000000000000000e+00 
0.0000000000000000e+00 0.0000000000000000e+00 0.0000000000000000e+00 
0.0000000000000000e+00 0.0000000000000000e+00 0.0000000000000000e+00 
0.0000000000000000e+00 0.0000000000000000e+00 0.0000000000000000e+00 
0.0000000000000000e+00 0.0000000000000000e+00 0.0000000000000000e+00 
0.0000000000000000e+00 0.0000000000000000e+00 0.0000000000000000e+00 
0.0000000000000000e+00 0.0000000000000000e+00 0.0000000000000000e+00 
0.0000000000000000e+00 0.0000000000000000e+00 0.0000000000000000e+00 
0.0000000000000000e+00 0.0000000000000000e+00 0.0000000000000000e+00 
0.0000000000000000e+00 0.0000000000000000e+00 0.0000000000000000e+00 
0.0000000000000000e+00 0.0000000000000000e+00 0.0000000000000000e+00 
0.0000000000000000e+00 0.0000000000000000e+00 0.0000000000000000e+00 
0.0000000000000000e+00 0.0000000000000000e+00 0.0000000000000000e+00 
0.0000000000000000e+00 0.0000000000000000e+00 0.0000000000000000e+00 
0.0000000000000000e+00 0.0000000000000000e+00 0.0000000000000000e+00 
0.0000000000000000e+00 0.0000000000000000e+00 0.0000000000000000e+00 
0.0000000000000000e+00 0.0000000000000000e+00 0.0000000000000000e+00 
0.0000000000000000e+00 0.0000000000000000e+00 0.0000000000000000e+00 
0.0000000000000000e+00 0.0000000000000000e+00 0.0000000000000000e+00 
0.0000000000000000e+00 0.0000000000000000e+00 0.0000000000000000e+00 
0.0000000000000000e+00 0.0000000000000000e+00 0.0000000000000000e+00 
0.0000000000000000e+00 0.0000000000000000e+00 0.0000000000000000e+00 
0.0000000000000000e+00 0.0000000000000000e+00 0.0000000000000000e+00 
0.0000000000000000e+00 0.0000000000000000e+00 0.0000000000000000e+00 
0.0000000000000000e+00 0.0000000000000000e+00 0.0000000000000000e+00 
0.0000000000000000e+00 0.0000000000000000e+00 0.0000000000000000e+00 
0.0000000000000000e+00 0.0000000000000000e+00 0.0000000000000000e+00 
0.0000000000000000e+00 0.0000000000000000e+00 0.0000000000000000e+00 
0.0000000000000000e+00 0.0000000000000000e+00 0.0000000000000000e+00 
0.0000000000000000e+00 0.0000000000000000e+00 0.0000000000000000e+00 
0.0000000000000000e+00 0.0000000000000000e+00 0.0000000000000000e+00 
0.0000000000000000e+00 0.0000000000000000e+00 0.0000000000000000e+00 
0.0000000000000000e+00 0.0000000000000000e+00 0.0000000000000000e+00 
0.0000000000000000e+00 0.0000000000000000e+00 0.0000000000000000e+00 
0.0000000000000000e+00 0.0000000000000000e+00 0.0000000000000000e+00 
0.0000000000000000e+00 0.0000000000000000e+00 0.0000000000000000e+00 
0.0000000000000000e+00 0.0000000000000000e+00 0.0000000000000000e+00 
0.0000000000000000e+00 0.0000000000000000e+00 0.0000000000000000e+00 
0.0000000000000000e+00 0.0000000000000000e+00 0.0000000000000000e+00 
0.0000000000000000e+00 0.0000000000000000e+00 0.0000000000000000e+00 
0.0000000000000000e+00 0.0000000000000000e+00 0.0000000000000000e+00 
0.0000000000000000e+00 0.0000000000000000e+00 0.0000000000000000e+00 
0.0000000000000000e+00 0.0000000000000000e+00 0.0000000000000000e+00 
0.0000000000000000e+00 0.0000000000000000e+00 0.0000000000000000e+00 
0.0000000000000000e+00 0.0000000000000000e+00 0.0000000000000000e+00 
0.0000000000000000e+00 0.0000000000000000e+00 0.0000000000000000e+00 

SCALARS Sink-Temperature-0 float
LOOKUP_TABLE default
3.7954197832089136e+02
3.8747329662421060e+02
3.9415773065259197e+02
3.9999788528159689e+02
4.0519221277974418e+02
4.0984833534906454e+02
4.1402707412751283e+02
4.1776155388160151e+02
4.2106626248817844e+02
4.2394155238317143e+02
4.2637576381042288e+02
4.2834585082182707e+02
4.2981678873199144e+02
4.3073964830391458e+02
4.3104777724721833e+02
4.3064972684392387e+02
4.2941569341793740e+02
4.2714912728806337e+02
4.2351887911704858e+02
4.1786688267313968e+02
4.0854681272860910e+02
4.0224671288485018e+02
3.9742574461336352e+02
3.9348311580701454e+02
3.9013064204813094e+02
3.8720664793985304e+02
3.8460996129030639e+02
3.8227227510204102e+02
3.8014487745408246e+02
3.7819156589355390e+02
3.7638489620906000e+02
3.7470297420611558e+02
3.7312828269609554e+02
3.7164668984682010e+02
3.7024645828725284e+02
3.6891767694231407e+02
3.6765205843849526e+02
3.6644247393992589e+02
3.6528277673660244e+02
3.6416767226445478e+02
3.6309252265695034e+02
3.6205326861409145e+02
3.6104633654464828e+02
3.6006856538426615e+02
3.5911715361418442e+02
3.5818960705656258e+02
3.5728370007464679e+02
3.5639744048883182e+02
3.5552904109190905e+02
3.5467689635526466e+02
3.5383956306893441e+02
3.5301574471261313e+02
3.5220427882335287e+02
3.5140412684641024e+02
3.5061436582497385e+02
3.4983418128473511e+02
3.4906286072163942e+02
3.4829978737207995e+02
3.4754443383734946e+02
3.4679635552699614e+02
3.4605518383834522e+02
3.4532061921595403e+02
3.4459242431860321e+02
3.4387041735803626e+02
3.4315446565959786e+02
3.4244447971657360e+02
3.4174040775853382e+02
3.4104223092499348e+02
3.4034995912203317e+02
3.3966362754941088e+02
3.3898329387250317e+02
3.3830903595217603e+02
3.3764095006850238e+02
3.3697914952953596e+02
3.3632376351662555e+02
3.3567493616659289e+02
3.3503282585910205e+02
3.3439760455355736e+02
3.3376945710549313e+02
3.3314858053394153e+02
3.3253518311808472e+02
3.3192948332029277e+02
3.3133170855644283e+02
3.3074209373393359e+02
3.3016087960704505e+02
3.2958831095021293e+02
3.2902463457201992e+02
3.2847009719078108e+02
3.2792494321518922e+02
3.2738941246614064e+02
3.2686373784250094e+02
3.2634814302184606e+02
3.2584284019551609e+02
3.2534802787458682e+02
3.2486388881665596e+02
3.2439058808966979e+02
3.2392827128652812e+02
3.2347706294677516e+02
3.2303706517452412e+02
3.2260835648311712e+02
3.2219099086913099e+02
3.2178499711459472e+02
3.2139037834656284e+02
3.2100711182855099e+02
3.2063514898743284e+02
3.2027441566949005e+02
3.1992481261337423e+02
3.1958621613362476e+02
3.1925847898493652e+02
3.1894143140574141e+02
3.1863488231901596e+02
3.1833862066401571e+02
3.1805241686018149e+02
3.1777602434776344e+02
3.1750918120793733e+02
3.1725161186402113e+02
3.1700302880388767e+02
3.1676313432391441e+02
3.1653162227772606e+02
3.1630817979269051e+02
3.1609248896662189e+02
3.1588422851324964e+02
3.1568307534939976e+02
3.1548870611831239e+02
3.1530079862433581e+02
3.1511903319234921e+02
3.1494309392806298e+02
3.1477266988355115e+02
3.1460745612314787e+02
3.1444715468236109e+02
3.1429147542822051e+02
3.1414013681572135e+02
3.1399286654098950e+02
3.1384940209369267e+02
3.1370949122145174e+02
3.1357289229400573e+02
3.1343937458574362e+02
3.1330871847606676e+02
3.1318071557495847e+02
3.1305516877713200e+02
3.1293189226205635e+02
3.1281071142348645e+02
3.1269146278932152e+02
3.1257399383186055e+02
3.1245816288859322e+02
3.1234383881248374e+02
3.1223090109890222e+02
3.1211923913131079e+02
3.1200875314767433e+02
3.1189935214230218e+02
3.1179095767734509e+02
3.1168349705108494e+02
3.1157691677373202e+02
3.1147116046684158e+02
3.1136621538422759e+02
3.1126203397667047e+02
3.1115868766405140e+02
3.1105612462785768e+02
3.1095470012550680e+02
3.1085423997637105e+02
3.1075619480491088e+02

SCALARS Heat-Flux float
LOOKUP_TABLE default
2.9999940000119974e+05
2.9999940000119974e+05
2.9999940000119974e+05
2.9999940000119974e+05
2.9999940000119974e+05
2.9999940000119974e+05
2.9999940000119974e+05
2.9999940000119974e+05
2.9999940000119974e+05
2.9999940000119974e+05
2.9999940000119974e+05
2.9999940000119974e+05
2.9999940000119974e+05
2.9999940000119974e+05
2.9999940000119974e+05
2.9999940000119974e+05
2.9999940000119974e+05
2.9999940000119974e+05
2.9999940000119974e+05
2.9999940000119974e+05
1.4210854715202007e-11
1.4210854715202007e-11
1.4210854715202007e-11
1.4210854715202007e-11
1.4210854715202007e-11
1.4210854715202007e-11
1.4210854715202007e-11
1.4210854715202007e-11
1.4210854715202007e-11
1.4210854715202007e-11
1.4210854715202007e-11
1.4210854715202007e-11
1.4210854715202007e-11
1.4210854715202007e-11
1.4210854715202007e-11
1.4210854715202007e-11
1.4210854715202007e-11
1.4210854715202007e-11
1.4210854715202007e-11
1.4210854715202007e-11
8.5265128291212022e-12
8.5265128291212022e-12
8.5265128291212022e-12
8.5265128291212022e-12
8.5265128291212022e-12
8.5265128291212022e-12
8.5265128291212022e-12
8.5265128291212022e-12
8.5265128291212022e-12
8.5265128291212022e-12
8.5265128291212022e-12
8.5265128291212022e-12
8.5265128291212022e-12
8.5265128291212022e-12
8.5265128291212022e-12
8.5265128291212022e-12
-2.8421709430404007e-12
-2.8421709430404007e-12
-2.8421709430404007e-12
-2.8421709430404007e-12
-2.8421709430404007e-12
-2.8421709430404007e-12
-2.8421709430404007e-12
-2.8421709430404007e-12
-2.8421709430404007e-12
-2.8421709430404007e-12
-2.8421709430404007e-12
-2.8421709430404007e-12
-2.8421709430404007e-12
-2.8421709430404007e-12
-2.8421709430404007e-12
5.6843418860808015e-12
5.6843418860808015e-12
5.6843418860808015e-12
5.6843418860808015e-12
5.6843418860808015e-12
5.6843418860808015e-12
5.6843418860808015e-12
5.6843418860808015e-12
5.6843418860808015e-12
5.6843418860808015e-12
5.6843418860808015e-12
5.6843418860808015e-12
8.5265128291212022e-12
8.5265128291212022e-12
8.5265128291212022e-12
8.5265128291212022e-12
8.5265128291212022e-12
8.5265128291212022e-12
8.5265128291212022e-12
8.5265128291212022e-12
8.5265128291212022e-12
8.5265128291212022e-12
8.5265128291212022e-12
-2.8421709430404007e-11
-2.8421709430404007e-11
-2.8421709430404007e-11
-2.8421709430404007e-11
-2.8421709430404007e-11
-2.8421709430404007e-11
-2.8421709430404007e-11
-2.8421709430404007e-11
-2.8421709430404007e-11
-2.8421709430404007e-11
1.1368683772161603e-10
1.1368683772161603e-10
1.1368683772161603e-10
1.1368683772161603e-10
1.1368683772161603e-10
1.1368683772161603e-10
1.1368683772161603e-10
1.1368683772161603e-10
1.1368683772161603e-10
4.2632564145606011e-11
4.2632564145606011e-11
4.2632564145606011e-11
4.2632564145606011e-11
4.2632564145606011e-11
4.2632564145606011e-11
4.2632564145606011e-11
4.2632564145606011e-11
-7.1054273576010019e-12
-7.1054273576010019e-12
-7.1054273576010019e-12
-7.1054273576010019e-12
-7.1054273576010019e-12
-7.1054273576010019e-12
-7.1054273576010019e-12
-7.1054273576010019e-12
7.3896444519050419e-11
7.3896444519050419e-11
7.3896444519050419e-11
7.3896444519050419e-11
7.3896444519050419e-11
7.3896444519050419e-11
7.3896444519050419e-11
5.6843418860808015e-12
5.6843418860808015e-12
5.6843418860808015e-12
5.6843418860808015e-12
5.6843418860808015e-12
5.6843418860808015e-12
5.6843418860808015e-12