# vtk DataFile Version 2.0

ASCII

DATASET UNSTRUCTURED_GRID

POINTS 161 float 

1.2479480269999997e-03  0.0000000000000000e+00  2.5000000000000005e-02
3.7564605215000004e-03  0.0000000000000000e+00  2.5000000000000001e-02
6.2903334465000014e-03  0.0000000000000000e+00  2.5000000000000005e-02
8.8498231920000007e-03  0.0000000000000000e+00  2.5000000000000005e-02
1.1435188734999997e-02  0.0000000000000000e+00  2.5000000000000001e-02
1.4046691670000002e-02  0.0000000000000000e+00  2.5000000000000001e-02
1.6684596245000002e-02  0.0000000000000000e+00  2.5000000000000001e-02
1.9349169374999996e-02  0.0000000000000000e+00  2.4999999999999998e-02
2.2040680664999996e-02  0.0000000000000000e+00  2.5000000000000001e-02
2.4759402454999999e-02  0.0000000000000000e+00  2.4999999999999998e-02
2.7505609844999997e-02  0.0000000000000000e+00  2.5000000000000001e-02
3.0279580699999999e-02  0.0000000000000000e+00  2.5000000000000001e-02
3.3081595699999994e-02  0.0000000000000000e+00  2.5000000000000001e-02
3.5911938370000000e-02  0.0000000000000000e+00  2.5000000000000005e-02
3.8770895094999994e-02  0.0000000000000000e+00  2.5000000000000005e-02
4.1658755154999998e-02  0.0000000000000000e+00  2.5000000000000001e-02
4.4575810750000000e-02  0.0000000000000000e+00  2.5000000000000005e-02
4.7522357044999998e-02  0.0000000000000000e+00  2.5000000000000001e-02
5.0498692184999992e-02  0.0000000000000000e+00  2.5000000000000001e-02
5.3505117319999997e-02  0.0000000000000000e+00  2.5000000000000001e-02
5.6541936659999993e-02  0.0000000000000000e+00  2.5000000000000005e-02
5.9609457479999996e-02  0.0000000000000000e+00  2.5000000000000001e-02
6.2707990165000005e-02  0.0000000000000000e+00  2.5000000000000001e-02
6.5837848234999982e-02  0.0000000000000000e+00  2.4999999999999998e-02
6.8999348380000006e-02  0.0000000000000000e+00  2.5000000000000001e-02
7.2192810504999996e-02  0.0000000000000000e+00  2.5000000000000005e-02
7.5418557725000002e-02  0.0000000000000000e+00  2.5000000000000005e-02
7.8676916434999994e-02  0.0000000000000000e+00  2.5000000000000005e-02
8.1968216339999997e-02  0.0000000000000000e+00  2.5000000000000001e-02
8.5292790460000004e-02  0.0000000000000000e+00  2.5000000000000001e-02
8.8650975185000008e-02  0.0000000000000000e+00  2.5000000000000001e-02
9.2043110309999981e-02  0.0000000000000000e+00  2.5000000000000001e-02
9.5469539070000012e-02  0.0000000000000000e+00  2.5000000000000005e-02
9.8930608189999977e-02  0.0000000000000000e+00  2.5000000000000005e-02
1.0242666780000000e-01  0.0000000000000000e+00  2.5000000000000005e-02
1.0595807170000000e-01  0.0000000000000000e+00  2.4999999999999998e-02
1.0952517724999998e-01  0.0000000000000000e+00  2.5000000000000001e-02
1.1312834529999997e-01  0.0000000000000000e+00  2.5000000000000001e-02
1.1676794049999999e-01  0.0000000000000000e+00  2.5000000000000001e-02
1.2044433110000000e-01  0.0000000000000000e+00  2.5000000000000001e-02
1.2415788905000000e-01  0.0000000000000000e+00  2.5000000000000001e-02
1.2790899015000001e-01  0.0000000000000000e+00  2.5000000000000005e-02
1.3169801395000000e-01  0.0000000000000000e+00  2.4999999999999998e-02
1.3552534380000000e-01  0.0000000000000000e+00  2.5000000000000005e-02
1.3939136699999999e-01  0.0000000000000000e+00  2.5000000000000001e-02
1.4329647475000001e-01  0.0000000000000000e+00  2.5000000000000005e-02
1.4724106214999999e-01  0.0000000000000000e+00  2.4999999999999998e-02
1.5122552830000000e-01  0.0000000000000000e+00  2.5000000000000001e-02
1.5525027640000000e-01  0.0000000000000000e+00  2.5000000000000001e-02
1.5931571375000000e-01  0.0000000000000000e+00  2.4999999999999998e-02
1.6342225165000002e-01  0.0000000000000000e+00  2.5000000000000005e-02
1.6757030559999997e-01  0.0000000000000000e+00  2.5000000000000001e-02
1.7176029529999998e-01  0.0000000000000000e+00  2.5000000000000005e-02
1.7599264474999998e-01  0.0000000000000000e+00  2.5000000000000005e-02
1.8026778220000000e-01  0.0000000000000000e+00  2.5000000000000001e-02
1.8458614020000003e-01  0.0000000000000000e+00  2.5000000000000005e-02
1.8894815575000001e-01  0.0000000000000000e+00  2.5000000000000001e-02
1.9335427015000003e-01  0.0000000000000000e+00  2.5000000000000001e-02
1.9780492924999996e-01  0.0000000000000000e+00  2.5000000000000001e-02
2.0230058344999999e-01  0.0000000000000000e+00  2.5000000000000001e-02
2.0684168754999999e-01  0.0000000000000000e+00  2.5000000000000001e-02
2.1142870105000000e-01  0.0000000000000000e+00  2.5000000000000001e-02
2.1606208815000000e-01  0.0000000000000000e+00  2.5000000000000001e-02
2.2074231759999996e-01  0.0000000000000000e+00  2.4999999999999998e-02
2.2546986299999996e-01  0.0000000000000000e+00  2.5000000000000001e-02
2.3024520269999998e-01  0.0000000000000000e+00  2.5000000000000005e-02
2.3506881985000003e-01  0.0000000000000000e+00  2.4999999999999998e-02
2.3994120254999998e-01  0.0000000000000000e+00  2.5000000000000001e-02
2.4486284384999998e-01  0.0000000000000000e+00  2.5000000000000001e-02
2.4983424174999996e-01  0.0000000000000000e+00  2.4999999999999998e-02
2.5485589919999996e-01  0.0000000000000000e+00  2.5000000000000005e-02
2.5992832429999996e-01  0.0000000000000000e+00  2.5000000000000005e-02
2.6505203035000002e-01  0.0000000000000000e+00  2.5000000000000001e-02
2.7022753580000008e-01  0.0000000000000000e+00  2.5000000000000005e-02
2.7545536429999989e-01  0.0000000000000000e+00  2.5000000000000001e-02
2.8073604484999998e-01  0.0000000000000000e+00  2.5000000000000001e-02
2.8607011174999997e-01  0.0000000000000000e+00  2.5000000000000001e-02
2.9145810470000000e-01  0.0000000000000000e+00  2.5000000000000001e-02
2.9690056894999994e-01  0.0000000000000000e+00  2.5000000000000005e-02
3.0239805515000001e-01  0.0000000000000000e+00  2.5000000000000001e-02
3.0795111949999998e-01  0.0000000000000000e+00  2.5000000000000001e-02
3.1356032395000000e-01  0.0000000000000000e+00  2.5000000000000001e-02
3.1922623605000000e-01  0.0000000000000000e+00  2.5000000000000005e-02
3.2494942910000002e-01  0.0000000000000000e+00  2.5000000000000001e-02
3.3073048220000001e-01  0.0000000000000000e+00  2.5000000000000001e-02
3.3656998030000002e-01  0.0000000000000000e+00  2.5000000000000001e-02
3.4246851424999997e-01  0.0000000000000000e+00  2.5000000000000001e-02
3.4842668090000001e-01  0.0000000000000000e+00  2.4999999999999998e-02
3.5444508315000001e-01  0.0000000000000000e+00  2.4999999999999998e-02
3.6052432990000000e-01  0.0000000000000000e+00  2.5000000000000001e-02
3.6666503630000002e-01  0.0000000000000000e+00  2.5000000000000005e-02
3.7286782369999993e-01  0.0000000000000000e+00  2.5000000000000001e-02
3.7913331969999992e-01  0.0000000000000000e+00  2.5000000000000001e-02
3.8546215830000002e-01  0.0000000000000000e+00  2.5000000000000001e-02
3.9185497989999996e-01  0.0000000000000000e+00  2.5000000000000001e-02
3.9831243130000005e-01  0.0000000000000000e+00  2.5000000000000001e-02
4.0483516589999996e-01  0.0000000000000000e+00  2.5000000000000001e-02
4.1142384369999990e-01  0.0000000000000000e+00  2.5000000000000005e-02
4.1807913139999997e-01  0.0000000000000000e+00  2.5000000000000001e-02
4.2480170239999998e-01  0.0000000000000000e+00  2.4999999999999998e-02
4.3159223684999998e-01  0.0000000000000000e+00  2.5000000000000001e-02
4.3845142189999992e-01  0.0000000000000000e+00  2.5000000000000001e-02
4.4537995159999993e-01  0.0000000000000000e+00  2.4999999999999998e-02
4.5237852700000009e-01  0.0000000000000000e+00  2.5000000000000005e-02
4.5944785625000001e-01  0.0000000000000000e+00  2.5000000000000005e-02
4.6658865464999993e-01  0.0000000000000000e+00  2.5000000000000001e-02
4.7380164474999992e-01  0.0000000000000000e+00  2.5000000000000001e-02
4.8108755635000006e-01  0.0000000000000000e+00  2.5000000000000005e-02
4.8844712664999984e-01  0.0000000000000000e+00  2.4999999999999998e-02
4.9588110034999994e-01  0.0000000000000000e+00  2.5000000000000001e-02
5.0339022965000002e-01  0.0000000000000000e+00  2.5000000000000001e-02
5.1097527440000001e-01  0.0000000000000000e+00  2.4999999999999998e-02
5.1863700204999996e-01  0.0000000000000000e+00  2.4999999999999998e-02
5.2637618780000006e-01  0.0000000000000000e+00  2.5000000000000005e-02
5.3419361479999994e-01  0.0000000000000000e+00  2.5000000000000001e-02
5.4209007400000009e-01  0.0000000000000000e+00  2.5000000000000001e-02
5.5006636439999990e-01  0.0000000000000000e+00  2.5000000000000005e-02
5.5812329314999998e-01  0.0000000000000000e+00  2.5000000000000005e-02
5.6626167539999994e-01  0.0000000000000000e+00  2.4999999999999998e-02
5.7448233464999998e-01  0.0000000000000000e+00  2.5000000000000005e-02
5.8278610269999997e-01  0.0000000000000000e+00  2.5000000000000001e-02
5.9117381974999994e-01  0.0000000000000000e+00  2.5000000000000001e-02
5.9964633454999994e-01  0.0000000000000000e+00  2.5000000000000001e-02
6.0820450430000006e-01  0.0000000000000000e+00  2.5000000000000005e-02
6.1684919499999991e-01  0.0000000000000000e+00  2.5000000000000005e-02
6.2558128135000002e-01  0.0000000000000000e+00  2.5000000000000001e-02
6.3440164689999989e-01  0.0000000000000000e+00  2.4999999999999998e-02
6.4331118415000010e-01  0.0000000000000000e+00  2.5000000000000005e-02
6.5231079455000007e-01  0.0000000000000000e+00  2.5000000000000005e-02
6.6140138875000010e-01  0.0000000000000000e+00  2.5000000000000001e-02
6.7058388660000001e-01  0.0000000000000000e+00  2.5000000000000005e-02
6.7985921719999987e-01  0.0000000000000000e+00  2.5000000000000001e-02
6.8922831899999992e-01  0.0000000000000000e+00  2.5000000000000001e-02
6.9869214009999991e-01  0.0000000000000000e+00  2.5000000000000001e-02
7.0825163804999991e-01  0.0000000000000000e+00  2.4999999999999998e-02
7.1790778009999989e-01  0.0000000000000000e+00  2.5000000000000005e-02
7.2766154335000000e-01  0.0000000000000000e+00  2.5000000000000005e-02
7.3751391470000005e-01  0.0000000000000000e+00  2.5000000000000001e-02
7.4746589105000005e-01  0.0000000000000000e+00  2.5000000000000005e-02
7.5751847934999994e-01  0.0000000000000000e+00  2.4999999999999998e-02
7.6767269680000005e-01  0.0000000000000000e+00  2.5000000000000005e-02
7.7792957085000014e-01  0.0000000000000000e+00  2.5000000000000005e-02
7.8829013930000025e-01  0.0000000000000000e+00  2.5000000000000008e-02
7.9875545049999996e-01  0.0000000000000000e+00  2.5000000000000001e-02
8.0932656339999998e-01  0.0000000000000000e+00  2.5000000000000005e-02
8.2000454754999996e-01  0.0000000000000000e+00  2.5000000000000001e-02
8.3079048344999984e-01  0.0000000000000000e+00  2.5000000000000001e-02
8.4168546244999998e-01  0.0000000000000000e+00  2.4999999999999998e-02
8.5269058695000000e-01  0.0000000000000000e+00  2.5000000000000001e-02
8.6380697049999988e-01  0.0000000000000000e+00  2.5000000000000001e-02
8.7503573784999988e-01  0.0000000000000000e+00  2.5000000000000001e-02
8.8637802524999998e-01  0.0000000000000000e+00  2.4999999999999998e-02
8.9783498034999998e-01  0.0000000000000000e+00  2.5000000000000001e-02
9.0940776234999998e-01  0.0000000000000000e+00  2.5000000000000001e-02
9.2109754224999985e-01  0.0000000000000000e+00  2.5000000000000005e-02
9.3290550294999997e-01  0.0000000000000000e+00  2.5000000000000001e-02
9.4483283914999994e-01  0.0000000000000000e+00  2.5000000000000001e-02
9.5688075770000003e-01  0.0000000000000000e+00  2.4999999999999998e-02
9.6905047765000007e-01  0.0000000000000000e+00  2.5000000000000001e-02
9.8134323039999993e-01  0.0000000000000000e+00  2.5000000000000001e-02
9.9376025984999994e-01  0.0000000000000000e+00  2.4999999999999998e-02

CELLS 0 0


CELL_TYPES 0


POINT_DATA 161

VECTORS VertexNormals float

0.0000000000000000e+00 0.0000000000000000e+00 0.0000000000000000e+00 
0.0000000000000000e+00 0.0000000000000000e+00 0.0000000000000000e+00 
0.0000000000000000e+00 0.0000000000000000e+00 0.0000000000000000e+00 
0.0000000000000000e+00 0.0000000000000000e+00 0.0000000000000000e+00 
0.0000000000000000e+00 0.0000000000000000e+00 0.0000000000000000e+00 
0.0000000000000000e+00 0.0000000000000000e+00 0.0000000000000000e+00 
0.0000000000000000e+00 0.0000000000000000e+00 0.0000000000000000e+00 
0.0000000000000000e+00 0.0000000000000000e+00 0.0000000000000000e+00 
0.0000000000000000e+00 0.0000000000000000e+00 0.0000000000000000e+00 
0.0000000000000000e+00 0.0000000000000000e+00 0.0000000000000000e+00 
0.0000000000000000e+00 0.0000000000000000e+00 0.0000000000000000e+00 
0.0000000000000000e+00 0.0000000000000000e+00 0.0000000000000000e+00 
0.0000000000000000e+00 0.0000000000000000e+00 0.0000000000000000e+00 
0.0000000000000000e+00 0.0000000000000000e+00 0.0000000000000000e+00 
0.0000000000000000e+00 0.0000000000000000e+00 0.0000000000000000e+00 
0.0000000000000000e+00 0.0000000000000000e+00 0.0000000000000000e+00 
0.0000000000000000e+00 0.0000000000000000e+00 0.0000000000000000e+00 
0.0000000000000000e+00 0.0000000000000000e+00 0.0000000000000000e+00 
0.0000000000000000e+00 0.0000000000000000e+00 0.0000000000000000e+00 
0.0000000000000000e+00 0.0000000000000000e+00 0.0000000000000000e+00 
0.0000000000000000e+00 0.0000000000000000e+00 0.0000000000000000e+00 
0.0000000000000000e+00 0.0000000000000000e+00 0.0000000000000000e+00 
0.0000000000000000e+00 0.0000000000000000e+00 0.0000000000000000e+00 
0.0000000000000000e+00 0.0000000000000000e+00 0.0000000000000000e+00 
0.0000000000000000e+00 0.0000000000000000e+00 0.0000000000000000e+00 
0.0000000000000000e+00 0.0000000000000000e+00 0.0000000000000000e+00 
0.0000000000000000e+00 0.0000000000000000e+00 0.0000000000000000e+00 
0.0000000000000000e+00 0.0000000000000000e+00 0.0000000000000000e+00 
0.0000000000000000e+00 0.0000000000000000e+00 0.0000000000000000e+00 
0.0000000000000000e+00 0.0000000000000000e+00 0.0000000000000000e+00 
0.0000000000000000e+00 0.0000000000000000e+00 0.0000000000000000e+00 
0.0000000000000000e+00 0.0000000000000000e+00 0.0000000000000000e+00 
0.0000000000000000e+00 0.0000000000000000e+00 0.0000000000000000e+00 
0.0000000000000000e+00 0.0000000000000000e+00 0.0000000000000000e+00 
0.0000000000000000e+00 0.0000000000000000e+00 0.0000000000000000e+00 
0.0000000000000000e+00 0.0000000000000000e+00 0.0000000000000000e+00 
0.0000000000000000e+00 0.0000000000000000e+00 0.0000000000000000e+00 
0.0000000000000000e+00 0.0000000000000000e+00 0.0000000000000000e+00 
0.0000000000000000e+00 0.0000000000000000e+00 0.0000000000000000e+00 
0.0000000000000000e+00 0.0000000000000000e+00 0.0000000000000000e+00 
0.0000000000000000e+00 0.0000000000000000e+00 0.0000000000000000e+00 
0.0000000000000000e+00 0.0000000000000000e+00 0.0000000000000000e+00 
0.0000000000000000e+00 0.0000000000000000e+00 0.0000000000000000e+00 
0.0000000000000000e+00 0.0000000000000000e+00 0.0000000000000000e+00 
0.0000000000000000e+00 0.0000000000000000e+00 0.0000000000000000e+00 
0.0000000000000000e+00 0.0000000000000000e+00 0.0000000000000000e+00 
0.0000000000000000e+00 0.0000000000000000e+00 0.0000000000000000e+00 
0.0000000000000000e+00 0.0000000000000000e+00 0.0000000000000000e+00 
0.0000000000000000e+00 0.0000000000000000e+00 0.0000000000000000e+00 
0.0000000000000000e+00 0.0000000000000000e+00 0.0000000000000000e+00 
0.0000000000000000e+00 0.0000000000000000e+00 0.0000000000000000e+00 
0.0000000000000000e+00 0.0000000000000000e+00 0.0000000000000000e+00 
0.0000000000000000e+00 0.0000000000000000e+00 0.0000000000000000e+00 
0.0000000000000000e+00 0.0000000000000000e+00 0.0000000000000000e+00 
0.0000000000000000e+00 0.0000000000000000e+00 0.0000000000000000e+00 
0.0000000000000000e+00 0.0000000000000000e+00 0.0000000000000000e+00 
0.0000000000000000e+00 0.0000000000000000e+00 0.0000000000000000e+00 
0.0000000000000000e+00 0.0000000000000000e+00 0.0000000000000000e+00 
0.0000000000000000e+00 0.0000000000000000e+00 0.0000000000000000e+00 
0.0000000000000000e+00 0.0000000000000000e+00 0.0000000000000000e+00 
0.0000000000000000e+00 0.0000000000000000e+00 0.0000000000000000e+00 
0.0000000000000000e+00 0.0000000000000000e+00 0.0000000000000000e+00 
0.0000000000000000e+00 0.0000000000000000e+00 0.0000000000000000e+00 
0.0000000000000000e+00 0.0000000000000000e+00 0.0000000000000000e+00 
0.0000000000000000e+00 0.0000000000000000e+00 0.0000000000000000e+00 
0.0000000000000000e+00 0.0000000000000000e+00 0.0000000000000000e+00 
0.0000000000000000e+00 0.0000000000000000e+00 0.0000000000000000e+00 
0.0000000000000000e+00 0.0000000000000000e+00 0.0000000000000000e+00 
0.0000000000000000e+00 0.0000000000000000e+00 0.0000000000000000e+00 
0.0000000000000000e+00 0.0000000000000000e+00 0.0000000000000000e+00 
0.0000000000000000e+00 0.0000000000000000e+00 0.0000000000000000e+00 
0.0000000000000000e+00 0.0000000000000000e+00 0.0000000000000000e+00 
0.0000000000000000e+00 0.0000000000000000e+00 0.0000000000000000e+00 
0.0000000000000000e+00 0.0000000000000000e+00 0.0000000000000000e+00 
0.0000000000000000e+00 0.0000000000000000e+00 0.0000000000000000e+00 
0.0000000000000000e+00 0.0000000000000000e+00 0.0000000000000000e+00 
0.0000000000000000e+00 0.0000000000000000e+00 0.0000000000000000e+00 
0.0000000000000000e+00 0.0000000000000000e+00 0.0000000000000000e+00 
0.0000000000000000e+00 0.0000000000000000e+00 0.0000000000000000e+00 
0.0000000000000000e+00 0.0000000000000000e+00 0.0000000000000000e+00 
0.0000000000000000e+00 0.0000000000000000e+00 0.0000000000000000e+00 
0.0000000000000000e+00 0.0000000000000000e+00 0.0000000000000000e+00 
0.0000000000000000e+00 0.0000000000000000e+00 0.0000000000000000e+00 
0.0000000000000000e+00 0.0000000000000000e+00 0.0000000000000000e+00 
0.0000000000000000e+00 0.0000000000000000e+00 0.0000000000000000e+00 
0.0000000000000000e+00 0.0000000000000000e+00 0.0000000000000000e+00 
0.0000000000000000e+00 0.0000000000000000e+00 0.0000000000000000e+00 
0.0000000000000000e+00 0.0000000000000000e+00 0.0000000000000000e+00 
0.0000000000000000e+00 0.0000000000000000e+00 0.0000000000000000e+00 
0.0000000000000000e+00 0.0000000000000000e+00 0.0000000000000000e+00 
0.0000000000000000e+00 0.0000000000000000e+00 0.0000000000000000e+00 
0.0000000000000000e+00 0.0000000000000000e+00 0.0000000000000000e+00 
0.0000000000000000e+00 0.0000000000000000e+00 0.0000000000000000e+00 
0.0000000000000000e+00 0.0000000000000000e+00 0.0000000000000000e+00 
0.0000000000000000e+00 0.0000000000000000e+00 0.0000000000000000e+00 
0.0000000000000000e+00 0.0000000000000000e+00 0.0000000000000000e+00 
0.0000000000000000e+00 0.0000000000000000e+00 0.0000000000000000e+00 
0.0000000000000000e+00 0.0000000000000000e+00 0.0000000000000000e+00 
0.0000000000000000e+00 0.0000000000000000e+00 0.0000000000000000e+00 
0.0000000000000000e+00 0.0000000000000000e+00 0.0000000000000000e+00 
0.0000000000000000e+00 0.0000000000000000e+00 0.0000000000000000e+00 
0.0000000000000000e+00 0.0000000000000000e+00 0.0000000000000000e+00 
0.0000000000000000e+00 0.0000000000000000e+00 0.0000000000000000e+00 
0.0000000000000000e+00 0.0000000000000000e+00 0.0000000000000000e+00 
0.0000000000000000e+00 0.0000000000000000e+00 0.0000000000000000e+00 
0.0000000000000000e+00 0.0000000000000000e+00 0.0000000000000000e+00 
0.0000000000000000e+00 0.0000000000000000e+00 0.0000000000000000e+00 
0.0000000000000000e+00 0.0000000000000000e+00 0.0000000000000000e+00 
0.0000000000000000e+00 0.0000000000000000e+00 0.0000000000000000e+00 
0.0000000000000000e+00 0.0000000000000000e+00 0.0000000000000000e+00 
0.0000000000000000e+00 0.0000000000000000e+00 0.0000000000000000e+00 
0.0000000000000000e+00 0.0000000000000000e+00 0.0000000000000000e+00 
0.0000000000000000e+00 0.0000000000000000e+00 0.0000000000000000e+00 
0.0000000000000000e+00 0.0000000000000000e+00 0.0000000000000000e+00 
0.0000000000000000e+00 0.0000000000000000e+00 0.0000000000000000e+00 
0.0000000000000000e+00 0.0000000000000000e+00 0.0000000000000000e+00 
0.0000000000000000e+00 0.0000000000000000e+00 0.0000000000000000e+00 
0.0000000000000000e+00 0.0000000000000000e+00 0.0000000000000000e+00 
0.0000000000000000e+00 0.0000000000000000e+00 0.0000000000000000e+00 
0.0000000000000000e+00 0.0000000000000000e+00 0.0000000000000000e+00 
0.0000000000000000e+00 0.0000000000000000e+00 0.0000000000000000e+00 
0.0000000000000000e+00 0.0000000000000000e+00 0.0000000000000000e+00 
0.0000000000000000e+00 0.0000000000000000e+00 0.0000000000000000e+00 
0.0000000000000000e+00 0.0000000000000000e+00 0.0000000000000000e+00 
0.0000000000000000e+00 0.0000000000000000e+00 0.0000000000000000e+00 
0.0000000000000000e+00 0.0000000000000000e+00 0.0000000000000000e+00 
0.0000000000000000e+00 0.0000000000000000e+00 0.0000000000000000e+00 
0.0000000000000000e+00 0.0000000000000000e+00 0.0000000000000000e+00 
0.0000000000000000e+00 0.0000000000000000e+00 0.0000000000000000e+00 
0.0000000000000000e+00 0.0000000000000000e+00 0.0000000000000000e+00 
0.0000000000000000e+00 0.0000000000000000e+00 0.0000000000000000e+00 
0.0000000000000000e+00 0.0000000000000000e+00 0.0000000000000000e+00 
0.0000000000000000e+00 0.0000000000000000e+00 0.0000000000000000e+00 
0.0000000000000000e+00 0.0000000000000000e+00 0.0000000000000000e+00 
0.0000000000000000e+00 0.0000000000000000e+00 0.0000000000000000e+00 
0.0000000000000000e+00 0.0000000000000000e+00 0.0000000000000000e+00 
0.0000000000000000e+00 0.0000000000000000e+00 0.0000000000000000e+00 
0.0000000000000000e+00 0.0000000000000000e+00 0.0000000000000000e+00 
0.0000000000000000e+00 0.0000000000000000e+00 0.0000000000000000e+00 
0.0000000000000000e+00 0.0000000000000000e+00 0.0000000000000000e+00 
0.0000000000000000e+00 0.0000000000000000e+00 0.0000000000000000e+00 
0.0000000000000000e+00 0.0000000000000000e+00 0.0000000000000000e+00 
0.0000000000000000e+00 0.0000000000000000e+00 0.0000000000000000e+00 
0.0000000000000000e+00 0.0000000000000000e+00 0.0000000000000000e+00 
0.0000000000000000e+00 0.0000000000000000e+00 0.0000000000000000e+00 
0.0000000000000000e+00 0.0000000000000000e+00 0.0000000000000000e+00 
0.0000000000000000e+00 0.0000000000000000e+00 0.0000000000000000e+00 
0.0000000000000000e+00 0.0000000000000000e+00 0.0000000000000000e+00 
0.0000000000000000e+00 0.0000000000000000e+00 0.0000000000000000e+00 
0.0000000000000000e+00 0.0000000000000000e+00 0.0000000000000000e+00 
0.0000000000000000e+00 0.0000000000000000e+00 0.0000000000000000e+00 
0.0000000000000000e+00 0.0000000000000000e+00 0.0000000000000000e+00 
0.0000000000000000e+00 0.0000000000000000e+00 0.0000000000000000e+00 
0.0000000000000000e+00 0.0000000000000000e+00 0.0000000000000000e+00 
0.0000000000000000e+00 0.0000000000000000e+00 0.0000000000000000e+00 
0.0000000000000000e+00 0.0000000000000000e+00 0.0000000000000000e+00 
0.0000000000000000e+00 0.0000000000000000e+00 0.0000000000000000e+00 
0.0000000000000000e+00 0.0000000000000000e+00 0.0000000000000000e+00 
0.0000000000000000e+00 0.0000000000000000e+00 0.0000000000000000e+00 
0.0000000000000000e+00 0.0000000000000000e+00 0.0000000000000000e+00 
0.0000000000000000e+00 0.0000000000000000e+00 0.0000000000000000e+00 

SCALARS Sink-Temperature-0 float
LOOKUP_TABLE default
4.0576513106095234e+02
4.1358220374218382e+02
4.2002684094218506e+02
4.2551803471107570e+02
4.3026160530211257e+02
4.3436863161395195e+02
4.3790148053784566e+02
4.4089395499576750e+02
4.4336102913992920e+02
4.4530383724088955e+02
4.4671217371719462e+02
4.4756543374348263e+02
4.4783230498538865e+02
4.4746911265727800e+02
4.4641626150845894e+02
4.4459140312427047e+02
4.4187607678440605e+02
4.3808743944555766e+02
4.3291038845962464e+02
4.2570499984157607e+02
4.1484761847172717e+02
4.0704809489941294e+02
4.0076006217113684e+02
3.9538025168071044e+02
3.9061901124032312e+02
3.8631390129683763e+02
3.8236357650170396e+02
3.7870005233323218e+02
3.7527534656103978e+02
3.7205431255989055e+02
3.6901045991049580e+02
3.6612335403564560e+02
3.6337691436993538e+02
3.6075825525654062e+02
3.5825687146611926e+02
3.5586405183298911e+02
3.5357245026303360e+02
3.5137576788163580e+02
3.4926851559782966e+02
3.4724583650525341e+02
3.4530337265503272e+02
3.4343716536303469e+02
3.4164358100507894e+02
3.3991925580973543e+02
3.3826105491865962e+02
3.3666604212016642e+02
3.3513145720990150e+02
3.3365469868089616e+02
3.3223331012410301e+02
3.3086496928192332e+02
3.2954747902154804e+02
3.2827875948428755e+02
3.2705684115017237e+02
3.2587985869720558e+02
3.2474604587449323e+02
3.2365373066450229e+02
3.2260133047270631e+02
3.2158734760658058e+02
3.2061036472766699e+02
3.1966904047097972e+02
3.1876210520803437e+02
3.1788835684541300e+02
3.1704665683042083e+02
3.1623592631698250e+02
3.1545514239568053e+02
3.1470333454545874e+02
3.1397958120390268e+02
3.1328300647634290e+02
3.1261277701199856e+02
3.1196809901756609e+02
3.1134821540002633e+02
3.1075240300177848e+02
3.1017996997886843e+02
3.0963025328224887e+02
3.0910261622354074e+02
3.0859644612255869e+02
3.0811115197721006e+02
3.0764616230082305e+02
3.0720092296767785e+02
3.0677489510490796e+02
3.0636755339077808e+02
3.0597838394835179e+02
3.0560688356395178e+02
3.0525255719349576e+02
3.0491491819543529e+02
3.0459348662137086e+02
3.0428778773342634e+02
3.0399735280456332e+02
3.0372171811659638e+02
3.0346042142827719e+02
3.0321301053229422e+02
3.0297903071767070e+02
3.0275802863565661e+02
3.0254956754092683e+02
3.0235319838266560e+02
3.0216847893747064e+02
3.0199497957826287e+02
3.0183226194640866e+02
3.0167989243860734e+02
3.0153744831546510e+02
3.0140450657943995e+02
3.0128064803647169e+02
3.0116545904628953e+02
3.0105853131254287e+02
3.0095946216080824e+02
3.0086785498241682e+02
3.0078331974480665e+02
3.0070547354892835e+02
3.0063394121918878e+02
3.0056835590787171e+02
3.0050835970332639e+02
3.0045360422875382e+02
3.0040375122380834e+02
3.0035847309589235e+02
3.0031745343445175e+02
3.0028038748169081e+02
3.0024698254832879e+02
3.0021695837203094e+02
3.0019004741255890e+02
3.0016599507730609e+02
3.0014455987785152e+02
3.0012551351328210e+02
3.0010864088080359e+02
3.0009374001437010e+02
3.0008062195193145e+02
3.0006911053581302e+02
3.0005904214834084e+02
3.0005026538816105e+02
3.0004264069215850e+02
3.0003603990874205e+02
3.0003034582913955e+02
3.0002545168305198e+02
3.0002126060553951e+02
3.0001768508202167e+02
3.0001464637849864e+02
3.0001207396311474e+02
3.0000990492577063e+02
3.0000808340154606e+02
3.0000656000333794e+02
3.0000529126864672e+02
3.0000423912475088e+02
3.0000337037595614e+02
3.0000265621586504e+02
3.0000207176703043e+02
3.0000159564974433e+02
3.0000120958103645e+02
3.0000089800450434e+02
3.0000064775097673e+02
3.0000044772969096e+02
3.0000028864919750e+02
3.0000016276661881e+02
3.0000006366476549e+02
2.9999998605368944e+02
2.9999992559762688e+02
2.9999987876364679e+02
2.9999984268685574e+02
2.9999981506592974e+02
2.9999979405170768e+02
2.9999977818487076e+02
2.9999976630859737e+02
2.9999975752353413e+02

SCALARS Heat-Flux float
LOOKUP_TABLE default
2.9999940000119980e+05
2.9999940000119980e+05
2.9999940000119980e+05
2.9999940000119980e+05
2.9999940000119980e+05
2.9999940000119980e+05
2.9999940000119980e+05
2.9999940000119980e+05
2.9999940000119980e+05
2.9999940000119980e+05
2.9999940000119980e+05
2.9999940000119980e+05
2.9999940000119980e+05
2.9999940000119980e+05
2.9999940000119980e+05
2.9999940000119980e+05
2.9999940000119980e+05
2.9999940000119980e+05
2.9999940000119980e+05
2.9999940000119980e+05
-1.3926637620897964e-10
-1.3926637620897964e-10
-1.3926637620897964e-10
-1.3926637620897964e-10
-1.3926637620897964e-10
-1.3926637620897964e-10
-1.3926637620897964e-10
-1.3926637620897964e-10
-1.3926637620897964e-10
-1.3926637620897964e-10
-1.3926637620897964e-10
-1.3926637620897964e-10
-1.3926637620897964e-10
-1.3926637620897964e-10
-1.3926637620897964e-10
-1.3926637620897964e-10
-1.3926637620897964e-10
-1.3926637620897964e-10
-1.3926637620897964e-10
-1.3926637620897964e-10
7.1054273576010019e-11
7.1054273576010019e-11
7.1054273576010019e-11
7.1054273576010019e-11
7.1054273576010019e-11
7.1054273576010019e-11
7.1054273576010019e-11
7.1054273576010019e-11
7.1054273576010019e-11
7.1054273576010019e-11
7.1054273576010019e-11
7.1054273576010019e-11
7.1054273576010019e-11
7.1054273576010019e-11
7.1054273576010019e-11
7.1054273576010019e-11
3.1263880373444408e-11
3.1263880373444408e-11
3.1263880373444408e-11
3.1263880373444408e-11
3.1263880373444408e-11
3.1263880373444408e-11
3.1263880373444408e-11
3.1263880373444408e-11
3.1263880373444408e-11
3.1263880373444408e-11
3.1263880373444408e-11
3.1263880373444408e-11
3.1263880373444408e-11
3.1263880373444408e-11
3.1263880373444408e-11
5.6843418860808015e-12
5.6843418860808015e-12
5.6843418860808015e-12
5.6843418860808015e-12
5.6843418860808015e-12
5.6843418860808015e-12
5.6843418860808015e-12
5.6843418860808015e-12
5.6843418860808015e-12
5.6843418860808015e-12
5.6843418860808015e-12
5.6843418860808015e-12
8.5265128291212022e-12
8.5265128291212022e-12
8.5265128291212022e-12
8.5265128291212022e-12
8.5265128291212022e-12
8.5265128291212022e-12
8.5265128291212022e-12
8.5265128291212022e-12
8.5265128291212022e-12
8.5265128291212022e-12
8.5265128291212022e-12
-2.8421709430404007e-11
-2.8421709430404007e-11
-2.8421709430404007e-11
-2.8421709430404007e-11
-2.8421709430404007e-11
-2.8421709430404007e-11
-2.8421709430404007e-11
-2.8421709430404007e-11
-2.8421709430404007e-11
-2.8421709430404007e-11
1.1368683772161603e-10
1.1368683772161603e-10
1.1368683772161603e-10
1.1368683772161603e-10
1.1368683772161603e-10
1.1368683772161603e-10
1.1368683772161603e-10
1.1368683772161603e-10
1.1368683772161603e-10
4.2632564145606011e-11
4.2632564145606011e-11
4.2632564145606011e-11
4.2632564145606011e-11
4.2632564145606011e-11
4.2632564145606011e-11
4.2632564145606011e-11
4.2632564145606011e-11
1.1652900866465643e-10
1.1652900866465643e-10
1.1652900866465643e-10
1.1652900866465643e-10
1.1652900866465643e-10
1.1652900866465643e-10
1.1652900866465643e-10
1.1652900866465643e-10
1.4779288903810084e-10
1.4779288903810084e-10
1.4779288903810084e-10
1.4779288903810084e-10
1.4779288903810084e-10
1.4779288903810084e-10
1.4779288903810084e-10
5.6843418860808015e-12
5.6843418860808015e-12
5.6843418860808015e-12
5.6843418860808015e-12
5.6843418860808015e-12
5.6843418860808015e-12
5.6843418860808015e-12