# vtk DataFile Version 2.0

ASCII

DATASET UNSTRUCTURED_GRID

POINTS 161 float 

1.2479480269999997e-03  0.0000000000000000e+00  2.5000000000000005e-02
3.7564605215000004e-03  0.0000000000000000e+00  2.5000000000000001e-02
6.2903334465000014e-03  0.0000000000000000e+00  2.5000000000000005e-02
8.8498231920000007e-03  0.0000000000000000e+00  2.5000000000000005e-02
1.1435188734999997e-02  0.0000000000000000e+00  2.5000000000000001e-02
1.4046691670000002e-02  0.0000000000000000e+00  2.5000000000000001e-02
1.6684596245000002e-02  0.0000000000000000e+00  2.5000000000000001e-02
1.9349169374999996e-02  0.0000000000000000e+00  2.4999999999999998e-02
2.2040680664999996e-02  0.0000000000000000e+00  2.5000000000000001e-02
2.4759402454999999e-02  0.0000000000000000e+00  2.4999999999999998e-02
2.7505609844999997e-02  0.0000000000000000e+00  2.5000000000000001e-02
3.0279580699999999e-02  0.0000000000000000e+00  2.5000000000000001e-02
3.3081595699999994e-02  0.0000000000000000e+00  2.5000000000000001e-02
3.5911938370000000e-02  0.0000000000000000e+00  2.5000000000000005e-02
3.8770895094999994e-02  0.0000000000000000e+00  2.5000000000000005e-02
4.1658755154999998e-02  0.0000000000000000e+00  2.5000000000000001e-02
4.4575810750000000e-02  0.0000000000000000e+00  2.5000000000000005e-02
4.7522357044999998e-02  0.0000000000000000e+00  2.5000000000000001e-02
5.0498692184999992e-02  0.0000000000000000e+00  2.5000000000000001e-02
5.3505117319999997e-02  0.0000000000000000e+00  2.5000000000000001e-02
5.6541936659999993e-02  0.0000000000000000e+00  2.5000000000000005e-02
5.9609457479999996e-02  0.0000000000000000e+00  2.5000000000000001e-02
6.2707990165000005e-02  0.0000000000000000e+00  2.5000000000000001e-02
6.5837848234999982e-02  0.0000000000000000e+00  2.4999999999999998e-02
6.8999348380000006e-02  0.0000000000000000e+00  2.5000000000000001e-02
7.2192810504999996e-02  0.0000000000000000e+00  2.5000000000000005e-02
7.5418557725000002e-02  0.0000000000000000e+00  2.5000000000000005e-02
7.8676916434999994e-02  0.0000000000000000e+00  2.5000000000000005e-02
8.1968216339999997e-02  0.0000000000000000e+00  2.5000000000000001e-02
8.5292790460000004e-02  0.0000000000000000e+00  2.5000000000000001e-02
8.8650975185000008e-02  0.0000000000000000e+00  2.5000000000000001e-02
9.2043110309999981e-02  0.0000000000000000e+00  2.5000000000000001e-02
9.5469539070000012e-02  0.0000000000000000e+00  2.5000000000000005e-02
9.8930608189999977e-02  0.0000000000000000e+00  2.5000000000000005e-02
1.0242666780000000e-01  0.0000000000000000e+00  2.5000000000000005e-02
1.0595807170000000e-01  0.0000000000000000e+00  2.4999999999999998e-02
1.0952517724999998e-01  0.0000000000000000e+00  2.5000000000000001e-02
1.1312834529999997e-01  0.0000000000000000e+00  2.5000000000000001e-02
1.1676794049999999e-01  0.0000000000000000e+00  2.5000000000000001e-02
1.2044433110000000e-01  0.0000000000000000e+00  2.5000000000000001e-02
1.2415788905000000e-01  0.0000000000000000e+00  2.5000000000000001e-02
1.2790899015000001e-01  0.0000000000000000e+00  2.5000000000000005e-02
1.3169801395000000e-01  0.0000000000000000e+00  2.4999999999999998e-02
1.3552534380000000e-01  0.0000000000000000e+00  2.5000000000000005e-02
1.3939136699999999e-01  0.0000000000000000e+00  2.5000000000000001e-02
1.4329647475000001e-01  0.0000000000000000e+00  2.5000000000000005e-02
1.4724106214999999e-01  0.0000000000000000e+00  2.4999999999999998e-02
1.5122552830000000e-01  0.0000000000000000e+00  2.5000000000000001e-02
1.5525027640000000e-01  0.0000000000000000e+00  2.5000000000000001e-02
1.5931571375000000e-01  0.0000000000000000e+00  2.4999999999999998e-02
1.6342225165000002e-01  0.0000000000000000e+00  2.5000000000000005e-02
1.6757030559999997e-01  0.0000000000000000e+00  2.5000000000000001e-02
1.7176029529999998e-01  0.0000000000000000e+00  2.5000000000000005e-02
1.7599264474999998e-01  0.0000000000000000e+00  2.5000000000000005e-02
1.8026778220000000e-01  0.0000000000000000e+00  2.5000000000000001e-02
1.8458614020000003e-01  0.0000000000000000e+00  2.5000000000000005e-02
1.8894815575000001e-01  0.0000000000000000e+00  2.5000000000000001e-02
1.9335427015000003e-01  0.0000000000000000e+00  2.5000000000000001e-02
1.9780492924999996e-01  0.0000000000000000e+00  2.5000000000000001e-02
2.0230058344999999e-01  0.0000000000000000e+00  2.5000000000000001e-02
2.0684168754999999e-01  0.0000000000000000e+00  2.5000000000000001e-02
2.1142870105000000e-01  0.0000000000000000e+00  2.5000000000000001e-02
2.1606208815000000e-01  0.0000000000000000e+00  2.5000000000000001e-02
2.2074231759999996e-01  0.0000000000000000e+00  2.4999999999999998e-02
2.2546986299999996e-01  0.0000000000000000e+00  2.5000000000000001e-02
2.3024520269999998e-01  0.0000000000000000e+00  2.5000000000000005e-02
2.3506881985000003e-01  0.0000000000000000e+00  2.4999999999999998e-02
2.3994120254999998e-01  0.0000000000000000e+00  2.5000000000000001e-02
2.4486284384999998e-01  0.0000000000000000e+00  2.5000000000000001e-02
2.4983424174999996e-01  0.0000000000000000e+00  2.4999999999999998e-02
2.5485589919999996e-01  0.0000000000000000e+00  2.5000000000000005e-02
2.5992832429999996e-01  0.0000000000000000e+00  2.5000000000000005e-02
2.6505203035000002e-01  0.0000000000000000e+00  2.5000000000000001e-02
2.7022753580000008e-01  0.0000000000000000e+00  2.5000000000000005e-02
2.7545536429999989e-01  0.0000000000000000e+00  2.5000000000000001e-02
2.8073604484999998e-01  0.0000000000000000e+00  2.5000000000000001e-02
2.8607011174999997e-01  0.0000000000000000e+00  2.5000000000000001e-02
2.9145810470000000e-01  0.0000000000000000e+00  2.5000000000000001e-02
2.9690056894999994e-01  0.0000000000000000e+00  2.5000000000000005e-02
3.0239805515000001e-01  0.0000000000000000e+00  2.5000000000000001e-02
3.0795111949999998e-01  0.0000000000000000e+00  2.5000000000000001e-02
3.1356032395000000e-01  0.0000000000000000e+00  2.5000000000000001e-02
3.1922623605000000e-01  0.0000000000000000e+00  2.5000000000000005e-02
3.2494942910000002e-01  0.0000000000000000e+00  2.5000000000000001e-02
3.3073048220000001e-01  0.0000000000000000e+00  2.5000000000000001e-02
3.3656998030000002e-01  0.0000000000000000e+00  2.5000000000000001e-02
3.4246851424999997e-01  0.0000000000000000e+00  2.5000000000000001e-02
3.4842668090000001e-01  0.0000000000000000e+00  2.4999999999999998e-02
3.5444508315000001e-01  0.0000000000000000e+00  2.4999999999999998e-02
3.6052432990000000e-01  0.0000000000000000e+00  2.5000000000000001e-02
3.6666503630000002e-01  0.0000000000000000e+00  2.5000000000000005e-02
3.7286782369999993e-01  0.0000000000000000e+00  2.5000000000000001e-02
3.7913331969999992e-01  0.0000000000000000e+00  2.5000000000000001e-02
3.8546215830000002e-01  0.0000000000000000e+00  2.5000000000000001e-02
3.9185497989999996e-01  0.0000000000000000e+00  2.5000000000000001e-02
3.9831243130000005e-01  0.0000000000000000e+00  2.5000000000000001e-02
4.0483516589999996e-01  0.0000000000000000e+00  2.5000000000000001e-02
4.1142384369999990e-01  0.0000000000000000e+00  2.5000000000000005e-02
4.1807913139999997e-01  0.0000000000000000e+00  2.5000000000000001e-02
4.2480170239999998e-01  0.0000000000000000e+00  2.4999999999999998e-02
4.3159223684999998e-01  0.0000000000000000e+00  2.5000000000000001e-02
4.3845142189999992e-01  0.0000000000000000e+00  2.5000000000000001e-02
4.4537995159999993e-01  0.0000000000000000e+00  2.4999999999999998e-02
4.5237852700000009e-01  0.0000000000000000e+00  2.5000000000000005e-02
4.5944785625000001e-01  0.0000000000000000e+00  2.5000000000000005e-02
4.6658865464999993e-01  0.0000000000000000e+00  2.5000000000000001e-02
4.7380164474999992e-01  0.0000000000000000e+00  2.5000000000000001e-02
4.8108755635000006e-01  0.0000000000000000e+00  2.5000000000000005e-02
4.8844712664999984e-01  0.0000000000000000e+00  2.4999999999999998e-02
4.9588110034999994e-01  0.0000000000000000e+00  2.5000000000000001e-02
5.0339022965000002e-01  0.0000000000000000e+00  2.5000000000000001e-02
5.1097527440000001e-01  0.0000000000000000e+00  2.4999999999999998e-02
5.1863700204999996e-01  0.0000000000000000e+00  2.4999999999999998e-02
5.2637618780000006e-01  0.0000000000000000e+00  2.5000000000000005e-02
5.3419361479999994e-01  0.0000000000000000e+00  2.5000000000000001e-02
5.4209007400000009e-01  0.0000000000000000e+00  2.5000000000000001e-02
5.5006636439999990e-01  0.0000000000000000e+00  2.5000000000000005e-02
5.5812329314999998e-01  0.0000000000000000e+00  2.5000000000000005e-02
5.6626167539999994e-01  0.0000000000000000e+00  2.4999999999999998e-02
5.7448233464999998e-01  0.0000000000000000e+00  2.5000000000000005e-02
5.8278610269999997e-01  0.0000000000000000e+00  2.5000000000000001e-02
5.9117381974999994e-01  0.0000000000000000e+00  2.5000000000000001e-02
5.9964633454999994e-01  0.0000000000000000e+00  2.5000000000000001e-02
6.0820450430000006e-01  0.0000000000000000e+00  2.5000000000000005e-02
6.1684919499999991e-01  0.0000000000000000e+00  2.5000000000000005e-02
6.2558128135000002e-01  0.0000000000000000e+00  2.5000000000000001e-02
6.3440164689999989e-01  0.0000000000000000e+00  2.4999999999999998e-02
6.4331118415000010e-01  0.0000000000000000e+00  2.5000000000000005e-02
6.5231079455000007e-01  0.0000000000000000e+00  2.5000000000000005e-02
6.6140138875000010e-01  0.0000000000000000e+00  2.5000000000000001e-02
6.7058388660000001e-01  0.0000000000000000e+00  2.5000000000000005e-02
6.7985921719999987e-01  0.0000000000000000e+00  2.5000000000000001e-02
6.8922831899999992e-01  0.0000000000000000e+00  2.5000000000000001e-02
6.9869214009999991e-01  0.0000000000000000e+00  2.5000000000000001e-02
7.0825163804999991e-01  0.0000000000000000e+00  2.4999999999999998e-02
7.1790778009999989e-01  0.0000000000000000e+00  2.5000000000000005e-02
7.2766154335000000e-01  0.0000000000000000e+00  2.5000000000000005e-02
7.3751391470000005e-01  0.0000000000000000e+00  2.5000000000000001e-02
7.4746589105000005e-01  0.0000000000000000e+00  2.5000000000000005e-02
7.5751847934999994e-01  0.0000000000000000e+00  2.4999999999999998e-02
7.6767269680000005e-01  0.0000000000000000e+00  2.5000000000000005e-02
7.7792957085000014e-01  0.0000000000000000e+00  2.5000000000000005e-02
7.8829013930000025e-01  0.0000000000000000e+00  2.5000000000000008e-02
7.9875545049999996e-01  0.0000000000000000e+00  2.5000000000000001e-02
8.0932656339999998e-01  0.0000000000000000e+00  2.5000000000000005e-02
8.2000454754999996e-01  0.0000000000000000e+00  2.5000000000000001e-02
8.3079048344999984e-01  0.0000000000000000e+00  2.5000000000000001e-02
8.4168546244999998e-01  0.0000000000000000e+00  2.4999999999999998e-02
8.5269058695000000e-01  0.0000000000000000e+00  2.5000000000000001e-02
8.6380697049999988e-01  0.0000000000000000e+00  2.5000000000000001e-02
8.7503573784999988e-01  0.0000000000000000e+00  2.5000000000000001e-02
8.8637802524999998e-01  0.0000000000000000e+00  2.4999999999999998e-02
8.9783498034999998e-01  0.0000000000000000e+00  2.5000000000000001e-02
9.0940776234999998e-01  0.0000000000000000e+00  2.5000000000000001e-02
9.2109754224999985e-01  0.0000000000000000e+00  2.5000000000000005e-02
9.3290550294999997e-01  0.0000000000000000e+00  2.5000000000000001e-02
9.4483283914999994e-01  0.0000000000000000e+00  2.5000000000000001e-02
9.5688075770000003e-01  0.0000000000000000e+00  2.4999999999999998e-02
9.6905047765000007e-01  0.0000000000000000e+00  2.5000000000000001e-02
9.8134323039999993e-01  0.0000000000000000e+00  2.5000000000000001e-02
9.9376025984999994e-01  0.0000000000000000e+00  2.4999999999999998e-02

CELLS 0 0


CELL_TYPES 0


POINT_DATA 161

VECTORS VertexNormals float

0.0000000000000000e+00 0.0000000000000000e+00 0.0000000000000000e+00 
0.0000000000000000e+00 0.0000000000000000e+00 0.0000000000000000e+00 
0.0000000000000000e+00 0.0000000000000000e+00 0.0000000000000000e+00 
0.0000000000000000e+00 0.0000000000000000e+00 0.0000000000000000e+00 
0.0000000000000000e+00 0.0000000000000000e+00 0.0000000000000000e+00 
0.0000000000000000e+00 0.0000000000000000e+00 0.0000000000000000e+00 
0.0000000000000000e+00 0.0000000000000000e+00 0.0000000000000000e+00 
0.0000000000000000e+00 0.0000000000000000e+00 0.0000000000000000e+00 
0.0000000000000000e+00 0.0000000000000000e+00 0.0000000000000000e+00 
0.0000000000000000e+00 0.0000000000000000e+00 0.0000000000000000e+00 
0.0000000000000000e+00 0.0000000000000000e+00 0.0000000000000000e+00 
0.0000000000000000e+00 0.0000000000000000e+00 0.0000000000000000e+00 
0.0000000000000000e+00 0.0000000000000000e+00 0.0000000000000000e+00 
0.0000000000000000e+00 0.0000000000000000e+00 0.0000000000000000e+00 
0.0000000000000000e+00 0.0000000000000000e+00 0.0000000000000000e+00 
0.0000000000000000e+00 0.0000000000000000e+00 0.0000000000000000e+00 
0.0000000000000000e+00 0.0000000000000000e+00 0.0000000000000000e+00 
0.0000000000000000e+00 0.0000000000000000e+00 0.0000000000000000e+00 
0.0000000000000000e+00 0.0000000000000000e+00 0.0000000000000000e+00 
0.0000000000000000e+00 0.0000000000000000e+00 0.0000000000000000e+00 
0.0000000000000000e+00 0.0000000000000000e+00 0.0000000000000000e+00 
0.0000000000000000e+00 0.0000000000000000e+00 0.0000000000000000e+00 
0.0000000000000000e+00 0.0000000000000000e+00 0.0000000000000000e+00 
0.0000000000000000e+00 0.0000000000000000e+00 0.0000000000000000e+00 
0.0000000000000000e+00 0.0000000000000000e+00 0.0000000000000000e+00 
0.0000000000000000e+00 0.0000000000000000e+00 0.0000000000000000e+00 
0.0000000000000000e+00 0.0000000000000000e+00 0.0000000000000000e+00 
0.0000000000000000e+00 0.0000000000000000e+00 0.0000000000000000e+00 
0.0000000000000000e+00 0.0000000000000000e+00 0.0000000000000000e+00 
0.0000000000000000e+00 0.0000000000000000e+00 0.0000000000000000e+00 
0.0000000000000000e+00 0.0000000000000000e+00 0.0000000000000000e+00 
0.0000000000000000e+00 0.0000000000000000e+00 0.0000000000000000e+00 
0.0000000000000000e+00 0.0000000000000000e+00 0.0000000000000000e+00 
0.0000000000000000e+00 0.0000000000000000e+00 0.0000000000000000e+00 
0.0000000000000000e+00 0.0000000000000000e+00 0.0000000000000000e+00 
0.0000000000000000e+00 0.0000000000000000e+00 0.0000000000000000e+00 
0.0000000000000000e+00 0.0000000000000000e+00 0.0000000000000000e+00 
0.0000000000000000e+00 0.0000000000000000e+00 0.0000000000000000e+00 
0.0000000000000000e+00 0.0000000000000000e+00 0.0000000000000000e+00 
0.0000000000000000e+00 0.0000000000000000e+00 0.0000000000000000e+00 
0.0000000000000000e+00 0.0000000000000000e+00 0.0000000000000000e+00 
0.0000000000000000e+00 0.0000000000000000e+00 0.0000000000000000e+00 
0.0000000000000000e+00 0.0000000000000000e+00 0.0000000000000000e+00 
0.0000000000000000e+00 0.0000000000000000e+00 0.0000000000000000e+00 
0.0000000000000000e+00 0.0000000000000000e+00 0.0000000000000000e+00 
0.0000000000000000e+00 0.0000000000000000e+00 0.0000000000000000e+00 
0.0000000000000000e+00 0.0000000000000000e+00 0.0000000000000000e+00 
0.0000000000000000e+00 0.0000000000000000e+00 0.0000000000000000e+00 
0.0000000000000000e+00 0.0000000000000000e+00 0.0000000000000000e+00 
0.0000000000000000e+00 0.0000000000000000e+00 0.0000000000000000e+00 
0.0000000000000000e+00 0.0000000000000000e+00 0.0000000000000000e+00 
0.0000000000000000e+00 0.0000000000000000e+00 0.0000000000000000e+00 
0.0000000000000000e+00 0.0000000000000000e+00 0.0000000000000000e+00 
0.0000000000000000e+00 0.0000000000000000e+00 0.0000000000000000e+00 
0.0000000000000000e+00 0.0000000000000000e+00 0.0000000000000000e+00 
0.0000000000000000e+00 0.0000000000000000e+00 0.0000000000000000e+00 
0.0000000000000000e+00 0.0000000000000000e+00 0.0000000000000000e+00 
0.0000000000000000e+00 0.0000000000000000e+00 0.0000000000000000e+00 
0.0000000000000000e+00 0.0000000000000000e+00 0.0000000000000000e+00 
0.0000000000000000e+00 0.0000000000000000e+00 0.0000000000000000e+00 
0.0000000000000000e+00 0.0000000000000000e+00 0.0000000000000000e+00 
0.0000000000000000e+00 0.0000000000000000e+00 0.0000000000000000e+00 
0.0000000000000000e+00 0.0000000000000000e+00 0.0000000000000000e+00 
0.0000000000000000e+00 0.0000000000000000e+00 0.0000000000000000e+00 
0.0000000000000000e+00 0.0000000000000000e+00 0.0000000000000000e+00 
0.0000000000000000e+00 0.0000000000000000e+00 0.0000000000000000e+00 
0.0000000000000000e+00 0.0000000000000000e+00 0.0000000000000000e+00 
0.0000000000000000e+00 0.0000000000000000e+00 0.0000000000000000e+00 
0.0000000000000000e+00 0.0000000000000000e+00 0.0000000000000000e+00 
0.0000000000000000e+00 0.0000000000000000e+00 0.0000000000000000e+00 
0.0000000000000000e+00 0.0000000000000000e+00 0.0000000000000000e+00 
0.0000000000000000e+00 0.0000000000000000e+00 0.0000000000000000e+00 
0.0000000000000000e+00 0.0000000000000000e+00 0.0000000000000000e+00 
0.0000000000000000e+00 0.0000000000000000e+00 0.0000000000000000e+00 
0.0000000000000000e+00 0.0000000000000000e+00 0.0000000000000000e+00 
0.0000000000000000e+00 0.0000000000000000e+00 0.0000000000000000e+00 
0.0000000000000000e+00 0.0000000000000000e+00 0.0000000000000000e+00 
0.0000000000000000e+00 0.0000000000000000e+00 0.0000000000000000e+00 
0.0000000000000000e+00 0.0000000000000000e+00 0.0000000000000000e+00 
0.0000000000000000e+00 0.0000000000000000e+00 0.0000000000000000e+00 
0.0000000000000000e+00 0.0000000000000000e+00 0.0000000000000000e+00 
0.0000000000000000e+00 0.0000000000000000e+00 0.0000000000000000e+00 
0.0000000000000000e+00 0.0000000000000000e+00 0.0000000000000000e+00 
0.0000000000000000e+00 0.0000000000000000e+00 0.0000000000000000e+00 
0.0000000000000000e+00 0.0000000000000000e+00 0.0000000000000000e+00 
0.0000000000000000e+00 0.0000000000000000e+00 0.0000000000000000e+00 
0.0000000000000000e+00 0.0000000000000000e+00 0.0000000000000000e+00 
0.0000000000000000e+00 0.0000000000000000e+00 0.0000000000000000e+00 
0.0000000000000000e+00 0.0000000000000000e+00 0.0000000000000000e+00 
0.0000000000000000e+00 0.0000000000000000e+00 0.0000000000000000e+00 
0.0000000000000000e+00 0.0000000000000000e+00 0.0000000000000000e+00 
0.0000000000000000e+00 0.0000000000000000e+00 0.0000000000000000e+00 
0.0000000000000000e+00 0.0000000000000000e+00 0.0000000000000000e+00 
0.0000000000000000e+00 0.0000000000000000e+00 0.0000000000000000e+00 
0.0000000000000000e+00 0.0000000000000000e+00 0.0000000000000000e+00 
0.0000000000000000e+00 0.0000000000000000e+00 0.0000000000000000e+00 
0.0000000000000000e+00 0.0000000000000000e+00 0.0000000000000000e+00 
0.0000000000000000e+00 0.0000000000000000e+00 0.0000000000000000e+00 
0.0000000000000000e+00 0.0000000000000000e+00 0.0000000000000000e+00 
0.0000000000000000e+00 0.0000000000000000e+00 0.0000000000000000e+00 
0.0000000000000000e+00 0.0000000000000000e+00 0.0000000000000000e+00 
0.0000000000000000e+00 0.0000000000000000e+00 0.0000000000000000e+00 
0.0000000000000000e+00 0.0000000000000000e+00 0.0000000000000000e+00 
0.0000000000000000e+00 0.0000000000000000e+00 0.0000000000000000e+00 
0.0000000000000000e+00 0.0000000000000000e+00 0.0000000000000000e+00 
0.0000000000000000e+00 0.0000000000000000e+00 0.0000000000000000e+00 
0.0000000000000000e+00 0.0000000000000000e+00 0.0000000000000000e+00 
0.0000000000000000e+00 0.0000000000000000e+00 0.0000000000000000e+00 
0.0000000000000000e+00 0.0000000000000000e+00 0.0000000000000000e+00 
0.0000000000000000e+00 0.0000000000000000e+00 0.0000000000000000e+00 
0.0000000000000000e+00 0.0000000000000000e+00 0.0000000000000000e+00 
0.0000000000000000e+00 0.0000000000000000e+00 0.0000000000000000e+00 
0.0000000000000000e+00 0.0000000000000000e+00 0.0000000000000000e+00 
0.0000000000000000e+00 0.0000000000000000e+00 0.0000000000000000e+00 
0.0000000000000000e+00 0.0000000000000000e+00 0.0000000000000000e+00 
0.0000000000000000e+00 0.0000000000000000e+00 0.0000000000000000e+00 
0.0000000000000000e+00 0.0000000000000000e+00 0.0000000000000000e+00 
0.0000000000000000e+00 0.0000000000000000e+00 0.0000000000000000e+00 
0.0000000000000000e+00 0.0000000000000000e+00 0.0000000000000000e+00 
0.0000000000000000e+00 0.0000000000000000e+00 0.0000000000000000e+00 
0.0000000000000000e+00 0.0000000000000000e+00 0.0000000000000000e+00 
0.0000000000000000e+00 0.0000000000000000e+00 0.0000000000000000e+00 
0.0000000000000000e+00 0.0000000000000000e+00 0.0000000000000000e+00 
0.0000000000000000e+00 0.0000000000000000e+00 0.0000000000000000e+00 
0.0000000000000000e+00 0.0000000000000000e+00 0.0000000000000000e+00 
0.0000000000000000e+00 0.0000000000000000e+00 0.0000000000000000e+00 
0.0000000000000000e+00 0.0000000000000000e+00 0.0000000000000000e+00 
0.0000000000000000e+00 0.0000000000000000e+00 0.0000000000000000e+00 
0.0000000000000000e+00 0.0000000000000000e+00 0.0000000000000000e+00 
0.0000000000000000e+00 0.0000000000000000e+00 0.0000000000000000e+00 
0.0000000000000000e+00 0.0000000000000000e+00 0.0000000000000000e+00 
0.0000000000000000e+00 0.0000000000000000e+00 0.0000000000000000e+00 
0.0000000000000000e+00 0.0000000000000000e+00 0.0000000000000000e+00 
0.0000000000000000e+00 0.0000000000000000e+00 0.0000000000000000e+00 
0.0000000000000000e+00 0.0000000000000000e+00 0.0000000000000000e+00 
0.0000000000000000e+00 0.0000000000000000e+00 0.0000000000000000e+00 
0.0000000000000000e+00 0.0000000000000000e+00 0.0000000000000000e+00 
0.0000000000000000e+00 0.0000000000000000e+00 0.0000000000000000e+00 
0.0000000000000000e+00 0.0000000000000000e+00 0.0000000000000000e+00 
0.0000000000000000e+00 0.0000000000000000e+00 0.0000000000000000e+00 
0.0000000000000000e+00 0.0000000000000000e+00 0.0000000000000000e+00 
0.0000000000000000e+00 0.0000000000000000e+00 0.0000000000000000e+00 
0.0000000000000000e+00 0.0000000000000000e+00 0.0000000000000000e+00 
0.0000000000000000e+00 0.0000000000000000e+00 0.0000000000000000e+00 
0.0000000000000000e+00 0.0000000000000000e+00 0.0000000000000000e+00 
0.0000000000000000e+00 0.0000000000000000e+00 0.0000000000000000e+00 
0.0000000000000000e+00 0.0000000000000000e+00 0.0000000000000000e+00 
0.0000000000000000e+00 0.0000000000000000e+00 0.0000000000000000e+00 
0.0000000000000000e+00 0.0000000000000000e+00 0.0000000000000000e+00 
0.0000000000000000e+00 0.0000000000000000e+00 0.0000000000000000e+00 
0.0000000000000000e+00 0.0000000000000000e+00 0.0000000000000000e+00 
0.0000000000000000e+00 0.0000000000000000e+00 0.0000000000000000e+00 
0.0000000000000000e+00 0.0000000000000000e+00 0.0000000000000000e+00 
0.0000000000000000e+00 0.0000000000000000e+00 0.0000000000000000e+00 
0.0000000000000000e+00 0.0000000000000000e+00 0.0000000000000000e+00 
0.0000000000000000e+00 0.0000000000000000e+00 0.0000000000000000e+00 
0.0000000000000000e+00 0.0000000000000000e+00 0.0000000000000000e+00 
0.0000000000000000e+00 0.0000000000000000e+00 0.0000000000000000e+00 
0.0000000000000000e+00 0.0000000000000000e+00 0.0000000000000000e+00 
0.0000000000000000e+00 0.0000000000000000e+00 0.0000000000000000e+00 
0.0000000000000000e+00 0.0000000000000000e+00 0.0000000000000000e+00 

SCALARS Sink-Temperature-0 float
LOOKUP_TABLE default
4.0546486735144930e+02
4.1342880098016587e+02
4.2004337091000360e+02
4.2572355461691075e+02
4.3067295064632066e+02
4.3500113329332328e+02
4.3876924937738568e+02
4.4200994680361293e+02
4.4473698237574968e+02
4.4695013432608437e+02
4.4863765711456625e+02
4.4977719663181335e+02
4.5033547087965252e+02
4.5026661693629796e+02
4.4950864887892646e+02
4.4797665727512839e+02
4.4554950126365628e+02
4.4204161298207288e+02
4.3713522899075502e+02
4.3018795263448123e+02
4.1957188925199165e+02
4.1199657385475155e+02
4.0591499606179116e+02
4.0072406404585882e+02
3.9613407695191887e+02
3.9198251242033894e+02
3.8816787645118308e+02
3.8462193094178002e+02
3.8129641128994029e+02
3.7815594697300588e+02
3.7517396265501117e+02
3.7233013893405962e+02
3.6960874608884529e+02
3.6699749667052367e+02
3.6448672357534889e+02
3.6206877170510933e+02
3.5973753641486996e+02
3.5748810609930905e+02
3.5531648140591398e+02
3.5321935331335266e+02
3.5119392691164018e+02
3.4923778201866088e+02
3.4734876401980210e+02
3.4552489945058090e+02
3.4376433211032548e+02
3.4206527626660176e+02
3.4042598373862415e+02
3.3884472217829801e+02
3.3731976226115285e+02
3.3584937179594050e+02
3.3443181498582550e+02
3.3306535521533073e+02
3.3174826030420832e+02
3.3047880908081368e+02
3.2925529854822827e+02
3.2807605096155316e+02
3.2693942050973305e+02
3.2584379955836584e+02
3.2478762414902820e+02
3.2376937874526016e+02
3.2278759965758047e+02
3.2184087781031570e+02
3.2092786090387671e+02
3.2004725472715586e+02
3.1919782366922499e+02
3.1837839056893705e+02
3.1758783592134995e+02
3.1682509658711371e+02
3.1608916414460685e+02
3.1537908294813332e+02
3.1469394796602785e+02
3.1403290244016176e+02
3.1339513547132043e+02
3.1277987956480331e+02
3.1218640814673773e+02
3.1161403308457290e+02
3.1106210226831774e+02
3.1052999722947897e+02
3.1001713082741946e+02
3.0952294504397327e+02
3.0904690883358597e+02
3.0858851606323401e+02
3.0814728357251312e+02
3.0772274929748676e+02
3.0731447049328699e+02
3.0692202203627983e+02
3.0654499480411988e+02
3.0618299411220420e+02
3.0583563821056947e+02
3.0550255682226458e+02
3.0518338969229404e+02
3.0487778517451790e+02
3.0458539879959869e+02
3.0430589195240486e+02
3.0403893068994392e+02
3.0378418457331253e+02
3.0354132651824199e+02
3.0331003080118563e+02
3.0308997481496993e+02
3.0288083550361972e+02
3.0268229420161896e+02
3.0249402983279629e+02
3.0231572625069458e+02
3.0214706512715946e+02
3.0198773114115477e+02
3.0183741132059407e+02
3.0169578800693421e+02
3.0156255598080133e+02
3.0143739972839370e+02
3.0132001195557609e+02
3.0121008684331917e+02
3.0110731632765277e+02
3.0101139857376381e+02
3.0092203467692940e+02
3.0083892699996062e+02
3.0076178211367687e+02
3.0069031053080624e+02
3.0062422696545008e+02
3.0056325066620957e+02
3.0050710582929992e+02
3.0045552203408141e+02
3.0040823469423248e+02
3.0036498551467713e+02
3.0032552294397561e+02
3.0028960261144897e+02
3.0025698774627500e+02
3.0022744956753723e+02
3.0020076764146563e+02
3.0017673019980299e+02
3.0015513441415169e+02
3.0013578662367155e+02
3.0011850251222148e+02
3.0010310723289308e+02
3.0008943547856956e+02
3.0007733149916857e+02
3.0006664906421344e+02
3.0005725137330995e+02
3.0004901091615119e+02
3.0004180928457936e+02
3.0003553694035742e+02
3.0003009294239166e+02
3.0002538463796594e+02
3.0002132732248577e+02
3.0001784387277081e+02
3.0001486435909715e+02
3.0001232564102338e+02
3.0001017095200012e+02
3.0000834947795306e+02
3.0000681593419500e+02
3.0000553014519062e+02
3.0000445663148025e+02
3.0000356420640344e+02
3.0000282558806515e+02
3.0000221702483083e+02
3.0000171794347233e+02
3.0000131061908144e+02
3.0000097984372502e+02
3.0000071269261224e+02
3.0000049816128904e+02
3.0000032705947871e+02
3.0000019165721363e+02

SCALARS Heat-Flux float
LOOKUP_TABLE default
2.9999940000119980e+05
2.9999940000119980e+05
2.9999940000119980e+05
2.9999940000119980e+05
2.9999940000119980e+05
2.9999940000119980e+05
2.9999940000119980e+05
2.9999940000119980e+05
2.9999940000119980e+05
2.9999940000119980e+05
2.9999940000119980e+05
2.9999940000119980e+05
2.9999940000119980e+05
2.9999940000119980e+05
2.9999940000119980e+05
2.9999940000119980e+05
2.9999940000119980e+05
2.9999940000119980e+05
2.9999940000119980e+05
2.9999940000119980e+05
5.9685589803848416e-11
5.9685589803848416e-11
5.9685589803848416e-11
5.9685589803848416e-11
5.9685589803848416e-11
5.9685589803848416e-11
5.9685589803848416e-11
5.9685589803848416e-11
5.9685589803848416e-11
5.9685589803848416e-11
5.9685589803848416e-11
5.9685589803848416e-11
5.9685589803848416e-11
5.9685589803848416e-11
5.9685589803848416e-11
5.9685589803848416e-11
5.9685589803848416e-11
5.9685589803848416e-11
5.9685589803848416e-11
5.9685589803848416e-11
8.5265128291212022e-12
8.5265128291212022e-12
8.5265128291212022e-12
8.5265128291212022e-12
8.5265128291212022e-12
8.5265128291212022e-12
8.5265128291212022e-12
8.5265128291212022e-12
8.5265128291212022e-12
8.5265128291212022e-12
8.5265128291212022e-12
8.5265128291212022e-12
8.5265128291212022e-12
8.5265128291212022e-12
8.5265128291212022e-12
8.5265128291212022e-12
-2.8421709430404007e-12
-2.8421709430404007e-12
-2.8421709430404007e-12
-2.8421709430404007e-12
-2.8421709430404007e-12
-2.8421709430404007e-12
-2.8421709430404007e-12
-2.8421709430404007e-12
-2.8421709430404007e-12
-2.8421709430404007e-12
-2.8421709430404007e-12
-2.8421709430404007e-12
-2.8421709430404007e-12
-2.8421709430404007e-12
-2.8421709430404007e-12
5.6843418860808015e-12
5.6843418860808015e-12
5.6843418860808015e-12
5.6843418860808015e-12
5.6843418860808015e-12
5.6843418860808015e-12
5.6843418860808015e-12
5.6843418860808015e-12
5.6843418860808015e-12
5.6843418860808015e-12
5.6843418860808015e-12
5.6843418860808015e-12
8.5265128291212022e-12
8.5265128291212022e-12
8.5265128291212022e-12
8.5265128291212022e-12
8.5265128291212022e-12
8.5265128291212022e-12
8.5265128291212022e-12
8.5265128291212022e-12
8.5265128291212022e-12
8.5265128291212022e-12
8.5265128291212022e-12
-2.8421709430404007e-11
-2.8421709430404007e-11
-2.8421709430404007e-11
-2.8421709430404007e-11
-2.8421709430404007e-11
-2.8421709430404007e-11
-2.8421709430404007e-11
-2.8421709430404007e-11
-2.8421709430404007e-11
-2.8421709430404007e-11
-1.4210854715202004e-11
-1.4210854715202004e-11
-1.4210854715202004e-11
-1.4210854715202004e-11
-1.4210854715202004e-11
-1.4210854715202004e-11
-1.4210854715202004e-11
-1.4210854715202004e-11
-1.4210854715202004e-11
1.5631940186722204e-10
1.5631940186722204e-10
1.5631940186722204e-10
1.5631940186722204e-10
1.5631940186722204e-10
1.5631940186722204e-10
1.5631940186722204e-10
1.5631940186722204e-10
6.1106675275368616e-11
6.1106675275368616e-11
6.1106675275368616e-11
6.1106675275368616e-11
6.1106675275368616e-11
6.1106675275368616e-11
6.1106675275368616e-11
6.1106675275368616e-11
7.3896444519050419e-11
7.3896444519050419e-11
7.3896444519050419e-11
7.3896444519050419e-11
7.3896444519050419e-11
7.3896444519050419e-11
7.3896444519050419e-11
5.6843418860808015e-12
5.6843418860808015e-12
5.6843418860808015e-12
5.6843418860808015e-12
5.6843418860808015e-12
5.6843418860808015e-12
5.6843418860808015e-12