# vtk DataFile Version 2.0

ASCII

DATASET UNSTRUCTURED_GRID

POINTS 161 float 

1.2479480269999997e-03  0.0000000000000000e+00  2.5000000000000005e-02
3.7564605215000004e-03  0.0000000000000000e+00  2.5000000000000001e-02
6.2903334465000014e-03  0.0000000000000000e+00  2.5000000000000005e-02
8.8498231920000007e-03  0.0000000000000000e+00  2.5000000000000005e-02
1.1435188734999997e-02  0.0000000000000000e+00  2.5000000000000001e-02
1.4046691670000002e-02  0.0000000000000000e+00  2.5000000000000001e-02
1.6684596245000002e-02  0.0000000000000000e+00  2.5000000000000001e-02
1.9349169374999996e-02  0.0000000000000000e+00  2.4999999999999998e-02
2.2040680664999996e-02  0.0000000000000000e+00  2.5000000000000001e-02
2.4759402454999999e-02  0.0000000000000000e+00  2.4999999999999998e-02
2.7505609844999997e-02  0.0000000000000000e+00  2.5000000000000001e-02
3.0279580699999999e-02  0.0000000000000000e+00  2.5000000000000001e-02
3.3081595699999994e-02  0.0000000000000000e+00  2.5000000000000001e-02
3.5911938370000000e-02  0.0000000000000000e+00  2.5000000000000005e-02
3.8770895094999994e-02  0.0000000000000000e+00  2.5000000000000005e-02
4.1658755154999998e-02  0.0000000000000000e+00  2.5000000000000001e-02
4.4575810750000000e-02  0.0000000000000000e+00  2.5000000000000005e-02
4.7522357044999998e-02  0.0000000000000000e+00  2.5000000000000001e-02
5.0498692184999992e-02  0.0000000000000000e+00  2.5000000000000001e-02
5.3505117319999997e-02  0.0000000000000000e+00  2.5000000000000001e-02
5.6541936659999993e-02  0.0000000000000000e+00  2.5000000000000005e-02
5.9609457479999996e-02  0.0000000000000000e+00  2.5000000000000001e-02
6.2707990165000005e-02  0.0000000000000000e+00  2.5000000000000001e-02
6.5837848234999982e-02  0.0000000000000000e+00  2.4999999999999998e-02
6.8999348380000006e-02  0.0000000000000000e+00  2.5000000000000001e-02
7.2192810504999996e-02  0.0000000000000000e+00  2.5000000000000005e-02
7.5418557725000002e-02  0.0000000000000000e+00  2.5000000000000005e-02
7.8676916434999994e-02  0.0000000000000000e+00  2.5000000000000005e-02
8.1968216339999997e-02  0.0000000000000000e+00  2.5000000000000001e-02
8.5292790460000004e-02  0.0000000000000000e+00  2.5000000000000001e-02
8.8650975185000008e-02  0.0000000000000000e+00  2.5000000000000001e-02
9.2043110309999981e-02  0.0000000000000000e+00  2.5000000000000001e-02
9.5469539070000012e-02  0.0000000000000000e+00  2.5000000000000005e-02
9.8930608189999977e-02  0.0000000000000000e+00  2.5000000000000005e-02
1.0242666780000000e-01  0.0000000000000000e+00  2.5000000000000005e-02
1.0595807170000000e-01  0.0000000000000000e+00  2.4999999999999998e-02
1.0952517724999998e-01  0.0000000000000000e+00  2.5000000000000001e-02
1.1312834529999997e-01  0.0000000000000000e+00  2.5000000000000001e-02
1.1676794049999999e-01  0.0000000000000000e+00  2.5000000000000001e-02
1.2044433110000000e-01  0.0000000000000000e+00  2.5000000000000001e-02
1.2415788905000000e-01  0.0000000000000000e+00  2.5000000000000001e-02
1.2790899015000001e-01  0.0000000000000000e+00  2.5000000000000005e-02
1.3169801395000000e-01  0.0000000000000000e+00  2.4999999999999998e-02
1.3552534380000000e-01  0.0000000000000000e+00  2.5000000000000005e-02
1.3939136699999999e-01  0.0000000000000000e+00  2.5000000000000001e-02
1.4329647475000001e-01  0.0000000000000000e+00  2.5000000000000005e-02
1.4724106214999999e-01  0.0000000000000000e+00  2.4999999999999998e-02
1.5122552830000000e-01  0.0000000000000000e+00  2.5000000000000001e-02
1.5525027640000000e-01  0.0000000000000000e+00  2.5000000000000001e-02
1.5931571375000000e-01  0.0000000000000000e+00  2.4999999999999998e-02
1.6342225165000002e-01  0.0000000000000000e+00  2.5000000000000005e-02
1.6757030559999997e-01  0.0000000000000000e+00  2.5000000000000001e-02
1.7176029529999998e-01  0.0000000000000000e+00  2.5000000000000005e-02
1.7599264474999998e-01  0.0000000000000000e+00  2.5000000000000005e-02
1.8026778220000000e-01  0.0000000000000000e+00  2.5000000000000001e-02
1.8458614020000003e-01  0.0000000000000000e+00  2.5000000000000005e-02
1.8894815575000001e-01  0.0000000000000000e+00  2.5000000000000001e-02
1.9335427015000003e-01  0.0000000000000000e+00  2.5000000000000001e-02
1.9780492924999996e-01  0.0000000000000000e+00  2.5000000000000001e-02
2.0230058344999999e-01  0.0000000000000000e+00  2.5000000000000001e-02
2.0684168754999999e-01  0.0000000000000000e+00  2.5000000000000001e-02
2.1142870105000000e-01  0.0000000000000000e+00  2.5000000000000001e-02
2.1606208815000000e-01  0.0000000000000000e+00  2.5000000000000001e-02
2.2074231759999996e-01  0.0000000000000000e+00  2.4999999999999998e-02
2.2546986299999996e-01  0.0000000000000000e+00  2.5000000000000001e-02
2.3024520269999998e-01  0.0000000000000000e+00  2.5000000000000005e-02
2.3506881985000003e-01  0.0000000000000000e+00  2.4999999999999998e-02
2.3994120254999998e-01  0.0000000000000000e+00  2.5000000000000001e-02
2.4486284384999998e-01  0.0000000000000000e+00  2.5000000000000001e-02
2.4983424174999996e-01  0.0000000000000000e+00  2.4999999999999998e-02
2.5485589919999996e-01  0.0000000000000000e+00  2.5000000000000005e-02
2.5992832429999996e-01  0.0000000000000000e+00  2.5000000000000005e-02
2.6505203035000002e-01  0.0000000000000000e+00  2.5000000000000001e-02
2.7022753580000008e-01  0.0000000000000000e+00  2.5000000000000005e-02
2.7545536429999989e-01  0.0000000000000000e+00  2.5000000000000001e-02
2.8073604484999998e-01  0.0000000000000000e+00  2.5000000000000001e-02
2.8607011174999997e-01  0.0000000000000000e+00  2.5000000000000001e-02
2.9145810470000000e-01  0.0000000000000000e+00  2.5000000000000001e-02
2.9690056894999994e-01  0.0000000000000000e+00  2.5000000000000005e-02
3.0239805515000001e-01  0.0000000000000000e+00  2.5000000000000001e-02
3.0795111949999998e-01  0.0000000000000000e+00  2.5000000000000001e-02
3.1356032395000000e-01  0.0000000000000000e+00  2.5000000000000001e-02
3.1922623605000000e-01  0.0000000000000000e+00  2.5000000000000005e-02
3.2494942910000002e-01  0.0000000000000000e+00  2.5000000000000001e-02
3.3073048220000001e-01  0.0000000000000000e+00  2.5000000000000001e-02
3.3656998030000002e-01  0.0000000000000000e+00  2.5000000000000001e-02
3.4246851424999997e-01  0.0000000000000000e+00  2.5000000000000001e-02
3.4842668090000001e-01  0.0000000000000000e+00  2.4999999999999998e-02
3.5444508315000001e-01  0.0000000000000000e+00  2.4999999999999998e-02
3.6052432990000000e-01  0.0000000000000000e+00  2.5000000000000001e-02
3.6666503630000002e-01  0.0000000000000000e+00  2.5000000000000005e-02
3.7286782369999993e-01  0.0000000000000000e+00  2.5000000000000001e-02
3.7913331969999992e-01  0.0000000000000000e+00  2.5000000000000001e-02
3.8546215830000002e-01  0.0000000000000000e+00  2.5000000000000001e-02
3.9185497989999996e-01  0.0000000000000000e+00  2.5000000000000001e-02
3.9831243130000005e-01  0.0000000000000000e+00  2.5000000000000001e-02
4.0483516589999996e-01  0.0000000000000000e+00  2.5000000000000001e-02
4.1142384369999990e-01  0.0000000000000000e+00  2.5000000000000005e-02
4.1807913139999997e-01  0.0000000000000000e+00  2.5000000000000001e-02
4.2480170239999998e-01  0.0000000000000000e+00  2.4999999999999998e-02
4.3159223684999998e-01  0.0000000000000000e+00  2.5000000000000001e-02
4.3845142189999992e-01  0.0000000000000000e+00  2.5000000000000001e-02
4.4537995159999993e-01  0.0000000000000000e+00  2.4999999999999998e-02
4.5237852700000009e-01  0.0000000000000000e+00  2.5000000000000005e-02
4.5944785625000001e-01  0.0000000000000000e+00  2.5000000000000005e-02
4.6658865464999993e-01  0.0000000000000000e+00  2.5000000000000001e-02
4.7380164474999992e-01  0.0000000000000000e+00  2.5000000000000001e-02
4.8108755635000006e-01  0.0000000000000000e+00  2.5000000000000005e-02
4.8844712664999984e-01  0.0000000000000000e+00  2.4999999999999998e-02
4.9588110034999994e-01  0.0000000000000000e+00  2.5000000000000001e-02
5.0339022965000002e-01  0.0000000000000000e+00  2.5000000000000001e-02
5.1097527440000001e-01  0.0000000000000000e+00  2.4999999999999998e-02
5.1863700204999996e-01  0.0000000000000000e+00  2.4999999999999998e-02
5.2637618780000006e-01  0.0000000000000000e+00  2.5000000000000005e-02
5.3419361479999994e-01  0.0000000000000000e+00  2.5000000000000001e-02
5.4209007400000009e-01  0.0000000000000000e+00  2.5000000000000001e-02
5.5006636439999990e-01  0.0000000000000000e+00  2.5000000000000005e-02
5.5812329314999998e-01  0.0000000000000000e+00  2.5000000000000005e-02
5.6626167539999994e-01  0.0000000000000000e+00  2.4999999999999998e-02
5.7448233464999998e-01  0.0000000000000000e+00  2.5000000000000005e-02
5.8278610269999997e-01  0.0000000000000000e+00  2.5000000000000001e-02
5.9117381974999994e-01  0.0000000000000000e+00  2.5000000000000001e-02
5.9964633454999994e-01  0.0000000000000000e+00  2.5000000000000001e-02
6.0820450430000006e-01  0.0000000000000000e+00  2.5000000000000005e-02
6.1684919499999991e-01  0.0000000000000000e+00  2.5000000000000005e-02
6.2558128135000002e-01  0.0000000000000000e+00  2.5000000000000001e-02
6.3440164689999989e-01  0.0000000000000000e+00  2.4999999999999998e-02
6.4331118415000010e-01  0.0000000000000000e+00  2.5000000000000005e-02
6.5231079455000007e-01  0.0000000000000000e+00  2.5000000000000005e-02
6.6140138875000010e-01  0.0000000000000000e+00  2.5000000000000001e-02
6.7058388660000001e-01  0.0000000000000000e+00  2.5000000000000005e-02
6.7985921719999987e-01  0.0000000000000000e+00  2.5000000000000001e-02
6.8922831899999992e-01  0.0000000000000000e+00  2.5000000000000001e-02
6.9869214009999991e-01  0.0000000000000000e+00  2.5000000000000001e-02
7.0825163804999991e-01  0.0000000000000000e+00  2.4999999999999998e-02
7.1790778009999989e-01  0.0000000000000000e+00  2.5000000000000005e-02
7.2766154335000000e-01  0.0000000000000000e+00  2.5000000000000005e-02
7.3751391470000005e-01  0.0000000000000000e+00  2.5000000000000001e-02
7.4746589105000005e-01  0.0000000000000000e+00  2.5000000000000005e-02
7.5751847934999994e-01  0.0000000000000000e+00  2.4999999999999998e-02
7.6767269680000005e-01  0.0000000000000000e+00  2.5000000000000005e-02
7.7792957085000014e-01  0.0000000000000000e+00  2.5000000000000005e-02
7.8829013930000025e-01  0.0000000000000000e+00  2.5000000000000008e-02
7.9875545049999996e-01  0.0000000000000000e+00  2.5000000000000001e-02
8.0932656339999998e-01  0.0000000000000000e+00  2.5000000000000005e-02
8.2000454754999996e-01  0.0000000000000000e+00  2.5000000000000001e-02
8.3079048344999984e-01  0.0000000000000000e+00  2.5000000000000001e-02
8.4168546244999998e-01  0.0000000000000000e+00  2.4999999999999998e-02
8.5269058695000000e-01  0.0000000000000000e+00  2.5000000000000001e-02
8.6380697049999988e-01  0.0000000000000000e+00  2.5000000000000001e-02
8.7503573784999988e-01  0.0000000000000000e+00  2.5000000000000001e-02
8.8637802524999998e-01  0.0000000000000000e+00  2.4999999999999998e-02
8.9783498034999998e-01  0.0000000000000000e+00  2.5000000000000001e-02
9.0940776234999998e-01  0.0000000000000000e+00  2.5000000000000001e-02
9.2109754224999985e-01  0.0000000000000000e+00  2.5000000000000005e-02
9.3290550294999997e-01  0.0000000000000000e+00  2.5000000000000001e-02
9.4483283914999994e-01  0.0000000000000000e+00  2.5000000000000001e-02
9.5688075770000003e-01  0.0000000000000000e+00  2.4999999999999998e-02
9.6905047765000007e-01  0.0000000000000000e+00  2.5000000000000001e-02
9.8134323039999993e-01  0.0000000000000000e+00  2.5000000000000001e-02
9.9376025984999994e-01  0.0000000000000000e+00  2.4999999999999998e-02

CELLS 0 0


CELL_TYPES 0


POINT_DATA 161

VECTORS VertexNormals float

0.0000000000000000e+00 0.0000000000000000e+00 0.0000000000000000e+00 
0.0000000000000000e+00 0.0000000000000000e+00 0.0000000000000000e+00 
0.0000000000000000e+00 0.0000000000000000e+00 0.0000000000000000e+00 
0.0000000000000000e+00 0.0000000000000000e+00 0.0000000000000000e+00 
0.0000000000000000e+00 0.0000000000000000e+00 0.0000000000000000e+00 
0.0000000000000000e+00 0.0000000000000000e+00 0.0000000000000000e+00 
0.0000000000000000e+00 0.0000000000000000e+00 0.0000000000000000e+00 
0.0000000000000000e+00 0.0000000000000000e+00 0.0000000000000000e+00 
0.0000000000000000e+00 0.0000000000000000e+00 0.0000000000000000e+00 
0.0000000000000000e+00 0.0000000000000000e+00 0.0000000000000000e+00 
0.0000000000000000e+00 0.0000000000000000e+00 0.0000000000000000e+00 
0.0000000000000000e+00 0.0000000000000000e+00 0.0000000000000000e+00 
0.0000000000000000e+00 0.0000000000000000e+00 0.0000000000000000e+00 
0.0000000000000000e+00 0.0000000000000000e+00 0.0000000000000000e+00 
0.0000000000000000e+00 0.0000000000000000e+00 0.0000000000000000e+00 
0.0000000000000000e+00 0.0000000000000000e+00 0.0000000000000000e+00 
0.0000000000000000e+00 0.0000000000000000e+00 0.0000000000000000e+00 
0.0000000000000000e+00 0.0000000000000000e+00 0.0000000000000000e+00 
0.0000000000000000e+00 0.0000000000000000e+00 0.0000000000000000e+00 
0.0000000000000000e+00 0.0000000000000000e+00 0.0000000000000000e+00 
0.0000000000000000e+00 0.0000000000000000e+00 0.0000000000000000e+00 
0.0000000000000000e+00 0.0000000000000000e+00 0.0000000000000000e+00 
0.0000000000000000e+00 0.0000000000000000e+00 0.0000000000000000e+00 
0.0000000000000000e+00 0.0000000000000000e+00 0.0000000000000000e+00 
0.0000000000000000e+00 0.0000000000000000e+00 0.0000000000000000e+00 
0.0000000000000000e+00 0.0000000000000000e+00 0.0000000000000000e+00 
0.0000000000000000e+00 0.0000000000000000e+00 0.0000000000000000e+00 
0.0000000000000000e+00 0.0000000000000000e+00 0.0000000000000000e+00 
0.0000000000000000e+00 0.0000000000000000e+00 0.0000000000000000e+00 
0.0000000000000000e+00 0.0000000000000000e+00 0.0000000000000000e+00 
0.0000000000000000e+00 0.0000000000000000e+00 0.0000000000000000e+00 
0.0000000000000000e+00 0.0000000000000000e+00 0.0000000000000000e+00 
0.0000000000000000e+00 0.0000000000000000e+00 0.0000000000000000e+00 
0.0000000000000000e+00 0.0000000000000000e+00 0.0000000000000000e+00 
0.0000000000000000e+00 0.0000000000000000e+00 0.0000000000000000e+00 
0.0000000000000000e+00 0.0000000000000000e+00 0.0000000000000000e+00 
0.0000000000000000e+00 0.0000000000000000e+00 0.0000000000000000e+00 
0.0000000000000000e+00 0.0000000000000000e+00 0.0000000000000000e+00 
0.0000000000000000e+00 0.0000000000000000e+00 0.0000000000000000e+00 
0.0000000000000000e+00 0.0000000000000000e+00 0.0000000000000000e+00 
0.0000000000000000e+00 0.0000000000000000e+00 0.0000000000000000e+00 
0.0000000000000000e+00 0.0000000000000000e+00 0.0000000000000000e+00 
0.0000000000000000e+00 0.0000000000000000e+00 0.0000000000000000e+00 
0.0000000000000000e+00 0.0000000000000000e+00 0.0000000000000000e+00 
0.0000000000000000e+00 0.0000000000000000e+00 0.0000000000000000e+00 
0.0000000000000000e+00 0.0000000000000000e+00 0.0000000000000000e+00 
0.0000000000000000e+00 0.0000000000000000e+00 0.0000000000000000e+00 
0.0000000000000000e+00 0.0000000000000000e+00 0.0000000000000000e+00 
0.0000000000000000e+00 0.0000000000000000e+00 0.0000000000000000e+00 
0.0000000000000000e+00 0.0000000000000000e+00 0.0000000000000000e+00 
0.0000000000000000e+00 0.0000000000000000e+00 0.0000000000000000e+00 
0.0000000000000000e+00 0.0000000000000000e+00 0.0000000000000000e+00 
0.0000000000000000e+00 0.0000000000000000e+00 0.0000000000000000e+00 
0.0000000000000000e+00 0.0000000000000000e+00 0.0000000000000000e+00 
0.0000000000000000e+00 0.0000000000000000e+00 0.0000000000000000e+00 
0.0000000000000000e+00 0.0000000000000000e+00 0.0000000000000000e+00 
0.0000000000000000e+00 0.0000000000000000e+00 0.0000000000000000e+00 
0.0000000000000000e+00 0.0000000000000000e+00 0.0000000000000000e+00 
0.0000000000000000e+00 0.0000000000000000e+00 0.0000000000000000e+00 
0.0000000000000000e+00 0.0000000000000000e+00 0.0000000000000000e+00 
0.0000000000000000e+00 0.0000000000000000e+00 0.0000000000000000e+00 
0.0000000000000000e+00 0.0000000000000000e+00 0.0000000000000000e+00 
0.0000000000000000e+00 0.0000000000000000e+00 0.0000000000000000e+00 
0.0000000000000000e+00 0.0000000000000000e+00 0.0000000000000000e+00 
0.0000000000000000e+00 0.0000000000000000e+00 0.0000000000000000e+00 
0.0000000000000000e+00 0.0000000000000000e+00 0.0000000000000000e+00 
0.0000000000000000e+00 0.0000000000000000e+00 0.0000000000000000e+00 
0.0000000000000000e+00 0.0000000000000000e+00 0.0000000000000000e+00 
0.0000000000000000e+00 0.0000000000000000e+00 0.0000000000000000e+00 
0.0000000000000000e+00 0.0000000000000000e+00 0.0000000000000000e+00 
0.0000000000000000e+00 0.0000000000000000e+00 0.0000000000000000e+00 
0.0000000000000000e+00 0.0000000000000000e+00 0.0000000000000000e+00 
0.0000000000000000e+00 0.0000000000000000e+00 0.0000000000000000e+00 
0.0000000000000000e+00 0.0000000000000000e+00 0.0000000000000000e+00 
0.0000000000000000e+00 0.0000000000000000e+00 0.0000000000000000e+00 
0.0000000000000000e+00 0.0000000000000000e+00 0.0000000000000000e+00 
0.0000000000000000e+00 0.0000000000000000e+00 0.0000000000000000e+00 
0.0000000000000000e+00 0.0000000000000000e+00 0.0000000000000000e+00 
0.0000000000000000e+00 0.0000000000000000e+00 0.0000000000000000e+00 
0.0000000000000000e+00 0.0000000000000000e+00 0.0000000000000000e+00 
0.0000000000000000e+00 0.0000000000000000e+00 0.0000000000000000e+00 
0.0000000000000000e+00 0.0000000000000000e+00 0.0000000000000000e+00 
0.0000000000000000e+00 0.0000000000000000e+00 0.0000000000000000e+00 
0.0000000000000000e+00 0.0000000000000000e+00 0.0000000000000000e+00 
0.0000000000000000e+00 0.0000000000000000e+00 0.0000000000000000e+00 
0.0000000000000000e+00 0.0000000000000000e+00 0.0000000000000000e+00 
0.0000000000000000e+00 0.0000000000000000e+00 0.0000000000000000e+00 
0.0000000000000000e+00 0.0000000000000000e+00 0.0000000000000000e+00 
0.0000000000000000e+00 0.0000000000000000e+00 0.0000000000000000e+00 
0.0000000000000000e+00 0.0000000000000000e+00 0.0000000000000000e+00 
0.0000000000000000e+00 0.0000000000000000e+00 0.0000000000000000e+00 
0.0000000000000000e+00 0.0000000000000000e+00 0.0000000000000000e+00 
0.0000000000000000e+00 0.0000000000000000e+00 0.0000000000000000e+00 
0.0000000000000000e+00 0.0000000000000000e+00 0.0000000000000000e+00 
0.0000000000000000e+00 0.0000000000000000e+00 0.0000000000000000e+00 
0.0000000000000000e+00 0.0000000000000000e+00 0.0000000000000000e+00 
0.0000000000000000e+00 0.0000000000000000e+00 0.0000000000000000e+00 
0.0000000000000000e+00 0.0000000000000000e+00 0.0000000000000000e+00 
0.0000000000000000e+00 0.0000000000000000e+00 0.0000000000000000e+00 
0.0000000000000000e+00 0.0000000000000000e+00 0.0000000000000000e+00 
0.0000000000000000e+00 0.0000000000000000e+00 0.0000000000000000e+00 
0.0000000000000000e+00 0.0000000000000000e+00 0.0000000000000000e+00 
0.0000000000000000e+00 0.0000000000000000e+00 0.0000000000000000e+00 
0.0000000000000000e+00 0.0000000000000000e+00 0.0000000000000000e+00 
0.0000000000000000e+00 0.0000000000000000e+00 0.0000000000000000e+00 
0.0000000000000000e+00 0.0000000000000000e+00 0.0000000000000000e+00 
0.0000000000000000e+00 0.0000000000000000e+00 0.0000000000000000e+00 
0.0000000000000000e+00 0.0000000000000000e+00 0.0000000000000000e+00 
0.0000000000000000e+00 0.0000000000000000e+00 0.0000000000000000e+00 
0.0000000000000000e+00 0.0000000000000000e+00 0.0000000000000000e+00 
0.0000000000000000e+00 0.0000000000000000e+00 0.0000000000000000e+00 
0.0000000000000000e+00 0.0000000000000000e+00 0.0000000000000000e+00 
0.0000000000000000e+00 0.0000000000000000e+00 0.0000000000000000e+00 
0.0000000000000000e+00 0.0000000000000000e+00 0.0000000000000000e+00 
0.0000000000000000e+00 0.0000000000000000e+00 0.0000000000000000e+00 
0.0000000000000000e+00 0.0000000000000000e+00 0.0000000000000000e+00 
0.0000000000000000e+00 0.0000000000000000e+00 0.0000000000000000e+00 
0.0000000000000000e+00 0.0000000000000000e+00 0.0000000000000000e+00 
0.0000000000000000e+00 0.0000000000000000e+00 0.0000000000000000e+00 
0.0000000000000000e+00 0.0000000000000000e+00 0.0000000000000000e+00 
0.0000000000000000e+00 0.0000000000000000e+00 0.0000000000000000e+00 
0.0000000000000000e+00 0.0000000000000000e+00 0.0000000000000000e+00 
0.0000000000000000e+00 0.0000000000000000e+00 0.0000000000000000e+00 
0.0000000000000000e+00 0.0000000000000000e+00 0.0000000000000000e+00 
0.0000000000000000e+00 0.0000000000000000e+00 0.0000000000000000e+00 
0.0000000000000000e+00 0.0000000000000000e+00 0.0000000000000000e+00 
0.0000000000000000e+00 0.0000000000000000e+00 0.0000000000000000e+00 
0.0000000000000000e+00 0.0000000000000000e+00 0.0000000000000000e+00 
0.0000000000000000e+00 0.0000000000000000e+00 0.0000000000000000e+00 
0.0000000000000000e+00 0.0000000000000000e+00 0.0000000000000000e+00 
0.0000000000000000e+00 0.0000000000000000e+00 0.0000000000000000e+00 
0.0000000000000000e+00 0.0000000000000000e+00 0.0000000000000000e+00 
0.0000000000000000e+00 0.0000000000000000e+00 0.0000000000000000e+00 
0.0000000000000000e+00 0.0000000000000000e+00 0.0000000000000000e+00 
0.0000000000000000e+00 0.0000000000000000e+00 0.0000000000000000e+00 
0.0000000000000000e+00 0.0000000000000000e+00 0.0000000000000000e+00 
0.0000000000000000e+00 0.0000000000000000e+00 0.0000000000000000e+00 
0.0000000000000000e+00 0.0000000000000000e+00 0.0000000000000000e+00 
0.0000000000000000e+00 0.0000000000000000e+00 0.0000000000000000e+00 
0.0000000000000000e+00 0.0000000000000000e+00 0.0000000000000000e+00 
0.0000000000000000e+00 0.0000000000000000e+00 0.0000000000000000e+00 
0.0000000000000000e+00 0.0000000000000000e+00 0.0000000000000000e+00 
0.0000000000000000e+00 0.0000000000000000e+00 0.0000000000000000e+00 
0.0000000000000000e+00 0.0000000000000000e+00 0.0000000000000000e+00 
0.0000000000000000e+00 0.0000000000000000e+00 0.0000000000000000e+00 
0.0000000000000000e+00 0.0000000000000000e+00 0.0000000000000000e+00 
0.0000000000000000e+00 0.0000000000000000e+00 0.0000000000000000e+00 
0.0000000000000000e+00 0.0000000000000000e+00 0.0000000000000000e+00 
0.0000000000000000e+00 0.0000000000000000e+00 0.0000000000000000e+00 
0.0000000000000000e+00 0.0000000000000000e+00 0.0000000000000000e+00 
0.0000000000000000e+00 0.0000000000000000e+00 0.0000000000000000e+00 
0.0000000000000000e+00 0.0000000000000000e+00 0.0000000000000000e+00 
0.0000000000000000e+00 0.0000000000000000e+00 0.0000000000000000e+00 
0.0000000000000000e+00 0.0000000000000000e+00 0.0000000000000000e+00 
0.0000000000000000e+00 0.0000000000000000e+00 0.0000000000000000e+00 
0.0000000000000000e+00 0.0000000000000000e+00 0.0000000000000000e+00 
0.0000000000000000e+00 0.0000000000000000e+00 0.0000000000000000e+00 
0.0000000000000000e+00 0.0000000000000000e+00 0.0000000000000000e+00 
0.0000000000000000e+00 0.0000000000000000e+00 0.0000000000000000e+00 
0.0000000000000000e+00 0.0000000000000000e+00 0.0000000000000000e+00 
0.0000000000000000e+00 0.0000000000000000e+00 0.0000000000000000e+00 

SCALARS Sink-Temperature-0 float
LOOKUP_TABLE default
3.8392252344944984e+02
3.9188011959560612e+02
3.9856509739522869e+02
4.0438578736337627e+02
4.0954413268889772e+02
4.1415027072880741e+02
4.1826703808939396e+02
4.2192931058173480e+02
4.2515320386021745e+02
4.2794066230680630e+02
4.3028163063461835e+02
4.3215469808048880e+02
4.3352650052028025e+02
4.3434976993713269e+02
4.3455947311731853e+02
4.3406567590864603e+02
4.3273989880070047e+02
4.3038661001521461e+02
4.2667521592825318e+02
4.2094752813092333e+02
4.1155608008430363e+02
4.0518591480852854e+02
4.0029689419122229e+02
3.9628821326075882e+02
3.9287149428180908e+02
3.8988481084865316e+02
3.8722672092554387e+02
3.8482864577266031e+02
3.8264161332175433e+02
3.8062918704409174e+02
3.7876337708978400e+02
3.7702212241363492e+02
3.7538765655675411e+02
3.7384546098764508e+02
3.7238358564305884e+02
3.7099179963702221e+02
3.6966143352773304e+02
3.6838523498239698e+02
3.6715677556378296e+02
3.6597048856925261e+02
3.6482155499671359e+02
3.6370568868264877e+02
3.6261913881339251e+02
3.6155857459662650e+02
3.6052104000043994e+02
3.5950391516227069e+02
3.5850486715791709e+02
3.5752182283582857e+02
3.5655293505789962e+02
3.5559655931877086e+02
3.5465123341883560e+02
3.5371566081701900e+02
3.5278869791225861e+02
3.5186934424738757e+02
3.5095673412986969e+02
3.5005012977004037e+02
3.4914891401499870e+02
3.4825258283568013e+02
3.4736073658479893e+02
3.4647307072341852e+02
3.4558936596013274e+02
3.4470947840990789e+02
3.4383333025031567e+02
3.4296090143379422e+02
3.4209222258986750e+02
3.4122736952258884e+02
3.4036645918234086e+02
3.3950964703105456e+02
3.3865712556228095e+02
3.3780912365361951e+02
3.3696590637080567e+02
3.3612777500312495e+02
3.3529506714066105e+02
3.3446815653749815e+02
3.3364745250895612e+02
3.3283339872781204e+02
3.3202647138542727e+02
3.3122717663505614e+02
3.3043604735101422e+02
3.2965363930302834e+02
3.2888052673215009e+02
3.2811729746358577e+02
3.2736454771565315e+02
3.2662287662711009e+02
3.2589288067869848e+02
3.2517514811049034e+02
3.2447025344404193e+02
3.2377875219092300e+02
3.2310117584557673e+02
3.2243802723919794e+02
3.2178977627345603e+02
3.2115685614784093e+02
3.2053966006966493e+02
3.1993853847726012e+02
3.1935379680334040e+02
3.1878569375126938e+02
3.1823444006217130e+02
3.1770019778945306e+02
3.1718308002617039e+02
3.1668315108137193e+02
3.1620042705961055e+02
3.1573487677809908e+02
3.1528642302873698e+02
3.1485494411175284e+02
3.1444027563351466e+02
3.1404221251199988e+02
3.1366051114379684e+02
3.1329489173911071e+02
3.1294504075408412e+02
3.1261061341160399e+02
3.1229123629275983e+02
3.1198650995351164e+02
3.1169601157682422e+02
3.1141929760644672e+02
3.1115590636584875e+02
3.1090536065805207e+02
3.1066717030085493e+02
3.1044083460816705e+02
3.1022584480646583e+02
3.1002168635663998e+02
3.0982784119872201e+02
3.0964378989489438e+02
3.0946901366833828e+02
3.0930299633658768e+02
3.0914522612059716e+02
3.0899519734292937e+02
3.0885241199606821e+02
3.0871638118518683e+02
3.0858662644125377e+02
3.0846268089847740e+02
3.0834409034244868e+02
3.0823041412308123e+02
3.0812122593378120e+02
3.0801611445659432e+02
3.0791468388323500e+02
3.0781655430466509e+02
3.0772136198005887e+02
3.0762875949145621e+02
3.0753841578606529e+02
3.0745001611838205e+02
3.0736326189803026e+02
3.0727787045681225e+02
3.0719357474325864e+02
3.0711012295848803e+02
3.0702727814795924e+02
3.0694481775839165e+02
3.0686253318953203e+02
3.0678022934719905e+02
3.0669772413645541e+02
3.0661484814151737e+02
3.0653144442624892e+02
3.0644736779364507e+02
3.0636248661853443e+02
3.0627668480128392e+02
3.0618985182018690e+02
3.0610190184969770e+02
3.0601280326068428e+02
3.0592247175302640e+02
3.0583097568114698e+02
3.0573879472045434e+02
3.0564630872175633e+02

SCALARS Heat-Flux float
LOOKUP_TABLE default
2.9999940000119968e+05
2.9999940000119968e+05
2.9999940000119968e+05
2.9999940000119968e+05
2.9999940000119968e+05
2.9999940000119968e+05
2.9999940000119968e+05
2.9999940000119968e+05
2.9999940000119968e+05
2.9999940000119968e+05
2.9999940000119968e+05
2.9999940000119968e+05
2.9999940000119968e+05
2.9999940000119968e+05
2.9999940000119968e+05
2.9999940000119968e+05
2.9999940000119968e+05
2.9999940000119968e+05
2.9999940000119968e+05
2.9999940000119968e+05
1.4210854715202004e-11
1.4210854715202004e-11
1.4210854715202004e-11
1.4210854715202004e-11
1.4210854715202004e-11
1.4210854715202004e-11
1.4210854715202004e-11
1.4210854715202004e-11
1.4210854715202004e-11
1.4210854715202004e-11
1.4210854715202004e-11
1.4210854715202004e-11
1.4210854715202004e-11
1.4210854715202004e-11
1.4210854715202004e-11
1.4210854715202004e-11
1.4210854715202004e-11
1.4210854715202004e-11
1.4210854715202004e-11
1.4210854715202004e-11
-1.9042545318370685e-10
-1.9042545318370685e-10
-1.9042545318370685e-10
-1.9042545318370685e-10
-1.9042545318370685e-10
-1.9042545318370685e-10
-1.9042545318370685e-10
-1.9042545318370685e-10
-1.9042545318370685e-10
-1.9042545318370685e-10
-1.9042545318370685e-10
-1.9042545318370685e-10
-1.9042545318370685e-10
-1.9042545318370685e-10
-1.9042545318370685e-10
-1.9042545318370685e-10
-5.9685589803848416e-11
-5.9685589803848416e-11
-5.9685589803848416e-11
-5.9685589803848416e-11
-5.9685589803848416e-11
-5.9685589803848416e-11
-5.9685589803848416e-11
-5.9685589803848416e-11
-5.9685589803848416e-11
-5.9685589803848416e-11
-5.9685589803848416e-11
-5.9685589803848416e-11
-5.9685589803848416e-11
-5.9685589803848416e-11
-5.9685589803848416e-11
5.6843418860808015e-12
5.6843418860808015e-12
5.6843418860808015e-12
5.6843418860808015e-12
5.6843418860808015e-12
5.6843418860808015e-12
5.6843418860808015e-12
5.6843418860808015e-12
5.6843418860808015e-12
5.6843418860808015e-12
5.6843418860808015e-12
5.6843418860808015e-12
8.5265128291212022e-12
8.5265128291212022e-12
8.5265128291212022e-12
8.5265128291212022e-12
8.5265128291212022e-12
8.5265128291212022e-12
8.5265128291212022e-12
8.5265128291212022e-12
8.5265128291212022e-12
8.5265128291212022e-12
8.5265128291212022e-12
-2.8421709430404007e-11
-2.8421709430404007e-11
-2.8421709430404007e-11
-2.8421709430404007e-11
-2.8421709430404007e-11
-2.8421709430404007e-11
-2.8421709430404007e-11
-2.8421709430404007e-11
-2.8421709430404007e-11
-2.8421709430404007e-11
1.1368683772161603e-10
1.1368683772161603e-10
1.1368683772161603e-10
1.1368683772161603e-10
1.1368683772161603e-10
1.1368683772161603e-10
1.1368683772161603e-10
1.1368683772161603e-10
1.1368683772161603e-10
4.2632564145606011e-11
4.2632564145606011e-11
4.2632564145606011e-11
4.2632564145606011e-11
4.2632564145606011e-11
4.2632564145606011e-11
4.2632564145606011e-11
4.2632564145606011e-11
-7.1054273576010019e-12
-7.1054273576010019e-12
-7.1054273576010019e-12
-7.1054273576010019e-12
-7.1054273576010019e-12
-7.1054273576010019e-12
-7.1054273576010019e-12
-7.1054273576010019e-12
7.3896444519050419e-11
7.3896444519050419e-11
7.3896444519050419e-11
7.3896444519050419e-11
7.3896444519050419e-11
7.3896444519050419e-11
7.3896444519050419e-11
5.6843418860808015e-12
5.6843418860808015e-12
5.6843418860808015e-12
5.6843418860808015e-12
5.6843418860808015e-12
5.6843418860808015e-12
5.6843418860808015e-12