/*--------------------------------*- C++ -*----------------------------------*\
  =========                 |
  \\      /  F ield         | OpenFOAM: The Open Source CFD Toolbox
   \\    /   O peration     | Website:  https://openfoam.org
    \\  /    A nd           | Version:  7
     \\/     M anipulation  |
\*---------------------------------------------------------------------------*/
FoamFile
{
    version     2.0;
    format      ascii;
    class       volScalarField;
    location    "1";
    object      p;
}
// * * * * * * * * * * * * * * * * * * * * * * * * * * * * * * * * * * * * * //

dimensions      [0 2 -2 0 0 0 0];

internalField   nonuniform List<scalar> 
2790
(
204.436
204.353
204.641
205.244
206.064
207.068
208.251
209.612
211.144
212.841
214.693
216.693
218.829
221.087
223.45
225.897
228.397
230.918
233.416
235.841
238.137
240.242
242.093
243.632
244.814
245.622
246.006
246.047
246.115
246.323
204.231
204.258
204.571
205.171
205.987
206.988
208.167
209.522
211.047
212.736
214.579
216.569
218.695
220.943
223.297
225.734
228.228
230.744
233.241
235.672
237.979
240.101
241.976
243.542
244.747
245.553
245.904
245.961
246.092
246.357
204.026
204.123
204.456
205.045
205.848
206.836
208
209.338
210.842
212.506
214.323
216.282
218.374
220.586
222.9
225.297
227.749
230.226
232.689
235.092
237.384
239.507
241.402
243.011
244.284
245.192
245.737
246.065
246.358
246.638
203.793
203.921
204.266
204.847
205.635
206.607
207.751
209.065
210.541
212.173
213.952
215.869
217.913
220.072
222.329
224.664
227.054
229.467
231.871
234.223
236.478
238.586
240.496
242.159
243.538
244.621
245.432
246.057
246.575
247.062
203.521
203.663
204.016
204.59
205.362
206.312
207.431
208.714
210.154
211.743
213.474
215.337
217.321
219.413
221.597
223.855
226.163
228.495
230.82
233.102
235.304
237.383
239.301
241.021
242.519
243.791
244.858
245.763
246.526
247.223
203.206
203.353
203.709
204.273
205.025
205.95
207.038
208.283
209.679
211.218
212.892
214.69
216.602
218.615
220.714
222.879
225.091
227.324
229.553
231.748
233.877
235.909
237.817
239.576
241.172
242.605
243.884
245.024
245.987
246.845
202.847
202.995
203.348
203.898
204.628
205.522
206.574
207.776
209.122
210.603
212.21
213.935
215.764
217.686
219.686
221.746
223.846
225.966
228.081
230.168
232.203
234.162
236.028
237.788
239.437
240.974
242.402
243.712
244.814
245.795
202.442
202.589
202.934
203.468
204.172
205.033
206.043
207.197
208.485
209.9
211.434
213.075
214.812
216.632
218.521
220.462
222.437
224.426
226.408
228.365
230.277
232.13
233.913
235.621
237.257
238.825
240.32
241.725
242.911
243.991
201.994
202.136
202.471
202.986
203.66
204.484
205.448
206.547
207.773
209.116
210.567
212.117
213.752
215.46
217.227
219.035
220.869
222.709
224.538
226.338
228.095
229.799
231.445
233.035
234.576
236.079
237.544
238.957
240.168
241.329
201.502
201.639
201.961
202.453
203.096
203.878
204.793
205.833
206.99
208.254
209.617
211.066
212.591
214.177
215.81
217.473
219.15
220.823
222.475
224.089
225.654
227.159
228.604
229.992
231.337
232.657
233.964
235.266
236.418
237.64
200.969
201.1
201.406
201.873
202.481
203.219
204.08
205.057
206.14
207.321
208.588
209.931
211.337
212.791
214.28
215.785
217.29
218.777
220.227
221.625
222.955
224.207
225.376
226.466
227.49
228.471
229.44
230.45
231.395
232.629
200.396
200.52
200.809
201.248
201.819
202.511
203.315
204.224
205.229
206.321
207.488
208.717
209.997
211.312
212.647
213.982
215.301
216.584
217.809
218.958
220.011
220.952
221.767
222.448
223
223.44
223.809
224.219
224.658
225.764
199.786
199.901
200.172
200.583
201.114
201.756
202.5
203.339
204.263
205.261
206.322
207.434
208.582
209.75
210.922
212.078
213.198
214.26
215.239
216.11
216.847
217.421
217.801
217.96
217.869
217.514
216.91
216.191
215.477
215.999
199.141
199.248
199.498
199.878
200.369
200.959
201.641
202.406
203.246
204.147
205.099
206.088
207.099
208.116
209.118
210.087
210.998
211.825
212.541
213.111
213.499
213.659
213.537
213.067
212.166
210.735
208.665
205.951
202.653
200.977
198.463
198.561
198.791
199.139
199.587
200.123
200.741
201.431
202.184
202.986
203.826
204.689
205.56
206.42
207.248
208.023
208.718
209.303
209.743
209.997
210.015
209.732
209.064
207.897
206.064
203.322
199.279
193.38
184.52
174.135
81.7717
81.3481
80.6834
79.5708
77.9964
75.9045
73.2612
70.0544
66.2933
62.0073
57.2453
52.0746
46.5804
40.8644
35.0438
29.2489
23.6207
18.3067
13.4571
9.22272
5.74882
3.14886
1.4601
0.691003
0.780849
1.6572
3.35676
5.75437
7.40034
4.42167
82.2252
81.7816
81.0156
79.8453
78.2164
76.0716
73.3763
70.1183
66.307
61.9722
57.1632
51.9477
46.4112
40.6555
34.798
28.9692
23.3101
17.968
13.092
8.82809
5.31067
2.6478
0.907977
0.0841964
0.107299
0.897135
2.49153
4.83713
6.59501
3.70367
82.9597
82.373
81.4682
80.1522
78.3801
76.103
73.2891
69.9267
66.0247
61.6115
56.7349
51.4609
45.8732
40.0725
34.1749
28.3102
22.619
17.2489
12.3488
8.06173
4.51718
1.82534
0.0384412
-0.820853
-0.832829
-0.0893127
1.43518
3.72103
5.52539
2.97937
83.6903
82.9461
81.8719
80.3649
78.403
75.9482
72.9742
69.4706
65.4451
60.9244
55.9536
50.5966
44.935
39.0677
33.1094
27.1891
21.4472
16.0315
11.0914
6.7691
3.18912
0.451447
-1.36067
-2.24067
-2.26036
-1.51485
0.000127983
2.24666
4.09109
2.23161
84.0991
83.2338
82.0202
80.3374
78.1914
75.5566
72.415
68.76
64.6001
59.9608
54.8857
49.4363
43.6925
37.7512
31.7259
25.7447
19.9473
14.4819
9.49832
5.13929
1.52835
-1.23526
-3.07538
-3.96637
-3.97091
-3.18516
-1.63392
0.599843
2.52238
1.49725
84.0285
83.0974
81.7989
79.9859
77.6914
74.9009
71.606
67.8055
63.5105
58.7472
53.5585
48.0048
42.1646
36.134
30.0256
23.9673
18.0994
12.5709
7.5341
3.13455
-0.501036
-3.27328
-5.11374
-5.98905
-5.94157
-5.06785
-3.4266
-1.15128
0.922104
0.790964
83.4878
82.5422
81.2095
79.3156
76.9164
74.0043
70.58
66.6485
62.2249
57.3378
52.0311
46.3658
40.4201
34.29
28.0882
21.943
15.9955
10.3962
5.29979
0.856782
-2.79972
-5.5684
-7.39044
-8.22691
-8.09592
-7.09431
-5.315
-2.93807
-0.646037
0.120865
82.5956
81.6722
80.3399
78.4039
75.9374
72.9344
69.4033
65.3552
60.8101
55.8003
50.3722
44.5883
38.5279
32.2878
25.9815
19.7381
13.7001
8.02032
2.85676
-1.63389
-5.30917
-8.06299
-9.84503
-10.6167
-10.3724
-9.20769
-7.24582
-4.70765
-2.14317
-0.507406
81.5242
80.6444
79.3305
77.3755
74.8646
71.7898
68.1657
64.0092
59.3456
54.2116
48.6572
42.7472
36.5632
30.2033
23.7821
17.4303
11.2924
5.52343
0.285432
-4.25803
-7.95377
-10.6872
-12.4095
-13.09
-12.709
-11.3533
-9.17127
-6.41893
-3.54345
-1.08921
80.4679
79.6396
78.3469
76.3793
73.8299
70.6865
66.9705
62.7038
57.9177
52.6537
46.9655
40.9213
34.6047
28.1159
21.5709
15.1019
8.85531
2.98908
-2.33098
-6.93464
-10.6579
-13.3721
-15.0133
-15.5749
-15.0439
-13.4784
-11.0483
-8.03912
-4.82757
-1.62034
79.6218
78.8417
77.5608
75.5708
72.9705
69.7445
65.9226
61.5328
56.6124
51.2076
45.3756
39.1879
32.7304
26.1051
19.4294
12.8363
6.47425
0.503747
-4.90571
-9.57796
-13.3369
-16.0315
-17.5792
-18.0081
-17.3164
-15.5311
-12.8369
-9.54109
-5.97981
-2.09708
79.1618
78.4199
77.1339
75.0959
72.4134
69.0727
65.1166
60.5801
55.5066
49.9463
43.959
37.6187
31.0135
24.2467
17.4362
10.7151
4.23353
-1.84575
-7.34985
-12.0972
-15.8991
-18.5785
-20.037
-20.3267
-19.464
-17.4586
-14.4989
-10.9018
-6.98705
-2.51564
79.2221
78.5157
77.2051
75.0771
72.2604
68.7554
64.6242
59.9094
54.66
48.9286
42.7745
36.2746
29.5176
22.6077
15.6626
8.81337
2.21203
-3.97703
-9.57781
-14.4039
-18.2562
-20.9334
-22.3184
-22.4644
-21.4208
-19.2071
-15.9965
-12.101
-7.8378
-2.87102
79.8729
79.2238
77.8774
75.5971
72.5644
68.8299
64.4764
59.5531
54.1103
48.1936
41.8638
35.201
28.2924
21.2434
14.1695
7.19564
0.478464
-5.81741
-11.5133
-16.4178
-20.3276
-23.0213
-24.3602
-24.3559
-23.119
-20.7246
-17.2915
-13.1182
-8.52049
-3.15563
81.1005
80.594
79.2518
76.701
73.3325
69.2909
64.6651
59.5013
53.8451
47.7385
41.2407
34.4268
27.3826
20.2068
13.0052
5.91251
-0.912782
-7.30962
-13.096
-18.0754
-22.051
-24.7782
-26.0889
-25.9425
-24.5207
-21.973
-18.35
-13.9346
-9.02603
-3.35975
197.741
197.83
198.039
198.353
198.756
199.237
199.788
200.4
201.062
201.762
202.486
203.219
203.945
204.643
205.292
205.867
206.339
206.673
206.828
206.756
206.391
205.652
204.423
202.541
199.75
195.635
189.418
179.495
160.78
110.302
196.968
197.047
197.232
197.511
197.868
198.291
198.772
199.302
199.87
200.463
201.067
201.666
202.241
202.773
203.237
203.607
203.849
203.927
203.793
203.391
202.647
201.461
199.7
197.166
193.559
188.391
180.807
169.4
153.228
130.102
196.148
196.217
196.379
196.621
196.928
197.291
197.701
198.147
198.618
199.102
199.583
200.044
200.466
200.829
201.105
201.268
201.281
201.103
200.685
199.965
198.861
197.27
195.052
192.012
187.879
182.285
174.766
164.866
153.291
140.266
195.283
195.342
195.479
195.683
195.94
196.242
196.578
196.938
197.311
197.683
198.039
198.361
198.63
198.822
198.913
198.87
198.657
198.233
197.544
196.527
195.1
193.164
190.587
187.206
182.816
177.187
170.103
161.335
150.952
138.58
194.375
194.423
194.534
194.699
194.906
195.145
195.406
195.68
195.953
196.213
196.444
196.627
196.743
196.768
196.675
196.433
196.004
195.346
194.407
193.123
191.419
189.203
186.364
182.769
178.27
172.709
165.933
157.753
148.064
137.004
193.426
193.463
193.548
193.674
193.829
194.004
194.19
194.377
194.551
194.699
194.806
194.852
194.818
194.679
194.409
193.976
193.344
192.471
191.306
189.791
187.857
185.425
182.402
178.687
174.169
168.737
162.292
154.751
146.123
136.737
192.437
192.463
192.523
192.609
192.713
192.825
192.936
193.035
193.111
193.149
193.133
193.045
192.865
192.569
192.131
191.519
190.7
189.632
188.269
186.559
184.441
181.85
178.712
174.949
170.486
165.254
159.205
152.328
144.662
136.475
191.414
191.429
191.462
191.509
191.561
191.61
191.647
191.66
191.639
191.569
191.435
191.218
190.898
190.453
189.857
189.081
188.091
186.851
185.319
183.449
181.192
178.491
175.293
171.542
167.187
162.192
156.539
150.239
143.326
136.017
190.358
190.362
190.37
190.378
190.379
190.366
190.33
190.259
190.144
189.969
189.721
189.38
188.929
188.345
187.603
186.677
185.536
184.148
182.475
180.479
178.119
175.353
172.138
168.439
164.223
159.474
154.188
148.385
142.101
135.519
189.275
189.268
189.251
189.221
189.172
189.098
188.991
188.839
188.633
188.358
188.001
187.544
186.969
186.256
185.382
184.323
183.05
181.536
179.749
177.658
175.229
172.43
169.233
165.613
161.553
157.046
152.099
146.738
140.996
135.028
188.168
188.151
188.11
188.042
187.945
187.813
187.636
187.407
187.114
186.744
186.285
185.719
185.031
184.2
183.208
182.031
180.646
179.028
177.152
174.991
172.521
169.718
166.562
163.039
159.14
154.868
150.235
145.265
139.99
134.539
187.044
187.017
186.952
186.848
186.705
186.516
186.274
185.971
185.596
185.137
184.582
183.916
183.124
182.189
181.091
179.813
178.334
176.633
174.689
172.482
169.993
167.206
164.109
160.693
156.957
152.908
148.56
143.936
139.064
134.054
185.908
185.871
185.783
185.645
185.457
185.215
184.911
184.538
184.086
183.545
182.902
182.145
181.26
180.231
179.043
177.679
176.122
174.355
172.363
170.128
167.639
164.885
161.857
158.554
154.977
151.137
147.047
142.731
138.21
133.577
184.766
184.719
184.61
184.439
184.209
183.917
183.555
183.117
182.594
181.976
181.253
180.414
179.446
178.336
177.07
175.635
174.016
172.2
170.175
167.929
165.454
162.743
159.792
156.602
153.179
149.532
145.677
141.632
137.419
133.115
183.624
183.569
183.439
183.238
182.969
182.629
182.213
181.715
181.127
180.44
179.645
178.733
177.692
176.512
175.181
173.687
172.02
170.169
168.125
165.881
163.43
160.769
157.899
154.821
151.543
148.075
144.431
140.628
136.685
132.667
182.489
182.426
182.278
182.048
181.742
181.359
180.894
180.341
179.693
178.944
178.086
177.109
176.006
174.766
173.381
171.84
170.137
168.263
166.212
163.978
161.56
158.955
156.165
153.196
150.054
146.75
143.297
139.71
136.005
132.238
181.37
181.299
181.133
180.877
180.538
180.115
179.605
179.002
178.302
177.497
176.583
175.55
174.393
173.104
171.675
170.099
168.37
166.482
164.433
162.217
159.836
157.289
154.58
151.714
148.699
145.545
142.263
138.868
135.373
131.827
180.273
180.195
180.014
179.734
179.364
178.905
178.354
177.707
176.959
176.106
175.143
174.063
172.861
171.531
170.067
168.464
166.718
164.826
162.785
160.593
158.252
155.764
153.133
150.365
147.467
144.449
141.322
138.098
134.789
131.436
179.207
179.123
178.927
178.625
178.228
177.736
177.149
176.463
175.674
174.779
173.774
172.654
171.414
170.051
168.561
166.94
165.184
163.293
161.265
159.101
156.803
154.373
151.816
149.139
146.349
143.454
140.465
137.393
134.249
131.067
178.179
178.09
177.881
177.56
177.138
176.618
175.999
175.278
174.454
173.522
172.482
171.328
170.059
168.67
167.16
165.526
163.767
161.882
159.872
157.737
155.481
153.108
150.621
148.028
145.336
142.553
139.688
136.751
133.752
130.721
177.2
177.106
176.885
176.547
176.103
175.558
174.911
174.16
173.305
172.343
171.273
170.092
168.799
167.391
165.867
164.226
162.468
160.593
158.602
156.498
154.284
151.964
149.543
147.027
144.424
141.741
138.986
136.168
133.297
130.397
176.277
176.179
175.947
175.594
175.131
174.564
173.893
173.118
172.236
171.249
170.155
168.952
167.64
166.218
164.685
163.041
161.287
159.425
157.455
155.381
153.207
150.937
148.577
146.131
143.607
141.013
138.355
135.643
132.883
130.099
175.42
175.318
175.078
174.711
174.232
173.646
172.955
172.157
171.255
170.246
169.132
167.912
166.586
165.154
163.616
161.972
160.226
158.377
156.429
154.384
152.248
150.024
147.718
145.335
142.883
140.367
137.794
135.174
132.512
129.827
174.639
174.533
174.285
173.906
173.413
172.811
172.103
171.288
170.367
169.342
168.213
166.979
165.643
164.204
162.664
161.023
159.285
157.45
155.523
153.507
151.405
149.223
146.966
144.639
142.249
139.801
137.303
134.762
132.183
129.585
173.944
173.834
173.579
173.19
172.684
172.069
171.346
170.516
169.581
168.543
167.401
166.158
164.815
163.372
161.831
160.195
158.466
156.646
154.738
152.747
150.677
148.532
146.318
144.039
141.703
139.314
136.879
134.405
131.898
129.372
173.345
173.232
172.969
172.57
172.054
171.428
170.693
169.852
168.906
167.857
166.707
165.457
164.109
162.664
161.125
159.494
157.774
155.967
154.078
152.11
150.067
147.954
145.776
143.539
141.248
138.909
136.528
134.11
131.663
129.197
172.853
172.736
172.465
172.056
171.53
170.895
170.151
169.3
168.346
167.289
166.133
164.878
163.527
162.082
160.546
158.92
157.209
155.414
153.54
151.591
149.571
147.485
145.338
143.134
140.88
138.581
136.243
133.87
131.47
129.052
172.483
172.359
172.077
171.661
171.128
170.486
169.735
168.877
167.917
166.855
165.694
164.436
163.084
161.64
160.106
158.486
156.782
154.998
153.137
151.204
149.204
147.139
145.016
142.84
140.615
138.348
136.044
133.707
131.345
128.965
172.25
172.102
171.802
171.379
170.843
170.196
169.44
168.579
167.615
166.55
165.387
164.128
162.776
161.333
159.802
158.186
156.488
154.711
152.86
150.938
148.95
146.9
144.793
142.635
140.43
138.183
135.9
133.587
131.248
128.89
172.214
172.003
171.675
171.245
170.705
170.054
169.295
168.431
167.465
166.399
165.236
163.978
162.627
161.187
159.659
158.048
156.355
154.586
152.742
150.83
148.852
146.813
144.719
142.574
140.382
138.151
135.883
133.586
131.263
128.922
40.6858
58.4257
73.6606
115.105
110.488
102.561
127.51
118.992
111.085
125.783
117.796
111.626
126.701
120.018
114.491
128.207
122.389
117.297
128.972
123.776
119.168
129.311
124.657
120.525
129.491
125.3
121.585
129.564
125.759
122.396
129.547
126.066
123.004
129.464
126.26
123.454
129.334
126.369
123.784
129.172
126.415
124.02
128.988
126.414
124.184
128.79
126.377
124.293
128.584
126.314
124.357
128.375
126.232
124.388
128.167
126.137
124.392
127.964
126.034
124.375
127.767
125.925
124.343
127.579
125.817
124.301
127.405
125.71
124.253
127.246
125.612
124.204
127.105
125.521
124.155
126.991
125.449
124.118
126.892
125.385
124.082
126.847
125.365
124.083
126.794
125.332
124.066
126.851
125.405
124.146
82.586
82.6511
81.3638
78.3224
74.4822
70.0675
65.1335
59.7126
53.8403
47.5521
40.8996
33.9507
26.7846
19.4932
12.1838
4.99938
-1.91056
-8.38559
-14.245
-19.3184
-23.366
-26.138
-27.4556
-27.2375
-25.6481
-22.957
-19.1759
-14.5614
-9.37109
-3.48398
94.6742
88.7887
84.5681
80.2739
75.81
71.0002
65.7672
60.1085
54.0432
47.598
40.8163
33.7587
26.4995
19.1282
11.7512
4.50599
-2.46115
-8.99346
-14.9198
-20.063
-24.162
-26.9808
-28.3318
-28.0888
-26.4158
-23.636
-19.7538
-14.9926
-9.57022
-3.54531
100.478
91.9271
86.8431
82.0817
77.0856
71.8726
66.3857
60.5544
54.3566
47.8062
40.9406
33.8158
26.5036
19.0927
11.688
4.41946
-2.56905
-9.12207
-15.0684
-20.221
-24.338
-27.1847
-28.5748
-28.4111
-26.7763
-23.919
-20.0185
-15.1956
-9.65618
-3.58853
102.892
94.0145
88.1095
82.994
77.839
72.4851
66.8682
60.9425
54.6859
48.1013
41.2167
34.0833
26.7711
19.3676
11.9771
4.72518
-2.24665
-8.78291
-14.7112
-19.8407
-23.9475
-26.8063
-28.2399
-28.1673
-26.6196
-23.8019
-19.9418
-15.1861
-9.6826
-3.6612
106.402
97.4228
90.351
84.2435
78.5419
72.9522
67.2438
61.2796
55.014
48.4476
41.6027
34.522
27.2693
19.9287
12.6025
5.41312
-1.4998
-7.98149
-13.8604
-18.9473
-23.0316
-25.9031
-27.3954
-27.4315
-26.0415
-23.335
-19.5838
-14.964
-9.60286
-3.70072
109.948
101.291
93.4565
86.3888
79.9192
73.8119
67.8148
61.7278
55.4367
48.8992
42.1184
35.1263
27.9779
20.7492
13.5368
6.45771
-0.352408
-6.74137
-12.5407
-17.5662
-21.62
-24.5082
-26.0769
-26.25
-25.0492
-22.5758
-18.9832
-14.5437
-9.41464
-3.71856
112.731
104.752
96.728
89.1209
82.0612
75.4105
68.9825
62.6154
56.1865
49.6175
42.8755
35.968
28.9343
21.8394
14.7704
7.83556
1.16279
-5.10207
-10.797
-15.746
-19.7647
-22.6759
-24.3384
-24.6775
-23.703
-21.5018
-18.2136
-14.018
-9.1189
-3.69356
114.901
107.683
99.8588
92.112
84.7548
77.7299
70.9172
64.2204
57.5572
50.8587
44.0798
37.2067
30.2584
23.283
16.3543
9.56909
3.0445
-3.08381
-8.66414
-13.5324
-17.5191
-20.4635
-22.2369
-22.7668
-22.052
-20.1611
-17.2161
-13.373
-8.78291
-3.62308
116.621
110.119
102.712
95.1196
87.7373
80.5637
73.5272
66.5836
59.6973
52.8304
45.952
39.0484
32.1293
25.2293
18.408
11.7482
5.35427
-0.650891
-6.12874
-10.9296
-14.9001
-17.8959
-19.8006
-20.5443
-20.1173
-18.5703
-16.0032
-12.547
-8.33607
-3.50665
117.965
112.101
105.208
97.9575
90.7631
83.6532
76.5848
69.5472
62.5398
55.5553
48.5852
41.629
34.7008
27.8322
21.0749
14.5006
8.20107
2.28576
-3.12107
-7.88516
-11.8696
-14.9459
-17.0091
-17.9933
-17.882
-16.7103
-14.5573
-11.5303
-7.743
-3.31279
119.007
113.696
107.334
100.52
93.6513
86.7673
79.8377
72.8679
65.8784
58.8836
51.8943
44.925
37.9995
31.1536
24.4379
17.9188
11.6791
5.81689
0.443117
-4.32266
-8.35898
-11.552
-13.8077
-15.0639
-15.2996
-14.5376
-12.8386
-10.2905
-6.99066
-3.054
119.819
114.983
109.124
102.773
96.2982
89.7407
83.0728
76.3042
69.4642
62.5792
55.6722
48.769
41.9019
35.1123
28.4527
21.9877
15.7949
9.964
4.5953
-0.204317
-4.32689
-7.6713
-10.153
-11.714
-12.3302
-12.0145
-10.8137
-8.8005
-6.06251
-2.71842
120.454
116.027
110.626
104.723
98.6611
92.4769
86.1417
79.6634
73.072
66.3984
59.6712
52.9217
46.1871
39.5126
32.9518
26.5684
20.4361
14.6385
9.2671
4.41852
0.189465
-3.32959
-6.06226
-7.95421
-8.9796
-9.14411
-8.48403
-7.0617
-4.95942
-2.3024
120.951
116.877
111.884
106.398
100.737
94.9348
88.9603
82.8177
76.5344
70.1406
63.6658
57.1424
50.6089
44.1107
37.7008
31.4405
25.3997
19.6561
14.2936
9.39975
5.06184
1.36133
-1.63236
-3.86841
-5.3201
-5.98817
-5.90141
-5.11506
-3.70873
-1.81269
121.341
117.572
112.94
107.832
102.545
97.1096
91.4943
85.6992
79.7477
73.6677
67.4867
61.2357
54.9513
48.6767
42.462
36.3648
30.4497
24.7881
19.4565
14.534
10.0993
6.22572
2.97641
0.398682
-1.48083
-2.65967
-3.16136
-3.03596
-2.36075
-1.26653
121.645
118.141
113.827
109.058
104.111
99.0163
93.7416
88.2836
82.6623
76.9023
71.0286
65.0691
59.0572
53.0324
47.0404
41.1337
35.3708
29.816
24.538
19.6078
15.0955
11.067
7.57938
4.67603
2.38268
0.703622
-0.380901
-0.916607
-0.977404
-0.689026
121.879
118.606
114.572
110.105
105.463
100.678
95.7169
90.5737
85.2654
79.8136
74.2403
68.5703
62.8331
57.0641
51.3039
45.5991
40.0017
34.5688
29.3612
24.4413
19.8715
15.7101
12.0078
8.8042
6.12325
3.97001
2.32755
1.15428
0.381006
-0.108033
122.058
118.984
115.197
110.996
106.628
102.12
97.4423
92.5863
87.566
82.4003
77.1085
71.7123
66.2376
60.7152
55.1809
49.6756
44.2447
38.9381
33.8088
28.9115
24.3006
20.027
16.1358
12.6619
9.62715
7.03664
4.87563
3.10656
1.666
0.451334
122.19
119.29
115.719
111.754
107.627
103.366
98.9417
94.3436
89.5834
84.6774
79.6425
74.4974
69.2645
63.9708
58.6472
53.3293
48.0566
42.872
37.8216
32.9527
28.3122
23.9445
19.8887
16.1753
12.8238
9.8387
7.20702
4.89508
2.84562
0.970482
122.285
119.535
116.152
112.395
108.481
104.438
100.238
95.8693
91.3409
86.6671
81.8624
76.9429
71.928
66.8408
61.7081
56.5607
51.4325
46.3607
41.3847
36.5453
31.8828
27.4354
23.2368
19.3135
15.6822
12.3468
9.29553
6.49836
3.90407
1.43864
122.35
119.729
116.51
112.934
109.207
105.356
101.353
97.186
92.8622
88.3937
83.7928
79.0733
74.2517
69.3478
64.3848
59.389
54.3897
49.4189
44.5102
39.6988
35.0191
30.5038
26.1818
22.0758
18.1999
14.5572
11.137
7.91232
4.8376
1.8516
122.391
119.88
116.805
113.386
109.821
106.137
102.306
98.3152
94.1702
89.8813
85.459
80.9147
76.2625
71.5193
66.705
61.8422
56.9561
52.0739
47.2247
42.4384
37.7446
33.1713
28.7431
24.4791
20.3914
16.4819
12.7408
9.14392
5.65052
2.21019
122.414
119.997
117.044
113.762
110.337
106.797
103.114
99.2758
95.2857
91.1523
86.8846
82.4921
77.9867
73.3827
68.6973
63.9496
59.1613
54.3559
49.5582
44.794
40.0886
35.4658
30.9466
26.5472
22.2775
18.1387
14.1214
10.2039
6.3495
2.51668
122.425
120.087
117.239
114.073
110.768
107.351
103.795
100.087
96.2288
92.2285
88.093
83.8305
79.4506
74.9658
70.3904
65.7411
61.0364
56.2966
51.543
46.7978
42.0826
37.4179
32.8216
28.3074
23.8831
19.5494
15.2973
11.1068
6.94491
2.77649
122.427
120.156
117.395
114.327
111.123
107.808
104.359
100.76
97.0139
93.1255
89.1014
84.9481
80.6739
76.2891
71.8062
67.2396
62.6051
57.9202
53.2036
48.4742
43.7509
39.0512
34.3903
29.7799
25.2263
20.7293
16.2803
11.8608
7.44089
2.99037
122.43
120.213
117.525
114.538
111.417
108.187
104.826
101.317
97.6624
93.8661
89.9336
85.8702
81.6829
77.3805
72.9737
68.4748
63.8979
59.2582
54.5718
49.8554
45.1254
40.3968
35.683
30.9936
26.3339
21.7028
17.0921
12.4844
7.85216
3.16771
122.429
120.254
117.623
114.7
111.645
108.483
105.192
101.755
98.1726
94.4494
90.5895
86.5974
82.4789
78.2416
73.8949
69.4497
64.9182
60.3139
55.6512
50.9448
46.2091
41.4574
36.7014
31.9492
27.2051
22.4675
17.7283
12.9709
8.17001
3.30044
122.451
120.308
117.721
114.848
111.843
108.732
105.493
102.11
98.5832
94.9151
91.11
87.1715
83.1047
78.9162
74.6145
70.2092
65.7113
61.1332
56.4876
51.7879
47.0471
42.2773
37.4886
32.6883
27.8797
23.0609
18.2237
13.3521
8.42187
3.40758
122.456
120.333
117.775
114.935
111.963
108.886
105.682
102.336
98.8452
95.2138
91.445
87.542
83.5094
79.3534
75.0814
70.7025
66.2269
61.666
57.0318
52.3365
47.5924
42.8104
38
33.1676
28.316
23.4429
18.5397
13.5908
8.57271
3.46168
122.534
120.415
117.875
115.055
112.103
109.046
105.861
102.534
99.0629
95.4506
91.7003
87.8151
83.7992
79.6583
75.3998
71.0322
66.5654
62.0103
57.3785
52.6819
47.9322
43.14
38.3143
33.4614
28.5836
23.6784
18.7369
13.7425
8.66874
3.4792
)
;

boundaryField
{
    inlet
    {
        type            zeroGradient;
    }
    outlet
    {
        type            fixedValue;
        value           uniform 0;
    }
    flap
    {
        type            zeroGradient;
    }
    upperWall
    {
        type            zeroGradient;
    }
    lowerWall
    {
        type            zeroGradient;
    }
    frontAndBack
    {
        type            empty;
    }
}


// ************************************************************************* //
