/*--------------------------------*- C++ -*----------------------------------*\
  =========                 |
  \\      /  F ield         | OpenFOAM: The Open Source CFD Toolbox
   \\    /   O peration     | Website:  https://openfoam.org
    \\  /    A nd           | Version:  7
     \\/     M anipulation  |
\*---------------------------------------------------------------------------*/
FoamFile
{
    version     2.0;
    format      ascii;
    class       volVectorField;
    location    "1";
    object      U;
}
// * * * * * * * * * * * * * * * * * * * * * * * * * * * * * * * * * * * * * //

dimensions      [0 1 -1 0 0 0 0];

internalField   nonuniform List<vector> 
2790
(
(9.94351 0.0208048 0)
(9.87364 0.0301659 0)
(9.77031 0.0368643 0)
(9.64063 0.0437228 0)
(9.49043 0.0508379 0)
(9.3207 0.0581583 0)
(9.13072 0.0658109 0)
(8.91968 0.0739545 0)
(8.68686 0.0827232 0)
(8.4314 0.0922373 0)
(8.15226 0.102616 0)
(7.84819 0.113982 0)
(7.51785 0.126454 0)
(7.15984 0.140148 0)
(6.77277 0.155166 0)
(6.35533 0.171577 0)
(5.90647 0.189407 0)
(5.42557 0.208604 0)
(4.91264 0.229006 0)
(4.36867 0.250297 0)
(3.79596 0.271956 0)
(3.19847 0.293208 0)
(2.58218 0.312996 0)
(1.95532 0.33011 0)
(1.32688 0.344449 0)
(0.726381 0.362853 0)
(0.0507648 0.296317 0)
(-0.471397 -0.111784 0)
(-0.446596 -0.278359 0)
(-0.227959 -0.406461 0)
(9.99802 0.0415735 0)
(9.97936 0.0641292 0)
(9.9308 0.08175 0)
(9.85527 0.100075 0)
(9.75718 0.119385 0)
(9.6376 0.139521 0)
(9.49597 0.160729 0)
(9.33156 0.183353 0)
(9.14366 0.207691 0)
(8.93143 0.234004 0)
(8.69381 0.262546 0)
(8.42957 0.29356 0)
(8.13735 0.327268 0)
(7.81568 0.363851 0)
(7.46306 0.403414 0)
(7.07808 0.445944 0)
(6.65949 0.491244 0)
(6.2064 0.53886 0)
(5.71852 0.587979 0)
(5.19646 0.637321 0)
(4.6421 0.685023 0)
(4.05904 0.728534 0)
(3.45315 0.764554 0)
(2.83334 0.789074 0)
(2.21257 0.797674 0)
(1.61858 0.786034 0)
(1.04826 0.716783 0)
(0.611147 0.513554 0)
(0.155187 0.174135 0)
(-0.014982 -0.451183 0)
(9.99512 0.0446796 0)
(9.97351 0.0782035 0)
(9.92696 0.107717 0)
(9.8562 0.138148 0)
(9.76432 0.170196 0)
(9.6525 0.203833 0)
(9.52052 0.239393 0)
(9.36783 0.277363 0)
(9.19388 0.318207 0)
(8.99799 0.362354 0)
(8.77931 0.410226 0)
(8.53677 0.462238 0)
(8.26918 0.518778 0)
(7.97522 0.580174 0)
(7.65349 0.646644 0)
(7.30257 0.718221 0)
(6.92109 0.794657 0)
(6.50791 0.875285 0)
(6.06223 0.958856 0)
(5.58391 1.04334 0)
(5.07382 1.12569 0)
(4.53429 1.20165 0)
(3.96972 1.26544 0)
(3.38754 1.30948 0)
(2.79896 1.32356 0)
(2.22359 1.29251 0)
(1.66988 1.17865 0)
(1.16614 0.928427 0)
(0.674044 0.528373 0)
(0.331593 -0.1783 0)
(9.99355 0.0515495 0)
(9.96976 0.0972844 0)
(9.92304 0.139643 0)
(9.85356 0.182222 0)
(9.7635 0.22632 0)
(9.65398 0.27233 0)
(9.52503 0.320766 0)
(9.37631 0.37227 0)
(9.20744 0.42748 0)
(9.01796 0.487005 0)
(8.80728 0.551437 0)
(8.57465 0.621364 0)
(8.31923 0.697347 0)
(8.04005 0.779879 0)
(7.73608 0.869335 0)
(7.40626 0.965873 0)
(7.04948 1.06932 0)
(6.66471 1.17898 0)
(6.25108 1.29344 0)
(5.80806 1.41024 0)
(5.33568 1.5256 0)
(4.83492 1.63401 0)
(4.30819 1.72775 0)
(3.75989 1.79633 0)
(3.19663 1.82541 0)
(2.62863 1.79502 0)
(2.06146 1.67195 0)
(1.50358 1.41932 0)
(0.926655 1.02589 0)
(0.484354 0.454881 0)
(9.99284 0.0598436 0)
(9.96789 0.116192 0)
(9.92109 0.169894 0)
(9.85277 0.223628 0)
(9.76454 0.279038 0)
(9.65732 0.336878 0)
(9.5312 0.397796 0)
(9.38594 0.462522 0)
(9.22124 0.531791 0)
(9.03674 0.606316 0)
(8.832 0.686791 0)
(8.60645 0.773905 0)
(8.35948 0.868316 0)
(8.09039 0.97062 0)
(7.79845 1.08129 0)
(7.4829 1.20058 0)
(7.14294 1.3284 0)
(6.77777 1.4641 0)
(6.38661 1.60625 0)
(5.96873 1.75226 0)
(5.52359 1.89802 0)
(5.05102 2.03734 0)
(4.55141 2.16144 0)
(4.02605 2.25827 0)
(3.47703 2.31173 0)
(2.9078 2.30105 0)
(2.31948 2.19823 0)
(1.71388 1.97382 0)
(1.05753 1.61577 0)
(0.514857 1.08664 0)
(9.99255 0.0687483 0)
(9.96718 0.135089 0)
(9.92073 0.19962 0)
(9.85384 0.264387 0)
(9.76782 0.331048 0)
(9.66337 0.400572 0)
(9.54058 0.473727 0)
(9.39927 0.55132 0)
(9.2392 0.634178 0)
(9.06008 0.723109 0)
(8.8615 0.818906 0)
(8.64303 0.922344 0)
(8.40413 1.03417 0)
(8.14425 1.15505 0)
(7.86281 1.28555 0)
(7.5592 1.426 0)
(7.23278 1.5764 0)
(6.88282 1.73618 0)
(6.50856 1.90401 0)
(6.10907 2.07739 0)
(5.68331 2.25221 0)
(5.23008 2.42222 0)
(4.74806 2.57843 0)
(4.23593 2.70844 0)
(3.69227 2.79596 0)
(3.11591 2.8207 0)
(2.50427 2.75786 0)
(1.85756 2.58141 0)
(1.13865 2.27906 0)
(0.530045 1.80401 0)
(9.9925 0.0778639 0)
(9.96722 0.153854 0)
(9.92154 0.228707 0)
(9.85639 0.304105 0)
(9.77294 0.381629 0)
(9.67172 0.462398 0)
(9.55281 0.547315 0)
(9.41609 0.637281 0)
(9.26135 0.733209 0)
(9.08832 0.835993 0)
(8.89668 0.946509 0)
(8.686 1.06561 0)
(8.45583 1.19411 0)
(8.20566 1.33275 0)
(7.93493 1.48216 0)
(7.64307 1.64275 0)
(7.32942 1.81461 0)
(6.99321 1.99734 0)
(6.63349 2.18978 0)
(6.24906 2.3897 0)
(5.8383 2.59334 0)
(5.39908 2.79485 0)
(4.92864 2.98572 0)
(4.42355 3.15408 0)
(3.87972 3.28426 0)
(3.29278 3.35669 0)
(2.65746 3.34809 0)
(1.97464 3.23319 0)
(1.20418 2.99717 0)
(0.543617 2.57774 0)
(9.99259 0.0869558 0)
(9.96777 0.172299 0)
(9.92324 0.256993 0)
(9.86015 0.342567 0)
(9.77963 0.430537 0)
(9.68209 0.522118 0)
(9.5676 0.618335 0)
(9.43606 0.720178 0)
(9.28733 0.828636 0)
(9.12117 0.944685 0)
(8.93728 1.06928 0)
(8.7353 1.20334 0)
(8.51477 1.34776 0)
(8.27521 1.50335 0)
(8.01606 1.67084 0)
(7.73667 1.85074 0)
(7.43631 2.04327 0)
(7.11403 2.24824 0)
(6.76862 2.46478 0)
(6.39845 2.69108 0)
(6.00131 2.92397 0)
(5.57414 3.15842 0)
(5.11291 3.38685 0)
(4.61239 3.59854 0)
(4.06627 3.7789 0)
(3.46766 3.90916 0)
(2.80892 3.96638 0)
(2.09188 3.92374 0)
(1.2729 3.76107 0)
(0.561869 3.39721 0)
(9.99279 0.0958737 0)
(9.96868 0.190252 0)
(9.92564 0.284329 0)
(9.86493 0.379607 0)
(9.78767 0.477566 0)
(9.69423 0.579485 0)
(9.58466 0.68649 0)
(9.45889 0.799656 0)
(9.31681 0.920044 0)
(9.15824 1.04871 0)
(8.98291 1.18667 0)
(8.79049 1.33493 0)
(8.58056 1.49447 0)
(8.35265 1.6662 0)
(8.10615 1.85093 0)
(7.84038 2.04932 0)
(7.55446 2.2618 0)
(7.24724 2.48844 0)
(6.9172 2.72877 0)
(6.56229 2.98155 0)
(6.17965 3.24442 0)
(5.76537 3.51344 0)
(5.31418 3.78241 0)
(4.81922 4.04219 0)
(4.27202 4.27974 0)
(3.66314 4.47728 0)
(2.98196 4.6116 0)
(2.23005 4.65267 0)
(1.35904 4.57239 0)
(0.590016 4.26719 0)
(9.99306 0.104513 0)
(9.96987 0.207571 0)
(9.9286 0.310573 0)
(9.87057 0.415063 0)
(9.79691 0.522512 0)
(9.70795 0.634251 0)
(9.60374 0.751485 0)
(9.48426 0.875367 0)
(9.34943 1.00703 0)
(9.19912 1.14759 0)
(9.03311 1.29816 0)
(8.8511 1.4598 0)
(8.65271 1.63359 0)
(8.43747 1.82054 0)
(8.2048 2.0216 0)
(7.95395 2.2376 0)
(7.68393 2.46921 0)
(7.39343 2.71685 0)
(7.08069 2.98056 0)
(6.74324 3.25979 0)
(6.37768 3.5532 0)
(5.97932 3.85819 0)
(5.54178 4.17035 0)
(5.05659 4.48261 0)
(4.51298 4.78412 0)
(3.89837 5.0587 0)
(3.19765 5.28312 0)
(2.40954 5.42351 0)
(1.478 5.44132 0)
(0.634841 5.20482 0)
(9.99338 0.112798 0)
(9.97128 0.224135 0)
(9.93201 0.335592 0)
(9.87694 0.448781 0)
(9.80718 0.565189 0)
(9.72306 0.686189 0)
(9.62463 0.813053 0)
(9.51191 0.947003 0)
(9.38488 1.08924 0)
(9.24344 1.24094 0)
(9.08743 1.40327 0)
(8.9166 1.57741 0)
(8.73063 1.76449 0)
(8.52908 1.96565 0)
(8.31139 2.18199 0)
(8.07681 2.41455 0)
(7.82432 2.66428 0)
(7.55251 2.93199 0)
(7.25947 3.21831 0)
(6.94249 3.52353 0)
(6.5978 3.84745 0)
(6.22014 4.1891 0)
(5.80223 4.54623 0)
(5.33414 4.91449 0)
(4.80267 5.28618 0)
(4.19129 5.64815 0)
(3.47829 5.97875 0)
(2.65502 6.24138 0)
(1.65138 6.38536 0)
(0.707584 6.24112 0)
(9.99374 0.120669 0)
(9.97287 0.239846 0)
(9.9358 0.359267 0)
(9.88393 0.480622 0)
(9.81834 0.605429 0)
(9.73937 0.735098 0)
(9.64709 0.870956 0)
(9.54157 1.01429 0)
(9.42281 1.16634 0)
(9.29078 1.32836 0)
(9.14539 1.50158 0)
(8.98645 1.68724 0)
(8.81371 1.88657 0)
(8.62679 2.10083 0)
(8.4252 2.33126 0)
(8.20823 2.57912 0)
(7.97491 2.84568 0)
(7.72388 3.13217 0)
(7.4532 3.43984 0)
(7.16015 3.76988 0)
(6.84089 4.12337 0)
(6.48996 4.50114 0)
(6.09962 4.90347 0)
(5.65896 5.32949 0)
(5.15264 5.77601 0)
(4.55982 6.23528 0)
(3.84999 6.69106 0)
(3.00073 7.10897 0)
(1.91478 7.4289 0)
(0.829944 7.43017 0)
(9.99414 0.12808 0)
(9.97459 0.254623 0)
(9.93991 0.381494 0)
(9.89144 0.510463 0)
(9.83026 0.643083 0)
(9.75672 0.780798 0)
(9.67092 0.924981 0)
(9.57295 1.07696 0)
(9.46288 1.23805 0)
(9.34075 1.40953 0)
(9.20652 1.59269 0)
(9.06009 1.78883 0)
(8.90129 1.99929 0)
(8.72985 2.2254 0)
(8.54536 2.46858 0)
(8.34726 2.73029 0)
(8.13469 3.01208 0)
(7.90646 3.31562 0)
(7.66082 3.64278 0)
(7.39531 3.99561 0)
(7.10637 4.3765 0)
(6.78888 4.78817 0)
(6.43541 5.23366 0)
(6.03509 5.7162 0)
(5.57169 6.23859 0)
(5.02122 6.80175 0)
(4.34401 7.40143 0)
(3.49741 8.01785 0)
(2.3335 8.59956 0)
(1.04922 8.87389 0)
(9.99456 0.134995 0)
(9.97642 0.268398 0)
(9.94426 0.402184 0)
(9.89938 0.538197 0)
(9.84282 0.678024 0)
(9.77494 0.823142 0)
(9.69588 0.97496 0)
(9.60578 1.13485 0)
(9.50477 1.30415 0)
(9.39293 1.48419 0)
(9.27032 1.6763 0)
(9.13692 1.88185 0)
(8.99267 2.10221 0)
(8.83742 2.33885 0)
(8.67092 2.59328 0)
(8.49277 2.86716 0)
(8.30236 3.1623 0)
(8.09876 3.48074 0)
(7.88063 3.82488 0)
(7.64603 4.19756 0)
(7.39211 4.60233 0)
(7.11475 5.04365 0)
(6.80785 5.52725 0)
(6.46221 6.06058 0)
(6.0634 6.65335 0)
(5.58845 7.31805 0)
(4.99417 8.07063 0)
(4.21987 8.92788 0)
(3.03809 9.90469 0)
(1.48101 10.7947 0)
(9.995 0.141383 0)
(9.97834 0.281115 0)
(9.94882 0.42126 0)
(9.90767 0.56372 0)
(9.85589 0.710119 0)
(9.79388 0.861957 0)
(9.72179 1.02067 0)
(9.63981 1.18766 0)
(9.54813 1.3643 0)
(9.44691 1.55194 0)
(9.33627 1.75195 0)
(9.21632 1.96573 0)
(9.08711 2.19471 0)
(8.94863 2.44041 0)
(8.80083 2.70445 0)
(8.64352 2.98862 0)
(8.47639 3.29492 0)
(8.29892 3.62568 0)
(8.11032 3.98369 0)
(7.90941 4.37239 0)
(7.69446 4.79616 0)
(7.46296 5.26079 0)
(7.21123 5.77408 0)
(6.93374 6.34691 0)
(6.62177 6.99497 0)
(6.26135 7.74208 0)
(5.82302 8.62746 0)
(5.26442 9.72344 0)
(4.31915 11.2145 0)
(2.45381 13.7613 0)
(0.1094 -0.191056 0)
(0.207132 -0.00111638 0)
(0.00703166 0.12326 0)
(-0.296219 0.190347 0)
(-0.699318 0.227574 0)
(-1.16935 0.247483 0)
(-1.68703 0.256209 0)
(-2.23753 0.257103 0)
(-2.80864 0.252175 0)
(-3.38979 0.242732 0)
(-3.97154 0.229666 0)
(-4.54511 0.213609 0)
(-5.10213 0.195018 0)
(-5.63445 0.174228 0)
(-6.1339 0.151481 0)
(-6.59228 0.126949 0)
(-7.00122 0.100741 0)
(-7.35219 0.0729083 0)
(-7.63647 0.0434547 0)
(-7.84486 0.0122126 0)
(-7.96757 -0.0214402 0)
(-7.99518 -0.0591344 0)
(-7.91342 -0.103464 0)
(-7.70298 -0.154144 0)
(-7.35384 -0.211376 0)
(-6.85006 -0.27645 0)
(-6.14985 -0.352446 0)
(-5.17397 -0.444312 0)
(-3.88766 -0.546092 0)
(-2.61521 -0.61226 0)
(-0.206364 -0.105086 0)
(-0.434229 0.210299 0)
(-0.843785 0.404462 0)
(-1.3039 0.531762 0)
(-1.82203 0.615989 0)
(-2.38331 0.670151 0)
(-2.97613 0.702076 0)
(-3.58978 0.716799 0)
(-4.21461 0.717713 0)
(-4.84182 0.707197 0)
(-5.46327 0.686948 0)
(-6.07119 0.658189 0)
(-6.658 0.621798 0)
(-7.2162 0.578402 0)
(-7.73817 0.528454 0)
(-8.21617 0.472285 0)
(-8.64225 0.410153 0)
(-9.00825 0.342298 0)
(-9.30587 0.268973 0)
(-9.52664 0.19035 0)
(-9.66205 0.106039 0)
(-9.70366 0.0144941 0)
(-9.6457 -0.0854706 0)
(-9.48207 -0.192727 0)
(-9.20918 -0.305841 0)
(-8.82179 -0.424789 0)
(-8.30151 -0.551827 0)
(-7.6155 -0.692086 0)
(-6.80235 -0.838803 0)
(-6.20262 -0.947777 0)
(-0.384268 0.380968 0)
(-0.798165 0.671528 0)
(-1.35141 0.873642 0)
(-1.90902 1.02306 0)
(-2.49246 1.12624 0)
(-3.09622 1.19168 0)
(-3.71503 1.22643 0)
(-4.34275 1.23602 0)
(-4.97309 1.22467 0)
(-5.59984 1.19556 0)
(-6.21688 1.15106 0)
(-6.8181 1.09294 0)
(-7.39736 1.02251 0)
(-7.94834 0.940747 0)
(-8.46453 0.848419 0)
(-8.93912 0.746164 0)
(-9.36504 0.634584 0)
(-9.73499 0.514335 0)
(-10.0414 0.386218 0)
(-10.2769 0.251167 0)
(-10.4339 0.109986 0)
(-10.505 -0.0370836 0)
(-10.4867 -0.190832 0)
(-10.3764 -0.352116 0)
(-10.1722 -0.518218 0)
(-9.87383 -0.686365 0)
(-9.47156 -0.855033 0)
(-8.94547 -1.02675 0)
(-8.33791 -1.20334 0)
(-7.9245 -1.35991 0)
(-0.455914 0.958333 0)
(-0.975819 1.23043 0)
(-1.61773 1.42144 0)
(-2.23241 1.568 0)
(-2.85085 1.66938 0)
(-3.47213 1.73115 0)
(-4.09579 1.75903 0)
(-4.71965 1.75819 0)
(-5.34062 1.73293 0)
(-5.955 1.68662 0)
(-6.55861 1.62189 0)
(-7.14688 1.54066 0)
(-7.7148 1.44436 0)
(-8.25696 1.33401 0)
(-8.76749 1.21036 0)
(-9.24012 1.07396 0)
(-9.66817 0.925266 0)
(-10.0446 0.764762 0)
(-10.3622 0.593045 0)
(-10.6137 0.410912 0)
(-10.7924 0.219362 0)
(-10.8921 0.0192405 0)
(-10.9079 -0.188951 0)
(-10.8416 -0.403012 0)
(-10.6929 -0.619766 0)
(-10.4635 -0.834488 0)
(-10.1484 -1.04258 0)
(-9.73575 -1.24441 0)
(-9.26659 -1.44717 0)
(-8.95978 -1.63167 0)
(-0.474128 1.61796 0)
(-1.03865 1.85551 0)
(-1.72148 2.01559 0)
(-2.35833 2.14015 0)
(-2.98688 2.22424 0)
(-3.60738 2.271 0)
(-4.22238 2.28427 0)
(-4.83241 2.26803 0)
(-5.43671 2.22581 0)
(-6.03346 2.16048 0)
(-6.61994 2.07426 0)
(-7.19263 1.96879 0)
(-7.74733 1.84526 0)
(-8.27919 1.70452 0)
(-8.7828 1.54722 0)
(-9.25221 1.37395 0)
(-9.68105 1.18532 0)
(-10.0626 0.982133 0)
(-10.3898 0.765442 0)
(-10.6559 0.536721 0)
(-10.8546 0.297899 0)
(-10.9801 0.0512761 0)
(-11.0275 -0.200606 0)
(-11.0005 -0.457029 0)
(-10.9001 -0.714033 0)
(-10.7289 -0.96479 0)
(-10.4851 -1.20225 0)
(-10.1631 -1.42516 0)
(-9.80132 -1.64177 0)
(-9.57011 -1.8315 0)
(-0.46144 2.30591 0)
(-1.0282 2.50336 0)
(-1.71288 2.62381 0)
(-2.34179 2.71678 0)
(-2.95827 2.77532 0)
(-3.56157 2.80095 0)
(-4.15587 2.79575 0)
(-4.7432 2.76227 0)
(-5.32426 2.70289 0)
(-5.89842 2.61964 0)
(-6.46396 2.51409 0)
(-7.01813 2.3874 0)
(-7.55731 2.24041 0)
(-8.07712 2.07371 0)
(-8.57251 1.88778 0)
(-9.03783 1.68309 0)
(-9.46693 1.46016 0)
(-9.85322 1.21976 0)
(-10.1899 0.962989 0)
(-10.4701 0.691517 0)
(-10.6876 0.407859 0)
(-10.8374 0.115585 0)
(-10.9151 -0.181103 0)
(-10.9236 -0.479217 0)
(-10.8661 -0.77469 0)
(-10.7455 -1.05899 0)
(-10.5625 -1.32329 0)
(-10.3168 -1.56483 0)
(-10.0429 -1.7904 0)
(-9.87022 -1.97766 0)
(-0.429044 2.97593 0)
(-0.967408 3.13577 0)
(-1.62287 3.21621 0)
(-2.21861 3.27552 0)
(-2.8033 3.30626 0)
(-3.37411 3.30921 0)
(-3.93605 3.28494 0)
(-4.49179 3.2346 0)
(-5.04276 3.1593 0)
(-5.58902 3.05999 0)
(-6.1294 2.9374 0)
(-6.66166 2.79201 0)
(-7.18258 2.62414 0)
(-7.68811 2.43402 0)
(-8.17347 2.22185 0)
(-8.63322 1.98791 0)
(-9.06139 1.73269 0)
(-9.45152 1.45702 0)
(-9.7969 1.16226 0)
(-10.0908 0.85051 0)
(-10.327 0.525089 0)
(-10.5006 0.190897 0)
(-10.6082 -0.146271 0)
(-10.6496 -0.482038 0)
(-10.6318 -0.811879 0)
(-10.5569 -1.12581 0)
(-10.4276 -1.41349 0)
(-10.2481 -1.67039 0)
(-10.0487 -1.90073 0)
(-9.92415 -2.0822 0)
(-0.382868 3.59497 0)
(-0.869231 3.72374 0)
(-1.47075 3.76837 0)
(-2.01235 3.79671 0)
(-2.54796 3.80176 0)
(-3.0721 3.78406 0)
(-3.5904 3.74294 0)
(-4.10559 3.67822 0)
(-4.61929 3.58975 0)
(-5.13182 3.47737 0)
(-5.64223 3.34089 0)
(-6.14853 3.1801 0)
(-6.64775 2.99476 0)
(-7.13607 2.7847 0)
(-7.60895 2.54984 0)
(-8.06119 2.29027 0)
(-8.48702 2.00639 0)
(-8.88017 1.69906 0)
(-9.23406 1.36979 0)
(-9.54195 1.02107 0)
(-9.79738 0.656817 0)
(-9.9951 0.282975 0)
(-10.1323 -0.0931578 0)
(-10.2049 -0.464588 0)
(-10.2244 -0.826189 0)
(-10.1919 -1.16721 0)
(-10.1116 -1.47599 0)
(-9.99104 -1.74591 0)
(-9.85678 -1.97831 0)
(-9.77369 -2.15264 0)
(-0.326532 4.13964 0)
(-0.741653 4.2456 0)
(-1.26916 4.26078 0)
(-1.73897 4.26375 0)
(-2.21028 4.24824 0)
(-2.67484 4.2147 0)
(-3.13887 4.16124 0)
(-3.60478 4.08643 0)
(-4.07402 3.9889 0)
(-4.54674 3.86746 0)
(-5.02197 3.72104 0)
(-5.49773 3.54875 0)
(-5.97117 3.34982 0)
(-6.43866 3.12369 0)
(-6.8959 2.86998 0)
(-7.33796 2.58859 0)
(-7.75936 2.2798 0)
(-8.15414 1.94446 0)
(-8.51593 1.58423 0)
(-8.83796 1.20188 0)
(-9.11328 0.801825 0)
(-9.33607 0.390637 0)
(-9.50348 -0.0230606 0)
(-9.60582 -0.428254 0)
(-9.66153 -0.818937 0)
(-9.67014 -1.18488 0)
(-9.63614 -1.51303 0)
(-9.56964 -1.79441 0)
(-9.49412 -2.0272 0)
(-9.44852 -2.19367 0)
(-0.262549 4.59201 0)
(-0.590012 4.68432 0)
(-1.02682 4.67741 0)
(-1.40951 4.66247 0)
(-1.80318 4.63374 0)
(-2.19655 4.59133 0)
(-2.59669 4.53189 0)
(-3.00528 4.45278 0)
(-3.42324 4.35147 0)
(-3.85025 4.2258 0)
(-4.285 4.07398 0)
(-4.72539 3.89453 0)
(-5.16854 3.68624 0)
(-5.61091 3.44822 0)
(-6.04845 3.17986 0)
(-6.4766 2.8809 0)
(-6.89034 2.55149 0)
(-7.28417 2.19243 0)
(-7.65208 1.80541 0)
(-7.98732 1.39332 0)
(-8.28233 0.960636 0)
(-8.53006 0.514192 0)
(-8.72581 0.0645518 0)
(-8.86203 -0.372955 0)
(-8.95388 -0.790307 0)
(-9.00414 -1.17937 0)
(-9.01604 -1.52567 0)
(-9.0013 -1.81777 0)
(-8.98089 -2.05021 0)
(-8.97091 -2.20814 0)
(-0.192957 4.93753 0)
(-0.418208 5.02579 0)
(-0.750051 5.00448 0)
(-1.03181 4.98052 0)
(-1.33602 4.94774 0)
(-1.64804 4.90531 0)
(-1.97601 4.84788 0)
(-2.32035 4.7715 0)
(-2.68111 4.67254 0)
(-3.05711 4.54809 0)
(-3.44649 4.39584 0)
(-3.84681 4.21386 0)
(-4.25504 4.00065 0)
(-4.66768 3.75507 0)
(-5.08085 3.47644 0)
(-5.49043 3.16443 0)
(-5.89197 2.81907 0)
(-6.28059 2.44104 0)
(-6.65079 2.03189 0)
(-6.99595 1.59433 0)
(-7.30799 1.13258 0)
(-7.57842 0.653775 0)
(-7.8013 0.17103 0)
(-7.97821 -0.297255 0)
(-8.10668 -0.739587 0)
(-8.20078 -1.15008 0)
(-8.26064 -1.51366 0)
(-8.29824 -1.81664 0)
(-8.33228 -2.04897 0)
(-8.35823 -2.1977 0)
(-0.119941 5.16433 0)
(-0.229742 5.25785 0)
(-0.443854 5.22931 0)
(-0.611205 5.20678 0)
(-0.81554 5.18114 0)
(-1.03761 5.14943 0)
(-1.28686 5.10343 0)
(-1.5616 5.03784 0)
(-1.86056 4.94804 0)
(-2.18131 4.83062 0)
(-2.52117 4.68312 0)
(-2.8773 4.50337 0)
(-3.24641 4.28967 0)
(-3.62488 4.04086 0)
(-4.00897 3.75627 0)
(-4.39497 3.43572 0)
(-4.7791 3.07915 0)
(-5.1571 2.68705 0)
(-5.52406 2.26071 0)
(-5.87382 1.80246 0)
(-6.19842 1.31622 0)
(-6.48884 0.809409 0)
(-6.73979 0.297184 0)
(-6.9572 -0.199986 0)
(-7.12191 -0.665779 0)
(-7.26233 -1.0954 0)
(-7.37427 -1.47527 0)
(-7.46804 -1.79008 0)
(-7.55935 -2.02396 0)
(-7.62431 -2.16307 0)
(-0.0467648 5.26446 0)
(-0.0293793 5.36927 0)
(-0.112763 5.33988 0)
(-0.150795 5.33101 0)
(-0.246062 5.32706 0)
(-0.371463 5.319 0)
(-0.53772 5.29504 0)
(-0.739562 5.24871 0)
(-0.973906 5.17481 0)
(-1.23652 5.07036 0)
(-1.52376 4.93293 0)
(-1.83242 4.76016 0)
(-2.15892 4.5504 0)
(-2.49943 4.30246 0)
(-2.85013 4.01597 0)
(-3.20782 3.69123 0)
(-3.56954 3.32803 0)
(-3.93169 2.92661 0)
(-4.28992 2.48793 0)
(-4.63852 2.01396 0)
(-4.96981 1.50865 0)
(-5.27468 0.979678 0)
(-5.54928 0.442696 0)
(-5.8042 -0.0818705 0)
(-6.00123 -0.568694 0)
(-6.1885 -1.01323 0)
(-6.35721 -1.4074 0)
(-6.5137 -1.7353 0)
(-6.66918 -1.97403 0)
(-6.78013 -2.10382 0)
(0.0239374 5.236 0)
(0.174154 5.34591 0)
(0.242165 5.32145 0)
(0.344473 5.34284 0)
(0.367491 5.37932 0)
(0.342084 5.40964 0)
(0.262039 5.4199 0)
(0.136324 5.40313 0)
(-0.0302308 5.35397 0)
(-0.235104 5.26771 0)
(-0.468573 5.14432 0)
(-0.727717 4.98214 0)
(-1.00906 4.77953 0)
(-1.30861 4.53574 0)
(-1.62215 4.25191 0)
(-1.947 3.92754 0)
(-2.28149 3.56237 0)
(-2.62293 3.15643 0)
(-2.96788 2.71009 0)
(-3.31097 2.22496 0)
(-3.64407 1.706 0)
(-3.95651 1.16083 0)
(-4.24498 0.603913 0)
(-4.52325 0.0551746 0)
(-4.7513 -0.449434 0)
(-4.98091 -0.902208 0)
(-5.20821 -1.30628 0)
(-5.43413 -1.64712 0)
(-5.66421 -1.89544 0)
(-5.83412 -2.01787 0)
(0.0791301 5.09879 0)
(0.372573 5.17942 0)
(0.621635 5.16157 0)
(0.879809 5.23866 0)
(1.02451 5.33685 0)
(1.09454 5.42026 0)
(1.09722 5.4755 0)
(1.04518 5.49623 0)
(0.946281 5.47848 0)
(0.805224 5.41852 0)
(0.629479 5.31569 0)
(0.423924 5.17001 0)
(0.19239 4.9809 0)
(-0.0618126 4.74674 0)
(-0.339239 4.4641 0)
(-0.628764 4.14123 0)
(-0.93135 3.77641 0)
(-1.24611 3.36869 0)
(-1.57127 2.91764 0)
(-1.90233 2.42574 0)
(-2.2313 1.89567 0)
(-2.54624 1.33507 0)
(-2.83889 0.764628 0)
(-3.11746 0.207212 0)
(-3.39049 -0.312278 0)
(-3.65014 -0.765213 0)
(-3.93003 -1.16957 0)
(-4.22649 -1.51858 0)
(-4.54134 -1.78102 0)
(-4.79232 -1.90089 0)
(9.99547 0.147327 0)
(9.98036 0.29295 0)
(9.95362 0.439004 0)
(9.91641 0.587442 0)
(9.86967 0.739916 0)
(9.81382 0.897944 0)
(9.74907 1.06298 0)
(9.67565 1.23645 0)
(9.59381 1.41972 0)
(9.5038 1.61419 0)
(9.40584 1.82121 0)
(9.30012 2.04222 0)
(9.18685 2.27868 0)
(9.06619 2.53213 0)
(8.93829 2.80427 0)
(8.80325 3.09694 0)
(8.66112 3.41226 0)
(8.51186 3.75272 0)
(8.35537 4.12131 0)
(8.19141 4.52178 0)
(8.01968 4.95893 0)
(7.83975 5.43914 0)
(7.65124 5.97111 0)
(7.45399 6.56711 0)
(7.24867 7.2452 0)
(7.0394 8.03331 0)
(6.83765 8.97791 0)
(6.72579 10.1598 0)
(7.06431 11.702 0)
(7.14678 14.1137 0)
(9.99596 0.152838 0)
(9.9825 0.303911 0)
(9.95869 0.455403 0)
(9.92559 0.609306 0)
(9.88411 0.767292 0)
(9.83467 0.930892 0)
(9.77753 1.10157 0)
(9.71298 1.28075 0)
(9.64133 1.46983 0)
(9.56291 1.67017 0)
(9.47803 1.88316 0)
(9.38702 2.11021 0)
(9.29023 2.35279 0)
(9.18801 2.61244 0)
(9.08073 2.89085 0)
(8.96879 3.18988 0)
(8.85263 3.51166 0)
(8.73275 3.85867 0)
(8.60974 4.23388 0)
(8.4844 4.641 0)
(8.35785 5.0847 0)
(8.23181 5.57103 0)
(8.10915 6.10801 0)
(7.9949 6.70643 0)
(7.89834 7.38098 0)
(7.83841 8.1514 0)
(7.84854 9.04259 0)
(7.97689 10.0808 0)
(8.46728 11.2068 0)
(8.76736 12.1532 0)
(9.99648 0.157824 0)
(9.98473 0.313824 0)
(9.96396 0.470221 0)
(9.93515 0.629032 0)
(9.89912 0.791937 0)
(9.85633 0.960472 0)
(9.80706 1.1361 0)
(9.75165 1.32023 0)
(9.69049 1.51425 0)
(9.62397 1.71952 0)
(9.55251 1.93739 0)
(9.47658 2.16925 0)
(9.39665 2.41654 0)
(9.31327 2.68076 0)
(9.22705 2.96354 0)
(9.13869 3.26668 0)
(9.04901 3.59219 0)
(8.959 3.9424 0)
(8.86994 4.32007 0)
(8.78351 4.72849 0)
(8.70205 5.17169 0)
(8.62893 5.65462 0)
(8.56922 6.18334 0)
(8.5307 6.76506 0)
(8.52533 7.40777 0)
(8.57155 8.11838 0)
(8.6949 8.89709 0)
(8.8984 9.73203 0)
(9.29994 10.5718 0)
(9.74552 11.2202 0)
(9.99701 0.162226 0)
(9.98703 0.322572 0)
(9.96941 0.483276 0)
(9.94501 0.646365 0)
(9.9146 0.813522 0)
(9.87863 0.986274 0)
(9.83743 1.16607 0)
(9.79138 1.3543 0)
(9.74094 1.55233 0)
(9.68656 1.76147 0)
(9.62877 1.98305 0)
(9.56813 2.2184 0)
(9.50529 2.46888 0)
(9.44096 2.73593 0)
(9.37596 3.02106 0)
(9.31128 3.32592 0)
(9.24806 3.65233 0)
(9.18774 4.00234 0)
(9.13213 4.37826 0)
(9.08357 4.78278 0)
(9.04519 5.21893 0)
(9.02127 5.69017 0)
(9.01766 6.20016 0)
(9.04241 6.75244 0)
(9.10623 7.34941 0)
(9.22256 7.99066 0)
(9.40965 8.66965 0)
(9.66982 9.37358 0)
(10.0656 10.094 0)
(10.6208 10.7268 0)
(9.99755 0.165994 0)
(9.98939 0.330055 0)
(9.97499 0.494419 0)
(9.9551 0.661111 0)
(9.93042 0.831804 0)
(9.9014 1.008 0)
(9.86841 1.19114 0)
(9.83187 1.38256 0)
(9.79229 1.5836 0)
(9.75019 1.79551 0)
(9.70618 2.01957 0)
(9.66093 2.25701 0)
(9.61521 2.50912 0)
(9.56989 2.7772 0)
(9.52598 3.06261 0)
(9.48468 3.3668 0)
(9.44742 3.69129 0)
(9.41595 4.03777 0)
(9.39243 4.40802 0)
(9.3796 4.80395 0)
(9.38094 5.22757 0)
(9.40094 5.6808 0)
(9.44535 6.16528 0)
(9.52144 6.68187 0)
(9.6381 7.22996 0)
(9.80568 7.80666 0)
(10.0383 8.40556 0)
(10.3429 9.01508 0)
(10.7428 9.62807 0)
(11.2919 10.1759 0)
(9.99811 0.169079 0)
(9.99179 0.336175 0)
(9.98065 0.503506 0)
(9.96534 0.673081 0)
(9.94646 0.846548 0)
(9.92447 1.02539 0)
(9.89977 1.21098 0)
(9.8728 1.40466 0)
(9.84412 1.60766 0)
(9.81432 1.82121 0)
(9.78408 2.04647 0)
(9.75414 2.2846 0)
(9.72538 2.53675 0)
(9.6988 2.80406 0)
(9.67555 3.08771 0)
(9.65698 3.38889 0)
(9.64472 3.70882 0)
(9.64069 4.04872 0)
(9.64724 4.40982 0)
(9.66723 4.79329 0)
(9.70417 5.20014 0)
(9.76234 5.63104 0)
(9.84692 6.0861 0)
(9.96411 6.56448 0)
(10.1211 7.06392 0)
(10.3256 7.58017 0)
(10.5871 8.10632 0)
(10.911 8.63012 0)
(11.2996 9.13977 0)
(11.8085 9.59705 0)
(9.99866 0.171436 0)
(9.9942 0.340843 0)
(9.98636 0.510406 0)
(9.97565 0.682101 0)
(9.96261 0.857543 0)
(9.94766 1.03817 0)
(9.93125 1.22532 0)
(9.91384 1.42026 0)
(9.89601 1.62417 0)
(9.87842 1.83817 0)
(9.86177 2.06336 0)
(9.8469 2.30075 0)
(9.83475 2.55137 0)
(9.82639 2.81617 0)
(9.82308 3.09611 0)
(9.82627 3.39212 0)
(9.83766 3.70505 0)
(9.85924 4.0357 0)
(9.89338 4.38477 0)
(9.94285 4.75273 0)
(10.0109 5.13977 0)
(10.1015 5.5456 0)
(10.2189 5.96925 0)
(10.3682 6.40879 0)
(10.5546 6.86096 0)
(10.7835 7.32079 0)
(11.0601 7.78124 0)
(11.3876 8.23179 0)
(11.7617 8.6619 0)
(12.2353 9.05309 0)
(9.99922 0.173024 0)
(9.99661 0.343979 0)
(9.99206 0.515001 0)
(9.98595 0.688018 0)
(9.97872 0.864599 0)
(9.97079 1.04613 0)
(9.96259 1.2339 0)
(9.95463 1.42909 0)
(9.94751 1.63282 0)
(9.9419 1.84612 0)
(9.93855 2.06994 0)
(9.93834 2.30521 0)
(9.94224 2.55276 0)
(9.95139 2.81339 0)
(9.96707 3.0878 0)
(9.99075 3.37665 0)
(10.0241 3.68047 0)
(10.0692 3.99965 0)
(10.1281 4.33438 0)
(10.2036 4.6846 0)
(10.2984 5.04983 0)
(10.4158 5.4291 0)
(10.5594 5.82075 0)
(10.7328 6.22224 0)
(10.9399 6.62992 0)
(11.1839 7.03886 0)
(11.4675 7.44281 0)
(11.7922 7.83382 0)
(12.1522 8.20373 0)
(12.5955 8.54269 0)
(9.99977 0.173808 0)
(9.99901 0.345515 0)
(9.99772 0.517188 0)
(9.99616 0.690698 0)
(9.99467 0.867557 0)
(9.99365 1.0491 0)
(9.99353 1.23652 0)
(9.99484 1.43096 0)
(9.99817 1.63341 0)
(10.0042 1.84483 0)
(10.0137 2.06605 0)
(10.0276 2.29784 0)
(10.0469 2.54088 0)
(10.0726 2.79577 0)
(10.1061 3.06301 0)
(10.1488 3.34298 0)
(10.2023 3.63589 0)
(10.2685 3.94179 0)
(10.3493 4.26047 0)
(10.4472 4.59142 0)
(10.5644 4.93372 0)
(10.7036 5.28594 0)
(10.8676 5.64606 0)
(11.0589 6.0113 0)
(11.2799 6.37809 0)
(11.5326 6.74197 0)
(11.8181 7.09772 0)
(12.1368 7.43929 0)
(12.4826 7.76039 0)
(12.8986 8.05507 0)
(10.0003 0.173759 0)
(10.0014 0.345391 0)
(10.0033 0.516883 0)
(10.0062 0.690033 0)
(10.0103 0.86629 0)
(10.0161 1.04691 0)
(10.0238 1.23304 0)
(10.0341 1.4257 0)
(10.0476 1.62581 0)
(10.0648 1.8342 0)
(10.0866 2.0516 0)
(10.1139 2.27864 0)
(10.1476 2.51583 0)
(10.1889 2.76358 0)
(10.2388 3.02219 0)
(10.2989 3.29179 0)
(10.3706 3.57234 0)
(10.4555 3.86359 0)
(10.5554 4.16502 0)
(10.6722 4.47581 0)
(10.8079 4.79474 0)
(10.9645 5.12015 0)
(11.1439 5.44989 0)
(11.3479 5.78121 0)
(11.5779 6.11082 0)
(11.8348 6.43485 0)
(12.1188 6.74902 0)
(12.4294 7.04866 0)
(12.761 7.32903 0)
(13.1528 7.58639 0)
(10.0008 0.172854 0)
(10.0037 0.343562 0)
(10.0087 0.51402 0)
(10.016 0.685943 0)
(10.0256 0.860705 0)
(10.0378 1.03949 0)
(10.0532 1.22335 0)
(10.0722 1.41323 0)
(10.0953 1.60995 0)
(10.1232 1.81423 0)
(10.1567 2.02666 0)
(10.1965 2.24775 0)
(10.2437 2.47786 0)
(10.2993 2.71722 0)
(10.3643 2.96595 0)
(10.44 3.22397 0)
(10.5277 3.49103 0)
(10.6289 3.76665 0)
(10.7451 4.05009 0)
(10.8777 4.34033 0)
(11.0282 4.63599 0)
(11.1983 4.93533 0)
(11.3891 5.23622 0)
(11.6017 5.5361 0)
(11.8368 5.83205 0)
(12.0947 6.1208 0)
(12.3748 6.39887 0)
(12.6764 6.66271 0)
(12.9944 6.90879 0)
(13.3647 7.1347 0)
(10.0014 0.171076 0)
(10.0059 0.339995 0)
(10.0139 0.508554 0)
(10.0254 0.678373 0)
(10.0403 0.850745 0)
(10.0588 1.02677 0)
(10.0815 1.20742 0)
(10.1087 1.39354 0)
(10.1409 1.58586 0)
(10.1789 1.78498 0)
(10.2233 1.99138 0)
(10.2748 2.20543 0)
(10.3344 2.42736 0)
(10.403 2.65726 0)
(10.4815 2.89506 0)
(10.5711 3.14054 0)
(10.6729 3.39328 0)
(10.788 3.65263 0)
(10.9177 3.91772 0)
(11.0632 4.18741 0)
(11.2255 4.46028 0)
(11.4057 4.7346 0)
(11.6045 5.00838 0)
(11.8225 5.27931 0)
(12.0598 5.54485 0)
(12.3163 5.80231 0)
(12.5911 6.04891 0)
(12.8833 6.28194 0)
(13.1882 6.49879 0)
(13.5393 6.69784 0)
(10.0019 0.168414 0)
(10.008 0.334674 0)
(10.019 0.500461 0)
(10.0344 0.667297 0)
(10.0543 0.836389 0)
(10.0789 1.00875 0)
(10.1084 1.18527 0)
(10.1433 1.36669 0)
(10.1842 1.55364 0)
(10.2316 1.74662 0)
(10.286 1.94601 0)
(10.3483 2.15204 0)
(10.4191 2.36484 0)
(10.4993 2.58436 0)
(10.5898 2.8104 0)
(10.6915 3.04262 0)
(10.8054 3.28047 0)
(10.9323 3.52321 0)
(11.0731 3.76988 0)
(11.2288 4.01933 0)
(11.4001 4.27014 0)
(11.5876 4.52069 0)
(11.7916 4.76915 0)
(12.0124 5.0135 0)
(12.2498 5.2516 0)
(12.5032 5.48124 0)
(12.7718 5.70023 0)
(13.0544 5.90647 0)
(13.347 6.09806 0)
(13.6808 6.27387 0)
(10.0023 0.164867 0)
(10.01 0.327592 0)
(10.0237 0.489736 0)
(10.043 0.652719 0)
(10.0677 0.817653 0)
(10.0978 0.985469 0)
(10.1338 1.15695 0)
(10.176 1.33277 0)
(10.2248 1.51345 0)
(10.2808 1.69939 0)
(10.3444 1.89088 0)
(10.4164 2.08804 0)
(10.4973 2.29089 0)
(10.5879 2.49928 0)
(10.6889 2.71292 0)
(10.801 2.93137 0)
(10.925 3.154 0)
(11.0615 3.38002 0)
(11.2113 3.60846 0)
(11.3749 3.83817 0)
(11.5528 4.06782 0)
(11.7452 4.29592 0)
(11.9523 4.52085 0)
(12.1739 4.74085 0)
(12.4097 4.95416 0)
(12.6589 5.15896 0)
(12.9205 5.35354 0)
(13.1935 5.5363 0)
(13.4745 5.70581 0)
(13.7924 5.86131 0)
(10.0028 0.160439 0)
(10.012 0.318758 0)
(10.0282 0.476398 0)
(10.0511 0.634667 0)
(10.0802 0.794586 0)
(10.1156 0.956996 0)
(10.1575 1.1226 0)
(10.2064 1.29196 0)
(10.2626 1.46553 0)
(10.3264 1.64362 0)
(10.3983 1.82641 0)
(10.479 2.01396 0)
(10.5688 2.20618 0)
(10.6684 2.40285 0)
(10.7784 2.60361 0)
(10.8993 2.80796 0)
(11.0316 3.01523 0)
(11.176 3.22463 0)
(11.3327 3.43519 0)
(11.5022 3.64583 0)
(11.6846 3.85532 0)
(11.8801 4.06232 0)
(12.0884 4.26541 0)
(12.3092 4.46312 0)
(12.5421 4.65397 0)
(12.7862 4.83651 0)
(13.0406 5.00939 0)
(13.3042 5.17139 0)
(13.574 5.32143 0)
(13.8773 5.459 0)
(10.0032 0.155138 0)
(10.0137 0.308193 0)
(10.0324 0.460481 0)
(10.0586 0.613198 0)
(10.0918 0.76727 0)
(10.132 0.923453 0)
(10.1795 1.08236 0)
(10.2345 1.24447 0)
(10.2973 1.41016 0)
(10.3681 1.57966 0)
(10.4475 1.75306 0)
(10.5358 1.93036 0)
(10.6334 2.1114 0)
(10.7407 2.29591 0)
(10.8583 2.48347 0)
(10.9864 2.67355 0)
(11.1256 2.8655 0)
(11.276 3.05851 0)
(11.438 3.25168 0)
(11.6116 3.444 0)
(11.7969 3.63436 0)
(11.9937 3.82158 0)
(12.2018 4.00445 0)
(12.4207 4.18172 0)
(12.6498 4.35219 0)
(12.8882 4.5147 0)
(13.1351 4.66817 0)
(13.3895 4.81169 0)
(13.6486 4.94443 0)
(13.9384 5.06607 0)
(10.0036 0.148982 0)
(10.0154 0.295931 0)
(10.0363 0.442039 0)
(10.0655 0.58839 0)
(10.1025 0.735816 0)
(10.1472 0.884987 0)
(10.1997 1.03643 0)
(10.2601 1.19057 0)
(10.3288 1.34768 0)
(10.406 1.50792 0)
(10.4919 1.67135 0)
(10.5868 1.83787 0)
(10.691 2.0073 0)
(10.8049 2.17931 0)
(10.9288 2.35349 0)
(11.0628 2.52928 0)
(11.2073 2.70604 0)
(11.3623 2.88302 0)
(11.528 3.05936 0)
(11.7042 3.23416 0)
(11.8909 3.40643 0)
(12.0878 3.57515 0)
(12.2946 3.73929 0)
(12.5106 3.89782 0)
(12.7352 4.04974 0)
(12.9676 4.19414 0)
(13.207 4.33017 0)
(13.4523 4.45713 0)
(13.7013 4.57442 0)
(13.9784 4.6818 0)
(10.0039 0.141991 0)
(10.0169 0.282015 0)
(10.0398 0.42114 0)
(10.0718 0.56034 0)
(10.1123 0.700356 0)
(10.1609 0.841778 0)
(10.2179 0.985058 0)
(10.2833 1.13054 0)
(10.3573 1.27843 0)
(10.4399 1.42885 0)
(10.5315 1.58179 0)
(10.6321 1.73711 0)
(10.7419 1.8946 0)