/*--------------------------------*- C++ -*----------------------------------*\
  =========                 |
  \\      /  F ield         | OpenFOAM: The Open Source CFD Toolbox
   \\    /   O peration     | Website:  https://openfoam.org
    \\  /    A nd           | Version:  7
     \\/     M anipulation  |
\*---------------------------------------------------------------------------*/
FoamFile
{
    version     2.0;
    format      ascii;
    class       surfaceVectorField;
    location    "1";
    object      Uf;
}
// * * * * * * * * * * * * * * * * * * * * * * * * * * * * * * * * * * * * * //

dimensions      [0 1 -1 0 0 0 0];

internalField   nonuniform List<vector> 
5457
(
(9.91968 0.0255413 0)
(9.97076 0.0393352 0)
(9.82049 0.0335551 0)
(9.9265 0.0497513 0)
(9.70269 0.0403345 0)
(9.85056 0.0605101 0)
(9.56414 0.0473228 0)
(9.74795 0.0728958 0)
(9.40481 0.0545418 0)
(9.6238 0.0858577 0)
(9.22488 0.0620303 0)
(9.47915 0.099298 0)
(9.02415 0.0699314 0)
(9.31335 0.113458 0)
(8.80206 0.0783913 0)
(9.12562 0.128574 0)
(8.55777 0.0875371 0)
(8.91526 0.144839 0)
(8.2903 0.0974888 0)
(8.68142 0.162423 0)
(7.99848 0.108367 0)
(8.42303 0.181495 0)
(7.68102 0.120292 0)
(8.13888 0.202219 0)
(7.33653 0.133383 0)
(7.8276 0.224741 0)
(6.96361 0.147747 0)
(7.48776 0.249181 0)
(6.56088 0.163469 0)
(7.11792 0.275605 0)
(6.12714 0.180599 0)
(6.71671 0.304001 0)
(5.66154 0.199121 0)
(6.28298 0.334232 0)
(5.16375 0.218927 0)
(5.81598 0.365985 0)
(4.63425 0.239779 0)
(5.31558 0.398708 0)
(4.0747 0.261256 0)
(4.78257 0.431535 0)
(3.48825 0.282709 0)
(4.21903 0.463218 0)
(2.87998 0.30322 0)
(3.62875 0.49207 0)
(2.25723 0.321656 0)
(3.01766 0.515974 0)
(1.62956 0.337365 0)
(2.39433 0.532635 0)
(1.00694 0.353761 0)
(1.76972 0.54112 0)
(0.390487 0.329187 0)
(1.17248 0.548731 0)
(-0.173648 0.0898281 0)
(0.549511 0.514302 0)
(-0.428623 -0.196067 0)
(0.0698748 0.238075 0)
(-0.393741 -0.343176 0)
(-0.145705 -0.0333582 0)
(-0.12147 -0.385645 0)
(9.9952 0.0529861 0)
(9.99657 0.0416853 0)
(9.95523 0.0730448 0)
(9.97643 0.0698 0)
(9.89126 0.0910219 0)
(9.92888 0.0933697 0)
(9.80519 0.109845 0)
(9.85574 0.118183 0)
(9.69685 0.129573 0)
(9.76075 0.144233 0)
(9.56619 0.150252 0)
(9.64505 0.171406 0)
(9.41297 0.172176 0)
(9.50824 0.200067 0)
(9.23663 0.195667 0)
(9.3497 0.230655 0)
(9.03641 0.221005 0)
(9.16877 0.263555 0)
(8.8113 0.248446 0)
(8.96471 0.299118 0)
(8.56016 0.278238 0)
(8.73656 0.337691 0)
(8.28168 0.310615 0)
(8.48317 0.379611 0)
(7.97443 0.345778 0)
(8.20326 0.425191 0)
(7.63692 0.383869 0)
(7.89545 0.474693 0)
(7.26769 0.424933 0)
(7.55828 0.528282 0)
(6.86539 0.468864 0)
(7.19032 0.585972 0)
(6.42894 0.515337 0)
(6.79029 0.647539 0)
(5.95774 0.563713 0)
(6.35715 0.712417 0)
(5.45196 0.612945 0)
(5.89037 0.779561 0)
(4.91285 0.661457 0)
(5.39018 0.847298 0)
(4.34322 0.707038 0)
(4.85796 0.913152 0)
(3.74788 0.746759 0)
(4.29667 0.973687 0)
(3.13427 0.77696 0)
(3.71143 1.02437 0)
(2.51345 0.793425 0)
(3.11044 1.05946 0)
(1.9031 0.791785 0)
(2.50577 1.07158 0)
(1.34139 0.750995 0)
(1.92108 1.04872 0)
(0.872932 0.613954 0)
(1.35907 0.941384 0)
(0.397603 0.341816 0)
(0.888645 0.681899 0)
(0.0447383 -0.142261 0)
(0.414616 0.304089 0)
(0.158306 -0.341826 0)
(9.98784 0.0616419 0)
(9.99434 0.0476378 0)
(9.95085 0.0931364 0)
(9.97163 0.0883564 0)
(9.89046 0.123114 0)
(9.925 0.124391 0)
(9.80933 0.154363 0)
(9.85488 0.160868 0)
(9.70785 0.187216 0)
(9.76391 0.198916 0)
(9.58594 0.221826 0)
(9.65324 0.238684 0)
(9.44343 0.258605 0)
(9.52278 0.280618 0)
(9.27995 0.298029 0)
(9.37207 0.3253 0)
(9.09488 0.340544 0)
(9.20066 0.373285 0)
(8.88742 0.386576 0)
(9.00798 0.425094 0)
(8.65662 0.436543 0)
(8.79329 0.481241 0)
(8.40132 0.490846 0)
(8.55571 0.542231 0)
(8.12027 0.549843 0)
(8.2942 0.608545 0)
(7.81211 0.613806 0)
(8.00763 0.680601 0)
(7.47541 0.68286 0)
(7.69479 0.758699 0)
(7.10877 0.756895 0)
(7.35441 0.842945 0)
(6.71093 0.835453 0)
(6.98529 0.933128 0)
(6.28091 0.91757 0)
(6.58631 1.02857 0)
(5.81827 1.0016 0)
(6.15665 1.12793 0)
(5.32337 1.08501 0)
(5.69598 1.22897 0)
(4.79786 1.16412 0)
(5.20475 1.32823 0)
(4.24519 1.23393 0)
(4.68461 1.42078 0)
(3.67138 1.28772 0)
(4.13896 1.4998 0)
(3.08625 1.3166 0)
(3.57372 1.55599 0)
(2.50543 1.30785 0)
(2.99779 1.57638 0)
(1.95141 1.2349 0)
(2.42611 1.54186 0)
(1.43038 1.05204 0)
(1.86567 1.41639 0)
(0.920023 0.726009 0)
(1.33486 1.15843 0)
(0.45452 0.170814 0)
(0.80035 0.749252 0)
(0.407974 0.103348 0)
(9.98397 0.0746902 0)
(9.99319 0.0554882 0)
(9.9469 0.118717 0)
(9.96882 0.106948 0)
(9.88754 0.161187 0)
(9.92207 0.154886 0)
(9.8077 0.204534 0)
(9.85317 0.202871 0)
(9.70814 0.2496 0)
(9.76402 0.252565 0)
(9.58891 0.296837 0)
(9.65565 0.304485 0)
(9.44993 0.346825 0)
(9.52812 0.359176 0)
(9.29097 0.400205 0)
(9.38112 0.417321 0)
(9.11165 0.457598 0)
(9.21434 0.479607 0)
(8.91142 0.519606 0)
(9.02735 0.546688 0)
(8.68958 0.586818 0)
(8.81964 0.61921 0)
(8.44534 0.659809 0)
(8.59055 0.697807 0)
(8.1778 0.739106 0)
(8.33935 0.783091 0)
(7.88595 0.825141 0)
(8.06522 0.875609 0)
(7.56873 0.918181 0)
(7.76727 0.975783 0)
(7.22506 1.01821 0)
(7.44458 1.08382 0)
(6.85386 1.1248 0)
(7.09621 1.19959 0)
(6.4542 1.23689 0)
(6.72124 1.32241 0)
(6.02537 1.35254 0)
(6.31884 1.45084 0)
(5.56714 1.46861 0)
(5.88839 1.58236 0)
(5.08008 1.58045 0)
(5.42963 1.71295 0)
(4.56595 1.68144 0)
(4.94297 1.8367 0)
(4.02832 1.76245 0)
(4.4298 1.94525 0)
(3.47314 1.81104 0)
(3.89297 2.02711 0)
(2.90892 1.81003 0)
(3.33683 2.06675 0)
(2.34507 1.73275 0)
(2.76821 2.04377 0)
(1.78344 1.54412 0)
(2.19047 1.92841 0)
(1.21783 1.22026 0)
(1.60873 1.68655 0)
(0.640973 0.736975 0)
(0.992092 1.3009 0)
(0.499606 0.731141 0)
(9.98219 0.0883546 0)
(9.99269 0.0642115 0)
(9.94472 0.143364 0)
(9.96753 0.125737 0)
(9.88632 0.197082 0)
(9.92091 0.184888 0)
(9.80794 0.251664 0)
(9.85331 0.244109 0)
(9.71033 0.308303 0)
(9.76618 0.305161 0)
(9.59365 0.367701 0)
(9.66034 0.36888 0)
(9.45783 0.430546 0)
(9.53589 0.435947 0)
(9.30269 0.497571 0)
(9.39261 0.50713 0)
(9.12795 0.569499 0)
(9.23022 0.583215 0)
(8.93318 0.647034 0)
(9.04841 0.664964 0)
(8.71786 0.730869 0)
(8.84675 0.753124 0)
(8.4814 0.821674 0)
(8.62474 0.848427 0)
(8.22315 0.920079 0)
(8.3818 0.951576 0)
(7.94238 1.02662 0)
(8.11732 1.06321 0)
(7.63836 1.14165 0)
(7.83063 1.18384 0)
(7.3103 1.26525 0)
(7.52105 1.31376 0)
(6.9574 1.39706 0)
(7.18786 1.45292 0)
(6.57887 1.53602 0)
(6.8303 1.60071 0)
(6.17397 1.68013 0)
(6.44758 1.75573 0)
(5.74209 1.82601 0)
(6.0389 1.91543 0)
(5.2829 1.96851 0)
(5.60345 2.07564 0)
(4.7966 2.10013 0)
(5.14055 2.23011 0)
(4.28412 2.21044 0)
(4.64973 2.36986 0)
(3.74736 2.28532 0)
(4.13099 2.48259 0)
(3.18894 2.30633 0)
(3.58465 2.55208 0)
(2.61135 2.24903 0)
(3.01185 2.5579 0)
(2.01305 2.08468 0)
(2.41188 2.47386 0)
(1.38624 1.79266 0)
(1.78572 2.27182 0)
(0.718611 1.34805 0)
(1.09809 1.93936 0)
(0.522451 1.43498 0)
(9.98146 0.102315 0)
(9.99252 0.0732925 0)
(9.94396 0.16774 0)
(9.9672 0.144547 0)
(9.88672 0.23239 0)
(9.92113 0.214291 0)
(9.8102 0.298116 0)
(9.85511 0.284366 0)
(9.71501 0.366225 0)
(9.77038 0.356454 0)
(9.60135 0.437587 0)
(9.66754 0.431608 0)
(9.46918 0.512987 0)
(9.5467 0.510655 0)
(9.31835 0.593244 0)
(9.40768 0.594447 0)
(9.14861 0.679175 0)
(9.25027 0.683856 0)
(8.95961 0.77158 0)
(9.0742 0.779735 0)
(8.75092 0.871243 0)
(8.87909 0.882918 0)
(8.52204 0.978924 0)
(8.66451 0.994216 0)
(8.27245 1.09533 0)
(8.42998 1.11441 0)
(8.00157 1.22108 0)
(8.17495 1.2442 0)
(7.70881 1.35662 0)
(7.89887 1.38419 0)
(7.39353 1.5021 0)
(7.60114 1.53474 0)
(7.05507 1.65724 0)
(7.2811 1.69588 0)
(6.69268 1.8211 0)
(6.93802 1.86714 0)
(6.30553 1.99173 0)
(6.57103 2.04726 0)
(5.89265 2.16584 0)
(6.17907 2.23384 0)
(5.45295 2.33823 0)
(5.76081 2.42295 0)
(4.9852 2.50126 0)
(5.31458 2.60851 0)
(4.48812 2.64421 0)
(4.83835 2.78171 0)
(3.96037 2.75272 0)
(4.32974 2.93043 0)
(3.40047 2.80848 0)
(3.78599 3.0387 0)
(2.80649 2.78891 0)
(3.20434 3.08663 0)
(2.17422 2.66858 0)
(2.58087 3.05028 0)
(1.49702 2.42843 0)
(1.9161 2.90413 0)
(0.769534 2.0387 0)
(1.17142 2.63506 0)
(0.536831 2.18869 0)
(9.98132 0.116313 0)
(9.99254 0.0824401 0)
(9.94422 0.191728 0)
(9.96749 0.163154 0)
(9.8884 0.266856 0)
(9.92239 0.242969 0)
(9.8141 0.34333 0)
(9.85827 0.323458 0)
(9.72177 0.422496 0)
(9.77628 0.406203 0)
(9.61164 0.505364 0)
(9.67691 0.492387 0)
(9.4837 0.592836 0)
(9.56021 0.582969 0)
(9.33783 0.685818 0)
(9.42608 0.678892 0)
(9.17381 0.785215 0)
(9.27434 0.781106 0)
(8.99133 0.891912 0)
(9.10475 0.890546 0)
(8.79002 1.00677 0)
(8.91698 1.00813 0)
(8.56942 1.13063 0)
(8.71065 1.13473 0)
(8.32906 1.26426 0)
(8.4853 1.27122 0)
(8.06841 1.40834 0)
(8.24043 1.41836 0)
(7.78691 1.56341 0)
(7.97549 1.57683 0)
(7.48393 1.7297 0)
(7.68987 1.74709 0)
(7.15878 1.90707 0)
(7.38287 1.92929 0)
(6.8106 2.09471 0)
(7.05362 2.12313 0)
(6.43833 2.29094 0)
(6.70106 2.32758 0)
(6.04057 2.49274 0)
(6.32376 2.54061 0)
(5.61544 2.6953 0)
(5.9198 2.75874 0)
(5.16053 2.89143 0)
(5.48661 2.97652 0)
(4.67271 3.07091 0)
(5.02077 3.18589 0)
(4.14818 3.21995 0)
(4.51797 3.37555 0)
(3.58247 3.3209 0)
(3.97299 3.53036 0)
(2.9707 3.35234 0)
(3.38022 3.63118 0)
(2.30741 3.28995 0)
(2.73319 3.65498 0)
(1.58806 3.11377 0)
(2.03326 3.5758 0)
(0.812947 2.78495 0)
(1.23854 3.37631 0)
(0.552743 2.98492 0)
(9.98155 0.130137 0)
(9.99269 0.0914744 0)
(9.94525 0.215152 0)
(9.96822 0.181361 0)
(9.89112 0.300291 0)
(9.92444 0.270777 0)
(9.81936 0.387077 0)
(9.86254 0.361213 0)
(9.73032 0.476875 0)
(9.78365 0.454181 0)
(9.62422 0.570801 0)
(9.68816 0.550942 0)
(9.50109 0.669865 0)
(9.57613 0.652569 0)
(9.36082 0.775055 0)
(9.44747 0.760091 0)
(9.20325 0.887354 0)
(9.30207 0.874536 0)
(9.02808 1.00773 0)
(9.1397 0.996914 0)
(8.835 1.13711 0)
(8.9601 1.12822 0)
(8.62358 1.27641 0)
(8.76289 1.2694 0)
(8.39336 1.42649 0)
(8.54767 1.42141 0)
(8.14382 1.5881 0)
(8.31393 1.5851 0)
(7.87437 1.76186 0)
(8.0611 1.76123 0)
(7.58431 1.94815 0)
(7.78853 1.95039 0)
(7.27281 2.14698 0)
(7.49538 2.1529 0)
(6.93879 2.3578 0)
(7.18063 2.3687 0)
(6.58086 2.57928 0)
(6.84291 2.5971 0)
(6.19708 2.80892 0)
(6.48037 2.83658 0)
(5.78484 3.0426 0)
(6.09048 3.08435 0)
(5.34057 3.274 0)
(5.66976 3.33592 0)
(4.8596 3.49396 0)
(5.21354 3.58439 0)
(4.33608 3.6898 0)
(4.71581 3.8198 0)
(3.76314 3.8448 0)
(4.16915 4.0283 0)
(3.13357 3.93811 0)
(3.5654 4.19159 0)
(2.44079 3.94481 0)
(2.89544 4.28657 0)
(1.68146 3.84143 0)
(2.16097 4.2848 0)
(0.859608 3.57696 0)
(1.31597 4.16225 0)
(0.575942 3.82685 0)
(9.98203 0.143627 0)
(9.99292 0.100274 0)
(9.94685 0.237853 0)
(9.96928 0.199007 0)
(9.8947 0.332537 0)
(9.92712 0.297568 0)
(9.82579 0.429172 0)
(9.86775 0.397465 0)
(9.74044 0.529134 0)
(9.79229 0.500176 0)
(9.63883 0.633627 0)
(9.70109 0.607016 0)
(9.52103 0.743749 0)
(9.5942 0.719151 0)
(9.38699 0.860569 0)
(9.47157 0.837693 0)
(9.23654 0.985144 0)
(9.33312 0.96374 0)
(9.06945 1.11851 0)
(9.17868 1.09837 0)
(8.88544 1.26168 0)
(9.00801 1.24266 0)
(8.68411 1.41565 0)
(8.82079 1.39765 0)
(8.46503 1.58136 0)
(8.61664 1.56434 0)
(8.22766 1.75967 0)
(8.39506 1.74371 0)
(7.97137 1.95131 0)
(8.15548 1.93662 0)
(7.69535 2.15683 0)
(7.89716 2.14385 0)
(7.39862 2.37648 0)
(7.61919 2.36591 0)
(7.07986 2.61004 0)
(7.32033 2.60306 0)
(6.73727 2.85667 0)
(6.99895 2.85507 0)
(6.3684 3.11456 0)
(6.65276 3.12105 0)
(5.96987 3.38054 0)
(6.27867 3.39914 0)
(5.53707 3.64953 0)
(5.87235 3.68604 0)
(5.0639 3.91386 0)
(5.42798 3.97644 0)
(4.54258 4.16239 0)
(4.93791 4.26218 0)
(3.9639 4.37969 0)
(4.3925 4.53124 0)
(3.31803 4.54524 0)
(3.78076 4.7665 0)
(2.59624 4.63238 0)
(3.0898 4.9446 0)
(1.79447 4.61205 0)
(2.3198 5.03344 0)
(0.918683 4.41797 0)
(1.41852 4.99976 0)
(0.612428 4.72664 0)
(9.98269 0.156658 0)
(9.99322 0.108752 0)
(9.94889 0.259687 0)
(9.97058 0.215958 0)
(9.89899 0.363442 0)
(9.9303 0.323203 0)
(9.83324 0.469429 0)
(9.87376 0.432055 0)
(9.75193 0.579049 0)
(9.80204 0.543993 0)
(9.65524 0.693568 0)
(9.7155 0.660374 0)
(9.54328 0.814166 0)
(9.61419 0.782438 0)
(9.416 0.941986 0)
(9.49809 0.911372 0)
(9.27332 1.07815 0)
(9.36716 1.04834 0)
(9.11503 1.22377 0)
(9.22128 1.1945 0)
(8.94088 1.37995 0)
(9.06027 1.35097 0)
(8.75053 1.54774 0)
(8.88385 1.51889 0)
(8.54357 1.72818 0)
(8.69167 1.69936 0)
(8.31947 1.92227 0)
(8.48328 1.89345 0)
(8.07756 2.13089 0)
(8.2581 2.10218 0)
(7.81697 2.35479 0)
(8.01538 2.32649 0)
(7.53657 2.59451 0)
(7.75412 2.56719 0)
(7.23483 2.85028 0)
(7.47297 2.82491 0)
(6.90962 3.12184 0)
(7.17008 3.09995 0)
(6.55803 3.40825 0)
(6.84286 3.3922 0)
(6.17601 3.70752 0)
(6.48774 3.70089 0)
(5.758 4.01613 0)
(6.09973 4.0242 0)
(5.29655 4.32835 0)
(5.672 4.35878 0)
(4.78195 4.63517 0)
(5.19537 4.69886 0)
(4.2023 4.92305 0)
(4.65783 5.03502 0)
(3.54413 5.17225 0)
(4.04483 5.35236 0)
(2.79446 5.35416 0)
(3.33797 5.62805 0)
(1.94523 5.43252 0)
(2.53228 5.82638 0)
(1.00119 5.32166 0)
(1.56469 5.90255 0)
(0.671213 5.70725 0)
(9.98348 0.169132 0)
(9.99356 0.116842 0)
(9.95129 0.280529 0)
(9.97207 0.232104 0)
(9.90388 0.392863 0)
(9.93391 0.347555 0)
(9.84157 0.50768 0)
(9.88044 0.464838 0)
(9.76463 0.626412 0)
(9.81276 0.585456 0)
(9.67325 0.750379 0)
(9.73121 0.710802 0)
(9.56756 0.880828 0)
(9.63586 0.842178 0)
(9.44757 1.01897 0)
(9.52674 0.980836 0)
(9.31322 1.16599 0)
(9.40384 1.128 0)
(9.16437 1.32307 0)
(9.26711 1.28488 0)
(9.00082 1.49138 0)
(9.11641 1.45269 0)
(8.82229 1.67207 0)
(8.95152 1.63262 0)
(8.62839 1.86627 0)
(8.77217 1.82586 0)
(8.41864 2.07512 0)
(8.57794 2.0336 0)
(8.19236 2.29966 0)
(8.3683 2.25703 0)
(7.94868 2.5409 0)
(8.14252 2.49728 0)
(7.6864 2.79973 0)
(7.89961 2.75547 0)
(7.40385 3.07686 0)
(7.6382 3.03264 0)
(7.09872 3.37275 0)
(7.35633 3.32971 0)
(6.76778 3.68743 0)
(7.05132 3.64742 0)
(6.40653 4.02032 0)
(6.71934 3.98623 0)
(6.00867 4.3698 0)
(6.35505 4.34606 0)
(5.56559 4.73256 0)
(5.95092 4.72588 0)
(5.06572 5.10255 0)
(5.49655 5.12305 0)
(4.49398 5.46933 0)
(4.97765 5.53192 0)
(3.83191 5.81542 0)
(4.37556 5.94169 0)
(3.05902 6.11163 0)
(3.66414 6.33267 0)
(2.15757 6.31423 0)
(2.82788 6.66808 0)
(1.1239 6.31238 0)
(1.78308 6.89105 0)
(0.768764 6.80805 0)
(9.98438 0.18097 0)
(9.99394 0.124493 0)
(9.95397 0.30027 0)
(9.97373 0.247356 0)
(9.90928 0.42067 0)
(9.93785 0.37051 0)
(9.85066 0.543771 0)
(9.88769 0.495682 0)
(9.77837 0.671038 0)
(9.8243 0.624406 0)
(9.69265 0.803838 0)
(9.74804 0.75811 0)
(9.59364 0.943477 0)
(9.65901 0.898146 0)
(9.48138 1.09122 0)
(9.55726 1.04582 0)
(9.35588 1.24832 0)
(9.44284 1.20241 0)
(9.21706 1.41601 0)
(9.31577 1.36918 0)
(9.06478 1.59552 0)
(9.17596 1.5474 0)
(8.89881 1.7881 0)
(9.02327 1.73834 0)
(8.71884 1.99498 0)
(8.8575 1.94326 0)
(8.52445 2.21742 0)
(8.67832 2.16349 0)
(8.31504 2.45667 0)
(8.48528 2.40034 0)
(8.08976 2.71399 0)
(8.27774 2.65518 0)
(7.84744 2.99064 0)
(8.0548 2.92942 0)
(7.58645 3.28785 0)
(7.81517 3.22453 0)
(7.30445 3.60684 0)
(7.55701 3.54205 0)
(6.99816 3.94874 0)
(7.27773 3.88364 0)
(6.66293 4.31451 0)
(6.97363 4.25102 0)
(6.29216 4.70471 0)
(6.63942 4.646 0)
(5.87655 5.11903 0)
(6.26752 5.07023 0)
(5.40303 5.55542 0)
(5.84703 5.52487 0)
(4.85342 6.00839 0)
(5.36216 6.0096 0)
(4.20308 6.46589 0)
(4.79052 6.52058 0)
(3.42015 6.90251 0)
(4.097 7.04644 0)
(2.46781 7.27085 0)
(3.24907 7.55729 0)
(1.31717 7.42954 0)
(2.12414 7.99142 0)
(0.939582 8.09813 0)
(9.98536 0.192108 0)
(9.99435 0.131663 0)
(9.95688 0.318817 0)
(9.9755 0.261637 0)
(9.9151 0.446749 0)
(9.94208 0.391972 0)
(9.86038 0.577565 0)
(9.89541 0.524472 0)
(9.79302 0.712763 0)
(9.83654 0.660705 0)
(9.71326 0.853751 0)
(9.76583 0.802132 0)
(9.62126 1.00188 0)
(9.6834 0.950145 0)
(9.51714 1.15847 0)
(9.58936 1.1061 0)
(9.40094 1.32481 0)
(9.48382 1.27131 0)
(9.27265 1.5022 0)
(9.36684 1.44709 0)
(9.1322 1.69193 0)
(9.23842 1.63475 0)
(8.97947 1.89532 0)
(9.09851 1.83563 0)
(8.81422 2.11369 0)
(8.94698 2.05107 0)
(8.63612 2.34844 0)
(8.78363 2.28249 0)
(8.44469 2.601 0)
(8.60814 2.53134 0)
(8.23922 2.87286 0)
(8.42001 2.7992 0)
(8.01867 3.16566 0)
(8.21852 3.08774 0)
(7.78157 3.48116 0)
(8.00261 3.39884 0)
(7.52583 3.8213 0)
(7.77073 3.73463 0)
(7.2484 4.18833 0)
(7.52067 4.09759 0)
(6.94496 4.58479 0)
(7.24924 4.4907 0)
(6.60923 5.01357 0)
(6.95181 4.91759 0)
(6.23208 5.47781 0)
(6.62163 5.38272 0)
(5.80006 5.98051 0)
(6.24865 5.89148 0)
(5.2931 6.52353 0)
(5.81754 6.45019 0)
(4.681 7.10517 0)
(5.30484 7.06543 0)
(3.91798 7.71332 0)
(4.66909 7.74207 0)
(2.93587 8.31218 0)
(3.85864 8.4743 0)
(1.64413 8.73836 0)
(2.6858 9.22672 0)
(1.26512 9.70845 0)
(9.98641 0.202493 0)
(9.99478 0.138321 0)
(9.95999 0.33609 0)
(9.97738 0.274888 0)
(9.92127 0.471003 0)
(9.94654 0.41186 0)
(9.87065 0.608946 0)
(9.90353 0.551107 0)
(9.80842 0.75145 0)
(9.84935 0.694233 0)
(9.73487 0.899958 0)
(9.78441 0.842727 0)
(9.65018 1.05586 0)
(9.70884 0.998012 0)
(9.55452 1.22051 0)
(9.6228 1.16147 0)
(9.448 1.39524 0)
(9.52645 1.33447 0)
(9.33067 1.58139 0)
(9.41992 1.51834 0)
(9.20256 1.7803 0)
(9.3033 1.71443 0)
(9.06362 1.99335 0)
(9.17662 1.92413 0)
(8.91375 2.22194 0)
(9.03989 2.14885 0)
(8.75275 2.46759 0)
(8.89303 2.39006 0)
(8.58029 2.73186 0)
(8.73587 2.64936 0)
(8.39586 3.01649 0)
(8.56814 2.92846 0)
(8.19869 3.32342 0)
(8.38937 3.22928 0)
(7.98764 3.65487 0)
(8.19884 3.55401 0)
(7.76105 4.01345 0)
(7.99548 3.90525 0)
(7.51651 4.40237 0)
(7.77772 4.28618 0)
(7.25052 4.82563 0)
(7.54328 4.7008 0)
(6.95793 5.28834 0)
(7.28885 5.15429 0)
(6.63106 5.7971 0)
(7.00954 5.65354 0)
(6.25816 6.36051 0)
(6.69797 6.20792 0)
(5.82052 6.98967 0)
(6.34259 6.83055 0)
(5.28702 7.69884 0)
(5.9249 7.54031 0)
(4.60272 8.50437 0)
(5.40859 8.36593 0)
(3.66304 9.42212 0)
(4.74214 9.3517 0)
(2.25489 10.355 0)
(3.67862 10.5733 0)
(1.96741 11.917 0)
(9.9875 0.212084 0)
(9.99523 0.14444 0)
(9.96324 0.352025 0)
(9.97933 0.287059 0)
(9.92772 0.493341 0)
(9.95118 0.430106 0)
(9.88135 0.637794 0)
(9.91196 0.575505 0)
(9.82445 0.786945 0)
(9.86265 0.724893 0)
(9.75731 0.942263 0)
(9.80366 0.87978 0)
(9.68017 1.10517 0)
(9.73517 1.04161 0)
(9.59325 1.27704 0)
(9.65739 1.21179 0)
(9.49671 1.45924 0)
(9.57054 1.39171 0)
(9.39068 1.65314 0)
(9.47482 1.58272 0)
(9.27529 1.86012 0)
(9.3704 1.7862 0)
(9.15059 2.08159 0)
(9.25744 2.00356 0)
(9.01663 2.31902 0)
(9.13604 2.23624 0)
(8.87337 2.574 0)
(9.00631 2.48579 0)
(8.72067 2.84823 0)
(8.86827 2.75386 0)
(8.5583 3.1436 0)
(8.72188 3.04227 0)
(8.38582 3.46228 0)
(8.56702 3.35309 0)
(8.20257 3.80683 0)
(8.40339 3.68873 0)
(8.00754 4.18036 0)
(8.23054 4.05211 0)
(7.79925 4.58681 0)
(8.04776 4.44682 0)
(7.57552 5.03125 0)
(7.85401 4.87752 0)
(7.33317 5.5205 0)
(7.64782 5.35034 0)
(7.06747 6.06392 0)
(7.4271 5.87369 0)
(6.77106 6.67481 0)
(7.18898 6.45945 0)
(6.43201 7.37299 0)
(6.92933 7.12522 0)
(6.02921 8.19006 0)
(6.64307 7.89886 0)
(5.52091 9.182 0)
(6.3208 8.82932 0)
(4.80734 10.4779 0)
(5.98138 10.018 0)
(3.56291 12.5032 0)
(5.66594 11.7634 0)
(4.75621 15.4066 0)
(0.17521 -0.0972212 0)
(-0.0484821 -0.171607 0)
(0.102245 0.0603289 0)
(-0.113549 0.0697761 0)
(-0.135679 0.156403 0)
(-0.418377 0.222155 0)
(-0.489329 0.208738 0)
(-0.800061 0.322411 0)
(-0.92462 0.23741 0)
(-1.26067 0.387468 0)
(-1.41795 0.251794 0)
(-1.77633 0.428762 0)
(-1.95197 0.256651 0)
(-2.33158 0.453157 0)
(-2.51294 0.254668 0)
(-2.91366 0.464791 0)
(-3.08938 0.24751 0)
(-3.51162 0.466321 0)
(-3.67121 0.236277 0)
(-4.11581 0.459567 0)
(-4.24928 0.221733 0)
(-4.71741 0.445817 0)
(-4.81502 0.204425 0)
(-5.30815 0.426001 0)
(-5.36017 0.184747 0)
(-5.88007 0.400797 0)
(-5.87658 0.16299 0)
(-6.42532 0.370702 0)
(-6.35609 0.139361 0)
(-6.93604 0.336086 0)
(-6.79042 0.114001 0)
(-7.40423 0.297232 0)
(-7.17111 0.0869908 0)
(-7.82173 0.25437 0)
(-7.48949 0.0583575 0)
(-8.18022 0.207711 0)
(-7.73676 0.0280203 0)
(-8.47117 0.157503 0)
(-7.9041 -0.00441275 0)
(-8.68575 0.104081 0)
(-7.9817 -0.0400621 0)
(-8.81481 0.0471196 0)
(-7.95629 -0.0810343 0)
(-8.84942 -0.0150655 0)
(-7.81302 -0.128501 0)
(-8.77956 -0.0829393 0)
(-7.53421 -0.182418 0)
(-8.59253 -0.157597 0)
(-7.10476 -0.243524 0)
(-8.28151 -0.237007 0)
(-6.50888 -0.313994 0)
(-7.83592 -0.321091 0)
(-5.72507 -0.39783 0)
(-7.22568 -0.412377 0)
(-4.71228 -0.494594 0)
(-6.39473 -0.520268 0)
(-3.42336 -0.578781 0)
(-5.345 -0.64648 0)
(-4.40892 -0.676782 0)
(-0.280081 0.0507221 0)
(-0.295316 0.102715 0)
(-0.642234 0.30622 0)
(-0.616197 0.416105 0)
(-1.06994 0.467351 0)
(-1.0976 0.621512 0)
(-1.55806 0.573372 0)
(-1.60646 0.767418 0)
(-2.09617 0.642746 0)
(-2.15725 0.866454 0)
(-2.67235 0.685923 0)
(-2.73976 0.929528 0)
(-3.27516 0.70935 0)
(-3.34558 0.96469 0)
(-3.89423 0.717251 0)
(-3.96626 0.977721 0)
(-4.52026 0.712518 0)
(-4.59385 0.97276 0)
(-5.14471 0.697193 0)
(-5.22083 0.952796 0)
(-5.75958 0.67274 0)
(-5.84007 0.920012 0)
(-6.35719 0.640211 0)
(-6.44464 0.876004 0)
(-6.93001 0.600359 0)
(-7.02768 0.821938 0)
(-7.47047 0.553727 0)
(-7.58227 0.758672 0)
(-7.97091 0.500705 0)
(-8.10135 0.686844 0)
(-8.4235 0.44159 0)
(-8.57765 0.606954 0)
(-8.82018 0.376631 0)
(-9.00365 0.519425 0)
(-9.15275 0.306074 0)
(-9.37162 0.424676 0)
(-9.41289 0.230131 0)
(-9.67365 0.323211 0)
(-9.59215 0.148698 0)
(-9.90176 0.215571 0)
(-9.68243 0.0608138 0)
(-10.048 0.101942 0)
(-9.67676 -0.034891 0)
(-10.1043 -0.0184254 0)
(-9.5681 -0.138458 0)
(-10.0662 -0.145848 0)
(-9.35055 -0.248608 0)
(-9.92923 -0.280561 0)
(-9.0179 -0.364604 0)
(-9.69069 -0.420589 0)
(-8.56688 -0.487549 0)
(-9.34781 -0.564125 0)
(-7.99883 -0.621118 0)
(-8.88654 -0.711244 0)
(-7.32569 -0.764568 0)
(-8.28048 -0.866055 0)
(-6.57206 -0.892639 0)
(-7.57013 -1.02448 0)
(-7.06356 -1.1557 0)
(-0.540164 0.524512 0)
(-0.420091 0.631772 0)
(-1.07596 0.771377 0)
(-0.886992 0.928489 0)
(-1.62492 0.947459 0)
(-1.48457 1.13409 0)
(-2.19588 1.07403 0)
(-2.07071 1.28794 0)
(-2.78865 1.15857 0)
(-2.67166 1.3941 0)
(-3.39932 1.20885 0)
(-3.28417 1.46027 0)
(-4.02219 1.23117 0)
(-3.90541 1.49325 0)
(-4.65101 1.23041 0)
(-4.5312 1.49873 0)
(-5.27948 1.21029 0)
(-5.15686 1.48117 0)
(-5.90138 1.17357 0)
(-5.77742 1.44402 0)
(-6.5106 1.12235 0)
(-6.38774 1.38985 0)
(-7.10099 1.05814 0)
(-6.98249 1.32057 0)
(-7.66632 0.982116 0)
(-7.55608 1.23758 0)
(-8.20019 0.895135 0)
(-8.10265 1.14191 0)
(-8.69593 0.797903 0)
(-8.61601 1.03431 0)
(-9.14664 0.691041 0)
(-9.08962 0.915394 0)
(-9.54515 0.575178 0)
(-9.51661 0.7857 0)
(-9.88408 0.451042 0)
(-9.8898 0.645791 0)
(-10.1559 0.319499 0)
(-10.2018 0.496353 0)
(-10.3531 0.18142 0)
(-10.4453 0.338224 0)
(-10.4689 0.0373302 0)
(-10.6131 0.172272 0)
(-10.4972 -0.113039 0)
(-10.6985 -0.00167064 0)
(-10.4355 -0.27051 0)
(-10.6973 -0.181556 0)
(-10.2788 -0.434174 0)
(-10.609 -0.369111 0)
(-10.0253 -0.601287 0)
(-10.4325 -0.5605 0)
(-9.67642 -0.769691 0)
(-10.1686 -0.75213 0)
(-9.23991 -0.939868 0)
(-9.80999 -0.9409 0)
(-8.7316 -1.11399 0)
(-9.34061 -1.12717 0)
(-8.15307 -1.28069 0)
(-8.80225 -1.31465 0)
(-8.44214 -1.49015 0)
(-0.661508 1.09275 0)
(-0.465021 1.27968 0)
(-1.29736 1.32479 0)
(-1.00723 1.53655 0)
(-1.91847 1.49384 0)
(-1.6696 1.71403 0)
(-2.53652 1.61808 0)
(-2.29537 1.8514 0)
(-3.15609 1.6999 0)
(-2.91887 1.9456 0)
(-3.77823 1.74493 0)
(-3.53975 2.00097 0)
(-4.40169 1.75862 0)
(-4.15908 2.02231 0)
(-5.0239 1.74571 0)
(-4.77603 2.01425 0)
(-5.64145 1.71005 0)
(-5.38867 1.98075 0)
(-6.2504 1.65464 0)
(-5.99423 1.925 0)
(-6.84635 1.58176 0)
(-6.58928 1.84945 0)
(-7.42452 1.49309 0)
(-7.16975 1.75593 0)
(-7.9797 1.38985 0)
(-7.73107 1.64575 0)
(-8.50626 1.27293 0)
(-8.26808 1.51989 0)
(-8.99812 1.14297 0)
(-8.77514 1.37906 0)
(-9.44884 1.0005 0)
(-9.24617 1.22384 0)
(-9.85159 0.845973 0)
(-9.67461 1.05481 0)
(-10.1993 0.679929 0)
(-10.0536 0.872631 0)
(-10.4847 0.503066 0)
(-10.376 0.678172 0)
(-10.7008 0.316281 0)
(-10.6348 0.472608 0)
(-10.841 0.120497 0)
(-10.8235 0.257424 0)
(-10.9014 -0.0836112 0)
(-10.9361 0.0341111 0)
(-10.8783 -0.294702 0)
(-10.9677 -0.19493 0)
(-10.7714 -0.510094 0)
(-10.921 -0.42951 0)
(-10.5806 -0.725844 0)
(-10.7965 -0.665824 0)
(-10.3095 -0.937289 0)
(-10.5962 -0.898178 0)
(-9.96792 -1.14229 0)
(-10.3167 -1.12063 0)
(-9.56933 -1.34458 0)
(-9.94943 -1.33193 0)
(-9.11948 -1.53832 0)
(-9.53396 -1.54028 0)
(-9.26495 -1.72977 0)
(-0.704227 1.73532 0)
(-0.467784 1.96943 0)
(-1.38084 1.9346 0)
(-1.03342 2.1836 0)
(-2.03218 2.07713 0)
(-1.71718 2.3222 0)
(-2.66723 2.18169 0)
(-2.35006 2.43036 0)
(-3.29178 2.24734 0)
(-2.97257 2.50154 0)
(-3.90944 2.27755 0)
(-3.58447 2.53779 0)
(-4.52178 2.27624 0)
(-4.18912 2.54193 0)
(-5.12878 2.24717 0)
(-4.7878 2.51718 0)
(-5.72918 2.19354 0)
(-5.38048 2.46646 0)
(-6.32071 2.11789 0)
(-5.96594 2.39223 0)
(-6.90026 2.02216 0)
(-6.54195 2.29641 0)
(-7.46397 1.90776 0)
(-7.10538 2.18041 0)
(-8.00733 1.77573 0)
(-7.65232 2.04524 0)
(-8.52521 1.62681 0)
(-8.17816 1.89165 0)
(-9.01195 1.46162 0)
(-8.67765 1.7202 0)
(-9.46139 1.28076 0)
(-9.14502 1.53141 0)
(-9.86703 1.08494 0)
(-9.57399 1.32585 0)
(-10.2221 0.875082 0)
(-9.9579 1.10425 0)
(-10.5196 0.652448 0)
(-10.2899 0.867696 0)
(-10.7529 0.418737 0)
(-10.563 0.6177 0)
(-10.916 0.176061 0)
(-10.7711 0.356465 0)
(-11.0047 -0.0731598 0)
(-10.9087 0.0866872 0)
(-11.0172 -0.327285 0)
(-10.9713 -0.187655 0)
(-10.9543 -0.583995 0)
(-10.9621 -0.465059 0)
(-10.8172 -0.837913 0)
(-10.8831 -0.741488 0)
(-10.611 -1.0821 0)
(-10.7372 -1.00929 0)
(-10.3454 -1.31238 0)
(-10.5238 -1.26037 0)
(-10.033 -1.53217 0)
(-10.24 -1.4924 0)
(-9.68724 -1.7355 0)
(-9.92211 -1.71371 0)
(-9.72016 -1.90375 0)
(-0.698108 2.40345 0)
(-0.445242 2.65318 0)
(-1.37202 2.56286 0)
(-0.997804 2.82806 0)
(-2.01881 2.66974 0)
(-1.66788 2.92612 0)
(-2.64454 2.7457 0)
(-2.2802 3.00081 0)
(-3.25457 2.78798 0)
(-2.88078 3.04455 0)
(-3.85346 2.79839 0)
(-3.46784 3.05829 0)
(-4.4442 2.77921 0)
(-4.04596 3.04323 0)
(-5.02827 2.73293 0)
(-4.6175 3.0011 0)
(-5.60575 2.66176 0)
(-5.18351 2.93363 0)
(-6.1755 2.56749 0)
(-5.74372 2.84226 0)
(-6.73528 2.4515 0)
(-6.29668 2.72812 0)
(-7.28193 2.31478 0)
(-6.8399 2.59203 0)
(-7.81146 2.15805 0)
(-7.36995 2.43455 0)
(-8.31915 1.98186 0)
(-7.88262 2.2561 0)
(-8.79967 1.78666 0)
(-8.37299 2.057 0)
(-9.24714 1.57296 0)
(-8.83553 1.83763 0)
(-9.65522 1.3414 0)
(-9.26416 1.59851 0)
(-10.0173 1.09291 0)
(-9.65237 1.34045 0)
(-10.3265 0.828875 0)
(-9.99339 1.06468 0)
(-10.5764 0.551383 0)
(-10.2804 0.773102 0)
(-10.761 0.263468 0)
(-10.5073 0.468602 0)
(-10.8768 -0.0309859 0)
(-10.669 0.155324 0)
(-10.9221 -0.328378 0)
(-10.7616 -0.16143 0)
(-10.8987 -0.625188 0)
(-10.7866 -0.478273 0)
(-10.809 -0.915143 0)
(-10.749 -0.791003 0)
(-10.6587 -1.18956 0)
(-10.6512 -1.0903 0)
(-10.4571 -1.44261 0)
(-10.4951 -1.36643 0)
(-10.2171 -1.67627 0)
(-10.2824 -1.61569 0)
(-9.95697 -1.88291 0)
(-10.0458 -1.84418 0)
(-9.89719 -2.02942 0)
(-0.658252 3.05489 0)
(-0.405956 3.2979 0)
(-1.29742 3.17551 0)
(-0.91832 3.43931 0)
(-1.91183 3.24551 0)
(-1.54681 3.4998 0)
(-2.50558 3.29071 0)
(-2.11548 3.54212 0)
(-3.0834 3.30771 0)
(-2.67563 3.55889 0)
(-3.64996 3.29722 0)
(-3.22311 3.5507 0)
(-4.20878 3.26007 0)
(-3.76322 3.51743 0)
(-4.76205 3.1974 0)
(-4.29869 3.4595 0)
(-5.31054 3.11024 0)
(-4.83103 3.37734 0)
(-5.85374 2.99943 0)
(-5.36042 3.27132 0)
(-6.38996 2.86557 0)
(-5.88582 3.14167 0)
(-6.91649 2.70908 0)
(-6.4051 2.98851 0)
(-7.4297 2.53022 0)
(-6.91517 2.81187 0)
(-7.92519 2.3292 0)
(-7.41209 2.61178 0)
(-8.39786 2.10628 0)
(-7.89121 2.38829 0)
(-8.84202 1.86182 0)
(-8.34721 2.14159 0)
(-9.25149 1.5965 0)
(-8.7742 1.87211 0)
(-9.61974 1.3114 0)
(-9.16585 1.5807 0)
(-9.94014 1.00825 0)
(-9.51548 1.26877 0)
(-10.2062 0.689744 0)
(-9.81638 0.938606 0)
(-10.4124 0.35999 0)
(-10.0622 0.593768 0)
(-10.5546 0.0243275 0)
(-10.2478 0.239632 0)
(-10.6312 -0.312149 0)
(-10.3702 -0.117062 0)
(-10.6446 -0.644988 0)
(-10.4272 -0.470709 0)
(-10.598 -0.966971 0)
(-10.4281 -0.816692 0)
(-10.4975 -1.26793 0)
(-10.3744 -1.14448 0)
(-10.352 -1.5404 0)
(-10.2696 -1.44299 0)
(-10.1749 -1.78418 0)
(-10.1196 -1.70666 0)
(-9.98666 -1.99038 0)
(-9.95276 -1.93859 0)
(-9.84892 -2.11703 0)
(-0.592948 3.65859 0)
(-0.3547 3.87865 0)
(-1.17296 3.74579 0)
(-0.805442 3.99398 0)
(-1.73262 3.78237 0)
(-1.36995 4.02236 0)
(-2.27513 3.7992 0)
(-1.87566 4.03671 0)
(-2.80483 3.79302 0)
(-2.37912 4.03039 0)
(-3.32628 3.76375 0)
(-2.87347 4.00389 0)
(-3.84302 3.71097 0)
(-3.36463 3.95593 0)
(-4.35739 3.63451 0)
(-3.85519 3.88568 0)
(-4.87038 3.53423 0)
(-4.34666 3.79234 0)
(-5.38172 3.40994 0)
(-4.83928 3.6752 0)
(-5.88996 3.26146 0)
(-5.3321 3.53362 0)
(-6.39262 3.08854 0)
(-5.82313 3.36701 0)
(-6.88634 2.89099 0)
(-6.30946 3.17486 0)
(-7.36694 2.66867 0)
(-6.78737 2.95678 0)
(-7.82957 2.4216 0)
(-7.25243 2.71254 0)
(-8.26874 2.15002 0)
(-7.69958 2.44213 0)
(-8.67847 1.85456 0)
(-8.12319 2.14588 0)
(-9.05238 1.53639 0)
(-8.51715 1.82463 0)
(-9.38394 1.19751 0)
(-8.875 1.47997 0)
(-9.66674 0.841119 0)
(-9.18996 1.11449 0)
(-9.89488 0.47213 0)
(-9.45533 0.732305 0)
(-10.0636 0.0971563 0)
(-9.66558 0.339675 0)
(-10.1705 -0.276654 0)
(-9.8179 -0.0551854 0)
(-10.2186 -0.643228 0)
(-9.90534 -0.443513 0)
(-10.2124 -0.994662 0)
(-9.94295 -0.820102 0)
(-10.1577 -1.31976 0)
(-9.93102 -1.17399 0)
(-10.0629 -1.60934 0)
(-9.87388 -1.49286 0)
(-9.94165 -1.86072 0)
(-9.78034 -1.76893 0)
(-9.81518 -2.06443 0)
(-9.67545 -2.00203 0)
(-9.6111 -2.1728 0)
(-0.507479 4.19199 0)
(-0.294541 4.3757 0)
(-1.00889 4.2531 0)
(-0.665832 4.47348 0)
(-1.49537 4.26224 0)
(-1.14799 4.47659 0)
(-1.97014 4.25609 0)
(-1.57424 4.46955 0)
(-2.43754 4.23167 0)
(-2.00673 4.44644 0)
(-2.90205 4.18829 0)
(-2.43569 4.40761 0)
(-3.367 4.12428 0)
(-2.86778 4.35048 0)
(-3.8345 4.03825 0)
(-3.30503 4.27302 0)
(-4.30535 3.92891 0)
(-3.74863 4.17325 0)
(-4.77917 3.79512 0)
(-4.19849 4.04946 0)
(-5.25453 3.63592 0)
(-4.65349 3.90022 0)
(-5.72901 3.45047 0)
(-5.11156 3.72429 0)
(-6.19939 3.2381 0)
(-5.56985 3.52069 0)
(-6.66171 2.99835 0)
(-6.02479 3.28866 0)
(-7.11136 2.73097 0)
(-6.47218 3.0277 0)
(-7.54317 2.43604 0)
(-6.90728 2.73764 0)
(-7.95143 2.11413 0)
(-7.32485 2.41867 0)
(-8.32998 1.76649 0)
(-7.71915 2.0716 0)
(-8.67244 1.39534 0)
(-8.08401 1.69811 0)
(-8.97232 1.00424 0)
(-8.41264 1.30101 0)
(-9.22329 0.598688 0)
(-8.69781 0.884709 0)
(-9.41948 0.18626 0)
(-8.93306 0.455995 0)
(-9.55634 -0.223236 0)
(-9.11464 0.0240465 0)
(-9.63783 -0.621261 0)
(-9.23393 -0.397457 0)
(-9.67076 -0.999723 0)
(-9.3077 -0.801924 0)
(-9.65974 -1.34699 0)
(-9.33714 -1.17993 0)
(-9.61252 -1.65204 0)
(-9.32609 -1.51771 0)