/*--------------------------------*- C++ -*----------------------------------*\
  =========                 |
  \\      /  F ield         | OpenFOAM: The Open Source CFD Toolbox
   \\    /   O peration     | Website:  https://openfoam.org
    \\  /    A nd           | Version:  7
     \\/     M anipulation  |
\*---------------------------------------------------------------------------*/
FoamFile
{
    version     2.0;
    format      ascii;
    class       volScalarField;
    location    "9.96";
    object      T;
}
// * * * * * * * * * * * * * * * * * * * * * * * * * * * * * * * * * * * * * //

dimensions      [0 0 0 1 0 0 0];

internalField   nonuniform List<scalar> 
12013
(
300.146
300.443
300.746
301.054
301.363
301.672
301.978
302.281
302.577
302.867
303.15
303.424
303.69
303.946
304.194
304.432
304.66
304.88
305.091
305.294
305.488
305.675
305.855
306.027
306.193
306.352
306.506
306.654
306.797
306.936
307.07
307.201
307.328
307.452
307.575
307.695
307.815
307.935
308.055
308.176
308.3
308.428
308.56
308.699
308.845
309
309.167
309.347
309.543
309.757
309.992
310.251
310.539
310.858
311.212
311.608
312.048
312.54
313.09
313.703
314.387
315.15
316.001
316.949
318.005
319.18
320.488
321.942
323.559
325.356
327.355
329.579
332.057
334.822
337.917
341.395
345.324
349.804
354.98
361.098
368.622
300.146
300.443
300.747
301.055
301.364
301.673
301.979
302.282
302.579
302.869
303.152
303.426
303.692
303.949
304.196
304.434
304.663
304.883
305.094
305.297
305.491
305.678
305.857
306.03
306.196
306.355
306.509
306.657
306.8
306.939
307.073
307.204
307.331
307.455
307.578
307.698
307.818
307.938
308.058
308.179
308.303
308.431
308.563
308.701
308.847
309.002
309.169
309.349
309.544
309.758
309.993
310.252
310.539
310.858
311.212
311.606
312.047
312.538
313.086
313.698
314.38
315.142
315.991
316.936
317.989
319.161
320.464
321.913
323.523
325.311
327.299
329.509
331.969
334.709
337.77
341.198
345.054
349.415
354.382
360.081
366.626
300.146
300.444
300.748
301.056
301.366
301.675
301.982
302.284
302.582
302.872
303.155
303.43
303.696
303.953
304.201
304.439
304.668
304.888
305.1
305.302
305.497
305.684
305.864
306.036
306.202
306.362
306.515
306.664
306.807
306.945
307.08
307.21
307.338
307.462
307.584
307.705
307.825
307.944
308.064
308.185
308.309
308.436
308.568
308.707
308.852
309.007
309.173
309.353
309.548
309.761
309.995
310.254
310.54
310.857
311.211
311.604
312.042
312.532
313.078
313.687
314.366
315.124
315.968
316.909
317.955
319.119
320.412
321.849
323.443
325.213
327.178
329.357
331.777
334.465
337.454
340.781
344.492
348.633
353.254
358.384
363.984
300.147
300.444
300.749
301.058
301.368
301.678
301.985
302.289
302.587
302.878
303.161
303.437
303.703
303.961
304.209
304.447
304.677
304.897
305.109
305.312
305.507
305.694
305.874
306.047
306.213
306.373
306.527
306.675
306.818
306.957
307.091
307.222
307.349
307.473
307.595
307.716
307.835
307.955
308.074
308.196
308.319
308.446
308.578
308.716
308.861
309.015
309.181
309.36
309.554
309.766
310
310.257
310.542
310.857
311.209
311.6
312.036
312.522
313.064
313.669
314.343
315.095
315.932
316.863
317.899
319.049
320.327
321.744
323.314
325.054
326.981
329.112
331.47
334.076
336.957
340.139
343.647
347.505
351.721
356.279
361.108
300.147
300.446
300.751
301.061
301.372
301.683
301.991
302.295
302.594
302.886
303.17
303.446
303.714
303.972
304.22
304.46
304.69
304.911
305.123
305.327
305.522
305.71
305.89
306.063
306.229
306.389
306.543
306.691
306.835
306.973
307.108
307.238
307.365
307.49
307.612
307.732
307.851
307.97
308.09
308.211
308.334
308.461
308.592
308.729
308.874
309.027
309.192
309.37
309.563
309.774
310.006
310.262
310.544
310.858
311.206
311.594
312.026
312.508
313.044
313.643
314.31
315.052
315.878
316.797
317.817
318.949
320.204
321.593
323.129
324.827
326.701
328.766
331.039
333.539
336.28
339.28
342.55
346.093
349.899
353.936
358.137
300.148
300.447
300.754
301.065
301.377
301.689
301.999
302.304
302.604
302.897
303.183
303.46
303.728
303.987
304.237
304.477
304.708
304.929
305.142
305.347
305.542
305.731
305.911
306.084
306.251
306.411
306.565
306.714
306.858
306.996
307.131
307.261
307.388
307.512
307.634
307.754
307.874
307.992
308.111
308.232
308.354
308.48
308.611
308.747
308.891
309.044
309.208
309.384
309.576
309.785
310.015
310.268
310.548
310.858
311.203
311.586
312.013
312.489
313.018
313.608
314.265
314.995
315.807
316.708
317.707
318.814
320.039
321.392
322.884
324.527
326.333
328.315
330.484
332.854
335.432
338.227
341.24
344.463
347.878
351.452
355.133
300.148
300.449
300.758
301.07
301.384
301.697
302.009
302.316
302.617
302.912
303.199
303.478
303.747
304.008
304.258
304.5
304.732
304.954
305.168
305.373
305.57
305.758
305.94
306.113
306.28
306.441
306.596
306.744
306.888
307.027
307.161
307.292
307.419
307.543
307.664
307.784
307.903
308.021
308.14
308.26
308.382
308.507
308.637
308.772
308.915
309.066
309.229
309.403
309.593
309.8
310.027
310.277
310.553
310.86
311.199
311.577
311.997
312.464
312.985
313.563
314.207
314.922
315.715
316.594
317.567
318.643
319.83
321.137
322.574
324.15
325.876
327.759
329.809
332.031
334.431
337.009
339.76
342.672
345.726
348.892
352.13
300.149
300.452
300.762
301.077
301.393
301.708
302.022
302.331
302.634
302.931
303.22
303.501
303.772
304.034
304.286
304.529
304.762
304.986
305.201
305.407
305.605
305.794
305.976
306.151
306.318
306.48
306.634
306.784
306.927
307.066
307.201
307.331
307.458
307.582
307.703
307.823
307.941
308.059
308.177
308.296
308.417
308.542
308.67
308.805
308.946
309.096
309.256
309.429
309.616
309.82
310.044
310.29
310.561
310.862
311.196
311.566
311.978
312.435
312.944
313.509
314.136
314.831
315.602
316.454
317.395
318.433
319.574
320.827
322.2
323.699
325.332
327.104
329.022
331.087
333.299
335.657
338.151
340.77
343.494
346.299
349.155
300.15
300.456
300.768
301.085
301.404
301.722
302.038
302.35
302.656
302.955
303.247
303.53
303.803
304.067
304.321
304.566
304.801
305.027
305.243
305.45
305.649
305.84
306.023
306.198
306.367
306.528
306.684
306.833
306.978
307.117
307.251
307.382
307.508
307.632
307.753
307.872
307.99
308.107
308.224
308.343
308.463
308.586
308.713
308.846
308.985
309.133
309.291
309.461
309.645
309.846
310.065
310.307
310.573
310.867
311.193
311.555
311.956
312.401
312.896
313.444
314.052
314.724
315.468
316.288
317.191
318.185
319.273
320.465
321.764
323.177
324.708
326.361
328.138
330.039
332.063
334.203
336.452
338.797
341.222
343.707
346.229
300.152
300.46
300.776
301.096
301.418
301.739
302.059
302.374
302.683
302.986
303.28
303.566
303.842
304.109
304.365
304.612
304.849
305.077
305.295
305.504
305.705
305.897
306.081
306.258
306.427
306.59
306.746
306.896
307.04
307.179
307.314
307.444
307.571
307.694
307.815
307.934
308.051
308.167
308.283
308.401
308.52
308.641
308.767
308.898
309.035
309.18
309.336
309.502
309.683
309.879
310.094
310.329
310.589
310.875
311.192
311.543
311.932
312.364
312.841
313.37
313.955
314.601
315.313
316.096
316.957
317.9
318.93
320.052
321.271
322.591
324.013
325.541
327.174
328.912
330.749
332.681
334.699
336.791
338.945
341.145
343.373
300.154
300.466
300.785
301.109
301.435
301.761
302.084
302.403
302.716
303.023
303.321
303.61
303.89
304.159
304.419
304.669
304.909
305.139
305.36
305.571
305.773
305.967
306.153
306.331
306.501
306.665
306.822
306.973
307.117
307.257
307.392
307.522
307.649
307.772
307.892
308.01
308.126
308.242
308.357
308.473
308.59
308.71
308.834
308.962
309.097
309.24
309.391
309.554
309.73
309.922
310.13
310.359
310.611
310.889
311.195
311.534
311.909
312.324
312.782
313.289
313.847
314.463
315.14
315.882
316.695
317.583
318.549
319.597
320.731
321.952
323.263
324.663
326.152
327.728
329.385
331.119
332.922
334.784
336.693
338.638
340.606
300.156
300.472
300.796
301.125
301.456
301.786
302.115
302.439
302.757
303.068
303.37
303.664
303.948
304.221
304.485
304.738
304.982
305.215
305.438
305.652
305.857
306.053
306.241
306.42
306.592
306.757
306.915
307.067
307.212
307.352
307.487
307.617
307.744
307.866
307.986
308.103
308.219
308.333
308.447
308.561
308.677
308.795
308.916
309.042
309.174
309.313
309.461
309.62
309.791
309.976
310.178
310.399
310.642
310.909
311.204
311.529
311.888
312.284
312.721
313.202
313.732
314.314
314.952
315.65
316.411
317.239
318.137
319.108
320.153
321.274
322.472
323.745
325.093
326.513
327.999
329.548
331.152
332.803
334.492
336.209
337.944
300.159
300.48
300.81
301.144
301.481
301.817
302.152
302.481
302.805
303.122
303.43
303.729
304.018
304.296
304.565
304.822
305.07
305.307
305.534
305.751
305.959
306.157
306.347
306.529
306.703
306.869
307.028
307.181
307.327
307.467
307.602
307.733
307.859
307.981
308.1
308.216
308.331
308.444
308.556
308.669
308.782
308.898
309.017
309.14
309.268
309.404
309.547
309.701
309.866
310.045
310.239
310.452
310.685
310.94
311.222
311.531
311.872
312.248
312.661
313.115
313.613
314.159
314.755
315.405
316.112
316.878
317.706
318.597
319.552
320.573
321.659
322.808
324.02
325.291
326.617
327.994
329.415
330.874
332.365
333.878
335.407
300.162
300.49
300.826
301.167
301.511
301.855
302.196
302.533
302.864
303.187
303.502
303.807
304.102
304.386
304.66
304.923
305.175
305.417
305.648
305.869
306.081
306.283
306.476
306.66
306.836
307.004
307.164
307.318
307.465
307.606
307.742
307.872
307.998
308.119
308.238
308.353
308.466
308.578
308.688
308.799
308.91
309.023
309.139
309.259
309.383
309.514
309.653
309.801
309.96
310.131
310.317
310.52
310.742
310.985
311.251
311.544
311.866
312.219
312.606
313.031
313.496
314.003
314.556
315.157
315.807
316.51
317.266
318.077
318.943
319.865
320.842
321.873
322.955
324.086
325.263
326.481
327.736
329.023
330.334
331.665
333.009
300.165
300.501
300.845
301.195
301.547
301.899
302.249
302.594
302.933
303.265
303.587
303.9
304.202
304.494
304.774
305.043
305.302
305.549
305.785
306.011
306.227
306.433
306.629
306.816
306.995
307.165
307.327
307.482
307.63
307.772
307.908
308.038
308.164
308.285
308.403
308.517
308.629
308.738
308.847
308.955
309.064
309.174
309.287
309.403
309.523
309.649
309.782
309.924
310.075
310.239
310.416
310.608
310.818
311.047
311.298
311.572
311.873
312.203
312.564
312.958
313.387
313.855
314.363
314.913
315.506
316.145
316.83
317.563
318.342
319.169
320.041
320.959
321.92
322.922
323.961
325.034
326.138
327.268
328.419
329.587
330.766
300.17
300.515
300.868
301.228
301.59
301.952
302.311
302.667
303.016
303.357
303.688
304.01
304.321
304.621
304.91
305.187
305.452
305.706
305.948
306.18
306.401
306.611
306.812
307.002
307.184
307.357
307.521
307.678
307.827
307.97
308.106
308.236
308.362
308.482
308.599
308.712
308.822
308.93
309.036
309.142
309.248
309.355
309.463
309.575
309.691
309.811
309.938
310.073
310.217
310.372
310.539
310.72
310.917
311.131
311.365
311.621
311.901
312.206
312.538
312.901
313.295
313.722
314.185
314.684
315.221
315.797
316.413
317.069
317.765
318.501
319.276
320.088
320.936
321.818
322.732
323.674
324.641
325.631
326.638
327.66
328.692
300.175
300.531
300.896
301.266
301.64
302.014
302.385
302.752
303.113
303.465
303.808
304.141
304.462
304.772
305.07
305.356
305.63
305.892
306.142
306.38
306.607
306.822
307.028
307.222
307.408
307.583
307.75
307.909
308.06
308.203
308.34
308.47
308.595
308.715
308.831
308.942
309.051
309.157
309.261
309.363
309.466
309.569
309.674
309.781
309.891
310.006
310.127
310.254
310.39
310.535
310.692
310.861
311.044
311.244
311.461
311.697
311.954
312.234
312.538
312.869
313.227
313.614
314.032
314.482
314.964
315.479
316.029
316.612
317.229
317.88
318.563
319.278
320.023
320.796
321.595
322.418
323.263
324.126
325.005
325.897
326.798
300.181
300.55
300.928
301.312
301.699
302.087
302.473
302.854
303.228
303.594
303.95
304.295
304.629
304.95
305.26
305.556
305.84
306.111
306.369
306.615
306.849
307.071
307.282
307.481
307.671
307.85
308.019
308.18
308.333
308.477
308.615
308.745
308.87
308.989
309.103
309.213
309.32
309.423
309.524
309.624
309.723
309.823
309.923
310.025
310.13
310.238
310.352
310.472
310.599
310.734
310.88
311.037
311.206
311.39
311.589
311.805
312.04
312.295
312.571
312.87
313.193
313.541
313.915
314.317
314.746
315.204
315.69
316.206
316.749
317.321
317.92
318.546
319.196
319.871
320.567
321.284
322.018
322.769
323.533
324.309
325.094
300.189
300.572
300.965
301.365
301.769
302.173
302.575
302.972
303.363
303.744
304.116
304.476
304.824
305.16
305.482
305.791
306.087
306.368
306.637
306.891
307.133
307.362
307.579
307.784
307.978
308.161
308.334
308.497
308.651
308.797
308.935
309.066
309.19
309.308
309.421
309.53
309.634
309.735
309.833
309.93
310.025
310.12
310.215
310.312
310.411
310.513
310.619
310.731
310.849
310.974
311.109
311.253
311.408
311.576
311.757
311.954
312.166
312.396
312.645
312.913
313.201
313.512
313.845
314.201
314.58
314.984
315.412
315.864
316.34
316.839
317.362
317.906
318.472
319.057
319.662
320.283
320.92
321.57
322.233
322.906
323.587
300.197
300.598
301.01
301.428
301.851
302.274
302.695
303.111
303.52
303.921
304.31
304.688
305.053
305.405
305.743
306.066
306.375
306.669
306.948
307.213
307.464
307.702
307.925
308.137
308.336
308.523
308.699
308.865
309.021
309.168
309.307
309.438
309.562
309.679
309.79
309.897
309.999
310.097
310.192
310.284
310.376
310.466
310.556
310.647
310.74
310.835
310.934
311.037
311.146
311.261
311.384
311.515
311.657
311.808
311.972
312.149
312.34
312.546
312.767
313.006
313.262
313.537
313.83
314.144
314.477
314.831
315.205
315.599
316.013
316.447
316.9
317.372
317.862
318.368
318.89
319.427
319.976
320.538
321.111
321.693
322.282
300.207
300.629
301.061
301.502
301.946
302.392
302.835
303.274
303.705
304.127
304.538
304.936
305.321
305.691
306.047
306.386
306.71
307.018
307.31
307.587
307.848
308.094
308.326
308.544
308.749
308.941
309.121
309.29
309.448
309.596
309.736
309.866
309.99
310.106
310.215
310.32
310.419
310.514
310.605
310.694
310.781
310.866
310.951
311.036
311.122
311.21
311.301
311.396
311.495
311.6
311.711
311.83
311.957
312.094
312.24
312.398
312.568
312.751
312.947
313.157
313.383
313.624
313.882
314.156
314.446
314.754
315.079
315.421
315.78
316.155
316.546
316.953
317.375
317.811
318.26
318.722
319.196
319.679
320.172
320.674
321.182
300.219
300.664
301.122
301.587
302.058
302.529
302.999
303.463
303.92
304.367
304.802
305.224
305.632
306.024
306.399
306.757
307.098
307.422
307.729
308.018
308.29
308.546
308.787
309.012
309.223
309.42
309.604
309.776
309.936
310.086
310.226
310.357
310.479
310.594
310.702
310.803
310.9
310.991
311.079
311.163
311.245
311.325
311.404
311.483
311.563
311.644
311.727
311.813
311.902
311.997
312.097
312.203
312.316
312.438
312.568
312.707
312.857
313.018
313.19
313.375
313.572
313.783
314.007
314.245
314.497
314.763
315.044
315.339
315.648
315.971
316.307
316.657
317.019
317.393
317.779
318.175
318.581
318.996
319.42
319.85
320.288
300.233
300.706
301.192
301.687
302.188
302.69
303.189
303.684
304.171
304.647
305.11
305.559
305.992
306.408
306.806
307.186
307.546
307.887
308.209
308.512
308.797
309.064
309.314
309.547
309.764
309.966
310.154
310.329
310.492
310.643
310.783
310.914
311.035
311.148
311.254
311.352
311.445
311.533
311.617
311.696
311.773
311.848
311.921
311.994
312.066
312.14
312.214
312.292
312.372
312.456
312.545
312.639
312.739
312.846
312.96
313.083
313.214
313.354
313.505
313.665
313.836
314.019
314.212
314.418
314.635
314.865
315.106
315.359
315.624
315.901
316.189
316.489
316.798
317.118
317.448
317.787
318.134
318.49
318.852
319.221
319.596
300.249
300.754
301.274
301.803
302.339
302.876
303.411
303.94
304.461
304.971
305.466
305.946
306.408
306.851
307.275
307.677
308.059
308.419
308.758
309.076
309.374
309.653
309.912
310.153
310.377
310.585
310.777
310.955
311.119
311.271
311.412
311.541
311.661
311.772
311.875
311.971
312.06
312.144
312.223
312.298
312.369
312.438
312.505
312.571
312.636
312.702
312.769
312.837
312.908
312.982
313.06
313.143
313.23
313.323
313.423
313.529
313.643
313.765
313.894
314.033
314.181
314.338
314.504
314.681
314.867
315.064
315.27
315.487
315.713
315.95
316.196
316.451
316.715
316.988
317.27
317.559
317.855
318.158
318.468
318.783
319.104
300.267
300.811
301.369
301.939
302.514
303.092
303.668
304.237
304.798
305.345
305.877
306.392
306.887
307.36
307.811
308.239
308.644
309.024
309.382
309.716
310.028
310.318
310.587
310.837
311.067
311.28
311.476
311.657
311.823
311.975
312.115
312.243
312.361
312.47
312.57
312.662
312.747
312.826
312.9
312.97
313.035
313.098
313.159
313.218
313.276
313.334
313.393
313.453
313.515
313.579
313.646
313.718
313.793
313.873
313.959
314.051
314.148
314.253
314.364
314.483
314.609
314.744
314.886
315.037
315.196
315.364
315.54
315.725
315.918
316.119
316.328
316.545
316.77
317.003
317.242
317.488
317.74
317.999
318.263
318.532
318.806
300.289
300.876
301.48
302.096
302.718
303.343
303.966
304.581
305.186
305.777
306.35
306.903
307.434
307.941
308.423
308.878
309.307
309.71
310.086
310.437
310.763
311.065
311.344
311.602
311.838
312.056
312.255
312.438
312.604
312.757
312.895
313.022
313.138
313.243
313.339
313.427
313.508
313.582
313.65
313.714
313.774
313.83
313.884
313.937
313.988
314.038
314.089
314.14
314.193
314.248
314.306
314.366
314.431
314.499
314.572
314.65
314.733
314.822
314.917
315.018
315.125
315.24
315.361
315.489
315.624
315.767
315.917
316.073
316.237
316.408
316.586
316.771
316.962
317.159
317.363
317.572
317.786
318.006
318.231
318.46
318.693
300.314
300.952
301.609
302.278
302.955
303.634
304.31
304.978
305.633
306.273
306.892
307.488
308.059
308.602
309.116
309.601
310.056
310.481
310.877
311.244
311.584
311.898
312.186
312.451
312.693
312.914
313.116
313.299
313.466
313.617
313.754
313.878
313.99
314.092
314.183
314.267
314.342
314.411
314.474
314.531
314.585
314.635
314.682
314.727
314.771
314.814
314.857
314.9
314.945
314.991
315.039
315.09
315.144
315.201
315.263
315.328
315.398
315.473
315.553
315.639
315.73
315.827
315.929
316.038
316.153
316.273
316.4
316.533
316.673
316.818
316.969
317.125
317.287
317.455
317.628
317.805
317.988
318.175
318.366
318.561
318.76
300.343
301.041
301.758
302.489
303.228
303.969
304.706
305.434
306.147
306.841
307.511
308.154
308.767
309.349
309.898
310.413
310.895
311.343
311.758
312.142
312.495
312.819
313.116
313.386
313.633
313.856
314.059
314.242
314.408
314.557
314.69
314.811
314.918
315.015
315.102
315.179
315.249
315.312
315.368
315.42
315.467
315.51
315.551
315.589
315.626
315.662
315.697
315.733
315.769
315.807
315.847
315.889
315.933
315.981
316.032
316.086
316.145
316.208
316.275
316.347
316.423
316.505
316.592
316.684
316.781
316.883
316.991
317.103
317.221
317.345
317.473
317.606
317.743
317.886
318.033
318.184
318.339
318.498
318.661
318.827
318.996
300.377
301.143
301.931
302.733
303.544
304.356
305.163
305.958
306.735
307.489
308.215
308.908
309.568
310.19
310.775
311.321
311.83
312.3
312.734
313.132
313.497
313.83
314.133
314.408
314.656
314.881
315.083
315.264
315.426
315.571
315.701
315.816
315.919
316.01
316.09
316.162
316.225
316.282
316.332
316.377
316.417
316.454
316.488
316.519
316.549
316.578
316.607
316.636
316.665
316.695
316.727
316.761
316.798
316.836
316.878
316.923
316.972
317.024
317.081
317.141
317.206
317.274
317.348
317.425
317.508
317.594
317.686
317.782
317.882
317.987
318.096
318.209
318.326
318.447
318.573
318.701
318.834
318.969
319.108
319.25
319.395
300.416
301.262
302.131
303.016
303.909
304.802
305.688
306.558
307.406
308.226
309.012
309.76
310.467
311.131
311.752
312.329
312.863
313.354
313.804
314.215
314.589
314.928
315.235
315.511
315.76
315.982
316.181
316.359
316.517
316.656
316.78
316.889
316.985
317.07
317.144
317.209
317.265
317.315
317.359
317.397
317.431
317.462
317.489
317.515
317.538
317.561
317.584
317.606
317.629
317.653
317.679
317.706
317.735
317.767
317.801
317.838
317.879
317.922
317.97
318.02
318.075
318.133
318.196
318.262
318.332
318.406
318.484
318.566
318.651
318.741
318.834
318.931
319.032
319.135
319.243
319.353
319.466
319.582
319.701
319.823
319.947
300.462
301.399
302.362
303.342
304.329
305.315
306.289
307.243
308.169
309.06
309.909
310.714
311.47
312.177
312.833
313.438
313.995
314.503
314.966
315.387
315.766
316.108
316.415
316.69
316.936
317.154
317.348
317.519
317.67
317.803
317.919
318.021
318.11
318.187
318.254
318.312
318.362
318.405
318.442
318.474
318.503
318.527
318.549
318.569
318.588
318.606
318.623
318.64
318.658
318.677
318.697
318.719
318.743
318.769
318.798
318.829
318.863
318.9
318.94
318.984
319.03
319.08
319.134
319.191
319.251
319.315
319.382
319.453
319.527
319.605
319.685
319.769
319.856
319.945
320.038
320.133
320.231
320.331
320.434
320.538
320.645
300.514
301.558
302.629
303.717
304.812
305.901
306.975
308.021
309.032
309.998
310.915
311.777
312.582
313.328
314.016
314.646
315.221
315.743
316.214
316.639
317.02
317.36
317.664
317.933
318.172
318.383
318.569
318.732
318.875
318.999
319.107
319.201
319.282
319.352
319.411
319.462
319.506
319.543
319.574
319.601
319.624
319.644
319.662
319.678
319.692
319.706
319.72
319.734
319.749
319.764
319.781
319.799
319.82
319.842
319.866
319.893
319.923
319.956
319.991
320.029
320.07
320.114
320.161
320.211
320.264
320.321
320.38
320.442
320.507
320.575
320.645
320.719
320.795
320.873
320.954
321.037
321.122
321.209
321.299
321.39
321.483
300.575
301.742
302.937
304.149
305.366
306.572
307.754
308.901
310.002
311.047
312.031
312.949
313.8
314.582
315.296
315.945
316.533
317.061
317.535
317.958
318.334
318.668
318.964
319.224
319.453
319.654
319.83
319.983
320.115
320.231
320.33
320.415
320.488
320.55
320.603
320.648
320.686
320.719
320.746
320.769
320.788
320.805
320.82
320.834
320.846
320.858
320.87
320.883
320.896
320.91
320.925
320.942
320.961
320.982
321.004
321.029
321.057
321.087
321.119
321.154
321.191
321.232
321.275
321.32
321.368
321.419
321.473
321.529
321.587
321.648
321.711
321.776
321.844
321.914
321.985
322.059
322.134
322.211
322.29
322.37
322.451
300.645
301.953
303.291
304.645
305.998
307.334
308.636
309.89
311.084
312.209
313.259
314.229
315.118
315.928
316.661
317.321
317.912
318.439
318.908
319.323
319.689
320.011
320.294
320.542
320.758
320.947
321.11
321.252
321.374
321.48
321.57
321.648
321.714
321.77
321.818
321.858
321.893
321.922
321.946
321.968
321.986
322.002
322.017
322.03
322.043
322.056
322.068
322.082
322.096
322.111
322.127
322.145
322.164
322.185
322.208
322.233
322.261
322.29
322.322
322.356
322.392
322.431
322.471
322.514
322.56
322.607
322.657
322.709
322.763
322.819
322.876
322.936
322.997
323.06
323.125
323.191
323.259
323.327
323.398
323.469
323.541
300.725
302.195
303.697
305.211
306.717
308.195
309.626
310.992
312.28
313.482
314.59
315.604
316.523
317.35
318.091
318.75
319.335
319.852
320.307
320.707
321.057
321.363
321.63
321.861
322.063
322.237
322.388
322.518
322.631
322.727
322.81
322.882
322.943
322.995
323.04
323.078
323.112
323.14
323.166
323.188
323.208
323.226
323.243
323.259
323.275
323.291
323.307
323.324
323.341
323.36
323.379
323.4
323.423
323.447
323.472
323.5
323.529
323.56
323.593
323.628
323.665
323.703
323.744
323.786
323.83
323.876
323.924
323.974
324.025
324.077
324.131
324.187
324.243
324.301
324.361
324.421
324.482
324.545
324.608
324.672
324.737
300.817
302.473
304.16
305.854
307.53
309.162
310.728
312.207
313.586
314.855
316.01
317.054
317.99
318.82
319.553
320.198
320.765
321.261
321.695
322.073
322.401
322.687
322.935
323.15
323.336
323.497
323.637
323.758
323.862
323.952
324.031
324.099
324.158
324.21
324.255
324.295
324.33
324.362
324.391
324.418
324.442
324.466
324.488
324.51
324.532
324.554
324.576
324.599
324.622
324.646
324.671
324.697
324.725
324.753
324.784
324.815
324.848
324.882
324.918
324.955
324.994
325.034
325.076
325.119
325.164
325.209
325.256
325.304
325.354
325.404
325.456
325.508
325.561
325.616
325.671
325.727
325.783
325.84
325.898
325.956
326.014
300.923
302.79
304.686
306.582
308.443
310.239
311.941
313.528
314.99
316.308
317.488
318.536
319.463
320.277
320.989
321.611
322.152
322.622
323.029
323.382
323.688
323.953
324.182
324.381
324.554
324.704
324.834
324.948
325.047
325.135
325.212
325.28
325.34
325.395
325.444
325.489
325.53
325.568
325.604
325.638
325.67
325.702
325.733
325.763
325.793
325.823
325.854
325.884
325.915
325.947
325.979
326.013
326.046
326.081
326.117
326.153
326.191
326.23
326.269
326.31
326.351
326.394
326.437
326.482
326.527
326.573
326.62
326.667
326.716
326.764
326.814
326.864
326.914
326.965
327.017
327.069
327.121
327.173
327.226
327.278
327.331
301.042
303.15
305.283
307.401
309.462
311.428
313.257
314.924
316.425
317.762
318.944
319.981
320.887
321.674
322.356
322.945
323.454
323.893
324.272
324.599
324.881
325.126
325.338
325.522
325.684
325.825
325.949
326.059
326.157
326.245
326.324
326.396
326.461
326.522
326.578
326.631
326.68
326.727
326.773
326.816
326.859
326.9
326.941
326.982
327.022
327.061
327.101
327.141
327.181
327.221
327.261
327.301
327.342
327.383
327.425
327.467
327.51
327.553
327.596
327.64
327.684
327.729
327.774
327.82
327.866
327.912
327.959
328.006
328.053
328.1
328.148
328.195
328.243
328.291
328.339
328.387
328.434
328.482
328.53
328.577
328.625
301.176
303.555
305.953
308.314
310.577
312.674
314.584
316.299
317.82
319.157
320.322
321.332
322.203
322.952
323.595
324.147
324.619
325.025
325.373
325.674
325.934
326.16
326.357
326.529
326.682
326.818
326.939
327.048
327.147
327.238
327.322
327.4
327.472
327.541
327.606
327.668
327.727
327.785
327.841
327.895
327.948
328
328.051
328.101
328.151
328.2
328.249
328.298
328.346
328.394
328.441
328.489
328.536
328.583
328.63
328.677
328.723
328.77
328.817
328.863
328.91
328.956
329.003
329.049
329.095
329.141
329.187
329.233
329.279
329.324
329.37
329.414
329.459
329.504
329.548
329.592
329.635
329.678
329.721
329.764
329.806
301.323
303.999
306.688
309.273
311.68
313.872
315.835
317.57
319.086
320.399
321.529
322.496
323.322
324.025
324.624
325.133
325.569
325.941
326.261
326.537
326.777
326.987
327.171
327.335
327.482
327.614
327.734
327.844
327.946
328.041
328.129
328.213
328.293
328.369
328.443
328.513
328.582
328.648
328.713
328.776
328.838
328.899
328.958
329.017
329.075
329.132
329.188
329.243
329.298
329.352
329.405
329.457
329.509
329.561
329.612
329.662
329.712
329.761
329.81
329.858
329.906
329.953
330
330.047
330.093
330.138
330.183
330.227
330.271
330.315
330.357
330.4
330.442
330.483
330.523
330.564
330.603
330.642
330.681
330.719
330.756
301.463
304.436
307.355
310.091
312.591
314.831
316.807
318.529
320.015
321.288
322.373
323.294
324.074
324.735
325.294
325.769
326.173
326.519
326.817
327.075
327.3
327.498
327.674
327.831
327.973
328.102
328.222
328.332
328.435
328.533
328.625
328.712
328.796
328.877
328.955
329.031
329.105
329.176
329.246
329.315
329.382
329.447
329.512
329.575
329.637
329.699
329.759
329.818
329.876
329.933
329.99
330.045
330.1
330.154
330.207
330.259
330.31
330.361
330.411
330.46
330.509
330.557
330.604
330.65
330.695
330.74
330.784
330.828
330.87
330.912
330.954
330.994
331.034
331.073
331.112
331.149
331.186
331.223
331.259
331.294
331.328
378.727
386.648
393.327
399.167
404.365
409.028
413.218
416.966
420.288
423.183
425.639
427.633
429.13
430.08
430.417
430.049
428.845
426.609
423.009
417.386
408.094
401.822
397.027
393.11
389.783
386.884
384.311
381.998
379.894
377.965
376.182
374.524
372.974
371.517
370.141
368.838
367.598
366.414
365.281
364.193
363.145
362.134
361.155
360.207
359.285
358.387
357.512
356.657
355.821
355.001
354.196
353.406
352.628
351.863
351.108
350.363
349.627
348.9
348.181
347.47
346.766
346.068
345.377
344.693
344.014
343.342
342.676
342.015
341.361
340.712
340.07
339.433
338.802
338.178
337.56
336.948
336.342
335.743
335.15
334.565
333.986
333.414
332.85
332.293
331.744
331.202
330.668
330.143
329.625
329.117
328.616
328.125
327.643
327.17
326.706
326.252
325.808
325.373
324.949
324.534
324.129
323.734
323.35
322.976
322.611
322.257
321.913
321.579
321.255
320.941
320.636
320.341
320.055
319.779
319.511
319.252
319.001
318.759
318.525
318.298
318.079
317.867
317.662
317.463
317.271
317.085
316.904
316.729
316.56
316.395
316.234
316.078
315.926
315.778
315.634
315.493
315.355
315.22
315.087
314.958
314.83
314.704
314.581
314.459
314.339
314.22
314.103
313.987
313.872
313.758
313.645
313.533
313.422
313.311
313.202
313.092
312.984
312.876
312.77
312.664
312.56
373.999
380.874
387.08
392.672
397.727
402.301
406.434
410.147
413.448
416.333
418.79
420.793
422.309
423.29
423.672
423.372
422.276
420.228
417.009
412.352
406.21
400.906
396.487
392.751
389.525
386.689
384.159
381.875
379.794
377.882
376.113
374.465
372.923
371.473
370.104
368.805
367.569
366.389
365.258
364.173
363.127
362.118
361.141
360.194
359.273
358.377
357.502
356.648
355.813
354.993
354.19
353.4
352.623
351.858
351.103
350.358
349.623
348.896
348.178
347.466
346.762
346.065
345.374
344.69
344.012
343.339
342.673
342.013
341.358
340.71
340.067
339.431
338.8
338.176
337.558
336.946
336.34
335.741
335.149
334.563
333.984
333.413
332.848
332.291
331.742
331.2
330.667
330.141
329.624
329.115
328.615
328.124
327.641
327.169
326.705
326.251
325.807
325.372
324.947
324.532
324.128
323.733
323.349
322.975
322.61
322.256
321.912
321.578
321.254
320.94
320.636
320.34
320.055
319.778
319.51
319.251
319.001
318.758
318.524
318.298
318.078
317.866
317.661
317.463
317.271
317.085
316.904
316.729
316.559
316.395
316.234
316.078
315.927
315.779
315.634
315.493
315.355
315.22
315.088
314.958
314.83
314.705
314.581
314.459
314.339
314.22
314.103
313.987
313.872
313.758
313.646
313.533
313.422
313.312
313.202
313.093
312.984
312.877
312.77
312.664
312.56
369.93
375.805
381.375
386.561
391.347
395.739
399.748
403.376
406.622
409.477
411.924
413.938
415.484
416.52
416.988
416.819
415.926
414.204
411.549
407.914
403.515
399.247
395.398
391.988
388.963
386.259
383.821
381.603
379.572
377.697
375.958
374.334
372.811
371.377
370.02
368.732
367.505
366.333
365.209
364.129
363.088
362.083
361.11
360.166
359.248
358.354
357.482
356.63
355.796
354.978
354.176
353.387
352.611
351.847
351.093
350.349
349.615
348.889
348.17
347.46
346.756
346.059
345.369
344.684
344.006
343.334
342.668
342.008
341.354
340.706
340.063
339.427
338.796