/*--------------------------------*- C++ -*----------------------------------*\
  =========                 |
  \\      /  F ield         | OpenFOAM: The Open Source CFD Toolbox
   \\    /   O peration     | Website:  https://openfoam.org
    \\  /    A nd           | Version:  7
     \\/     M anipulation  |
\*---------------------------------------------------------------------------*/
FoamFile
{
    version     2.0;
    format      ascii;
    class       volScalarField;
    location    "1.1";
    object      p;
}
// * * * * * * * * * * * * * * * * * * * * * * * * * * * * * * * * * * * * * //

dimensions      [0 2 -2 0 0 0 0];

internalField   nonuniform List<scalar> 
2790
(
213.196
213.11
213.392
213.986
214.794
215.783
216.951
218.294
219.808
221.485
223.318
225.297
227.414
229.653
231.999
234.428
236.914
239.422
241.91
244.327
246.617
248.717
250.565
252.101
253.282
254.087
254.463
254.494
254.558
254.765
212.992
213.016
213.323
213.914
214.718
215.704
216.867
218.205
219.712
221.381
223.205
225.175
227.281
229.51
231.845
234.265
236.744
239.247
241.734
244.156
246.456
248.574
250.445
252.009
253.212
254.013
254.354
254.403
254.527
254.793
212.789
212.883
213.209
213.789
214.581
215.554
216.703
218.022
219.508
221.153
222.949
224.889
226.961
229.153
231.448
233.827
236.264
238.727
241.179
243.572
245.857
247.975
249.866
251.471
252.74
253.644
254.18
254.503
254.792
255.069
212.558
212.683
213.022
213.593
214.37
215.327
216.456
217.752
219.21
220.822
222.58
224.477
226.501
228.64
230.878
233.195
235.567
237.966
240.357
242.698
244.944
247.045
248.949
250.608
251.982
253.06
253.866
254.488
255.004
255.493
212.289
212.428
212.775
213.34
214.1
215.036
216.14
217.405
218.826
220.396
222.106
223.948
225.911
227.982
230.146
232.385
234.675
236.99
239.3
241.57
243.76
245.831
247.741
249.455
250.947
252.216
253.279
254.183
254.948
255.653
211.979
212.123
212.473
213.027
213.767
214.678
215.75
216.978
218.355
219.874
221.527
223.304
225.195
227.186
229.263
231.408
233.6
235.816
238.028
240.207
242.323
244.343
246.241
247.991
249.581
251.009
252.286
253.428
254.395
255.262
211.624
211.77
212.116
212.657
213.375
214.256
215.292
216.477
217.803
219.264
220.85
222.552
224.36
226.26
228.237
230.275
232.354
234.453
236.549
238.618
240.636
242.58
244.433
246.182
247.822
249.353
250.778
252.09
253.198
254.188
211.225
211.369
211.708
212.233
212.925
213.773
214.767
215.903
217.172
218.567
220.079
221.697
223.412
225.209
227.074
228.991
230.943
232.908
234.869
236.804
238.696
240.53
242.295
243.988
245.612
247.171
248.662
250.068
251.258
252.348
210.783
210.923
211.252
211.758
212.421
213.23
214.179
215.261
216.467
217.789
219.219
220.745
222.357
224.04
225.782
227.565
229.373
231.188
232.991
234.766
236.499
238.179
239.802
241.371
242.895
244.384
245.84
247.251
248.465
249.636
210.299
210.434
210.749
211.232
211.864
212.632
213.532
214.554
215.691
216.935
218.276
219.702
221.202
222.762
224.369
226.005
227.654
229.298
230.921
232.506
234.041
235.517
236.932
238.292
239.612
240.91
242.201
243.495
244.646
245.878
209.774
209.902
210.202
210.661
211.258
211.982
212.828
213.787
214.851
216.01
217.255
218.574
219.955
221.383
222.844
224.32
225.795
227.25
228.668
230.031
231.326
232.541
233.673
234.726
235.713
236.661
237.601
238.592
239.528
240.77
209.21
209.331
209.614
210.045
210.605
211.283
212.072
212.964
213.95
215.02
216.165
217.37
218.624
219.912
221.217
222.522
223.808
225.056
226.245
227.355
228.367
229.263
230.031
230.663
231.164
231.553
231.875
232.244
232.658
233.766
208.609
208.722
208.987
209.389
209.91
210.539
211.268
212.089
212.994
213.972
215.01
216.097
217.219
218.359
219.5
220.624
221.709
222.734
223.672
224.5
225.188
225.709
226.032
226.127
225.967
225.538
224.856
224.061
223.284
223.788
207.974
208.079
208.324
208.696
209.176
209.753
210.42
211.169
211.989
212.87
213.799
214.764
215.748
216.735
217.707
218.641
219.516
220.303
220.975
221.496
221.83
221.929
221.738
221.189
220.196
218.659
216.466
213.614
210.172
208.411
207.307
207.403
207.628
207.968
208.405
208.93
209.533
210.206
210.94
211.722
212.54
213.378
214.222
215.052
215.849
216.589
217.246
217.788
218.181
218.382
218.34
217.988
217.24
215.977
214.029
211.144
206.919
200.78
191.601
180.868
80.8922
80.4687
79.8208
79.0565
78.1733
77.1033
75.7945
74.1423
72.0965
69.6574
66.816
63.5767
59.9605
56.0051
51.7644
47.3081
42.72
38.096
33.5404
29.1637
25.0805
21.4037
18.2211
15.5276
13.3024
11.5389
10.231
9.19186
7.58273
3.63859
80.9926
80.5814
80.0205
79.2819
78.3779
77.2891
75.9432
74.2628
72.199
69.736
66.8668
63.5977
59.9508
55.9644
51.6931
47.207
42.5903
37.9393
33.3586
28.9583
24.8504
21.1397
17.8956
15.166
12.8993
11.0814
9.71475
8.68406
7.21016
3.23545
81.5238
81.0839
80.5111
79.7289
78.7741
77.6082
76.1732
74.4089
72.2719
69.74
66.8055
63.4753
59.7715
55.7326
51.4128
46.8822
42.2247
37.5366
32.923
28.4937
24.3582
20.6181
17.3558
14.5697
12.2717
10.421
9.02235
8.01059
6.64315
2.82377
82.346
81.9023
81.236
80.37
79.3073
78.0148
76.4464
74.5537
72.2984
69.6573
66.6215
63.1974
59.4066
55.2869
50.8922
46.292
41.5703
36.8233
32.1568
27.6812
23.5052
19.7249
16.4093
13.6037
11.2933
9.44252
8.05517
7.0751
5.79999
2.38558
83.2599
82.7554
82.024
81.0575
79.8666
78.4285
76.7073
74.6642
72.2662
69.4914
66.3311
62.7912
58.893
54.6737
50.1866
45.5008
40.7001
35.881
31.1498
26.6176
22.3935
18.5718
15.2222
12.392
10.0803
8.25712
6.91608
5.98415
4.82458
1.94121
84.0748
83.512
82.7204
81.6606
80.3502
78.7729
76.9017
74.7054
72.1563
69.2355
65.9355
62.2628
58.2384
53.8995
49.2993
44.5071
39.607
34.6964
29.883
25.2799
20.9983
17.1349
13.7629
10.9278
8.63866
6.87735
5.62133
4.77231
3.78098
1.49878
84.6443
84.0535
83.2278
82.1006
80.6967
79.0032
76.9995
74.6607
71.9646
68.8958
65.4493
61.6332
57.4695
52.9961
48.2668
43.3516
38.3359
33.3185
28.4091
23.7237
19.377
15.471
12.0831
9.25796
7.01283
5.34278
4.20661
3.48083
2.71098
1.06316
84.936
84.3476
83.5179
82.3554
80.8907
79.1106
76.9986
74.5351
71.7024
68.4895
64.895
60.9292
56.6164
51.9961
47.1234
42.0699
36.9227
31.7828
26.763
21.9832
17.5634
13.6127
10.2144
7.41527
5.23755
3.6856
2.70308
2.14325
1.64092
0.638094
84.9941
84.4314
83.6219
82.4527
80.9575
79.1188
76.9225
74.3521
71.3948
68.0439
64.3019
60.1826
55.7133
50.9358
45.9075
40.7022
35.4091
30.1326
24.9889
20.1028
15.6011
11.6013
8.19513
5.43749
3.35064
1.93798
1.14023
0.787202
0.589097
0.226928
84.904
84.3834
83.611
82.4571
80.9543
79.0782
76.8152
74.1516
71.0786
67.5942
63.7052
59.4295
54.7977
49.8545
44.6604
39.2915
33.84
28.4137
23.1333
18.1292
13.5359
9.48104
6.0694
3.3664
1.38524
0.13108
-0.454156
-0.563674
-0.429913
-0.167182
84.769
84.3024
83.5795
82.456
80.9593
79.0565
76.735
73.9837
70.7981
67.181
63.1438
58.7083
53.9087
48.7931
43.4247
37.8827
32.2623
26.6747
21.2457
16.1124
11.4174
7.30026
3.88149
1.23746
-0.624961
-1.70367
-2.05346
-1.8882
-1.40315
-0.541321
84.6914
84.2916
83.6322
82.5489
81.0611
79.1294
76.7453
73.9019
70.5996
66.846
62.6567
58.0575
53.0856
47.7924
42.2439
36.5219
30.7245
24.9666
19.379
14.1057
9.29892
5.11059
1.6777
-0.910416
-2.64456
-3.53269
-3.63136
-3.16675
-2.31836
-0.892428
84.7513
84.4453
83.8751
82.8373
81.3477
79.3695
76.9054
73.955
70.5247
66.6265
62.2796
57.5125
52.3651
46.8915
41.1601
35.2552
29.2765
23.3425
17.589
12.1674
7.23922
2.96878
-0.491342
-3.03585
-4.63312
-5.31667
-5.1609
-4.38067
-3.16341
-1.21688
84.9793
84.8401
84.4131
83.4175
81.8947
79.8339
77.2591
74.1784
70.6036
66.5503
62.04
57.1024
51.7788
46.1255
40.2128
34.127
27.9679
21.8567
15.9345
10.3592
5.30182
0.936738
-2.56696
-5.08033
-6.54116
-7.01921
-6.61376
-5.51109
-3.92469
-1.50966
85.3066
85.5346
85.3594
84.3778
82.7508
80.5469
77.8174
74.577
70.8407
66.6264
61.9536
56.8468
51.3498
45.5223
39.4354
33.1773
26.8441
20.5607
14.4728
8.7441
3.55542
-0.912472
-4.47174
-6.9687
-8.31955
-8.60779
-7.9565
-6.53646
-4.58529
-1.76319
206.598
206.685
206.888
207.194
207.587
208.057
208.594
209.189
209.833
210.513
211.215
211.923
212.622
213.291
213.908
214.447
214.879
215.169
215.275
215.146
214.717
213.902
212.583
210.591
207.662
203.367
196.902
186.609
167.244
115.166
205.838
205.915
206.095
206.366
206.713
207.125
207.592
208.107
208.658
209.231
209.813
210.388
210.937
211.439
211.871
212.205
212.407
212.44
212.255
211.795
210.982
209.716
207.858
205.204
201.444
196.072
188.199
176.357
159.508
135.248
205.032
205.099
205.256
205.491
205.789
206.141
206.538
206.969
207.423
207.888
208.348
208.785
209.182
209.516
209.761
209.888
209.861
209.639
209.17
208.39
207.217
205.545
203.228
200.066
195.779
189.981
182.185
171.897
159.775
145.977
204.182
204.239
204.371
204.569
204.818
205.109
205.432
205.778
206.135
206.49
206.825
207.125
207.369
207.534
207.594
207.517
207.266
206.798
206.059
204.984
203.491
201.475
198.804
195.308
190.776
184.967
177.653
168.589
157.826
145.009
203.29
203.337
203.444
203.603
203.801
204.03
204.28
204.54
204.799
205.042
205.254
205.417
205.509
205.508
205.386
205.111
204.646
203.947
202.961
201.623
199.858
197.569
194.645
190.95
186.333
180.629
173.685
165.31
155.405
144.149
202.358
202.394
202.475
202.596
202.744
202.91
203.085
203.259
203.42
203.553
203.642
203.669
203.613
203.451
203.154
202.691
202.026
201.115
199.908
198.345
196.357
193.862
190.769
186.974
182.366
176.834
170.283
162.637
153.915
144.481
201.388
201.413
201.469
201.551
201.648
201.751
201.853
201.941
202.005
202.029
201.997
201.893
201.693
201.376
200.914
200.276
199.427
198.327
196.927
195.177
193.015
190.374
187.182
183.363
178.84
173.549
167.449
160.537
152.865
144.726
200.384
200.398
200.429
200.471
200.518
200.559
200.588
200.592
200.56
200.478
200.33
200.098
199.762
199.299
198.683
197.884
196.87
195.603
194.043
192.141
189.85
187.115
183.881
180.095
175.711
170.694
165.035
158.754
151.9
144.705
199.349
199.352
199.358
199.362
199.359
199.339
199.296
199.218
199.093
198.909
198.649
198.296
197.832
197.233
196.475
195.531
194.372
192.963
191.27
189.252
186.871
184.084
180.852
177.14
172.921
168.182
162.927
157.186
151.004
144.577
198.288
198.28
198.261
198.228
198.175
198.097
197.984
197.826
197.613
197.33
196.964
196.498
195.913
195.19
194.304
193.232
191.947
190.42
188.621
186.518
184.08
181.275
178.078
174.465
170.425
165.954
161.068
155.797
150.184
144.393
197.204
197.186
197.143
197.073
196.974
196.838
196.658
196.424
196.126
195.751
195.285
194.714
194.019
193.182
192.183
190.999
189.608
187.985
186.105
183.943
181.475
178.679
175.539
172.041
168.181
163.966
159.413
154.553
149.423
144.159
196.103
196.076
196.01
195.905
195.759
195.568
195.325
195.019
194.641
194.179
193.622
192.953
192.159
191.221
190.122
188.843
187.364
185.665
183.726
181.527
179.051
176.285
173.216
169.839
166.158
162.181
157.927
153.425
148.707
143.883
194.991
194.954
194.866
194.727
194.539
194.296
193.992
193.618
193.166
192.624
191.982
191.226
190.342
189.315
188.131
186.772
185.222
183.465
181.485
179.268
176.802
174.078
171.09
167.838
164.328
160.57
156.584
152.394
148.028
143.579
193.874
193.828
193.719
193.548
193.319
193.027
192.667
192.23
191.709
191.094
190.375
189.541
188.578
187.474
186.217
184.792
183.186
181.387
179.382
177.162
174.719
172.047
169.145
166.016
162.667
159.11
155.362
151.447
147.385
143.256
192.757
192.703
192.574
192.374
192.107
191.769
191.357
190.862
190.279
189.598
188.81
187.905
186.874
185.705
184.387
182.909
181.261
179.433
177.417
175.205
172.793
170.18
167.365
164.355
161.156
157.782
154.248
150.572
146.775
142.922
191.649
191.586
191.439
191.212
190.909
190.53
190.07
189.523
188.882
188.142
187.293
186.328
185.238
184.013
182.646
181.127
179.448
177.603
175.585
173.39
171.017
168.465
165.737
162.84
159.781
156.572
153.228
149.764
146.198
142.584
190.555
190.486
190.322
190.069
189.734
189.317
188.813
188.219
187.528
186.734
185.833
184.815
183.675
182.405
180.998
179.448
177.749
175.895
173.884
171.713
169.382
166.893
164.25
161.458
158.528
155.469
152.294
149.017
145.653
142.248
189.484
189.408
189.229
188.953
188.589
188.137
187.595
186.958
186.222
185.383
184.435
183.374
182.192
180.885
179.448
177.875
176.163
174.309
172.311
170.168
167.881
165.454
162.892
160.2
157.386
154.462
151.438
148.326
145.14
141.918
188.444
188.362
188.169
187.872
187.482
186.999
186.422
185.748
184.973
184.095
183.108
182.009
180.794
179.458
177.997
176.409
174.692
172.843
170.862
168.749
166.508
164.142
161.655
159.055
156.348
153.545
150.655
147.689
144.659
141.597
187.442
187.355
187.149
186.834
186.42
185.91
185.303
184.597
183.788
182.876
181.856
180.727
179.484
178.126
176.649
175.052
173.334
171.495
169.534
167.454
165.258
162.949
160.533
158.017
155.407
152.712
149.941
147.104
144.211
141.289
186.488
186.395
186.179
185.847
185.413
184.879
184.246
183.511
182.674
181.733
180.687
179.532
178.269
176.894
175.406
173.805
172.091
170.263
168.325
166.277
164.125
161.87
159.52
157.08
154.557
151.959
149.294
146.57
143.796
140.998
185.589
185.492
185.266
184.92
184.467
183.913
183.257
182.499
181.638
180.674
179.605
178.431
177.151
175.764
174.27
172.669
170.961
169.148
167.233
165.217
163.105
160.902
158.611
156.24
153.795
151.282
148.71
146.086
143.417
140.725
184.754
184.654
184.419
184.061
183.593
183.021
182.345
181.567
180.686
179.703
178.617
177.428
176.136
174.741
173.244
171.645
169.946
168.149
166.256
164.271
162.198
160.04
157.804
155.494
153.117
150.68
148.189
145.651
143.074
140.475
183.994
183.89
183.648
183.278
182.797
182.21
181.519
180.724
179.827
178.828
177.728
176.528
175.228
173.828
172.33
170.736
169.047
167.266
165.395
163.439
161.4
159.284
157.096
154.84
152.524
150.152
147.732
145.269
142.77
140.25
183.317
183.211
182.961
182.582
182.088
181.489
180.784
179.976
179.066
178.055
176.945
175.736
174.43
173.029
171.532
169.944
168.265
166.499
164.649
162.718
160.711
158.632
156.485
154.277
152.012
149.697
147.336
144.937
142.504
140.052
182.735
182.625
182.368
181.98
181.477
180.867
180.152
179.333
178.413
177.393
176.275
175.061
173.751
172.349
170.856
169.273
167.605
165.853
164.021
162.114
160.134
158.086
155.976
153.807
151.586
149.318
147.008
144.662
142.286
139.89
182.257
182.143
181.878
181.48
180.968
180.35
179.626
178.799
177.871
176.844
175.721
174.503
173.192
171.79
170.3
168.724
167.065
165.326
163.51
161.622
159.665
157.644
155.563
153.427
151.242
149.011
146.742
144.438
142.106
139.753
181.897
181.777
181.502
181.096
180.578
179.953
179.223
178.39
177.456
176.425
175.298
174.078
172.766
171.366
169.879
168.309
166.658
164.93
163.128
161.256
159.317
157.318
155.261
153.151
150.994
148.795
146.558
144.288
141.991
139.675
181.672
181.527
181.235
180.822
180.301
179.672
178.937
178.101
177.164
176.13
175.002
173.781
172.47
171.072
169.588
168.022
166.378
164.657
162.864
161.003
159.078
157.092
155.051
152.959
150.82
148.64
146.424
144.176
141.901
139.605
181.64
181.433
181.112
180.693
180.167
179.534
178.796
177.957
177.019
175.984
174.856
173.636
172.327
170.931
169.451
167.891
166.252
164.538
162.754
160.902
158.987
157.012
154.984
152.904
150.78
148.614
146.413
144.18
141.922
139.642
43.2729
61.3679
77.015
118.894
113.306
104.095
132.176
122.876
114.267
131.686
123.362
116.975
133.643
126.844
121.287
135.915
130.096
125.067
137.297
132.176
127.689
138.144
133.612
129.63
138.733
134.688
131.132
139.131
135.481
132.279
139.373
136.049
133.141
139.496
136.443
133.782
139.528
136.706
134.254
139.493
136.869
134.595
139.409
136.955
134.836
139.288
136.984
134.998
139.142
136.969
135.1
138.979
136.922
135.156
138.806
136.852
135.176
138.629
136.766
135.17
138.453
136.67
135.143
138.282
136.571
135.104
138.12
136.471
135.057
137.972
136.377
135.009
137.839
136.29
134.961
137.733
136.223
134.924
137.64
136.161
134.889
137.599
136.145
134.891
137.549
136.113
134.875
137.611
136.189
134.958
85.1153
86.5626
86.8545
85.7852
83.9319
81.5105
78.5766
75.1452
71.23
66.845
62.008
56.7406
51.0849
45.1003
38.8606
32.4404
25.939
19.4913
13.2447
7.36805
2.05207
-2.52657
-6.15569
-8.66321
-9.95195
-10.0677
-9.17252
-7.45525
-5.14108
-1.97299
95.5036
91.8642
89.8696
87.6955
85.341
82.641
79.4798
75.8456
71.7472
67.1937
62.1998
56.7865
50.9921
44.872
38.4945
31.9321
25.2926
18.7109
12.3346
6.33287
0.87212
-3.83103
-7.55094
-10.1131
-11.3973
-11.3511
-10.2213
-8.24937
-5.57577
-2.13286
103.287
95.878
92.5368
89.869
87.0001
83.8508
80.3965
76.5652
72.3075
67.6115
62.4868
56.9537
51.048
44.8213
38.3392
31.6781
24.9428
18.266
11.7921
5.6814
0.102493
-4.69509
-8.49512
-11.1119
-12.4105
-12.3252
-11.085
-8.8762
-5.87282
-2.24517
108.183
99.9154
95.0824
91.5214
88.2439
84.8747
81.2235
77.2159
72.8224
68.0223
62.8102
57.1993
51.2221
44.9281
38.3826
31.6649
24.8772
18.1476
11.6196
5.45421
-0.170753
-5.01964
-8.87084
-11.5376
-12.8986
-12.9127
-11.5809
-9.21155
-6.04732
-2.34585
113.323
104.894
98.6758
93.7703
89.5863
85.7325
81.862
77.7369
73.253
68.3824
63.1219
57.4797
51.4805
45.1694
38.6095
31.8812
25.0853
18.3467
11.8092
5.63595
0.0102955
-4.84877
-8.72141
-11.4203
-12.8231
-12.8942
-11.6651
-9.33376
-6.1532
-2.47584
117.938
109.844
102.811
96.8024
91.6289
87.0087
82.6351
78.2389
73.6305
68.7053
63.423
57.7818
51.8017
45.5214
38.9986
32.3106
25.556
18.8567
12.3553
6.21476
0.618282
-4.22646
-8.1081
-10.8437
-12.3101
-12.4697
-11.3779
-9.20797
-6.18782
-2.59733
121.515
114.089
106.824
100.185
94.2829
88.945
83.9481
79.089
74.1934
69.1243
63.7918
58.1546
52.2115
45.9905
39.5424
32.9384
26.2717
19.6587
13.2379
7.16896
1.63061
-3.17984
-7.06278
-9.84398
-11.404
-11.7037
-10.7964
-8.83046
-6.00915
-2.62162
124.28
117.581
110.464
103.6
97.2843
91.4337
85.8982
80.5468
75.2584
69.9198
64.4364
58.7433
52.8115
46.6463
40.2833
33.7838
27.2328
20.7386
14.4322
8.46551
3.00923
-1.75156
-5.63122
-8.46715
-10.1461
-10.6273
-9.9539
-8.2525
-5.70733
-2.60668
126.433
120.404
113.643
106.847
100.394
94.2659
88.367
82.6235
76.9652
71.3168
65.6063
59.7755
53.7881
47.634
41.3313
34.9261
28.4908
22.1225
15.9417
10.0895
4.72451
0.0173363
-3.86222
-6.76495
-8.5851
-9.2804
-8.88313
-7.50001
-5.29406
-2.55011
128.094
122.65
116.335
109.792
103.416
97.2244
91.1568
85.1779
79.257
73.3533
67.4217
61.423
55.3302
49.1336
42.8441
36.4965
30.1501
23.8888
17.8199
12.0709
6.78617
2.11986
-1.77507
-4.76377
-6.74885
-7.68767
-7.60272
-6.58275
-4.76981
-2.43547
129.369
124.427
118.573
112.378
106.219
100.128
94.0645
88.0131
81.9691
75.9176
69.8367
63.7063
57.5135
51.2567
44.9494
38.6229
32.3291
26.1409
20.1527
14.4777
9.24448
4.59038
0.651332
-2.45235
-4.63218
-5.84637
-6.10945
-5.49455
-4.12421
-2.25141
130.35
125.837
120.42
114.603
108.736
102.855
96.9234
90.9372
84.9043
78.8259
72.6971
66.5125
60.2719
53.9832
47.6652
41.351
35.0893
28.9468
23.0076
17.3724
12.1548
7.47623
3.45624
0.201301
-2.20904
-3.73477
-4.38429
-4.21775
-3.34089
-1.98771
131.107
126.961
121.942
116.497
110.951
105.336
99.6195
93.7969
87.8817
81.8839
75.808
69.6586
63.4444
57.1805
50.8909
44.6107
38.388
32.285
26.3787
20.7594
15.5281
10.7918
6.65566
3.21353
0.536562
-1.3375
-2.41251
-2.73802
-2.4059
-1.63155
131.691
127.861
123.197
118.102
112.876
107.55
102.089
96.4892
90.7635
84.9253
78.9839
72.9491
66.8344
60.6592
54.4503
48.2441
42.0872
36.0385
30.1685
24.5588
19.2996
14.4853
10.2088
6.55266
3.58066
1.32804
-0.205658
-1.06129
-1.31903
-1.1736
132.139
128.584
124.235
119.459
114.538
109.499
104.308
98.958
93.4609
87.8307
82.0783
76.2153
70.2574
64.2252
58.1464
52.0562
45.9993
40.0301
34.2129
28.6212
23.3351
18.4382
14.0121
10.1298
6.84827
4.20015
2.1875
0.776746
-0.101833
-0.618098
132.481
129.165
125.094
120.608
115.968
111.203
106.277
101.182
95.9274
90.5273
84.9923
79.3343
73.5688
67.7163
61.803
55.862
49.9345
44.0698
38.3255
32.7669
27.4647
22.4922
17.9209
13.815
10.2249
7.18055
4.68576
2.71298
1.20204
0.0118317
132.74
129.631
125.806
121.579
117.196
112.684
108.009
103.161
98.1469
92.9802
87.6708
82.2301
76.6725
71.0171
65.288
59.5152
53.7354
47.9924
42.3369
36.826
31.5211
26.4859
21.7823
17.466
13.5814
10.1552
7.19201
4.66912
2.53478
0.67807
132.931
130.003
126.396
122.399
118.248
113.968
109.524
104.907
100.122
95.18
90.091
84.8651
79.5155
74.0593
68.518
62.9183
57.2922
51.6779
46.1192
40.6653
35.3688
30.2841
25.4643
20.957
16.8002
13.0175
9.61309
6.56789
3.83697
1.33793
133.069
130.298
126.883
123.091
119.147
115.075
110.843
106.438
101.864
97.1325
92.2508
87.2284
82.0769
76.8114
71.4509
66.0185
60.5421
55.0543
49.5925
44.1985
38.9168
33.7934
28.8728
24.1953
19.7928
15.685
11.8752
8.34651
5.0591
1.95493
133.165
130.53
127.283
123.673
119.913
116.028
111.986
107.772
103.391
98.8511
94.1597
89.3246
84.356
79.267
74.0739
68.7968
63.4595
58.0897
52.7191
47.3827
42.1178
36.9629
31.9549
27.1271
22.5056
18.1064
13.931
9.9638
6.16825
2.50537
133.228
130.711
127.611
124.161
120.564
116.844
112.97
108.927
104.719
100.352
95.8326
91.1668
86.3635
81.4338
76.392
71.255
66.043
60.7794
55.4909
50.2067
44.9578
39.7758
34.6913
29.7311
24.9164
20.259
15.7587
11.4
7.14862
2.97921
133.265
130.849
127.877
124.567
121.113
117.538
113.813
109.922
105.867
101.654
97.2868
92.7716
88.1153
83.3274
78.4197
73.4066
68.3052
63.1351
57.9185
52.6797
47.4443
42.2382
37.0862
32.01
27.0257
22.1418
17.356
12.6525
7.99848
3.37748
133.283
130.954
128.093
124.904
121.574
118.125
114.53
110.772
106.851
102.772
98.539
94.156
89.6287
84.9649
80.1745
75.2695
70.2641
65.1747
60.0199
54.8196
49.595
44.3671
39.1557
33.978
28.8462
23.7655
18.7315
13.7281
8.72351
3.70648
133.29
131.034
128.267
125.183
121.959
118.619
115.136
111.492
107.687
103.724
99.607
95.3384
90.9227
86.3661
81.6767
76.8645
71.9413
66.9208
61.8182
56.65
51.4336
46.1859
40.9228
35.6575
30.3987
25.1488
19.9019
14.6411
9.33565
3.97655
133.289
131.093
128.406
125.411
122.277
119.029
115.64
112.093
108.386
104.522
100.503
96.3318
92.0107
87.5449
82.941
78.2071
73.3531
68.3901
63.3309
58.189
52.9785
47.7133
42.4056
37.0655
31.6989
26.3059
20.879
15.4007
9.84158
4.19279
133.29
131.144
128.523
125.601
122.542
119.37
116.059
112.592
108.967
105.185
101.248
97.1575
92.9149
88.5243
83.9911
79.3219
74.5247
69.6089
64.585
59.4642
54.258
48.9774
43.6323
38.2299
32.7738
27.2622
21.6863
16.0283
10.2594
4.36867
133.287
131.18
128.612
125.748
122.748
119.637
116.389
112.986
109.426
105.71
101.838
97.8117
93.6316
89.301
84.8239
80.2059
75.4536
70.5749
65.5784
60.4737
55.27
49.9765
44.6008
39.148
33.62
28.0133
22.318
16.5162
10.5798
4.49621
133.309
131.231
128.704
125.885
122.931
119.866
116.666
113.313
109.802
106.136
102.314
98.3365
94.204
89.9188
85.4841
80.9047
76.1861
71.335
66.3588
61.2655
56.063
50.7589
45.359
39.8673
34.2838
28.6041
22.8174
16.9051
10.8394
4.60193
133.313
131.254
128.754
125.965
123.042
120.008
116.839
113.519
110.041
106.408
102.619
98.674
94.5729
90.3176
85.911
81.357
76.6605
71.8274
66.8643
61.7782
56.5762
51.2645
45.8483
40.3301
34.7092
28.9802
23.1314
17.1437
10.9896
4.64828
133.394
131.339
128.856
126.087
123.182
120.167
117.017
113.715
110.256
106.642
102.871
98.9426
94.858
90.618
86.2253
81.6833
76.9966
72.1709
67.2122
62.1272
56.9223
51.6035
46.1753
40.6398
34.9958
29.2373
23.3521
17.3195
11.1082
4.67827
)
;

boundaryField
{
    inlet
    {
        type            zeroGradient;
    }
    outlet
    {
        type            fixedValue;
        value           uniform 0;
    }
    flap
    {
        type            zeroGradient;
    }
    upperWall
    {
        type            zeroGradient;
    }
    lowerWall
    {
        type            zeroGradient;
    }
    frontAndBack
    {
        type            empty;
    }
}


// ************************************************************************* //
