/*--------------------------------*- C++ -*----------------------------------*\
  =========                 |
  \\      /  F ield         | OpenFOAM: The Open Source CFD Toolbox
   \\    /   O peration     | Website:  https://openfoam.org
    \\  /    A nd           | Version:  7
     \\/     M anipulation  |
\*---------------------------------------------------------------------------*/
FoamFile
{
    version     2.0;
    format      ascii;
    class       surfaceScalarField;
    location    "1.1";
    object      phi;
}
// * * * * * * * * * * * * * * * * * * * * * * * * * * * * * * * * * * * * * //

dimensions      [0 3 -1 0 0 0 0];

internalField   nonuniform List<scalar> 
5457
(
0.1984
0.00160002
0.196428
0.00197201
0.194089
0.00233939
0.191338
0.00275074
0.188175
0.00316327
0.184602
0.00357264
0.180615
0.0039869
0.176202
0.00441317
0.171345
0.00485636
0.166025
0.0053202
0.160217
0.00580789
0.153895
0.00632207
0.147031
0.00686459
0.139595
0.00743614
0.131559
0.00803573
0.122899
0.00866002
0.113596
0.00930244
0.103644
0.00995211
0.0930516
0.0105927
0.0818505
0.0112012
0.0701035
0.011747
0.0579117
0.0121917
0.0454211
0.0124906
0.0328215
0.0125997
0.0203061
0.0125154
0.00786281
0.0124433
-0.00349677
0.0113596
-0.00858383
0.00508706
-0.00793969
-0.000644137
-0.00793969
0.19991
0.00168957
0.199123
0.00275953
0.19786
0.00360218
0.196159
0.00445187
0.194016
0.00530642
0.191429
0.00615986
0.188392
0.00702373
0.184894
0.007911
0.180919
0.00883151
0.176446
0.009793
0.171452
0.0108021
0.165909
0.0118646
0.159789
0.0129845
0.153062
0.0141638
0.145696
0.0154013
0.137665
0.0166913
0.128946
0.0180218
0.119525
0.0193722
0.109407
0.0207111
0.0986149
0.0219933
0.0872042
0.0231576
0.0752708
0.0241251
0.0629632
0.0247982
0.0505015
0.0250613
0.0382419
0.024775
0.0269727
0.0237125
0.0175544
0.0207779
0.00791527
0.0147262
0.000815929
0.00645521
-0.00712376
0.199763
0.00192636
0.199035
0.00348774
0.197843
0.00479371
0.196241
0.0060545
0.194234
0.00731298
0.191822
0.00857258
0.188999
0.00984674
0.185757
0.0111524
0.182085
0.012504
0.177965
0.0139131
0.173377
0.0153899
0.168298
0.0169432
0.162703
0.0185799
0.156563
0.0203039
0.149849
0.0221153
0.142532
0.0240079
0.134587
0.0259672
0.125992
0.0279667
0.116739
0.0299645
0.106833
0.0318987
0.0963079
0.033683
0.0852311
0.0352019
0.0737234
0.0363059
0.0619826
0.0368022
0.0503257
0.0364319
0.0392135
0.0348247
0.0287394
0.031252
0.0184837
0.0249819
0.00914874
0.0157901
0.00202498
0.199686
0.00224066
0.198956
0.00421739
0.197785
0.00596479
0.196208
0.00763132
0.19424
0.00928129
0.191881
0.0109319
0.189128
0.0125994
0.185977
0.0143034
0.182419
0.0160616
0.178444
0.0178888
0.174035
0.0197981
0.169178
0.0218004
0.163853
0.0239048
0.15804
0.026117
0.151717
0.0284385
0.144861
0.0308638
0.137451
0.0333777
0.129466
0.0359517
0.120892
0.0385386
0.111723
0.0410673
0.10197
0.0434356
0.0916688
0.0455035
0.0808898
0.047085
0.0697536
0.0479383
0.0584329
0.0477526
0.04712
0.0461377
0.0358454
0.0425265
0.024499
0.0363283
0.0129381
0.027351
0.0149631
0.19965
0.00259065
0.198912
0.00495502
0.19776
0.00711676
0.196213
0.00917909
0.194283
0.0112106
0.191975
0.0132403
0.189286
0.0152888
0.186211
0.0173778
0.182745
0.0195275
0.178879
0.0217551
0.174602
0.0240755
0.169901
0.0265014
0.164762
0.029043
0.159172
0.0317073
0.153114
0.0344964
0.146572
0.0374055
0.13953
0.0404199
0.131971
0.043511
0.123879
0.0466308
0.115241
0.0497052
0.10605
0.0526264
0.0963095
0.0552441
0.0860379
0.0573565
0.0752737
0.0587025
0.0640706
0.0589557
0.0524804
0.0577279
0.0404701
0.0545367
0.0278848
0.0489136
0.014469
0.0407669
0.0294321
0.199635
0.00295528
0.198897
0.00569351
0.197768
0.00824551
0.196258
0.0106896
0.194377
0.0130916
0.192129
0.0154883
0.189512
0.0179051
0.186524
0.020366
0.183158
0.022893
0.179408
0.0255055
0.175264
0.0282198
0.170715
0.0310499
0.165751
0.0340069
0.16036
0.0370985
0.154529
0.0403274
0.148245
0.0436894
0.141494
0.0471708
0.134261
0.0507443
0.126528
0.0543641
0.118274
0.0579587
0.109478
0.061423
0.100113
0.0646089
0.0901533
0.067316
0.0795721
0.0692837
0.0683397
0.0701882
0.0564179
0.0696497
0.0437208
0.0672339
0.0301135
0.0625209
0.0154858
0.0553945
0.0449179
0.199633
0.00332268
0.198902
0.00642399
0.197802
0.00934609
0.196335
0.0121561
0.194511
0.0149154
0.192334
0.0176657
0.189802
0.0204368
0.186913
0.0232549
0.183662
0.026144
0.180043
0.0291251
0.176047
0.032216
0.171664
0.035432
0.166886
0.038785
0.161701
0.0422835
0.156098
0.045931
0.150062
0.0497246
0.143581
0.0536523
0.136635
0.0576898
0.129204
0.0617957
0.121257
0.0659054
0.112757
0.069923
0.103654
0.0737122
0.093884
0.0770859
0.0833699
0.0797978
0.0720215
0.0815365
0.0597403
0.0819309
0.0464148
0.0805594
0.0319537
0.076982
0.0163621
0.0709861
0.06128
0.199637
0.00368551
0.198923
0.00713866
0.197856
0.010413
0.19644
0.0135718
0.194682
0.0166735
0.192585
0.0197626
0.190149
0.0228724
0.187373
0.0260315
0.184251
0.0292659
0.180778
0.0325979
0.176947
0.036047
0.172749
0.0396296
0.168175
0.0433589
0.163214
0.0472445
0.157854
0.0512915
0.15208
0.0554987
0.145875
0.0598575
0.139217
0.064348
0.132076
0.0689359
0.124415
0.073567
0.116178
0.0781599
0.107293
0.082597
0.0976652
0.086714
0.0871748
0.0902882
0.0756828
0.0930285
0.0630425
0.0945712
0.0491204
0.0944816
0.0338485
0.0922539
0.0173087
0.0875259
0.0785887
0.199647
0.00403882
0.198954
0.00783106
0.197927
0.0114404
0.196568
0.0149305
0.194883
0.0183583
0.192876
0.0217698
0.190547
0.0252013
0.187895
0.0286839
0.184916
0.032245
0.181605
0.0359087
0.177956
0.0396958
0.173962
0.0436243
0.169612
0.0477087
0.164896
0.0519603
0.159801
0.0563864
0.154311
0.0609889
0.148405
0.0657634
0.142056
0.0706966
0.135228
0.0757639
0.127871
0.0809245
0.119915
0.0861159
0.111266
0.0912457
0.1018
0.0961799
0.0913591
0.100729
0.0797547
0.104633
0.0667871
0.107539
0.0522785
0.10899
0.0361457
0.108387
0.0185098
0.105162
0.0970985
0.19966
0.00437908
0.198995
0.0084959
0.198012
0.0124231
0.196716
0.0162263
0.195112
0.0199624
0.193203
0.0236786
0.190991
0.0274137
0.188474
0.0312007
0.18565
0.0350687
0.182516
0.0390432
0.179065
0.0431467
0.175291
0.0473983
0.171185
0.0518146
0.166737
0.0564088
0.161932
0.0611911
0.156753
0.0661673
0.151178
0.0713385
0.145175
0.0766999
0.138701
0.0822382
0.131696
0.0879295
0.124077
0.0937341
0.115733
0.0995902
0.10651
0.105403
0.0962105
0.111029
0.0845919
0.116252
0.0713795
0.120751
0.056308
0.124062
0.0392125
0.125482
0.020189
0.124185
0.117287
0.199675
0.0047036
0.199043
0.00912884
0.19811
0.013356
0.196882
0.0174537
0.195365
0.0214794
0.193562
0.0254816
0.191475
0.0295008
0.189104
0.0335719
0.186447
0.0377255
0.183502
0.0419887
0.180263
0.0463849
0.176726
0.0509353
0.172883
0.0556579
0.168723
0.0605685
0.164234
0.0656804
0.159397
0.0710041
0.154189
0.0765472
0.148575
0.0823139
0.142508
0.0883045
0.135924
0.0945136
0.12873
0.100928
0.120799
0.107521
0.111955
0.114247
0.101961
0.121022
0.0905106
0.127702
0.0772258
0.134036
0.061688
0.1396
0.043534
0.143636
0.0226874
0.145032
0.139975
0.199693
0.00501029
0.199096
0.00972629
0.198217
0.0142348
0.197063
0.0186077
0.195639
0.0229035
0.193949
0.0271718
0.191995
0.0314546
0.189778
0.0357885
0.187298
0.0402054
0.184554
0.0447334
0.181541
0.0493975
0.178256
0.0542201
0.174693
0.0592212
0.170843
0.064419
0.166693
0.0698301
0.162227
0.0754696
0.157422
0.0813521
0.152245
0.0874913
0.146648
0.0939012
0.140566
0.100596
0.133903
0.10759
0.126527
0.114898
0.118246
0.122528
0.108796
0.130473
0.0978038
0.138694
0.0847669
0.147073
0.0690331
0.155333
0.0498495
0.16282
0.0266237
0.168258
0.166599
0.199713
0.00529749
0.199154
0.0102853
0.198333
0.0150558
0.197256
0.019684
0.19593
0.0242296
0.194359
0.0287433
0.192545
0.0332685
0.190491
0.0378428
0.188197
0.0424993
0.185663
0.0472673
0.182887
0.0521729
0.179868
0.0572396
0.1766
0.0624891
0.173077
0.0679419
0.16929
0.0736176
0.165223
0.0795358
0.160858
0.0857173
0.156165
0.0921849
0.1511
0.0989654
0.145605
0.106092
0.13959
0.113605
0.132929
0.121559
0.125437
0.13002
0.116838
0.139072
0.106724
0.148808
0.0944775
0.15932
0.0791612
0.17065
0.0593812
0.1826
0.0332859
0.194353
0.199884
0.199734
0.00556389
0.199215
0.0108035
0.198455
0.0158159
0.19746
0.0206788
0.196237
0.0254534
0.194789
0.0301912
0.193121
0.0349365
0.191235
0.0397281
0.189135
0.0446
0.18682
0.0495822
0.184291
0.0547015
0.181548
0.0599826
0.178589
0.0654486
0.175409
0.0711215
0.172003
0.0770236
0.168361
0.0831781
0.164467
0.0896108
0.1603
0.096352
0.155827
0.103439
0.150999
0.11092
0.145746
0.118858
0.139965
0.12734
0.133501
0.136485
0.126113
0.146459
0.117422
0.157499
0.106791
0.169951
0.0930957
0.184345
0.074196
0.201499
0.045736
0.222813
0.245621
0.199755
0.00580848
0.19928
0.011279
0.198583
0.0165125
0.197673
0.0215892
0.196555
0.0265712
0.195235
0.0315112
0.193718
0.0364541
0.192006
0.0414393
0.190105
0.0465015
0.188016
0.0516712
0.185741
0.0569758
0.183284
0.0624405
0.180643
0.0680893
0.177819
0.0739453
0.17481
0.0800326
0.171612
0.0863767
0.168216
0.0930068
0.16461
0.099958
0.160774
0.107274
0.156681
0.115013
0.152287
0.123252
0.147529
0.132098
0.142313
0.141701
0.136491
0.152281
0.12982
0.16417
0.12187
0.177901
0.111786
0.194429
0.0975213
0.215764
0.072409
0.247925
0.31803
0.0100977
-0.0100977
0.0157712
-0.00567348
0.0184021
-0.00263092
0.0181408
0.000261289
0.0154126
0.00272824
0.0107611
0.00465145
0.00466494
0.00609616
-0.00248187
0.00714681
-0.0103823
0.00790041
-0.0188508
0.00846856
-0.0277065
0.00885569
-0.0367726
0.00906609
-0.0458772
0.00910462
-0.0548514
0.00897413
-0.0635268
0.00867539
-0.0717343
0.00820754
-0.0793028
0.00756846
-0.086058
0.00675526
-0.0918231
0.00576507
-0.0964196
0.00459653
-0.0996703
0.00325068
-0.101386
0.00171539
-0.10129
-9.52607e-05
-0.0990798
-0.00221067
-0.0943571
-0.00472264
-0.0868066
-0.00755053
-0.0760015
-0.0108051
-0.0611977
-0.0148037
-0.0419235
-0.0192743
-0.019603
0.00205628
-0.012154
0.0018575
-0.00547471
-0.000905472
0.000132061
-0.00525507
0.00461088
-0.0108274
0.00830054
-0.0175087
0.0113328
-0.0251486
0.0137361
-0.033583
0.0155812
-0.0426444
0.0169617
-0.0521336
0.0179578
-0.0618784
0.0186005
-0.0717182
0.0189058
-0.0814959
0.0188824
-0.0910556
0.0185338
-0.100239
0.0178592
-0.108887
0.0168551
-0.116834
0.0155156
-0.123913
0.0138343
-0.129954
0.0118057
-0.134785
0.00942818
-0.138239
0.00670389
-0.14014
0.00361686
-0.140383
0.000147623
-0.138781
-0.00381261
-0.135286
-0.00821801
-0.129812
-0.0130238
-0.122381
-0.0182365
-0.113286
-0.023899
-0.103141
-0.0294194
-0.0333999
-0.00445161
-0.00770235
-0.0096612
-0.000265118
-0.0152938
0.00576471
-0.021669
0.0109861
-0.0288047
0.0154362
-0.0366199
0.019148
-0.0450422
0.0221584
-0.0539852
0.0245242
-0.0633364
0.0263129
-0.0729613
0.0275827
-0.0827283
0.0283675
-0.0925086
0.0286861
-0.102173
0.0285472
-0.111592
0.0279522
-0.120629
0.0268968
-0.129147
0.0253731
-0.137002
0.0233704
-0.144046
0.0208784
-0.150129
0.0178886
-0.155099
0.0143982
-0.158806
0.010411
-0.161127
0.005937
-0.161903
0.000923996
-0.161164
-0.0045519
-0.158807
-0.0105748
-0.154852
-0.0169781
-0.14944
-0.0236492
-0.142886
-0.030453
-0.13522
-0.0370852
-0.0429208
-0.0083465
0.00064415
-0.0162962
0.00768458
-0.0241335
0.013602
-0.0321182
0.0189708
-0.0403591
0.0236771
-0.0489012
0.02769
-0.0577521
0.0310093
-0.0668887
0.0336609
-0.0762585
0.0356826
-0.0857856
0.0371099
-0.0953837
0.0379656
-0.104959
0.0382613
-0.114411
0.0379991
-0.123632
0.0371729
-0.132506
0.035771
-0.14091
0.0337773
-0.148713
0.031174
-0.155779
0.0279442
-0.161966
0.0240754
-0.167131
0.0195636
-0.171137
0.0144169
-0.173854
0.00865332
-0.17521
0.00228045
-0.175134
-0.00462836
-0.173666
-0.0120428
-0.170842
-0.0198015
-0.166825
-0.0276662
-0.161855
-0.0354235
-0.155972
-0.0429682
-0.0496297
-0.0102971
0.0109412
-0.0199312
0.0173187
-0.0291491
0.0228199
-0.0381582
0.0279799
-0.0470955
0.0326144
-0.0560583
0.0366529
-0.0651074
0.0400585
-0.0742699
0.0428233
-0.0835414
0.0449541
-0.0928917
0.0464601
-0.102271
0.0473453
-0.111616
0.047606
-0.120848
0.0472308
-0.129877
0.0462018
-0.138601
0.0444955
-0.146909
0.0420854
-0.15468
0.0389442
-0.161783
0.0350476
-0.168086
0.0303779
-0.173452
0.0249297
-0.177749
0.0187145
-0.18086
0.0117645
-0.182715
0.00413545
-0.183278
-0.00406565
-0.182585
-0.0127359
-0.1807
-0.021687
-0.177777
-0.0305883
-0.174018
-0.0391834
-0.16958
-0.0474059
-0.0544006
-0.0110387
0.0219799
-0.0214961
0.0277762
-0.0313968
0.0327207
-0.0409043
0.0374873
-0.0501506
0.0418607
-0.0592516
0.0457539
-0.0682965
0.0491033
-0.0773447
0.0518715
-0.0864256
0.0540351
-0.095541
0.0555756
-0.104669
0.0564734
-0.113768
0.0567048
-0.122778
0.0562406
-0.131623
0.0550469
-0.140213
0.0530859
-0.148446
0.0503184
-0.156208
0.0467058
-0.163375
0.0422145
-0.169818
0.0368207
-0.175404
0.0305164
-0.180007
0.0233175
-0.183515
0.0152725
-0.185857
0.00647748
-0.187005
-0.00291774
-0.187002
-0.0127385
-0.185925
-0.0227649
-0.183915
-0.0325978
-0.181165
-0.0419336
-0.17792
-0.0506503
-0.0577648
-0.011032
0.0330118
-0.0215953
0.0383395
-0.0315937
0.042719
-0.0411321
0.0470257
-0.0503256
0.0510542
-0.059292
0.0547203
-0.0681326
0.0579439
-0.0769248
0.0606637
-0.0857183
0.0628286
-0.0945354
0.0643926
-0.103373
0.0653108
-0.112204
0.0655363
-0.120983
0.0650198
-0.129646
0.0637091
-0.13811
0.0615502
-0.14628
0.058489
-0.154049
0.0544743
-0.161296
0.049462
-0.167897
0.0434208
-0.17372
0.0363402
-0.178643
0.0282401
-0.182556
0.0191851
-0.185381
0.00930302
-0.187085
-0.00121346
-0.187716
-0.0121081
-0.187357
-0.0231232
-0.186143
-0.0338122
-0.18427
-0.0438066
-0.182028
-0.0528921
-0.0600355
-0.0104896
0.0435014
-0.0206165
0.0484665
-0.0302253
0.0523278
-0.0393829
0.0561834
-0.0481885
0.0598597
-0.0567564
0.0632882
-0.0651912
0.0663786
-0.0735776
0.0690502
-0.0819754
0.0712264
-0.0904176
0.0728348
-0.0989117
0.0738048
-0.107441
0.0740661
-0.11597
0.0735479
-0.124439
0.0721788
-0.132776
0.0698871
-0.14089
0.0666033
-0.148678
0.0622622
-0.156024
0.0568079
-0.162804
0.0502005
-0.168889
0.0424254
-0.174154
0.0335054
-0.178487
0.0235179
-0.1818
0.0126157
-0.184039
0.00102594
-0.185254
-0.0108935
-0.185551
-0.0228262
-0.185049
-0.0343147
-0.183953
-0.0449023
-0.182571
-0.0542735
-0.0614029
-0.00953113
0.0530325
-0.0188026
0.0577379
-0.0276199
0.0611452
-0.036036
0.0645994
-0.0441455
0.0679693
-0.0520621
0.0712048
-0.0598899
0.0742065
-0.0677147
0.076875
-0.0755983
0.0791099
-0.0835766
0.0808132
-0.0916615
0.0818896
-0.0998417
0.0822463
-0.108085
0.0817914
-0.116341
0.0804342
-0.124539
0.0780856
-0.132595
0.0746595
-0.140409
0.0700764
-0.147868
0.064267
-0.154849
0.0571807
-0.161219
0.0487961
-0.166849
0.0391355
-0.171615
0.0282839
-0.175412
0.0164122
-0.178188
0.00380159
-0.179974
-0.00910743
-0.180885
-0.0219145
-0.181036
-0.0341636
-0.180641
-0.0452973
-0.180018
-0.0548973
-0.0619839
-0.00824535
0.0612779
-0.0163258
0.0658184
-0.0240109
0.0688303
-0.031364
0.0719525
-0.0384926
0.0750978
-0.0455172
0.0782294
-0.0525413
0.0812306
-0.059647
0.0839807
-0.0668915
0.0863544
-0.0743076
0.0882293
-0.0819054
0.0894875
-0.0896744
0.0900152
-0.097585
0.0897019
-0.105589
0.0884387
-0.113623
0.0861193
-0.121605
0.0826417
-0.12944
0.0779112
-0.137017
0.071844
-0.144212
0.0643753
-0.150888
0.0554725
-0.156905
0.0451523
-0.162124
0.0335027
-0.166427
0.0207157
-0.169757
0.00713188
-0.172122
-0.00674283
-0.173628
-0.0204087
-0.174396
-0.0333956
-0.174646
-0.0450469
-0.174709
-0.0548349
-0.0618458
-0.00671507
0.0679929
-0.0133312
0.0724346
-0.0195794
0.0750785
-0.025571
0.0779441
-0.0314504
0.0809772
-0.0373555
0.0841345
-0.0433882
0.0872633
-0.0496216
0.0902141
-0.0561019
0.0928347
-0.0628521
0.0949795
-0.0698753
0.0965107
-0.0771578
0.0972978
-0.0846703
0.0972144
-0.0923675
0.0961359
-0.100189
0.0939405
-0.108058
0.0905114
-0.115887
0.0857394
-0.123567
0.0795244
-0.130975
0.0717836
-0.13797
0.0624675
-0.144399
0.0515814
-0.150111
0.0392143
-0.154975
0.0255798
-0.158903
0.01106
-0.161862
-0.00378405
-0.16396
-0.0183111
-0.165333
-0.0320225
-0.166197
-0.0441826
-0.1669
-0.0541315
-0.0610267
-0.00504229
0.0730352
-0.00996957
0.0773618
-0.014481
0.0795899
-0.0188146
0.0822777
-0.0231863
0.0853489
-0.0277596
0.0887078
-0.0326285
0.0921321
-0.0378483
0.095434
-0.0434459
0.0984323
-0.0494273
0.100961
-0.0557833
0.102867
-0.0624933
0.104008
-0.0695262
0.104247
-0.0768382
0.103448
-0.0843726
0.101475
-0.0920603
0.0981991
-0.0998205
0.0934996
-0.107556
0.0872602
-0.115149
0.0793759
-0.122455
0.069774
-0.129316
0.0584428
-0.13557
0.0454683
-0.141067
0.0310766
-0.145676
0.0156685
-0.149273
-0.00018655
-0.15198
-0.0156041
-0.153982
-0.0300207
-0.155461
-0.0427033
-0.156787
-0.0528057
-0.0595354
-0.00339675
0.076432
-0.00643846
0.0804035
-0.00886251
0.0820139
-0.011213
0.0846282
-0.0138227
0.0879586
-0.0168739
0.0917591
-0.0204315
0.0956897
-0.0245181
0.0995205
-0.0291302
0.103044
-0.034249
0.10608
-0.0398468
0.108464
-0.0458929
0.110054
-0.0523534
0.110708
-0.0591846
0.110279
-0.0663329
0.108623
-0.0737358
0.105602
-0.0813254
0.101089
-0.0890219
0.0949567
-0.09672
0.0870739
-0.104287
0.0773405
-0.111565
0.0657208
-0.118389
0.0522926
-0.124585
0.0372725
-0.129962
0.0210455
-0.134295
0.00414614
-0.137694
-0.012205
-0.140403
-0.0273109
-0.142549
-0.0405581
-0.144513
-0.0508409
-0.0573451
-0.00212493
0.0785569
-0.00302093
0.0812995
-0.00288506
0.0818781
-0.00284063
0.0845837
-0.00344512
0.0885631
-0.00481518
0.0931291
-0.00695102
0.0978256
-0.0098165
0.102386
-0.0133651
0.106593
-0.0175453
0.11026
-0.022304
0.113223
-0.0275976
0.115348
-0.0333905
0.116501
-0.0396372
0.116526
-0.0462855
0.115272
-0.053276
0.112592
-0.0605561
0.108369
-0.0680711
0.102472
-0.0757353
0.0947381
-0.0834338
0.0850391
-0.0910218
0.0733088
-0.0983458
0.0596166
-0.105212
0.0441388
-0.111377
0.0272104
-0.116682
0.00945136
-0.121001
-0.00788627
-0.124568
-0.0237437
-0.127504
-0.0376218
-0.130177
-0.0481687
-0.0543974
-0.00193577
0.0804927
-0.000142443
0.0795062
0.00347781
0.0782578
0.00631165
0.0817499
0.00783809
0.0870366
0.00821738
0.0927498
0.00757612
0.0984668
0.00601702
0.103945
0.00362896
0.108981
0.000478154
0.113411
-0.00338239
0.117084
-0.00786893
0.119834
-0.0129138
0.121546
-0.018478
0.12209
-0.0245146
0.121308
-0.0309567
0.119035
-0.0377681
0.115181
-0.0449309
0.109634
-0.0523794
0.102187
-0.0600204
0.0926802
-0.0677178
0.0810062
-0.0753584
0.0672572
-0.0827911
0.0515715
-0.089846
0.0342652
-0.0963087
0.0159141
-0.101727
-0.00246783
-0.106333
-0.0191379
-0.110289
-0.0336661
-0.113822
-0.0446353
-0.0506001
0.20743
0.0060385
0.206983
0.0117259
0.206329
0.0171664
0.205476
0.0224421
0.204431
0.0276163
0.2032
0.0327422
0.201789
0.0378653
0.200202
0.0430256
0.198446
0.0482578
0.196524
0.0535927
0.194442
0.059058
0.192204
0.0646792
0.189813
0.0704802
0.187273
0.0764849
0.184588
0.0827176
0.18176
0.089205
0.178789
0.0959775
0.175675
0.103072
0.172416
0.110534
0.169006
0.118423
0.165438
0.12682
0.161704
0.135832
0.157794
0.14561
0.153706
0.15637
0.149454
0.168421
0.145125
0.182231
0.141055
0.198498
0.138808
0.218011
0.148447
0.238287
0.249198
0.217278
0.212473
0.00624821
0.212066
0.0121331
0.211471
0.0177615
0.210696
0.023217
0.209749
0.0285635
0.208636
0.0338547
0.207365
0.0391363
0.205943
0.0444484
0.204375
0.0498258
0.202668
0.0552991
0.200831
0.0608957
0.198869
0.0666407
0.196792
0.0725578
0.194606
0.0786703
0.192322
0.085002
0.189948
0.0915786
0.187496
0.0984294
0.184979
0.105589
0.182412
0.1131
0.179818
0.121017
0.177228
0.12941
0.174692
0.138368
0.172294
0.148009
0.170183
0.158481
0.168643
0.169961
0.168262
0.182611
0.170329
0.196432
0.177212
0.211128
0.18976
0.225739
0.239338
0.19962
0.21764
0.00643536
0.217277
0.0124964
0.216747
0.0182917
0.216058
0.0239056
0.215219
0.0294028
0.214237
0.034837
0.213119
0.0402537
0.211875
0.0456929
0.210512
0.0511889
0.209039
0.0567718
0.207466
0.0624683
0.205804
0.0683027
0.204065
0.0742974
0.202261
0.0804744
0.200407
0.0868555
0.198521
0.0934642
0.196625
0.100326
0.194744
0.10747
0.192912
0.114932
0.191176
0.122754
0.1896
0.130985
0.188281
0.139687
0.187365
0.148925
0.187081
0.158765
0.187788
0.169254
0.190023
0.180376
0.194452
0.192003
0.201609
0.203971
0.211066
0.216281
0.226502
0.223903
0.222934
0.00659783
0.222619
0.0128116
0.22216
0.0187508
0.221565
0.0245004
0.220843
0.030125
0.220002
0.0356781
0.219051
0.0412049
0.217999
0.0467448
0.216856
0.0523313
0.215634
0.0579937
0.214345
0.0637573
0.213003
0.069645
0.211623
0.0756774
0.210223
0.0818741
0.208825
0.0882542
0.207452
0.0948368
0.206136
0.101642
0.204914
0.108693
0.203834
0.116012
0.202962
0.123626
0.202383
0.131564
0.202217
0.139852
0.20263
0.148511
0.203849
0.157547
0.206168
0.166934
0.209942
0.176603
0.215533
0.186411
0.223397
0.196107
0.234271
0.205408
0.212161
0.248612
0.228358
0.0067336
0.228094
0.0130748
0.227712
0.0191333
0.227218
0.024994
0.226622
0.0307211
0.225932
0.0363677
0.225159
0.0419782
0.224313
0.0475911
0.223405
0.0532388
0.22245
0.0589492
0.221461
0.0647461
0.220456
0.0706503
0.219453
0.07668
0.218476
0.0828517
0.217549
0.0891807
0.216705
0.0956811
0.215981
0.102367
0.215423
0.10925
0.21509
0.116345
0.215057
0.12366
0.215418
0.131202
0.216299
0.138972
0.217855
0.146955
0.220283
0.155119
0.223819
0.163398
0.228736
0.171685
0.235345
0.179802
0.244015
0.187438
0.255128
0.194294
0.199322
0.267967
0.233913
0.00684082
0.233706
0.0132825
0.233405
0.0194341
0.233019
0.0253797
0.232557
0.0311832
0.232028
0.0368964
0.231444
0.0425631
0.230814
0.0482201
0.230154
0.0538988
0.229478
0.0596252
0.228803
0.0654211
0.228149
0.0713048
0.227537
0.0772919
0.226994
0.0833951
0.226549
0.0896252
0.226239
0.095991
0.226107
0.102499
0.226203
0.109154
0.226593
0.115955
0.227352
0.1229
0.228577
0.129978
0.230382
0.137166
0.232908
0.14443
0.236317
0.15171
0.240795
0.15892
0.246545
0.165935
0.253766
0.172581
0.262598
0.178605
0.273101
0.183791
0.187647
0.284776
0.239604
0.00691778
0.239456
0.0134313
0.239241
0.0196482
0.23897
0.0256516
0.238649
0.0315039
0.238289
0.0372561
0.237902
0.0429503
0.2375
0.0486221
0.237098
0.054301
0.236712
0.0600111
0.236361
0.0657719
0.236067
0.071599
0.235854
0.0775048
0.235751
0.0834982
0.235791
0.0895856
0.236012
0.0957698
0.23646
0.102051
0.237189
0.108425
0.238262
0.114882
0.239754
0.121408
0.241754
0.127978
0.244363
0.134557
0.247697
0.141095
0.251884
0.147523
0.257055
0.153749
0.263338
0.159653
0.270829
0.165089
0.279558
0.169876
0.289507
0.173842
0.176736
0.300418
0.245434
0.006963
0.245347
0.0135183
0.245223
0.0197717
0.245071
0.0258043
0.244897
0.0316771
0.244714
0.0374396
0.244532
0.0431323
0.244365
0.0487891
0.244228
0.0544374
0.24414
0.0600992
0.244121
0.0657916
0.244192
0.0715273
0.244382
0.0773155
0.244719
0.0831612
0.245238
0.0890664
0.245979
0.0950288
0.246987
0.101042
0.248316
0.107096
0.250025
0.113173
0.252184
0.11925
0.254868
0.125294
0.258163
0.131262
0.262159
0.137099
0.266948
0.142734
0.272616
0.148081
0.279231
0.153037
0.286835
0.157486
0.295415
0.161296
0.304919
0.164339
0.166491
0.315163
0.251405
0.00697523
0.251382
0.0135413
0.251353
0.0198011
0.251323
0.0258335
0.251303
0.0316977
0.251301
0.0374415
0.25133
0.0431034
0.251404
0.0487153
0.251539
0.0543026
0.251753
0.0598849
0.252067
0.0654769
0.252506
0.0710886
0.253096
0.0767256
0.253867
0.0823898
0.254855
0.0880789
0.256097
0.0937862
0.257639
0.0995008
0.259529
0.105206
0.261821
0.110881
0.264575
0.116495
0.267856
0.122013
0.271729
0.127389
0.276262
0.132567
0.281514
0.137482
0.287538
0.142058
0.294364
0.146211
0.301999
0.149851
0.310408
0.152887
0.319514
0.155232
0.15683
0.329176
0.257521
0.00695344
0.257564
0.0134981
0.257631
0.0197335
0.257729
0.0257358
0.257865
0.031562
0.258049
0.0372576
0.258292
0.0428594
0.258611
0.0483971
0.259019
0.0538938
0.259538
0.0593668
0.260186
0.0648284
0.260989
0.0702857
0.261973
0.0757417
0.263168
0.0811949
0.264607
0.0866397
0.266327
0.092066
0.268369
0.0974591
0.270776
0.102799
0.273596
0.108061
0.276878
0.113213
0.280673
0.118218
0.28503
0.123032
0.289994
0.127603
0.295603
0.131873
0.301881
0.135779
0.308836
0.139256
0.316451
0.142237
0.324678
0.14466
0.33344
0.146471
0.147646
0.342623
0.263784
0.00689689
0.263895
0.0133875
0.264061
0.0195671
0.264288
0.0255089
0.264583
0.0312673
0.264955
0.0368857
0.265416
0.0423985
0.26598
0.0478332
0.266662
0.0532109
0.267483
0.0585465
0.268461
0.0638497
0.269622
0.0691255
0.270989
0.0743743
0.272592
0.0795919
0.274462
0.0847701
0.276631
0.0898963
0.279137
0.0949533
0.282017
0.0999194
0.285309
0.104768
0.289054
0.109469
0.293288
0.113984
0.298047
0.118274
0.303357
0.122292
0.309239
0.125991
0.315699
0.12932
0.322726
0.132229
0.330292
0.134671
0.338346
0.136606
0.346816
0.138001
0.138852
0.35561
0.270199
0.00680512
0.270378
0.0132084
0.270644
0.0193007
0.271002
0.0251515
0.271457
0.0308125
0.272017
0.0363248
0.272695
0.0417205
0.273504
0.0470247
0.274459
0.0522563
0.275577
0.0574282
0.276878
0.062548
0.278386
0.0676184
0.280122
0.0726376
0.282115
0.0775997
0.28439
0.0824945
0.286979
0.0873078
0.28991
0.0920213
0.293217
0.0966129
0.296929
0.101056
0.301076
0.105322
0.305684
0.109376
0.310774
0.113183
0.316361
0.116705
0.322451
0.119901
0.329038
0.122733
0.3361
0.125166
0.343605
0.127166
0.351502
0.128709
0.359725
0.129778
0.130377
0.368201
0.276768
0.00667792
0.277016
0.0129605
0.277383
0.0189338
0.277871
0.0246633
0.278486
0.0301978
0.279235
0.0355759
0.280128
0.0408271
0.281178
0.0459746
0.282399
0.051035
0.283808
0.0560193
0.285423
0.060933
0.287264
0.0657773
0.289353
0.0705488
0.291713
0.0752401
0.294367
0.0798398
0.297342
0.0843332
0.300662
0.0887018
0.304351
0.092924
0.308432
0.0969751
0.312926
0.100828
0.317849
0.104453
0.323213
0.10782
0.329021
0.110897
0.335269
0.113653
0.341943
0.116059
0.349018
0.118091
0.356456
0.119727
0.364212
0.120953
0.372227
0.121763
0.122165
0.380439
0.283495
0.00651539
0.283812
0.0126442
0.284278
0.0184669
0.284897
0.0240451
0.28567
0.0294245
0.286605
0.0346411
0.28771
0.039722
0.288996
0.044688
0.290477
0.049554
0.292168
0.054329
0.294084
0.0590172
0.296243
0.0636181
0.298664
0.0681273
0.301368
0.0725366
0.304373
0.0768343
0.307701
0.0810055
0.31137
0.0850325
0.315399
0.088895
0.319804
0.0925707
0.324596
0.0960355
0.329785
0.0992644
0.335372
0.102232
0.341356
0.104913
0.347723
0.107285
0.354456
0.109327
0.361527
0.111021
0.368898
0.112355
0.376528
0.113324
0.384365
0.113926
0.114173
0.392357
0.290384
0.00631787
0.290768
0.0122599
0.291334
0.0179011
0.29208
0.0232988
0.293009
0.0284954
0.294126
0.0335243
0.295438
0.0384101
0.296954
0.0431718
0.298686
0.0478222
0.300646
0.0523688
0.302849
0.0568146
0.305309
0.061158
0.308042
0.065394
0.311065
0.0695141
0.314392
0.0735066
0.318041
0.0773573
0.322023
0.0810499
0.326352
0.0845658
0.331038
0.0878855
0.336085
0.0909884
0.341495
0.0938537
0.347266
0.0964611
0.353388
0.0987915
0.359845
0.100828
0.366616
0.102556
0.373671
0.103965
0.380977
0.10505
0.388493
0.105808
0.396176
0.106243
0.106368
0.403981
0.297438
0.00608595
0.297889
0.011809
0.298551
0.0172383
0.299423
0.022427
0.300504
0.0274142
0.301798
0.0322304
0.30331
0.0368981
0.305048
0.0414343
0.30702
0.04585
0.309237
0.0501516
0.311711
0.0543409
0.314453
0.0584157
0.317477
0.0623708
0.320793
0.0661976
0.324415
0.0698851
0.328352
0.0734203
0.332613
0.0767883
0.337206
0.0799729
0.342134
0.0829574
0.347398
0.0857246
0.352994
0.0882578
0.358913
0.0905413
0.365144
0.092561
0.371667
0.0943049
0.378459
0.095764
0.385492
0.0969325
0.392733
0.0978085
0.400147
0.098394
0.407695
0.0986946
0.0987245
0.415338
0.304661
0.00582044
0.305177
0.011293
0.305934
0.016481
0.306928
0.0214332
0.308156
0.0261854
0.309621
0.0307655
0.311326
0.0351937
0.313275
0.039485
0.315476
0.0436492
0.317936
0.0476913
0.320665
0.0516126
0.32367
0.0554104
0.326961
0.0590795
0.330547
0.0626119
0.334434
0.0659974
0.33863
0.0692243
0.343139
0.0722796
0.347963
0.0751495
0.3531
0.0778199
0.358548
0.0802772
0.364297
0.0825081
0.370338
0.084501
0.376653
0.0862458
0.383223
0.0877347
0.390024
0.0889626
0.39703
0.0899272
0.404209
0.0906295
0.411529
0.0910737
0.418957
0.0912668
0.0912226
0.426458
0.312056
0.00552233
0.312636
0.0107139
0.313484
0.0156322
0.314596
0.0203216
0.315967
0.0248146
0.317596
0.0291364
0.319484
0.0333053
0.321635
0.0373344
0.324052
0.0412321
0.326741
0.0450026
0.329707
0.0486466
0.332956
0.0521614
0.336493
0.055542
0.340324
0.058781
0.344452
0.0618694
0.348879
0.064797
0.353606
0.0675526
0.358631
0.0701249
0.363949
0.0725023
0.369551
0.0746742
0.375429
0.0766306
0.381567
0.0783631
0.387948
0.079865
0.394551
0.0811317
0.401352
0.0821608
0.408327
0.0829528
0.415446
0.0835105
0.42268
0.0838395
0.43
0.0839472
0.083847
0.437375
0.319629
0.00519274
0.320269
0.0100738
0.321206
0.0146952
0.322431
0.0190967
0.323938
0.0233077
0.325724
0.0273508
0.327787
0.0312422
0.330128
0.0349934
0.332748
0.0386116
0.33565
0.0421003
0.338837
0.0454598
0.342311
0.0486876
0.346074
0.051779
0.350128
0.0547275
0.354472
0.0575252
0.359105
0.0601635
0.364025
0.0626332
0.369225
0.0649249
0.374697
0.0670297
0.380432
0.0689394
0.386416
0.0706468
0.392633
0.0721462
0.399065
0.0734334
0.40569
0.0745064
0.412486
0.0753649
0.419428
0.0760109
0.42649
0.0764486
0.433645
0.0766842
0.440867
0.0767254
0.0765846
0.448129
0.327383
0.0048329
0.328082
0.00937531
0.329103
0.0136736
0.330436
0.0177635
0.332073
0.0216711
0.334007
0.0254166
0.336236
0.0290139
0.338756
0.0324732
0.341567
0.0358006
0.344668
0.0389991
0.348059
0.0420687
0.35174
0.045007
0.355709
0.04781
0.359964
0.0504721
0.364503
0.0529866
0.36932
0.0553462
0.37441
0.0575436
0.379763
0.0595715
0.38537
0.0614229
0.391217
0.063092
0.39729
0.0645736
0.403572
0.0658643
0.410044
0.0669619
0.416684
0.0678661
0.423471
0.0685781
0.430381
0.0691011
0.437389
0.0694398
0.444473
0.0696008
0.451607
0.0695916
0.0694235
0.458768
0.335323
0.00444406
0.336077
0.00862074
0.33718
0.0125712
0.338616
0.0163271
0.340376
0.0199114
0.342451
0.0233416
0.344835
0.0266299
0.347523
0.0297849
0.350512
0.0328118
0.353798
0.0357131
0.357378
0.0384887
0.361248
0.0411365
0.365405
0.043653
0.369844
0.0460336
0.374558
0.0482726
0.379539
0.0503644
0.38478
0.052303
0.390269
0.0540829
0.395993
0.0556989
0.401938
0.057147
0.408087
0.0584239
0.414424
0.0595276
0.420928
0.0604576
0.42758
0.0612148
0.434356
0.0618013
0.441237
0.0622209
0.448198
0.0624788
0.455217
0.0625812
0.462273
0.0625355
0.0623518
0.469345
0.343452
0.00402743
0.344261
0.00781254
0.34544
0.0113917