/*--------------------------------*- C++ -*----------------------------------*\
  =========                 |
  \\      /  F ield         | OpenFOAM: The Open Source CFD Toolbox
   \\    /   O peration     | Website:  https://openfoam.org
    \\  /    A nd           | Version:  7
     \\/     M anipulation  |
\*---------------------------------------------------------------------------*/
FoamFile
{
    version     2.0;
    format      ascii;
    class       volVectorField;
    location    "1.1";
    object      U;
}
// * * * * * * * * * * * * * * * * * * * * * * * * * * * * * * * * * * * * * //

dimensions      [0 1 -1 0 0 0 0];

internalField   nonuniform List<vector> 
2790
(
(9.94364 0.0207292 0)
(9.87419 0.0300184 0)
(9.77156 0.0366517 0)
(9.64282 0.0434523 0)
(9.49372 0.0505164 0)
(9.32524 0.0577928 0)
(9.1366 0.0654086 0)
(8.92697 0.0735228 0)
(8.69561 0.0822702 0)
(8.44163 0.0917717 0)
(8.16393 0.102148 0)
(7.86126 0.113521 0)
(7.53224 0.126014 0)
(7.17542 0.139743 0)
(6.78939 0.154811 0)
(6.3728 0.171291 0)
(5.92456 0.18921 0)
(5.444 0.208518 0)
(4.93111 0.229055 0)
(4.38684 0.250506 0)
(3.81344 0.272354 0)
(3.21485 0.293825 0)
(2.59703 0.313875 0)
(1.96818 0.33133 0)
(1.33701 0.346331 0)
(0.7353 0.367094 0)
(0.0426758 0.29286 0)
(-0.4674 -0.119615 0)
(-0.449945 -0.278889 0)
(-0.230207 -0.409878 0)
(9.99815 0.041341 0)
(9.97991 0.0636849 0)
(9.93207 0.0811166 0)
(9.85747 0.0992752 0)
(9.76049 0.11844 0)
(9.64215 0.138454 0)
(9.50187 0.159562 0)
(9.33888 0.182109 0)
(9.15244 0.206394 0)
(8.94168 0.232681 0)
(8.70552 0.261225 0)
(8.44268 0.292272 0)
(8.15178 0.32605 0)
(7.8313 0.362741 0)
(7.47974 0.402455 0)
(7.09561 0.445184 0)
(6.67764 0.490736 0)
(6.2249 0.53866 0)
(5.73706 0.588143 0)
(5.21469 0.637906 0)
(4.65964 0.686085 0)
(4.07549 0.73013 0)
(3.46806 0.766749 0)
(2.84629 0.791969 0)
(2.22305 0.801517 0)
(1.62721 0.791598 0)
(1.05127 0.721843 0)
(0.618497 0.519115 0)
(0.142573 0.180336 0)
(-0.0124497 -0.456674 0)
(9.99525 0.0442874 0)
(9.97405 0.077459 0)
(9.9282 0.106658 0)
(9.85836 0.136811 0)
(9.76757 0.168617 0)
(9.65697 0.202049 0)
(9.52631 0.237441 0)
(9.37501 0.27528 0)
(9.2025 0.316034 0)
(9.00806 0.360134 0)
(8.79082 0.408007 0)
(8.54968 0.460072 0)
(8.28342 0.516724 0)
(7.99068 0.578296 0)
(7.67004 0.645015 0)
(7.32003 0.716923 0)
(6.93925 0.793776 0)
(6.52651 0.874917 0)
(6.08098 0.959096 0)
(5.60248 1.04428 0)
(5.09184 1.12744 0)
(4.55136 1.20429 0)
(3.98543 1.26905 0)
(3.40151 1.31416 0)
(2.81085 1.32944 0)
(2.23372 1.2998 0)
(1.67716 1.18604 0)
(1.1729 0.935316 0)
(0.675547 0.53314 0)
(0.335089 -0.189058 0)
(9.99368 0.0510032 0)
(9.9703 0.0962482 0)
(9.92428 0.13817 0)
(9.85571 0.180365 0)
(9.76673 0.224127 0)
(9.65843 0.269853 0)
(9.53079 0.318054 0)
(9.38346 0.369376 0)
(9.21602 0.424458 0)
(9.02799 0.483912 0)
(8.81875 0.548338 0)
(8.58753 0.618329 0)
(8.33346 0.694453 0)
(8.05553 0.777216 0)
(7.7527 0.867002 0)
(7.42385 0.963982 0)
(7.06786 1.06799 0)
(6.68365 1.17835 0)
(6.27031 1.29363 0)
(5.82726 1.41141 0)
(5.3545 1.52788 0)
(4.853 1.63751 0)
(4.32513 1.73257 0)
(3.77535 1.80255 0)
(3.21027 1.83302 0)
(2.6405 1.80392 0)
(2.07113 1.68109 0)
(1.51176 1.42788 0)
(0.931906 1.03213 0)
(0.492464 0.456344 0)
(9.99296 0.0591435 0)
(9.96843 0.114864 0)
(9.92232 0.168006 0)
(9.85491 0.221246 0)
(9.76776 0.276226 0)
(9.66175 0.333701 0)
(9.53695 0.394318 0)
(9.39307 0.458808 0)
(9.22981 0.527909 0)
(9.04677 0.602338 0)
(8.84349 0.682798 0)
(8.61938 0.769982 0)
(8.37378 0.86456 0)
(8.10599 0.967141 0)
(7.81525 1.07821 0)
(7.50076 1.19804 0)
(7.16169 1.32655 0)
(6.79721 1.46311 0)
(6.40649 1.60629 0)
(5.98876 1.75352 0)
(5.54346 1.90066 0)
(5.07035 2.04153 0)
(4.56983 2.16728 0)
(4.04319 2.2658 0)
(3.49254 2.32088 0)
(2.92147 2.31158 0)
(2.33099 2.20929 0)
(1.72328 1.98441 0)
(1.06352 1.62421 0)
(0.520597 1.09055 0)
(9.99267 0.0678951 0)
(9.96771 0.133469 0)
(9.92195 0.197319 0)
(9.85597 0.261484 0)
(9.77102 0.327621 0)
(9.66778 0.396699 0)
(9.5463 0.469485 0)
(9.40639 0.546787 0)
(9.24777 0.629434 0)
(9.07011 0.718241 0)
(8.87302 0.814006 0)
(8.65601 0.917514 0)
(8.41854 1.02952 0)
(8.16003 1.15072 0)
(7.87986 1.28167 0)
(7.57741 1.42274 0)
(7.252 1.57394 0)
(6.90288 1.73472 0)
(6.52923 1.90377 0)
(6.13009 2.07858 0)
(5.70438 2.25505 0)
(5.25085 2.4269 0)
(4.76815 2.58509 0)
(4.25492 2.71714 0)
(3.70973 2.8066 0)
(3.13146 2.83301 0)
(2.51744 2.77111 0)
(1.86805 2.59458 0)
(1.14514 2.29073 0)
(0.534707 1.81242 0)
(9.99262 0.0768586 0)
(9.96775 0.151946 0)
(9.92275 0.225996 0)
(9.85851 0.300684 0)
(9.77612 0.377589 0)
(9.67611 0.45783 0)
(9.55851 0.542307 0)
(9.42318 0.631924 0)
(9.26989 0.727595 0)
(9.09836 0.83022 0)
(8.90822 0.940682 0)
(8.69905 1.05984 0)
(8.47036 1.18853 0)
(8.22162 1.32751 0)
(7.95226 1.47741 0)
(7.66167 1.63868 0)
(7.34917 1.81144 0)
(7.01396 1.99529 0)
(6.65506 2.1891 0)
(6.2712 2.39065 0)
(5.86073 2.59619 0)
(5.42146 2.79984 0)
(4.95057 2.99304 0)
(4.44457 3.16383 0)
(3.8993 3.29639 0)
(3.31037 3.37095 0)
(2.67242 3.36388 0)
(1.98643 3.24955 0)
(1.21144 3.01283 0)
(0.547946 2.59118 0)
(9.99272 0.0857997 0)
(9.96829 0.170105 0)
(9.92444 0.253874 0)
(9.86225 0.338631 0)
(9.78279 0.425886 0)
(9.68645 0.516856 0)
(9.57326 0.612561 0)
(9.44313 0.713994 0)
(9.29585 0.822145 0)
(9.1312 0.937995 0)
(8.94885 1.0625 0)
(8.74841 1.19661 0)
(8.52942 1.34121 0)
(8.29136 1.49715 0)
(8.03368 1.66516 0)
(7.75569 1.84577 0)
(7.45664 2.03927 0)
(7.13554 2.24545 0)
(6.79116 2.46349 0)
(6.42182 2.6916 0)
(6.02524 2.92662 0)
(5.59831 3.1635 0)
(5.13689 3.39464 0)
(4.63568 3.60922 0)
(4.08825 3.7925 0)
(3.48762 3.92553 0)
(2.82601 3.98505 0)
(2.10533 3.94383 0)
(1.28125 3.78133 0)
(0.566266 3.41606 0)
(9.99291 0.0945683 0)
(9.9692 0.187775 0)
(9.92683 0.280807 0)
(9.86701 0.375161 0)
(9.7908 0.472309 0)
(9.69855 0.573533 0)
(9.59028 0.679953 0)
(9.4659 0.792643 0)
(9.32529 0.912669 0)
(9.16824 1.04108 0)
(8.99448 1.17892 0)
(8.80365 1.3272 0)
(8.59532 1.48691 0)
(8.36899 1.65897 0)
(8.12407 1.84422 0)
(7.85983 2.04336 0)
(7.57538 2.25684 0)
(7.26955 2.48476 0)
(6.94079 2.72669 0)
(6.58699 2.98143 0)
(6.20523 3.24663 0)
(5.79152 3.51837 0)
(5.34048 3.79044 0)
(4.84512 4.05362 0)
(4.29682 4.29476 0)
(3.68596 4.49588 0)
(3.00173 4.63345 0)
(2.24571 4.67703 0)
(1.36889 4.59798 0)
(0.594796 4.2922 0)
(9.99318 0.10306 0)
(9.97039 0.204814 0)
(9.92977 0.306652 0)
(9.87262 0.410111 0)
(9.8 0.516654 0)
(9.71222 0.627612 0)
(9.60931 0.744185 0)
(9.49122 0.867525 0)
(9.35786 0.998766 0)
(9.20909 1.13903 0)
(9.04466 1.28943 0)
(8.86427 1.45105 0)
(8.66754 1.62497 0)
(8.45398 1.81222 0)
(8.22299 2.01379 0)
(7.97381 2.23053 0)
(7.70545 2.46315 0)
(7.41657 2.7121 0)
(7.10537 2.97747 0)
(6.76935 3.25877 0)
(6.40503 3.55469 0)
(6.00765 3.86267 0)
(5.57069 4.17831 0)
(5.08551 4.49453 0)
(4.54114 4.80039 0)
(3.92472 5.07954 0)
(3.22088 5.30844 0)
(2.4282 5.45274 0)
(1.48998 5.47318 0)
(0.640376 5.23714 0)
(9.9935 0.1112 0)
(9.97179 0.221102 0)
(9.93317 0.331278 0)
(9.87896 0.44333 0)
(9.81022 0.558737 0)
(9.72727 0.67887 0)
(9.63013 0.804995 0)
(9.51879 0.938332 0)
(9.39323 1.08008 0)
(9.25334 1.23142 0)
(9.09893 1.39353 0)
(8.92977 1.56759 0)
(8.74551 1.75476 0)
(8.54571 1.95618 0)
(8.32982 2.17299 0)
(8.09706 2.40625 0)
(7.84642 2.65696 0)
(7.57647 2.92598 0)
(7.28526 3.21399 0)
(6.97006 3.52133 0)
(6.62704 3.8479 0)
(6.25085 4.19276 0)
(5.83406 4.55373 0)
(5.36656 4.92652 0)
(4.83486 5.30339 0)
(4.22209 5.67109 0)
(3.5061 6.00771 0)
(2.67788 6.27614 0)
(1.6665 6.42476 0)
(0.71443 6.28252 0)
(9.99386 0.118929 0)
(9.97336 0.236543 0)
(9.93694 0.354567 0)
(9.88591 0.47468 0)
(9.82133 0.598391 0)
(9.74351 0.727106 0)
(9.6525 0.862145 0)
(9.54835 1.00479 0)
(9.43106 1.15629 0)
(9.30058 1.31788 0)
(9.15682 1.49082 0)
(8.99957 1.67633 0)
(8.82859 1.87569 0)
(8.6435 2.09014 0)
(8.44381 2.32097 0)
(8.22881 2.56948 0)
(7.99753 2.83695 0)
(7.7486 3.1247 0)
(7.48007 3.43403 0)
(7.18921 3.76619 0)
(6.8721 4.12237 0)
(6.52321 4.50351 0)
(6.13469 4.90999 0)
(5.69539 5.34106 0)
(5.18967 5.79362 0)
(4.59623 6.25994 0)
(3.88392 6.72364 0)
(3.02961 7.14991 0)
(1.93472 7.47754 0)
(0.839069 7.48347 0)
(9.99425 0.1262 0)
(9.97507 0.251054 0)
(9.94101 0.376415 0)
(9.89338 0.504039 0)
(9.83318 0.635468 0)
(9.76077 0.772143 0)
(9.67622 0.915427 0)
(9.57961 1.06665 0)
(9.47101 1.2271 0)
(9.35042 1.39808 0)
(9.21783 1.58089 0)
(9.07312 1.77682 0)
(8.91612 1.98721 0)
(8.74658 2.21344 0)
(8.56409 2.45693 0)
(8.36809 2.71918 0)
(8.15775 3.00178 0)
(7.93187 3.30648 0)
(7.68871 3.63519 0)
(7.4258 3.99007 0)
(7.13955 4.37361 0)
(6.82478 4.78868 0)
(6.47396 5.2385 0)
(6.07603 5.7265 0)
(5.61442 6.25571 0)
(5.06463 6.82729 0)
(4.38615 7.43714 0)
(3.53509 8.06536 0)
(2.36122 8.65963 0)
(1.06254 8.94387 0)
(9.99467 0.132978 0)
(9.97689 0.26457 0)
(9.94534 0.396736 0)
(9.90127 0.531302 0)
(9.84567 0.669845 0)
(9.77889 0.813836 0)
(9.70107 0.964673 0)
(9.6123 1.12372 0)
(9.51273 1.29231 0)
(9.40243 1.47178 0)
(9.28145 1.66345 0)
(9.14979 1.8687 0)
(9.00738 2.08891 0)
(8.85408 2.32556 0)
(8.68967 2.58019 0)
(8.51376 2.85448 0)
(8.32574 3.15029 0)
(8.12474 3.46972 0)
(7.90941 3.81524 0)
(7.67783 4.18979 0)
(7.42716 4.59705 0)
(7.15327 5.04165 0)
(6.85 5.52956 0)
(6.50802 6.06853 0)
(6.11265 6.66866 0)
(5.64043 7.34297 0)
(5.04722 8.10804 0)
(4.27065 8.98141 0)
(3.07918 9.97848 0)
(1.50281 10.8907 0)
(9.99511 0.139235 0)
(9.9788 0.277036 0)
(9.94986 0.415452 0)
(9.9095 0.556367 0)
(9.85866 0.70139 0)
(9.79772 0.852016 0)
(9.72683 1.00967 0)
(9.64616 1.17574 0)
(9.5559 1.35159 0)
(9.4562 1.53858 0)
(9.34719 1.73806 0)
(9.22898 1.95144 0)
(9.10162 2.18016 0)
(8.96514 2.42575 0)
(8.81949 2.68985 0)
(8.66452 2.97427 0)
(8.49994 3.28106 0)
(8.32528 3.61259 0)
(8.13978 3.97173 0)
(7.94231 4.36202 0)
(7.73118 4.78798 0)
(7.50392 5.25558 0)
(7.25689 5.7729 0)
(6.98454 6.35117 0)
(6.67808 7.00666 0)
(6.32328 7.76397 0)
(5.89006 8.66357 0)
(5.33464 9.77992 0)
(4.3852 11.3019 0)
(2.4949 13.9046 0)
(0.257518 -0.419174 0)
(0.66757 -0.270397 0)
(0.898431 -0.163009 0)
(0.95827 -0.0566562 0)
(0.871852 0.0364078 0)
(0.679365 0.102945 0)
(0.399925 0.144688 0)
(0.0549377 0.167898 0)
(-0.322301 0.179102 0)
(-0.734091 0.184315 0)
(-1.16959 0.184554 0)
(-1.61974 0.180548 0)
(-2.07594 0.172907 0)
(-2.52973 0.162114 0)
(-2.9727 0.148554 0)
(-3.39642 0.132535 0)
(-3.79238 0.1143 0)
(-4.15199 0.094031 0)
(-4.46653 0.0718478 0)
(-4.7271 0.0478031 0)
(-4.92419 0.0217878 0)
(-5.0476 -0.00666647 0)
(-5.08779 -0.0389985 0)
(-5.03574 -0.0795006 0)
(-4.8663 -0.126907 0)
(-4.56369 -0.181736 0)
(-4.09338 -0.246987 0)
(-3.40237 -0.326235 0)
(-2.46924 -0.406526 0)
(-1.47198 -0.432485 0)
(0.00812403 -0.625306 0)
(0.159105 -0.33479 0)
(0.0354285 -0.0954212 0)
(-0.136585 0.0948717 0)
(-0.382928 0.23483 0)
(-0.694436 0.338756 0)
(-1.05804 0.413931 0)
(-1.46414 0.465625 0)
(-1.90472 0.49948 0)
(-2.37125 0.520352 0)
(-2.85453 0.529886 0)
(-3.34635 0.529264 0)
(-3.83884 0.519435 0)
(-4.32421 0.501148 0)
(-4.79466 0.474985 0)
(-5.24224 0.441412 0)
(-5.65882 0.400809 0)
(-6.03611 0.353506 0)
(-6.36568 0.299824 0)
(-6.63891 0.240098 0)
(-6.84698 0.174566 0)
(-6.98099 0.102923 0)
(-7.03327 0.0237573 0)
(-6.99945 -0.0644067 0)
(-6.87355 -0.161374 0)
(-6.65086 -0.264892 0)
(-6.31781 -0.376478 0)
(-5.85882 -0.497298 0)
(-5.3137 -0.609349 0)
(-4.91443 -0.666589 0)
(-0.192955 -0.516502 0)
(-0.343197 -0.153618 0)
(-0.625047 0.136459 0)
(-0.914007 0.353932 0)
(-1.25246 0.525882 0)
(-1.62822 0.659708 0)
(-2.03677 0.75915 0)
(-2.47351 0.828788 0)
(-2.93327 0.873562 0)
(-3.40985 0.897712 0)
(-3.89664 0.903777 0)
(-4.38718 0.893579 0)
(-4.87508 0.86853 0)
(-5.35387 0.829744 0)
(-5.81694 0.778129 0)
(-6.25746 0.714453 0)
(-6.66835 0.639411 0)
(-7.04232 0.553692 0)
(-7.37188 0.458067 0)
(-7.64942 0.353452 0)
(-7.86728 0.240918 0)
(-8.0179 0.121312 0)
(-8.09401 -0.0052609 0)
(-8.09389 -0.138765 0)
(-8.01712 -0.280056 0)
(-7.86024 -0.425462 0)
(-7.61714 -0.5729 0)
(-7.27954 -0.720564 0)
(-6.88631 -0.858806 0)
(-6.62483 -0.962141 0)
(-0.31831 -0.179187 0)
(-0.620896 0.177677 0)
(-1.01722 0.452606 0)
(-1.40557 0.682143 0)
(-1.80972 0.86966 0)
(-2.22931 1.01744 0)
(-2.66503 1.12833 0)
(-3.11603 1.20618 0)
(-3.58016 1.2552 0)
(-4.05408 1.27912 0)
(-4.5337 1.28075 0)
(-5.01451 1.26222 0)
(-5.49167 1.22519 0)
(-5.95998 1.17095 0)
(-6.41386 1.1005 0)
(-6.84733 1.01469 0)
(-7.25402 0.914214 0)
(-7.62721 0.799745 0)
(-7.95986 0.672007 0)
(-8.24478 0.531887 0)
(-8.47476 0.380496 0)
(-8.64308 0.219099 0)
(-8.74427 0.0485547 0)
(-8.77355 -0.131402 0)
(-8.73528 -0.31617 0)
(-8.62835 -0.501738 0)
(-8.44935 -0.683014 0)
(-8.19386 -0.856172 0)
(-7.89782 -1.01779 0)
(-7.70971 -1.14926 0)
(-0.371869 0.293939 0)
(-0.760035 0.597935 0)
(-1.23909 0.848634 0)
(-1.68778 1.06854 0)
(-2.13404 1.25186 0)
(-2.58041 1.39808 0)
(-3.03051 1.50848 0)
(-3.48617 1.58559 0)
(-3.94772 1.63243 0)
(-4.41418 1.65187 0)
(-4.88349 1.6463 0)
(-5.35275 1.6176 0)
(-5.81841 1.56723 0)
(-6.27626 1.49633 0)
(-6.72149 1.40579 0)
(-7.14873 1.29637 0)
(-7.55213 1.1688 0)
(-7.92539 1.02389 0)
(-8.26184 0.862629 0)
(-8.55462 0.686311 0)
(-8.79688 0.496626 0)
(-8.98236 0.295626 0)
(-9.106 0.0856809 0)
(-9.1637 -0.130169 0)
(-9.16007 -0.349569 0)
(-9.09533 -0.566989 0)
(-8.96794 -0.774646 0)
(-8.77687 -0.967324 0)
(-8.55483 -1.14379 0)
(-8.41721 -1.28452 0)
(-0.382317 0.804176 0)
(-0.814808 1.07565 0)
(-1.33723 1.29446 0)
(-1.81564 1.49097 0)
(-2.28202 1.65716 0)
(-2.73904 1.7912 0)
(-3.19184 1.89286 0)
(-3.6439 1.96318 0)
(-4.09729 2.00385 0)
(-4.55267 2.01666 0)
(-5.00947 2.00321 0)
(-5.46605 1.96484 0)
(-5.91983 1.90259 0)
(-6.36739 1.81728 0)
(-6.80457 1.70958 0)
(-7.22653 1.58009 0)
(-7.6278 1.42941 0)
(-8.00242 1.25831 0)
(-8.34397 1.06779 0)
(-8.64577 0.859265 0)
(-8.90118 0.634693 0)
(-9.10416 0.396715 0)
(-9.2499 0.148902 0)
(-9.33492 -0.104071 0)
(-9.36223 -0.357543 0)
(-9.33434 -0.60541 0)
(-9.25078 -0.838114 0)
(-9.11354 -1.0494 0)
(-8.9516 -1.23773 0)
(-8.85233 -1.38133 0)
(-0.371123 1.34283 0)
(-0.813313 1.57888 0)
(-1.34578 1.76046 0)
(-1.82735 1.92666 0)
(-2.29351 2.06894 0)
(-2.74566 2.18496 0)
(-3.18966 2.27323 0)
(-3.62984 2.33343 0)
(-4.06929 2.36588 0)
(-4.50973 2.37116 0)
(-4.95156 2.34988 0)
(-5.394 2.30258 0)
(-5.83519 2.22968 0)
(-6.27232 2.13151 0)
(-6.7017 2.00835 0)
(-7.1189 1.86053 0)
(-7.51877 1.68848 0)
(-7.89557 1.49288 0)
(-8.24308 1.27478 0)
(-8.55478 1.0358 0)
(-8.82413 0.778356 0)
(-9.04516 0.50587 0)
(-9.21314 0.223134 0)
(-9.32496 -0.0638684 0)
(-9.38086 -0.348627 0)
(-9.38624 -0.624202 0)
(-9.34137 -0.879744 0)
(-9.25082 -1.10768 0)
(-9.13961 -1.30498 0)
(-9.07139 -1.44874 0)
(-0.345493 1.87321 0)
(-0.77161 2.07652 0)
(-1.28717 2.22083 0)
(-1.74913 2.35509 0)
(-2.19659 2.47142 0)
(-2.62907 2.5675 0)
(-3.05286 2.64094 0)
(-3.47259 2.69021 0)
(-3.89182 2.71428 0)
(-4.31282 2.71251 0)
(-4.73655 2.68442 0)
(-5.16273 2.62966 0)
(-5.59 2.54793 0)
(-6.01596 2.439 0)
(-6.4373 2.3027 0)
(-6.84988 2.13902 0)
(-7.24882 1.94816 0)
(-7.62858 1.73066 0)
(-7.98309 1.4876 0)
(-8.30589 1.22075 0)
(-8.59041 0.932866 0)
(-8.8305 0.628021 0)
(-9.02122 0.311955 0)
(-9.15956 -0.00806993 0)
(-9.24208 -0.322929 0)
(-9.27799 -0.624634 0)
(-9.26807 -0.901771 0)
(-9.21892 -1.14502 0)
(-9.15178 -1.34944 0)
(-9.10991 -1.49235 0)
(-0.309303 2.36808 0)
(-0.699235 2.54407 0)
(-1.17614 2.65415 0)
(-1.59908 2.75834 0)
(-2.01118 2.8501 0)
(-2.41005 2.92751 0)
(-2.80242 2.98741 0)
(-3.19291 3.02715 0)
(-3.58519 3.04445 0)
(-3.98168 3.03745 0)
(-4.38351 3.00459 0)
(-4.79066 2.94462 0)
(-5.20202 2.85648 0)
(-5.61546 2.73933 0)
(-6.02794 2.59253 0)
(-6.43558 2.41566 0)
(-6.83373 2.20868 0)
(-7.21701 1.97195 0)
(-7.57943 1.70647 0)
(-7.91451 1.41413 0)
(-8.21544 1.09798 0)
(-8.4756 0.762603 0)
(-8.68942 0.414559 0)
(-8.85308 0.0627058 0)
(-8.96347 -0.2815 0)
(-9.02795 -0.608163 0)
(-9.05037 -0.906036 0)
(-9.03869 -1.16363 0)
(-9.01089 -1.37398 0)
(-8.99236 -1.51563 0)
(-0.265316 2.80795 0)
(-0.60282 2.96277 0)
(-1.02314 3.04277 0)
(-1.39015 3.1207 0)
(-1.75174 3.19169 0)
(-2.10385 3.2542 0)
(-2.45396 3.30415 0)
(-2.80647 3.33775 0)
(-3.16486 3.35148 0)
(-3.53133 3.3423 0)
(-3.90694 3.30766 0)
(-4.29161 3.24542 0)
(-4.68433 3.15384 0)
(-5.08314 3.03147 0)
(-5.48521 2.87718 0)
(-5.88686 2.69017 0)
(-6.28368 2.47007 0)
(-6.67047 2.21704 0)
(-7.04131 1.93194 0)
(-7.38957 1.61663 0)
(-7.70805 1.27435 0)
(-7.98942 0.910093 0)
(-8.22716 0.531264 0)
(-8.41675 0.148559 0)
(-8.55689 -0.224436 0)
(-8.64892 -0.575633 0)
(-8.70211 -0.893799 0)
(-8.72519 -1.16516 0)
(-8.73356 -1.38064 0)
(-8.73659 -1.52073 0)
(-0.216113 3.17851 0)
(-0.488074 3.31788 0)
(-0.836557 3.37153 0)
(-1.13213 3.42802 0)
(-1.42903 3.48389 0)
(-1.72194 3.53739 0)
(-2.01948 3.58299 0)
(-2.32557 3.61555 0)
(-2.6432 3.63028 0)
(-2.97404 3.62306 0)
(-3.31869 3.59042 0)
(-3.67686 3.52951 0)
(-4.04747 3.43796 0)
(-4.42863 3.3138 0)
(-4.81766 3.15543 0)
(-5.21116 2.96169 0)
(-5.60498 2.73189 0)
(-5.99423 2.4659 0)
(-6.37311 2.16431 0)
(-6.73489 1.82885 0)
(-7.07194 1.46275 0)
(-7.37616 1.0714 0)
(-7.64005 0.663181 0)
(-7.8583 0.250464 0)
(-8.02996 -0.151476 0)
(-8.14941 -0.527429 0)
(-8.23288 -0.865759 0)
(-8.28933 -1.15074 0)
(-8.33218 -1.37086 0)
(-8.35613 -1.50892 0)
(-0.164879 3.47005 0)
(-0.361389 3.59744 0)
(-0.624322 3.62647 0)
(-0.832911 3.66685 0)
(-1.05126 3.71503 0)
(-1.27311 3.76755 0)
(-1.50857 3.81627 0)
(-1.76049 3.85442 0)
(-2.03096 3.8759 0)
(-2.3207 3.87561 0)
(-2.62957 3.84938 0)
(-2.95682 3.79383 0)
(-3.30114 3.70614 0)
(-3.66067 3.58392 0)
(-4.03287 3.42519 0)
(-4.4146 3.22846 0)
(-4.80211 2.99277 0)
(-5.19102 2.71764 0)
(-5.57595 2.40325 0)
(-5.95029 2.05096 0)
(-6.3062 1.66391 0)
(-6.63503 1.24783 0)
(-6.92819 0.811994 0)
(-7.17918 0.369903 0)
(-7.38602 -0.062071 0)
(-7.53365 -0.46351 0)
(-7.64843 -0.821899 0)
(-7.73866 -1.12085 0)
(-7.81604 -1.34547 0)
(-7.86152 -1.48087 0)
(-0.116755 3.67914 0)
(-0.232295 3.79143 0)
(-0.395468 3.79286 0)
(-0.498973 3.82344 0)
(-0.624443 3.87396 0)
(-0.764036 3.93603 0)
(-0.929124 3.99723 0)
(-1.12031 4.04893 0)
(-1.33815 4.08382 0)
(-1.58196 4.09604 0)
(-1.8505 4.08096 0)
(-2.14229 4.03499 0)
(-2.45575 3.95514 0)
(-2.78896 3.83868 0)
(-3.13946 3.68339 0)
(-3.50433 3.48754 0)
(-3.88034 3.25002 0)
(-4.2639 2.97004 0)
(-4.65046 2.64723 0)
(-5.03401 2.28239 0)
(-5.40701 1.87835 0)
(-5.76071 1.44102 0)
(-6.08573 0.980062 0)
(-6.37384 0.509194 0)
(-6.61883 0.0460545 0)
(-6.8011 -0.382763 0)
(-6.95024 -0.761115 0)
(-7.07742 -1.07505 0)
(-7.19181 -1.30467 0)
(-7.26107 -1.43646 0)
(-0.081747 3.81461 0)
(-0.118405 3.88998 0)
(-0.161876 3.85194 0)
(-0.135055 3.88127 0)
(-0.152194 3.94979 0)
(-0.199441 4.0358 0)
(-0.287864 4.12127 0)
(-0.413559 4.19577 0)
(-0.574756 4.25122 0)
(-0.768866 4.28144 0)
(-0.993208 4.28184 0)
(-1.24534 4.24951 0)
(-1.52335 4.18142 0)
(-1.82529 4.07448 0)
(-2.14869 3.9263 0)
(-2.49068 3.73499 0)
(-2.84846 3.49967 0)
(-3.2196 3.2194 0)
(-3.60067 2.89307 0)
(-3.98663 2.52076 0)
(-4.37071 2.10461 0)
(-4.74473 1.65047 0)
(-5.0993 1.1676 0)
(-5.42411 0.66963 0)
(-5.70798 0.176725 0)
(-5.94626 -0.281036 0)
(-6.13477 -0.680503 0)
(-6.3058 -1.01131 0)
(-6.46331 -1.24751 0)
(-6.56121 -1.37449 0)
(-0.0945427 3.94438 0)
(-0.0536464 3.88411 0)
(0.0684819 3.78071 0)
(0.256883 3.82817 0)
(0.362957 3.93642 0)
(0.412354 4.06154 0)
(0.404407 4.18302 0)
(0.348171 4.28964 0)
(0.248179 4.37339 0)
(0.108884 4.42856 0)
(-0.0672313 4.45073 0)
(-0.278603 4.43577 0)
(-0.517563 4.38193 0)
(-0.783702 4.28681 0)
(-1.0748 4.14784 0)
(-1.38778 3.96399 0)
(-1.71993 3.73489 0)
(-2.07034 3.45874 0)
(-2.43712 3.13367 0)
(-2.81627 2.7591 0)
(-3.20158 2.33656 0)
(-3.5859 1.87262 0)
(-3.96181 1.37524 0)
(-4.32081 0.856405 0)
(-4.65305 0.337359 0)
(-4.95858 -0.150876 0)
(-5.19296 -0.57469 0)
(-5.41848 -0.924409 0)
(-5.63067 -1.17061 0)
(-5.76681 -1.29182 0)
(9.99557 0.145048 0)
(9.9808 0.288623 0)
(9.95463 0.432841 0)
(9.91817 0.579636 0)
(9.87234 0.730642 0)
(9.81752 0.887371 0)
(9.75394 1.05126 0)
(9.68179 1.22372 0)
(9.60134 1.40613 0)
(9.51282 1.59985 0)
(9.41646 1.80625 0)
(9.31247 2.02676 0)
(9.20106 2.26283 0)
(9.08243 2.51604 0)
(8.95673 2.78807 0)
(8.8241 3.08079 0)
(8.68465 3.39637 0)
(8.53838 3.73732 0)
(8.38524 4.1067 0)
(8.2251 4.50836 0)
(8.05772 4.94722 0)
(7.8828 5.42985 0)
(7.70008 5.9652 0)
(7.50957 6.56594 0)
(7.31213 7.25072 0)
(7.11216 8.04841 0)
(6.92154 9.00701 0)
(6.82396 10.21 0)
(7.18594 11.7852 0)
(7.28495 14.2551 0)
(9.99606 0.150431 0)
(9.98292 0.29934 0)
(9.95965 0.44889 0)
(9.92728 0.601053 0)
(9.88666 0.757479 0)
(9.83822 0.919694 0)
(9.7822 1.08914 0)
(9.71888 1.26723 0)
(9.64858 1.45535 0)
(9.5716 1.65485 0)
(9.48829 1.86712 0)
(9.39898 2.09355 0)
(9.30404 2.33561 0)
(9.20383 2.59486 0)
(9.09877 2.87298 0)
(8.98929 3.17184 0)
(8.87588 3.49359 0)
(8.75912 3.84074 0)
(8.63967 4.21634 0)
(8.51843 4.62412 0)
(8.39667 5.06888 0)
(8.27628 5.55681 0)
(8.16036 6.09614 0)
(8.05427 6.69798 0)
(7.9678 7.37748 0)
(7.92065 8.1551 0)
(7.94754 9.05688 0)
(8.09863 10.1107 0)
(8.62357 11.259 0)
(8.97045 12.2338 0)
(9.99657 0.15529 0)
(9.98513 0.309014 0)
(9.96488 0.463366 0)
(9.93675 0.62034 0)
(9.90155 0.781597 0)
(9.8597 0.94866 0)
(9.8115 1.12297 0)
(9.75727 1.30593 0)
(9.69739 1.4989 0)
(9.63227 1.70323 0)
(9.56233 1.92027 0)
(9.48804 2.1514 0)
(9.40992 2.39802 0)
(9.32852 2.66166 0)
(9.2445 2.94394 0)
(9.1586 3.24665 0)
(9.07169 3.57183 0)
(8.98485 3.9218 0)
(8.89945 4.29935 0)
(8.8173 4.70781 0)
(8.74089 5.15127 0)
(8.67383 5.63476 0)
(8.62147 6.16444 0)
(8.59205 6.74771 0)
(8.59814 7.39274 0)
(8.65914 8.10671 0)
(8.80205 8.8901 0)
(9.03187 9.73111 0)
(9.47035 10.5782 0)
(9.97407 11.2313 0)
(9.9971 0.159571 0)
(9.98741 0.317531 0)
(9.97027 0.47609 0)
(9.94651 0.63725 0)
(9.91688 0.80267 0)
(9.8818 0.973864 0)
(9.84161 1.15226 0)
(9.79667 1.33923 0)
(9.74745 1.53612 0)
(9.6944 1.74423 0)
(9.63805 1.96487 0)
(9.579 2.19935 0)
(9.51789 2.44903 0)
(9.45547 2.71531 0)
(9.39261 2.99972 0)
(9.33033 3.30389 0)
(9.26984 3.62962 0)
(9.21266 3.97896 0)
(9.16068 4.35423 0)
(9.1164 4.7581 0)
(9.08312 5.19361 0)
(9.06534 5.66422 0)
(9.06922 6.1736 0)
(9.10327 6.72525 0)
(9.17878 7.3215 0)
(9.31002 7.96179 0)
(9.5164 8.63912 0)
(9.80186 9.33984 0)
(10.23 10.0542 0)
(10.8355 10.6739 0)
(9.99764 0.163223 0)
(9.98974 0.324793 0)
(9.97578 0.486916 0)
(9.95649 0.65159 0)
(9.93253 0.820461 0)
(9.90434 0.995023 0)
(9.87229 1.17667 0)
(9.83679 1.36676 0)
(9.79834 1.56656 0)
(9.75748 1.77735 0)
(9.71483 2.00035 0)
(9.67108 2.2368 0)
(9.62699 2.48795 0)
(9.58348 2.75509 0)
(9.5416 3.03956 0)
(9.50259 3.34277 0)
(9.46793 3.66625 0)
(9.43946 4.01163 0)
(9.41943 4.38066 0)
(9.4107 4.77524 0)
(9.41692 5.1973 0)
(9.44279 5.64871 0)
(9.49433 6.13097 0)
(9.57915 6.6448 0)
(9.70662 7.18931 0)
(9.88764 7.76115 0)
(10.137 8.35318 0)
(10.4626 8.95261 0)
(10.8872 9.55054 0)
(11.4716 10.0759 0)
(9.99818 0.166198 0)
(9.9921 0.330704 0)
(9.98138 0.495705 0)
(9.96661 0.663177 0)
(9.94839 0.834743 0)
(9.92716 1.01187 0)
(9.90331 1.1959 0)
(9.8773 1.38815 0)
(9.84966 1.58984 0)
(9.821 1.80217 0)
(9.792 2.02627 0)
(9.76344 2.26328 0)
(9.73619 2.51432 0)
(9.71128 2.78052 0)
(9.68989 3.06301 0)
(9.67344 3.36295 0)
(9.66358 3.68153 0)
(9.66231 4.01991 0)
(9.67206 4.37928 0)
(9.69579 4.76072 0)
(9.73714 5.16516 0)
(9.80057 5.59313 0)
(9.89145 6.04456 0)
(10.0162 6.51836 0)
(10.1823 7.01189 0)
(10.3978 7.52038 0)
(10.6723 8.03612 0)
(11.0115 8.54579 0)
(11.4171 9.03612 0)
(11.9481 9.46769 0)
(9.99873 0.168453 0)
(9.99448 0.33518 0)
(9.98701 0.502329 0)
(9.97679 0.671844 0)
(9.96433 0.845309 0)
(9.95007 1.02415 0)
(9.93442 1.20967 0)
(9.91786 1.4031 0)
(9.90097 1.60562 0)
(9.88439 1.81831 0)
(9.86887 2.04224 0)
(9.85522 2.2784 0)
(9.84442 2.52777 0)
(9.83756 2.79129 0)
(9.83592 3.06988 0)
(9.84098 3.3644 0)
(9.85449 3.67568 0)
(9.87849 4.00445 0)
(9.9154 4.35132 0)
(9.9681 4.71667 0)
(10.0399 5.10058 0)
(10.1349 5.50258 0)
(10.2574 5.9215 0)
(10.4127 6.35511 0)
(10.606 6.79979 0)
(10.8429 7.25004 0)
(11.1285 7.69817 0)
(11.4659 8.13285 0)
(11.8499 8.5425 0)
(12.3347 8.90805 0)
(9.99928 0.169949 0)
(9.99686 0.338142 0)
(9.99263 0.506674 0)
(9.98694 0.67744 0)
(9.98022 0.851978 0)
(9.97288 1.03166 0)
(9.96535 1.21773 0)
(9.95813 1.41135 0)
(9.95182 1.61361 0)
(9.9471 1.82552 0)
(9.94472 2.048 0)
(9.94557 2.28193 0)
(9.95064 2.52812 0)
(9.96106 2.78732 0)
(9.97816 3.0602 0)
(10.0034 3.34737 0)
(10.0386 3.64928 0)
(10.0856 3.96626 0)
(10.1468 4.29843 0)
(10.2248 4.64559 0)
(10.3226 5.00715 0)
(10.4433 5.38196 0)
(10.5907 5.76815 0)
(10.7683 6.16289 0)
(10.98 6.56222 0)
(11.2289 6.96079 0)
(11.5176 7.35184 0)
(11.8472 7.72687 0)
(12.2112 8.07707 0)
(12.6572 8.39236 0)
(9.99982 0.170653 0)
(9.99922 0.339524 0)
(9.99819 0.508642 0)
(9.99699 0.679839 0)
(9.99593 0.854597 0)
(9.99541 1.03422 0)
(9.99585 1.2199 0)
(9.99777 1.4127 0)
(10.0018 1.61363 0)
(10.0086 1.82359 0)
(10.0189 2.04338 0)
(10.0336 2.27375 0)
(10.0538 2.51533 0)
(10.0806 2.76869 0)
(10.1152 3.03426 0)
(10.1592 3.31238 0)
(10.2141 3.6032 0)
(10.2818 3.90669 0)
(10.3643 4.22255 0)
(10.464 4.55015 0)
(10.5832 4.88845 0)
(10.7246 5.23586 0)
(10.8909 5.59017 0)
(11.0846 5.94837 0)
(11.308 6.30661 0)
(11.5628 6.66015 0)
(11.8499 7.0034 0)
(12.1693 7.33002 0)
(12.5143 7.63336 0)
(12.9269 7.90748 0)
(10.0004 0.170535 0)
(10.0015 0.339271 0)
(10.0037 0.508152 0)
(10.0068 0.678939 0)
(10.0113 0.853046 0)
(10.0175 1.03171 0)
(10.0257 1.21603 0)
(10.0364 1.40702 0)
(10.0504 1.60555 0)
(10.0682 1.81243 0)
(10.0907 2.02835 0)
(10.1186 2.2539 0)
(10.1531 2.48955 0)
(10.1951 2.73569 0)
(10.2459 2.99254 0)
(10.3068 3.26019 0)
(10.3794 3.53854 0)
(10.4653 3.82725 0)
(10.5663 4.12574 0)
(10.6841 4.43305 0)
(10.8209 4.74788 0)
(10.9785 5.06842 0)
(11.1589 5.39234 0)
(11.3635 5.71676 0)
(11.5938 6.03817 0)
(11.8504 6.35251 0)
(12.1332 6.6553 0)
(12.4413 6.94175 0)
(12.7686 7.20697 0)
(13.1527 7.44737 0)
(10.0009 0.169576 0)
(10.0038 0.33734 0)
(10.009 0.505145 0)
(10.0164 0.674665 0)
(10.0263 0.847239 0)
(10.0389 1.02403 0)
(10.0545 1.20605 0)
(10.0738 1.39422 0)
(10.0973 1.58933 0)
(10.1256 1.79205 0)
(10.1595 2.00297 0)
(10.1999 2.22253 0)
(10.2475 2.45106 0)
(10.3035 2.68877 0)
(10.369 2.9357 0)
(10.4453 3.19173 0)
(10.5335 3.45655 0)
(10.6352 3.72961 0)
(10.7517 4.0101 0)
(10.8846 4.2969 0)
(11.0354 4.58855 0)
(11.2054 4.8832 0)
(11.3958 5.17859 0)
(11.6076 5.47206 0)
(11.8413 5.76056 0)
(12.0968 6.04071 0)
(12.3735 6.30897 0)
(12.6702 6.56176 0)
(12.9814 6.79557 0)
(13.3415 7.00818 0)
(10.0014 0.16776 0)
(10.006 0.333704 0)
(10.0141 0.499579 0)
(10.0257 0.666968 0)
(10.0407 0.837127 0)
(10.0594 1.01114 0)
(10.0823 1.18993 0)
(10.1096 1.37432 0)
(10.1421 1.565 0)
(10.1803 1.76255 0)
(10.2249 1.96741 0)
(10.2767 2.17992 0)
(10.3365 2.40027 0)
(10.4052 2.6285 0)
(10.4839 2.86451 0)
(10.5736 3.10803 0)
(10.6755 3.35857 0)
(10.7906 3.61543 0)
(10.9201 3.87769 0)
(11.0652 4.14413 0)
(11.2269 4.41325 0)
(11.406 4.68327 0)
(11.6034 4.95209 0)
(11.8193 5.21736 0)
(12.0538 5.47648 0)
(12.3065 5.72671 0)
(12.5763 5.96529 0)
(12.8619 6.18955 0)
(13.1586 6.39699 0)
(13.498 6.5862 0)
(10.0019 0.165079 0)
(10.008 0.328345 0)
(10.019 0.491435 0)
(10.0345 0.655829 0)
(10.0545 0.822697 0)
(10.0791 0.993034 0)
(10.1086 1.16768 0)
(10.1436 1.34736 0)
(10.1845 1.53267 0)
(10.2319 1.72409 0)
(10.2864 1.92194 0)
(10.3486 2.12645 0)
(10.4194 2.33769 0)
(10.4996 2.55557 0)
(10.5899 2.77988 0)
(10.6914 3.01022 0)
(10.8048 3.24598 0)
(10.9312 3.4864 0)
(11.0713 3.73046 0)
(11.226 3.97696 0)
(11.3959 4.22443 0)
(11.5816 4.47121 0)
(11.7834 4.71542 0)
(12.0011 4.95504 0)
(12.2347 5.18789 0)
(12.4832 5.4118 0)
(12.7457 5.62461 0)
(13.0208 5.82434 0)
(13.3044 6.00921 0)
(13.6261 6.17831 0)
(10.0023 0.161531 0)
(10.01 0.321263 0)
(10.0237 0.480713 0)
(10.0429 0.641256 0)
(10.0675 0.803969 0)
(10.0976 0.969762 0)
(10.1335 1.13939 0)
(10.1756 1.31347 0)
(10.2243 1.49253 0)
(10.2801 1.67693 0)
(10.3435 1.86691 0)
(10.4152 2.06258 0)
(10.4959 2.26392 0)
(10.5861 2.47075 0)
(10.6866 2.68276 0)
(10.7981 2.89945 0)
(10.9213 3.12017 0)
(11.0569 3.34411 0)
(11.2055 3.57024 0)
(11.3676 3.79739 0)
(11.5435 4.02421 0)
(11.7336 4.24918 0)
(11.9377 4.47067 0)
(12.1556 4.68695 0)
(12.3868 4.89624 0)
(12.6306 5.09682 0)
(12.8856 5.28702 0)
(13.1508 5.46537 0)
(13.4225 5.63059 0)
(13.7284 5.78209 0)
(10.0027 0.157123 0)
(10.0119 0.312469 0)
(10.0281 0.467434 0)
(10.0508 0.623283 0)
(10.0797 0.781 0)
(10.1149 0.941408 0)
(10.1566 1.10517 0)
(10.2053 1.27283 0)
(10.2611 1.44481 0)
(10.3246 1.62138 0)
(10.3961 1.80272 0)
(10.4763 1.98884 0)
(10.5656 2.17963 0)
(10.6646 2.37485 0)
(10.7738 2.57412 0)
(10.8938 2.77688 0)
(11.0251 2.98248 0)
(11.1681 3.19007 0)
(11.3232 3.39869 0)
(11.4908 3.60723 0)
(11.6708 3.81444 0)
(11.8634 4.01901 0)
(12.0683 4.21951 0)
(12.2851 4.41452 0)
(12.5131 4.60258 0)
(12.7515 4.78232 0)
(12.9991 4.95249 0)
(13.2549 5.11196 0)
(13.5157 5.25983 0)
(13.8077 5.39572 0)
(10.0031 0.151864 0)
(10.0136 0.301987 0)
(10.0321 0.451637 0)
(10.0581 0.601969 0)
(10.091 0.753875 0)
(10.1309 0.908091 0)
(10.178 1.0652 0)
(10.2326 1.22565 0)
(10.2949 1.38979 0)
(10.3653 1.55784 0)
(10.444 1.72985 0)
(10.5316 1.90581 0)
(10.6285 2.08553 0)
(10.735 2.26872 0)
(10.8515 2.45494 0)
(10.9785 2.64366 0)
(11.1163 2.83418 0)
(11.2651 3.02571 0)
(11.4252 3.21733 0)
(11.5965 3.40802 0)
(11.7792 3.5967 0)
(11.9729 3.78219 0)
(12.1773 3.96331 0)
(12.3919 4.13887 0)
(12.616 4.30769 0)
(12.8488 4.46871 0)
(13.0891 4.62094 0)
(13.336 4.76357 0)
(13.5868 4.89592 0)
(13.8663 5.01777 0)
(10.0035 0.145774 0)
(10.0152 0.289851 0)
(10.0359 0.433377 0)
(10.0648 0.577397 0)
(10.1014 0.72271 0)
(10.1456 0.869967 0)
(10.1976 1.01967 0)
(10.2575 1.1722 0)
(10.3256 1.32782 0)
(10.4021 1.48669 0)
(10.4872 1.64881 0)
(10.5812 1.81409 0)
(10.6845 1.98233 0)
(10.7974 2.15318 0)
(10.92 2.3262 0)
(11.0526 2.50085 0)
(11.1955 2.67646 0)
(11.3487 2.85229 0)
(11.5123 3.02749 0)
(11.6861 3.20115 0)
(11.87 3.37232 0)
(12.0637 3.53999 0)
(12.2667 3.70317 0)
(12.4784 3.86088 0)
(12.6982 4.01218 0)
(12.9251 4.15624 0)
(13.1583 4.29229 0)
(13.3967 4.41974 0)
(13.6382 4.53807 0)
(13.9062 4.64718 0)
(10.0039 0.138873 0)
(10.0167 0.276107 0)
(10.0393 0.412726 0)
(10.0709 0.549668 0)
(10.1108 0.68764 0)
(10.1589 0.827215 0)
(10.2153 0.968816 0)
(10.28 1.11276 0)
(10.3532 1.25926 0)
(10.435 1.40838 0)
(10.5256 1.56011 0)
(10.6252 1.71431 0)