/*--------------------------------*- C++ -*----------------------------------*\
  =========                 |
  \\      /  F ield         | OpenFOAM: The Open Source CFD Toolbox
   \\    /   O peration     | Website:  https://openfoam.org
    \\  /    A nd           | Version:  7
     \\/     M anipulation  |
\*---------------------------------------------------------------------------*/
FoamFile
{
    version     2.0;
    format      ascii;
    class       surfaceVectorField;
    location    "1.1";
    object      Uf;
}
// * * * * * * * * * * * * * * * * * * * * * * * * * * * * * * * * * * * * * //

dimensions      [0 1 -1 0 0 0 0];

internalField   nonuniform List<vector> 
5457
(
(9.92 0.0254293 0)
(9.97089 0.0391781 0)
(9.8214 0.0333747 0)
(9.92705 0.0494545 0)
(9.70443 0.0400927 0)
(9.85181 0.060087 0)
(9.56689 0.0470266 0)
(9.75014 0.0723616 0)
(9.40873 0.0541981 0)
(9.6271 0.0852265 0)
(9.2301 0.0616462 0)
(9.48369 0.0985845 0)
(9.03075 0.0695142 0)
(9.31923 0.112677 0)
(8.81009 0.0779487 0)
(9.13293 0.127741 0)
(8.56727 0.0870777 0)
(8.92403 0.14397 0)
(8.30126 0.0970218 0)
(8.69165 0.161535 0)
(8.01087 0.107902 0)
(8.43472 0.180609 0)
(7.69477 0.119842 0)
(8.15197 0.201354 0)
(7.35154 0.132961 0)
(7.84201 0.223922 0)
(6.97973 0.147367 0)
(7.50336 0.248433 0)
(6.57794 0.163149 0)
(7.13456 0.274959 0)
(6.14494 0.180357 0)
(6.73421 0.303488 0)
(5.67982 0.198979 0)
(6.3011 0.333887 0)
(5.18221 0.218909 0)
(5.83445 0.365846 0)
(4.65258 0.239909 0)
(5.33408 0.398813 0)
(4.09252 0.26156 0)
(4.80076 0.431923 0)
(3.50517 0.283218 0)
(4.23654 0.463928 0)
(2.89559 0.30397 0)
(3.64517 0.49314 0)
(2.27106 0.322707 0)
(3.03255 0.517449 0)
(1.64107 0.33892 0)
(2.40723 0.534594 0)
(1.01531 0.356836 0)
(1.78003 0.543862 0)
(0.393141 0.329533 0)
(1.18126 0.553811 0)
(-0.174838 0.0841577 0)
(0.546974 0.517808 0)
(-0.429192 -0.200204 0)
(0.0755484 0.237494 0)
(-0.396985 -0.345166 0)
(-0.153686 -0.0307996 0)
(-0.121328 -0.388822 0)
(9.99552 0.0526465 0)
(9.9967 0.0413708 0)
(9.95615 0.0725049 0)
(9.97698 0.0692042 0)
(9.89301 0.0903044 0)
(9.93013 0.0925216 0)
(9.80795 0.108972 0)
(9.85792 0.117112 0)
(9.70079 0.128567 0)
(9.76403 0.142968 0)
(9.57143 0.149134 0)
(9.64956 0.169977 0)
(9.41959 0.170971 0)
(9.51409 0.198503 0)
(9.2447 0.194397 0)
(9.35694 0.228987 0)
(9.04594 0.219695 0)
(9.17747 0.261815 0)
(8.8223 0.247124 0)
(8.97487 0.297342 0)
(8.57259 0.276934 0)
(8.74817 0.335916 0)
(8.29546 0.309363 0)
(8.49618 0.377879 0)
(7.98947 0.344614 0)
(8.2176 0.42355 0)
(7.65309 0.382835 0)
(7.91099 0.473195 0)
(7.28481 0.424075 0)
(7.57489 0.526986 0)
(6.88325 0.468233 0)
(7.20782 0.584942 0)
(6.44728 0.514984 0)
(6.80845 0.646846 0)
(5.97627 0.563697 0)
(6.37571 0.712136 0)
(5.47035 0.613322 0)
(5.90902 0.77977 0)
(4.93074 0.662283 0)
(5.40859 0.848075 0)
(4.36021 0.708371 0)
(4.87574 0.914573 0)
(3.76354 0.748658 0)
(4.31342 0.97583 0)
(3.14816 0.77951 0)
(3.72674 1.02732 0)
(2.52508 0.7968 0)
(3.1239 1.06333 0)
(1.91209 0.796498 0)
(2.51695 1.07661 0)
(1.34863 0.756304 0)
(1.93047 1.05537 0)
(0.877719 0.619268 0)
(1.36422 0.947125 0)
(0.395764 0.347702 0)
(0.895698 0.687506 0)
(0.0407964 -0.141975 0)
(0.40906 0.308658 0)
(0.16132 -0.348864 0)
(9.98816 0.0610714 0)
(9.99446 0.0471687 0)
(9.95175 0.0922327 0)
(9.97217 0.0874665 0)
(9.89217 0.121914 0)
(9.92624 0.123126 0)
(9.81204 0.152904 0)
(9.85704 0.159271 0)
(9.71171 0.185533 0)
(9.76715 0.19703 0)
(9.59108 0.219956 0)
(9.6577 0.236554 0)
(9.44993 0.256587 0)
(9.52855 0.278286 0)
(9.28786 0.295901 0)
(9.37923 0.322812 0)
(9.10423 0.338347 0)
(9.20926 0.370687 0)
(8.89823 0.384357 0)
(9.01803 0.422438 0)
(8.66884 0.434351 0)
(8.80478 0.478582 0)
(8.41491 0.488737 0)
(8.56861 0.539631 0)
(8.13514 0.547878 0)
(8.30844 0.606071 0)
(7.82813 0.612055 0)
(8.02311 0.678331 0)
(7.49243 0.681399 0)
(7.71137 0.756719 0)
(7.1266 0.755809 0)
(7.37194 0.841351 0)
(6.72933 0.834831 0)
(7.00356 0.932026 0)
(6.29961 0.91751 0)
(6.60508 1.02807 0)
(5.83694 1.0022 0)
(6.17564 1.12816 0)
(5.34166 1.08636 0)
(5.71487 1.23003 0)
(4.8154 1.16632 0)
(5.22317 1.33025 0)
(4.26156 1.23706 0)
(4.70218 1.42387 0)
(3.68617 1.29188 0)
(4.15528 1.50405 0)
(3.09913 1.32189 0)
(3.58843 1.56149 0)
(2.51629 1.31444 0)
(3.01056 1.58317 0)
(1.96068 1.24224 0)
(2.43711 1.54993 0)
(1.43697 1.05918 0)
(1.87414 1.42457 0)
(0.924183 0.731825 0)
(1.34233 1.16631 0)
(0.457437 0.167726 0)
(0.803726 0.755009 0)
(0.413777 0.0991672 0)
(9.98428 0.0738961 0)
(9.99332 0.0548648 0)
(9.9478 0.11746 0)
(9.96936 0.105765 0)
(9.88925 0.15952 0)
(9.9233 0.153205 0)
(9.81041 0.202507 0)
(9.85531 0.200751 0)
(9.71199 0.247263 0)
(9.76724 0.250062 0)
(9.59403 0.294242 0)
(9.66009 0.301657 0)
(9.4564 0.344021 0)
(9.53387 0.35608 0)
(9.29885 0.397246 0)
(9.38826 0.414017 0)
(9.12097 0.454541 0)
(9.22291 0.476154 0)
(8.92218 0.51651 0)
(9.03738 0.543154 0)
(8.70177 0.583752 0)
(8.83112 0.615664 0)
(8.45891 0.656846 0)
(8.60346 0.694329 0)
(8.19267 0.736329 0)
(8.35362 0.779768 0)
(7.90201 0.822646 0)
(8.08076 0.87254 0)
(7.58585 0.916071 0)
(7.78398 0.973081 0)
(7.24306 1.01661 0)
(7.46231 1.08161 0)
(6.87254 1.12383 0)
(7.11478 1.19801 0)
(6.47329 1.23668 0)
(6.74043 1.32161 0)
(6.04459 1.35323 0)
(6.3384 1.45097 0)
(5.58616 1.47034 0)
(5.90801 1.58358 0)
(5.09852 1.58335 0)
(5.44898 1.71542 0)
(4.58344 1.68561 0)
(4.96167 1.84056 0)
(4.04449 1.76798 0)
(4.44748 1.9506 0)
(3.48768 1.81796 0)
(3.90927 2.03399 0)
(2.92165 1.81829 0)
(3.3514 2.07512 0)
(2.356 1.74177 0)
(2.78099 2.05344 0)
(1.79227 1.55297 0)
(2.20106 1.9385 0)
(1.22495 1.22764 0)
(1.61752 1.69602 0)
(0.646907 0.740796 0)
(0.997711 1.30779 0)
(0.50653 0.732773 0)
(9.9825 0.0873365 0)
(9.99282 0.0634346 0)
(9.94562 0.141752 0)
(9.96807 0.124263 0)
(9.88802 0.194944 0)
(9.92214 0.182793 0)
(9.81063 0.249065 0)
(9.85544 0.241467 0)
(9.71417 0.305307 0)
(9.76939 0.302042 0)
(9.59875 0.364372 0)
(9.66477 0.365355 0)
(9.46428 0.426948 0)
(9.54162 0.432087 0)
(9.31056 0.493771 0)
(9.39973 0.503006 0)
(9.13726 0.565568 0)
(9.23879 0.578903 0)
(8.94395 0.643049 0)
(9.05844 0.660543 0)
(8.73008 0.72691 0)
(8.85826 0.748679 0)
(8.49503 0.817836 0)
(8.63769 0.844052 0)
(8.23812 0.916463 0)
(8.39616 0.947377 0)
(7.9586 1.02334 0)
(8.13301 1.05931 0)
(7.65571 1.13884 0)
(7.84756 1.18036 0)
(7.32862 1.26306 0)
(7.53909 1.31087 0)
(6.97651 1.39565 0)
(7.20685 1.45077 0)
(6.59854 1.53556 0)
(6.85005 1.59949 0)
(6.19393 1.68079 0)
(6.46786 1.75564 0)
(5.76204 1.82797 0)
(6.05943 1.91666 0)
(5.3025 1.97194 0)
(5.62392 2.07839 0)
(4.81547 2.10515 0)
(5.1606 2.23455 0)
(4.3019 2.21713 0)
(4.66899 2.37612 0)
(3.76369 2.29367 0)
(4.14905 2.4907 0)
(3.20353 2.31617 0)
(3.60113 2.56196 0)
(2.62402 2.25982 0)
(3.02647 2.56928 0)
(2.02351 2.0955 0)
(2.42421 2.48597 0)
(1.39424 1.80216 0)
(1.79566 2.28358 0)
(0.723448 1.35419 0)
(1.10433 1.94928 0)
(0.527652 1.44135 0)
(9.98177 0.101074 0)
(9.99265 0.0723629 0)
(9.94484 0.165776 0)
(9.96773 0.142783 0)
(9.88841 0.229785 0)
(9.92235 0.211785 0)
(9.81288 0.294948 0)
(9.85724 0.281204 0)
(9.71883 0.362573 0)
(9.77357 0.35272 0)
(9.60643 0.433527 0)
(9.67195 0.427388 0)
(9.47561 0.508598 0)
(9.55241 0.50603 0)
(9.3262 0.588604 0)
(9.41479 0.589501 0)
(9.15792 0.674368 0)
(9.25883 0.678677 0)
(8.9704 0.766695 0)
(9.08424 0.774415 0)
(8.76318 0.866378 0)
(8.89062 0.877555 0)
(8.53576 0.974187 0)
(8.67753 0.98892 0)
(8.28756 1.09084 0)
(8.44445 1.1093 0)
(8.018 1.21698 0)
(8.19082 1.23942 0)
(7.72645 1.35305 0)
(7.91606 1.37988 0)
(7.41226 1.49924 0)
(7.61954 1.53108 0)
(7.07472 1.65529 0)
(7.30059 1.69307 0)
(6.71306 1.82025 0)
(6.95842 1.86539 0)
(6.32639 1.99222 0)
(6.59214 2.0468 0)
(5.91371 2.16787 0)
(6.20065 2.23492 0)
(5.47388 2.342 0)
(5.78256 2.4258 0)
(5.00564 2.50694 0)
(5.33615 2.61335 0)
(4.50766 2.6519 0)
(4.85936 2.78871 0)
(3.97861 2.7624 0)
(4.34974 2.93965 0)
(3.41699 2.81996 0)
(3.80451 3.05007 0)
(2.8209 2.80169 0)
(3.22091 3.09988 0)
(2.18604 2.68179 0)
(2.59493 3.06475 0)
(1.50567 2.44084 0)
(1.92724 2.91885 0)
(0.77429 2.04872 0)
(1.17829 2.6487 0)
(0.541326 2.19971 0)
(9.98163 0.114851 0)
(9.99267 0.081359 0)
(9.94511 0.189414 0)
(9.96802 0.161102 0)
(9.89008 0.263786 0)
(9.9236 0.240053 0)
(9.81676 0.339596 0)
(9.86038 0.31978 0)
(9.72557 0.418189 0)
(9.77945 0.401858 0)
(9.6167 0.500573 0)
(9.68128 0.487472 0)
(9.49011 0.587651 0)
(9.56589 0.577579 0)
(9.34567 0.680331 0)
(9.43315 0.673122 0)
(9.18312 0.779521 0)
(9.28287 0.775054 0)
(9.00214 0.886111 0)
(9.11478 0.884315 0)
(8.80233 1.00097 0)
(8.92854 1.00183 0)
(8.58322 1.12496 0)
(8.72373 1.12849 0)
(8.34432 1.25885 0)
(8.49989 1.26516 0)
(8.08507 1.40335 0)
(8.25649 1.41264 0)
(7.80489 1.55901 0)
(7.99297 1.57162 0)
(7.50312 1.72609 0)
(7.70868 1.74258 0)
(7.17905 1.90446 0)
(7.40291 1.92571 0)
(6.83177 2.09335 0)
(7.07475 2.12071 0)
(6.46019 2.29108 0)
(6.72311 2.3266 0)
(6.06286 2.49465 0)
(6.34651 2.54135 0)
(5.63786 2.69923 0)
(5.94298 2.7615 0)
(5.1827 2.89759 0)
(5.50989 2.98156 0)
(4.6942 3.07946 0)
(5.04373 3.19345 0)
(4.16849 3.2309 0)
(4.54013 3.38576 0)
(3.60108 3.33411 0)
(3.99377 3.54322 0)
(2.98701 3.36737 0)
(3.39899 3.64648 0)
(2.32074 3.30603 0)
(2.74922 3.67217 0)
(1.59768 3.12977 0)
(2.04588 3.59398 0)
(0.818107 2.79948 0)
(1.24635 3.39422 0)
(0.557106 3.001 0)
(9.98186 0.128456 0)
(9.99281 0.0902432 0)
(9.94613 0.21249 0)
(9.96875 0.179025 0)
(9.89278 0.296759 0)
(9.92563 0.267456 0)
(9.822 0.38278 0)
(9.86463 0.357022 0)
(9.73409 0.471915 0)
(9.78679 0.449227 0)
(9.62924 0.565281 0)
(9.6925 0.545335 0)
(9.50746 0.663884 0)
(9.58177 0.646413 0)
(9.36863 0.768716 0)
(9.45451 0.753493 0)
(9.21254 0.880762 0)
(9.31057 0.867603 0)
(9.03889 1.00099 0)
(9.14972 0.989759 0)
(8.84735 1.13036 0)
(8.97167 1.12096 0)
(8.63747 1.26977 0)
(8.77603 1.26218 0)
(8.40877 1.42011 0)
(8.56237 1.41436 0)
(8.16072 1.58216 0)
(8.33018 1.57839 0)
(7.8927 1.75654 0)
(8.07887 1.75504 0)
(7.604 1.94368 0)
(7.80776 1.94494 0)
(7.29374 2.14359 0)
(7.51601 2.14843 0)
(6.96083 2.35577 0)
(7.20255 2.36547 0)
(6.60382 2.57891 0)
(6.86598 2.59543 0)
(6.22074 2.81052 0)
(6.50441 2.83679 0)
(5.8089 3.04648 0)
(6.11523 3.0868 0)
(5.36466 3.28045 0)
(5.69491 3.34094 0)
(4.88326 3.50321 0)
(5.23868 3.59231 0)
(4.35874 3.70196 0)
(4.7404 3.83086 0)
(3.78414 3.85981 0)
(4.19254 4.04261 0)
(3.15213 3.95565 0)
(3.58679 4.20905 0)
(2.45602 3.96419 0)
(2.91387 4.30679 0)
(1.69243 3.86161 0)
(2.17552 4.30696 0)
(0.865437 3.59652 0)
(1.32507 4.18507 0)
(0.580531 3.84864 0)
(9.98233 0.141729 0)
(9.99305 0.0988944 0)
(9.94771 0.234847 0)
(9.96979 0.196389 0)
(9.89634 0.328548 0)
(9.9283 0.293846 0)
(9.8284 0.424315 0)
(9.86982 0.392765 0)
(9.74417 0.523526 0)
(9.7954 0.494619 0)
(9.64381 0.627379 0)
(9.70539 0.60072 0)
(9.52736 0.736971 0)
(9.59979 0.712232 0)
(9.39475 0.853373 0)
(9.47856 0.830266 0)
(9.24579 0.977644 0)
(9.34158 0.95592 0)
(9.08025 1.11083 0)
(9.18867 1.09028 0)
(8.89781 1.25395 0)
(9.01957 1.23443 0)
(8.69808 1.40801 0)
(8.83396 1.38941 0)
(8.48059 1.57397 0)
(8.63143 1.55625 0)
(8.2448 1.7527 0)
(8.41148 1.73593 0)
(7.99006 1.94498 0)
(8.17353 1.92937 0)
(7.71555 2.15138 0)
(7.91682 2.13734 0)
(7.42026 2.37216 0)
(7.64041 2.36041 0)
(7.10282 2.60717 0)
(7.34306 2.59885 0)
(6.76142 2.85558 0)
(7.02308 2.8525 0)
(6.39355 3.11561 0)
(6.67817 3.12049 0)
(5.99575 3.38412 0)
(6.30513 3.40101 0)
(5.56332 3.65603 0)
(5.89958 3.69077 0)
(5.09002 3.9236 0)
(5.45558 3.98446 0)
(4.56795 4.17563 0)
(4.96532 4.27387 0)
(3.98774 4.39652 0)
(4.41898 4.54688 0)
(3.33935 4.56549 0)
(3.80534 4.7862 0)
(2.61392 4.6555 0)
(3.1113 4.96814 0)
(1.80728 4.63703 0)
(2.33695 5.06014 0)
(0.92549 4.44326 0)
(1.42944 5.02834 0)
(0.617586 4.7551 0)
(9.98299 0.154545 0)
(9.99334 0.107226 0)
(9.94974 0.256341 0)
(9.97109 0.213062 0)
(9.90061 0.359 0)
(9.93147 0.319085 0)
(9.83582 0.464019 0)
(9.87579 0.426853 0)
(9.75562 0.572796 0)
(9.80511 0.537838 0)
(9.66017 0.686595 0)
(9.71974 0.653395 0)
(9.54955 0.806592 0)
(9.61972 0.774759 0)
(9.42371 0.933929 0)
(9.50501 0.903116 0)
(9.28252 1.06974 0)
(9.37555 1.03963 0)
(9.12579 1.21513 0)
(9.23121 1.18546 0)
(8.95325 1.3712 0)
(9.0718 1.34174 0)
(8.76455 1.53905 0)
(8.89702 1.50961 0)
(8.55925 1.71971 0)
(8.70652 1.69018 0)
(8.33683 1.91421 0)
(8.49985 1.88455 0)
(8.09659 2.12345 0)
(8.2764 2.09377 0)
(7.83767 2.34823 0)
(8.03544 2.31881 0)
(7.55891 2.58911 0)
(7.77593 2.56051 0)
(7.25875 2.84637 0)
(7.49652 2.81954 0)
(6.93503 3.1198 0)
(7.19532 3.09626 0)
(6.58478 3.4085 0)
(6.8697 3.39061 0)
(6.20387 3.71052 0)
(6.51604 3.70187 0)
(5.78664 4.02238 0)
(6.12925 4.02829 0)
(5.32549 4.33831 0)
(5.70238 4.36654 0)
(4.81053 4.64929 0)
(5.22604 4.71086 0)
(4.22959 4.94163 0)
(4.688 5.05178 0)
(3.56897 5.19536 0)
(4.07341 5.37424 0)
(2.8154 5.38145 0)
(3.36349 5.65515 0)
(1.96063 5.46308 0)
(2.55304 5.85825 0)
(1.00945 5.35375 0)
(1.57824 5.93796 0)
(0.677403 5.74379 0)
(9.98377 0.166808 0)
(9.99368 0.115172 0)
(9.95213 0.276848 0)
(9.97257 0.228935 0)
(9.90548 0.387973 0)
(9.93505 0.343047 0)
(9.84411 0.501723 0)
(9.88244 0.459141 0)
(9.76826 0.619521 0)
(9.81578 0.57871 0)
(9.67811 0.742686 0)
(9.73539 0.703146 0)
(9.57376 0.87246 0)
(9.64132 0.833744 0)
(9.4552 1.01005 0)
(9.53357 0.971752 0)
(9.32236 1.15665 0)
(9.41215 1.1184 0)
(9.17508 1.31345 0)
(9.27696 1.27489 0)
(9.01317 1.4816 0)
(9.12787 1.44244 0)
(8.83632 1.66229 0)
(8.96467 1.62226 0)
(8.64416 1.85667 0)
(8.78705 1.81555 0)
(8.43617 2.06588 0)
(8.59461 2.02353 0)
(8.21171 2.29101 0)
(8.38682 2.24739 0)
(7.96986 2.5331 0)
(8.16294 2.48832 0)
(7.70943 2.79308 0)
(7.92197 2.74746 0)
(7.42873 3.07171 0)
(7.66253 3.02591 0)
(7.12542 3.3695 0)
(7.38267 3.32465 0)
(6.79621 3.68657 0)
(7.07964 3.6445 0)
(6.43652 4.02239 0)
(6.74957 3.98598 0)
(6.03996 4.37541 0)
(6.38703 4.3491 0)
(5.59775 4.74235 0)
(5.98437 4.73294 0)
(5.09806 5.11721 0)
(5.53098 5.13489 0)
(4.52553 5.48944 0)
(5.01226 5.54937 0)
(3.86129 5.84141 0)
(4.40916 5.96551 0)
(3.0844 6.14353 0)
(3.69501 6.36341 0)
(2.1767 6.35134 0)
(2.85374 6.70579 0)
(1.13437 6.35279 0)
(1.80061 6.93474 0)
(0.77675 6.85484 0)
(9.98467 0.178438 0)
(9.99406 0.122682 0)
(9.95479 0.29626 0)
(9.97421 0.243919 0)
(9.91085 0.415341 0)
(9.93898 0.36562 0)
(9.85315 0.537275 0)
(9.88965 0.489499 0)
(9.78195 0.663517 0)
(9.82726 0.617079 0)
(9.69744 0.795432 0)
(9.75214 0.749786 0)
(9.59974 0.934319 0)
(9.66436 0.888963 0)
(9.48891 1.08144 0)
(9.56398 1.03591 0)
(9.36492 1.23805 0)
(9.45103 1.19191 0)
(9.22768 1.40538 0)
(9.3255 1.35823 0)
(9.07706 1.58468 0)
(9.18732 1.53612 0)
(8.91282 1.7772 0)
(9.03634 1.72688 0)
(8.73465 1.98419 0)
(8.87235 1.93178 0)
(8.54213 2.20694 0)
(8.69504 2.15217 0)
(8.33464 2.44671 0)
(8.50395 2.38938 0)
(8.11137 2.70481 0)
(8.29845 2.64481 0)
(7.87112 2.98255 0)
(8.07764 2.91992 0)
(7.61225 3.28121 0)
(7.84023 3.21624 0)
(7.33242 3.60209 0)
(7.58439 3.53537 0)
(7.0283 3.94641 0)
(7.3075 3.87904 0)
(6.69517 4.31522 0)
(7.00582 4.24911 0)
(6.32634 4.70918 0)
(6.674 4.64748 0)
(5.91232 5.1281 0)
(6.30433 5.07596 0)
(5.43979 5.57004 0)
(5.88571 5.53587 0)
(4.89019 6.02956 0)
(5.40204 6.02703 0)
(4.23834 6.49456 0)
(4.83043 6.54574 0)
(3.45165 6.93932 0)
(4.13503 7.08061 0)
(2.49247 7.31568 0)
(3.28235 7.6014 0)
(1.33118 7.48054 0)
(2.14797 8.04529 0)
(0.950806 8.15865 0)
(9.98564 0.189373 0)
(9.99446 0.129714 0)
(9.95769 0.314484 0)
(9.97598 0.257938 0)
(9.91664 0.44099 0)
(9.94318 0.386708 0)
(9.86282 0.570539 0)
(9.89732 0.517812 0)
(9.79652 0.704622 0)
(9.83943 0.652807 0)
(9.71794 0.844641 0)
(9.76983 0.793151 0)
(9.62725 0.99194 0)
(9.68864 0.940225 0)
(9.52454 1.14783 0)
(9.59596 1.09537 0)
(9.40984 1.31362 0)
(9.49187 1.25992 0)
(9.28314 1.49058 0)
(9.37643 1.43516 0)
(9.14437 1.68002 0)
(9.24964 1.62243 0)
(8.9934 1.88327 0)
(9.11145 1.82304 0)
(8.83 2.10167 0)
(8.96175 2.03838 0)
(8.65386 2.33664 0)
(8.80033 2.26986 0)
(8.46448 2.58962 0)
(8.62688 2.51897 0)
(8.26117 2.86217 0)
(8.44093 2.78731 0)
(8.04291 3.15595 0)
(8.24175 3.0766 0)
(7.80823 3.4728 0)
(8.0283 3.38877 0)
(7.55502 3.81475 0)
(7.79906 3.72603 0)
(7.28024 4.18413 0)
(7.55181 4.09096 0)
(6.97951 4.58363 0)
(7.28336 4.48665 0)
(6.64646 5.01628 0)
(6.98903 4.9169 0)
(6.27183 5.48542 0)
(6.66198 5.38636 0)
(5.8419 5.99427 0)
(6.29202 5.9007 0)
(5.33621 6.54492 0)
(5.86353 6.46653 0)
(4.72387 7.13586 0)
(5.35253 7.0908 0)
(3.95806 7.755 0)
(4.71668 7.77878 0)
(2.96906 8.36605 0)
(3.90287 8.52485 0)
(1.6643 8.80345 0)
(2.7202 9.29304 0)
(1.28267 9.78873 0)
(9.98668 0.199561 0)
(9.99489 0.136237 0)
(9.96077 0.331443 0)
(9.97784 0.270934 0)
(9.92276 0.464823 0)
(9.9476 0.406231 0)
(9.87302 0.601401 0)
(9.90538 0.543982 0)
(9.81183 0.742701 0)
(9.85216 0.685778 0)
(9.73944 0.890156 0)
(9.78831 0.833103 0)
(9.65604 1.04515 0)
(9.71395 0.987366 0)
(9.56177 1.20902 0)
(9.62923 1.14995 0)
(9.45674 1.38312 0)
(9.53431 1.32219 0)
(9.341 1.56876 0)
(9.42931 1.50545 0)
(9.21457 1.7673 0)
(9.31432 1.70106 0)
(9.07741 1.98012 0)
(9.18938 1.91041 0)
(8.92944 2.20865 0)
(9.0545 2.13492 0)
(8.77046 2.45439 0)
(8.90961 2.37609 0)
(8.60016 2.71897 0)
(8.75458 2.63552 0)
(8.41805 3.00415 0)
(8.58914 2.91495 0)
(8.22337 3.31191 0)
(8.41284 3.21635 0)
(8.01502 3.64454 0)
(8.22501 3.54196 0)
(7.79134 4.00475 0)
(8.0246 3.89446 0)
(7.54993 4.39585 0)
(7.81007 4.27713 0)
(7.2873 4.82201 0)
(7.57917 4.6941 0)
(6.99825 5.28852 0)
(7.3286 5.15073 0)
(6.67503 5.80227 0)
(7.05344 5.65417 0)
(6.30567 6.37218 0)
(6.74628 6.21413 0)
(5.87112 7.00985 0)
(6.39536 6.84421 0)
(5.33956 7.73008 0)
(5.98185 7.56396 0)
(4.65478 8.54994 0)
(5.46864 8.40307 0)
(3.7098 9.4859 0)
(4.80265 9.4072 0)
(2.2868 10.44 0)
(3.73219 10.6539 0)
(1.99885 12.0285 0)
(9.98777 0.208959 0)
(9.99534 0.142226 0)
(9.964 0.347071 0)
(9.97978 0.282858 0)
(9.92917 0.486751 0)
(9.9522 0.424123 0)
(9.88365 0.629745 0)
(9.91375 0.567929 0)
(9.82776 0.777603 0)
(9.86537 0.715897 0)
(9.76175 0.931785 0)
(9.80743 0.869528 0)
(9.68588 1.0937 0)
(9.74013 1.03026 0)
(9.60031 1.26472 0)
(9.66364 1.19948 0)
(9.50524 1.4462 0)
(9.57819 1.37856 0)
(9.40079 1.63951 0)
(9.48398 1.56888 0)
(9.28707 1.84602 0)
(9.38117 1.77178 0)
(9.16418 2.06716 0)
(9.26994 1.98869 0)
(9.03215 2.30442 0)
(9.15041 2.22106 0)
(8.89096 2.55937 0)
(9.02268 2.47043 0)
(8.74051 2.83376 0)
(8.88682 2.73848 0)
(8.58058 3.12949 0)
(8.74281 3.02704 0)
(8.41078 3.4488 0)
(8.59056 3.33824 0)
(8.23048 3.79431 0)
(8.42983 3.67452 0)
(8.03871 4.1692 0)
(8.26021 4.03886 0)
(7.83404 4.57754 0)
(8.08105 4.43497 0)
(7.61434 5.02457 0)
(7.89138 4.86763 0)
(7.37645 5.51733 0)
(7.6898 5.34317 0)
(7.11564 6.06549 0)
(7.47432 5.87026 0)
(6.82453 6.68283 0)
(7.24212 6.46116 0)
(6.49099 7.38984 0)
(6.98915 7.13409 0)
(6.0935 8.21915 0)
(6.71031 7.91778 0)
(5.58929 9.22842 0)
(6.39611 8.86273 0)
(4.87607 10.55 0)
(6.06531 10.0732 0)
(3.62045 12.6188 0)
(5.75926 11.8546 0)
(4.84492 15.5745 0)
(0.504884 -0.345674 0)
(0.132821 -0.494503 0)
(0.788558 -0.217344 0)
(0.413338 -0.271279 0)
(0.920104 -0.110468 0)
(0.46693 -0.122827 0)
(0.90704 -0.0106803 0)
(0.410842 0.0119104 0)
(0.770628 0.0692788 0)
(0.244462 0.121425 0)
(0.538055 0.123567 0)
(-0.00753538 0.202132 0)
(0.233247 0.156155 0)
(-0.329057 0.258656 0)
(-0.124094 0.173433 0)
(-0.704602 0.296072 0)
(-0.519114 0.181677 0)
(-1.11351 0.319561 0)
(-0.942542 0.184433 0)
(-1.55267 0.334452 0)
(-1.38533 0.182575 0)
(-2.01206 0.341481 0)
(-1.83863 0.176773 0)
(-2.48304 0.341337 0)
(-2.29386 0.167575 0)
(-2.95739 0.334691 0)
(-2.74257 0.155415 0)
(-3.42697 0.322103 0)
(-3.17634 0.14064 0)
(-3.88368 0.304027 0)
(-3.58671 0.123526 0)
(-4.31933 0.280838 0)
(-3.96514 0.104287 0)
(-4.7256 0.252854 0)
(-4.3029 0.0830719 0)
(-5.09405 0.220355 0)
(-4.59115 0.0599691 0)
(-5.4161 0.183614 0)
(-4.82098 0.0349509 0)
(-5.68301 0.142939 0)
(-4.98352 0.00773069 0)
(-5.88558 0.0986994 0)
(-5.06928 -0.0226393 0)
(-6.0143 0.0508538 0)
(-5.06452 -0.0590075 0)
(-6.06053 -0.00275736 0)
(-4.95399 -0.102921 0)
(-6.01759 -0.0624774 0)
(-4.71786 -0.153994 0)
(-5.86992 -0.130318 0)
(-4.34033 -0.213972 0)
(-5.60727 -0.20343 0)
(-3.80007 -0.286138 0)
(-5.20559 -0.284241 0)
(-3.05989 -0.365901 0)
(-4.6306 -0.380233 0)
(-2.09617 -0.41935 0)
(-3.89147 -0.483366 0)
(-3.19321 -0.479998 0)
(0.102814 -0.481784 0)
(-0.0924157 -0.595203 0)
(0.0928752 -0.216536 0)
(-0.0920462 -0.261775 0)
(-0.0452736 -0.00141178 0)
(-0.294809 0.00616541 0)
(-0.262753 0.164014 0)
(-0.525296 0.210179 0)
(-0.541368 0.286172 0)
(-0.817691 0.36943 0)
(-0.875434 0.375894 0)
(-1.16133 0.492472 0)
(-1.25743 0.439469 0)
(-1.5474 0.582811 0)
(-1.67915 0.48235 0)
(-1.96882 0.645486 0)
(-2.13222 0.509791 0)
(-2.419 0.68608 0)
(-2.60668 0.525062 0)
(-2.89055 0.709214 0)
(-3.09392 0.529579 0)
(-3.37558 0.717247 0)
(-3.58591 0.524408 0)
(-3.86676 0.711801 0)
(-4.0748 0.510401 0)
(-4.35696 0.694129 0)
(-4.55278 0.488222 0)
(-4.83904 0.665221 0)
(-5.01197 0.458399 0)
(-5.3058 0.625871 0)
(-5.44435 0.421353 0)
(-5.74985 0.57673 0)
(-5.8417 0.37744 0)
(-6.16358 0.518359 0)
(-6.19565 0.326986 0)
(-6.53921 0.451271 0)
(-6.49768 0.270318 0)
(-6.86878 0.376004 0)
(-6.73927 0.207724 0)
(-7.14417 0.29319 0)
(-6.91193 0.139172 0)
(-7.35713 0.203548 0)
(-7.007 0.0638132 0)
(-7.49945 0.107224 0)
(-7.01915 -0.0197979 0)
(-7.56364 0.00427301 0)
(-6.93905 -0.112311 0)
(-7.54667 -0.107751 0)
(-6.76428 -0.212514 0)
(-7.44533 -0.22677 0)
(-6.49062 -0.320018 0)
(-7.25555 -0.350894 0)
(-6.11905 -0.436166 0)
(-6.96748 -0.479732 0)
(-5.66428 -0.552654 0)
(-6.56918 -0.613844 0)
(-5.15703 -0.637627 0)
(-6.1 -0.737787 0)
(-5.76963 -0.817828 0)
(-0.222581 -0.337228 0)
(-0.255633 -0.377199 0)
(-0.48306 -0.0103127 0)
(-0.482047 -0.0126767 0)
(-0.764692 0.243896 0)
(-0.821131 0.269131 0)
(-1.08345 0.43888 0)
(-1.15979 0.500782 0)
(-1.44024 0.591995 0)
(-1.53109 0.687016 0)
(-1.831 0.708835 0)
(-1.92876 0.832085 0)
(-2.25211 0.793553 0)
(-2.3509 0.940164 0)
(-2.69926 0.850908 0)
(-2.79477 1.01597 0)
(-3.16682 0.885493 0)
(-3.25672 1.06432 0)
(-3.64806 0.900708 0)
(-3.73197 1.08933 0)
(-4.13641 0.898739 0)
(-4.21517 1.09387 0)
(-4.62543 0.881204 0)
(-4.70084 1.08003 0)
(-5.10867 0.849368 0)
(-5.18337 1.04941 0)
(-5.57959 0.804245 0)
(-5.65692 1.00327 0)
(-6.03147 0.746672 0)
(-6.1154 0.942592 0)
(-6.45737 0.67738 0)
(-6.55239 0.86819 0)
(-6.85011 0.597063 0)
(-6.96118 0.78078 0)
(-7.20232 0.506451 0)
(-7.33476 0.681048 0)
(-7.50646 0.406385 0)
(-7.66587 0.56974 0)
(-7.75496 0.297857 0)
(-7.9471 0.447744 0)
(-7.94032 0.181829 0)
(-8.17102 0.316105 0)
(-8.05633 0.0587818 0)
(-8.33049 0.176006 0)
(-8.09514 -0.0712153 0)
(-8.41914 0.0267454 0)
(-8.05818 -0.208566 0)
(-8.43372 -0.128645 0)
(-7.94034 -0.35189 0)
(-8.3762 -0.291804 0)
(-7.74262 -0.4983 0)
(-8.24429 -0.457434 0)
(-7.47199 -0.64585 0)
(-8.03325 -0.622122 0)
(-7.14429 -0.788859 0)
(-7.7367 -0.782182 0)
(-6.761 -0.909856 0)
(-7.39206 -0.930032 0)
(-7.16727 -1.05096 0)
(-0.417325 -0.00288766 0)
(-0.34509 0.0315453 0)
(-0.81481 0.313499 0)
(-0.690466 0.367441 0)
(-1.20668 0.566003 0)
(-1.12816 0.635024 0)
(-1.60591 0.774781 0)
(-1.54668 0.864751 0)
(-2.01796 0.942665 0)
(-1.97188 1.05379 0)
(-2.44506 1.07222 0)
(-2.40486 1.20329 0)
(-2.8876 1.16679 0)
(-2.84777 1.3157 0)
(-3.34444 1.2304 0)
(-3.3011 1.39447 0)
(-3.81292 1.26702 0)
(-3.76394 1.44331 0)
(-4.28928 1.27992 0)
(-4.23413 1.46559 0)
(-4.76918 1.27159 0)
(-4.70859 1.46397 0)
(-5.24794 1.24393 0)
(-5.18363 1.44053 0)
(-5.72054 1.19839 0)
(-5.65504 1.39687 0)
(-6.18158 1.13615 0)
(-6.11812 1.33423 0)
(-6.62528 1.05811 0)
(-6.56767 1.25358 0)
(-7.04549 0.965053 0)
(-6.99803 1.15576 0)
(-7.43567 0.857664 0)
(-7.40308 1.04149 0)
(-7.78896 0.736639 0)
(-7.7763 0.911534 0)
(-8.0983 0.602784 0)
(-8.11085 0.766786 0)
(-8.35657 0.457096 0)
(-8.3997 0.608372 0)
(-8.55687 0.300762 0)
(-8.63582 0.437736 0)
(-8.69268 0.134846 0)
(-8.81272 0.256533 0)
(-8.76051 -0.0403482 0)
(-8.92513 0.0660087 0)
(-8.75668 -0.222682 0)
(-8.96862 -0.130806 0)
(-8.68328 -0.407845 0)
(-8.94768 -0.332312 0)
(-8.54212 -0.591293 0)
(-8.86184 -0.533501 0)
(-8.34127 -0.768559 0)
(-8.70865 -0.727792 0)
(-8.09274 -0.936017 0)
(-8.48537 -0.909849 0)
(-7.79859 -1.08274 0)
(-8.22633 -1.07757 0)
(-8.06346 -1.21523 0)
(-0.514853 0.444121 0)
(-0.377093 0.535812 0)
(-0.996561 0.721787 0)
(-0.787422 0.828101 0)
(-1.45746 0.957272 0)
(-1.28816 1.06537 0)
(-1.90791 1.1591 0)
(-1.75171 1.27542 0)
(-2.35477 1.3241 0)
(-2.20803 1.45156 0)
(-2.80291 1.45262 0)
(-2.65973 1.59277 0)
(-3.25537 1.54657 0)
(-3.11118 1.69965 0)
(-3.71349 1.60873 0)
(-3.56503 1.77405 0)
(-4.17707 1.64203 0)
(-4.02251 1.81833 0)
(-4.64458 1.64912 0)
(-4.48343 1.83487 0)
(-5.11357 1.63212 0)
(-4.94648 1.82566 0)
(-5.5808 1.59272 0)
(-5.4094 1.79236 0)
(-6.04239 1.5322 0)
(-5.86912 1.73624 0)
(-6.49384 1.4516 0)
(-6.32182 1.65829 0)
(-6.93006 1.35173 0)
(-6.76303 1.55933 0)
(-7.34547 1.23335 0)
(-7.18763 1.44004 0)
(-7.73398 1.09721 0)
(-7.58997 1.30108 0)
(-8.08915 0.944225 0)
(-7.9639 1.14325 0)
(-8.40428 0.775524 0)
(-8.3029 0.967518 0)
(-8.67258 0.592602 0)
(-8.6002 0.775243 0)
(-8.88746 0.397327 0)
(-8.84903 0.568224 0)
(-9.04302 0.191908 0)
(-9.04326 0.348766 0)
(-9.13577 -0.0209541 0)
(-9.17795 0.119702 0)
(-9.16391 -0.238558 0)
(-9.24931 -0.114902 0)
(-9.12925 -0.45698 0)
(-9.26115 -0.351437 0)
(-9.03498 -0.669577 0)
(-9.21483 -0.584303 0)
(-8.88887 -0.869834 0)
(-9.10936 -0.804661 0)
(-8.70088 -1.0545 0)
(-8.94521 -1.00642 0)
(-8.47899 -1.21332 0)
(-8.75322 -1.18886 0)
(-8.63477 -1.33205 0)
(-0.551933 0.938291 0)
(-0.37672 1.0764 0)
(-1.0748 1.18375 0)
(-0.81406 1.32812 0)
(-1.56984 1.39154 0)
(-1.3415 1.5276 0)
(-2.04521 1.57307 0)
(-1.8215 1.7088 0)
(-2.50753 1.72338 0)
(-2.28777 1.86308 0)
(-2.96258 1.84142 0)
(-2.74235 1.98826 0)
(-3.41482 1.9276 0)
(-3.19075 2.08341 0)
(-3.86723 1.98327 0)
(-3.63687 2.14889 0)
(-4.32128 2.01018 0)
(-4.08329 2.18565 0)
(-4.77705 2.01002 0)
(-4.5312 2.19487 0)
(-5.23346 1.98426 0)
(-4.98052 2.17765 0)
(-5.6884 1.93409 0)
(-5.43003 2.13493 0)
(-6.13889 1.86045 0)
(-5.87751 2.06744 0)
(-6.58114 1.76408 0)
(-6.31985 1.97577 0)
(-7.01066 1.64561 0)
(-6.75314 1.86038 0)
(-7.42231 1.50565 0)
(-7.17271 1.72174 0)
(-7.81039 1.34488 0)
(-7.57328 1.56039 0)
(-8.16874 1.16419 0)
(-7.94899 1.37703 0)
(-8.49088 0.964773 0)
(-8.29353 1.17272 0)
(-8.77021 0.748321 0)
(-8.60028 0.948974 0)
(-9.00036 0.517126 0)
(-8.86265 0.707981 0)
(-9.17576 0.274289 0)
(-9.07466 0.452762 0)
(-9.29286 0.0239268 0)
(-9.23152 0.187493 0)
(-9.35025 -0.229293 0)
(-9.32994 -0.0824604 0)
(-9.35012 -0.479995 0)
(-9.37155 -0.35151 0)
(-9.29623 -0.720371 0)
(-9.36029 -0.613343 0)
(-9.19575 -0.942493 0)
(-9.29608 -0.857524 0)
(-9.05824 -1.14244 0)
(-9.18218 -1.07706 0)
(-8.89602 -1.30867 0)
(-9.04561 -1.27022 0)
(-8.96186 -1.41443 0)
(-0.551598 1.45944 0)
(-0.358308 1.61665 0)
(-1.07977 1.66859 0)
(-0.792461 1.83322 0)
(-1.57969 1.84257 0)
(-1.31647 1.99438 0)
(-2.05661 1.99695 0)
(-1.78824 2.14359 0)
(-2.51628 2.12626 0)
(-2.24505 2.27226 0)
(-2.9646 2.22857 0)
(-2.68737 2.3779 0)
(-3.40663 2.30297 0)
(-3.12126 2.45851 0)
(-3.84624 2.34947 0)
(-3.55121 2.51312 0)
(-4.28592 2.36849 0)
(-3.98056 2.54133 0)
(-4.72677 2.36065 0)
(-4.41128 2.54308 0)
(-5.16863 2.32651 0)
(-4.84405 2.51842 0)
(-5.61021 2.26656 0)
(-5.27837 2.46743 0)
(-6.04917 2.18118 0)
(-5.7126 2.39017 0)
(-6.48228 2.07067 0)
(-6.14414 2.28667 0)
(-6.90549 1.93533 0)
(-6.5695 2.15701 0)
(-7.31402 1.77554 0)
(-6.98439 2.00132 0)
(-7.70245 1.59185 0)
(-7.38379 1.81992 0)
(-8.06482 1.38513 0)
(-7.76208 1.61344 0)
(-8.39483 1.15672 0)
(-8.11309 1.38293 0)
(-8.68602 0.908618 0)
(-8.43034 1.13008 0)
(-8.93215 0.643741 0)
(-8.70727 0.857445 0)
(-9.12778 0.366191 0)
(-8.93783 0.568753 0)
(-9.26906 0.0813476 0)
(-9.11718 0.26928 0)
(-9.35427 -0.204546 0)
(-9.24226 -0.0342946 0)
(-9.38579 -0.484768 0)
(-9.31147 -0.334115 0)
(-9.36787 -0.750446 0)
(-9.33211 -0.622998 0)
(-9.30715 -0.992352 0)
(-9.30472 -0.889471 0)
(-9.2135 -1.20515 0)
(-9.23487 -1.12517 0)
(-9.10141 -1.376 0)
(-9.1457 -1.32644 0)
(-9.09065 -1.47003 0)
(-0.524478 1.97365 0)
(-0.327398 2.13035 0)
(-1.03083 2.14781 0)
(-0.735422 2.31744 0)
(-1.51126 2.28716 0)
(-1.23165 2.44297 0)
(-1.96915 2.41256 0)
(-1.67411 2.56102 0)
(-2.40942 2.51889 0)
(-2.10388 2.66416 0)
(-2.83782 2.60378 0)
(-2.51956 2.75022 0)
(-3.25956 2.66528 0)
(-2.92764 2.81639 0)
(-3.67888 2.7021 0)
(-3.33275 2.86055 0)
(-4.09877 2.7134 0)
(-3.73851 2.88101 0)
(-4.52088 2.69863 0)
(-4.14725 2.87649 0)
(-4.94558 2.65736 0)
(-4.56003 2.84596 0)
(-5.37207 2.58928 0)
(-4.9767 2.78858 0)
(-5.79848 2.49412 0)
(-5.39601 2.70367 0)
(-6.22196 2.37167 0)
(-5.81571 2.59067 0)
(-6.63881 2.22184 0)
(-6.23262 2.44917 0)
(-7.04452 2.04473 0)
(-6.64273 2.27897 0)
(-7.43392 1.84071 0)
(-7.04127 2.08011 0)
(-7.80122 1.61059 0)
(-7.42279 1.85306 0)
(-8.1402 1.35577 0)
(-7.78126 1.59886 0)
(-8.44446 1.07853 0)
(-8.1102 1.31931 0)
(-8.70772 0.782265 0)
(-8.40293 1.01731 0)
(-8.92437 0.471877 0)
(-8.65305 0.697203 0)
(-9.09 0.153855 0)
(-8.85532 0.365166 0)
(-9.20197 -0.163618 0)
(-9.00632 0.028995 0)
(-9.2627 -0.471979 0)
(-9.10278 -0.300597 0)
(-9.27755 -0.761547 0)
(-9.15297 -0.614996 0)
(-9.25243 -1.02194 0)
(-9.15922 -0.90269 0)
(-9.19764 -1.24601 0)
(-9.1288 -1.15331 0)
(-9.12857 -1.42004 0)
(-9.08134 -1.36109 0)
(-9.05114 -1.50351 0)
(-0.476556 2.45502 0)
(-0.287309 2.5971 0)
(-0.940128 2.59845 0)
(-0.651027 2.76076 0)
(-1.381 2.70562 0)
(-1.09964 2.85462 0)
(-1.8018 2.80367 0)
(-1.49462 2.94466 0)
(-2.20727 2.88834 0)
(-1.88146 3.02509 0)
(-2.6031 2.9571 0)
(-2.25695 3.09424 0)
(-2.99449 3.00704 0)
(-2.62819 3.14852 0)
(-3.38574 3.0357 0)
(-2.99969 3.18471 0)
(-3.77991 3.04099 0)
(-3.37503 3.19989 0)
(-4.17883 3.02122 0)
(-3.75651 3.19158 0)
(-4.58307 2.97496 0)
(-4.14522 3.15771 0)
(-4.99208 2.90108 0)
(-4.54114 3.09656 0)
(-5.40426 2.79861 0)
(-4.94317 3.0067 0)
(-5.81703 2.66681 0)
(-5.3493 2.88698 0)
(-6.22695 2.50515 0)
(-5.75657 2.73649 0)
(-6.62977 2.31341 0)
(-6.16122 2.55463 0)
(-7.02047 2.09173 0)
(-6.5587 2.34117 0)
(-7.39342 1.8408 0)
(-6.94374 2.09638 0)
(-7.74243 1.56205 0)
(-7.31037 1.82117 0)
(-8.06096 1.25794 0)
(-7.65204 1.51742 0)
(-8.34247 0.932293 0)
(-7.96175 1.18826 0)
(-8.58077 0.59066 0)
(-8.23251 0.838493 0)
(-8.7706 0.240735 0)
(-8.45829 0.475058 0)
(-8.90938 -0.10734 0)
(-8.63492 0.10744 0)
(-8.99868 -0.44288 0)