/*--------------------------------*- C++ -*----------------------------------*\
  =========                 |
  \\      /  F ield         | OpenFOAM: The Open Source CFD Toolbox
   \\    /   O peration     | Website:  https://openfoam.org
    \\  /    A nd           | Version:  7
     \\/     M anipulation  |
\*---------------------------------------------------------------------------*/
FoamFile
{
    version     2.0;
    format      ascii;
    class       surfaceScalarField;
    location    "0.62";
    object      phi;
}
// * * * * * * * * * * * * * * * * * * * * * * * * * * * * * * * * * * * * * //

dimensions      [1 0 -1 0 0 0 0];

internalField   nonuniform List<scalar> 
23692
(
1.16334e-05
1.50532e-09
1.16288e-05
4.6403e-09
1.16195e-05
9.33871e-09
1.16049e-05
1.45436e-08
1.1586e-05
1.89115e-08
1.15644e-05
2.15575e-08
1.15421e-05
2.23961e-08
1.15201e-05
2.19442e-08
1.14992e-05
2.09023e-08
1.14794e-05
1.9828e-08
1.14604e-05
1.90171e-08
1.14418e-05
1.85432e-08
1.14235e-05
1.83518e-08
1.14051e-05
1.83477e-08
1.13867e-05
1.84434e-08
1.13681e-05
1.85787e-08
1.13494e-05
1.87192e-08
1.13305e-05
1.88506e-08
1.13116e-05
1.89704e-08
1.12925e-05
1.9081e-08
1.12733e-05
1.91877e-08
1.1254e-05
1.92954e-08
1.12346e-05
1.94088e-08
1.12151e-05
1.95316e-08
1.11954e-05
1.96669e-08
1.11756e-05
1.98168e-08
1.11556e-05
1.99831e-08
1.11354e-05
2.0167e-08
1.1115e-05
2.03694e-08
1.10945e-05
2.05906e-08
1.10736e-05
2.08306e-08
1.10525e-05
2.10898e-08
1.10312e-05
2.13673e-08
1.10095e-05
2.16633e-08
1.09875e-05
2.19774e-08
1.09652e-05
2.23092e-08
1.09426e-05
2.26591e-08
1.09195e-05
2.30271e-08
1.08961e-05
2.34138e-08
1.08723e-05
2.38204e-08
1.08481e-05
2.42478e-08
1.08234e-05
2.4698e-08
1.07982e-05
2.5173e-08
1.07725e-05
2.56758e-08
1.07463e-05
2.62095e-08
1.07195e-05
2.67781e-08
1.06921e-05
2.73862e-08
1.06641e-05
2.80392e-08
1.06353e-05
2.87435e-08
1.06058e-05
2.95066e-08
1.05755e-05
3.03369e-08
1.05443e-05
3.12445e-08
1.0512e-05
3.22413e-08
1.04787e-05
3.33412e-08
1.04441e-05
3.45605e-08
1.04082e-05
3.59186e-08
1.03708e-05
3.74388e-08
1.03316e-05
3.91489e-08
1.02905e-05
4.10825e-08
1.02472e-05
4.32805e-08
1.02014e-05
4.57934e-08
1.01528e-05
4.86836e-08
1.01007e-05
5.2029e-08
1.00448e-05
5.59286e-08
9.9843e-06
6.05087e-08
9.91836e-06
6.59329e-08
9.84595e-06
7.24163e-08
9.7657e-06
8.02453e-08
9.67589e-06
8.98073e-08
9.57426e-06
1.01635e-07
9.45778e-06
1.16474e-07
9.3224e-06
1.35386e-07
9.16249e-06
1.59908e-07
8.97018e-06
1.92308e-07
8.7342e-06
2.35986e-07
8.43809e-06
2.96106e-07
8.05753e-06
3.8056e-07
7.55599e-06
5.01543e-07
6.87672e-06
6.79263e-07
5.92569e-06
9.51036e-07
1.41586e-06
4.50983e-06
1.24484e-05
3.0458e-09
1.24435e-05
9.51833e-09
1.24336e-05
1.92111e-08
1.24182e-05
2.9967e-08
1.23981e-05
3.90132e-08
1.23751e-05
4.45148e-08
1.23513e-05
4.62835e-08
1.23278e-05
4.53803e-08
1.23055e-05
4.3248e-08
1.22843e-05
4.10377e-08
1.22639e-05
3.93642e-08
1.22441e-05
3.83814e-08
1.22245e-05
3.79803e-08
1.22048e-05
3.79653e-08
1.21851e-05
3.81574e-08
1.21653e-05
3.84315e-08
1.21453e-05
3.87182e-08
1.21251e-05
3.89872e-08
1.21049e-05
3.92329e-08
1.20845e-05
3.94607e-08
1.2064e-05
3.96808e-08
1.20434e-05
3.99034e-08
1.20227e-05
4.0138e-08
1.20018e-05
4.03923e-08
1.19808e-05
4.06724e-08
1.19596e-05
4.0983e-08
1.19383e-05
4.13275e-08
1.19167e-05
4.17084e-08
1.1895e-05
4.21274e-08
1.1873e-05
4.25851e-08
1.18507e-05
4.3082e-08
1.18282e-05
4.36176e-08
1.18054e-05
4.41916e-08
1.17822e-05
4.48034e-08
1.17588e-05
4.54522e-08
1.17349e-05
4.61379e-08
1.17107e-05
4.68606e-08
1.16861e-05
4.76207e-08
1.16611e-05
4.84193e-08
1.16357e-05
4.92584e-08
1.16098e-05
5.01407e-08
1.15834e-05
5.10696e-08
1.15566e-05
5.20498e-08
1.15292e-05
5.30869e-08
1.15012e-05
5.41875e-08
1.14726e-05
5.53597e-08
1.14434e-05
5.66132e-08
1.14134e-05
5.79587e-08
1.13828e-05
5.94095e-08
1.13513e-05
6.09806e-08
1.1319e-05
6.26896e-08
1.12856e-05
6.45571e-08
1.12513e-05
6.6607e-08
1.12157e-05
6.88678e-08
1.11789e-05
7.13725e-08
1.11407e-05
7.41608e-08
1.11008e-05
7.72795e-08
1.10592e-05
8.0785e-08
1.10155e-05
8.47451e-08
1.09696e-05
8.92423e-08
1.0921e-05
9.43776e-08
1.08694e-05
1.00276e-07
1.08143e-05
1.07092e-07
1.07553e-05
1.15023e-07
1.06914e-05
1.24317e-07
1.06221e-05
1.35294e-07
1.05461e-05
1.48373e-07
1.04623e-05
1.64105e-07
1.03688e-05
1.83227e-07
1.02637e-05
2.06739e-07
1.01442e-05
2.36018e-07
1.00066e-05
2.72979e-07
9.84619e-06
3.20325e-07
9.6566e-06
3.81899e-07
9.4294e-06
4.63184e-07
9.15357e-06
5.7194e-07
8.8153e-06
7.18827e-07
8.39927e-06
9.17569e-07
7.89434e-06
1.18419e-06
7.31669e-06
1.52869e-06
1.89993e-06
6.83262e-06
1.33204e-05
4.60788e-09
1.33154e-05
1.45777e-08
1.33051e-05
2.95094e-08
1.32889e-05
4.61328e-08
1.32677e-05
6.01736e-08
1.32435e-05
6.87801e-08
1.32181e-05
7.16301e-08
1.31932e-05
7.03338e-08
1.31693e-05
6.71048e-08
1.31466e-05
6.37213e-08
1.31249e-05
6.11396e-08
1.31036e-05
5.96085e-08
1.30826e-05
5.8969e-08
1.30617e-05
5.89251e-08
1.30406e-05
5.92032e-08
1.30195e-05
5.96127e-08
1.29981e-05
6.00453e-08
1.29767e-05
6.04544e-08
1.29551e-05
6.083e-08
1.29333e-05
6.11803e-08
1.29115e-05
6.15201e-08
1.28895e-05
6.18652e-08
1.28674e-05
6.22297e-08
1.28452e-05
6.26254e-08
1.28228e-05
6.3061e-08
1.28003e-05
6.35444e-08
1.27775e-05
6.40803e-08
1.27545e-05
6.46724e-08
1.27314e-05
6.53231e-08
1.27079e-05
6.60339e-08
1.26842e-05
6.68047e-08
1.26602e-05
6.76354e-08
1.26358e-05
6.85252e-08
1.26112e-05
6.94729e-08
1.25861e-05
7.04778e-08
1.25607e-05
7.15394e-08
1.25349e-05
7.26577e-08
1.25087e-05
7.38335e-08
1.24821e-05
7.50686e-08
1.2455e-05
7.63658e-08
1.24274e-05
7.77293e-08
1.23993e-05
7.91646e-08
1.23706e-05
8.06784e-08
1.23415e-05
8.22795e-08
1.23117e-05
8.39782e-08
1.22812e-05
8.57867e-08
1.22501e-05
8.77195e-08
1.22183e-05
8.97936e-08
1.21857e-05
9.20287e-08
1.21522e-05
9.44477e-08
1.21178e-05
9.70775e-08
1.20824e-05
9.99493e-08
1.20459e-05
1.03099e-07
1.20082e-05
1.06571e-07
1.19692e-05
1.10413e-07
1.19287e-05
1.14686e-07
1.18865e-05
1.19461e-07
1.18424e-05
1.2482e-07
1.17963e-05
1.30866e-07
1.17478e-05
1.37722e-07
1.16967e-05
1.45535e-07
1.16425e-05
1.54489e-07
1.15848e-05
1.64812e-07
1.1523e-05
1.76788e-07
1.14565e-05
1.90773e-07
1.13846e-05
2.07223e-07
1.13063e-05
2.26726e-07
1.12203e-05
2.50044e-07
1.11254e-05
2.7818e-07
1.10196e-05
3.12463e-07
1.0901e-05
3.54677e-07
1.07667e-05
4.07223e-07
1.06137e-05
4.73348e-07
1.04382e-05
5.57422e-07
1.02361e-05
6.65234e-07
1.00039e-05
8.0416e-07
9.73994e-06
9.82803e-07
9.44828e-06
1.20923e-06
9.14644e-06
1.48603e-06
8.87945e-06
1.79568e-06
2.06162e-06
8.71775e-06
1.42536e-05
6.17513e-09
1.42484e-05
1.97398e-08
1.42378e-05
4.00867e-08
1.42211e-05
6.28472e-08
1.41991e-05
8.21969e-08
1.41737e-05
9.42036e-08
1.41469e-05
9.83604e-08
1.41205e-05
9.68053e-08
1.4095e-05
9.25324e-08
1.40708e-05
8.79705e-08
1.40475e-05
8.44459e-08
1.40248e-05
8.2322e-08
1.40023e-05
8.14028e-08
1.39799e-05
8.12975e-08
1.39575e-05
8.16394e-08
1.3935e-05
8.21694e-08
1.39123e-05
8.27401e-08
1.38894e-05
8.32863e-08
1.38665e-05
8.37928e-08
1.38434e-05
8.42693e-08
1.38202e-05
8.47347e-08
1.37968e-05
8.52103e-08
1.37733e-05
8.57144e-08
1.37497e-05
8.62619e-08
1.37259e-05
8.68661e-08
1.37019e-05
8.75354e-08
1.36777e-05
8.82771e-08
1.36533e-05
8.9096e-08
1.36286e-05
8.99954e-08
1.36037e-05
9.09765e-08
1.35784e-05
9.20398e-08
1.35529e-05
9.31845e-08
1.3527e-05
9.44096e-08
1.35008e-05
9.57137e-08
1.34741e-05
9.70957e-08
1.34471e-05
9.85548e-08
1.34197e-05
1.00091e-07
1.33918e-05
1.01705e-07
1.33635e-05
1.034e-07
1.33347e-05
1.05179e-07
1.33054e-05
1.07048e-07
1.32755e-05
1.09015e-07
1.32451e-05
1.11089e-07
1.32141e-05
1.1328e-07
1.31825e-05
1.15605e-07
1.31502e-05
1.18078e-07
1.31172e-05
1.20719e-07
1.30834e-05
1.23551e-07
1.30488e-05
1.26602e-07
1.30134e-05
1.299e-07
1.2977e-05
1.33483e-07
1.29395e-05
1.37392e-07
1.2901e-05
1.41675e-07
1.28611e-05
1.46389e-07
1.282e-05
1.51601e-07
1.27773e-05
1.57389e-07
1.27329e-05
1.63845e-07
1.26866e-05
1.7108e-07
1.26382e-05
1.79225e-07
1.25875e-05
1.88438e-07
1.25342e-05
1.98911e-07
1.24778e-05
2.10877e-07
1.2418e-05
2.24624e-07
1.23542e-05
2.40505e-07
1.2286e-05
2.58962e-07
1.22127e-05
2.80549e-07
1.21335e-05
3.05966e-07
1.20474e-05
3.36107e-07
1.19535e-05
3.72117e-07
1.18505e-05
4.1547e-07
1.17371e-05
4.68074e-07
1.16119e-05
5.32385e-07
1.14737e-05
6.11548e-07
1.13216e-05
7.09496e-07
1.11559e-05
8.30957e-07
1.09789e-05
9.8113e-07
1.07971e-05
1.16465e-06
1.06233e-05
1.38305e-06
1.04797e-05
1.6296e-06
1.0396e-05
1.87936e-06
2.07408e-06
1.03836e-05
1.52521e-05
7.725e-09
1.52469e-05
2.49087e-08
1.52362e-05
5.07608e-08
1.52192e-05
7.98626e-08
1.51966e-05
1.04826e-07
1.51702e-05
1.20578e-07
1.51422e-05
1.26353e-07
1.51143e-05
1.24766e-07
1.50872e-05
1.19574e-07
1.50613e-05
1.13871e-07
1.50364e-05
1.09384e-07
1.50121e-05
1.06619e-07
1.49881e-05
1.05366e-07
1.49643e-05
1.05149e-07
1.49404e-05
1.05516e-07
1.49164e-05
1.06139e-07
1.48923e-05
1.06831e-07
1.48681e-05
1.07505e-07
1.48438e-05
1.0814e-07
1.48193e-05
1.08744e-07
1.47947e-05
1.09341e-07
1.47699e-05
1.09955e-07
1.4745e-05
1.10609e-07
1.472e-05
1.11321e-07
1.46947e-05
1.12107e-07
1.46693e-05
1.12977e-07
1.46436e-05
1.13941e-07
1.46177e-05
1.15004e-07
1.45916e-05
1.1617e-07
1.45651e-05
1.1744e-07
1.45383e-05
1.18814e-07
1.45112e-05
1.20293e-07
1.44837e-05
1.21873e-07
1.44559e-05
1.23554e-07
1.44277e-05
1.25333e-07
1.4399e-05
1.2721e-07
1.43699e-05
1.29184e-07
1.43404e-05
1.31258e-07
1.43103e-05
1.33433e-07
1.42798e-05
1.35716e-07
1.42487e-05
1.38112e-07
1.42171e-05
1.40632e-07
1.41849e-05
1.43287e-07
1.41521e-05
1.46091e-07
1.41186e-05
1.49063e-07
1.40845e-05
1.52222e-07
1.40496e-05
1.55593e-07
1.4014e-05
1.59205e-07
1.39775e-05
1.63091e-07
1.39401e-05
1.67289e-07
1.39017e-05
1.71843e-07
1.38623e-05
1.76805e-07
1.38218e-05
1.82234e-07
1.37799e-05
1.88201e-07
1.37368e-05
1.94785e-07
1.36921e-05
2.02083e-07
1.36457e-05
2.10206e-07
1.35975e-05
2.19286e-07
1.35472e-05
2.29481e-07
1.34947e-05
2.40977e-07
1.34396e-05
2.53999e-07
1.33817e-05
2.68818e-07
1.33205e-05
2.85762e-07
1.32558e-05
3.0523e-07
1.31871e-05
3.27713e-07
1.31138e-05
3.53815e-07
1.30355e-05
3.8428e-07
1.29516e-05
4.20034e-07
1.28614e-05
4.62227e-07
1.27646e-05
5.12284e-07
1.26607e-05
5.71965e-07
1.25497e-05
6.43415e-07
1.24321e-05
7.29189e-07
1.23094e-05
8.32199e-07
1.21848e-05
9.555e-07
1.20642e-05
1.10173e-06
1.19569e-05
1.27195e-06
1.18765e-05
1.46348e-06
1.18396e-05
1.66644e-06
1.186e-05
1.85898e-06
2.00371e-06
1.19304e-05
1.63206e-05
9.23133e-09
1.63155e-05
2.99789e-08
1.63049e-05
6.13243e-08
1.62879e-05
9.689e-08
1.6265e-05
1.27751e-07
1.62379e-05
1.47643e-07
1.62088e-05
1.55441e-07
1.61794e-05
1.5415e-07
1.61508e-05
1.48246e-07
1.61231e-05
1.41492e-07
1.60965e-05
1.36043e-07
1.60705e-05
1.32589e-07
1.6045e-05
1.30933e-07
1.60196e-05
1.30539e-07
1.59942e-05
1.30875e-07
1.59688e-05
1.31551e-07
1.59433e-05
1.32336e-07
1.59177e-05
1.33121e-07
1.58919e-05
1.33876e-07
1.58661e-05
1.34608e-07
1.58401e-05
1.3534e-07
1.58139e-05
1.36101e-07
1.57876e-05
1.36916e-07
1.57611e-05
1.37806e-07
1.57345e-05
1.38789e-07
1.57076e-05
1.39878e-07
1.56804e-05
1.41081e-07
1.5653e-05
1.42407e-07
1.56253e-05
1.43858e-07
1.55973e-05
1.45436e-07
1.5569e-05
1.47141e-07
1.55403e-05
1.48972e-07
1.55113e-05
1.50927e-07
1.54818e-05
1.53003e-07
1.54519e-05
1.55198e-07
1.54216e-05
1.57512e-07
1.53909e-05
1.59943e-07
1.53596e-05
1.62494e-07
1.53279e-05
1.65168e-07
1.52957e-05
1.67971e-07
1.52629e-05
1.70911e-07
1.52295e-05
1.74e-07
1.51955e-05
1.77252e-07
1.51609e-05
1.80684e-07
1.51257e-05
1.84316e-07
1.50897e-05
1.88174e-07
1.5053e-05
1.92287e-07
1.50156e-05
1.96688e-07
1.49772e-05
2.01416e-07
1.4938e-05
2.06516e-07
1.48978e-05
2.1204e-07
1.48566e-05
2.18049e-07
1.48142e-05
2.24611e-07
1.47706e-05
2.31808e-07
1.47256e-05
2.39731e-07
1.46792e-05
2.48491e-07
1.46312e-05
2.58214e-07
1.45814e-05
2.69049e-07
1.45298e-05
2.8117e-07
1.44759e-05
2.94783e-07
1.44198e-05
3.10134e-07
1.43611e-05
3.27513e-07
1.42996e-05
3.47266e-07
1.4235e-05
3.69809e-07
1.41671e-05
3.95638e-07
1.40956e-05
4.25353e-07
1.40202e-05
4.5967e-07
1.39408e-05
4.99449e-07
1.38573e-05
5.45719e-07
1.37699e-05
5.99694e-07
1.3679e-05
6.62786e-07
1.35859e-05
7.366e-07
1.34922e-05
8.2287e-07
1.34011e-05
9.23322e-07
1.33172e-05
1.03937e-06
1.32473e-05
1.17159e-06
1.32005e-05
1.31876e-06
1.31875e-05
1.47652e-06
1.32184e-05
1.63553e-06
1.32975e-05
1.77991e-06
1.88746e-06
1.34137e-05
1.74639e-05
1.06667e-08
1.74591e-05
3.48422e-08
1.74488e-05
7.15623e-08
1.74321e-05
1.13623e-07
1.74092e-05
1.50635e-07
1.73817e-05
1.75096e-07
1.73518e-05
1.85412e-07
1.73211e-05
1.84848e-07
1.72908e-05
1.7853e-07
1.72614e-05
1.70874e-07
1.7233e-05
1.64493e-07
1.72052e-05
1.60304e-07
1.7178e-05
1.58168e-07
1.7151e-05
1.57513e-07
1.71242e-05
1.57746e-07
1.70973e-05
1.58418e-07
1.70704e-05
1.59258e-07
1.70434e-05
1.60131e-07
1.70163e-05
1.60994e-07
1.6989e-05
1.6185e-07
1.69616e-05
1.62721e-07
1.69341e-05
1.63637e-07
1.69064e-05
1.64624e-07
1.68785e-05
1.65708e-07
1.68504e-05
1.66905e-07
1.6822e-05
1.68229e-07
1.67934e-05
1.69692e-07
1.67645e-05
1.71299e-07
1.67353e-05
1.73055e-07
1.67058e-05
1.74961e-07
1.66759e-05
1.77016e-07
1.66457e-05
1.79219e-07
1.6615e-05
1.81566e-07
1.6584e-05
1.84055e-07
1.65525e-05
1.86683e-07
1.65206e-05
1.89448e-07
1.64881e-05
1.92351e-07
1.64552e-05
1.95393e-07
1.64218e-05
1.98578e-07
1.63879e-05
2.01913e-07
1.63534e-05
2.05408e-07
1.63183e-05
2.09075e-07
1.62826e-05
2.12931e-07
1.62463e-05
2.16995e-07
1.62094e-05
2.21292e-07
1.61717e-05
2.25849e-07
1.61333e-05
2.307e-07
1.60941e-05
2.35883e-07
1.6054e-05
2.41441e-07
1.60131e-05
2.47426e-07
1.59713e-05
2.53895e-07
1.59284e-05
2.60916e-07
1.58845e-05
2.68566e-07
1.58393e-05
2.76932e-07
1.57929e-05
2.86117e-07
1.57452e-05
2.96238e-07
1.5696e-05
3.07432e-07
1.56452e-05
3.19855e-07
1.55927e-05
3.33693e-07
1.55383e-05
3.49156e-07
1.54819e-05
3.66495e-07
1.54234e-05
3.86001e-07
1.53627e-05
4.08012e-07
1.52996e-05
4.32926e-07
1.5234e-05
4.61207e-07
1.5166e-05
4.93394e-07
1.50955e-05
5.30112e-07
1.50229e-05
5.72078e-07
1.49485e-05
6.20104e-07
1.48731e-05
6.75095e-07
1.47979e-05
7.38019e-07
1.47246e-05
8.09868e-07
1.46559e-05
8.91556e-07
1.45955e-05
9.83764e-07
1.45482e-05
1.08667e-06
1.45202e-05
1.19953e-06
1.45188e-05
1.32014e-06
1.45513e-05
1.44407e-06
1.46228e-05
1.56399e-06
1.47333e-05
1.66945e-06
1.74783e-06
1.48729e-05
1.86874e-05
1.20088e-08
1.86828e-05
3.94044e-08
1.86731e-05
8.12784e-08
1.86569e-05
1.29771e-07
1.86344e-05
1.73138e-07
1.86069e-05
2.02622e-07
1.85763e-05
2.16019e-07
1.85445e-05
2.16711e-07
1.85126e-05
2.10361e-07
1.84815e-05
2.02013e-07
1.84512e-05
1.94764e-07
1.84217e-05
1.89808e-07
1.83928e-05
1.87109e-07
1.83642e-05
1.861e-07
1.83358e-05
1.86144e-07
1.83075e-05
1.86745e-07
1.82791e-05
1.8759e-07
1.82507e-05
1.8852e-07
1.82223e-05
1.89474e-07
1.81937e-05
1.90446e-07
1.81649e-05
1.91458e-07
1.8136e-05
1.92537e-07
1.81069e-05
1.93711e-07
1.80776e-05
1.95002e-07
1.80481e-05
1.96431e-07
1.80183e-05
1.98011e-07
1.79883e-05
1.99752e-07
1.79579e-05
2.01662e-07
1.79272e-05
2.03743e-07
1.78962e-05
2.05996e-07
1.78648e-05
2.08419e-07
1.7833e-05
2.1101e-07
1.78008e-05
2.13766e-07
1.77682e-05
2.16682e-07
1.77351e-05
2.19755e-07
1.77016e-05
2.22984e-07
1.76675e-05
2.26368e-07
1.7633e-05
2.29909e-07
1.7598e-05
2.33611e-07
1.75624e-05
2.37483e-07
1.75263e-05
2.41533e-07
1.74896e-05
2.45778e-07
1.74523e-05
2.50235e-07
1.74144e-05
2.54925e-07
1.73758e-05
2.59876e-07
1.73365e-05
2.65117e-07
1.72965e-05
2.70686e-07
1.72558e-05
2.76624e-07
1.72142e-05
2.82978e-07
1.71719e-05
2.89803e-07
1.71286e-05
2.97163e-07
1.70844e-05
3.05127e-07
1.70392e-05
3.13778e-07
1.69929e-05
3.23208e-07
1.69455e-05
3.33523e-07
1.68969e-05
3.44844e-07
1.6847e-05
3.57309e-07
1.67958e-05
3.71076e-07
1.67431e-05
3.86326e-07
1.6689e-05
4.03266e-07
1.66334e-05
4.22133e-07
1.65762e-05
4.43196e-07
1.65174e-05
4.66763e-07
1.64572e-05
4.93183e-07
1.63955e-05
5.2285e-07
1.63327e-05
5.56204e-07
1.62691e-05
5.93731e-07
1.62052e-05
6.35955e-07
1.61419e-05
6.83431e-07
1.60803e-05
7.36719e-07
1.6022e-05
7.96346e-07
1.59691e-05
8.62747e-07
1.59245e-05
9.36169e-07
1.58917e-05
1.01654e-06
1.58751e-05
1.10328e-06
1.58796e-05
1.19505e-06
1.59102e-05
1.28948e-06
1.59714e-05
1.38285e-06
1.60654e-05
1.46999e-06
1.61905e-05
1.54439e-06
1.59907e-06
1.63393e-05
1.99965e-05
1.32432e-08
1.99923e-05
4.35969e-08
1.99833e-05
9.03198e-08
1.9968e-05
1.45089e-07
1.99462e-05
1.9496e-07
1.99189e-05
2.29911e-07
1.98879e-05
2.47e-07
1.98551e-05
2.49543e-07
1.98218e-05
2.43621e-07
1.9789e-05
2.34854e-07
1.97569e-05
2.26841e-07
1.97256e-05
2.21104e-07
1.96949e-05
2.17766e-07
1.96647e-05
2.16305e-07
1.96348e-05
2.16067e-07
1.9605e-05
2.1652e-07
1.95753e-05
2.17314e-07
1.95456e-05
2.18262e-07
1.95158e-05
2.19286e-07
1.94858e-05
2.20367e-07
1.94558e-05
2.2152e-07
1.94255e-05
2.22769e-07
1.93951e-05
2.24141e-07
1.93645e-05
2.25657e-07
1.93335e-05
2.27335e-07
1.93024e-05
2.2919e-07
1.92709e-05
2.3123e-07
1.92391e-05
2.33462e-07
1.92069e-05
2.35886e-07
1.91744e-05
2.38504e-07
1.91415e-05
2.41312e-07
1.91082e-05
2.44307e-07
1.90745e-05
2.47483e-07
1.90404e-05
2.50837e-07
1.90058e-05
2.54364e-07
1.89707e-05
2.58062e-07
1.89351e-05
2.6193e-07
1.88991e-05
2.6597e-07
1.88625e-05
2.70187e-07
1.88254e-05
2.74589e-07
1.87877e-05
2.79188e-07
1.87495e-05
2.83997e-07
1.87107e-05
2.89038e-07
1.86713e-05
2.94333e-07
1.86313e-05
2.99909e-07
1.85906e-05
3.05801e-07
1.85492e-05
3.12046e-07
1.85072e-05
3.18687e-07
1.84644e-05
3.25775e-07
1.84208e-05
3.33366e-07
1.83764e-05
3.41525e-07
1.83312e-05
3.50324e-07
1.82852e-05
3.59845e-07
1.82382e-05
3.70181e-07
1.81903e-05
3.81437e-07
1.81414e-05
3.9373e-07
1.80915e-05
4.07193e-07
1.80406e-05
4.21975e-07
1.79887e-05
4.38242e-07
1.79358e-05
4.56183e-07
1.78819e-05
4.76004e-07
1.78272e-05
4.97939e-07
1.77717e-05
5.2224e-07
1.77157e-05
5.49186e-07
1.76595e-05
5.79076e-07
1.76034e-05
6.12224e-07
1.75482e-05
6.48956e-07
1.74946e-05
6.89592e-07
1.74436e-05
7.34428e-07
1.73966e-05
7.83711e-07
1.73553e-05
8.37595e-07
1.7322e-05
8.96089e-07
1.72992e-05
9.58987e-07
1.72899e-05
1.02578e-06
1.72977e-05
1.09553e-06
1.73259e-05
1.1668e-06
1.73779e-05
1.23748e-06
1.7456e-05
1.30479e-06
1.75607e-05
1.36528e-06
1.769e-05
1.41506e-06
1.45033e-06
1.78388e-05
2.13974e-05
1.43687e-08
2.13936e-05
4.73892e-08
2.13853e-05
9.85992e-08
2.1371e-05
1.59417e-07
2.13501e-05
2.15871e-07
2.13233e-05
2.567e-07
2.12922e-05
2.78093e-07
2.12586e-05
2.83121e-07
2.12241e-05
2.78138e-07
2.11897e-05
2.69278e-07
2.11559e-05
2.60649e-07
2.11228e-05
2.54147e-07
2.10905e-05
2.50111e-07
2.10587e-05
2.48106e-07
2.10273e-05
2.47493e-07
2.09961e-05
2.47718e-07
2.0965e-05
2.48402e-07
2.09339e-05
2.49328e-07
2.09028e-05
2.50395e-07
2.08716e-05
2.51574e-07
2.08402e-05
2.52867e-07
2.08087e-05
2.54293e-07
2.0777e-05
2.55874e-07
2.0745e-05
2.5763e-07
2.07128e-05
2.59576e-07
2.06802e-05
2.61724e-07
2.06474e-05
2.64082e-07
2.06142e-05
2.66654e-07
2.05806e-05
2.69439e-07
2.05467e-05
2.72436e-07
2.05124e-05
2.75641e-07
2.04776e-05
2.7905e-07
2.04425e-05
2.82654e-07
2.04069e-05
2.8645e-07
2.03708e-05
2.90432e-07
2.03342e-05
2.94597e-07
2.02972e-05
2.98945e-07
2.02597e-05
3.03476e-07
2.02217e-05
3.08195e-07
2.01832e-05
3.1311e-07
2.01442e-05
3.18234e-07
2.01046e-05
3.23581e-07
2.00644e-05
3.29172e-07
2.00237e-05
3.35031e-07
1.99825e-05
3.41186e-07
1.99406e-05
3.47671e-07
1.98981e-05
3.54524e-07
1.9855e-05
3.6179e-07
1.98113e-05
3.69518e-07
1.97669e-05
3.77764e-07
1.97218e-05
3.86592e-07
1.9676e-05
3.96073e-07
1.96296e-05
4.06284e-07
1.95825e-05
4.17314e-07
1.95346e-05
4.29261e-07
1.94861e-05
4.42231e-07
1.9437e-05
4.56345e-07
1.93872e-05
4.71733e-07
1.93369e-05
4.88538e-07
1.92862e-05
5.06915e-07
1.92352e-05
5.27033e-07
1.9184e-05
5.49069e-07
1.91331e-05
5.73211e-07
1.90826e-05
5.99652e-07
1.90331e-05
6.28584e-07
1.89851e-05
6.60193e-07
1.89394e-05
6.94644e-07
1.8897e-05
7.3207e-07
1.88588e-05
7.72548e-07
1.88265e-05
8.16076e-07
1.88015e-05
8.6254e-07
1.87859e-05
9.11679e-07
1.87819e-05
9.63034e-07
1.87918e-05
1.01591e-06
1.8818e-05
1.06932e-06
1.88628e-05
1.12197e-06
1.89281e-05
1.17219e-06
1.90149e-05
1.21802e-06
1.91229e-05
1.25728e-06
1.92502e-05
1.2877e-06
1.30725e-06
1.93933e-05
2.28964e-05
1.53961e-08
2.28929e-05
5.07931e-08
2.28854e-05
1.06106e-07
2.28722e-05
1.72692e-07
2.28523e-05
2.35741e-07
2.28262e-05
2.82792e-07
2.27952e-05
3.09061e-07
2.27612e-05
3.17203e-07
2.27256e-05
3.13694e-07
2.26898e-05
3.05107e-07
2.26544e-05
2.96054e-07
2.26197e-05
2.88841e-07
2.25857e-05
2.84073e-07
2.25524e-05
2.81451e-07
2.25195e-05
2.8038e-07
2.24869e-05
2.80302e-07
2.24545e-05
2.80816e-07
2.24221e-05
2.81677e-07
2.23898e-05
2.82764e-07
2.23573e-05
2.84027e-07
2.23247e-05
2.85458e-07
2.2292e-05
2.87066e-07
2.2259e-05
2.88867e-07
2.22257e-05
2.90876e-07
2.21922e-05
2.93105e-07
2.21583e-05
2.95563e-07
2.21242e-05
2.98254e-07
2.20896e-05
3.01181e-07
2.20547e-05
3.04339e-07
2.20195e-05
3.07727e-07
2.19838e-05
3.11337e-07
2.19476e-05
3.15163e-07
2.19111e-05
3.19197e-07
2.18741e-05
3.23432e-07
2.18367e-05
3.27862e-07
2.17988e-05
3.32483e-07
2.17605e-05
3.37294e-07
2.17216e-05
3.42294e-07
2.16823e-05
3.4749e-07
2.16426e-05
3.52887e-07
2.16023e-05
3.58499e-07
2.15615e-05
3.64339e-07
2.15203e-05
3.70428e-07
2.14785e-05
3.7679e-07
2.14363e-05
3.83452e-07
2.13935e-05
3.90447e-07
2.13502e-05
3.97813e-07
2.13064e-05
4.05592e-07
2.12621e-05
4.13831e-07
2.12173e-05
4.22583e-07
2.11719e-05
4.31908e-07
2.11261e-05
4.4187e-07
2.10799e-05
4.5254e-07
2.10332e-05
4.63996e-07
2.09861e-05
4.76323e-07
2.09388e-05
4.89614e-07
2.08911e-05
5.03966e-07
2.08434e-05
5.19484e-07
2.07956e-05
5.3628e-07
2.07481e-05
5.54469e-07
2.0701e-05
5.74169e-07
2.06545e-05
5.95499e-07
2.06092e-05
6.18574e-07
2.05653e-05
6.43498e-07
2.05235e-05
6.70363e-07
2.04845e-05
6.99233e-07
2.0449e-05
7.30139e-07
2.0418e-05
7.63061e-07
2.03926e-05
7.97915e-07
2.03742e-05
8.34533e-07
2.03641e-05
8.72641e-07
2.03639e-05
9.11842e-07
2.03754e-05
9.51591e-07
2.04001e-05
9.9118e-07
2.04397e-05
1.02973e-06
2.04955e-05
1.06618e-06
2.05683e-05
1.09934e-06
2.06585e-05
1.12788e-06
2.07653e-05
1.15046e-06
2.08872e-05
1.1658e-06
1.17285e-06
2.10216e-05
2.45003e-05
1.63486e-08
2.44972e-05
5.38583e-08
2.44904e-05
1.12904e-07
2.44782e-05
1.84951e-07
2.44594e-05
2.54538e-07
2.44341e-05
3.08068e-07
2.44034e-05
3.39709e-07
2.43691e-05
3.51548e-07
2.43327e-05
3.50043e-07
2.42957e-05
3.42117e-07
2.42589e-05
3.32867e-07
2.42227e-05
3.25039e-07
2.41873e-05
3.19543e-07
2.41524e-05
3.16257e-07
2.41182e-05
3.14664e-07
2.40842e-05
3.1422e-07
2.40506e-05
3.1451e-07
2.4017e-05
3.15269e-07
2.39834e-05
3.16349e-07
2.39497e-05
3.17684e-07
2.39159e-05
3.19248e-07
2.3882e-05
3.21041e-07
2.38478e-05
3.2307e-07
2.38133e-05
3.25343e-07
2.37785e-05
3.27868e-07
2.37434e-05
3.30648e-07
2.3708e-05
3.33684e-07
2.36722e-05
3.36974e-07
2.3636e-05
3.40514e-07
2.35995e-05
3.44295e-07
2.35625e-05
3.48311e-07
2.35251e-05
3.5255e-07
2.34873e-05
3.57005e-07
2.34491e-05
3.61667e-07
2.34104e-05
3.66527e-07
2.33713e-05
3.71582e-07
2.33318e-05
3.76827e-07
2.32918e-05
3.82263e-07
2.32514e-05
3.87894e-07
2.32106e-05
3.93725e-07
2.31693e-05
3.99768e-07
2.31276e-05
4.06037e-07
2.30855e-05
4.1255e-07
2.30429e-05
4.1933e-07
2.3e-05
4.26401e-07
2.29566e-05
4.33795e-07
2.29129e-05
4.41546e-07
2.28688e-05
4.49692e-07
2.28243e-05
4.58276e-07
2.27796e-05
4.67345e-07
2.27345e-05
4.7695e-07
2.26893e-05
4.87147e-07
2.26438e-05
4.97996e-07
2.25982e-05
5.09559e-07
2.25527e-05
5.21906e-07
2.25072e-05
5.35106e-07
2.24619e-05
5.49231e-07
2.2417e-05
5.64357e-07
2.23727e-05
5.80558e-07
2.23293e-05
5.97904e-07
2.2287e-05
6.16462e-07
2.22462e-05
6.36291e-07
2.22074e-05
6.57435e-07
2.21709e-05
6.79921e-07
2.21376e-05
7.0375e-07
2.21079e-05
7.28893e-07
2.20828e-05
7.55277e-07
2.2063e-05
7.82778e-07
2.20497e-05
8.11212e-07
2.2044e-05
8.40321e-07
2.20468e-05
8.69765e-07
2.20596e-05
8.99115e-07
2.20833e-05
9.27844e-07
2.21191e-05
9.55331e-07
2.2168e-05
9.80866e-07
2.22305e-05
1.00366e-06
2.2307e-05
1.0229e-06
2.23971e-05
1.03772e-06
2.25002e-05
1.04735e-06
2.26149e-05
1.05109e-06
1.0484e-06
2.27394e-05
2.62165e-05
1.72549e-08
2.62137e-05
5.66615e-08
2.62075e-05
1.19107e-07
2.61961e-05
1.96313e-07
2.61784e-05
2.72324e-07
2.61539e-05
3.32494e-07
2.61237e-05
3.69899e-07
2.60894e-05
3.8594e-07
2.60525e-05
3.86927e-07
2.60145e-05
3.80053e-07
2.59765e-05
3.70865e-07
2.5939e-05
3.62555e-07
2.59022e-05
3.56376e-07
2.5866e-05
3.52415e-07
2.58304e-05
3.5026e-07
2.57953e-05
3.49404e-07
2.57603e-05
3.4943e-07
2.57255e-05
3.50053e-07
2.56908e-05
3.51105e-07
2.5656e-05
3.52497e-07
2.5621e-05
3.5419e-07
2.55859e-05
3.56169e-07
2.55506e-05
3.5843e-07
2.55149e-05
3.60973e-07
2.5479e-05
3.638e-07
2.54427e-05
3.66909e-07
2.54061e-05
3.70295e-07
2.53691e-05
3.73951e-07
2.53318e-05
3.77871e-07
2.5294e-05
3.82042e-07
2.52559e-05
3.86453e-07
2.52173e-05
3.91093e-07
2.51784e-05
3.9595e-07
2.51391e-05
4.01014e-07
2.50993e-05
4.06275e-07
2.50592e-05
4.11725e-07
2.50186e-05
4.17362e-07
2.49777e-05
4.23183e-07
2.49364e-05
4.2919e-07
2.48947e-05
4.35389e-07
2.48527e-05
4.41787e-07
2.48104e-05
4.48398e-07
2.47677e-05
4.55236e-07
2.47247e-05
4.62321e-07
2.46814e-05
4.69677e-07
2.46379e-05
4.77327e-07
2.45941e-05
4.85303e-07
2.45502e-05
4.93636e-07
2.45061e-05
5.02362e-07
2.44619e-05
5.11519e-07
2.44177e-05
5.21148e-07
2.43736e-05
5.31292e-07
2.43296e-05
5.41996e-07
2.42858e-05
5.53306e-07
2.42425e-05
5.65269e-07
2.41996e-05
5.77931e-07
2.41575e-05
5.91336e-07
2.41164e-05
6.05525e-07
2.40764e-05
6.20535e-07
2.40379e-05
6.36394e-07
2.40012e-05
6.53119e-07
2.39668e-05
6.70713e-07
2.39351e-05
6.89164e-07
2.39066e-05
7.08433e-07
2.38819e-05
7.28457e-07
2.38616e-05
7.49137e-07
2.38466e-05
7.70338e-07
2.38375e-05
7.91878e-07
2.38351e-05
8.13526e-07
2.38405e-05
8.35e-07
2.38543e-05
8.55958e-07
2.38774e-05
8.76004e-07
2.39105e-05
8.94689e-07
2.39543e-05
9.11518e-07
2.40093e-05
9.25962e-07
2.40754e-05
9.37477e-07
2.41528e-05
9.45523e-07
2.42409e-05
9.49592e-07
2.43391e-05
9.4924e-07
2.4446e-05
9.44111e-07
9.33964e-07
2.45605e-05
2.80529e-05
1.81437e-08
2.80503e-05
5.92898e-08
2.80445e-05
1.24865e-07
2.80339e-05
2.06945e-07
2.8017e-05
2.89227e-07
2.79934e-05
3.56101e-07
2.79638e-05
3.99548e-07
2.79295e-05
4.20196e-07
2.78923e-05
4.24107e-07
2.78537e-05
4.18655e-07
2.78148e-05
4.09802e-07
2.77762e-05
4.0118e-07
2.77381e-05
3.94401e-07
2.77008e-05
3.8979e-07
2.7664e-05
3.87064e-07
2.76276e-05
3.85772e-07
2.75915e-05
3.85505e-07
2.75556e-05
3.85969e-07
2.75197e-05
3.86974e-07
2.74838e-05
3.88413e-07
2.74478e-05
3.90228e-07
2.74116e-05
3.92389e-07
2.73751e-05
3.94882e-07
2.73384e-05
3.97697e-07
2.73014e-05
4.00827e-07
2.7264e-05
4.04262e-07
2.72263e-05
4.07995e-07
2.71882e-05
4.12011e-07
2.71498e-05
4.16299e-07
2.7111e-05
4.20844e-07
2.70718e-05
4.25632e-07
2.70323e-05
4.30646e-07
2.69924e-05
4.35873e-07
2.69521e-05
4.41301e-07
2.69114e-05
4.46916e-07
2.68704e-05
4.52711e-07
2.68291e-05
4.58679e-07
2.67875e-05
4.64817e-07
2.67456e-05
4.71123e-07
2.67033e-05
4.776e-07
2.66609e-05
4.84255e-07
2.66182e-05
4.91097e-07
2.65753e-05
4.98136e-07
2.65322e-05
5.05389e-07
2.6489e-05
5.12873e-07
2.64457e-05
5.20608e-07
2.64024e-05
5.28616e-07
2.63591e-05
5.36922e-07
2.63159e-05
5.45553e-07
2.62729e-05
5.54534e-07
2.62302e-05
5.63895e-07
2.61878e-05
5.73664e-07
2.61459e-05
5.83868e-07
2.61047e-05
5.94535e-07
2.60643e-05
6.05689e-07
2.60249e-05
6.1735e-07
2.59867e-05
6.29534e-07
2.59499e-05
6.42251e-07
2.5915e-05
6.55501e-07
2.58821e-05
6.69275e-07
2.58517e-05
6.83549e-07
2.58241e-05
6.98284e-07
2.57998e-05
7.1342e-07
2.57794e-05
7.28877e-07
2.57633e-05
7.44549e-07
2.57521e-05
7.603e-07
2.57465e-05
7.75964e-07
2.5747e-05
7.91343e-07
2.57544e-05
8.06201e-07
2.57691e-05
8.20273e-07
2.57918e-05
8.33257e-07
2.5823e-05
8.44824e-07
2.5863e-05
8.54626e-07
2.59122e-05
8.62298e-07
2.59707e-05
8.67473e-07
2.60384e-05
8.69799e-07
2.6115e-05
8.68948e-07
2.61999e-05
8.64635e-07
2.62926e-05
8.56632e-07
2.63919e-05
8.44779e-07
8.28993e-07
2.64969e-05
3.0018e-05
1.90416e-08
3.00154e-05
6.18273e-08
3.001e-05
1.30324e-07
2.99999e-05
2.17031e-07
2.99837e-05
3.05407e-07
2.99608e-05
3.7897e-07
2.99317e-05
4.28622e-07
2.98978e-05
4.54177e-07
2.98605e-05
4.61366e-07
2.98215e-05
4.57675e-07
2.97819e-05
4.4943e-07
2.97424e-05
4.40689e-07
2.97033e-05
4.33427e-07
2.96649e-05
4.28225e-07
2.9627e-05
4.2495e-07
2.95896e-05
4.2322e-07
2.95524e-05
4.2265e-07
2.95154e-05
4.2294e-07
2.94785e-05
4.23886e-07
2.94416e-05
4.25361e-07
2.94045e-05
4.27289e-07
2.93673e-05
4.29627e-07
2.93298e-05
4.32346e-07
2.92921e-05
4.35427e-07
2.92541e-05
4.38851e-07
2.92157e-05
4.42605e-07
2.91771e-05
4.46669e-07
2.9138e-05
4.51028e-07
2.90987e-05
4.55662e-07
2.9059e-05
4.60553e-07
2.90189e-05
4.65683e-07
2.89785e-05
4.71032e-07
2.89378e-05
4.76583e-07
2.88968e-05
4.8232e-07
2.88555e-05
4.88229e-07
2.88139e-05
4.94299e-07
2.87721e-05
5.00519e-07
2.873e-05
5.06885e-07
2.86877e-05
5.13391e-07
2.86453e-05
5.20038e-07
2.86027e-05
5.26827e-07
2.856e-05
5.33764e-07
2.85173e-05
5.40855e-07
2.84746e-05
5.4811e-07
2.84319e-05
5.55539e-07
2.83894e-05
5.63157e-07
2.8347e-05
5.70976e-07
2.83049e-05
5.79012e-07
2.82632e-05
5.8728e-07
2.82219e-05
5.95795e-07
2.81813e-05
6.04571e-07
2.81413e-05
6.1362e-07
2.81022e-05
6.22952e-07
2.80642e-05
6.32575e-07
2.80274e-05
6.42491e-07
2.7992e-05
6.52697e-07
2.79584e-05
6.63183e-07
2.79267e-05
6.7393e-07
2.78973e-05
6.84911e-07
2.78705e-05
6.96086e-07
2.78466e-05
7.074e-07
2.78261e-05
7.18784e-07
2.78094e-05
7.30152e-07
2.77969e-05
7.414e-07
2.7789e-05
7.52401e-07
2.77863e-05
7.6301e-07
2.77892e-05
7.73057e-07
2.77982e-05
7.82355e-07
2.78137e-05
7.90693e-07
2.78361e-05
7.97845e-07
2.78658e-05
8.0357e-07
2.7903e-05
8.0762e-07
2.79479e-05
8.09742e-07
2.80005e-05
8.09689e-07
2.80608e-05
8.07228e-07
2.81284e-05
8.02148e-07
2.82031e-05
7.94269e-07
2.82843e-05
7.83451e-07
2.83713e-05
7.69599e-07
2.84634e-05
7.52666e-07
7.32647e-07
2.85598e-05
3.21206e-05
1.9967e-08
3.21181e-05
6.43445e-08
3.21128e-05
1.3562e-07
3.21031e-05
2.26748e-07
3.20874e-05
3.21032e-07
3.20652e-05
4.01201e-07
3.20367e-05
4.57122e-07
3.20031e-05
4.87781e-07
3.1966e-05
4.98524e-07
3.19267e-05
4.96887e-07
3.18867e-05
4.8951e-07
3.18465e-05
4.80854e-07
3.18067e-05
4.73251e-07
3.17674e-05
4.67547e-07
3.17285e-05
4.63769e-07
3.16901e-05
4.61623e-07
3.1652e-05
4.60755e-07
3.16141e-05