/*--------------------------------*- C++ -*----------------------------------*\
  =========                 |
  \\      /  F ield         | OpenFOAM: The Open Source CFD Toolbox
   \\    /   O peration     | Website:  https://openfoam.org
    \\  /    A nd           | Version:  7
     \\/     M anipulation  |
\*---------------------------------------------------------------------------*/
FoamFile
{
    version     2.0;
    format      ascii;
    class       volScalarField;
    location    "4.1";
    object      p;
}
// * * * * * * * * * * * * * * * * * * * * * * * * * * * * * * * * * * * * * //

dimensions      [0 2 -2 0 0 0 0];

internalField   nonuniform List<scalar> 
2790
(
147.194
147.101
147.368
147.939
148.719
149.677
150.809
152.116
153.592
155.233
157.032
158.983
161.077
163.302
165.642
168.078
170.582
173.121
175.653
178.127
180.486
182.663
184.594
186.214
187.474
188.348
188.785
188.84
188.891
189.104
146.991
147.009
147.301
147.869
148.645
149.599
150.727
152.028
153.497
155.13
156.92
158.86
160.943
163.157
165.486
167.912
170.408
172.941
175.471
177.949
180.318
182.513
184.468
186.116
187.401
188.275
188.672
188.727
188.859
189.144
146.792
146.88
147.191
147.749
148.512
149.454
150.566
151.849
153.297
154.905
156.667
158.576
160.624
162.799
165.088
167.47
169.922
172.412
174.904
177.352
179.702
181.894
183.867
185.557
186.908
187.883
188.477
188.832
189.147
189.446
146.567
146.686
147.009
147.559
148.307
149.232
150.326
151.584
153.003
154.577
156.301
158.166
160.165
162.285
164.514
166.831
169.216
171.639
174.066
176.457
178.764
180.936
182.917
184.657
186.112
187.264
188.132
188.803
189.356
189.875
146.306
146.439
146.771
147.313
148.045
148.949
150.016
151.243
152.625
154.157
155.831
157.64
159.576
161.626
163.778
166.014
168.312
170.647
172.988
175.301
177.547
179.682
181.664
183.455
185.025
186.368
187.498
188.461
189.272
190.018
146.006
146.144
146.478
147.01
147.722
148.6
149.636
150.825
152.163
153.642
155.257
157
158.861
160.829
162.89
165.028
167.223
169.452
171.689
173.904
176.067
178.144
180.106
181.927
183.59
185.092
186.438
187.644
188.664
189.582
145.663
145.802
146.134
146.652
147.342
148.189
149.189
150.334
151.62
153.04
154.587
156.252
158.027
159.9
161.857
163.883
165.959
168.065
170.177
172.273
174.328
176.32
178.227
180.038
181.743
183.344
184.838
186.217
187.382
188.429
145.278
145.415
145.74
146.242
146.906
147.719
148.677
149.772
151
152.353
153.823
155.403
157.081
158.847
160.687
162.587
164.528
166.492
168.459
170.411
172.329
174.196
176.003
177.745
179.424
181.043
182.598
184.07
185.32
186.471
144.852
144.985
145.299
145.782
146.416
147.192
148.104
149.144
150.308
151.587
152.973
154.457
156.029
157.678
159.388
161.147
162.936
164.74
166.539
168.318
170.061
171.759
173.407
175.007
176.569
178.104
179.612
181.083
182.354
183.592
144.386
144.514
144.814
145.275
145.877
146.612
147.473
148.454
149.547
150.746
152.041
153.422
154.879
156.399
157.969
159.573
161.194
162.816
164.422
165.996
167.524
168.998
170.416
171.784
173.117
174.435
175.756
177.093
178.294
179.598
143.88
144.002
144.287
144.723
145.291
145.981
146.788
147.705
148.724
149.837
151.034
152.305
153.639
155.021
156.439
157.875
159.312
160.733
162.12
163.454
164.722
165.912
167.019
168.047
169.011
169.939
170.869
171.868
172.83
174.149
143.338
143.453
143.721
144.129
144.66
145.304
146.054
146.903
147.843
148.865
149.959
151.114
152.317
153.554
154.809
156.066
157.304
158.505
159.647
160.709
161.67
162.513
163.221
163.786
164.212
164.522
164.764
165.072
165.454
166.627
142.761
142.868
143.118
143.497
143.989
144.583
145.273
146.051
146.909
147.837
148.823
149.857
150.923
152.008
153.093
154.159
155.186
156.15
157.025
157.784
158.397
158.831
159.053
159.028
158.724
158.126
157.251
156.258
155.31
155.815
142.152
142.25
142.481
142.83
143.281
143.824
144.452
145.156
145.929
146.759
147.634
148.542
149.468
150.395
151.303
152.172
152.978
153.692
154.283
154.715
154.945
154.921
154.583
153.85
152.627
150.797
148.234
144.931
140.981
138.945
141.513
141.603
141.812
142.13
142.539
143.029
143.593
144.223
144.908
145.638
146.4
147.18
147.961
148.727
149.455
150.121
150.699
151.155
151.452
151.542
151.369
150.858
149.913
148.398
146.118
142.786
137.942
130.924
120.459
108.232
1.54221
1.52178
1.44929
1.34804
1.24088
1.13853
1.04422
0.958293
0.88009
0.8085
0.742204
0.679901
0.620482
0.563137
0.507423
0.453282
0.401005
0.351108
0.304136
0.260495
0.220402
0.184083
0.151994
0.124925
0.102533
0.0835802
0.0662778
0.049072
0.0309672
0.0111751
1.48902
1.46519
1.3971
1.3041
1.2056
1.11074
1.02254
0.941499
0.867154
0.798554
0.734529
0.673905
0.615672
0.559099
0.503821
0.449873
0.397658
0.347797
0.300895
0.257323
0.21727
0.181072
0.149428
0.12278
0.100997
0.0828242
0.0662221
0.0495715
0.0319817
0.0134302
1.43279
1.40393
1.33843
1.25297
1.16351
1.07687
0.995553
0.920166
0.850371
0.785358
0.724103
0.665563
0.608832
0.553269
0.498599
0.444965
0.392907
0.343195
0.296533
0.253284
0.213516
0.177501
0.146088
0.120108
0.0993751
0.0818385
0.0657839
0.0494257
0.0320844
0.0124058
1.38166
1.34788
1.284
1.20472
1.12327
1.04404
0.969084
0.898981
0.833498
0.771937
0.713395
0.65694
0.601763
0.547307
0.493376
0.440201
0.388425
0.33894
0.29257
0.249713
0.210282
0.174284
0.142565
0.116545
0.0965702
0.0803662
0.0655809
0.0502466
0.0335085
0.0123351
1.35095
1.31245
1.25031
1.17526
1.09921
1.02476
0.953797
0.886942
0.824057
0.764545
0.707593
0.65235
0.598087
0.544326
0.490936
0.438195
0.386766
0.337549
0.291405
0.248848
0.210037
0.175212
0.144836
0.119526
0.0989573
0.0810445
0.0642373
0.0480012
0.0313684
0.0114042
1.35313
1.30879
1.2477
1.17346
1.09853
1.02458
0.953916
0.887173
0.824308
0.764772
0.707781
0.652519
0.598298
0.544686
0.491583
0.439258
0.388308
0.339511
0.293613
0.25115
0.212422
0.177827
0.147925
0.12284
0.101862
0.0832993
0.0659669
0.0489045
0.0306186
0.00996278
1.39664
1.34465
1.27907
1.20048
1.12047
1.04213
0.967686
0.897799
0.832342
0.770704
0.712067
0.655614
0.600659
0.546749
0.493736
0.441822
0.391501
0.343407
0.298127
0.256085
0.217595
0.183043
0.152824
0.126646
0.103865
0.0839302
0.0653348
0.0470464
0.0279721
0.00898275
1.48329
1.41879
1.33987
1.24847
1.15713
1.06965
0.987947
0.912356
0.842513
0.777598
0.716595
0.658564
0.602739
0.548533
0.495651
0.444203
0.394602
0.347388
0.303014
0.26175
0.223782
0.189306
0.158427
0.131089
0.106986
0.0855036
0.0652464
0.0449776
0.0247285
0.0076483
1.60348
1.51578
1.41365
1.30152
1.19405
1.09506
1.00519
0.923594
0.849165
0.781048
0.717953
0.658738
0.602499
0.548424
0.495985
0.445226
0.396557
0.350526
0.307492
0.267462
0.23024
0.195648
0.163805
0.135098
0.109508
0.0864651
0.0645346
0.0423414
0.021243
0.00631479
1.73
1.60791
1.48001
1.34822
1.22279
1.11007
1.01094
0.924164
0.847371
0.777976
0.71415
0.654623
0.598476
0.545006
0.493566
0.443879
0.396421
0.351968
0.310868
0.272692
0.23661
0.202127
0.16941
0.139085
0.11166
0.0868772
0.0632064
0.0392289
0.0176256
0.00501505
1.82542
1.67365
1.51647
1.36359
1.22654
1.10686
1.00357
0.914527
0.837078
0.768043
0.704874
0.646184
0.591253
0.539242
0.489131
0.440494
0.3941
0.351278
0.312567
0.277021
0.242878
0.20891
0.175174
0.142824
0.113208
0.0865802
0.0613089
0.0359006
0.0141414
0.00378411
1.8742
1.68485
1.50244
1.33302
1.18938
1.06997
0.969877
0.884972
0.812039
0.747218
0.687195
0.630887
0.578492
0.529324
0.481599
0.434372
0.388985
0.347986
0.312485
0.280739
0.249455
0.216279
0.181176
0.146154
0.113817
0.0852349
0.0586949
0.032405
0.0108662
0.00264072
1.80898
1.56272
1.37477
1.21915
1.09303
0.991458
0.906558
0.833716
0.771546
0.715871
0.661814
0.609014
0.560119
0.515244
0.471082
0.425369
0.380363
0.341023
0.309818
0.283738
0.256769
0.224754
0.187685
0.148963
0.113093
0.0824418
0.0551995
0.0287861
0.00786101
0.00159963
1.48179
1.19321
1.07752
0.999184
0.924862
0.866125
0.8132
0.76093
0.715699
0.675005
0.629715
0.580305
0.535273
0.496876
0.458398
0.414271
0.368113
0.329522
0.30392
0.2863
0.265793
0.235299
0.195191
0.151139
0.110491
0.0776277
0.0505884
0.0250976
0.00517553
0.000671577
0.718605
0.394087
0.525503
0.669605
0.685999
0.703452
0.702847
0.671542
0.643561
0.626343
0.594811
0.546921
0.504603
0.475641
0.446222
0.40302
0.351852
0.311295
0.292851
0.288342
0.27771
0.249109
0.204223
0.152418
0.105169
0.0699188
0.0445247
0.021468
0.00286373
-0.00014017
140.833
140.914
141.103
141.387
141.752
142.187
142.685
143.237
143.832
144.459
145.104
145.752
146.386
146.986
147.528
147.987
148.331
148.523
148.517
148.257
147.67
146.661
145.097
142.783
139.42
134.513
127.141
115.387
93.2192
33.3946
140.106
140.178
140.344
140.593
140.912
141.29
141.72
142.19
142.692
143.212
143.737
144.249
144.731
145.161
145.514
145.761
145.867
145.791
145.48
144.871
143.878
142.388
140.242
137.209
132.932
126.825
117.855
104.29
84.7643
56.3144
139.337
139.398
139.541
139.755
140.026
140.345
140.704
141.092
141.498
141.91
142.311
142.686
143.014
143.273
143.436
143.471
143.342
143.003
142.397
141.454
140.084
138.165
135.532
131.957
127.112
120.545
111.663
99.8311
85.6017
68.9955
138.526
138.577
138.696
138.873
139.096
139.355
139.642
139.946
140.255
140.557
140.835
141.072
141.247
141.336
141.311
141.14
140.783
140.192
139.31
138.065
136.364
134.091
131.094
127.176
122.09
115.545
107.243
96.8532
84.3144
69.1887
137.676
137.717
137.812
137.951
138.125
138.323
138.537
138.757
138.969
139.162
139.317
139.417
139.441
139.364
139.158
138.789
138.216
137.393
136.262
134.752
132.778
130.234
126.99
122.89
117.754
111.383
103.577
94.0928
82.7643
69.7986
136.79
136.82
136.89
136.992
137.116
137.253
137.395
137.53
137.646
137.73
137.765
137.732
137.609
137.373
136.994
136.439
135.668
134.636
133.287
131.557
129.369
126.631
123.239
119.074
114.005
107.899
100.632
92.1058
82.3115
71.662
135.869
135.888
135.933
135.998
136.072
136.149
136.219
136.271
136.293
136.271
136.188
136.026
135.764
135.377
134.837
134.111
133.162
131.947
130.415
128.509
126.163
123.302
119.845
115.704
110.793
105.032
98.3685
90.7901
82.341
73.3568
134.916
134.926
134.946
134.973
134.999
135.016
135.015
134.986
134.916
134.791
134.596
134.312
133.918
133.39
132.702
131.823
130.718
129.347
127.667
125.628
123.176
120.252
116.795
112.747
108.053
102.676
96.5986
89.8436
82.4603
74.7207
133.937
133.936
133.932
133.923
133.901
133.859
133.79
133.682
133.523
133.301
132.999
132.599
132.083
131.427
130.606
129.592
128.353
126.856
125.061
122.928
120.415
117.476
114.07
110.159
105.713
100.718
95.1809
89.1348
82.6336
75.9048
132.934
132.923
132.896
132.85
132.782
132.684
132.549
132.365
132.123
131.808
131.406
130.9
130.271
129.499
128.561
127.431
126.082
124.484
122.605
120.414
117.876
114.962
111.642
107.894
103.707
99.0813
94.0342
88.6053
82.8477
76.9461
131.912
131.891
131.842
131.762
131.649
131.497
131.298
131.044
130.722
130.321
129.826
129.223
128.494
127.62
126.58
125.353
123.915
122.241
120.306
118.085
115.554
112.692
109.481
105.912
101.983
97.7033
93.0973
88.2039
83.071
77.8469
130.876
130.846
130.775
130.662
130.507
130.304
130.046
129.724
129.329
128.848
128.269
127.578
126.76
125.797
124.672
123.366
121.86
120.132
118.165
115.938
113.437
110.647
107.56
104.174
100.493
96.5342
92.3209
87.89
83.2832
78.6196
129.831
129.792
129.701
129.557
129.362
129.111
128.798
128.414
127.951
127.398
126.743
125.975
125.079
124.041
122.846
121.477
119.92
118.159
116.178
113.966
111.511
108.807
105.851
102.646
99.2009
95.5335
91.6678
87.6363
83.4749
79.2795
128.784
128.737
128.626
128.453
128.221
127.925
127.561
127.12
126.596
125.978
125.256
124.42
123.458
122.357
121.106
119.69
118.099
116.32
114.343
112.159
109.763
107.153
104.329
101.299
98.0733
94.6695
91.1104
87.4244
83.6416
79.84
127.739
127.685
127.556
127.357
127.09
126.753
126.343
125.851
125.271
124.595
123.815
122.922
121.904
120.753
119.458
118.009
116.397
114.613
112.652
110.508
108.18
105.666
102.973
100.108
97.0842
93.9172
90.628
87.241
83.7817
80.3133
126.705
126.643
126.498
126.274
125.976
125.602
125.15
124.612
123.984
123.258
122.428
121.485
120.422
119.231
117.904
116.433
114.812
113.036
111.101
109.004
106.746
104.331
101.763
99.0531
96.2126
93.2571
90.205
87.0772
83.8951
80.7103
125.687
125.619
125.459
125.212
124.886
124.479
123.989
123.411
122.74
121.971
121.099
120.116
119.017
117.796
116.447
114.964
113.344
111.583
109.68
107.635
105.451
103.131
100.682
98.1152
95.441
92.6738
89.8299
86.9271
83.9833
81.0409
124.692
124.618
124.445
124.178
123.827
123.391
122.868
122.255
121.547
120.742
119.835
118.82
117.693
116.45
115.087
113.601
111.989
110.25
108.384
106.394
104.281
102.053
99.7164
97.2801
94.7556
92.1556
89.4943
86.7868
84.0483
81.3138
123.727
123.649
123.464
123.179
122.805
122.344
121.792
121.149
120.411
119.576
118.64
117.6
116.453
115.196
113.826
112.343
110.745
109.032
107.206
105.27
103.228
101.087
98.8531
96.5359
94.1455
91.6933
89.1919
86.6541
84.0928
81.537
122.801
122.717
122.522
122.222
121.829
121.345
120.77
120.101
119.338
118.478
117.519
116.461
115.299
114.034
112.664
111.188
109.608
107.924
106.139
104.257
102.283
100.222
98.0827
95.8728
93.6019
91.2801
88.9184
86.5278
84.1195
81.7174
121.92
121.832
121.628
121.315
120.905
120.402
119.806
119.116
118.332
117.453
116.478
115.405
114.235
112.966
111.6
110.136
108.576
106.922
105.178
103.348
101.437
99.4508
97.3969
95.2832
93.1181
90.9108
88.6708
86.4079
84.1314
81.8615
121.092
121.001
120.789
120.464
120.04
119.521
118.908
118.201
117.401
116.506
115.518
114.437
113.262
111.994
110.634
109.184
107.646
106.023
104.319
102.537
100.685
98.7665
96.7895
94.7611
92.6892
90.5819
88.4476
86.2948
84.1318
81.9753
120.325
120.231
120.012
119.678
119.241
118.709
118.083
117.362
116.548
115.643
114.646
113.559
112.382
111.118
109.767
108.333
106.817
105.224
103.557
101.821
100.021
98.1638
96.2551
94.3019
92.3113
90.2907
88.2476
86.1894
84.1234
82.0636
119.628
119.531
119.306
118.963
118.517
117.974
117.336
116.604
115.781
114.867
113.865
112.775
111.599
110.34
109
107.582
106.088
104.522
102.89
101.195
99.4432
97.6397
95.7909
93.903
91.9826
90.0365
88.0714
86.0938
84.1103
82.1325
119.009
118.91
118.679
118.328
117.873
117.321
116.674
115.934
115.103
114.184
113.178
112.087
110.915
109.662
108.333
106.93
105.456
103.917
102.316
100.657
98.947
97.1903
95.393
93.5611
91.7005
89.8174
87.9179
86.008
84.0934
82.1841
118.477
118.375
118.139
117.781
117.318
116.759
116.105
115.359
114.523
113.6
112.592
111.503
110.334
109.088
107.769
106.381
104.926
103.409
101.835
100.208
98.5338
96.8169
95.0631
93.278
91.4673
89.6366
87.7915
85.9376
84.0802
82.2275
118.042
117.937
117.693
117.327
116.858
116.293
115.633
114.882
114.043
113.117
112.109
111.021
109.856
108.617
107.308
105.932
104.493
102.996
101.445
99.8441
98.1989
96.5144
94.7959
93.0485
91.2778
89.489
87.6872
85.8776
84.065
82.2563
117.716
117.605
117.352
116.98
116.506
115.936
115.272
114.518
113.676
112.749
111.741
110.655
109.493
108.26
106.959
105.594
104.168
102.687
101.154
99.5736
97.9516
96.2926
94.6016
92.8838
91.1441
89.3877
87.6196
85.8445
84.0671
82.2935
117.514
117.379
117.109
116.731
116.255
115.682
115.016
114.26
113.417
112.49
111.483
110.399
109.241
108.012
106.717
105.36
103.944
102.473
100.952
99.3866
97.7804
96.1385
94.4659
92.7676
91.0485
89.3134
87.5671
85.8142
84.059
82.3066
117.496
117.297
116.999
116.614
116.135
115.559
114.89
114.132
113.288
112.361
111.355
110.272
109.117
107.892
106.602
105.25
103.84
102.377
100.866
99.3093
97.7134
96.0826
94.4218
92.7359
91.0296
89.3077
87.5749
85.8355
84.094
82.3545
-50.5826
-30.3752
-11.0432
35.9915
28.6517
16.8293
51.5477
39.5124
28.3723
52.9418
42.5412
34.5255
57.2669
48.997
42.259
61.6457
54.751
48.8728
64.9078
59.0364
53.9962
67.4929
62.4752
58.1722
69.6718
65.3446
61.64
71.5105
67.7354
64.5113
73.0561
69.7284
66.8935
74.3579
71.3973
68.8801
75.4565
72.7999
70.5446
76.3839
73.9815
71.9441
77.1666
74.9786
73.1242
77.8265
75.8207
74.1211
78.3816
76.5316
74.9639
78.8473
77.131
75.6761
79.2362
77.6352
76.2771
79.5597
78.0581
76.7831
79.827
78.4112
77.2076
80.0468
78.705
77.5625
80.2258
78.9473
77.8571
80.3721
79.1475
78.1014
80.4881
79.3087
78.2998
80.5857
79.4436
78.4647
80.6561
79.5438
78.5896
80.7278
79.6384
78.7013
80.7612
79.688
78.765
80.83
79.7709
78.8544
-2.2965
-2.15152
-0.707631
0.391933
0.450797
0.517448
0.57346
0.550162
0.543147
0.580119
0.573438
0.513525
0.462984
0.445478
0.4331
0.391116
0.329105
0.282482
0.274554
0.291829
0.296768
0.269761
0.216659
0.153031
0.0961239
0.0579834
0.0364824
0.0182576
0.00108453
-0.000853403
3.10608
0.0483829
1.34387
0.978469
-0.198886
-0.0819532
0.456682
0.518883
0.49808
0.58042
0.565629
0.452228
0.381136
0.400661
0.438391
0.398725
0.310367
0.243962
0.246189
0.295966
0.32502
0.298193
0.23126
0.150009
0.0794013
0.0381931
0.0249926
0.0162235
0.000320762
-0.00150966
14.1417
5.72375
2.88722
0.620513
0.176222
1.20024
1.42126
0.397169
-0.0570412
0.230775
0.57552
0.457665
0.348162
0.409708
0.484926
0.410253
0.259237
0.149206
0.170429
0.290212
0.378142
0.347772
0.256551
0.149139
0.0585904
0.0123168
0.0120859
0.0192345
0.00306021
-0.00216808
23.8068
13.9521
8.11358
4.36611
2.53178
1.83505
0.803039
0.117438
0.243079
1.36765
1.42098
0.361122
-0.0688922
0.0374849
0.398933
0.47884
0.254644
0.0773083
0.13681
0.359665
0.477097
0.409693
0.274689
0.129461
0.0105469
-0.0433718
-0.0196327
0.0230516
0.00971945
-0.00346761
32.9397
23.1954
15.8876
10.5888
6.92986
4.44197
2.61087
1.55736
1.18145
1.24811
0.76031
0.183934
-0.0109549
0.565995
1.16031
0.79781
0.155985
-0.247303
-0.26918
0.200559
0.591236
0.510584
0.313735
0.123741
-0.0256532
-0.0851964
-0.0217952
0.0724663
0.0425461
-0.00514585
40.8881
31.9733
24.0924
17.663
12.7343
9.07888
6.39547
4.49499
3.20312
2.31802
1.53768
0.923406
0.600277
0.711311
0.749988
0.554692
0.083905
-0.291373
-0.119837
0.785446
1.06264
0.582326
0.287011
0.0492002
-0.139375
-0.229681
-0.152854
0.0535205
0.088457
-0.0123414
47.3714
39.5734
31.8039
24.9177
19.2909
14.8229
11.2927
8.53295
6.4258
4.84267
3.60535
2.61624
1.91301
1.51563
1.22842
0.904163
0.43706
0.0868892
0.166012
0.599292
0.747047
0.585824
0.338577
0.0801798
-0.144999
-0.236929
-0.0497069
0.274471
0.253007
-0.0216928
52.6522
45.9256
38.6726
31.8455
25.962
21.0128
16.8686
13.4402
10.6587
8.43062
6.62595
5.15481
4.00884
3.17089
2.52931
1.93966
1.3527
0.918485
0.792908
0.900976
0.93696
0.767403
0.469761
0.171565
-0.0631086
-0.157129
-0.0512374
0.128371
0.234127
-0.0830951
56.9603
51.1461
44.5645
38.0926
32.2745
27.1607
22.6877
18.8199
15.5273
12.7553
10.4266
8.47927
6.88206
5.59954
4.55171
3.6446
2.84873
2.22824
1.85127
1.66856
1.49691
1.2059
0.836081
0.486768
0.217855
0.0784493
0.0878848
0.165255
0.162952
-0.320085
60.4758
55.4094
49.508
43.5238
37.9695
32.9227
28.3545
24.2609
20.6431
17.4824
14.7412
12.3798
10.3659
8.6642
7.22123
5.97976
4.91256
4.03611
3.3716
2.88054
2.45104
1.99341
1.51668
1.07797
0.722801
0.48146
0.355076
0.273473
0.086132
-0.53624
63.3628
58.9036
53.6238
48.1555
42.9582
38.1152
33.6135
29.4649
25.6901
22.2945
19.2659
16.5837
14.2259
12.1669
10.3727
8.80667
7.4444
6.28144
5.3161
4.51721
3.81687
3.15494
2.52159
1.94367
1.45044
1.0578
0.754443
0.476447
0.102259
-0.615675
65.7537
61.7898
57.0514
52.0717
47.2557
42.6817
38.3428
34.2562
30.4514
26.947
23.7467
20.8448
18.2309
15.8904
13.8031
11.9459
10.2996
8.85313
7.59591
6.50309
5.53157
4.63983
3.81155
3.05519
2.38515
1.80591
1.29984
0.813393
0.258591
-0.544632
67.7479
64.1919
59.916
55.3758
50.9278
46.6423
42.513
38.5572
34.8065
31.2855
28.0068
24.9746
22.1878
19.641
17.3238
15.2232
13.3257
11.6204
10.0952
8.73058
7.49799
6.36831
5.32484
4.36565
3.49393
2.7064
1.984
1.28486
0.549043
-0.349169
69.4203
66.2038
62.321
58.167
54.0572
50.0537
46.1491
42.3579
38.7105
35.2333
31.9431
28.8501
25.9593
23.2718
20.7846
18.4916
16.385
14.4562
12.6951
11.0871
9.6126
8.25108
6.98759
5.81508
4.72986
3.72429
2.78057
1.8673
0.945451
-0.067671
70.8286
67.897
64.3491
60.5309
56.7244
52.9841
49.3008
45.6858
42.1666
38.7689
35.5113
32.4065
29.4637
26.688
24.0815
21.6431
19.3693
17.255
15.2928
13.4725
11.7805
10.2023
8.72524
7.34046
6.04086
4.81694
3.65307
2.52618
1.41125
0.258531
72.0179
69.327
66.0649
62.538
59.0001
55.4995
52.0251
48.585
45.2032
41.9038
38.7052
35.6213
32.6631
29.8385
27.1528
24.6083
22.2049
19.9404
17.8105
15.8084
13.925
12.1499
10.4727
8.88478
7.37771
5.94161
4.56303
3.22473
1.91002
0.593157
73.0236
70.5371
67.5199
64.2455
60.944
57.6586
54.3767
51.1033
47.8591
44.6657
41.5407
38.498
35.5493
32.7041
29.9694
27.3499
24.848
22.4639
20.1959
18.0401
15.9905
14.0396
12.1795
10.4021
8.69913
7.06098
5.47595
3.93036
2.41162
0.91015
73.8743
71.5619
68.755
65.6995
62.6054
59.5116
56.4044
53.2862
50.1742
47.088
44.0434
41.0538
38.1309
35.2847
32.5233
29.8529
27.2775
24.7994
22.4187
20.1337
17.9408
15.835
13.81
11.8589
9.97397
8.1461
6.36478
4.61813
2.89477
1.19489
74.5935
72.4296
69.8035
66.9377
64.025
61.1008
58.1506
55.1744
52.1867
49.2044
46.242
43.3117
40.4247
37.5909
34.8191
32.116
29.4871
26.9356
24.4634
22.0704
19.7549
17.5134
15.3414
13.2329
11.1807
9.17659
7.21048
5.27115
3.34674
1.44237
75.2004
73.1632
70.6926
67.9911
65.2367
62.4617
59.6514
56.8037
53.9306
51.0467
48.1648
45.296
42.4506
39.6382
36.8675
34.1456
31.4786
28.8707
26.3247
23.8419
21.4218
19.0624
16.7601
14.5101
12.3059
10.1394
8.00101
5.8794
3.7615
1.65404
75.711
73.7819
71.445
68.8854
66.2686
63.6244
60.9377
58.205
55.436
52.6433
49.8381
47.0302
44.2289
41.4434
38.6818
35.9514
33.2584
30.6077
28.0027
25.4456
22.9369
20.4754
18.0588
15.6826
13.341
11.0265
8.72921
6.43754
4.13708
1.83423
76.1392
74.302
72.0796
69.6423
67.1445
64.6141
62.0359
59.4051
56.7295
54.0199
51.286
48.5364
45.7795
43.0236
40.2763
37.5448
34.8352
32.1525
29.5009
26.8827
24.2993
21.7504
19.2339
16.7462
14.282
11.8337
9.39158
6.94353
4.47401
1.9881
76.4961
74.7368
72.6119
70.2793
67.8839
65.4517
62.9678
60.4263
57.8334
55.1983
52.5294
49.8341
47.12
44.3943
41.6644
38.9368
36.2175
33.5116
30.8233
28.1554
25.5097
22.8862
20.2835
17.6983
15.1256
12.558
9.98562
7.39599
4.77276
2.1192
76.7926
75.0986
73.0564
70.8127
68.5043
66.1562
63.7533
61.289
58.7681
56.1987
53.5878
50.9419
48.2676
45.5714
42.86
40.1394
37.4155
34.6931
31.9764
29.2685
26.5712
23.8849
21.2086
18.5393
15.8719
13.1994
10.5117
7.79611
5.03569
2.23141
77.0348
75.3951
73.4219
71.2527
69.0175
66.74
64.4056
62.007
59.5478
57.0349
54.4746
51.8724
49.234
46.5652
43.872
41.1601
38.4349
35.7011
32.9627
30.2228
27.4834
24.745
22.0068
19.2659
16.5174
13.7543
10.9666
8.14111
5.26084
2.32441
77.2345
75.639
73.7225
71.6145
69.4394
67.2203
64.9426
62.5985
60.1909
57.7256
55.2082
52.6433
50.0361
47.3916
44.7154
42.0125
39.2882
36.5467
33.792
31.0271
28.2539
25.4732
22.6839
19.8836
17.0673
14.2279
11.3554
8.43645
5.45395
2.40339
77.3886
75.828
73.9562
71.8968
69.7695
67.5968
65.3643
63.0639
60.6977
58.2709
55.7883
53.254
50.6725
48.0485
45.3868
42.6924
39.9698
37.2233
34.4565
31.6725
28.873
26.0588
23.2289
20.3809
17.5097
14.6084
11.6667
8.67131
5.60512
2.46135
77.5193
75.9843
74.1466
72.1241
70.0329
67.8953
65.6971
63.4299
61.0953
58.6978
56.2419
53.7312
51.1697
48.5617
45.9116
43.2241
40.5034
37.7536
34.9782
32.18
29.3608
26.5212
23.6605
20.7759
17.8627
14.9134
11.918
8.86293
5.73076
2.51092
77.5997
76.0808
74.2654
72.268
70.2012
68.0869
65.9117
63.6668
61.3533
58.9756
56.5376
54.0428
51.4949
48.8977
46.2557
43.573
40.8539
38.1021
35.3211
32.5135
29.6813
26.8248
23.9433
21.0341
18.0923
15.1104
12.0781
8.98145
5.8031
2.5308
77.6883
76.1706
74.3675
72.385
70.3319
68.2303
66.0672
63.8339
61.5315
59.1639
56.7349
54.248
51.7065
49.1143
46.4756
43.7945
41.075
38.3211
35.536
32.7224
29.882
27.0155
24.122
21.1986
18.2406
15.2404
12.1872
9.06624
5.85762
2.53737
)
;

boundaryField
{
    inlet
    {
        type            zeroGradient;
    }
    outlet
    {
        type            fixedValue;
        value           uniform 0;
    }
    flap
    {
        type            zeroGradient;
    }
    upperWall
    {
        type            zeroGradient;
    }
    lowerWall
    {
        type            zeroGradient;
    }
    frontAndBack
    {
        type            empty;
    }
}


// ************************************************************************* //
