/*--------------------------------*- C++ -*----------------------------------*\
  =========                 |
  \\      /  F ield         | OpenFOAM: The Open Source CFD Toolbox
   \\    /   O peration     | Website:  https://openfoam.org
    \\  /    A nd           | Version:  7
     \\/     M anipulation  |
\*---------------------------------------------------------------------------*/
FoamFile
{
    version     2.0;
    format      ascii;
    class       surfaceScalarField;
    location    "4.1";
    object      phi;
}
// * * * * * * * * * * * * * * * * * * * * * * * * * * * * * * * * * * * * * //

dimensions      [0 3 -1 0 0 0 0];

internalField   nonuniform List<scalar> 
5457
(
0.198418
0.00158237
0.19648
0.00193735
0.194192
0.00228805
0.191509
0.00268353
0.188428
0.00308113
0.184951
0.00347668
0.181072
0.00387847
0.176779
0.00429388
0.17205
0.00472807
0.166865
0.00518504
0.161197
0.0056683
0.155016
0.0061808
0.148292
0.00672471
0.140991
0.00730105
0.133081
0.0079092
0.124535
0.00854613
0.11533
0.00920557
0.105453
0.00987687
0.094909
0.0105438
0.0837258
0.0111833
0.0719613
0.0117644
0.0597131
0.0122482
0.0471245
0.0125887
0.0343842
0.0127403
0.021689
0.0126952
0.00903867
0.0126503
-0.00291558
0.0119542
-0.00847202
0.00555644
-0.00804302
-0.000429001
-0.00804302
0.199928
0.0016542
0.199176
0.00268977
0.197965
0.00349895
0.196332
0.00431666
0.194272
0.00514112
0.191782
0.00596667
0.188855
0.00680534
0.185478
0.00767062
0.181633
0.00857283
0.177298
0.00952027
0.172446
0.0105202
0.167048
0.0115789
0.161072
0.0127012
0.154483
0.0138897
0.147248
0.015144
0.139335
0.0164589
0.130718
0.0178232
0.121378
0.0192167
0.111313
0.0206083
0.100544
0.0219529
0.0891195
0.0231887
0.077132
0.0242357
0.064726
0.0249946
0.0521184
0.0253479
0.0396579
0.0251558
0.0281074
0.0242008
0.0185967
0.021465
0.00879871
0.0153544
0.00118425
0.00718546
-0.00685877
0.199781
0.00187363
0.199087
0.00338359
0.197946
0.00463985
0.196409
0.00585324
0.194483
0.00706719
0.192164
0.00828564
0.189447
0.00952269
0.186322
0.010796
0.182774
0.0121206
0.178785
0.013509
0.174333
0.0149722
0.169392
0.0165198
0.163934
0.0181596
0.157927
0.0198966
0.151339
0.0217319
0.144138
0.0236604
0.136292
0.0256684
0.127779
0.0277303
0.118582
0.0298049
0.108704
0.0318305
0.0981728
0.0337204
0.0870506
0.0353579
0.0754539
0.0365913
0.0635767
0.0372251
0.0517346
0.0369978
0.040399
0.0355364
0.0297405
0.0321235
0.0191671
0.0259278
0.00959829
0.0167543
0.00273952
0.199703
0.00217055
0.199008
0.00407888
0.197887
0.00576035
0.196376
0.00736411
0.194488
0.00895526
0.192222
0.0105516
0.189575
0.0121703
0.186539
0.0138319
0.183105
0.0155549
0.179258
0.0173553
0.174983
0.019247
0.170261
0.0212422
0.16507
0.023351
0.159386
0.0255806
0.153184
0.0279334
0.146439
0.0304053
0.139125
0.0329824
0.131218
0.0356373
0.122699
0.0383238
0.113558
0.0409712
0.103802
0.0434771
0.0934593
0.0457004
0.0825981
0.0474526
0.0713352
0.048488
0.0598431
0.04849
0.0483187
0.0470607
0.0368124
0.0436298
0.0251889
0.0375513
0.0133361
0.0286071
0.0160756
0.199667
0.00250314
0.198964
0.00478213
0.197863
0.00686165
0.196381
0.00884576
0.194532
0.010804
0.192318
0.0127662
0.189734
0.014754
0.186776
0.0167904
0.183434
0.0188965
0.179699
0.0210909
0.175556
0.0233898
0.170991
0.0258071
0.165987
0.0283546
0.160527
0.0310406
0.154592
0.0338687
0.148162
0.0368356
0.141216
0.039928
0.133735
0.0431186
0.125698
0.0463605
0.117089
0.0495803
0.107896
0.0526704
0.098117
0.0554793
0.0877671
0.0578025
0.076881
0.059374
0.0655108
0.0598601
0.0537098
0.0588617
0.0414554
0.0558842
0.0285887
0.050418
0.0148529
0.042343
0.0309284
0.199653
0.00285033
0.198949
0.00548618
0.197871
0.00793957
0.196427
0.0102899
0.194627
0.0126039
0.192473
0.0149196
0.189964
0.0172636
0.187093
0.0196611
0.183854
0.0221357
0.180237
0.024708
0.17623
0.0273961
0.171822
0.0302156
0.166997
0.0331792
0.161742
0.0362963
0.156039
0.0395713
0.149873
0.0430019
0.143225
0.0465759
0.136075
0.0502677
0.128403
0.0540325
0.120184
0.0577997
0.11139
0.0614646
0.101991
0.0648779
0.091957
0.0678366
0.0812562
0.0700749
0.0698562
0.0712601
0.0577186
0.0709993
0.0447621
0.0688408
0.0308501
0.06433
0.0158736
0.0573194
0.0468021
0.19965
0.00320027
0.198954
0.00618215
0.197904
0.00898918
0.196505
0.0116896
0.194763
0.0143461
0.192681
0.0170016
0.190257
0.0196871
0.187488
0.0224307
0.184366
0.0252577
0.180883
0.0281908
0.177029
0.0312499
0.172793
0.034452
0.168161
0.0378111
0.163119
0.0413377
0.157653
0.0450374
0.151746
0.0489092
0.145379
0.0529432
0.138529
0.0571169
0.131171
0.0613905
0.123271
0.0657003
0.114784
0.0699511
0.105657
0.0740056
0.095819
0.0776743
0.0851884
0.0807054
0.0736704
0.0827781
0.0611634
0.0835063
0.0475568
0.0824473
0.0327597
0.079127
0.0167834
0.0732957
0.0635855
0.199655
0.00354562
0.198975
0.00686226
0.197959
0.0100049
0.19661
0.0130383
0.194934
0.0160222
0.192934
0.0190021
0.190608
0.0220132
0.187952
0.0250858
0.184962
0.0282475
0.18163
0.0315228
0.177947
0.0349332
0.173902
0.0384972
0.169483
0.0422304
0.164675
0.0461449
0.159465
0.050248
0.153833
0.0545413
0.147758
0.0590182
0.141213
0.0636613
0.134165
0.0684385
0.126569
0.0732968
0.118364
0.078156
0.109471
0.0828982
0.0997888
0.0873569
0.0891897
0.0913046
0.0775274
0.0944404
0.0646495
0.0963843
0.0504192
0.0966776
0.0347695
0.0947768
0.0177905
0.0902747
0.0813761
0.199664
0.00388145
0.199006
0.00752007
0.19803
0.0109812
0.196739
0.0143297
0.195137
0.0176242
0.193227
0.0209119
0.191009
0.024231
0.188481
0.0276144
0.185637
0.0310914
0.182471
0.0346884
0.178976
0.0384285
0.175141
0.042332
0.170955
0.0464162
0.166405
0.0506951
0.161474
0.0551788
0.156143
0.0598724
0.150387
0.0647742
0.144175
0.069874
0.137463
0.0751496
0.130197
0.080563
0.1223
0.0860534
0.113669
0.091529
0.104171
0.0968552
0.0936365
0.101839
0.0818674
0.10621
0.068652
0.1096
0.0538042
0.111525
0.0372383
0.111343
0.0190843
0.108429
0.10046
0.199677
0.00420423
0.199047
0.00815031
0.198116
0.0119125
0.196887
0.015558
0.195366
0.0191451
0.193556
0.0227225
0.191456
0.0263308
0.189065
0.0300051
0.18638
0.0337766
0.183395
0.0376732
0.180104
0.0417196
0.176498
0.045938
0.172567
0.0503476
0.168297
0.054965
0.163672
0.0598034
0.158672
0.0648723
0.15327
0.0701765
0.14743
0.0757145
0.141102
0.0814769
0.134222
0.0874433
0.126698
0.0935773
0.118408
0.0998196
0.109186
0.106076
0.0988225
0.112203
0.0870557
0.117976
0.0735931
0.123062
0.0581515
0.126967
0.0405543
0.12894
0.0209027
0.12808
0.121363
0.199693
0.0045113
0.199095
0.0087487
0.198213
0.0127941
0.197053
0.0167177
0.19562
0.0205784
0.193916
0.0244263
0.191943
0.0283038
0.1897
0.0322479
0.187185
0.0362916
0.184394
0.040464
0.181322
0.0447917
0.177962
0.0492984
0.174304
0.0540054
0.170337
0.0589321
0.166045
0.0640952
0.161408
0.0695094
0.156398
0.0751865
0.150977
0.0811352
0.145094
0.0873605
0.138675
0.093862
0.131621
0.100632
0.123792
0.107648
0.114999
0.11487
0.104986
0.122215
0.0934229
0.12954
0.0799021
0.136583
0.063972
0.142897
0.0452382
0.147674
0.0236137
0.149705
0.144977
0.199711
0.00480062
0.199148
0.00931172
0.19832
0.0136217
0.197234
0.017804
0.195894
0.0219186
0.194303
0.0260166
0.192465
0.0301423
0.190379
0.0343341
0.188044
0.0386263
0.185458
0.0430495
0.182618
0.0476316
0.179519
0.052398
0.176152
0.057372
0.172509
0.0625754
0.168575
0.068029
0.164332
0.0737523
0.159754
0.0797647
0.154804
0.0860852
0.149431
0.0927338
0.143561
0.0997314
0.137093
0.1071
0.129881
0.114861
0.121719
0.123032
0.112319
0.131616
0.101278
0.14058
0.0880507
0.14981
0.0719286
0.159019
0.0520913
0.167511
0.0278888
0.173907
0.172866
0.19973
0.00507056
0.199205
0.00983651
0.198435
0.0143917
0.197427
0.0188126
0.196185
0.0231606
0.194713
0.0274879
0.193016
0.0318397
0.191094
0.036256
0.188948
0.0407721
0.186578
0.0454199
0.183981
0.0502282
0.181156
0.0552237
0.178096
0.0604318
0.174795
0.0658765
0.171242
0.0715818
0.167422
0.0775722
0.163313
0.0838736
0.158883
0.090515
0.154087
0.0975301
0.148858
0.10496
0.143103
0.112855
0.136682
0.121281
0.129396
0.130318
0.120947
0.140065
0.110889
0.150638
0.0985502
0.162149
0.0829091
0.17466
0.0624434
0.187977
0.0351303
0.20122
0.207996
0.199751
0.00531986
0.199266
0.0103208
0.198557
0.0151012
0.197629
0.0197402
0.19649
0.0243005
0.195142
0.0288352
0.193591
0.0333905
0.19184
0.0380074
0.18989
0.0427221
0.187743
0.0475671
0.185399
0.0525721
0.182857
0.057765
0.180117
0.0631722
0.177174
0.0688198
0.174021
0.0747344
0.170649
0.0809441
0.167042
0.0874804
0.163177
0.0943802
0.159019
0.101688
0.154517
0.109462
0.149596
0.117776
0.144145
0.126732
0.137996
0.136467
0.13089
0.147171
0.122413
0.159115
0.111869
0.172693
0.0980284
0.188501
0.0785494
0.207456
0.0486743
0.231095
0.25667
0.199772
0.00554757
0.19933
0.0107627
0.198684
0.0157477
0.19784
0.0205838
0.196806
0.025335
0.195586
0.0300549
0.194186
0.0347907
0.19261
0.0395837
0.190861
0.0444709
0.188943
0.0494851
0.186858
0.0546567
0.18461
0.0600138
0.182198
0.0655838
0.179624
0.0713938
0.176887
0.077472
0.173982
0.083849
0.170902
0.0905597
0.167637
0.0976459
0.164165
0.10516
0.16046
0.113168
0.156476
0.121761
0.152147
0.13106
0.147375
0.141239
0.142
0.152546
0.135759
0.165356
0.128181
0.18027
0.118327
0.198356
0.103943
0.221839
0.0777132
0.257325
0.334383
0.00399485
-0.00399485
0.00780755
-0.0038127
0.0109972
-0.00318968
0.0135747
-0.00257751
0.0156437
-0.00206898
0.0173075
-0.00166374
0.0186542
-0.00134672
0.0197579
-0.00110369
0.0206794
-0.000921528
0.0214675
-0.000788108
0.02216
-0.000692477
0.0227845
-0.000624511
0.0233589
-0.000574394
0.0238914
-0.00053253
0.0243816
-0.000490203
0.0248225
-0.000440922
0.0252044
-0.000381871
0.0255185
-0.000314093
0.0257586
-0.000240081
0.0259183
-0.000159753
0.025989
-7.06556e-05
0.0259587
3.02686e-05
0.0258206
0.000138072
0.0255931
0.000227576
0.0253171
0.00027598
0.0250466
0.000270459
0.0248211
0.00022555
0.0246646
0.000156465
0.024595
6.9609e-05
-3.58123e-05
0.00357333
-0.00756817
0.00704809
-0.00728746
0.0100125
-0.00615412
0.0124722
-0.00503721
0.0145225
-0.00411925
0.0162521
-0.00339333
0.0177333
-0.00282794
0.0190244
-0.00239477
0.0201719
-0.00206904
0.0212127
-0.00182895
0.0221756
-0.00165536
0.0230821
-0.00153096
0.0239469
-0.00143926
0.0247787
-0.00136429
0.0255798
-0.00129132
0.0263478
-0.00120891
0.0270776
-0.00111162
0.0277647
-0.00100128
0.0284086
-0.000883963
0.0290108
-0.000761896
0.0295663
-0.000626196
0.0300593
-0.000462738
0.0304747
-0.000277284
0.0308112
-0.000108941
0.031089
-1.82581e-06
0.0313444
1.50758e-05
0.0316047
-3.47693e-05
0.0318886
-0.000127456
0.0321983
-0.000240046
-0.000294867
0.00291541
-0.0104836
0.00566005
-0.0100321
0.0079583
-0.00845236
0.00984994
-0.00692885
0.0114277
-0.00569705
0.012764
-0.00472954
0.0139145
-0.00397849
0.0149224
-0.00340264
0.0158212
-0.00296791
0.016638
-0.00264566
0.0173938
-0.00241122
0.0181051
-0.00224228
0.0187836
-0.0021177
0.0194362
-0.00201694
0.0200656
-0.00192069
0.0206699
-0.00181319
0.0212443
-0.00168608
0.0217846
-0.00154151
0.0222907
-0.00139013
0.022769
-0.00124014
0.0232256
-0.00108284
0.0236597
-0.000896842
0.0240593
-0.000676867
0.0244108
-0.00046041
0.0247098
-0.00030089
0.0249562
-0.000231272
0.0251591
-0.000237637
0.0253257
-0.000294138
0.0254883
-0.000402642
-0.000438052
0.00220491
-0.0126885
0.00409759
-0.0119248
0.00559558
-0.00995036
0.00679148
-0.00812475
0.0077733
-0.00667887
0.00859333
-0.00554957
0.00928837
-0.00467354
0.00988484
-0.00399911
0.0104034
-0.00348648
0.0108609
-0.00310319
0.0112712
-0.00282144
0.0116451
-0.00261617
0.0119912
-0.00246381
0.0123158
-0.00234157
0.0126228
-0.00222765
0.0129124
-0.00210286
0.0131811
-0.0019547
0.0134215
-0.001782
0.0136287
-0.00159729
0.0138078
-0.00141928
0.0139739
-0.0012489
0.0141382
-0.00106116
0.0142857
-0.000824313
0.0143803
-0.000554999
0.01438
-0.000300614
0.0142562
-0.000107478
0.0140258
-7.29253e-06
0.0137123
1.94251e-05
0.0133532
-4.35425e-05
-0.000271736
0.0013921
-0.0140806
0.00234585
-0.0128785
0.00297704
-0.0105815
0.00340065
-0.00854836
0.00370378
-0.006982
0.00391495
-0.00576073
0.00405392
-0.00481251
0.0041343
-0.0040795
0.00416764
-0.00351981
0.00416334
-0.0030989
0.00412915
-0.00278725
0.00407176
-0.00255878
0.00399699
-0.00238904
0.0039101
-0.00225468
0.00381638
-0.00213393
0.00372041
-0.00200689
0.00362307
-0.00185736
0.003517
-0.00167593
0.00338223
-0.00146252
0.00318909
-0.00122614
0.00291976
-0.000979568
0.00258117
-0.000722574
0.00222027
-0.000463405
0.00188959
-0.000224324
0.00162092
-3.19419e-05
0.00145402
5.94174e-05
0.00134652
0.000100213
0.00125795
0.000107994
0.00114859
6.58153e-05
-0.000168289
0.000460055
-0.0145407
0.000416913
-0.0128354
0.000106664
-0.0102713
-0.000250422
-0.00819127
-0.000685474
-0.00654695
-0.00115797
-0.00528824
-0.0016526
-0.00431788
-0.00215594
-0.00357616
-0.00265974
-0.00301601
-0.00315844
-0.00260019
-0.00364813
-0.00229756
-0.00412557
-0.00208134
-0.00458822
-0.00192639
-0.00503396
-0.00180894
-0.00545962
-0.00170827
-0.00585966
-0.00160685
-0.00622642
-0.00149059
-0.00655303
-0.00134932
-0.00683791
-0.00117765
-0.00708779
-0.00097626
-0.00731572
-0.000751643
-0.00752736
-0.000510931
-0.00772428
-0.000266483
-0.00789817
-5.04354e-05
-0.00804122
0.000111107
-0.00817329
0.000191487
-0.00830324
0.000230164
-0.00842685
0.000231605
-0.0085059
0.000144867
-6.67654e-05
-0.000570034
-0.0139706
-0.00163517
-0.0117703
-0.00283137
-0.0090751
-0.0040612
-0.00696145
-0.00526884
-0.00533931
-0.00642795
-0.00412913
-0.00751452
-0.00323131
-0.00851876
-0.00257192
-0.00943606
-0.00209871
-0.0102666
-0.0017696
-0.0110152
-0.00154898
-0.0116892
-0.00140739
-0.0122968
-0.00131873
-0.0128466
-0.00125922
-0.0133443
-0.00121048
-0.0137922
-0.00115899
-0.0141886
-0.00109424
-0.0145312
-0.00100667
-0.0148215
-0.000887388
-0.015067
-0.000730715
-0.0152812
-0.000537465
-0.0154762
-0.000315873
-0.0156628
-7.98758e-05
-0.0158308
0.000117551
-0.0159768
0.000257034
-0.0161241
0.000338834
-0.0162676
0.00037365
-0.0163927
0.000356756
-0.0164909
0.000242994
6.11273e-05
-0.00167857
-0.012292
-0.00377637
-0.00967246
-0.00588153
-0.00696994
-0.00791065
-0.00493232
-0.00978886
-0.00346109
-0.0114815
-0.00243648
-0.0129745
-0.00173832
-0.014277
-0.0012694
-0.0154078
-0.000967909
-0.0163896
-0.000787782
-0.0172454
-0.00069318
-0.0179958
-0.000657056
-0.0186572
-0.000657286
-0.0192456
-0.000670834
-0.0197727
-0.000683379
-0.0202446
-0.000687118
-0.0206621
-0.000676689
-0.0210243
-0.000644538
-0.0213328
-0.00057882
-0.0215962
-0.000467361
-0.0218281
-0.000305529
-0.0220421
-0.000101881
-0.0222319
0.000109883
-0.0224042
0.000289851
-0.0225692
0.000422066
-0.0227309
0.000500541
-0.0228878
0.000530538
-0.0230347
0.000503677
-0.0231833
0.000391532
0.000242913
-0.00292016
-0.00937188
-0.00612296
-0.00646966
-0.00911749
-0.00397541
-0.0118249
-0.00222487
-0.014196
-0.00109003
-0.0162442
-0.000388306
-0.0179917
9.18672e-06
-0.0194521
0.000191006
-0.0206626
0.000242561
-0.0216782
0.000227884
-0.0225475
0.000176131
-0.023307
0.000102453
-0.0239808
1.64389e-05
-0.0245848
-6.68534e-05
-0.0251268
-0.000141325
-0.0256139
-0.000200026
-0.0260474
-0.000243228
-0.0264253
-0.00026664
-0.0267489
-0.000255219
-0.0270276
-0.000188641
-0.0272759
-5.72003e-05
-0.0274993
0.000121554
-0.0277039
0.000314446
-0.0279028
0.000488737
-0.0280968
0.00061609
-0.0282839
0.00068762
-0.028462
0.000708676
-0.0286319
0.000673557
-0.0288082
0.000567815
0.000447379
-0.00447656
-0.00489532
-0.00921968
-0.00172654
-0.0133786
0.000183463
-0.016755
0.0011516
-0.0194243
0.00157928
-0.0215168
0.00170419
-0.0231689
0.00166126
-0.024505
0.00152715
-0.0256156
0.00135316
-0.0265535
0.0011657
-0.0273578
0.000980441
-0.028056
0.000800651
-0.0286691
0.000629571
-0.0292152
0.000479268
-0.0297142
0.000357693
-0.0301748
0.000260499
-0.0305952
0.000177202
-0.0309685
0.00010669
-0.031291
6.72521e-05
-0.0315677
8.80349e-05
-0.0318107
0.0001858
-0.0320393
0.000350198
-0.032269
0.000544151
-0.0324997
0.000719418
-0.0327238
0.000840235
-0.0329341
0.000897852
-0.0331277
0.000902267
-0.0333109
0.000856785
-0.0335023
0.000759255
0.00066397
-0.00648397
0.00158865
-0.0121525
0.00394197
-0.0165734
0.00460434
-0.0200143
0.00459258
-0.0227407
0.00430566
-0.0249115
0.00387493
-0.0266529
0.00340271
-0.0280643
0.00293849
-0.0292199
0.00250878
-0.0301862
0.00213204
-0.0310154
0.00180959
-0.0317394
0.00152468
-0.0323766
0.00126674
-0.0329421
0.00104477
-0.0334538
0.00086941
-0.0339242
0.000730891
-0.0343513
0.00060432
-0.0347234
0.000478787
-0.0350347
0.000378592
-0.0352975
0.000350817
-0.0355382
0.000426499
-0.0357811
0.000593061
-0.0360359
0.000799007
-0.0362971
0.000980607
-0.03655
0.00109313
-0.0367812
0.00112902
-0.0369877
0.00110877
-0.0371811
0.00105019
-0.037383
0.000961149
0.000888526
-0.00775713
0.00934578
-0.0141546
0.0103394
-0.0191073
0.00955706
-0.0229036
0.00838891
-0.025794
0.00719604
-0.0280136
0.00609457
-0.0297532
0.0051423
-0.0311443
0.00432955
-0.0322712
0.00363567
-0.033208
0.00306886
-0.0340186
0.00262017
-0.0347365
0.00224256
-0.0353704
0.00190066
-0.0359312
0.00160562
-0.0364426
0.0013808
-0.0369235
0.0012118
-0.037369
0.00104978
-0.0377555
0.000865243
-0.038068
0.000691105
-0.0383219
0.000604725
-0.0385559
0.000660511
-0.0388052
0.00084234
-0.0390819
0.00107574
-0.0393744
0.00127312
-0.0396579
0.00137661
-0.0399104
0.00138153
-0.040128
0.00132642
-0.0403283
0.00125047
-0.0405366
0.00116941
0.00111717
-0.00930316
0.0186489
-0.0169423
0.0179785
-0.0223354
0.0149501
-0.0261524
0.0122059
-0.028948
0.00999167
-0.0310206
0.00816714
-0.0326138
0.00673558
-0.0338885
0.00560418
-0.0349135
0.00466074
-0.0357603
0.00391562
-0.0365118
0.00337164
-0.0372032
0.00293402
-0.0378201
0.0025175
-0.0383585
0.00214407
-0.0388521
0.00187436
-0.0393346
0.00169437
-0.0397979
0.00151304
-0.0401975
0.00126483
-0.0405006
0.00099421
-0.0407268
0.000830907
-0.0409369
0.000870654
-0.0411843
0.00108969
-0.0414833
0.00137475
-0.0418124
0.00160222
-0.0421318
0.00169604
-0.0424072
0.00165692
-0.0426327
0.00155191
-0.0428345
0.00145225
-0.0430445
0.00137947
0.00134652
-0.0121864
0.0308353
-0.0213601
0.0271523
-0.0266838
0.0202739
-0.0299406
0.0154627
-0.032323
0.0123741
-0.0340076
0.00985179
-0.0352707
0.00799866
-0.0363308
0.00666429
-0.0371912
0.0055211
-0.0378831
0.00460757
-0.0385324
0.00402091
-0.0391875
0.00358916
-0.0397814
0.00311142
-0.0402754
0.00263803
-0.0407244
0.00232335
-0.041197
0.00216701
-0.0416834
0.00199942
-0.0421022
0.00168366
-0.0423865
0.00127848
-0.0425604
0.00100477
-0.0427239
0.00103422
-0.042961
0.00132671
-0.0432864
0.00170018
-0.0436618
0.00197763
-0.0440258
0.00206005
-0.0443261
0.00195719
-0.0445532
0.00177903
-0.0447478
0.0016468
-0.0449546
0.00158626
0.00157306
-0.0172562
0.0480915
-0.0283176
0.0382137
-0.0328288
0.024785
-0.0342983
0.0169321
-0.0359319
0.0140077
-0.0369414
0.0108612
-0.0376298
0.00868713
-0.0384312
0.00746562
-0.0391376
0.00622757
-0.039598
0.0050679
-0.0400743
0.00449726
-0.0406933
0.00420815
-0.0412747
0.00369281
-0.0417001
0.00306345
-0.0420655
0.00268871
-0.0425186
0.00262019
-0.0430512
0.00253196
-0.0435132
0.00214568
-0.0437735
0.00153873
-0.0438575
0.00108878
-0.0439402
0.00111694
-0.0441573
0.00154378
-0.044518
0.00206095
-0.044955
0.00241465
-0.0453763
0.00248133
-0.0457043
0.00228512
-0.0459228
0.00199759
-0.0460961
0.00182005
-0.0462946
0.00178478
0.00179447
0.207447
0.00576035
0.207034
0.0111753
0.206432
0.0163502
0.205647
0.0213683
0.204688
0.0262943
0.20356
0.0311824
0.202271
0.0360802
0.200825
0.0410295
0.199229
0.0460673
0.197487
0.0512265
0.195606
0.0565375
0.193592
0.0620287
0.191448
0.0677272
0.189181
0.0736607
0.186796
0.0798575
0.184296
0.086349
0.181684
0.0931711
0.178963
0.100367
0.176133
0.10799
0.173191
0.116109
0.170135
0.124817
0.166958
0.134237
0.163658
0.14454
0.160234
0.15597
0.15671
0.16888
0.153182
0.183799
0.150015
0.201523
0.148889
0.222965
0.160611
0.245604
0.258738
0.236256
0.21249
0.00595278
0.212118
0.0115482
0.211574
0.0168939
0.210868
0.0220743
0.210007
0.0271548
0.209
0.03219
0.207853
0.0372274
0.206573
0.0423088
0.20517
0.047471
0.20365
0.0527467
0.202021
0.0581656
0.200294
0.0637556
0.198478
0.0695434
0.196584
0.0755554
0.194622
0.0818192
0.192606
0.0883648
0.190551
0.0952264
0.188473
0.102444
0.186395
0.110068
0.184345
0.11816
0.182363
0.126799
0.18051
0.136089
0.178886
0.146164
0.177662
0.157194
0.17716
0.169382
0.178035
0.182924
0.181705
0.197853
0.190775
0.213895
0.206254
0.230124
0.245614
0.219378
0.217658
0.00612274
0.217329
0.0118772
0.21685
0.0173726
0.21623
0.022694
0.215478
0.0279072
0.214601
0.0330667
0.213609
0.0382197
0.21251
0.0434076
0.211314
0.0486665
0.210033
0.0540283
0.208676
0.059522
0.207258
0.0651739
0.205792
0.0710092
0.204295
0.0770525
0.202785
0.0833291
0.201284
0.0898657
0.199819
0.0966919
0.198421
0.103842
0.197133
0.111356
0.196011
0.119282
0.195133
0.127677
0.194613
0.13661
0.19462
0.146157
0.195418
0.156396
0.197418
0.167382
0.20123
0.179112
0.207624
0.191459
0.217261
0.204258
0.229857
0.217529
0.228691
0.24678
0.222951
0.00626822
0.22267
0.0121586
0.222262
0.0177808
0.221735
0.0232204
0.2211
0.0285429
0.220364
0.0338024
0.219538
0.0390455
0.218633
0.0443127
0.21766
0.0496393
0.216633
0.0550558
0.215565
0.0605896
0.214474
0.0662652
0.213377
0.0721055
0.212298
0.0781321
0.21126
0.0843667
0.210295
0.090831
0.209439
0.0975483
0.208737
0.104544
0.208249
0.111844
0.20805
0.11948
0.208244
0.127483
0.20897
0.135883
0.210423
0.144705
0.212864
0.153954
0.216642
0.163604
0.222174
0.173579
0.229911
0.183722
0.240421
0.193748
0.254621
0.203328
0.210209
0.273103
0.228374
0.00638736
0.228144
0.0123886
0.227811
0.0181134
0.227385
0.0236468
0.226874
0.0290538
0.226289
0.0343877
0.22564
0.0396942
0.22494
0.0450127
0.224203
0.0503768
0.223443
0.0558157
0.222678
0.0613544
0.221928
0.0670151
0.221216
0.0728177
0.220568
0.0787802
0.220015
0.0849194
0.219595
0.0912511
0.219353
0.0977907
0.219343
0.104553
0.219637
0.111551
0.220321
0.118796
0.221508
0.126296
0.223345
0.134047
0.226014
0.142036
0.229747
0.150221
0.234824
0.158528
0.241573
0.16683
0.250372
0.174924
0.261666
0.182454
0.275928
0.189066
0.193675
0.292462
0.233929
0.00647849
0.233754
0.0125642
0.233502
0.0183657
0.233181
0.0239672
0.232802
0.0294327
0.232375
0.0348144
0.231913
0.0401567
0.231428
0.0454974
0.230936
0.0508686
0.230455
0.056297
0.230004
0.0618055
0.229606
0.0674133
0.229287
0.0731368
0.229077
0.0789897
0.229013
0.0849835
0.229137
0.0911275
0.229499
0.0974287
0.23016
0.103891
0.231196
0.110515
0.232697
0.117295
0.234775
0.124218
0.237566
0.131256
0.241233
0.138368
0.24597
0.145484
0.251995
0.152502
0.259552
0.159274
0.268881
0.165595
0.28016
0.171174
0.293485
0.175741
0.178783
0.308377
0.23962
0.0065401
0.239502
0.0126823
0.239334
0.0185336
0.239124
0.0241764
0.238884
0.0296735
0.238622
0.0350756
0.238354
0.0404255
0.238092
0.0457592
0.237854
0.0511066
0.237659
0.0564922
0.237528
0.061936
0.237487
0.0674542
0.237565
0.0730593
0.237794
0.0787604
0.238214
0.0845638
0.238869
0.0904721
0.239814
0.0964842
0.24111
0.102595
0.242833
0.108793
0.245069
0.115059
0.247922
0.121364
0.251512
0.127667
0.255973
0.133907
0.261455
0.140002
0.268115
0.145843
0.276101
0.151288
0.285533
0.156162
0.296457
0.160251
0.308861
0.163338
0.165158
0.322486
0.245448
0.00657094
0.24539
0.0127407
0.24531
0.0186136
0.245216
0.0242702
0.245118
0.0297713
0.245028
0.0351659
0.244959
0.040495
0.244926
0.0457923
0.244947
0.0510855
0.245042
0.0563967
0.245235
0.0617429
0.245553
0.0671369
0.246024
0.0725874
0.246686
0.0780992
0.247576
0.0836731
0.248743
0.0893059
0.250237
0.0949896
0.252121
0.100711
0.254465
0.106449
0.257348
0.112176
0.260859
0.117853
0.265097
0.123429
0.270166
0.128838
0.276172
0.133996
0.283216
0.1388
0.291377
0.143126
0.300704
0.146836
0.311183
0.149771
0.322749
0.151772
0.152709
0.335198
0.251418
0.00656998
0.251422
0.0127373
0.251432
0.018603
0.251457
0.0242451
0.251506
0.0297222
0.251591
0.0350813
0.251725
0.0403612
0.251924
0.0455934
0.252206
0.0508031
0.252593
0.0560096
0.253109
0.0612272
0.25378
0.0664653
0.254639
0.071729
0.255719
0.0770189
0.257061
0.0823313
0.258709
0.0876578
0.260714
0.0929847
0.263132
0.0982925
0.266026
0.103555
0.269464
0.108738
0.273519
0.113798
0.278268
0.118681
0.283785
0.123321
0.29014
0.127641
0.297389
0.13155
0.305566
0.134949
0.314673
0.137729
0.324664
0.13978
0.33544
0.140996
0.14132
0.346829
0.257532
0.00653648
0.257599
0.0126707
0.257702
0.0184999
0.257848
0.0240988
0.258047
0.0295239
0.258308
0.0348197
0.258647
0.0400225
0.259079
0.0451615
0.259622
0.0502596
0.260299
0.0553332
0.261132
0.0603938
0.26215
0.0654478
0.263382
0.0704969
0.264862
0.0755382
0.26663
0.0805641
0.268725
0.0855622
0.271195
0.0905148
0.274089
0.0953985
0.277461
0.100183
0.281365
0.104833
0.28586
0.109303
0.291
0.113541
0.296834
0.117487
0.303402
0.121072
0.310729
0.124223
0.318816
0.126861
0.327637
0.128908
0.337127
0.13029
0.347181
0.130942
0.130843
0.357658
0.263794
0.00646997
0.263925
0.01254
0.264122
0.018303
0.26439
0.0238303
0.264739
0.0291754
0.265178
0.0343803
0.265721
0.039479
0.266385
0.0444983
0.267186
0.0494583
0.268146
0.054373
0.269289
0.0592513
0.27064
0.0640968
0.272228
0.0689083
0.274086
0.0736801
0.276249
0.0784016
0.278753
0.0830577
0.28164
0.0876281
0.284951
0.0920875
0.288729
0.0964049
0.293019
0.100544
0.297859
0.104462
0.303288
0.108112
0.309333
0.111442
0.316012
0.114393
0.323326
0.116909
0.331256
0.118931
0.33976
0.120404
0.348767
0.121283
0.358179
0.12153
0.121145
0.367876
0.270207
0.00637027
0.270402
0.012345
0.270693
0.0180122
0.271083
0.0234394
0.271582
0.028677
0.272198
0.0337645
0.272943
0.0387332
0.273834
0.0436075
0.274887
0.0484051
0.276123
0.0531376
0.277563
0.0578115
0.279231
0.062428
0.281156
0.0669838
0.283365
0.071471
0.28589
0.0758769
0.288762
0.080185
0.292017
0.0843737
0.295687
0.0884174
0.299806
0.0922861
0.304404
0.0959453
0.30951
0.0993569
0.315143
0.102479
0.321316
0.105269
0.328029
0.10768
0.335268
0.10967
0.343002
0.111197
0.351182
0.112225
0.359738
0.112727
0.368582
0.112686
0.112115
0.377613
0.276774
0.00623749
0.277033
0.012086
0.277417
0.017628
0.277929
0.022927
0.278576
0.0280305
0.279365
0.0329749
0.280309
0.0377892
0.281422
0.0424952
0.282719
0.0471082
0.284218
0.051638
0.285941
0.0560889
0.287909
0.0604602
0.290146
0.0647469
0.292677
0.0689396
0.295529
0.0730249
0.298729
0.0769853
0.302303
0.0807996
0.306277
0.0844432
0.310675
0.087888
0.315517
0.0911032
0.320818
0.0940556
0.326587
0.0967106
0.332823
0.099033
0.339515
0.100989
0.346639
0.102546
0.354158
0.103677
0.362021
0.104362
0.370163
0.104585
0.378505
0.104344
0.103656
0.386964
0.283498
0.00607199
0.283821
0.0117636
0.284297
0.0171516
0.284929
0.0222954
0.28572
0.0272388
0.286679
0.0320159
0.287816
0.0366528
0.289142
0.0411691
0.290672
0.0455781
0.292422
0.0498876
0.294411
0.0541001
0.296657
0.0582138
0.299182
0.0622225
0.302005
0.066116
0.30515
0.0698806
0.308636
0.0734993
0.312483
0.0769519
0.316711
0.0802157
0.321333
0.0832656
0.326362
0.0860749
0.331801
0.088616
0.337651
0.090861
0.343901
0.092783
0.350533
0.0943571
0.357517
0.0955617
0.364814
0.09638
0.372375
0.096801
0.380139
0.0968211
0.38804
0.0964435
0.0956888
0.396007
0.290384
0.00587443
0.290768
0.0113791
0.291335
0.0165852
0.292083
0.0215473
0.293015
0.0263062
0.294138
0.030893
0.29546
0.0353315
0.29699
0.0396389
0.298741
0.0438267
0.300728
0.0479011
0.302964
0.0518635
0.305467
0.0557109
0.308253
0.0594365
0.311339
0.0630303
0.314741
0.0664787
0.318474
0.0697659
0.322553
0.0728733
0.326988
0.0757808
0.331787
0.0784667
0.336953
0.0809089
0.342484
0.0830851
0.348371
0.0849737
0.354599
0.086555
0.361144
0.0878119
0.367975
0.0887309
0.375052
0.0893029
0.382328
0.0895246
0.389751
0.0893982
0.397263
0.0889321
0.0881474
0.404804
0.297435
0.00564566
0.297879
0.0109344
0.298533
0.0159313
0.299394
0.0206866
0.300462
0.0252378
0.301742
0.029613
0.30324
0.0338337
0.304964
0.0379152
0.306923
0.0418673
0.309129
0.0456948
0.311595
0.0493981
0.314332
0.0529738
0.317353
0.0564151
0.320671
0.0597121
0.324298
0.0628523
0.328243
0.0658212
0.332513
0.0686026
0.337115
0.0711791
0.342049
0.0735328
0.347312
0.0756457
0.352897
0.0775006
0.358789
0.0790816
0.364969
0.080375
0.371411
0.0813699
0.378083
0.082059
0.384947
0.0824392
0.391959
0.0825118
0.399074
0.0822833
0.406242
0.0817646
0.0809762
0.413413
0.304654
0.00538674
0.305157
0.0104314
0.305895
0.0151932
0.306864
0.0197179
0.308062
0.0240395
0.309492
0.0281835
0.311156
0.0321691
0.313062
0.0360098
0.315215
0.0397139
0.317625
0.0432852
0.320299
0.0467234
0.323248
0.0500251
0.32648
0.0531835
0.330002
0.0561896
0.333822
0.059032
0.337945
0.0616982
0.342374
0.0641743
0.347107
0.0664458
0.352141
0.0684983
0.357469
0.0703178
0.363078
0.0718917
0.368951
0.0732089
0.375065
0.0742604
0.381395
0.0750404
0.387908
0.0755461
0.394569
0.0757784
0.401338
0.075742
0.408176
0.0754456
0.41504
0.0749012
0.0741284
0.421887
0.312046
0.0050989
0.312605
0.00987266
0.313423
0.0143746
0.314495
0.0186461
0.315817
0.0227178
0.317388
0.0266128
0.319209
0.0303478
0.321284
0.0339349
0.323617
0.0373809
0.326213
0.0406891
0.329078
0.0438587
0.332217
0.0468863
0.335634
0.0497657
0.339335
0.0524889
0.343321
0.055046
0.347593
0.0574263
0.352149
0.0596183
0.356984
0.0616104
0.362091
0.0633915
0.367458
0.0649513
0.373069
0.0662807
0.378905
0.0673726
0.384943
0.0682222
0.391157
0.068827
0.397515
0.0691876
0.403986
0.0693078
0.410533
0.0691941
0.417123
0.0688563
0.423717
0.0683069
0.0675638
0.430282
0.319615
0.00478344
0.320227
0.00926068
0.321122
0.0134794
0.322292
0.0174765
0.32373
0.0212797
0.325433
0.0249093
0.327401
0.0283802
0.329633
0.0317027
0.332131
0.0348828
0.334897
0.0379229
0.337934
0.0408224
0.341242
0.0435779
0.344824
0.046184
0.348679
0.0486337
0.352806
0.0509189
0.357202
0.0530306
0.36186
0.0549597
0.366774
0.0566973
0.37193
0.058235
0.377316
0.0595655
0.382914
0.0606832
0.388702
0.0615838
0.394659
0.0622655
0.400757
0.0627287
0.406969
0.0629761
0.413264
0.063013
0.41961
0.0628473
0.425978
0.062489
0.432335
0.0619501
0.0612471
0.438651
0.327365
0.00444174
0.328027
0.00859818
0.328995
0.0125115
0.330257
0.0162148
0.331804
0.0197323
0.333632
0.0230819
0.335736
0.0262766
0.338113
0.0293254
0.340762
0.0322333
0.343683
0.0350023
0.346874
0.0376316
0.350333
0.0401185
0.354059
0.0424582
0.358048
0.0446449
0.362295
0.046672
0.366793
0.0485324
0.371533
0.0502191
0.376505
0.0517253
0.381695