/*--------------------------------*- C++ -*----------------------------------*\
  =========                 |
  \\      /  F ield         | OpenFOAM: The Open Source CFD Toolbox
   \\    /   O peration     | Website:  https://openfoam.org
    \\  /    A nd           | Version:  7
     \\/     M anipulation  |
\*---------------------------------------------------------------------------*/
FoamFile
{
    version     2.0;
    format      ascii;
    class       volVectorField;
    location    "4.1";
    object      U;
}
// * * * * * * * * * * * * * * * * * * * * * * * * * * * * * * * * * * * * * //

dimensions      [0 1 -1 0 0 0 0];

internalField   nonuniform List<vector> 
2790
(
(9.94399 0.0205232 0)
(9.87572 0.0295877 0)
(9.77521 0.0359895 0)
(9.64944 0.0425562 0)
(9.50409 0.0493854 0)
(9.34007 0.0564282 0)
(9.15655 0.0638157 0)
(8.95263 0.0717113 0)
(8.72747 0.0802547 0)
(8.48009 0.0895729 0)
(8.20929 0.0997927 0)
(7.91367 0.111045 0)
(7.59171 0.123459 0)
(7.24181 0.137164 0)
(6.86236 0.152272 0)
(6.45184 0.16887 0)
(6.00893 0.186997 0)
(5.53274 0.206619 0)
(5.02303 0.227591 0)
(4.48052 0.249612 0)
(3.90723 0.272178 0)
(3.30691 0.294527 0)
(2.68537 0.315623 0)
(2.05071 0.334292 0)
(1.41188 0.35061 0)
(0.79811 0.372887 0)
(0.110821 0.325105 0)
(-0.469562 -0.11484 0)
(-0.453766 -0.297172 0)
(-0.231163 -0.423866 0)
(9.9985 0.0407031 0)
(9.98145 0.0623829 0)
(9.93574 0.0791402 0)
(9.86416 0.0966247 0)
(9.77097 0.115124 0)
(9.65715 0.134488 0)
(9.52206 0.154974 0)
(9.36486 0.176942 0)
(9.18472 0.200706 0)
(8.98068 0.226547 0)
(8.75154 0.254742 0)
(8.49591 0.285557 0)
(8.21223 0.319246 0)
(7.89885 0.356019 0)
(7.55408 0.396017 0)
(7.17624 0.43926 0)
(6.76384 0.48559 0)
(6.31572 0.534585 0)
(5.83132 0.58546 0)
(5.31096 0.636954 0)
(4.75624 0.687205 0)
(4.17051 0.73365 0)
(3.55939 0.772958 0)
(2.93165 0.801101 0)
(2.30005 0.813761 0)
(1.69304 0.807268 0)
(1.10724 0.747282 0)
(0.65895 0.547966 0)
(0.186544 0.22467 0)
(-0.00820088 -0.453708 0)
(9.99559 0.0432071 0)
(9.97556 0.0752719 0)
(9.9318 0.103346 0)
(9.8649 0.132371 0)
(9.77778 0.163059 0)
(9.67155 0.195398 0)
(9.54588 0.229741 0)
(9.40014 0.2666 0)
(9.23366 0.306467 0)
(9.04565 0.349803 0)
(8.8351 0.397066 0)
(8.60083 0.448715 0)
(8.34147 0.505185 0)
(8.05553 0.566855 0)
(7.74141 0.634002 0)
(7.39749 0.706721 0)
(7.02216 0.784826 0)
(6.61402 0.867713 0)
(6.17201 0.954185 0)
(5.69572 1.04225 0)
(5.18572 1.12888 0)
(4.64405 1.20979 0)
(4.07489 1.27916 0)
(3.48547 1.32934 0)
(2.88694 1.35011 0)
(2.29956 1.32645 0)
(1.73193 1.22082 0)
(1.21632 0.973058 0)
(0.70119 0.570207 0)
(0.358069 -0.156474 0)
(9.99403 0.0494994 0)
(9.97181 0.0932066 0)
(9.92788 0.133572 0)
(9.86225 0.174209 0)
(9.77693 0.216433 0)
(9.67298 0.26066 0)
(9.55032 0.307428 0)
(9.40849 0.357412 0)
(9.24703 0.411286 0)
(9.06534 0.469699 0)
(8.8627 0.533294 0)
(8.63821 0.602713 0)
(8.39087 0.67858 0)
(8.11955 0.761461 0)
(7.82303 0.851805 0)
(7.50005 0.949857 0)
(7.14929 1.05553 0)
(6.7695 1.16822 0)
(6.35956 1.28659 0)
(5.91867 1.40825 0)
(5.44661 1.52945 0)
(4.94409 1.64467 0)
(4.41326 1.74614 0)
(3.85837 1.82323 0)
(3.28592 1.86139 0)
(2.70649 1.84036 0)
(2.12573 1.72606 0)
(1.55432 1.47794 0)
(0.957989 1.08378 0)
(0.509438 0.502413 0)
(9.99331 0.0572139 0)
(9.96994 0.110959 0)
(9.92593 0.162104 0)
(9.86146 0.213348 0)
(9.77799 0.266356 0)
(9.67635 0.321913 0)
(9.55654 0.380699 0)
(9.41822 0.443484 0)
(9.26098 0.51105 0)
(9.08434 0.584162 0)
(8.88771 0.663577 0)
(8.6704 0.75005 0)
(8.43161 0.844318 0)
(8.17048 0.947065 0)
(7.8861 1.05886 0)
(7.57751 1.18005 0)
(7.24371 1.31066 0)
(6.88366 1.45015 0)
(6.49635 1.59719 0)
(6.0808 1.7493 0)
(5.63624 1.90239 0)
(5.16221 2.0503 0)
(4.65887 2.18417 0)
(4.12731 2.29175 0)
(3.5695 2.35659 0)
(2.98898 2.35737 0)
(2.38691 2.26502 0)
(1.76645 2.04773 0)
(1.09003 1.69151 0)
(0.536669 1.15427 0)
(9.99302 0.065539 0)
(9.96923 0.128702 0)
(9.92556 0.190114 0)
(9.86253 0.251844 0)
(9.78128 0.315578 0)
(9.68244 0.382317 0)
(9.56601 0.452872 0)
(9.43171 0.528097 0)
(9.2792 0.608873 0)
(9.10806 0.696075 0)
(8.91778 0.790566 0)
(8.70775 0.893208 0)
(8.47729 1.00484 0)
(8.22569 1.12623 0)
(7.95217 1.25806 0)
(7.65592 1.40078 0)
(7.33607 1.55451 0)
(6.99169 1.71883 0)
(6.62175 1.89252 0)
(6.22508 2.07319 0)
(5.80036 2.25682 0)
(5.34613 2.43718 0)
(4.86081 2.60518 0)
(4.3428 2.74823 0)
(3.7905 2.84957 0)
(3.20267 2.88825 0)
(2.57666 2.83831 0)
(1.91354 2.67172 0)
(1.17279 2.37413 0)
(0.549988 1.89455 0)
(9.99297 0.0740753 0)
(9.96926 0.146315 0)
(9.92637 0.217484 0)
(9.86508 0.289292 0)
(9.78642 0.363355 0)
(9.69084 0.440826 0)
(9.57835 0.522657 0)
(9.44871 0.609806 0)
(9.30165 0.703247 0)
(9.13678 0.803954 0)
(8.95365 0.912885 0)
(8.75171 1.03099 0)
(8.53035 1.1592 0)
(8.28889 1.29837 0)
(8.02661 1.44926 0)
(7.74272 1.61244 0)
(7.43633 1.78814 0)
(7.10645 1.97612 0)
(6.75186 2.17536 0)
(6.37108 2.38377 0)
(5.96219 2.5977 0)
(5.52273 2.81135 0)
(5.04963 3.01613 0)
(4.53912 3.19997 0)
(3.98677 3.34671 0)
(3.38802 3.43602 0)
(2.73735 3.4434 0)
(2.03632 3.34162 0)
(1.2418 3.11373 0)
(0.563538 2.69332 0)
(9.99306 0.0825886 0)
(9.96981 0.163607 0)
(9.92807 0.244051 0)
(9.86885 0.32548 0)
(9.79312 0.409446 0)
(9.70126 0.497205 0)
(9.59323 0.589836 0)
(9.46888 0.68839 0)
(9.32796 0.793931 0)
(9.17014 0.907517 0)
(8.99502 1.0302 0)
(8.80211 1.16301 0)
(8.59082 1.30698 0)
(8.36052 1.46306 0)
(8.11046 1.63211 0)
(7.83983 1.81483 0)
(7.54764 2.01162 0)
(7.23272 2.22246 0)
(6.89356 2.44668 0)
(6.52824 2.68263 0)
(6.13418 2.9273 0)
(5.70795 3.17573 0)
(5.24508 3.42034 0)
(4.73991 3.65019 0)
(4.18561 3.85026 0)
(3.57489 4.00095 0)
(2.89964 4.07801 0)
(2.16221 4.05253 0)
(1.31618 3.90189 0)
(0.583247 3.54036 0)
(9.99326 0.090929 0)
(9.97072 0.18041 0)
(9.93046 0.269669 0)
(9.87362 0.360243 0)
(9.80118 0.453647 0)
(9.71343 0.551209 0)
(9.61037 0.654109 0)
(9.49188 0.76349 0)
(9.35775 0.880495 0)
(9.20773 1.00627 0)
(9.04145 1.14194 0)
(8.85848 1.28864 0)
(8.65827 1.44749 0)
(8.44022 1.61955 0)
(8.20359 1.80582 0)
(7.94748 2.00716 0)
(7.67081 2.22419 0)
(7.37221 2.45721 0)
(7.04985 2.70599 0)
(6.70134 2.9695 0)
(6.32344 3.2456 0)
(5.91176 3.53048 0)
(5.46049 3.81803 0)
(4.96215 4.09897 0)
(4.40756 4.35988 0)
(3.78655 4.58216 0)
(3.08771 4.74119 0)
(2.31282 4.80463 0)
(1.41072 4.74131 0)
(0.614343 4.44218 0)
(9.99352 0.0989931 0)
(9.9719 0.196581 0)
(9.9334 0.294197 0)
(9.87924 0.393418 0)
(9.8104 0.495756 0)
(9.72716 0.602588 0)
(9.62953 0.715179 0)
(9.51741 0.834756 0)
(9.39068 0.962534 0)
(9.24912 1.09973 0)
(9.09245 1.24757 0)
(8.92027 1.40727 0)
(8.73213 1.58003 0)
(8.52742 1.76706 0)
(8.30544 1.96951 0)
(8.06527 2.18842 0)
(7.80575 2.42473 0)
(7.52533 2.67909 0)
(7.22196 2.95184 0)
(6.89284 3.24274 0)
(6.53412 3.55071 0)
(6.14059 3.87342 0)
(5.70519 4.20665 0)
(5.21864 4.54335 0)
(4.66917 4.87244 0)
(4.04305 5.17703 0)
(3.32386 5.43244 0)
(2.50991 5.60217 0)
(1.54197 5.64377 0)
(0.664103 5.41836 0)
(9.99384 0.106705 0)
(9.9733 0.212002 0)
(9.93679 0.317505 0)
(9.88558 0.424858 0)
(9.82063 0.53559 0)
(9.74225 0.65112 0)
(9.65044 0.772785 0)
(9.54517 0.901879 0)
(9.42637 1.03969 0)
(9.29389 1.1875 0)
(9.14752 1.34661 0)
(8.98693 1.51832 0)
(8.81174 1.70395 0)
(8.62143 1.90482 0)
(8.41532 2.12225 0)
(8.19253 2.35753 0)
(7.9519 2.61189 0)
(7.69182 2.88646 0)
(7.41009 3.18219 0)
(7.1037 3.49976 0)
(6.76843 3.83938 0)
(6.39845 4.20045 0)
(5.9857 4.5811 0)
(5.51926 4.97728 0)
(4.98458 5.38131 0)
(4.36348 5.77961 0)
(3.63212 6.14927 0)
(2.78032 6.4509 0)
(1.73359 6.62885 0)
(0.744898 6.5035 0)
(9.9942 0.114007 0)
(9.97487 0.226577 0)
(9.94055 0.339476 0)
(9.89251 0.454426 0)
(9.83173 0.572985 0)
(9.7585 0.696609 0)
(9.67288 0.826691 0)
(9.57487 0.964587 0)
(9.46447 1.11164 0)
(9.34161 1.2692 0)
(9.20614 1.43863 0)
(9.05785 1.62131 0)
(8.89643 1.81865 0)
(8.72146 2.03211 0)
(8.53237 2.26317 0)
(8.32836 2.51337 0)
(8.10836 2.78426 0)
(7.87083 3.07747 0)
(7.61364 3.39462 0)
(7.33379 3.73737 0)
(7.027 4.10733 0)
(6.68726 4.50591 0)
(6.30603 4.93401 0)
(5.87126 5.39137 0)
(5.36599 5.87532 0)
(4.76714 6.37827 0)
(4.04098 6.88335 0)
(3.16172 7.35377 0)
(2.02494 7.72362 0)
(0.880833 7.75764 0)
(9.99459 0.120855 0)
(9.97657 0.240227 0)
(9.94461 0.360011 0)
(9.89995 0.482004 0)
(9.84355 0.607798 0)
(9.77575 0.738884 0)
(9.69661 0.876696 0)
(9.60622 1.02264 0)
(9.50462 1.17811 0)
(9.39183 1.3445 0)
(9.2678 1.52323 0)
(9.1324 1.71575 0)
(8.98546 1.92357 0)
(8.82667 2.14824 0)
(8.65561 2.39142 0)
(8.47166 2.65485 0)
(8.27392 2.94044 0)
(8.06108 3.25024 0)
(7.83128 3.58657 0)
(7.58183 3.95204 0)
(7.30885 4.3497 0)
(7.00674 4.78301 0)
(6.66734 5.25596 0)
(6.27865 5.77283 0)
(5.82268 6.33761 0)
(5.27276 6.9524 0)
(4.58486 7.61374 0)
(3.71032 8.30121 0)
(2.48849 8.95875 0)
(1.12465 9.294 0)
(9.99501 0.127213 0)
(9.97838 0.252888 0)
(9.94891 0.379025 0)
(9.90779 0.507491 0)
(9.85598 0.639912 0)
(9.79381 0.777804 0)
(9.72141 0.922638 0)
(9.63892 1.07585 0)
(9.54645 1.23888 0)
(9.44411 1.41316 0)
(9.33193 1.60014 0)
(9.20992 1.80133 0)
(9.07803 2.01829 0)
(8.93612 2.2527 0)
(8.78395 2.50632 0)
(8.62114 2.7811 0)
(8.44707 3.07919 0)
(8.2608 3.40308 0)
(8.06095 3.75564 0)
(7.84546 4.14036 0)
(7.61134 4.56152 0)
(7.35414 5.02453 0)
(7.06724 5.53635 0)
(6.74056 6.10598 0)
(6.35814 6.74511 0)
(5.89438 7.46885 0)
(5.30119 8.29637 0)
(4.50937 9.24824 0)
(3.26934 10.3425 0)
(1.60534 11.3604 0)
(9.99545 0.133053 0)
(9.98026 0.264508 0)
(9.95339 0.396447 0)
(9.91595 0.530794 0)
(9.86887 0.669204 0)
(9.81252 0.813216 0)
(9.74706 0.964323 0)
(9.6727 1.12399 0)
(9.58961 1.29367 0)
(9.49799 1.47483 0)
(9.398 1.66893 0)
(9.28975 1.87754 0)
(9.17334 2.10225 0)
(9.04883 2.34479 0)
(8.9162 2.60702 0)
(8.77535 2.89103 0)
(8.62603 3.19917 0)
(8.4678 3.53419 0)
(8.29992 3.8994 0)
(8.12127 4.2989 0)
(7.93014 4.7379 0)
(7.72398 5.22326 0)
(7.49895 5.76419 0)
(7.24917 6.37352 0)
(6.96515 7.0697 0)
(6.63137 7.88057 0)
(6.21505 8.85161 0)
(5.66676 10.0659 0)
(4.69134 11.7316 0)
(2.68831 14.5946 0)
(0.12649 -0.128869 0)
(0.294912 -0.116803 0)
(0.46888 -0.0932874 0)
(0.617181 -0.0716501 0)
(0.735377 -0.0542462 0)
(0.82867 -0.0407412 0)
(0.903166 -0.0304252 0)
(0.963619 -0.0226729 0)
(1.01355 -0.0169522 0)
(1.05569 -0.0128054 0)
(1.09221 -0.00984419 0)
(1.12475 -0.00773565 0)
(1.15446 -0.00618643 0)
(1.18198 -0.00493628 0)
(1.20752 -0.00376793 0)
(1.23086 -0.00253111 0)
(1.25153 -0.00116532 0)
(1.26903 0.000308235 0)
(1.28296 0.00184934 0)
(1.29303 0.00348485 0)
(1.29884 0.00528467 0)
(1.29993 0.00714223 0)
(1.29588 0.00876825 0)
(1.28656 0.00994183 0)
(1.27337 0.010271 0)
(1.25896 0.0095663 0)
(1.24601 0.0080492 0)
(1.2362 0.00601252 0)
(1.23026 0.00361148 0)
(1.23017 0.000633854 0)
(0.104364 -0.292101 0)
(0.266565 -0.274448 0)
(0.42616 -0.225679 0)
(0.56463 -0.179309 0)
(0.678779 -0.14184 0)
(0.773238 -0.112743 0)
(0.852968 -0.0905011 0)
(0.921697 -0.0737505 0)
(0.982147 -0.0613297 0)
(1.0364 -0.0522501 0)
(1.08611 -0.0456801 0)
(1.13252 -0.0409108 0)
(1.17656 -0.0373184 0)
(1.21881 -0.034348 0)
(1.25956 -0.0315316 0)
(1.29879 -0.0285387 0)
(1.33629 -0.025232 0)
(1.37179 -0.0216706 0)
(1.40507 -0.0179968 0)
(1.43617 -0.0142368 0)
(1.46516 -0.0102251 0)
(1.49164 -0.00585333 0)
(1.51459 -0.0014551 0)
(1.53347 0.00221294 0)
(1.54853 0.00434666 0)
(1.56127 0.00487248 0)
(1.5737 0.0041144 0)
(1.58708 0.00253049 0)
(1.60189 0.000389856 0)
(1.6204 -0.0015773 0)
(0.0801377 -0.456329 0)
(0.216438 -0.429664 0)
(0.340207 -0.355948 0)
(0.447249 -0.286061 0)
(0.534785 -0.229894 0)
(0.607595 -0.186237 0)
(0.669465 -0.152715 0)
(0.723076 -0.127243 0)
(0.770397 -0.108099 0)
(0.812957 -0.0938541 0)
(0.851969 -0.0833216 0)
(0.888379 -0.0754926 0)
(0.922895 -0.0694808 0)
(0.955997 -0.0644967 0)
(0.987945 -0.0598635 0)
(1.01878 -0.0550847 0)
(1.04833 -0.0499364 0)
(1.0763 -0.0445116 0)
(1.10248 -0.0390973 0)
(1.12693 -0.0338402 0)
(1.15009 -0.0283778 0)
(1.17244 -0.021997 0)
(1.19378 -0.0146823 0)
(1.21308 -0.00810255 0)
(1.22939 -0.00437309 0)
(1.24258 -0.00400174 0)
(1.25348 -0.00623729 0)
(1.26269 -0.00977701 0)
(1.27031 -0.0134124 0)
(1.27972 -0.0143784 0)
(0.057322 -0.581311 0)
(0.160726 -0.539763 0)
(0.24114 -0.443752 0)
(0.311202 -0.355614 0)
(0.36576 -0.286204 0)
(0.410875 -0.232632 0)
(0.44874 -0.191595 0)
(0.480921 -0.160358 0)
(0.508627 -0.136779 0)
(0.532828 -0.119136 0)
(0.554301 -0.106011 0)
(0.57367 -0.0962028 0)
(0.59143 -0.0886552 0)
(0.607973 -0.0824294 0)
(0.623593 -0.0767068 0)
(0.638465 -0.0708525 0)
(0.652539 -0.0645306 0)
(0.665519 -0.0578052 0)
(0.676838 -0.0510959 0)
(0.686246 -0.044865 0)
(0.694293 -0.0392009 0)
(0.702473 -0.0336301 0)
(0.711383 -0.02747 0)
(0.718968 -0.0207863 0)
(0.72162 -0.0143558 0)
(0.717641 -0.00907832 0)
(0.70814 -0.00517089 0)
(0.694442 -0.00345451 0)
(0.677918 -0.00460789 0)
(0.656879 -0.0059159 0)
(0.0339737 -0.669467 0)
(0.0985295 -0.607849 0)
(0.13018 -0.492592 0)
(0.160515 -0.391831 0)
(0.177856 -0.314181 0)
(0.191117 -0.254591 0)
(0.200153 -0.208962 0)
(0.205789 -0.174115 0)
(0.208656 -0.14768 0)
(0.209311 -0.127791 0)
(0.208186 -0.112921 0)
(0.205626 -0.101787 0)
(0.201966 -0.0932609 0)
(0.197559 -0.0863286 0)
(0.192766 -0.0800882 0)
(0.187956 -0.0737855 0)
(0.183225 -0.066919 0)
(0.1785 -0.0593659 0)
(0.172649 -0.051397 0)
(0.164726 -0.0433946 0)
(0.15285 -0.0353072 0)
(0.138491 -0.0265517 0)
(0.120868 -0.0168103 0)
(0.10401 -0.00750681 0)
(0.0882536 -0.000619222 0)
(0.0752844 0.00304847 0)
(0.069205 0.00447876 0)
(0.0656024 0.00382356 0)
(0.0629159 0.00149888 0)
(0.0505605 -0.00734112 0)
(0.00905345 -0.714763 0)
(0.0295554 -0.629039 0)
(0.00999262 -0.497662 0)
(-0.00197094 -0.389128 0)
(-0.0243413 -0.306872 0)
(-0.0463609 -0.244646 0)
(-0.0701968 -0.19731 0)
(-0.0948528 -0.161441 0)
(-0.119927 -0.134443 0)
(-0.14502 -0.11428 0)
(-0.169877 -0.0993236 0)
(-0.194299 -0.0882333 0)
(-0.218087 -0.0798322 0)
(-0.241059 -0.0730738 0)
(-0.26304 -0.0670921 0)
(-0.283785 -0.0612086 0)
(-0.302966 -0.0549503 0)
(-0.320259 -0.0480782 0)
(-0.335511 -0.0406136 0)
(-0.34883 -0.0328144 0)
(-0.3606 -0.0250149 0)
(-0.370986 -0.0175076 0)
(-0.380308 -0.010666 0)
(-0.389256 -0.00482975 0)
(-0.397986 -0.000886468 0)
(-0.405465 0.00109183 0)
(-0.412007 0.00222631 0)
(-0.417876 0.00320932 0)
(-0.424183 0.0025898 0)
(-0.431291 -0.00178251 0)
(-0.0196408 -0.710279 0)
(-0.0479272 -0.597052 0)
(-0.117173 -0.457269 0)
(-0.174071 -0.349778 0)
(-0.235261 -0.267897 0)
(-0.293945 -0.207135 0)
(-0.349775 -0.161935 0)
(-0.401862 -0.128507 0)
(-0.449812 -0.104091 0)
(-0.493463 -0.0865617 0)
(-0.532909 -0.074178 0)
(-0.568454 -0.0655294 0)
(-0.600492 -0.0594131 0)
(-0.629439 -0.0547846 0)
(-0.655655 -0.0508467 0)
(-0.67932 -0.047018 0)
(-0.700417 -0.0428787 0)
(-0.718835 -0.0381247 0)
(-0.734563 -0.0325639 0)
(-0.747845 -0.0261706 0)
(-0.759163 -0.0191105 0)
(-0.76906 -0.0116708 0)
(-0.778065 -0.00436781 0)
(-0.787246 0.00186188 0)
(-0.794665 0.00597562 0)
(-0.802391 0.00797563 0)
(-0.809798 0.00851538 0)
(-0.816762 0.0074715 0)
(-0.823326 0.00405545 0)
(-0.827368 -0.000944733 0)
(-0.054457 -0.651488 0)
(-0.132196 -0.517896 0)
(-0.248702 -0.378247 0)
(-0.348698 -0.273471 0)
(-0.446089 -0.197166 0)
(-0.534891 -0.143367 0)
(-0.614116 -0.105784 0)
(-0.683614 -0.0796944 0)
(-0.744055 -0.061925 0)
(-0.796573 -0.0503081 0)
(-0.842276 -0.0430375 0)
(-0.882237 -0.0387058 0)
(-0.917387 -0.0361815 0)
(-0.948534 -0.0345188 0)
(-0.976371 -0.0330874 0)
(-1.00133 -0.0315049 0)
(-1.02355 -0.0295199 0)
(-1.04299 -0.0268992 0)
(-1.05965 -0.0233737 0)
(-1.0738 -0.0187241 0)
(-1.08598 -0.0129506 0)
(-1.09687 -0.00641463 0)
(-1.10717 6.09387e-05 0)
(-1.11572 0.00539461 0)
(-1.12407 0.00907946 0)
(-1.13232 0.01112 0)
(-1.14044 0.0118027 0)
(-1.1486 0.0109433 0)
(-1.15639 0.0078362 0)
(-1.1611 0.00377612 0)
(-0.096051 -0.535269 0)
(-0.22596 -0.389614 0)
(-0.392077 -0.259661 0)
(-0.530352 -0.168723 0)
(-0.655681 -0.105554 0)
(-0.765243 -0.0636477 0)
(-0.859495 -0.037377 0)
(-0.939728 -0.0219542 0)
(-1.00558 -0.0140346 0)
(-1.06054 -0.0104325 0)
(-1.10718 -0.00943156 0)
(-1.14756 -0.00998679 0)
(-1.18313 -0.0113451 0)
(-1.21509 -0.0129089 0)
(-1.24368 -0.0142099 0)
(-1.26939 -0.0149915 0)
(-1.2924 -0.0151981 0)
(-1.31263 -0.0146934 0)
(-1.33004 -0.013114 0)
(-1.3449 -0.010043 0)
(-1.35789 -0.00539765 0)
(-1.36982 0.00029579 0)
(-1.38018 0.0060165 0)
(-1.3901 0.0108148 0)
(-1.39986 0.0141369 0)
(-1.40936 0.0158295 0)
(-1.4187 0.0161049 0)
(-1.42814 0.0148741 0)
(-1.43685 0.0117867 0)
(-1.44159 0.00827854 0)
(-0.150716 -0.359124 0)
(-0.346269 -0.215292 0)
(-0.579994 -0.0990531 0)
(-0.766331 -0.0232426 0)
(-0.913666 0.0148878 0)
(-1.03002 0.0325241 0)
(-1.12176 0.0383821 0)
(-1.19471 0.0375102 0)
(-1.25528 0.0336233 0)
(-1.30603 0.0285199 0)
(-1.34924 0.0230735 0)
(-1.38655 0.0176254 0)
(-1.41913 0.0124135 0)
(-1.44781 0.0077492 0)
(-1.47388 0.00399302 0)
(-1.49792 0.00114745 0)
(-1.52 -0.00101287 0)
(-1.5398 -0.00250481 0)
(-1.55707 -0.00288349 0)
(-1.57192 -0.00150031 0)
(-1.58483 0.00190979 0)
(-1.59637 0.00684206 0)
(-1.60776 0.0122393 0)
(-1.61927 0.0168996 0)
(-1.63059 0.0199729 0)
(-1.64139 0.021289 0)
(-1.65173 0.0211227 0)
(-1.66196 0.0195491 0)
(-1.67108 0.0165249 0)
(-1.6757 0.0134675 0)
(-0.23015 -0.106659 0)
(-0.485445 0.0624885 0)
(-0.738414 0.120512 0)
(-0.926143 0.133739 0)
(-1.07717 0.131528 0)
(-1.19743 0.121072 0)
(-1.29368 0.107203 0)
(-1.37131 0.0924369 0)
(-1.4346 0.078082 0)
(-1.48704 0.0650281 0)
(-1.53156 0.0536278 0)
(-1.57012 0.0436126 0)
(-1.6039 0.0347657 0)
(-1.63375 0.0273151 0)
(-1.6606 0.0214619 0)
(-1.68523 0.0169173 0)
(-1.70777 0.0130586 0)
(-1.7277 0.00962669 0)
(-1.74455 0.0072081 0)
(-1.7586 0.00687147 0)
(-1.77097 0.00923396 0)
(-1.78299 0.0138272 0)
(-1.7955 0.0192388 0)
(-1.80849 0.0238389 0)
(-1.82131 0.0265517 0)
(-1.83332 0.0272397 0)
(-1.84453 0.0263989 0)
(-1.85535 0.0244162 0)
(-1.86477 0.0214986 0)
(-1.86934 0.0188747 0)
(-0.28492 0.28551 0)
(-0.568063 0.3438 0)
(-0.853083 0.331647 0)
(-1.06412 0.297649 0)
(-1.22695 0.257738 0)
(-1.35188 0.21817 0)
(-1.44904 0.182473 0)
(-1.52598 0.15149 0)
(-1.58789 0.125006 0)
(-1.63879 0.10316 0)
(-1.68214 0.0856188 0)
(-1.72014 0.0710484 0)
(-1.75365 0.058362 0)
(-1.78321 0.0476671 0)
(-1.80993 0.0394089 0)
(-1.83492 0.0331241 0)
(-1.8583 0.0275549 0)
(-1.87907 0.02198 0)
(-1.89621 0.0171992 0)
(-1.90993 0.014995 0)
(-1.92184 0.0165054 0)
(-1.9339 0.0211361 0)
(-1.94723 0.0269125 0)
(-1.96166 0.0316385 0)
(-1.97608 0.0339424 0)
(-1.98936 0.0337653 0)
(-2.00136 0.0319991 0)
(-2.01263 0.0294971 0)
(-2.02223 0.0266663 0)
(-2.02676 0.024419 0)
(-0.338475 0.687485 0)
(-0.681425 0.681869 0)
(-1.00709 0.577267 0)
(-1.22751 0.473334 0)
(-1.38773 0.386091 0)
(-1.50602 0.312733 0)
(-1.59565 0.253767 0)
(-1.66601 0.207007 0)
(-1.7223 0.168966 0)
(-1.7683 0.138841 0)
(-1.80807 0.116076 0)
(-1.84413 0.0978626 0)
(-1.87653 0.0816408 0)
(-1.90495 0.0676186 0)
(-1.93062 0.0570728 0)
(-1.95538 0.0495055 0)
(-1.97948 0.0426016 0)
(-2.00108 0.0347552 0)
(-2.01814 0.0270562 0)
(-2.03069 0.0225267 0)
(-2.0412 0.0232629 0)
(-2.05268 0.0284588 0)
(-2.06669 0.0351836 0)
(-2.08276 0.0403723 0)
(-2.09906 0.0422473 0)
(-2.11377 0.0409059 0)
(-2.12647 0.0378773 0)
(-2.13794 0.0347044 0)
(-2.14754 0.0319525 0)
(-2.152 0.0300486 0)
(-0.446096 1.18967 0)
(-0.876136 1.08117 0)
(-1.23134 0.838334 0)
(-1.43144 0.639106 0)
(-1.56673 0.502285 0)
(-1.66436 0.394134 0)
(-1.73602 0.314015 0)
(-1.79314 0.255791 0)
(-1.83983 0.208277 0)
(-1.87761 0.169891 0)
(-1.91126 0.14275 0)
(-1.94432 0.122383 0)
(-1.97523 0.103225 0)
(-2.00162 0.085821 0)
(-2.02492 0.0734174 0)
(-2.04861 0.0657708 0)
(-2.07347 0.0585682 0)
(-2.09625 0.0484475 0)
(-2.11302 0.0369143 0)
(-2.1234 0.0291962 0)
(-2.13127 0.0292077 0)
(-2.14144 0.035735 0)
(-2.15611 0.0442187 0)
(-2.17425 0.0502976 0)
(-2.19292 0.0516729 0)
(-2.20929 0.0487083 0)
(-2.2225 0.0439002 0)
(-2.23377 0.0398345 0)
(-2.24308 0.0372003 0)
(-2.24742 0.0356326 0)
(-0.662266 2.13656 0)
(-1.19265 1.72254 0)
(-1.56684 1.12904 0)
(-1.692 0.734505 0)
(-1.76444 0.580907 0)
(-1.8258 0.457619 0)
(-1.86646 0.364536 0)
(-1.90437 0.29968 0)
(-1.94071 0.240999 0)
(-1.96793 0.190951 0)
(-1.9919 0.162705 0)
(-2.02077 0.146293 0)
(-2.05051 0.126774 0)
(-2.07412 0.105189 0)
(-2.09325 0.0898179 0)
(-2.11488 0.0826219 0)
(-2.14123 0.0756724 0)
(-2.1665 0.0624406 0)
(-2.1832 0.0451019 0)
(-2.19002 0.0327077 0)
(-2.1934 0.0323656 0)
(-2.20128 0.0418709 0)
(-2.21672 0.0536436 0)
(-2.23764 0.0614158 0)
(-2.25944 0.0623202 0)
(-2.27777 0.057157 0)
(-2.29119 0.049837 0)
(-2.30161 0.0445875 0)
(-2.31026 0.0422655 0)
(-2.31441 0.0411128 0)
(9.9959 0.138448 0)
(9.98225 0.275243 0)
(9.9581 0.412531 0)
(9.92453 0.55228 0)
(9.88241 0.696167 0)
(9.83215 0.845745 0)
(9.77397 1.00252 0)
(9.70813 1.16797 0)
(9.63489 1.34355 0)
(9.55455 1.53073 0)
(9.46736 1.73101 0)
(9.37359 1.94592 0)
(9.27351 2.1771 0)
(9.16738 2.4263 0)
(9.05543 2.69541 0)
(8.93791 2.98659 0)
(8.81499 3.30227 0)
(8.68681 3.64536 0)
(8.55345 4.01936 0)
(8.41491 4.42866 0)
(8.27112 4.87889 0)
(8.12197 5.37751 0)
(7.96741 5.9347 0)
(7.80772 6.56481 0)
(7.64411 7.28892 0)
(7.4816 8.13963 0)
(7.3335 9.17093 0)
(7.29001 10.4764 0)
(7.74973 12.201 0)
(7.93457 14.9204 0)
(9.99638 0.143408 0)
(9.98434 0.285098 0)
(9.96305 0.42726 0)
(9.93351 0.571891 0)
(9.89655 0.720684 0)
(9.8526 0.875195 0)
(9.80195 1.03693 0)
(9.7449 1.20737 0)
(9.68181 1.38797 0)
(9.61305 1.58019 0)
(9.53902 1.7855 0)
(9.46013 2.00543 0)
(9.37682 2.2416 0)
(9.28957 2.49572 0)
(9.19889 2.76969 0)
(9.10538 3.06563 0)
(9.00967 3.38595 0)
(8.91252 3.7335 0)
(8.81486 4.11174 0)
(8.71785 4.52492 0)
(8.62311 4.97847 0)
(8.533 5.47941 0)
(8.45126 6.03705 0)
(8.38414 6.66399 0)
(8.34284 7.37744 0)
(8.34946 8.2008 0)
(8.4429 9.16419 0)
(8.67913 10.3008 0)
(9.32707 11.5552 0)
(9.81866 12.642 0)
(9.99688 0.147846 0)
(9.9865 0.293911 0)
(9.96818 0.440412 0)
(9.94282 0.589363 0)
(9.9112 0.742459 0)
(9.87375 0.901252 0)
(9.83083 1.06724 0)
(9.7828 1.24187 0)
(9.73009 1.4266 0)
(9.67318 1.62283 0)
(9.61257 1.83202 0)
(9.54882 2.05564 0)
(9.48254 2.29526 0)
(9.41443 2.55252 0)
(9.3453 2.82924 0)
(9.27606 3.12741 0)
(9.20782 3.4493 0)
(9.1419 3.79754 0)
(9.08001 4.17526 0)
(9.02435 4.58621 0)
(8.97794 5.03499 0)
(8.94508 5.52728 0)
(8.93204 6.07004 0)
(8.94836 6.67168 0)
(9.00854 7.3416 0)
(9.13473 8.08844 0)
(9.35794 8.91402 0)
(9.68764 9.80713 0)
(10.2535 10.7162 0)
(10.9413 11.431 0)
(9.9974 0.151708 0)
(9.98873 0.301574 0)
(9.97346 0.45182 0)
(9.95238 0.604464 0)
(9.92621 0.761192 0)
(9.89542 0.92354 0)
(9.86038 1.09298 0)
(9.82154 1.27094 0)
(9.77937 1.4588 0)
(9.73446 1.65796 0)
(9.6874 1.86979 0)
(9.6389 2.0957 0)
(9.58973 2.33714 0)
(9.54081 2.59567 0)
(9.49316 2.87293 0)
(9.44803 3.17072 0)
(9.40691 3.49105 0)
(9.37162 3.83618 0)
(9.34446 4.20869 0)
(9.3284 4.61154 0)
(9.32737 5.04814 0)
(9.34669 5.52233 0)
(9.39358 6.03822 0)
(9.47797 6.59977 0)
(9.61305 7.20974 0)
(9.81565 7.86777 0)
(10.1085 8.56674 0)
(10.5003 9.29194 0)
(11.0578 10.0332 0)
(11.8508 10.6773 0)
(9.99792 0.154948 0)
(9.99101 0.307994 0)
(9.97884 0.461349 0)
(9.96211 0.617018 0)
(9.94148 0.776665 0)
(9.91743 0.941799 0)
(9.89036 1.11385 0)
(9.86077 1.29421 0)
(9.82922 1.4842 0)
(9.79634 1.68514 0)
(9.76284 1.89833 0)
(9.72953 2.12506 0)
(9.69734 2.36668 0)
(9.66735 2.62456 0)
(9.6408 2.90015 0)
(9.61917 3.19498 0)
(9.60426 3.51071 0)
(9.59823 3.8491 0)
(9.60379 4.21209 0)
(9.62431 4.60171 0)
(9.66411 5.02006 0)
(9.72873 5.46915 0)
(9.82524 5.95059 0)
(9.96259 6.46507 0)
(10.1518 7.0115 0)
(10.406 7.58598 0)
(10.7425 8.18038 0)
(11.1728 8.78001 0)
(11.7199 9.37326 0)
(12.4727 9.88528 0)
(9.99845 0.157523 0)
(9.9933 0.313086 0)
(9.98426 0.468873 0)
(9.97193 0.626858 0)
(9.95688 0.788674 0)
(9.93959 0.955788 0)
(9.92051 1.12958 0)
(9.90017 1.31138 0)
(9.87918 1.50246 0)
(9.85824 1.70402 0)
(9.83815 1.91726 0)
(9.8198 2.14337 0)
(9.80424 2.38351 0)
(9.79267 2.63887 0)
(9.78648 2.91065 0)
(9.78734 3.20007 0)
(9.79722 3.50838 0)
(9.81848 3.83682 0)
(9.85397 4.18662 0)
(9.90721 4.55888 0)
(9.98245 4.95452 0)
(10.0849 5.37399 0)
(10.221 5.81704 0)
(10.3982 6.2822 0)
(10.6253 6.76621 0)
(10.9119 7.26328 0)
(11.2694 7.7642 0)
(11.7057 8.25339 0)
(12.2215 8.71416 0)
(12.897 9.10502 0)
(9.99898 0.159393 0)
(9.9956 0.316773 0)
(9.9897 0.474278 0)
(9.98175 0.633837 0)
(9.97226 0.797039 0)
(9.9617 0.965297 0)
(9.95055 1.13994 0)
(9.93936 1.32221 0)
(9.9288 1.51329 0)
(9.91959 1.7143 0)
(9.9126 1.9263 0)
(9.90879 2.15034 0)
(9.90928 2.38741 0)
(9.91536 2.63847 0)
(9.92852 2.90445 0)
(9.95049 3.18624 0)
(9.98332 3.48466 0)
(10.0294 3.80043 0)
(10.0916 4.13411 0)
(10.1732 4.48599 0)
(10.2782 4.85598 0)
(10.4112 5.24336 0)
(10.5775 5.64657 0)
(10.783 6.06278 0)
(11.0341 6.4875 0)
(11.3373 6.91406 0)
(11.6985 7.33308 0)
(12.1221 7.73116 0)
(12.6017 8.09373 0)
(13.2067 8.40029 0)
(9.99951 0.160525 0)
(9.99788 0.318989 0)
(9.99509 0.477466 0)
(9.99149 0.637829 0)
(9.98751 0.801608 0)
(9.98358 0.970155 0)
(9.98022 1.14472 0)
(9.978 1.32648 0)
(9.9776 1.5165 0)
(9.97979 1.71579 0)
(9.98544 1.9253 0)
(9.99559 2.14589 0)
(10.0114 2.37837 0)
(10.0341 2.62347 0)
(10.0653 2.88185 0)
(10.1067 3.15407 0)
(10.1604 3.44054 0)
(10.2285 3.74149 0)
(10.3139 4.0569 0)
(10.4194 4.3864 0)
(10.5486 4.72913 0)
(10.7052 5.08355 0)
(10.8934 5.44729 0)
(11.1175 5.81681 0)
(11.3819 6.18722 0)
(11.6901 6.55195 0)
(12.0452 6.90274 0)
(12.4486 7.22926 0)
(12.8926 7.52039 0)
(13.4353 7.76481 0)
(10 0.16089 0)
(10.0001 0.319679 0)
(10.0004 0.478359 0)
(10.0011 0.638733 0)
(10.0025 0.802264 0)
(10.005 0.970232 0)
(10.0093 1.14381 0)
(10.0157 1.32406 0)
(10.0251 1.51198 0)
(10.0383 1.70843 0)
(10.056 1.91422 0)
(10.0793 2.13006 0)
(10.1094 2.35655 0)
(10.1476 2.59421 0)
(10.1954 2.84343 0)
(10.2544 3.10445 0)
(10.3265 3.37732 0)
(10.4138 3.66187 0)
(10.5187 3.9576 0)
(10.6439 4.26363 0)
(10.792 4.57858 0)
(10.9661 4.90043 0)
(11.1692 5.22639 0)
(11.4043 5.55274 0)
(11.6739 5.87473 0)
(11.9799 6.18652 0)
(12.3231 6.48124 0)
(12.7033 6.75106 0)
(13.1128 6.98764 0)
(13.6003 7.18414 0)
(10.0005 0.160468 0)
(10.0023 0.3188 0)
(10.0056 0.476896 0)
(10.0104 0.636475 0)
(10.017 0.798924 0)
(10.0259 0.965442 0)
(10.0374 1.13711 0)
(10.0522 1.31491 0)
(10.071 1.49969 0)
(10.0945 1.69222 0)
(10.1235 1.89316 0)
(10.1592 2.10304 0)
(10.2026 2.3223 0)
(10.2549 2.55122 0)
(10.3176 2.78997 0)
(10.3921 3.0385 0)
(10.4803 3.29656 0)
(10.5838 3.56366 0)
(10.7049 3.83894 0)
(10.8455 4.12119 0)
(11.0079 4.40871 0)
(11.1942 4.69925 0)
(11.4065 4.98992 0)
(11.6467 5.27716 0)
(11.9159 5.55666 0)
(12.2149 5.82345 0)
(12.5431 6.07201 0)
(12.8993 6.29644 0)
(13.2763 6.4907 0)
(13.7159 6.65064 0)
(10.001 0.159244 0)
(10.0044 0.316324 0)
(10.0106 0.473038 0)
(10.0194 0.63101 0)
(10.0311 0.791542 0)
(10.0459 0.955748 0)
(10.0644 1.12461 0)
(10.0871 1.29901 0)
(10.1147 1.4797 0)
(10.1479 1.6673 0)
(10.1875 1.86233 0)
(10.2345 2.06518 0)
(10.29 2.27611 0)
(10.355 2.49521 0)
(10.4308 2.72244 0)
(10.5189 2.95752 0)
(10.6207 3.19997 0)
(10.7377 3.44903 0)
(10.8715 3.70365 0)
(11.0239 3.9624 0)
(11.1965 4.22344 0)
(11.3906 4.48449 0)
(11.6077 4.74278 0)
(11.8485 4.99505 0)
(12.1135 5.23759 0)
(12.4025 5.46631 0)
(12.7142 5.67687 0)
(13.0468 5.86492 0)
(13.3942 6.02624 0)
(13.7928 6.1583 0)
(10.0015 0.157209 0)
(10.0065 0.312236 0)
(10.0154 0.466766 0)
(10.028 0.62232 0)
(10.0444 0.78011 0)
(10.065 0.941158 0)
(10.0901 1.10635 0)
(10.1202 1.27646 0)
(10.156 1.45213 0)
(10.1982 1.63386 0)
(10.2475 1.82205 0)
(10.3048 2.01693 0)
(10.371 2.2186 0)
(10.4472 2.42701 0)
(10.5345 2.64192 0)
(10.634 2.8629 0)
(10.7471 3.08928 0)
(10.8748 3.32016 0)
(11.0186 3.55434 0)
(11.1795 3.79031 0)
(11.3588 4.02623 0)
(11.5572 4.25992 0)
(11.7754 4.48884 0)
(12.0137 4.71015 0)
(12.2719 4.92073 0)
(12.5492 5.11731 0)
(12.8441 5.29656 0)
(13.1545 5.45534 0)
(13.4752 5.59072 0)
(13.8385 5.70121 0)
(10.0019 0.154362 0)
(10.0084 0.306535 0)
(10.0199 0.458083 0)
(10.0361 0.610418 0)
(10.0571 0.764657 0)
(10.0829 0.921726 0)
(10.1142 1.08242 0)
(10.1512 1.2474 0)
(10.1946 1.4172 0)
(10.2449 1.59222 0)
(10.3029 1.77273 0)
(10.3694 1.95883 0)
(10.4451 2.1505 0)
(10.531 2.34755 0)
(10.628 2.5496 0)
(10.7371 2.7561 0)
(10.8592 2.96628 0)
(10.9953 3.17913 0)
(11.1463 3.39341 0)
(11.313 3.60764 0)
(11.4961 3.82004 0)
(11.6959 4.02862 0)
(11.9127 4.23115 0)
(12.1463 4.4252 0)
(12.3961 4.60823 0)
(12.6609 4.77766 0)
(12.9393 4.93102 0)
(13.2291 5.06603 0)
(13.526 5.18072 0)
(13.8589 5.27422 0)
(10.0024 0.15071 0)
(10.0102 0.299235 0)
(10.0241 0.447014 0)
(10.0438 0.595345 0)
(10.0689 0.745246 0)
(10.0997 0.897551 0)
(10.1366 1.05296 0)
(10.1799 1.21203 0)
(10.2301 1.37519 0)
(10.2879 1.54275 0)
(10.3537 1.71486 0)
(10.4282 1.89152 0)
(10.5121 2.07261 0)
(10.6063 2.25782 0)
(10.7113 2.44669 0)
(10.8281 2.63857 0)
(10.9572 2.83265 0)
(11.0995 3.02789 0)
(11.2554 3.22307 0)
(11.4255 3.41677 0)
(11.6101 3.60737 0)
(11.8092 3.79309 0)
(12.0226 3.97202 0)
(12.25 4.14214 0)
(12.4904 4.30143 0)
(12.7427 4.44789 0)
(13.0052 4.57969 0)
(13.2762 4.69522 0)
(13.5518 4.79315 0)
(13.8583 4.87306 0)
(10.0027 0.146264 0)
(10.0119 0.290362 0)
(10.0281 0.433601 0)
(10.0508 0.577166 0)
(10.0798 0.721976 0)
(10.1152 0.86877 0)
(10.1572 1.01815 0)
(10.2062 1.1706 0)
(10.2626 1.32644 0)
(10.3268 1.48588 0)
(10.3994 1.64899 0)
(10.4809 1.81569 0)
(10.5719 1.98576 0)
(10.6728 2.15883 0)
(10.7844 2.33437 0)
(10.9071 2.51171 0)
(11.0415 2.69 0)
(11.188 2.86823 0)
(11.347 3.04525 0)
(11.5185 3.21974 0)
(11.7028 3.39027 0)
(11.8995 3.55529 0)
(12.1082 3.71319 0)
(12.3284 3.86233 0)
(12.5591 4.00112 0)
(12.7989 4.12805 0)
(13.0466 4.24177 0)
(13.3003 4.34116 0)
(13.557 4.42536 0)
(13.8406 4.49421 0)
(10.0031 0.141044 0)
(10.0134 0.279953 0)
(10.0317 0.417906 0)
(10.0573 0.555972 0)
(10.0898 0.694972 0)
(10.1293 0.835555 0)
(10.1759 0.978237 0)
(10.23 1.1234 0)
(10.2918 1.27131 0)
(10.3618 1.42208 0)
(10.4402 1.57571 0)
(10.5276 1.73204 0)
(10.6243 1.89081 0)
(10.7308 2.05158 0)
(10.8475 2.21382 0)
(10.9747 2.37683 0)
(11.1127 2.53979 0)
(11.2619 2.70175 0)
(11.4222 2.86163 0)
(11.5937 3.01827 0)
(11.7762 3.1704 0)
(11.9693 3.31673 0)
(12.1724 3.45591 0)
(12.3849 3.58664 0)
(12.6057 3.70769 0)
(12.8337 3.81791 0)
(13.0674 3.91635 0)
(13.3055 4.00223 0)
(13.5452 4.07502 0)
(13.8088 4.1347 0)
(10.0034 0.135073 0)
(10.0148 0.268057 0)
(10.035 0.400006 0)
(10.0631 0.531873 0)