/*--------------------------------*- C++ -*----------------------------------*\
  =========                 |
  \\      /  F ield         | OpenFOAM: The Open Source CFD Toolbox
   \\    /   O peration     | Website:  https://openfoam.org
    \\  /    A nd           | Version:  7
     \\/     M anipulation  |
\*---------------------------------------------------------------------------*/
FoamFile
{
    version     2.0;
    format      ascii;
    class       surfaceVectorField;
    location    "4.1";
    object      Uf;
}
// * * * * * * * * * * * * * * * * * * * * * * * * * * * * * * * * * * * * * //

dimensions      [0 1 -1 0 0 0 0];

internalField   nonuniform List<vector> 
5457
(
(9.92088 0.0251096 0)
(9.97125 0.0387458 0)
(9.82401 0.0328269 0)
(9.92859 0.0485853 0)
(9.70961 0.0393121 0)
(9.85548 0.0587683 0)
(9.57544 0.0460116 0)
(9.7568 0.0705935 0)
(9.42138 0.0529489 0)
(9.63753 0.0830134 0)
(9.24755 0.0601661 0)
(9.49861 0.0959364 0)
(9.05362 0.0678106 0)
(9.3393 0.109612 0)
(8.83893 0.076034 0)
(9.15874 0.124288 0)
(8.60252 0.0849695 0)
(8.9561 0.140166 0)
(8.34327 0.0947439 0)
(8.73039 0.157432 0)
(8.05986 0.105486 0)
(8.48041 0.176268 0)
(7.75082 0.117326 0)
(8.20479 0.196855 0)
(7.41458 0.130394 0)
(7.90197 0.219359 0)
(7.04953 0.144808 0)
(7.57033 0.24392 0)
(6.65407 0.16067 0)
(7.20822 0.270629 0)
(6.22676 0.178042 0)
(6.81404 0.299497 0)
(5.76648 0.196926 0)
(6.38638 0.33041 0)
(5.27264 0.217231 0)
(5.92423 0.36308 0)
(4.74545 0.238733 0)
(5.42718 0.396972 0)
(4.18629 0.26103 0)
(4.89574 0.431233 0)
(3.59807 0.283486 0)
(4.33174 0.464617 0)
(2.98566 0.305201 0)
(3.73871 0.495423 0)
(2.35622 0.325069 0)
(3.12238 0.521513 0)
(1.71921 0.342549 0)
(2.49118 0.54056 0)
(1.08445 0.361882 0)
(1.85596 0.551678 0)
(0.451934 0.34871 0)
(1.24558 0.563024 0)
(-0.145779 0.102504 0)
(0.609032 0.544915 0)
(-0.423601 -0.207095 0)
(0.0946939 0.259408 0)
(-0.402151 -0.361276 0)
(-0.133611 -0.0205128 0)
(-0.119682 -0.393882 0)
(9.99641 0.0516725 0)
(9.99705 0.0405047 0)
(9.95879 0.0708617 0)
(9.97851 0.0674547 0)
(9.89824 0.087987 0)
(9.93377 0.0898702 0)
(9.81659 0.105985 0)
(9.86453 0.113555 0)
(9.71359 0.124921 0)
(9.77438 0.138515 0)
(9.58909 0.144853 0)
(9.66435 0.164646 0)
(9.44274 0.166089 0)
(9.53397 0.192331 0)
(9.27391 0.188966 0)
(9.3825 0.222029 0)
(9.08167 0.213781 0)
(9.20919 0.254146 0)
(8.86491 0.240813 0)
(9.01316 0.289061 0)
(8.62231 0.270334 0)
(8.79332 0.327149 0)
(8.3524 0.302603 0)
(8.54837 0.368781 0)
(8.05358 0.337853 0)
(8.27685 0.414311 0)
(7.72415 0.376257 0)
(7.97719 0.46404 0)
(7.36241 0.417897 0)
(7.64775 0.518181 0)
(6.96677 0.462702 0)
(7.28686 0.576798 0)
(6.53589 0.51038 0)
(6.893 0.639717 0)
(6.06889 0.560327 0)
(6.46487 0.706418 0)
(5.56567 0.611515 0)
(6.00167 0.7759 0)
(5.02719 0.66238 0)
(5.50334 0.846516 0)
(4.45597 0.710705 0)
(4.97098 0.9158 0)
(3.8566 0.753539 0)
(4.40728 0.980303 0)
(3.2363 0.787198 0)
(3.81714 1.03546 0)
(2.60592 0.807507 0)
(3.20856 1.07549 0)
(1.98289 0.810476 0)
(2.59349 1.09316 0)
(1.40537 0.776917 0)
(1.9963 1.0771 0)
(0.929833 0.646433 0)
(1.41958 0.978445 0)
(0.439936 0.384386 0)
(0.937634 0.716834 0)
(0.0592125 -0.118573 0)
(0.443867 0.343575 0)
(0.174934 -0.335887 0)
(9.98903 0.0594311 0)
(9.99481 0.0458776 0)
(9.95434 0.0894768 0)
(9.97368 0.0848545 0)
(9.89729 0.118032 0)
(9.92984 0.119174 0)
(9.82046 0.147898 0)
(9.86357 0.153976 0)
(9.72416 0.179421 0)
(9.77736 0.190408 0)
(9.60821 0.212774 0)
(9.67227 0.228636 0)
(9.47234 0.248391 0)
(9.5481 0.269128 0)
(9.31608 0.286772 0)
(9.40432 0.312494 0)
(9.13869 0.328394 0)
(9.24034 0.359322 0)
(8.93925 0.373717 0)
(9.05549 0.410169 0)
(8.71665 0.423199 0)
(8.8489 0.465591 0)
(8.46961 0.477287 0)
(8.61952 0.526144 0)
(8.19669 0.536388 0)
(8.36617 0.592361 0)
(7.89635 0.600829 0)
(8.08754 0.664724 0)
(7.56695 0.670796 0)
(7.78222 0.743602 0)
(7.20688 0.74624 0)
(7.44877 0.829171 0)
(6.81462 0.826765 0)
(7.08573 0.921299 0)
(6.38894 0.911466 0)
(6.69176 1.01938 0)
(5.92911 0.998741 0)
(6.26578 1.12215 0)
(5.43522 1.08608 0)
(5.8072 1.2274 0)
(4.90864 1.16981 0)
(5.31616 1.33173 0)
(4.35253 1.24489 0)
(4.79407 1.43018 0)
(3.7727 1.30455 0)
(4.24408 1.51587 0)
(3.17883 1.33985 0)
(3.67192 1.57943 0)
(2.58673 1.33814 0)
(3.08643 1.60776 0)
(2.01995 1.273 0)
(2.50302 1.58161 0)
(1.48703 1.09546 0)
(1.92883 1.4643 0)
(0.958356 0.769225 0)
(1.38532 1.21046 0)
(0.479915 0.202525 0)
(0.82959 0.801111 0)
(0.433754 0.13416 0)
(9.98515 0.0716142 0)
(9.99367 0.0531481 0)
(9.95039 0.113631 0)
(9.97087 0.102291 0)
(9.89436 0.154134 0)
(9.9269 0.147954 0)
(9.81882 0.195573 0)
(9.86185 0.193722 0)
(9.72442 0.238811 0)
(9.77746 0.241277 0)
(9.61112 0.284323 0)
(9.67467 0.291163 0)
(9.47874 0.332718 0)
(9.55343 0.343954 0)
(9.32695 0.384671 0)
(9.41336 0.400369 0)
(9.15523 0.440842 0)
(9.254 0.461135 0)
(8.96291 0.501876 0)
(9.07484 0.526954 0)
(8.74917 0.568418 0)
(8.8752 0.598527 0)
(8.51305 0.6411 0)
(8.6543 0.67655 0)
(8.25348 0.720516 0)
(8.41124 0.761706 0)
(7.96928 0.807172 0)
(8.14501 0.854618 0)
(7.65921 0.901417 0)
(7.85457 0.955797 0)
(7.32196 1.00332 0)
(7.53878 1.06554 0)
(6.95626 1.11255 0)
(7.1965 1.18382 0)
(6.5609 1.22811 0)
(6.82658 1.31005 0)
(6.13496 1.34814 0)
(6.42795 1.44289 0)
(5.67792 1.46958 0)
(5.99974 1.57987 0)
(5.19009 1.58775 0)
(5.54143 1.71706 0)
(4.67296 1.69601 0)
(5.05315 1.84852 0)
(4.1299 1.78515 0)
(4.53607 1.96582 0)
(3.56676 1.84254 0)
(3.99284 2.05731 0)
(2.99215 1.85075 0)
(3.42771 2.10716 0)
(2.41594 1.78253 0)
(2.84774 2.09452 0)
(1.84062 1.60052 0)
(2.25632 1.98879 0)
(1.25944 1.2785 0)
(1.66039 1.75312 0)
(0.666803 0.789623 0)
(1.02401 1.36786 0)
(0.523054 0.787252 0)
(9.98337 0.0844077 0)
(9.99316 0.0612917 0)
(9.94821 0.136837 0)
(9.96958 0.119928 0)
(9.89314 0.188032 0)
(9.92575 0.176241 0)
(9.81906 0.240169 0)
(9.86199 0.232698 0)
(9.72662 0.294466 0)
(9.77964 0.291087 0)
(9.6159 0.351657 0)
(9.6794 0.352273 0)
(9.48671 0.412467 0)
(9.56127 0.416975 0)
(9.33878 0.477671 0)
(9.42496 0.486004 0)
(9.17171 0.548043 0)
(9.27009 0.560198 0)
(8.98493 0.624344 0)
(9.0962 0.640377 0)
(8.77779 0.70733 0)
(8.90275 0.727355 0)
(8.54954 0.797747 0)
(8.68907 0.82194 0)
(8.29936 0.896305 0)
(8.45445 0.924921 0)
(8.02636 1.00363 0)
(8.19809 1.03703 0)
(7.7296 1.12018 0)
(7.91914 1.15889 0)
(7.40809 1.24613 0)
(7.61672 1.29089 0)
(7.06081 1.38124 0)
(7.28989 1.43311 0)
(6.68675 1.52455 0)
(6.93767 1.58507 0)
(6.28492 1.67415 0)
(6.55905 1.74546 0)
(5.85446 1.82676 0)
(6.15294 1.91185 0)
(5.39479 1.97723 0)
(5.7183 2.08013 0)
(4.90585 2.11803 0)
(5.25417 2.24406 0)
(4.38835 2.2386 0)
(4.75984 2.39459 0)
(3.84405 2.32455 0)
(4.23506 2.51919 0)
(3.27554 2.35698 0)
(3.68 2.60126 0)
(2.68549 2.31064 0)
(3.09583 2.61974 0)
(2.07277 2.15508 0)
(2.48179 2.54739 0)
(1.42944 1.86749 0)
(1.83999 2.35381 0)
(0.742643 1.41968 0)
(1.13141 2.02464 0)
(0.543328 1.51462 0)
(9.98264 0.097498 0)
(9.99299 0.0697931 0)
(9.94744 0.159775 0)
(9.96925 0.137584 0)
(9.89354 0.221348 0)
(9.92597 0.203927 0)
(9.82133 0.284092 0)
(9.86381 0.270688 0)
(9.73134 0.349347 0)
(9.78385 0.339582 0)
(9.62366 0.418016 0)
(9.68664 0.411695 0)
(9.49819 0.490934 0)
(9.57218 0.487899 0)
(9.35465 0.568967 0)
(9.44021 0.569099 0)
(9.19269 0.652995 0)
(9.29043 0.656225 0)
(9.01183 0.743885 0)
(9.12242 0.750202 0)
(8.81151 0.8425 0)
(8.93571 0.851942 0)
(8.59109 0.949689 0)
(8.72973 0.962347 0)
(8.34986 1.06626 0)
(8.50382 1.0823 0)
(8.08708 1.19293 0)
(8.25729 1.21262 0)
(7.80194 1.33027 0)
(7.98939 1.35401 0)
(7.49363 1.47856 0)
(7.69932 1.50699 0)
(7.16123 1.63765 0)
(7.3862 1.67172 0)
(6.80377 1.80671 0)
(7.04907 1.84787 0)
(6.42017 1.98393 0)
(6.6868 2.03431 0)
(6.0092 2.1661 0)
(6.29808 2.22879 0)
(5.56949 2.34808 0)
(5.88127 2.42744 0)
(5.09956 2.52218 0)
(5.43443 2.62423 0)
(4.59785 2.67756 0)
(4.95522 2.81027 0)
(4.06281 2.7995 0)
(4.44096 2.97322 0)
(3.49281 2.86914 0)
(3.88864 3.09665 0)
(2.88593 2.86298 0)
(3.29535 3.15995 0)
(2.2381 2.75402 0)
(2.657 3.13799 0)
(1.54251 2.52115 0)
(1.97493 3.00331 0)
(0.793682 2.13147 0)
(1.2073 2.74075 0)
(0.556763 2.29199 0)
(9.9825 0.110627 0)
(9.99302 0.0783618 0)
(9.9477 0.182325 0)
(9.96954 0.155038 0)
(9.89522 0.253817 0)
(9.92722 0.230886 0)
(9.82524 0.326766 0)
(9.86696 0.307509 0)
(9.73813 0.402553 0)
(9.78977 0.386521 0)
(9.63403 0.482231 0)
(9.69605 0.469146 0)
(9.51285 0.566752 0)
(9.58579 0.556393 0)
(9.37438 0.657085 0)
(9.45879 0.649264 0)
(9.21828 0.754202 0)
(9.3148 0.748778 0)
(9.04414 0.85907 0)
(9.15346 0.855949 0)
(8.85145 0.972644 0)
(8.97434 0.971784 0)
(8.63963 1.09586 0)
(8.77691 1.09727 0)
(8.40803 1.22962 0)
(8.56058 1.23339 0)
(8.15596 1.37472 0)
(8.3247 1.38104 0)
(7.88266 1.53183 0)
(8.06854 1.54104 0)
(7.5873 1.70134 0)
(7.79127 1.71401 0)
(7.26893 1.88325 0)
(7.49199 1.90026 0)
(6.92647 2.07693 0)
(7.16958 2.09965 0)
(6.55857 2.28081 0)
(6.82271 2.31134 0)
(6.16354 2.49201 0)
(6.44966 2.53344 0)
(5.73922 2.7058 0)
(6.04818 2.7626 0)
(5.28283 2.91496 0)
(5.61534 2.99343 0)
(4.79095 3.10915 0)
(5.14736 3.21782 0)
(4.25942 3.27421 0)
(4.63951 3.42427 0)
(3.68352 3.3919 0)
(4.08619 3.59717 0)
(3.05817 3.43976 0)
(3.48145 3.71659 0)
(2.37784 3.3919 0)
(2.81849 3.75822 0)
(1.63799 3.22632 0)
(2.09926 3.69412 0)
(0.839172 2.90102 0)
(1.27899 3.50466 0)
(0.573392 3.11391 0)
(9.98273 0.123582 0)
(9.99316 0.0868179 0)
(9.94873 0.20431 0)
(9.97026 0.172094 0)
(9.89794 0.285252 0)
(9.92926 0.256976 0)
(9.8305 0.367965 0)
(9.87123 0.342988 0)
(9.7467 0.45385 0)
(9.79715 0.431678 0)
(9.64668 0.544074 0)
(9.70734 0.524349 0)
(9.53038 0.639702 0)
(9.6018 0.622131 0)
(9.39762 0.741791 0)
(9.48038 0.726119 0)
(9.24812 0.851403 0)
(9.34285 0.837414 0)
(9.08152 0.969591 0)
(9.18894 0.957118 0)
(8.89736 1.0974 0)
(9.01824 1.08632 0)
(8.6951 1.23586 0)
(8.83029 1.22611 0)
(8.47413 1.38595 0)
(8.62455 1.37755 0)
(8.23377 1.54859 0)
(8.40037 1.54165 0)
(7.97324 1.72456 0)
(8.15703 1.71934 0)
(7.69164 1.9144 0)
(7.89366 1.91138 0)
(7.38789 2.1183 0)
(7.60923 2.11831 0)
(7.06067 2.33591 0)
(7.30246 2.34023 0)
(6.70827 2.56607 0)
(6.97171 2.5767 0)
(6.32844 2.80643 0)
(6.61479 2.82637 0)
(5.9182 3.053 0)
(6.22881 3.08664 0)
(5.47357 3.29949 0)
(5.80985 3.35312 0)
(4.98944 3.53664 0)
(5.35279 3.61895 0)
(4.45948 3.75142 0)
(4.85103 3.87398 0)
(3.87637 3.92651 0)
(4.29659 4.10396 0)
(3.23248 4.03994 0)
(3.68072 4.28975 0)
(2.52096 4.06512 0)
(2.99367 4.40689 0)
(1.73847 3.97631 0)
(2.23751 4.42475 0)
(0.889526 3.71896 0)
(1.36345 4.31651 0)
(0.598795 3.98514 0)
(9.98321 0.136204 0)
(9.99339 0.095041 0)
(9.95032 0.225573 0)
(9.97131 0.18859 0)
(9.90151 0.315497 0)
(9.93193 0.28205 0)
(9.83694 0.407503 0)
(9.87643 0.376961 0)
(9.75683 0.503011 0)
(9.80579 0.47484 0)
(9.66135 0.603273 0)
(9.7203 0.577048 0)
(9.55046 0.709453 0)
(9.61995 0.68481 0)
(9.42403 0.822692 0)
(9.50464 0.799309 0)
(9.28183 0.944132 0)
(9.37421 0.921723 0)
(9.12355 1.07491 0)
(9.22843 1.05323 0)
(8.94879 1.21617 0)
(9.06695 1.19502 0)
(8.75705 1.36901 0)
(8.88938 1.34825 0)
(8.54777 1.53455 0)
(8.6952 1.51409 0)
(8.32026 1.7138 0)
(8.48382 1.69366 0)
(8.07372 1.90769 0)
(8.25451 1.88805 0)
(7.80716 2.11697 0)
(8.00638 2.09821 0)
(7.51936 2.34209 0)
(7.73828 2.3249 0)
(7.20873 2.58309 0)
(7.44877 2.56861 0)
(6.87317 2.83932 0)
(7.13591 2.82937 0)
(6.50986 3.1092 0)
(6.79709 3.10656 0)
(6.11499 3.38974 0)
(6.42878 3.39854 0)
(5.68345 3.67597 0)
(6.02617 3.70223 0)
(5.20854 3.96018 0)
(5.58284 4.01243 0)
(4.68183 4.23099 0)
(5.0904 4.32094 0)
(4.09337 4.47235 0)
(4.53836 4.6154 0)
(3.4326 4.66263 0)
(3.9148 4.87792 0)
(2.69021 4.77329 0)
(3.20579 5.0837 0)
(1.86191 4.77259 0)
(2.41137 5.19815 0)
(0.954216 4.58996 0)
(1.47634 5.18455 0)
(0.639223 4.91974 0)
(9.98386 0.14837 0)
(9.99368 0.102945 0)
(9.95235 0.245972 0)
(9.9726 0.204396 0)
(9.90578 0.3444 0)
(9.9351 0.305971 0)
(9.84437 0.445199 0)
(9.88241 0.409272 0)
(9.76832 0.54981 0)
(9.81551 0.515817 0)
(9.67779 0.659556 0)
(9.7347 0.62701 0)
(9.5728 0.775682 0)
(9.63998 0.744154 0)
(9.45327 0.899408 0)
(9.53129 0.868509 0)
(9.31901 1.03195 0)
(9.40852 1.00133 0)
(9.16977 1.17454 0)
(9.27151 1.14386 0)
(9.00522 1.32837 0)
(9.11998 1.29736 0)
(8.82492 1.49468 0)
(8.9536 1.4631 0)
(8.62835 1.67466 0)
(8.77193 1.64233 0)
(8.41485 1.86949 0)
(8.57443 1.83632 0)
(8.18362 2.08027 0)
(8.36038 2.04629 0)
(7.93362 2.30799 0)
(8.1289 2.27343 0)
(7.66351 2.55343 0)
(7.87882 2.5188 0)
(7.37148 2.8171 0)
(7.60858 2.78331 0)
(7.05512 3.09903 0)
(7.31603 3.06759 0)
(6.7111 3.39856 0)
(6.99827 3.37186 0)
(6.33491 3.71399 0)
(6.65128 3.69568 0)
(5.92038 4.04202 0)
(6.26952 4.03757 0)
(5.45932 4.37701 0)
(5.84544 4.39444 0)
(4.94112 4.70987 0)
(5.36895 4.76067 0)
(4.35279 5.02656 0)
(4.82687 5.12673 0)
(3.67965 5.30626 0)
(4.20326 5.4771 0)
(2.90757 5.51832 0)
(3.47799 5.78758 0)
(2.02771 5.62322 0)
(2.64511 6.01969 0)
(1.04513 5.52972 0)
(1.63778 6.12419 0)
(0.7045 5.94338 0)
(9.98465 0.159983 0)
(9.99402 0.110464 0)
(9.95473 0.265384 0)
(9.97409 0.219402 0)
(9.91065 0.371823 0)
(9.93867 0.328615 0)
(9.85266 0.480886 0)
(9.88904 0.439779 0)
(9.78099 0.594045 0)
(9.82618 0.554435 0)
(9.6958 0.712679 0)
(9.75037 0.674025 0)
(9.59715 0.838103 0)
(9.66166 0.799915 0)
(9.48501 0.971608 0)
(9.56002 0.933429 0)
(9.35926 1.11448 0)
(9.44542 1.07588 0)
(9.21972 1.26801 0)
(9.31775 1.2286 0)
(9.06612 1.43349 0)
(9.17683 1.39289 0)
(8.8981 1.61225 0)
(9.02239 1.57012 0)
(8.71521 1.80559 0)
(8.85409 1.76165 0)
(8.51685 2.01484 0)
(8.67144 1.96885 0)
(8.30226 2.2413 0)
(8.47384 2.19315 0)
(8.07041 2.48623 0)
(8.26045 2.43594 0)
(7.81991 2.75081 0)
(8.03013 2.69862 0)
(7.54887 3.03609 0)
(7.78132 2.98258 0)
(7.2547 3.34288 0)
(7.51187 3.28911 0)
(6.93376 3.6716 0)
(7.21874 3.61937 0)
(6.58104 4.02207 0)
(6.89772 3.97428 0)
(6.1896 4.39305 0)
(6.54285 4.35423 0)
(5.74994 4.78156 0)
(6.14586 4.75872 0)
(5.24931 5.18171 0)
(5.69526 5.1855 0)
(4.67114 5.58284 0)
(5.17529 5.62921 0)
(3.99511 5.96665 0)
(4.56531 6.07886 0)
(3.1986 6.30189 0)
(3.83655 6.51373 0)
(2.26191 6.54094 0)
(2.97102 6.89429 0)
(1.18068 6.56543 0)
(1.87927 7.15817 0)
(0.812866 7.09979 0)
(9.98553 0.170965 0)
(9.9944 0.117548 0)
(9.95738 0.283701 0)
(9.97572 0.233522 0)
(9.916 0.397638 0)
(9.94258 0.349872 0)
(9.86169 0.514414 0)
(9.89623 0.468354 0)
(9.79468 0.635536 0)
(9.83764 0.590542 0)
(9.71516 0.762428 0)
(9.76712 0.71791 0)
(9.62324 0.896463 0)
(9.68474 0.851874 0)
(9.51893 1.03899 0)
(9.59054 0.993813 0)
(9.4022 1.19136 0)
(9.48455 1.1451 0)
(9.27292 1.35493 0)
(9.36672 1.3071 0)
(9.13092 1.53106 0)
(9.23697 1.48121 0)
(8.97594 1.72116 0)
(9.09513 1.66884 0)
(8.80762 1.92666 0)
(8.94094 1.87146 0)
(8.62545 2.14902 0)
(8.77407 2.09057 0)
(8.42876 2.38977 0)
(8.59399 2.32775 0)
(8.21662 2.65044 0)
(8.40001 2.58463 0)
(7.98771 2.93262 0)
(8.19114 2.86295 0)
(7.7402 3.23794 0)
(7.96596 3.16455 0)
(7.47154 3.56805 0)
(7.72246 3.49142 0)
(7.17807 3.92456 0)
(7.45781 3.8457 0)
(6.85466 4.309 0)
(7.16792 4.22973 0)
(6.49404 4.72252 0)
(6.847 4.64596 0)
(6.08595 5.16542 0)
(6.48668 5.09685 0)
(5.61593 5.63623 0)
(6.07495 5.58435 0)
(5.06389 6.1298 0)
(5.59434 6.10899 0)
(4.40254 6.63383 0)
(5.01995 6.66756 0)
(3.59643 7.12137 0)
(4.31292 7.24863 0)
(2.60457 7.54091 0)
(3.43602 7.82042 0)
(1.39444 7.74083 0)
(2.25672 8.31542 0)
(1.00274 8.46556 0)
(9.9865 0.181254 0)
(9.9948 0.124157 0)
(9.96026 0.300835 0)
(9.97747 0.246683 0)
(9.92176 0.421736 0)
(9.94676 0.36965 0)
(9.87133 0.545653 0)
(9.90387 0.494889 0)
(9.80923 0.674124 0)
(9.84976 0.624007 0)
(9.73567 0.808613 0)
(9.78478 0.758507 0)
(9.6508 0.95054 0)
(9.70901 0.899845 0)
(9.5547 1.1013 0)
(9.62257 1.04944 0)
(9.44741 1.2623 0)
(9.52554 1.20871 0)
(9.32889 1.43493 0)
(9.41797 1.37907 0)
(9.19907 1.62064 0)
(9.29986 1.56195 0)
(9.05778 1.8209 0)
(9.17116 1.75884 0)
(8.90478 2.03725 0)
(9.03174 1.97127 0)
(8.73973 2.27128 0)
(8.88139 2.20086 0)
(8.56209 2.52471 0)
(8.71978 2.44932 0)
(8.3711 2.79935 0)
(8.5464 2.71849 0)
(8.16565 3.09719 0)
(8.36049 3.01042 0)
(7.94416 3.42041 0)
(8.16094 3.32739 0)
(7.70435 3.77149 0)
(7.94612 3.672 0)
(7.44292 4.15325 0)
(7.71365 4.04732 0)
(7.15513 4.56894 0)
(7.46009 4.45704 0)
(6.83411 5.02231 0)
(7.18044 4.90566 0)
(6.4698 5.51748 0)
(6.86729 5.39869 0)
(6.04733 6.05859 0)
(6.5096 5.94286 0)
(5.54444 6.64868 0)
(6.09041 6.54606 0)
(4.92751 7.28702 0)
(5.58357 7.21672 0)
(4.14546 7.96158 0)
(4.94303 7.9616 0)
(3.12217 8.63391 0)
(4.10984 8.77588 0)
(1.75651 9.12838 0)
(2.87891 9.62141 0)
(1.36499 10.186 0)
(9.98753 0.190801 0)
(9.99523 0.130262 0)
(9.96332 0.31671 0)
(9.97932 0.258827 0)
(9.92785 0.444026 0)
(9.95115 0.387872 0)
(9.88147 0.574493 0)
(9.91187 0.519289 0)
(9.82448 0.709682 0)
(9.86242 0.654718 0)
(9.75711 0.851086 0)
(9.80316 0.795686 0)
(9.67957 1.00016 0)
(9.73424 0.943676 0)
(9.59199 1.15834 0)
(9.65581 1.10014 0)
(9.49449 1.32706 0)
(9.56803 1.26652 0)
(9.38713 1.50776 0)
(9.47105 1.44426 0)
(9.26993 1.70193 0)
(9.36496 1.63484 0)
(9.14287 1.91111 0)
(9.24983 1.83978 0)
(9.00584 2.1369 0)
(9.12568 2.06067 0)
(8.85868 2.38102 0)
(8.99247 2.29919 0)
(8.70105 2.64535 0)
(8.85008 2.55719 0)
(8.53245 2.93193 0)
(8.69825 2.83666 0)
(8.35211 3.24307 0)
(8.53655 3.13988 0)
(8.15885 3.58146 0)
(8.3643 3.46947 0)
(7.95094 3.9503 0)
(8.18044 3.82855 0)
(7.72584 4.35345 0)
(7.98337 4.22092 0)
(7.47979 4.79579 0)
(7.77074 4.65139 0)
(7.20724 5.2835 0)
(7.53906 5.12615 0)
(6.8998 5.82457 0)
(7.2831 5.65342 0)
(6.54452 6.42936 0)
(6.99486 6.24434 0)
(6.12066 7.1113 0)
(6.66165 6.91444 0)
(5.59346 7.88755 0)
(6.26288 7.68599 0)
(4.90142 8.77799 0)
(5.75812 8.59251 0)
(3.92747 9.80191 0)
(5.08807 9.68528 0)
(2.43372 10.8575 0)
(3.98034 11.0499 0)
(2.14683 12.5696 0)
(9.98861 0.199566 0)
(9.99567 0.135838 0)
(9.96652 0.331266 0)
(9.98124 0.26991 0)
(9.93419 0.464423 0)
(9.9557 0.404477 0)
(9.89201 0.600826 0)
(9.92016 0.541481 0)
(9.84029 0.742071 0)
(9.87551 0.682588 0)
(9.77931 0.889672 0)
(9.82215 0.829343 0)
(9.7093 1.04511 0)
(9.76026 0.983245 0)
(9.63049 1.20985 0)
(9.69008 1.14577 0)
(9.54305 1.38533 0)
(9.61183 1.31837 0)
(9.44714 1.57304 0)
(9.52574 1.5025 0)
(9.34292 1.77448 0)
(9.43203 1.69967 0)
(9.23048 1.99124 0)
(9.33088 1.9114 0)
(9.1099 2.22497 0)
(9.22248 2.13933 0)
(8.98121 2.47747 0)
(9.10699 2.38518 0)
(8.84433 2.75073 0)
(8.98451 2.65086 0)
(8.69908 3.04694 0)
(8.8551 2.93846 0)
(8.54512 3.36868 0)
(8.71873 3.25041 0)
(8.38183 3.71898 0)
(8.57525 3.58952 0)
(8.20827 4.10154 0)
(8.42431 3.95924 0)
(8.02298 4.52103 0)
(8.26533 4.36382 0)
(7.82378 4.98348 0)
(8.09743 4.80873 0)
(7.60737 5.49696 0)
(7.91924 5.30121 0)
(7.36875 6.0725 0)
(7.72878 5.85113 0)
(7.09998 6.72577 0)
(7.5232 6.47241 0)
(6.78793 7.47998 0)
(7.29825 7.18565 0)
(6.40905 8.37189 0)
(7.0485 8.02324 0)
(5.91633 9.466 0)
(6.76377 9.04171 0)
(5.19715 10.9087 0)
(6.46314 10.3568 0)
(3.88566 13.1802 0)
(6.1918 12.3041 0)
(5.26216 16.3754 0)
(0.199742 -0.122908 0)
(0.115427 -0.195635 0)
(0.390377 -0.105186 0)
(0.280739 -0.182305 0)
(0.549861 -0.082598 0)
(0.44752 -0.148913 0)
(0.678737 -0.0630521 0)
(0.590905 -0.117491 0)
(0.782186 -0.0475744 0)
(0.707078 -0.0920835 0)
(0.865373 -0.0356448 0)
(0.800954 -0.0722986 0)
(0.932709 -0.0265954 0)
(0.878067 -0.0571402 0)
(0.987893 -0.0198468 0)
(0.942658 -0.0457227 0)
(1.03397 -0.0149036 0)
(0.997849 -0.0372746 0)
(1.07337 -0.0113425 0)
(1.04605 -0.031125 0)
(1.108 -0.00880252 0)
(1.08916 -0.0267023 0)
(1.13922 -0.0069703 0)
(1.12864 -0.0235128 0)
(1.16794 -0.00556883 0)
(1.16551 -0.0211151 0)
(1.19457 -0.00435909 0)
(1.2004 -0.0191138 0)
(1.21908 -0.00315691 0)
(1.23354 -0.017179 0)
(1.24113 -0.00185638 0)
(1.26482 -0.015087 0)
(1.26022 -0.000437347 0)
(1.29391 -0.0127579 0)
(1.27593 0.00106958 0)
(1.32041 -0.0102456 0)
(1.28793 0.00265732 0)
(1.34402 -0.00764644 0)
(1.29592 0.004374 0)
(1.3646 -0.00496785 0)
(1.29945 0.00620235 0)
(1.382 -0.00214529 0)
(1.29794 0.00794552 0)
(1.39579 0.00089733 0)
(1.29103 0.00934803 0)
(1.40524 0.00399655 0)
(1.27965 0.0101044 0)
(1.41001 0.00643169 0)
(1.26585 0.00992285 0)
(1.41095 0.00761546 0)
(1.25233 0.00881681 0)
(1.41011 0.00728685 0)
(1.24105 0.00704303 0)
(1.40985 0.00593336 0)
(1.23323 0.00482635 0)
(1.41164 0.00401879 0)
(1.22975 0.00214046 0)
(1.41608 0.00174567 0)
(1.42528 -0.000876898 0)
(0.178666 -0.28338 0)
(0.0922506 -0.370628 0)
(0.352404 -0.250355 0)
(0.241502 -0.348452 0)
(0.500626 -0.202771 0)
(0.383184 -0.287311 0)
(0.623611 -0.160798 0)
(0.50594 -0.229613 0)
(0.726125 -0.127465 0)
(0.606782 -0.183334 0)
(0.812604 -0.101755 0)
(0.690417 -0.147459 0)
(0.886666 -0.0822259 0)
(0.761216 -0.119987 0)
(0.95122 -0.0676143 0)
(0.822386 -0.0992085 0)
(1.0086 -0.0568441 0)
(0.876272 -0.08369 0)
(1.06064 -0.0490044 0)
(0.92468 -0.0722313 0)
(1.10878 -0.043324 0)
(0.969039 -0.0638317 0)
(1.1541 -0.0391361 0)
(1.01045 -0.0576404 0)
(1.19735 -0.0358509 0)
(1.04973 -0.0529082 0)
(1.23894 -0.0329566 0)
(1.08741 -0.0489676 0)
(1.27899 -0.030053 0)
(1.12375 -0.0452538 0)
(1.31739 -0.0269051 0)
(1.15878 -0.0413652 0)
(1.35388 -0.0234726 0)
(1.19231 -0.0371378 0)
(1.38824 -0.0198557 0)
(1.22405 -0.0326616 0)
(1.42043 -0.0161393 0)
(1.25378 -0.0281537 0)
(1.45054 -0.0122549 0)
(1.28155 -0.0236928 0)
(1.47832 -0.00806533 0)
(1.30763 -0.019013 0)
(1.50297 -0.0036805 0)
(1.33204 -0.0137181 0)
(1.52373 0.000357004 0)
(1.35418 -0.00802611 0)
(1.54056 0.00326705 0)
(1.37328 -0.00307886 0)
(1.55445 0.00460643 0)
(1.38896 -5.03819e-05 0)
(1.56722 0.00449797 0)
(1.40193 0.000406181 0)
(1.58023 0.00333191 0)
(1.41359 -0.000914647 0)
(1.59443 0.00147296 0)
(1.42488 -0.00327369 0)
(1.60991 -0.000581966 0)
(1.4361 -0.00601995 0)
(1.45006 -0.00722009 0)
(0.145771 -0.443156 0)
(0.0687299 -0.513401 0)
(0.283003 -0.393246 0)
(0.188582 -0.479688 0)
(0.397915 -0.321422 0)
(0.290673 -0.394607 0)
(0.492497 -0.258313 0)
(0.379226 -0.31584 0)
(0.571387 -0.208326 0)
(0.450273 -0.253557 0)
(0.638198 -0.169676 0)
(0.509235 -0.205525 0)
(0.695725 -0.140131 0)
(0.559103 -0.168804 0)
(0.746119 -0.117785 0)
(0.601998 -0.140962 0)
(0.791062 -0.101062 0)
(0.639512 -0.120048 0)
(0.831898 -0.0886508 0)
(0.672893 -0.104486 0)
(0.869691 -0.0794539 0)
(0.703135 -0.0929779 0)
(0.905257 -0.0725226 0)
(0.731025 -0.0844214 0)
(0.939179 -0.0670185 0)
(0.757163 -0.0778479 0)
(0.971811 -0.0622077 0)
(0.781985 -0.0723929 0)
(1.00328 -0.0575026 0)
(0.805769 -0.0673099 0)
(1.03349 -0.0525413 0)
(0.828621 -0.0620421 0)
(1.06222 -0.0472564 0)
(0.850433 -0.0563299 0)
(1.08923 -0.0418368 0)
(0.870912 -0.0502839 0)
(1.11454 -0.0365002 0)
(0.889659 -0.0442747 0)
(1.13845 -0.0311417 0)
(0.906587 -0.0385649 0)
(1.16128 -0.0252256 0)
(0.922193 -0.0328779 0)
(1.18299 -0.0183834 0)
(0.937455 -0.0265874 0)
(1.20297 -0.0114318 0)
(0.952579 -0.0195922 0)
(1.22054 -0.0062601 0)
(0.966025 -0.013012 0)
(1.23549 -0.00418963 0)
(0.975505 -0.00830284 0)
(1.24781 -0.00510616 0)
(0.980113 -0.00623107 0)
(1.25795 -0.007986 0)
(0.98081 -0.00625133 0)
(1.26629 -0.011573 0)
(0.978565 -0.00755491 0)
(1.27442 -0.0138896 0)
(0.974116 -0.0100976 0)
(0.968299 -0.0107261 0)
(0.110246 -0.560785 0)
(0.0456478 -0.62138 0)
(0.20488 -0.492331 0)
(0.129627 -0.570187 0)
(0.279779 -0.40021 0)
(0.18566 -0.464542 0)
(0.339574 -0.321323 0)
(0.235859 -0.370353 0)
(0.388665 -0.259738 0)
(0.271808 -0.297255 0)
(0.429666 -0.212359 0)
(0.300996 -0.24116 0)
(0.464419 -0.176163 0)
(0.324447 -0.198295 0)
(0.494242 -0.14871 0)
(0.343355 -0.165672 0)
(0.520171 -0.128063 0)
(0.358642 -0.141023 0)
(0.543047 -0.112652 0)
(0.371069 -0.122556 0)
(0.563558 -0.101166 0)
(0.381243 -0.108796 0)
(0.582253 -0.0924741 0)
(0.389648 -0.0984986 0)
(0.599559 -0.0855795 0)
(0.396698 -0.0905711 0)
(0.61579 -0.0796023 0)
(0.402766 -0.0840447 0)
(0.631138 -0.0738146 0)
(0.408179 -0.0780672 0)
(0.645622 -0.0677293 0)
(0.41321 -0.0719537 0)
(0.659053 -0.0612081 0)
(0.417882 -0.0653043 0)
(0.671077 -0.0544906 0)
(0.422009 -0.0581283 0)
(0.681435 -0.0480177 0)
(0.424743 -0.0508727 0)
(0.690392 -0.0420668 0)
(0.425486 -0.0441356 0)
(0.698695 -0.0364488 0)
(0.423572 -0.0379199 0)
(0.706911 -0.0305869 0)
(0.420482 -0.0314588 0)
(0.714283 -0.0241681 0)
(0.416125 -0.0238601 0)
(0.719013 -0.0176095 0)
(0.411489 -0.0156853 0)
(0.718999 -0.0117486 0)
(0.404937 -0.00829522 0)
(0.712809 -0.00714796 0)
(0.396463 -0.00289572 0)
(0.701292 -0.00432296 0)
(0.388673 -0.000191839 0)
(0.685614 -0.00402431 0)
(0.380022 0.000498931 0)
(0.667659 -0.00525408 0)
(0.370417 -0.00109197 0)
(0.35372 -0.00665371 0)
(0.0696049 -0.639026 0)
(0.0215136 -0.689554 0)
(0.117292 -0.550909 0)
(0.0640424 -0.615791 0)
(0.148852 -0.442814 0)
(0.0700863 -0.49401 0)
(0.170033 -0.35347 0)
(0.0792722 -0.389663 0)
(0.185189 -0.284742 0)
(0.0767575 -0.310746 0)
(0.195747 -0.232049 0)
(0.072378 -0.250336 0)
(0.202696 -0.191746 0)
(0.0649784 -0.204191 0)
(0.206715 -0.161055 0)
(0.0554681 -0.169002 0)
(0.208382 -0.137854 0)
(0.0443646 -0.142372 0)
(0.208167 -0.120445 0)
(0.0321453 -0.122386 0)
(0.206458 -0.107421 0)
(0.0191544 -0.107478 0)
(0.203588 -0.097575 0)
(0.00566331 -0.0963377 0)
(0.19985 -0.0898361 0)
(-0.00806049 -0.0878226 0)
(0.195505 -0.0832457 0)
(-0.0217498 -0.0809259 0)
(0.190819 -0.0769745 0)
(-0.0351371 -0.0747829 0)
(0.18602 -0.0703933 0)
(-0.0479147 -0.0686698 0)
(0.181153 -0.0631876 0)
(-0.0598706 -0.0620522 0)
(0.17585 -0.0554291 0)
(-0.0708793 -0.0546686 0)
(0.169112 -0.0474436 0)
(-0.0814308 -0.0465803 0)
(0.159455 -0.0393992 0)
(-0.0920518 -0.0381296 0)
(0.145988 -0.0309818 0)
(-0.103875 -0.0297423 0)
(0.129059 -0.0217392 0)
(-0.116248 -0.0214211 0)
(0.111013 -0.0122141 0)
(-0.12972 -0.0134134 0)
(0.0944795 -0.00410417 0)
(-0.142623 -0.0063398 0)
(0.0810459 0.00119271 0)
(-0.154866 -0.000881414 0)
(0.0727012 0.00375507 0)
(-0.16509 0.00160086 0)
(0.0673259 0.00415507 0)
(-0.171401 0.00263621 0)
(0.0628975 0.00267511 0)
(-0.176137 0.00277382 0)
(0.0574296 -0.0028683 0)
(-0.180634 0.00165053 0)
(-0.190366 -0.00412072 0)
(0.0230027 -0.672413 0)
(-0.00529369 -0.712084 0)
(0.0208456 -0.564135 0)
(-0.00918592 -0.613728 0)
(0.00533321 -0.444043 0)
(-0.0535901 -0.479526 0)
(-0.0125211 -0.348491 0)
(-0.0880209 -0.373386 0)
(-0.0342737 -0.276131 0)
(-0.129801 -0.291383 0)
(-0.0578983 -0.221261 0)
(-0.170153 -0.229803 0)
(-0.0826298 -0.17959 0)
(-0.209986 -0.183204 0)
(-0.107797 -0.148103 0)
(-0.248357 -0.14815 0)
(-0.132987 -0.124482 0)
(-0.284869 -0.121994 0)
(-0.157922 -0.106891 0)
(-0.319242 -0.10269 0)
(-0.182406 -0.0938447 0)
(-0.351393 -0.0885954 0)
(-0.206278 -0.0840829 0)
(-0.381376 -0.0783621 0)
(-0.229411 -0.0764934 0)
(-0.40929 -0.0708152 0)
(-0.251698 -0.0701187 0)
(-0.435249 -0.0649272 0)
(-0.272981 -0.0641855 0)
(-0.459348 -0.0598659 0)
(-0.292983 -0.0581168 0)
(-0.481553 -0.0549817 0)
(-0.311321 -0.0515553 0)
(-0.501691 -0.0497991 0)
(-0.327652 -0.0443905 0)
(-0.519547 -0.0440146 0)
(-0.341895 -0.0367606 0)
(-0.535037 -0.0375073 0)
(-0.35439 -0.0289612 0)
(-0.548337 -0.0303589 0)
(-0.365786 -0.0213061 0)
(-0.559881 -0.0228219 0)
(-0.376368 -0.0141277 0)
(-0.570023 -0.0151468 0)
(-0.386214 -0.00778272 0)
(-0.579187 -0.00771347 0)
(-0.394908 -0.00288167 0)
(-0.588251 -0.00142539 0)
(-0.402061 9.08592e-05 0)
(-0.596325 0.00306591 0)
(-0.408664 0.00165229 0)
(-0.603928 0.00515915 0)
(-0.415162 0.00271194 0)
(-0.610902 0.00605473 0)
(-0.421342 0.00290326 0)
(-0.617319 0.00594875 0)
(-0.425295 0.000429769 0)
(-0.623754 0.00363301 0)
(-0.62933 -0.00163481 0)
(-0.0285017 -0.654342 0)
(-0.0370489 -0.684168 0)
(-0.0817585 -0.527996 0)
(-0.0900617 -0.562798 0)
(-0.141569 -0.404166 0)
(-0.182937 -0.42368 0)
(-0.20306 -0.309327 0)
(-0.261384 -0.317326 0)
(-0.263442 -0.237879 0)
(-0.340675 -0.237635 0)
(-0.321398 -0.184805 0)
(-0.414418 -0.179434 0)
(-0.375726 -0.145421 0)
(-0.481945 -0.137102 0)
(-0.425938 -0.116445 0)
(-0.542738 -0.106547 0)
(-0.471803 -0.0954312 0)
(-0.596934 -0.0848902 0)
(-0.513332 -0.0804439 0)
(-0.645018 -0.0698875 0)
(-0.550761 -0.0699054 0)
(-0.687592 -0.0597297 0)
(-0.584459 -0.0625078 0)
(-0.725345 -0.0529879 0)
(-0.614842 -0.0571265 0)
(-0.758939 -0.0484772 0)
(-0.642328 -0.0528392 0)
(-0.788987 -0.0451966 0)
(-0.667217 -0.0489552 0)
(-0.816013 -0.042421 0)
(-0.68961 -0.0449731 0)
(-0.840325 -0.0396573 0)
(-0.709428 -0.0405301 0)
(-0.861984 -0.0365573 0)
(-0.72656 -0.0353775 0)
(-0.880913 -0.0328375 0)
(-0.741073 -0.0294054 0)
(-0.897108 -0.0282628 0)
(-0.75335 -0.0226827 0)
(-0.910824 -0.0227231 0)
(-0.764059 -0.0154351 0)
(-0.92257 -0.0163189 0)
(-0.773812 -0.00806292 0)
(-0.932963 -0.00936424 0)
(-0.783142 -0.00129019 0)
(-0.942618 -0.00231204 0)
(-0.791542 0.00389417 0)
(-0.951482 0.0033222 0)
(-0.798838 0.00696367 0)
(-0.959366 0.00709266 0)
(-0.806205 0.00824228 0)
(-0.967356 0.00912904 0)
(-0.81338 0.00799967 0)
(-0.975121 0.00982931 0)
(-0.819637 0.00578389 0)
(-0.982678 0.00916324 0)
(-0.824544 0.00158524 0)
(-0.989858 0.00609387 0)
(-0.994232 0.00149676 0)
(-0.0839287 -0.58549 0)
(-0.075254 -0.601965 0)
(-0.188819 -0.448906 0)
(-0.179078 -0.462491 0)
(-0.294076 -0.326485 0)
(-0.320389 -0.325399 0)
(-0.395533 -0.235774 0)
(-0.439525 -0.224832 0)
(-0.489443 -0.170588 0)
(-0.550885 -0.154042 0)
(-0.574075 -0.1248 0)
(-0.650067 -0.105879 0)
(-0.648725 -0.092895 0)
(-0.736805 -0.0737555 0)
(-0.713851 -0.0709159 0)
(-0.811671 -0.0525877 0)
(-0.770391 -0.056186 0)
(-0.874815 -0.0391506 0)
(-0.819482 -0.0467162 0)
(-0.928555 -0.0311121 0)
(-0.862272 -0.0408975 0)
(-0.97473 -0.0267294 0)
(-0.899789 -0.0374587 0)
(-1.0149 -0.0247381 0)
(-0.932861 -0.0353601 0)
(-1.05026 -0.0241623 0)
(-0.96228 -0.0338117 0)
(-1.08181 -0.0240779 0)
(-0.988636 -0.0323056 0)
(-1.11003 -0.0239488 0)
(-1.01223 -0.0305243 0)
(-1.13536 -0.0235111 0)
(-1.03311 -0.0282252 0)
(-1.15798 -0.0226074 0)
(-1.05121 -0.0251575 0)
(-1.17781 -0.0210247 0)
(-1.06664 -0.0210767 0)
(-1.19485 -0.0184351 0)
(-1.07981 -0.0158718 0)
(-1.20935 -0.0145336 0)
(-1.09141 -0.00972164 0)
(-1.22193 -0.00927669 0)
(-1.10211 -0.00321554 0)
(-1.23334 -0.00302033 0)
(-1.11159 0.00269591 0)
(-1.24368 0.00318061 0)
(-1.12021 0.00721502 0)
(-1.25291 0.0081917 0)
(-1.12846 0.0100875 0)
(-1.26197 0.0116466 0)
(-1.13655 0.0114573 0)
(-1.27084 0.0134859 0)
(-1.14439 0.0113782 0)
(-1.27957 0.0139564 0)
(-1.15174 0.00940834 0)
(-1.28837 0.0129369 0)
(-1.15916 0.00583042 0)
(-1.29662 0.00981894 0)
(-1.30134 0.00594795 0)
(-0.146008 -0.463312 0)