/*--------------------------------*- C++ -*----------------------------------*\
  =========                 |
  \\      /  F ield         | OpenFOAM: The Open Source CFD Toolbox
   \\    /   O peration     | Website:  https://openfoam.org
    \\  /    A nd           | Version:  7
     \\/     M anipulation  |
\*---------------------------------------------------------------------------*/
FoamFile
{
    version     2.0;
    format      ascii;
    class       volScalarField;
    location    "7.67";
    object      T;
}
// * * * * * * * * * * * * * * * * * * * * * * * * * * * * * * * * * * * * * //

dimensions      [0 0 0 1 0 0 0];

internalField   nonuniform List<scalar> 
12013
(
300.125
300.378
300.638
300.901
301.166
301.431
301.695
301.955
302.212
302.464
302.71
302.95
303.183
303.409
303.628
303.839
304.043
304.239
304.429
304.611
304.787
304.956
305.119
305.276
305.428
305.574
305.716
305.854
305.987
306.116
306.243
306.366
306.488
306.608
306.726
306.845
306.963
307.082
307.204
307.328
307.457
307.59
307.73
307.878
308.036
308.205
308.387
308.585
308.801
309.038
309.299
309.586
309.905
310.257
310.648
311.083
311.566
312.103
312.7
313.363
314.1
314.919
315.827
316.835
317.952
319.191
320.562
322.081
323.763
325.626
327.69
329.979
332.52
335.347
338.501
342.034
346.015
350.542
355.761
361.915
369.468
300.125
300.378
300.638
300.901
301.167
301.432
301.696
301.956
302.213
302.465
302.712
302.952
303.185
303.411
303.63
303.841
304.045
304.241
304.431
304.613
304.789
304.958
305.121
305.279
305.43
305.577
305.719
305.856
305.989
306.119
306.245
306.369
306.491
306.61
306.729
306.847
306.966
307.085
307.206
307.331
307.459
307.592
307.732
307.88
308.038
308.206
308.389
308.587
308.802
309.039
309.299
309.587
309.905
310.257
310.647
311.081
311.564
312.1
312.695
313.358
314.093
314.91
315.816
316.821
317.936
319.17
320.537
322.051
323.726
325.58
327.633
329.908
332.43
335.232
338.351
341.834
345.742
350.15
355.159
360.894
367.466
300.125
300.379
300.639
300.902
301.168
301.433
301.697
301.959
302.216
302.468
302.715
302.955
303.189
303.415
303.634
303.845
304.049
304.246
304.436
304.618
304.794
304.964
305.127
305.284
305.436
305.583
305.725
305.862
305.995
306.125
306.251
306.375
306.496
306.616
306.735
306.853
306.971
307.091
307.212
307.336
307.464
307.597
307.737
307.885
308.042
308.21
308.392
308.59
308.805
309.041
309.301
309.588
309.904
310.256
310.645
311.078
311.558
312.092
312.686
313.345
314.078
314.89
315.792
316.792
317.899
319.126
320.483
321.984
323.644
325.48
327.508
329.752
332.234
334.983
338.03
341.412
345.173
349.361
354.023
359.187
364.814
300.125
300.38
300.64
300.904
301.17
301.436
301.701
301.962
302.22
302.473
302.72
302.961
303.195
303.421
303.641
303.852
304.057
304.254
304.444
304.627
304.803
304.973
305.136
305.294
305.446
305.592
305.734
305.872
306.005
306.135
306.261
306.385
306.506
306.626
306.744
306.862
306.981
307.1
307.221
307.345
307.473
307.606
307.745
307.892
308.049
308.217
308.398
308.595
308.81
309.045
309.304
309.589
309.904
310.254
310.641
311.072
311.549
312.08
312.67
313.325
314.052
314.858
315.753
316.743
317.84
319.053
320.394
321.875
323.511
325.315
327.306
329.501
331.92
334.587
337.525
340.76
344.319
348.221
352.477
357.068
361.923
300.126
300.381
300.642
300.906
301.173
301.44
301.705
301.968
302.226
302.48
302.728
302.969
303.204
303.431
303.651
303.863
304.068
304.266
304.456
304.639
304.816
304.986
305.149
305.307
305.459
305.606
305.749
305.886
306.02
306.149
306.276
306.399
306.521
306.64
306.759
306.876
306.995
307.114
307.234
307.358
307.486
307.618
307.757
307.904
308.06
308.227
308.407
308.603
308.817
309.051
309.308
309.591
309.904
310.251
310.636
311.063
311.537
312.063
312.647
313.296
314.015
314.812
315.695
316.673
317.753
318.947
320.265
321.718
323.319
325.081
327.018
329.146
331.48
334.038
336.836
339.888
343.207
346.794
350.638
354.707
358.933
300.126
300.382
300.644
300.91
301.178
301.445
301.712
301.975
302.235
302.489
302.738
302.98
303.216
303.444
303.665
303.878
304.084
304.282
304.473
304.657
304.833
305.004
305.168
305.326
305.479
305.626
305.768
305.906
306.04
306.169
306.296
306.419
306.541
306.66
306.778
306.896
307.014
307.133
307.253
307.376
307.503
307.635
307.773
307.919
308.075
308.241
308.42
308.614
308.826
309.058
309.313
309.594
309.905
310.248
310.629
311.051
311.52
312.04
312.616
313.256
313.964
314.749
315.618
316.577
317.637
318.805
320.092
321.508
323.064
324.77
326.639
328.682
330.912
333.339
335.972
338.818
341.877
345.143
348.596
352.2
355.905
300.127
300.384
300.647
300.914
301.183
301.453
301.72
301.985
302.246
302.502
302.752
302.996
303.232
303.462
303.683
303.898
304.104
304.303
304.495
304.679
304.857
305.028
305.193
305.351
305.504
305.652
305.794
305.932
306.066
306.196
306.322
306.446
306.567
306.687
306.805
306.922
307.04
307.158
307.278
307.4
307.527
307.658
307.795
307.94
308.094
308.259
308.437
308.63
308.839
309.069
309.321
309.599
309.906
310.245
310.62
311.037
311.498
312.009
312.576
313.204
313.9
314.668
315.518
316.455
317.487
318.624
319.872
321.242
322.741
324.38
326.167
328.11
330.218
332.497
334.95
337.577
340.374
343.327
346.417
349.613
352.875
300.127
300.386
300.651
300.92
301.191
301.462
301.731
301.998
302.261
302.518
302.77
303.015
303.253
303.484
303.707
303.923
304.131
304.331
304.524
304.709
304.888
305.059
305.225
305.384
305.537
305.685
305.828
305.967
306.1
306.23
306.357
306.481
306.602
306.721
306.839
306.956
307.073
307.191
307.31
307.432
307.558
307.688
307.824
307.968
308.12
308.283
308.459
308.65
308.857
309.083
309.332
309.606
309.907
310.241
310.61
311.019
311.471
311.972
312.527
313.141
313.819
314.568
315.394
316.303
317.303
318.4
319.603
320.917
322.35
323.911
325.603
327.435
329.409
331.528
333.793
336.198
338.736
341.395
344.153
346.988
349.868
300.128
300.389
300.656
300.927
301.2
301.474
301.745
302.014
302.279
302.539
302.793
303.04
303.28
303.513
303.738
303.955
304.164
304.366
304.56
304.747
304.926
305.099
305.265
305.425
305.579
305.728
305.871
306.01
306.144
306.274
306.401
306.524
306.645
306.764
306.882
306.999
307.115
307.232
307.351
307.472
307.597
307.726
307.861
308.003
308.153
308.314
308.488
308.675
308.879
309.102
309.346
309.615
309.911
310.238
310.599
310.998
311.44
311.929
312.468
313.065
313.723
314.448
315.246
316.122
317.083
318.135
319.283
320.534
321.893
323.366
324.955
326.665
328.497
330.452
332.525
334.712
337.004
339.387
341.845
344.359
346.905
300.13
300.393
300.662
300.936
301.212
301.488
301.763
302.035
302.302
302.565
302.821
303.071
303.313
303.548
303.775
303.995
304.206
304.409
304.605
304.793
304.974
305.148
305.316
305.477
305.632
305.781
305.925
306.064
306.199
306.329
306.456
306.579
306.7
306.819
306.936
307.052
307.168
307.285
307.402
307.522
307.646
307.773
307.906
308.047
308.195
308.354
308.524
308.708
308.908
309.127
309.366
309.628
309.917
310.236
310.587
310.976
311.405
311.878
312.401
312.977
313.611
314.308
315.074
315.912
316.829
317.829
318.917
320.098
321.375
322.752
324.231
325.814
327.501
329.289
331.174
333.151
335.21
337.339
339.526
341.754
344.006
300.131
300.397
300.67
300.947
301.227
301.506
301.784
302.059
302.33
302.596
302.856
303.109
303.354
303.592
303.822
304.044
304.257
304.463
304.661
304.851
305.034
305.209
305.378
305.54
305.696
305.846
305.991
306.131
306.266
306.397
306.523
306.647
306.768
306.886
307.003
307.118
307.234
307.349
307.466
307.585
307.706
307.832
307.964
308.101
308.247
308.403
308.57
308.75
308.945
309.158
309.391
309.647
309.927
310.236
310.577
310.952
311.366
311.823
312.325
312.877
313.485
314.15
314.879
315.675
316.543
317.486
318.508
319.613
320.803
322.08
323.445
324.899
326.439
328.063
329.767
331.544
333.386
335.284
337.225
339.198
341.189
300.133
300.403
300.68
300.961
301.244
301.528
301.81
302.09
302.365
302.635
302.898
303.155
303.404
303.645
303.879
304.103
304.32
304.528
304.729
304.921
305.106
305.284
305.454
305.618
305.775
305.926
306.072
306.213
306.348
306.479
306.606
306.73
306.85
306.969
307.085
307.2
307.314
307.429
307.544
307.661
307.781
307.905
308.034
308.169
308.312
308.464
308.627
308.802
308.992
309.199
309.425
309.672
309.943
310.241
310.569
310.93
311.327
311.764
312.243
312.77
313.346
313.977
314.665
315.415
316.229
317.111
318.063
319.088
320.188
321.362
322.612
323.937
325.334
326.8
328.331
329.921
331.563
333.248
334.969
336.713
338.472
300.135
300.41
300.691
300.977
301.265
301.554
301.842
302.126
302.406
302.681
302.95
303.211
303.464
303.71
303.947
304.176
304.396
304.607
304.811
305.006
305.194
305.374
305.546
305.712
305.871
306.023
306.17
306.312
306.448
306.579
306.707
306.83
306.951
307.069
307.184
307.298
307.412
307.525
307.639
307.755
307.873
307.994
308.12
308.253
308.392
308.54
308.698
308.868
309.052
309.252
309.469
309.707
309.968
310.254
310.567
310.911
311.29
311.704
312.159
312.656
313.2
313.793
314.438
315.138
315.895
316.713
317.593
318.536
319.543
320.615
321.75
322.949
324.207
325.523
326.891
328.308
329.766
331.259
332.78
334.32
335.872
300.138
300.418
300.705
300.997
301.291
301.586
301.879
302.17
302.456
302.737
303.011
303.278
303.537
303.787
304.029
304.262
304.487
304.703
304.91
305.108
305.299
305.482
305.657
305.825
305.986
306.14
306.288
306.431
306.568
306.7
306.828
306.951
307.072
307.189
307.304
307.417
307.53
307.642
307.754
307.868
307.983
308.102
308.225
308.354
308.489
308.633
308.786
308.95
309.127
309.319
309.527
309.755
310.004
310.276
310.574
310.9
311.257
311.648
312.076
312.542
313.051
313.603
314.202
314.85
315.55
316.301
317.107
317.968
318.883
319.854
320.878
321.955
323.082
324.256
325.473
326.729
328.02
329.338
330.68
332.037
333.404
300.141
300.428
300.721
301.02
301.322
301.624
301.924
302.222
302.515
302.803
303.084
303.358
303.623
303.879
304.127
304.366
304.596
304.816
305.028
305.231
305.425
305.611
305.79
305.96
306.123
306.28
306.43
306.574
306.712
306.845
306.973
307.097
307.217
307.334
307.448
307.56
307.671
307.782
307.892
308.004
308.117
308.233
308.353
308.477
308.608
308.746
308.894
309.051
309.221
309.404
309.603
309.819
310.054
310.312
310.593
310.9
311.235
311.601
312
312.433
312.905
313.415
313.967
314.563
315.202
315.888
316.62
317.399
318.225
319.097
320.015
320.977
321.98
323.022
324.1
325.21
326.347
327.509
328.689
329.882
331.085
300.145
300.439
300.741
301.048
301.358
301.668
301.978
302.284
302.586
302.882
303.171
303.452
303.725
303.989
304.244
304.489
304.725
304.951
305.168
305.376
305.575
305.766
305.947
306.121
306.287
306.446
306.598
306.743
306.883
307.016
307.145
307.269
307.389
307.506
307.619
307.731
307.84
307.949
308.057
308.166
308.277
308.389
308.505
308.626
308.752
308.885
309.025
309.176
309.337
309.511
309.699
309.903
310.125
310.366
310.629
310.916
311.228
311.567
311.936
312.337
312.77
313.238
313.742
314.284
314.865
315.485
316.145
316.845
317.585
318.364
319.181
320.034
320.922
321.843
322.793
323.77
324.77
325.789
326.824
327.872
328.927
300.149
300.453
300.764
301.081
301.401
301.721
302.041
302.357
302.669
302.975
303.274
303.564
303.846
304.119
304.382
304.635
304.878
305.111
305.335
305.549
305.753
305.948
306.134
306.312
306.481
306.643
306.797
306.944
307.085
307.22
307.349
307.474
307.594
307.71
307.822
307.933
308.041
308.147
308.254
308.36
308.467
308.576
308.688
308.804
308.925
309.051
309.186
309.328
309.481
309.644
309.821
310.012
310.22
310.445
310.689
310.954
311.243
311.555
311.894
312.26
312.655
313.081
313.538
314.027
314.55
315.106
315.697
316.322
316.98
317.671
318.394
319.147
319.929
320.739
321.573
322.429
323.304
324.197
325.103
326.019
326.943
300.155
300.469
300.791
301.119
301.451
301.784
302.115
302.444
302.767
303.085
303.395
303.696
303.989
304.272
304.544
304.807
305.059
305.3
305.531
305.752
305.962
306.163
306.354
306.536
306.71
306.874
307.031
307.181
307.323
307.46
307.59
307.714
307.834
307.95
308.062
308.171
308.277
308.382
308.485
308.589
308.693
308.798
308.906
309.016
309.131
309.252
309.379
309.513
309.656
309.81
309.975
310.153
310.345
310.553
310.778
311.022
311.286
311.571
311.879
312.212
312.569
312.953
313.364
313.803
314.27
314.766
315.291
315.844
316.426
317.035
317.671
318.333
319.019
319.727
320.456
321.203
321.968
322.746
323.537
324.337
325.143
300.161
300.488
300.823
301.165
301.51
301.857
302.203
302.545
302.883
303.214
303.537
303.852
304.157
304.452
304.736
305.009
305.271
305.522
305.761
305.99
306.208
306.415
306.612
306.799
306.977
307.146
307.306
307.458
307.602
307.74
307.871
307.996
308.116
308.231
308.342
308.45
308.554
308.657
308.758
308.858
308.958
309.059
309.162
309.268
309.377
309.49
309.61
309.736
309.869
310.012
310.165
310.329
310.506
310.697
310.903
311.125
311.365
311.624
311.902
312.201
312.522
312.866
313.233
313.623
314.038
314.477
314.94
315.427
315.938
316.473
317.029
317.608
318.206
318.823
319.458
320.108
320.773
321.45
322.138
322.834
323.537
300.168
300.51
300.861
301.218
301.58
301.943
302.305
302.664
303.018
303.365
303.704
304.034
304.353
304.662
304.96
305.245
305.519
305.781
306.031
306.269
306.495
306.709
306.913
307.106
307.289
307.462
307.625
307.78
307.927
308.066
308.198
308.324
308.444
308.559
308.669
308.775
308.877
308.977
309.075
309.172
309.269
309.366
309.464
309.563
309.666
309.773
309.884
310.002
310.125
310.257
310.398
310.548
310.71
310.884
311.071
311.272
311.488
311.721
311.971
312.238
312.524
312.829
313.154
313.499
313.865
314.251
314.658
315.084
315.531
315.997
316.482
316.985
317.505
318.04
318.591
319.155
319.731
320.318
320.915
321.519
322.129
300.177
300.536
300.905
301.281
301.661
302.043
302.425
302.803
303.176
303.541
303.899
304.246
304.583
304.908
305.221
305.521
305.808
306.083
306.344
306.592
306.828
307.051
307.262
307.462
307.65
307.828
307.996
308.154
308.303
308.444
308.577
308.704
308.823
308.937
309.046
309.151
309.251
309.349
309.444
309.537
309.63
309.722
309.815
309.909
310.005
310.105
310.208
310.316
310.431
310.551
310.68
310.817
310.963
311.12
311.289
311.47
311.663
311.871
312.093
312.33
312.583
312.853
313.139
313.442
313.763
314.1
314.455
314.827
315.215
315.62
316.04
316.476
316.926
317.389
317.865
318.352
318.85
319.358
319.873
320.396
320.925
300.187
300.566
300.956
301.354
301.756
302.161
302.564
302.965
303.36
303.747
304.126
304.494
304.85
305.194
305.524
305.841
306.144
306.433
306.707
306.967
307.213
307.446
307.666
307.872
308.067
308.25
308.422
308.584
308.736
308.878
309.013
309.14
309.26
309.373
309.481
309.583
309.682
309.776
309.868
309.958
310.046
310.134
310.221
310.309
310.399
310.491
310.587
310.686
310.79
310.9
311.017
311.14
311.272
311.413
311.564
311.725
311.897
312.081
312.277
312.487
312.709
312.946
313.196
313.461
313.74
314.034
314.342
314.664
315.001
315.35
315.714
316.089
316.477
316.877
317.287
317.707
318.136
318.573
319.018
319.469
319.925
300.198
300.601
301.016
301.439
301.867
302.298
302.727
303.154
303.574
303.987
304.39
304.781
305.16
305.525
305.876
306.212
306.532
306.837
307.125
307.399
307.657
307.9
308.128
308.343
308.545
308.733
308.91
309.075
309.23
309.375
309.511
309.638
309.758
309.87
309.977
310.077
310.173
310.265
310.354
310.439
310.523
310.606
310.688
310.77
310.853
310.938
311.025
311.116
311.21
311.309
311.414
311.525
311.643
311.768
311.902
312.045
312.197
312.359
312.531
312.715
312.909
313.116
313.334
313.564
313.806
314.06
314.327
314.605
314.895
315.196
315.509
315.832
316.166
316.509
316.861
317.222
317.591
317.967
318.349
318.737
319.131
300.212
300.643
301.086
301.538
301.996
302.457
302.917
303.373
303.823
304.265
304.696
305.114
305.519
305.908
306.282
306.639
306.978
307.301
307.606
307.893
308.164
308.418
308.657
308.88
309.089
309.283
309.465
309.634
309.792
309.939
310.076
310.203
310.323
310.434
310.539
310.638
310.731
310.82
310.905
310.986
311.065
311.143
311.219
311.295
311.372
311.449
311.528
311.61
311.695
311.784
311.878
311.976
312.081
312.192
312.31
312.435
312.568
312.71
312.861
313.021
313.19
313.369
313.558
313.757
313.966
314.186
314.415
314.654
314.904
315.163
315.431
315.708
315.994
316.288
316.59
316.9
317.216
317.538
317.866
318.2
318.538
300.228
300.691
301.167
301.653
302.146
302.642
303.137
303.628
304.112
304.587
305.05
305.499
305.932
306.349
306.748
307.128
307.489
307.831
308.153
308.457
308.741
309.008
309.257
309.489
309.705
309.906
310.092
310.266
310.426
310.575
310.712
310.84
310.959
311.07
311.172
311.269
311.359
311.444
311.525
311.602
311.677
311.749
311.82
311.889
311.959
312.029
312.101
312.174
312.25
312.329
312.412
312.499
312.591
312.688
312.791
312.901
313.017
313.141
313.271
313.41
313.557
313.711
313.874
314.046
314.226
314.414
314.612
314.817
315.031
315.253
315.482
315.72
315.964
316.216
316.475
316.739
317.01
317.286
317.567
317.853
318.143
300.246
300.747
301.262
301.787
302.32
302.856
303.392
303.922
304.446
304.958
305.458
305.941
306.407
306.855
307.281
307.687
308.072
308.435
308.776
309.096
309.395
309.674
309.934
310.175
310.399
310.606
310.797
310.973
311.136
311.286
311.425
311.553
311.67
311.779
311.88
311.973
312.06
312.142
312.219
312.291
312.361
312.427
312.492
312.556
312.619
312.682
312.746
312.811
312.878
312.947
313.02
313.096
313.177
313.261
313.351
313.446
313.547
313.654
313.767
313.886
314.013
314.146
314.286
314.434
314.588
314.75
314.919
315.095
315.278
315.467
315.664
315.867
316.076
316.291
316.512
316.738
316.969
317.205
317.446
317.69
317.939
300.267
300.811
301.371
301.943
302.522
303.105
303.687
304.263
304.831
305.386
305.927
306.449
306.951
307.432
307.889
308.323
308.732
309.117
309.479
309.816
310.13
310.422
310.692
310.943
311.173
311.386
311.582
311.761
311.926
312.077
312.216
312.343
312.459
312.566
312.664
312.754
312.837
312.915
312.987
313.055
313.119
313.18
313.239
313.296
313.353
313.409
313.465
313.522
313.581
313.642
313.705
313.771
313.841
313.914
313.992
314.074
314.161
314.253
314.35
314.453
314.561
314.676
314.796
314.922
315.055
315.193
315.338
315.488
315.645
315.807
315.975
316.148
316.327
316.511
316.699
316.893
317.09
317.292
317.498
317.707
317.92
300.292
300.887
301.499
302.123
302.756
303.393
304.028
304.656
305.274
305.878
306.464
307.029
307.571
308.088
308.578
309.042
309.478
309.886
310.268
310.622
310.952
311.256
311.537
311.796
312.033
312.251
312.45
312.632
312.797
312.949
313.086
313.212
313.326
313.43
313.524
313.611
313.69
313.763
313.831
313.893
313.952
314.008
314.061
314.112
314.162
314.211
314.26
314.31
314.361
314.414
314.468
314.525
314.585
314.648
314.715
314.785
314.86
314.939
315.022
315.11
315.203
315.301
315.405
315.513
315.626
315.745
315.869
315.997
316.131
316.27
316.414
316.562
316.715
316.872
317.033
317.199
317.368
317.54
317.716
317.895
318.077
300.321
300.974
301.646
302.332
303.027
303.725
304.421
305.109
305.784
306.441
307.078
307.69
308.274
308.83
309.356
309.85
310.314
310.746
311.148
311.52
311.863
312.18
312.47
312.736
312.978
313.2
313.401
313.584
313.75
313.9
314.036
314.159
314.27
314.371
314.461
314.544
314.618
314.686
314.749
314.806
314.859
314.909
314.957
315.002
315.045
315.088
315.131
315.174
315.218
315.263
315.31
315.358
315.41
315.464
315.521
315.581
315.645
315.713
315.784
315.86
315.94
316.024
316.112
316.205
316.303
316.404
316.51
316.621
316.736
316.855
316.978
317.105
317.236
317.371
317.509
317.651
317.796
317.944
318.094
318.248
318.404
300.355
301.076
301.817
302.574
303.34
304.109
304.874
305.628
306.366
307.084
307.776
308.439
309.069
309.667
310.229
310.755
311.246
311.701
312.122
312.51
312.867
313.193
313.491
313.763
314.009
314.233
314.435
314.617
314.782
314.93
315.063
315.182
315.289
315.385
315.471
315.549
315.619
315.682
315.739
315.791
315.838
315.883
315.924
315.964
316.002
316.039
316.076
316.113
316.15
316.188
316.228
316.27
316.314
316.36
316.409
316.461
316.516
316.574
316.636
316.701
316.77
316.842
316.918
316.998
317.082
317.17
317.262
317.357
317.456
317.558
317.664
317.774
317.887
318.003
318.122
318.244
318.368
318.495
318.625
318.757
318.891
300.393
301.193
302.016
302.854
303.702
304.551
305.394
306.223
307.032
307.815
308.567
309.284
309.963
310.603
311.201
311.759
312.276
312.753
313.192
313.594
313.961
314.295
314.599
314.873
315.121
315.344
315.545
315.725
315.887
316.031
316.16
316.275
316.377
316.468
316.549
316.621
316.686
316.743
316.795
316.842
316.885
316.924
316.96
316.995
317.028
317.06
317.091
317.123
317.155
317.188
317.223
317.259
317.296
317.336
317.379
317.424
317.471
317.522
317.575
317.632
317.692
317.755
317.822
317.891
317.964
318.041
318.12
318.203
318.289
318.378
318.47
318.565
318.663
318.763
318.866
318.972
319.08
319.19
319.302
319.416
319.532
300.438
301.329
302.245
303.177
304.118
305.059
305.989
306.902
307.788
308.642
309.458
310.232
310.961
311.643
312.277
312.864
313.405
313.901
314.354
314.767
315.141
315.479
315.785
316.059
316.306
316.527
316.724
316.9
317.056
317.195
317.319
317.428
317.524
317.61
317.685
317.752
317.812
317.864
317.911
317.953
317.992
318.027
318.059
318.089
318.118
318.146
318.174
318.202
318.23
318.259
318.289
318.321
318.354
318.39
318.427
318.467
318.509
318.554
318.602
318.652
318.705
318.761
318.82
318.882
318.946
319.013
319.084
319.157
319.232
319.31
319.391
319.475
319.56
319.648
319.738
319.83
319.925
320.021
320.118
320.218
320.318
300.49
301.487
302.509
303.55
304.597
305.64
306.669
307.673
308.644
309.573
310.456
311.287
312.065
312.787
313.454
314.067
314.628
315.138
315.6
316.019
316.395
316.734
317.037
317.309
317.551
317.766
317.957
318.127
318.277
318.409
318.526
318.63
318.72
318.8
318.87
318.932
318.987
319.035
319.078
319.117
319.152
319.183
319.213
319.241
319.267
319.293
319.318
319.344
319.37
319.397
319.425
319.454
319.485
319.517
319.552
319.589
319.628
319.669
319.712
319.758
319.806
319.857
319.911
319.966
320.025
320.085
320.149
320.214
320.282
320.352
320.424
320.498
320.574
320.652
320.731
320.813
320.896
320.98
321.066
321.153
321.241
300.55
301.668
302.814
303.978
305.145
306.305
307.442
308.546
309.606
310.613
311.563
312.451
313.274
314.032
314.726
315.358
315.932
316.449
316.915
317.334
317.708
318.042
318.339
318.603
318.837
319.045
319.228
319.389
319.532
319.657
319.767
319.864
319.949
320.024
320.09
320.148
320.199
320.244
320.285
320.321
320.355
320.385
320.414
320.441
320.467
320.492
320.518
320.543
320.569
320.596
320.623
320.652
320.683
320.715
320.748
320.784
320.821
320.861
320.902
320.946
320.991
321.039
321.089
321.141
321.195
321.251
321.309
321.369
321.431
321.495
321.56
321.627
321.696
321.766
321.837
321.91
321.984
322.059
322.135
322.212
322.29
300.62
301.877
303.164
304.468
305.772
307.059
308.315
309.525
310.677
311.764
312.778
313.716
314.578
315.364
316.077
316.72
317.297
317.815
318.276
318.688
319.053
319.377
319.664
319.918
320.142
320.339
320.512
320.665
320.799
320.917
321.021
321.113
321.193
321.264
321.327
321.383
321.433
321.478
321.518
321.555
321.589
321.621
321.651
321.68
321.708
321.735
321.763
321.79
321.818
321.847
321.877
321.908
321.94
321.973
322.008
322.045
322.083
322.122
322.164
322.207
322.252
322.298
322.346
322.396
322.448
322.501
322.556
322.612
322.67
322.729
322.789
322.851
322.913
322.977
323.042
323.108
323.175
323.242
323.31
323.379
323.449
300.699
302.117
303.565
305.027
306.483
307.911
309.293
310.613
311.858
313.019
314.09
315.069
315.958
316.761
317.481
318.123
318.694
319.201
319.65
320.048
320.398
320.708
320.98
321.22
321.432
321.618
321.782
321.926
322.054
322.166
322.265
322.354
322.432
322.502
322.564
322.621
322.672
322.719
322.762
322.802
322.839
322.875
322.91
322.943
322.975
323.008
323.04
323.072
323.105
323.138
323.172
323.207
323.242
323.279
323.317
323.356
323.396
323.438
323.481
323.525
323.57
323.617
323.665
323.714
323.764
323.816
323.869
323.922
323.977
324.033
324.089
324.147
324.205
324.264
324.323
324.383
324.444
324.505
324.566
324.628
324.69
300.79
302.39
304.022
305.662
307.285
308.864
310.379
311.808
313.139
314.366
315.478
316.479
317.376
318.176
318.887
319.516
320.071
320.56
320.991
321.37
321.702
321.995
322.252
322.479
322.678
322.854
323.009
323.147
323.269
323.378
323.475
323.563
323.641
323.713
323.778
323.838
323.894
323.945
323.994
324.04
324.084
324.126
324.168
324.208
324.247
324.286
324.325
324.364
324.403
324.443
324.482
324.522
324.563
324.605
324.647
324.689
324.733
324.777
324.823
324.869
324.916
324.963
325.012
325.061
325.111
325.162
325.213
325.265
325.317
325.37
325.423
325.477
325.531
325.586
325.641
325.696
325.751
325.806
325.862
325.918
325.973
300.893
302.701
304.539
306.377
308.181
309.92
311.569
313.093
314.483
315.741
316.869
317.875
318.765
319.552
320.243
320.85
321.382
321.848
322.256
322.613
322.926
323.2
323.442
323.655
323.843
324.011
324.159
324.292
324.412
324.52
324.618
324.707
324.789
324.865
324.936
325.002
325.064
325.123
325.179
325.234
325.286
325.337
325.386
325.435
325.483
325.53
325.577
325.623
325.67
325.716
325.762
325.809
325.855
325.901
325.948
325.995
326.042
326.09
326.138
326.186
326.235
326.283
326.332
326.382
326.431
326.481
326.531
326.581
326.631
326.682
326.732
326.783
326.833
326.884
326.934
326.984
327.034
327.084
327.134
327.184
327.233
301.008
303.05
305.118
307.172
309.173
311.054
312.792
314.376
315.802
317.075
318.203
319.196
320.066
320.827
321.49
322.068
322.57
323.008
323.39
323.723
324.015
324.272
324.499
324.7
324.879
325.039
325.183
325.314
325.433
325.542
325.642
325.736
325.823
325.905
325.982
326.056
326.126
326.194
326.259
326.322
326.383
326.443
326.501
326.558
326.615
326.67
326.725
326.779
326.832
326.885
326.937
326.989
327.041
327.092
327.143
327.194
327.244
327.294
327.344
327.394
327.444
327.493
327.543
327.592
327.641
327.689
327.738
327.786
327.834
327.882
327.929
327.976
328.023
328.069
328.115
328.16
328.206
328.25
328.295
328.339
328.382
301.132
303.427
305.748
308.02
310.164
312.147
313.95
315.569
317.007
318.274
319.382
320.347
321.184
321.909
322.537
323.079
323.549
323.957
324.313
324.623
324.896
325.136
325.349
325.54
325.711
325.866
326.007
326.136
326.255
326.366
326.47
326.568
326.66
326.748
326.831
326.912
326.989
327.064
327.137
327.207
327.276
327.343
327.409
327.473
327.536
327.598
327.659
327.719
327.778
327.836
327.893
327.949
328.004
328.059
328.113
328.166
328.219
328.271
328.322
328.373
328.423
328.473
328.522
328.571
328.619
328.666
328.713
328.759
328.805
328.85
328.894
328.938
328.981
329.024
329.066
329.107
329.148
329.188
329.228
329.267
329.305
301.245
303.78
306.319
308.735
310.977
313.018
314.849
316.471
317.895
319.137
320.213
321.142
321.943
322.633
323.226
323.737
324.179
324.562
324.896
325.188
325.445
325.673
325.876
326.059
326.224
326.374
326.513
326.641
326.76
326.872
326.977
327.077
327.173
327.264
327.351
327.436
327.517
327.596
327.673
327.748
327.821
327.892
327.962
328.03
328.097
328.162
328.226
328.289
328.351
328.412
328.471
328.53
328.588
328.644
328.7
328.755
328.808
328.861
328.913
328.965
329.015
329.065
329.114
329.162
329.209
329.255
329.301
329.345
329.389
329.433
329.475
329.517
329.558
329.598
329.638
329.676
329.714
329.752
329.788
329.824
329.859
379.593
387.52
394.198
400.03
405.215
409.86
414.027
417.749
421.041
423.903
426.324
428.281
429.738
430.648
430.944
430.534
429.289
427.012
423.373
417.712
408.383
402.075
397.246
393.295
389.935
387.004
384.399
382.055
379.92
377.959
376.146
374.457
372.875
371.386
369.978
368.642
367.369
366.152
364.984
363.861
362.777
361.729
360.713
359.726
358.765
357.828
356.911
356.014
355.135
354.271
353.422
352.586
351.761
350.948
350.144
349.35
348.564
347.786
347.015
346.252
345.494
344.743
343.998
343.258
342.524
341.796
341.073
340.356
339.644
338.938
338.237
337.542
336.853
336.17
335.493
334.823
334.159
333.501
332.851
332.208
331.573
330.945
330.325
329.714
329.111
328.518
327.934
327.359
326.794
326.24
325.696
325.163
324.64
324.129
323.63
323.142
322.666
322.202
321.75
321.31
320.882
320.466
320.063
319.672
319.293
318.925
318.57
318.226
317.894
317.573
317.264
316.965
316.676
316.398
316.13
315.872
315.623
315.382
315.151
314.928
314.713
314.506
314.306
314.112
313.926
313.746
313.571
313.403
313.24
313.081
312.928
312.779
312.634
312.493
312.355
312.221
312.09
311.962
311.837
311.715
311.595
311.477
311.361
311.247
311.135
311.024
310.915
310.808
310.702
310.597
310.493
310.39
310.289
310.188
310.089
309.99
309.893
309.796
309.701
309.607
309.515
374.858
381.741
387.948
393.534
398.576
403.133
407.244
410.931
414.202
417.054
419.475
421.441
422.918
423.858
424.199
423.857
422.72
420.631
417.373
412.677
406.498
401.158
396.705
392.935
389.676
386.808
384.247
381.932
379.82
377.877
376.076
374.398
372.824
371.342
369.941
368.609
367.34
366.126
364.962
363.841
362.76
361.713
360.699
359.714
358.754
357.817
356.902
356.006
355.127
354.264
353.415
352.58
351.756
350.943
350.14
349.346
348.56
347.782
347.012
346.248
345.491
344.74
343.995
343.255
342.522
341.793
341.071
340.353
339.642
338.935
338.235
337.54
336.851
336.168
335.491
334.821
334.157
333.499
332.849
332.206
331.571
330.943
330.323
329.712
329.109
328.516
327.932
327.357
326.792
326.238
325.694
325.161
324.639
324.128
323.628
323.14
322.664
322.2
321.748
321.308
320.88
320.465
320.062
319.67
319.291
318.924
318.569
318.225
317.893
317.572
317.263
316.964
316.676
316.397
316.129
315.871
315.622
315.382
315.151
314.928
314.713
314.505
314.305
314.112
313.926
313.746
313.571
313.403
313.24
313.081
312.928
312.779
312.634
312.493
312.355
312.221
312.09
311.963
311.838
311.715
311.595
311.477
311.361
311.247
311.135
311.024
310.916
310.808
310.702
310.597
310.493
310.391
310.289
310.189
310.089
309.991
309.893
309.797
309.701
309.607
309.515
370.779
376.663
382.236
387.416
392.192
396.568
400.555
404.158
407.376
410.198
412.61
414.586
416.093
417.088
417.515
417.304
416.368
414.606
411.911
408.237
403.801
399.497
395.613
392.171
389.113
386.377
383.908
381.659
379.597
377.691
375.921
374.266
372.712
371.246
369.858
368.537
367.277
366.071
364.913
363.798
362.722
361.68
360.669
359.687
358.73
357.796
356.883
355.988
355.111
354.25
353.402
352.568
351.745
350.933
350.131
349.337
348.552
347.775
347.005
346.242
345.485
344.734
343.989
343.25
342.517
341.789
341.066
340.349
339.637
338.931
338.231