/*--------------------------------*- C++ -*----------------------------------*\
  =========                 |
  \\      /  F ield         | OpenFOAM: The Open Source CFD Toolbox
   \\    /   O peration     | Website:  https://openfoam.org
    \\  /    A nd           | Version:  7
     \\/     M anipulation  |
\*---------------------------------------------------------------------------*/
FoamFile
{
    version     2.0;
    format      ascii;
    class       volVectorField;
    location    "9.24";
    object      U;
}
// * * * * * * * * * * * * * * * * * * * * * * * * * * * * * * * * * * * * * //

dimensions      [0 1 -1 0 0 0 0];

internalField   nonuniform List<vector> 
12013
(
(0.100966 -0.00025815 0)
(0.104708 -0.000445757 0)
(0.11035 -0.000607345 0)
(0.117351 -0.000749814 0)
(0.125555 -0.00087989 0)
(0.134821 -0.00100279 0)
(0.145054 -0.00112284 0)
(0.156204 -0.0012435 0)
(0.168249 -0.00136711 0)
(0.181182 -0.00149465 0)
(0.194998 -0.00162568 0)
(0.20968 -0.00175842 0)
(0.225192 -0.00189003 0)
(0.241473 -0.00201701 0)
(0.258432 -0.00213569 0)
(0.275956 -0.00224262 0)
(0.293913 -0.00233492 0)
(0.312158 -0.00241046 0)
(0.330543 -0.00246793 0)
(0.348919 -0.00250683 0)
(0.367148 -0.00252735 0)
(0.385102 -0.00253025 0)
(0.402666 -0.00251668 0)
(0.419744 -0.00248809 0)
(0.436254 -0.00244607 0)
(0.45213 -0.00239228 0)
(0.467322 -0.00232833 0)
(0.481792 -0.00225578 0)
(0.495515 -0.00217608 0)
(0.508477 -0.00209056 0)
(0.520673 -0.0020004 0)
(0.532103 -0.00190666 0)
(0.542777 -0.00181027 0)
(0.552707 -0.00171203 0)
(0.561913 -0.00161263 0)
(0.570414 -0.00151267 0)
(0.578235 -0.00141265 0)
(0.585401 -0.001313 0)
(0.591939 -0.00121408 0)
(0.597876 -0.00111617 0)
(0.603243 -0.00101954 0)
(0.608068 -0.000924371 0)
(0.612379 -0.000830817 0)
(0.616207 -0.000739002 0)
(0.619581 -0.000649015 0)
(0.622528 -0.000560906 0)
(0.625077 -0.000474694 0)
(0.627257 -0.00039037 0)
(0.629094 -0.000307891 0)
(0.630615 -0.000227174 0)
(0.631846 -0.000148094 0)
(0.632812 -7.04745e-05 0)
(0.633537 5.88079e-06 0)
(0.634046 8.11578e-05 0)
(0.63436 0.00015554 0)
(0.634504 0.000229308 0)
(0.634498 0.000302843 0)
(0.634363 0.00037661 0)
(0.634119 0.000451172 0)
(0.633784 0.000527215 0)
(0.633375 0.000605568 0)
(0.632907 0.000687244 0)
(0.632394 0.000773486 0)
(0.631845 0.000865828 0)
(0.631269 0.000966178 0)
(0.630671 0.00107695 0)
(0.63005 0.00120121 0)
(0.629399 0.00134296 0)
(0.628706 0.00150749 0)
(0.627946 0.001702 0)
(0.62708 0.00193649 0)
(0.62605 0.00222538 0)
(0.624766 0.00259026 0)
(0.623092 0.00306477 0)
(0.620816 0.00370406 0)
(0.617602 0.00460343 0)
(0.612891 0.00593779 0)
(0.605696 0.00805466 0)
(0.594239 0.0117751 0)
(0.575379 0.0200352 0)
(0.556596 0.0533723 0)
(0.100877 -0.000786114 0)
(0.104596 -0.001364 0)
(0.110205 -0.00185883 0)
(0.117179 -0.00229437 0)
(0.125357 -0.00269176 0)
(0.1346 -0.00306695 0)
(0.144812 -0.00343318 0)
(0.155943 -0.0038011 0)
(0.167972 -0.00417783 0)
(0.180893 -0.00456641 0)
(0.194703 -0.0049655 0)
(0.209385 -0.00536965 0)
(0.224906 -0.00577019 0)
(0.241202 -0.0061565 0)
(0.258186 -0.00651739 0)
(0.275744 -0.00684243 0)
(0.293741 -0.00712291 0)
(0.312032 -0.00735239 0)
(0.330467 -0.00752697 0)
(0.348897 -0.00764515 0)
(0.36718 -0.00770755 0)
(0.385188 -0.00771646 0)
(0.402806 -0.00767544 0)
(0.419936 -0.00758885 0)
(0.436495 -0.0074615 0)
(0.452417 -0.00729838 0)
(0.467652 -0.00710439 0)
(0.482162 -0.00688423 0)
(0.495922 -0.00664229 0)
(0.508917 -0.00638254 0)
(0.521141 -0.00610858 0)
(0.532597 -0.00582361 0)
(0.543294 -0.00553043 0)
(0.553245 -0.00523146 0)
(0.562467 -0.00492882 0)
(0.570983 -0.00462431 0)
(0.578816 -0.00431946 0)
(0.585992 -0.00401556 0)
(0.592537 -0.00371371 0)
(0.59848 -0.00341482 0)
(0.60385 -0.00311962 0)
(0.608677 -0.00282873 0)
(0.612988 -0.00254263 0)
(0.616814 -0.00226169 0)
(0.620183 -0.00198618 0)
(0.623125 -0.00171625 0)
(0.625667 -0.00145198 0)
(0.627837 -0.00119335 0)
(0.629663 -0.000940226 0)
(0.631171 -0.00069235 0)
(0.632387 -0.000449347 0)
(0.633336 -0.000210687 0)
(0.634043 2.42175e-05 0)
(0.634531 0.000255886 0)
(0.634822 0.000484848 0)
(0.63494 0.000711954 0)
(0.634906 0.000938357 0)
(0.634741 0.00116548 0)
(0.634463 0.00139505 0)
(0.634092 0.00162916 0)
(0.633643 0.00187032 0)
(0.633132 0.00212162 0)
(0.632573 0.0023868 0)
(0.631975 0.0026705 0)
(0.631348 0.00297844 0)
(0.630696 0.00331784 0)
(0.63002 0.00369786 0)
(0.629315 0.00413031 0)
(0.62857 0.00463078 0)
(0.627765 0.00522017 0)
(0.626869 0.00592734 0)
(0.625832 0.00679322 0)
(0.624585 0.00787779 0)
(0.623024 0.00927227 0)
(0.621001 0.0111209 0)
(0.618301 0.0136615 0)
(0.614623 0.0173032 0)
(0.609537 0.0227803 0)
(0.602497 0.031489 0)
(0.593402 0.0461632 0)
(0.590274 0.0719964 0)
(0.100774 -0.00133039 0)
(0.104433 -0.00233541 0)
(0.109971 -0.00318842 0)
(0.116884 -0.00393873 0)
(0.125009 -0.00462322 0)
(0.134203 -0.00526932 0)
(0.144371 -0.00590003 0)
(0.155464 -0.00653385 0)
(0.167463 -0.00718321 0)
(0.180362 -0.00785348 0)
(0.194162 -0.0085424 0)
(0.208849 -0.0092406 0)
(0.22439 -0.00993306 0)
(0.240726 -0.0106013 0)
(0.257766 -0.0112259 0)
(0.275396 -0.0117888 0)
(0.29348 -0.0122746 0)
(0.31187 -0.0126722 0)
(0.330411 -0.0129749 0)
(0.348952 -0.01318 0)
(0.36735 -0.0132885 0)
(0.385471 -0.0133044 0)
(0.4032 -0.013234 0)
(0.420436 -0.0130847 0)
(0.437096 -0.012865 0)
(0.453112 -0.0125835 0)
(0.468435 -0.0122487 0)
(0.483024 -0.0118686 0)
(0.496857 -0.011451 0)
(0.509917 -0.0110026 0)
(0.5222 -0.0105297 0)
(0.533708 -0.0100379 0)
(0.544451 -0.00953187 0)
(0.554441 -0.00901591 0)
(0.563698 -0.00849362 0)
(0.572242 -0.00796811 0)
(0.580099 -0.00744202 0)
(0.587294 -0.00691759 0)
(0.593854 -0.00639668 0)
(0.599808 -0.00588085 0)
(0.605186 -0.00537138 0)
(0.610016 -0.00486931 0)
(0.614327 -0.00437545 0)
(0.61815 -0.00389044 0)
(0.621513 -0.00341471 0)
(0.624444 -0.00294854 0)
(0.626974 -0.00249206 0)
(0.629128 -0.00204518 0)
(0.630935 -0.00160768 0)
(0.632421 -0.00117912 0)
(0.633611 -0.000758832 0)
(0.634531 -0.000345898 0)
(0.635205 6.06601e-05 0)
(0.635657 0.00046174 0)
(0.63591 0.000858341 0)
(0.635985 0.00125196 0)
(0.635904 0.0016446 0)
(0.635688 0.0020387 0)
(0.635355 0.00243721 0)
(0.634923 0.00284367 0)
(0.63441 0.00326237 0)
(0.633831 0.00369848 0)
(0.633198 0.00415832 0)
(0.632524 0.00464959 0)
(0.631817 0.00518181 0)
(0.631083 0.00576684 0)
(0.630325 0.00641963 0)
(0.629542 0.00715928 0)
(0.628727 0.00801059 0)
(0.627868 0.00900633 0)
(0.626943 0.0101907 0)
(0.625923 0.0116248 0)
(0.624768 0.0133948 0)
(0.623424 0.0156259 0)
(0.621831 0.0185035 0)
(0.619928 0.0223099 0)
(0.617687 0.0274806 0)
(0.615189 0.034695 0)
(0.612813 0.0450194 0)
(0.611681 0.0600469 0)
(0.615705 0.0812216 0)
(0.100664 -0.0018833 0)
(0.104241 -0.00335424 0)
(0.109674 -0.00459226 0)
(0.116496 -0.00568173 0)
(0.124539 -0.00667527 0)
(0.133659 -0.0076129 0)
(0.143762 -0.00852841 0)
(0.154799 -0.009449 0)
(0.166752 -0.0103931 0)
(0.179623 -0.0113687 0)
(0.193414 -0.0123729 0)
(0.208117 -0.0133918 0)
(0.223703 -0.0144035 0)
(0.240111 -0.0153807 0)
(0.257253 -0.0162948 0)
(0.27501 -0.0171189 0)
(0.293244 -0.0178304 0)
(0.3118 -0.0184129 0)
(0.330519 -0.0188562 0)
(0.349245 -0.0191566 0)
(0.367828 -0.0193155 0)
(0.386132 -0.0193391 0)
(0.404037 -0.0192363 0)
(0.421441 -0.0190183 0)
(0.438258 -0.0186976 0)
(0.45442 -0.0182867 0)
(0.469876 -0.0177981 0)
(0.484588 -0.0172438 0)
(0.49853 -0.0166349 0)
(0.511688 -0.0159814 0)
(0.524058 -0.0152925 0)
(0.535643 -0.014576 0)
(0.546451 -0.0138392 0)
(0.556499 -0.013088 0)
(0.565804 -0.0123278 0)
(0.57439 -0.0115631 0)
(0.58228 -0.0107977 0)
(0.589502 -0.0100347 0)
(0.596083 -0.00927695 0)
(0.602052 -0.00852664 0)
(0.607438 -0.00778559 0)
(0.612272 -0.0070553 0)
(0.616582 -0.00633691 0)
(0.6204 -0.00563132 0)
(0.623752 -0.00493915 0)
(0.62667 -0.00426077 0)
(0.629181 -0.00359632 0)
(0.631312 -0.00294567 0)
(0.633092 -0.00230846 0)
(0.634547 -0.00168405 0)
(0.635702 -0.00107145 0)
(0.636583 -0.000469325 0)
(0.637213 0.00012369 0)
(0.637618 0.000708893 0)
(0.637818 0.00128786 0)
(0.637837 0.00186283 0)
(0.637696 0.0024367 0)
(0.637414 0.00301296 0)
(0.637011 0.00359581 0)
(0.636506 0.00419026 0)
(0.635914 0.00480235 0)
(0.635251 0.0054393 0)
(0.634531 0.00610987 0)
(0.633766 0.00682466 0)
(0.632968 0.00759665 0)
(0.632143 0.00844181 0)
(0.631299 0.00938001 0)
(0.630437 0.0104362 0)
(0.629559 0.0116422 0)
(0.628661 0.0130391 0)
(0.627739 0.0146803 0)
(0.626784 0.0166371 0)
(0.62579 0.0190049 0)
(0.624757 0.0219138 0)
(0.623701 0.025541 0)
(0.622676 0.0301287 0)
(0.621818 0.0360011 0)
(0.62141 0.0435741 0)
(0.622 0.0533304 0)
(0.624531 0.0656752 0)
(0.630637 0.080366 0)
(0.100551 -0.00244307 0)
(0.104035 -0.00441581 0)
(0.10934 -0.00606684 0)
(0.116044 -0.00752147 0)
(0.12398 -0.00884787 0)
(0.133004 -0.0100995 0)
(0.143021 -0.0113222 0)
(0.153985 -0.0125528 0)
(0.165885 -0.0138168 0)
(0.178726 -0.0151255 0)
(0.192519 -0.0164749 0)
(0.207262 -0.0178466 0)
(0.222929 -0.0192107 0)
(0.239463 -0.0205298 0)
(0.256771 -0.0217647 0)
(0.274733 -0.0228784 0)
(0.293201 -0.0238399 0)
(0.312012 -0.0246268 0)
(0.331 -0.0252252 0)
(0.349999 -0.02563 0)
(0.368852 -0.0258437 0)
(0.387419 -0.0258744 0)
(0.405574 -0.0257348 0)
(0.423212 -0.0254402 0)
(0.440246 -0.0250074 0)
(0.456608 -0.0244536 0)
(0.472243 -0.0237959 0)
(0.487116 -0.0230503 0)
(0.501202 -0.0222318 0)
(0.514487 -0.021354 0)
(0.526968 -0.020429 0)
(0.538649 -0.0194678 0)
(0.54954 -0.0184796 0)
(0.559658 -0.0174726 0)
(0.569022 -0.0164539 0)
(0.577655 -0.0154294 0)
(0.585584 -0.0144043 0)
(0.592835 -0.0133827 0)
(0.599438 -0.0123682 0)
(0.605421 -0.0113638 0)
(0.610815 -0.0103719 0)
(0.615649 -0.0093944 0)
(0.619955 -0.00843282 0)
(0.623761 -0.00748829 0)
(0.627098 -0.0065616 0)
(0.629994 -0.0056532 0)
(0.632478 -0.00476324 0)
(0.634579 -0.00389152 0)
(0.636323 -0.00303752 0)
(0.637737 -0.00220036 0)
(0.638847 -0.00137872 0)
(0.639677 -0.000570838 0)
(0.640254 0.000225041 0)
(0.6406 0.00101065 0)
(0.640737 0.00178822 0)
(0.640689 0.00256084 0)
(0.640475 0.0033323 0)
(0.640117 0.00410716 0)
(0.639634 0.00489086 0)
(0.639043 0.00568983 0)
(0.638362 0.00651174 0)
(0.637606 0.0073657 0)
(0.636792 0.00826263 0)
(0.635932 0.00921563 0)
(0.63504 0.0102405 0)
(0.634125 0.0113563 0)
(0.633198 0.0125865 0)
(0.632268 0.0139599 0)
(0.631343 0.0155121 0)
(0.630432 0.0172874 0)
(0.629544 0.0193418 0)
(0.628695 0.0217457 0)
(0.627905 0.024588 0)
(0.627215 0.0279802 0)
(0.626689 0.0320602 0)
(0.626438 0.036993 0)
(0.626645 0.0429631 0)
(0.627592 0.0501493 0)
(0.629699 0.0586652 0)
(0.633527 0.0684345 0)
(0.639734 0.0789651 0)
(0.100435 -0.00300914 0)
(0.103828 -0.00551665 0)
(0.108991 -0.00760948 0)
(0.115555 -0.00945657 0)
(0.123364 -0.0111415 0)
(0.132273 -0.0127319 0)
(0.142189 -0.0142867 0)
(0.153071 -0.0158542 0)
(0.164914 -0.0174678 0)
(0.177735 -0.0191427 0)
(0.191554 -0.0208744 0)
(0.206378 -0.0226391 0)
(0.222187 -0.0243972 0)
(0.238924 -0.0260997 0)
(0.256493 -0.0276944 0)
(0.274762 -0.0291326 0)
(0.293574 -0.0303736 0)
(0.312754 -0.0313876 0)
(0.33212 -0.0321571 0)
(0.351497 -0.0326758 0)
(0.370718 -0.0329472 0)
(0.389634 -0.0329825 0)
(0.408117 -0.0327987 0)
(0.426058 -0.0324159 0)
(0.443367 -0.0318561 0)
(0.459976 -0.031142 0)
(0.475833 -0.0302955 0)
(0.490901 -0.0293375 0)
(0.505157 -0.0282872 0)
(0.51859 -0.0271621 0)
(0.531198 -0.0259778 0)
(0.542987 -0.0247479 0)
(0.553969 -0.0234845 0)
(0.564162 -0.0221979 0)
(0.573587 -0.020897 0)
(0.582269 -0.0195894 0)
(0.590235 -0.0182815 0)
(0.597512 -0.0169785 0)
(0.604132 -0.0156849 0)
(0.610123 -0.0144045 0)
(0.615517 -0.0131401 0)
(0.620345 -0.0118943 0)
(0.624637 -0.0106687 0)
(0.628424 -0.0094648 0)
(0.631735 -0.00828351 0)
(0.6346 -0.00712536 0)
(0.637048 -0.00599045 0)
(0.639106 -0.00487851 0)
(0.640803 -0.00378884 0)
(0.642166 -0.0027203 0)
(0.643219 -0.00167123 0)
(0.643989 -0.000639447 0)
(0.6445 0.000377207 0)
(0.644776 0.00138093 0)
(0.644839 0.00237471 0)
(0.644713 0.00336249 0)
(0.644418 0.00434899 0)
(0.643973 0.00533981 0)
(0.6434 0.00634152 0)
(0.642716 0.00736185 0)
(0.641939 0.00840988 0)
(0.641087 0.00949632 0)
(0.640174 0.0106338 0)
(0.639218 0.0118372 0)
(0.638232 0.0131243 0)
(0.637232 0.0145162 0)
(0.636231 0.0160378 0)
(0.635245 0.0177192 0)
(0.63429 0.0195964 0)
(0.633384 0.0217125 0)
(0.632551 0.0241188 0)
(0.631821 0.0268764 0)
(0.631237 0.0300569 0)
(0.630858 0.0337418 0)
(0.630769 0.03802 0)
(0.631089 0.0429809 0)
(0.631981 0.0486996 0)
(0.63366 0.0552111 0)
(0.636385 0.0624691 0)
(0.640438 0.0702875 0)
(0.646047 0.078276 0)
(0.100317 -0.003582 0)
(0.103628 -0.00665474 0)
(0.108642 -0.00921868 0)
(0.115055 -0.0114865 0)
(0.122723 -0.0135576 0)
(0.131503 -0.0155138 0)
(0.141308 -0.0174291 0)
(0.152104 -0.0193648 0)
(0.163899 -0.0213638 0)
(0.176724 -0.0234465 0)
(0.190613 -0.0256075 0)
(0.205585 -0.0278163 0)
(0.221625 -0.0300218 0)
(0.238675 -0.03216 0)
(0.25663 -0.0341632 0)
(0.275344 -0.0359681 0)
(0.294638 -0.0375226 0)
(0.31432 -0.038789 0)
(0.334192 -0.0397455 0)
(0.354061 -0.0403854 0)
(0.373752 -0.0407142 0)
(0.393107 -0.0407472 0)
(0.411992 -0.0405066 0)
(0.430296 -0.0400186 0)
(0.447931 -0.0393116 0)
(0.464826 -0.038414 0)
(0.480934 -0.0373538 0)
(0.496218 -0.0361571 0)
(0.51066 -0.0348479 0)
(0.524251 -0.0334478 0)
(0.536991 -0.0319761 0)
(0.548889 -0.0304498 0)
(0.559959 -0.0288836 0)
(0.570222 -0.0272901 0)
(0.579702 -0.0256801 0)
(0.588424 -0.0240629 0)
(0.596416 -0.0224462 0)
(0.60371 -0.0208364 0)
(0.610335 -0.0192388 0)
(0.616323 -0.017658 0)
(0.621706 -0.0160973 0)
(0.626515 -0.0145596 0)
(0.630781 -0.0130472 0)
(0.634535 -0.0115614 0)
(0.637808 -0.0101035 0)
(0.64063 -0.00867393 0)
(0.643028 -0.00727279 0)
(0.645033 -0.00589969 0)
(0.646671 -0.00455373 0)
(0.64797 -0.00323353 0)
(0.648955 -0.00193708 0)
(0.649652 -0.000661788 0)
(0.650087 0.000594911 0)
(0.650283 0.00183572 0)
(0.650263 0.00306447 0)
(0.650049 0.00428594 0)
(0.649663 0.00550577 0)
(0.649125 0.00673047 0)
(0.648455 0.00796761 0)
(0.647672 0.00922597 0)
(0.646795 0.0105158 0)
(0.645842 0.0118488 0)
(0.64483 0.0132389 0)
(0.643778 0.0147019 0)
(0.642703 0.0162564 0)
(0.641623 0.0179238 0)
(0.640556 0.0197291 0)
(0.639523 0.0217009 0)
(0.638546 0.0238724 0)
(0.637653 0.0262813 0)
(0.636876 0.0289699 0)
(0.636254 0.0319852 0)
(0.635838 0.0353768 0)
(0.635692 0.0391951 0)
(0.635899 0.0434855 0)
(0.636561 0.0482809 0)
(0.637798 0.0535894 0)
(0.639747 0.0593772 0)
(0.642548 0.0655494 0)
(0.646317 0.0719296 0)
(0.651096 0.0782541 0)
(0.100197 -0.00416329 0)
(0.103439 -0.00782967 0)
(0.108308 -0.0108944 0)
(0.114563 -0.0136122 0)
(0.122081 -0.0160987 0)
(0.130727 -0.0184507 0)
(0.140419 -0.0207591 0)
(0.151136 -0.0231003 0)
(0.162905 -0.0255294 0)
(0.175777 -0.0280727 0)
(0.189807 -0.0307238 0)
(0.205027 -0.033443 0)
(0.221427 -0.0361641 0)
(0.23894 -0.0388038 0)
(0.257443 -0.0412746 0)
(0.276766 -0.0434955 0)
(0.296704 -0.0454008 0)
(0.317038 -0.0469445 0)
(0.337548 -0.0481013 0)
(0.358025 -0.0488647 0)
(0.37828 -0.0492441 0)
(0.398151 -0.0492604 0)
(0.417499 -0.0489429 0)
(0.436212 -0.0483251 0)
(0.454202 -0.0474428 0)
(0.471406 -0.0463317 0)
(0.487775 -0.0450262 0)
(0.503281 -0.0435583 0)
(0.517906 -0.0419573 0)
(0.531648 -0.0402495 0)
(0.544509 -0.038458 0)
(0.556503 -0.0366031 0)
(0.567648 -0.0347025 0)
(0.577965 -0.0327712 0)
(0.587482 -0.0308219 0)
(0.596226 -0.0288656 0)
(0.604228 -0.0269114 0)
(0.61152 -0.0249667 0)
(0.618134 -0.0230379 0)
(0.624102 -0.0211299 0)
(0.629456 -0.0192469 0)
(0.63423 -0.017392 0)
(0.638455 -0.0155677 0)
(0.642163 -0.0137758 0)
(0.645383 -0.0120174 0)
(0.648147 -0.010293 0)
(0.650484 -0.00860266 0)
(0.652422 -0.00694583 0)
(0.65399 -0.00532142 0)
(0.655214 -0.00372775 0)
(0.656121 -0.00216255 0)
(0.656735 -0.000622883 0)
(0.657085 0.000894286 0)
(0.657193 0.00239225 0)
(0.657081 0.00387567 0)
(0.656773 0.00535016 0)
(0.656289 0.00682213 0)
(0.655652 0.00829886 0)
(0.654881 0.0097887 0)
(0.653996 0.0113012 0)
(0.653018 0.0128472 0)
(0.651964 0.0144393 0)
(0.650855 0.0160915 0)
(0.64971 0.0178198 0)
(0.648549 0.0196426 0)
(0.647394 0.0215802 0)
(0.646266 0.0236556 0)
(0.64519 0.0258942 0)
(0.644194 0.0283239 0)
(0.643308 0.0309744 0)
(0.642568 0.0338772 0)
(0.642018 0.0370636 0)
(0.641708 0.0405628 0)
(0.641695 0.0443988 0)
(0.642048 0.0485857 0)
(0.642841 0.0531218 0)
(0.644154 0.0579817 0)
(0.646062 0.063109 0)
(0.648627 0.068409 0)
(0.65188 0.0737459 0)
(0.655794 0.0789535 0)
(0.100072 -0.00475554 0)
(0.103263 -0.00904256 0)
(0.107995 -0.0126382 0)
(0.114093 -0.015836 0)
(0.121461 -0.0187692 0)
(0.129972 -0.0215505 0)
(0.139558 -0.0242899 0)
(0.150218 -0.0270829 0)
(0.162003 -0.029999 0)
(0.174994 -0.0330721 0)
(0.189272 -0.0362929 0)
(0.204882 -0.0396088 0)
(0.221812 -0.0429322 0)
(0.239978 -0.0461541 0)
(0.259225 -0.0491615 0)
(0.279346 -0.0518522 0)
(0.300101 -0.0541454 0)
(0.321238 -0.055987 0)
(0.34251 -0.0573495 0)
(0.363694 -0.0582295 0)
(0.384589 -0.0586423 0)
(0.405027 -0.0586172 0)
(0.424871 -0.0581921 0)
(0.44401 -0.0574101 0)
(0.462362 -0.0563156 0)
(0.479868 -0.0549526 0)
(0.496487 -0.0533627 0)
(0.512194 -0.0515845 0)
(0.526981 -0.049653 0)
(0.540847 -0.0475993 0)
(0.553803 -0.0454507 0)
(0.565865 -0.043231 0)
(0.577055 -0.0409607 0)
(0.587398 -0.0386573 0)
(0.596924 -0.0363356 0)
(0.605665 -0.0340081 0)
(0.613651 -0.0316852 0)
(0.620917 -0.0293754 0)
(0.627496 -0.0270858 0)
(0.633422 -0.0248221 0)
(0.638729 -0.0225889 0)
(0.643449 -0.0203897 0)
(0.647616 -0.0182272 0)
(0.65126 -0.0161032 0)
(0.654414 -0.0140189 0)
(0.657108 -0.0119749 0)
(0.659371 -0.00997097 0)
(0.661232 -0.00800651 0)
(0.662719 -0.00608018 0)
(0.663859 -0.00419007 0)
(0.66468 -0.00233362 0)
(0.665205 -0.000507724 0)
(0.665465 0.00129119 0)
(0.665479 0.00306716 0)
(0.665272 0.00482565 0)
(0.664866 0.00657296 0)
(0.664284 0.00831611 0)
(0.663547 0.0100629 0)
(0.662675 0.0118223 0)
(0.66169 0.0136041 0)
(0.660611 0.0154195 0)
(0.659461 0.0172809 0)
(0.658259 0.0192022 0)
(0.657026 0.0211986 0)
(0.655786 0.023287 0)
(0.65456 0.0254857 0)
(0.653374 0.0278141 0)
(0.652255 0.0302932 0)
(0.651232 0.0329443 0)
(0.650337 0.0357887 0)
(0.649606 0.0388467 0)
(0.64908 0.0421357 0)
(0.648802 0.0456686 0)
(0.648819 0.0494509 0)
(0.649182 0.0534775 0)
(0.649939 0.0577295 0)
(0.651136 0.0621701 0)
(0.652808 0.066743 0)
(0.654971 0.0713707 0)
(0.65762 0.0759582 0)
(0.660707 0.0804041 0)
(0.0999401 -0.00536195 0)
(0.103099 -0.010296 0)
(0.10771 -0.0144533 0)
(0.113655 -0.0181625 0)
(0.120878 -0.021576 0)
(0.129264 -0.0248245 0)
(0.138762 -0.028041 0)
(0.149402 -0.0313444 0)
(0.161273 -0.0348227 0)
(0.174494 -0.0385174 0)
(0.189172 -0.042413 0)
(0.205364 -0.0464367 0)
(0.223043 -0.0504699 0)
(0.242088 -0.0543688 0)
(0.262298 -0.0579884 0)
(0.283415 -0.0612019 0)
(0.305152 -0.0639132 0)
(0.327222 -0.0660622 0)
(0.349354 -0.0676227 0)
(0.371309 -0.0685979 0)
(0.39288 -0.0690126 0)
(0.4139 -0.0689074 0)
(0.434236 -0.0683317 0)
(0.453783 -0.0673396 0)
(0.472469 -0.0659859 0)
(0.490241 -0.0643236 0)
(0.507068 -0.0624026 0)
(0.522933 -0.0602683 0)
(0.537835 -0.0579618 0)
(0.551781 -0.0555192 0)
(0.564786 -0.052972 0)
(0.576871 -0.0503475 0)
(0.588064 -0.0476692 0)
(0.598393 -0.0449568 0)
(0.607891 -0.0422271 0)
(0.616592 -0.0394941 0)
(0.624529 -0.0367694 0)
(0.631739 -0.0340626 0)
(0.638256 -0.0313814 0)
(0.644115 -0.0287322 0)
(0.649351 -0.0261198 0)
(0.653998 -0.023548 0)
(0.658088 -0.0210196 0)
(0.661654 -0.0185367 0)
(0.664727 -0.0161003 0)
(0.667338 -0.0137109 0)
(0.669517 -0.0113682 0)
(0.671292 -0.00907144 0)
(0.672693 -0.00681899 0)
(0.673745 -0.00460871 0)
(0.674476 -0.00243776 0)
(0.67491 -0.000303205 0)
(0.675078 0.00179911 0)
(0.674999 0.0038743 0)
(0.674698 0.00592851 0)
(0.674198 0.0079685 0)
(0.67352 0.0100017 0)
(0.672688 0.0120362 0)
(0.671721 0.014081 0)
(0.670642 0.0161461 0)
(0.669472 0.0182423 0)
(0.668233 0.0203815 0)
(0.666946 0.0225766 0)
(0.665634 0.0248414 0)
(0.664321 0.0271904 0)
(0.663031 0.0296389 0)
(0.661789 0.0322025 0)
(0.660624 0.0348968 0)
(0.659563 0.0377366 0)
(0.658638 0.0407352 0)
(0.657882 0.0439034 0)
(0.657329 0.0472481 0)
(0.657015 0.0507707 0)
(0.656973 0.0544656 0)
(0.657238 0.0583184 0)
(0.657839 0.0623043 0)
(0.658796 0.066387 0)
(0.66012 0.0705191 0)
(0.661808 0.0746431 0)
(0.663838 0.0786954 0)
(0.666161 0.0826156 0)
(0.0997992 -0.00598622 0)
(0.102946 -0.011594 0)
(0.107453 -0.0163448 0)
(0.113256 -0.0205983 0)
(0.120345 -0.0245291 0)
(0.128624 -0.0282894 0)
(0.13807 -0.0320407 0)
(0.148754 -0.035932 0)
(0.160817 -0.0400733 0)
(0.174424 -0.0445127 0)
(0.189712 -0.0492209 0)
(0.206731 -0.0540919 0)
(0.225419 -0.0589623 0)
(0.245595 -0.0636423 0)
(0.26699 -0.0679483 0)
(0.289282 -0.0717276 0)
(0.312135 -0.0748715 0)
(0.335226 -0.0773187 0)
(0.358266 -0.0790499 0)
(0.381006 -0.0800796 0)
(0.403242 -0.0804471 0)
(0.424811 -0.0802072 0)
(0.44559 -0.0794238 0)
(0.465488 -0.0781637 0)
(0.484442 -0.0764934 0)
(0.502412 -0.0744759 0)
(0.519378 -0.0721697 0)
(0.535333 -0.0696276 0)
(0.550282 -0.0668965 0)
(0.564242 -0.0640178 0)
(0.577233 -0.0610271 0)
(0.589284 -0.0579552 0)
(0.600424 -0.0548281 0)
(0.610688 -0.051668 0)
(0.620111 -0.0484933 0)
(0.628728 -0.0453194 0)
(0.636578 -0.0421591 0)
(0.643696 -0.0390226 0)
(0.65012 -0.0359184 0)
(0.655884 -0.0328531 0)
(0.661024 -0.029832 0)
(0.665575 -0.0268591 0)
(0.66957 -0.0239372 0)
(0.673042 -0.0210681 0)
(0.676022 -0.0182531 0)
(0.67854 -0.0154924 0)
(0.680628 -0.0127856 0)
(0.682312 -0.0101317 0)
(0.683622 -0.00752886 0)
(0.684585 -0.00497471 0)
(0.685227 -0.0024662 0)
(0.685574 -4.90329e-07 0)
(0.685655 0.00242703 0)
(0.685489 0.0048226 0)
(0.685101 0.00719289 0)
(0.684514 0.00954492 0)
(0.683751 0.0118862 0)
(0.682834 0.014225 0)
(0.681784 0.01657 0)
(0.680624 0.0189308 0)
(0.679375 0.0213177 0)
(0.678061 0.0237413 0)
(0.676702 0.0262131 0)
(0.675323 0.0287449 0)
(0.673948 0.0313484 0)
(0.6726 0.0340358 0)
(0.671305 0.0368183 0)
(0.67009 0.0397064 0)
(0.668982 0.0427093 0)
(0.668007 0.0458337 0)
(0.667195 0.0490831 0)
(0.666572 0.0524575 0)
(0.666164 0.0559515 0)
(0.665997 0.0595542 0)
(0.66609 0.0632483 0)
(0.666457 0.0670095 0)
(0.667105 0.0708071 0)
(0.668032 0.0746046 0)
(0.669226 0.0783616 0)
(0.67066 0.0820369 0)
(0.672295 0.0855949 0)
(0.0996465 -0.00663239 0)
(0.102803 -0.0129418 0)
(0.107227 -0.0183195 0)
(0.112903 -0.0231531 0)
(0.119875 -0.0276433 0)
(0.128078 -0.0319699 0)
(0.137527 -0.0363317 0)
(0.148354 -0.0409157 0)
(0.160764 -0.0458574 0)
(0.174977 -0.0512057 0)
(0.191143 -0.0569024 0)
(0.209284 -0.0627883 0)
(0.229266 -0.068637 0)
(0.250822 -0.0742006 0)
(0.273597 -0.0792534 0)
(0.297199 -0.0836196 0)
(0.321245 -0.087185 0)
(0.345384 -0.0898947 0)
(0.369316 -0.0917437 0)
(0.392796 -0.0927648 0)
(0.415628 -0.0930159 0)
(0.437663 -0.0925701 0)
(0.458794 -0.0915077 0)
(0.478945 -0.0899102 0)
(0.498069 -0.0878565 0)
(0.516139 -0.0854202 0)
(0.533148 -0.0826687 0)
(0.5491 -0.079662 0)
(0.56401 -0.0764531 0)
(0.577901 -0.0730882 0)
(0.590802 -0.069607 0)
(0.602746 -0.0660432 0)
(0.613769 -0.0624257 0)
(0.623907 -0.0587783 0)
(0.6332 -0.0551212 0)
(0.641685 -0.0514708 0)
(0.649402 -0.0478409 0)
(0.656389 -0.0442423 0)
(0.662683 -0.0406839 0)
(0.668322 -0.0371727 0)
(0.67334 -0.033714 0)
(0.677773 -0.0303119 0)
(0.681654 -0.0269691 0)
(0.685016 -0.0236875 0)
(0.68789 -0.0204681 0)
(0.690308 -0.0173108 0)
(0.692297 -0.0142153 0)
(0.693888 -0.0111801 0)
(0.695108 -0.00820343 0)
(0.695984 -0.00528269 0)
(0.696542 -0.00241476 0)
(0.69681 0.000403747 0)
(0.696811 0.00317789 0)
(0.696568 0.0059144 0)
(0.696105 0.00862025 0)
(0.695446 0.0113025 0)
(0.694612 0.0139687 0)
(0.693626 0.0166268 0)
(0.69251 0.0192851 0)
(0.691287 0.0219524 0)
(0.689978 0.0246378 0)
(0.688605 0.0273509 0)
(0.687192 0.030101 0)
(0.685762 0.0328977 0)
(0.684337 0.0357502 0)
(0.682941 0.0386669 0)
(0.681599 0.0416555 0)
(0.680334 0.0447222 0)
(0.67917 0.0478713 0)
(0.678131 0.051105 0)
(0.677239 0.0544221 0)
(0.676515 0.0578184 0)
(0.675978 0.0612855 0)
(0.675643 0.0648111 0)
(0.675521 0.0683785 0)
(0.675617 0.0719672 0)
(0.67593 0.0755532 0)
(0.676452 0.0791099 0)
(0.677167 0.0826102 0)
(0.678053 0.0860276 0)
(0.679076 0.0893424 0)
(0.099479 -0.0073049 0)
(0.102668 -0.0143463 0)
(0.107032 -0.0203864 0)
(0.1126 -0.0258401 0)
(0.119483 -0.0309397 0)
(0.127657 -0.035903 0)
(0.137195 -0.0409783 0)
(0.14831 -0.0464 0)
(0.161289 -0.052329 0)
(0.176395 -0.0588003 0)
(0.193765 -0.0657006 0)
(0.21335 -0.0727896 0)
(0.234908 -0.0797569 0)
(0.258057 -0.0862882 0)
(0.282347 -0.0921184 0)
(0.307321 -0.097058 0)
(0.332558 -0.100998 0)
(0.357696 -0.103903 0)
(0.382437 -0.105789 0)
(0.406549 -0.106714 0)
(0.429855 -0.10676 0)
(0.452226 -0.106021 0)
(0.473576 -0.104595 0)
(0.493849 -0.102581 0)
(0.513014 -0.100069 0)
(0.531062 -0.097144 0)
(0.547997 -0.0938823 0)
(0.563836 -0.090351 0)
(0.578604 -0.0866087 0)
(0.592331 -0.082706 0)
(0.605055 -0.0786863 0)
(0.616812 -0.0745861 0)
(0.627642 -0.0704363 0)
(0.637588 -0.0662626 0)
(0.646689 -0.0620863 0)
(0.654987 -0.0579249 0)
(0.662523 -0.0537925 0)
(0.669335 -0.0497007 0)
(0.675462 -0.0456584 0)
(0.680941 -0.0416727 0)
(0.685809 -0.0377489 0)
(0.6901 -0.0338911 0)
(0.693848 -0.0301019 0)
(0.697084 -0.0263828 0)
(0.699842 -0.0227347 0)
(0.70215 -0.0191573 0)
(0.704037 -0.01565 0)
(0.705533 -0.0122112 0)
(0.706664 -0.00883885 0)
(0.707458 -0.00553035 0)
(0.707938 -0.00228257 0)
(0.708135 0.000908655 0)
(0.708068 0.00404896 0)
(0.707762 0.00714508 0)
(0.70724 0.010204 0)
(0.706525 0.0132328 0)
(0.70564 0.0162386 0)
(0.704606 0.0192289 0)
(0.703445 0.0222114 0)
(0.702179 0.0251939 0)
(0.700831 0.0281843 0)
(0.699422 0.0311903 0)
(0.697975 0.0342197 0)
(0.696511 0.0372795 0)
(0.695052 0.0403763 0)
(0.693621 0.0435158 0)
(0.69224 0.0467024 0)
(0.690929 0.0499389 0)
(0.689708 0.0532266 0)
(0.688598 0.0565643 0)
(0.687615 0.0599485 0)
(0.686775 0.063373 0)
(0.68609 0.0668291 0)
(0.685569 0.070305 0)
(0.685217 0.0737867 0)
(0.685035 0.0772581 0)
(0.685017 0.0807014 0)
(0.685154 0.0840984 0)
(0.68543 0.0874312 0)
(0.685827 0.0906835 0)
(0.686318 0.0938451 0)
(0.0992935 -0.0080087 0)
(0.102538 -0.015816 0)
(0.10687 -0.0225577 0)
(0.112355 -0.0286779 0)
(0.119187 -0.0344501 0)
(0.127404 -0.0401452 0)
(0.137162 -0.0460776 0)
(0.148775 -0.0525385 0)
(0.162616 -0.0597047 0)
(0.178969 -0.0675673 0)
(0.197909 -0.0759179 0)
(0.219258 -0.0844006 0)
(0.242628 -0.0926038 0)
(0.267508 -0.100148 0)
(0.293359 -0.10674 0)
(0.319675 -0.112194 0)
(0.346016 -0.116422 0)
(0.372025 -0.119417 0)
(0.397424 -0.12123 0)
(0.422003 -0.121949 0)
(0.445612 -0.121683 0)
(0.46815 -0.120549 0)
(0.489554 -0.118666 0)
(0.50979 -0.116147 0)
(0.528846 -0.113096 0)
(0.546729 -0.109609 0)
(0.563458 -0.10577 0)
(0.57906 -0.101652 0)
(0.593572 -0.0973202 0)
(0.607031 -0.0928281 0)
(0.619479 -0.0882224 0)
(0.630961 -0.0835421 0)
(0.641519 -0.0788198 0)
(0.651199 -0.0740825 0)
(0.660044 -0.0693523 0)
(0.668097 -0.0646473 0)
(0.675398 -0.059982 0)
(0.68199 -0.055368 0)
(0.687909 -0.0508144 0)
(0.693195 -0.0463281 0)
(0.697882 -0.0419144 0)
(0.702007 -0.0375769 0)
(0.705601 -0.0333181 0)
(0.708697 -0.0291393 0)
(0.711325 -0.0250408 0)
(0.713516 -0.0210224 0)
(0.715298 -0.0170829 0)
(0.716698 -0.0132206 0)
(0.717743 -0.00943328 0)
(0.718459 -0.00571831 0)
(0.718871 -0.00207247 0)
(0.719006 0.00150897 0)
(0.718885 0.00503208 0)
(0.718531 0.00850358 0)
(0.717968 0.0119303 0)
(0.717217 0.0153189 0)
(0.7163 0.0186763 0)
(0.715239 0.0220092 0)
(0.714056 0.0253244 0)
(0.712772 0.0286286 0)
(0.711408 0.0319284 0)
(0.709985 0.0352299 0)
(0.708525 0.0385389 0)
(0.707047 0.0418606 0)
(0.705572 0.0451993 0)
(0.704121 0.0485581 0)
(0.702712 0.0519394 0)
(0.701363 0.0553436 0)
(0.700091 0.0587699 0)
(0.698911 0.0622156 0)
(0.697837 0.0656763 0)
(0.69688 0.0691454 0)
(0.696046 0.072615 0)
(0.695342 0.0760753 0)
(0.694768 0.0795153 0)
(0.694323 0.0829231 0)
(0.694 0.0862865 0)
(0.693791 0.0895931 0)
(0.693681 0.0928317 0)
(0.693656 0.0959928 0)
(0.693696 0.0990719 0)
(0.0990863 -0.00874942 0)
(0.102414 -0.0173616 0)
(0.106744 -0.0248498 0)
(0.112179 -0.0316933 0)
(0.119018 -0.0382219 0)
(0.127386 -0.0447823 0)
(0.137549 -0.0517756 0)
(0.149948 -0.0595526 0)
(0.165026 -0.0682783 0)
(0.183032 -0.0778486 0)
(0.203907 -0.087906 0)
(0.227288 -0.0979464 0)
(0.252616 -0.107452 0)
(0.27926 -0.115994 0)
(0.306611 -0.123274 0)
(0.334138 -0.129131 0)
(0.361411 -0.133517 0)
(0.388094 -0.136466 0)
(0.413941 -0.13807 0)
(0.438775 -0.138453 0)
(0.462481 -0.137752 0)
(0.484985 -0.136111 0)
(0.506253 -0.133667 0)
(0.526271 -0.13055 0)
(0.545051 -0.126877 0)
(0.562613 -0.122751 0)
(0.578992 -0.118266 0)
(0.594225 -0.113501 0)
(0.608358 -0.108523 0)
(0.621437 -0.103391 0)
(0.633508 -0.0981545 0)
(0.644622 -0.0928529 0)
(0.654824 -0.0875206 0)
(0.664162 -0.0821852 0)
(0.672683 -0.0768694 0)
(0.680428 -0.0715915 0)
(0.687442 -0.0663661 0)
(0.693765 -0.0612046 0)
(0.699435 -0.0561159 0)
(0.704491 -0.0511066 0)
(0.708968 -0.0461816 0)
(0.7129 -0.0413442 0)
(0.71632 -0.0365963 0)
(0.719259 -0.031939 0)
(0.721747 -0.0273721 0)
(0.723813 -0.0228951 0)
(0.725484 -0.0185066 0)
(0.726788 -0.0142045 0)
(0.72775 -0.00998653 0)
(0.728395 -0.00584985 0)
(0.728747 -0.00179125 0)
(0.728833 0.00219444 0)
(0.728671 0.00611357 0)
(0.728285 0.00997279 0)
(0.727698 0.0137786 0)
(0.726931 0.0175372 0)
(0.726004 0.0212549 0)
(0.724939 0.0249376 0)
(0.723757 0.0285912 0)
(0.722477 0.0322214 0)
(0.72112 0.0358332 0)
(0.719706 0.0394316 0)
(0.718254 0.0430206 0)
(0.716783 0.0466037 0)
(0.715311 0.0501835 0)
(0.713856 0.0537616 0)
(0.712434 0.0573385 0)
(0.71106 0.0609136 0)
(0.709747 0.0644849 0)
(0.708509 0.0680494 0)
(0.707353 0.0716024 0)
(0.706289 0.0751384 0)
(0.705321 0.0786506 0)
(0.704451 0.0821317 0)
(0.70368 0.0855736 0)
(0.703003 0.088968 0)
(0.702416 0.0923067 0)
(0.70191 0.0955821 0)
(0.701475 0.0987874 0)
(0.701098 0.101917 0)
(0.700767 0.104971 0)
(0.0988531 -0.00953379 0)
(0.102293 -0.0189969 0)
(0.106658 -0.027285 0)
(0.112091 -0.0349256 0)
(0.11902 -0.0423278 0)
(0.127694 -0.0499455 0)
(0.138528 -0.0582875 0)
(0.15209 -0.0677498 0)
(0.168846 -0.0784286 0)
(0.188922 -0.0900471 0)
(0.212042 -0.102041 0)
(0.237621 -0.113741 0)
(0.264931 -0.12454 0)
(0.293246 -0.133989 0)
(0.321924 -0.141818 0)
(0.350443 -0.147916 0)
(0.378401 -0.152288 0)
(0.405502 -0.155024 0)
(0.431541 -0.156261 0)
(0.456383 -0.15616 0)