/*--------------------------------*- C++ -*----------------------------------*\
  =========                 |
  \\      /  F ield         | OpenFOAM: The Open Source CFD Toolbox
   \\    /   O peration     | Website:  https://openfoam.org
    \\  /    A nd           | Version:  7
     \\/     M anipulation  |
\*---------------------------------------------------------------------------*/
FoamFile
{
    version     2.0;
    format      ascii;
    class       volScalarField;
    location    "4.4";
    object      p;
}
// * * * * * * * * * * * * * * * * * * * * * * * * * * * * * * * * * * * * * //

dimensions      [0 2 -2 0 0 0 0];

internalField   nonuniform List<scalar> 
2790
(
147.107
147.014
147.281
147.852
148.632
149.59
150.722
152.029
153.505
155.146
156.945
158.896
160.99
163.215
165.556
167.991
170.495
173.034
175.566
178.04
180.399
182.576
184.507
186.127
187.387
188.261
188.698
188.753
188.804
189.017
146.904
146.922
147.214
147.782
148.558
149.512
150.64
151.941
153.41
155.043
156.833
158.773
160.856
163.07
165.399
167.825
170.321
172.854
175.384
177.862
180.231
182.426
184.381
186.029
187.314
188.188
188.585
188.64
188.772
189.057
146.705
146.793
147.104
147.662
148.425
149.366
150.479
151.762
153.21
154.818
156.58
158.489
160.537
162.712
165.001
167.383
169.835
172.326
174.817
177.265
179.615
181.807
183.78
185.47
186.821
187.796
188.39
188.745
189.06
189.359
146.48
146.599
146.922
147.472
148.22
149.145
150.238
151.497
152.916
154.49
156.214
158.079
160.078
162.198
164.427
166.744
169.129
171.552
173.979
176.37
178.677
180.849
182.831
184.57
186.025
187.177
188.045
188.716
189.269
189.788
146.219
146.352
146.684
147.226
147.958
148.862
149.929
151.156
152.538
154.07
155.744
157.553
159.489
161.539
163.691
165.927
168.225
170.56
172.901
175.214
177.46
179.595
181.577
183.368
184.938
186.281
187.411
188.374
189.185
189.931
145.919
146.057
146.391
146.923
147.635
148.513
149.549
150.738
152.076
153.555
155.17
156.913
158.774
160.742
162.803
164.941
167.136
169.365
171.602
173.817
175.98
178.057
180.019
181.84
183.503
185.005
186.351
187.557
188.577
189.495
145.576
145.715
146.047
146.565
147.255
148.102
149.102
150.247
151.533
152.953
154.5
156.165
157.94
159.813
161.77
163.796
165.872
167.978
170.091
172.187
174.242
176.233
178.14
179.951
181.656
183.257
184.751
186.13
187.295
188.342
145.191
145.328
145.653
146.155
146.819
147.632
148.59
149.685
150.913
152.266
153.736
155.316
156.994
158.76
160.6
162.5
164.441
166.405
168.373
170.324
172.242
174.109
175.916
177.658
179.337
180.956
182.511
183.983
185.233
186.384
144.765
144.898
145.212
145.695
146.329
147.105
148.017
149.057
150.221
151.5
152.886
154.37
155.942
157.591
159.301
161.06
162.849
164.653
166.452
168.231
169.974
171.672
173.32
174.92
176.482
178.017
179.525
180.996
182.267
183.506
144.299
144.427
144.727
145.188
145.79
146.525
147.386
148.367
149.46
150.659
151.954
153.335
154.792
156.312
157.882
159.486
161.107
162.729
164.335
165.909
167.437
168.911
170.329
171.697
173.03
174.349
175.669
177.007
178.207
179.512
143.793
143.915
144.2
144.636
145.204
145.894
146.701
147.618
148.637
149.75
150.947
152.218
153.552
154.934
156.352
157.788
159.225
160.646
162.033
163.367
164.635
165.825
166.932
167.96
168.924
169.853
170.783
171.782
172.744
174.062
143.251
143.366
143.634
144.042
144.573
145.217
145.967
146.816
147.756
148.778
149.872
151.027
152.23
153.467
154.722
155.978
157.217
158.418
159.56
160.622
161.583
162.426
163.134
163.699
164.126
164.435
164.678
164.986
165.368
166.541
142.674
142.781
143.031
143.41
143.902
144.496
145.186
145.964
146.822
147.75
148.736
149.77
150.836
151.921
153.006
154.072
155.099
156.063
156.938
157.697
158.31
158.744
158.966
158.941
158.638
158.04
157.165
156.173
155.225
155.73
142.065
142.163
142.394
142.743
143.194
143.737
144.365
145.069
145.842
146.672
147.547
148.455
149.381
150.307
151.216
152.085
152.89
153.604
154.196
154.627
154.857
154.834
154.496
153.763
152.54
150.711
148.148
144.846
140.897
138.862
141.426
141.516
141.725
142.043
142.452
142.942
143.506
144.136
144.821
145.551
146.313
147.093
147.874
148.64
149.368
150.034
150.612
151.068
151.364
151.455
151.281
150.771
149.826
148.311
146.032
142.699
137.856
130.839
120.377
108.154
1.37669
1.35774
1.28991
1.19515
1.09514
1.00016
0.913327
0.834872
0.764101
0.699931
0.641109
0.586387
0.534661
0.48504
0.436897
0.3899
0.344032
0.299581
0.257057
0.217043
0.180003
0.146146
0.115546
0.0885374
0.0655432
0.0467886
0.032118
0.0209128
0.0119765
0.00342292
1.32753
1.30537
1.24147
1.1543
1.06236
0.974441
0.893349
0.819466
0.752284
0.690893
0.634192
0.581066
0.530506
0.481691
0.434049
0.387298
0.341481
0.296967
0.254362
0.214327
0.177347
0.143654
0.113361
0.0865881
0.0637153
0.0452132
0.0309603
0.0203261
0.0121012
0.00521436
1.27494
1.248
1.18638
1.10623
1.02281
0.942736
0.868214
0.799674
0.736767
0.678737
0.624642
0.573503
0.524421
0.476659
0.429706
0.383339
0.33767
0.293163
0.250548
0.210602
0.173857
0.140459
0.110362
0.0836966
0.0609236
0.0425499
0.0289329
0.019364
0.0121689
0.0051421
1.2264
1.19477
1.13463
1.06037
0.984611
0.911738
0.84334
0.779836
0.721004
0.666224
0.614683
0.565524
0.51795
0.471304
0.425142
0.379291
0.333911
0.289528
0.246968
0.207129
0.170619
0.137527
0.107626
0.0809679
0.0581119
0.0398007
0.0265226
0.0177267
0.0116007
0.00462942
1.19606
1.15995
1.10138
1.03138
0.960982
0.892866
0.828409
0.768066
0.711745
0.658935
0.608918
0.560924
0.51423
0.468251
0.422601
0.377148
0.332073
0.287908
0.245488
0.205753
0.169403
0.136654
0.107367
0.0814317
0.0590863
0.0407077
0.0269649
0.0174986
0.0107867
0.00388084
1.19573
1.15411
1.09644
1.02758
0.958861
0.891542
0.827569
0.767485
0.711294
0.658531
0.60851
0.560487
0.513774
0.467825
0.42229
0.377055
0.332292
0.288481
0.246371
0.206807
0.170483
0.137703
0.10845
0.0826857
0.0605318
0.0423582
0.0284083
0.0183587
0.0109052
0.0034393
1.23424
1.18515
1.12381
1.05086
0.977844
0.906742
0.839457
0.776616
0.718142
0.663504
0.611965
0.562759
0.515192
0.468712
0.422964
0.377817
0.333408
0.29015
0.248648
0.209569
0.173474
0.140676
0.111269
0.0852929
0.0628244
0.0439856
0.0290289
0.0179148
0.00929446
0.00262099
1.31489
1.25388
1.18013
1.09517
1.01141
0.93184
0.857914
0.78985
0.727339
0.669644
0.61582
0.564961
0.516275
0.469137
0.423142
0.378091
0.334106
0.291575
0.25096
0.212688
0.177104
0.144451
0.114864
0.0884472
0.0653698
0.0459164
0.0300943
0.0172671
0.00725037
0.00173818
1.43201
1.34782
1.25161
1.1464
1.04684
0.956236
0.874667
0.800901
0.733932
0.673031
0.616983
0.564667
0.515139
0.467625
0.421617
0.37681
0.333402
0.291892
0.252621
0.215679
0.180998
0.148553
0.118389
0.0910237
0.0672414
0.0472458
0.0305192
0.016157
0.00510938
0.000911892
1.56095
1.44145
1.31881
1.19409
1.07647
0.971773
0.880642
0.80177
0.732554
0.670387
0.6135
0.560657
0.510938
0.463463
0.417471
0.372954
0.330363
0.290311
0.253064
0.218179
0.184851
0.152597
0.12183
0.0935374
0.0687961
0.0480171
0.0303244
0.0145934
0.0028675
0.000121836
1.6588
1.51137
1.35855
1.21177
1.08213
0.97033
0.874852
0.793431
0.72331
0.661266
0.604748
0.552349
0.503302
0.456659
0.411373
0.367259
0.325267
0.286673
0.25184
0.219656
0.188351
0.156789
0.125319
0.0955984
0.0695371
0.0478942
0.0294403
0.0127487
0.000724183
-0.00061271
1.71872
1.53013
1.35146
1.1871
1.04958
0.93703
0.844046
0.766238
0.700222
0.642021
0.58825
0.537719
0.490484
0.445777
0.40195
0.358455
0.31702
0.280235
0.248855
0.220692
0.192309
0.161554
0.128883
0.0969682
0.0690243
0.0464741
0.0276933
0.010657
-0.00125726
-0.0012717
1.67257
1.4223
1.23411
1.08099
0.959274
0.863326
0.784576
0.718118
0.662351
0.61285
0.564579
0.516995
0.472467
0.430964
0.389464
0.346407
0.304801
0.269794
0.243221
0.221134
0.197137
0.167413
0.132727
0.0974197
0.0667578
0.0433139
0.0249368
0.00838889
-0.00301161
-0.00183666
1.36146
1.06617
0.947703
0.86921
0.797271
0.743125
0.695447
0.648806
0.609538
0.574647
0.534735
0.49005
0.448587
0.412268
0.37483
0.331868
0.288367
0.254443
0.234435
0.221496
0.203977
0.17537
0.137267
0.0966898
0.0620446
0.0377925
0.0209984
0.00607883
-0.00445703
-0.00228903
0.613141
0.277665
0.403594
0.54583
0.562769
0.58555
0.58979
0.56311
0.540868
0.529368
0.502894
0.459201
0.419494
0.390889
0.360272
0.316094
0.266572
0.231422
0.220446
0.221889
0.214178
0.186659
0.142943
0.0943242
0.0538408
0.028974
0.015661
0.00400891
-0.00547809
-0.00261296
140.746
140.827
141.016
141.3
141.665
142.1
142.598
143.15
143.745
144.372
145.017
145.665
146.299
146.899
147.441
147.9
148.244
148.435
148.429
148.169
147.583
146.574
145.009
142.696
139.333
134.426
127.055
115.303
93.1392
33.3346
140.019
140.091
140.257
140.506
140.825
141.203
141.633
142.103
142.605
143.125
143.65
144.162
144.644
145.074
145.427
145.674
145.78
145.704
145.393
144.783
143.79
142.3
140.154
137.121
132.844
126.737
117.767
104.202
84.6768
56.2233
139.25
139.311
139.454
139.668
139.939
140.258
140.617
141.005
141.411
141.823
142.224
142.599
142.927
143.186
143.349
143.384
143.255
142.915
142.309
141.367
139.996
138.077
135.444
131.869
127.024
120.455
111.573
99.739
85.5053
68.889
138.439
138.49
138.609
138.786
139.009
139.268
139.555
139.859
140.168
140.47
140.748
140.985
141.16
141.249
141.224
141.053
140.695
140.105
139.223
137.977
136.276
134.003
131.005
127.087
122.001
115.454
107.151
96.7584
84.2153
69.083
137.589
137.63
137.725
137.864
138.038
138.236
138.45
138.67
138.882
139.074
139.23
139.33
139.354
139.277
139.071
138.701
138.129
137.306
136.174
134.664
132.69
130.145
126.901
122.8
117.664
111.292
103.484
93.9973
82.6655
69.6952
136.703
136.733
136.803
136.905
137.029
137.166
137.308
137.443
137.559
137.643
137.678
137.644
137.522
137.286
136.907
136.351
135.581
134.548
133.199
131.469
129.28
126.542
123.15
118.984
113.915
107.807
100.539
92.0103
82.2131
71.5599
135.782
135.801
135.847
135.911
135.985
136.062
136.132
136.184
136.206
136.183
136.101
135.939
135.677
135.289
134.749
134.023
133.074
131.859
130.327
128.421
126.074
123.213
119.755
115.614
110.702
104.94
98.2752
90.6949
82.2434
73.2564
134.829
134.839
134.859
134.886
134.912
134.929
134.928
134.899
134.829
134.704
134.509
134.225
133.83
133.303
132.615
131.735
130.63
129.259
127.579
125.54
123.087
120.163
116.706
112.657
107.963
102.584
96.5055
89.749
82.3639
74.6222
133.85
133.849
133.845
133.836
133.814
133.772
133.703
133.595
133.436
133.214
132.912
132.512
131.996
131.339
130.518
129.504
128.265
126.768
124.973
122.84
120.326
117.387
113.981
110.069
105.622
100.627
95.0883
89.0409
82.5383
75.808
132.847
132.836
132.809
132.763
132.695
132.597
132.462
132.278
132.036
131.721
131.318
130.813
130.184
129.412
128.474
127.344
125.994
124.396
122.517
120.326
117.788
114.873
111.552
107.804
103.617
98.9901
93.9421
88.5123
82.7536
76.851
131.825
131.804
131.755
131.675
131.562
131.41
131.212
130.957
130.635
130.233
129.739
129.136
128.406
127.532
126.493
125.266
123.828
122.153
120.218
117.997
115.466
112.603
109.392
105.822
101.893
97.6126
93.0059
88.1117
82.9781
77.7533
130.789
130.759
130.688
130.575
130.42
130.217
129.959
129.637
129.242
128.761
128.182
127.491
126.673
125.71
124.585
123.279
121.772
120.044
118.077
115.85
113.348
110.558
107.471
104.084
100.404
96.444
92.2302
87.7987
83.1914
78.5273
129.744
129.706
129.614
129.47
129.275
129.024
128.711
128.327
127.864
127.311
126.656
125.888
124.992
123.954
122.758
121.39
119.833
118.071
116.09
113.878
111.423
108.719
105.762
102.557
99.1116
95.4438
91.5778
87.5459
83.3841
79.1883
128.697
128.65
128.539
128.366
128.134
127.838
127.474
127.034
126.509
125.891
125.169
124.333
123.371
122.27
121.019
119.603
118.012
116.232
114.255
112.071
109.675
107.065
104.241
101.21
97.9844
94.5804
91.0211
87.3348
83.5518
79.7499
127.653
127.598
127.47
127.27
127.003
126.667
126.256
125.764
125.184
124.509
123.728
122.835
121.817
120.666
119.37
117.921
116.309
114.526
112.565
110.421
108.092
105.579
102.885
100.02
96.9959
93.8287
90.5393
87.1521
83.6927
80.2242
126.618
126.557
126.412
126.187
125.889
125.516
125.063
124.525
123.897
123.171
122.341
121.398
120.335
119.144
117.817
116.346
114.725
112.949
111.013
108.916
106.659
104.243
101.676
98.9654
96.1247
93.1691
90.117
86.9891
83.8069
80.6221
125.6
125.532
125.372
125.126
124.799
124.392
123.902
123.324
122.654
121.885
121.012
120.029
118.93
117.709
116.36
114.877
113.257
111.496
109.593
107.548
105.363
103.043
100.595
98.0279
95.3536
92.5864
89.7425
86.8397
83.8959
80.9536
124.605
124.531
124.358
124.092
123.74
123.304
122.781
122.168
121.461
120.656
119.748
118.733
117.606
116.364
115.001
113.514
111.902
110.163
108.297
106.307
104.194
101.966
99.6294
97.1932
94.6687
92.0688
89.4075
86.7
83.9617
81.2273
123.641
123.562
123.377
123.093
122.719
122.257
121.706
121.062
120.325
119.489
118.553
117.513
116.366
115.109
113.74
112.256
110.658
108.945
107.119
105.183
103.142
101
98.7665
96.4493
94.059
91.607
89.1056
86.5679
84.0068
81.4511
122.714
122.631
122.435
122.136
121.742
121.258
120.683
120.014
119.251
118.391
117.433
116.374
115.213
113.947
112.577
111.102
109.521
107.837
106.053
104.171
102.196
100.136
97.9965
95.7867
93.5158
91.1942
88.8326
86.4422
84.0341
81.6322
121.833
121.746
121.541
121.228
120.818
120.315
119.719
119.03
118.246
117.366
116.391
115.319
114.148
112.88
111.513
110.049
108.489
106.836
105.092
103.262
101.351
99.3648
97.311
95.1974
93.0325
90.8253
88.5856
86.3228
84.0466
81.7769
121.005
120.914
120.702
120.378
119.953
119.434
118.822
118.115
117.314
116.42
115.432
114.35
113.175
111.907
110.548
109.098
107.56
105.937
104.233
102.452
100.599
98.6808
96.7039
94.6757
92.604
90.4969
88.3628
86.2103
84.0475
81.8913
120.239
120.145
119.926
119.591
119.155
118.623
117.996
117.275
116.462
115.556
114.559
113.472
112.296
111.032
109.681
108.247
106.731
105.138
103.471
101.735
99.9356
98.0784
96.1699
94.2168
92.2264
90.206
88.1632
86.1053
84.0396
81.9801
119.541
119.445
119.22
118.877
118.43
117.887
117.249
116.518
115.694
114.781
113.778
112.688
111.513
110.254
108.914
107.496
106.002
104.437
102.804
101.11
99.3578
97.5546
95.7059
93.8182
91.8981
89.9522
87.9873
86.0101
84.0268
82.0495
118.922
118.823
118.592
118.242
117.787
117.235
116.588
115.848
115.017
114.098
113.092
112.001
110.829
109.576
108.247
106.844
105.371
103.831
102.23
100.572
98.8618
97.1054
95.3083
93.4765
91.6162
89.7334
87.8342
85.9246
84.0104
82.1014
118.39
118.289
118.052
117.694
117.232
116.673
116.019
115.273
114.437
113.514
112.506
111.417
110.248
109.002
107.684
106.295
104.84
103.324
101.75
100.123
98.4488
96.7321
94.9785
93.1937
91.3832
89.5528
87.7081
85.8545
83.9974
82.1452
117.955
117.85
117.606
117.241
116.772
116.206
115.547
114.796
113.956
113.031
112.023
110.935
109.77
108.531
107.222
105.846
104.408
102.911
101.36
99.759
98.1141
96.4298
94.7115
92.9644
91.194
89.4055
87.604
85.7948
83.9826
82.1743
117.63
117.518
117.266
116.893
116.419
115.85
115.186
114.432
113.589
112.663
111.655
110.569
109.407
108.174
106.873
105.508
104.083
102.601
101.068
99.4887
97.8669
96.2081
94.5174
92.7998
91.0605
89.3044
87.5366
85.7618
83.9848
82.2117
117.427
117.293
117.023
116.645
116.168
115.596
114.93
114.174
113.331
112.404
111.397
110.313
109.155
107.926
106.632
105.274
103.858
102.388
100.867
99.3018
97.6958
96.0541
94.3818
92.6838
90.965
89.2302
87.4842
85.7317
83.9769
82.2249
117.409
117.21
116.912
116.528
116.049
115.473
114.804
114.046
113.202
112.275
111.269
110.186
109.031
107.807
106.516
105.165
103.755
102.292
100.781
99.2245
97.6288
95.9982
94.3377
92.6521
90.9461
89.2246
87.4921
85.7531
84.0119
82.2729
-50.5905
-30.3741
-11.0787
35.889
28.5259
16.6565
51.4265
39.3785
28.2215
52.8289
42.4229
34.4008
57.1581
48.8839
42.1416
61.5393
54.6413
48.7602
64.8043
58.9307
53.8886
67.3923
62.373
58.0687
69.5735
65.2453
61.5398
71.4143
67.6385
64.4138
72.9617
69.6335
66.7982
74.2651
71.3041
68.7867
75.365
72.7082
70.4527
76.2937
73.8911
71.8536
77.0775
74.8894
73.035
77.7383
75.7325
74.033
78.2944
76.4443
74.8768
78.7608
77.0446
75.5899
79.1506
77.5497
76.1917
79.4747
77.9733
76.6984
79.7426
78.3271
77.1236
79.9631
78.6214
77.4791
80.1426
78.8643
77.7743
80.2894
79.065
78.0191
80.4058
79.2267
78.2179
80.5037
79.3619
78.3832
80.5744
79.4624
78.5084
80.6464
79.5572
78.6204
80.6799
79.607
78.6842
80.7488
79.69
78.7737
-2.4247
-2.287
-0.83448
0.279595
0.331279
0.405217
0.464613
0.443137
0.442703
0.486497
0.484627
0.428293
0.37972
0.361156
0.344862
0.299009
0.237291
0.197257
0.199864
0.225194
0.232537
0.20495
0.151456
0.0901833
0.0407318
0.0153559
0.00860111
0.00283243
-0.00580005
-0.00280077
2.92199
-0.108659
1.26378
0.865098
-0.35252
-0.205881
0.354753
0.414065
0.404225
0.494806
0.482224
0.372638
0.304338
0.320965
0.348777
0.29976
0.208751
0.149706
0.166744
0.230052
0.260505
0.230702
0.160995
0.0806242
0.0181168
-0.0068724
-0.00116695
0.003871
-0.00475626
-0.0028602
13.9837
5.57759
2.75903
0.448448
0.0307326
1.14085
1.35413
0.273616
-0.162191
0.144953
0.496463
0.382524
0.274368
0.327011
0.385333
0.298399
0.14015
0.0391358
0.0862213
0.237047
0.318974
0.278828
0.180937
0.0719614
-0.0103368
-0.0359411
-0.0112543
0.011472
0.00024161
-0.00282121
23.6743
13.8152
7.97196
4.21816
2.40745
1.74274
0.675438
-0.00959199
0.170765
1.31653
1.35005
0.288965
-0.13355
-0.0251443
0.312381
0.360886
0.120429
-0.0407617
0.0751402
0.300622
0.415664
0.335199
0.189841
0.039176
-0.0730611
-0.100836
-0.0407632
0.0238882
0.011421
-0.00311861
32.8164
23.0677
15.7586
10.4626
6.81047
4.32743
2.48968
1.4493
1.10246
1.16652
0.691886
0.125325
-0.0601777
0.500205
1.0549
0.662579
-0.00449737
-0.417241
-0.395252
0.189275
0.552601
0.433954
0.220613
0.0209378
-0.122838
-0.145519
-0.0192349
0.0856802
0.048137
-0.0040638
40.7719
31.8546
23.9731
17.5444
12.618
8.96709
6.28873
4.39636
3.1156
2.23548
1.46862
0.860683
0.536927
0.631134
0.647213
0.416063
-0.100623
-0.471433
-0.149643
0.806706
0.995555
0.494809
0.178757
-0.0733531
-0.263051
-0.32343
-0.184053
0.0971367
0.107111
-0.0091016
47.2616
39.4618
31.6914
24.8052
19.1803
14.7165
11.191
8.43638
6.33669
4.76118
3.53098
2.54362
1.8358
1.4253
1.11784
0.763485
0.270373
-0.0585579
0.109465
0.559074
0.708374
0.502881
0.220549
-0.059728
-0.28562
-0.327109
0.0161364
0.358022
0.247188
-0.0185058
52.5473
45.8196
38.5658
31.7388
25.8568
20.9104
16.7694
13.3451
10.5691
8.34642
6.54521
5.07407
3.9234
3.07471
2.41642
1.80735
1.21064
0.795348
0.715381
0.848872
0.885694
0.67692
0.347609
0.035026
-0.189534
-0.23083
-0.0298217
0.182064
0.267011
-0.0709445
56.8592
51.0444
44.4622
37.9905
32.1734
27.0615
22.5909
18.7262
15.4372
12.6684
10.3415
8.39339
6.79202
5.50121
4.44184
3.52356
2.72423
2.11659
1.76706
1.60484
1.42946
1.1129
0.721433
0.366391
0.114488
0.0227119
0.100059
0.21497
0.203392
-0.308005
60.3778
55.311
49.4093
43.4253
37.8717
32.8261
28.2598
24.1683
20.5527
17.3939
14.6536
12.2913
10.2741
8.56661
7.1164
5.86876
4.80064
3.93277
3.28494
2.80657
2.37512
1.90377
1.4149
0.976383
0.639732
0.437912
0.362165
0.311515
0.119089
-0.52607
63.2672
58.8079
53.5279
48.0597
42.863
38.0209
33.5205
29.3734
25.6
22.2055
19.1773
16.4944
14.1344
12.0717
10.2732
8.70407
7.34208
6.18487
5.22953
4.43868
3.73885
3.07094
2.43258
1.85861
1.3829
1.02159
0.755209
0.501131
0.126721
-0.60652
65.6601
61.6962
56.9577
51.9782
47.1626
42.5893
38.2514
34.1658
30.362
26.8584
23.6584
20.756
18.1408
15.7982
13.7088
11.8502
10.2048
8.76228
7.51139
6.42424
5.4548
4.56188
3.73346
2.98327
2.32878
1.77387
1.29493
0.827219
0.275361
-0.537117
67.656
64.1
59.8242
55.2842
50.8366
46.5516
42.4231
38.468
34.7181
31.1977
27.9193
24.887
22.0997
19.5519
17.2339
15.1331
13.2368
11.5345
10.0138
8.65365
7.42406
6.2961
5.2555
4.30348
3.44514
2.67646
1.97433
1.29007
0.558814
-0.34391
69.3299
66.1134
62.2308
58.077
53.9676
49.9646
46.0605
42.27
38.6233
35.1466
31.8569
28.7641
25.8733
23.1857
20.6985
18.4061
16.3009
14.3747
12.6171
11.013
9.54209
8.18391
6.92489
5.75977
4.68595
3.69518
2.76697
1.86579
0.949363
-0.0646582
70.7395
67.808
64.2602
60.4423
56.6362
52.8963
49.2136
45.5992
42.0806
38.6835
35.4265
32.3222
29.3798
26.6045
23.9987
21.5613
19.2892
17.1773
15.2182
13.4015
11.7134
10.1393
8.66742
7.28983
6.00001
4.78798
3.6364
2.51963
1.41061
0.259591
71.9298
69.2391
65.9773
62.4507
58.9132
55.413
51.9392
48.4997
45.1186
41.8198
38.6219
35.5387
32.5812
29.7575
27.0727
24.5295
22.1279
19.8659
17.739
15.7404
13.861
12.0903
10.4185
8.83735
7.33877
5.91252
4.54405
3.21453
1.90601
0.592624
72.9365
70.4503
67.4334
64.1593
60.8583
57.5733
54.292
51.0192
47.7757
44.5831
41.4589
38.417
35.4693
32.6251
29.8917
27.2737
24.7738
22.3922
20.1272
17.9748
15.9291
13.9827
12.128
10.3569
8.66146
7.03173
5.45534
3.91763
2.40521
0.908389
73.7882
71.4761
68.6695
65.6143
62.5207
59.4274
56.3209
53.2032
50.0921
47.0066
43.963
40.9744
38.0526
35.2076
32.4477
29.779
27.2057
24.73
22.3522
20.0706
17.8817
15.7803
13.7605
11.8154
9.9372
8.11676
6.34308
4.6037
2.88671
1.19223
74.5083
72.3446
69.7189
66.8535
63.9413
61.0176
58.0681
55.0926
52.1057
49.1243
46.1629
43.2337
40.3479
37.5155
34.7453
32.0441
29.4172
26.8683
24.399
22.0094
19.6977
17.4606
15.2935
13.1906
11.1447
9.14729
7.18814
5.25564
3.33761
1.43908
75.1159
73.079
70.6089
67.9078
65.1539
62.3795
59.5699
56.723
53.8507
50.9677
48.0869
45.2192
42.3751
39.5643
36.7952
34.0754
31.4105
28.8052
26.2621
23.7826
21.3663
19.0111
16.7136
14.4689
12.2704
10.1102
7.97834
5.86325
3.75171
1.65034
75.6273
73.6985
71.362
68.8029
66.1867
63.5431
60.8571
58.1252
55.3571
52.5654
49.7613
46.9546
44.1548
41.3708
38.6109
35.8826
33.1919
30.5437
27.9417
25.3879
22.8828
20.4255
18.0134
15.6423
13.3062
10.9975
8.70645
6.42106
4.1269
1.83029
76.0561
74.2193
71.9973
69.5605
67.0634
64.5336
61.9562
59.3262
56.6515
53.943
51.2103
48.462
45.7065
42.9522
40.2067
37.4773
34.77
32.0899
29.4412
26.8263
24.2465
21.7016
19.1895
16.7067
14.2477
11.805
9.36887
6.92693
4.46364
1.98401
76.4136
74.6546
72.5303
70.1982
67.8034
65.3719
62.8888
60.3482
57.7562
55.1222
52.4545
49.7606
47.048
44.324
41.5959
38.8704
36.1534
33.4502
30.7648
28.1001
25.458
22.8384
20.24
17.6596
15.0919
12.5297
9.96306
7.3794
4.76233
2.11505
76.7106
75.017
72.9753
70.7322
68.4245
66.077
63.675
61.2116
58.6917
56.1234
53.5137
50.8693
48.1965
45.502
42.7925
40.074
37.3524
34.6327
31.9189
29.2142
26.5204
23.838
21.1659
18.5011
15.8387
13.1715
10.4894
7.77961
5.02527
2.22725
76.9532
75.314
73.3413
71.1727
68.9382
66.6614
64.3279
61.9302
59.472
56.9603
54.4013
51.8005
49.1636
46.4966
43.8053
41.0956
38.3727
35.6415
32.906
30.1693
27.4334
24.6988
21.9647
19.2283
16.4847
13.7268
10.9445
8.12474
5.25047
2.32026
77.1534
75.5583
73.6423
71.535
69.3606
67.1422
64.8653
62.5222
60.1156
57.6516
55.1354
52.572
49.9663
47.3237
44.6494
41.9487
39.2267
36.4878
33.736
30.9743
28.2046
25.4276
22.6424
19.8465
17.0349
14.2006
11.3335
8.42021
5.44365
2.39927
77.3078
75.7476
73.8763
71.8177
69.6911
67.5191
65.2875
62.9881
60.623
58.1973
55.716
53.1832
50.6033
47.9811
45.3214
42.6291
39.9089
37.165
34.4011
31.6202
28.8242
26.0137
23.1879
20.3442
17.4777
14.5814
11.645
8.6552
5.59489
2.45726
77.4387
75.9042
74.067
72.0452
69.9548
67.8179
65.6206
63.3544
61.0208
58.6246
56.17
53.6608
51.1009
48.4947
45.8466
43.1612
40.4429
37.6957
34.9232
32.1281
29.3123
26.4765
23.6198
20.7395
17.8309
14.8866
11.8965
8.84691
5.72058
2.50686
77.5192
76.0008
74.186
72.1892
70.1232
68.0098
65.8354
63.5915
61.2791
58.9026
56.4659
53.9726
51.4263
48.831
46.1909
43.5104
40.7937
38.0445
35.2664
32.462
29.6331
26.7804
23.9029
20.9979
18.0607
15.0837
12.0566
8.9655
5.79298
2.52676
77.608
76.0907
74.2881
72.3064
70.254
68.1532
65.9909
63.7587
61.4574
59.091
56.6634
54.1779
51.638
49.0477
46.4109
43.732
41.015
38.2636
35.4814
32.6709
29.834
26.9711
24.0815
21.1625
18.2091
15.2137
12.1657
9.0503
5.84748
2.53333
)
;

boundaryField
{
    inlet
    {
        type            zeroGradient;
    }
    outlet
    {
        type            fixedValue;
        value           uniform 0;
    }
    flap
    {
        type            zeroGradient;
    }
    upperWall
    {
        type            zeroGradient;
    }
    lowerWall
    {
        type            zeroGradient;
    }
    frontAndBack
    {
        type            empty;
    }
}


// ************************************************************************* //
