/*--------------------------------*- C++ -*----------------------------------*\
  =========                 |
  \\      /  F ield         | OpenFOAM: The Open Source CFD Toolbox
   \\    /   O peration     | Website:  https://openfoam.org
    \\  /    A nd           | Version:  7
     \\/     M anipulation  |
\*---------------------------------------------------------------------------*/
FoamFile
{
    version     2.0;
    format      ascii;
    class       surfaceScalarField;
    location    "4.4";
    object      phi;
}
// * * * * * * * * * * * * * * * * * * * * * * * * * * * * * * * * * * * * * //

dimensions      [0 3 -1 0 0 0 0];

internalField   nonuniform List<scalar> 
5457
(
0.198418
0.00158237
0.19648
0.00193734
0.194192
0.00228804
0.191509
0.00268352
0.188428
0.00308112
0.184951
0.00347667
0.181072
0.00387846
0.176779
0.00429388
0.172051
0.00472807
0.166865
0.00518505
0.161197
0.00566832
0.155016
0.00618082
0.148292
0.00672474
0.14099
0.00730109
0.133081
0.00790924
0.124535
0.00854618
0.115329
0.00920562
0.105453
0.00987692
0.0949087
0.0105438
0.0837254
0.0111833
0.0719609
0.0117645
0.0597126
0.0122482
0.047124
0.0125887
0.0343837
0.0127403
0.0216885
0.0126952
0.00903819
0.0126503
-0.00291588
0.0119541
-0.00847213
0.00555625
-0.00804305
-0.000429074
-0.00804305
0.199928
0.0016542
0.199176
0.00268976
0.197965
0.00349894
0.196332
0.00431665
0.194272
0.00514111
0.191782
0.00596666
0.188855
0.00680534
0.185478
0.00767063
0.181633
0.00857284
0.177298
0.00952029
0.172446
0.0105203
0.167048
0.011579
0.161072
0.0127013
0.154483
0.0138898
0.147248
0.0151441
0.139335
0.016459
0.130717
0.0178233
0.121378
0.0192168
0.111313
0.0206084
0.100543
0.021953
0.089119
0.0231888
0.0771314
0.0242358
0.0647255
0.0249947
0.0521179
0.0253479
0.0396574
0.0251557
0.028107
0.0242007
0.0185963
0.0214648
0.00879834
0.0153542
0.00118406
0.0071852
-0.00685899
0.199781
0.00187363
0.199087
0.00338358
0.197946
0.00463984
0.196409
0.00585322
0.194483
0.00706718
0.192164
0.00828563
0.189447
0.00952268
0.186322
0.010796
0.182774
0.0121206
0.178785
0.013509
0.174333
0.0149722
0.169392
0.0165198
0.163934
0.0181597
0.157927
0.0198968
0.151339
0.0217321
0.144137
0.0236605
0.136292
0.0256685
0.127778
0.0277305
0.118582
0.0298051
0.108704
0.0318307
0.0981724
0.0337205
0.0870502
0.035358
0.0754534
0.0365914
0.0635762
0.0372251
0.0517341
0.0369977
0.0403986
0.0355362
0.0297401
0.0321232
0.0191669
0.0259275
0.00959813
0.0167539
0.00273914
0.199703
0.00217055
0.199008
0.00407887
0.197887
0.00576033
0.196376
0.00736409
0.194488
0.00895524
0.192222
0.0105516
0.189575
0.0121703
0.186539
0.0138319
0.183105
0.0155549
0.179258
0.0173554
0.174983
0.0192471
0.170261
0.0212423
0.165069
0.0233511
0.159386
0.0255807
0.153184
0.0279336
0.146439
0.0304055
0.139125
0.0329827
0.131218
0.0356376
0.122699
0.0383241
0.113558
0.0409714
0.103801
0.0434773
0.0934588
0.0457005
0.0825976
0.0474526
0.0713347
0.048488
0.0598426
0.0484899
0.0483183
0.0470605
0.0368121
0.0436295
0.0251886
0.0375509
0.0133359
0.0286066
0.0160751
0.199667
0.00250313
0.198964
0.00478211
0.197863
0.00686162
0.196381
0.00884573
0.194533
0.010804
0.192318
0.0127661
0.189734
0.014754
0.186776
0.0167904
0.183434
0.0188965
0.179699
0.021091
0.175556
0.0233898
0.170991
0.0258072
0.165987
0.0283547
0.160527
0.0310408
0.154592
0.0338689
0.148162
0.0368358
0.141216
0.0399283
0.133735
0.0431189
0.125698
0.0463607
0.117089
0.0495806
0.107895
0.0526706
0.0981165
0.0554794
0.0877666
0.0578026
0.0768805
0.059374
0.0655103
0.05986
0.0537093
0.0588615
0.041455
0.0558838
0.0285884
0.0504175
0.0148527
0.0423423
0.0309278
0.199653
0.00285032
0.198949
0.00548616
0.197871
0.00793954
0.196427
0.0102899
0.194627
0.0126039
0.192473
0.0149196
0.189964
0.0172636
0.187093
0.0196611
0.183854
0.0221357
0.180237
0.0247081
0.17623
0.0273962
0.171822
0.0302157
0.166997
0.0331794
0.161741
0.0362965
0.156039
0.0395716
0.149872
0.0430022
0.143224
0.0465763
0.136075
0.050268
0.128403
0.0540328
0.120184
0.0578001
0.111389
0.0614649
0.101991
0.0648782
0.0919565
0.0678368
0.0812556
0.0700749
0.0698557
0.07126
0.0577181
0.070999
0.0447616
0.0688403
0.0308498
0.0643293
0.0158735
0.0573187
0.0468013
0.19965
0.00320026
0.198954
0.00618213
0.197904
0.00898915
0.196505
0.0116896
0.194763
0.0143461
0.192681
0.0170015
0.190257
0.0196871
0.187488
0.0224306
0.184366
0.0252577
0.180883
0.0281909
0.177029
0.03125
0.172793
0.0344521
0.168161
0.0378113
0.163119
0.0413379
0.157653
0.0450377
0.151746
0.0489095
0.145379
0.0529436
0.138529
0.0571173
0.131171
0.0613909
0.12327
0.0657007
0.114784
0.0699515
0.105656
0.0740059
0.0958184
0.0776746
0.0851878
0.0807055
0.0736697
0.082778
0.0611627
0.083506
0.0475562
0.0824468
0.0327593
0.0791262
0.0167832
0.0732948
0.0635845
0.199655
0.00354561
0.198975
0.00686223
0.197959
0.0100049
0.19661
0.0130382
0.194934
0.0160221
0.192934
0.019002
0.190608
0.0220131
0.187952
0.0250858
0.184963
0.0282475
0.181631
0.0315229
0.177947
0.0349333
0.173902
0.0384974
0.169483
0.0422307
0.164675
0.0461452
0.159465
0.0502483
0.153833
0.0545417
0.147758
0.0590186
0.141213
0.0636618
0.134165
0.068439
0.126568
0.0732973
0.118363
0.0781565
0.109471
0.0828986
0.0997881
0.0873573
0.0891889
0.0913047
0.0775267
0.0944403
0.0646488
0.0963839
0.0504186
0.096677
0.0347689
0.0947759
0.0177902
0.0902735
0.0813747
0.199664
0.00388143
0.199006
0.00752003
0.19803
0.0109811
0.196739
0.0143297
0.195137
0.0176241
0.193227
0.0209118
0.191009
0.0242309
0.188481
0.0276143
0.185637
0.0310914
0.182471
0.0346885
0.178976
0.0384286
0.175141
0.0423321
0.170955
0.0464164
0.166405
0.0506954
0.161474
0.0551792
0.156143
0.0598728
0.150387
0.0647747
0.144174
0.0698745
0.137463
0.0751502
0.130197
0.0805636
0.122299
0.086054
0.113668
0.0915296
0.10417
0.0968556
0.0936357
0.101839
0.0818664
0.10621
0.068651
0.109599
0.0538033
0.111525
0.0372376
0.111342
0.0190839
0.108427
0.100459
0.199677
0.00420421
0.199047
0.00815027
0.198116
0.0119124
0.196887
0.0155579
0.195367
0.019145
0.193556
0.0227224
0.191456
0.0263307
0.189065
0.0300051
0.18638
0.0337766
0.183396
0.0376732
0.180104
0.0417197
0.176498
0.0459381
0.172567
0.0503478
0.168297
0.0549653
0.163672
0.0598038
0.158672
0.0648728
0.15327
0.070177
0.147429
0.0757151
0.141102
0.0814776
0.134222
0.087444
0.126698
0.093578
0.118407
0.0998203
0.109185
0.106077
0.0988214
0.112203
0.0870545
0.117976
0.0735918
0.123062
0.0581503
0.126966
0.0405533
0.128939
0.0209021
0.128078
0.121361
0.199693
0.00451128
0.199095
0.00874865
0.198213
0.012794
0.197053
0.0167176
0.19562
0.0205783
0.193916
0.0244262
0.191943
0.0283037
0.1897
0.0322479
0.187185
0.0362915
0.184395
0.040464
0.181322
0.0447918
0.177962
0.0492985
0.174304
0.0540057
0.170337
0.0589324
0.166045
0.0640957
0.161408
0.0695099
0.156398
0.0751871
0.150977
0.0811359
0.145094
0.0873613
0.138675
0.0938629
0.13162
0.100633
0.123791
0.107649
0.114998
0.114871
0.104985
0.122216
0.0934214
0.12954
0.0799005
0.136583
0.0639703
0.142896
0.0452368
0.147672
0.0236128
0.149702
0.144974
0.199711
0.00480059
0.199148
0.00931166
0.19832
0.0136216
0.197234
0.0178039
0.195894
0.0219185
0.194303
0.0260165
0.192465
0.0301422
0.190379
0.034334
0.188044
0.0386262
0.185459
0.0430495
0.182619
0.0476317
0.179519
0.0523981
0.176153
0.0573722
0.172509
0.0625758
0.168575
0.0680295
0.164332
0.0737529
0.159754
0.0797654
0.154804
0.086086
0.149431
0.0927348
0.143561
0.0997324
0.137093
0.107101
0.12988
0.114862
0.121718
0.123033
0.112317
0.131617
0.101276
0.140581
0.0880485
0.14981
0.0719263
0.159019
0.0520892
0.167509
0.0278874
0.173904
0.172861
0.19973
0.00507052
0.199205
0.00983644
0.198435
0.0143916
0.197427
0.0188125
0.196185
0.0231605
0.194713
0.0274877
0.193016
0.0318395
0.191094
0.0362559
0.188948
0.040772
0.186578
0.0454198
0.183981
0.0502282
0.181156
0.0552239
0.178096
0.060432
0.174795
0.0658769
0.171242
0.0715823
0.167422
0.0775728
0.163313
0.0838743
0.158883
0.0905159
0.154087
0.0975312
0.148858
0.104961
0.143102
0.112857
0.136681
0.121283
0.129395
0.130319
0.120945
0.140067
0.110887
0.150639
0.0985474
0.16215
0.0829058
0.17466
0.0624401
0.187975
0.0351279
0.201216
0.207989
0.199751
0.00531982
0.199266
0.0103207
0.198557
0.0151011
0.197629
0.0197401
0.19649
0.0243004
0.195142
0.028835
0.193591
0.0333904
0.19184
0.0380073
0.18989
0.042722
0.187743
0.047567
0.185399
0.0525722
0.182858
0.0577651
0.180117
0.0631725
0.177174
0.0688202
0.174021
0.0747349
0.170649
0.0809447
0.167042
0.0874812
0.163177
0.0943812
0.159019
0.10169
0.154517
0.109463
0.149595
0.117778
0.144144
0.126734
0.137995
0.136469
0.130889
0.147173
0.122411
0.159117
0.111866
0.172694
0.0980238
0.188502
0.0785441
0.207455
0.0486697
0.231091
0.256659
0.199772
0.00554752
0.19933
0.0107626
0.198684
0.0157475
0.19784
0.0205836
0.196806
0.0253348
0.195586
0.0300547
0.194186
0.0347905
0.19261
0.0395836
0.190861
0.0444708
0.188943
0.0494851
0.186859
0.0546567
0.18461
0.0600139
0.182198
0.065584
0.179624
0.0713941
0.176887
0.0774724
0.173982
0.0838496
0.170903
0.0905606
0.167637
0.097647
0.164166
0.105161
0.16046
0.113169
0.156475
0.121762
0.152147
0.131062
0.147374
0.141242
0.141998
0.152549
0.135756
0.165359
0.128177
0.180273
0.11832
0.198358
0.103934
0.221841
0.077703
0.257322
0.334362
0.00383561
-0.00383561
0.00751594
-0.00368032
0.0105899
-0.00307401
0.0130594
-0.00246946
0.0150234
-0.00196397
0.0165848
-0.00156144
0.0178319
-0.00124705
0.0188376
-0.00100576
0.0196619
-0.000824221
0.0203526
-0.000690728
0.0209478
-0.000595237
0.0214768
-0.000528972
0.0219606
-0.000483764
0.0224121
-0.000451562
0.0228365
-0.000424339
0.023231
-0.000394548
0.0235872
-0.000356183
0.0238934
-0.000306185
0.0241387
-0.000245299
0.0243158
-0.000177118
0.0244211
-0.000105305
0.024454
-3.28846e-05
0.0244082
4.57476e-05
0.0242787
0.000129508
0.0240659
0.000212866
0.0237867
0.00027918
0.0234761
0.000310541
0.0231815
0.000294679
0.022952
0.00022945
0.000105566
0.00347079
-0.0073064
0.00684299
-0.00705252
0.00971183
-0.00594285
0.012081
-0.0048386
0.0140421
-0.00392512
0.0156851
-0.00320442
0.0170827
-0.00264464
0.0182924
-0.00221549
0.0193598
-0.00189162
0.0203208
-0.00165175
0.0212037
-0.00147809
0.0220302
-0.00135548
0.0228166
-0.00127021
0.0235742
-0.00120915
0.0243093
-0.00115942
0.0250235
-0.00110872
0.0257141
-0.00104678
0.0263756
-0.000967687
0.0270023
-0.000871988
0.0275912
-0.000766023
0.0281425
-0.000656651
0.028653
-0.000543355
0.0291151
-0.000416385
0.029517
-0.000272361
0.0298488
-0.000118906
0.0301091
1.88115e-05
0.0303193
0.0001004
0.0305178
9.61014e-05
0.0307291
1.81833e-05
-6.79573e-05
0.00286261
-0.010169
0.00554561
-0.00973553
0.00778027
-0.0081775
0.00960859
-0.00666692
0.0111202
-0.00543674
0.0123922
-0.00447643
0.0134818
-0.00373417
0.0144313
-0.00316499
0.0152734
-0.00273381
0.0160342
-0.0024125
0.0167341
-0.00217797
0.0173892
-0.00201063
0.018012
-0.00189296
0.0186113
-0.00180845
0.0191928
-0.00174097
0.019759
-0.00167489
0.0203086
-0.0015964
0.0208375
-0.00149659
0.0213406
-0.00137506
0.0218155
-0.0012409
0.0222652
-0.00110637
0.0226969
-0.0009751
0.0231169
-0.000836327
0.0235226
-0.000678086
0.0239059
-0.000502182
0.024252
-0.000327289
0.0245383
-0.00018596
0.0247506
-0.000116194
0.0249161
-0.000147288
-0.000192088
0.00220058
-0.0123696
0.00407844
-0.0116134
0.00555168
-0.00965073
0.0067208
-0.00783605
0.00766703
-0.00638297
0.00845405
-0.00526345
0.00911982
-0.00439994
0.00968995
-0.00373513
0.0101841
-0.00322794
0.0106181
-0.00284654
0.011005
-0.00256484
0.0113552
-0.00236079
0.011677
-0.00221478
0.0119773
-0.00210875
0.0122617
-0.00202536
0.0125342
-0.00194738
0.0127963
-0.00185854
0.0130458
-0.00174613
0.0132768
-0.00160601
0.0134828
-0.00144696
0.0136643
-0.00128782
0.0138307
-0.00114151
0.0139939
-0.000999495
0.0141588
-0.000842979
0.0143156
-0.000659056
0.0144367
-0.000448373
0.0144809
-0.000230155
0.0144161
-5.13777e-05
0.0142391
2.97203e-05
-8.93184e-05
0.001439
-0.0138086
0.00243009
-0.0126045
0.00307615
-0.0102968
0.00352013
-0.00828003
0.00382625
-0.00668908
0.0040453
-0.0054825
0.00419623
-0.00455087
0.00429088
-0.00382977
0.00433976
-0.00327682
0.00435162
-0.0028584
0.0043335
-0.00254673
0.00429134
-0.00231862
0.00423035
-0.00215379
0.00415546
-0.00203386
0.00407187
-0.00194177
0.0039854
-0.00186091
0.0039014
-0.00177454
0.00382195
-0.00166667
0.0037418
-0.00152586
0.00364525
-0.00135042
0.00350946
-0.00115202
0.0033191
-0.000951153
0.00308014
-0.000760531
0.00281654
-0.000579381
0.00256125
-0.000403765
0.00234774
-0.000234866
0.00216792
-5.03292e-05
0.00202611
9.04302e-05
0.00190783
0.000147998
2.81862e-07
0.000565791
-0.0143744
0.00060933
-0.012648
0.00038022
-0.0100677
6.32931e-05
-0.0079631
-0.000318063
-0.00630773
-0.000735359
-0.0050652
-0.0011752
-0.00411104
-0.0016252
-0.00337977
-0.00207754
-0.00282448
-0.00252685
-0.00240909
-0.00296956
-0.00210402
-0.00340292
-0.00188527
-0.00382466
-0.00173205
-0.00423275
-0.00162577
-0.00462454
-0.00154998
-0.00499574
-0.00148972
-0.00534001
-0.00143027
-0.00565082
-0.00135587
-0.00592467
-0.00125201
-0.00616402
-0.00111106
-0.00637876
-0.00093728
-0.00658407
-0.00074585
-0.0067914
-0.000553194
-0.00700176
-0.00036903
-0.00720977
-0.000195747
-0.00741196
-3.26774e-05
-0.00757999
0.000117697
-0.0077105
0.000220942
-0.00779478
0.000232273
0.000109981
-0.000423816
-0.0139506
-0.00134837
-0.0117235
-0.00243
-0.00898606
-0.00355841
-0.00683469
-0.00466836
-0.00519778
-0.00574125
-0.00399231
-0.006751
-0.00310128
-0.0076882
-0.00244258
-0.00854866
-0.00196401
-0.00933245
-0.0016253
-0.0100435
-0.00139298
-0.0106882
-0.0012406
-0.0112738
-0.00114647
-0.0118071
-0.00109238
-0.0122935
-0.00106363
-0.0127356
-0.00104759
-0.0131329
-0.001033
-0.0134837
-0.00100506
-0.013789
-0.000946692
-0.0140552
-0.000844916
-0.0142939
-0.000698512
-0.0145196
-0.000520142
-0.0147435
-0.000329293
-0.0149704
-0.000142126
-0.015194
2.78172e-05
-0.0153924
0.000165686
-0.0155562
0.000281533
-0.0156975
0.000362211
-0.0158159
0.000350676
0.000245425
-0.00148567
-0.0124649
-0.00341849
-0.00979065
-0.00536703
-0.00703751
-0.0072631
-0.00493863
-0.00903229
-0.00342859
-0.0106389
-0.00238568
-0.0120638
-0.00167645
-0.0133131
-0.00119323
-0.014403
-0.000874141
-0.0153542
-0.000674047
-0.0161883
-0.000558947
-0.0169243
-0.000504537
-0.0175788
-0.000491944
-0.0181654
-0.000505836
-0.0186938
-0.000535171
-0.0191716
-0.000569791
-0.0196001
-0.000604545
-0.0199787
-0.000626503
-0.0203096
-0.000615713
-0.020601
-0.000553521
-0.0208658
-0.000433725
-0.0211177
-0.000268216
-0.0213681
-7.89657e-05
-0.0216107
0.000100458
-0.0218298
0.000247012
-0.022029
0.000364858
-0.0222111
0.000463566
-0.0223717
0.000522824
-0.0225208
0.000499826
0.000415281
-0.00269627
-0.00976864
-0.00573284
-0.00675408
-0.00856403
-0.00420631
-0.0111365
-0.00236619
-0.0134055
-0.00115952
-0.0153885
-0.000402693
-0.017097
3.20641e-05
-0.0185334
0.000243173
-0.0197241
0.000316528
-0.0207216
0.000323473
-0.0215738
0.000293254
-0.0223168
0.000238394
-0.0229766
0.000167915
-0.0235728
9.0305e-05
-0.024117
9.01473e-06
-0.0246156
-7.11308e-05
-0.025064
-0.000156169
-0.0254596
-0.000230844
-0.0258047
-0.000270612
-0.0261096
-0.000248703
-0.0263915
-0.000151789
-0.0266662
6.46799e-06
-0.0269304
0.00018525
-0.0271766
0.000346607
-0.0274075
0.000477913
-0.0276205
0.000577902
-0.0278099
0.000652932
-0.0279777
0.000690678
-0.0281411
0.000663176
0.000600684
-0.00424348
-0.00552516
-0.00880899
-0.00218857
-0.0128847
-0.000130553
-0.0161951
0.000944209
-0.0188021
0.00144743
-0.0208325
0.00162767
-0.0224293
0.00162893
-0.0237201
0.00153397
-0.024799
0.00139542
-0.0257163
0.00124078
-0.026509
0.00108592
-0.0272034
0.00093278
-0.0278177
0.000782264
-0.0283675
0.000640108
-0.0288681
0.000509608
-0.0293271
0.000387834
-0.0297487
0.000265408
-0.0301282
0.000148737
-0.030465
6.61896e-05
-0.0307667
5.29667e-05
-0.0310455
0.000127027
-0.0313108
0.000271751
-0.0315727
0.000447172
-0.0318346
0.000608435
-0.0320832
0.000726597
-0.0323068
0.000801501
-0.0325014
0.000847447
-0.0326748
0.000864126
-0.032848
0.000836354
0.000793045
-0.00639747
0.000872315
-0.011987
0.00340096
-0.0163387
0.0042211
-0.0196927
0.00429823
-0.0223358
0.00409054
-0.0244364
0.00372833
-0.0261217
0.00331419
-0.0274882
0.00290048
-0.0286088
0.00251604
-0.029549
0.00218092
-0.0303597
0.00189666
-0.0310724
0.00164548
-0.0317041
0.00141392
-0.0322697
0.00120574
-0.0327861
0.00102599
-0.0332609
0.000862706
-0.0336892
0.000693695
-0.0340589
0.000518402
-0.0343674
0.000374655
-0.0346321
0.000317707
-0.0348823
0.000377201
-0.0351427
0.000532197
-0.0354203
0.000724704
-0.0357029
0.000891098
-0.0359699
0.000993579
-0.0362041
0.00103566
-0.0364027
0.00104605
-0.0365796
0.00104105
-0.0367582
0.00101499
0.000988934
-0.00778678
0.00865909
-0.0141322
0.00974634
-0.0190035
0.00909243
-0.0227323
0.00802703
-0.0255606
0.00691884
-0.027723
0.00589075
-0.0294126
0.0050038
-0.0307609
0.00424881
-0.0318518
0.00360685
-0.0327591
0.0030883
-0.033547
0.00268451
-0.0342488
0.00234733
-0.0348735
0.00203862
-0.0354315
0.0017637
-0.0359438
0.00153831
-0.0364242
0.00134306
-0.0368625
0.00113202
-0.0372342
0.000890089
-0.0375293
0.000669756
-0.0377717
0.000560115
-0.0380054
0.000610894
-0.0382654
0.000792231
-0.0385589
0.00101817
-0.0388662
0.00119843
-0.0391553
0.00128262
-0.0394008
0.0012812
-0.039601
0.00124626
-0.0397774
0.00121743
-0.0399571
0.0011947
0.00118478
-0.00933911
0.0179982
-0.0169915
0.0173987
-0.022355
0.014456
-0.0261313
0.0118034
-0.028883
0.00967048
-0.0309097
0.00791746
-0.0324598
0.00655392
-0.0336945
0.00548353
-0.0346825
0.0045948
-0.0354964
0.00390228
-0.0362208
0.00340888
-0.0368917
0.00301819
-0.0374957
0.00264264
-0.0380294
0.00229744
-0.038523
0.00203189
-0.0390029
0.00182295
-0.0394528
0.00158187
-0.0398256
0.00126287
-0.0400956
0.000939753
-0.0402961
0.000760647
-0.040497
0.000811762
-0.0407503
0.0010456
-0.0410627
0.00133049
-0.0414019
0.00153767
-0.0417191
0.00159987
-0.0419768
0.00153888
-0.0421738
0.00144322
-0.0423433
0.00138694
-0.0425196
0.00137102
0.00137752
-0.0122994
0.0302976
-0.021519
0.0266183
-0.026834
0.019771
-0.0300717
0.015041
-0.03243
0.0120288
-0.0340764
0.00956388
-0.035301
0.00777845
-0.0363241
0.00650662
-0.0371454
0.00541618
-0.0378003
0.0045572
-0.0384178
0.00402629
-0.0390474
0.00364785
-0.0396252
0.00322036
-0.0401148
0.00278706
-0.0405666
0.00248374
-0.0410385
0.00229489
-0.0415079
0.00205125
-0.0418874
0.00164232
-0.0421195
0.00117185
-0.042251
0.000892221
-0.042397
0.000957755
-0.0426381
0.0012867
-0.0429765
0.00166885
-0.0433597
0.00192088
-0.0437146
0.00195479
-0.0439852
0.0018095
-0.0441705
0.00162849
-0.0443233
0.00153972
-0.0444917
0.00153943
0.00156472
-0.0174776
0.0477752
-0.0286085
0.0377492
-0.03313
0.0242926
-0.0345887
0.0164996
-0.0362235
0.0136637
-0.0371878
0.0105282
-0.0378354
0.00842607
-0.0386053
0.0072765
-0.0392693
0.00608016
-0.0396856
0.00497347
-0.0401245
0.00446521
-0.0407137
0.00423712
-0.0412774
0.00378399
-0.0417034
0.00321306
-0.0420805
0.00286087
-0.0425412
0.00275562
-0.0430564
0.0025664
-0.0434648
0.00205074
-0.0436467
0.00135371
-0.0436657
0.000911285
-0.0437232
0.00101522
-0.0439464
0.00150989
-0.0443236
0.00204608
-0.044769
0.0023663
-0.0451754
0.00236117
-0.04546
0.00209404
-0.0456198
0.00178835
-0.0457401
0.00166002
-0.0458968
0.00169611
0.00174611
0.207447
0.0057603
0.207034
0.0111752
0.206432
0.0163501
0.205647
0.0213681
0.204688
0.0262941
0.20356
0.0311822
0.202271
0.03608
0.200825
0.0410293
0.199229
0.0460671
0.197488
0.0512264
0.195607
0.0565375
0.193592
0.0620287
0.191448
0.0677274
0.189182
0.073661
0.186796
0.079858
0.184296
0.0863497
0.181685
0.0931719
0.178964
0.100368
0.176133
0.107991
0.173192
0.116111
0.170135
0.124819
0.166958
0.134239
0.163657
0.144543
0.160232
0.155973
0.156707
0.168884
0.153177
0.183804
0.150006
0.201529
0.148875
0.222972
0.160582
0.245615
0.258763
0.236181
0.21249
0.00595273
0.212118
0.0115481
0.211574
0.0168937
0.210868
0.022074
0.210008
0.0271546
0.209
0.0321897
0.207853
0.0372272
0.206574
0.0423086
0.20517
0.0474708
0.20365
0.0527465
0.202022
0.0581655
0.200295
0.0637556
0.198479
0.0695435
0.196584
0.0755556
0.194622
0.0818196
0.192607
0.0883654
0.190551
0.0952272
0.188474
0.102445
0.186396
0.110069
0.184346
0.118161
0.182363
0.126801
0.18051
0.136092
0.178886
0.146168
0.177661
0.157198
0.177158
0.169387
0.178031
0.182931
0.181697
0.197862
0.190761
0.213908
0.206231
0.230145
0.245646
0.219348
0.217658
0.00612268
0.217329
0.0118771
0.21685
0.0173724
0.21623
0.0226938
0.215478
0.027907
0.214601
0.0330664
0.213609
0.0382194
0.21251
0.0434073
0.211315
0.0486662
0.210033
0.0540281
0.208677
0.0595218
0.207259
0.0651738
0.205793
0.0710092
0.204296
0.0770527
0.202786
0.0833295
0.201285
0.0898663
0.199819
0.0966927
0.198422
0.103843
0.197134
0.111357
0.196012
0.119283
0.195134
0.127679
0.194613
0.136613
0.19462
0.146161
0.195418
0.156401
0.197417
0.167388
0.201228
0.17912
0.207621
0.191469
0.217257
0.204273
0.229853
0.217548
0.228717
0.246782
0.222951
0.00626815
0.22267
0.0121584
0.222262
0.0177806
0.221735
0.0232202
0.2211
0.0285426
0.220364
0.033802
0.219538
0.0390451
0.218633
0.0443124
0.217661
0.049639
0.216633
0.0550556
0.215566
0.0605894
0.214474
0.0662651
0.213378
0.0721054
0.212299
0.0781322
0.211261
0.0843669
0.210296
0.0908315
0.20944
0.097549
0.208738
0.104544
0.20825
0.111845
0.208051
0.119482
0.208245
0.127485
0.208972
0.135886
0.210424
0.144709
0.212866
0.153959
0.216643
0.163611
0.222176
0.173587
0.229913
0.183733
0.240424
0.193761
0.254627
0.203345
0.21023
0.273115
0.228374
0.00638728
0.228144
0.0123885
0.227812
0.0181132
0.227385
0.0236465
0.226874
0.0290534
0.226289
0.0343873
0.22564
0.0396938
0.224941
0.0450122
0.224203
0.0503764
0.223443
0.0558153
0.222679
0.0613541
0.221929
0.0670149
0.221217
0.0728176
0.220569
0.0787802
0.220016
0.0849195
0.219596
0.0912514
0.219354
0.0977912
0.219345
0.104554
0.219638
0.111552
0.220323
0.118798
0.221511
0.126298
0.223347
0.13405
0.226016
0.142039
0.22975
0.150225
0.234827
0.158533
0.241577
0.166837
0.250378
0.174932
0.261674
0.182465
0.27594
0.189079
0.193691
0.292479
0.233929
0.0064784
0.233754
0.012564
0.233502
0.0183655
0.233181
0.0239669
0.232802
0.0294323
0.232376
0.034814
0.231913
0.0401562
0.231428
0.045497
0.230937
0.0508681
0.230456
0.0562965
0.230004
0.0618051
0.229606
0.067413
0.229287
0.0731365
0.229078
0.0789895
0.229014
0.0849835
0.229138
0.0911276
0.2295
0.097429
0.230162
0.103892
0.231198
0.110516
0.232699
0.117296
0.234777
0.124219
0.237569
0.131259
0.241237
0.138371
0.245974
0.145488
0.252001
0.152507
0.259559
0.159279
0.268889
0.165601
0.280172
0.171182
0.2935
0.175751
0.178793
0.308398
0.23962
0.00654
0.239502
0.0126821
0.239334
0.0185333
0.239125
0.0241761
0.238884
0.0296731
0.238623
0.0350752
0.238354
0.040425
0.238092
0.0457587
0.237854
0.051106
0.237659
0.0564916
0.237529
0.0619355
0.237488
0.0674537
0.237566
0.0730588
0.237795
0.0787601
0.238215
0.0845636
0.238871
0.090472
0.239815
0.0964843
0.241112
0.102595
0.242835
0.108793
0.245072
0.115059
0.247926
0.121365
0.251516
0.127668
0.255978
0.133909
0.261461
0.140005
0.268122
0.145846
0.27611
0.151292
0.285544
0.156167
0.296471
0.160256
0.308878
0.163343
0.165163
0.322508
0.245448
0.00657083
0.24539
0.0127405
0.24531
0.0186133
0.245216
0.0242698
0.245119
0.0297708
0.245028
0.0351654
0.244959
0.0404944
0.244926
0.0457917
0.244947
0.0510849
0.245043
0.056396
0.245236
0.0617423
0.245553
0.0671363
0.246025
0.0725868
0.246687
0.0780986
0.247578
0.0836726
0.248744
0.0893055
0.250239
0.0949893
0.252124
0.100711
0.254468
0.106449
0.257351
0.112176
0.260863
0.117854
0.265102
0.12343
0.270171
0.128839
0.276179
0.133997
0.283224
0.138801
0.291387
0.143128
0.300716
0.146838
0.311198
0.149773
0.322767
0.151774
0.15271
0.33522
0.251418
0.00656986
0.251422
0.012737
0.251432
0.0186027
0.251457
0.0242446
0.251506
0.0297217
0.251591
0.0350807
0.251725
0.0403605
0.251924
0.0455926
0.252207
0.0508023
0.252594
0.0560088
0.25311
0.0612264
0.253781
0.0664645
0.25464
0.0717282
0.25572
0.0770182
0.257062
0.0823306
0.258711
0.0876571
0.260716
0.0929841
0.263135
0.098292
0.266029
0.103555
0.269468
0.108738
0.273523
0.113798
0.278273
0.118681
0.283791
0.123321
0.290147
0.127641
0.297398
0.131551
0.305577
0.134949
0.314686
0.137729
0.324679
0.13978
0.335458
0.140996
0.141318
0.34685
0.257532
0.00653635
0.257599
0.0126704
0.257702
0.0184995
0.257848
0.0240983
0.258047
0.0295233
0.258308
0.034819
0.258647
0.0400217
0.259079
0.0451607
0.259623
0.0502587
0.260299
0.0553323
0.261133
0.0603929
0.262151
0.0654468
0.263383
0.0704959
0.264864
0.0755372
0.266631
0.0805631
0.268727
0.0855613
0.271197
0.0905139
0.274092
0.0953975
0.277464
0.100183
0.281369
0.104832
0.285865
0.109302
0.291005
0.11354
0.29684
0.117486
0.303409
0.121071
0.310738
0.124222
0.318827
0.12686
0.327649
0.128907
0.337141
0.130288
0.347198
0.130939
0.130839
0.357677
0.263794
0.00646984
0.263925
0.0125398
0.264122
0.0183026
0.26439
0.0238298
0.264739
0.0291747
0.265178
0.0343796
0.265722
0.0394782
0.266385
0.0444974
0.267186
0.0494573
0.268147
0.054372
0.269289
0.0592502
0.270641
0.0640956
0.272229
0.0689071
0.274088
0.0736789
0.27625
0.0784004
0.278755
0.0830564
0.281642
0.0876268
0.284954
0.0920861
0.288733
0.0964035
0.293022
0.100542
0.297864
0.104461
0.303293
0.108111
0.309339
0.11144
0.316019
0.114391
0.323335
0.116907
0.331266
0.118928
0.339772
0.120401
0.34878
0.121279
0.358194
0.121525
0.12114
0.367893
0.270207
0.00637013
0.270402
0.0123448
0.270693
0.0180118
0.271084
0.0234388
0.271582
0.0286763
0.272198
0.0337637
0.272944
0.0387323
0.273835
0.0436065
0.274888
0.048404
0.276123
0.0531364
0.277563
0.0578102
0.279232
0.0624267
0.281157
0.0669825
0.283366
0.0714695
0.285891
0.0758754
0.288764
0.0801834
0.292019
0.084372
0.29569
0.0884157
0.299809
0.0922842
0.304408
0.0959433
0.309514
0.0993547
0.315148
0.102477
0.321322
0.105266
0.328036
0.107678
0.335276
0.109667
0.343012
0.111193
0.351193
0.11222
0.359751
0.112722
0.368596
0.11268
0.112108
0.377628
0.276774
0.00623733
0.277033
0.0120857
0.277417
0.0176276
0.277929
0.0229265
0.278576
0.0280297
0.279366
0.0329741
0.28031
0.0377882
0.281422
0.0424941
0.282719
0.047107
0.284219
0.0516367
0.285941
0.0560875
0.28791
0.0604587
0.290147
0.0647453
0.292678
0.0689379
0.295531
0.0730231
0.298731
0.0769834
0.302305
0.0807976
0.30628
0.084441
0.310678
0.0878857
0.315521
0.0911006
0.320823
0.0940528
0.326592
0.0967074
0.332829
0.0990295
0.339522
0.100985
0.346647
0.102542
0.354167
0.103673
0.362031
0.104356
0.370174
0.104579
0.378517
0.104337
0.103648
0.386977
0.283498
0.00607183
0.283821
0.0117632
0.284297
0.0171512
0.284929
0.0222947
0.28572
0.0272381
0.286679
0.032015
0.287816
0.0366518
0.289142
0.0411679
0.290672
0.0455768
0.292423
0.0498862
0.294412
0.0540986
0.296658
0.0582122
0.299183
0.0622207
0.302007
0.0661141
0.305151
0.0698786
0.308637
0.0734971
0.312486
0.0769495
0.316713
0.0802131
0.321336
0.0832628
0.326365
0.0860718
0.331805
0.0886126
0.337655
0.0908573
0.343906
0.0927789
0.350539
0.0943525
0.357524
0.0955566
0.364822
0.0963743
0.372383
0.0967947
0.380148
0.0968139
0.38805
0.0964355
0.09568
0.396018
0.290384
0.00587426
0.290768
0.0113788
0.291335
0.0165847
0.292083
0.0215466
0.293016
0.0263054
0.294139
0.0308921
0.29546
0.0353304
0.29699
0.0396376
0.298742
0.0438253
0.300728
0.0478996
0.302965
0.0518618
0.305468
0.0557091
0.308254
0.0594346
0.31134
0.0630282
0.314742
0.0664765
0.318476
0.0697634
0.322555
0.0728706
0.32699
0.0757778
0.331789
0.0784635
0.336956
0.0809054
0.342487
0.0830812
0.348375
0.0849695
0.354603
0.0865503
0.361149
0.0878067
0.367981
0.0887251
0.375058
0.0892966
0.382336
0.0895176
0.389759
0.0893905
0.397271
0.0889236
0.0881381
0.404813
0.297435
0.00564548
0.297879
0.010934
0.298533
0.0159308
0.299394
0.0206859
0.300462
0.0252369
0.301742
0.029612
0.30324
0.0338326
0.304964
0.0379139
0.306923
0.0418658
0.30913
0.0456932
0.311595
0.0493964
0.314333
0.0529719
0.317354
0.056413
0.320672
0.0597098
0.324299
0.0628498
0.328244
0.0658185
0.332515
0.0685996
0.337117
0.0711759
0.342051
0.0735292
0.347315
0.0756418
0.3529
0.0774963
0.358792
0.0790769
0.364973
0.0803698
0.371415
0.0813643
0.378088
0.0820528
0.384952
0.0824324
0.391965
0.0825044
0.39908
0.0822752
0.406248
0.0817557
0.0809666
0.41342
0.304654
0.00538656
0.305157
0.0104311
0.305895
0.0151927
0.306864
0.0197172
0.308062
0.0240386
0.309492
0.0281825
0.311156
0.032168
0.313062
0.0360085
0.315215
0.0397124
0.317625
0.0432835
0.3203
0.0467216
0.323248
0.0500231
0.32648
0.0531813
0.330003
0.0561871
0.333823
0.0590294
0.337946
0.0616954
0.342375
0.0641711
0.347108
0.0664423
0.352143
0.0684945
0.357471
0.0703137
0.36308
0.0718872
0.368953
0.0732039
0.375068
0.074255
0.381398
0.0750344
0.387911
0.0755396
0.394572
0.0757713
0.401342
0.0757343
0.40818
0.0754372
0.415044
0.0748922
0.0741187
0.421892
0.312046
0.00509871
0.312605
0.0098723
0.313424
0.0143741
0.314495
0.0186454
0.315817
0.0227169
0.317388
0.0266117
0.319209
0.0303466
0.321284
0.0339335
0.323617
0.0373794
0.326213
0.0406874
0.329078
0.0438568
0.332217
0.0468842
0.335635
0.0497635
0.339335
0.0524864
0.343322
0.0550432
0.347594
0.0574233
0.35215
0.059615
0.356985
0.0616068
0.362092
0.0633876
0.367459
0.064947
0.37307
0.066276
0.378907
0.0673675
0.384945
0.0682166
0.391159
0.0688209
0.397517
0.069181
0.403988
0.0693006
0.410536
0.0691863
0.417125
0.068848
0.423719
0.0682979
0.0675541
0.430284
0.319615
0.00478326
0.320227
0.00926032
0.321122
0.0134788
0.322292
0.0174758
0.32373
0.0212788
0.325433
0.0249083
0.327401
0.028379
0.329633
0.0317013
0.332131
0.0348812
0.334897
0.0379212
0.337934
0.0408205
0.341242
0.0435757
0.344824
0.0461817
0.348679
0.0486312
0.352807
0.0509161
0.357202
0.0530275
0.361861
0.0549563
0.366774
0.0566936
0.371931
0.0582309
0.377317
0.0595612
0.382914
0.0606784
0.388703
0.0615786
0.39466
0.0622599
0.400758
0.0627226
0.40697
0.0629694
0.413264
0.0630058
0.419611
0.0628396
0.425979
0.0624807
0.432335
0.0619413
0.0612377
0.438652
0.327365
0.00444156
0.328027
0.00859782
0.328995
0.012511
0.330257
0.0162141
0.331804
0.0197314
0.333632
0.0230808
0.335735
0.0262754
0.338113
0.029324
0.340762
0.0322317
0.343683
0.0350005
0.346874
0.0376297
0.350333
0.0401163
0.354059
0.0424558
0.358048
0.0446424
0.362295
0.0466692
0.366793
0.0485293
0.371533
0.0502157
0.376505