/*--------------------------------*- C++ -*----------------------------------*\
  =========                 |
  \\      /  F ield         | OpenFOAM: The Open Source CFD Toolbox
   \\    /   O peration     | Website:  https://openfoam.org
    \\  /    A nd           | Version:  7
     \\/     M anipulation  |
\*---------------------------------------------------------------------------*/
FoamFile
{
    version     2.0;
    format      ascii;
    class       volVectorField;
    location    "4.4";
    object      U;
}
// * * * * * * * * * * * * * * * * * * * * * * * * * * * * * * * * * * * * * //

dimensions      [0 1 -1 0 0 0 0];

internalField   nonuniform List<vector> 
2790
(
(9.94399 0.0205232 0)
(9.87572 0.0295877 0)
(9.77521 0.0359895 0)
(9.64944 0.0425561 0)
(9.50409 0.0493853 0)
(9.34007 0.0564282 0)
(9.15655 0.0638156 0)
(8.95263 0.0717113 0)
(8.72747 0.0802548 0)
(8.48009 0.0895731 0)
(8.20929 0.099793 0)
(7.91366 0.111045 0)
(7.5917 0.12346 0)
(7.2418 0.137165 0)
(6.86236 0.152273 0)
(6.45183 0.168871 0)
(6.00892 0.186998 0)
(5.53272 0.206621 0)
(5.02301 0.227592 0)
(4.4805 0.249614 0)
(3.90721 0.272179 0)
(3.30689 0.294528 0)
(2.68534 0.315623 0)
(2.05068 0.334292 0)
(1.41186 0.35061 0)
(0.798088 0.372887 0)
(0.110788 0.325092 0)
(-0.469563 -0.114847 0)
(-0.45377 -0.297168 0)
(-0.231164 -0.423865 0)
(9.9985 0.040703 0)
(9.98145 0.0623828 0)
(9.93574 0.0791401 0)
(9.86416 0.0966246 0)
(9.77097 0.115123 0)
(9.65715 0.134488 0)
(9.52206 0.154974 0)
(9.36486 0.176942 0)
(9.18472 0.200706 0)
(8.98068 0.226548 0)
(8.75154 0.254742 0)
(8.4959 0.285559 0)
(8.21223 0.319248 0)
(7.89885 0.356021 0)
(7.55407 0.396019 0)
(7.17623 0.439262 0)
(6.76383 0.485593 0)
(6.31571 0.534588 0)
(5.83131 0.585463 0)
(5.31094 0.636957 0)
(4.75622 0.687207 0)
(4.17048 0.733651 0)
(3.55937 0.772959 0)
(2.93162 0.801101 0)
(2.30002 0.813759 0)
(1.69302 0.807266 0)
(1.10722 0.747275 0)
(0.658936 0.547957 0)
(0.186521 0.224656 0)
(-0.00820067 -0.453714 0)
(9.99559 0.043207 0)
(9.97556 0.0752717 0)
(9.9318 0.103346 0)
(9.8649 0.132371 0)
(9.77778 0.163059 0)
(9.67155 0.195397 0)
(9.54588 0.229741 0)
(9.40014 0.2666 0)
(9.23366 0.306467 0)
(9.04565 0.349803 0)
(8.8351 0.397068 0)
(8.60083 0.448717 0)
(8.34147 0.505187 0)
(8.05553 0.566858 0)
(7.74141 0.634005 0)
(7.39748 0.706725 0)
(7.02215 0.784831 0)
(6.614 0.867719 0)
(6.17199 0.95419 0)
(5.6957 1.04225 0)
(5.18569 1.12888 0)
(4.64403 1.20979 0)
(4.07487 1.27916 0)
(3.48545 1.32934 0)
(2.88692 1.3501 0)
(2.29953 1.32645 0)
(1.7319 1.22081 0)
(1.2163 0.973045 0)
(0.701179 0.570192 0)
(0.358063 -0.156494 0)
(9.99403 0.0494993 0)
(9.97181 0.0932063 0)
(9.92788 0.133572 0)
(9.86225 0.174209 0)
(9.77693 0.216432 0)
(9.67298 0.26066 0)
(9.55032 0.307428 0)
(9.40849 0.357412 0)
(9.24703 0.411287 0)
(9.06534 0.4697 0)
(8.8627 0.533296 0)
(8.63821 0.602716 0)
(8.39087 0.678584 0)
(8.11954 0.761465 0)
(7.82303 0.85181 0)
(7.50004 0.949863 0)
(7.14928 1.05554 0)
(6.76949 1.16823 0)
(6.35955 1.28659 0)
(5.91866 1.40826 0)
(5.44659 1.52946 0)
(4.94407 1.64468 0)
(4.41324 1.74614 0)
(3.85834 1.82323 0)
(3.28589 1.86138 0)
(2.70647 1.84035 0)
(2.12571 1.72605 0)
(1.55431 1.47792 0)
(0.957979 1.08376 0)
(0.509435 0.502392 0)
(9.99331 0.0572137 0)
(9.96994 0.110959 0)
(9.92593 0.162104 0)
(9.86146 0.213347 0)
(9.77799 0.266356 0)
(9.67635 0.321912 0)
(9.55654 0.380699 0)
(9.41822 0.443484 0)
(9.26098 0.511051 0)
(9.08434 0.584163 0)
(8.88771 0.663579 0)
(8.6704 0.750053 0)
(8.43161 0.844323 0)
(8.17048 0.94707 0)
(7.8861 1.05886 0)
(7.57751 1.18006 0)
(7.2437 1.31067 0)
(6.88365 1.45016 0)
(6.49633 1.5972 0)
(6.08079 1.74931 0)
(5.63622 1.9024 0)
(5.16218 2.05031 0)
(4.65884 2.18417 0)
(4.12729 2.29175 0)
(3.56947 2.35658 0)
(2.98896 2.35735 0)
(2.38689 2.26501 0)
(1.76644 2.04771 0)
(1.09002 1.69148 0)
(0.536664 1.15424 0)
(9.99302 0.0655388 0)
(9.96923 0.128702 0)
(9.92556 0.190114 0)
(9.86253 0.251843 0)
(9.78129 0.315577 0)
(9.68244 0.382317 0)
(9.56601 0.452872 0)
(9.43171 0.528097 0)
(9.27921 0.608874 0)
(9.10807 0.696076 0)
(8.91778 0.790569 0)
(8.70775 0.893211 0)
(8.4773 1.00484 0)
(8.22569 1.12624 0)
(7.95217 1.25807 0)
(7.65591 1.40079 0)
(7.33606 1.55452 0)
(6.99168 1.71884 0)
(6.62173 1.89253 0)
(6.22506 2.0732 0)
(5.80034 2.25683 0)
(5.34611 2.43719 0)
(4.86078 2.60519 0)
(4.34278 2.74823 0)
(3.79047 2.84957 0)
(3.20265 2.88824 0)
(2.57663 2.83829 0)
(1.91352 2.67169 0)
(1.17278 2.3741 0)
(0.549981 1.89451 0)
(9.99297 0.074075 0)
(9.96926 0.146314 0)
(9.92637 0.217483 0)
(9.86508 0.289291 0)
(9.78642 0.363354 0)
(9.69085 0.440825 0)
(9.57835 0.522657 0)
(9.44871 0.609806 0)
(9.30165 0.703248 0)
(9.13678 0.803955 0)
(8.95365 0.912888 0)
(8.75171 1.031 0)
(8.53035 1.1592 0)
(8.28889 1.29838 0)
(8.02661 1.44927 0)
(7.74271 1.61245 0)
(7.43633 1.78816 0)
(7.10644 1.97613 0)
(6.75185 2.17537 0)
(6.37106 2.38379 0)
(5.96216 2.59771 0)
(5.52271 2.81136 0)
(5.0496 3.01614 0)
(4.53909 3.19997 0)
(3.98674 3.3467 0)
(3.38799 3.43601 0)
(2.73732 3.44338 0)
(2.0363 3.34159 0)
(1.24178 3.11369 0)
(0.56353 2.69328 0)
(9.99306 0.0825883 0)
(9.96981 0.163606 0)
(9.92807 0.24405 0)
(9.86885 0.325479 0)
(9.79313 0.409445 0)
(9.70126 0.497204 0)
(9.59323 0.589835 0)
(9.46888 0.68839 0)
(9.32796 0.793932 0)
(9.17014 0.907519 0)
(8.99503 1.0302 0)
(8.80211 1.16302 0)
(8.59082 1.30699 0)
(8.36052 1.46307 0)
(8.11046 1.63212 0)
(7.83983 1.81484 0)
(7.54764 2.01163 0)
(7.23271 2.22248 0)
(6.89355 2.4467 0)
(6.52822 2.68265 0)
(6.13415 2.92732 0)
(5.70793 3.17574 0)
(5.24505 3.42035 0)
(4.73987 3.6502 0)
(4.18557 3.85026 0)
(3.57485 4.00094 0)
(2.8996 4.07798 0)
(2.16217 4.05249 0)
(1.31616 3.90183 0)
(0.583237 3.54031 0)
(9.99326 0.0909286 0)
(9.97072 0.180409 0)
(9.93046 0.269668 0)
(9.87362 0.360241 0)
(9.80118 0.453646 0)
(9.71344 0.551207 0)
(9.61038 0.654108 0)
(9.49188 0.76349 0)
(9.35776 0.880496 0)
(9.20773 1.00627 0)
(9.04146 1.14194 0)
(8.85848 1.28865 0)
(8.65828 1.4475 0)
(8.44022 1.61956 0)
(8.20359 1.80583 0)
(7.94748 2.00717 0)
(7.67081 2.22421 0)
(7.3722 2.45723 0)
(7.04984 2.70601 0)
(6.70133 2.96952 0)
(6.32341 3.24562 0)
(5.91173 3.5305 0)
(5.46045 3.81804 0)
(4.96211 4.09898 0)
(4.40752 4.35988 0)
(3.7865 4.58215 0)
(3.08766 4.74116 0)
(2.31278 4.80458 0)
(1.41069 4.74125 0)
(0.61433 4.44211 0)
(9.99352 0.0989926 0)
(9.97191 0.19658 0)
(9.9334 0.294195 0)
(9.87924 0.393417 0)
(9.8104 0.495754 0)
(9.72716 0.602586 0)
(9.62953 0.715178 0)
(9.51741 0.834755 0)
(9.39068 0.962534 0)
(9.24913 1.09973 0)
(9.09245 1.24757 0)
(8.92028 1.40727 0)
(8.73213 1.58004 0)
(8.52743 1.76707 0)
(8.30544 1.96952 0)
(8.06527 2.18844 0)
(7.80575 2.42475 0)
(7.52533 2.67912 0)
(7.22195 2.95187 0)
(6.89282 3.24276 0)
(6.5341 3.55074 0)
(6.14056 3.87345 0)
(5.70515 4.20667 0)
(5.21859 4.54337 0)
(4.66911 4.87245 0)
(4.04299 5.17701 0)
(3.3238 5.4324 0)
(2.50986 5.60211 0)
(1.54193 5.64369 0)
(0.664083 5.41826 0)
(9.99384 0.106705 0)
(9.9733 0.212001 0)
(9.9368 0.317503 0)
(9.88558 0.424856 0)
(9.82063 0.535588 0)
(9.74225 0.651118 0)
(9.65044 0.772783 0)
(9.54517 0.901878 0)
(9.42637 1.03969 0)
(9.2939 1.1875 0)
(9.14752 1.34661 0)
(8.98694 1.51833 0)
(8.81175 1.70396 0)
(8.62143 1.90484 0)
(8.41532 2.12227 0)
(8.19254 2.35755 0)
(7.9519 2.61191 0)
(7.69181 2.88648 0)
(7.41009 3.18222 0)
(7.10369 3.4998 0)
(6.76841 3.83941 0)
(6.39841 4.20048 0)
(5.98566 4.58113 0)
(5.5192 4.9773 0)
(4.98451 5.38132 0)
(4.3634 5.7796 0)
(3.63203 6.14924 0)
(2.78024 6.45083 0)
(1.73353 6.62874 0)
(0.744869 6.50337 0)
(9.9942 0.114007 0)
(9.97487 0.226576 0)
(9.94055 0.339474 0)
(9.89252 0.454424 0)
(9.83173 0.572982 0)
(9.7585 0.696607 0)
(9.67288 0.826689 0)
(9.57488 0.964585 0)
(9.46448 1.11164 0)
(9.34162 1.2692 0)
(9.20615 1.43863 0)
(9.05786 1.62131 0)
(8.89644 1.81866 0)
(8.72147 2.03212 0)
(8.53237 2.26319 0)
(8.32837 2.51339 0)
(8.10836 2.78429 0)
(7.87083 3.0775 0)
(7.61364 3.39465 0)
(7.33377 3.73741 0)
(7.02697 4.10737 0)
(6.68722 4.50595 0)
(6.30598 4.93405 0)
(5.8712 5.3914 0)
(5.36591 5.87534 0)
(4.76704 6.37827 0)
(4.04087 6.88332 0)
(3.1616 7.35369 0)
(2.02485 7.72349 0)
(0.880785 7.75745 0)
(9.99459 0.120854 0)
(9.97657 0.240226 0)
(9.94461 0.360009 0)
(9.89995 0.482001 0)
(9.84356 0.607795 0)
(9.77575 0.73888 0)
(9.69662 0.876693 0)
(9.60622 1.02264 0)
(9.50463 1.17811 0)
(9.39184 1.3445 0)
(9.26781 1.52323 0)
(9.13241 1.71576 0)
(8.98547 1.92358 0)
(8.82668 2.14825 0)
(8.65562 2.39144 0)
(8.47167 2.65488 0)
(8.27393 2.94046 0)
(8.06109 3.25027 0)
(7.83128 3.5866 0)
(7.58182 3.95209 0)
(7.30883 4.34975 0)
(7.0067 4.78306 0)
(6.66729 5.25602 0)
(6.27857 5.77288 0)
(5.82259 6.33765 0)
(5.27264 6.95242 0)
(4.58471 7.61372 0)
(3.71015 8.30112 0)
(2.48833 8.95857 0)
(1.12456 9.29372 0)
(9.99501 0.127212 0)
(9.97838 0.252886 0)
(9.94891 0.379022 0)
(9.90779 0.507488 0)
(9.85598 0.639908 0)
(9.79381 0.7778 0)
(9.72142 0.922634 0)
(9.63893 1.07585 0)
(9.54646 1.23888 0)
(9.44412 1.41316 0)
(9.33194 1.60014 0)
(9.20994 1.80133 0)
(9.07804 2.0183 0)
(8.93613 2.25271 0)
(8.78397 2.50634 0)
(8.62115 2.78112 0)
(8.44708 3.07922 0)
(8.26081 3.40311 0)
(8.06095 3.75568 0)
(7.84546 4.14041 0)
(7.61133 4.56157 0)
(7.35411 5.0246 0)
(7.06719 5.53643 0)
(6.74048 6.10605 0)
(6.35803 6.74518 0)
(5.89423 7.4689 0)
(5.30099 8.29638 0)
(4.50912 9.24817 0)
(3.26908 10.3423 0)
(1.60517 11.3599 0)
(9.99545 0.133052 0)
(9.98026 0.264506 0)
(9.95339 0.396444 0)
(9.91595 0.53079 0)
(9.86888 0.6692 0)
(9.81252 0.813211 0)
(9.74707 0.964318 0)
(9.6727 1.12399 0)
(9.58962 1.29367 0)
(9.498 1.47482 0)
(9.39801 1.66894 0)
(9.28976 1.87754 0)
(9.17335 2.10226 0)
(9.04884 2.3448 0)
(8.91622 2.60704 0)
(8.77537 2.89105 0)
(8.62605 3.1992 0)
(8.46781 3.53423 0)
(8.29993 3.89945 0)
(8.12128 4.29896 0)
(7.93014 4.73797 0)
(7.72396 5.22334 0)
(7.49891 5.76428 0)
(7.2491 6.37362 0)
(6.96503 7.06981 0)
(6.63119 7.88068 0)
(6.21479 8.85168 0)
(5.66638 10.0659 0)
(4.69084 11.7314 0)
(2.68792 14.5937 0)
(0.120926 -0.122367 0)
(0.283729 -0.111737 0)
(0.451572 -0.0891296 0)
(0.594104 -0.0680035 0)
(0.706923 -0.050911 0)
(0.795052 -0.0376557 0)
(0.86451 -0.0275552 0)
(0.920025 -0.0199776 0)
(0.96508 -0.0143927 0)
(1.00236 -0.010358 0)
(1.03401 -0.00750883 0)
(1.06171 -0.00554303 0)
(1.08673 -0.00420093 0)
(1.10992 -0.0032499 0)
(1.13172 -0.00247923 0)
(1.1522 -0.00170725 0)
(1.17105 -0.000801348 0)
(1.18773 0.000297268 0)
(1.20165 0.00156535 0)
(1.2123 0.00293033 0)
(1.21941 0.00433427 0)
(1.2228 0.00573162 0)
(1.22252 0.00699873 0)
(1.21826 0.00816071 0)
(1.20966 0.00917775 0)
(1.19708 0.00977164 0)
(1.18184 0.00965911 0)
(1.16613 0.0086878 0)
(1.15249 0.00686909 0)
(1.14244 0.00373518 0)
(0.101465 -0.281093 0)
(0.258927 -0.265212 0)
(0.413618 -0.217775 0)
(0.547337 -0.172155 0)
(0.656968 -0.135092 0)
(0.74703 -0.106354 0)
(0.822493 -0.0844416 0)
(0.887092 -0.0679481 0)
(0.943511 -0.0557034 0)
(0.993781 -0.0467453 0)
(1.0395 -0.0402916 0)
(1.08192 -0.0357017 0)
(1.12199 -0.0324312 0)
(1.1604 -0.0299964 0)
(1.1976 -0.0279604 0)
(1.23377 -0.0259423 0)
(1.26889 -0.0236551 0)
(1.30276 -0.0209596 0)
(1.33505 -0.0178962 0)
(1.36549 -0.014638 0)
(1.39399 -0.0113512 0)
(1.42061 -0.00808034 0)
(1.44502 -0.00475423 0)
(1.46673 -0.00129591 0)
(1.48524 0.00211068 0)
(1.50006 0.00493936 0)
(1.51136 0.00649648 0)
(1.52114 0.00642074 0)
(1.53106 0.00488367 0)
(1.54369 0.00235464 0)
(0.0790918 -0.44129 0)
(0.212325 -0.416085 0)
(0.333031 -0.343816 0)
(0.436805 -0.274868 0)
(0.521113 -0.219171 0)
(0.59062 -0.176055 0)
(0.649318 -0.143087 0)
(0.699933 -0.118076 0)
(0.744386 -0.0992715 0)
(0.784145 -0.0852715 0)
(0.820376 -0.0749513 0)
(0.854 -0.0673954 0)
(0.885732 -0.0618313 0)
(0.916104 -0.0575813 0)
(0.945484 -0.0540372 0)
(0.974088 -0.0506629 0)
(1.00196 -0.0470377 0)
(1.02898 -0.0429348 0)
(1.05489 -0.0383926 0)
(1.07941 -0.0336852 0)
(1.10248 -0.0291086 0)
(1.12437 -0.0246519 0)
(1.14557 -0.0198978 0)
(1.16634 -0.0145651 0)
(1.18628 -0.00898769 0)
(1.20479 -0.00413865 0)
(1.2211 -0.00131778 0)
(1.23359 -0.00135423 0)
(1.24226 -0.00390152 0)
(1.25065 -0.00621313 0)
(0.0577304 -0.564959 0)
(0.16022 -0.524425 0)
(0.239788 -0.429577 0)
(0.308381 -0.342367 0)
(0.361492 -0.273249 0)
(0.404773 -0.220333 0)
(0.441004 -0.180033 0)
(0.471785 -0.149419 0)
(0.498232 -0.126296 0)
(0.52125 -0.108969 0)
(0.541579 -0.0960952 0)
(0.559807 -0.086582 0)
(0.576409 -0.0795119 0)
(0.591768 -0.0740895 0)
(0.606201 -0.0696075 0)
(0.619973 -0.0654322 0)
(0.633264 -0.0610377 0)
(0.646116 -0.0560928 0)
(0.658315 -0.0505781 0)
(0.669444 -0.0448296 0)
(0.6791 -0.039363 0)
(0.687524 -0.0345271 0)
(0.69556 -0.0301466 0)
(0.703956 -0.0256798 0)
(0.712421 -0.0206998 0)
(0.71982 -0.0151422 0)
(0.724654 -0.00964447 0)
(0.724608 -0.00522041 0)
(0.718841 -0.00319169 0)
(0.705081 -0.00296866 0)
(0.0357157 -0.654287 0)
(0.10185 -0.593127 0)
(0.135064 -0.478457 0)
(0.166004 -0.378448 0)
(0.184174 -0.30064 0)
(0.1975 -0.241903 0)
(0.206936 -0.197227 0)
(0.213216 -0.163145 0)
(0.216832 -0.137246 0)
(0.218295 -0.117702 0)
(0.218021 -0.103065 0)
(0.216329 -0.0921667 0)
(0.213499 -0.0840291 0)
(0.20981 -0.0778128 0)
(0.205555 -0.0727739 0)
(0.201065 -0.0682321 0)
(0.196659 -0.0635801 0)
(0.192627 -0.0583458 0)
(0.188837 -0.0523245 0)
(0.184845 -0.0456924 0)
(0.179286 -0.038906 0)
(0.171648 -0.0323507 0)
(0.160918 -0.0260081 0)
(0.148338 -0.0196674 0)
(0.135066 -0.0132912 0)
(0.122121 -0.0072908 0)
(0.113111 -0.0017997 0)
(0.104924 0.00247022 0)
(0.100941 0.00433386 0)
(0.089219 -0.00175423 0)
(0.0121618 -0.703602 0)
(0.036827 -0.617662 0)
(0.0211878 -0.486209 0)
(0.0125989 -0.378355 0)
(-0.00687728 -0.29473 0)
(-0.0264994 -0.233546 0)
(-0.0476748 -0.187248 0)
(-0.0696253 -0.152134 0)
(-0.0920691 -0.125643 0)
(-0.114619 -0.105804 0)
(-0.137019 -0.0910616 0)
(-0.159103 -0.0801912 0)
(-0.180708 -0.0721759 0)
(-0.201687 -0.0661461 0)
(-0.2219 -0.061366 0)
(-0.241161 -0.0572089 0)
(-0.259183 -0.0531295 0)
(-0.275603 -0.0486423 0)
(-0.290143 -0.0434072 0)
(-0.302781 -0.0373888 0)
(-0.31385 -0.0309381 0)
(-0.323957 -0.024607 0)
(-0.333908 -0.0188373 0)
(-0.344222 -0.0136866 0)
(-0.354951 -0.00898258 0)
(-0.365393 -0.00457028 0)
(-0.375233 -0.000329044 0)
(-0.381625 0.00306468 0)
(-0.387847 0.00420902 0)
(-0.395192 0.00186844 0)
(-0.0149087 -0.706127 0)
(-0.0366385 -0.592021 0)
(-0.099874 -0.450553 0)
(-0.150964 -0.341299 0)
(-0.207385 -0.259495 0)
(-0.261587 -0.199444 0)
(-0.313389 -0.154959 0)
(-0.361872 -0.121961 0)
(-0.406718 -0.0977164 0)
(-0.447779 -0.0801728 0)
(-0.485116 -0.0676702 0)
(-0.518984 -0.0589173 0)
(-0.549728 -0.0528753 0)
(-0.577709 -0.0486896 0)
(-0.603235 -0.0456725 0)
(-0.626503 -0.043259 0)
(-0.647539 -0.0409792 0)
(-0.666237 -0.0383378 0)
(-0.682545 -0.0348612 0)
(-0.696646 -0.0302709 0)
(-0.709031 -0.0246549 0)
(-0.720407 -0.0184713 0)
(-0.731471 -0.0122914 0)
(-0.742654 -0.00657132 0)
(-0.754139 -0.00156732 0)
(-0.765214 0.00264054 0)
(-0.773619 0.00581198 0)
(-0.781325 0.00747025 0)
(-0.788498 0.00663328 0)
(-0.793682 0.00349449 0)
(-0.0482096 -0.656068 0)
(-0.117928 -0.520172 0)
(-0.226832 -0.378062 0)
(-0.319043 -0.271119 0)
(-0.410465 -0.193678 0)
(-0.49456 -0.139708 0)
(-0.57006 -0.102166 0)
(-0.636579 -0.0758661 0)
(-0.694688 -0.0576464 0)
(-0.745435 -0.0454609 0)
(-0.789839 -0.0376148 0)
(-0.828908 -0.0328234 0)
(-0.863529 -0.0301018 0)
(-0.894457 -0.0286839 0)
(-0.922289 -0.0280135 0)
(-0.947449 -0.0276612 0)
(-0.970117 -0.0273346 0)
(-0.99026 -0.0265992 0)
(-1.00789 -0.0249157 0)
(-1.02327 -0.0218636 0)
(-1.03697 -0.0174017 0)
(-1.0497 -0.011954 0)
(-1.06212 -0.00621035 0)
(-1.07471 -0.000934211 0)
(-1.08636 0.00339269 0)
(-1.0965 0.00687325 0)
(-1.10606 0.00971748 0)
(-1.11504 0.0113784 0)
(-1.12303 0.0106549 0)
(-1.12767 0.00817207 0)
(-0.0887377 -0.549266 0)
(-0.209625 -0.399672 0)
(-0.368359 -0.266288 0)
(-0.498837 -0.172027 0)
(-0.618003 -0.106476 0)
(-0.723475 -0.0628406 0)
(-0.815421 -0.0353662 0)
(-0.894348 -0.0191266 0)
(-0.959126 -0.0104968 0)
(-1.01314 -0.00617835 0)
(-1.0589 -0.00450019 0)
(-1.09843 -0.00451111 0)
(-1.13325 -0.00556188 0)
(-1.1645 -0.00714123 0)
(-1.19295 -0.00891231 0)
(-1.21914 -0.0107812 0)
(-1.24283 -0.0125506 0)
(-1.26388 -0.0138254 0)
(-1.28225 -0.0139624 0)
(-1.2983 -0.0123306 0)
(-1.31274 -0.00875208 0)
(-1.32651 -0.00374965 0)
(-1.34035 0.00162553 0)
(-1.35295 0.00635664 0)
(-1.36474 0.0100008 0)
(-1.37579 0.01268 0)
(-1.38596 0.0146155 0)
(-1.39544 0.0154359 0)
(-1.40364 0.0144012 0)
(-1.40793 0.0123012 0)
(-0.143486 -0.381268 0)
(-0.328804 -0.231426 0)
(-0.556117 -0.113668 0)
(-0.739846 -0.0319106 0)
(-0.884052 0.0102843 0)
(-0.997268 0.0306295 0)
(-1.08599 0.0383122 0)
(-1.15636 0.0387384 0)
(-1.21508 0.0359458 0)
(-1.26456 0.0318444 0)
(-1.30699 0.0273125 0)
(-1.34392 0.0226324 0)
(-1.37643 0.017956 0)
(-1.4054 0.0135121 0)
(-1.43162 0.00944515 0)
(-1.45555 0.00561293 0)
(-1.47758 0.0019889 0)
(-1.49754 -0.00115424 0)
(-1.51529 -0.00306042 0)
(-1.53109 -0.00287505 0)
(-1.54555 -0.000295102 0)
(-1.55923 0.00409639 0)
(-1.57222 0.00904743 0)
(-1.58541 0.0134209 0)
(-1.59818 0.0166086 0)
(-1.6099 0.0186125 0)
(-1.6205 0.0197469 0)
(-1.63033 0.0199218 0)
(-1.63867 0.0187307 0)
(-1.64277 0.0169506 0)
(-0.22643 -0.150921 0)
(-0.479133 0.0353118 0)
(-0.729058 0.104771 0)
(-0.911972 0.122649 0)
(-1.05867 0.12387 0)
(-1.17518 0.116203 0)
(-1.26833 0.104643 0)
(-1.34347 0.0918399 0)
(-1.40479 0.0791536 0)
(-1.45572 0.0675456 0)
(-1.49914 0.0573973 0)
(-1.53696 0.048406 0)
(-1.57033 0.0402616 0)
(-1.60009 0.0330396 0)
(-1.62711 0.0268431 0)
(-1.652 0.0213918 0)
(-1.67467 0.0161357 0)
(-1.69452 0.0111209 0)
(-1.71119 0.00730952 0)
(-1.72518 0.00598265 0)
(-1.73784 0.00770554 0)
(-1.75061 0.0118249 0)
(-1.76421 0.0168213 0)
(-1.77838 0.0210767 0)
(-1.79214 0.0236865 0)
(-1.80456 0.0247541 0)
(-1.81555 0.0249093 0)
(-1.82558 0.0244377 0)
(-1.83398 0.0231779 0)
(-1.83797 0.0217183 0)
(-0.289269 0.254866 0)
(-0.568323 0.317462 0)
(-0.849699 0.311602 0)
(-1.05708 0.282585 0)
(-1.21666 0.246766 0)
(-1.3386 0.210549 0)
(-1.43311 0.17765 0)
(-1.50776 0.14904 0)
(-1.56771 0.124599 0)
(-1.61698 0.104554 0)
(-1.65903 0.0885974 0)
(-1.69606 0.0753601 0)
(-1.72895 0.0636618 0)
(-1.75827 0.0534387 0)
(-1.78502 0.0449554 0)
(-1.81007 0.0376866 0)
(-1.83323 0.0305138 0)
(-1.85337 0.0231377 0)
(-1.86962 0.016888 0)
(-1.88257 0.0138496 0)
(-1.8942 0.0150454 0)
(-1.9066 0.0195245 0)
(-1.92073 0.0250463 0)
(-1.93603 0.0293805 0)
(-1.95098 0.0313493 0)
(-1.9642 0.0312316 0)
(-1.97548 0.0301785 0)
(-1.98554 0.0289975 0)
(-1.99385 0.0276924 0)
(-1.99771 0.0265172 0)
(-0.342201 0.654278 0)
(-0.683996 0.654106 0)
(-1.00883 0.554976 0)
(-1.22738 0.455933 0)
(-1.38548 0.372849 0)
(-1.50151 0.302947 0)
(-1.58894 0.247031 0)
(-1.65723 0.202911 0)
(-1.71159 0.167133 0)
(-1.75584 0.139026 0)
(-1.7941 0.118066 0)
(-1.82895 0.101412 0)
(-1.86053 0.0864298 0)
(-1.88859 0.0731384 0)
(-1.91427 0.0625316 0)
(-1.93904 0.0539415 0)
(-1.9627 0.0451941 0)
(-1.98315 0.0352469 0)
(-1.99857 0.0259606 0)
(-2.0096 0.0208013 0)
(-2.01928 0.0216391 0)
(-2.03079 0.0270743 0)
(-2.04541 0.033734 0)
(-2.06215 0.0384563 0)
(-2.07866 0.0397002 0)
(-2.09282 0.0380443 0)
(-2.10424 0.0354514 0)
(-2.114 0.033475 0)
(-2.12202 0.0321868 0)
(-2.12571 0.0312947 0)
(-0.452852 1.15923 0)
(-0.883539 1.05427 0)
(-1.23918 0.81551 0)
(-1.43849 0.620458 0)
(-1.57268 0.487452 0)
(-1.6687 0.382303 0)
(-1.73846 0.305298 0)
(-1.79369 0.249925 0)
(-1.83846 0.204773 0)
(-1.87433 0.168582 0)
(-1.90622 0.143547 0)
(-1.9378 0.125115 0)
(-1.96768 0.107626 0)
(-1.99366 0.0913662 0)
(-2.01711 0.0791289 0)
(-2.04099 0.0703543 0)
(-2.06537 0.0608483 0)
(-2.08651 0.048035 0)
(-2.10074 0.0345917 0)
(-2.10868 0.026478 0)
(-2.11515 0.027189 0)
(-2.12515 0.0344852 0)
(-2.14041 0.0431298 0)
(-2.15917 0.0486244 0)
(-2.17779 0.0489747 0)
(-2.19308 0.0452234 0)
(-2.20435 0.0405561 0)
(-2.21336 0.0376492 0)
(-2.22078 0.0365231 0)
(-2.22425 0.0359516 0)
(-0.673915 2.12004 0)
(-1.20617 1.70231 0)
(-1.58175 1.10672 0)
(-1.70686 0.713242 0)
(-1.77909 0.564725 0)
(-1.83918 0.444282 0)
(-1.87776 0.354816 0)
(-1.9139 0.293108 0)
(-1.94832 0.236432 0)
(-1.97335 0.188472 0)
(-1.99521 0.162531 0)
(-2.0223 0.148228 0)
(-2.05086 0.130504 0)
(-2.0742 0.110238 0)
(-2.09392 0.0951703 0)
(-2.11627 0.086626 0)
(-2.14234 0.0767221 0)
(-2.16546 0.0600256 0)
(-2.17846 0.0404112 0)
(-2.18159 0.0281126 0)
(-2.18289 0.0295561 0)
(-2.19054 0.0406911 0)
(-2.20677 0.0529427 0)
(-2.22844 0.0599658 0)
(-2.25001 0.0593119 0)
(-2.26669 0.052721 0)
(-2.27736 0.0451853 0)
(-2.28485 0.0411762 0)
(-2.29129 0.0405666 0)
(-2.29451 0.0404523 0)
(9.9959 0.138447 0)
(9.98225 0.27524 0)
(9.9581 0.412527 0)
(9.92453 0.552275 0)
(9.88241 0.696162 0)
(9.83215 0.845739 0)
(9.77398 1.00251 0)
(9.70814 1.16796 0)
(9.6349 1.34355 0)
(9.55456 1.53073 0)
(9.46737 1.73101 0)
(9.37361 1.94592 0)
(9.27353 2.17711 0)
(9.16739 2.42631 0)
(9.05545 2.69543 0)
(8.93793 2.98661 0)
(8.81501 3.30231 0)
(8.68683 3.6454 0)
(8.55347 4.01941 0)
(8.41492 4.42872 0)
(8.27112 4.87896 0)
(8.12196 5.3776 0)
(7.96738 5.93481 0)
(7.80765 6.56494 0)
(7.644 7.28908 0)
(7.48142 8.13981 0)
(7.33319 9.17113 0)
(7.28947 10.4766 0)
(7.74861 12.2011 0)
(7.93231 14.9203 0)
(9.99638 0.143407 0)
(9.98434 0.285096 0)
(9.96305 0.427256 0)
(9.93351 0.571886 0)
(9.89656 0.720678 0)
(9.85261 0.875189 0)
(9.80195 1.03693 0)
(9.7449 1.20737 0)
(9.68182 1.38797 0)
(9.61307 1.58018 0)
(9.53904 1.78549 0)
(9.46015 2.00543 0)
(9.37684 2.2416 0)
(9.28959 2.49573 0)
(9.19892 2.76971 0)
(9.1054 3.06565 0)
(9.0097 3.38598 0)
(8.91255 3.73354 0)
(8.81488 4.11179 0)
(8.71787 4.52499 0)
(8.62312 4.97856 0)
(8.53301 5.47952 0)
(8.45125 6.03719 0)
(8.38411 6.66416 0)
(8.34277 7.37765 0)
(8.34932 8.20107 0)
(8.44264 9.16455 0)
(8.67868 10.3013 0)
(9.32631 11.556 0)
(9.81742 12.6434 0)
(9.99688 0.147844 0)
(9.9865 0.293908 0)
(9.96819 0.440407 0)
(9.94282 0.589357 0)
(9.9112 0.742452 0)
(9.87376 0.901245 0)
(9.83084 1.06723 0)
(9.78281 1.24187 0)
(9.73011 1.42659 0)
(9.6732 1.62282 0)
(9.61259 1.83201 0)
(9.54884 2.05564 0)
(9.48256 2.29526 0)
(9.41446 2.55253 0)
(9.34533 2.82925 0)
(9.2761 3.12743 0)
(9.20785 3.44933 0)
(9.14194 3.79758 0)
(9.08005 4.17531 0)
(9.02439 4.58628 0)
(8.97798 5.03509 0)
(8.94511 5.5274 0)
(8.93207 6.0702 0)
(8.94837 6.67187 0)
(9.00853 7.34186 0)
(9.13468 8.08878 0)
(9.35784 8.91449 0)
(9.6875 9.80781 0)
(10.2534 10.7173 0)
(10.9412 11.4326 0)
(9.9974 0.151706 0)
(9.98873 0.30157 0)
(9.97346 0.451815 0)
(9.95238 0.604458 0)
(9.92622 0.761185 0)
(9.89543 0.923531 0)
(9.86039 1.09297 0)
(9.82155 1.27093 0)
(9.77939 1.4588 0)
(9.73447 1.65795 0)
(9.68742 1.86978 0)
(9.63892 2.09569 0)
(9.58976 2.33714 0)
(9.54084 2.59567 0)
(9.49319 2.87294 0)
(9.44807 3.17074 0)
(9.40695 3.49108 0)
(9.37167 3.83622 0)
(9.34451 4.20874 0)
(9.32846 4.61161 0)
(9.32743 5.04823 0)
(9.34675 5.52245 0)
(9.39365 6.03838 0)
(9.47804 6.59998 0)
(9.61312 7.21002 0)
(9.81572 7.86814 0)
(10.1086 8.56724 0)
(10.5004 9.29262 0)
(11.058 10.0341 0)
(11.8512 10.6786 0)
(9.99792 0.154946 0)
(9.99101 0.30799 0)
(9.97884 0.461344 0)
(9.96211 0.61701 0)
(9.94149 0.776657 0)
(9.91743 0.941789 0)
(9.89037 1.11384 0)
(9.86078 1.2942 0)
(9.82923 1.48419 0)
(9.79635 1.68513 0)
(9.76286 1.89832 0)
(9.72956 2.12506 0)
(9.69737 2.36668 0)
(9.66738 2.62456 0)
(9.64084 2.90016 0)
(9.61922 3.19499 0)
(9.60431 3.51073 0)
(9.59829 3.84914 0)
(9.60385 4.21214 0)
(9.62438 4.60177 0)
(9.6642 5.02015 0)
(9.72883 5.46926 0)
(9.82535 5.95074 0)
(9.96272 6.46527 0)
(10.152 7.01176 0)
(10.4062 7.58632 0)
(10.7427 8.18083 0)
(11.1731 8.78058 0)
(11.7204 9.37399 0)
(12.4734 9.88617 0)
(9.99845 0.157521 0)
(9.9933 0.313082 0)
(9.98427 0.468867 0)
(9.97193 0.62685 0)
(9.95688 0.788664 0)
(9.93959 0.955777 0)
(9.92051 1.12957 0)
(9.90018 1.31137 0)
(9.87919 1.50244 0)
(9.85826 1.704 0)
(9.83817 1.91725 0)
(9.81983 2.14336 0)
(9.80427 2.3835 0)
(9.7927 2.63886 0)
(9.78653 2.91065 0)
(9.7874 3.20008 0)
(9.79728 3.5084 0)
(9.81855 3.83685 0)
(9.85405 4.18665 0)
(9.9073 4.55894 0)
(9.98256 4.95459 0)
(10.0851 5.37409 0)
(10.2211 5.81717 0)
(10.3983 6.28237 0)
(10.6255 6.76643 0)
(10.9122 7.26356 0)
(11.2698 7.76455 0)
(11.7062 8.25383 0)
(12.2221 8.7147 0)
(12.8978 9.10564 0)
(9.99898 0.15939 0)
(9.9956 0.316769 0)
(9.9897 0.474271 0)
(9.98175 0.633827 0)
(9.97227 0.797027 0)
(9.96171 0.965285 0)
(9.95056 1.13992 0)
(9.93938 1.32219 0)
(9.92881 1.51327 0)
(9.91961 1.71428 0)
(9.91262 1.92629 0)
(9.90882 2.15033 0)
(9.90932 2.3874 0)
(9.9154 2.63846 0)
(9.92857 2.90444 0)
(9.95055 3.18624 0)
(9.98339 3.48467 0)
(10.0295 3.80045 0)
(10.0917 4.13414 0)
(10.1733 4.48603 0)
(10.2783 4.85604 0)
(10.4114 5.24344 0)
(10.5777 5.64667 0)
(10.7832 6.06291 0)
(11.0344 6.48767 0)
(11.3376 6.91427 0)
(11.6989 7.33334 0)
(12.1226 7.73147 0)
(12.6024 8.09408 0)
(13.2076 8.40068 0)
(9.99951 0.160522 0)
(9.99788 0.318984 0)
(9.9951 0.477459 0)
(9.99149 0.637818 0)
(9.98751 0.801596 0)
(9.98359 0.970141 0)
(9.98023 1.14471 0)
(9.97802 1.32646 0)
(9.97762 1.51648 0)
(9.97981 1.71578 0)
(9.98547 1.92528 0)
(9.99562 2.14587 0)
(10.0114 2.37835 0)
(10.0341 2.62345 0)
(10.0654 2.88184 0)
(10.1068 3.15406 0)
(10.1604 3.44053 0)
(10.2286 3.74149 0)
(10.314 4.05691 0)
(10.4195 4.38642 0)
(10.5487 4.72916 0)
(10.7054 5.0836 0)
(10.8936 5.44735 0)
(11.1178 5.8169 0)
(11.3822 6.18733 0)
(11.6905 6.55209 0)
(12.0456 6.9029 0)
(12.4491 7.22944 0)
(12.8933 7.52057 0)
(13.4361 7.76499 0)
(10 0.160888 0)
(10.0001 0.319673 0)
(10.0004 0.478351 0)
(10.0011 0.638722 0)
(10.0025 0.80225 0)
(10.005 0.970216 0)
(10.0093 1.14379 0)
(10.0157 1.32404 0)
(10.0252 1.51195 0)
(10.0383 1.70841 0)
(10.056 1.9142 0)
(10.0794 2.13003 0)
(10.1095 2.35653 0)
(10.1477 2.59419 0)
(10.1954 2.84341 0)
(10.2544 3.10443 0)
(10.3266 3.37731 0)
(10.4139 3.66186 0)
(10.5189 3.95759 0)
(10.644 4.26363 0)
(10.7921 4.57859 0)
(10.9663 4.90045 0)
(11.1695 5.22642 0)
(11.4046 5.55277 0)
(11.6742 5.87478 0)
(11.9803 6.18658 0)
(12.3236 6.48129 0)
(12.7039 6.75111 0)
(13.1135 6.98767 0)
(13.6011 7.18414 0)
(10.0005 0.160465 0)
(10.0023 0.318794 0)
(10.0056 0.476887 0)
(10.0104 0.636463 0)
(10.017 0.798909 0)
(10.0259 0.965425 0)
(10.0374 1.13709 0)
(10.0522 1.31488 0)
(10.071 1.49967 0)
(10.0945 1.6922 0)
(10.1236 1.89313 0)
(10.1592 2.10301 0)
(10.2026 2.32227 0)
(10.2549 2.5512 0)
(10.3176 2.78994 0)
(10.3922 3.03847 0)
(10.4803 3.29654 0)
(10.5839 3.56363 0)
(10.705 3.83892 0)
(10.8456 4.12117 0)
(11.008 4.40869 0)
(11.1944 4.69923 0)
(11.4068 4.98991 0)
(11.6469 5.27714 0)
(11.9163 5.55664 0)
(12.2153 5.82343 0)
(12.5435 6.07197 0)
(12.8998 6.29638 0)
(13.2769 6.49062 0)
(13.7166 6.65051 0)
(10.001 0.159241 0)
(10.0044 0.316317 0)
(10.0106 0.473028 0)
(10.0194 0.630997 0)
(10.0311 0.791526 0)
(10.0459 0.955729 0)
(10.0644 1.12459 0)
(10.0871 1.29899 0)
(10.1147 1.47967 0)
(10.1479 1.66727 0)
(10.1876 1.8623 0)
(10.2346 2.06515 0)
(10.29 2.27607 0)
(10.355 2.49518 0)
(10.4309 2.7224 0)
(10.519 2.95748 0)
(10.6207 3.19992 0)
(10.7378 3.44899 0)
(10.8717 3.70361 0)
(11.0241 3.96235 0)
(11.1966 4.22339 0)
(11.3908 4.48444 0)
(11.6079 4.74272 0)
(11.8488 4.99499 0)
(12.1138 5.23752 0)
(12.4028 5.46622 0)
(12.7146 5.67675 0)
(13.0473 5.86478 0)
(13.3947 6.02605 0)
(13.7934 6.15807 0)
(10.0015 0.157205 0)
(10.0065 0.312229 0)
(10.0154 0.466755 0)
(10.028 0.622306 0)
(10.0444 0.780093 0)
(10.065 0.941136 0)
(10.0901 1.10633 0)
(10.1202 1.27643 0)
(10.156 1.4521 0)
(10.1982 1.63383 0)
(10.2475 1.82201 0)
(10.3048 2.01689 0)
(10.371 2.21856 0)
(10.4472 2.42697 0)
(10.5345 2.64188 0)
(10.6341 2.86285 0)
(10.7471 3.08923 0)
(10.8749 3.3201 0)
(11.0187 3.55427 0)
(11.1797 3.79024 0)
(11.3589 4.02615 0)
(11.5574 4.25983 0)
(11.7756 4.48875 0)
(12.014 4.71004 0)
(12.2722 4.92061 0)
(12.5495 5.11716 0)
(12.8444 5.29639 0)
(13.1549 5.45513 0)
(13.4757 5.59046 0)
(13.8391 5.7009 0)
(10.0019 0.154358 0)
(10.0084 0.306528 0)
(10.0199 0.458072 0)
(10.0361 0.610403 0)
(10.0571 0.764638 0)
(10.083 0.921703 0)
(10.1142 1.08239 0)
(10.1512 1.24737 0)
(10.1946 1.41717 0)
(10.2449 1.59219 0)
(10.303 1.77269 0)
(10.3694 1.95879 0)
(10.4452 2.15045 0)
(10.5311 2.3475 0)
(10.6281 2.54955 0)
(10.7372 2.75604 0)
(10.8593 2.96621 0)
(10.9954 3.17905 0)
(11.1464 3.39333 0)
(11.3131 3.60755 0)
(11.4962 3.81994 0)
(11.6961 4.02851 0)
(11.9129 4.23102 0)
(12.1465 4.42505 0)
(12.3963 4.60806 0)
(12.6612 4.77747 0)
(12.9396 4.93079 0)
(13.2295 5.06576 0)
(13.5264 5.1804 0)
(13.8593 5.27384 0)
(10.0024 0.150706 0)
(10.0102 0.299227 0)
(10.0241 0.447002 0)
(10.0438 0.595329 0)
(10.0689 0.745226 0)
(10.0997 0.897526 0)
(10.1366 1.05293 0)
(10.1799 1.21199 0)
(10.2302 1.37516 0)
(10.2879 1.54271 0)
(10.3537 1.71481 0)
(10.4282 1.89147 0)
(10.5122 2.07255 0)
(10.6063 2.25776 0)
(10.7114 2.44662 0)
(10.8281 2.6385 0)
(10.9573 2.83257 0)
(11.0996 3.0278 0)
(11.2555 3.22297 0)
(11.4256 3.41666 0)
(11.6102 3.60725 0)
(11.8093 3.79295 0)
(12.0228 3.97186 0)
(12.2502 4.14196 0)
(12.4906 4.30122 0)
(12.7429 4.44765 0)
(13.0055 4.57941 0)
(13.2765 4.6949 0)
(13.5521 4.79279 0)
(13.8587 4.87264 0)
(10.0027 0.14626 0)
(10.0119 0.290354 0)
(10.0281 0.433589 0)
(10.0508 0.577149 0)
(10.0798 0.721955 0)
(10.1152 0.868744 0)
(10.1572 1.01812 0)
(10.2062 1.17056 0)
(10.2626 1.3264 0)
(10.3269 1.48584 0)
(10.3995 1.64894 0)
(10.4809 1.81564 0)
(10.5719 1.9857 0)
(10.6729 2.15876 0)
(10.7844 2.3343 0)
(10.9072 2.51163 0)
(11.0416 2.68991 0)
(11.1881 2.86813 0)
(11.3471 3.04514 0)
(11.5186 3.21962 0)
(11.7029 3.39013 0)
(11.8996 3.55513 0)
(12.1084 3.713 0)
(12.3286 3.86212 0)
(12.5592 4.00088 0)
(12.7992 4.12778 0)
(13.0468 4.24146 0)
(13.3006 4.34081 0)
(13.5572 4.42496 0)
(13.8409 4.49376 0)
(10.0031 0.14104 0)
(10.0134 0.279945 0)
(10.0317 0.417893 0)
(10.0573 0.555954 0)
(10.0898 0.69495 0)
(10.1293 0.835528 0)
(10.1759 0.978205 0)
(10.23 1.12337 0)
(10.2918 1.27127 0)
(10.3618 1.42204 0)
(10.4402 1.57566 0)
(10.5276 1.73198 0)
(10.6243 1.89074 0)
(10.7308 2.05151 0)
(10.8475 2.21374 0)
(10.9747 2.37674 0)
(11.1128 2.53969 0)
(11.2619 2.70164 0)
(11.4223 2.86151 0)
(11.5938 3.01813 0)
(11.7762 3.17024 0)
(11.9694 3.31654 0)
(12.1725 3.4557 0)
(12.385 3.58641 0)
(12.6059 3.70743 0)
(12.8338 3.81762 0)
(13.0676 3.91602 0)
(13.3057 4.00186 0)
(13.5454 4.0746 0)
(13.809 4.13423 0)
(10.0034 0.135068 0)