/*--------------------------------*- C++ -*----------------------------------*\
  =========                 |
  \\      /  F ield         | OpenFOAM: The Open Source CFD Toolbox
   \\    /   O peration     | Website:  https://openfoam.org
    \\  /    A nd           | Version:  7
     \\/     M anipulation  |
\*---------------------------------------------------------------------------*/
FoamFile
{
    version     2.0;
    format      ascii;
    class       surfaceVectorField;
    location    "4.4";
    object      Uf;
}
// * * * * * * * * * * * * * * * * * * * * * * * * * * * * * * * * * * * * * //

dimensions      [0 1 -1 0 0 0 0];

internalField   nonuniform List<vector> 
5457
(
(9.92088 0.0251096 0)
(9.97125 0.0387458 0)
(9.82401 0.0328268 0)
(9.92859 0.0485852 0)
(9.70961 0.039312 0)
(9.85548 0.0587682 0)
(9.57544 0.0460115 0)
(9.7568 0.0705933 0)
(9.42138 0.0529488 0)
(9.63753 0.0830133 0)
(9.24755 0.060166 0)
(9.49861 0.0959363 0)
(9.05362 0.0678106 0)
(9.3393 0.109612 0)
(8.83893 0.0760341 0)
(9.15874 0.124288 0)
(8.60253 0.0849696 0)
(8.9561 0.140166 0)
(8.34327 0.0947441 0)
(8.73039 0.157432 0)
(8.05986 0.105486 0)
(8.48041 0.176269 0)
(7.75082 0.117327 0)
(8.20478 0.196855 0)
(7.41458 0.130394 0)
(7.90196 0.21936 0)
(7.04952 0.144809 0)
(7.57033 0.243921 0)
(6.65406 0.160671 0)
(7.20821 0.270631 0)
(6.22675 0.178043 0)
(6.81403 0.299498 0)
(5.76647 0.196927 0)
(6.38637 0.330412 0)
(5.27263 0.217232 0)
(5.92422 0.363082 0)
(4.74543 0.238735 0)
(5.42716 0.396974 0)
(4.18627 0.261031 0)
(4.89572 0.431235 0)
(3.59804 0.283487 0)
(4.33171 0.464618 0)
(2.98563 0.305202 0)
(3.73868 0.495425 0)
(2.3562 0.325069 0)
(3.12236 0.521513 0)
(1.71918 0.342549 0)
(2.49115 0.54056 0)
(1.08442 0.361882 0)
(1.85594 0.551677 0)
(0.45191 0.348704 0)
(1.24555 0.563023 0)
(-0.145794 0.102494 0)
(0.609004 0.544906 0)
(-0.423606 -0.207097 0)
(0.0946863 0.259399 0)
(-0.402153 -0.361273 0)
(-0.133625 -0.0205163 0)
(-0.119682 -0.393884 0)
(9.99641 0.0516725 0)
(9.99705 0.0405047 0)
(9.95879 0.0708616 0)
(9.97851 0.0674545 0)
(9.89824 0.0879868 0)
(9.93377 0.08987 0)
(9.81659 0.105985 0)
(9.86453 0.113555 0)
(9.71359 0.124921 0)
(9.77438 0.138514 0)
(9.58909 0.144853 0)
(9.66435 0.164646 0)
(9.44274 0.166089 0)
(9.53397 0.192331 0)
(9.27391 0.188966 0)
(9.3825 0.222029 0)
(9.08167 0.213781 0)
(9.20919 0.254147 0)
(8.86491 0.240814 0)
(9.01316 0.289062 0)
(8.62231 0.270335 0)
(8.79332 0.32715 0)
(8.3524 0.302604 0)
(8.54837 0.368783 0)
(8.05358 0.337854 0)
(8.27685 0.414313 0)
(7.72414 0.376259 0)
(7.97719 0.464042 0)
(7.3624 0.417899 0)
(7.64774 0.518184 0)
(6.96676 0.462704 0)
(7.28686 0.576802 0)
(6.53587 0.510383 0)
(6.89299 0.639721 0)
(6.06888 0.56033 0)
(6.46486 0.706423 0)
(5.56565 0.611518 0)
(6.00165 0.775905 0)
(5.02717 0.662382 0)
(5.50332 0.84652 0)
(4.45595 0.710707 0)
(4.97096 0.915803 0)
(3.85657 0.75354 0)
(4.40726 0.980305 0)
(3.23627 0.787198 0)
(3.81712 1.03546 0)
(2.60589 0.807506 0)
(3.20854 1.07549 0)
(1.98287 0.810474 0)
(2.59347 1.09316 0)
(1.40535 0.776912 0)
(1.99628 1.07709 0)
(0.929813 0.646425 0)
(1.41956 0.978436 0)
(0.439917 0.384375 0)
(0.937619 0.716825 0)
(0.0592031 -0.118582 0)
(0.44385 0.343562 0)
(0.174931 -0.335898 0)
(9.98903 0.0594309 0)
(9.99481 0.0458775 0)
(9.95434 0.0894765 0)
(9.97368 0.0848543 0)
(9.89729 0.118032 0)
(9.92984 0.119174 0)
(9.82046 0.147898 0)
(9.86357 0.153976 0)
(9.72416 0.179421 0)
(9.77736 0.190408 0)
(9.60821 0.212774 0)
(9.67227 0.228636 0)
(9.47235 0.248391 0)
(9.5481 0.269128 0)
(9.31608 0.286772 0)
(9.40432 0.312495 0)
(9.13869 0.328394 0)
(9.24034 0.359323 0)
(8.93925 0.373718 0)
(9.05549 0.41017 0)
(8.71665 0.423201 0)
(8.8489 0.465593 0)
(8.46961 0.47729 0)
(8.61952 0.526146 0)
(8.19669 0.536391 0)
(8.36617 0.592364 0)
(7.89634 0.600833 0)
(8.08753 0.664728 0)
(7.56694 0.6708 0)
(7.78222 0.743606 0)
(7.20687 0.746245 0)
(7.44876 0.829176 0)
(6.81461 0.82677 0)
(7.08572 0.921305 0)
(6.38892 0.911471 0)
(6.69175 1.01939 0)
(5.92909 0.998747 0)
(6.26577 1.12216 0)
(5.4352 1.08608 0)
(5.80718 1.22741 0)
(4.90862 1.16982 0)
(5.31614 1.33174 0)
(4.35251 1.24489 0)
(4.79405 1.43018 0)
(3.77267 1.30455 0)
(4.24405 1.51588 0)
(3.17881 1.33985 0)
(3.67189 1.57943 0)
(2.58671 1.33814 0)
(3.0864 1.60776 0)
(2.01993 1.273 0)
(2.503 1.5816 0)
(1.48701 1.09545 0)
(1.92881 1.46428 0)
(0.958343 0.769212 0)
(1.3853 1.21045 0)
(0.479907 0.202507 0)
(0.829579 0.801093 0)
(0.433749 0.134141 0)
(9.98515 0.071614 0)
(9.99367 0.053148 0)
(9.95039 0.11363 0)
(9.97087 0.102291 0)
(9.89436 0.154133 0)
(9.92691 0.147954 0)
(9.81882 0.195573 0)
(9.86185 0.193721 0)
(9.72442 0.23881 0)
(9.77746 0.241277 0)
(9.61112 0.284323 0)
(9.67467 0.291162 0)
(9.47874 0.332718 0)
(9.55343 0.343954 0)
(9.32695 0.384671 0)
(9.41336 0.400369 0)
(9.15523 0.440842 0)
(9.254 0.461135 0)
(8.96291 0.501878 0)
(9.07484 0.526956 0)
(8.74917 0.568421 0)
(8.8752 0.598529 0)
(8.51305 0.641103 0)
(8.6543 0.676553 0)
(8.25347 0.72052 0)
(8.41124 0.76171 0)
(7.96928 0.807177 0)
(8.14501 0.854623 0)
(7.6592 0.901423 0)
(7.85456 0.955803 0)
(7.32195 1.00333 0)
(7.53878 1.06555 0)
(6.95624 1.11255 0)
(7.19649 1.18383 0)
(6.56089 1.22812 0)
(6.82657 1.31006 0)
(6.13494 1.34815 0)
(6.42794 1.4429 0)
(5.67791 1.46958 0)
(5.99972 1.57988 0)
(5.19007 1.58776 0)
(5.54141 1.71706 0)
(4.67294 1.69602 0)
(5.05313 1.84853 0)
(4.12988 1.78515 0)
(4.53604 1.96583 0)
(3.56674 1.84253 0)
(3.99281 2.05731 0)
(2.99213 1.85074 0)
(3.42768 2.10715 0)
(2.41592 1.78252 0)
(2.84771 2.09451 0)
(1.8406 1.6005 0)
(2.2563 1.98878 0)
(1.25943 1.27848 0)
(1.66037 1.7531 0)
(0.666796 0.789602 0)
(1.024 1.36783 0)
(0.52305 0.787227 0)
(9.98337 0.0844075 0)
(9.99316 0.0612915 0)
(9.94821 0.136837 0)
(9.96958 0.119927 0)
(9.89314 0.188032 0)
(9.92575 0.17624 0)
(9.81906 0.240168 0)
(9.86199 0.232698 0)
(9.72663 0.294466 0)
(9.77964 0.291086 0)
(9.6159 0.351657 0)
(9.6794 0.352272 0)
(9.48671 0.412467 0)
(9.56128 0.416974 0)
(9.33879 0.477671 0)
(9.42497 0.486004 0)
(9.17171 0.548044 0)
(9.27009 0.560198 0)
(8.98493 0.624346 0)
(9.0962 0.640378 0)
(8.77779 0.707333 0)
(8.90275 0.727357 0)
(8.54954 0.797751 0)
(8.68907 0.821943 0)
(8.29936 0.89631 0)
(8.45445 0.924926 0)
(8.02636 1.00363 0)
(8.19809 1.03704 0)
(7.72959 1.12018 0)
(7.91914 1.15889 0)
(7.40808 1.24614 0)
(7.61671 1.2909 0)
(7.0608 1.38125 0)
(7.28988 1.43312 0)
(6.68673 1.52456 0)
(6.93766 1.58508 0)
(6.2849 1.67416 0)
(6.55903 1.74548 0)
(5.85444 1.82677 0)
(6.15292 1.91186 0)
(5.39477 1.97724 0)
(5.71828 2.08014 0)
(4.90582 2.11804 0)
(5.25415 2.24407 0)
(4.38833 2.2386 0)
(4.75981 2.39459 0)
(3.84402 2.32455 0)
(4.23503 2.51919 0)
(3.27552 2.35697 0)
(3.67997 2.60125 0)
(2.68547 2.31063 0)
(3.0958 2.61973 0)
(2.07275 2.15506 0)
(2.48176 2.54737 0)
(1.42942 1.86747 0)
(1.83998 2.35379 0)
(0.742636 1.41965 0)
(1.1314 2.02461 0)
(0.543323 1.51459 0)
(9.98264 0.0974977 0)
(9.99299 0.0697929 0)
(9.94744 0.159775 0)
(9.96925 0.137583 0)
(9.89354 0.221347 0)
(9.92597 0.203926 0)
(9.82134 0.284091 0)
(9.86381 0.270687 0)
(9.73134 0.349346 0)
(9.78385 0.339581 0)
(9.62367 0.418016 0)
(9.68664 0.411695 0)
(9.49819 0.490934 0)
(9.57218 0.487899 0)
(9.35465 0.568968 0)
(9.44021 0.569099 0)
(9.19269 0.652996 0)
(9.29043 0.656226 0)
(9.01183 0.743887 0)
(9.12242 0.750204 0)
(8.81152 0.842503 0)
(8.93572 0.851945 0)
(8.59109 0.949693 0)
(8.72973 0.962351 0)
(8.34986 1.06627 0)
(8.50382 1.0823 0)
(8.08707 1.19294 0)
(8.25729 1.21262 0)
(7.80194 1.33028 0)
(7.98939 1.35402 0)
(7.49362 1.47857 0)
(7.69931 1.507 0)
(7.16122 1.63766 0)
(7.38619 1.67173 0)
(6.80376 1.80672 0)
(7.04906 1.84789 0)
(6.42016 1.98394 0)
(6.68679 2.03433 0)
(6.00918 2.16611 0)
(6.29806 2.22881 0)
(5.56947 2.34808 0)
(5.88125 2.42745 0)
(5.09953 2.52219 0)
(5.43441 2.62424 0)
(4.59782 2.67756 0)
(4.95519 2.81028 0)
(4.06278 2.7995 0)
(4.44093 2.97322 0)
(3.49278 2.86913 0)
(3.88861 3.09664 0)
(2.88591 2.86296 0)
(3.29532 3.15994 0)
(2.23808 2.754 0)
(2.65698 3.13797 0)
(1.54249 2.52112 0)
(1.97491 3.00328 0)
(0.793674 2.13144 0)
(1.20728 2.74071 0)
(0.556756 2.29195 0)
(9.9825 0.110626 0)
(9.99302 0.0783615 0)
(9.9477 0.182324 0)
(9.96954 0.155037 0)
(9.89522 0.253816 0)
(9.92722 0.230885 0)
(9.82524 0.326765 0)
(9.86697 0.307508 0)
(9.73813 0.402552 0)
(9.78977 0.38652 0)
(9.63403 0.48223 0)
(9.69605 0.469145 0)
(9.51285 0.566752 0)
(9.58579 0.556393 0)
(9.37438 0.657085 0)
(9.4588 0.649264 0)
(9.21828 0.754203 0)
(9.3148 0.748778 0)
(9.04414 0.859072 0)
(9.15346 0.855951 0)
(8.85145 0.972648 0)
(8.97434 0.971787 0)
(8.63963 1.09587 0)
(8.77691 1.09728 0)
(8.40803 1.22962 0)
(8.56059 1.2334 0)
(8.15596 1.37473 0)
(8.3247 1.38105 0)
(7.88266 1.53184 0)
(8.06854 1.54105 0)
(7.58729 1.70135 0)
(7.79127 1.71402 0)
(7.26893 1.88327 0)
(7.49198 1.90027 0)
(6.92646 2.07694 0)
(7.16957 2.09967 0)
(6.55856 2.28083 0)
(6.8227 2.31136 0)
(6.16352 2.49203 0)
(6.44964 2.53346 0)
(5.7392 2.70581 0)
(6.04816 2.76262 0)
(5.28281 2.91497 0)
(5.61532 2.99344 0)
(4.79092 3.10915 0)
(5.14733 3.21783 0)
(4.25939 3.27421 0)
(4.63948 3.42427 0)
(3.68348 3.39189 0)
(4.08616 3.59717 0)
(3.05814 3.43974 0)
(3.48142 3.71658 0)
(2.37781 3.39188 0)
(2.81846 3.7582 0)
(1.63797 3.22628 0)
(2.09923 3.69409 0)
(0.839162 2.90097 0)
(1.27897 3.50461 0)
(0.573384 3.11385 0)
(9.98273 0.123581 0)
(9.99316 0.0868175 0)
(9.94873 0.204309 0)
(9.97027 0.172093 0)
(9.89794 0.285251 0)
(9.92926 0.256975 0)
(9.83051 0.367964 0)
(9.87123 0.342987 0)
(9.74671 0.453849 0)
(9.79715 0.431676 0)
(9.64668 0.544073 0)
(9.70735 0.524347 0)
(9.53038 0.639701 0)
(9.6018 0.62213 0)
(9.39762 0.741791 0)
(9.48038 0.726119 0)
(9.24813 0.851404 0)
(9.34286 0.837415 0)
(9.08153 0.969593 0)
(9.18894 0.95712 0)
(8.89736 1.0974 0)
(9.01824 1.08633 0)
(8.6951 1.23586 0)
(8.8303 1.22612 0)
(8.47414 1.38596 0)
(8.62455 1.37756 0)
(8.23377 1.5486 0)
(8.40037 1.54166 0)
(7.97324 1.72457 0)
(8.15702 1.71935 0)
(7.69163 1.91441 0)
(7.89365 1.9114 0)
(7.38788 2.11831 0)
(7.60922 2.11832 0)
(7.06066 2.33593 0)
(7.30245 2.34025 0)
(6.70825 2.56608 0)
(6.97169 2.57672 0)
(6.32842 2.80645 0)
(6.61477 2.82639 0)
(5.91817 3.05301 0)
(6.22878 3.08666 0)
(5.47354 3.29951 0)
(5.80983 3.35314 0)
(4.98941 3.53664 0)
(5.35275 3.61896 0)
(4.45945 3.75142 0)
(4.85099 3.87399 0)
(3.87633 3.9265 0)
(4.29654 4.10396 0)
(3.23244 4.03992 0)
(3.68068 4.28973 0)
(2.52093 4.06508 0)
(2.99363 4.40686 0)
(1.73845 3.97626 0)
(2.23748 4.4247 0)
(0.889512 3.71891 0)
(1.36343 4.31645 0)
(0.598784 3.98508 0)
(9.98321 0.136203 0)
(9.99339 0.0950405 0)
(9.95032 0.225572 0)
(9.97131 0.188589 0)
(9.90151 0.315496 0)
(9.93193 0.282049 0)
(9.83694 0.407502 0)
(9.87643 0.376959 0)
(9.75684 0.503009 0)
(9.80579 0.474838 0)
(9.66135 0.603272 0)
(9.7203 0.577046 0)
(9.55046 0.709452 0)
(9.61995 0.684809 0)
(9.42403 0.822692 0)
(9.50465 0.799308 0)
(9.28184 0.944133 0)
(9.37422 0.921723 0)
(9.12356 1.07492 0)
(9.22843 1.05324 0)
(8.94879 1.21617 0)
(9.06695 1.19502 0)
(8.75705 1.36902 0)
(8.88938 1.34825 0)
(8.54777 1.53456 0)
(8.6952 1.51409 0)
(8.32026 1.71381 0)
(8.48383 1.69367 0)
(8.07371 1.9077 0)
(8.25451 1.88807 0)
(7.80716 2.11698 0)
(8.00638 2.09822 0)
(7.51935 2.34211 0)
(7.73828 2.32492 0)
(7.20872 2.58311 0)
(7.44876 2.56863 0)
(6.87316 2.83934 0)
(7.1359 2.8294 0)
(6.50984 3.10922 0)
(6.79707 3.10658 0)
(6.11497 3.38976 0)
(6.42875 3.39856 0)
(5.68342 3.67599 0)
(6.02614 3.70225 0)
(5.2085 3.96019 0)
(5.5828 4.01245 0)
(4.68178 4.23099 0)
(5.09035 4.32095 0)
(4.09332 4.47234 0)
(4.53831 4.6154 0)
(3.43255 4.66261 0)
(3.91475 4.87791 0)
(2.69017 4.77325 0)
(3.20573 5.08366 0)
(1.86188 4.77254 0)
(2.41132 5.19809 0)
(0.954197 4.58989 0)
(1.47631 5.18447 0)
(0.639207 4.91965 0)
(9.98386 0.148369 0)
(9.99368 0.102944 0)
(9.95235 0.245971 0)
(9.9726 0.204395 0)
(9.90578 0.344399 0)
(9.9351 0.30597 0)
(9.84437 0.445197 0)
(9.88241 0.40927 0)
(9.76833 0.549808 0)
(9.81552 0.515815 0)
(9.6778 0.659555 0)
(9.73471 0.627008 0)
(9.57281 0.775681 0)
(9.63999 0.744152 0)
(9.45327 0.899408 0)
(9.53129 0.868508 0)
(9.31902 1.03195 0)
(9.40853 1.00133 0)
(9.16978 1.17454 0)
(9.27151 1.14386 0)
(9.00522 1.32838 0)
(9.11999 1.29736 0)
(8.82492 1.49469 0)
(8.95361 1.4631 0)
(8.62835 1.67467 0)
(8.77194 1.64234 0)
(8.41485 1.86951 0)
(8.57443 1.83633 0)
(8.18362 2.08029 0)
(8.36038 2.04631 0)
(7.93362 2.308 0)
(8.1289 2.27345 0)
(7.6635 2.55345 0)
(7.87882 2.51882 0)
(7.37147 2.81712 0)
(7.60857 2.78334 0)
(7.0551 3.09905 0)
(7.31602 3.06762 0)
(6.71108 3.39859 0)
(6.99825 3.37189 0)
(6.33488 3.71402 0)
(6.65125 3.69571 0)
(5.92034 4.04205 0)
(6.26949 4.0376 0)
(5.45927 4.37703 0)
(5.8454 4.39447 0)
(4.94107 4.70987 0)
(5.36889 4.76069 0)
(4.35273 5.02655 0)
(4.82681 5.12673 0)
(3.67959 5.30623 0)
(4.20319 5.47709 0)
(2.90751 5.51827 0)
(3.47792 5.78754 0)
(2.02766 5.62315 0)
(2.64505 6.01962 0)
(1.04511 5.52963 0)
(1.63773 6.1241 0)
(0.704476 5.94327 0)
(9.98465 0.159982 0)
(9.99402 0.110463 0)
(9.95473 0.265382 0)
(9.97409 0.219401 0)
(9.91065 0.371821 0)
(9.93867 0.328613 0)
(9.85266 0.480883 0)
(9.88905 0.439776 0)
(9.781 0.594043 0)
(9.82618 0.554433 0)
(9.69581 0.712677 0)
(9.75038 0.674023 0)
(9.59716 0.838102 0)
(9.66166 0.799912 0)
(9.48502 0.971607 0)
(9.56002 0.933428 0)
(9.35927 1.11448 0)
(9.44543 1.07588 0)
(9.21973 1.26801 0)
(9.31776 1.2286 0)
(9.06612 1.4335 0)
(9.17684 1.3929 0)
(8.8981 1.61225 0)
(9.0224 1.57013 0)
(8.71521 1.8056 0)
(8.85409 1.76165 0)
(8.51686 2.01485 0)
(8.67145 1.96886 0)
(8.30226 2.24132 0)
(8.47385 2.19316 0)
(8.07041 2.48625 0)
(8.26045 2.43595 0)
(7.81991 2.75084 0)
(8.03013 2.69865 0)
(7.54887 3.03612 0)
(7.78132 2.98261 0)
(7.25468 3.34291 0)
(7.51186 3.28914 0)
(6.93374 3.67163 0)
(7.21873 3.61941 0)
(6.58101 4.0221 0)
(6.89769 3.97432 0)
(6.18956 4.39308 0)
(6.54282 4.35427 0)
(5.74989 4.78158 0)
(6.14582 4.75876 0)
(5.24924 5.18172 0)
(5.6952 5.18553 0)
(4.67107 5.58284 0)
(5.17521 5.62923 0)
(3.99503 5.96663 0)
(4.56522 6.07886 0)
(3.19851 6.30184 0)
(3.83645 6.51369 0)
(2.26184 6.54085 0)
(2.97092 6.89422 0)
(1.18064 6.56531 0)
(1.87919 7.15805 0)
(0.812827 7.09963 0)
(9.98553 0.170964 0)
(9.9944 0.117547 0)
(9.95738 0.283699 0)
(9.97572 0.23352 0)
(9.916 0.397636 0)
(9.94258 0.34987 0)
(9.86169 0.514411 0)
(9.89623 0.468352 0)
(9.79468 0.635533 0)
(9.83764 0.590539 0)
(9.71517 0.762425 0)
(9.76713 0.717907 0)
(9.62324 0.896461 0)
(9.68475 0.851871 0)
(9.51894 1.03899 0)
(9.59055 0.993811 0)
(9.4022 1.19136 0)
(9.48455 1.1451 0)
(9.27293 1.35493 0)
(9.36673 1.3071 0)
(9.13093 1.53106 0)
(9.23698 1.48121 0)
(8.97595 1.72116 0)
(9.09514 1.66885 0)
(8.80763 1.92667 0)
(8.94095 1.87147 0)
(8.62546 2.14904 0)
(8.77407 2.09059 0)
(8.42877 2.38978 0)
(8.594 2.32776 0)
(8.21662 2.65046 0)
(8.40002 2.58465 0)
(7.98771 2.93264 0)
(8.19114 2.86297 0)
(7.7402 3.23797 0)
(7.96596 3.16458 0)
(7.47153 3.56808 0)
(7.72246 3.49145 0)
(7.17805 3.9246 0)
(7.45779 3.84574 0)
(6.85463 4.30904 0)
(7.1679 4.22977 0)
(6.494 4.72256 0)
(6.84696 4.64601 0)
(6.08589 5.16546 0)
(6.48663 5.09689 0)
(5.61585 5.63626 0)
(6.07489 5.5844 0)
(5.0638 6.12981 0)
(5.59425 6.10902 0)
(4.40243 6.63382 0)
(5.01984 6.66757 0)
(3.59632 7.12131 0)
(4.31279 7.2486 0)
(2.60446 7.5408 0)
(3.43588 7.82033 0)
(1.39437 7.74067 0)
(2.25659 8.31527 0)
(1.00267 8.46533 0)
(9.9865 0.181253 0)
(9.9948 0.124157 0)
(9.96026 0.300833 0)
(9.97747 0.246681 0)
(9.92176 0.421734 0)
(9.94676 0.369647 0)
(9.87133 0.54565 0)
(9.90387 0.494886 0)
(9.80923 0.674121 0)
(9.84977 0.624003 0)
(9.73567 0.80861 0)
(9.78478 0.758504 0)
(9.6508 0.950537 0)
(9.70902 0.899841 0)
(9.55471 1.1013 0)
(9.62258 1.04944 0)
(9.44742 1.2623 0)
(9.52555 1.20871 0)
(9.3289 1.43493 0)
(9.41798 1.37907 0)
(9.19907 1.62064 0)
(9.29987 1.56195 0)
(9.05779 1.82091 0)
(9.17117 1.75885 0)
(8.9048 2.03726 0)
(9.03176 1.97128 0)
(8.73974 2.2713 0)
(8.88141 2.20087 0)
(8.5621 2.52473 0)
(8.7198 2.44933 0)
(8.37111 2.79938 0)
(8.54641 2.71851 0)
(8.16566 3.09722 0)
(8.3605 3.01045 0)
(7.94416 3.42045 0)
(8.16095 3.32742 0)
(7.70434 3.77153 0)
(7.94612 3.67204 0)
(7.44291 4.15329 0)
(7.71364 4.04737 0)
(7.15511 4.56899 0)
(7.46008 4.4571 0)
(6.83407 5.02237 0)
(7.18041 4.90572 0)
(6.46974 5.51754 0)
(6.86724 5.39876 0)
(6.04724 6.05864 0)
(6.50953 5.94292 0)
(5.54433 6.64871 0)
(6.09031 6.54611 0)
(4.92737 7.28702 0)
(5.58343 7.21675 0)
(4.14529 7.96153 0)
(4.94285 7.96159 0)
(3.12201 8.63378 0)
(4.10963 8.7758 0)
(1.75639 9.12815 0)
(2.87871 9.62121 0)
(1.36487 10.1856 0)
(9.98754 0.1908 0)
(9.99523 0.130261 0)
(9.96332 0.316708 0)
(9.97932 0.258825 0)
(9.92785 0.444023 0)
(9.95115 0.387869 0)
(9.88147 0.574489 0)
(9.91187 0.519286 0)
(9.82448 0.709678 0)
(9.86243 0.654714 0)
(9.75712 0.851082 0)
(9.80317 0.795682 0)
(9.67957 1.00016 0)
(9.73424 0.943671 0)
(9.592 1.15834 0)
(9.65581 1.10014 0)
(9.4945 1.32706 0)
(9.56804 1.26652 0)
(9.38714 1.50776 0)
(9.47106 1.44426 0)
(9.26994 1.70194 0)
(9.36498 1.63484 0)
(9.14288 1.91111 0)
(9.24985 1.83978 0)
(9.00586 2.13691 0)
(9.1257 2.06067 0)
(8.85869 2.38104 0)
(8.99249 2.2992 0)
(8.70106 2.64537 0)
(8.85009 2.5572 0)
(8.53247 2.93195 0)
(8.69826 2.83668 0)
(8.35212 3.2431 0)
(8.53656 3.13991 0)
(8.15886 3.5815 0)
(8.36431 3.46951 0)
(7.95094 3.95034 0)
(8.18044 3.8286 0)
(7.72583 4.35351 0)
(7.98337 4.22098 0)
(7.47977 4.79585 0)
(7.77073 4.65145 0)
(7.2072 5.28357 0)
(7.53904 5.12622 0)
(6.89974 5.82464 0)
(7.28305 5.6535 0)
(6.54443 6.42944 0)
(6.99479 6.24443 0)
(6.12053 7.11137 0)
(6.66153 6.91453 0)
(5.59329 7.88758 0)
(6.26271 7.68607 0)
(4.90119 8.77796 0)
(5.75789 8.59255 0)
(3.9272 9.80176 0)
(5.08775 9.68523 0)
(2.43348 10.8572 0)
(3.97996 11.0497 0)
(2.14655 12.5691 0)
(9.98861 0.199564 0)
(9.99567 0.135836 0)
(9.96652 0.331263 0)
(9.98124 0.269908 0)
(9.9342 0.46442 0)
(9.9557 0.404474 0)
(9.89202 0.600822 0)
(9.92016 0.541477 0)
(9.8403 0.742066 0)
(9.87552 0.682583 0)
(9.77931 0.889668 0)
(9.82215 0.829338 0)
(9.70931 1.04511 0)
(9.76027 0.98324 0)
(9.63049 1.20984 0)
(9.69009 1.14576 0)
(9.54306 1.38533 0)
(9.61184 1.31836 0)
(9.44715 1.57304 0)
(9.52575 1.5025 0)
(9.34293 1.77449 0)
(9.43204 1.69967 0)
(9.23049 1.99124 0)
(9.3309 1.9114 0)
(9.10992 2.22498 0)
(9.2225 2.13934 0)
(8.98122 2.47749 0)
(9.10701 2.38519 0)
(8.84435 2.75074 0)
(8.98453 2.65087 0)
(8.6991 3.04697 0)
(8.85512 2.93848 0)
(8.54513 3.36872 0)
(8.71875 3.25044 0)
(8.38185 3.71902 0)
(8.57526 3.58956 0)
(8.20828 4.10159 0)
(8.42432 3.95929 0)
(8.02298 4.52109 0)
(8.26534 4.36388 0)
(7.82377 4.98356 0)
(8.09743 4.80881 0)
(7.60734 5.49704 0)
(7.91922 5.3013 0)
(7.36869 6.07259 0)
(7.72874 5.85123 0)
(7.09989 6.72588 0)
(7.52313 6.47253 0)
(6.78779 7.48009 0)
(7.29814 7.18578 0)
(6.40884 8.37198 0)
(7.04832 8.02338 0)
(5.91602 9.46603 0)
(6.76348 9.04184 0)
(5.19672 10.9086 0)
(6.46268 10.3569 0)
(3.88515 13.1797 0)
(6.191 12.3039 0)
(5.26085 16.3743 0)
(0.191781 -0.117116 0)
(0.111196 -0.187837 0)
(0.375797 -0.100568 0)
(0.271328 -0.175976 0)
(0.529497 -0.0786928 0)
(0.432595 -0.143513 0)
(0.65297 -0.0595594 0)
(0.57072 -0.112566 0)
(0.751169 -0.0443626 0)
(0.681946 -0.0874099 0)
(0.829241 -0.0326658 0)
(0.771041 -0.0678531 0)
(0.891593 -0.0238117 0)
(0.843501 -0.0529116 0)
(0.941882 -0.0172185 0)
(0.903558 -0.0416659 0)
(0.983093 -0.0123995 0)
(0.954295 -0.0333387 0)
(1.01763 -0.00895046 0)
(0.998071 -0.0272791 0)
(1.04739 -0.00653768 0)
(1.03676 -0.0229527 0)
(1.07384 -0.00488 0)
(1.07182 -0.0199157 0)
(1.09803 -0.0037311 0)
(1.10436 -0.0177835 0)
(1.12061 -0.00286917 0)
(1.13516 -0.0162077 0)
(1.14182 -0.00209785 0)
(1.16466 -0.0148708 0)
(1.16155 -0.00125971 0)
(1.19298 -0.0135003 0)
(1.17936 -0.000258604 0)
(1.21997 -0.0118997 0)
(1.19467 0.000923733 0)
(1.24525 -0.0099877 0)
(1.20693 0.00223968 0)
(1.26835 -0.00781261 0)
(1.21579 0.00362391 0)
(1.28889 -0.00550785 0)
(1.22105 0.0050246 0)
(1.3067 -0.00319733 0)
(1.2227 0.00635761 0)
(1.3217 -0.000974882 0)
(1.22041 0.00757278 0)
(1.33377 0.00132418 0)
(1.21394 0.00866315 0)
(1.3425 0.00366014 0)
(1.20329 0.00947114 0)
(1.34745 0.00587389 0)
(1.18933 0.00971605 0)
(1.34857 0.00752181 0)
(1.17381 0.00917926 0)
(1.3466 0.00816916 0)
(1.15907 0.00778931 0)
(1.34364 0.0075688 0)
(1.1476 0.00532086 0)
(1.34178 0.00575422 0)
(1.34307 0.00258488 0)
(0.173539 -0.273247 0)
(0.0902786 -0.357809 0)
(0.342149 -0.241777 0)
(0.235626 -0.337218 0)
(0.485591 -0.195237 0)
(0.373324 -0.277448 0)
(0.604048 -0.153845 0)
(0.492071 -0.220559 0)
(0.702106 -0.120894 0)
(0.589041 -0.174694 0)
(0.784255 -0.0955285 0)
(0.668825 -0.13925 0)
(0.854134 -0.0762934 0)
(0.735905 -0.11221 0)
(0.914621 -0.0618989 0)
(0.793513 -0.0917813 0)
(0.96799 -0.0512779 0)
(0.843948 -0.0765135 0)
(1.01604 -0.043557 0)
(0.888963 -0.065233 0)
(1.06018 -0.0380241 0)
(0.929938 -0.0569962 0)
(1.10151 -0.034086 0)
(0.96796 -0.0510338 0)
(1.14083 -0.0312284 0)
(1.00386 -0.0466937 0)
(1.17871 -0.0289906 0)
(1.03825 -0.0433993 0)
(1.21547 -0.0269634 0)
(1.07154 -0.0406314 0)
(1.25117 -0.0248124 0)
(1.10393 -0.037937 0)
(1.2857 -0.0223234 0)
(1.13543 -0.0349717 0)
(1.31878 -0.0194462 0)
(1.16587 -0.0315658 0)
(1.35011 -0.0162866 0)
(1.19497 -0.0277723 0)
(1.37956 -0.0130142 0)
(1.22245 -0.0238211 0)
(1.40713 -0.00973531 0)
(1.24824 -0.0199377 0)
(1.43265 -0.00643716 0)
(1.27249 -0.0161081 0)
(1.45576 -0.00304573 0)
(1.2953 -0.0120524 0)
(1.47585 0.000387033 0)
(1.31653 -0.0076974 0)
(1.49244 0.00350812 0)
(1.33576 -0.00328112 0)
(1.50546 0.00570862 0)
(1.35242 0.000506829 0)
(1.51596 0.00645906 0)
(1.36623 0.00264113 0)
(1.52589 0.00566139 0)
(1.37737 0.00246835 0)
(1.53646 0.00363426 0)
(1.38666 0.000456005 0)
(1.39717 -0.001664 0)
(0.143131 -0.428838 0)
(0.0684111 -0.497996 0)
(0.277281 -0.380382 0)
(0.186273 -0.465507 0)
(0.389013 -0.309754 0)
(0.286409 -0.381775 0)
(0.48043 -0.247352 0)
(0.372593 -0.303901 0)
(0.556011 -0.197871 0)
(0.441303 -0.241972 0)
(0.619611 -0.159768 0)
(0.497696 -0.194526 0)
(0.674088 -0.130731 0)
(0.545161 -0.158438 0)
(0.721563 -0.108786 0)
(0.585859 -0.131117 0)
(0.763672 -0.0923552 0)
(0.621309 -0.110579 0)
(0.80171 -0.0801731 0)
(0.652698 -0.0952777 0)
(0.836704 -0.0712185 0)
(0.680977 -0.0839838 0)
(0.869461 -0.0646466 0)
(0.706904 -0.0757001 0)
(0.900599 -0.0597317 0)
(0.731071 -0.0695866 0)
(0.930564 -0.0558305 0)
(0.753936 -0.0649095 0)
(0.959642 -0.0523702 0)
(0.775843 -0.0610118 0)
(0.98795 -0.048872 0)
(0.797031 -0.0573097 0)
(1.01543 -0.0450108 0)
(0.817613 -0.053334 0)
(1.04188 -0.0406908 0)
(0.837549 -0.0488184 0)
(1.06703 -0.036067 0)
(0.856602 -0.0437947 0)
(1.09077 -0.0314243 0)
(0.874429 -0.0385884 0)
(1.11326 -0.0269069 0)
(0.89079 -0.0335925 0)
(1.13485 -0.0223033 0)
(0.905946 -0.0289074 0)
(1.15584 -0.0172633 0)
(0.920566 -0.0242078 0)
(1.17613 -0.0118097 0)
(0.935147 -0.0191639 0)
(1.19529 -0.00659214 0)
(0.94935 -0.0138573 0)
(1.2126 -0.00274507 0)
(0.962305 -0.00881799 0)
(1.22692 -0.00133579 0)
(0.972876 -0.00489191 0)
(1.23753 -0.00261266 0)
(0.9791 -0.00298443 0)
(1.24581 -0.00504352 0)
(0.980551 -0.00369373 0)
(0.977863 -0.00470347 0)
(0.110029 -0.544934 0)
(0.0467231 -0.605763 0)
(0.203922 -0.477568 0)
(0.131035 -0.555298 0)
(0.277584 -0.386493 0)
(0.187426 -0.450554 0)
(0.33604 -0.308221 0)
(0.237193 -0.357193 0)
(0.383352 -0.247107 0)
(0.272833 -0.284085 0)
(0.422703 -0.200424 0)
(0.301136 -0.228726 0)
(0.455991 -0.164909 0)
(0.32397 -0.186686 0)
(0.484498 -0.137996 0)
(0.3425 -0.154735 0)
(0.509204 -0.117736 0)
(0.357532 -0.130566 0)
(0.530906 -0.102609 0)
(0.369773 -0.112419 0)
(0.55025 -0.0913954 0)
(0.3798 -0.0989018 0)
(0.567758 -0.0830892 0)
(0.388068 -0.0888833 0)
(0.583848 -0.0768331 0)
(0.394954 -0.0814168 0)
(0.598864 -0.0718752 0)
(0.400789 -0.0756882 0)
(0.613083 -0.0675448 0)
(0.405878 -0.0709782 0)
(0.626708 -0.0632612 0)
(0.410519 -0.0666335 0)
(0.639814 -0.0585948 0)
(0.414962 -0.0620917 0)
(0.652291 -0.0533684 0)
(0.419371 -0.0569584 0)
(0.663839 -0.0477382 0)
(0.423576 -0.0511504 0)
(0.674142 -0.0421289 0)
(0.427145 -0.0449963 0)
(0.683214 -0.0369739 0)
(0.429193 -0.0391015 0)
(0.691535 -0.032363 0)
(0.429586 -0.0338408 0)
(0.699693 -0.0279399 0)
(0.428239 -0.0289308 0)
(0.707938 -0.0232195 0)
(0.426147 -0.0238241 0)
(0.715782 -0.0179542 0)
(0.423744 -0.0181862 0)
(0.721836 -0.0124262 0)
(0.42097 -0.0120803 0)
(0.724046 -0.00745887 0)
(0.418883 -0.00605451 0)
(0.720805 -0.00421817 0)
(0.414766 -0.00131963 0)
(0.711954 -0.00308151 0)
(0.409891 0.000745333 0)
(0.39715 -0.00218705 0)
(0.07195 -0.624072 0)
(0.0239388 -0.676234 0)
(0.121505 -0.536477 0)
(0.0693385 -0.602687 0)
(0.153808 -0.42905 0)
(0.078126 -0.480716 0)
(0.176007 -0.340009 0)
(0.0893017 -0.377431 0)
(0.191312 -0.271622 0)
(0.0886484 -0.297709 0)
(0.202265 -0.219832 0)
(0.0855002 -0.238245 0)
(0.209811 -0.18039 0)
(0.0796305 -0.19309 0)
(0.214544 -0.15035 0)
(0.0717951 -0.158656 0)
(0.216988 -0.12759 0)
(0.0623813 -0.132543 0)
(0.217581 -0.110471 0)
(0.0518381 -0.112888 0)
(0.216675 -0.0976811 0)
(0.0405009 -0.0982033 0)
(0.214567 -0.0881465 0)
(0.0286128 -0.0872958 0)
(0.211518 -0.0809581 0)
(0.0163952 -0.0791748 0)
(0.207773 -0.0753235 0)
(0.00406153 -0.0730001 0)
(0.203594 -0.0705301 0)
(-0.00817242 -0.0680488 0)
(0.19927 -0.0659339 0)
(-0.0200481 -0.0636749 0)
(0.19507 -0.0609942 0)
(-0.0312619 -0.0592853 0)
(0.191097 -0.0553711 0)
(-0.041488 -0.0543666 0)
(0.18709 -0.0490481 0)
(-0.0506531 -0.0485977 0)
(0.182263 -0.0423398 0)
(-0.058968 -0.0419941 0)
(0.175473 -0.0356675 0)
(-0.0672819 -0.0349785 0)
(0.165955 -0.0292173 0)
(-0.0761546 -0.0281975 0)
(0.154007 -0.0228757 0)
(-0.0864949 -0.0220139 0)
(0.140827 -0.0165174 0)
(-0.097942 -0.0163743 0)
(0.128062 -0.0103268 0)
(-0.109943 -0.0111416 0)
(0.117387 -0.00457806 0)
(-0.121636 -0.00632789 0)
(0.108396 0.000309751 0)
(-0.131061 -0.00132397 0)
(0.101305 0.00339091 0)
(-0.13835 0.00232269 0)
(0.0953915 0.00132619 0)
(-0.143453 0.00371152 0)
(-0.152987 6.90166e-06 0)
(0.0282895 -0.661146 0)
(-0.00137341 -0.703941 0)
(0.0304665 -0.552721 0)
(9.42263e-05 -0.604769 0)
(0.019011 -0.432926 0)
(-0.0393431 -0.47002 0)
(0.00316466 -0.337042 0)
(-0.0691827 -0.362985 0)
(-0.0159031 -0.264504 0)
(-0.107131 -0.280736 0)
(-0.0367679 -0.210674 0)
(-0.144043 -0.220111 0)
(-0.0587599 -0.169901 0)
(-0.180532 -0.174428 0)
(-0.08126 -0.139047 0)
(-0.215749 -0.140014 0)
(-0.103877 -0.115842 0)
(-0.249393 -0.114246 0)
(-0.126343 -0.0985209 0)
(-0.281199 -0.0951429 0)
(-0.148478 -0.0856914 0)
(-0.311068 -0.0811322 0)
(-0.170146 -0.0762314 0)
(-0.339044 -0.0709801 0)
(-0.191233 -0.069197 0)
(-0.365218 -0.0636714 0)
(-0.211638 -0.0637846 0)
(-0.389698 -0.0583526 0)
(-0.231227 -0.0593123 0)
(-0.412567 -0.0543187 0)
(-0.249787 -0.0551936 0)
(-0.433832 -0.0509736 0)
(-0.267001 -0.0509127 0)
(-0.453361 -0.0477836 0)
(-0.282541 -0.0460561 0)
(-0.47092 -0.0442281 0)
(-0.296233 -0.040434 0)
(-0.486344 -0.0398757 0)
(-0.308201 -0.034202 0)
(-0.499714 -0.0345509 0)
(-0.318938 -0.0278104 0)
(-0.51144 -0.0284583 0)
(-0.329203 -0.0217566 0)
(-0.522182 -0.0221112 0)
(-0.33957 -0.0162927 0)
(-0.53269 -0.0160124 0)
(-0.350088 -0.0113627 0)
(-0.543438 -0.0104294 0)
(-0.360489 -0.00680279 0)
(-0.554545 -0.00540149 0)
(-0.370598 -0.002475 0)
(-0.565304 -0.000880413 0)
(-0.378999 0.00134754 0)
(-0.574426 0.00309617 0)
(-0.385525 0.00363002 0)
(-0.581475 0.00567487 0)
(-0.389739 0.00305272 0)
(-0.588173 0.00582499 0)
(-0.594437 0.00269299 0)
(-0.0211908 -0.649756 0)
(-0.0315592 -0.683186 0)
(-0.0674187 -0.522133 0)
(-0.0772833 -0.560561 0)
(-0.1215 -0.396579 0)
(-0.163353 -0.419523 0)
(-0.177921 -0.300886 0)
(-0.235004 -0.311548 0)
(-0.233418 -0.229828 0)
(-0.308925 -0.231336 0)
(-0.287062 -0.177467 0)
(-0.378073 -0.173488 0)
(-0.33755 -0.138657 0)
(-0.441725 -0.131585 0)
(-0.38441 -0.109984 0)
(-0.499226 -0.101189 0)
(-0.427433 -0.0890495 0)
(-0.550703 -0.0794417 0)
(-0.466622 -0.0739962 0)
(-0.596607 -0.0641885 0)
(-0.502175 -0.0633461 0)
(-0.637477 -0.0537139 0)
(-0.534408 -0.0559324 0)
(-0.673946 -0.0467083 0)
(-0.563688 -0.0508074 0)
(-0.706629 -0.0421448 0)
(-0.590357 -0.047199 0)
(-0.736083 -0.0392081 0)
(-0.614674 -0.0444801 0)
(-0.762762 -0.0372746 0)
(-0.636781 -0.0421327 0)
(-0.786976 -0.0358455 0)
(-0.656644 -0.0396743 0)
(-0.808828 -0.0345112 0)
(-0.674185 -0.0366203 0)
(-0.828249 -0.0327849 0)
(-0.68945 -0.0325935 0)
(-0.845217 -0.0301516 0)
(-0.702758 -0.0274965 0)
(-0.85996 -0.0262745 0)
(-0.714696 -0.0216001 0)
(-0.873003 -0.0212087 0)
(-0.725982 -0.0154183 0)
(-0.885053 -0.0154199 0)
(-0.737177 -0.00946552 0)
(-0.896793 -0.00953153 0)
(-0.748522 -0.00409922 0)
(-0.908684 -0.00401672 0)
(-0.7597 0.000511463 0)
(-0.920249 0.000767595 0)
(-0.769618 0.00420731 0)
(-0.930857 0.00446401 0)
(-0.77781 0.00663121 0)
(-0.939838 0.00740606 0)
(-0.784873 0.00705677 0)
(-0.948181 0.00930334 0)
(-0.790794 0.00508264 0)
(-0.955766 0.00879434 0)
(-0.960677 0.00600948 0)
(-0.0742833 -0.588932 0)
(-0.0684737 -0.610431 0)
(-0.170924 -0.449966 0)
(-0.163777 -0.468143 0)
(-0.268352 -0.32523 0)
(-0.297596 -0.328553 0)
(-0.363155 -0.232861 0)
(-0.40894 -0.225119 0)
(-0.451615 -0.167016 0)
(-0.514234 -0.152595 0)
(-0.531947 -0.121161 0)
(-0.609018 -0.103671 0)
(-0.603188 -0.0891733 0)
(-0.692741 -0.0711305 0)
(-0.665655 -0.0668651 0)
(-0.765463 -0.0494322 0)
(-0.720149 -0.0516264 0)
(-0.826907 -0.0353578 0)
(-0.767711 -0.0415848 0)
(-0.879289 -0.0266204 0)
(-0.809413 -0.0352477 0)
(-0.92437 -0.0215533 0)
(-0.846216 -0.0314789 0)
(-0.96367 -0.0189958 0)
(-0.878942 -0.0294013 0)
(-0.998391 -0.0180842 0)
(-0.908269 -0.0283527 0)
(-1.02948 -0.0181557 0)
(-0.934692 -0.0278395 0)
(-1.05762 -0.0187549 0)
(-0.958582 -0.0274998 0)
(-1.08329 -0.0194965 0)
(-0.980005 -0.0269713 0)
(-1.10647 -0.0201971 0)
(-0.998933 -0.0257675 0)
(-1.12707 -0.0204364 0)
(-1.01548 -0.0234079 0)
(-1.14507 -0.0196101 0)
(-1.03005 -0.0196593 0)
(-1.16078 -0.0172129 0)
(-1.04329 -0.0147104 0)
(-1.17486 -0.0131691 0)
(-1.05589 -0.00911647 0)
(-1.1881 -0.00795142 0)
(-1.0684 -0.0036038 0)
(-1.20123 -0.00228569 0)
(-1.08053 0.00120338 0)
(-1.21383 0.00283913 0)
(-1.09149 0.00511217 0)
(-1.22555 0.00681612 0)
(-1.10145 0.00827837 0)
(-1.23615 0.0098302 0)
(-1.11055 0.010538 0)
(-1.24601 0.0121947 0)
(-1.11858 0.011021 0)
(-1.25524 0.0134287 0)
(-1.12604 0.00942834 0)
(-1.26334 0.0125348 0)
(-1.2678 0.0101685 0)
(-0.134814 -0.475363 0)