/*--------------------------------*- C++ -*----------------------------------*\
  =========                 |
  \\      /  F ield         | OpenFOAM: The Open Source CFD Toolbox
   \\    /   O peration     | Website:  https://openfoam.org
    \\  /    A nd           | Version:  7
     \\/     M anipulation  |
\*---------------------------------------------------------------------------*/
FoamFile
{
    version     2.0;
    format      ascii;
    class       volScalarField;
    location    "2.5";
    object      p;
}
// * * * * * * * * * * * * * * * * * * * * * * * * * * * * * * * * * * * * * //

dimensions      [0 2 -2 0 0 0 0];

internalField   nonuniform List<scalar> 
2790
(
147.697
147.604
147.871
148.443
149.223
150.181
151.313
152.62
154.097
155.738
157.538
159.489
161.583
163.808
166.148
168.584
171.088
173.627
176.159
178.633
180.991
183.168
185.098
186.719
187.978
188.852
189.288
189.343
189.394
189.607
147.494
147.512
147.804
148.372
149.149
150.103
151.231
152.532
154.002
155.634
157.425
159.366
161.449
163.663
165.992
168.418
170.914
173.447
175.977
178.455
180.823
183.018
184.972
186.62
187.905
188.779
189.175
189.23
189.363
189.647
147.295
147.383
147.694
148.252
149.016
149.957
151.071
152.353
153.801
155.409
157.172
159.081
161.129
163.305
165.593
167.976
170.428
172.918
175.41
177.857
180.207
182.399
184.371
186.061
187.412
188.387
188.98
189.335
189.651
189.949
147.07
147.189
147.513
148.062
148.811
149.736
150.83
152.088
153.507
155.082
156.806
158.672
160.67
162.791
165.02
167.337
169.722
172.145
174.572
176.962
179.269
181.441
183.422
185.162
186.616
187.768
188.636
189.306
189.859
190.378
146.809
146.942
147.274
147.816
148.548
149.453
150.52
151.748
153.13
154.661
156.336
158.145
160.081
162.132
164.284
166.52
168.818
171.153
173.494
175.807
178.052
180.187
182.169
183.959
185.529
186.872
188.002
188.964
189.775
190.522
146.509
146.647
146.981
147.513
148.226
149.104
150.14
151.329
152.667
154.147
155.762
157.505
159.366
161.334
163.396
165.534
167.729
169.958
172.195
174.41
176.572
178.65
180.611
182.432
184.095
185.596
186.942
188.148
189.168
190.086
146.166
146.305
146.637
147.156
147.845
148.693
149.693
150.838
152.124
153.545
155.092
156.758
158.533
160.406
162.363
164.389
166.465
168.571
170.684
172.78
174.835
176.825
178.733
180.543
182.248
183.849
185.342
186.721
187.886
188.932
145.781
145.918
146.243
146.745
147.409
148.223
149.181
150.276
151.504
152.858
154.328
155.908
157.587
159.353
161.194
163.093
165.034
166.998
168.966
170.918
172.835
174.702
176.509
178.251
179.929
181.548
183.102
184.574
185.824
186.975
145.355
145.488
145.802
146.285
146.92
147.696
148.607
149.648
150.812
152.091
153.478
154.963
156.535
158.184
159.895
161.653
163.443
165.246
167.046
168.825
170.568
172.266
173.913
175.513
177.075
178.609
180.117
181.588
182.859
184.097
144.888
145.016
145.317
145.777
146.38
147.115
147.977
148.958
150.052
151.251
152.546
153.928
155.385
156.905
158.475
160.079
161.701
163.324
164.93
166.503
168.031
169.506
170.923
172.291
173.623
174.942
176.262
177.599
178.799
180.103
144.383
144.504
144.79
145.225
145.794
146.484
147.292
148.209
149.228
150.341
151.539
152.811
154.144
155.527
156.945
158.382
159.819
161.241
162.627
163.962
165.23
166.42
167.527
168.555
169.518
170.446
171.376
172.374
173.336
174.654
143.84
143.955
144.223
144.632
145.163
145.807
146.557
147.406
148.347
149.37
150.464
151.619
152.823
154.06
155.316
156.573
157.812
159.013
160.155
161.217
162.179
163.022
163.73
164.295
164.721
165.03
165.272
165.579
165.96
167.133
143.263
143.37
143.62
144
144.492
145.086
145.777
146.555
147.413
148.341
149.328
150.362
151.429
152.514
153.599
154.667
155.694
156.658
157.534
158.294
158.907
159.341
159.564
159.539
159.235
158.636
157.761
156.767
155.816
156.32
142.654
142.752
142.983
143.332
143.783
144.327
144.955
145.66
146.433
147.263
148.139
149.048
149.974
150.901
151.81
152.68
153.486
154.2
154.792
155.225
155.455
155.433
155.095
154.363
153.14
151.31
148.746
145.441
141.488
139.447
142.014
142.104
142.314
142.632
143.041
143.532
144.096
144.726
145.412
146.142
146.904
147.685
148.467
149.233
149.962
150.629
151.207
151.664
151.961
152.053
151.88
151.371
150.427
148.913
146.635
143.303
138.458
131.438
120.965
108.723
2.58724
2.55078
2.42975
2.25856
2.07072
1.88194
1.69788
1.52088
1.35229
1.1928
1.04271
0.902116
0.771374
0.652033
0.54775
0.463488
0.402029
0.361219
0.337459
0.330263
0.338402
0.35772
0.379316
0.394652
0.396298
0.380642
0.343978
0.283544
0.197395
0.0869671
2.49399
2.45172
2.33882
2.18131
2.0069
1.82945
1.65468
1.48526
1.32274
1.16806
1.02173
0.883934
0.754891
0.636073
0.531749
0.448229
0.389229
0.351807
0.330758
0.325605
0.335298
0.356005
0.378377
0.395619
0.400493
0.385728
0.349308
0.289105
0.202084
0.0846807
2.40141
2.35169
2.24361
2.09761
1.93622
1.77035
1.60535
1.44407
1.28815
1.13879
0.996779
0.862379
0.735491
0.617239
0.512818
0.430692
0.374663
0.335495
0.310268
0.310151
0.329458
0.359866
0.389907
0.409259
0.412453
0.396093
0.357912
0.296149
0.206204
0.0843902
2.32364
2.26659
2.16109
2.02337
1.87254
1.71648
1.56002
1.40595
1.25595
1.11139
0.973522
0.842941
0.719019
0.600834
0.49273
0.408283
0.362063
0.339486
0.317672
0.306825
0.322209
0.352889
0.384519
0.407131
0.413898
0.398977
0.359718
0.295905
0.203781
0.0804437
2.28717
2.22288
2.11978
1.98692
1.84245
1.69218
1.54082
1.39107
1.24455
1.10268
0.966924
0.838764
0.719056
0.607393
0.507556
0.42432
0.362242
0.328981
0.315927
0.312868
0.328256
0.355924
0.384816
0.40555
0.410722
0.394265
0.353171
0.287532
0.194689
0.0720944
2.31149
2.23719
2.1344
2.00081
1.85588
1.70516
1.55358
1.40397
1.25803
1.11692
0.981779
0.853743
0.733979
0.624106
0.526516
0.445661
0.385977
0.347422
0.327253
0.322394
0.333525
0.355207
0.378472
0.394724
0.3966
0.378058
0.33576
0.269797
0.178638
0.0626381
2.40105
2.31657
2.20432
2.06218
1.9083
1.74992
1.59207
1.43764
1.28829
1.14502
1.00886
0.880771
0.760641
0.649048
0.550246
0.469136
0.407949
0.365905
0.340928
0.331328
0.335901
0.349824
0.365729
0.375972
0.373526
0.352471
0.309488
0.24441
0.157033
0.0529678
2.5473
2.44256
2.30983
2.14953
1.97908
1.80681
1.63828
1.47627
1.32197
1.17529
1.03617
0.905571
0.784703
0.674457
0.576673
0.494594
0.43026
0.383512
0.352943
0.337088
0.334019
0.339482
0.347374
0.35104
0.343994
0.320608
0.277429
0.213853
0.131978
0.0432524
2.71132
2.57609
2.41314
2.22929
2.04111
1.8558
1.67666
1.50658
1.34654
1.19701
1.05741
0.927049
0.806375
0.69659
0.599237
0.516224
0.448868
0.397294
0.360738
0.33799
0.327003
0.324062
0.324076
0.321338
0.31
0.284834
0.241888
0.180389
0.105388
0.033522
2.83994
2.67567
2.48896
2.28277
2.0767
1.88006
1.69534
1.5223
1.36071
1.21024
1.07046
0.940736
0.821101
0.712316
0.615466
0.531634
0.461555
0.405427
0.36296
0.333311
0.314664
0.303837
0.296564
0.288039
0.273156
0.247047
0.204758
0.145817
0.078527
0.023898
2.92616
2.73147
2.52021
2.29771
2.08058
1.87651
1.68831
1.5151
1.35543
1.20785
1.07098
0.94385
0.826507
0.719638
0.623942
0.539815
0.467483
0.407194
0.35912
0.322926
0.297218
0.27931
0.265611
0.25215
0.234588
0.207766
0.167391
0.111418
0.0521115
0.0145104
2.93316
2.70496
2.47
2.23737
2.02145
1.82443
1.64477
1.47987
1.32814
1.18809
1.05764
0.935438
0.821812
0.717931
0.624354
0.540747
0.466744
0.402669
0.349318
0.307073
0.275072
0.251046
0.231911
0.21447
0.195225
0.169143
0.130921
0.0781378
0.0266216
0.00548046
2.76393
2.5045
2.28269
2.07693
1.88933
1.71927
1.56299
1.41625
1.27909
1.15172
1.03152
0.91639
0.807563
0.707616
0.617304
0.535245
0.460146
0.39248
0.334015
0.286169
0.248701
0.219586
0.196023
0.17552
0.15553
0.131365
0.0960263
0.0466955
0.00246191
-0.00306665
2.32488
2.04724
1.91621
1.80584
1.68403
1.565
1.44922
1.32973
1.21198
1.10199
0.995894
0.889343
0.785371
0.689809
0.604087
0.524872
0.449143
0.37768
0.313885
0.260714
0.218609
0.185477
0.158439
0.135624
0.115657
0.094351
0.0631012
0.0177582
-0.0198778
-0.0109954
1.45746
1.17682
1.31728
1.44301
1.42429
1.37684
1.31969
1.23216
1.13241
1.04337
0.956039
0.858536
0.757409
0.665691
0.586268
0.511724
0.43562
0.359435
0.289464
0.230973
0.185083
0.149079
0.11943
0.0947935
0.0753563
0.0578849
0.0322846
-0.00790038
-0.0396818
-0.0181807
141.335
141.416
141.604
141.889
142.254
142.69
143.188
143.74
144.336
144.963
145.609
146.257
146.892
147.492
148.035
148.495
148.84
149.032
149.027
148.768
148.183
147.176
145.613
143.301
139.941
135.036
127.666
115.91
93.7291
33.8232
140.607
140.679
140.845
141.095
141.414
141.793
142.222
142.693
143.196
143.716
144.241
144.754
145.237
145.667
146.021
146.269
146.376
146.301
145.992
145.383
144.392
142.904
140.761
137.731
133.457
127.355
118.393
104.836
85.3266
56.927
139.838
139.899
140.042
140.256
140.528
140.847
141.206
141.595
142.001
142.413
142.815
143.191
143.52
143.779
143.943
143.979
143.851
143.513
142.909
141.968
140.6
138.683
136.054
132.483
127.644
121.085
112.217
100.407
86.2185
69.6965
139.027
139.078
139.197
139.374
139.597
139.857
140.144
140.448
140.758
141.06
141.339
141.577
141.752
141.842
141.818
141.648
141.292
140.703
139.822
138.579
136.881
134.611
131.618
127.705
122.627
116.093
107.807
97.4434
84.9442
69.877
138.177
138.218
138.312
138.452
138.626
138.824
139.039
139.259
139.472
139.664
139.82
139.921
139.946
139.87
139.665
139.296
138.725
137.904
136.774
135.267
133.296
130.755
127.515
123.421
118.294
111.934
104.144
94.6835
83.3864
70.4614
137.29
137.32
137.39
137.492
137.616
137.754
137.896
138.031
138.148
138.233
138.268
138.235
138.114
137.878
137.5
136.946
136.177
135.146
133.799
132.072
129.886
127.152
123.765
119.606
114.546
108.45
101.198
92.6915
82.9225
72.3047
136.368
136.388
136.433
136.498
136.573
136.649
136.719
136.772
136.794
136.773
136.69
136.529
136.268
135.882
135.342
134.618
133.67
132.457
130.927
129.023
126.68
123.823
120.37
116.236
111.332
105.582
98.9305
91.3681
82.939
73.9783
135.415
135.425
135.446
135.473
135.499
135.516
135.515
135.486
135.417
135.293
135.098
134.814
134.421
133.894
133.207
132.329
131.225
129.857
128.179
126.142
123.692
120.772
117.32
113.277
108.59
103.221
97.1541
90.4116
83.0432
75.32
134.435
134.435
134.431
134.422
134.4
134.359
134.289
134.182
134.024
133.802
133.5
133.101
132.586
131.93
131.11
130.097
128.86
127.364
125.571
123.441
120.93
117.994
114.592
110.686
106.246
101.258
95.7283
89.6915
83.2009
76.4831
133.432
133.421
133.394
133.349
133.281
133.183
133.048
132.865
132.622
132.308
131.906
131.401
130.773
130.002
129.065
127.936
126.588
124.991
123.114
120.925
118.389
115.477
112.161
108.417
104.235
99.6139
94.5727
89.1504
83.3998
77.5052
132.409
132.389
132.339
132.26
132.147
131.995
131.797
131.542
131.221
130.82
130.326
129.723
128.995
128.121
127.083
125.857
124.419
122.747
120.813
118.594
116.065
113.204
109.996
106.43
102.504
98.2286
93.6266
88.7374
83.6088
78.3885
131.373
131.343
131.272
131.159
131.004
130.801
130.544
130.222
129.827
129.346
128.768
128.078
127.26
126.298
125.174
123.868
122.362
120.636
118.669
116.444
113.944
111.156
108.071
104.687
101.009
97.0519
92.841
88.4123
83.8075
79.1455
130.328
130.289
130.197
130.054
129.859
129.608
129.295
128.911
128.448
127.895
127.241
126.473
125.578
124.54
123.345
121.978
120.421
118.66
116.68
114.469
112.015
109.312
106.357
103.153
99.7099
96.0436
92.1789
88.1481
83.9869
79.7912
129.28
129.233
129.122
128.949
128.717
128.421
128.057
127.617
127.092
126.474
125.753
124.917
123.956
122.855
121.604
120.189
118.598
116.819
114.842
112.659
110.264
107.654
104.831
101.801
98.5758
95.1721
91.6129
87.9263
84.1425
80.3391
128.235
128.18
128.052
127.852
127.585
127.249
126.838
126.346
125.767
125.091
124.311
123.418
122.4
121.249
119.954
118.505
116.893
115.11
113.149
111.006
108.677
106.164
103.47
100.605
97.5805
94.4127
91.1224
87.7338
84.2724
80.8012
127.2
127.138
126.993
126.769
126.471
126.097
125.644
125.107
124.478
123.753
122.922
121.98
120.917
119.726
118.399
116.928
115.307
113.53
111.595
109.498
107.24
104.824
102.256
99.5445
96.7028
93.7458
90.6919
87.5617
84.3767
81.1884
126.181
126.113
125.953
125.706
125.38
124.973
124.483
123.905
123.234
122.465
121.592
120.61
119.511
118.289
116.94
115.457
113.836
112.075
110.171
108.126
105.94
103.62
101.17
98.6015
95.9255
93.1563
90.3099
87.404
84.4567
81.5103
125.185
125.112
124.938
124.672
124.32
123.884
123.361
122.748
122.04
121.235
120.327
119.312
118.185
116.942
115.578
114.092
112.479
110.739
108.873
106.881
104.768
102.538
100.2
97.7615
95.2348
92.6322
89.9679
87.257
84.5145
81.7756
124.22
124.141
123.956
123.672
123.298
122.836
122.285
121.641
120.903
120.067
119.131
118.091
116.943
115.685
114.315
112.831
111.232
109.518
107.691
105.754
103.711
101.568
99.3322
97.0127
94.6197
92.1646
89.6598
87.1182
84.5526
81.9921
123.293
123.21
123.014
122.714
122.321
121.837
121.261
120.592
119.828
118.968
118.009
116.95
115.788
114.522
113.151
111.675
110.093
108.408
106.622
104.738
102.762
100.7
98.5578
96.3454
94.0715
91.7465
89.3811
86.9866
84.5738
82.1668
122.411
122.324
122.119
121.806
121.396
120.893
120.296
119.606
118.822
117.942
116.966
115.893
114.722
113.453
112.085
110.62
109.059
107.404
105.658
103.826
101.913
99.9249
97.8685
95.7519
93.5836
91.3729
89.1291
86.8619
84.5808
82.3059
121.583
121.492
121.279
120.955
120.53
120.011
119.398
118.69
117.889
116.994
116.006
114.923
113.748
112.479
111.118
109.667
108.127
106.503
104.796
103.013
101.158
99.2375
97.2578
95.2264
93.1511
91.0401
88.9019
86.7448
84.5771
82.4155
120.815
120.721
120.502
120.167
119.731
119.198
118.571
117.85
117.036
116.13
115.132
114.044
112.867
111.601
110.249
108.814
107.296
105.701
104.032
102.294
100.492
98.6321
96.7205
94.7641
92.77
90.7456
88.6984
86.6358
84.5651
82.5002
120.117
120.021
119.796
119.452
119.006
118.462
117.824
117.092
116.268
115.353
114.35
113.259
112.083
110.822
109.481
108.061
106.565
104.998
103.363
101.666
99.9118
98.1055
96.2537
94.3625
92.4385
90.4885
88.5192
86.5372
84.5489
82.5662
119.498
119.399
119.168
118.817
118.361
117.809
117.162
116.421
115.589
114.669
113.662
112.571
111.397
110.143
108.812
107.407
105.932
104.391
102.787
101.126
99.4135
97.654
95.8536
94.0182
92.154
90.2669
88.3633
86.4489
84.5296
82.6153
118.965
118.864
118.627
118.269
117.806
117.246
116.592
115.845
115.009
114.085
113.076
111.985
110.815
109.568
108.248
106.857
105.401
103.882
102.305
100.676
98.9987
97.2788
95.5218
93.7332
91.9188
90.0841
88.2349
86.3765
84.5143
82.6567
118.53
118.425
118.181
117.815
117.345
116.78
116.12
115.368
114.527
113.601
112.592
111.503
110.336
109.096
107.785
106.407
104.967
103.467
101.914
100.31
98.6624
96.9749
95.2531
93.5022
91.7278
89.9349
88.129
86.3149
84.4976
82.684
118.204
118.093
117.84
117.467
116.993
116.422
115.758
115.003
114.16
113.232
112.223
111.135
109.973
108.738
107.436
106.068
104.641
103.157
101.622
100.039
98.4141
96.752
95.0577
93.3363
91.5929
89.8326
88.0602
86.2806
84.4986
82.7202
118.002
117.867
117.596
117.218
116.741
116.169
115.502
114.745
113.901
112.973
111.965
110.879
109.72
108.49
107.193
105.834
104.416
102.943
101.42
99.8513
98.2421
96.5972
94.9213
93.2194
91.4966
89.7575
88.007
86.2496
84.4898
82.7325
117.983
117.784
117.486
117.101
116.621
116.045
115.376
114.617
113.772
112.844
111.837
110.753
109.596
108.37
107.078
105.724
104.312
102.847
101.333
99.7736
98.1748
96.541
94.8769
93.1874
91.4774
89.7516
88.0145
86.2708
84.5246
82.7803
-50.4143
-30.2777
-10.734
36.7018
29.5222
18.0193
52.3687
40.4353
29.4241
53.6976
43.3464
35.3848
57.9785
49.746
43.0448
62.3263
55.4596
49.6062
65.5558
59.7036
54.679
68.1102
63.1052
58.8121
70.2619
65.9431
62.2445
72.0769
68.3069
65.086
73.6016
70.2766
67.443
74.8852
71.9255
69.4083
75.9679
73.3109
71.0545
76.8814
74.4776
72.4384
77.6519
75.4618
73.6052
78.3011
76.2927
74.5907
78.8471
76.9941
75.4236
79.3047
77.5853
76.1274
79.6868
78.0825
76.7213
80.0043
78.4993
77.2212
80.2666
78.8474
77.6407
80.4822
79.1368
77.9913
80.6576
79.3757
78.2824
80.801
79.5729
78.5238
80.9146
79.7318
78.7199
81.0102
79.8648
78.883
81.0791
79.9636
79.0065
81.15
80.0572
79.1174
81.1826
80.1061
79.1804
81.2514
80.189
79.2697
-1.40343
-1.21484
0.163076
1.12057
1.18776
1.17499
1.1892
1.13572
1.04282
0.98011
0.920206
0.830344
0.725381
0.63514
0.565036
0.498476
0.421999
0.338843
0.260741
0.196493
0.147769
0.110251
0.0787806
0.0524413
0.0337034
0.0211227
0.00354408
-0.0295736
-0.0560778
-0.024469
4.41749
1.20732
1.99385
1.71878
0.80432
0.709174
1.05791
1.11834
0.970064
0.9181
0.895537
0.809811
0.686903
0.595292
0.541983
0.490068
0.412223
0.316791
0.226631
0.155759
0.10574
0.068748
0.0362182
0.00756916
-0.0109443
-0.0176395
-0.0239771
-0.0460547
-0.0674433
-0.0294404
15.2709
6.79481
3.83052
1.84621
1.24149
1.55646
1.75133
1.18691
0.66874
0.694825
0.882633
0.841779
0.662843
0.55333
0.519627
0.491351
0.409201
0.292064
0.184915
0.10749
0.059249
0.0259817
-0.00702921
-0.0398615
-0.0593121
-0.0589498
-0.0497005
-0.0544011
-0.069261
-0.0320646
24.7319
14.9161
9.11101
5.41932
3.42139
2.43557
1.68827
1.13117
0.925785
1.1776
1.30779
0.919463
0.516254
0.38537
0.440177
0.513646
0.435212
0.276642
0.141815
0.0543384
0.00968613
-0.0155486
-0.0483399
-0.0889117
-0.111014
-0.102378
-0.073071
-0.0528182
-0.0579766
-0.0316082
33.7723
24.0658
16.7722
11.4579
7.74893
5.21892
3.47591
2.36722
1.72738
1.43743
1.1728
0.892151
0.637721
0.557668
0.679592
0.707485
0.468451
0.205922
0.0413465
-0.0388805
-0.0553684
-0.0501814
-0.0783344
-0.135775
-0.165928
-0.149793
-0.0973578
-0.044863
-0.0315558
-0.0276547
41.6506
32.7578
24.8854
18.4536
13.5113
9.82555
7.11373
5.14527
3.73159
2.74327
2.02832
1.49926
1.08011
0.821503
0.727347
0.631264
0.472257
0.264389
0.0955779
0.00601089
-0.0173771
-0.026697
-0.100122
-0.204248
-0.245935
-0.212064
-0.125448
-0.0313631
0.0217109
-0.0189486
48.0714
40.287
32.5271
25.643
20.0033
15.5033
11.9373
9.13294
6.95814
5.30309
4.04418
3.06256
2.28613
1.71553
1.32884
1.03331
0.755882
0.46905
0.228035
0.0714967
-0.0117797
-0.0654783
-0.143378
-0.224522
-0.249019
-0.197811
-0.0980043
0.0086326
0.109743
0.000111105
53.3018
46.5828
39.3353
32.5073
26.6114
21.6385
17.466
14.0011
11.167
8.87927
7.038
5.54685
4.34231
3.39412
2.66375
2.07995
1.57314
1.11832
0.741459
0.463005
0.269895
0.125217
-0.00715081
-0.118381
-0.170491
-0.146672
-0.0662912
0.0312487
0.117715
-0.098186
57.5697
51.758
45.1774
38.7017
32.8722
27.7391
23.2403
19.339
16.0036
13.1852
10.8184
8.83678
7.18568
5.8239
4.70841
3.7827
2.9929
2.31259
1.74364
1.28943
0.935672
0.653566
0.417722
0.229297
0.109242
0.0662631
0.0805753
0.108432
0.0826954
-0.336266
61.0524
55.985
50.0813
44.0912
38.5252
33.4604
28.8682
24.7445
21.0907
17.8907
15.1106
12.7091
10.6454
8.88278
7.38335
6.10405
5.00359
4.05451
3.2454
2.56924
2.01148
1.54985
1.16475
0.851278
0.615872
0.45699
0.350598
0.245423
0.0497055
-0.544134
63.9121
59.4499
54.1654
48.6894
43.48
38.6197
34.0958
29.9201
26.1135
22.6822
19.6157
16.893
14.4893
12.3785
10.5321
8.91873
7.50702
6.27212
5.19812
4.27317
3.48279
2.80872
2.23409
1.74945
1.35085
1.02819
0.753364
0.472066
0.0942358
-0.624031
66.2802
62.3119
57.5672
52.5787
47.7503
43.1598
38.8002
34.6887
30.8549
27.3178
24.0817
21.141
18.4845
16.0972
13.9608
12.054
10.3546
8.84255
7.50238
6.32111
5.28495
4.37829
3.58588
2.89562
2.29719
1.77492
1.29904
0.818899
0.260614
-0.557479
68.2552
64.6939
60.4108
55.8611
51.4006
47.0993
42.9507
38.9719
35.1945
31.6434
28.3315
25.263
22.4366
19.8468
17.4839
15.3354
13.3869
11.624
10.0338
8.60455
7.32401
6.17876
5.15504
4.23978
3.41949
2.67601
1.9808
1.29098
0.551959
-0.365091
69.9114
66.689
62.7985
58.6346
54.5125
50.4938
46.571
42.7585
39.0867
35.5818
32.2611
29.1345
26.2072
23.4803
20.9511
18.6138
16.4604
14.4817
12.6683
11.0107
9.49882
8.12139
6.86624
5.72058
4.67014
3.69667
2.77487
1.8707
0.946379
-0.0840041
71.3059
68.3682
64.8122
60.984
57.1654
53.4107
49.7103
46.0756
42.5338
39.1108
35.8251
32.6897
29.7134
26.9018
24.2571
21.7785
19.4629
17.3053
15.2998
13.4396
11.7167
10.1222
8.64547
7.27491
5.9969
4.79466
3.64677
2.5272
1.4105
0.24437
72.4834
69.7863
66.5161
62.9792
59.4295
55.9151
52.4248
48.9663
45.5638
42.2412
39.0169
35.905
32.9164
30.0593
27.339
24.7584
22.3177
20.0156
17.8488
15.8132
13.903
12.111
10.4288
8.84591
7.35031
5.92721
4.55891
3.2255
1.90938
0.583192
73.4792
70.9865
67.9611
64.6768
61.364
58.0655
54.7686
51.4782
48.2148
45.0001
41.8517
38.7835
35.8072
32.9325
30.1667
27.5149
24.9798
22.5626
20.2626
18.0775
16.0036
14.0356
12.1666
10.3878
8.68871
7.05664
5.47685
3.93353
2.41319
0.905534
74.3215
72.0029
69.1879
66.1228
63.0178
59.9115
56.7903
53.6561
50.5265
47.4207
44.3547
41.3418
38.3939
35.521
32.7316
30.0321
27.4272
24.9196
22.5104
20.1992
17.9839
15.8607
13.8242
11.8672
9.98053
8.15336
6.37299
4.626
2.90025
1.1959
75.0336
72.8636
70.2296
67.3544
64.4312
61.4952
58.5318
55.5407
52.5366
49.5364
46.5543
43.6027
40.6929
37.835
35.0378
32.3086
29.6529
27.075
24.5771
22.1602
19.8235
17.5646
15.3793
13.2617
11.2039
9.19626
7.22754
5.28534
3.35721
1.44864
75.6345
73.5913
71.1131
68.4025
65.638
62.8518
60.029
57.1675
54.2791
51.3786
48.4786
45.5902
42.724
39.8896
37.0959
34.3503
31.6591
29.0271
26.4576
23.9527
21.5124
19.1356
16.8189
14.5576
12.3447
10.1716
8.02767
5.90078
3.77741
1.66487
76.1401
74.2052
71.8608
69.2924
66.666
64.0111
61.3127
58.5671
55.7838
52.9757
50.1537
47.3278
44.5075
41.7017
38.9191
36.167
33.4519
30.7791
28.1524
25.5746
23.0465
20.5677
18.1359
15.7469
13.3946
11.0709
8.76562
6.4664
4.15846
1.84887
76.5641
74.7213
72.4916
70.0459
67.5389
64.9983
62.409
59.766
57.0771
54.3531
51.6037
48.8375
46.063
43.2884
40.5217
37.7702
35.0402
32.3371
29.6652
27.0274
24.4255
21.8593
19.3272
16.8256
14.349
11.8896
9.43742
6.97971
4.50063
2.00584
76.9175
75.1527
73.0209
70.6802
68.2758
65.834
63.3396
60.7866
58.1812
55.5326
52.8492
50.1385
47.408
44.6651
41.9171
39.1709
36.4327
33.7077
31.0003
28.3138
25.6501
23.0095
20.3909
17.791
15.2047
12.6245
10.0403
7.43907
4.80423
2.13948
77.2112
75.512
73.463
71.2115
68.8945
66.5371
64.1242
61.6491
59.1164
56.5342
53.9097
51.2494
48.5598
45.8475
43.1192
40.3813
37.6395
34.8991
32.1644
29.4386
26.7238
24.0207
21.3283
18.6436
15.9618
13.2755
10.5744
7.84549
5.07151
2.2538
77.4511
75.8064
73.8266
71.6498
69.4064
67.12
64.7761
62.3671
59.8967
57.3718
54.7986
52.1828
49.5299
46.8459
44.1369
41.4086
38.6666
35.9156
33.16
30.4029
27.6464
24.8914
22.1369
19.3803
16.6167
13.8388
11.0363
8.19607
5.30049
2.34851
77.6492
76.0487
74.1258
72.0105
69.8274
67.5997
65.3128
62.9588
60.5405
58.0638
55.5341
52.9563
50.3353
47.6764
44.9851
42.2667
39.5263
36.7684
33.9971
31.2155
28.4257
25.6284
22.823
20.0066
17.1745
14.3195
11.4312
8.49624
5.49691
2.4289
77.8019
76.2364
74.3584
72.2919
70.1569
67.9759
65.7345
63.4246
61.048
58.6102
56.1158
53.5691
50.9745
48.3367
45.6606
42.9512
40.2131
37.4508
34.668
31.8676
29.0518
26.2212
23.3751
20.5108
17.6235
14.7058
11.7475
8.73503
5.65074
2.4879
77.9318
76.392
74.5483
72.5188
70.42
68.2743
66.0674
63.791
61.4463
59.0382
56.5709
54.0482
51.474
48.8526
46.1887
43.4866
40.7509
37.9857
35.1946
32.3804
29.5451
26.6893
23.8123
20.9113
17.9816
15.0156
12.003
8.92992
5.77865
2.53839
78.0116
76.488
74.6666
72.6623
70.588
68.4659
66.2821
64.0281
61.7048
59.3167
56.8676
54.361
51.8007
49.1905
46.5349
43.838
41.1041
38.3373
35.5408
32.7175
29.8692
26.9966
24.0988
21.1731
18.2145
15.2156
12.1656
9.05048
5.85235
2.55866
78.1002
76.5778
74.7687
72.7795
70.719
68.6095
66.438
64.1958
61.8837
59.5058
57.0659
54.5673
52.0136
49.4085
46.7563
44.0612
41.3273
38.5584
35.7579
32.9287
30.0724
27.1898
24.2799
21.3401
18.3652
15.3478
12.2767
9.13702
5.90825
2.566
)
;

boundaryField
{
    inlet
    {
        type            zeroGradient;
    }
    outlet
    {
        type            fixedValue;
        value           uniform 0;
    }
    flap
    {
        type            zeroGradient;
    }
    upperWall
    {
        type            zeroGradient;
    }
    lowerWall
    {
        type            zeroGradient;
    }
    frontAndBack
    {
        type            empty;
    }
}


// ************************************************************************* //
