/*--------------------------------*- C++ -*----------------------------------*\
  =========                 |
  \\      /  F ield         | OpenFOAM: The Open Source CFD Toolbox
   \\    /   O peration     | Website:  https://openfoam.org
    \\  /    A nd           | Version:  7
     \\/     M anipulation  |
\*---------------------------------------------------------------------------*/
FoamFile
{
    version     2.0;
    format      ascii;
    class       surfaceScalarField;
    location    "2.5";
    object      phi;
}
// * * * * * * * * * * * * * * * * * * * * * * * * * * * * * * * * * * * * * //

dimensions      [0 3 -1 0 0 0 0];

internalField   nonuniform List<scalar> 
5457
(
0.198418
0.00158248
0.19648
0.00193756
0.194192
0.00228834
0.191508
0.0026839
0.188426
0.00308156
0.184949
0.00347717
0.18107
0.003879
0.176776
0.00429445
0.172047
0.00472865
0.166861
0.00518563
0.161192
0.00566889
0.155011
0.00618136
0.148286
0.00672524
0.140984
0.00730154
0.133075
0.00790962
0.124528
0.00854648
0.115322
0.00920582
0.105445
0.00987702
0.0949015
0.0105438
0.0837183
0.0111832
0.0719541
0.0117642
0.0597062
0.0122479
0.047118
0.0125882
0.0343783
0.0127397
0.0216838
0.0126945
0.00903421
0.0126496
-0.00291742
0.0119516
-0.00847179
0.00555436
-0.00804231
-0.000429474
-0.00804231
0.199928
0.00165443
0.199175
0.00269019
0.197964
0.00349955
0.196331
0.00431741
0.19427
0.00514199
0.19178
0.00596765
0.188852
0.00680642
0.185475
0.00767176
0.18163
0.00857401
0.177294
0.00952147
0.172441
0.0105214
0.167043
0.0115801
0.161066
0.0127023
0.154476
0.0138907
0.147241
0.0151448
0.139328
0.0164596
0.13071
0.0178237
0.12137
0.019217
0.111305
0.0206084
0.100536
0.0219527
0.0891119
0.0231883
0.0771247
0.024235
0.0647192
0.0249937
0.0521122
0.0253466
0.0396525
0.0251543
0.0281031
0.024199
0.0185924
0.0214623
0.00879444
0.0153523
0.00118218
0.00718279
-0.00686014
0.19978
0.00187397
0.199086
0.00338422
0.197945
0.00464074
0.196408
0.00585435
0.194482
0.0070685
0.192162
0.00828712
0.189444
0.00952429
0.186319
0.0107977
0.18277
0.0121224
0.178781
0.0135108
0.174328
0.0149739
0.169387
0.0165215
0.163928
0.0181612
0.157921
0.0198981
0.151332
0.0217332
0.14413
0.0236615
0.136285
0.0256692
0.127771
0.0277308
0.118575
0.0298051
0.108697
0.0318303
0.0981655
0.0337198
0.0870436
0.0353569
0.0754474
0.0365899
0.0635708
0.0372233
0.0517294
0.0369956
0.0403947
0.0355338
0.0297367
0.0321203
0.0191645
0.0259245
0.00959635
0.0167509
0.00273622
0.199703
0.002171
0.199007
0.00407972
0.197887
0.00576154
0.196375
0.0073656
0.194487
0.008957
0.19222
0.0105535
0.189572
0.0121724
0.186536
0.0138341
0.183101
0.0155573
0.179254
0.0173577
0.174979
0.0192493
0.170256
0.0212445
0.165064
0.0233532
0.159379
0.0255825
0.153177
0.0279351
0.146432
0.0304067
0.139118
0.0329835
0.131211
0.035638
0.122692
0.038324
0.113551
0.0409709
0.103795
0.0434763
0.0934526
0.045699
0.0825919
0.0474507
0.0713296
0.0484855
0.0598382
0.048487
0.0483147
0.0470573
0.0368091
0.0436258
0.0251866
0.037547
0.0133349
0.0286026
0.0160711
0.199667
0.0025037
0.198964
0.00478319
0.197862
0.00686314
0.19638
0.00884762
0.194531
0.0108062
0.192316
0.0127686
0.189732
0.0147567
0.186773
0.0167932
0.18343
0.0188994
0.179694
0.0210939
0.175551
0.0233927
0.170985
0.0258099
0.165981
0.0283573
0.160521
0.031043
0.154585
0.0338708
0.148155
0.0368373
0.141209
0.0399292
0.133727
0.0431193
0.125691
0.0463606
0.117082
0.0495799
0.107889
0.0526693
0.0981104
0.0554775
0.087761
0.0578
0.0768756
0.059371
0.0655062
0.0598564
0.053706
0.0588575
0.0414525
0.0558794
0.0285867
0.0504128
0.0148518
0.0423375
0.0309229
0.199653
0.00285101
0.198948
0.00548745
0.19787
0.00794137
0.196426
0.0102922
0.194625
0.0126066
0.192471
0.0149226
0.189961
0.0172668
0.18709
0.0196645
0.18385
0.0221392
0.180232
0.0247116
0.176225
0.0273997
0.171816
0.030219
0.166991
0.0331824
0.161735
0.0362992
0.156032
0.0395739
0.149865
0.043004
0.143217
0.0465774
0.136068
0.0502685
0.128396
0.0540326
0.120176
0.0577991
0.111383
0.0614631
0.101984
0.0648757
0.0919509
0.0678336
0.0812508
0.0700711
0.0698517
0.0712556
0.057715
0.0709942
0.0447593
0.068835
0.0308483
0.0643239
0.0158727
0.057313
0.0467956
0.19965
0.00320107
0.198954
0.00618365
0.197904
0.00899129
0.196504
0.0116922
0.194761
0.0143492
0.192679
0.0170051
0.190254
0.0196909
0.187484
0.0224347
0.184362
0.0252618
0.180878
0.0281951
0.177024
0.0312541
0.172787
0.0344561
0.168154
0.037815
0.163112
0.0413412
0.157646
0.0450404
0.151738
0.0489117
0.145371
0.052945
0.138521
0.0571179
0.131163
0.0613906
0.123263
0.0656995
0.114777
0.0699493
0.10565
0.0740028
0.0958126
0.0776706
0.0851829
0.0807008
0.0736657
0.0827727
0.0611597
0.0835002
0.0475541
0.0824406
0.032758
0.07912
0.0167826
0.0732884
0.0635783
0.199655
0.00354653
0.198974
0.00686398
0.197958
0.0100074
0.196609
0.0130413
0.194933
0.0160257
0.192931
0.0190061
0.190605
0.0220176
0.187949
0.0250905
0.184959
0.0282524
0.181626
0.0315278
0.177942
0.0349381
0.173896
0.038502
0.169476
0.042235
0.164668
0.046149
0.159457
0.0502516
0.153824
0.0545442
0.147749
0.0590203
0.141204
0.0636625
0.134156
0.0684386
0.12656
0.0732958
0.118356
0.0781538
0.109464
0.0828948
0.0997819
0.0873524
0.0891837
0.0912989
0.0775226
0.0944338
0.0646458
0.096377
0.0504167
0.0966698
0.0347679
0.0947688
0.0177898
0.0902665
0.081368
0.199664
0.00388248
0.199006
0.00752201
0.198029
0.0109839
0.196738
0.0143332
0.195135
0.0176282
0.193225
0.0209164
0.191006
0.024236
0.188477
0.0276197
0.185633
0.031097
0.182466
0.0346941
0.17897
0.0384342
0.175135
0.0423375
0.170948
0.0464214
0.166397
0.0506999
0.161466
0.0551831
0.156134
0.0598758
0.150378
0.0647767
0.144165
0.0698754
0.137454
0.0751498
0.130188
0.0805618
0.122291
0.0860508
0.11366
0.091525
0.104163
0.0968497
0.09363
0.101832
0.0818621
0.106202
0.0686481
0.109591
0.0538017
0.111516
0.0372369
0.111334
0.0190837
0.10842
0.100452
0.199677
0.00420538
0.199047
0.00815248
0.198115
0.0119156
0.196886
0.0155619
0.195365
0.0191496
0.193554
0.0227276
0.191453
0.0263364
0.189062
0.0300111
0.186376
0.0337829
0.18339
0.0376796
0.180099
0.0417261
0.176492
0.0459444
0.172559
0.0503537
0.168289
0.0549706
0.163663
0.0598084
0.158663
0.0648765
0.15326
0.0701796
0.147419
0.0757163
0.141091
0.0814773
0.134211
0.0874421
0.126688
0.0935743
0.118398
0.0998148
0.109178
0.10607
0.098815
0.112194
0.0870499
0.117967
0.073589
0.123052
0.058149
0.126956
0.0405532
0.128929
0.0209024
0.12807
0.121354
0.199693
0.00451258
0.199094
0.0087511
0.198212
0.0127975
0.197052
0.016722
0.195618
0.0205835
0.193914
0.024432
0.19194
0.0283101
0.189697
0.0322547
0.187181
0.0362987
0.184389
0.0404713
0.181316
0.0447991
0.177955
0.0493056
0.174296
0.0540124
0.170328
0.0589386
0.166035
0.0641011
0.161398
0.0695144
0.156387
0.0751903
0.150966
0.0811376
0.145082
0.0873612
0.138663
0.0938609
0.131609
0.100628
0.123781
0.107643
0.114989
0.114862
0.104978
0.122206
0.0934163
0.129528
0.0798978
0.13657
0.0639698
0.142884
0.0452378
0.147662
0.023614
0.149694
0.144968
0.199711
0.00480202
0.199147
0.00931436
0.198319
0.0136255
0.197233
0.0178087
0.195892
0.0219242
0.194301
0.026023
0.192462
0.0301493
0.190375
0.0343416
0.188039
0.0386342
0.185453
0.0430577
0.182612
0.0476399
0.179511
0.0524062
0.176144
0.05738
0.1725
0.062583
0.168565
0.0680359
0.164321
0.0737582
0.159742
0.0797693
0.154791
0.0860883
0.149417
0.0927351
0.143548
0.0997305
0.13708
0.107096
0.129868
0.114855
0.121707
0.123023
0.112308
0.131604
0.10127
0.140566
0.088046
0.149795
0.071927
0.159003
0.0520922
0.167496
0.0278905
0.173896
0.172859
0.19973
0.00507208
0.199205
0.00983939
0.198435
0.0143958
0.197425
0.0188178
0.196183
0.0231668
0.194711
0.0274948
0.193013
0.0318474
0.19109
0.0362643
0.188943
0.0407809
0.186572
0.045429
0.183975
0.0502375
0.181148
0.0552331
0.178087
0.0604409
0.174785
0.0658852
0.171231
0.0715899
0.16741
0.0775792
0.1633
0.0838793
0.158869
0.0905191
0.154072
0.0975322
0.148843
0.10496
0.143087
0.112852
0.136667
0.121275
0.129382
0.130308
0.120934
0.140052
0.11088
0.150621
0.0985449
0.162129
0.0829085
0.17464
0.062447
0.187958
0.0351351
0.201208
0.207994
0.199751
0.00532151
0.199266
0.0103239
0.198556
0.0151056
0.197628
0.0197458
0.196488
0.0243072
0.19514
0.0288428
0.193588
0.033399
0.191836
0.0380166
0.189885
0.0427318
0.187737
0.0475772
0.185392
0.0525826
0.182849
0.0577756
0.180107
0.0631827
0.177163
0.0688299
0.174009
0.0747438
0.170636
0.0809525
0.167027
0.0874875
0.163161
0.0943855
0.159002
0.101691
0.154499
0.109462
0.149577
0.117774
0.144127
0.126726
0.137979
0.136456
0.130875
0.147155
0.122402
0.159095
0.111863
0.172668
0.0980293
0.188473
0.0785581
0.207429
0.048687
0.231079
0.256681
0.199772
0.00554935
0.19933
0.0107661
0.198683
0.0157525
0.197839
0.0205899
0.196804
0.0253422
0.195584
0.0300632
0.194183
0.0347999
0.192606
0.0395938
0.190856
0.0444816
0.188937
0.0494964
0.186851
0.0546683
0.184601
0.0600256
0.182188
0.0655955
0.179613
0.0714053
0.176874
0.0774829
0.173967
0.083859
0.170886
0.0905684
0.167619
0.0976528
0.164146
0.105164
0.160439
0.11317
0.156454
0.121759
0.152126
0.131054
0.147354
0.141228
0.14198
0.152529
0.135743
0.165332
0.128172
0.180239
0.118329
0.198317
0.103961
0.221797
0.0777472
0.257293
0.334428
0.00534714
-0.00534714
0.0103167
-0.00496955
0.0145767
-0.00425999
0.0181946
-0.00361788
0.021286
-0.00309144
0.0239496
-0.0026636
0.0262653
-0.00231573
0.0282975
-0.00203213
0.0300956
-0.00179815
0.0316972
-0.00160154
0.0331289
-0.00143172
0.0344033
-0.00127438
0.0355094
-0.00110615
0.0364109
-0.000901456
0.0370692
-0.000658327
0.037487
-0.000417821
0.0377122
-0.00022522
0.0377716
-5.93517e-05
0.0376567
0.000114916
0.0374028
0.000253911
0.0370851
0.000317697
0.0368087
0.000276324
0.0366565
0.000152266
0.0366942
-3.77424e-05
0.0369461
-0.000251918
0.0374429
-0.000496773
0.0381883
-0.000745413
0.0391748
-0.000986445
0.040366
-0.00119126
-0.00114317
0.00450571
-0.00985285
0.00889712
-0.00936096
0.0127441
-0.00810695
0.0160628
-0.00693663
0.0189503
-0.00597892
0.0214909
-0.00520417
0.0237503
-0.00457514
0.0257788
-0.0040607
0.0276141
-0.00363344
0.0292852
-0.00327265
0.0308173
-0.0029638
0.0322303
-0.00268733
0.0335274
-0.00240327
0.0346817
-0.00205572
0.0356467
-0.00162338
0.0364062
-0.00117729
0.0370173
-0.000836362
0.0375255
-0.000567544
0.0379145
-0.000274088
0.0381667
1.77345e-06
0.0382964
0.000187996
0.0383862
0.000186484
0.0384545
8.39565e-05
0.0385011
-8.43229e-05
0.0385367
-0.000287517
0.0385351
-0.000495175
0.0385045
-0.000714835
0.0384752
-0.00095711
0.0384999
-0.00121594
-0.00155703
0.0035099
-0.0133628
0.00686091
-0.012712
0.00976928
-0.0110153
0.0122718
-0.00943919
0.014442
-0.00814904
0.0163404
-0.00710255
0.0180159
-0.00625066
0.019504
-0.00554886
0.0208286
-0.00495798
0.0220065
-0.00445053
0.0230566
-0.00401392
0.0240042
-0.00363497
0.024866
-0.00326501
0.025624
-0.00281377
0.026217
-0.00221633
0.0265989
-0.00155926
0.0268791
-0.00111655
0.0270619
-0.000750352
0.0268537
-6.58226e-05
0.0261214
0.000734015
0.0249357
0.0013737
0.0234196
0.00170263
0.0217339
0.00176956
0.0200602
0.00158947
0.0186049
0.00116775
0.0175796
0.000530139
0.0169468
-8.20743e-05
0.0167596
-0.000769932
0.0171262
-0.00158246
-0.00248869
0.0024705
-0.0158333
0.00462333
-0.0148648
0.006403
-0.012795
0.00790032
-0.0109365
0.0091601
-0.00940883
0.0102169
-0.00815935
0.0111022
-0.00713597
0.0118383
-0.00628495
0.0124365
-0.00555613
0.0128971
-0.00491119
0.0132196
-0.0043364
0.0134252
-0.00384054
0.0135525
-0.00339234
0.0136314
-0.0028927
0.0136108
-0.00219566
0.0131779
-0.00112643
0.0119514
0.000109985
0.010137
0.00106404
0.00846123
0.00160994
0.00708974
0.00210551
0.00583392
0.00262952
0.00462745
0.0029091
0.00352262
0.00287439
0.00259889
0.00251321
0.00193042
0.00183621
0.00157456
0.000886005
0.00168845
-0.000195967
0.00222388
-0.00130536
0.00314477
-0.00250335
-0.00344152
0.00130482
-0.0171381
0.00213916
-0.0156991
0.00268088
-0.0133367
0.00304456
-0.0113002
0.0032404
-0.00960467
0.00328571
-0.00820465
0.00319642
-0.00704668
0.00298661
-0.00607513
0.00266515
-0.00523467
0.00222642
-0.00447246
0.00163678
-0.00374676
0.000821053
-0.00302481
-0.000294047
-0.00227724
-0.00168594
-0.00150081
-0.00327089
-0.000610706
-0.0047162
0.000318874
-0.00573276
0.00112654
-0.00648701
0.0018183
-0.0072876
0.00241053
-0.00806484
0.00288274
-0.00869224
0.00325693
-0.00917211
0.00338897
-0.00950167
0.00320395
-0.00967706
0.0026886
-0.00970772
0.00186687
-0.00961542
0.000793699
-0.00938765
-0.000423734
-0.00902271
-0.0016703
-0.00866018
-0.00286588
-0.00380454
-6.86152e-05
-0.0170695
-0.000570067
-0.0151977
-0.00131968
-0.0125871
-0.00218394
-0.0104359
-0.0031658
-0.00862281
-0.00425122
-0.00711923
-0.00543376
-0.00586415
-0.00670705
-0.00480185
-0.00806195
-0.00387977
-0.00948093
-0.00305347
-0.0109324
-0.0022953
-0.0123754
-0.00158177
-0.0137731
-0.000879561
-0.0151031
-0.000170784
-0.0162049
0.000491042
-0.0170344
0.00114839
-0.0177175
0.00180966
-0.0183063
0.00240711
-0.018797
0.00290125
-0.0191841
0.00326978
-0.0194167
0.00348957
-0.0195042
0.00347642
-0.019475
0.00317472
-0.019361
0.00257467
-0.0191967
0.00170259
-0.0190122
0.000609111
-0.0188291
-0.000606762
-0.0186577
-0.00184172
-0.0185086
-0.00301503
-0.0039609
-0.0014334
-0.0156361
-0.0033939
-0.0132372
-0.00545247
-0.0105285
-0.00755837
-0.00833004
-0.0096564
-0.00652479
-0.0117234
-0.00505221
-0.0137314
-0.0038562
-0.0156551
-0.00287809
-0.0174727
-0.00206219
-0.0191743
-0.00135183
-0.0207539
-0.000715762
-0.0222019
-0.000133793
-0.0234668
0.00038539
-0.024498
0.000860376
-0.0253503
0.00134342
-0.0260639
0.00186191
-0.0266335
0.00237929
-0.0270687
0.00284225
-0.0273755
0.00320812
-0.0275535
0.00344772
-0.0275919
0.00352797
-0.0275094
0.00339395
-0.0273414
0.00300673
-0.0271268
0.00236009
-0.0269039
0.00147964
-0.0267076
0.000412894
-0.0265691
-0.000745313
-0.0264929
-0.0019179
-0.0264659
-0.00304203
-0.00394654
-0.00289741
-0.0127386
-0.00620545
-0.00992914
-0.00949241
-0.00724158
-0.0126318
-0.00519064
-0.0155529
-0.00360369
-0.018239
-0.0023661
-0.020679
-0.0014162
-0.0228814
-0.000675727
-0.0248576
-8.59821e-05
-0.0265899
0.000380445
-0.0280702
0.000764565
-0.0293163
0.00111229
-0.0303788
0.00144792
-0.0313081
0.00178969
-0.0321081
0.00214343
-0.0327593
0.00251304
-0.0332548
0.00287485
-0.0336021
0.00318951
-0.0338122
0.00341822
-0.0338927
0.00352821
-0.0338504
0.00348573
-0.0337081
0.00325164
-0.0335004
0.00279899
-0.0332658
0.00212551
-0.0330438
0.00125768
-0.0328721
0.000241198
-0.0327837
-0.000833764
-0.032781
-0.00192062
-0.0328549
-0.00296811
-0.00378667
-0.00441321
-0.00832543
-0.0089771
-0.00536526
-0.0133222
-0.00289644
-0.0172634
-0.00124944
-0.0207504
-0.000116764
-0.0237424
0.000625938
-0.0262753
0.00111667
-0.0284152
0.00146419
-0.0302274
0.00172621
-0.0317871
0.00194017
-0.033158
0.00213544
-0.0343644
0.00231872
-0.035417
0.0025005
-0.036318
0.00269071
-0.0370695
0.00289494
-0.0376677
0.00311119
-0.0381133
0.00332048
-0.0384145
0.00349074
-0.0385829
0.00358661
-0.0386299
0.00357516
-0.0385694
0.00342527
-0.0384257
0.00310791
-0.0382318
0.00260509
-0.0380246
0.00191834
-0.0378409
0.00107398
-0.0377178
0.000118068
-0.0376858
-0.000865697
-0.0377546
-0.00185187
-0.0379174
-0.00280527
-0.00353536
-0.00621184
-0.0021136
-0.0120999
0.000522797
-0.0170583
0.00206192
-0.0211985
0.00289081
-0.0246182
0.00330288
-0.0274745
0.00348229
-0.0299166
0.00355878
-0.0320226
0.00357017
-0.033846
0.00354961
-0.0354288
0.00352296
-0.0368008
0.00350746
-0.0379891
0.00350698
-0.03901
0.00352141
-0.0398713
0.003552
-0.0405781
0.00360174
-0.0411351
0.00366817
-0.0415495
0.00373493
-0.0418315
0.00377276
-0.0419923
0.00374738
-0.0420438
0.0036267
-0.042002
0.00338347
-0.0418907
0.00299658
-0.0417407
0.00245512
-0.0415864
0.00176403
-0.0414628
0.000950327
-0.0414054
6.07347e-05
-0.0414417
-0.000829453
-0.0415839
-0.00170967
-0.0418275
-0.00256168
-0.0032126
-0.00748414
0.00537055
-0.0139165
0.00695517
-0.0191308
0.00727621
-0.0234414
0.0072014
-0.0270192
0.00688065
-0.030004
0.00646714
-0.0325027
0.00605747
-0.0346156
0.00568309
-0.0364163
0.00535031
-0.0379582
0.00506488
-0.0392828
0.00483204
-0.0404218
0.004646
-0.0413939
0.00449349
-0.0422083
0.00436636
-0.0428726
0.00426605
-0.0433972
0.00419282
-0.0437948
0.00413246
-0.044077
0.00405498
-0.0442539
0.00392426
-0.0443357
0.00370856
-0.0443374
0.00338519
-0.0442814
0.00294054
-0.0441963
0.00236997
-0.0441132
0.00168102
-0.044064
0.000901123
-0.044083
7.9652e-05
-0.0441926
-0.000719776
-0.0444095
-0.00149277
-0.0447304
-0.00224087
-0.00281882
-0.00812005
0.0134906
-0.0152142
0.0140493
-0.0209351
0.0129971
-0.0254565
0.0117228
-0.0290679
0.0104921
-0.0319907
0.00938991
-0.0343915
0.00845833
-0.0363992
0.00769071
-0.0380956
0.00704671
-0.0395359
0.00650525
-0.0407687
0.0060648
-0.0418315
0.00570885
-0.0427425
0.0054044
-0.0435064
0.00513033
-0.0441304
0.00488998
-0.0446295
0.00469195
-0.0450219
0.00452487
-0.0453208
0.00435384
-0.0455332
0.00413671
-0.0456656
0.00384094
-0.0457298
0.00344944
-0.0457465
0.00295715
-0.0457421
0.00236565
-0.0457449
0.00168383
-0.0457818
0.000938028
-0.0458813
0.000179053
-0.0460662
-0.000534871
-0.0463581
-0.00120078
-0.0467571
-0.00184196
-0.00234857
-0.00937075
0.0228614
-0.0173111
0.0219896
-0.0232069
0.0188929
-0.0275668
0.0160827
-0.0309239
0.0138493
-0.0335653
0.0120313
-0.0356965
0.0105895
-0.03748
0.00947428
-0.0389939
0.00856064
-0.040276
0.00778726
-0.0413764
0.00716525
-0.042342
0.00667439
-0.0431863
0.00624875
-0.0439014
0.00584544
-0.0444882
0.00547674
-0.0449676
0.00517136
-0.045366
0.00492328
-0.0456978
0.00468569
-0.0459646
0.00440352
-0.0461657
0.00404195
-0.0463082
0.00359201
-0.0464112
0.00306015
-0.0465005
0.00245488
-0.0466009
0.0017843
-0.0467332
0.00107028
-0.0469173
0.000363155
-0.0471772
-0.000274974
-0.0475435
-0.000834448
-0.0480244
-0.00136108
-0.00179405
-0.0116666
0.034528
-0.0207618
0.0310848
-0.0263524
0.0244835
-0.0299382
0.0196685
-0.0326729
0.016584
-0.0347903
0.0141486
-0.0364609
0.0122601
-0.0379054
0.0109188
-0.0391784
0.00983356
-0.0402545
0.00886343
-0.0411834
0.00809416
-0.0420367
0.00752761
-0.0428201
0.00703221
-0.0434958
0.00652114
-0.04405
0.00603094
-0.0445142
0.00563553
-0.0449303
0.00533938
-0.0453142
0.00506957
-0.0456564
0.00474574
-0.0459442
0.00432976
-0.0461787
0.00382655
-0.0463787
0.00326013
-0.0465715
0.00264765
-0.0467799
0.00199275
-0.0470168
0.00130712
-0.0472919
0.00063827
-0.0476269
6.00834e-05
-0.0480649
-0.000396515
-0.0486325
-0.000793495
-0.00114393
-0.0158535
0.0503815
-0.0264808
0.0417121
-0.0309469
0.0289495
-0.032567
0.0212886
-0.0342692
0.0182863
-0.0356523
0.0155316
-0.0366435
0.0132513
-0.037646
0.0119213
-0.0386746
0.0108621
-0.0395147
0.00970354
-0.0402238
0.00880333
-0.0409544
0.00825815
-0.041702
0.00777981
-0.0423618
0.00718095
-0.0428892
0.00655836
-0.0433394
0.00608567
-0.0437871
0.00578709
-0.0442494
0.00553187
-0.0446948
0.00519121
-0.0450906
0.00472558
-0.0454301
0.004166
-0.0457351
0.00356512
-0.0460393
0.00295183
-0.0463654
0.00231888
-0.0467169
0.00165857
-0.0470903
0.00101168
-0.0475015
0.000471323
-0.048006
0.00010796
-0.0486625
-0.000136978
-0.000373187
0.207447
0.00576226
0.207034
0.0111789
0.206431
0.0163554
0.205646
0.0213749
0.204686
0.0263021
0.203558
0.0311914
0.202267
0.0360903
0.200821
0.0410405
0.199223
0.046079
0.197481
0.0512389
0.195599
0.0565504
0.193582
0.0620419
0.191437
0.0677406
0.189169
0.0736738
0.186781
0.0798702
0.184279
0.0863609
0.181666
0.0931818
0.178943
0.100376
0.176111
0.107996
0.173167
0.116113
0.170109
0.124817
0.166932
0.134232
0.16363
0.144529
0.160208
0.155951
0.156687
0.168852
0.153166
0.18376
0.150015
0.201469
0.148921
0.22289
0.160722
0.245492
0.258524
0.236626
0.21249
0.00595483
0.212117
0.0115521
0.211573
0.0168994
0.210867
0.0220813
0.210006
0.0271632
0.208997
0.0321997
0.207849
0.0372383
0.206569
0.0423207
0.205164
0.0474838
0.203643
0.0527603
0.202013
0.0581799
0.200285
0.0637704
0.198467
0.0695584
0.19657
0.0755704
0.194606
0.081834
0.192588
0.088379
0.190531
0.0952394
0.188451
0.102456
0.18637
0.110077
0.184317
0.118166
0.182333
0.126801
0.180477
0.136087
0.178851
0.146155
0.177626
0.157176
0.177125
0.169353
0.178005
0.18288
0.181687
0.197787
0.190782
0.213795
0.206303
0.229971
0.245376
0.219452
0.217657
0.00612493
0.217328
0.0118814
0.216849
0.0173785
0.216229
0.0227016
0.215476
0.0279163
0.214598
0.0330772
0.213605
0.0382315
0.212505
0.0434205
0.211309
0.0486805
0.210026
0.0540434
0.208668
0.0595378
0.207248
0.0651904
0.20578
0.0710261
0.204281
0.0770697
0.202768
0.0833463
0.201265
0.0898824
0.199797
0.0967078
0.198396
0.103856
0.197105
0.111368
0.195979
0.119291
0.195097
0.127683
0.194573
0.136611
0.194576
0.146152
0.19537
0.156382
0.197366
0.167357
0.201175
0.179071
0.207565
0.191397
0.217193
0.204167
0.229765
0.217399
0.228514
0.246626
0.222951
0.00627055
0.222669
0.012163
0.222261
0.0177872
0.221734
0.0232285
0.221098
0.0285526
0.220361
0.0338136
0.219534
0.0390582
0.218628
0.0443268
0.217654
0.0496546
0.216625
0.0550723
0.215556
0.0606071
0.214463
0.0662835
0.213364
0.0721245
0.212283
0.0781517
0.211242
0.0843864
0.210274
0.0908507
0.209415
0.0975674
0.208709
0.104562
0.208217
0.111861
0.208014
0.119495
0.208202
0.127494
0.208923
0.135891
0.210369
0.144706
0.212803
0.153948
0.216571
0.163589
0.222092
0.173551
0.22981
0.183678
0.240293
0.193684
0.254453
0.20324
0.21009
0.272877
0.228374
0.00638983
0.228144
0.0123933
0.227811
0.0181202
0.227384
0.0236554
0.226872
0.0290642
0.226286
0.0343997
0.225636
0.0397078
0.224935
0.0450278
0.224197
0.0503934
0.223435
0.0558336
0.222669
0.0613735
0.221917
0.0670354
0.221203
0.072839
0.220552
0.0788023
0.219996
0.084942
0.219573
0.0912741
0.219327
0.0978136
0.219313
0.104575
0.219602
0.111572
0.22028
0.118816
0.221462
0.126313
0.22329
0.134062
0.225951
0.142046
0.229673
0.150226
0.234736
0.158526
0.241467
0.166819
0.250242
0.174903
0.261505
0.182421
0.275725
0.18902
0.193616
0.292199
0.233929
0.0064811
0.233753
0.0125692
0.233501
0.0183729
0.23318
0.0239764
0.2328
0.0294438
0.232373
0.0348273
0.231909
0.0401713
0.231423
0.0455137
0.23093
0.0508865
0.230447
0.0563165
0.229994
0.0618264
0.229594
0.0674357
0.229273
0.0731604
0.22906
0.0790145
0.228993
0.0850092
0.229113
0.091154
0.229471
0.0974557
0.230128
0.103918
0.231158
0.110542
0.232653
0.117321
0.234723
0.124243
0.237505
0.13128
0.241162
0.138389
0.245886
0.145502
0.251895
0.152516
0.259431
0.159284
0.268734
0.1656
0.27998
0.171175
0.293262
0.175739
0.17878
0.308098
0.23962
0.00654285
0.239501
0.0126876
0.239333
0.0185411
0.239123
0.0241861
0.238882
0.0296853
0.23862
0.0350893
0.23835
0.0404411
0.238087
0.0457766
0.237848
0.0511258
0.237651
0.0565132
0.237518
0.0619588
0.237475
0.0674787
0.237551
0.0730853
0.237777
0.078788
0.238193
0.0845928
0.238845
0.0905023
0.239785
0.0965156
0.241076
0.102627
0.242793
0.108825
0.245022
0.115092
0.247868
0.121398
0.251447
0.1277
0.255897
0.13394
0.261365
0.140034
0.268007
0.145875
0.275971
0.151319
0.285378
0.156193
0.296269
0.160283
0.308633
0.163375
0.165202
0.322211
0.245448
0.00657382
0.24539
0.0127462
0.245309
0.0186215
0.245215
0.0242804
0.245117
0.0297836
0.245025
0.0351804
0.244955
0.0405115
0.244921
0.0458109
0.244941
0.0511061
0.245034
0.0564193
0.245226
0.0617675
0.245541
0.0671635
0.24601
0.072616
0.246668
0.0781297
0.247556
0.0837055
0.248718
0.0893401
0.250208
0.0950255
0.252087
0.100748
0.254424
0.106488
0.2573
0.112216
0.260802
0.117895
0.26503
0.123473
0.270087
0.128883
0.276079
0.134042
0.283105
0.138848
0.291246
0.143178
0.300547
0.146892
0.310998
0.149833
0.32253
0.151843
0.152791
0.334941
0.251418
0.00657299
0.251421
0.012743
0.251431
0.0186113
0.251456
0.0242557
0.251504
0.0297352
0.251588
0.0350966
0.251721
0.0403786
0.251919
0.0456131
0.2522
0.050825
0.252586
0.0560338
0.253099
0.0612537
0.253769
0.0664941
0.254625
0.0717601
0.255702
0.0770524
0.25704
0.0823672
0.258685
0.087696
0.260685
0.0930253
0.263097
0.0983356
0.265985
0.1036
0.269416
0.108786
0.273462
0.113848
0.278201
0.118734
0.283706
0.123378
0.290047
0.127701
0.29728
0.131615
0.305438
0.13502
0.314523
0.137807
0.324489
0.139867
0.335237
0.141094
0.141432
0.346596
0.257532
0.00653961
0.257599
0.0126766
0.257701
0.0185085
0.257847
0.02411
0.258045
0.0295375
0.258306
0.0348356
0.258644
0.0400408
0.259074
0.0451823
0.259617
0.0502828
0.260292
0.0553589
0.261123
0.0604221
0.262139
0.0654787
0.263368
0.0705305
0.264846
0.0755745
0.26661
0.0806033
0.268701
0.0856044
0.271167
0.09056
0.274055
0.0954468
0.277421
0.100235
0.281318
0.104888
0.285805
0.109362
0.290934
0.113604
0.296757
0.117555
0.303313
0.121146
0.310625
0.124303
0.318696
0.126949
0.327498
0.129004
0.336968
0.130397
0.347
0.131062
0.130978
0.357455
0.263794
0.00647321
0.263924
0.0125462
0.264121
0.018312
0.264389
0.0238419
0.264737
0.0291895
0.265176
0.034397
0.265718
0.0394982
0.26638
0.0445201
0.267181
0.0494827
0.268139
0.0544001
0.26928
0.0592813
0.270629
0.0641296
0.272215
0.0689442
0.274071
0.0737192
0.27623
0.078444
0.278731
0.0831036
0.281613
0.0876777
0.284919
0.0921409
0.288692
0.0964625
0.292974
0.100606
0.297807
0.104529
0.303227
0.108185
0.309262
0.11152
0.31593
0.114478
0.323231
0.117002
0.331148
0.119032
0.339636
0.120516
0.348627
0.121406
0.358023
0.121666
0.121297
0.367704
0.270207
0.0063736
0.270401
0.0123514
0.270692
0.0180215
0.271083
0.0234513
0.27158
0.0286916
0.272196
0.0337817
0.272941
0.0387532
0.273831
0.0436302
0.274883
0.0484305
0.276117
0.053166
0.277555
0.057843
0.279222
0.0624627
0.281144
0.0670219
0.283351
0.0715126
0.285873
0.0759223
0.288742
0.0802343
0.291993
0.0844272
0.295658
0.0884754
0.299772
0.0923489
0.304364
0.0960133
0.309463
0.0994305
0.315088
0.102559
0.321253
0.105356
0.327956
0.107775
0.335185
0.109773
0.342909
0.111309
0.351077
0.112347
0.359622
0.112862
0.368453
0.112834
0.112277
0.377473
0.276774
0.00624089
0.277032
0.0120925
0.277416
0.0176375
0.277928
0.0229393
0.278575
0.0280455
0.279364
0.0329927
0.280307
0.0378098
0.281419
0.0425186
0.282715
0.0471346
0.284213
0.0516676
0.285934
0.0561217
0.287901
0.0604964
0.290136
0.0647868
0.292665
0.0689834
0.295514
0.0730728
0.298711
0.0770376
0.302282
0.0808566
0.306252
0.0845051
0.310645
0.0879553
0.315483
0.0911762
0.320778
0.0941349
0.326541
0.0967966
0.33277
0.0991265
0.339454
0.10109
0.34657
0.102657
0.354082
0.103798
0.361936
0.104493
0.37007
0.104728
0.378405
0.104499
0.103824
0.386857
0.283498
0.00607546
0.28382
0.0117702
0.284297
0.0171613
0.284928
0.0223078
0.285719
0.0272542
0.286678
0.0320341
0.287814
0.0366739
0.289139
0.0411931
0.290669
0.0456053
0.292418
0.049918
0.294406
0.054134
0.296651
0.0582514
0.299174
0.0622639
0.301996
0.0661616
0.305138
0.0699306
0.308621
0.073554
0.312466
0.0770116
0.316691
0.0802808
0.321309
0.0833364
0.326334
0.0861519
0.331769
0.0886996
0.337614
0.0909518
0.343859
0.0928816
0.350485
0.094464
0.357464
0.0956777
0.364756
0.0965057
0.372311
0.0969371
0.380071
0.0969683
0.387968
0.0966025
0.0958602
0.395932
0.290384
0.00587792
0.290768
0.0113858
0.291335
0.0165949
0.292083
0.0215599
0.293015
0.0263217
0.294138
0.0309115
0.295459
0.0353529
0.296988
0.0396633
0.298739
0.0438544
0.300725
0.0479322
0.302961
0.0518982
0.305463
0.0557494
0.308248
0.0594792
0.311332
0.0630773
0.314732
0.0665303
0.318464
0.0698224
0.32254
0.0729351
0.326973
0.0758481
0.331769
0.0785401
0.336932
0.0809888
0.34246
0.0831718
0.348344
0.0850677
0.354569
0.0866569
0.361111
0.0879221
0.367939
0.0888499
0.375013
0.0894314
0.382287
0.089663
0.389708
0.0895471
0.397219
0.0890918
0.0883183
0.404761
0.297435
0.00564916
0.297879
0.0109411
0.298533
0.015941
0.299394
0.0206993
0.300462
0.0252534
0.301742
0.0296316
0.30324
0.0338553
0.304963
0.0379399
0.306922
0.0418953
0.309128
0.0457263
0.311593
0.0494333
0.314329
0.053013
0.31735
0.0564585
0.320668
0.0597599
0.324293
0.0629048
0.328237
0.0658788
0.332506
0.0686656
0.337106
0.0712479
0.342039
0.0736077
0.347301
0.0757271
0.352883
0.0775888
0.358774
0.0791772
0.364953
0.0804783
0.371393
0.0814814
0.378064
0.0821791
0.384927
0.0825682
0.39194
0.0826502
0.399056
0.0824313
0.406226
0.0819224
0.081144
0.4134
0.304654
0.00539022
0.305157
0.0104381
0.305895
0.0152029
0.306864
0.0197305
0.308062
0.024055
0.309492
0.028202
0.311157
0.0321907
0.313062
0.0360345
0.315215
0.0397419
0.317625
0.0433167
0.320299
0.0467587
0.323248
0.0500644
0.326479
0.0532271
0.330002
0.0562376
0.333822
0.0590849
0.337944
0.0617562
0.342372
0.0642377
0.347105
0.066515
0.352139
0.0685735
0.357467
0.0703996
0.363075
0.0719803
0.368948
0.0733045
0.375063
0.0743635
0.381393
0.0751513
0.387907
0.0756651
0.394569
0.0759058
0.401341
0.075878
0.408182
0.0755903
0.41505
0.0750548
0.0742909
0.421903
0.312046
0.00510232
0.312605
0.00987923
0.313424
0.0143841
0.314496
0.0186585
0.315818
0.0227331
0.317389
0.026631
0.31921
0.0303691
0.321285
0.0339593
0.323619
0.0374087
0.326215
0.0407203
0.32908
0.0438937
0.332219
0.0469253
0.335637
0.0498089
0.339338
0.0525366
0.343325
0.0550985
0.347597
0.0574838
0.352154
0.0596812
0.35699
0.061679
0.362097
0.0634661
0.367464
0.0650321
0.373077
0.0663681
0.378914
0.0674669
0.384954
0.0683235
0.39117
0.0689357
0.397531
0.0693039
0.404005
0.0694317
0.410557
0.0693259
0.417152
0.068996
0.423752
0.0684544
0.0677191
0.430324
0.319615
0.00478678
0.320227
0.00926709
0.321123
0.0134887
0.322293
0.0174887
0.323731
0.0212947
0.325435
0.0249271
0.327403
0.028401
0.329636
0.0317266
0.332134
0.0349099
0.334901
0.0379535
0.337938
0.0408566
0.341248
0.043616
0.34483
0.0462263
0.348686
0.0486805
0.352815
0.0509703
0.357211
0.0530869
0.361871
0.0550213
0.366786
0.0567643
0.371945
0.0583077
0.377332
0.0596443
0.382932
0.0607682
0.388724
0.0616753
0.394684
0.0623636
0.400786
0.0628336
0.407002
0.0630879
0.413302
0.0631318
0.419655
0.0629731
0.426029
0.0626218
0.432393
0.0620899
0.0613938
0.438718
0.327365
0.00444495
0.328028
0.00860435
0.328996
0.0125205
0.330258
0.0162265
0.331806
0.0197467
0.333634
0.0230991
0.335739
0.0262967
0.338117
0.0293484
0.340767
0.0322595
0.343689
0.0350318
0.346881
0.0376647
0.350341
0.0401553
0.354069
0.0424991
0.358059
0.0446901
0.362308
0.0467216
0.366808
0.0485868
0.371551
0.0502784
0.376525
0.0517899
0.381718
0.0531153
0.387112
0.05425
0.39269
0.0551906
0.398429
0.0559354
0.404308
0.0564846
0.410302
0.0568404
0.416383
0.057007
0.422524