/*--------------------------------*- C++ -*----------------------------------*\
  =========                 |
  \\      /  F ield         | OpenFOAM: The Open Source CFD Toolbox
   \\    /   O peration     | Website:  https://openfoam.org
    \\  /    A nd           | Version:  7
     \\/     M anipulation  |
\*---------------------------------------------------------------------------*/
FoamFile
{
    version     2.0;
    format      ascii;
    class       volVectorField;
    location    "2.5";
    object      U;
}
// * * * * * * * * * * * * * * * * * * * * * * * * * * * * * * * * * * * * * //

dimensions      [0 1 -1 0 0 0 0];

internalField   nonuniform List<vector> 
2790
(
(9.94399 0.0205245 0)
(9.87571 0.0295903 0)
(9.77519 0.0359934 0)
(9.6494 0.0425611 0)
(9.50403 0.0493914 0)
(9.33999 0.0564351 0)
(9.15644 0.0638234 0)
(8.95249 0.0717198 0)
(8.72731 0.0802639 0)
(8.4799 0.0895825 0)
(8.20906 0.0998026 0)
(7.91341 0.111054 0)
(7.59143 0.123469 0)
(7.2415 0.137173 0)
(6.86203 0.152281 0)
(6.45149 0.168877 0)
(6.00856 0.187004 0)
(5.53236 0.206624 0)
(5.02265 0.227594 0)
(4.48014 0.249613 0)
(3.90686 0.272176 0)
(3.30655 0.294522 0)
(2.68503 0.315614 0)
(2.05039 0.33428 0)
(1.4116 0.350595 0)
(0.79788 0.37287 0)
(0.110519 0.324945 0)
(-0.469474 -0.114862 0)
(-0.453755 -0.297035 0)
(-0.231128 -0.423768 0)
(9.9985 0.0407072 0)
(9.98144 0.0623908 0)
(9.93572 0.0791517 0)
(9.86412 0.0966394 0)
(9.77091 0.115141 0)
(9.65707 0.134508 0)
(9.52195 0.154997 0)
(9.36472 0.176966 0)
(9.18456 0.200732 0)
(8.98049 0.226574 0)
(8.75131 0.254769 0)
(8.49565 0.285584 0)
(8.21194 0.319272 0)
(7.89854 0.356044 0)
(7.55374 0.396038 0)
(7.17588 0.439278 0)
(6.76347 0.485603 0)
(6.31534 0.534593 0)
(5.83093 0.585462 0)
(5.31057 0.636948 0)
(4.75585 0.687192 0)
(4.17013 0.733628 0)
(3.55904 0.772929 0)
(2.93132 0.801063 0)
(2.29975 0.813713 0)
(1.69279 0.807212 0)
(1.10701 0.74718 0)
(0.658807 0.547854 0)
(0.186259 0.224478 0)
(-0.00818488 -0.453735 0)
(9.99559 0.043214 0)
(9.97555 0.0752851 0)
(9.93178 0.103365 0)
(9.86486 0.132396 0)
(9.77772 0.163088 0)
(9.67147 0.195432 0)
(9.54577 0.229779 0)
(9.4 0.266642 0)
(9.2335 0.306511 0)
(9.04545 0.349848 0)
(8.83488 0.397113 0)
(8.60058 0.448761 0)
(8.34119 0.505229 0)
(8.05523 0.566897 0)
(7.74109 0.634039 0)
(7.39714 0.706752 0)
(7.0218 0.784851 0)
(6.61364 0.867729 0)
(6.17163 0.95419 0)
(5.69534 1.04224 0)
(5.18534 1.12886 0)
(4.64369 1.20975 0)
(4.07455 1.27911 0)
(3.48516 1.32928 0)
(2.88666 1.35003 0)
(2.29931 1.32636 0)
(1.73172 1.22069 0)
(1.21616 0.972927 0)
(0.701072 0.570083 0)
(0.35797 -0.156645 0)
(9.99402 0.049509 0)
(9.9718 0.0932251 0)
(9.92786 0.133599 0)
(9.86221 0.174243 0)
(9.77687 0.216474 0)
(9.6729 0.260707 0)
(9.55021 0.30748 0)
(9.40836 0.357469 0)
(9.24686 0.411347 0)
(9.06515 0.469762 0)
(8.86247 0.533358 0)
(8.63796 0.602777 0)
(8.39059 0.678641 0)
(8.11924 0.761518 0)
(7.82271 0.851856 0)
(7.49971 0.949901 0)
(7.14894 1.05556 0)
(6.76913 1.16824 0)
(6.35919 1.28659 0)
(5.91831 1.40824 0)
(5.44625 1.52943 0)
(4.94375 1.64463 0)
(4.41294 1.74607 0)
(3.85807 1.82314 0)
(3.28565 1.86128 0)
(2.70626 1.84023 0)
(2.12554 1.7259 0)
(1.55418 1.47776 0)
(0.9579 1.0836 0)
(0.509403 0.502231 0)
(9.99331 0.0572263 0)
(9.96993 0.110983 0)
(9.92591 0.162139 0)
(9.86142 0.213392 0)
(9.77793 0.266409 0)
(9.67626 0.321974 0)
(9.55643 0.380767 0)
(9.41808 0.443558 0)
(9.26081 0.511128 0)
(9.08414 0.584243 0)
(8.88748 0.663659 0)
(8.67014 0.750131 0)
(8.43132 0.844397 0)
(8.17017 0.947138 0)
(7.88577 1.05892 0)
(7.57716 1.1801 0)
(7.24334 1.3107 0)
(6.88329 1.45018 0)
(6.49597 1.5972 0)
(6.08043 1.74928 0)
(5.63588 1.90235 0)
(5.16186 2.05024 0)
(4.65855 2.18408 0)
(4.12702 2.29163 0)
(3.56925 2.35644 0)
(2.98877 2.35719 0)
(2.38674 2.26483 0)
(1.76633 2.04751 0)
(1.08996 1.69127 0)
(0.536635 1.15402 0)
(9.99302 0.0655542 0)
(9.96922 0.128731 0)
(9.92554 0.190156 0)
(9.86249 0.251898 0)
(9.78122 0.315643 0)
(9.68236 0.382392 0)
(9.5659 0.452955 0)
(9.43157 0.528187 0)
(9.27903 0.608969 0)
(9.10786 0.696174 0)
(8.91755 0.790667 0)
(8.70748 0.893307 0)
(8.477 1.00493 0)
(8.22537 1.12632 0)
(7.95183 1.25814 0)
(7.65556 1.40085 0)
(7.33569 1.55456 0)
(6.9913 1.71885 0)
(6.62136 1.89252 0)
(6.22469 2.07317 0)
(5.79999 2.25677 0)
(5.34578 2.4371 0)
(4.86048 2.60507 0)
(4.34251 2.74808 0)
(3.79025 2.84939 0)
(3.20247 2.88804 0)
(2.5765 2.83807 0)
(1.91342 2.67146 0)
(1.17273 2.37385 0)
(0.549956 1.89426 0)
(9.99296 0.0740933 0)
(9.96925 0.146349 0)
(9.92635 0.217534 0)
(9.86504 0.289357 0)
(9.78636 0.363432 0)
(9.69076 0.440915 0)
(9.57823 0.522756 0)
(9.44857 0.609913 0)
(9.30147 0.703362 0)
(9.13657 0.804072 0)
(8.95341 0.913006 0)
(8.75143 1.03111 0)
(8.53004 1.15931 0)
(8.28855 1.29848 0)
(8.02625 1.44936 0)
(7.74233 1.61252 0)
(7.43593 1.7882 0)
(7.10604 1.97615 0)
(6.75145 2.17536 0)
(6.37067 2.38374 0)
(5.96179 2.59763 0)
(5.52236 2.81125 0)
(5.04929 3.01599 0)
(4.53882 3.19979 0)
(3.98652 3.34649 0)
(3.38781 3.43577 0)
(2.73719 3.44312 0)
(2.03621 3.34132 0)
(1.24174 3.11341 0)
(0.563511 2.69299 0)
(9.99306 0.0826095 0)
(9.9698 0.163647 0)
(9.92804 0.244109 0)
(9.86881 0.325555 0)
(9.79306 0.409536 0)
(9.70117 0.497309 0)
(9.59311 0.589951 0)
(9.46873 0.688516 0)
(9.32777 0.794065 0)
(9.16993 0.907656 0)
(8.99477 1.03034 0)
(8.80182 1.16316 0)
(8.5905 1.30712 0)
(8.36016 1.46318 0)
(8.11008 1.63222 0)
(7.83942 1.81492 0)
(7.54721 2.01169 0)
(7.23227 2.2225 0)
(6.89311 2.44668 0)
(6.52779 2.6826 0)
(6.13374 2.92722 0)
(5.70755 3.1756 0)
(5.24471 3.42016 0)
(4.73958 3.64997 0)
(4.18534 3.85 0)
(3.57467 4.00065 0)
(2.89948 4.07768 0)
(2.1621 4.05218 0)
(1.31613 3.90152 0)
(0.583225 3.53999 0)
(9.99326 0.0909528 0)
(9.97071 0.180456 0)
(9.93043 0.269735 0)
(9.87358 0.360328 0)
(9.80111 0.45375 0)
(9.71334 0.551327 0)
(9.61025 0.654241 0)
(9.49173 0.763635 0)
(9.35757 0.88065 0)
(9.20751 1.00643 0)
(9.04119 1.1421 0)
(8.85818 1.28881 0)
(8.65794 1.44765 0)
(8.43985 1.6197 0)
(8.20318 1.80595 0)
(7.94704 2.00727 0)
(7.67035 2.22427 0)
(7.37172 2.45726 0)
(7.04936 2.70599 0)
(6.70085 2.96946 0)
(6.32296 3.2455 0)
(5.91131 3.53032 0)
(5.46008 3.81782 0)
(4.96179 4.09871 0)
(4.40726 4.35957 0)
(3.78633 4.58181 0)
(3.08755 4.74081 0)
(2.31273 4.80423 0)
(1.41068 4.7409 0)
(0.614327 4.44177 0)
(9.99352 0.0990198 0)
(9.97189 0.196632 0)
(9.93338 0.294272 0)
(9.8792 0.393515 0)
(9.81033 0.495872 0)
(9.72707 0.602722 0)
(9.6294 0.71533 0)
(9.51725 0.83492 0)
(9.39048 0.96271 0)
(9.24889 1.09992 0)
(9.09218 1.24776 0)
(8.91996 1.40745 0)
(8.73177 1.58022 0)
(8.52703 1.76724 0)
(8.30501 1.96966 0)
(8.0648 2.18856 0)
(7.80525 2.42483 0)
(7.52481 2.67915 0)
(7.22142 2.95185 0)
(6.89229 3.24269 0)
(6.53358 3.5506 0)
(6.14008 3.87324 0)
(5.70472 4.2064 0)
(5.21823 4.54304 0)
(4.66883 4.87207 0)
(4.0428 5.17661 0)
(3.3237 5.43199 0)
(2.50983 5.60171 0)
(1.54194 5.64332 0)
(0.664099 5.41793 0)
(9.99384 0.106735 0)
(9.97329 0.212059 0)
(9.93677 0.317588 0)
(9.88553 0.424965 0)
(9.82056 0.53572 0)
(9.74215 0.65127 0)
(9.65031 0.772953 0)
(9.54501 0.902064 0)
(9.42617 1.03989 0)
(9.29365 1.18771 0)
(9.14723 1.34683 0)
(8.9866 1.51854 0)
(8.81137 1.70417 0)
(8.62101 1.90503 0)
(8.41485 2.12244 0)
(8.19203 2.35769 0)
(7.95135 2.61201 0)
(7.69124 2.88653 0)
(7.40949 3.18221 0)
(7.10309 3.49972 0)
(6.76783 3.83925 0)
(6.39786 4.20024 0)
(5.98516 4.58081 0)
(5.51878 4.9769 0)
(4.98419 5.38085 0)
(4.3632 5.7791 0)
(3.63195 6.14874 0)
(2.78025 6.45038 0)
(1.7336 6.62836 0)
(0.744919 6.50307 0)
(9.9942 0.11404 0)
(9.97486 0.22664 0)
(9.94053 0.339568 0)
(9.89247 0.454545 0)
(9.83166 0.573129 0)
(9.7584 0.696776 0)
(9.67275 0.826879 0)
(9.5747 0.964794 0)
(9.46426 1.11186 0)
(9.34136 1.26944 0)
(9.20585 1.43887 0)
(9.05751 1.62155 0)
(8.89604 1.81889 0)
(8.72101 2.03234 0)
(8.53187 2.26339 0)
(8.32782 2.51356 0)
(8.10776 2.78441 0)
(7.8702 3.07757 0)
(7.61298 3.39466 0)
(7.3331 3.73733 0)
(7.0263 4.1072 0)
(6.68658 4.50568 0)
(6.30539 4.93366 0)
(5.8707 5.39092 0)
(5.36554 5.87477 0)
(4.76683 6.37765 0)
(4.04082 6.8827 0)
(3.16171 7.35315 0)
(2.02503 7.72311 0)
(0.880908 7.75726 0)
(9.99459 0.120891 0)
(9.97656 0.240296 0)
(9.94458 0.360112 0)
(9.8999 0.482134 0)
(9.84348 0.607956 0)
(9.77565 0.739067 0)
(9.69648 0.876903 0)
(9.60605 1.02287 0)
(9.50441 1.17836 0)
(9.39157 1.34476 0)
(9.26749 1.5235 0)
(9.13204 1.71603 0)
(8.98504 1.92385 0)
(8.8262 2.14851 0)
(8.65508 2.39167 0)
(8.47107 2.65508 0)
(8.27327 2.94062 0)
(8.06038 3.25037 0)
(7.83054 3.58663 0)
(7.58105 3.95202 0)
(7.30805 4.34956 0)
(7.00595 4.78276 0)
(6.66659 5.25557 0)
(6.27797 5.7723 0)
(5.82213 6.33694 0)
(5.27239 6.95162 0)
(4.58471 7.61292 0)
(3.7104 8.30044 0)
(2.48873 8.9582 0)
(1.12484 9.29378 0)
(9.99501 0.127251 0)
(9.97836 0.252963 0)
(9.94888 0.379135 0)
(9.90774 0.507633 0)
(9.8559 0.640084 0)
(9.79371 0.778005 0)
(9.72128 0.922866 0)
(9.63875 1.07611 0)
(9.54623 1.23916 0)
(9.44384 1.41345 0)
(9.33161 1.60044 0)
(9.20955 1.80164 0)
(9.07759 2.01861 0)
(8.93562 2.25301 0)
(8.78339 2.50662 0)
(8.62051 2.78137 0)
(8.44636 3.07942 0)
(8.26003 3.40325 0)
(8.06012 3.75573 0)
(7.84459 4.14035 0)
(7.61043 4.56139 0)
(7.35322 5.02427 0)
(7.06635 5.53592 0)
(6.73973 6.10536 0)
(6.35746 6.7443 0)
(5.89392 7.46786 0)
(5.30105 8.29528 0)
(4.50962 9.2472 0)
(3.26993 10.3418 0)
(1.60585 11.3606 0)
(9.99544 0.133095 0)
(9.98025 0.264589 0)
(9.95336 0.396566 0)
(9.91591 0.530948 0)
(9.8688 0.669392 0)
(9.81241 0.813435 0)
(9.74693 0.964572 0)
(9.67252 1.12427 0)
(9.58939 1.29398 0)
(9.49772 1.47515 0)
(9.39766 1.66928 0)
(9.28935 1.87789 0)
(9.17288 2.10261 0)
(9.0483 2.34515 0)
(8.9156 2.60737 0)
(8.77467 2.89135 0)
(8.62527 3.19945 0)
(8.46696 3.53441 0)
(8.299 3.89954 0)
(8.12028 4.29894 0)
(7.9291 4.73781 0)
(7.7229 5.22299 0)
(7.49787 5.76372 0)
(7.24814 6.37281 0)
(6.96426 7.06872 0)
(6.63074 7.87932 0)
(6.21486 8.85011 0)
(5.66726 10.0643 0)
(4.69273 11.7306 0)
(2.68967 14.5963 0)
(0.173 -0.184686 0)
(0.390734 -0.16192 0)
(0.619573 -0.132457 0)
(0.821898 -0.107499 0)
(0.992133 -0.0877407 0)
(1.136 -0.0721259 0)
(1.25978 -0.0597226 0)
(1.36783 -0.0498264 0)
(1.46308 -0.0418557 0)
(1.54766 -0.0353372 0)
(1.62316 -0.0298698 0)
(1.6906 -0.0250171 0)
(1.75013 -0.0202354 0)
(1.80065 -0.0150336 0)
(1.84012 -0.00941189 0)
(1.86717 -0.00410939 0)
(1.88283 -7.43525e-05 0)
(1.88946 0.00261689 0)
(1.88795 0.00447785 0)
(1.87851 0.00571073 0)
(1.86335 0.00650893 0)
(1.84724 0.00713244 0)
(1.8354 0.00781405 0)
(1.83174 0.00754183 0)
(1.83859 0.00491659 0)
(1.85707 0.000583926 0)
(1.88801 -0.00514424 0)
(1.93141 -0.0119826 0)
(1.98593 -0.0188056 0)
(2.06067 -0.021907 0)
(0.130388 -0.385742 0)
(0.336067 -0.354703 0)
(0.539811 -0.298184 0)
(0.722412 -0.247536 0)
(0.879296 -0.206848 0)
(1.01505 -0.174526 0)
(1.13459 -0.148768 0)
(1.24135 -0.128114 0)
(1.33759 -0.111341 0)
(1.42495 -0.0975068 0)
(1.5047 -0.0858673 0)
(1.57797 -0.0755508 0)
(1.64549 -0.0652357 0)
(1.70696 -0.0535175 0)
(1.7607 -0.0402902 0)
(1.80445 -0.0276303 0)
(1.83811 -0.0172786 0)
(1.86515 -0.00686813 0)
(1.88779 0.00420352 0)
(1.90485 0.0112408 0)
(1.91372 0.0120323 0)
(1.91823 0.00717897 0)
(1.92181 -0.00130138 0)
(1.9251 -0.0109504 0)
(1.92684 -0.020146 0)
(1.92732 -0.0275963 0)
(1.92642 -0.0328639 0)
(1.92445 -0.0365285 0)
(1.92369 -0.038189 0)
(1.93201 -0.0351871 0)
(0.0934263 -0.589374 0)
(0.261743 -0.549946 0)
(0.414476 -0.467824 0)
(0.552627 -0.392724 0)
(0.670574 -0.331862 0)
(0.772397 -0.283107 0)
(0.861555 -0.243892 0)
(0.940418 -0.212032 0)
(1.01057 -0.185717 0)
(1.073 -0.163666 0)
(1.12847 -0.145103 0)
(1.17789 -0.129169 0)
(1.22247 -0.113881 0)
(1.26281 -0.0960117 0)
(1.2981 -0.073828 0)
(1.32463 -0.0525662 0)
(1.33876 -0.0411211 0)
(1.34863 -0.0366129 0)
(1.3561 -0.0278074 0)
(1.33235 -0.0126179 0)
(1.28317 -4.03374e-05 0)
(1.21338 0.00688133 0)
(1.13084 0.00906283 0)
(1.04402 0.00901828 0)
(0.962992 0.007975 0)
(0.897771 0.00443396 0)
(0.860216 -0.00176883 0)
(0.837465 -0.00989996 0)
(0.839878 -0.0212706 0)
(0.882492 -0.0384431 0)
(0.0606676 -0.734726 0)
(0.181721 -0.679996 0)
(0.272872 -0.575617 0)
(0.358494 -0.482406 0)
(0.427925 -0.407065 0)
(0.486068 -0.346532 0)
(0.53468 -0.297733 0)
(0.57515 -0.257908 0)
(0.608508 -0.224688 0)
(0.63517 -0.19635 0)
(0.654897 -0.172075 0)
(0.667627 -0.15156 0)
(0.674344 -0.133891 0)
(0.676976 -0.116485 0)
(0.67995 -0.0955791 0)
(0.682721 -0.0672839 0)
(0.645453 -0.0331559 0)
(0.550566 -0.00317551 0)
(0.455892 0.0261075 0)
(0.391609 0.0556737 0)
(0.327139 0.075508 0)
(0.263602 0.084049 0)
(0.20398 0.082859 0)
(0.151863 0.0724836 0)
(0.110889 0.0531134 0)
(0.0829289 0.0260761 0)
(0.0746581 -0.00166921 0)
(0.0956379 -0.0271662 0)
(0.128052 -0.0564148 0)
(0.191027 -0.0837816 0)
(0.0278829 -0.826267 0)
(0.0933757 -0.750649 0)
(0.115616 -0.627792 0)
(0.143547 -0.522743 0)
(0.157104 -0.437479 0)
(0.163581 -0.368597 0)
(0.16271 -0.312885 0)
(0.155237 -0.267319 0)
(0.141969 -0.229161 0)
(0.12327 -0.196076 0)
(0.0983329 -0.166416 0)
(0.0647176 -0.13871 0)
(0.0166416 -0.110579 0)
(-0.0495293 -0.0802402 0)
(-0.123797 -0.0433265 0)
(-0.206559 0.000212823 0)
(-0.262948 0.0373557 0)
(-0.302826 0.0590934 0)
(-0.345072 0.0711812 0)
(-0.382934 0.0831429 0)
(-0.417603 0.0945146 0)
(-0.446031 0.0981637 0)
(-0.466891 0.0919594 0)
(-0.479684 0.0761748 0)
(-0.48471 0.0523172 0)
(-0.483632 0.0228974 0)
(-0.478196 -0.00881955 0)
(-0.459477 -0.0409274 0)
(-0.442582 -0.0698438 0)
(-0.431214 -0.0904005 0)
(-0.00714981 -0.854591 0)
(-0.00431097 -0.754369 0)
(-0.0532117 -0.616808 0)
(-0.0879602 -0.504905 0)
(-0.134927 -0.413274 0)
(-0.185873 -0.339083 0)
(-0.242123 -0.278708 0)
(-0.303282 -0.22875 0)
(-0.368963 -0.186164 0)
(-0.438541 -0.148488 0)
(-0.510834 -0.114206 0)
(-0.583809 -0.0825387 0)
(-0.655392 -0.0530761 0)
(-0.724033 -0.0256161 0)
(-0.788424 0.000536912 0)
(-0.833181 0.0246753 0)
(-0.869226 0.0485706 0)
(-0.901172 0.0711618 0)
(-0.928469 0.0877929 0)
(-0.950173 0.0985835 0)
(-0.965232 0.1048 0)
(-0.973091 0.103543 0)
(-0.974399 0.0934068 0)
(-0.970516 0.074728 0)
(-0.963294 0.0489171 0)
(-0.954919 0.0181 0)
(-0.946764 -0.0149102 0)
(-0.936203 -0.0468812 0)
(-0.930827 -0.0755271 0)
(-0.930631 -0.0964592 0)
(-0.048781 -0.811803 0)
(-0.112771 -0.687704 0)
(-0.22802 -0.545514 0)
(-0.328345 -0.432167 0)
(-0.433071 -0.340386 0)
(-0.536679 -0.266645 0)
(-0.638369 -0.207275 0)
(-0.736665 -0.159144 0)
(-0.830255 -0.119419 0)
(-0.918263 -0.0856695 0)
(-1.00022 -0.0561855 0)
(-1.07586 -0.0299893 0)
(-1.14542 -0.00631376 0)
(-1.20326 0.0149823 0)
(-1.24825 0.0346968 0)
(-1.28701 0.053702 0)
(-1.31879 0.0717572 0)
(-1.34386 0.0873591 0)
(-1.36237 0.0990541 0)
(-1.37421 0.105995 0)
(-1.37917 0.107695 0)
(-1.37767 0.102561 0)
(-1.37102 0.0897429 0)
(-1.36104 0.0695854 0)
(-1.34983 0.0433752 0)
(-1.33954 0.0130764 0)
(-1.33155 -0.018801 0)
(-1.32593 -0.0495442 0)
(-1.32604 -0.0773233 0)
(-1.32902 -0.0978445 0)
(-0.0959185 -0.698804 0)
(-0.222647 -0.557095 0)
(-0.401313 -0.41739 0)
(-0.559305 -0.309814 0)
(-0.710029 -0.226678 0)
(-0.849479 -0.162507 0)
(-0.976972 -0.112464 0)
(-1.09254 -0.0732279 0)
(-1.19658 -0.0421249 0)
(-1.29004 -0.01696 0)
(-1.37002 0.00321857 0)
(-1.43797 0.0201915 0)
(-1.49442 0.0347811 0)
(-1.54433 0.0484345 0)
(-1.58758 0.0621416 0)
(-1.62365 0.0759874 0)
(-1.65207 0.0888489 0)
(-1.67296 0.0993368 0)
(-1.6867 0.106348 0)
(-1.69364 0.10909 0)
(-1.69417 0.106841 0)
(-1.6891 0.0985948 0)
(-1.6799 0.083843 0)
(-1.66839 0.0629539 0)
(-1.65667 0.037128 0)
(-1.64687 0.0081744 0)
(-1.64053 -0.0216852 0)
(-1.63897 -0.0503182 0)
(-1.64293 -0.0763905 0)
(-1.64745 -0.095437 0)
(-0.149568 -0.519434 0)
(-0.335506 -0.370634 0)
(-0.569669 -0.245779 0)
(-0.77397 -0.1544 0)
(-0.958063 -0.0864373 0)
(-1.12006 -0.0365913 0)
(-1.25666 -0.00346562 0)
(-1.37229 0.0193291 0)
(-1.47024 0.0354458 0)
(-1.55306 0.0470546 0)
(-1.62609 0.056632 0)
(-1.69042 0.0652008 0)
(-1.74681 0.0733016 0)
(-1.79561 0.0811626 0)
(-1.83686 0.0890031 0)
(-1.87043 0.096872 0)
(-1.89631 0.104042 0)
(-1.91475 0.109385 0)
(-1.92624 0.111835 0)
(-1.93129 0.110558 0)
(-1.93054 0.104837 0)
(-1.92499 0.0939995 0)
(-1.91609 0.077775 0)
(-1.9056 0.0565634 0)
(-1.89552 0.0314872 0)
(-1.88784 0.00425823 0)
(-1.88399 -0.0231626 0)
(-1.88635 -0.0492792 0)
(-1.8937 -0.0731354 0)
(-1.89946 -0.0902882 0)
(-0.215693 -0.292162 0)
(-0.469237 -0.135708 0)
(-0.747941 -0.016761 0)
(-0.970099 0.0451498 0)
(-1.15549 0.0771996 0)
(-1.3087 0.0921194 0)
(-1.4399 0.100311 0)
(-1.55275 0.104717 0)
(-1.65032 0.107049 0)
(-1.73494 0.108414 0)
(-1.80844 0.109389 0)
(-1.87223 0.110259 0)
(-1.92733 0.111276 0)
(-1.97427 0.112605 0)
(-2.01333 0.114332 0)
(-2.04474 0.116359 0)
(-2.06881 0.118093 0)
(-2.086 0.118565 0)
(-2.09681 0.116748 0)
(-2.1018 0.111789 0)
(-2.10165 0.103032 0)
(-2.0974 0.0900195 0)
(-2.09043 0.0726555 0)
(-2.08237 0.0513637 0)
(-2.07506 0.0271972 0)
(-2.07044 0.00182937 0)
(-2.07012 -0.0230377 0)
(-2.07648 -0.0464612 0)
(-2.0871 -0.0679086 0)
(-2.09408 -0.0832239 0)
(-0.271848 0.102571 0)
(-0.553686 0.195612 0)
(-0.845122 0.222269 0)
(-1.07741 0.230667 0)
(-1.27131 0.226717 0)
(-1.43298 0.216857 0)
(-1.5684 0.204837 0)
(-1.68255 0.192482 0)
(-1.77957 0.180766 0)
(-1.86252 0.170308 0)
(-1.93376 0.161442 0)
(-1.9951 0.15405 0)
(-2.04771 0.147815 0)
(-2.0922 0.142531 0)
(-2.12897 0.138181 0)
(-2.15848 0.13466 0)
(-2.18134 0.131428 0)
(-2.19813 0.127526 0)
(-2.20937 0.121891 0)
(-2.21554 0.113655 0)
(-2.21726 0.102249 0)
(-2.21552 0.0874007 0)
(-2.2116 0.0691539 0)
(-2.20697 0.0479593 0)
(-2.20325 0.0248156 0)
(-2.20228 0.0013062 0)
(-2.20601 -0.0210582 0)
(-2.2164 -0.041785 0)
(-2.23031 -0.0607914 0)
(-2.23856 -0.074457 0)
(-0.287924 0.46557 0)
(-0.602272 0.50304 0)
(-0.926142 0.475218 0)
(-1.17451 0.433023 0)
(-1.37368 0.388205 0)
(-1.53423 0.346155 0)
(-1.66543 0.309412 0)
(-1.77439 0.278292 0)
(-1.86607 0.251855 0)
(-1.94379 0.229445 0)
(-2.01016 0.210857 0)
(-2.06733 0.195495 0)
(-2.11653 0.182356 0)
(-2.1582 0.170758 0)
(-2.19265 0.160634 0)
(-2.22049 0.152028 0)
(-2.2426 0.14445 0)
(-2.25973 0.136818 0)
(-2.27232 0.127915 0)
(-2.28067 0.116835 0)
(-2.28525 0.103128 0)
(-2.28692 0.0867192 0)
(-2.28688 0.0677867 0)
(-2.28646 0.0467869 0)
(-2.287 0.0246521 0)
(-2.29013 0.00286602 0)
(-2.298 -0.0171321 0)
(-2.31247 -0.0352148 0)
(-2.32976 -0.0517759 0)
(-2.33938 -0.0639285 0)
(-0.32924 0.889932 0)
(-0.689857 0.864658 0)
(-1.03857 0.748951 0)
(-1.28521 0.637518 0)
(-1.47321 0.545066 0)
(-1.6198 0.468457 0)
(-1.73698 0.406447 0)
(-1.83366 0.357303 0)
(-1.91523 0.31712 0)
(-1.98434 0.283459 0)
(-2.04343 0.255945 0)
(-2.09497 0.233631 0)
(-2.14018 0.214505 0)
(-2.17897 0.197188 0)
(-2.2112 0.181732 0)
(-2.23758 0.16862 0)
(-2.25938 0.157475 0)
(-2.27757 0.14691 0)
(-2.29241 0.13537 0)
(-2.30387 0.121873 0)
(-2.31214 0.106153 0)
(-2.31795 0.088399 0)
(-2.32248 0.0689401 0)
(-2.32689 0.0481954 0)
(-2.33222 0.0269715 0)
(-2.33981 0.00667771 0)
(-2.35185 -0.0112446 0)
(-2.37042 -0.0267615 0)
(-2.3912 -0.0408106 0)
(-2.40232 -0.0514571 0)
(-0.413227 1.39082 0)
(-0.844531 1.27285 0)
(-1.20792 1.02571 0)
(-1.42303 0.822983 0)
(-1.57564 0.682575 0)
(-1.69316 0.573188 0)
(-1.7855 0.488024 0)
(-1.8626 0.424617 0)
(-1.92995 0.373898 0)
(-1.98777 0.330436 0)
(-2.03737 0.295258 0)
(-2.08205 0.267803 0)
(-2.12319 0.244293 0)
(-2.15949 0.22208 0)
(-2.18978 0.201699 0)
(-2.21489 0.184702 0)
(-2.23683 0.17096 0)
(-2.2569 0.158445 0)
(-2.27503 0.144959 0)
(-2.29058 0.129413 0)
(-2.30331 0.111859 0)
(-2.31385 0.0928941 0)
(-2.32345 0.0730327 0)
(-2.33323 0.0525721 0)
(-2.34387 0.0320777 0)
(-2.35627 0.0128843 0)
(-2.37266 -0.00338154 0)
(-2.39526 -0.0164428 0)
(-2.41962 -0.0277478 0)
(-2.43236 -0.0366733 0)
(-0.591845 2.25511 0)
(-1.107 1.87393 0)
(-1.473 1.31482 0)
(-1.60088 0.941304 0)
(-1.67913 0.775712 0)
(-1.75275 0.650873 0)
(-1.80929 0.548179 0)
(-1.85942 0.476527 0)
(-1.91044 0.42049 0)
(-1.95583 0.368284 0)
(-1.99376 0.32671 0)
(-2.03035 0.297197 0)
(-2.06807 0.272054 0)
(-2.1031 0.245872 0)
(-2.13201 0.220566 0)
(-2.15594 0.200155 0)
(-2.17847 0.185048 0)
(-2.20155 0.171859 0)
(-2.22438 0.157168 0)
(-2.24523 0.139789 0)
(-2.26322 0.120376 0)
(-2.27898 0.100193 0)
(-2.29405 0.0800185 0)
(-2.30967 0.059902 0)
(-2.32613 0.0399764 0)
(-2.34376 0.021447 0)
(-2.36463 0.00634274 0)
(-2.39125 -0.00440782 0)
(-2.41918 -0.0124987 0)
(-2.43371 -0.0192044 0)
(9.9959 0.138493 0)
(9.98224 0.275331 0)
(9.95808 0.412659 0)
(9.92448 0.552446 0)
(9.88234 0.69637 0)
(9.83204 0.845983 0)
(9.77383 1.00279 0)
(9.70794 1.16827 0)
(9.63466 1.34388 0)
(9.55427 1.53109 0)
(9.46702 1.73139 0)
(9.37318 1.94632 0)
(9.27303 2.17751 0)
(9.16682 2.42671 0)
(9.05479 2.69582 0)
(8.93718 2.98697 0)
(8.81416 3.30262 0)
(8.68589 3.64565 0)
(8.55243 4.01957 0)
(8.4138 4.42876 0)
(8.26992 4.87884 0)
(8.1207 5.37727 0)
(7.96609 5.93422 0)
(7.80641 6.56404 0)
(7.6429 7.28778 0)
(7.48064 8.13805 0)
(7.33306 9.16882 0)
(7.29071 10.4737 0)
(7.7535 12.1978 0)
(7.94522 14.9175 0)
(9.99638 0.143457 0)
(9.98432 0.285193 0)
(9.96302 0.427398 0)
(9.93346 0.572071 0)
(9.89648 0.720903 0)
(9.8525 0.875453 0)
(9.80181 1.03723 0)
(9.74471 1.20771 0)
(9.68157 1.38834 0)
(9.61276 1.58058 0)
(9.53867 1.78592 0)
(9.45971 2.00587 0)
(9.37632 2.24206 0)
(9.28898 2.49619 0)
(9.19821 2.77016 0)
(9.1046 3.06608 0)
(9.00878 3.38637 0)
(8.91152 3.73387 0)
(8.81373 4.11203 0)
(8.7166 4.52511 0)
(8.62173 4.97851 0)
(8.5315 5.47924 0)
(8.44965 6.03662 0)
(8.38246 6.66321 0)
(8.34116 7.37619 0)
(8.34789 8.19892 0)
(8.44165 9.16143 0)
(8.67855 10.2967 0)
(9.32769 11.5489 0)
(9.82152 12.6304 0)
(9.99688 0.147898 0)
(9.98649 0.294012 0)
(9.96816 0.44056 0)
(9.94277 0.589556 0)
(9.91112 0.742695 0)
(9.87365 0.901531 0)
(9.83069 1.06756 0)
(9.78261 1.24223 0)
(9.72986 1.427 0)
(9.67289 1.62326 0)
(9.61221 1.83248 0)
(9.54838 2.05614 0)
(9.48202 2.29578 0)
(9.41383 2.55306 0)
(9.34459 2.82979 0)
(9.27524 3.12795 0)
(9.20687 3.44981 0)
(9.14082 3.79802 0)
(9.07878 4.17567 0)
(9.02296 4.58652 0)
(8.97638 5.03515 0)
(8.94334 5.52724 0)
(8.93011 6.06973 0)
(8.94625 6.67099 0)
(9.00624 7.3404 0)
(9.13225 8.0865 0)
(9.35526 8.91099 0)
(9.68465 9.80244 0)
(10.2497 10.709 0)
(10.936 11.4193 0)
(9.9974 0.151763 0)
(9.98872 0.301681 0)
(9.97344 0.451978 0)
(9.95233 0.60467 0)
(9.92614 0.761446 0)
(9.89532 0.92384 0)
(9.86024 1.09332 0)
(9.82135 1.27133 0)
(9.77914 1.45924 0)
(9.73416 1.65844 0)
(9.68704 1.87031 0)
(9.63846 2.09625 0)
(9.5892 2.33773 0)
(9.54018 2.59628 0)
(9.49242 2.87356 0)
(9.44717 3.17136 0)
(9.40591 3.49168 0)
(9.37046 3.83678 0)
(9.34313 4.20923 0)
(9.32687 4.612 0)
(9.32563 5.04848 0)
(9.3447 5.52248 0)
(9.39132 6.03812 0)
(9.47539 6.59933 0)
(9.61009 7.20881 0)
(9.81221 7.86616 0)
(10.1044 8.56418 0)
(10.4953 9.28806 0)
(11.0513 10.0276 0)
(11.842 10.6696 0)
(9.99792 0.155007 0)
(9.99099 0.308109 0)
(9.97881 0.461517 0)
(9.96206 0.617238 0)
(9.94141 0.776937 0)
(9.91732 0.94212 0)
(9.89022 1.11422 0)
(9.86059 1.29463 0)
(9.82898 1.48467 0)
(9.79604 1.68567 0)
(9.76247 1.8989 0)
(9.72908 2.12568 0)
(9.69681 2.36734 0)
(9.6667 2.62525 0)
(9.64003 2.90087 0)
(9.61828 3.19572 0)
(9.60321 3.51146 0)
(9.59701 3.84985 0)
(9.60237 4.2128 0)
(9.62267 4.60236 0)
(9.66221 5.02062 0)
(9.72653 5.46957 0)
(9.82268 5.95082 0)
(9.9596 6.46502 0)
(10.1483 7.01107 0)
(10.4018 7.58506 0)
(10.7374 8.17881 0)
(11.1665 8.77764 0)
(11.7121 9.36999 0)
(12.4625 9.88106 0)
(9.99845 0.157585 0)
(9.99329 0.313208 0)
(9.98424 0.469051 0)
(9.97188 0.627092 0)
(9.95681 0.788963 0)
(9.93948 0.956132 0)
(9.92037 1.12998 0)
(9.89998 1.31184 0)
(9.87894 1.50297 0)
(9.85795 1.70458 0)
(9.83778 1.91788 0)
(9.81936 2.14404 0)
(9.8037 2.38424 0)
(9.79201 2.63965 0)
(9.78571 2.91147 0)
(9.78643 3.20094 0)
(9.79614 3.50927 0)
(9.81721 3.83773 0)
(9.85249 4.18752 0)
(9.90547 4.55977 0)
(9.98042 4.95536 0)
(10.0826 5.37475 0)
(10.2182 5.81768 0)
(10.3949 6.28266 0)
(10.6213 6.76645 0)
(10.9073 7.26324 0)
(11.2638 7.76381 0)
(11.6988 8.25264 0)
(12.2131 8.71306 0)
(12.8861 9.10363 0)
(9.99898 0.159458 0)
(9.99559 0.316902 0)
(9.98968 0.474466 0)
(9.98171 0.634084 0)
(9.9722 0.797345 0)
(9.9616 0.965664 0)
(9.95041 1.14036 0)
(9.93918 1.32269 0)
(9.92856 1.51384 0)
(9.9193 1.71491 0)
(9.91224 1.92698 0)
(9.90835 2.15109 0)
(9.90874 2.38822 0)
(9.91471 2.63934 0)
(9.92774 2.90538 0)
(9.94957 3.18723 0)
(9.98222 3.48571 0)
(10.0281 3.80152 0)
(10.0901 4.13524 0)
(10.1714 4.48714 0)
(10.2761 4.85713 0)
(10.4087 5.2445 0)
(10.5746 5.64767 0)
(10.7795 6.06383 0)
(11.03 6.48849 0)
(11.3323 6.91496 0)
(11.6927 7.33392 0)
(12.115 7.73197 0)
(12.5932 8.09461 0)
(13.1962 8.40141 0)
(9.99951 0.160594 0)
(9.99787 0.319124 0)
(9.99507 0.477665 0)
(9.99145 0.63809 0)
(9.98744 0.801932 0)
(9.98349 0.970544 0)
(9.98009 1.14518 0)
(9.97783 1.327 0)
(9.97738 1.51709 0)
(9.9795 1.71646 0)
(9.98509 1.92604 0)
(9.99515 2.1467 0)
(10.0108 2.37926 0)
(10.0335 2.62444 0)
(10.0645 2.8829 0)
(10.1058 3.1552 0)
(10.1593 3.44174 0)
(10.2272 3.74277 0)
(10.3123 4.05826 0)
(10.4176 4.38783 0)
(10.5465 4.73061 0)
(10.7027 5.0851 0)
(10.8905 5.4489 0)
(11.114 5.81848 0)
(11.3777 6.18897 0)
(11.6852 6.55381 0)
(12.0394 6.90475 0)
(12.4417 7.23152 0)
(12.8844 7.52303 0)
(13.4255 7.76803 0)
(10 0.160963 0)
(10.0001 0.31982 0)
(10.0004 0.478567 0)
(10.001 0.639008 0)
(10.0024 0.802606 0)
(10.0049 0.970642 0)
(10.0091 1.14429 0)
(10.0156 1.32462 0)
(10.0249 1.51261 0)
(10.038 1.70914 0)
(10.0556 1.91502 0)
(10.0789 2.13094 0)
(10.1089 2.35752 0)
(10.147 2.59528 0)
(10.1946 2.8446 0)
(10.2535 3.10572 0)
(10.3254 3.3787 0)
(10.4126 3.66335 0)
(10.5172 3.95919 0)
(10.6421 4.26534 0)
(10.7899 4.58042 0)
(10.9636 4.9024 0)
(11.1663 5.2285 0)
(11.4009 5.55502 0)
(11.6699 5.87722 0)
(11.9752 6.18927 0)
(12.3176 6.48432 0)
(12.6969 6.75458 0)
(13.1053 6.99175 0)
(13.5915 7.18902 0)
(10.0005 0.160544 0)
(10.0023 0.318947 0)
(10.0056 0.477113 0)
(10.0104 0.636762 0)
(10.017 0.799282 0)
(10.0258 0.965873 0)
(10.0373 1.13762 0)
(10.0521 1.31549 0)
(10.0708 1.50036 0)
(10.0942 1.69298 0)
(10.1232 1.89401 0)
(10.1588 2.10399 0)
(10.2021 2.32335 0)
(10.2543 2.55239 0)
(10.3169 2.79125 0)
(10.3913 3.03991 0)
(10.4792 3.29811 0)
(10.5826 3.56534 0)
(10.7035 3.84077 0)
(10.8438 4.12319 0)
(11.0059 4.41088 0)
(11.1919 4.70162 0)
(11.4038 4.99252 0)
(11.6435 5.28002 0)
(11.9122 5.55983 0)
(12.2106 5.827 0)
(12.5381 6.07601 0)
(12.8935 6.30101 0)
(13.2697 6.49599 0)
(13.7084 6.6568 0)
(10.001 0.159322 0)
(10.0044 0.316476 0)
(10.0106 0.473264 0)
(10.0194 0.631309 0)
(10.031 0.791916 0)
(10.0458 0.956198 0)
(10.0643 1.12514 0)
(10.087 1.29963 0)
(10.1145 1.4804 0)
(10.1477 1.6681 0)
(10.1873 1.86323 0)
(10.2342 2.0662 0)
(10.2895 2.27724 0)
(10.3545 2.49648 0)
(10.4302 2.72383 0)
(10.5181 2.95906 0)
(10.6197 3.20167 0)
(10.7366 3.45091 0)
(10.8702 3.70571 0)
(11.0224 3.96467 0)
(11.1947 4.22593 0)
(11.3885 4.48724 0)
(11.6052 4.74582 0)
(11.8456 4.99843 0)
(12.1102 5.24136 0)
(12.3986 5.47053 0)
(12.7098 5.68164 0)
(13.0418 5.87034 0)
(13.3886 6.03242 0)
(13.7865 6.16539 0)
(10.0015 0.157289 0)
(10.0065 0.312393 0)
(10.0153 0.466999 0)
(10.028 0.62263 0)
(10.0444 0.780498 0)
(10.0649 0.941626 0)
(10.09 1.10691 0)
(10.1201 1.27711 0)
(10.1559 1.45287 0)
(10.198 1.63471 0)
(10.2472 1.823 0)
(10.3044 2.018 0)
(10.3706 2.21981 0)
(10.4467 2.42836 0)
(10.5339 2.64343 0)
(10.6333 2.86457 0)
(10.7462 3.09114 0)
(10.8738 3.32221 0)
(11.0174 3.55661 0)
(11.1782 3.79282 0)
(11.3572 4.02901 0)
(11.5553 4.263 0)
(11.7732 4.49227 0)
(12.0112 4.71397 0)
(12.2691 4.925 0)
(12.5459 5.12209 0)
(12.8404 5.30194 0)
(13.1504 5.4614 0)
(13.4707 5.59757 0)
(13.8335 5.70895 0)
(10.0019 0.154444 0)
(10.0084 0.306697 0)
(10.0199 0.458323 0)
(10.0361 0.610737 0)
(10.057 0.765056 0)
(10.0829 0.922209 0)
(10.1141 1.08299 0)
(10.1511 1.24807 0)
(10.1944 1.41797 0)
(10.2448 1.59311 0)
(10.3027 1.77373 0)
(10.3691 1.95996 0)
(10.4448 2.15178 0)
(10.5307 2.34898 0)
(10.6276 2.5512 0)
(10.7365 2.75789 0)
(10.8585 2.96827 0)
(10.9945 3.18134 0)
(11.1453 3.39587 0)
(11.3118 3.61036 0)
(11.4947 3.82307 0)
(11.6943 4.03199 0)
(11.9109 4.2349 0)
(12.1443 4.42937 0)
(12.3937 4.61289 0)
(12.6583 4.78287 0)
(12.9363 4.93684 0)
(13.2259 5.07255 0)
(13.5225 5.18801 0)
(13.8551 5.28238 0)
(10.0024 0.150794 0)
(10.0102 0.2994 0)
(10.0241 0.447259 0)
(10.0437 0.595671 0)
(10.0689 0.745655 0)
(10.0997 0.898047 0)
(10.1365 1.05354 0)
(10.1798 1.21271 0)
(10.23 1.37599 0)
(10.2877 1.54367 0)
(10.3535 1.7159 0)
(10.428 1.8927 0)
(10.5119 2.07394 0)
(10.606 2.25931 0)
(10.711 2.44836 0)
(10.8276 2.64045 0)
(10.9567 2.83475 0)
(11.0988 3.03023 0)
(11.2546 3.22568 0)
(11.4246 3.41967 0)
(11.609 3.6106 0)
(11.808 3.79669 0)
(12.0213 3.97602 0)
(12.2484 4.14659 0)
(12.4886 4.30637 0)
(12.7407 4.45339 0)
(13.0031 4.58581 0)
(13.2739 4.70202 0)
(13.5493 4.80071 0)
(13.8558 4.88143 0)
(10.0027 0.146349 0)
(10.0119 0.290529 0)
(10.0281 0.43385 0)
(10.0508 0.577497 0)
(10.0798 0.722392 0)
(10.1151 0.869275 0)
(10.1571 1.01875 0)
(10.2061 1.1713 0)
(10.2625 1.32725 0)
(10.3268 1.48682 0)
(10.3993 1.65006 0)
(10.4808 1.81691 0)
(10.5717 1.98713 0)
(10.6726 2.16038 0)
(10.7841 2.33611 0)
(10.9068 2.51366 0)
(11.0411 2.69219 0)
(11.1876 2.87068 0)
(11.3464 3.04798 0)
(11.5179 3.22278 0)
(11.702 3.39365 0)
(11.8986 3.55904 0)
(12.1073 3.71736 0)
(12.3273 3.86696 0)
(12.5579 4.00625 0)
(12.7977 4.13373 0)
(13.0452 4.24805 0)
(13.2989 4.3481 0)
(13.5555 4.43302 0)
(13.8391 4.50262 0)
(10.0031 0.14113 0)
(10.0134 0.280122 0)
(10.0317 0.418157 0)
(10.0573 0.556306 0)
(10.0898 0.695392 0)
(10.1293 0.836066 0)
(10.1759 0.978845 0)
(10.23 1.12412 0)
(10.2918 1.27214 0)
(10.3617 1.42304 0)
(10.4402 1.5768 0)
(10.5275 1.73328 0)
(10.6242 1.89221 0)
(10.7307 2.05317 0)
(10.8473 2.21561 0)
(10.9745 2.37884 0)
(11.1125 2.54204 0)
(11.2616 2.70426 0)
(11.4219 2.86443 0)
(11.5933 3.02139 0)
(11.7757 3.17387 0)
(11.9688 3.32058 0)
(12.1719 3.46018 0)
(12.3843 3.59137 0)
(12.6051 3.71291 0)
(12.833 3.82367 0)
(13.0668 3.92269 0)
(13.3049 4.00919 0)
(13.5446 4.08264 0)
(13.8083 4.14302 0)
(10.0034 0.135158 0)
(10.0148 0.268226 0)
(10.035 0.400256 0)
(10.0632 0.532206 0)
(10.0988 0.664805 0)
(10.142 0.798617 0)
(10.1927 0.934077 0)
(10.2513 1.0715 0)
(10.3178 1.21106 0)
(10.3927 1.35282 0)
(10.4761 1.49672 0)
(10.5683 1.64255 0)
(10.6697 1.79001 0)