/*--------------------------------*- C++ -*----------------------------------*\
  =========                 |
  \\      /  F ield         | OpenFOAM: The Open Source CFD Toolbox
   \\    /   O peration     | Website:  https://openfoam.org
    \\  /    A nd           | Version:  7
     \\/     M anipulation  |
\*---------------------------------------------------------------------------*/
FoamFile
{
    version     2.0;
    format      ascii;
    class       surfaceVectorField;
    location    "2.5";
    object      Uf;
}
// * * * * * * * * * * * * * * * * * * * * * * * * * * * * * * * * * * * * * //

dimensions      [0 1 -1 0 0 0 0];

internalField   nonuniform List<vector> 
5457
(
(9.92088 0.0251116 0)
(9.97124 0.0387486 0)
(9.824 0.0328301 0)
(9.92858 0.0485905 0)
(9.70958 0.0393165 0)
(9.85545 0.0587759 0)
(9.57539 0.0460171 0)
(9.75676 0.0706032 0)
(9.42131 0.0529554 0)
(9.63747 0.0830252 0)
(9.24745 0.0601734 0)
(9.49853 0.0959499 0)
(9.0535 0.0678188 0)
(9.33919 0.109627 0)
(8.83878 0.0760429 0)
(9.15861 0.124304 0)
(8.60234 0.0849789 0)
(8.95593 0.140184 0)
(8.34306 0.0947536 0)
(8.73019 0.15745 0)
(8.05962 0.105496 0)
(8.48019 0.176286 0)
(7.75055 0.117336 0)
(8.20453 0.196873 0)
(7.41429 0.130403 0)
(7.90168 0.219376 0)
(7.04921 0.144817 0)
(7.57002 0.243936 0)
(6.65373 0.160678 0)
(7.20789 0.270644 0)
(6.22641 0.178049 0)
(6.81368 0.299509 0)
(5.76612 0.196931 0)
(6.38601 0.330419 0)
(5.27226 0.217234 0)
(5.92385 0.363085 0)
(4.74507 0.238735 0)
(5.42679 0.396973 0)
(4.18591 0.261029 0)
(4.89535 0.43123 0)
(3.5977 0.283482 0)
(4.33136 0.464608 0)
(2.98531 0.305194 0)
(3.73834 0.495409 0)
(2.3559 0.325058 0)
(3.12204 0.521493 0)
(1.71892 0.342535 0)
(2.49086 0.540535 0)
(1.08419 0.361865 0)
(1.85568 0.551647 0)
(0.45171 0.348621 0)
(1.24534 0.562993 0)
(-0.145871 0.102413 0)
(0.608766 0.544795 0)
(-0.423589 -0.207037 0)
(0.0946662 0.259311 0)
(-0.402116 -0.361159 0)
(-0.133748 -0.0205354 0)
(-0.119656 -0.393847 0)
(9.9964 0.0516785 0)
(9.99705 0.0405102 0)
(9.95877 0.0708714 0)
(9.9785 0.0674653 0)
(9.89821 0.088 0)
(9.93375 0.0898855 0)
(9.81654 0.106001 0)
(9.86449 0.113575 0)
(9.71351 0.12494 0)
(9.77432 0.138538 0)
(9.58899 0.144875 0)
(9.66427 0.164673 0)
(9.44262 0.166113 0)
(9.53386 0.192361 0)
(9.27375 0.188991 0)
(9.38236 0.222062 0)
(9.08148 0.213807 0)
(9.20903 0.254181 0)
(8.86469 0.24084 0)
(9.01297 0.289097 0)
(8.62207 0.270361 0)
(8.7931 0.327186 0)
(8.35213 0.30263 0)
(8.54811 0.368818 0)
(8.05328 0.337878 0)
(8.27657 0.414346 0)
(7.72382 0.37628 0)
(7.97688 0.464073 0)
(7.36206 0.417916 0)
(7.64741 0.518211 0)
(6.9664 0.462717 0)
(7.28651 0.576823 0)
(6.53551 0.510391 0)
(6.89263 0.639736 0)
(6.0685 0.560332 0)
(6.46449 0.70643 0)
(5.56527 0.611513 0)
(6.00128 0.775904 0)
(5.0268 0.66237 0)
(5.50295 0.84651 0)
(4.45559 0.710688 0)
(4.9706 0.915784 0)
(3.85623 0.753513 0)
(4.40691 0.980275 0)
(3.23596 0.787164 0)
(3.8168 1.03542 0)
(2.60561 0.807463 0)
(3.20824 1.07544 0)
(1.98262 0.810424 0)
(2.59321 1.09309 0)
(1.40515 0.776837 0)
(1.99605 1.07702 0)
(0.929619 0.646326 0)
(1.41937 0.978324 0)
(0.439722 0.384234 0)
(0.937482 0.716737 0)
(0.0591088 -0.118681 0)
(0.443666 0.343447 0)
(0.174893 -0.335954 0)
(9.98902 0.0594412 0)
(9.99481 0.0458859 0)
(9.95432 0.089493 0)
(9.97367 0.0848704 0)
(9.89726 0.118054 0)
(9.92982 0.119197 0)
(9.82041 0.147925 0)
(9.86353 0.154006 0)
(9.72409 0.179453 0)
(9.7773 0.190443 0)
(9.60812 0.21281 0)
(9.67218 0.228677 0)
(9.47222 0.24843 0)
(9.54799 0.269173 0)
(9.31593 0.286814 0)
(9.40418 0.312543 0)
(9.13851 0.328438 0)
(9.24018 0.359374 0)
(8.93904 0.373763 0)
(9.0553 0.410223 0)
(8.71642 0.423246 0)
(8.84868 0.465646 0)
(8.46935 0.477333 0)
(8.61927 0.526198 0)
(8.1964 0.536431 0)
(8.36589 0.592414 0)
(7.89603 0.600869 0)
(8.08723 0.664774 0)
(7.56661 0.67083 0)
(7.7819 0.743646 0)
(7.20652 0.746268 0)
(7.44842 0.829209 0)
(6.81425 0.826785 0)
(7.08537 0.921328 0)
(6.38856 0.911476 0)
(6.69139 1.0194 0)
(5.92873 0.99874 0)
(6.26541 1.12216 0)
(5.43485 1.08607 0)
(5.80682 1.2274 0)
(4.90828 1.16979 0)
(5.3158 1.33171 0)
(4.35218 1.24485 0)
(4.79372 1.43014 0)
(3.77237 1.30449 0)
(4.24374 1.51582 0)
(3.17854 1.33978 0)
(3.67161 1.57935 0)
(2.58647 1.33805 0)
(3.08616 1.60767 0)
(2.01973 1.27289 0)
(2.50279 1.58149 0)
(1.48683 1.09533 0)
(1.92863 1.46415 0)
(0.958223 0.769098 0)
(1.38517 1.21031 0)
(0.479818 0.202377 0)
(0.829486 0.800949 0)
(0.433687 0.133998 0)
(9.98515 0.0716283 0)
(9.99367 0.0531591 0)
(9.95037 0.113653 0)
(9.97086 0.102312 0)
(9.89433 0.154164 0)
(9.92688 0.147985 0)
(9.81877 0.195611 0)
(9.86181 0.193761 0)
(9.72435 0.238855 0)
(9.7774 0.241324 0)
(9.61102 0.284373 0)
(9.67458 0.291217 0)
(9.47862 0.332773 0)
(9.55332 0.344014 0)
(9.3268 0.38473 0)
(9.41322 0.400434 0)
(9.15505 0.440903 0)
(9.25384 0.461204 0)
(8.96271 0.50194 0)
(9.07464 0.527026 0)
(8.74893 0.568482 0)
(8.87498 0.5986 0)
(8.51279 0.641162 0)
(8.65405 0.676623 0)
(8.25319 0.720575 0)
(8.41096 0.761775 0)
(7.96897 0.807227 0)
(8.14471 0.854683 0)
(7.65887 0.901464 0)
(7.85424 0.955856 0)
(7.32161 1.00336 0)
(7.53844 1.06559 0)
(6.95589 1.11257 0)
(7.19614 1.18386 0)
(6.56054 1.22812 0)
(6.82621 1.31007 0)
(6.13459 1.34814 0)
(6.42758 1.44289 0)
(5.67756 1.46956 0)
(5.99937 1.57986 0)
(5.18974 1.58772 0)
(5.54107 1.71702 0)
(4.67263 1.69596 0)
(5.05281 1.84846 0)
(4.12959 1.78507 0)
(4.53574 1.96574 0)
(3.56648 1.84243 0)
(3.99255 2.0572 0)
(2.99191 1.85062 0)
(3.42745 2.10703 0)
(2.41573 1.78238 0)
(2.84752 2.09437 0)
(1.84046 1.60035 0)
(2.25614 1.98861 0)
(1.25933 1.27832 0)
(1.66025 1.75292 0)
(0.666744 0.789441 0)
(1.02393 1.36764 0)
(0.523019 0.787033 0)
(9.98337 0.0844259 0)
(9.99316 0.0613054 0)
(9.94819 0.136867 0)
(9.96957 0.119954 0)
(9.89311 0.188072 0)
(9.92572 0.176279 0)
(9.81901 0.240217 0)
(9.86195 0.232747 0)
(9.72655 0.294523 0)
(9.77957 0.291146 0)
(9.6158 0.351722 0)
(9.67931 0.35234 0)
(9.48659 0.412538 0)
(9.56116 0.41705 0)
(9.33863 0.477747 0)
(9.42483 0.486086 0)
(9.17152 0.548122 0)
(9.26992 0.560284 0)
(8.98471 0.624425 0)
(9.096 0.640467 0)
(8.77755 0.707412 0)
(8.90252 0.727446 0)
(8.54927 0.797827 0)
(8.68881 0.82203 0)
(8.29907 0.896381 0)
(8.45416 0.925008 0)
(8.02604 1.0037 0)
(8.19777 1.03711 0)
(7.72926 1.12024 0)
(7.9188 1.15896 0)
(7.40773 1.24618 0)
(7.61636 1.29095 0)
(7.06044 1.38127 0)
(7.28952 1.43316 0)
(6.68637 1.52457 0)
(6.93729 1.58509 0)
(6.28454 1.67415 0)
(6.55866 1.74547 0)
(5.85409 1.82673 0)
(6.15256 1.91183 0)
(5.39444 1.97718 0)
(5.71793 2.08009 0)
(4.90552 2.11796 0)
(5.25382 2.24399 0)
(4.38805 2.2385 0)
(4.75952 2.39449 0)
(3.84378 2.32442 0)
(4.23477 2.51906 0)
(3.27531 2.35682 0)
(3.67975 2.6011 0)
(2.6853 2.31046 0)
(3.09562 2.61955 0)
(2.07262 2.15487 0)
(2.48162 2.54717 0)
(1.42933 1.86726 0)
(1.83987 2.35357 0)
(0.742591 1.41944 0)
(1.13134 2.02438 0)
(0.543295 1.51435 0)
(9.98263 0.0975203 0)
(9.99299 0.0698097 0)
(9.94742 0.159811 0)
(9.96924 0.137616 0)
(9.89351 0.221396 0)
(9.92594 0.203973 0)
(9.82128 0.284151 0)
(9.86376 0.270748 0)
(9.73126 0.349416 0)
(9.78379 0.339653 0)
(9.62357 0.418095 0)
(9.68656 0.411777 0)
(9.49806 0.49102 0)
(9.57206 0.487991 0)
(9.35449 0.56906 0)
(9.44007 0.569198 0)
(9.1925 0.653092 0)
(9.29025 0.65633 0)
(9.01161 0.743985 0)
(9.12222 0.750311 0)
(8.81126 0.8426 0)
(8.93548 0.852052 0)
(8.59081 0.949787 0)
(8.72946 0.962457 0)
(8.34955 1.06635 0)
(8.50352 1.0824 0)
(8.08674 1.19302 0)
(8.25696 1.21272 0)
(7.80159 1.33035 0)
(7.98904 1.3541 0)
(7.49325 1.47862 0)
(7.69894 1.50706 0)
(7.16084 1.63769 0)
(7.38581 1.67178 0)
(6.80338 1.80673 0)
(7.04867 1.8479 0)
(6.41978 1.98392 0)
(6.6864 2.03432 0)
(6.00882 2.16606 0)
(6.29768 2.22877 0)
(5.56913 2.34801 0)
(5.88089 2.42739 0)
(5.09922 2.52209 0)
(5.43407 2.62414 0)
(4.59755 2.67743 0)
(4.95489 2.81015 0)
(4.06254 2.79934 0)
(4.44067 2.97306 0)
(3.49258 2.86895 0)
(3.88838 3.09645 0)
(2.88575 2.86276 0)
(3.29514 3.15972 0)
(2.23797 2.75377 0)
(2.65684 3.13773 0)
(1.54241 2.52087 0)
(1.97481 3.00302 0)
(0.793636 2.13119 0)
(1.20723 2.74044 0)
(0.556733 2.29167 0)
(9.9825 0.110653 0)
(9.99301 0.0783812 0)
(9.94769 0.182367 0)
(9.96953 0.155075 0)
(9.89519 0.253875 0)
(9.9272 0.23094 0)
(9.82519 0.326837 0)
(9.86692 0.307578 0)
(9.73805 0.402637 0)
(9.78971 0.386605 0)
(9.63393 0.482325 0)
(9.69596 0.469242 0)
(9.51272 0.566856 0)
(9.58567 0.556501 0)
(9.37422 0.657196 0)
(9.45865 0.649381 0)
(9.21809 0.754319 0)
(9.31462 0.748902 0)
(9.04391 0.85919 0)
(9.15325 0.856078 0)
(8.85119 0.972764 0)
(8.97409 0.971915 0)
(8.63934 1.09598 0)
(8.77663 1.0974 0)
(8.40771 1.22973 0)
(8.56027 1.23352 0)
(8.15561 1.37482 0)
(8.32436 1.38116 0)
(7.88229 1.53192 0)
(8.06817 1.54115 0)
(7.5869 1.70141 0)
(7.79088 1.71409 0)
(7.26853 1.8833 0)
(7.49157 1.90032 0)
(6.92606 2.07695 0)
(7.16915 2.09969 0)
(6.55816 2.2808 0)
(6.82228 2.31135 0)
(6.16314 2.49197 0)
(6.44923 2.53341 0)
(5.73883 2.70572 0)
(6.04777 2.76253 0)
(5.28248 2.91484 0)
(5.61495 2.99332 0)
(4.79063 3.10899 0)
(5.147 3.21767 0)
(4.25914 3.27401 0)
(4.6392 3.42407 0)
(3.68329 3.39166 0)
(4.08593 3.59693 0)
(3.05799 3.43949 0)
(3.48124 3.71632 0)
(2.37771 3.39161 0)
(2.81834 3.75792 0)
(1.6379 3.226 0)
(2.09916 3.69379 0)
(0.839131 2.90069 0)
(1.27893 3.50431 0)
(0.573368 3.11355 0)
(9.98273 0.123613 0)
(9.99316 0.0868402 0)
(9.94871 0.204359 0)
(9.97025 0.172137 0)
(9.89791 0.285319 0)
(9.92924 0.257038 0)
(9.83045 0.368047 0)
(9.87119 0.343068 0)
(9.74663 0.453947 0)
(9.79709 0.431774 0)
(9.64657 0.544183 0)
(9.70725 0.52446 0)
(9.53024 0.639823 0)
(9.60168 0.622255 0)
(9.39745 0.741921 0)
(9.48023 0.726254 0)
(9.24793 0.851539 0)
(9.34267 0.837558 0)
(9.08129 0.969731 0)
(9.18872 0.957268 0)
(8.89709 1.09754 0)
(9.01798 1.08648 0)
(8.6948 1.236 0)
(8.83 1.22626 0)
(8.4738 1.38608 0)
(8.62422 1.3777 0)
(8.2334 1.54871 0)
(8.40001 1.54179 0)
(7.97285 1.72466 0)
(8.15663 1.71946 0)
(7.69122 1.91448 0)
(7.89323 1.91148 0)
(7.38745 2.11835 0)
(7.60878 2.11838 0)
(7.06022 2.33593 0)
(7.302 2.34027 0)
(6.70782 2.56605 0)
(6.97124 2.5767 0)
(6.32801 2.80637 0)
(6.61432 2.82633 0)
(5.91778 3.0529 0)
(6.22835 3.08655 0)
(5.47318 3.29934 0)
(5.80943 3.35298 0)
(4.98909 3.53644 0)
(5.3524 3.61876 0)
(4.45919 3.75118 0)
(4.85069 3.87374 0)
(3.87613 3.92623 0)
(4.2963 4.10367 0)
(3.23229 4.03963 0)
(3.6805 4.28942 0)
(2.52083 4.06478 0)
(2.99351 4.40653 0)
(1.73839 3.97595 0)
(2.23741 4.42437 0)
(0.889489 3.71859 0)
(1.3634 4.31612 0)
(0.598776 3.98475 0)
(9.9832 0.136239 0)
(9.99339 0.0950662 0)
(9.9503 0.225629 0)
(9.9713 0.188639 0)
(9.90147 0.315573 0)
(9.93191 0.282121 0)
(9.83688 0.407597 0)
(9.87639 0.377051 0)
(9.75676 0.503122 0)
(9.80572 0.474949 0)
(9.66124 0.603399 0)
(9.72021 0.577174 0)
(9.55032 0.709592 0)
(9.61983 0.684951 0)
(9.42386 0.822841 0)
(9.50449 0.799463 0)
(9.28163 0.94429 0)
(9.37403 0.921888 0)
(9.12331 1.07508 0)
(9.2282 1.05341 0)
(8.94851 1.21633 0)
(9.06668 1.19519 0)
(8.75673 1.36918 0)
(8.88907 1.34842 0)
(8.54741 1.5347 0)
(8.69486 1.51426 0)
(8.31987 1.71394 0)
(8.48344 1.69383 0)
(8.07329 1.90781 0)
(8.25409 1.8882 0)
(7.80671 2.11707 0)
(8.00592 2.09833 0)
(7.51889 2.34216 0)
(7.7378 2.32499 0)
(7.20824 2.58311 0)
(7.44827 2.56866 0)
(6.87268 2.8393 0)
(7.13539 2.82938 0)
(6.50938 3.10913 0)
(6.79657 3.10651 0)
(6.11453 3.38961 0)
(6.42827 3.39843 0)
(5.68302 3.67579 0)
(6.02569 3.70206 0)
(5.20815 3.95994 0)
(5.5824 4.0122 0)
(4.6815 4.2307 0)
(5.09001 4.32065 0)
(4.09311 4.47202 0)
(4.53805 4.61505 0)
(3.43241 4.66226 0)
(3.91456 4.87754 0)
(2.69009 4.7729 0)
(3.20563 5.08328 0)
(1.86184 4.77219 0)
(2.41128 5.19772 0)
(0.954187 4.58955 0)
(1.47631 5.18412 0)
(0.639213 4.91932 0)
(9.98385 0.148409 0)
(9.99368 0.102973 0)
(9.95233 0.246035 0)
(9.97259 0.20445 0)
(9.90575 0.344486 0)
(9.93507 0.30605 0)
(9.84431 0.445305 0)
(9.88236 0.409373 0)
(9.76824 0.549936 0)
(9.81545 0.51594 0)
(9.67769 0.659699 0)
(9.73461 0.627152 0)
(9.57266 0.775839 0)
(9.63986 0.744313 0)
(9.45309 0.899578 0)
(9.53113 0.868684 0)
(9.3188 1.03213 0)
(9.40833 1.00151 0)
(9.16952 1.17472 0)
(9.27127 1.14405 0)
(9.00493 1.32856 0)
(9.1197 1.29756 0)
(8.82458 1.49487 0)
(8.95328 1.4633 0)
(8.62797 1.67484 0)
(8.77157 1.64253 0)
(8.41443 1.86966 0)
(8.57402 1.83651 0)
(8.18317 2.08042 0)
(8.35993 2.04646 0)
(7.93314 2.3081 0)
(8.12841 2.27358 0)
(7.66299 2.55351 0)
(7.8783 2.51891 0)
(7.37095 2.81713 0)
(7.60802 2.78338 0)
(7.05457 3.09901 0)
(7.31546 3.06761 0)
(6.71056 3.39848 0)
(6.99769 3.37182 0)
(6.33438 3.71385 0)
(6.65071 3.69556 0)
(5.91989 4.04181 0)
(6.26897 4.03738 0)
(5.45888 4.37673 0)
(5.84494 4.39417 0)
(4.94075 4.70952 0)
(5.36851 4.76033 0)
(4.35249 5.02616 0)
(4.82651 5.12631 0)
(3.67945 5.30582 0)
(4.203 5.47664 0)
(2.90745 5.51786 0)
(3.47783 5.78709 0)
(2.02766 5.62277 0)
(2.64504 6.0192 0)
(1.04512 5.52928 0)
(1.63777 6.12372 0)
(0.704509 5.94295 0)
(9.98464 0.160026 0)
(9.99402 0.110495 0)
(9.95471 0.265454 0)
(9.97408 0.219463 0)
(9.91061 0.371918 0)
(9.93865 0.328702 0)
(9.85261 0.481004 0)
(9.889 0.439892 0)
(9.78091 0.594185 0)
(9.82611 0.554572 0)
(9.69569 0.712839 0)
(9.75028 0.674184 0)
(9.59701 0.83828 0)
(9.66153 0.800093 0)
(9.48483 0.971799 0)
(9.55986 0.933625 0)
(9.35904 1.11468 0)
(9.44522 1.07609 0)
(9.21946 1.26822 0)
(9.31751 1.22882 0)
(9.06581 1.43371 0)
(9.17654 1.39312 0)
(8.89775 1.61246 0)
(9.02206 1.57035 0)
(8.71481 1.8058 0)
(8.8537 1.76187 0)
(8.51641 2.01503 0)
(8.67101 1.96907 0)
(8.30177 2.24147 0)
(8.47336 2.19335 0)
(8.06988 2.48637 0)
(8.25992 2.43611 0)
(7.81935 2.75091 0)
(8.02956 2.69876 0)
(7.54828 3.03614 0)
(7.78072 2.98267 0)
(7.25409 3.34286 0)
(7.51124 3.28914 0)
(6.93315 3.67151 0)
(7.21809 3.61933 0)
(6.58045 4.02191 0)
(6.89707 3.97415 0)
(6.18904 4.3928 0)
(6.54222 4.35402 0)
(5.74943 4.78122 0)
(6.14528 4.7584 0)
(5.24888 5.18129 0)
(5.69474 5.18509 0)
(4.67081 5.58236 0)
(5.17487 5.62872 0)
(3.99489 5.96613 0)
(4.56502 6.0783 0)
(3.19849 6.30136 0)
(3.83639 6.51314 0)
(2.26189 6.54043 0)
(2.97098 6.89372 0)
(1.1807 6.56497 0)
(1.87931 7.15767 0)
(0.812913 7.09937 0)
(9.98553 0.171013 0)
(9.9944 0.117582 0)
(9.95737 0.283779 0)
(9.97571 0.233588 0)
(9.91597 0.397743 0)
(9.94256 0.349968 0)
(9.86163 0.514545 0)
(9.89619 0.468479 0)
(9.7946 0.635691 0)
(9.83757 0.590693 0)
(9.71505 0.762605 0)
(9.76703 0.718085 0)
(9.62309 0.896661 0)
(9.68461 0.852071 0)
(9.51874 1.03921 0)
(9.59038 0.994031 0)
(9.40197 1.19159 0)
(9.48434 1.14533 0)
(9.27265 1.35517 0)
(9.36647 1.30735 0)
(9.1306 1.5313 0)
(9.23667 1.48147 0)
(8.97557 1.7214 0)
(9.09478 1.66911 0)
(8.8072 1.92689 0)
(8.94054 1.87172 0)
(8.62498 2.14925 0)
(8.77361 2.09083 0)
(8.42824 2.38997 0)
(8.59347 2.32798 0)
(8.21604 2.6506 0)
(8.39944 2.58484 0)
(7.98709 2.93274 0)
(8.19052 2.86311 0)
(7.73955 3.23801 0)
(7.96529 3.16466 0)
(7.47086 3.56804 0)
(7.72176 3.49146 0)
(7.17738 3.92448 0)
(7.45707 3.84567 0)
(6.85398 4.30882 0)
(7.16718 4.2296 0)
(6.49339 4.72223 0)
(6.84627 4.64572 0)
(6.08535 5.16502 0)
(6.48599 5.09648 0)
(5.61542 5.63573 0)
(6.07434 5.58386 0)
(5.06351 6.12921 0)
(5.59384 6.10839 0)
(4.4023 6.63319 0)
(5.01961 6.66687 0)
(3.59635 7.12073 0)
(4.31277 7.24789 0)
(2.60461 7.54034 0)
(3.43605 7.81973 0)
(1.39452 7.74039 0)
(2.25688 8.31488 0)
(1.00288 8.46522 0)
(9.9865 0.181307 0)
(9.9948 0.124195 0)
(9.96025 0.30092 0)
(9.97746 0.246755 0)
(9.92173 0.421852 0)
(9.94673 0.369755 0)
(9.87127 0.545797 0)
(9.90382 0.495025 0)
(9.80914 0.674295 0)
(9.84969 0.624172 0)
(9.73555 0.808809 0)
(9.78468 0.7587 0)
(9.65064 0.950758 0)
(9.70888 0.900063 0)
(9.55451 1.10154 0)
(9.6224 1.04968 0)
(9.44717 1.26255 0)
(9.52532 1.20897 0)
(9.32861 1.4352 0)
(9.41771 1.37935 0)
(9.19873 1.62092 0)
(9.29955 1.56224 0)
(9.05739 1.82118 0)
(9.17079 1.75914 0)
(8.90434 2.03752 0)
(9.03132 1.97157 0)
(8.73923 2.27155 0)
(8.88091 2.20115 0)
(8.56153 2.52495 0)
(8.71923 2.44959 0)
(8.37048 2.79956 0)
(8.54579 2.71874 0)
(8.16498 3.09735 0)
(8.35982 3.01063 0)
(7.94344 3.42051 0)
(8.16021 3.32754 0)
(7.70359 3.7715 0)
(7.94533 3.67207 0)
(7.44213 4.15317 0)
(7.71282 4.0473 0)
(7.15434 4.56875 0)
(7.45924 4.45691 0)
(6.83335 5.02199 0)
(7.17959 4.9054 0)
(6.46909 5.51702 0)
(6.86647 5.39828 0)
(6.04671 6.05799 0)
(6.50885 5.94228 0)
(5.54398 6.64795 0)
(6.0898 6.54532 0)
(4.92725 7.28622 0)
(5.58315 7.21584 0)
(4.14543 7.96079 0)
(4.94288 7.96065 0)
(3.12235 8.63325 0)
(4.11001 8.775 0)
(1.75676 9.128 0)
(2.87933 9.62081 0)
(1.36535 10.1859 0)
(9.98753 0.190858 0)
(9.99522 0.130302 0)
(9.9633 0.316803 0)
(9.97931 0.258905 0)
(9.92781 0.444152 0)
(9.95112 0.387986 0)
(9.88141 0.57465 0)
(9.91183 0.519437 0)
(9.82439 0.709869 0)
(9.86235 0.654898 0)
(9.75699 0.851301 0)
(9.80306 0.795896 0)
(9.67941 1.0004 0)
(9.7341 0.943914 0)
(9.5918 1.15861 0)
(9.65563 1.10041 0)
(9.49425 1.32734 0)
(9.56781 1.26681 0)
(9.38684 1.50806 0)
(9.47078 1.44457 0)
(9.26958 1.70224 0)
(9.36464 1.63517 0)
(9.14246 1.91142 0)
(9.24945 1.84012 0)
(9.00537 2.13721 0)
(9.12524 2.06101 0)
(8.85814 2.38133 0)
(8.99196 2.29953 0)
(8.70045 2.64563 0)
(8.84949 2.55751 0)
(8.53178 2.93217 0)
(8.69759 2.83696 0)
(8.35137 3.24327 0)
(8.53582 3.14014 0)
(8.15805 3.5816 0)
(8.36349 3.46967 0)
(7.95009 3.95034 0)
(8.17956 3.82867 0)
(7.72494 4.35339 0)
(7.98244 4.22094 0)
(7.47887 4.7956 0)
(7.76976 4.65128 0)
(7.20633 5.28315 0)
(7.53806 5.12588 0)
(6.89894 5.82404 0)
(7.28211 5.65297 0)
(6.54376 6.42865 0)
(6.99394 6.24368 0)
(6.12008 7.1104 0)
(6.66086 6.91355 0)
(5.59315 7.88651 0)
(6.26233 7.68488 0)
(4.90147 8.77693 0)
(5.75795 8.59124 0)
(3.92791 9.80106 0)
(5.08844 9.68403 0)
(2.43435 10.8573 0)
(3.98133 11.0491 0)
(2.14776 12.5701 0)
(9.98861 0.199628 0)
(9.99567 0.135881 0)
(9.9665 0.331366 0)
(9.98123 0.269994 0)
(9.93416 0.46456 0)
(9.95567 0.4046 0)
(9.89195 0.600997 0)
(9.92011 0.541642 0)
(9.84021 0.742274 0)
(9.87544 0.682783 0)
(9.77919 0.889907 0)
(9.82204 0.829571 0)
(9.70914 1.04537 0)
(9.76012 0.983506 0)
(9.63028 1.21014 0)
(9.6899 1.14606 0)
(9.5428 1.38564 0)
(9.6116 1.31868 0)
(9.44684 1.57337 0)
(9.52546 1.50284 0)
(9.34255 1.77483 0)
(9.43169 1.70003 0)
(9.23005 1.9916 0)
(9.33048 1.91178 0)
(9.10941 2.22533 0)
(9.22201 2.13971 0)
(8.98064 2.47783 0)
(9.10644 2.38557 0)
(8.84368 2.75106 0)
(8.98389 2.65123 0)
(8.69836 3.04724 0)
(8.85439 2.93881 0)
(8.54432 3.36893 0)
(8.71794 3.25072 0)
(8.38095 3.71916 0)
(8.57436 3.58978 0)
(8.20732 4.10163 0)
(8.42334 3.95941 0)
(8.02197 4.52099 0)
(8.26428 4.36388 0)
(7.82272 4.9833 0)
(8.09631 4.80866 0)
(7.60629 5.49659 0)
(7.91806 5.30096 0)
(7.36769 6.07191 0)
(7.72758 5.85066 0)
(7.09902 6.72493 0)
(7.52203 6.47167 0)
(6.78716 7.47886 0)
(7.2972 7.18459 0)
(6.40862 8.37051 0)
(7.0477 8.02183 0)
(5.91644 9.46446 0)
(6.76345 9.03994 0)
(5.19805 10.9074 0)
(6.46373 10.3548 0)
(3.88736 13.1806 0)
(6.19436 12.3025 0)
(5.26807 16.3776 0)
(0.267357 -0.173439 0)
(0.151694 -0.26186 0)
(0.515835 -0.147365 0)
(0.363401 -0.237621 0)
(0.728834 -0.120127 0)
(0.579692 -0.198882 0)
(0.909729 -0.0977377 0)
(0.772155 -0.164915 0)
(1.0643 -0.0800266 0)
(0.935714 -0.13759 0)
(1.19748 -0.0659984 0)
(1.07553 -0.115748 0)
(1.31327 -0.0548337 0)
(1.19719 -0.0982546 0)
(1.41487 -0.0458887 0)
(1.30459 -0.0841854 0)
(1.50478 -0.0386354 0)
(1.40034 -0.0727329 0)
(1.58486 -0.0326361 0)
(1.4863 -0.06325 0)
(1.65644 -0.0274725 0)
(1.56393 -0.0552081 0)
(1.72016 -0.0226549 0)
(1.63428 -0.0479801 0)
(1.77547 -0.0176656 0)
(1.69781 -0.0406629 0)
(1.82054 -0.0122563 0)
(1.75381 -0.0323554 0)
(1.85346 -0.00679232 0)
(1.80041 -0.0230709 0)
(1.87435 -0.00211598 0)
(1.83581 -0.0142966 0)
(1.88561 0.00125519 0)
(1.86047 -0.00752435 0)
(1.88858 0.00353625 0)
(1.87731 -0.00193604 0)
(1.88283 0.00508692 0)
(1.88787 0.00366 0)
(1.87014 0.00610506 0)
(1.89168 0.00789592 0)
(1.85425 0.00681696 0)
(1.88854 0.00964614 0)
(1.84044 0.00746917 0)
(1.88273 0.00819179 0)
(1.83282 0.00767957 0)
(1.87861 0.00440741 0)
(1.83471 0.0062449 0)
(1.87842 -0.00106667 0)
(1.84731 0.00277614 0)
(1.88272 -0.00695151 0)
(1.87215 -0.00224593 0)
(1.8922 -0.0133843 0)
(1.90942 -0.00852255 0)
(1.90722 -0.019609 0)
(1.95874 -0.0153533 0)
(1.92793 -0.0253367 0)
(2.0183 -0.0203378 0)
(1.95481 -0.0298748 0)
(1.99634 -0.0279916 0)
(0.225286 -0.370408 0)
(0.111907 -0.482513 0)
(0.444856 -0.326781 0)
(0.298905 -0.447597 0)
(0.637204 -0.273162 0)
(0.477144 -0.378481 0)
(0.803141 -0.227435 0)
(0.63752 -0.316195 0)
(0.947515 -0.19088 0)
(0.774935 -0.266102 0)
(1.07454 -0.161801 0)
(0.893724 -0.22615 0)
(1.18751 -0.138564 0)
(0.998075 -0.194119 0)
(1.28894 -0.119828 0)
(1.09088 -0.168223 0)
(1.38071 -0.104507 0)
(1.17408 -0.146968 0)
(1.46426 -0.0917566 0)
(1.24898 -0.129248 0)
(1.54087 -0.0807707 0)
(1.31658 -0.114286 0)
(1.61151 -0.0704549 0)
(1.37793 -0.101178 0)
(1.67637 -0.0594466 0)
(1.43398 -0.0883457 0)
(1.73408 -0.0469829 0)
(1.48489 -0.0737848 0)
(1.78234 -0.0340359 0)
(1.5294 -0.056891 0)
(1.82031 -0.0225163 0)
(1.56454 -0.0402834 0)
(1.85087 -0.0121356 0)
(1.58843 -0.0279419 0)
(1.87628 -0.00139846 0)
(1.60689 -0.0185132 0)
(1.89573 0.00768009 0)
(1.62195 -0.00872954 0)
(1.90833 0.0116318 0)
(1.6186 5.51494e-05 0)
(1.91482 0.00963462 0)
(1.59845 0.00570808 0)
(1.91931 0.00298947 0)
(1.5658 0.00552842 0)
(1.92273 -0.00606822 0)
(1.52633 0.00243015 0)
(1.92505 -0.0154933 0)
(1.48456 -0.00238311 0)
(1.92683 -0.0238266 0)
(1.44492 -0.00793383 0)
(1.92675 -0.0301986 0)
(1.41255 -0.0133413 0)
(1.92523 -0.0346743 0)
(1.39332 -0.0188046 0)
(1.92376 -0.0373488 0)
(1.38096 -0.0245833 0)
(1.92499 -0.036706 0)
(1.38178 -0.0304937 0)
(1.40725 -0.0381253 0)
(0.175495 -0.569895 0)
(0.077047 -0.6544 0)
(0.343045 -0.509376 0)
(0.221732 -0.607826 0)
(0.488464 -0.430723 0)
(0.343674 -0.514261 0)
(0.613592 -0.362657 0)
(0.455561 -0.43027 0)
(0.722099 -0.307776 0)
(0.54925 -0.362687 0)
(0.817018 -0.263733 0)
(0.629232 -0.308645 0)
(0.900794 -0.228152 0)
(0.698118 -0.26521 0)
(0.975202 -0.199032 0)
(0.757784 -0.229873 0)
(1.04143 -0.174823 0)
(0.809537 -0.200544 0)
(1.10032 -0.154495 0)
(0.854087 -0.175766 0)
(1.15283 -0.137232 0)
(0.891681 -0.154779 0)
(1.20021 -0.121617 0)
(0.922758 -0.136856 0)
(1.2433 -0.105053 0)
(0.948408 -0.120024 0)
(1.2812 -0.0850524 0)
(0.969895 -0.100993 0)
(1.31085 -0.0633242 0)
(0.989027 -0.0776706 0)
(1.32995 -0.046912 0)
(1.00367 -0.0533531 0)
(1.34396 -0.0388939 0)
(0.992106 -0.0373027 0)
(1.3531 -0.0322628 0)
(0.949597 -0.0244763 0)
(1.34268 -0.0203034 0)
(0.905994 -0.00209641 0)
(1.30607 -0.00640427 0)
(0.861978 0.0228258 0)
(1.24679 0.00337914 0)
(0.805157 0.0417093 0)
(1.17098 0.00795905 0)
(0.73849 0.0504755 0)
(1.0867 0.00904082 0)
(0.667409 0.0512207 0)
(1.00301 0.00850287 0)
(0.59794 0.0449214 0)
(0.930244 0.00622564 0)
(0.536941 0.0322232 0)
(0.878978 0.00136963 0)
(0.49035 0.0142833 0)
(0.84734 -0.00578581 0)
(0.467437 -0.00215906 0)
(0.837982 -0.0155174 0)
(0.466551 -0.0197756 0)
(0.856308 -0.0297543 0)
(0.483965 -0.0396854 0)
(0.53676 -0.060938 0)
(0.123525 -0.707688 0)
(0.0442753 -0.775385 0)
(0.231166 -0.62843 0)
(0.137548 -0.710764 0)
(0.32015 -0.529568 0)
(0.194244 -0.597347 0)
(0.395016 -0.445186 0)
(0.251021 -0.498523 0)
(0.458005 -0.37716 0)
(0.292515 -0.418756 0)
(0.510845 -0.322424 0)
(0.324824 -0.354569 0)
(0.555111 -0.278058 0)
(0.348695 -0.302774 0)
(0.591915 -0.241496 0)
(0.365193 -0.260367 0)
(0.621823 -0.210688 0)
(0.375238 -0.224738 0)
(0.644855 -0.184358 0)
(0.37922 -0.193959 0)
(0.660979 -0.16194 0)
(0.376615 -0.167214 0)
(0.671258 -0.142831 0)
(0.366172 -0.144596 0)
(0.677624 -0.125292 0)
(0.345493 -0.124705 0)
(0.681571 -0.106157 0)
(0.313723 -0.103826 0)
(0.680538 -0.0816006 0)
(0.278077 -0.0769463 0)
(0.658896 -0.0504238 0)
(0.238081 -0.038543 0)
(0.597569 -0.0183448 0)
(0.191253 0.00367446 0)
(0.50685 0.011291 0)
(0.12387 0.0347087 0)
(0.423061 0.0407139 0)
(0.05541 0.0512757 0)
(0.354487 0.0654723 0)
(0.00433741 0.0654753 0)
(0.291696 0.0797275 0)
(-0.045232 0.0798393 0)
(0.231372 0.0834611 0)
(-0.0912145 0.086242 0)
(0.176131 0.0777333 0)
(-0.131456 0.0832003 0)
(0.129944 0.0629142 0)
(-0.16391 0.0710277 0)
(0.0965212 0.0397563 0)
(-0.186911 0.0506689 0)
(0.078728 0.0123692 0)
(-0.200351 0.0238712 0)
(0.0844226 -0.0142654 0)
(-0.201769 -0.00515514 0)
(0.111194 -0.0416158 0)
(-0.181919 -0.033528 0)
(0.157238 -0.0699347 0)
(-0.157265 -0.0627797 0)
(-0.120094 -0.0842688 0)
(0.0652408 -0.78891 0)
(0.0103665 -0.839284 0)
(0.106958 -0.689955 0)
(0.0445324 -0.750659 0)
(0.134044 -0.575895 0)
(0.0312021 -0.622638 0)
(0.152228 -0.48062 0)
(0.0277935 -0.5151 0)
(0.16202 -0.403449 0)
(0.0110886 -0.427473 0)
(0.164286 -0.341074 0)
(-0.0111459 -0.356538 0)
(0.159821 -0.290375 0)
(-0.0397066 -0.298985 0)
(0.14933 -0.248468 0)
(-0.0740228 -0.251675 0)
(0.133257 -0.212816 0)
(-0.113497 -0.211735 0)
(0.111321 -0.181423 0)
(-0.157636 -0.176632 0)
(0.0818391 -0.152729 0)
(-0.206251 -0.144477 0)
(0.0410526 -0.124812 0)
(-0.259546 -0.113884 0)
(-0.0147023 -0.0955907 0)
(-0.319375 -0.0837129 0)
(-0.084297 -0.0620039 0)
(-0.386781 -0.0538677 0)
(-0.163545 -0.021817 0)
(-0.45611 -0.021402 0)
(-0.23581 0.0185623 0)
(-0.51987 0.0109109 0)
(-0.286638 0.0480947 0)
(-0.566087 0.0376366 0)
(-0.324351 0.0650651 0)
(-0.601999 0.0593124 0)
(-0.36438 0.0770906 0)
(-0.636771 0.076774 0)
(-0.403242 0.0887608 0)
(-0.666553 0.0896451 0)
(-0.434612 0.0963173 0)
(-0.691418 0.0988892 0)
(-0.458606 0.0950986 0)
(-0.709561 0.100468 0)
(-0.475084 0.0841614 0)
(-0.720645 0.0927395 0)
(-0.483853 0.0643886 0)
(-0.7251 0.0759845 0)
(-0.485386 0.0377831 0)
(-0.724002 0.051515 0)
(-0.480771 0.00722843 0)
(-0.719276 0.0213843 0)
(-0.469382 -0.0246816 0)
(-0.71248 -0.0111468 0)
(-0.451135 -0.0552128 0)
(-0.69784 -0.0429014 0)
(-0.433009 -0.0799993 0)
(-0.686704 -0.0718713 0)
(-0.680922 -0.0931578 0)
(-0.00343076 -0.805079 0)
(-0.0279654 -0.835924 0)
(-0.0285033 -0.686411 0)
(-0.0585408 -0.726681 0)
(-0.0659842 -0.561525 0)
(-0.140616 -0.587642 0)
(-0.109197 -0.459637 0)
(-0.208153 -0.475705 0)
(-0.15829 -0.376622 0)
(-0.283999 -0.383773 0)
(-0.212561 -0.309256 0)
(-0.361276 -0.30937 0)
(-0.271688 -0.254027 0)
(-0.440246 -0.248811 0)
(-0.335352 -0.207711 0)
(-0.519974 -0.198927 0)
(-0.403097 -0.167551 0)
(-0.599609 -0.156932 0)
(-0.474047 -0.131552 0)
(-0.678402 -0.120592 0)
(-0.54662 -0.0985618 0)
(-0.755528 -0.0885081 0)
(-0.618772 -0.0679835 0)
(-0.829835 -0.0595534 0)
(-0.688656 -0.0395102 0)
(-0.900408 -0.0323332 0)
(-0.755157 -0.0126959 0)
(-0.963645 -0.00612986 0)
(-0.810244 0.0124619 0)
(-1.01834 0.0172084 0)
(-0.85172 0.0364802 0)
(-1.06009 0.0392944 0)
(-0.885876 0.0597312 0)
(-1.09401 0.0604587 0)
(-0.915317 0.0793779 0)
(-1.12251 0.0785194 0)
(-0.939852 0.0931237 0)
(-1.14542 0.092403 0)
(-0.959204 0.101654 0)
(-1.16219 0.101681 0)
(-0.970837 0.104179 0)
(-1.1722 0.105953 0)
(-0.975209 0.0985352 0)
(-1.17538 0.103061 0)
(-0.973748 0.084179 0)
(-1.17271 0.0918935 0)
(-0.968051 0.0619768 0)
(-1.16578 0.0727646 0)
(-0.959837 0.0336927 0)
(-1.15656 0.0469818 0)
(-0.950608 0.00179214 0)
(-1.14723 0.016411 0)
(-0.941456 -0.0307047 0)
(-1.13916 -0.0159616 0)
(-0.932885 -0.061033 0)
(-1.13107 -0.0473045 0)
(-0.925428 -0.0858681 0)
(-1.12843 -0.0756118 0)
(-1.12983 -0.0969864 0)
(-0.0716702 -0.750495 0)
(-0.0723497 -0.765728 0)
(-0.169695 -0.617459 0)
(-0.167709 -0.63294 0)
(-0.272624 -0.489518 0)
(-0.314667 -0.491535 0)
(-0.377919 -0.386825 0)
(-0.443825 -0.379711 0)
(-0.48282 -0.303956 0)
(-0.57155 -0.290397 0)
(-0.586171 -0.237315 0)
(-0.693079 -0.219547 0)
(-0.686568 -0.183497 0)
(-0.807671 -0.163615 0)
(-0.782756 -0.139519 0)
(-0.914604 -0.119231 0)
(-0.873635 -0.102746 0)
(-1.01341 -0.0834129 0)
(-0.958717 -0.0711037 0)
(-1.10415 -0.0533883 0)
(-1.03769 -0.043244 0)
(-1.18512 -0.0276002 0)
(-1.11009 -0.018293 0)
(-1.25691 -0.00503728 0)
(-1.17334 0.00420702 0)
(-1.31992 0.0141672 0)
(-1.2249 0.0247217 0)
(-1.37379 0.030881 0)
(-1.26752 0.0440858 0)
(-1.41791 0.0470797 0)
(-1.30319 0.0626217 0)
(-1.45533 0.0637091 0)
(-1.33168 0.0794649 0)
(-1.48543 0.0794895 0)
(-1.35343 0.0931367 0)
(-1.50841 0.0927138 0)
(-1.36878 0.102483 0)
(-1.52453 0.102177 0)
(-1.37767 0.106835 0)
(-1.53393 0.107214 0)
(-1.37959 0.105159 0)
(-1.53667 0.107119 0)
(-1.37547 0.0962287 0)
(-1.53338 0.100616 0)
(-1.36707 0.0797846 0)
(-1.52546 0.087031 0)
(-1.35634 0.0566369 0)
(-1.51472 0.0667002 0)
(-1.34519 0.0284068 0)
(-1.50325 0.0408295 0)
(-1.33538 -0.00267184 0)
(-1.4932 0.0111244 0)
(-1.32845 -0.0339889 0)
(-1.48604 -0.0196064 0)
(-1.32465 -0.0632678 0)
(-1.48245 -0.0492612 0)
(-1.3233 -0.0874613 0)
(-1.48449 -0.0762888 0)
(-1.48823 -0.0966348 0)
(-0.14487 -0.628796 0)
(-0.122743 -0.623836 0)
(-0.310272 -0.488077 0)
(-0.279076 -0.474765 0)
(-0.474621 -0.364245 0)
(-0.485491 -0.33808 0)
(-0.63159 -0.268743 0)
(-0.666638 -0.236607 0)
(-0.777646 -0.194976 0)
(-0.834046 -0.160388 0)
(-0.911951 -0.137784 0)
(-0.984771 -0.10282 0)
(-1.03395 -0.0930803 0)
(-1.11682 -0.0600881 0)
(-1.14407 -0.0578622 0)
(-1.23242 -0.0279934 0)
(-1.24288 -0.0296928 0)
(-1.33341 -0.00347786 0)
(-1.32949 -0.00699129 0)
(-1.42155 0.015025 0)
(-1.40351 0.0116036 0)
(-1.49806 0.0294821 0)
(-1.46581 0.0273991 0)
(-1.5642 0.0418775 0)
(-1.51894 0.0415262 0)
(-1.62062 0.0532263 0)
(-1.56541 0.0552062 0)
(-1.66997 0.0642363 0)
(-1.60541 0.0689818 0)
(-1.71222 0.0751157 0)
(-1.63796 0.0823413 0)
(-1.74704 0.0859888 0)
(-1.66274 0.0940302 0)
(-1.77419 0.0960456 0)
(-1.6801 0.102801 0)
(-1.79386 0.104041 0)
(-1.69061 0.107703 0)
(-1.80647 0.108868 0)
(-1.69463 0.107979 0)
(-1.81247 0.109717 0)
(-1.69252 0.102767 0)
(-1.81235 0.105836 0)
(-1.6854 0.091307 0)
(-1.80704 0.0963966 0)
(-1.67502 0.0735233 0)
(-1.79799 0.081018 0)
(-1.66329 0.0501952 0)
(-1.78699 0.0600707 0)
(-1.65219 0.0228242 0)
(-1.77609 0.0347048 0)
(-1.64361 -0.00657698 0)
(-1.76735 0.00649849 0)
(-1.63918 -0.0358306 0)
(-1.76226 -0.0219332 0)
(-1.63905 -0.0631986 0)
(-1.76266 -0.0493309 0)
(-1.64274 -0.0857999 0)
(-1.76832 -0.0744351 0)
(-1.77345 -0.0927202 0)
(-0.220661 -0.445923 0)
(-0.182631 -0.407712 0)
(-0.448855 -0.308952 0)
(-0.402371 -0.256541 0)
(-0.666111 -0.200635 0)
(-0.658805 -0.135223 0)
(-0.863171 -0.120825 0)
(-0.872035 -0.0569537 0)
(-1.03752 -0.0618121 0)
(-1.05678 -0.00519677 0)
(-1.18712 -0.0202264 0)
(-1.21438 0.0272005 0)
(-1.31376 0.00779555 0)