/*--------------------------------*- C++ -*----------------------------------*\
  =========                 |
  \\      /  F ield         | OpenFOAM: The Open Source CFD Toolbox
   \\    /   O peration     | Website:  https://openfoam.org
    \\  /    A nd           | Version:  7
     \\/     M anipulation  |
\*---------------------------------------------------------------------------*/
FoamFile
{
    version     2.0;
    format      ascii;
    class       volVectorField;
    location    "6.05";
    object      U;
}
// * * * * * * * * * * * * * * * * * * * * * * * * * * * * * * * * * * * * * //

dimensions      [0 1 -1 0 0 0 0];

internalField   nonuniform List<vector> 
12013
(
(0.100768 -0.000207919 0)
(0.103796 -0.000367618 0)
(0.108476 -0.000508896 0)
(0.114368 -0.000635588 0)
(0.121343 -0.000752477 0)
(0.129283 -0.000862853 0)
(0.138095 -0.000969142 0)
(0.147712 -0.00107315 0)
(0.158085 -0.00117602 0)
(0.169173 -0.00127818 0)
(0.180937 -0.00137941 0)
(0.193335 -0.00147886 0)
(0.206317 -0.00157518 0)
(0.219821 -0.0016667 0)
(0.233777 -0.00175161 0)
(0.248102 -0.00182817 0)
(0.262703 -0.00189483 0)
(0.277484 -0.00195039 0)
(0.292346 -0.00199401 0)
(0.307191 -0.00202526 0)
(0.321924 -0.00204407 0)
(0.336458 -0.00205073 0)
(0.350713 -0.00204577 0)
(0.364618 -0.00202994 0)
(0.378114 -0.00200413 0)
(0.391149 -0.00196933 0)
(0.403684 -0.00192654 0)
(0.415686 -0.00187678 0)
(0.427133 -0.00182106 0)
(0.43801 -0.00176031 0)
(0.448308 -0.00169541 0)
(0.458026 -0.0016272 0)
(0.467167 -0.00155641 0)
(0.475738 -0.00148372 0)
(0.48375 -0.0014097 0)
(0.491219 -0.00133493 0)
(0.49816 -0.00125988 0)
(0.504594 -0.00118492 0)
(0.510542 -0.00111043 0)
(0.516024 -0.00103672 0)
(0.521065 -0.000964079 0)
(0.525687 -0.000892695 0)
(0.529915 -0.000822748 0)
(0.533774 -0.00075439 0)
(0.537287 -0.00068774 0)
(0.540478 -0.000622873 0)
(0.543373 -0.000559825 0)
(0.545994 -0.0004986 0)
(0.548365 -0.000439173 0)
(0.550508 -0.000381485 0)
(0.552446 -0.000325438 0)
(0.5542 -0.000270888 0)
(0.555791 -0.000217647 0)
(0.557239 -0.000165475 0)
(0.558563 -0.000114084 0)
(0.559781 -6.31265e-05 0)
(0.56091 -1.21923e-05 0)
(0.561966 3.91957e-05 0)
(0.562963 9.16198e-05 0)
(0.563916 0.000145793 0)
(0.564836 0.000202577 0)
(0.565733 0.000263017 0)
(0.566615 0.000328382 0)
(0.567487 0.00040022 0)
(0.568352 0.000480449 0)
(0.56921 0.000571468 0)
(0.570053 0.000676324 0)
(0.570871 0.000798956 0)
(0.571644 0.000944567 0)
(0.572343 0.0011202 0)
(0.572925 0.00133567 0)
(0.573325 0.00160509 0)
(0.57345 0.0019496 0)
(0.57316 0.00240222 0)
(0.57224 0.00301706 0)
(0.570351 0.00388772 0)
(0.566938 0.00518593 0)
(0.56102 0.00725301 0)
(0.550838 0.0108963 0)
(0.533315 0.0189818 0)
(0.51548 0.0509088 0)
(0.100702 -0.000633765 0)
(0.103716 -0.00112558 0)
(0.108373 -0.00155848 0)
(0.114246 -0.00194606 0)
(0.121206 -0.00230345 0)
(0.129131 -0.00264068 0)
(0.137931 -0.00296521 0)
(0.147538 -0.00328263 0)
(0.157902 -0.0035964 0)
(0.168984 -0.00390789 0)
(0.180744 -0.00421642 0)
(0.193141 -0.00451941 0)
(0.206125 -0.00481276 0)
(0.219636 -0.0050914 0)
(0.233602 -0.00534985 0)
(0.247939 -0.00558281 0)
(0.262557 -0.00578563 0)
(0.277357 -0.00595464 0)
(0.29224 -0.00608734 0)
(0.307108 -0.00618242 0)
(0.321866 -0.00623972 0)
(0.336425 -0.00626008 0)
(0.350705 -0.00624514 0)
(0.364635 -0.00619717 0)
(0.378155 -0.00611887 0)
(0.391214 -0.0060132 0)
(0.40377 -0.00588324 0)
(0.415793 -0.00573206 0)
(0.42726 -0.00556267 0)
(0.438154 -0.00537794 0)
(0.448468 -0.00518053 0)
(0.458201 -0.00497293 0)
(0.467354 -0.00475739 0)
(0.475936 -0.00453595 0)
(0.483957 -0.00431043 0)
(0.491433 -0.00408247 0)
(0.498381 -0.00385348 0)
(0.504819 -0.00362473 0)
(0.510769 -0.00339732 0)
(0.516253 -0.0031722 0)
(0.521293 -0.00295014 0)
(0.525913 -0.00273183 0)
(0.530138 -0.00251783 0)
(0.533991 -0.0023086 0)
(0.537496 -0.00210447 0)
(0.540679 -0.00190566 0)
(0.543563 -0.0017123 0)
(0.546171 -0.00152443 0)
(0.548527 -0.00134197 0)
(0.550654 -0.00116473 0)
(0.552573 -0.000992395 0)
(0.554306 -0.000824535 0)
(0.555873 -0.000660571 0)
(0.557295 -0.000499781 0)
(0.558589 -0.000341281 0)
(0.559775 -0.000183998 0)
(0.560869 -2.66717e-05 0)
(0.561886 0.000132143 0)
(0.562842 0.000294201 0)
(0.56375 0.000461646 0)
(0.564621 0.000637106 0)
(0.565466 0.000823749 0)
(0.566293 0.00102541 0)
(0.567107 0.00124678 0)
(0.567911 0.00149361 0)
(0.568705 0.00177312 0)
(0.569485 0.00209438 0)
(0.570239 0.00246908 0)
(0.570951 0.00291254 0)
(0.571597 0.00344531 0)
(0.572139 0.0040957 0)
(0.572525 0.00490384 0)
(0.572678 0.0059286 0)
(0.572492 0.00725952 0)
(0.571815 0.00903831 0)
(0.570431 0.0114987 0)
(0.568037 0.0150426 0)
(0.564205 0.0203906 0)
(0.558388 0.02891 0)
(0.5505 0.043259 0)
(0.548251 0.068325 0)
(0.100629 -0.00107457 0)
(0.103601 -0.00192907 0)
(0.10821 -0.00267527 0)
(0.114044 -0.00334303 0)
(0.120969 -0.00395866 0)
(0.128865 -0.00453945 0)
(0.137639 -0.00509837 0)
(0.147225 -0.00564506 0)
(0.157572 -0.00618559 0)
(0.168641 -0.00672236 0)
(0.180395 -0.00725421 0)
(0.192791 -0.00777671 0)
(0.205782 -0.0082828 0)
(0.219307 -0.00876368 0)
(0.233293 -0.00920991 0)
(0.247659 -0.00961228 0)
(0.262311 -0.00996274 0)
(0.277151 -0.0102549 0)
(0.292079 -0.0104845 0)
(0.306995 -0.0106491 0)
(0.321803 -0.0107485 0)
(0.336414 -0.0107842 0)
(0.350746 -0.0107589 0)
(0.364727 -0.0106766 0)
(0.378297 -0.0105419 0)
(0.391403 -0.01036 0)
(0.404005 -0.0101361 0)
(0.41607 -0.00987557 0)
(0.427575 -0.00958361 0)
(0.438505 -0.00926516 0)
(0.448852 -0.00892481 0)
(0.458613 -0.00856685 0)
(0.467792 -0.00819516 0)
(0.476396 -0.00781326 0)
(0.484437 -0.00742429 0)
(0.491928 -0.00703104 0)
(0.498889 -0.006636 0)
(0.505336 -0.00624132 0)
(0.511293 -0.00584888 0)
(0.516779 -0.00546029 0)
(0.52182 -0.00507692 0)
(0.526437 -0.00469995 0)
(0.530656 -0.00433034 0)
(0.5345 -0.00396883 0)
(0.537994 -0.00361597 0)
(0.541162 -0.00327217 0)
(0.544027 -0.00293764 0)
(0.546614 -0.00261243 0)
(0.548945 -0.00229639 0)
(0.551042 -0.00198916 0)
(0.552929 -0.00169021 0)
(0.554625 -0.00139877 0)
(0.556152 -0.00111385 0)
(0.557529 -0.000834207 0)
(0.558774 -0.000558296 0)
(0.559906 -0.000284265 0)
(0.56094 -9.98594e-06 0)
(0.561894 0.000267075 0)
(0.562781 0.00054985 0)
(0.563614 0.000842002 0)
(0.564406 0.00114797 0)
(0.565166 0.0014731 0)
(0.565904 0.00182383 0)
(0.566625 0.00220798 0)
(0.567332 0.00263511 0)
(0.568027 0.00311707 0)
(0.568708 0.0036687 0)
(0.569366 0.00430885 0)
(0.569991 0.00506194 0)
(0.570565 0.00596014 0)
(0.571061 0.00704682 0)
(0.571446 0.00838177 0)
(0.571673 0.0100495 0)
(0.571686 0.0121726 0)
(0.571418 0.0149329 0)
(0.570806 0.0186072 0)
(0.569817 0.0236225 0)
(0.568525 0.0306442 0)
(0.567294 0.0407154 0)
(0.567221 0.0553797 0)
(0.572116 0.0759358 0)
(0.100552 -0.00152526 0)
(0.103468 -0.00277483 0)
(0.108006 -0.00385764 0)
(0.11378 -0.00482715 0)
(0.120654 -0.0057207 0)
(0.128505 -0.00656352 0)
(0.137241 -0.00737464 0)
(0.146794 -0.00816821 0)
(0.157116 -0.00895313 0)
(0.168169 -0.00973299 0)
(0.179914 -0.0105062 0)
(0.192314 -0.0112662 0)
(0.205318 -0.0120029 0)
(0.218869 -0.0127033 0)
(0.232893 -0.0133536 0)
(0.247308 -0.0139404 0)
(0.262019 -0.0144516 0)
(0.276928 -0.0148781 0)
(0.291932 -0.0152134 0)
(0.306928 -0.015454 0)
(0.32182 -0.0155997 0)
(0.336515 -0.0156523 0)
(0.350932 -0.0156162 0)
(0.364996 -0.015497 0)
(0.378646 -0.0153014 0)
(0.391829 -0.015037 0)
(0.404502 -0.0147116 0)
(0.416635 -0.0143328 0)
(0.428201 -0.0139082 0)
(0.439188 -0.0134451 0)
(0.449585 -0.0129502 0)
(0.459391 -0.0124296 0)
(0.46861 -0.0118891 0)
(0.477248 -0.0113337 0)
(0.485318 -0.0107681 0)
(0.492833 -0.0101962 0)
(0.499813 -0.00962165 0)
(0.506275 -0.00904757 0)
(0.512241 -0.00847667 0)
(0.517733 -0.00791131 0)
(0.522774 -0.00735345 0)
(0.527388 -0.00680476 0)
(0.531599 -0.00626659 0)
(0.535431 -0.00574 0)
(0.538909 -0.00522582 0)
(0.542056 -0.0047246 0)
(0.544896 -0.00423662 0)
(0.547454 -0.0037619 0)
(0.549751 -0.0033002 0)
(0.55181 -0.00285101 0)
(0.553653 -0.00241352 0)
(0.555301 -0.00198662 0)
(0.556774 -0.00156886 0)
(0.558091 -0.0011584 0)
(0.559272 -0.000753015 0)
(0.560334 -0.000350019 0)
(0.561293 5.36045e-05 0)
(0.562165 0.000461408 0)
(0.562964 0.000877603 0)
(0.563704 0.00130739 0)
(0.564398 0.00175703 0)
(0.565055 0.00223397 0)
(0.565684 0.00274716 0)
(0.566293 0.00330734 0)
(0.566888 0.00392756 0)
(0.56747 0.00462379 0)
(0.56804 0.00541575 0)
(0.568597 0.00632813 0)
(0.569136 0.00739221 0)
(0.569648 0.00864825 0)
(0.570122 0.0101488 0)
(0.570547 0.0119635 0)
(0.570911 0.0141858 0)
(0.571207 0.0169428 0)
(0.571448 0.0204083 0)
(0.571682 0.0248192 0)
(0.572037 0.0304929 0)
(0.572789 0.0378369 0)
(0.574471 0.0473234 0)
(0.578013 0.0593433 0)
(0.585017 0.0736146 0)
(0.100474 -0.0019853 0)
(0.103326 -0.00366052 0)
(0.107778 -0.00510446 0)
(0.113476 -0.00639888 0)
(0.120282 -0.00759175 0)
(0.128075 -0.00871674 0)
(0.13676 -0.00979956 0)
(0.146273 -0.0108593 0)
(0.156564 -0.0119082 0)
(0.167598 -0.012951 0)
(0.179338 -0.0139859 0)
(0.191747 -0.0150041 0)
(0.204779 -0.0159919 0)
(0.218374 -0.0169319 0)
(0.232461 -0.0178053 0)
(0.246955 -0.0185938 0)
(0.261761 -0.0192813 0)
(0.276776 -0.0198551 0)
(0.291896 -0.0203065 0)
(0.307016 -0.0206308 0)
(0.322035 -0.0208274 0)
(0.336858 -0.0208991 0)
(0.3514 -0.0208514 0)
(0.365587 -0.0206922 0)
(0.379354 -0.0204306 0)
(0.392647 -0.0200766 0)
(0.405423 -0.0196407 0)
(0.417651 -0.0191334 0)
(0.429304 -0.0185648 0)
(0.440369 -0.0179446 0)
(0.450837 -0.0172819 0)
(0.460705 -0.0165849 0)
(0.469977 -0.0158612 0)
(0.478661 -0.0151177 0)
(0.486769 -0.0143604 0)
(0.494317 -0.0135949 0)
(0.501321 -0.0128257 0)
(0.507801 -0.0120572 0)
(0.513779 -0.0112928 0)
(0.519277 -0.0105357 0)
(0.524319 -0.00978852 0)
(0.528927 -0.00905339 0)
(0.533127 -0.00833212 0)
(0.536943 -0.00762612 0)
(0.540399 -0.00693643 0)
(0.543519 -0.00626374 0)
(0.546328 -0.00560838 0)
(0.548847 -0.00497036 0)
(0.551101 -0.00434933 0)
(0.553112 -0.00374459 0)
(0.554901 -0.00315504 0)
(0.556489 -0.00257917 0)
(0.557897 -0.00201503 0)
(0.559143 -0.00146019 0)
(0.560247 -0.000911681 0)
(0.561225 -0.000365996 0)
(0.562095 0.000180782 0)
(0.562871 0.000733118 0)
(0.56357 0.00129657 0)
(0.564204 0.00187784 0)
(0.564787 0.00248489 0)
(0.565328 0.00312712 0)
(0.565839 0.0038157 0)
(0.566329 0.0045639 0)
(0.566803 0.00538763 0)
(0.567269 0.00630602 0)
(0.567731 0.00734234 0)
(0.568193 0.00852502 0)
(0.568658 0.00988917 0)
(0.569128 0.0114784 0)
(0.56961 0.0133476 0)
(0.570111 0.0155655 0)
(0.570649 0.0182192 0)
(0.571257 0.0214177 0)
(0.571995 0.0252959 0)
(0.572969 0.0300151 0)
(0.574352 0.0357559 0)
(0.576422 0.0426937 0)
(0.57959 0.0509392 0)
(0.584411 0.0604145 0)
(0.591534 0.0706194 0)
(0.100394 -0.00245491 0)
(0.103185 -0.00458466 0)
(0.107541 -0.00641531 0)
(0.113149 -0.00805922 0)
(0.119876 -0.00957463 0)
(0.127599 -0.0110039 0)
(0.136226 -0.01238 0)
(0.145691 -0.0137275 0)
(0.15595 -0.0150623 0)
(0.166966 -0.016391 0)
(0.178708 -0.0177112 0)
(0.191142 -0.0190118 0)
(0.204222 -0.0202751 0)
(0.217891 -0.0214787 0)
(0.232077 -0.0225981 0)
(0.246693 -0.0236096 0)
(0.261641 -0.024492 0)
(0.276816 -0.0252289 0)
(0.292107 -0.0258087 0)
(0.307405 -0.0262256 0)
(0.322605 -0.0264786 0)
(0.337609 -0.0265713 0)
(0.352328 -0.0265111 0)
(0.366684 -0.0263079 0)
(0.380611 -0.0259736 0)
(0.394054 -0.0255213 0)
(0.406969 -0.0249643 0)
(0.419323 -0.0243161 0)
(0.43109 -0.0235898 0)
(0.442257 -0.0227979 0)
(0.452814 -0.0219518 0)
(0.462761 -0.0210621 0)
(0.4721 -0.0201387 0)
(0.480841 -0.0191901 0)
(0.488996 -0.0182241 0)
(0.496581 -0.0172476 0)
(0.503614 -0.0162665 0)
(0.510114 -0.0152863 0)
(0.516104 -0.0143113 0)
(0.521607 -0.0133454 0)
(0.526646 -0.0123921 0)
(0.531245 -0.0114539 0)
(0.535429 -0.0105331 0)
(0.539222 -0.00963138 0)
(0.542649 -0.0087501 0)
(0.545734 -0.00789003 0)
(0.548501 -0.00705157 0)
(0.550973 -0.0062347 0)
(0.553174 -0.00543893 0)
(0.555125 -0.00466335 0)
(0.556849 -0.00390652 0)
(0.558365 -0.00316652 0)
(0.559695 -0.00244089 0)
(0.560858 -0.00172658 0)
(0.561872 -0.00101989 0)
(0.562754 -0.000316544 0)
(0.563523 0.000388204 0)
(0.564193 0.00109978 0)
(0.564779 0.00182498 0)
(0.565297 0.00257189 0)
(0.565759 0.00334997 0)
(0.566178 0.00417025 0)
(0.566564 0.00504567 0)
(0.566929 0.00599141 0)
(0.567283 0.00702533 0)
(0.567634 0.00816853 0)
(0.567993 0.00944602 0)
(0.568369 0.0108875 0)
(0.568773 0.0125286 0)
(0.569218 0.0144115 0)
(0.569722 0.0165868 0)
(0.570311 0.0191143 0)
(0.571022 0.0220639 0)
(0.571909 0.0255154 0)
(0.573051 0.0295558 0)
(0.574561 0.0342725 0)
(0.576598 0.039739 0)
(0.579371 0.0459897 0)
(0.583135 0.0529786 0)
(0.588172 0.0605211 0)
(0.594705 0.0682262 0)
(0.100314 -0.00293494 0)
(0.103049 -0.00554684 0)
(0.107307 -0.00779073 0)
(0.112817 -0.00980995 0)
(0.119456 -0.0116729 0)
(0.127103 -0.0134307 0)
(0.135666 -0.015124 0)
(0.145082 -0.0167837 0)
(0.155309 -0.0184298 0)
(0.166316 -0.020071 0)
(0.178075 -0.0217044 0)
(0.190557 -0.0233166 0)
(0.203719 -0.0248852 0)
(0.217504 -0.0263818 0)
(0.231841 -0.0277753 0)
(0.246638 -0.0290355 0)
(0.261795 -0.0301355 0)
(0.277197 -0.0310542 0)
(0.29273 -0.0317772 0)
(0.308277 -0.0322967 0)
(0.323726 -0.0326118 0)
(0.338975 -0.0327272 0)
(0.35393 -0.0326521 0)
(0.368511 -0.0323991 0)
(0.382647 -0.0319834 0)
(0.396284 -0.0314213 0)
(0.409375 -0.0307297 0)
(0.421887 -0.0299254 0)
(0.433796 -0.0290248 0)
(0.445088 -0.0280433 0)
(0.455753 -0.0269953 0)
(0.465793 -0.0258939 0)
(0.475211 -0.024751 0)
(0.484017 -0.0235775 0)
(0.492224 -0.0223828 0)
(0.499849 -0.0211753 0)
(0.506911 -0.0199625 0)
(0.513431 -0.0187508 0)
(0.51943 -0.0175455 0)
(0.524933 -0.0163516 0)
(0.529963 -0.0151729 0)
(0.534546 -0.0140128 0)
(0.538705 -0.0128738 0)
(0.542467 -0.0117581 0)
(0.545855 -0.010667 0)
(0.548894 -0.00960171 0)
(0.551609 -0.00856251 0)
(0.554022 -0.00754934 0)
(0.556157 -0.00656157 0)
(0.558037 -0.00559803 0)
(0.559682 -0.00465696 0)
(0.561114 -0.00373604 0)
(0.562353 -0.00283227 0)
(0.563419 -0.00194198 0)
(0.564331 -0.00106072 0)
(0.565104 -0.000183691 0)
(0.56576 0.000694647 0)
(0.566311 0.0015807 0)
(0.566776 0.00248239 0)
(0.567168 0.00340891 0)
(0.567502 0.00437091 0)
(0.567791 0.00538064 0)
(0.568048 0.00645221 0)
(0.568286 0.0076019 0)
(0.568519 0.00884848 0)
(0.568757 0.0102136 0)
(0.569017 0.011722 0)
(0.569312 0.0134025 0)
(0.56966 0.0152878 0)
(0.570084 0.017415 0)
(0.570609 0.0198259 0)
(0.571271 0.0225666 0)
(0.572115 0.0256859 0)
(0.5732 0.0292329 0)
(0.574605 0.0332524 0)
(0.576425 0.0377767 0)
(0.578778 0.0428134 0)
(0.581799 0.0483298 0)
(0.585624 0.054232 0)
(0.590369 0.0603457 0)
(0.596079 0.0664087 0)
(0.100231 -0.003427 0)
(0.102922 -0.00654785 0)
(0.107083 -0.0092324 0)
(0.112493 -0.011654 0)
(0.11904 -0.0138914 0)
(0.126608 -0.0160041 0)
(0.135106 -0.0180413 0)
(0.144475 -0.0200409 0)
(0.154679 -0.0220277 0)
(0.165692 -0.024013 0)
(0.177495 -0.0259936 0)
(0.190061 -0.0279532 0)
(0.203353 -0.0298638 0)
(0.217316 -0.0316898 0)
(0.231875 -0.0333922 0)
(0.246934 -0.0349328 0)
(0.262385 -0.0362778 0)
(0.278104 -0.0374006 0)
(0.293967 -0.0382831 0)
(0.309847 -0.0389161 0)
(0.325627 -0.0392985 0)
(0.341195 -0.0394365 0)
(0.356453 -0.0393418 0)
(0.371317 -0.0390303 0)
(0.385714 -0.0385209 0)
(0.399588 -0.0378339 0)
(0.412893 -0.0369903 0)
(0.425594 -0.0360107 0)
(0.43767 -0.0349151 0)
(0.449105 -0.0337224 0)
(0.459894 -0.0324501 0)
(0.470038 -0.031114 0)
(0.479541 -0.0297287 0)
(0.488416 -0.028307 0)
(0.496677 -0.0268604 0)
(0.504341 -0.0253989 0)
(0.511429 -0.0239314 0)
(0.517962 -0.0224655 0)
(0.523965 -0.0210078 0)
(0.52946 -0.0195637 0)
(0.534473 -0.0181381 0)
(0.539029 -0.0167346 0)
(0.543153 -0.0153564 0)
(0.546872 -0.014006 0)
(0.550209 -0.0126849 0)
(0.55319 -0.0113943 0)
(0.555839 -0.0101346 0)
(0.558179 -0.00890563 0)
(0.560235 -0.00770663 0)
(0.562029 -0.00653618 0)
(0.563582 -0.00539219 0)
(0.564916 -0.00427192 0)
(0.566051 -0.00317186 0)
(0.567007 -0.00208773 0)
(0.567802 -0.00101442 0)
(0.568456 5.32982e-05 0)
(0.568986 0.00112147 0)
(0.569409 0.00219754 0)
(0.569741 0.00329034 0)
(0.569998 0.00440992 0)
(0.570196 0.00556768 0)
(0.57035 0.00677655 0)
(0.570473 0.00805114 0)
(0.570581 0.00940795 0)
(0.57069 0.0108655 0)
(0.570815 0.0124446 0)
(0.570974 0.0141683 0)
(0.571187 0.016062 0)
(0.571475 0.0181535 0)
(0.571866 0.0204726 0)
(0.572389 0.0230502 0)
(0.573083 0.0259173 0)
(0.573994 0.029103 0)
(0.575175 0.0326308 0)
(0.57669 0.0365149 0)
(0.57861 0.0407538 0)
(0.581012 0.0453227 0)
(0.58397 0.0501663 0)
(0.587544 0.0551912 0)
(0.591767 0.0602636 0)
(0.596614 0.0652184 0)
(0.100146 -0.0039334 0)
(0.102803 -0.00758966 0)
(0.106876 -0.0107433 0)
(0.112186 -0.0135956 0)
(0.118644 -0.0162363 0)
(0.126134 -0.0187329 0)
(0.134571 -0.021144 0)
(0.143902 -0.0235153 0)
(0.154099 -0.0258776 0)
(0.165144 -0.0282453 0)
(0.177028 -0.030615 0)
(0.189733 -0.0329667 0)
(0.203225 -0.0352655 0)
(0.21745 -0.0374668 0)
(0.232328 -0.0395212 0)
(0.247755 -0.0413808 0)
(0.263608 -0.0430032 0)
(0.279752 -0.0443554 0)
(0.29605 -0.0454152 0)
(0.312362 -0.0461718 0)
(0.328561 -0.0466246 0)
(0.344527 -0.0467818 0)
(0.360157 -0.0466586 0)
(0.375363 -0.0462751 0)
(0.39007 -0.0456547 0)
(0.404221 -0.0448225 0)
(0.41777 -0.0438042 0)
(0.430685 -0.0426249 0)
(0.442945 -0.0413087 0)
(0.454537 -0.0398784 0)
(0.465457 -0.0383548 0)
(0.475707 -0.0367569 0)
(0.485297 -0.0351019 0)
(0.494238 -0.0334049 0)
(0.502547 -0.0316796 0)
(0.510244 -0.0299376 0)
(0.517349 -0.0281893 0)
(0.523887 -0.0264436 0)
(0.529881 -0.024708 0)
(0.535357 -0.022989 0)
(0.54034 -0.021292 0)
(0.544857 -0.0196213 0)
(0.548933 -0.0179805 0)
(0.552595 -0.0163722 0)
(0.555867 -0.0147984 0)
(0.558775 -0.0132602 0)
(0.561345 -0.0117581 0)
(0.563599 -0.0102918 0)
(0.565561 -0.00886041 0)
(0.567255 -0.00746224 0)
(0.568702 -0.00609488 0)
(0.569923 -0.0047552 0)
(0.570941 -0.00343924 0)
(0.571774 -0.0021422 0)
(0.572441 -0.00085853 0)
(0.572963 0.00041753 0)
(0.573358 0.00169235 0)
(0.573642 0.00297418 0)
(0.573833 0.00427252 0)
(0.573948 0.00559791 0)
(0.574003 0.00696207 0)
(0.574015 0.00837802 0)
(0.573999 0.00986018 0)
(0.573973 0.0114244 0)
(0.573954 0.013088 0)
(0.573961 0.0148697 0)
(0.574014 0.0167894 0)
(0.574134 0.0188682 0)
(0.574346 0.0211278 0)
(0.574679 0.0235896 0)
(0.575163 0.0262739 0)
(0.575833 0.0291985 0)
(0.576731 0.0323764 0)
(0.577899 0.0358133 0)
(0.579383 0.0395048 0)
(0.581231 0.0434325 0)
(0.583486 0.0475607 0)
(0.586181 0.0518339 0)
(0.589336 0.0561761 0)
(0.592943 0.0604932 0)
(0.596959 0.0646848 0)
(0.100056 -0.00445696 0)
(0.102693 -0.00867541 0)
(0.106689 -0.012328 0)
(0.111906 -0.0156409 0)
(0.118278 -0.0187156 0)
(0.125697 -0.0216282 0)
(0.134083 -0.0244471 0)
(0.143392 -0.0272275 0)
(0.153606 -0.0300073 0)
(0.164725 -0.032805 0)
(0.176748 -0.0356168 0)
(0.189669 -0.0384176 0)
(0.203459 -0.0411634 0)
(0.21806 -0.0437974 0)
(0.233382 -0.0462571 0)
(0.249307 -0.0484817 0)
(0.265694 -0.0504185 0)
(0.28239 -0.052027 0)
(0.299239 -0.053281 0)
(0.316088 -0.0541683 0)
(0.332796 -0.0546898 0)
(0.349236 -0.054857 0)
(0.365301 -0.0546899 0)
(0.380897 -0.0542139 0)
(0.395952 -0.0534582 0)
(0.410408 -0.0524536 0)
(0.424221 -0.0512313 0)
(0.437361 -0.0498216 0)
(0.44981 -0.0482533 0)
(0.461559 -0.0465534 0)
(0.472606 -0.0447464 0)
(0.482957 -0.0428548 0)
(0.492623 -0.0408984 0)
(0.501619 -0.0388951 0)
(0.509964 -0.0368603 0)
(0.517679 -0.0348078 0)
(0.524788 -0.0327492 0)
(0.531315 -0.0306948 0)
(0.537285 -0.0286532 0)
(0.542727 -0.0266316 0)
(0.547665 -0.0246362 0)
(0.552127 -0.0226718 0)
(0.55614 -0.0207424 0)
(0.559729 -0.0188509 0)
(0.562922 -0.0169995 0)
(0.565744 -0.0151893 0)
(0.568219 -0.0134208 0)
(0.570373 -0.0116936 0)
(0.572229 -0.0100067 0)
(0.573809 -0.00835823 0)
(0.575138 -0.00674539 0)
(0.576235 -0.00516473 0)
(0.577124 -0.00361189 0)
(0.577823 -0.00208168 0)
(0.578351 -0.000568553 0)
(0.578733 0.000933783 0)
(0.578984 0.00243226 0)
(0.579122 0.00393564 0)
(0.579165 0.00545366 0)
(0.579132 0.00699695 0)
(0.579039 0.00857708 0)
(0.578904 0.0102066 0)
(0.578745 0.0118991 0)
(0.578579 0.0136691 0)
(0.578427 0.0155318 0)
(0.578307 0.0175032 0)
(0.578241 0.0195994 0)
(0.578253 0.0218366 0)
(0.578366 0.0242302 0)
(0.578607 0.0267939 0)
(0.579005 0.029539 0)
(0.579591 0.0324731 0)
(0.580395 0.0355981 0)
(0.58145 0.0389093 0)
(0.582787 0.0423928 0)
(0.584433 0.0460247 0)
(0.586407 0.0497698 0)
(0.588721 0.0535815 0)
(0.591371 0.0574031 0)
(0.594338 0.0611716 0)
(0.597573 0.0648269 0)
(0.099959 -0.00500091 0)
(0.102592 -0.00980937 0)
(0.106524 -0.0139921 0)
(0.111656 -0.0177976 0)
(0.117951 -0.0213399 0)
(0.12531 -0.0247041 0)
(0.133661 -0.02797 0)
(0.142974 -0.0312043 0)
(0.153247 -0.034454 0)
(0.164498 -0.0377423 0)
(0.176744 -0.0410645 0)
(0.18999 -0.044388 0)
(0.204208 -0.0476557 0)
(0.219333 -0.0507939 0)
(0.235256 -0.0537224 0)
(0.251835 -0.0563647 0)
(0.268906 -0.0586553 0)
(0.286288 -0.0605458 0)
(0.303806 -0.0620062 0)
(0.32129 -0.0630244 0)
(0.338587 -0.0636046 0)
(0.355564 -0.0637636 0)
(0.372108 -0.0635277 0)
(0.388126 -0.0629294 0)
(0.403547 -0.062005 0)
(0.418315 -0.0607923 0)
(0.432391 -0.0593288 0)
(0.44575 -0.0576507 0)
(0.458377 -0.0557922 0)
(0.470267 -0.0537847 0)
(0.481423 -0.0516569 0)
(0.491854 -0.0494347 0)
(0.501575 -0.047141 0)
(0.510605 -0.044796 0)
(0.518963 -0.0424175 0)
(0.526675 -0.0400209 0)
(0.533766 -0.0376196 0)
(0.540261 -0.0352248 0)
(0.546189 -0.0328463 0)
(0.551576 -0.030492 0)
(0.556451 -0.0281688 0)
(0.560841 -0.0258821 0)
(0.564774 -0.023636 0)
(0.568277 -0.0214338 0)
(0.571376 -0.0192778 0)
(0.574097 -0.0171692 0)
(0.576466 -0.0151085 0)
(0.578507 -0.0130952 0)
(0.580244 -0.0111281 0)
(0.581702 -0.00920511 0)
(0.582902 -0.00732327 0)
(0.583867 -0.00547882 0)
(0.584619 -0.00366709 0)
(0.585177 -0.00188254 0)
(0.585562 -0.000120077 0)
(0.585798 0.00162683 0)
(0.5859 0.00336603 0)
(0.585888 0.00510656 0)
(0.585781 0.00685802 0)
(0.585596 0.00863069 0)
(0.585352 0.0104355 0)
(0.585068 0.0122842 0)
(0.584761 0.0141889 0)
(0.584452 0.0161622 0)
(0.584159 0.018217 0)
(0.583903 0.020366 0)
(0.583706 0.0226215 0)
(0.583589 0.0249949 0)
(0.583575 0.0274959 0)
(0.583689 0.0301321 0)
(0.583955 0.0329082 0)
(0.584396 0.0358246 0)
(0.585037 0.038877 0)
(0.585898 0.0420554 0)
(0.586998 0.0453434 0)
(0.588351 0.0487175 0)
(0.589962 0.0521478 0)
(0.59183 0.0555986 0)
(0.593943 0.0590298 0)
(0.596276 0.0624003 0)
(0.59879 0.0656747 0)
(0.0998544 -0.00556888 0)
(0.102499 -0.010997 0)
(0.106382 -0.0157433 0)
(0.111441 -0.0200758 0)
(0.117672 -0.0241223 0)
(0.124989 -0.0279786 0)
(0.13333 -0.0317382 0)
(0.142684 -0.0354819 0)
(0.153076 -0.0392686 0)
(0.164546 -0.0431267 0)
(0.177133 -0.0470487 0)
(0.190851 -0.0509897 0)
(0.205668 -0.0548733 0)
(0.221498 -0.058602 0)
(0.238205 -0.0620725 0)
(0.255613 -0.0651881 0)
(0.27352 -0.0678697 0)
(0.29172 -0.070061 0)
(0.310012 -0.07173 0)
(0.328209 -0.0728676 0)
(0.346151 -0.0734838 0)
(0.363697 -0.0736033 0)
(0.380736 -0.0732611 0)
(0.397178 -0.0724989 0)
(0.412955 -0.0713618 0)
(0.428017 -0.0698955 0)
(0.442331 -0.0681449 0)
(0.455879 -0.0661529 0)
(0.46865 -0.0639592 0)
(0.480647 -0.0616003 0)
(0.491876 -0.059109 0)
(0.502353 -0.0565148 0)
(0.512095 -0.0538436 0)
(0.521124 -0.0511183 0)
(0.529464 -0.0483587 0)
(0.537143 -0.0455819 0)
(0.544187 -0.0428027 0)
(0.550624 -0.0400337 0)
(0.556484 -0.0372852 0)
(0.561795 -0.0345663 0)
(0.566586 -0.0318841 0)
(0.570886 -0.0292446 0)
(0.574722 -0.0266522 0)
(0.578122 -0.0241103 0)
(0.581113 -0.0216214 0)
(0.583722 -0.0191866 0)
(0.585974 -0.0168066 0)
(0.587893 -0.0144806 0)
(0.589506 -0.0122074 0)
(0.590834 -0.00998465 0)
(0.591901 -0.00780937 0)
(0.592729 -0.00567761 0)
(0.593341 -0.00358459 0)
(0.593757 -0.00152478 0)
(0.594002 0.000507368 0)
(0.594091 0.00251796 0)
(0.594045 0.00451549 0)
(0.593884 0.00650891 0)
(0.593627 0.00850741 0)
(0.593292 0.0105206 0)
(0.592898 0.0125586 0)
(0.592465 0.0146317 0)
(0.59201 0.0167505 0)
(0.591554 0.0189254 0)
(0.591116 0.0211667 0)
(0.590715 0.0234841 0)
(0.590373 0.0258861 0)
(0.590109 0.0283802 0)
(0.589943 0.0309717 0)
(0.589897 0.0336636 0)
(0.589989 0.0364562 0)
(0.590238 0.0393461 0)
(0.59066 0.042326 0)
(0.591269 0.0453845 0)
(0.592073 0.0485059 0)
(0.593078 0.0516705 0)
(0.594282 0.0548547 0)
(0.595678 0.0580327 0)
(0.597251 0.0611773 0)
(0.598978 0.064262 0)
(0.600828 0.0672666 0)
(0.0997395 -0.00616486 0)
(0.102411 -0.012245 0)
(0.106265 -0.0175909 0)
(0.111265 -0.0224881 0)
(0.11745 -0.02708 0)
(0.124747 -0.0314758 0)
(0.133114 -0.0357861 0)
(0.142568 -0.0401107 0)
(0.153165 -0.0445225 0)
(0.164978 -0.0490554 0)
(0.178068 -0.0536942 0)
(0.19245 -0.0583738 0)
(0.208076 -0.0629878 0)
(0.224825 -0.0674064 0)
(0.242515 -0.0714959 0)
(0.260924 -0.0751369 0)
(0.279809 -0.0782364 0)
(0.298933 -0.0807328 0)
(0.31807 -0.082596 0)
(0.337023 -0.0838237 0)
(0.355623 -0.0844357 0)
(0.373734 -0.084468 0)
(0.391246 -0.0839672 0)
(0.408076 -0.0829863 0)
(0.424164 -0.0815806 0)
(0.43947 -0.0798051 0)
(0.453969 -0.0777129 0)
(0.467649 -0.0753539 0)
(0.48051 -0.0727738 0)
(0.492558 -0.0700142 0)
(0.503808 -0.0671122 0)
(0.514279 -0.0641009 0)
(0.523994 -0.0610092 0)
(0.532978 -0.0578622 0)
(0.541258 -0.0546818 0)
(0.548865 -0.0514868 0)
(0.555827 -0.0482931 0)
(0.562174 -0.0451144 0)
(0.567938 -0.041962 0)
(0.573147 -0.0388454 0)
(0.577832 -0.0357721 0)
(0.582021 -0.0327485 0)
(0.585743 -0.0297793 0)
(0.589026 -0.0268681 0)
(0.591898 -0.0240172 0)
(0.594384 -0.021228 0)
(0.596512 -0.0185008 0)
(0.598304 -0.015835 0)
(0.599787 -0.0132293 0)
(0.600984 -0.0106813 0)
(0.601918 -0.00818779 0)
(0.602611 -0.00574493 0)
(0.603087 -0.003348 0)
(0.603363 -0.000992004 0)
(0.603469 0.00132943 0)
(0.603418 0.0036228 0)
(0.603231 0.00589626 0)
(0.602929 0.00815825 0)
(0.602529 0.0104173 0)
(0.602052 0.0126823 0)
(0.601515 0.014962 0)
(0.600938 0.0172654 0)
(0.60034 0.0196012 0)
(0.599739 0.0219778 0)
(0.599154 0.0244031 0)
(0.598604 0.0268838 0)
(0.598107 0.0294257 0)
(0.597682 0.032033 0)
(0.597346 0.0347081 0)
(0.597116 0.037451 0)
(0.597006 0.0402596 0)
(0.597029 0.0431287 0)
(0.597197 0.0460507 0)
(0.597516 0.0490148 0)
(0.597992 0.0520078 0)
(0.598623 0.0550143 0)
(0.599406 0.0580171 0)
(0.60033 0.0609981 0)
(0.601382 0.0639394 0)
(0.602543 0.0668244 0)
(0.603788 0.0696422 0)
(0.0996122 -0.00679335 0)
(0.102329 -0.0135616 0)
(0.106173 -0.0195463 0)
(0.111132 -0.0250503 0)
(0.117292 -0.0302351 0)
(0.124605 -0.0352278 0)
(0.133052 -0.040162 0)
(0.142688 -0.0451619 0)
(0.153615 -0.0503176 0)
(0.165943 -0.055665 0)
(0.179748 -0.0611721 0)
(0.195034 -0.0667394 0)
(0.211713 -0.0722167 0)
(0.229607 -0.0774301 0)
(0.248473 -0.08221 0)
(0.268033 -0.0864136 0)
(0.288 -0.0899373 0)
(0.308105 -0.0927197 0)
(0.328109 -0.0947385 0)
(0.347806 -0.0960039 0)
(0.36703 -0.0965504 0)
(0.385651 -0.096429 0)
(0.403568 -0.0957011 0)
(0.420711 -0.0944327 0)
(0.43703 -0.0926908 0)
(0.452498 -0.0905409 0)
(0.467099 -0.0880446 0)
(0.480831 -0.085259 0)
(0.493703 -0.0822361 0)
(0.505729 -0.0790225 0)
(0.516929 -0.0756596 0)
(0.527329 -0.0721835 0)
(0.536956 -0.0686261 0)
(0.545839 -0.0650147 0)
(0.554009 -0.061373 0)
(0.561497 -0.0577211 0)
(0.568336 -0.054076 0)
(0.574557 -0.0504522 0)
(0.580191 -0.0468617 0)
(0.58527 -0.0433143 0)
(0.589824 -0.0398181 0)
(0.593882 -0.0363795 0)
(0.597474 -0.0330034 0)
(0.600627 -0.0296934 0)
(0.603368 -0.0264519 0)
(0.605725 -0.0232801 0)
(0.607723 -0.0201785 0)
(0.609387 -0.0171463 0)
(0.610741 -0.0141822 0)
(0.611809 -0.0112837 0)
(0.612615 -0.00844775 0)
(0.61318 -0.00567044 0)
(0.613527 -0.00294714 0)
(0.613676 -0.000273763 0)
(0.613654 0.00235633 0)
(0.613474 0.00495047 0)
(0.613158 0.0075165 0)
(0.612727 0.0100621 0)
(0.612197 0.012595 0)
(0.611589 0.0151228 0)
(0.610921 0.0176533 0)
(0.610211 0.0201938 0)
(0.609478 0.0227515 0)
(0.608739 0.0253326 0)
(0.608012 0.0279431 0)
(0.607314 0.0305874 0)
(0.606661 0.0332691 0)
(0.606069 0.0359904 0)
(0.605553 0.0387515 0)
(0.605126 0.0415512 0)
(0.604798 0.0443863 0)
(0.60458 0.0472515 0)
(0.604478 0.0501398 0)
(0.604495 0.0530426 0)
(0.604634 0.0559494 0)
(0.604891 0.058849 0)
(0.605261 0.0617295 0)
(0.605735 0.0645787 0)
(0.6063 0.0673852 0)
(0.606943 0.070139 0)
(0.607643 0.0728351 0)
(0.0994698 -0.0074595 0)
(0.102251 -0.0149567 0)
(0.106108 -0.0216241 0)
(0.111049 -0.0277832 0)
(0.117214 -0.0336176 0)
(0.124589 -0.0392796 0)
(0.133193 -0.0449348 0)
(0.143134 -0.0507385 0)
(0.154567 -0.0567988 0)
(0.167639 -0.063145 0)
(0.182425 -0.0697102 0)
(0.198891 -0.0763397 0)
(0.21688 -0.0828213 0)
(0.236134 -0.0889262 0)
(0.256333 -0.094447 0)
(0.277141 -0.0992216 0)
(0.29823 -0.103144 0)
(0.319312 -0.106161 0)
(0.340137 -0.108266 0)
(0.360505 -0.10949 0)
(0.38026 -0.109887 0)
(0.399285 -0.109526 0)
(0.417495 -0.108486 0)
(0.434835 -0.106849 0)
(0.45127 -0.104693 0)
(0.466786 -0.102095 0)
(0.48138 -0.0991255 0)
(0.495061 -0.0958491 0)
(0.507846 -0.0923235 0)
(0.519758 -0.0886001 0)
(0.530825 -0.0847241 0)
(0.541076 -0.0807349 0)
(0.550543 -0.0766665 0)
(0.55926 -0.0725482 0)
(0.567261 -0.0684051 0)
(0.574579 -0.0642584 0)
(0.581248 -0.060126 0)
(0.587302 -0.0560229 0)
(0.592772 -0.0519614 0)
(0.59769 -0.0479518 0)
(0.602087 -0.0440023 0)
(0.605993 -0.0401193 0)
(0.609437 -0.0363076 0)
(0.612446 -0.032571 0)
(0.615049 -0.0289117 0)
(0.617271 -0.025331 0)
(0.619137 -0.0218291 0)
(0.620673 -0.0184055 0)
(0.621903 -0.0150586 0)
(0.622849 -0.0117861 0)
(0.623536 -0.00858511 0)
(0.623984 -0.00545196 0)
(0.624215 -0.00238238 0)
(0.624257 0.000628572 0)
(0.624121 0.00358658 0)
(0.623829 0.00649942 0)
(0.623402 0.00937439 0)
(0.622858 0.0122184 0)
(0.622217 0.0150381 0)
(0.621496 0.0178402 0)
(0.620713 0.0206312 0)
(0.619886 0.023417 0)
(0.619032 0.0262033 0)
(0.618168 0.0289948 0)
(0.617309 0.0317957 0)
(0.616471 0.034609 0)
(0.615668 0.0374367 0)
(0.614913 0.0402796 0)
(0.614219 0.0431373 0)
(0.613595 0.0460079 0)
(0.61305 0.0488882 0)
(0.612591 0.0517738 0)
(0.612222 0.054659 0)
(0.611944 0.0575371 0)
(0.611757 0.0604009 0)
(0.611659 0.0632426 0)
(0.611643 0.0660543 0)
(0.611702 0.0688283 0)
(0.611827 0.0715576 0)
(0.612006 0.0742367 0)
(0.612225 0.0768643 0)
(0.0993093 -0.00816932 0)
(0.102177 -0.0164425 0)
(0.106072 -0.0238426 0)
(0.111022 -0.0307137 0)
(0.117235 -0.0372686 0)
(0.124741 -0.0436957 0)
(0.133614 -0.0502047 0)
(0.144031 -0.0569893 0)
(0.156208 -0.0641705 0)
(0.170313 -0.0717509 0)