/*--------------------------------*- C++ -*----------------------------------*\
  =========                 |
  \\      /  F ield         | OpenFOAM: The Open Source CFD Toolbox
   \\    /   O peration     | Website:  https://openfoam.org
    \\  /    A nd           | Version:  7
     \\/     M anipulation  |
\*---------------------------------------------------------------------------*/
FoamFile
{
    version     2.0;
    format      ascii;
    class       volVectorField;
    location    "0.1";
    object      cellDisplacement;
}
// * * * * * * * * * * * * * * * * * * * * * * * * * * * * * * * * * * * * * //

dimensions      [0 1 0 0 0 0 0];

internalField   nonuniform List<vector> 
2790
(
(0.000426391 0 7.6444e-07)
(0.00122952 0 2.2196e-06)
(0.00194095 0 3.55128e-06)
(0.00256956 0 4.79437e-06)
(0.00312338 0 5.97757e-06)
(0.00360958 0 7.12507e-06)
(0.00403452 0 8.25802e-06)
(0.00440382 0 9.39575e-06)
(0.00472245 0 1.05569e-05)
(0.00499473 0 1.17607e-05)
(0.00522439 0 1.30281e-05)
(0.00541457 0 1.43838e-05)
(0.00556785 0 1.58581e-05)
(0.00568621 0 1.74903e-05)
(0.00577102 0 1.93329e-05)
(0.00582294 0 2.14586e-05)
(0.00584187 0 2.39692e-05)
(0.00582674 0 2.70108e-05)
(0.00577538 0 3.07951e-05)
(0.00568424 0 3.56313e-05)
(0.00554803 0 4.19734e-05)
(0.00535943 0 5.0487e-05)
(0.00510869 0 6.21406e-05)
(0.00478354 0 7.83185e-05)
(0.00436975 0 0.000100935)
(0.00385328 0 0.00013248)
(0.00322624 0 0.000175823)
(0.00250123 0 0.00023327)
(0.00174507 0 0.000303292)
(0.00116864 0 0.000369145)
(0.000426367 0 2.29016e-06)
(0.00122947 0 6.64962e-06)
(0.00194091 0 1.06391e-05)
(0.00256958 0 1.43628e-05)
(0.00312352 0 1.79066e-05)
(0.0036099 0 2.13427e-05)
(0.00403511 0 2.47344e-05)
(0.00440478 0 2.81389e-05)
(0.0047239 0 3.16117e-05)
(0.00499682 0 3.52095e-05)
(0.00522731 0 3.89941e-05)
(0.00541858 0 4.30374e-05)
(0.00557328 0 4.74277e-05)
(0.00569351 0 5.22783e-05)
(0.00578079 0 5.77404e-05)
(0.00583602 0 6.40205e-05)
(0.00585941 0 7.14076e-05)
(0.00585036 0 8.03122e-05)
(0.00580738 0 9.13244e-05)
(0.00572789 0 0.000105299)
(0.00560808 0 0.00012348)
(0.00544271 0 0.000147671)
(0.00522512 0 0.000180465)
(0.00494742 0 0.000225517)
(0.00460152 0 0.000287773)
(0.00418163 0 0.000373452)
(0.00369009 0 0.000489154)
(0.00314985 0 0.000638628)
(0.00262931 0 0.000813238)
(0.00228833 0 0.000965087)
(0.000426339 0 3.80615e-06)
(0.00122942 0 1.10514e-05)
(0.0019409 0 1.7681e-05)
(0.00256971 0 2.3868e-05)
(0.00312389 0 2.97542e-05)
(0.00361064 0 3.54591e-05)
(0.00403637 0 4.10866e-05)
(0.00440676 0 4.67309e-05)
(0.00472683 0 5.24823e-05)
(0.005001 0 5.84324e-05)
(0.00523311 0 6.468e-05)
(0.00542649 0 7.13389e-05)
(0.00558394 0 7.8547e-05)
(0.00570777 0 8.64794e-05)
(0.0057998 0 9.53661e-05)
(0.00586134 0 0.000105518)
(0.0058932 0 0.000117362)
(0.00589562 0 0.000131498)
(0.00586834 0 0.000148771)
(0.00581052 0 0.000170384)
(0.00572085 0 0.000198051)
(0.00559773 0 0.0002342)
(0.00543962 0 0.000282234)
(0.00524582 0 0.000346793)
(0.0050178 0 0.000433909)
(0.00476159 0 0.000550658)
(0.00449149 0 0.000703457)
(0.00423524 0 0.000892987)
(0.00403839 0 0.0011016)
(0.00396042 0 0.00126587)
(0.0004263 0 5.3054e-06)
(0.00122935 0 1.54042e-05)
(0.00194089 0 2.46436e-05)
(0.00256988 0 3.32634e-05)
(0.0031244 0 4.14602e-05)
(0.00361169 0 4.93991e-05)
(0.00403818 0 5.72228e-05)
(0.0044096 0 6.50604e-05)
(0.00473105 0 7.30339e-05)
(0.00500702 0 8.12655e-05)
(0.00524147 0 8.98857e-05)
(0.00543787 0 9.90414e-05)
(0.00559923 0 0.000108908)
(0.00572816 0 0.000119703)
(0.00582685 0 0.000131707)
(0.00589718 0 0.00014529)
(0.0059407 0 0.000160951)
(0.00595876 0 0.00017937)
(0.00595257 0 0.000201478)
(0.00592342 0 0.000228561)
(0.00587297 0 0.000262382)
(0.00580373 0 0.000305335)
(0.0057198 0 0.000360615)
(0.00562794 0 0.000432321)
(0.00553898 0 0.000525367)
(0.00546923 0 0.000644837)
(0.00544079 0 0.000794011)
(0.00547757 0 0.000969552)
(0.00558976 0 0.00115121)
(0.00573517 0 0.00128299)
(0.000426244 0 6.78056e-06)
(0.00122923 0 1.96866e-05)
(0.00194084 0 3.14918e-05)
(0.00257005 0 4.25005e-05)
(0.003125 0 5.29621e-05)
(0.00361296 0 6.3085e-05)
(0.00404042 0 7.30487e-05)
(0.00441316 0 8.30138e-05)
(0.00473635 0 9.31304e-05)
(0.0050146 0 0.000103546)
(0.00525198 0 0.000114416)
(0.00545215 0 0.000125909)
(0.00561836 0 0.000138223)
(0.00575353 0 0.000151597)
(0.00586031 0 0.000166329)
(0.00594118 0 0.000182798)
(0.00599849 0 0.000201501)
(0.00603472 0 0.000223083)
(0.00605258 0 0.000248394)
(0.00605541 0 0.000278538)
(0.00604758 0 0.000314935)
(0.00603519 0 0.000359362)
(0.00602685 0 0.000413943)
(0.00603482 0 0.000481026)
(0.00607594 0 0.000562818)
(0.00617175 0 0.000660592)
(0.00634582 0 0.000773178)
(0.00661342 0 0.000894395)
(0.00695414 0 0.00100895)
(0.00725347 0 0.00108581)
(0.000426166 0 8.22422e-06)
(0.00122906 0 2.38767e-05)
(0.00194071 0 3.81899e-05)
(0.00257017 0 5.153e-05)
(0.00312561 0 6.41965e-05)
(0.00361435 0 7.64389e-05)
(0.00404294 0 8.84702e-05)
(0.00441723 0 0.000100479)
(0.00474246 0 0.000112639)
(0.00502334 0 0.000125118)
(0.00526412 0 0.000138087)
(0.00546861 0 0.000151726)
(0.00564032 0 0.000166241)
(0.00578251 0 0.000181869)
(0.00589825 0 0.000198892)
(0.00599059 0 0.000217656)
(0.00606264 0 0.000238586)
(0.00611785 0 0.000262202)
(0.00616019 0 0.000289133)
(0.0061946 0 0.000320117)
(0.00622737 0 0.000355972)
(0.00626684 0 0.000397512)
(0.00632402 0 0.000445364)
(0.00641323 0 0.000499626)
(0.0065523 0 0.000559305)
(0.00676142 0 0.000621513)
(0.00705866 0 0.000680651)
(0.00744833 0 0.000728306)
(0.00789359 0 0.00075573)
(0.0082569 0 0.00076169)
(0.000426056 0 9.62907e-06)
(0.00122879 0 2.79532e-05)
(0.00194046 0 4.47032e-05)
(0.00257016 0 6.03041e-05)
(0.00312613 0 7.51025e-05)
(0.00361572 0 8.93857e-05)
(0.00404556 0 0.000103397)
(0.00442155 0 0.00011735)
(0.00474904 0 0.000131437)
(0.00503283 0 0.000145839)
(0.0052773 0 0.000160735)
(0.00548646 0 0.000176309)
(0.00566404 0 0.000192757)
(0.0058136 0 0.000210294)
(0.00593859 0 0.000229164)
(0.00604253 0 0.000249642)
(0.00612914 0 0.000272037)
(0.00620257 0 0.000296681)
(0.00626763 0 0.000323913)
(0.00633015 0 0.000354023)
(0.00639732 0 0.000387154)
(0.00647808 0 0.000423128)
(0.00658339 0 0.000461157)
(0.00672617 0 0.000499405)
(0.00692047 0 0.000534389)
(0.00717907 0 0.000560348)
(0.00750832 0 0.000568991)
(0.00789796 0 0.000550903)
(0.0083025 0 0.000501771)
(0.00860508 0 0.000441458)
(0.0004259 0 1.09884e-05)
(0.0012284 0 3.18966e-05)
(0.00194002 0 5.10002e-05)
(0.00256993 0 6.87796e-05)
(0.00312642 0 8.56253e-05)
(0.00361691 0 0.000101859)
(0.00404806 0 0.000117752)
(0.00442586 0 0.000133536)
(0.00475573 0 0.00014942)
(0.00504257 0 0.000165593)
(0.00529089 0 0.000182234)
(0.00550485 0 0.000199519)
(0.00568839 0 0.000217627)
(0.0058453 0 0.000236737)
(0.00597932 0 0.000257035)
(0.00609431 0 0.000278706)
(0.00619436 0 0.000301919)
(0.00628401 0 0.000326803)
(0.00636843 0 0.0003534)
(0.00645362 0 0.000381578)
(0.00654664 0 0.000410901)
(0.0066556 0 0.00044043)
(0.0067895 0 0.000468437)
(0.00695746 0 0.000492035)
(0.007167 0 0.000506789)
(0.00742083 0 0.000506488)
(0.00771158 0 0.000483568)
(0.00801445 0 0.000431354)
(0.00827975 0 0.000350949)
(0.00843368 0 0.00027037)
(0.000425682 0 1.22966e-05)
(0.00122783 0 3.56902e-05)
(0.00193931 0 5.70542e-05)
(0.00256938 0 7.69203e-05)
(0.00312636 0 9.57193e-05)
(0.00361774 0 0.000113804)
(0.00405023 0 0.00013147)
(0.00442987 0 0.000148966)
(0.00476216 0 0.000166509)
(0.00505208 0 0.000184293)
(0.00530426 0 0.000202492)
(0.00552297 0 0.00022127)
(0.00571231 0 0.000240775)
(0.00587622 0 0.000261147)
(0.00601864 0 0.000282505)
(0.00614359 0 0.000304936)
(0.00625533 0 0.000328475)
(0.00635845 0 0.000353064)
(0.00645801 0 0.000378494)
(0.00655962 0 0.000404313)
(0.0066694 0 0.000429707)
(0.00679374 0 0.000453333)
(0.00693873 0 0.000473133)
(0.00710898 0 0.00048617)
(0.00730555 0 0.000488591)
(0.00752282 0 0.000475971)
(0.00774444 0 0.00044443)
(0.0079399 0 0.000393266)
(0.00806715 0 0.000330098)
(0.00809803 0 0.000279351)
(0.000425386 0 1.35485e-05)
(0.00122705 0 3.93193e-05)
(0.00193827 0 6.28419e-05)
(0.00256839 0 8.46949e-05)
(0.0031258 0 0.000105346)
(0.00361803 0 0.000125176)
(0.00405182 0 0.0001445)
(0.00443328 0 0.000163581)
(0.00476795 0 0.000182643)
(0.0050609 0 0.000201878)
(0.00531681 0 0.000221454)
(0.00554007 0 0.000241513)
(0.00573483 0 0.000262175)
(0.00590516 0 0.000283534)
(0.00605504 0 0.000305645)
(0.00618855 0 0.000328506)
(0.00630985 0 0.000352037)
(0.00642336 0 0.000376032)
(0.00653368 0 0.00040011)
(0.0066456 0 0.000423635)
(0.0067639 0 0.000445632)
(0.00689293 0 0.000464698)
(0.00703585 0 0.000478951)
(0.00719345 0 0.00048609)
(0.00736241 0 0.000483689)
(0.00753322 0 0.000469922)
(0.00768845 0 0.000444964)
(0.00780343 0 0.000413088)
(0.00785431 0 0.000384566)
(0.00784361 0 0.000372819)
(0.000424995 0 1.47396e-05)
(0.00122599 0 4.27712e-05)
(0.00193682 0 6.83427e-05)
(0.00256688 0 9.20761e-05)
(0.00312461 0 0.000114472)
(0.00361759 0 0.000135936)
(0.00405261 0 0.0001568)
(0.00443581 0 0.000177337)
(0.00477276 0 0.000197776)
(0.00506858 0 0.000218305)
(0.005328 0 0.000239081)
(0.00555545 0 0.000260225)
(0.00575514 0 0.00028183)
(0.00593112 0 0.000303943)
(0.00608737 0 0.000326564)
(0.00622785 0 0.00034962)
(0.00635651 0 0.000372944)
(0.00647736 0 0.000396237)
(0.00659436 0 0.000419027)
(0.00671131 0 0.000440621)
(0.00683154 0 0.000460063)
(0.00695746 0 0.00047613)
(0.0070899 0 0.00048739)
(0.00722714 0 0.000492404)
(0.007364 0 0.000490168)
(0.00749115 0 0.000480862)
(0.00759564 0 0.0004669)
(0.00766408 0 0.000453814)
(0.00769014 0 0.000449331)
(0.00768651 0 0.000456304)
(0.000424493 0 1.5866e-05)
(0.00122461 0 4.60339e-05)
(0.00193486 0 7.35384e-05)
(0.00256471 0 9.90397e-05)
(0.00312264 0 0.000123068)
(0.00361626 0 0.00014605)
(0.00405238 0 0.000168333)
(0.00443717 0 0.000190197)
(0.00477623 0 0.000211873)
(0.00507471 0 0.000233543)
(0.00533733 0 0.000255352)
(0.00556855 0 0.000277404)
(0.00577255 0 0.000299761)
(0.00595334 0 0.000322437)
(0.00611478 0 0.000345383)
(0.00626064 0 0.000368479)
(0.00639455 0 0.000391502)
(0.00652002 0 0.000414112)
(0.00664028 0 0.000435819)
(0.00675811 0 0.000455966)
(0.00687556 0 0.000473736)
(0.0069935 0 0.000488192)
(0.00711113 0 0.000498404)
(0.00722551 0 0.000503682)
(0.00733134 0 0.00050396)
(0.00742142 0 0.000500292)
(0.00748853 0 0.000495292)
(0.00752898 0 0.000492981)
(0.00754703 0 0.00049695)
(0.00755454 0 0.000505217)
(0.000423861 0 1.69239e-05)
(0.00122286 0 4.90975e-05)
(0.00193233 0 7.84129e-05)
(0.00256178 0 0.000105565)
(0.00311975 0 0.00013111)
(0.00361385 0 0.000155492)
(0.00405092 0 0.000179071)
(0.00443712 0 0.000202133)
(0.00477808 0 0.000224908)
(0.00507892 0 0.000247574)
(0.00534439 0 0.000270263)
(0.00557888 0 0.000293061)
(0.00578653 0 0.000316008)
(0.00597126 0 0.000339088)
(0.00613674 0 0.000362224)
(0.0062865 0 0.000385263)
(0.00642381 0 0.000407962)
(0.00655163 0 0.000429977)
(0.0066725 0 0.000450853)
(0.00678834 0 0.000470031)
(0.00690013 0 0.000486877)
(0.00700768 0 0.000500757)
(0.00710929 0 0.000511164)
(0.0072016 0 0.000517908)
(0.00727993 0 0.000521341)
(0.00733926 0 0.000522533)
(0.00737637 0 0.000523208)
(0.00739285 0 0.00052516)
(0.00739759 0 0.000528974)
(0.00740264 0 0.000532521)
(0.000423079 0 1.79105e-05)
(0.00122069 0 5.19532e-05)
(0.00192913 0 8.29531e-05)
(0.00255798 0 0.000111635)
(0.0031158 0 0.000138577)
(0.00361019 0 0.000164241)
(0.00404801 0 0.000188993)
(0.00443542 0 0.000213126)
(0.00477802 0 0.000236868)
(0.00508092 0 0.000260391)
(0.00534882 0 0.000283817)
(0.00558607 0 0.000307218)
(0.00579671 0 0.000330615)
(0.00598452 0 0.000353973)
(0.00615299 0 0.000377197)
(0.00630536 0 0.000400123)
(0.00644453 0 0.00042251)
(0.00657297 0 0.00044404)
(0.00669263 0 0.000464324)
(0.00680473 0 0.000482922)
(0.00690955 0 0.000499389)
(0.00700625 0 0.000513349)
(0.00709276 0 0.000524602)
(0.00716583 0 0.000533237)
(0.00722155 0 0.000539712)
(0.00725629 0 0.000544795)
(0.00726837 0 0.000549229)
(0.00726021 0 0.000553093)
(0.00724051 0 0.000555295)
(0.00722506 0 0.000554864)
(0.000422129 0 1.88231e-05)
(0.00121804 0 5.45939e-05)
(0.00192519 0 8.71482e-05)
(0.00255321 0 0.000117237)
(0.00311065 0 0.000145456)
(0.00360514 0 0.000172281)
(0.00404349 0 0.000198085)
(0.00443186 0 0.000223165)
(0.00477582 0 0.000247747)
(0.00508043 0 0.000271997)
(0.00535035 0 0.000296029)
(0.00558983 0 0.000319905)
(0.00580282 0 0.000343631)
(0.00599294 0 0.000367164)
(0.00616347 0 0.0003904)
(0.00631738 0 0.000413178)
(0.00645722 0 0.000435277)
(0.00658508 0 0.000456422)
(0.00670243 0 0.0004763)
(0.00681001 0 0.00049459)
(0.00690771 0 0.000511008)
(0.00699445 0 0.000525375)
(0.00706819 0 0.000537688)
(0.00712615 0 0.000548179)
(0.00716524 0 0.000557315)
(0.00718281 0 0.000565651)
(0.00717758 0 0.000573475)
(0.00715064 0 0.000580161)
(0.00710696 0 0.000583498)
(0.00706179 0 0.000581458)
(0.0011874 0 -0.000332397)
(0.00181137 0 -0.0002712)
(0.00260593 0 -0.000199448)
(0.00335686 0 -0.000138533)
(0.00399611 0 -9.20348e-05)
(0.00451458 0 -5.82865e-05)
(0.00492401 0 -3.44673e-05)
(0.00524135 0 -1.79471e-05)
(0.00548272 0 -6.63846e-06)
(0.00566151 0 1.00227e-06)
(0.00578808 0 6.07687e-06)
(0.00587005 0 9.35836e-06)
(0.00591281 0 1.13853e-05)
(0.00591994 0 1.25325e-05)
(0.00589359 0 1.30613e-05)
(0.00583473 0 1.31547e-05)
(0.00574342 0 1.29409e-05)
(0.00561891 0 1.25099e-05)
(0.00545979 0 1.19246e-05)
(0.00526401 0 1.12287e-05)
(0.00502897 0 1.04513e-05)
(0.0047515 0 9.61139e-06)
(0.00442788 0 8.71975e-06)
(0.00405379 0 7.7807e-06)
(0.00362434 0 6.79316e-06)
(0.00313396 0 5.75115e-06)
(0.00257642 0 4.64396e-06)
(0.00194471 0 3.45596e-06)
(0.00123103 0 2.16607e-06)
(0.000426696 0 7.46871e-07)
(0.00227259 0 -0.000862517)
(0.0026848 0 -0.000713538)
(0.00325169 0 -0.000531748)
(0.00381852 0 -0.000372744)
(0.00432141 0 -0.000248917)
(0.00474271 0 -0.000157735)
(0.00508416 0 -9.26547e-05)
(0.00535432 0 -4.71055e-05)
(0.00556297 0 -1.56946e-05)
(0.005719 0 5.65023e-06)
(0.00582961 0 1.98822e-05)
(0.00590031 0 2.91004e-05)
(0.00593503 0 3.47842e-05)
(0.00593636 0 3.79732e-05)
(0.00590577 0 3.93989e-05)
(0.00584379 0 3.9577e-05)
(0.00575015 0 3.88712e-05)
(0.0056239 0 3.75384e-05)
(0.00546345 0 3.57587e-05)
(0.00526666 0 3.36571e-05)
(0.00503085 0 3.13182e-05)
(0.00475279 0 2.87961e-05)
(0.00442872 0 2.61217e-05)
(0.00405431 0 2.33069e-05)
(0.00362462 0 2.03479e-05)
(0.00313408 0 1.72263e-05)
(0.00257644 0 1.39099e-05)
(0.00194469 0 1.03515e-05)
(0.00123101 0 6.48803e-06)
(0.000426689 0 2.23714e-06)
(0.00391942 0 -0.00109394)
(0.00407908 0 -0.000921988)
(0.00432603 0 -0.000700182)
(0.00460929 0 -0.000497655)
(0.00489078 0 -0.000334745)
(0.00514892 0 -0.000211643)
(0.00537349 0 -0.000121872)
(0.00556097 0 -5.78997e-05)
(0.00571138 0 -1.31287e-05)
(0.00582632 0 1.76427e-05)
(0.0059078 0 3.83145e-05)
(0.00595769 0 5.17378e-05)
(0.00597742 0 5.99711e-05)
(0.00596785 0 6.44923e-05)
(0.00592926 0 6.63598e-05)
(0.00586134 0 6.63316e-05)
(0.00576326 0 6.49494e-05)
(0.00563365 0 6.25996e-05)
(0.00547064 0 5.95557e-05)
(0.0052719 0 5.60087e-05)
(0.0050346 0 5.20878e-05)
(0.0047554 0 4.78758e-05)
(0.00443046 0 4.34193e-05)
(0.0040554 0 3.87349e-05)
(0.00362524 0 3.38142e-05)
(0.00313439 0 2.86255e-05)
(0.00257655 0 2.31139e-05)
(0.00194469 0 1.7201e-05)
(0.00123099 0 1.07812e-05)
(0.000426678 0 3.71754e-06)
(0.00568555 0 -0.00102546)
(0.00561051 0 -0.000876432)
(0.00554502 0 -0.000677632)
(0.00553568 0 -0.000488448)
(0.00557764 0 -0.000330006)
(0.00565204 0 -0.00020574)
(0.00574033 0 -0.000112076)
(0.00582847 0 -4.34204e-05)
(0.00590701 0 5.74285e-06)
(0.00597003 0 4.01166e-05)
(0.00601392 0 6.34498e-05)
(0.00603649 0 7.86252e-05)
(0.00603621 0 8.78134e-05)
(0.00601189 0 9.26294e-05)
(0.00596233 0 9.4265e-05)
(0.00588619 0 9.35947e-05)
(0.00578189 0 9.12568e-05)
(0.00564755 0 8.77142e-05)
(0.00548092 0 8.32986e-05)
(0.0052794 0 7.82437e-05)
(0.00503995 0 7.27084e-05)
(0.0047591 0 6.67939e-05)
(0.00443291 0 6.05556e-05)
(0.00405692 0 5.40108e-05)
(0.00362609 0 4.71433e-05)
(0.00313478 0 3.99061e-05)
(0.00257665 0 3.22214e-05)
(0.00194466 0 2.39783e-05)
(0.00123093 0 1.50292e-05)
(0.00042665 0 5.18239e-06)
(0.0072052 0 -0.000717422)
(0.0069521 0 -0.000622444)
(0.00664972 0 -0.000491795)
(0.00640934 0 -0.000359453)
(0.0062519 0 -0.000240833)
(0.0061648 0 -0.000141766)
(0.00612705 0 -6.29546e-05)
(0.00611897 0 -2.58623e-06)
(0.00612501 0 4.2134e-05)
(0.00613377 0 7.41471e-05)
(0.00613716 0 9.6139e-05)
(0.00612947 0 0.000110388)
(0.00610654 0 0.000118745)
(0.00606517 0 0.000122667)
(0.00600271 0 0.000123284)
(0.00591676 0 0.000121455)
(0.00580495 0 0.000117826)
(0.00566482 0 0.000112877)
(0.00549372 0 0.000106958)
(0.00528873 0 0.000100318)
(0.0050466 0 9.31287e-05)
(0.00476368 0 8.54965e-05)
(0.00443592 0 7.74777e-05)
(0.00405874 0 6.90845e-05)
(0.00362706 0 6.02898e-05)
(0.00313517 0 5.10292e-05)
(0.0025767 0 4.12003e-05)
(0.00194455 0 3.06594e-05)
(0.0012308 0 1.92167e-05)
(0.000426596 0 6.62641e-06)
(0.00821139 0 -0.000256429)
(0.00787342 0 -0.000241397)
(0.00745665 0 -0.000205033)
(0.00709174 0 -0.000152311)
(0.00681273 0 -9.26335e-05)
(0.00661566 0 -3.42618e-05)
(0.00648372 0 1.75861e-05)
(0.006398 0 6.05041e-05)
(0.00634172 0 9.40287e-05)
(0.00630134 0 0.000118807)
(0.00626641 0 0.000135994)
(0.00622903 0 0.000146889)
(0.00618314 0 0.000152729)
(0.00612404 0 0.0001546)
(0.00604786 0 0.000153412)
(0.00595125 0 0.000149896)
(0.00583115 0 0.000144627)
(0.00568455 0 0.000138047)
(0.00550838 0 0.000130485)
(0.00529942 0 0.00012218)
(0.00505419 0 0.000113295)
(0.00476887 0 0.000103931)
(0.00443926 0 9.41349e-05)
(0.00406071 0 8.39094e-05)
(0.00362804 0 7.32121e-05)
(0.00313548 0 6.19588e-05)
(0.00257662 0 5.00211e-05)
(0.0019443 0 3.72222e-05)
(0.00123057 0 2.33298e-05)
(0.000426504 0 8.04475e-06)
(0.00856353 0 0.000212812)
(0.00827481 0 0.00015058)
(0.00788937 0 9.98122e-05)
(0.00751949 0 7.80593e-05)
(0.00720732 0 7.98956e-05)
(0.00696192 0 9.55761e-05)
(0.006777 0 0.00011691)
(0.00664031 0 0.000138454)
(0.00653845 0 0.000157155)
(0.00645911 0 0.00017165)
(0.00639184 0 0.000181622)
(0.00632809 0 0.00018733)
(0.00626097 0 0.000189301)
(0.00618489 0 0.000188148)
(0.00609517 0 0.000184468)
(0.0059878 0 0.000178791)
(0.00585914 0 0.000171563)
(0.00570573 0 0.000163144)
(0.00552416 0 0.000153809)
(0.00531092 0 0.000143764)
(0.00506231 0 0.000133147)
(0.00477436 0 0.00012204)
(0.00444272 0 0.000110476)
(0.00406265 0 9.84398e-05)
(0.00362888 0 8.587e-05)
(0.0031356 0 7.26606e-05)
(0.00257633 0 5.8656e-05)
(0.00194387 0 4.36457e-05)
(0.0012302 0 2.73554e-05)
(0.000426363 0 9.43283e-06)
(0.00840134 0 0.000526462)
(0.00825351 0 0.000437538)
(0.00799927 0 0.000346533)
(0.00771039 0 0.000282007)
(0.00743373 0 0.000244491)
(0.00719228 0 0.000226925)
(0.00699267 0 0.00022171)
(0.00683208 0 0.000222844)
(0.00670322 0 0.000226233)
(0.00659735 0 0.000229385)
(0.00650582 0 0.000230971)
(0.00642083 0 0.000230426)
(0.00633563 0 0.000227648)
(0.00624441 0 0.000222785)
(0.0061422 0 0.000216102)
(0.00602458 0 0.000207898)
(0.00588756 0 0.000198458)
(0.00572737 0 0.000188032)
(0.00554032 0 0.000176821)
(0.00532267 0 0.000164979)
(0.00507054 0 0.000152607)
(0.00477982 0 0.000139759)
(0.00444604 0 0.000126444)
(0.00406436 0 0.000112625)
(0.00362945 0 9.822e-05)
(0.00313542 0 8.30982e-05)
(0.00257575 0 6.70758e-05)
(0.00194319 0 4.99084e-05)
(0.00122967 0 3.12798e-05)
(0.000426161 0 1.0786e-05)
(0.00807365 0 0.000644348)
(0.00804477 0 0.000583171)
(0.00792344 0 0.000504364)
(0.00773732 0 0.000434484)
(0.00752652 0 0.000381593)
(0.00731985 0 0.00034512)
(0.00713262 0 0.000321377)
(0.00696998 0 0.00030622)
(0.00683076 0 0.000296138)
(0.00671049 0 0.000288543)
(0.00660328 0 0.000281717)
(0.00650296 0 0.000274627)
(0.00640362 0 0.000266732)
(0.00629987 0 0.000257809)
(0.00618679 0 0.000247831)
(0.00605992 0 0.000236875)
(0.00591513 0 0.000225062)
(0.00574847 0 0.000212524)
(0.00555609 0 0.000199377)
(0.00533408 0 0.00018571)
(0.00507844 0 0.00017158)
(0.00478491 0 0.000157006)
(0.00444895 0 0.000141969)
(0.00406564 0 0.000126407)
(0.00362957 0 0.000110213)
(0.00313482 0 9.32311e-05)
(0.00257479 0 7.52484e-05)
(0.00194221 0 5.59865e-05)
(0.00122894 0 3.50883e-05)
(0.000425887 0 1.20991e-05)
(0.00782381 0 0.000660858)
(0.00783521 0 0.00063934)
(0.0077877 0 0.000593354)
(0.00767894 0 0.000538716)
(0.00753176 0 0.000487142)
(0.00736957 0 0.000443845)
(0.00720881 0 0.000409667)
(0.00705839 0 0.000383306)
(0.00692136 0 0.000362755)
(0.00679685 0 0.000346062)
(0.00668177 0 0.000331646)
(0.00657188 0 0.00031836)
(0.00646256 0 0.000305443)
(0.00634916 0 0.000292438)
(0.00622721 0 0.000279099)
(0.00609242 0 0.000265323)
(0.00594073 0 0.000251084)
(0.00576816 0 0.000236401)
(0.00557077 0 0.000221305)
(0.00534461 0 0.000205821)
(0.00508555 0 0.000189957)
(0.00478928 0 0.000173693)
(0.00445119 0 0.000156978)
(0.00406628 0 0.000139724)
(0.0036291 0 0.000121798)
(0.00313367 0 0.000103017)
(0.00257337 0 8.31407e-05)
(0.00194085 0 6.1856e-05)
(0.00122796 0 3.87661e-05)
(0.000425528 0 1.33672e-05)
(0.0076693 0 0.00067503)
(0.00767354 0 0.000673221)
(0.00764982 0 0.000650374)
(0.00758572 0 0.000611567)
(0.00748714 0 0.000566752)
(0.00736676 0 0.000523141)
(0.00723676 0 0.000484303)
(0.00710592 0 0.000451189)
(0.00697907 0 0.000423316)
(0.00685773 0 0.000399613)
(0.00674103 0 0.000378921)
(0.00662658 0 0.000360227)
(0.00651111 0 0.000342744)
(0.00639094 0 0.000325909)
(0.00626219 0 0.00030935)
(0.00612098 0 0.000292832)
(0.00596342 0 0.000276219)
(0.00578563 0 0.000259434)
(0.00558373 0 0.000242431)
(0.00535373 0 0.000225176)
(0.00509148 0 0.000207628)
(0.00479262 0 0.000189729)
(0.00445249 0 0.000171397)
(0.00406606 0 0.000152515)
(0.00362785 0 0.000132924)
(0.00313183 0 0.000112416)
(0.00257136 0 9.07209e-05)
(0.00193906 0 6.74936e-05)
(0.0012267 0 4.22987e-05)
(0.000425068 0 1.45852e-05)
(0.00753898 0 0.000716117)
(0.00753265 0 0.000714929)
(0.00751659 0 0.000698477)
(0.0074793 0 0.000667262)
(0.00741651 0 0.000627606)
(0.0073316 0 0.000585629)
(0.00723132 0 0.000545352)
(0.00712241 0 0.000508732)
(0.00700983 0 0.000476271)
(0.00689627 0 0.000447648)
(0.00678239 0 0.000422182)
(0.00666728 0 0.000399114)
(0.00654891 0 0.000377756)
(0.00642453 0 0.000357549)
(0.00629097 0 0.00033807)
(0.00614481 0 0.000319016)
(0.00598247 0 0.000300175)
(0.00580028 0 0.000281399)
(0.00559443 0 0.000262583)
(0.00536099 0 0.00024364)
(0.00509583 0 0.000224486)
(0.00479459 0 0.000205029)
(0.00445259 0 0.000185155)
(0.00406479 0 0.000164722)
(0.00362567 0 0.000143545)
(0.00312919 0 0.00012139)
(0.00256868 0 9.7959e-05)
(0.00193674 0 7.28774e-05)
(0.00122511 0 4.56725e-05)
(0.000424492 0 1.57486e-05)
(0.00738992 0 0.000771442)
(0.007386 0 0.000762627)
(0.00738277 0 0.00074215)
(0.00736848 0 0.000711435)
(0.00733443 0 0.000674017)
(0.00727894 0 0.000633753)
(0.00720497 0 0.000593711)
(0.00711721 0 0.000555816)
(0.00702002 0 0.000520958)
(0.00691648 0 0.000489292)
(0.00680813 0 0.000460538)
(0.00669507 0 0.000434214)
(0.00657626 0 0.000409797)
(0.00644979 0 0.000386803)
(0.00631315 0 0.000364822)
(0.00616343 0 0.000343533)
(0.00599739 0 0.000322687)
(0.0058116 0 0.000302092)
(0.00560242 0 0.000281601)
(0.005366 0 0.000261086)
(0.00509829 0 0.00024043)
(0.00479493 0 0.000219511)
(0.00445127 0 0.000198187)
(0.00406225 0 0.00017629)
(0.00362238 0 0.000153615)
(0.0031256 0 0.000129901)
(0.00256522 0 0.000104827)
(0.00193383 0 7.79871e-05)
(0.00122313 0 4.8875e-05)
(0.000423782 0 1.68529e-05)
(0.00721556 0 0.000819734)
(0.00723202 0 0.000802202)
(0.00725259 0 0.000775464)
(0.00726206 0 0.000743283)
(0.00725202 0 0.000707224)
(0.00722007 0 0.000668987)
(0.00716772 0 0.000630368)
(0.00709835 0 0.000592832)
(0.00701561 0 0.000557304)
(0.00692248 0 0.000524191)
(0.00682087 0 0.000493505)
(0.00671147 0 0.000465019)
(0.00659392 0 0.000438393)
(0.00646697 0 0.000413255)
(0.00632869 0 0.000389259)
(0.0061766 0 0.0003661)
(0.00600785 0 0.000343527)
(0.00581925 0 0.000321331)
(0.00560736 0 0.000299339)
(0.00536845 0 0.000277399)
(0.00509855 0 0.000255368)
(0.00479337 0 0.000233099)
(0.00444829 0 0.000210429)
(0.00405828 0 0.00018717)
(0.00361784 0 0.000163093)
(0.00312094 0 0.000137918)
(0.00256088 0 0.000111299)
(0.00193024 0 8.28036e-05)
(0.00122072 0 5.18943e-05)
(0.000422921 0 1.78941e-05)
(0.00705707 0 0.000840827)
(0.00710176 0 0.000818309)
(0.00714525 0 0.000790504)
(0.00717271 0 0.000760245)
(0.00717921 0 0.000727347)
(0.00716365 0 0.000692349)
(0.00712715 0 0.000656342)
(0.00707219 0 0.00062047)
(0.00700163 0 0.000585632)
(0.00691802 0 0.000552376)
(0.00682322 0 0.00052093)
(0.00671817 0 0.00049128)
(0.00660289 0 0.00046326)
(0.00647659 0 0.000436631)
(0.00633774 0 0.000411129)
(0.00618429 0 0.000386501)
(0.00601369 0 0.000362515)
(0.00582301 0 0.000338966)
(0.00560899 0 0.000315676)
(0.00536807 0 0.000292479)
(0.00509638 0 0.000269217)
(0.0047897 0 0.000245727)
(0.00444346 0 0.000221828)
(0.00405268 0 0.000197315)
(0.00361189 0 0.000171942)
(0.00311507 0 0.000145409)
(0.00255555 0 0.00011735)
(0.00192591 0 8.73092e-05)
(0.00121783 0 5.47193e-05)
(0.00042189 0 1.88684e-05)
(0.000420965 0 1.96759e-05)
(0.00121478 0 5.70609e-05)
(0.00192032 0 9.10649e-05)
(0.00254723 0 0.00012246)
(0.00310406 0 0.000151859)
(0.0035984 0 0.000179746)
(0.00403706 0 0.000206503)
(0.00442615 0 0.000232427)
(0.00477119 0 0.000257742)
(0.00507719 0 0.000282611)
(0.00534874 0 0.00030714)
(0.00559 0 0.000331384)
(0.00580478 0 0.000355342)
(0.00599654 0 0.000378966)
(0.00616837 0 0.000402155)
(0.00632299 0 0.000424759)
(0.00646266 0 0.000446587)
(0.00658914 0 0.000467415)
(0.0067036 0 0.000487006)
(0.0068065 0 0.000505142)
(0.00689758 0 0.000521667)
(0.00697582 0 0.000536537)
(0.00703954 0 0.000549868)
(0.00708666 0 0.000561958)
(0.00711512 0 0.000573281)
(0.00712344 0 0.00058442)
(0.00711137 0 0.000596012)
(0.00708036 0 0.000608966)
(0.00703403 0 0.000625342)
(0.00697996 0 0.000649658)
(0.000419531 0 2.04713e-05)
(0.00121077 0 5.93619e-05)
(0.00191431 0 9.47163e-05)
(0.00253977 0 0.000127324)
(0.00309568 0 0.000157811)
(0.00358961 0 0.000186669)
(0.00402831 0 0.000214284)
(0.00441784 0 0.000240956)
(0.00476366 0 0.000266906)
(0.00507073 0 0.000292295)
(0.00534352 0 0.000317224)
(0.00558611 0 0.000341742)
(0.00580218 0 0.000365847)
(0.005995 0 0.000389491)
(0.0061675 0 0.000412582)
(0.00632217 0 0.000434991)
(0.00646105 0 0.000456559)
(0.00658569 0 0.000477114)
(0.00669705 0 0.000496488)
(0.00679549 0 0.000514545)
(0.00688081 0 0.000531221)
(0.00695227 0 0.000546557)
(0.0070087 0 0.000560727)
(0.00704886 0 0.00057404)
(0.00707176 0 0.000586946)
(0.00707711 0 0.000600016)
(0.00706589 0 0.000613959)
(0.00704091 0 0.000629612)
(0.00700727 0 0.000648211)
(0.00697138 0 0.000672284)
(0.0004178 0 2.11975e-05)
(0.00120593 0 6.14632e-05)
(0.00190702 0 9.80502e-05)
(0.00253066 0 0.000131761)
(0.00308533 0 0.00016323)
(0.00357854 0 0.000192957)
(0.00401699 0 0.00022133)
(0.00440665 0 0.000248648)
(0.00475294 0 0.000275134)
(0.00506072 0 0.000300945)
(0.00533437 0 0.00032618)
(0.00557785 0 0.000350886)
(0.00579472 0 0.000375063)
(0.0059881 0 0.000398668)
(0.00616075 0 0.000421622)
(0.00631498 0 0.000443818)
(0.00645269 0 0.000465131)
(0.0065753 0 0.000485437)
(0.00668367 0 0.000504629)
(0.00677819 0 0.000522626)
(0.00685884 0 0.000539424)
(0.00692527 0 0.000555111)
(0.00697685 0 0.000569887)
(0.00701307 0 0.000584027)
(0.00703391 0 0.00059794)
(0.00704002 0 0.000612068)
(0.00703321 0 0.000626887)
(0.00701682 0 0.00064293)
(0.00699512 0 0.000661097)
(0.00697305 0 0.000683223)
(0.000415738 0 2.18487e-05)
(0.00120017 0 6.33488e-05)
(0.00189833 0 0.000101042)
(0.00251974 0 0.00013574)
(0.0030728 0 0.000168082)
(0.00356496 0 0.000198572)
(0.00400282 0 0.0002276)
(0.00439231 0 0.000255466)
(0.00473873 0 0.000282392)
(0.00504685 0 0.000308533)
(0.00532098 0 0.000333987)
(0.00556496 0 0.000358804)
(0.00578219 0 0.000382986)
(0.00597571 0 0.0004065)
(0.00614811 0 0.000429282)
(0.00630158 0 0.000451247)
(0.0064379 0 0.0004723)
(0.0065585 0 0.000492363)
(0.00666421 0 0.000511379)
(0.00675547 0 0.000529296)
(0.00683247 0 0.000546141)
(0.00689538 0 0.000562049)
(0.00694409 0 0.000577189)
(0.00697861 0 0.000591768)
(0.00699958 0 0.000606097)
(0.00700833 0 0.000620478)
(0.00700688 0 0.000635256)
(0.00699814 0 0.000650821)
(0.00698559 0 0.000667728)
(0.00697317 0 0.000686749)
(0.000413314 0 2.24194e-05)
(0.00119339 0 6.50032e-05)
(0.00188809 0 0.000103669)
(0.00250682 0 0.000139231)
(0.00305789 0 0.000172332)
(0.00354863 0 0.000203478)
(0.00398557 0 0.000233059)
(0.00437453 0 0.000261375)
(0.00472074 0 0.000288646)
(0.00502887 0 0.000315029)
(0.00530312 0 0.000340624)
(0.00554721 0 0.00036548)
(0.00576447 0 0.000389608)
(0.00595778 0 0.000412987)
(0.00612965 0 0.000435566)
(0.00628215 0 0.000457281)
(0.00641693 0 0.000478056)
(0.00653562 0 0.00049788)
(0.00663913 0 0.000516711)
(0.00672784 0 0.000534503)
(0.0068023 0 0.000551315)
(0.00686289 0 0.000567259)
(0.00691006 0 0.000582466)
(0.00694434 0 0.000597116)
(0.00696669 0 0.000611424)
(0.00697861 0 0.000625609)
(0.00698207 0 0.000639896)
(0.00697953 0 0.00065452)
(0.00697376 0 0.000669718)
(0.00696766 0 0.000685591)
(0.000410488 0 2.29064e-05)
(0.0011855 0 6.64176e-05)
(0.00187615 0 0.000105918)
(0.00249171 0 0.00014222)
(0.00304034 0 0.000175966)
(0.00352927 0 0.000207659)
(0.00396492 0 0.000237692)
(0.00435301 0 0.000266362)
(0.00469867 0 0.00029389)
(0.00500647 0 0.000320433)
(0.00528049 0 0.000346092)
(0.00552438 0 0.000370923)
(0.00574135 0 0.000394944)
(0.0059342 0 0.000418142)
(0.00610534 0 0.000440487)
(0.00625683 0 0.000461934)
(0.00639033 0 0.000482442)
(0.00650728 0 0.000501993)
(0.00660878 0 0.000520559)
(0.00669555 0 0.000538141)
(0.00676828 0 0.000554791)
(0.0068276 0 0.000570596)
(0.00687425 0 0.000585666)
(0.00690908 0 0.000600135)
(0.00693325 0 0.000614151)
(0.00694826 0 0.000627856)
(0.0069559 0 0.000641383)
(0.0069582 0 0.000654831)
(0.00695732 0 0.000668227)
(0.00695533 0 0.000681398)
(0.000407264 0 2.33063e-05)
(0.00117647 0 6.75813e-05)
(0.00186246 0 0.000107772)
(0.00247432 0 0.000144683)
(0.00302006 0 0.000178954)
(0.00350676 0 0.000211086)
(0.00394074 0 0.000241469)
(0.0043276 0 0.000270398)
(0.00467236 0 0.000298096)
(0.00497948 0 0.000324719)
(0.00525297 0 0.00035037)