/*--------------------------------*- C++ -*----------------------------------*\
  =========                 |
  \\      /  F ield         | OpenFOAM: The Open Source CFD Toolbox
   \\    /   O peration     | Website:  https://openfoam.org
    \\  /    A nd           | Version:  7
     \\/     M anipulation  |
\*---------------------------------------------------------------------------*/
FoamFile
{
    version     2.0;
    format      ascii;
    class       surfaceScalarField;
    location    "0.1";
    object      meshPhi;
}
// * * * * * * * * * * * * * * * * * * * * * * * * * * * * * * * * * * * * * //

dimensions      [0 3 -1 0 0 0 0];

internalField   nonuniform List<scalar> 
5457
(
0.000257005
8.22349e-07
0.000491451
2.36011e-06
0.000698275
3.73114e-06
0.000879996
4.96641e-06
0.00103888
6.11035e-06
0.00117695
7.19959e-06
0.00129599
8.26577e-06
0.00139758
9.33774e-06
0.00148305
1.04435e-05
0.00155358
1.16122e-05
0.00161012
1.28757e-05
0.00165344
1.42708e-05
0.00168411
1.58417e-05
0.0017025
1.76431e-05
0.00170875
1.97435e-05
0.00170277
2.22304e-05
0.00168419
2.52156e-05
0.00165235
2.88418e-05
0.00160622
3.32896e-05
0.00154445
3.87816e-05
0.00146531
4.55812e-05
0.00136685
5.39758e-05
0.0012471
6.42311e-05
0.00110469
7.64954e-05
0.000939896
9.0637e-05
0.000756426
0.000106023
0.000564121
0.000121335
0.000382469
0.000134652
0.000245741
0.000144179
0.000148778
0.000257053
1.64009e-06
0.000491561
4.70686e-06
0.000698462
7.44067e-06
0.000880279
9.90292e-06
0.00103929
1.21819e-05
0.00117751
1.43502e-05
0.00129675
1.64704e-05
0.00139858
1.85993e-05
0.00148436
2.0792e-05
0.00155528
2.31051e-05
0.00161231
2.56003e-05
0.00165626
2.83485e-05
0.00168772
3.14342e-05
0.00170713
3.49612e-05
0.0017147
3.90591e-05
0.00171043
4.38921e-05
0.00169408
4.9669e-05
0.00166518
5.66557e-05
0.00162293
6.51871e-05
0.0015663
7.56782e-05
0.00149395
8.86242e-05
0.00140437
0.00010458
0.00129606
0.000124092
0.00116796
0.000147548
0.00102032
0.000174903
0.00085617
0.000205239
0.000683799
0.000236263
0.000520578
0.000264056
0.000398663
0.000283956
0.0002936
0.000257164
2.44844e-06
0.000491798
7.02636e-06
0.000698852
1.11061e-05
0.000880859
1.47783e-05
0.00104011
1.81739e-05
0.00117863
2.14005e-05
0.00129826
2.455e-05
0.00140057
2.77058e-05
0.00148696
3.09474e-05
0.00155864
3.43563e-05
0.00161663
3.80202e-05
0.00166179
4.20388e-05
0.0016948
4.65295e-05
0.00171618
5.16347e-05
0.00172629
5.75309e-05
0.0017253
6.44388e-05
0.00171324
7.26368e-05
0.00168993
8.24759e-05
0.00165507
9.43963e-05
0.00160815
0.000108943
0.0015486
0.000126773
0.00147576
0.000148646
0.00138904
0.000175369
0.00128818
0.000207665
0.0011736
0.00024588
0.00104726
0.000289449
0.000914412
0.000336005
0.000787157
0.000380226
0.000691517
0.000413438
0.000430564
0.000257332
3.24254e-06
0.000492153
9.30446e-06
0.000699432
1.47043e-05
0.000881717
1.95607e-05
0.00104132
2.40453e-05
0.00118029
2.82988e-05
0.00130047
3.24408e-05
0.00140348
3.65784e-05
0.00149076
4.08131e-05
0.00156354
4.52469e-05
0.00162292
4.99883e-05
0.00166983
5.51582e-05
0.00170505
6.08972e-05
0.00172923
6.73725e-05
0.00174293
7.47879e-05
0.00174655
8.33944e-05
0.00174045
9.35028e-05
0.00172489
0.000105499
0.00170014
0.000119861
0.00166646
0.000137174
0.00162422
0.000158145
0.00157395
0.000183611
0.00151643
0.000214517
0.00145268
0.000251861
0.00138399
0.000296524
0.00131173
0.000348875
0.00123753
0.000407859
0.00116484
0.000469064
0.00110618
0.000521398
0.000557774
0.00025755
4.01763e-06
0.000492613
1.15273e-05
0.00070018
1.82129e-05
0.000882825
2.42191e-05
0.00104288
2.97563e-05
0.00118242
3.49956e-05
0.00130332
4.0082e-05
0.00140723
4.51436e-05
0.00149563
5.02999e-05
0.00156981
5.56689e-05
0.00163095
6.13734e-05
0.00168005
6.75473e-05
0.00171802
7.43424e-05
0.00174568
8.19355e-05
0.00176377
9.05364e-05
0.00177299
0.000100397
0.00177404
0.00011182
0.00176768
0.000125172
0.00175477
0.000140893
0.0017364
0.000159506
0.00171395
0.000181629
0.00168926
0.000207985
0.00166465
0.000239408
0.00164295
0.000276852
0.00162719
0.000321383
0.00161979
0.000374096
0.00162094
0.000435697
0.00162642
0.000504886
0.00162945
0.000572848
0.000686774
0.000257812
4.76873e-06
0.000493164
1.36805e-05
0.000701075
2.16087e-05
0.000884147
2.87217e-05
0.00104474
3.52658e-05
0.00118496
4.14405e-05
0.00130671
4.7413e-05
0.00141169
5.3329e-05
0.00150141
5.93221e-05
0.00157724
6.55212e-05
0.00164042
7.20566e-05
0.00169205
7.90666e-05
0.00173318
8.67028e-05
0.00176478
9.51358e-05
0.0017878
0.000104561
0.00180321
0.000115203
0.00181206
0.000127322
0.00181553
0.000141213
0.00181507
0.000157211
0.00181245
0.000175685
0.00180996
0.000197031
0.00181053
0.000221664
0.00181787
0.000250002
0.00183652
0.000282464
0.00187161
0.000319491
0.00192809
0.000361581
0.00200846
0.000409263
0.00210766
0.000462379
0.00220341
0.000515935
0.000641482
0.000258111
5.49057e-06
0.000493788
1.57486e-05
0.000702086
2.48668e-05
0.00088564
3.30345e-05
0.00104684
4.05312e-05
0.00118783
4.75815e-05
0.00131054
5.43719e-05
0.00141671
6.10625e-05
0.00150791
6.77967e-05
0.00158557
7.4709e-05
0.00165099
8.19313e-05
0.00170539
8.95977e-05
0.00174992
9.78492e-05
0.0017857
0.000106837
0.00181389
0.000116725
0.00183567
0.00012769
0.00185237
0.000139919
0.00186555
0.000153603
0.00187703
0.000168928
0.00188908
0.000186048
0.00190454
0.00020506
0.00192695
0.000225953
0.00196069
0.000248538
0.00201109
0.000272365
0.00208429
0.000296601
0.00218666
0.000319888
0.00232291
0.000340189
0.00249017
0.000354684
0.00265958
0.000360041
0.000351462
0.000258432
6.17841e-06
0.000494459
1.77181e-05
0.000703174
2.79654e-05
0.00088725
3.71281e-05
0.00104911
4.55155e-05
0.00119093
5.33745e-05
0.00131468
6.09075e-05
0.00142214
6.82857e-05
0.00151492
7.56585e-05
0.00159451
8.31615e-05
0.00166229
9.09222e-05
0.00171956
9.9064e-05
0.00176758
0.000107709
0.0018076
0.000116979
0.0018409
0.000126996
0.00186886
0.000137872
0.001893
0.00014971
0.00191506
0.000162583
0.00193709
0.00017651
0.00196154
0.000191427
0.00199134
0.000207131
0.00202997
0.000223203
0.00208154
0.000238901
0.00215065
0.000253001
0.00224211
0.000263577
0.00236016
0.000267736
0.00250644
0.000261428
0.00267461
0.000240055
0.00283489
0.000202748
9.77317e-05
0.00025876
6.82878e-06
0.000495147
1.95789e-05
0.000704294
3.08888e-05
0.000888915
4.09818e-05
0.00105147
5.01934e-05
0.00119416
5.87899e-05
0.00131899
6.69869e-05
0.00142779
7.49633e-05
0.00152221
8.2871e-05
0.00160379
9.0843e-05
0.00167396
9.8998e-05
0.00173411
0.000107444
0.00178556
0.000116278
0.00182967
0.000125588
0.00186781
0.000135446
0.00190146
0.0001459
0.00193222
0.000156965
0.0019619
0.000168598
0.00199254
0.000180676
0.00202646
0.000192951
0.00206627
0.000204996
0.00211484
0.000216126
0.0021751
0.000225304
0.00224972
0.000231008
0.0023404
0.000231102
0.00244655
0.000222766
0.002563
0.000202776
0.00267648
0.000168914
0.00276215
0.000124718
4.73719e-05
0.000259079
7.43915e-06
0.000495819
2.1324e-05
0.000705398
3.36259e-05
0.00089057
4.45811e-05
0.00105382
5.45481e-05
0.00119741
6.38094e-05
0.00132335
7.25911e-05
0.0014335
8.1077e-05
0.00152956
8.9419e-05
0.00161311
9.77444e-05
0.00168564
0.00010616
0.00174857
0.000114756
0.00180329
0.000123602
0.00185121
0.00013275
0.00189374
0.000142223
0.00193239
0.000152009
0.00196875
0.000162045
0.00200455
0.000172197
0.00204165
0.000182235
0.00208203
0.000191793
0.00212768
0.000200336
0.00218052
0.000207103
0.00224196
0.000211074
0.00231248
0.000210945
0.00239059
0.000205202
0.00247159
0.000192384
0.00254591
0.000171785
0.00259875
0.000144906
0.00261683
0.000117616
9.92336e-05
0.000259371
8.0075e-06
0.000496442
2.29475e-05
0.000706437
3.61682e-05
0.000892148
4.79153e-05
0.0010561
5.85674e-05
0.00120056
6.84206e-05
0.0013276
7.77087e-05
0.00143909
8.66186e-05
0.00153676
9.52998e-05
0.00162222
0.000103872
0.001697
0.00011243
0.00176255
0.000121042
0.00182028
0.000129755
0.00187162
0.000138584
0.00191799
0.00014751
0.00196084
0.000156471
0.00200169
0.000165344
0.00204209
0.000173934
0.00208359
0.000181949
0.00212771
0.000188983
0.00217576
0.000194496
0.00222864
0.000197812
0.00228644
0.00019814
0.00234794
0.000194674
0.00240991
0.000186803
0.00246632
0.000174527
0.00250831
0.000159122
0.00252631
0.000143816
0.00251879
0.000133266
0.000138021
0.000259619
8.53221e-06
0.000496982
2.4445e-05
0.00070736
3.85087e-05
0.000893583
5.09763e-05
0.0010582
6.2243e-05
0.00120352
7.26158e-05
0.00133162
8.23347e-05
0.00144439
9.15875e-05
0.0015436
0.00010052
0.00163087
0.000109245
0.00170774
0.000117841
0.00177569
0.000126362
0.00183612
0.000134828
0.00189044
0.000143226
0.00194003
0.000151504
0.00198627
0.000159562
0.00203051
0.00016724
0.00207408
0.000174311
0.00211821
0.000180469
0.0021639
0.000185323
0.00221185
0.000188406
0.00226213
0.000189207
0.00231396
0.000187238
0.0023653
0.000182182
0.00241264
0.000174123
0.00245102
0.000163883
0.00247506
0.000153343
0.00248183
0.000145359
0.00247579
0.000142263
0.000150682
0.000259805
9.01209e-06
0.000497406
2.58133e-05
0.000708118
4.0643e-05
0.000894809
5.37591e-05
0.00106006
6.55703e-05
0.00120618
7.63927e-05
0.00133527
8.64702e-05
0.00144926
9.59907e-05
0.0015499
0.000105096
0.00163884
0.00011389
0.00171762
0.000122441
0.00178769
0.000130785
0.00185047
0.000138923
0.0019073
0.000146821
0.0019595
0.000154402
0.00200833
0.000161544
0.00205497
0.000168071
0.00210051
0.000173753
0.00214583
0.0001783
0.00219154
0.000181377
0.00223782
0.000182625
0.00228422
0.00018171
0.00232951
0.000178409
0.00237157
0.000172734
0.00240745
0.000165101
0.00243397
0.000156473
0.00244902
0.00014837
0.0024536
0.000142468
0.00245318
0.000139501
0.000140961
0.000259912
9.44639e-06
0.000497679
2.70503e-05
0.000708662
4.25686e-05
0.00089576
5.62615e-05
0.00106157
6.85488e-05
0.00120843
7.97533e-05
0.00133845
9.01219e-05
0.00145355
9.98417e-05
0.0015555
0.000109051
0.00164595
0.000117845
0.00172641
0.000126283
0.00179833
0.000134387
0.00186308
0.000142146
0.00192196
0.000149509
0.00197618
0.000156387
0.00202687
0.00016265
0.00207506
0.000168124
0.0021216
0.000172593
0.00216708
0.000175808
0.0022118
0.000177507
0.00225559
0.000177441
0.00229776
0.00017543
0.00233699
0.000171431
0.0023714
0.000165622
0.00239884
0.000158475
0.0024175
0.000150749
0.00242695
0.00014334
0.00242917
0.0001369
0.00242849
0.000131458
0.000123566
0.00025992
9.83821e-06
0.000497765
2.81652e-05
0.000708943
4.43002e-05
0.000896378
5.85039e-05
0.00106268
7.12046e-05
0.0012102
8.27302e-05
0.00134105
9.33295e-05
0.00145716
0.000103189
0.00156028
0.000112442
0.00165204
0.000121179
0.00173397
0.000129451
0.00180746
0.000137271
0.00187383
0.00014462
0.00193431
0.000151438
0.00199002
0.000157634
0.00204197
0.000163081
0.00209102
0.000167618
0.00213782
0.000171061
0.00218276
0.000173212
0.00222592
0.000173881
0.00226696
0.000172921
0.00230511
0.000170266
0.00233918
0.000165982
0.00236768
0.000160305
0.00238914
0.000153654
0.00240257
0.00014656
0.00240805
0.000139516
0.00240708
0.000132755
0.00240255
0.000126269
0.000115805
0.000240642
-7.29156e-05
0.000398304
-6.97543e-05
0.00060089
-6.29119e-05
0.000810396
-5.20617e-05
0.00100542
-3.98719e-05
0.00117648
-2.83302e-05
0.00132107
-1.84816e-05
0.00144017
-1.06353e-05
0.00153615
-4.67704e-06
0.00161173
-3.11763e-07
0.00166936
2.79239e-06
0.00171108
4.93607e-06
0.00173847
6.36525e-06
0.00175264
7.27014e-06
0.00175433
7.79286e-06
0.00174392
8.03736e-06
0.00172153
8.07852e-06
0.00168699
7.96963e-06
0.00163993
7.74804e-06
0.00157976
7.43937e-06
0.0015057
7.06046e-06
0.00141681
6.6214e-06
0.00131192
6.12691e-06
0.00118971
5.57715e-06
0.00104863
4.9681e-06
0.000886977
4.29163e-06
0.000702795
3.53521e-06
0.000493932
2.68125e-06
0.000258001
1.70614e-06
5.96151e-07
0.000392751
-0.000148656
0.000540714
-0.000133596
0.000725767
-0.000118487
0.000914153
-9.64852e-05
0.00108825
-7.27568e-05
0.00124083
-5.08704e-05
0.00137021
-3.25063e-05
0.00147734
-1.8022e-05
0.00156418
-7.08059e-06
0.00163287
9.18312e-07
0.00168535
6.60345e-06
0.00172323
1.05286e-05
0.00174775
1.31419e-05
0.00175977
1.47885e-05
0.00175983
1.57267e-05
0.00174818
1.61462e-05
0.00172483
1.61842e-05
0.00168955
1.59387e-05
0.00164191
1.54788e-05
0.00158129
1.4852e-05
0.00150689
1.40895e-05
0.00141771
1.32099e-05
0.0013126
1.22215e-05
0.00119021
1.11239e-05
0.00104901
9.90877e-06
0.000887244
8.55951e-06
0.000702978
7.05092e-06
0.000494047
5.34782e-06
0.000258056
3.40302e-06
1.18909e-06
0.000688381
-0.000200787
0.000814917
-0.00018443
0.000963882
-0.000159119
0.00111042
-0.000125777
0.00124418
-9.21392e-05
0.00136175
-6.2467e-05
0.00146263
-3.82494e-05
0.00154746
-1.94405e-05
0.00161724
-5.33375e-06
0.00167307
4.95645e-06
0.0017159
1.22706e-05
0.00174656
1.73203e-05
0.00176564
2.06727e-05
0.00177356
2.27639e-05
0.0017705
2.39217e-05
0.00175647
2.43884e-05
0.00173128
2.43411e-05
0.00169457
2.39075e-05
0.00164582
2.31781e-05
0.00158432
2.22154e-05
0.00150922
2.10604e-05
0.0014195
1.97372e-05
0.00131396
1.82558e-05
0.00119123
1.6614e-05
0.00104975
1.47982e-05
0.000887781
1.27829e-05
0.00070335
1.05301e-05
0.000494285
7.98682e-06
0.000258174
5.08248e-06
1.77598e-06
0.00111165
-0.000243405
0.00120051
-0.000217346
0.00129223
-0.000176616
0.00137718
-0.000132299
0.00145449
-9.2277e-05
0.00152457
-5.91768e-05
0.00158743
-3.30919e-05
0.00164268
-1.31619e-05
0.00168984
1.70837e-06
0.00172851
1.25625e-05
0.00175837
2.0296e-05
0.00177923
2.56384e-05
0.00179088
2.91656e-05
0.00179313
3.13226e-05
0.00178573
3.24482e-05
0.00176835
3.27969e-05
0.00174056
3.25575e-05
0.00170182
3.18682e-05
0.00165147
3.08281e-05
0.00158871
2.95061e-05
0.00151261
2.79471e-05
0.0014221
2.61766e-05
0.00131593
2.42038e-05
0.00119271
2.2023e-05
0.00105084
1.96142e-05
0.000888563
1.69426e-05
0.00070389
1.39568e-05
0.000494629
1.05863e-05
0.000258344
6.73693e-06
2.35416e-06
0.00164531
-0.000305216
0.00166542
-0.000207579
0.00167454
-0.000154675
0.00168166
-0.000107108
0.00169282
-6.8858e-05
0.00170943
-3.90932e-05
0.0017302
-1.62236e-05
0.00175278
1.17093e-06
0.00177481
1.42275e-05
0.0017942
2.38486e-05
0.0018093
3.07579e-05
0.00181883
3.55377e-05
0.00182178
3.86551e-05
0.0018173
4.04815e-05
0.00180468
4.13086e-05
0.00178323
4.13626e-05
0.00175224
4.08159e-05
0.00171098
3.97977e-05
0.00165864
3.84024e-05
0.00159429
3.66959e-05
0.00151693
3.47209e-05
0.00142541
3.25001e-05
0.00131844
3.00391e-05
0.00119459
2.73266e-05
0.00105222
2.43353e-05
0.000889549
2.10199e-05
0.000704568
1.73158e-05
0.000495057
1.31345e-05
0.000258554
8.35896e-06
2.92105e-06
0.00222482
-0.000206203
0.00214321
-0.000110972
0.00205435
-7.50795e-05
0.00198069
-4.52896e-05
0.0019278
-2.20638e-05
0.00189406
-3.77286e-06
0.00187527
1.07939e-05
0.0018668
2.23647e-05
0.00186446
3.14109e-05
0.00186476
3.82953e-05
0.0018649
4.33359e-05
0.0018627
4.68236e-05
0.00185644
4.90224e-05
0.00184472
5.01654e-05
0.00182638
5.0452e-05
0.00180039
5.00473e-05
0.00176581
4.90848e-05
0.00172168
4.76681e-05
0.00166703
4.5875e-05
0.00160085
4.37604e-05
0.00152201
4.13587e-05
0.00142931
3.86862e-05
0.0013214
3.57415e-05
0.00119679
3.25064e-05
0.00105384
2.89447e-05
0.000890699
2.50005e-05
0.000705352
2.05951e-05
0.000495549
1.56225e-05
0.000258794
9.94276e-06
3.47462e-06
0.00268039
9.92684e-05
0.00251869
5.58466e-05
0.00235841
4.57627e-05
0.00222766
4.00074e-05
0.00212902
3.87417e-05
0.002058
4.05109e-05
0.00200855
4.38942e-05
0.00197485
4.78343e-05
0.00195179
5.1637e-05
0.00193517
5.48956e-05
0.00192156
5.74101e-05
0.00190823
5.91172e-05
0.00189297
6.00367e-05
0.001874
6.02335e-05
0.00184981
5.97912e-05
0.00181911
5.87962e-05
0.00178071
5.7328e-05
0.0017335
5.5454e-05
0.00167636
5.32268e-05
0.00160815
5.0684e-05
0.00152768
4.78473e-05
0.00143367
4.47227e-05
0.0013247
4.13001e-05
0.00119924
3.75523e-05
0.00105562
3.34335e-05
0.000891962
2.88763e-05
0.000706206
2.3788e-05
0.000496078
1.8045e-05
0.000259049
1.14849e-05
4.01362e-06
0.00285264
0.000313142
0.00269621
0.000195702
0.00253237
0.000151649
0.00239037
0.000118099
0.00227596
9.66695e-05
0.00218727
8.4173e-05
0.00212005
7.74484e-05
0.00206955
7.4178e-05
0.0020313
7.28072e-05
0.00200131
7.23382e-05
0.00197619
7.21551e-05
0.0019531
7.18965e-05
0.00192964
7.13668e-05
0.00190385
7.04744e-05
0.001874
6.91904e-05
0.00183863
6.75204e-05
0.00179639
6.54863e-05
0.00174601
6.31144e-05
0.00168628
6.04283e-05
0.00161595
5.74444e-05
0.00153375
5.41688e-05
0.00143833
5.05949e-05
0.00132822
4.67022e-05
0.00120186
4.24533e-05
0.00105751
3.7792e-05
0.000893287
3.2639e-05
0.000707093
2.68875e-05
0.000496621
2.03966e-05
0.000259308
1.29819e-05
4.53684e-06
0.00277558
0.000307797
0.00269153
0.000241949
0.00258071
0.000201327
0.00246761
0.000165047
0.0023649
0.000137842
0.0022773
0.000118961
0.00220518
0.000106387
0.00214677
9.81894e-05
0.00209942
9.28481e-05
0.00206022
8.9262e-05
0.00202639
8.66684e-05
0.00199539
8.45589e-05
0.00196494
8.26072e-05
0.00193308
8.06131e-05
0.00189803
7.84606e-05
0.00185825
7.60877e-05
0.0018123
7.34648e-05
0.00175881
7.05795e-05
0.00169648
6.74264e-05
0.001624
6.4e-05
0.00154002
6.02895e-05
0.00144314
5.6275e-05
0.00133185
5.19243e-05
0.00120453
4.71895e-05
0.00105943
4.20033e-05
0.000894621
3.62745e-05
0.000707974
2.98824e-05
0.000497153
2.26689e-05
0.000259559
1.44284e-05
5.04245e-06
0.00262387
0.000217367
0.0026068
0.000219698
0.00255606
0.000202563
0.00248471
0.000180568
0.00240708
0.000159458
0.00233226
0.000141815
0.00226467
0.000128107
0.00220562
0.000117844
0.00215462
0.000110251
0.00211022
0.000104567
0.00207056
0.000100159
0.00203368
9.6539e-05
0.00199767
9.33549e-05
0.0019607
9.03615e-05
0.0019211
8.73946e-05
0.00187733
8.43474e-05
0.00182792
8.11523e-05
0.00177147
7.77653e-05
0.00170663
7.41562e-05
0.00163204
7.02992e-05
0.00154629
6.61676e-05
0.00144795
6.17282e-05
0.00133546
5.69374e-05
0.00120718
5.17363e-05
0.00106131
4.60468e-05
0.000895908
3.97659e-05
0.00070881
3.27591e-05
0.000497648
2.48518e-05
0.000259789
1.58183e-05
5.52828e-06
0.00251835
0.000162853
0.0025272
0.00018562
0.00251145
0.000186532
0.0024725
0.000179209
0.00241952
0.000167346
0.00236102
0.000154501
0.00230273
0.000142663
0.00224772
0.000132585
0.00219712
0.00012432
0.00215082
0.000117606
0.00210791
0.000112085
0.00206712
0.000107409
0.00202697
0.000103282
0.00198595
9.9472e-05
0.00194255
9.58067e-05
0.00189531
9.21603e-05
0.0018428
8.84434e-05
0.00178363
8.45914e-05
0.00171644
8.0555e-05
0.00163982
7.62925e-05
0.00155237
7.17632e-05
0.00145259
6.6922e-05
0.00133893
6.17142e-05
0.0012097
5.60709e-05
0.00106308
4.99034e-05
0.000897089
4.30973e-05
0.000709556
3.5505e-05
0.000498077
2.69362e-05
0.000259983
1.71457e-05
5.9923e-06
0.00246849
0.000149187
0.00247623
0.000167825
0.0024721
0.000174022
0.00245132
0.000173955
0.00241651
0.000168671
0.00237276
0.000160557
0.00232481
0.000151571
0.00227601
0.000142885
0.00222832
0.000135039
0.00218246
0.000128163
0.00213835
0.000122177
0.00209532
0.000116907
0.00205238
0.000112161
0.00200833
0.000107759
0.0019619
0.000103549
0.00191175
9.94107e-05
0.00185656
9.52482e-05
0.00179497
9.09874e-05
0.00172562
8.65677e-05
0.00164713
8.19359e-05
0.00155807
7.70408e-05
0.00145693
7.1827e-05
0.00134214
6.62306e-05
0.00121199
6.01733e-05
0.00106464
5.35565e-05
0.000898104
4.62551e-05
0.000710168
3.81092e-05
0.00049841
2.89139e-05
0.000260126
1.84054e-05
6.43275e-06
0.00244003
0.000161614
0.00244268
0.000164356
0.00244118
0.000168487
0.00242965
0.000169767
0.00240679
0.00016765
0.00237453
0.000162866
0.00233592
0.000156537
0.00229376
0.00014963
0.0022501
0.000142784
0.00220613
0.00013633
0.00216226
0.000130384
0.00211832
0.000124925
0.0020737
0.000119868
0.00202755
0.000115103
0.00197882
0.000110517
0.00192634
0.00010601
0.00186889
0.000101495
0.0018052
9.68951e-05
0.00173395
9.21472e-05
0.00165376
8.71914e-05
0.00156322
8.19691e-05
0.00146082
7.64177e-05
0.00134497
7.04653e-05
0.00121396
6.40253e-05
0.00106594
5.69908e-05
0.000898894
4.92268e-05
0.000710602
4.05619e-05
0.000498617
3.07774e-05
0.000260202
1.95929e-05
6.848e-06
0.00241112
0.000167143
0.00241466
0.000162783
0.00241586
0.000164902
0.00240999
0.00016615
0.00239493
0.000165603
0.00237101
0.000163042
0.00233995
0.000158872
0.00230382
0.000153702
0.00226443
0.000148074
0.00222303
0.00014237
0.0021803
0.000136805
0.00213637
0.000131468
0.00209097
0.000126362
0.0020435
0.000121444
0.00199312
0.000116648
0.00193885
0.000111901
0.00187959
0.00010713
0.00181413
0.00010227
0.00174123
9.7256e-05
0.00165954
9.20275e-05
0.00156767
8.65221e-05
0.00146413
8.0672e-05
0.00134731
7.43996e-05
0.00121552
6.76116e-05
0.00106689
6.01934e-05
0.000899398
5.20015e-05
0.000710813
4.28542e-05
0.000498666
3.25203e-05
0.000260196
2.0704e-05
7.2366e-06
0.00238428
0.000152478
0.00239158
0.000155221
0.00239569
0.000159235
0.00239344
0.000161813
0.00238326
0.000162743
0.00236502
0.000161897
0.00233963
0.000159469
0.0023085
0.000155847
0.00227304
0.000151455
0.00223438
0.000146645
0.00219325
0.000141667
0.00214996
0.000136668
0.00210443
0.000131716
0.00205625
0.000126823
0.00200479
0.000121963
0.00194921
0.000117095
0.00188852
0.000112168
0.00182163
0.000107124
0.00174733
0.000101908
0.00166436
9.64594e-05
0.00157132
9.07159e-05
0.00146676
8.46068e-05
0.00134908
7.80503e-05
0.00121659
7.09481e-05
0.00106743
6.31793e-05
0.000899561
5.45927e-05
0.000710754
4.49974e-05
0.000498526
3.41512e-05
0.000260089
2.17441e-05
7.60044e-06
0.000269758
1.01919e-05
0.000516683
2.91706e-05
0.000736055
4.58582e-05
0.00093093
6.05138e-05
0.00110403
7.35721e-05
0.0012578
8.53645e-05
0.00139442
9.61411e-05
0.00151589
0.000106087
0.00162403
0.000115333
0.00172051
0.000123966
0.00180686
0.00013203
0.00188451
0.000139534
0.00195477
0.000146454
0.00201883
0.000152731
0.00207776
0.000158278
0.00213248
0.00016298
0.00218374
0.000166699
0.00223207
0.00016929
0.00227771
0.000170608
0.00232063
0.000170534
0.00236041
0.000168999
0.00239634
0.00016602
0.0024274
0.000161721
0.00245248
0.00015635
0.0024706
0.000150259
0.00248128
0.000143844
0.00248475
0.000137458
0.00248212
0.000131338
0.00247525
0.000125688
0.000120959
0.00245784
0.000276006
1.05052e-05
0.000528739
3.00604e-05
0.000753411
4.72338e-05
0.000953164
6.22811e-05
0.00113079
7.5641e-05
0.00128878
8.76474e-05
0.00142938
9.85508e-05
0.00155461
0.000108536
0.0016663
0.000117731
0.00176615
0.00012622
0.0018557
0.000134045
0.00193634
0.000141215
0.00200936
0.000147704
0.0020759
0.00015346
0.00213696
0.000158406
0.00219337
0.000162445
0.00224579
0.00016547
0.00229464
0.000167374
0.00234009
0.000168063
0.00238204
0.000167476
0.00242012
0.000165609
0.00245373
0.000162527
0.00248212
0.000158384
0.00250455
0.000153419
0.00252047
0.000147932
0.00252978
0.000142248
0.00253291
0.000136673
0.00253087
0.00013148
0.00252511
0.00012696
0.000123645
0.00251737
0.000282208
1.07749e-05
0.00054072
3.08254e-05
0.00077068
4.84135e-05
0.000975308
6.37896e-05
0.00115746
7.73944e-05
0.00131967
8.95626e-05
0.00146422
0.000100545
0.00159316
0.000110526
0.00170836
0.000119633
0.00181149
0.000127949
0.0019041
0.000135517
0.00198757
0.000142346
0.00206315
0.000148417
0.00213192
0.000153686
0.00219482
0.00015809
0.00225263
0.000161556
0.00230592
0.000164007
0.00235507
0.000165374
0.00240019
0.000165607
0.00244119
0.00016469
0.0024778
0.000162662
0.00250959
0.000159621
0.00253604
0.00015573
0.00255675
0.000151209
0.00257152
0.00014632
0.00258051
0.000141338
0.00258432
0.000136528
0.002584
0.000132136
0.00258081
0.000128426
0.000125777
0.00257661
0.000288324
1.09991e-05
0.000552554
3.14608e-05
0.000787762
4.93905e-05
0.000997236
6.50319e-05
0.00118388
7.88254e-05
0.00135028
9.11058e-05
0.00149875
0.000102124
0.00163135
0.000112063
0.00174997
0.000121052
0.00185629
0.000129174
0.00195183
0.000136475
0.00203796
0.000142968
0.0021159
0.000148642
0.00218668
0.000153466
0.0022512
0.000157393
0.00231016
0.000160373
0.00236413
0.000162359
0.00241344
0.000163316
0.00245822
0.00016323
0.00249839
0.000162121
0.00253381
0.000160051
0.00256424
0.000157137
0.00258938
0.000153542
0.00260906
0.000149464
0.00262336
0.000145128
0.0026326
0.000140761
0.00263743
0.000136579
0.00263879
0.000132783
0.00263772
0.000129575
0.000127156
0.00263569
0.000294314
1.11767e-05
0.000564164
3.19636e-05
0.000804552
5.01609e-05
0.00101882
6.60043e-05
0.00120991
7.99317e-05
0.00138046
9.22769e-05
0.00153278
0.00010329
0.00166898
0.000113155
0.00179092
0.000122002
0.00190031
0.000129916
0.00199866
0.000136947
0.0020873
0.000143116
0.00216741
0.000148421
0.00224002
0.000152845
0.00230597
0.00015636
0.00236593
0.000158937
0.00242044
0.000160553
0.00246987
0.000161205
0.00251435
0.000160908
0.00255387
0.000159703
0.0025884
0.000157672
0.00261785
0.000154935
0.00264215
0.000151645
0.0026613
0.000147978
0.00267553
0.000144119
0.00268526
0.000140254
0.00269112
0.000136555
0.00269388
0.000133174
0.0026944
0.000130244
0.000127854
0.00269375
0.000300137
1.13071e-05
0.000575474
3.23322e-05
0.000820941
5.07228e-05
0.00103992
6.67054e-05
0.00123539
8.07135e-05
0.00141
9.30787e-05
0.00156611
0.00010405
0.00170582
0.000113813
0.001831
0.000122498
0.00194335
0.000130196
0.00204436
0.00013696
0.00213536
0.000142821
0.00221751
0.000147788
0.00229179
0.000151858
0.00235903
0.000155021
0.00241989
0.000157269
0.00247489
0.000158602
0.00252442
0.000159036
0.00256866
0.000158607
0.00260771
0.000157376
0.00264162
0.000155432
0.00267044
0.00015289
0.00269424
0.000149888
0.00271319
0.000146579
0.00272759
0.000143117
0.00273788
0.000139649
0.00274463
0.000136307
0.00274852
0.000133202
0.00275023
0.000130415
0.000127977
0.00275047
0.000305758
1.13894e-05
0.000586416
3.25643e-05
0.000836831
5.1073e-05
0.00106041
6.71318e-05
0.00126017
8.11684e-05
0.00143877
9.35109e-05
0.00159857
0.000104408
0.00174169
0.000114044
0.00187
0.000122554
0.00198519
0.00013003
0.00208874
0.000136536
0.00218197
0.00014211
0.00226601
0.000146772
0.00234184
0.000150533
0.00241027
0.0001534
0.00247196
0.000155384
0.00252744
0.000156502
0.0025771
0.000156786
0.0026212
0.000156287
0.00265994
0.000155075
0.00269346
0.000153239
0.00272192
0.000150889
0.0027455
0.000148147
0.00276445
0.000145142
0.00277913
0.000142001
0.00278997
0.000138839
0.0027975
0.000135757
0.00280227
0.000132833
0.00280484
0.000130116
0.000127613
0.0028057
0.000311142
1.14228e-05
0.000596922
3.26576e-05
0.00085213
5.12084e-05
0.00108019
6.72808e-05
0.00128412
8.12947e-05
0.00146659
9.3574e-05
0.00162998
0.000104365
0.0017764
0.000113855
0.00190773
0.000122178
0.00202565
0.000129435
0.00213162
0.000135694
0.00222696
0.000141003
0.00231278
0.000145393
0.00239005
0.000148888
0.00245959
0.00015151
0.00252206
0.000153284
0.00257802
0.000154242
0.00262788
0.000154427
0.00267197
0.0001539
0.00271057
0.000152732
0.0027439
0.000151013
0.0027722
0.000148842
0.00279574
0.000146327
0.00281483
0.000143575
0.00282983
0.000140689
0.00284119
0.000137762
0.00284936
0.000134869
0.00285482
0.000132066
0.00285802
0.000129382
0.00012682
0.00285931
0.000316251
1.1407e-05
0.000606923
3.26117e-05
0.000866737
5.11288e-05
0.00109911
6.71529e-05
0.00130708
8.10944e-05
0.00149331
9.32719e-05
0.00166018
0.00010393
0.00180979
0.000113254
0.00194403
0.000121385
0.00206455
0.000128425
0.00217284
0.000134449
0.00227017
0.000139515
0.00235768
0.000143664
0.00243632
0.000146932
0.00250692
0.000149353
0.00257016
0.000150962
0.00262661
0.000151802
0.00267674
0.000151926
0.00272094
0.000151397
0.00275953
0.000150289
0.00279283
0.000148686
0.00282113
0.000146676
0.00284476
0.000144354
0.00286407
0.00014181
0.00287942
0.000139129
0.00289124
0.000136382
0.00289994
0.000133629
0.00290594
0.00013091
0.00290963
0.000128247
0.000125642
0.00291123
0.000321048
1.13421e-05
0.000616347
3.24267e-05
0.000880556
5.08348e-05
0.00111708
6.67496e-05
0.00132893
8.05703e-05
0.00151879
9.2609e-05
0.001689
0.000103108
0.00184169
0.000112252
0.00197872
0.000120183
0.00210174
0.000127009
0.00221224
0.000132813
0.00231148
0.000137657
0.00240059
0.000141594
0.00248054
0.000144668
0.00255217
0.000146922
0.00261618
0.000148403
0.00267316
0.000149159
0.00272364
0.000149249
0.00276804
0.000148736
0.00280676
0.000147694
0.00284015
0.000146199
0.00286858
0.000144333
0.00289239
0.000142175
0.00291196
0.000139802
0.00292767
0.000137283
0.0029399
0.000134678
0.00294905
0.000132033
0.00295548
0.000129379
0.00295952
0.000126733
0.000124103
0.00296136
0.000325498
1.12285e-05
0.000625134
3.21036e-05
0.000893503
5.03281e-05
0.00113398
6.60732e-05
0.00134955
7.97256e-05
0.00154288
9.15899e-05
0.00171632
0.000101904
0.00187196
0.000110853
0.00201166
0.00011858
0.00213708
0.000125198
0.00224969
0.000130792
0.00235076
0.000135434
0.00244141
0.000139183
0.00252264
0.000142091
0.00259528
0.000144209
0.00266007
0.00014559
0.00271764
0.000146287
0.00276853
0.000146361
0.00281323
0.000145876
0.00285217
0.0001449
0.00288577
0.000143506
0.0029144
0.000141764
0.00293846
0.000139745
0.00295832
0.000137515
0.00297437
0.00013513
0.00298698
0.000132639
0.0029965
0.000130081
0.00300328
0.000127482
0.00300761
0.000124858
0.00012222
0.00300961
0.000329576
1.10666e-05
0.000633231
3.16438e-05
0.000905503
4.96106e-05
0.00114972
6.51264e-05
0.00136883
7.85639e-05
0.00156548
9.0219e-05
0.001742
0.000100325
0.00190046
0.000109065
0.00204274
0.000116583
0.00217046
0.000122994
0.00228509
0.00012839
0.00238792
0.000132846
0.00248007
0.000136428
0.00256254
0.000139194
0.0026362
0.0001412
0.00270179
0.000142503
0.00275998
0.000143159
0.00281136
0.00014323
0.00285643
0.000142777
0.00289569
0.000141867
0.00292957
0.000140564
0.00295848
0.000138932
0.00298283
0.000137033
0.00300301
0.000134922
0.00301939
0.000132649
0.00303233
0.000130255
0.00304218
0.000127773
0.00304924
0.000125227
0.00305379
0.000122632
0.000120003
0.00305593
0.000333259
1.0857e-05
0.000640596
3.10488e-05
0.000916497
4.86848e-05
0.00116422
6.39122e-05
0.00138669
7.70887e-05
0.0015865
8.84999e-05
0.00176595
9.83733e-05
0.00192713
0.00010689
0.00207186
0.000114194
0.00220179
0.000120401
0.00231837
0.000125607
0.0024229
0.000129891
0.00251651
0.000133323
0.00260021
0.000135965
0.00267488
0.000137877
0.00274131
0.000139118
0.00280017
0.000139747
0.00285209
0.000139823
0.00289761
0.000139406
0.00293725
0.000138558
0.00297147
0.000137338
0.00300071
0.000135803
0.00302539
0.000134008
0.00304589
0.000132002
0.00306259
0.000129827
0.00307585
0.000127519
0.00308597
0.000125108
0.00309327
0.000122616
0.003098
0.000120059
0.000117455
0.00310024
0.000336531
1.06004e-05