/*--------------------------------*- C++ -*----------------------------------*\
  =========                 |
  \\      /  F ield         | OpenFOAM: The Open Source CFD Toolbox
   \\    /   O peration     | Website:  https://openfoam.org
    \\  /    A nd           | Version:  7
     \\/     M anipulation  |
\*---------------------------------------------------------------------------*/
FoamFile
{
    version     2.0;
    format      ascii;
    class       volScalarField;
    location    "0.1";
    object      p;
}
// * * * * * * * * * * * * * * * * * * * * * * * * * * * * * * * * * * * * * //

dimensions      [0 2 -2 0 0 0 0];

internalField   nonuniform List<scalar> 
2790
(
71.0094
70.7501
70.8325
71.2359
71.8512
72.6335
73.5768
74.68
75.9389
77.3481
78.9034
80.6012
82.4377
84.4081
86.5055
88.7202
91.0389
93.4438
95.9116
98.4132
100.913
103.371
105.74
107.97
110.011
111.812
113.33
114.557
115.276
116.106
70.8132
70.6642
70.7717
71.1728
71.7855
72.566
73.5066
74.6058
75.8596
77.2629
78.8113
80.5015
82.3297
84.2914
86.3799
88.5861
90.897
93.2954
95.7588
98.2589
100.761
103.225
105.604
107.849
109.907
111.727
113.26
114.522
115.21
116.066
70.6264
70.5473
70.674
71.0658
71.667
72.4373
73.3662
74.4516
75.6896
77.075
78.6036
80.2717
82.0758
84.0115
86.0724
88.2497
90.5313
92.9009
95.3369
97.8125
100.295
102.744
105.115
107.36
109.424
111.257
112.801
114.1
114.739
115.611
70.4189
70.3708
70.5107
70.8953
71.484
72.2406
73.1535
74.2194
75.4343
76.7931
78.2916
79.926
81.693
83.588
85.6051
87.7362
89.9697
92.2904
94.6783
97.1082
99.5488
101.963
104.308
106.535
108.591
110.424
111.966
113.292
113.881
114.763
70.1809
70.1472
70.2962
70.6745
71.2485
71.9865
72.8769
73.9157
75.0989
76.4214
77.8787
79.4672
81.1833
83.0226
84.9796
87.0463
89.2123
91.4634
93.7812
96.1425
98.5185
100.875
103.171
105.361
107.393
109.215
110.746
112.096
112.655
113.57
69.9082
69.8805
70.0326
70.4023
70.9583
71.6728
72.5349
73.54
74.6838
75.9609
77.367
78.8979
80.5502
82.3193
84.1997
86.1841
88.2625
90.422
92.6458
94.9128
97.197
99.4673
101.687
103.813
105.797
107.591
109.104
110.477
111.024
111.974
69.5989
69.5724
69.7225
70.0805
70.6155
71.3024
72.1307
73.0958
74.1927
75.4159
76.7608
78.223
79.7986
81.4831
83.2707
85.1544
87.1247
89.1694
91.2732
93.4171
95.578
97.7282
99.8353
101.862
103.765
105.504
106.981
108.372
108.929
109.949
69.2526
69.2245
69.3682
69.7114
70.2224
70.8775
71.6671
72.586
73.629
74.7903
76.0646
77.4473
78.9341
80.52
82.199
83.9637
85.8048
87.7105
89.6666
91.6555
93.6565
95.6455
97.5948
99.4736
101.247
102.886
104.292
105.678
106.256
107.4
68.8698
68.838
68.9721
69.2973
69.7812
70.4008
71.1469
72.0142
72.9968
74.0885
75.2836
76.577
77.9634
79.4374
80.9923
82.6201
84.3111
86.0531
87.8321
89.631
91.4307
93.2093
94.9436
96.6091
98.1802
99.6446
100.911
102.23
102.794
104.044
68.4513
68.4146
68.5364
68.8407
69.2946
69.8753
70.5736
71.3842
72.3005
73.3158
74.4239
75.6187
76.8943
78.2441
79.6605
81.1343
82.6545
84.2082
85.7799
87.3519
88.9042
90.4156
91.8643
93.2305
94.4964
95.668
96.6706
97.7993
98.2583
99.5485
67.9986
67.9559
68.0634
68.3444
68.7655
69.304
69.9509
70.7002
71.5451
72.4781
73.492
74.5802
75.7355
76.95
78.2147
79.5188
80.8492
82.1908
83.5256
84.8327
86.0892
87.2699
88.35
89.3078
90.1276
90.828
91.3582
92.0696
92.2483
93.5264
67.5135
67.464
67.5555
67.8109
68.1969
68.6906
69.2827
69.967
70.7359
71.5813
72.4953
73.4699
74.4968
75.5665
76.6682
77.7886
78.9122
80.0202
81.0905
82.0967
83.0088
83.7927
84.4121
84.832
85.0228
84.997
84.7171
84.5936
84.0945
85.1928
66.9978
66.941
67.0152
67.2433
67.5921
68.0386
68.5732
69.1892
69.8785
70.6321
71.4412
72.2967
73.1887
74.1059
75.0353
75.9609
76.8637
77.7203
78.5026
79.1763
79.7002
80.0245
80.0908
79.8328
79.1781
78.0864
76.476
74.7493
72.6227
72.8778
66.4539
66.3892
66.4451
66.6444
66.9543
67.3517
67.8267
68.372
68.9788
69.6375
70.3381
71.0702
71.8225
72.5817
73.3322
74.0549
74.7267
75.3189
75.7962
76.1139
76.216
76.0307
75.4656
74.4015
72.6815
70.1299
66.4686
61.8084
55.8061
52.6691
65.8838
65.8111
65.8478
66.0172
66.287
66.6339
67.0476
67.5203
68.0427
68.6042
69.1939
69.8001
70.4097
71.0075
71.5752
72.0906
72.526
72.8472
73.0107
72.9604
72.6234
71.9019
70.6613
68.7117
65.7709
61.4258
54.944
45.4279
30.5732
12.9311
-102.802
-102.308
-102.301
-101.434
-100.039
-97.727
-94.2976
-89.624
-83.7092
-76.7185
-68.967
-60.8459
-52.6289
-44.5043
-36.8345
-29.9785
-24.0453
-19.0429
-14.9167
-11.5736
-8.9022
-6.7881
-5.12403
-3.81493
-2.78005
-1.95294
-1.28026
-0.720157
-0.240904
0.179551
-103.249
-102.761
-102.875
-102.075
-100.78
-98.5305
-95.1187
-90.4153
-84.4382
-77.3637
-69.5183
-61.3081
-53.0137
-44.8138
-37.0792
-30.1766
-24.2075
-19.1765
-15.0275
-11.6659
-8.97903
-6.85203
-5.17703
-3.85861
-2.81576
-1.98185
-1.30333
-0.738041
-0.253276
0.180837
-104.226
-103.837
-104.132
-103.478
-102.354
-100.211
-96.8194
-92.0508
-85.931
-78.657
-70.5872
-62.162
-53.6865
-45.3137
-37.4236
-30.4169
-24.3772
-19.2992
-15.1195
-11.738
-9.03786
-6.9014
-5.21904
-3.89438
-2.84595
-2.00687
-1.32351
-0.753502
-0.26361
0.179628
-105.827
-105.628
-106.176
-105.78
-104.926
-102.966
-99.6208
-94.7524
-88.3911
-80.7705
-72.3116
-63.512
-54.7119
-46.0486
-37.9128
-30.7431
-24.5968
-19.4513
-15.2306
-11.8243
-9.10891
-6.96215
-5.27182
-3.94014
-2.88505
-2.03952
-1.34991
-0.773835
-0.277887
0.173559
-108.201
-108.255
-109.167
-109.185
-108.747
-107.08
-103.824
-98.813
-92.0741
-83.9085
-74.8456
-65.4698
-56.1571
-47.0537
-38.5731
-31.1716
-24.8751
-19.6364
-15.3602
-11.9219
-9.18773
-7.02907
-5.32994
-3.99065
-2.9283
-2.07565
-1.37909
-0.796304
-0.293985
0.165
-111.486
-111.907
-113.348
-114
-114.185
-112.96
-109.842
-104.61
-97.2823
-88.293
-78.3427
-68.139
-58.076
-48.3493
-39.4234
-31.7174
-25.2239
-19.864
-15.5164
-12.0374
-9.27988
-7.10675
-5.39718
-4.04899
-2.97821
-2.11732
-1.41275
-0.82235
-0.313055
0.153374
-115.932
-116.848
-119.028
-120.609
-121.685
-121.082
-118.123
-112.509
-104.268
-94.0844
-82.8969
-71.5638
-60.4803
-49.9295
-40.4636
-32.3831
-25.6469
-20.1382
-15.7034
-12.1745
-9.38826
-7.19725
-5.47486
-4.11589
-3.0351
-2.16458
-1.45082
-0.851872
-0.334956
0.138892
-121.781
-123.33
-126.506
-129.369
-131.653
-131.847
-128.986
-122.723
-113.12
-101.296
-88.4832
-75.6758
-63.3037
-51.7627
-41.6692
-33.1547
-26.1377
-20.4577
-15.9223
-12.3355
-9.51518
-7.30259
-5.56452
-4.19246
-3.09973
-2.21798
-1.49372
-0.885186
-0.35992
0.121401
-129.03
-131.437
-135.905
-140.441
-144.277
-145.42
-142.523
-135.134
-123.642
-109.719
-94.9119
-80.274
-66.3822
-53.7911
-42.9894
-33.9986
-26.678
-20.8138
-16.1699
-12.5198
-9.66133
-7.42367
-5.66694
-4.27925
-3.17244
-2.27771
-1.54154
-0.922363
-0.387983
0.100886
-137.458
-140.92
-146.958
-153.553
-159.269
-161.428
-158.18
-149.162
-135.276
-118.892
-101.768
-85.0708
-69.5409
-55.8785
-44.3371
-34.861
-27.2372
-21.1902
-16.4384
-12.724
-9.82534
-7.56004
-5.78197
-4.37616
-3.25313
-2.34365
-1.59421
-0.963351
-0.419111
0.0773849
-146.401
-150.945
-158.765
-167.762
-175.608
-178.684
-174.812
-163.731
-147.139
-128.123
-108.488
-89.6358
-72.5607
-57.838
-45.5939
-35.6714
-27.7743
-21.5642
-16.7154
-12.9415
-10.0036
-7.70955
-5.90823
-4.48222
-3.34109
-2.4153
-1.65135
-1.0079
-0.453128
0.0510508
-154.236
-159.83
-169.59
-181.216
-191.186
-194.763
-190.332
-177.246
-158.198
-136.431
-114.332
-93.5169
-75.0732
-59.4438
-46.6237
-36.3487
-28.2419
-21.9082
-16.9846
-13.1624
-10.1898
-7.86811
-6.04291
-4.59547
-3.43491
-2.49166
-1.71228
-1.05553
-0.489715
0.0221514
-158.502
-165.214
-177.011
-191.153
-203.366
-207.619
-202.967
-188.047
-166.764
-142.558
-118.402
-96.1221
-76.7064
-60.4707
-47.2916
-36.8125
-28.5916
-22.1922
-17.2271
-13.3741
-10.3754
-8.02964
-6.18165
-4.71275
-3.53233
-2.5711
-1.77586
-1.10549
-0.528359
-0.00890348
-157.054
-165.363
-179.848
-196.424
-210.355
-215.615
-210.297
-193.792
-170.756
-145.146
-119.923
-96.953
-77.1505
-60.7309
-47.4842
-36.9929
-28.7788
-22.3867
-17.4223
-13.5622
-10.55
-8.18667
-6.31906
-4.83016
-3.63054
-2.65164
-1.84068
-1.15678
-0.568333
-0.0415066
-147.961
-159.596
-177.67
-196.047
-210.851
-216.176
-209.905
-192.77
-169.339
-143.6
-118.457
-95.7194
-76.2218
-60.1088
-47.126
-36.8379
-28.7659
-22.4639
-17.5496
-13.7114
-10.7026
-8.3314
-6.44978
-4.94418
-3.72731
-2.73193
-1.906
-1.20902
-0.609496
-0.0754777
65.2788
65.1976
65.2143
65.3525
65.5806
65.875
66.2253
66.6232
67.0585
67.5199
67.9955
68.4723
68.9356
69.3681
69.7489
70.0524
70.2467
70.2919
70.1363
69.7129
68.9317
67.6692
65.7489
62.9079
58.7287
52.5153
42.8948
27.0669
-4.43815
-94.9548
64.6319
64.5419
64.5377
64.6433
64.8277
65.0678
65.3523
65.6727
66.0181
66.3764
66.7348
67.0788
67.3924
67.6562
67.8469
67.9359
67.8873
67.6561
67.1838
66.394
65.1837
63.4103
60.8687
57.2517
52.0713
44.5145
33.0742
15.1792
-11.7074
-51.3254
63.9483
63.8493
63.8234
63.8953
64.035
64.2192
64.4365
64.6778
64.9317
65.1854
65.4252
65.6356
65.7989
65.8943
65.8962
65.7737
65.4878
64.9896
64.2162
63.0857
61.4888
59.2765
56.2404
52.0822
46.3658
38.4679
27.5354
12.6329
-5.89421
-27.4812
63.2293
63.1213
63.0733
63.1109
63.2049
63.3325
63.4818
63.6432
63.8052
63.9541
64.0756
64.1532
64.1682
64.0983
63.9166
63.5904
63.0789
62.3313
61.2833
59.852
57.9301
55.3758
52.001
47.5562
41.7162
34.0836
24.2181
11.6285
-4.08067
-23.5057
62.4769
62.3597
62.2894
62.2923
62.3404
62.411
62.4922
62.5741
62.6445
62.6898
62.6948
62.6425
62.5133
62.2843
61.9278
61.4101
60.6904
59.7179
58.4297
56.7471
54.5711
51.7764
48.2064
43.6671
37.9254
30.7129
21.7328
10.6339
-2.95533
-18.8209
61.6931
61.5669
61.4744
61.4427
61.4449
61.4588
61.4725
61.4757
61.4564
61.4003
61.2922
61.1146
60.8478
60.4685
59.9489
59.2558
58.3494
57.1812
55.6924
53.8117
51.4525
48.5104
44.8612
40.3601
34.8441
28.1367
20.0626
10.4724
-0.711294
-13.044
60.8808
60.7457
60.6312
60.5651
60.5221
60.4802
60.4277
60.3542
60.2476
60.0938
59.8774
59.581
59.185
58.6664
57.9982
57.1487
56.0802
54.7481
53.1
51.0738
48.5974
45.5877
41.9514
37.5864
32.3875
26.2549
19.111
10.9242
1.71823
-8.17081
60.0428
59.8991
59.7632
59.6635
59.5761
59.4799
59.3632
59.2157
59.0255
58.7788
58.4602
58.0529
57.5378
56.8928
56.0924
55.1072
53.9028
52.4396
50.6725
48.5499
46.0143
43.003
39.4498
35.2881
30.457
24.9093
18.6227
11.6132
3.93524
-4.14851
59.1826
59.0308
58.8741
58.7418
58.6116
58.4631
58.2848
58.0669
57.7976
57.4636
57.0501
56.5411
55.9183
55.1612
54.2463
53.1469
51.833
50.2706
48.4221
46.2467
43.7006
40.7391
37.3183
33.3988
28.9507
23.9593
18.4324
12.4087
5.95781
-0.711753
58.3041
58.1446
57.9681
57.8046
57.6335
57.4351
57.1985
56.9143
56.5712
56.1566
55.6565
55.0557
54.3376
53.4833
52.4719
51.2801
49.8821
48.2501
46.354
44.1629
41.6452
38.7711
35.5143
31.8551
27.7841
23.3065
18.4464
13.2516
7.79283
2.22937
57.4115
57.2449
57.0497
56.8567
56.6468
56.4016
56.1105
55.7647
55.3537
54.8657
54.2878
53.606
52.8053
51.869
50.779
49.5155
48.0573
46.3823
44.4677
42.2911
39.8314
37.0706
33.9955
30.6001
26.8883
22.8763
18.5954
14.0941
9.4366
4.74326
56.5093
56.3362
56.1236
55.9029
55.6569
55.3682
55.0268
54.6247
54.1522
53.5985
52.952
52.2002
51.3297
50.3264
49.1749
47.859
46.3621
44.6673
42.7581
40.6197
38.2393
35.6079
32.7218
29.584
26.2062
22.61
18.8284
14.9063
10.8991
6.89789
55.6023
55.4235
55.1949
54.9487
54.6694
54.3407
53.9536
53.5008
52.9735
52.3621
51.6563
50.8452
49.9176
48.8614
47.6643
46.3136
44.7967
43.1015
41.217
39.1344
36.8475
34.354
31.6565
28.7637
25.6912
22.4627
19.1096
15.6718
12.1955
8.74989
54.6956
54.5118
54.2688
53.9994
53.6899
53.3252
52.8971
52.3991
51.8238
51.1627
50.4068
49.5471
48.5742
47.4784
46.2501
44.8799
43.3589
41.679
39.834
37.8197
35.6347
33.2815
30.7669
28.1026
25.306
22.4003
19.4142
16.382
13.3415
10.3456
53.7947
53.6067
53.3509
53.0607
52.724
52.3272
51.863
51.3258
50.7092
50.0062
49.2091
48.3107
47.3034
46.18
44.9333
43.5567
42.0445
40.3924
38.5975
36.6593
34.5801
32.3653
30.0243
27.5703
25.0206
22.397
19.7249
17.0331
14.3525
11.7232
52.905
52.7136
52.4466
52.138
51.7775
51.3526
50.8571
50.2863
49.6351
48.8975
48.0677
47.1397
46.1081
44.9675
43.7132
42.3411
40.8482
39.233
37.4953
35.6376
33.6643
31.5831
29.4043
27.1415
24.8114
22.4335
20.0299
17.6246
15.2425
12.9145
52.0324
51.8382
51.5618
51.2373
50.8561
50.407
49.8848
49.2859
48.6063
47.8412
46.9863
46.0371
44.9899
43.8412
42.5884
41.2295
39.7637
38.1917
36.5156
34.7396
32.87
30.9151
28.8859
26.7957
24.6597
22.4953
20.3214
18.1578
16.0247
13.9457
51.1826
50.9865
50.7022
50.3641
49.9653
49.4959
48.9516
48.3297
47.6274
46.8412
45.968
45.0049
43.9497
42.8005
41.5564
40.2173
38.7843
37.2595
35.6469
33.9517
32.1812
30.3443
28.4518
26.516
24.551
22.5718
20.5944
18.6353
16.7105
14.8386
50.3617
50.1643
49.8736
49.5243
49.1108
48.6246
48.0623
47.4222
46.7025
45.9009
45.0155
44.0448
42.9877
41.8441
40.6144
39.3
37.9033
36.4278
34.8785
33.2615
31.5844
29.8563
28.0873
26.2891
24.474
22.6552
20.846
19.0601
17.3104
15.6114
49.5757
49.3777
49.082
48.7235
48.2981
47.7983
47.2218
46.5678
45.8353
45.0233
44.1309
43.1576
42.1039
40.9705
39.7593
38.4727
37.1143
35.6884
34.2008
32.6579
31.0677
29.4388
27.7808
26.1043
24.4203
22.7399
21.0747
19.4356
17.8335
16.2795
48.8307
48.6327
48.3333
47.9675
47.5325
47.0222
46.4348
45.7705
45.0294
44.2111
43.3159
42.3443
41.2977
40.1781
38.988
37.731
36.4113
35.0341
33.6052
32.1317
30.6211
29.0817
27.5226
25.9532
24.3831
22.8222
21.2799
19.7655
18.2878
16.8555
48.1332
47.9355
47.6334
47.2619
46.8195
46.3011
45.7058
45.0345
44.2879
43.4668
42.5721
41.6054
40.5688
39.465
38.2976
37.0707
35.7891
34.4583
33.0845
31.6747
30.2362
28.7769
27.3051
25.8292
24.3579
22.8994
21.4619
20.0532
18.6803
17.3503
47.4894
47.2924
46.9884
46.6124
46.1643
45.64
45.0391
44.3634
43.6141
42.7929
41.9013
40.9416
39.9167
38.83
37.6857
36.4882
35.2429
33.9555
32.6324
31.2802
29.9062
28.5176
27.1222
25.7274
24.3409
22.9699
21.6214
20.3018
19.017
17.7728
46.9059
46.7097
46.4043
46.0248
45.5724
45.0437
44.4393
43.7611
43.0112
42.1917
41.3049
40.3537
39.3414
38.272
37.1501
35.9807
34.7691
33.5214
32.2439
30.943
29.6257
28.2988
26.9693
25.6441
24.3298
23.0328
21.7592
20.5143
19.3032
18.1304
46.3896
46.1941
45.8873
45.5048
45.0489
44.5172
43.9106
43.2314
42.4823
41.6658
40.7848
39.8425
38.8429
37.7903
36.6894
35.5457
34.3647
33.1524
31.9149
30.6588
29.3904
28.1163
26.8428
25.5763
24.3227
23.0876
21.8762
20.6933
19.543
18.4292
45.9478
45.7526
45.4437
45.058
44.5993
44.0656
43.4579
42.7788
42.0314
41.2185
40.3436
39.4102
38.4225
37.3852
36.3033
35.1823
34.028
32.8462
31.643
30.4248
29.1976
27.9676
26.7407
25.5227
24.3189
23.1345
21.9739
20.8413
19.7404
18.6744
45.5886
45.3924
45.0795
44.6895
44.2279
43.6926
43.0843
42.4058
41.6605
40.8516
39.9825
39.0573
38.0804
37.0565
35.9909
34.8892
33.7572
32.6007
31.4257
30.2384
29.0446
27.8501
26.6605
25.4812
24.317
23.1727
22.0522
20.9593
19.8972
18.8687
45.3219
45.1221
44.8026
44.4083
43.9446
43.4081
42.7991
42.1211
41.3776
40.572
39.7079
38.7894
37.8211
36.808
35.7554
34.6689
33.5543
32.4174
31.2642
30.1006
28.9322
27.7647
26.6033
25.4531
24.3187
23.2043
22.1138
21.0505
20.0173
19.0167
45.1598
44.9391
44.6047
44.2067
43.7431
43.2067
42.5983
41.9216
41.1803
40.378
39.5182
38.6051
37.6434
36.6382
35.5949
34.5191
33.4166
32.2932
31.1549
30.0074
28.8563
27.707
26.5647
25.4341
24.3197
23.2254
22.155
21.1115
20.0976
19.1156
45.167
44.8787
44.5166
44.1137
43.6486
43.1104
42.5009
41.8243
41.0844
40.2841
39.427
38.5173
37.5596
36.559
35.521
34.4511
33.3551
32.2389
31.1084
29.9691
28.8268
27.6867
26.5539
25.433
24.3285
23.2442
22.1835
21.1496
20.1451
19.1721
-240.598
-216.12
-170.617
-82.4771
-89.6472
-92.2389
-52.7278
-70.8442
-84.4664
-46.8777
-62.9264
-74.81
-35.7465
-47.5196
-56.88
-25.6611
-34.6626
-42.0739
-18.0547
-25.0599
-30.8281
-11.9651
-17.4406
-21.9471
-6.96657
-11.3156
-14.9076
-2.85762
-6.37273
-9.291
0.545027
-2.33981
-4.75026
3.38672
0.985314
-1.03617
5.77626
3.75054
2.03163
7.79733
6.06729
4.58716
9.51519
8.02049
6.73114
10.9811
9.67565
8.5404
12.2359
11.0839
10.0743
13.3122
12.2856
11.3793
14.2363
13.3129
12.492
15.0297
14.1915
13.4418
15.71
14.9425
14.2521
16.2915
15.5828
14.9419
16.7861
16.1261
15.5265
17.2034
16.5836
16.0184
17.551
16.9642
16.4272
17.8356
17.2753
16.7611
18.0606
17.521
17.0247
18.2316
17.7073
17.2242
18.3456
17.8316
17.3576
18.4109
17.9028
17.4332
-128.39
-150.186
-172.881
-191.305
-205.333
-210.08
-202.63
-185.296
-162.474
-137.804
-113.893
-92.3404
-73.8635
-58.5608
-46.1806
-36.3154
-28.5249
-22.3999
-17.5895
-13.8065
-10.8217
-8.45539
-6.56783
-5.05064
-3.81983
-2.81015
-1.9707
-1.26159
-0.651522
-0.110679
-105.984
-139.253
-164.566
-182.596
-194.24
-196.297
-187.446
-170.816
-149.954
-127.731
-106.256
-86.8375
-70.0755
-56.0664
-44.6137
-35.3859
-28.0167
-22.1596
-17.5126
-13.8236
-10.8885
-8.54438
-6.66246
-5.14158
-3.90226
-2.88207
-2.03176
-1.3124
-0.693078
-0.146288
-103.237
-129.822
-150.635
-165.081
-172.522
-171.881
-163.67
-149.886
-132.734
-114.304
-96.2619
-79.696
-65.1538
-52.7871
-42.5018
-34.0762
-27.2422
-21.7325
-17.3043
-13.7486
-10.8908
-8.58831
-6.72587
-5.21112
-3.97032
-2.94464
-2.08709
-1.36008
-0.733345
-0.181782
-89.4811
-108.093
-124.714
-136.696
-142.401
-142.159
-136.506
-126.561
-113.718
-99.4904
-85.1765
-71.6853
-59.5399
-48.9607
-39.9619
-32.4359
-26.2156
-21.1154
-16.9546
-13.5692
-10.8168
-8.57696
-6.74961
-5.25254
-4.01878
-2.9939
-2.13376
-1.40252
-0.7709
-0.216259
-68.5939
-82.5455
-96.4178
-107.226
-113.075
-114.084
-110.938
-104.409
-95.4159
-84.9969
-74.1124
-63.5024
-53.6524
-44.8269
-37.1239
-30.5299
-24.9649
-20.3165
-16.4614
-13.2791
-10.6588
-8.50283
-6.72705
-5.26032
-4.04321
-3.02643
-2.16922
-1.43792
-0.80456
-0.249027
-51.1151
-61.729
-72.9276
-82.2258
-87.9649
-90.0275
-88.858
-85.0089
-79.08
-71.7593
-63.7391
-55.6075
-47.7954
-40.579
-34.1055
-28.426
-23.5262
-19.3525
-15.8302
-12.8775
-10.4131
-8.36101
-6.65317
-5.22985
-4.0397
-3.03904
-2.19097
-1.46444
-0.833075
-0.279344
-37.7443
-45.8344
-54.6523
-62.3928
-67.7543
-70.4715
-70.6903
-68.7534
-65.0673
-60.0969
-54.3343
-48.2313
-42.1505
-36.352
-31.0015
-26.1871
-21.9386
-18.2456
-15.0721
-12.3686
-10.0796
-8.14932
-6.52486
-5.15783
-4.00514
-3.02904
-2.19685
-1.48041
-0.855292
-0.306536
-27.3554
-33.6893
-40.7006
-47.1247
-51.9668
-54.9205
-55.9774
-55.3192
-53.2153
-49.9784
-45.9505
-41.4673
-36.8209
-32.2403
-27.8888
-23.8709
-20.2424
-17.0221
-14.2028
-11.7606
-9.66182
-7.86828
-6.341
-5.04236
-3.93738
-2.99437
-2.18503
-1.48438
-0.870175
-0.329994
-19.2519
-24.3665
-30.0433
-35.3903
-39.6611
-42.5827
-44.0936
-44.2639
-43.256
-41.2752
-38.5563
-35.3433
-31.8637
-28.3092
-24.8286
-21.5282
-18.4763
-15.7096
-13.2408
-11.0651
-9.16618
-7.52085
-6.10237
-4.88294
-3.8353
-2.93365
-2.15419
-1.47521
-0.876862
-0.349205
-12.8573
-17.0853
-21.7615
-26.2461
-29.9808
-32.7459
-34.4685
-35.1545
-34.8918
-33.8109
-32.0698
-29.8425
-27.3008
-24.5993
-21.8664
-19.2015
-16.676
-14.3357
-12.206
-10.2955
-8.60131
-7.11207
-5.81149
-4.68048
-3.69881
-2.8463
-2.10351
-1.45209
-0.874698
-0.363764
-7.73076
-11.2919
-15.2092
-19.0126
-22.2808
-24.8432
-26.6332
-27.6259
-27.8619
-27.4196
-26.4031
-24.9336
-23.1378
-21.1368
-19.037
-16.9264
-14.8734
-12.927
-11.1189
-9.46701
-7.9776
-6.64872
-5.47249
-4.43719
-3.52887
-2.7325
-2.03277
-1.41462
-0.863271
-0.373399
-3.56624
-6.6137
-9.94627
-13.2103
-16.0834
-18.437
-20.2132
-21.3764
-21.9395
-21.9462
-21.4626
-20.5713
-19.3639
-17.9326
-16.363
-14.7301
-13.0955
-11.5071
-9.99928
-8.59482
-7.30642
-6.13881
-5.0907
-4.15644
-3.32743
-2.59321
-1.94231
-1.36279
-0.842428
-0.377972
-0.145739
-2.78939
-5.66387
-8.49765
-11.0407
-13.196
-14.9157
-16.1631
-16.9356
-17.2547
-17.1603
-16.7074
-15.9607
-14.989
-13.8593
-12.6333
-11.3646
-10.0973
-8.8656
-7.69423
-6.59966
-5.59122
-4.67248
-3.84256
-3.09727
-2.43011
-1.83304
-1.29702
-0.812287
-0.377488
2.69028
0.369377
-2.14092
-4.62863
-6.89721
-8.87128
-10.514
-11.7917
-12.6935
-13.227
-13.4149
-13.2923
-12.9042
-12.3005
-11.5327
-10.6503
-9.69836
-8.71578
-7.73459
-6.77967
-5.8692
-5.01529
-4.22487
-3.50064
-2.84192
-2.24553
-1.70639
-1.21811
-0.773234
-0.372088
5.06029
3.00089
0.783872
-1.42273
-3.46228
-5.27536
-6.83366
-8.10853
-9.08528
-9.76337
-10.1541
-10.279
-10.1682
-9.85748
-9.38535
-8.79063
-8.11021
-7.37743
-6.62101
-5.86458
-5.12656
-4.42045
-3.7553
-3.13632
-2.56552
-2.04237
-1.56431
-1.12726
-0.725908
-0.362048
7.05377
5.20876
3.23072
1.25476
-0.592618
-2.26393
-3.73798
-4.99058
-6.00606
-6.77931
-7.31433
-7.62343
-7.7261
-7.64721
-7.41508
-7.0595
-6.60998
-6.09432
-5.53751
-4.96103
-4.38258
-3.81596
-3.27136
-2.75559
-2.27262
-1.82395
-1.4091
-1.02598
-0.671179
-0.347761
8.73928
7.07176
5.29034
3.50509
1.81947
0.27165
-1.12098
-2.34034
-3.37077
-4.20439
-4.84072
-5.28588
-5.55187
-5.6555
-5.61708
-5.45901
-5.2044
-4.87591
-4.49469
-4.07971
-3.64724
-3.21069
-2.78057
-2.36462
-1.96807
-1.59396
-1.24342
-0.916056
-0.61012
-0.329722
10.1701
8.6507
7.03245
5.40617
3.85752
2.4177
1.09974
-0.0812517
-1.11079
-1.98011
-2.68612
-3.23085
-3.62106
-3.86763
-3.98472
-3.98881
-3.89765
-3.7293
-3.50127
-3.22985
-2.92957
-2.61294
-2.29023
-1.96955
-1.65687
-1.35629
-1.07019
-0.799517
-0.543974
-0.308514
11.3878
9.99297
8.51101
7.0179
5.58546
4.23941
2.98982
1.84908
0.830326
-0.0576536
-0.810337
-1.42713
-1.91118
-2.2691
-2.51041
-2.64692
-2.69196
-2.65966
-2.56423
-2.41932
-2.2376
-2.03035
-1.80728
-1.5764
-1.34405
-1.11498
-0.892473
-0.67855
-0.474114
-0.284788
12.4258
11.136
9.76843
8.38744
7.05394
5.78941
4.60173
3.50085
2.49866
1.60358
0.820824
0.152587
-0.401854
-0.846051
-1.18609
-1.43017
-1.58807
-1.67061
-1.68908
-1.65474
-1.57835
-1.46988
-1.33821
-1.19098
-1.03458
-0.874101
-0.713448
-0.555454
-0.402011
-0.259239
13.3103
12.1095
10.8383
9.55191
8.30275
7.10895
5.97634
4.91373
3.93127
3.03684
2.23592
1.53165
0.924902
0.414256
-0.00384625
-0.334843
-0.585707
-0.764538
-0.880143
-0.941616
-0.957962
-0.937783
-0.889021
-0.818791
-0.733273
-0.637687
-0.536318
-0.432592
-0.329193
-0.232595
14.0627
12.9372
11.7472
10.5408
9.36344
8.23073
7.14733
6.12027
5.15863
4.26974
3.45901
2.73009
2.08486
1.52336
1.04388
0.643044
0.316069
0.0570454
-0.140756
-0.284556
-0.381757
-0.439664
-0.465256
-0.465004
-0.444757
-0.409684
-0.364265
-0.312345
-0.257219
-0.205598
14.6999
13.6381
12.5165
11.3774
10.261
9.18084
8.14059
7.14606
6.20516
5.32469
4.5099
3.76466
3.09147
2.49137
1.96394
1.50734
1.11848
0.793189
0.52643
0.31257
0.145617
0.019449
-0.0719767
-0.13446
-0.173435
-0.193905
-0.200412
-0.197073
-0.18765
-0.178988
15.2358
14.2275
13.1632
12.0805
11.0155
9.98007
8.97722
8.01175
7.09054
6.2199
5.40484
4.64928
3.95607
3.32691
2.7623
2.26153
1.82278
1.44323
1.11921
0.846412
0.620035
0.435007
0.286148
0.168314
0.0765148
0.00598204
-0.0477968
-0.0890985
-0.122031
-0.153495
15.6811
14.7173
13.7003
12.6644
11.6423
10.6445
9.67355
8.73344
7.83023
6.96973
6.1567
5.39503
4.68775
4.03698
3.44384
2.90845
2.42993
2.00651
1.6356
1.31394
1.03775
0.802836
0.604791
0.439077
0.301138
0.186472
0.0906536
0.00932649
-0.061867
-0.129823
16.0445
15.117
14.1386
13.1407
12.1536
11.1868
10.2424
9.32377
8.43633
7.58543
6.77559
6.01062
5.29362
4.62697
4.01223
3.45009
2.94038
2.48211
2.07352
1.71219
1.39514
1.11894
0.879803
0.673744
0.496606
0.344148
0.212067
0.0959768
-0.00865263
-0.108672
16.3316
15.4328
14.4847
13.517
12.5576
11.6155
10.6924
9.79136
8.91713
8.07472
7.26845
6.50199
5.77849
5.10047
4.46978
3.88751
3.35399
2.86881
2.43084
2.03829
1.68882
1.37959
1.10735
0.86855
0.659385
0.475856
0.313786
0.168801
0.0362508
-0.0906476
16.5483
15.6707
14.7453
13.7998
12.8611
11.9375
11.0305
10.1427
9.27865
8.44294
7.63975
6.87266
6.14482
5.45885
4.81676
4.21991
3.669
3.16399
2.70422
2.28837
1.91456
1.58039
1.28302
1.01924
0.785521
0.578077
0.392846
0.225489
0.0712947
-0.0764195
16.6936
15.8303
14.92
13.9896
13.0649
12.1539
11.258
10.3796
9.52289
8.69217
7.89146
7.12432
6.39388
5.70283
5.05329
4.44681
3.8843
3.366
2.89154
2.45993
2.06958
1.7184
1.40383
1.12291
0.872302
0.648367
0.447149
0.264371
0.095351
-0.0663043
16.7737
15.9159
15.0128
14.0898
13.172
12.2669
11.3759
10.5014
9.64757
8.81876
8.01886
7.25134
6.5193
5.82541
5.17187
4.56031
3.99173
3.46654
2.98452
2.54482
2.14604
1.78625
1.46301
1.1735
0.91447
0.682362
0.473275
0.282984
0.106909
-0.0607845
)
;

boundaryField
{
    inlet
    {
        type            zeroGradient;
    }
    outlet
    {
        type            fixedValue;
        value           uniform 0;
    }
    flap
    {
        type            zeroGradient;
    }
    upperWall
    {
        type            zeroGradient;
    }
    lowerWall
    {
        type            zeroGradient;
    }
    frontAndBack
    {
        type            empty;
    }
}


// ************************************************************************* //
