/*--------------------------------*- C++ -*----------------------------------*\
  =========                 |
  \\      /  F ield         | OpenFOAM: The Open Source CFD Toolbox
   \\    /   O peration     | Website:  https://openfoam.org
    \\  /    A nd           | Version:  7
     \\/     M anipulation  |
\*---------------------------------------------------------------------------*/
FoamFile
{
    version     2.0;
    format      ascii;
    class       surfaceScalarField;
    location    "0.1";
    object      phi;
}
// * * * * * * * * * * * * * * * * * * * * * * * * * * * * * * * * * * * * * //

dimensions      [0 3 -1 0 0 0 0];

internalField   nonuniform List<scalar> 
5457
(
0.198208
0.00153391
0.196121
0.00185023
0.193741
0.00216988
0.19102
0.00253436
0.187964
0.00289037
0.184595
0.00322394
0.180931
0.00353639
0.176988
0.00383256
0.172773
0.00411907
0.168287
0.00440417
0.16352
0.00469686
0.158457
0.00500561
0.153073
0.00533746
0.14734
0.00569744
0.141225
0.00608834
0.134699
0.00651059
0.12773
0.00696217
0.120294
0.00743853
0.112375
0.0079325
0.103963
0.00843423
0.0950656
0.00893131
0.085701
0.00940909
0.075905
0.00985159
0.0657279
0.010243
0.0552321
0.01057
0.0444844
0.0108252
0.0335203
0.011035
0.0227101
0.0108572
0.0112242
0.0114785
0.0112625
0.199712
0.00156408
0.198775
0.00255079
0.197389
0.00334522
0.195567
0.00416961
0.193295
0.00499641
0.190581
0.00579267
0.187442
0.00654851
0.183898
0.00726534
0.179969
0.00795144
0.175671
0.00862068
0.171007
0.00929029
0.165977
0.00997806
0.160567
0.0106999
0.15476
0.0114683
0.14853
0.0122916
0.141849
0.0131733
0.134692
0.0141117
0.127031
0.0151001
0.118848
0.0161261
0.11013
0.0171719
0.100877
0.0182139
0.0911013
0.0192237
0.0808318
0.0201695
0.0701135
0.0210184
0.059006
0.0217408
0.0475814
0.0223148
0.0359024
0.0227714
0.0240368
0.0227567
0.0119627
0.0235346
0.0232493
0.199565
0.00174086
0.198686
0.00319326
0.197366
0.00445458
0.195628
0.00572031
0.193464
0.00699572
0.19087
0.00824093
0.187857
0.00943309
0.184444
0.0105675
0.180646
0.0116525
0.176478
0.0127063
0.171944
0.0137533
0.167043
0.01482
0.161764
0.015931
0.156088
0.0171067
0.149989
0.0183615
0.14344
0.0197031
0.136409
0.0211319
0.128866
0.0226405
0.120784
0.0242136
0.112142
0.0258273
0.102928
0.0274493
0.0931415
0.0290392
0.0827965
0.03055
0.0719244
0.0319312
0.0605756
0.0331331
0.0488219
0.0341106
0.0367328
0.0348936
0.0244163
0.0350843
0.0120842
0.0358329
0.0353342
0.199487
0.00199541
0.198607
0.00383692
0.197308
0.00554266
0.195597
0.00724342
0.193473
0.00895491
0.190932
0.0106358
0.187984
0.0122526
0.184646
0.0137942
0.180933
0.0152684
0.176858
0.0166978
0.172426
0.0181139
0.167634
0.0195515
0.162472
0.0210439
0.156919
0.0226194
0.150951
0.0242991
0.144536
0.0260956
0.13764
0.0280125
0.13023
0.0300435
0.12227
0.0321724
0.113731
0.0343718
0.104588
0.0366029
0.0948271
0.0388158
0.0844459
0.0409497
0.0734613
0.0429353
0.0619136
0.0446989
0.0498764
0.0461606
0.0374476
0.0473247
0.0247774
0.0477384
0.0121873
0.0483737
0.0475114
0.199451
0.00228644
0.198562
0.00448858
0.197283
0.00661045
0.195605
0.00873441
0.193524
0.0108699
0.19104
0.0129731
0.188162
0.0150019
0.184905
0.0169388
0.181285
0.0187913
0.177312
0.0205856
0.172993
0.0223602
0.168325
0.0241584
0.163295
0.026022
0.157885
0.0279877
0.152067
0.0300836
0.145808
0.0323282
0.139071
0.0347295
0.131817
0.0372843
0.124004
0.0399773
0.115592
0.0427803
0.106543
0.045651
0.0968267
0.048532
0.0864258
0.0513502
0.0753408
0.054017
0.0636006
0.05643
0.0512791
0.0584643
0.0384988
0.060076
0.0254288
0.060767
0.0124636
0.0612844
0.0599524
0.199435
0.00259309
0.198544
0.00514159
0.197289
0.00765432
0.19565
0.0101856
0.193622
0.0127316
0.191206
0.0152428
0.18841
0.0176693
0.185248
0.0199877
0.181735
0.0222049
0.177884
0.0243509
0.1737
0.026471
0.169178
0.0286166
0.164308
0.0308384
0.15907
0.0331815
0.153434
0.0356818
0.147368
0.0383645
0.140829
0.0412436
0.133774
0.0443207
0.126151
0.047584
0.11791
0.0510073
0.109001
0.054548
0.0993741
0.0581443
0.0889934
0.061713
0.0778395
0.0651466
0.0659249
0.0683114
0.0533137
0.0710316
0.0401381
0.0731977
0.0265722
0.0742762
0.0130554
0.0747624
0.0729199
0.199431
0.00290357
0.198547
0.00578737
0.19732
0.00866956
0.195728
0.0115902
0.193762
0.014531
0.191424
0.0174341
0.188721
0.0202419
0.185669
0.0229259
0.182283
0.025492
0.178573
0.0279739
0.174545
0.0304234
0.170196
0.0329002
0.165515
0.0354638
0.160482
0.0381677
0.155067
0.0410563
0.149234
0.0441626
0.142941
0.0475078
0.136136
0.0511002
0.128762
0.0549346
0.120757
0.05899
0.112054
0.0632273
0.102587
0.067585
0.0922934
0.071974
0.0811286
0.0762711
0.0690771
0.0803127
0.056177
0.083871
0.042548
0.0867595
0.0283515
0.0884131
0.0140146
0.0890859
0.0867937
0.199434
0.00321059
0.198565
0.00641821
0.197372
0.00965058
0.195833
0.0129413
0.193938
0.0162592
0.191688
0.0195363
0.189093
0.0227072
0.186165
0.0257386
0.182921
0.0286355
0.179372
0.0314351
0.175523
0.0341954
0.171373
0.0369839
0.16691
0.039869
0.162114
0.0429129
0.156958
0.0461686
0.151405
0.0496779
0.145408
0.0534706
0.138913
0.0575639
0.131857
0.0619616
0.124165
0.066652
0.115756
0.0716045
0.106541
0.0767641
0.0964295
0.0820436
0.0853388
0.087312
0.0732091
0.0923839
0.0600279
0.0969864
0.0458701
0.10085
0.0308591
0.103371
0.0153829
0.104559
0.102076
0.199442
0.00350925
0.198594
0.00702768
0.197441
0.0105916
0.195962
0.0142323
0.194146
0.0179076
0.191995
0.0215391
0.189518
0.0250532
0.186729
0.0284119
0.183644
0.0316194
0.180274
0.034716
0.176625
0.0377655
0.172697
0.0408431
0.168481
0.0440256
0.163957
0.047384
0.159099
0.0509802
0.15387
0.0548652
0.148224
0.0590786
0.142104
0.0636482
0.135441
0.0685898
0.128152
0.0739051
0.120141
0.0795781
0.111295
0.0855687
0.101489
0.091803
0.0905905
0.0981576
0.0784735
0.104443
0.0650393
0.110359
0.0502712
0.11556
0.034216
0.119383
0.01724
0.121527
0.11931
0.199454
0.00379602
0.198632
0.00761049
0.197524
0.0114871
0.196111
0.0154569
0.194382
0.0194686
0.19234
0.0234331
0.189993
0.0272688
0.187355
0.030933
0.184443
0.0344289
0.18127
0.0377994
0.177841
0.041114
0.174159
0.044455
0.170216
0.0479071
0.165995
0.0515498
0.161472
0.0554539
0.156612
0.0596798
0.151372
0.0642775
0.145694
0.0692871
0.139506
0.0747387
0.132721
0.0806514
0.125228
0.0870304
0.116892
0.0938607
0.107551
0.101097
0.0970113
0.108646
0.0850567
0.116345
0.0714596
0.123906
0.0560445
0.130932
0.0387054
0.136694
0.0197554
0.140466
0.139106
0.199468
0.00406826
0.198677
0.00816229
0.19762
0.012332
0.196278
0.0166094
0.194644
0.0209349
0.192718
0.0252097
0.190511
0.029344
0.188037
0.0332901
0.185312
0.0370503
0.18235
0.0406699
0.17916
0.0442231
0.175744
0.0477988
0.172098
0.051489
0.16821
0.0553812
0.164057
0.0595546
0.159611
0.0640787
0.15483
0.0690144
0.14966
0.0744144
0.144033
0.0803249
0.137857
0.0867857
0.131017
0.093829
0.123358
0.101475
0.114685
0.109726
0.104739
0.118547
0.0931962
0.127844
0.0796555
0.137408
0.0636917
0.146866
0.0448963
0.155472
0.0233349
0.16202
0.162469
0.199484
0.00432391
0.198728
0.00867954
0.197725
0.013122
0.196461
0.0176844
0.194927
0.0223003
0.193126
0.0268614
0.191068
0.0312699
0.188767
0.0354731
0.186241
0.039472
0.183504
0.0433139
0.180568
0.0470772
0.177437
0.0508563
0.174111
0.0547499
0.17058
0.0588525
0.16683
0.0632509
0.162837
0.0680232
0.158565
0.0732401
0.153968
0.078967
0.148984
0.0852664
0.143528
0.0922001
0.137484
0.0998311
0.130694
0.108224
0.122938
0.117441
0.113906
0.127539
0.103168
0.138548
0.0901204
0.150428
0.073982
0.162986
0.0537845
0.175661
0.028857
0.186944
0.19133
0.199502
0.00456139
0.198783
0.00915933
0.197839
0.0138533
0.196657
0.0186776
0.195229
0.0235596
0.193559
0.0283819
0.191656
0.0330389
0.189538
0.0374732
0.18722
0.0416841
0.184721
0.0457202
0.182051
0.0496631
0.179221
0.0536123
0.176232
0.0576717
0.173082
0.061942
0.169762
0.0665162
0.166255
0.0714797
0.162536
0.0769117
0.158569
0.0828884
0.154305
0.089487
0.149673
0.0967904
0.144572
0.104892
0.138855
0.113902
0.132306
0.123954
0.124599
0.135213
0.115236
0.147884
0.103437
0.162208
0.088001
0.178412
0.0670543
0.196606
0.0381331
0.215869
0.229461
0.199522
0.00477945
0.198843
0.00959937
0.19796
0.0145228
0.196863
0.0195852
0.195546
0.0247081
0.194011
0.0297658
0.192272
0.0346451
0.190342
0.0392836
0.188242
0.0436788
0.185988
0.0478797
0.183596
0.0519707
0.181078
0.056055
0.178441
0.0602407
0.175688
0.0646331
0.172818
0.06933
0.169824
0.0744222
0.166692
0.0799949
0.163403
0.0861325
0.159923
0.0929233
0.156207
0.100466
0.152181
0.108879
0.147736
0.118311
0.142698
0.128959
0.136789
0.141095
0.129543
0.155109
0.120148
0.17159
0.107126
0.191429
0.0875571
0.216179
0.0554055
0.248029
0.284878
0.199542
0.00497715
0.198905
0.00999782
0.198086
0.0151281
0.197078
0.0204042
0.195874
0.0257425
0.194481
0.0310091
0.192908
0.0360838
0.191173
0.0408991
0.189295
0.0454502
0.187293
0.0497861
0.185186
0.0539929
0.182988
0.0581764
0.180713
0.0624477
0.178368
0.0669149
0.175962
0.0716791
0.173498
0.0768337
0.170977
0.0824675
0.168396
0.0886685
0.165746
0.0955307
0.163012
0.103161
0.160163
0.111691
0.157152
0.12129
0.153892
0.13219
0.150237
0.144727
0.145918
0.159411
0.14042
0.17708
0.13265
0.199198
0.11983
0.229004
0.0925615
0.275307
0.377467
-0.00981121
0.00968216
-0.0194864
0.00958728
-0.0290985
0.00947245
-0.0380842
0.00882819
-0.0459724
0.00773306
-0.0518708
0.0057557
-0.0552177
0.00322083
-0.0555739
0.000247653
-0.0525975
-0.00306771
-0.0462792
-0.00639353
-0.0368664
-0.00947323
-0.0249397
-0.0119733
-0.0111457
-0.0138278
0.00382387
-0.014991
0.0193058
-0.0154914
0.0347526
-0.0154445
0.0497525
-0.0149856
0.0640087
-0.0142296
0.0773229
-0.0132749
0.0895792
-0.0122036
0.100728
-0.0110814
0.110768
-0.00995776
0.119734
-0.00886783
0.127685
-0.00783452
0.134692
-0.0068709
0.140832
-0.00598248
0.146182
-0.0051694
0.150817
-0.00442893
0.154812
-0.00376093
-0.0032212
-0.00959767
0.0191634
-0.0205586
0.0204641
-0.0307331
0.0195176
-0.0404086
0.0183596
-0.0486551
0.0158384
-0.0548569
0.0118274
-0.058346
0.00659456
-0.0585944
0.000396372
-0.0552739
-0.00647266
-0.0484002
-0.0133372
-0.0382456
-0.0196841
-0.0255493
-0.0247131
-0.0110013
-0.0284071
0.00463735
-0.0306491
0.020709
-0.031571
0.0366796
-0.0314115
0.0521495
-0.0304402
0.0668336
-0.0288865
0.0805445
-0.0269458
0.0931749
-0.0247808
0.104681
-0.0225202
0.115067
-0.0202607
0.124368
-0.0180705
0.132645
-0.0159938
0.139966
-0.0140557
0.146407
-0.0122664
0.152044
-0.0106258
0.156949
-0.00912713
0.161184
-0.0077618
-0.00654411
-0.0110391
0.0300908
-0.0227411
0.0320903
-0.0339559
0.030624
-0.0446119
0.0288984
-0.0536987
0.0248108
-0.0605306
0.0185533
-0.0643257
0.0102946
-0.0644678
0.000454999
-0.0606299
-0.010382
-0.0528657
-0.0211613
-0.0417087
-0.0308897
-0.0278995
-0.0385597
-0.0123508
-0.0439824
0.00410352
-0.0471193
0.0207711
-0.0482437
0.037161
-0.0477956
0.0529064
-0.0461687
0.067752
-0.0437033
0.0815371
-0.0406899
0.0941785
-0.037368
0.105652
-0.033926
0.115979
-0.0305037
0.125206
-0.0271987
0.133403
-0.0240731
0.140645
-0.0211612
0.147012
-0.0184758
0.152582
-0.0160146
0.157426
-0.0137647
0.161606
-0.0117073
-0.00983638
-0.0129455
0.042932
-0.0261198
0.0452087
-0.0390283
0.0434583
-0.051061
0.0408528
-0.0613675
0.0350401
-0.0689779
0.0260903
-0.0730301
0.0142788
-0.0727596
0.000122979
-0.0678683
-0.0153276
-0.0585881
-0.0304878
-0.0458065
-0.0437091
-0.0304802
-0.0539151
-0.0135833
-0.0608995
0.00391931
-0.0646328
0.0213302
-0.0656558
0.0382216
-0.064678
0.0542756
-0.0622031
0.0692794
-0.0586764
0.0831106
-0.0544783
0.0957187
-0.0499206
0.107107
-0.0452451
0.117317
-0.0406293
0.126413
-0.0361948
0.134475
-0.0320173
0.141587
-0.0281364
0.147834
-0.0245647
0.153296
-0.0212949
0.158044
-0.0183068
0.162142
-0.0155708
-0.0130655
-0.0152599
0.0581354
-0.0305956
0.0605144
-0.0456899
0.0585215
-0.0595731
0.0547037
-0.0712856
0.0467181
-0.0796283
0.0343963
-0.0835386
0.0181514
-0.0822556
-0.0011969
-0.0755896
-0.0220281
-0.0642402
-0.0418679
-0.049403
-0.0585718
-0.0322334
-0.0711042
-0.0138513
-0.079294
0.00473191
-0.0832206
0.0228782
-0.0837983
0.0402313
-0.0820182
0.0565324
-0.0784815
0.07162
-0.0737307
0.0854169
-0.0682304
0.0979105
-0.062357
0.109135
-0.0563989
0.119155
-0.050564
0.128053
-0.0449921
0.135921
-0.0397669
0.142852
-0.0349291
0.148933
-0.0304876
0.154248
-0.0264283
0.15887
-0.0227216
0.162861
-0.0193266
-0.016209
-0.0179507
0.0761168
-0.0358906
0.0784394
-0.0534194
0.0760595
-0.0693032
0.0705993
-0.0822424
0.0596634
-0.0909109
0.0430632
-0.0940659
0.0212982
-0.0909645
-0.00431108
-0.0818613
-0.0311461
-0.0680247
-0.0557192
-0.0509106
-0.0756987
-0.0318955
-0.0901285
-0.0121821
-0.0990115
0.00727827
-0.102679
0.0259734
-0.102484
0.0436071
-0.0996346
0.0599819
-0.09483
0.0749915
-0.0887041
0.0886067
-0.0817985
0.100855
-0.0745459
0.111801
-0.0672726
0.121533
-0.0602093
0.130149
-0.0535066
0.137753
-0.0472509
0.144442
-0.0414798
0.150309
-0.0361953
0.155436
-0.031374
0.159898
-0.0269758
0.163755
-0.0229484
-0.0192441
-0.0206933
0.0969342
-0.0412782
0.0990192
-0.061072
0.0958928
-0.0785351
0.0881079
-0.092209
0.0733751
-0.100504
0.0513851
-0.102087
0.0228973
-0.0964332
-0.00995658
-0.0845052
-0.0430713
-0.0680587
-0.0721657
-0.0488175
-0.0949404
-0.0282684
-0.110677
-0.00765272
-0.119623
0.0122661
-0.122589
0.0311549
-0.121358
0.0487544
-0.117212
0.0649219
-0.110967
0.0796069
-0.10335
0.0928279
-0.0949697
0.10465
-0.0863071
0.115168
-0.0777161
0.124488
-0.0694413
0.132722
-0.0616372
0.139979
-0.0543874
0.14636
-0.0477224
0.151959
-0.0416343
0.156857
-0.0360892
0.161124
-0.0310354
0.16482
-0.026409
-0.0221494
-0.0229034
0.119977
-0.0454639
0.121596
-0.0667151
0.117202
-0.0850057
0.106462
-0.0986162
0.0870421
-0.105783
0.058597
-0.105007
0.0221549
-0.0962999
-0.0186394
-0.0814792
-0.057875
-0.0627095
-0.0909228
-0.0418817
-0.115758
-0.0204143
-0.132134
0.000452253
-0.140477
0.0202636
-0.142385
0.038862
-0.139936
0.0560038
-0.134327
0.0715943
-0.126524
0.0856372
-0.11735
0.0981971
-0.107477
0.109373
-0.0974199
0.119283
-0.0875496
0.128047
-0.0781156
0.135783
-0.0692689
0.142603
-0.0610854
0.148605
-0.053585
0.15388
-0.0467483
0.158503
-0.0405296
0.162542
-0.0348655
0.16605
-0.0296813
-0.0249035
-0.0237783
0.143814
-0.0469615
0.144817
-0.0683442
0.138646
-0.0862863
0.124471
-0.0988513
0.0996686
-0.103996
0.0637948
-0.10039
0.0185917
-0.0885024
-0.0304924
-0.0711658
-0.0751844
-0.0507656
-0.111301
-0.0291654
-0.137339
-0.00782686
-0.153454
0.0124754
-0.16076
0.031629
-0.161516
0.0493818
-0.157663
0.0655635
-0.150478
0.0801424
-0.141065
0.0931769
-0.130338
0.104773
-0.119018
0.115057
-0.107638
0.124162
-0.0965764
0.132214
-0.0860765
0.139331
-0.0762798
0.145618
-0.0672499
0.151168
-0.0589939
0.156061
-0.0514802
0.160366
-0.0446509
0.164141
-0.0384321
0.167434
-0.0327386
-0.0274861
-0.0225975
0.166409
-0.0442887
0.166548
-0.0640179
0.158425
-0.0801931
0.140702
-0.0906958
0.110227
-0.0929749
0.0661259
-0.0860169
0.0116796
-0.0714288
-0.0450411
-0.0524432
-0.0941363
-0.031525
-0.13219
-0.0104281
-0.158409
0.00973682
-0.173594
0.0287546
-0.179753
0.0465491
-0.179284
0.0628227
-0.173906
0.077487
-0.165106
0.0905824
-0.154118
0.102219
-0.141925
0.112535
-0.129276
0.121675
-0.11671
0.129777
-0.104598
0.136963
-0.0931692
0.14334
-0.0825499
0.149002
-0.0727885
0.154029
-0.0638783
0.158486
-0.0557753
0.16243
-0.0484114
0.16591
-0.0417028
0.168964
-0.0355564
-0.0298781
-0.0185371
0.184932
-0.0360808
0.184117
-0.0519728
0.174348
-0.0647249
0.153494
-0.071918
0.117465
-0.0705444
0.0647981
-0.0602045
0.00138334
-0.0440279
-0.0611774
-0.0247373
-0.11339
-0.00499813
-0.151896
0.0141167
-0.177493
0.0322469
-0.191694
0.0493205
-0.196796
0.0649807
-0.194912
0.0790854
-0.187976
0.0916501
-0.177632
0.102784
-0.165207
0.112639
-0.151728
0.121373
-0.137949
0.129134
-0.124401
0.136051
-0.111432
0.14223
-0.099254
0.147761
-0.0879723
0.152717
-0.0776193
0.157157
-0.0681753
0.16113
-0.0595858
0.164677
-0.0517739
0.167833
-0.0446491
0.170626
-0.0381124
-0.0320627
-0.0111021
0.196029
-0.0215043
0.194529
-0.0311967
0.184057
-0.0391851
0.161509
-0.0414822
0.119796
-0.0347965
0.0581501
-0.0218263
-0.0115478
-0.00590418
-0.0770611
0.0111386
-0.130396
0.0280249
-0.168747
0.0443691
-0.193803
0.0597915
-0.207083
0.0739227
-0.210893
0.0866035
-0.207557
0.0978376
-0.199171
0.107737
-0.187488
0.116465
-0.173887
0.124195
-0.159403
0.131087
-0.144777
0.137272
-0.130513
0.142856
-0.116932
0.147918
-0.10422
0.152519
-0.0924631
0.156705
-0.0816787
0.16051
-0.0718363
0.163961
-0.0628739
0.167082
-0.0547093
0.169891
-0.0472482
0.172404
-0.0403886
-0.0340256
-0.00092028
0.196949
-0.00154189
0.195151
-0.00307849
0.185601
-0.00297666
0.161422
0.0029752
0.113868
0.0134121
0.0477432
0.0265188
-0.0246208
0.0402177
-0.0907246
0.0539151
-0.144058
0.0675011
-0.182297
0.0802021
-0.206469
0.0917103
-0.218555
0.101891
-0.221038
0.110774
-0.216401
0.118494
-0.20685
0.125237
-0.194185
0.131195
-0.179794
0.136537
-0.164687
0.141396
-0.149571
0.14587
-0.134913
0.150025
-0.121001
0.1539
-0.107998
0.15752
-0.095971
0.160896
-0.0849277
0.164035
-0.074831
0.166941
-0.0656156
0.169616
-0.0571981
0.172062
-0.0494841
0.174282
-0.042372
-0.0357559
0.013909
0.183034
0.0260108
0.183048
0.0350071
0.176607
0.0450135
0.151426
0.0568173
0.102081
0.0693609
0.0352234
0.0816194
-0.0368506
0.0929922
-0.102065
0.103256
-0.154287
0.112392
-0.191397
0.120215
-0.214256
0.126734
-0.225037
0.132091
-0.226356
0.136505
-0.220774
0.140221
-0.210521
0.143465
-0.197381
0.146423
-0.182698
0.149228
-0.167432
0.151964
-0.152239
0.154673
-0.137544
0.157365
-0.123606
0.160032
-0.110566
0.162655
-0.0984816
0.165212
-0.0873556
0.167676
-0.0771502
0.170028
-0.0678025
0.172248
-0.0592324
0.174324
-0.0513491
0.176244
-0.044055
-0.0372471
0.0354712
0.147553
0.0593618
0.159157
0.0771766
0.158794
0.0952595
0.133349
0.112923
0.0844303
0.128725
0.0194411
0.141032
-0.0491327
0.150092
-0.111096
0.156267
-0.16043
0.160125
-0.195221
0.162192
-0.216287
0.162974
-0.22578
0.16294
-0.226282
0.162501
-0.220292
0.161979
-0.209953
0.161606
-0.196957
0.161523
-0.182559
0.161796
-0.167644
0.162436
-0.152809
0.163413
-0.138443
0.164677
-0.124781
0.166166
-0.111954
0.167817
-0.100019
0.169571
-0.0889796
0.171372
-0.0788058
0.173177
-0.0694418
0.174947
-0.0608156
0.176652
-0.0528441
0.178271
-0.0454365
-0.038496
0.207207
0.00516014
0.20659
0.0103663
0.205811
0.0156867
0.20486
0.0211584
0.203734
0.0266923
0.20244
0.0321473
0.200989
0.0373954
0.199399
0.0423644
0.197692
0.0470465
0.195888
0.0514902
0.19401
0.0557822
0.192077
0.0600297
0.190107
0.0643455
0.188117
0.0688392
0.186124
0.0736125
0.184144
0.0787593
0.182193
0.084368
0.180289
0.0905261
0.178451
0.0973255
0.176702
0.104871
0.175066
0.11329
0.173577
0.122747
0.172276
0.133464
0.171229
0.145754
0.170548
0.160077
0.170476
0.177144
0.17167
0.198002
0.176647
0.22403
0.199846
0.252116
0.268681
0.308645
0.212243
0.00532355
0.211661
0.010695
0.210937
0.0161842
0.210066
0.0218284
0.209045
0.0275336
0.20788
0.0331512
0.206586
0.0385466
0.205181
0.0436418
0.203688
0.0484262
0.202129
0.0529467
0.20053
0.0572898
0.198914
0.0615629
0.197307
0.0658789
0.195732
0.070347
0.194215
0.0750675
0.192787
0.0801319
0.191479
0.0856246
0.190331
0.0916268
0.189393
0.0982214
0.188725
0.1055
0.188413
0.113568
0.188576
0.122555
0.18939
0.132624
0.191145
0.14398
0.194344
0.156864
0.199965
0.171515
0.210035
0.18793
0.228284
0.205784
0.256418
0.223986
0.241262
0.283841
0.217403
0.00546539
0.216859
0.0109801
0.216197
0.0166148
0.215413
0.0224065
0.214506
0.0282567
0.213483
0.0340097
0.212359
0.0395241
0.211153
0.0447167
0.209889
0.0495731
0.208593
0.0541383
0.207291
0.0584974
0.206013
0.0627567
0.204788
0.0670278
0.203648
0.0714176
0.20263
0.0760232
0.201774
0.0809309
0.201129
0.0862174
0.200755
0.0919533
0.200728
0.0982059
0.201146
0.105044
0.20214
0.112539
0.203897
0.12077
0.206681
0.129816
0.210894
0.139749
0.217139
0.150606
0.226304
0.162341
0.239494
0.174737
0.257723
0.187554
0.280984
0.200727
0.211584
0.310665
0.22269
0.00558388
0.222187
0.011218
0.221592
0.0169731
0.220903
0.0228857
0.220118
0.0288528
0.219248
0.0347123
0.218306
0.0403161
0.217312
0.0455759
0.216292
0.0504733
0.215273
0.0550502
0.214284
0.0593897
0.213358
0.0635959
0.21253
0.0677777
0.211839
0.0720382
0.211329
0.0764692
0.211052
0.0811497
0.211071
0.0861465
0.211461
0.091516
0.212318
0.0973063
0.213766
0.103559
0.215964
0.110308
0.219129
0.117577
0.223549
0.125373
0.229611
0.133669
0.237819
0.142384
0.248789
0.151363
0.263196
0.160326
0.28192
0.168827
0.306373
0.176273
0.180214
0.337744
0.228105
0.00567735
0.227648
0.0114054
0.227125
0.0172543
0.226536
0.0232597
0.225882
0.0293142
0.225173
0.0352498
0.224423
0.0409125
0.223654
0.0462083
0.222889
0.0511149
0.222158
0.0556707
0.221494
0.0599557
0.22093
0.0640707
0.220507
0.0681208
0.220269
0.0722042
0.220267
0.0764061
0.220562
0.0807968
0.221224
0.0854316
0.222341
0.0903516
0.22402
0.0955848
0.226396
0.101146
0.229638
0.107034
0.23396
0.113228
0.23963
0.11968
0.246982
0.1263
0.256416
0.132937
0.268408
0.139362
0.283508
0.14522
0.302366
0.149967
0.325687
0.15295
0.153006
0.352895
0.233653
0.00574437
0.233243
0.0115396
0.232797
0.0174543
0.232314
0.0235229
0.231798
0.0296342
0.231258
0.0356147
0.230709
0.0413047
0.230172
0.0466052
0.229671
0.0514894
0.229238
0.0559918
0.228904
0.0601887
0.228707
0.0641768
0.22869
0.0680565
0.2289
0.0719202
0.229394
0.075846
0.230237
0.0798949
0.231505
0.0841105
0.23329
0.0885192
0.235703
0.0931304
0.238876
0.0979357
0.242972
0.102907
0.248183
0.10799
0.254742
0.1131
0.262915
0.118109
0.273005
0.122833
0.28534
0.127017
0.300242
0.130311
0.317945
0.13226
0.338548
0.132345
0.129973
0.361581
0.239336
0.00578376
0.238977
0.0116181
0.238611
0.0175695
0.238239
0.0236709
0.237865
0.0298074
0.2375
0.0358009
0.237158
0.0414865
0.236859
0.0467605
0.236629
0.0515914
0.236496
0.0560096
0.236495
0.0600871
0.236663
0.0639159
0.237045
0.0675914
0.237691
0.0711997
0.238659
0.0748115
0.240015
0.0784792
0.241836
0.0822356
0.244214
0.0860941
0.247254
0.090049
0.251078
0.0940745
0.255831
0.0981227
0.261675
0.10212
0.268791
0.105962
0.277375
0.109507
0.287625
0.112569
0.299722
0.11491
0.313789
0.116237
0.329844
0.116201
0.347773
0.114414
0.110534
0.367211
0.245157
0.00579458
0.24485
0.0116391
0.244567
0.0175975
0.244309
0.0237004
0.244082
0.0298302
0.243896
0.0358045
0.243765
0.041454
0.243709
0.0466708
0.243751
0.0514188
0.243919
0.055724
0.244247
0.0596539
0.244773
0.0632955
0.245541
0.0667387
0.246601
0.0700638
0.248011
0.0733345
0.249835
0.0765952
0.252147
0.0798698
0.255031
0.0831618
0.258584
0.0864546
0.262911
0.0897109
0.268131
0.0928721
0.274369
0.0958558
0.281755
0.0985538
0.290416
0.100829
0.30046
0.102512
0.311955
0.103404
0.324908
0.103276
0.339227
0.101878
0.35469
0.0989482
0.0943166
0.370906
0.251119
0.00577619
0.250866
0.0116015
0.250668
0.0175364
0.250527
0.0236094
0.250449
0.0297001
0.250444
0.0356231
0.250526
0.0412057
0.250712
0.0463357
0.251025
0.050973
0.25149
0.0551392
0.25214
0.058897
0.253011
0.0623284
0.254146
0.0655181
0.255592
0.0685406
0.257405
0.0714537
0.259644
0.0742954
0.262377
0.0770828
0.265678
0.0798126
0.269629
0.0824617
0.274317
0.0849874
0.27983
0.0873279
0.286258
0.0894012
0.293685
0.0911058
0.302176
0.0923198
0.311772
0.0929026
0.322468
0.092698
0.334197
0.0915399
0.346807
0.0892632
0.360037
0.0857152
0.0808302
0.373523
0.257226
0.00572822
0.257028
0.0115045
0.256915
0.0173853
0.256891
0.0233968
0.256964
0.0294165
0.257141
0.0352569
0.257435
0.0407424
0.257861
0.0457577
0.258439
0.0502588
0.259194
0.0542631
0.260154
0.0578284
0.261352
0.0610322
0.262829
0.063954
0.264629
0.0666633
0.266801
0.069213
0.269398
0.0716365
0.27248
0.0739463
0.276109
0.0761358
0.28035
0.0781791
0.285268
0.0800334
0.290926
0.0816392
0.297379
0.0829217
0.304671
0.0837924
0.312823
0.0841504
0.321825
0.0838861
0.331627
0.0828853
0.342123
0.0810369
0.353139
0.078242
0.364428
0.0744241
0.0695772
0.375681
0.26348
0.00565062
0.263337
0.0113481
0.26331
0.0171443
0.263404
0.023063
0.263625
0.0289803
0.263982
0.0347075
0.264485
0.0400673
0.265147
0.0449419
0.265983
0.0492841
0.267016
0.053107
0.26827
0.0564641
0.269775
0.0594283
0.271566
0.0620747
0.273682
0.0644685
0.276166
0.066659
0.279064
0.0686763
0.282425
0.0705312
0.286297
0.0722158
0.290728
0.0737055
0.295765
0.0749605
0.301445
0.0759282
0.307796
0.0765448
0.314829
0.0767376
0.322534
0.0764284
0.330869
0.075537
0.339758
0.073986
0.349079
0.0717075
0.358666
0.0686503
0.368301
0.0647869
0.0601441
0.377734
0.269885
0.00554364
0.269797
0.0111328
0.269855
0.0168145
0.270065
0.0226097
0.270433
0.0283942
0.270967
0.0339788
0.271673
0.039186
0.272562
0.0438962
0.273646
0.0480594
0.274943
0.0516851
0.276472
0.0548228
0.278259
0.0575411
0.280333
0.0599111
0.282727
0.0619947
0.285477
0.0638387
0.288619
0.0654717
0.292191
0.066904
0.296229
0.0681293
0.300766
0.0691264
0.305829
0.0698614
0.311436
0.0702907
0.317592
0.0703629
0.324285
0.0700224
0.331484
0.0692121
0.33913
0.0678773
0.347135
0.0659703
0.35538
0.063455
0.363713
0.0603123
0.371953
0.0565447
0.0521945
0.379902
0.276444
0.00540782
0.27641
0.0108597
0.276552
0.0163975
0.276875
0.0220397
0.277387
0.0276619
0.278091
0.0330764
0.278993
0.038106
0.2801
0.0426305
0.281419
0.0465978
0.282963
0.0500144
0.284746
0.0529258
0.286789
0.0553969
0.289114
0.0574954
0.291747
0.0592808
0.294717
0.0607981
0.29805
0.0620757
0.301773
0.0631252
0.305911
0.0639431
0.310482
0.0645133
0.315497
0.0648093
0.32096
0.0647972
0.326858
0.0644386
0.333166
0.0636934
0.339837
0.062523
0.346807
0.0608936
0.353987
0.0587798
0.361267
0.0561678
0.368515
0.0530589
0.375586
0.0494719
0.0454548
0.382326
0.28316
0.00524394
0.28318
0.0105304
0.283403
0.0158962
0.283836
0.0213568
0.284485
0.026789
0.285354
0.0320073
0.286443
0.0368365
0.287756
0.0411566
0.289295
0.0449142
0.291067
0.0481131
0.293082
0.0507955
0.295353
0.0530229
0.297897
0.05486
0.300732
0.0563644
0.303878
0.0575804
0.307353
0.0585369
0.311175
0.0592477
0.315356
0.0597134
0.319903
0.0599234
0.324817
0.0598592
0.330087
0.0594966
0.33569
0.058809
0.341592
0.0577701
0.347741
0.0563563
0.35407
0.05455
0.360498
0.0523416
0.366927
0.049732
0.373247
0.0467346
0.37934
0.0433761
0.039704
0.385092
0.290038
0.00505307
0.290109
0.0101472
0.29041
0.0153137
0.290949
0.0205657
0.29173
0.0257818
0.292754
0.03078
0.29402
0.0353882
0.295525
0.0394879
0.297268
0.0430249
0.29925
0.0460009
0.301473
0.0484552
0.303946
0.0504462
0.306677
0.0520362
0.309678
0.0532811
0.312961
0.0542249
0.316536
0.0548979
0.320411
0.0553164
0.32459
0.0554855
0.32907
0.0554004
0.333843
0.05505
0.338889
0.0544192
0.34418
0.0534918
0.349676
0.0522526
0.355325
0.0506899
0.361063
0.0487977
0.366817
0.0465773
0.372503
0.0440387
0.378032
0.0412015
0.383311
0.0380951
0.0347634
0.388253
0.297081
0.00483643
0.2972
0.00971243
0.297577
0.0146541
0.298215
0.0196721
0.299121
0.0246477
0.300291
0.0294039
0.301722
0.0337729
0.303406
0.0376385
0.305336
0.0409468
0.307507
0.0436978
0.309916
0.0459281
0.312564
0.0476933
0.315453
0.0490535
0.318588
0.0500633
0.321973
0.0507666
0.325611
0.0511951
0.329502
0.051368
0.333644
0.0512945
0.338026
0.0509755
0.342633
0.0504066
0.34744
0.0495806
0.352416
0.0484895
0.35752
0.0471271
0.362702
0.0454905
0.367904
0.0435819
0.373062
0.0414092
0.378106
0.0389876
0.382964
0.0363392
0.387565
0.0334931
0.0304884
0.391841
0.304293
0.00459542
0.304459
0.00922897
0.304905
0.0139216
0.305638
0.0186819
0.30666
0.0233946
0.307967
0.027889
0.309551
0.0320028
0.311399
0.0356233
0.313499
0.0386973
0.315839
0.0412236
0.318412
0.0432366
0.321209
0.0447892
0.324229
0.0459391
0.327469
0.0467398
0.330926
0.0472353
0.334598
0.0474584
0.338477
0.047431
0.342556
0.0471661
0.346819
0.0466695
0.351246
0.0459425
0.355811
0.0449843
0.360481
0.0437936
0.365215
0.0423707
0.36997
0.040719
0.374692
0.0388458
0.379328
0.0367632
0.38382
0.0344884
0.388112
0.032044
0.392147
0.0294569
0.0267611
0.395875
0.311677
0.00433155
0.311887
0.00869982
0.3124
0.013121
0.313221
0.0176016
0.314351
0.0220311
0.315785
0.0262459
0.317509
0.0300907
0.319506
0.033457
0.321759
0.0362933
0.32425
0.0385976
0.326964
0.0404018
0.329889
0.0417565
0.333015
0.0427171
0.336335
0.0433356
0.33984
0.0436558
0.343521
0.0437114
0.347368
0.0435267
0.351366
0.0431176
0.355498
0.042494
0.359742
0.041662
0.364069
0.0406254
0.368449
0.039388
0.372843
0.0379548
0.377211
0.0363333
0.38151
0.0345338
0.385693
0.0325705
0.389714
0.0304611
0.393527
0.0282268
0.397091
0.0258919
0.0234854
0.400369
0.319238
0.00404635
0.319489
0.00812806
0.320064
0.0122569
0.320967
0.0164377
0.322197
0.0205654
0.323746
0.024485
0.325598
0.0280489
0.327731
0.0311541
0.33012
0.0337512
0.332743
0.0358375
0.33558
0.0374432
0.338612
0.0386157
0.341825
0.0394083
0.345204
0.0398712
0.348736
0.0400477
0.35241
0.0399719
0.356209
0.0396695
0.360117
0.039159
0.364114
0.0384533
0.368177
0.0375618
0.372279
0.0364921
0.376389
0.0352513
0.380475
0.0338476
0.3845
0.0322908
0.388427
0.030593
0.39222
0.0287686
0.395839
0.0268349
0.399252
0.0248112
0.402424
0.0227187
0.0205818
0.40533
0.326981
0.00374134
0.32727
0.00751672
0.327902
0.011334
0.32888
0.0151967
0.330202
0.019006
0.331858
0.0226164
0.333825
0.0258895
0.336079
0.0287283
0.33859
0.0310861
0.34133
0.0329599
0.344272
0.0343778
0.347394
0.0353844
0.350674
0.0360302
0.354096
0.0363634
0.357642
0.036426
0.361295
0.0362522
0.365038
0.0358683
0.368851
0.0352945
0.372715
0.0345457
0.376606
0.0336336
0.380498
0.0325683
0.384364
0.0313592
0.388174
0.0300162
0.391898
0.0285502
0.395504
0.0269738
0.398962
0.0253012
0.402243
0.0235482
0.405319
0.0217319
0.408167
0.0198707
0.0179848
0.410766
0.334909
0.00341796
0.335234
0.00686868
0.335919
0.0103568
0.336966
0.0138848
0.338373
0.0173608
0.340124
0.0206498
0.342197
0.0236237
0.344559
0.0261922
0.347178
0.0283117
0.350019
0.0299792
0.353052
0.0312205
0.356249
0.0320773
0.359584
0.0325967
0.363036
0.0328246
0.366585
0.0328011
0.37021
0.0325596
0.373893
0.0321266
0.377613
0.0315229
0.381351
0.0307646
0.385082
0.0298648
0.388784
0.0288349
0.392431
0.0276855
0.395999
0.0264273
0.399461
0.0250716
0.402791
0.0236306
0.405965
0.0221176
0.408961
0.0205468
0.411758
0.018933
0.414337
0.0172916
0.0156394
0.416685
0.343027
0.00307745
0.343386
0.00618646
0.344119
0.00932921
0.345231
0.0125074
0.346714
0.0156368
0.348553
0.018594
0.350721
0.0212616
0.353181
0.023557