/*--------------------------------*- C++ -*----------------------------------*\
  =========                 |
  \\      /  F ield         | OpenFOAM: The Open Source CFD Toolbox
   \\    /   O peration     | Website:  https://openfoam.org
    \\  /    A nd           | Version:  7
     \\/     M anipulation  |
\*---------------------------------------------------------------------------*/
FoamFile
{
    version     2.0;
    format      ascii;
    class       pointVectorField;
    location    "0.1";
    object      pointDisplacement;
}
// * * * * * * * * * * * * * * * * * * * * * * * * * * * * * * * * * * * * * //

dimensions      [0 1 0 0 0 0 0];

internalField   nonuniform List<vector> 
5828
(
(0 0 0)
(0.000828779 0 0)
(0.00158594 0 0)
(0.00225585 0 0)
(0.00284697 0 0)
(0.00336691 0 0)
(0.0038224 0 0)
(0.00421946 0 0)
(0.00456338 0 0)
(0.00485879 0 0)
(0.00510972 0 0)
(0.00531961 0 0)
(0.00549131 0 0)
(0.0056271 0 0)
(0.00572867 0 0)
(0.00579701 0 0)
(0.00583242 0 0)
(0.0058343 0 0)
(0.00580104 0 0)
(0.00572977 0 0)
(0.00561607 0 0)
(0.00545365 0 0)
(0.00523395 0 0)
(0.00494598 0 0)
(0.00457649 0 0)
(0.00411132 0 0)
(0.00353954 0 0)
(0.00286349 0 0)
(0.00212292 0 0)
(0.00145661 0 0)
(0 0 0)
(0 0 0)
(0.000828726 0 2.98381e-06)
(0.00158589 0 5.76741e-06)
(0.00225582 0 8.33912e-06)
(0.00284699 0 1.07624e-05)
(0.003367 0 1.30899e-05)
(0.00382262 0 1.53669e-05)
(0.00421984 0 1.76335e-05)
(0.00456397 0 1.99275e-05)
(0.00485967 0 2.22864e-05)
(0.00511097 0 2.47498e-05)
(0.00532134 0 2.73626e-05)
(0.00549366 0 3.01785e-05)
(0.00563028 0 3.32655e-05)
(0.00573293 0 3.67125e-05)
(0.00580272 0 4.06403e-05)
(0.00584007 0 4.52164e-05)
(0.00584459 0 5.06778e-05)
(0.00581494 0 5.7364e-05)
(0.00574869 0 6.57666e-05)
(0.00564201 0 7.6601e-05)
(0.00548949 0 9.09089e-05)
(0.00528389 0 0.000110198)
(0.00501608 0 0.000136619)
(0.00467543 0 0.000173147)
(0.00425139 0 0.000223672)
(0.00373764 0 0.000292738)
(0.00314168 0 0.000384225)
(0.00250621 0 0.000497106)
(0.00195763 0 0.000612659)
(0.00108203 0 0.000895632)
(0 0 0)
(0.000828688 0 5.95501e-06)
(0.00158585 0 1.15103e-05)
(0.00225584 0 1.66422e-05)
(0.00284716 0 2.1477e-05)
(0.00336739 0 2.61195e-05)
(0.00382334 0 3.06593e-05)
(0.00422103 0 3.51761e-05)
(0.0045658 0 3.97443e-05)
(0.00486233 0 4.44373e-05)
(0.00511471 0 4.93323e-05)
(0.0053265 0 5.4516e-05)
(0.00550067 0 6.00913e-05)
(0.0056397 0 6.61868e-05)
(0.00574552 0 7.29701e-05)
(0.00581952 0 8.06655e-05)
(0.00586251 0 8.95818e-05)
(0.00587464 0 0.00010015)
(0.00585541 0 0.000112983)
(0.0058035 0 0.000128952)
(0.00571679 0 0.000149313)
(0.00559228 0 0.000175862)
(0.00542622 0 0.000211157)
(0.0052144 0 0.00025877)
(0.00495303 0 0.000323519)
(0.0046405 0 0.000411473)
(0.00428104 0 0.000529208)
(0.00389148 0 0.000681086)
(0.00351302 0 0.000861646)
(0.00322889 0 0.00103647)
(0.00286016 0 0.00137672)
(0 0 0)
(0.00082864 0 8.90028e-06)
(0.00158581 0 1.72026e-05)
(0.00225591 0 2.48707e-05)
(0.00284745 0 3.20926e-05)
(0.00336806 0 3.90238e-05)
(0.00382456 0 4.57973e-05)
(0.00422301 0 5.25303e-05)
(0.00456879 0 5.93319e-05)
(0.00486667 0 6.63085e-05)
(0.00512081 0 7.35708e-05)
(0.00533486 0 8.12415e-05)
(0.00551198 0 8.9464e-05)
(0.00565485 0 9.84147e-05)
(0.0057657 0 0.00010832)
(0.00584633 0 0.000119477)
(0.00589812 0 0.000132287)
(0.00592207 0 0.000147303)
(0.00591881 0 0.000165288)
(0.00588869 0 0.000187309)
(0.00583191 0 0.000214857)
(0.00574878 0 0.000250007)
(0.00564017 0 0.000295615)
(0.00550823 0 0.000355514)
(0.00535756 0 0.000434627)
(0.00519681 0 0.000538729)
(0.00504066 0 0.000673286)
(0.00491115 0 0.000840058)
(0.00483513 0 0.0010289)
(0.0048308 0 0.00120047)
(0.00494529 0 0.00149097)
(0 0 0)
(0.000828568 0 1.18055e-05)
(0.00158575 0 2.28165e-05)
(0.00225598 0 3.29837e-05)
(0.00284782 0 4.25547e-05)
(0.00336892 0 5.17341e-05)
(0.00382615 0 6.0696e-05)
(0.00422562 0 6.95933e-05)
(0.00457278 0 7.85662e-05)
(0.00487245 0 8.77505e-05)
(0.00512892 0 9.72848e-05)
(0.00534599 0 0.00010732)
(0.005527 0 0.000118027)
(0.0056749 0 0.000129615)
(0.00579227 0 0.000142341)
(0.00588142 0 0.000156539)
(0.00594441 0 0.000172644)
(0.00598318 0 0.000191236)
(0.00599966 0 0.000213092)
(0.00599599 0 0.000239255)
(0.00597483 0 0.000271118)
(0.00593985 0 0.000310521)
(0.00589637 0 0.000359835)
(0.00585233 0 0.000422001)
(0.00581939 0 0.000500414)
(0.00581395 0 0.000598443)
(0.00585687 0 0.000718204)
(0.00596939 0 0.000857845)
(0.00615875 0 0.00100609)
(0.00638313 0 0.00113229)
(0.00683688 0 0.0013322)
(0 0 0)
(0.000828462 0 1.4656e-05)
(0.00158563 0 2.83236e-05)
(0.00225601 0 4.09391e-05)
(0.00284819 0 5.28073e-05)
(0.00336989 0 6.41799e-05)
(0.00382801 0 7.52695e-05)
(0.00422872 0 8.62613e-05)
(0.00457754 0 9.73237e-05)
(0.00487938 0 0.000108616)
(0.00513867 0 0.0001203)
(0.00535934 0 0.000132542)
(0.00554496 0 0.000145533)
(0.00569876 0 0.000159491)
(0.00582371 0 0.00017468)
(0.00592263 0 0.000191428)
(0.00599826 0 0.000210145)
(0.00605345 0 0.000231354)
(0.00609135 0 0.000255715)
(0.0061157 0 0.000284059)
(0.00613124 0 0.000317406)
(0.00614425 0 0.000356962)
(0.00616323 0 0.000404065)
(0.00619974 0 0.000460013)
(0.00626909 0 0.000525721)
(0.00639039 0 0.000601089)
(0.00658448 0 0.00068402)
(0.00686666 0 0.000769173)
(0.00722751 0 0.000846884)
(0.00758964 0 0.000903068)
(0.00828752 0 0.000990485)
(0 0 0)
(0.000828306 0 1.74375e-05)
(0.00158543 0 3.36955e-05)
(0.00225595 0 4.86949e-05)
(0.0028485 0 6.27952e-05)
(0.00337086 0 7.6292e-05)
(0.00382999 0 8.94334e-05)
(0.00423211 0 0.000102434)
(0.00458281 0 0.000115486)
(0.00488712 0 0.000128768)
(0.00514956 0 0.000142454)
(0.00537425 0 0.000156724)
(0.00556497 0 0.000171768)
(0.00572521 0 0.0001878)
(0.00585831 0 0.000205065)
(0.00596754 0 0.000223849)
(0.00605627 0 0.000244491)
(0.00612808 0 0.000267388)
(0.00618708 0 0.000292995)
(0.00623816 0 0.00032181)
(0.00628738 0 0.000354331)
(0.00634243 0 0.000390957)
(0.00641311 0 0.000431808)
(0.00651174 0 0.000476406)
(0.0066531 0 0.0005232)
(0.00685339 0 0.000568907)
(0.00712698 0 0.000607891)
(0.00747846 0 0.000632221)
(0.00788576 0 0.000634175)
(0.00826465 0 0.000615143)
(0.00900356 0 0.000526468)
(0 0 0)
(0.000828075 0 2.01361e-05)
(0.00158509 0 3.89053e-05)
(0.00225571 0 5.62119e-05)
(0.00284864 0 7.24667e-05)
(0.0033717 0 8.80059e-05)
(0.00383191 0 0.00010311)
(0.00423555 0 0.00011802)
(0.00458829 0 0.000132947)
(0.00489524 0 0.000148083)
(0.00516106 0 0.000163611)
(0.00539001 0 0.00017971)
(0.00558605 0 0.000196564)
(0.00575292 0 0.000214364)
(0.00589428 0 0.000233319)
(0.00601375 0 0.000253648)
(0.00611513 0 0.000275588)
(0.00620256 0 0.000299372)
(0.00628069 0 0.000325212)
(0.00635499 0 0.000353242)
(0.00643197 0 0.000383427)
(0.00651945 0 0.000415417)
(0.00662669 0 0.000448302)
(0.00676419 0 0.000480271)
(0.00694285 0 0.000508164)
(0.00717193 0 0.000527009)
(0.00745506 0 0.000529846)
(0.0077832 0 0.000508691)
(0.00812378 0 0.000458721)
(0.00840531 0 0.000391108)
(0.00882273 0 0.000183731)
(0 0 0)
(0.000827741 0 2.27397e-05)
(0.00158456 0 4.39294e-05)
(0.00225523 0 6.34556e-05)
(0.0028485 0 8.17766e-05)
(0.00337227 0 9.92663e-05)
(0.00383358 0 0.000116235)
(0.0042388 0 0.000132944)
(0.00459365 0 0.00014962)
(0.00490334 0 0.000166465)
(0.00517262 0 0.000183665)
(0.00540588 0 0.00020139)
(0.00560724 0 0.000219809)
(0.00578065 0 0.000239083)
(0.00592995 0 0.000259368)
(0.00605903 0 0.000280807)
(0.00617195 0 0.000303521)
(0.00627309 0 0.000327578)
(0.00636727 0 0.000352953)
(0.00645996 0 0.000379458)
(0.00655736 0 0.000406637)
(0.00666639 0 0.000433604)
(0.00679444 0 0.000458843)
(0.00694873 0 0.000479951)
(0.00713482 0 0.000493399)
(0.00735413 0 0.000494457)
(0.00760001 0 0.000477604)
(0.00785267 0 0.000438137)
(0.00807537 0 0.000376395)
(0.00821967 0 0.000307675)
(0.00825783 0 0.000150509)
(0 0 0)
(0.000827274 0 2.52378e-05)
(0.00158379 0 4.87476e-05)
(0.00225441 0 7.03967e-05)
(0.00284797 0 9.06873e-05)
(0.00337239 0 0.000110027)
(0.0038348 0 0.000128752)
(0.00424159 0 0.000147143)
(0.00459856 0 0.000165438)
(0.00491098 0 0.000183844)
(0.00518368 0 0.000202542)
(0.00542117 0 0.000221695)
(0.00562766 0 0.000241446)
(0.00580723 0 0.00026192)
(0.00596385 0 0.00028322)
(0.00610152 0 0.00030541)
(0.00622439 0 0.0003285)
(0.0063368 0 0.000352414)
(0.00644342 0 0.000376937)
(0.00654928 0 0.000401649)
(0.00665968 0 0.000425832)
(0.00678004 0 0.000448352)
(0.00691537 0 0.000467536)
(0.00706932 0 0.00048109)
(0.00724266 0 0.000486135)
(0.00743107 0 0.000479539)
(0.0076223 0 0.000458812)
(0.0077941 0 0.000423924)
(0.00791622 0 0.000380242)
(0.00796578 0 0.0003417)
(0.00786653 0 0.000308109)
(0 0 0)
(0.00082664 0 2.7621e-05)
(0.0015827 0 5.3342e-05)
(0.00225316 0 7.70096e-05)
(0.00284691 0 9.9166e-05)
(0.00337192 0 0.00012025)
(0.00383536 0 0.000140619)
(0.00424367 0 0.00016057)
(0.00460269 0 0.000180349)
(0.00491775 0 0.000200165)
(0.00519375 0 0.000220193)
(0.00543523 0 0.000240581)
(0.0056465 0 0.000261449)
(0.00583167 0 0.000282883)
(0.00599476 0 0.000304934)
(0.00613978 0 0.000327596)
(0.00627075 0 0.000350789)
(0.00639183 0 0.000374324)
(0.00650724 0 0.000397863)
(0.00662129 0 0.000420859)
(0.00673814 0 0.000442497)
(0.00686151 0 0.000461638)
(0.00699409 0 0.000476797)
(0.00713664 0 0.000486211)
(0.0072868 0 0.000488087)
(0.00743774 0 0.000481156)
(0.00757716 0 0.000465656)
(0.00768793 0 0.000444685)
(0.007753 0 0.000425195)
(0.00776864 0 0.000415755)
(0.00771805 0 0.000444965)
(0 0 0)
(0.000825808 0 2.98812e-05)
(0.00158124 0 5.76967e-05)
(0.00225139 0 8.32716e-05)
(0.00284519 0 0.000107184)
(0.00337069 0 0.0001299)
(0.00383506 0 0.000151797)
(0.00424479 0 0.000173183)
(0.00460574 0 0.000194311)
(0.00492328 0 0.000215389)
(0.00520233 0 0.000236585)
(0.00544748 0 0.00025803)
(0.00566305 0 0.000279819)
(0.00585314 0 0.000302006)
(0.00602174 0 0.000324594)
(0.00617274 0 0.000347524)
(0.00630995 0 0.000370648)
(0.00643717 0 0.00039371)
(0.00655806 0 0.000416309)
(0.00667607 0 0.000437868)
(0.00679418 0 0.000457605)
(0.00691456 0 0.000474537)
(0.00703805 0 0.000487533)
(0.00716347 0 0.000495472)
(0.00728704 0 0.000497553)
(0.00740201 0 0.000493819)
(0.00749921 0 0.000485834)
(0.00756932 0 0.000477245)
(0.00760756 0 0.000473269)
(0.00761956 0 0.000476953)
(0.00762734 0 0.000505355)
(0 0 0)
(0.000824742 0 3.20109e-05)
(0.00157934 0 6.17976e-05)
(0.00224899 0 8.91629e-05)
(0.00284271 0 0.000114717)
(0.00336854 0 0.00013895)
(0.0038337 0 0.000162255)
(0.00424469 0 0.000184951)
(0.0046074 0 0.000207294)
(0.0049272 0 0.00022949)
(0.00520901 0 0.000251698)
(0.00545744 0 0.000274035)
(0.00567676 0 0.000296573)
(0.00587103 0 0.000319337)
(0.00604412 0 0.000342296)
(0.00619975 0 0.000365349)
(0.00634145 0 0.000388313)
(0.00647257 0 0.000410899)
(0.00659616 0 0.0004327)
(0.00671486 0 0.000453176)
(0.00683058 0 0.00047166)
(0.00694426 0 0.000487396)
(0.00705544 0 0.000499633)
(0.00716192 0 0.000507792)
(0.00725963 0 0.000511724)
(0.00734301 0 0.000512031)
(0.00740641 0 0.000510331)
(0.00744669 0 0.00050916)
(0.00746662 0 0.000511017)
(0.00747545 0 0.000515917)
(0.00750353 0 0.000529615)
(0 0 0)
(0.000823407 0 3.40038e-05)
(0.00157692 0 6.56327e-05)
(0.00224588 0 9.46669e-05)
(0.00283931 0 0.000121745)
(0.00336531 0 0.000147376)
(0.00383109 0 0.000171968)
(0.00424316 0 0.000195849)
(0.00460741 0 0.000219276)
(0.0049292 0 0.000242451)
(0.00521344 0 0.000265527)
(0.00546469 0 0.000288604)
(0.00568718 0 0.00031174)
(0.00588486 0 0.000334935)
(0.00606147 0 0.000358134)
(0.00622048 0 0.000381214)
(0.00636512 0 0.000403976)
(0.0064983 0 0.000426133)
(0.00662249 0 0.000447308)
(0.0067396 0 0.000467041)
(0.00685073 0 0.000484812)
(0.00695595 0 0.000500099)
(0.00705403 0 0.000512473)
(0.0071424 0 0.000521731)
(0.00721725 0 0.000528051)
(0.00727427 0 0.000532097)
(0.00731008 0 0.000534942)
(0.00732445 0 0.000537674)
(0.00732278 0 0.000540631)
(0.00731645 0 0.000542914)
(0.0073293 0 0.00054148)
(0 0 0)
(0.000821766 0 3.58544e-05)
(0.00157393 0 6.91922e-05)
(0.00224195 0 9.97699e-05)
(0.00283489 0 0.00012825)
(0.00336086 0 0.000155161)
(0.00382706 0 0.00018092)
(0.00424 0 0.000205861)
(0.00460553 0 0.000230244)
(0.00492901 0 0.000254267)
(0.00521531 0 0.000278074)
(0.00546892 0 0.000301757)
(0.00569399 0 0.000325357)
(0.00589436 0 0.00034886)
(0.00607357 0 0.000372197)
(0.00623488 0 0.000395237)
(0.00638119 0 0.000417783)
(0.00651501 0 0.000439573)
(0.00663833 0 0.000460281)
(0.0067525 0 0.000479543)
(0.00685805 0 0.000496984)
(0.00695453 0 0.000512286)
(0.00704045 0 0.000525258)
(0.00711326 0 0.00053593)
(0.00716971 0 0.000544614)
(0.00720648 0 0.000551871)
(0.00722126 0 0.00055829)
(0.00721419 0 0.000563991)
(0.00718957 0 0.000568013)
(0.00715857 0 0.000568779)
(0.00710248 0 0.000563745)
(0 0 0)
(0.000819758 0 3.75736e-05)
(0.00157025 0 7.24972e-05)
(0.00223706 0 0.000104504)
(0.00282927 0 0.000134276)
(0.00335497 0 0.000162356)
(0.00382137 0 0.000189172)
(0.00423494 0 0.000215061)
(0.00460151 0 0.000240284)
(0.00492637 0 0.000265037)
(0.00521436 0 0.000289456)
(0.00546988 0 0.000313625)
(0.00569699 0 0.000337575)
(0.00589938 0 0.000361285)
(0.00608042 0 0.000384679)
(0.00624313 0 0.00040763)
(0.00639013 0 0.000429957)
(0.00652359 0 0.000451431)
(0.00664511 0 0.000471791)
(0.00675568 0 0.000490763)
(0.00685549 0 0.000508104)
(0.00694393 0 0.000523648)
(0.00701954 0 0.000537367)
(0.00708017 0 0.000549422)
(0.00712332 0 0.00056018)
(0.00714668 0 0.000570163)
(0.00714883 0 0.000579884)
(0.00713001 0 0.000589645)
(0.00709301 0 0.000599479)
(0.0070457 0 0.000609968)
(0.00688578 0 0.000590717)
(0 0 0)
(0.000828779 0 0)
(0.00158594 0 0)
(0.00225585 0 0)
(0.00284697 0 0)
(0.00336691 0 0)
(0.0038224 0 0)
(0.00421946 0 0)
(0.00456338 0 0)
(0.00485879 0 0)
(0.00510972 0 0)
(0.00531961 0 0)
(0.00549131 0 0)
(0.0056271 0 0)
(0.00572867 0 0)
(0.00579701 0 0)
(0.00583242 0 0)
(0.0058343 0 0)
(0.00580104 0 0)
(0.00572977 0 0)
(0.00561607 0 0)
(0.00545365 0 0)
(0.00523395 0 0)
(0.00494598 0 0)
(0.00457649 0 0)
(0.00411132 0 0)
(0.00353954 0 0)
(0.00286349 0 0)
(0.00212292 0 0)
(0.00145661 0 0)
(0 0 0)
(0 0 0)
(0.000828726 0 2.98381e-06)
(0.00158589 0 5.76741e-06)
(0.00225582 0 8.33912e-06)
(0.00284699 0 1.07624e-05)
(0.003367 0 1.30899e-05)
(0.00382262 0 1.53669e-05)
(0.00421984 0 1.76335e-05)
(0.00456397 0 1.99275e-05)
(0.00485967 0 2.22864e-05)
(0.00511097 0 2.47498e-05)
(0.00532134 0 2.73626e-05)
(0.00549366 0 3.01785e-05)
(0.00563028 0 3.32655e-05)
(0.00573293 0 3.67125e-05)
(0.00580272 0 4.06403e-05)
(0.00584007 0 4.52164e-05)
(0.00584459 0 5.06778e-05)
(0.00581494 0 5.7364e-05)
(0.00574869 0 6.57666e-05)
(0.00564201 0 7.6601e-05)
(0.00548949 0 9.09089e-05)
(0.00528389 0 0.000110198)
(0.00501608 0 0.000136619)
(0.00467543 0 0.000173147)
(0.00425139 0 0.000223672)
(0.00373764 0 0.000292738)
(0.00314168 0 0.000384225)
(0.00250621 0 0.000497106)
(0.00195763 0 0.000612659)
(0.00108203 0 0.000895632)
(0 0 0)
(0.000828688 0 5.95501e-06)
(0.00158585 0 1.15103e-05)
(0.00225584 0 1.66422e-05)
(0.00284716 0 2.1477e-05)
(0.00336739 0 2.61195e-05)
(0.00382334 0 3.06593e-05)
(0.00422103 0 3.51761e-05)
(0.0045658 0 3.97443e-05)
(0.00486233 0 4.44373e-05)
(0.00511471 0 4.93323e-05)
(0.0053265 0 5.4516e-05)
(0.00550067 0 6.00913e-05)
(0.0056397 0 6.61868e-05)
(0.00574552 0 7.29701e-05)
(0.00581952 0 8.06655e-05)
(0.00586251 0 8.95818e-05)
(0.00587464 0 0.00010015)
(0.00585541 0 0.000112983)
(0.0058035 0 0.000128952)
(0.00571679 0 0.000149313)
(0.00559228 0 0.000175862)
(0.00542622 0 0.000211157)
(0.0052144 0 0.00025877)
(0.00495303 0 0.000323519)
(0.0046405 0 0.000411473)
(0.00428104 0 0.000529208)
(0.00389148 0 0.000681086)
(0.00351302 0 0.000861646)
(0.00322889 0 0.00103647)
(0.00286016 0 0.00137672)
(0 0 0)
(0.00082864 0 8.90028e-06)
(0.00158581 0 1.72026e-05)
(0.00225591 0 2.48707e-05)
(0.00284745 0 3.20926e-05)
(0.00336806 0 3.90238e-05)
(0.00382456 0 4.57973e-05)
(0.00422301 0 5.25303e-05)
(0.00456879 0 5.93319e-05)
(0.00486667 0 6.63085e-05)
(0.00512081 0 7.35708e-05)
(0.00533486 0 8.12415e-05)
(0.00551198 0 8.9464e-05)
(0.00565485 0 9.84147e-05)
(0.0057657 0 0.00010832)
(0.00584633 0 0.000119477)
(0.00589812 0 0.000132287)
(0.00592207 0 0.000147303)
(0.00591881 0 0.000165288)
(0.00588869 0 0.000187309)
(0.00583191 0 0.000214857)
(0.00574878 0 0.000250007)
(0.00564017 0 0.000295615)
(0.00550823 0 0.000355514)
(0.00535756 0 0.000434627)
(0.00519681 0 0.000538729)
(0.00504066 0 0.000673286)
(0.00491115 0 0.000840058)
(0.00483513 0 0.0010289)
(0.0048308 0 0.00120047)
(0.00494529 0 0.00149097)
(0 0 0)
(0.000828568 0 1.18055e-05)
(0.00158575 0 2.28165e-05)
(0.00225598 0 3.29837e-05)
(0.00284782 0 4.25547e-05)
(0.00336892 0 5.17341e-05)
(0.00382615 0 6.0696e-05)
(0.00422562 0 6.95933e-05)
(0.00457278 0 7.85662e-05)
(0.00487245 0 8.77505e-05)
(0.00512892 0 9.72848e-05)
(0.00534599 0 0.00010732)
(0.005527 0 0.000118027)
(0.0056749 0 0.000129615)
(0.00579227 0 0.000142341)
(0.00588142 0 0.000156539)
(0.00594441 0 0.000172644)
(0.00598318 0 0.000191236)
(0.00599966 0 0.000213092)
(0.00599599 0 0.000239255)
(0.00597483 0 0.000271118)
(0.00593985 0 0.000310521)
(0.00589637 0 0.000359835)
(0.00585233 0 0.000422001)
(0.00581939 0 0.000500414)
(0.00581395 0 0.000598443)
(0.00585687 0 0.000718204)
(0.00596939 0 0.000857845)
(0.00615875 0 0.00100609)
(0.00638313 0 0.00113229)
(0.00683688 0 0.0013322)
(0 0 0)
(0.000828462 0 1.4656e-05)
(0.00158563 0 2.83236e-05)
(0.00225601 0 4.09391e-05)
(0.00284819 0 5.28073e-05)
(0.00336989 0 6.41799e-05)
(0.00382801 0 7.52695e-05)
(0.00422872 0 8.62613e-05)
(0.00457754 0 9.73237e-05)
(0.00487938 0 0.000108616)
(0.00513867 0 0.0001203)
(0.00535934 0 0.000132542)
(0.00554496 0 0.000145533)
(0.00569876 0 0.000159491)
(0.00582371 0 0.00017468)
(0.00592263 0 0.000191428)
(0.00599826 0 0.000210145)
(0.00605345 0 0.000231354)
(0.00609135 0 0.000255715)
(0.0061157 0 0.000284059)
(0.00613124 0 0.000317406)
(0.00614425 0 0.000356962)
(0.00616323 0 0.000404065)
(0.00619974 0 0.000460013)
(0.00626909 0 0.000525721)
(0.00639039 0 0.000601089)
(0.00658448 0 0.00068402)
(0.00686666 0 0.000769173)
(0.00722751 0 0.000846884)
(0.00758964 0 0.000903068)
(0.00828752 0 0.000990485)
(0 0 0)
(0.000828306 0 1.74375e-05)
(0.00158543 0 3.36955e-05)
(0.00225595 0 4.86949e-05)
(0.0028485 0 6.27952e-05)
(0.00337086 0 7.6292e-05)
(0.00382999 0 8.94334e-05)
(0.00423211 0 0.000102434)
(0.00458281 0 0.000115486)
(0.00488712 0 0.000128768)
(0.00514956 0 0.000142454)
(0.00537425 0 0.000156724)
(0.00556497 0 0.000171768)
(0.00572521 0 0.0001878)
(0.00585831 0 0.000205065)
(0.00596754 0 0.000223849)
(0.00605627 0 0.000244491)
(0.00612808 0 0.000267388)
(0.00618708 0 0.000292995)
(0.00623816 0 0.00032181)
(0.00628738 0 0.000354331)
(0.00634243 0 0.000390957)
(0.00641311 0 0.000431808)
(0.00651174 0 0.000476406)
(0.0066531 0 0.0005232)
(0.00685339 0 0.000568907)
(0.00712698 0 0.000607891)
(0.00747846 0 0.000632221)
(0.00788576 0 0.000634175)
(0.00826465 0 0.000615143)
(0.00900356 0 0.000526468)
(0 0 0)
(0.000828075 0 2.01361e-05)
(0.00158509 0 3.89053e-05)
(0.00225571 0 5.62119e-05)
(0.00284864 0 7.24667e-05)
(0.0033717 0 8.80059e-05)
(0.00383191 0 0.00010311)
(0.00423555 0 0.00011802)
(0.00458829 0 0.000132947)
(0.00489524 0 0.000148083)
(0.00516106 0 0.000163611)
(0.00539001 0 0.00017971)
(0.00558605 0 0.000196564)
(0.00575292 0 0.000214364)
(0.00589428 0 0.000233319)
(0.00601375 0 0.000253648)
(0.00611513 0 0.000275588)
(0.00620256 0 0.000299372)
(0.00628069 0 0.000325212)
(0.00635499 0 0.000353242)
(0.00643197 0 0.000383427)
(0.00651945 0 0.000415417)
(0.00662669 0 0.000448302)
(0.00676419 0 0.000480271)
(0.00694285 0 0.000508164)
(0.00717193 0 0.000527009)
(0.00745506 0 0.000529846)
(0.0077832 0 0.000508691)
(0.00812378 0 0.000458721)
(0.00840531 0 0.000391108)
(0.00882273 0 0.000183731)
(0 0 0)
(0.000827741 0 2.27397e-05)
(0.00158456 0 4.39294e-05)
(0.00225523 0 6.34556e-05)
(0.0028485 0 8.17766e-05)
(0.00337227 0 9.92663e-05)
(0.00383358 0 0.000116235)
(0.0042388 0 0.000132944)
(0.00459365 0 0.00014962)
(0.00490334 0 0.000166465)
(0.00517262 0 0.000183665)
(0.00540588 0 0.00020139)
(0.00560724 0 0.000219809)
(0.00578065 0 0.000239083)
(0.00592995 0 0.000259368)
(0.00605903 0 0.000280807)
(0.00617195 0 0.000303521)
(0.00627309 0 0.000327578)
(0.00636727 0 0.000352953)
(0.00645996 0 0.000379458)
(0.00655736 0 0.000406637)
(0.00666639 0 0.000433604)
(0.00679444 0 0.000458843)
(0.00694873 0 0.000479951)
(0.00713482 0 0.000493399)
(0.00735413 0 0.000494457)
(0.00760001 0 0.000477604)
(0.00785267 0 0.000438137)
(0.00807537 0 0.000376395)
(0.00821967 0 0.000307675)
(0.00825783 0 0.000150509)
(0 0 0)
(0.000827274 0 2.52378e-05)
(0.00158379 0 4.87476e-05)
(0.00225441 0 7.03967e-05)
(0.00284797 0 9.06873e-05)
(0.00337239 0 0.000110027)
(0.0038348 0 0.000128752)
(0.00424159 0 0.000147143)
(0.00459856 0 0.000165438)
(0.00491098 0 0.000183844)
(0.00518368 0 0.000202542)
(0.00542117 0 0.000221695)
(0.00562766 0 0.000241446)
(0.00580723 0 0.00026192)
(0.00596385 0 0.00028322)
(0.00610152 0 0.00030541)
(0.00622439 0 0.0003285)
(0.0063368 0 0.000352414)
(0.00644342 0 0.000376937)
(0.00654928 0 0.000401649)
(0.00665968 0 0.000425832)
(0.00678004 0 0.000448352)
(0.00691537 0 0.000467536)
(0.00706932 0 0.00048109)
(0.00724266 0 0.000486135)
(0.00743107 0 0.000479539)
(0.0076223 0 0.000458812)
(0.0077941 0 0.000423924)
(0.00791622 0 0.000380242)
(0.00796578 0 0.0003417)
(0.00786653 0 0.000308109)
(0 0 0)
(0.00082664 0 2.7621e-05)
(0.0015827 0 5.3342e-05)
(0.00225316 0 7.70096e-05)
(0.00284691 0 9.9166e-05)
(0.00337192 0 0.00012025)
(0.00383536 0 0.000140619)
(0.00424367 0 0.00016057)
(0.00460269 0 0.000180349)
(0.00491775 0 0.000200165)
(0.00519375 0 0.000220193)
(0.00543523 0 0.000240581)
(0.0056465 0 0.000261449)
(0.00583167 0 0.000282883)
(0.00599476 0 0.000304934)
(0.00613978 0 0.000327596)
(0.00627075 0 0.000350789)
(0.00639183 0 0.000374324)
(0.00650724 0 0.000397863)
(0.00662129 0 0.000420859)
(0.00673814 0 0.000442497)
(0.00686151 0 0.000461638)
(0.00699409 0 0.000476797)
(0.00713664 0 0.000486211)
(0.0072868 0 0.000488087)
(0.00743774 0 0.000481156)
(0.00757716 0 0.000465656)
(0.00768793 0 0.000444685)
(0.007753 0 0.000425195)
(0.00776864 0 0.000415755)
(0.00771805 0 0.000444965)
(0 0 0)
(0.000825808 0 2.98812e-05)
(0.00158124 0 5.76967e-05)
(0.00225139 0 8.32716e-05)
(0.00284519 0 0.000107184)
(0.00337069 0 0.0001299)
(0.00383506 0 0.000151797)
(0.00424479 0 0.000173183)
(0.00460574 0 0.000194311)
(0.00492328 0 0.000215389)
(0.00520233 0 0.000236585)
(0.00544748 0 0.00025803)
(0.00566305 0 0.000279819)
(0.00585314 0 0.000302006)
(0.00602174 0 0.000324594)
(0.00617274 0 0.000347524)
(0.00630995 0 0.000370648)
(0.00643717 0 0.00039371)
(0.00655806 0 0.000416309)
(0.00667607 0 0.000437868)
(0.00679418 0 0.000457605)
(0.00691456 0 0.000474537)
(0.00703805 0 0.000487533)
(0.00716347 0 0.000495472)
(0.00728704 0 0.000497553)
(0.00740201 0 0.000493819)
(0.00749921 0 0.000485834)
(0.00756932 0 0.000477245)
(0.00760756 0 0.000473269)
(0.00761956 0 0.000476953)
(0.00762734 0 0.000505355)
(0 0 0)
(0.000824742 0 3.20109e-05)
(0.00157934 0 6.17976e-05)
(0.00224899 0 8.91629e-05)
(0.00284271 0 0.000114717)
(0.00336854 0 0.00013895)
(0.0038337 0 0.000162255)
(0.00424469 0 0.000184951)
(0.0046074 0 0.000207294)
(0.0049272 0 0.00022949)
(0.00520901 0 0.000251698)
(0.00545744 0 0.000274035)
(0.00567676 0 0.000296573)
(0.00587103 0 0.000319337)
(0.00604412 0 0.000342296)
(0.00619975 0 0.000365349)
(0.00634145 0 0.000388313)
(0.00647257 0 0.000410899)
(0.00659616 0 0.0004327)
(0.00671486 0 0.000453176)
(0.00683058 0 0.00047166)
(0.00694426 0 0.000487396)
(0.00705544 0 0.000499633)
(0.00716192 0 0.000507792)
(0.00725963 0 0.000511724)
(0.00734301 0 0.000512031)
(0.00740641 0 0.000510331)
(0.00744669 0 0.00050916)
(0.00746662 0 0.000511017)
(0.00747545 0 0.000515917)
(0.00750353 0 0.000529615)
(0 0 0)
(0.000823407 0 3.40038e-05)
(0.00157692 0 6.56327e-05)
(0.00224588 0 9.46669e-05)
(0.00283931 0 0.000121745)
(0.00336531 0 0.000147376)
(0.00383109 0 0.000171968)
(0.00424316 0 0.000195849)
(0.00460741 0 0.000219276)
(0.0049292 0 0.000242451)
(0.00521344 0 0.000265527)
(0.00546469 0 0.000288604)
(0.00568718 0 0.00031174)
(0.00588486 0 0.000334935)
(0.00606147 0 0.000358134)
(0.00622048 0 0.000381214)
(0.00636512 0 0.000403976)
(0.0064983 0 0.000426133)
(0.00662249 0 0.000447308)
(0.0067396 0 0.000467041)
(0.00685073 0 0.000484812)
(0.00695595 0 0.000500099)
(0.00705403 0 0.000512473)
(0.0071424 0 0.000521731)
(0.00721725 0 0.000528051)
(0.00727427 0 0.000532097)
(0.00731008 0 0.000534942)
(0.00732445 0 0.000537674)
(0.00732278 0 0.000540631)
(0.00731645 0 0.000542914)
(0.0073293 0 0.00054148)
(0 0 0)
(0.000821766 0 3.58544e-05)
(0.00157393 0 6.91922e-05)
(0.00224195 0 9.97699e-05)
(0.00283489 0 0.00012825)
(0.00336086 0 0.000155161)
(0.00382706 0 0.00018092)
(0.00424 0 0.000205861)
(0.00460553 0 0.000230244)
(0.00492901 0 0.000254267)
(0.00521531 0 0.000278074)
(0.00546892 0 0.000301757)
(0.00569399 0 0.000325357)
(0.00589436 0 0.00034886)
(0.00607357 0 0.000372197)
(0.00623488 0 0.000395237)
(0.00638119 0 0.000417783)
(0.00651501 0 0.000439573)
(0.00663833 0 0.000460281)
(0.0067525 0 0.000479543)
(0.00685805 0 0.000496984)
(0.00695453 0 0.000512286)
(0.00704045 0 0.000525258)
(0.00711326 0 0.00053593)
(0.00716971 0 0.000544614)
(0.00720648 0 0.000551871)
(0.00722126 0 0.00055829)
(0.00721419 0 0.000563991)
(0.00718957 0 0.000568013)
(0.00715857 0 0.000568779)
(0.00710248 0 0.000563745)
(0 0 0)
(0.000819758 0 3.75736e-05)
(0.00157025 0 7.24972e-05)
(0.00223706 0 0.000104504)
(0.00282927 0 0.000134276)
(0.00335497 0 0.000162356)
(0.00382137 0 0.000189172)
(0.00423494 0 0.000215061)
(0.00460151 0 0.000240284)
(0.00492637 0 0.000265037)
(0.00521436 0 0.000289456)
(0.00546988 0 0.000313625)
(0.00569699 0 0.000337575)
(0.00589938 0 0.000361285)
(0.00608042 0 0.000384679)
(0.00624313 0 0.00040763)
(0.00639013 0 0.000429957)
(0.00652359 0 0.000451431)
(0.00664511 0 0.000471791)
(0.00675568 0 0.000490763)
(0.00685549 0 0.000508104)
(0.00694393 0 0.000523648)
(0.00701954 0 0.000537367)
(0.00708017 0 0.000549422)
(0.00712332 0 0.00056018)
(0.00714668 0 0.000570163)
(0.00714883 0 0.000579884)
(0.00713001 0 0.000589645)
(0.00709301 0 0.000599479)
(0.0070457 0 0.000609968)
(0.00688578 0 0.000590717)
(0 0 0)
(0.00149928 0 0)
(0.0022084 0 0)
(0.00298116 0 0)
(0.00367628 0 0)
(0.00425517 0 0)
(0.00471915 0 0)
(0.00508256 0 0)
(0.00536194 0 0)
(0.00557204 0 0)
(0.00572474 0 0)
(0.00582902 0 0)
(0.00589141 0 0)
(0.00591637 0 0)
(0.00590678 0 0)
(0.00586419 0 0)
(0.00578913 0 0)
(0.00568124 0 0)
(0.00553945 0 0)
(0.00536203 0 0)
(0.00514665 0 0)
(0.00489044 0 0)
(0.00458993 0 0)
(0.00424112 0 0)
(0.00383941 0 0)
(0.00337956 0 0)
(0.00285567 0 0)
(0.00226113 0 0)
(0.00158854 0 0)
(0.000829652 0 0)
(0 0 0)
(0.00103568 0 -0.000827802)
(0.00198895 0 -0.000544999)
(0.0025882 0 -0.000429057)
(0.00325802 0 -0.000310678)
(0.00387302 0 -0.000213099)
(0.00439353 0 -0.000139272)
(0.00481622 0 -8.58054e-05)
(0.00515085 0 -4.80569e-05)
(0.00541025 0 -2.18555e-05)
(0.00560648 0 -3.92635e-06)
(0.0057495 0 8.14867e-06)
(0.00584698 0 1.61017e-05)
(0.00590453 0 2.11553e-05)
(0.00592603 0 2.41677e-05)
(0.00591393 0 2.5741e-05)
(0.0058695 0 2.62979e-05)
(0.00579307 0 2.61362e-05)
(0.00568417 0 2.54656e-05)
(0.00554161 0 2.44336e-05)
(0.0053636 0 2.31432e-05)
(0.00514778 0 2.16648e-05)
(0.00489122 0 2.00454e-05)
(0.00459045 0 1.83135e-05)
(0.00424145 0 1.64837e-05)
(0.00383959 0 1.45587e-05)
(0.00337964 0 1.25313e-05)
(0.00285569 0 1.03847e-05)
(0.00226111 0 8.09238e-06)
(0.0015885 0 5.61771e-06)
(0.000829613 0 2.91219e-06)
(0 0 0)
(0.00279685 0 -0.00124952)
(0.00323904 0 -0.000898067)
(0.00358535 0 -0.000716949)
(0.00400131 0 -0.000525659)
(0.00440991 0 -0.000363575)
(0.00477586 0 -0.000238304)
(0.00508723 0 -0.000146008)
(0.00534315 0 -7.99052e-05)
(0.00554734 0 -3.34728e-05)
(0.00570486 0 -1.39353e-06)
(0.00582064 0 2.03649e-05)
(0.00589882 0 3.47537e-05)
(0.0059426 0 4.38952e-05)
(0.00595416 0 4.93034e-05)
(0.00593483 0 5.20553e-05)
(0.00588507 0 5.29168e-05)
(0.00580469 0 5.24329e-05)
(0.00569281 0 5.09907e-05)
(0.00554801 0 4.88646e-05)
(0.00536829 0 4.62468e-05)
(0.00515116 0 4.327e-05)
(0.0048936 0 4.00218e-05)
(0.00459207 0 3.65558e-05)
(0.0042425 0 3.28985e-05)
(0.00384022 0 2.9054e-05)
(0.00337997 0 2.50068e-05)
(0.00285583 0 2.07226e-05)
(0.00226114 0 1.61482e-05)
(0.00158849 0 1.121e-05)
(0.000829597 0 5.81128e-06)
(0 0 0)
(0.0048673 0 -0.00129403)
(0.00482378 0 -0.000979489)
(0.00489023 0 -0.000794114)
(0.00500405 0 -0.000591038)
(0.00515336 0 -0.000412766)
(0.00531732 0 -0.000270577)
(0.00547866 0 -0.000162866)
(0.00562577 0 -8.38423e-05)
(0.00575192 0 -2.7195e-05)
(0.00585365 0 1.25801e-05)
(0.00592949 0 3.98716e-05)
(0.00597896 0 5.80255e-05)
(0.00600195 0 6.95329e-05)
(0.00599835 0 7.62244e-05)
(0.00596785 0 7.94358e-05)
(0.00590982 0 8.0138e-05)
(0.00582322 0 7.90342e-05)
(0.00570666 0 7.66317e-05)
(0.00555829 0 7.32943e-05)
(0.00537584 0 6.92794e-05)
(0.00515662 0 6.47652e-05)
(0.00489745 0 5.98699e-05)
(0.0045947 0 5.46649e-05)
(0.0042442 0 4.91843e-05)
(0.00384124 0 4.34303e-05)
(0.00338052 0 3.73772e-05)
(0.00285605 0 3.09722e-05)
(0.00226118 0 2.41348e-05)
(0.00158846 0 1.67543e-05)
(0.000829566 0 8.6855e-06)
(0 0 0)
(0.00676964 0 -0.00104096)
(0.00636347 0 -0.000810446)
(0.00618944 0 -0.0006671)
(0.00603504 0 -0.000504364)
(0.0059437 0 -0.00035472)
(0.00591163 0 -0.000229619)
(0.00592106 0 -0.000130663)
(0.0059537 0 -5.52823e-05)
(0.00599485 0 4.49851e-07)
(0.00603394 0 4.0522e-05)
(0.00606371 0 6.84537e-05)
(0.00607926 0 8.71442e-05)
(0.00607718 0 9.88889e-05)
(0.00605497 0 0.000105462)
(0.00601055 0 0.000108211)
(0.00594204 0 0.00010815)
(0.00584751 0 0.000106035)
(0.00572488 0 0.000102421)
(0.00557185 0 9.7715e-05)
(0.00538582 0 9.22083e-05)
(0.00516382 0 8.61039e-05)
(0.00490252 0 7.95365e-05)
(0.00459813 0 7.2586e-05)
(0.0042464 0 6.52876e-05)
(0.00384253 0 5.76381e-05)
(0.00338117 0 4.95987e-05)
(0.00285629 0 4.10965e-05)
(0.00226119 0 3.2023e-05)
(0.00158837 0 2.22301e-05)
(0.000829497 0 1.15242e-05)
(0 0 0)
(0.00822988 0 -0.000574007)
(0.0075606 0 -0.000459425)
(0.00723306 0 -0.000390173)
(0.00690196 0 -0.000302161)
(0.00664151 0 -0.000211326)