/*--------------------------------*- C++ -*----------------------------------*\
  =========                 |
  \\      /  F ield         | OpenFOAM: The Open Source CFD Toolbox
   \\    /   O peration     | Website:  https://openfoam.org
    \\  /    A nd           | Version:  7
     \\/     M anipulation  |
\*---------------------------------------------------------------------------*/
FoamFile
{
    version     2.0;
    format      ascii;
    class       volVectorField;
    location    "0.1";
    object      U;
}
// * * * * * * * * * * * * * * * * * * * * * * * * * * * * * * * * * * * * * //

dimensions      [0 1 -1 0 0 0 0];

internalField   nonuniform List<vector> 
2790
(
(9.93977 0 0.0199058)
(9.8773 0 0.0282682)
(9.78349 0 0.0338825)
(9.66402 8.21137e-24 0.0394396)
(9.52609 2.14414e-21 0.0448857)
(9.37203 0 0.0500567)
(9.20231 0 0.0550177)
(9.01736 2.38633e-21 0.0599229)
(8.81781 -3.13481e-22 0.0649487)
(8.60401 3.2108e-22 0.0702838)
(8.37586 0 0.0761207)
(8.13274 0 0.0826436)
(7.87365 0 0.0900178)
(7.59726 0 0.0983842)
(7.30206 -4.54176e-23 0.107857)
(6.98647 3.47146e-21 0.118521)
(6.6489 0 0.13043)
(6.28795 8.04165e-21 0.143604)
(5.90249 -8.3566e-21 0.158019)
(5.49179 0 0.173606)
(5.05568 0 0.190242)
(4.59465 0 0.207751)
(4.10994 0 0.225907)
(3.60363 0 0.244458)
(3.07858 0 0.263161)
(2.53834 -1.14451e-19 0.281825)
(1.97983 3.77041e-19 0.301317)
(1.53373 -5.42557e-19 0.309075)
(0.522135 0 0.347696)
(0.869229 0 0.371481)
(9.99431 0 0.0391117)
(9.98226 0 0.0594812)
(9.94061 -4.03996e-21 0.0753677)
(9.86974 4.1282e-21 0.0921785)
(9.77443 -6.35476e-21 0.109743)
(9.65645 0 0.127414)
(9.51617 5.67244e-22 0.145021)
(9.35423 1.74732e-21 0.162657)
(9.1717 0 0.180541)
(8.96961 0 0.199007)
(8.74857 2.66126e-21 0.218471)
(8.50873 -5.51302e-21 0.239386)
(8.24972 -2.91249e-21 0.262187)
(7.9708 0 0.287258)
(7.67086 -3.20387e-21 0.314907)
(7.3486 6.75045e-21 0.34534)
(7.0026 4.33169e-20 0.378647)
(6.63151 7.91924e-22 0.414783)
(6.23413 -3.19261e-20 0.453544)
(5.80959 0 0.494548)
(5.35752 0 0.537223)
(4.87812 0 0.580804)
(4.3724 0 0.624358)
(3.84221 9.1294e-20 0.666841)
(3.29028 -4.974e-19 0.707206)
(2.72057 1.60881e-18 0.744527)
(2.12515 3.60168e-19 0.779524)
(1.64781 1.02859e-18 0.796419)
(0.605842 -4.14969e-18 0.846185)
(0.886865 1.82668e-18 0.861711)
(9.99142 0 0.0408273)
(9.97641 0 0.0714474)
(9.93667 4.03011e-21 0.0993354)
(9.87015 -8.08911e-21 0.129126)
(9.78005 4.0826e-21 0.160709)
(9.66783 5.44372e-22 0.193067)
(9.53378 3.90016e-21 0.225627)
(9.37833 -1.19699e-23 0.258254)
(9.2024 -2.41357e-21 0.291126)
(9.00689 -2.49922e-21 0.324688)
(8.79241 6.59234e-23 0.359585)
(8.55911 1.17107e-22 0.396573)
(8.30669 7.02839e-23 0.436421)
(8.03442 2.39028e-20 0.479837)
(7.74122 -1.23561e-20 0.527419)
(7.42575 6.53638e-21 0.579609)
(7.08652 -1.39385e-20 0.636659)
(6.72198 0 0.698592)
(6.3307 -6.32513e-20 0.765169)
(5.91148 -1.01937e-19 0.835843)
(5.46347 1.3962e-19 0.909725)
(4.9864 -3.75858e-20 0.985563)
(4.48068 0 1.06175)
(3.94761 -8.68727e-20 1.1364)
(3.38945 8.45998e-19 1.20742)
(2.81052 -1.20118e-18 1.27267)
(2.19706 1.53522e-18 1.33248)
(1.70961 -1.6509e-18 1.36806)
(0.665212 -2.57669e-19 1.43255)
(0.891865 5.08736e-18 1.4479)
(9.98984 0 0.0462784)
(9.97265 0 0.0882216)
(9.93277 0 0.128751)
(9.86761 4.2193e-21 0.171157)
(9.77943 -1.30104e-22 0.215694)
(9.6696 5.39741e-22 0.261405)
(9.53851 4.95764e-21 0.307529)
(9.3866 -1.48031e-20 0.353809)
(9.21472 7.04091e-21 0.400439)
(9.02373 7.34048e-21 0.447996)
(8.81421 -5.06335e-21 0.497348)
(8.58629 0 0.549531)
(8.33966 1.10802e-20 0.605619)
(8.07358 -1.16666e-20 0.666631)
(7.78696 -2.47218e-20 0.733448)
(7.47843 1.2484e-20 0.806758)
(7.14638 0 0.887006)
(6.78915 2.83728e-20 0.974345)
(6.40506 -6.10287e-20 1.06857)
(5.99256 1.26774e-19 1.16908)
(5.55039 0 1.27477)
(5.07771 -3.5483e-20 1.38401)
(4.57432 -7.6347e-20 1.49463)
(4.04087 -7.44348e-19 1.60392)
(3.479 1.31884e-18 1.70872)
(2.89361 -5.60236e-19 1.80544)
(2.26508 0 1.89366)
(1.76879 1.5519e-18 1.9525)
(0.727677 -1.90778e-18 2.03025)
(0.895288 -5.20476e-19 2.04289)
(9.98911 1.54974e-20 0.0531531)
(9.97074 9.22213e-23 0.104836)
(9.93081 -6.22354e-23 0.156578)
(9.86692 0 0.210745)
(9.78079 8.27867e-21 0.267696)
(9.67358 -1.06946e-21 0.326452)
(9.5457 1.04891e-21 0.386001)
(9.39762 9.03024e-21 0.44588)
(9.23016 -4.65441e-23 0.50623)
(9.04414 -1.44996e-20 0.567719)
(8.84012 1.50224e-20 0.631413)
(8.61824 0 0.698615)
(8.37817 -1.09181e-20 0.770707)
(8.11918 2.30111e-20 0.849022)
(7.84016 -2.35253e-20 0.934744)
(7.53966 -2.52558e-20 1.02884)
(7.21599 2.58717e-20 1.13199)
(6.86732 -8.34393e-20 1.24454)
(6.49169 5.73019e-20 1.36639)
(6.08719 -3.07586e-20 1.49697)
(5.65206 -1.30977e-19 1.63506)
(5.18483 1.36343e-19 1.77877)
(4.68456 4.39557e-19 1.92541)
(4.15111 7.20149e-21 2.07142)
(3.58527 -2.44368e-19 2.21249)
(2.99261 -8.00723e-19 2.34326)
(2.3478 1.61447e-18 2.4618)
(1.83664 -2.46638e-18 2.54562)
(0.79764 1.77063e-18 2.63467)
(0.895946 4.87112e-19 2.63875)
(9.98879 -3.0972e-20 0.0606526)
(9.96998 0 0.121448)
(9.93039 1.58169e-20 0.183853)
(9.86801 -8.0422e-21 0.249573)
(9.78429 -8.75836e-21 0.31874)
(9.68018 8.91986e-21 0.390233)
(9.55606 -9.74921e-21 0.462807)
(9.41245 1.10438e-21 0.535824)
(9.25015 -4.57609e-21 0.609394)
(9.06997 2.37412e-23 0.684293)
(8.87246 1.46873e-20 0.761792)
(8.65776 0 0.843467)
(8.42554 0 0.931012)
(8.17509 -2.2439e-20 1.02608)
(7.90525 2.28971e-20 1.13018)
(7.61454 -2.4054e-20 1.24457)
(7.30115 0 1.37024)
(6.96305 -5.37469e-20 1.50775)
(6.59801 2.74034e-20 1.65724)
(6.20367 1.18545e-19 1.81826)
(5.77769 3.34552e-20 1.98961)
(5.31783 -6.30927e-20 2.16928)
(4.82222 -6.92169e-20 2.35414)
(4.28964 7.33429e-20 2.5399)
(3.71964 0 2.72098)
(3.11806 7.0678e-19 2.88999)
(2.45428 -7.90143e-19 3.04268)
(1.9192 0 3.15514)
(0.877225 2.53998e-20 3.25706)
(0.893421 1.10972e-19 3.24738)
(9.98872 7.25685e-23 0.0683815)
(9.96996 0 0.137941)
(9.93113 4.83166e-23 0.210471)
(9.87056 -8.06123e-21 0.287287)
(9.78962 0 0.368219)
(9.68909 -8.35016e-21 0.45195)
(9.56934 0 0.537035)
(9.43089 0 0.622679)
(9.27457 0 0.708958)
(9.10117 4.58618e-21 0.796741)
(8.91123 4.70532e-21 0.887499)
(8.70492 1.01128e-20 0.983071)
(8.48194 -2.06273e-20 1.08546)
(8.24156 0 1.19664)
(7.98266 0 1.31846)
(7.7037 2.35758e-20 1.45252)
(7.40278 4.94712e-20 1.60014)
(7.07769 -1.02142e-19 1.76222)
(6.72589 7.9655e-20 1.9392)
(6.34457 0 2.13091)
(5.9307 8.89079e-20 2.33639)
(5.48115 -1.21582e-19 2.55364)
(4.99285 3.19552e-20 2.77939)
(4.46318 0 3.00877)
(3.88981 0 3.23504)
(3.27812 3.8615e-20 3.44875)
(2.59249 0 3.64261)
(2.02296 3.08174e-19 3.79122)
(0.967857 -3.06913e-19 3.91264)
(0.887893 -5.11973e-19 3.89267)
(9.9888 1.54808e-20 0.0761075)
(9.97045 1.20969e-22 0.15413)
(9.93275 -1.59134e-20 0.236272)
(9.87433 8.90745e-23 0.323677)
(9.79653 1.5834e-20 0.41588)
(9.70006 -1.6675e-20 0.511336)
(9.58526 1.58392e-21 0.60839)
(9.45267 -1.07394e-21 0.706098)
(9.30311 4.48141e-21 0.804498)
(9.1374 -4.62856e-21 0.904547)
(8.95608 -1.90573e-20 1.0079)
(8.75935 -9.76361e-21 1.11666)
(8.54696 -4.75055e-23 1.23312)
(8.31822 3.1645e-20 1.35961)
(8.07203 -4.36394e-20 1.49831)
(7.80685 2.24199e-20 1.65119)
(7.52074 -2.33446e-20 1.81997)
(7.21133 -2.52816e-20 2.00595)
(6.8758 2.52144e-20 2.21002)
(6.51089 0 2.43245)
(6.11288 1.12038e-19 2.67271)
(5.67762 -1.1456e-19 2.92917)
(5.20062 -4.55416e-20 3.19873)
(4.67742 -1.56352e-20 3.47634)
(4.10314 0 3.75448)
(3.48154 0 4.02188)
(2.77218 0 4.26789)
(2.15806 -3.82205e-20 4.46519)
(1.07772 1.25216e-21 4.61908)
(0.884918 1.94345e-19 4.60683)
(9.98897 0 0.0836814)
(9.9713 0 0.169846)
(9.93508 0 0.261109)
(9.87912 1.5761e-20 0.358566)
(9.80484 -3.19344e-20 0.4615)
(9.71289 1.58168e-20 0.568112)
(9.60359 1.60299e-20 0.676531)
(9.47751 3.20123e-21 0.785668)
(9.33546 1.52275e-20 0.895521)
(9.17829 -3.14548e-20 1.00712)
(9.00658 4.59592e-21 1.12231)
(8.82056 2.28233e-22 1.24343)
(8.62006 0 1.37307)
(8.40446 -2.02646e-20 1.51389)
(8.17273 2.13392e-20 1.66842)
(7.92338 -2.16547e-20 1.83904)
(7.65447 2.28467e-20 2.02789)
(7.36356 2.37255e-20 2.23678)
(7.04762 -9.67331e-20 2.46714)
(6.70302 1.00839e-19 2.71989)
(6.32538 -5.17847e-20 2.9952)
(5.90949 1.09592e-19 3.29218)
(5.44931 2.444e-21 3.60844)
(4.93815 -9.80001e-20 3.93935)
(4.36786 0 4.27734)
(3.73909 0 4.61008)
(3.00642 0 4.92354)
(2.33956 3.82121e-20 5.18782)
(1.22293 7.88964e-20 5.39331)
(0.895324 0 5.41132)
(9.98921 0 0.091)
(9.97243 1.56578e-20 0.184947)
(9.93796 -4.80041e-22 0.284835)
(9.88479 -1.59948e-20 0.391783)
(9.81437 1.63422e-20 0.504858)
(9.72736 2.5237e-22 0.622003)
(9.62408 -3.20022e-20 0.741127)
(9.50509 -1.04161e-21 0.860994)
(9.37126 -1.94176e-20 0.981561)
(9.22342 6.82316e-21 1.10393)
(9.06223 -4.49789e-21 1.2301)
(8.88798 1.87746e-20 1.36263)
(8.70058 0 1.50441)
(8.49955 3.99609e-20 1.65841)
(8.28395 -2.02547e-20 1.82752)
(8.05243 0 2.01452)
(7.80311 2.15047e-20 2.22201)
(7.53359 -2.21574e-20 2.45238)
(7.24079 5.80481e-22 2.70772)
(6.9208 3.63726e-20 2.98978)
(6.56874 -4.87546e-20 3.29973)
(6.17848 5.1125e-20 3.63787)
(5.7424 -3.86197e-20 4.00315)
(5.25139 -3.4402e-21 4.39232)
(4.69338 6.83702e-21 4.79892)
(4.06417 0 5.21092)
(3.31252 -1.48123e-20 5.61175)
(2.58744 3.29957e-20 5.96836)
(1.42172 1.46948e-19 6.25248)
(0.929967 -1.13988e-19 6.32032)
(9.98951 0 0.0979875)
(9.97378 -3.02181e-20 0.199312)
(9.9413 4.7716e-22 0.307315)
(9.89119 1.49812e-20 0.423168)
(9.82495 1.60393e-20 0.545752)
(9.74328 -1.6286e-20 0.67276)
(9.64647 1.62248e-20 0.801878)
(9.53513 0 0.931722)
(9.41012 1.46435e-20 1.0622)
(9.27234 1.95171e-20 1.19447)
(9.12249 0 1.33067)
(8.96096 -9.16718e-21 1.47357)
(8.78778 9.27509e-21 1.62632)
(8.60261 0 1.79217)
(8.40471 0 1.97438)
(8.19289 2.00707e-20 2.17612)
(7.96548 -2.10774e-20 2.40046)
(7.72024 2.12052e-20 2.65038)
(7.45417 6.61643e-20 2.92875)
(7.16339 -2.19872e-20 3.23829)
(6.84274 -2.3212e-20 3.58145)
(6.48548 2.34359e-20 3.96019)
(6.08271 5.89973e-21 4.37555)
(5.62298 0 4.82686)
(5.09007 1.89232e-20 5.3105)
(4.47318 -3.22071e-20 5.81713)
(3.71351 2.03109e-20 6.33015)
(2.9298 3.37708e-21 6.81463)
(1.6981 -7.69512e-21 7.22059)
(1.00244 -2.52203e-21 7.36924)
(9.98985 0 0.104586)
(9.97529 1.50379e-20 0.212846)
(9.94502 0 0.328431)
(9.89821 -1.51793e-20 0.452575)
(9.83645 -1.54926e-20 0.584002)
(9.76044 3.12958e-20 0.720162)
(9.67052 -3.12302e-23 0.858517)
(9.56729 -1.60877e-20 0.997536)
(9.45166 -1.66394e-20 1.13707)
(9.32456 0 1.27831)
(9.18677 0 1.42351)
(9.03878 0 1.57564)
(8.88079 0 1.73806)
(8.71264 -1.84303e-20 1.91428)
(8.53382 0 2.10789)
(8.34341 -7.44768e-23 2.32242)
(8.14005 -3.99228e-20 2.56141)
(7.92181 2.01155e-20 2.82843)
(7.68603 -2.06713e-20 3.12714)
(7.42909 2.1182e-20 3.46132)
(7.14604 2.16516e-20 3.83491)
(6.83005 -1.10784e-20 4.25192)
(6.47162 4.23026e-22 4.71623)
(6.05767 -6.98109e-22 5.23104)
(5.56836 0 5.79788)
(4.98539 5.91562e-21 6.41388)
(4.24054 8.67408e-20 7.06803)
(3.41069 -1.93669e-19 7.73009)
(2.09792 1.99603e-19 8.33225)
(1.14244 -1.36927e-19 8.63578)
(9.99022 0 0.110752)
(9.97694 2.95778e-20 0.225468)
(9.94903 -1.48823e-20 0.348076)
(9.90574 1.07548e-21 0.479878)
(9.8487 -9.49999e-22 0.619451)
(9.77866 -1.55086e-20 0.764015)
(9.69597 0 0.910814)
(9.60125 1.60204e-20 1.05816)
(9.49546 1.71441e-20 1.20584)
(9.37956 -1.02919e-21 1.35507)
(9.25443 -4.25116e-21 1.50818)
(9.12068 4.29141e-21 1.6683)
(8.97868 -4.4381e-21 1.83897)
(8.82851 1.36063e-20 2.02394)
(8.66993 9.13941e-21 2.22705)
(8.50239 1.85183e-20 2.45216)
(8.32493 2.84333e-20 2.70321)
(8.13611 -9.65322e-21 2.98432)
(7.93385 -9.88781e-21 3.29988)
(7.71518 -2.25432e-22 3.65473)
(7.47587 -9.82726e-21 4.05433)
(7.2098 -1.95505e-20 4.50492)
(6.908 -1.59146e-20 5.01373)
(6.55737 5.22486e-21 5.58901)
(6.13652 3.96968e-20 6.23983)
(5.6211 -3.85987e-20 6.97476)
(4.93406 -7.80664e-20 7.7982)
(4.1 8.85554e-22 8.7019)
(2.7122 7.85262e-20 9.62705)
(1.41901 5.61944e-22 10.2685)
(9.99062 2.9637e-20 0.116449)
(9.9787 -7.1033e-22 0.237112)
(9.95328 1.67088e-20 0.366166)
(9.91369 1.31119e-20 0.50497)
(9.86158 0 0.65197)
(9.79773 -1.90893e-21 0.804168)
(9.72255 9.53109e-22 0.958589)
(9.63667 9.74409e-22 1.11339)
(9.54107 -1.60172e-20 1.26828)
(9.43679 0 1.42446)
(9.32478 0 1.58435)
(9.20581 1.66611e-20 1.75116)
(9.08042 2.12625e-20 1.92859)
(8.94897 -8.71879e-21 2.12057)
(8.81154 1.33232e-20 2.33111)
(8.66799 -2.72067e-20 2.56434)
(8.51789 -1.85196e-20 2.82452)
(8.36043 9.26142e-21 3.11618)
(8.19436 -1.37521e-20 3.44433)
(8.01774 -4.6655e-21 3.81468)
(7.82764 4.33942e-22 4.23405)
(7.61962 9.54496e-21 4.71077)
(7.38682 -1.37978e-20 5.25536)
(7.11862 4.49167e-20 5.88148)
(6.7963 -1.76535e-20 6.60724)
(6.3956 -1.1022e-21 7.45713)
(5.83959 -2.74176e-20 8.46316)
(5.10402 8.63452e-20 9.6706)
(3.72675 -1.06974e-19 11.1151)
(2.002 5.44634e-20 12.5931)
(9.99104 -3.0074e-20 0.12165)
(9.98053 -2.83569e-20 0.247729)
(9.95772 -1.83207e-21 0.382625)
(9.92195 1.83918e-21 0.527751)
(9.87493 -1.66362e-20 0.681427)
(9.81746 1.87003e-21 0.840446)
(9.75 0 1.00162)
(9.6732 1.52747e-20 1.16296)
(9.58807 0 1.32407)
(9.49571 1.57227e-20 1.48614)
(9.39715 0 1.6516)
(9.29332 -1.75407e-20 1.82376)
(9.18497 -3.22086e-20 2.00638)
(9.07271 -2.11742e-21 2.20351)
(8.95702 2.12895e-21 2.41931)
(8.8382 2.13932e-20 2.65803)
(8.7164 -4.3502e-21 2.92413)
(8.59161 0 3.22241)
(8.46357 1.75898e-20 3.55825)
(8.33168 -8.58027e-21 3.93794)
(8.19486 8.90993e-21 4.3692)
(8.05128 0 4.86182)
(7.8978 3.73919e-21 5.42879)
(7.72937 -4.16646e-21 6.08805)
(7.53599 -3.57312e-21 6.86557)
(7.30552 0 7.80136)
(6.98711 -1.66638e-21 8.95993)
(6.56308 -1.9473e-21 10.4676)
(5.56407 -9.0457e-21 12.6101)
(3.37176 1.20167e-20 16.4694)
(0.632572 0 0.221515)
(-1.38555 5.46823e-19 0.210343)
(-0.86219 -5.08853e-19 0.211759)
(-1.77047 0 0.188062)
(-2.08168 0 0.159713)
(-2.41515 1.02646e-19 0.111441)
(-2.63698 -1.00163e-19 0.0541872)
(-2.718 0 -0.00989213)
(-2.64167 0 -0.0793119)
(-2.40075 0 -0.147144)
(-2.00943 8.96444e-21 -0.207297)
(-1.4674 4.07766e-21 -0.253226)
(-0.818022 -3.55132e-21 -0.283393)
(-0.0909354 0 -0.297722)
(0.665152 2.68469e-22 -0.298109)
(1.43969 0 -0.288039)
(2.2027 -2.37276e-22 -0.270846)
(2.93522 9.01946e-22 -0.2492)
(3.62456 -3.75033e-22 -0.225223)
(4.26268 -3.50482e-22 -0.20055)
(4.84539 2.8093e-22 -0.176367)
(5.37145 -1.30574e-22 -0.15347)
(5.84177 -9.49354e-23 -0.132341)
(6.25874 6.83311e-23 -0.113215)
(6.62562 0 -0.0961491)
(6.94613 0 -0.0810778)
(7.22413 0 -0.0678602)
(7.46336 0 -0.0563255)
(7.66744 0 -0.0463375)
(7.8761 -5.52637e-24 -0.0385939)
(0.677321 0 0.694086)
(-1.38812 -2.61121e-19 0.706829)
(-0.924607 -7.23581e-19 0.661612)
(-1.85695 9.1352e-19 0.609414)
(-2.19563 0 0.51903)
(-2.55368 0 0.382261)
(-2.78705 0 0.214086)
(-2.87236 -4.57861e-20 0.0236259)
(-2.78673 0 -0.179177)
(-2.52526 -7.14832e-20 -0.373889)
(-2.09898 8.07451e-20 -0.54576)
(-1.51902 1.7134e-20 -0.675416)
(-0.829355 -2.54177e-20 -0.762659)
(-0.0656242 -9.69294e-21 -0.807165)
(0.722185 8.65572e-21 -0.814495)
(1.52488 -2.74184e-21 -0.793075)
(2.31259 2.27941e-21 -0.75169)
(3.06726 0 -0.697401)
(3.7769 0 -0.635849)
(4.43401 2.3271e-22 -0.571425)
(5.03481 -1.71558e-22 -0.50737)
(5.57829 1.25933e-22 -0.44592)
(6.06552 -9.35539e-23 -0.388487)
(6.49892 -6.63081e-23 -0.335835)
(6.88174 5.04585e-24 -0.288249)
(7.21763 -3.23031e-24 -0.245678)
(7.51034 8.22016e-23 -0.207849)
(7.7635 0 -0.174381)
(7.98027 0 -0.144937)
(8.20036 5.42469e-24 -0.120111)
(0.598085 0 1.18906)
(-1.39973 4.90907e-19 1.23424)
(-1.06089 -2.29517e-19 1.14941)
(-2.01669 2.1942e-19 1.05995)
(-2.41337 -1.02785e-18 0.893831)
(-2.81549 4.12719e-19 0.656644)
(-3.07493 2.93706e-19 0.362565)
(-3.17042 -4.62921e-20 0.02976)
(-3.07034 0 -0.324065)
(-2.77567 6.84936e-20 -0.661117)
(-2.29266 -6.81537e-20 -0.955199)
(-1.66244 -7.45883e-21 -1.17346)
(-0.921142 -6.34623e-21 -1.31616)
(-0.108409 0 -1.38526)
(0.712916 4.81056e-22 -1.39177)
(1.5411 0 -1.35129)
(2.34592 -1.95379e-21 -1.27819)
(3.1111 1.84998e-21 -1.18418)
(3.82619 -1.08387e-21 -1.07861)
(4.48504 6.36985e-22 -0.968732)
(5.08496 1.35785e-21 -0.859883)
(5.62588 -3.95733e-22 -0.755713)
(6.10957 6.9181e-22 -0.658507)
(6.53899 -1.00542e-23 -0.569484)
(6.91774 -1.78217e-23 -0.489072)
(7.24973 -9.79199e-24 -0.417146)
(7.53886 1.46862e-24 -0.35322)
(7.7888 -4.7137e-23 -0.296609)
(8.00259 -3.27139e-23 -0.246568)
(8.22018 -1.017e-26 -0.202783)
(0.477028 -5.13976e-19 1.77082)
(-1.42114 -2.08441e-18 1.82617)
(-1.28933 2.20377e-19 1.70974)
(-2.26653 1.44898e-18 1.57434)
(-2.75211 -6.0359e-21 1.32377)
(-3.21185 0 0.972116)
(-3.50241 -2.75878e-19 0.533633)
(-3.59636 4.45568e-19 0.033189)
(-3.46255 0 -0.493581)
(-3.10118 0 -0.992272)
(-2.53651 -1.52497e-20 -1.41326)
(-1.8285 -3.76402e-20 -1.71918)
(-1.01357 3.55655e-20 -1.91108)
(-0.138237 1.85667e-20 -1.99391)
(0.725455 -4.52518e-22 -1.98814)
(1.58467 0 -1.9198)
(2.40935 -3.74085e-21 -1.80832)
(3.18569 3.56068e-21 -1.66973)
(3.90539 0 -1.51683)
(4.56411 0 -1.35947)
(5.16067 -3.63513e-22 -1.2048)
(5.69623 -2.81135e-22 -1.05762)
(6.17348 3.75409e-24 -0.92087)
(6.59607 2.63035e-22 -0.796035)
(6.96809 -3.66937e-22 -0.68354)
(7.29376 -9.78805e-24 -0.583077)
(7.57713 -8.31959e-23 -0.49387)
(7.82196 4.66418e-23 -0.41487)
(8.03123 6.66882e-23 -0.344901)
(8.24456 0 -0.28305)
(0.329741 -1.6928e-18 2.46528)
(-1.47442 1.74503e-18 2.50807)
(-1.59744 -3.0862e-19 2.36682)
(-2.61026 0 2.16959)
(-3.20363 1.86498e-19 1.8171)
(-3.72282 0 1.32445)
(-4.03294 0 0.71033)
(-4.09878 4.44155e-20 0.00683586)
(-3.89378 1.45276e-19 -0.723682)
(-3.43109 -1.40766e-19 -1.399)
(-2.76546 0 -1.94578)
(-1.95795 -6.71905e-21 -2.33283)
(-1.05815 4.4931e-20 -2.56223)
(-0.119375 -3.91325e-20 -2.64416)
(0.788042 -1.17252e-20 -2.61322)
(1.67683 1.18436e-20 -2.50727)
(2.51874 3.58638e-21 -2.35002)
(3.30279 -3.43228e-21 -2.16137)
(4.02319 -1.1444e-21 -1.95726)
(4.67771 -7.58354e-22 -1.74982)
(5.26692 1.0199e-21 -1.5477)
(5.79332 -6.56071e-23 -1.35662)
(6.26065 -6.34673e-22 -1.17994)
(6.67328 3.40492e-22 -1.01926)
(7.03578 7.36527e-22 -0.874852)
(7.35269 9.79581e-24 -0.746145)
(7.62822 0 -0.632001)
(7.86619 -9.77814e-23 -0.530967)
(8.06952 2.15432e-24 -0.441426)
(8.27715 -6.07291e-26 -0.36196)
(0.151197 1.07906e-19 3.29169)
(-1.56773 0 3.312)
(-1.96461 8.83483e-19 3.13938)
(-3.02544 -1.48958e-18 2.85761)
(-3.72087 3.20489e-19 2.37557)
(-4.28205 3.70095e-19 1.70396)
(-4.58142 -4.8899e-20 0.86676)
(-4.57973 -4.18336e-20 -0.081079)
(-4.2629 1.43271e-19 -1.04408)
(-3.67539 -1.38425e-19 -1.90002)
(-2.89111 -4.67613e-20 -2.56725)
(-1.98079 6.78829e-20 -3.02029)
(-0.998708 -2.70669e-21 -3.26862)
(-0.0110381 1.08207e-21 -3.33181)
(0.932697 -2.51315e-21 -3.2625)
(1.84162 0 -3.10867)
(2.6918 -5.38301e-21 -2.89794)
(3.47518 4.44724e-21 -2.65366)
(4.18856 -1.42118e-21 -2.39456)
(4.83195 1.6737e-21 -2.13467)
(5.40769 0 -1.88383)
(5.91964 2.06833e-22 -1.64837)
(6.37251 -1.26199e-22 -1.43184)
(6.77133 -5.86851e-22 -1.23572)
(7.1211 -3.79578e-22 -1.06003)
(7.42655 9.8245e-24 -0.903803)
(7.69201 0 -0.765469)
(7.92129 9.77875e-23 -0.643128)
(8.11721 -3.67602e-23 -0.534712)
(8.31767 0 -0.43832)
(-0.0461598 1.05188e-19 4.25173)
(-1.69349 4.93657e-19 4.2441)
(-2.34106 -2.77429e-19 4.02358)
(-3.44421 0 3.6312)
(-4.21188 5.53544e-20 2.98046)
(-4.78079 -6.04985e-21 2.07995)
(-5.0277 -3.22286e-19 0.969347)
(-4.90988 5.27227e-19 -0.26612)
(-4.45367 -1.5731e-19 -1.47649)
(-3.73123 1.32474e-19 -2.50666)
(-2.82951 -1.26418e-19 -3.27821)
(-1.8302 4.05546e-20 -3.77509)
(-0.78302 -7.66905e-21 -4.01869)
(0.226489 -3.72189e-20 -4.04476)
(1.19012 1.30991e-20 -3.9261)
(2.10237 -1.09648e-20 -3.7154)
(2.94586 1.83723e-21 -3.44451)
(3.71538 1.39914e-21 -3.14009)
(4.41031 0 -2.82322)
(5.0328 1.9421e-23 -2.50949)
(5.58688 1.23523e-21 -2.20953)
(6.07759 2.03862e-22 -1.92997)
(6.51045 -2.00675e-22 -1.67428)
(6.89094 -5.17862e-22 -1.44367)
(7.2243 -5.00505e-24 -1.23773)
(7.51535 2.74221e-22 -1.05503)
(7.76835 3.49228e-22 -0.893504)
(7.98705 0 -0.750782)
(8.17407 -1.82372e-25 -0.624338)
(8.36587 1.80235e-25 -0.511797)
(-0.234555 0 5.32239)
(-1.80793 -1.8734e-19 5.28293)
(-2.64084 -8.93776e-20 4.9914)
(-3.76069 -8.77165e-20 4.45658)
(-4.55429 -1.09568e-20 3.59482)
(-5.08774 5.79754e-21 2.41642)
(-5.2368 1.93867e-19 0.985263)
(-4.96129 -3.61891e-19 -0.573105)
(-4.35768 3.1064e-19 -2.02912)
(-3.50667 -1.50831e-19 -3.21511)
(-2.51061 -7.33213e-21 -4.06397)
(-1.45186 -4.69098e-20 -4.57791)
(-0.374556 4.61284e-20 -4.79102)
(0.62665 1.45446e-20 -4.76472)
(1.58511 -1.066e-20 -4.58871)
(2.47811 4.73858e-21 -4.31439)
(3.29502 6.79675e-21 -3.97856)
(4.03353 -3.10984e-21 -3.61118)
(4.69545 3.0191e-21 -3.2354)
(5.28494 -4.07878e-21 -2.86786)
(5.80744 -1.19681e-21 -2.51963)
(6.26891 0 -2.19728)
(6.67535 0 -1.904)
(7.03244 5.07499e-22 -1.64053)
(7.3454 0 -1.40593)
(7.61889 -2.61935e-22 -1.19823)
(7.85696 -3.52594e-22 -1.01486)
(8.06312 -2.04751e-22 -0.852947)
(8.23973 -8.89165e-23 -0.709538)
(8.42143 -2.55113e-23 -0.581794)
(-0.370852 0 6.45859)
(-1.84038 1.35351e-19 6.3798)
(-2.76586 8.58719e-20 5.99057)
(-3.85584 0 5.28433)
(-4.61918 0 4.17396)
(-5.06736 -1.04339e-19 2.67277)
(-5.06653 1.17889e-19 0.875881)
(-4.62288 2.55932e-20 -1.01536)
(-3.88287 -9.94149e-20 -2.69581)
(-2.93303 9.26407e-21 -4.0045)
(-1.88338 6.91869e-20 -4.89719)
(-0.801601 0 -5.39742)
(0.23612 0 -5.55515)
(1.21232 0 -5.47132)
(2.13388 -2.89934e-21 -5.2318)
(2.98099 -4.45013e-21 -4.88946)
(3.74791 -3.41595e-21 -4.48634)
(4.43542 3.14906e-22 -4.05555)
(5.04768 3.09645e-22 -3.62181)
(5.59054 3.79098e-21 -3.20237)
(6.07051 5.14006e-22 -2.80829)
(6.49403 0 -2.44579)
(6.86721 6.90982e-22 -2.11752)
(7.19556 -1.0365e-21 -1.82363)
(7.48397 0 -1.5626)
(7.73668 0 -1.33187)
(7.95734 0 -1.12836)
(8.14903 2.09178e-22 -0.948747)
(8.31375 8.56649e-23 -0.789652)
(8.48394 2.55406e-23 -0.647814)
(-0.421818 -3.85081e-19 7.59529)
(-1.71912 1.58761e-19 7.45598)
(-2.62464 0 6.95033)
(-3.62005 -4.95868e-20 6.05635)
(-4.29353 -5.80151e-20 4.67046)
(-4.60633 3.74006e-21 2.81052)
(-4.39294 0 0.61693)
(-3.79861 -2.54084e-20 -1.58689)
(-2.96384 -3.92068e-20 -3.44935)
(-1.96745 8.06694e-20 -4.83879)
(-0.921635 0 -5.7376)
(0.113068 -1.29864e-20 -6.18969)
(1.0761 0 -6.28577)
(1.99386 2.07358e-20 -6.14173)
(2.84363 -7.06677e-21 -5.83422)
(3.61485 -4.38838e-21 -5.42218)
(4.30611 -3.36824e-21 -4.95241)
(4.92116 -2.54542e-21 -4.46057)
(5.46623 -8.78154e-22 -3.97237)
(5.94842 -6.36646e-22 -3.50508)
(6.37471 -1.16037e-21 -3.06935)
(6.75158 0 -2.67075)
(7.08474 -2.01831e-21 -2.31124)
(7.37913 -6.10494e-23 -1.99027)
(7.63897 -2.04796e-23 -1.70569)
(7.86783 2.03493e-23 -1.45441)
(8.06871 9.24823e-24 -1.23286)
(8.24411 -9.17996e-24 -1.03731)
(8.39557 0 -0.864018)
(8.55293 -1.4746e-23 -0.70936)
(-0.364308 -2.4396e-20 8.61969)
(-1.38912 1.79231e-19 8.40363)
(-2.1407 1.00163e-20 7.78031)
(-2.96033 -4.57612e-20 6.69748)
(-3.47203 -1.19101e-19 5.01753)
(-3.57526 7.23192e-20 2.77291)
(-3.11056 -3.63306e-20 0.206282)
(-2.42143 2.55003e-20 -2.25628)
(-1.56383 -8.07889e-20 -4.2443)
(-0.593778 -1.72411e-21 -5.67078)
(0.366537 1.25823e-20 -6.52798)
(1.2803 -3.65066e-20 -6.91512)
(2.1548 2.05224e-20 -6.95723)
(2.96933 -6.9206e-21 -6.74919)
(3.71031 -5.34518e-21 -6.37245)
(4.37394 4.13313e-21 -5.89267)
(4.96313 6.45427e-21 -5.36055)
(5.48433 0 -4.81335)
(5.94524 0 -4.27697)
(6.35345 -3.01972e-21 -3.7682)
(6.71579 2.33641e-21 -3.29688)
(7.03809 4.9317e-23 -2.86769)
(7.32516 -7.91788e-23 -2.48179)
(7.58095 2.04086e-21 -2.13791)
(7.80868 6.96329e-23 -1.83331)
(8.01098 -7.04856e-23 -1.56443)
(8.18999 -3.35513e-22 -1.32729)
(8.3475 -2.40976e-23 -1.11783)
(8.48446 5.16632e-24 -0.932039)
(8.62783 3.15274e-23 -0.765984)
(-0.191077 2.33911e-20 9.37738)
(-0.820226 -1.17354e-20 9.09023)
(-1.26873 2.62672e-20 8.372)
(-1.8372 5.95411e-20 7.12622)
(-2.11807 0 5.21934)
(-1.87197 9.42198e-20 2.62325)
(-1.15512 1.94193e-21 -0.285691)
(-0.478151 4.98544e-20 -2.95788)
(0.317584 1.05176e-20 -5.03691)
(1.12989 2.0633e-21 -6.39717)
(1.94384 1.42971e-20 -7.20911)
(2.72715 -2.52277e-21 -7.55445)
(3.45873 -1.98527e-21 -7.53814)
(4.12378 0 -7.26424)
(4.71736 -5.82654e-21 -6.82163)
(5.24186 -4.60236e-21 -6.28088)
(5.70392 -3.10232e-21 -5.69499)
(6.11179 0 -5.1017)
(6.47366 0 -4.52639)
(6.79667 2.60067e-21 -3.98481)
(7.08662 4.98129e-22 -3.4857)
(7.348 -1.93736e-21 -3.03277)
(7.58422 -1.84476e-23 -2.62631)
(7.79781 -9.72431e-22 -2.26443)
(7.99068 -5.69642e-23 -1.94389)
(8.16429 0 -1.66076)
(8.31979 -1.39996e-23 -1.41077)
(8.45812 0 -1.18965)
(8.57959 0 -0.993203)
(8.70799 -1.33748e-23 -0.8173)
(0.0826271 -1.7099e-19 9.72318)
(-0.0305514 0 9.41259)
(-0.0136104 -2.64557e-19 8.71142)
(-0.249482 1.95408e-19 7.42419)
(-0.0842352 0 5.15551)
(0.581287 0 2.1106)
(1.35762 -1.29167e-19 -0.905989)
(1.91315 9.57985e-20 -3.55672)
(2.53637 9.19965e-20 -5.6012)
(3.1895 -3.44593e-20 -6.98643)
(3.82834 0 -7.77315)
(4.42108 3.2383e-20 -8.06746)
(4.95426 -6.93256e-21 -7.99096)
(5.42409 7.06793e-21 -7.65627)
(5.8339 1.55018e-20 -7.15759)
(6.19119 9.48328e-21 -6.5682)
(6.50502 -3.08345e-21 -5.94177)
(6.78414 2.41655e-21 -5.3154)
(7.03586 -1.06655e-21 -4.71319)
(7.26575 -1.62175e-22 -4.14956)
(7.47766 -2.0985e-21 -3.63197)
(7.67409 3.50626e-21 -3.16317)
(7.8565 2.72451e-21 -2.74275)
(8.02567 1.91342e-22 -2.3683)
(8.18198 -1.15365e-22 -2.03627)
(8.32557 5.83688e-22 -1.74251)
(8.45649 7.92874e-22 -1.48262)
(8.57477 -1.14098e-23 -1.25224)
(8.68004 9.4885e-24 -1.04711)
(8.79273 -1.51205e-24 -0.862998)
(0.460038 -7.12671e-20 9.47826)
(0.997799 0 9.21807)
(1.57966 -1.1373e-19 8.61022)
(1.8689 2.53219e-19 7.25375)
(2.5278 -2.33103e-19 4.89641)
(3.40777 0 1.91114)
(4.09754 -6.90093e-20 -1.25115)
(4.60531 8.14012e-20 -3.99418)
(5.09323 -2.14778e-20 -6.06766)
(5.54913 3.16027e-20 -7.43104)
(5.95238 0 -8.17051)
(6.29543 -1.93725e-20 -8.41016)
(6.58107 1.85952e-20 -8.27996)
(6.81717 -1.53949e-20 -7.89758)
(7.01446 0 -7.35965)
(7.18406 -5.77033e-21 -6.73976)
(7.33574 -2.33424e-21 -6.09054)
(7.47699 6.63398e-22 -5.44742)
(7.61284 -3.67388e-21 -4.83273)
(7.74611 -2.903e-21 -4.25936)
(7.87789 2.28794e-21 -3.73365)
(8.00807 -1.76218e-21 -3.25753)
(8.13583 2.92574e-23 -2.83012)
(8.25998 0 -2.44878)
(8.37923 -7.25181e-22 -2.10986)
(8.49237 -6.92154e-23 -1.80919)
(8.5983 -3.99688e-22 -1.54242)
(8.69614 5.22066e-22 -1.30523)
(8.78484 0 -1.09343)
(8.88137 2.53131e-23 -0.902796)
(1.078 2.38417e-19 8.27464)
(2.37404 0 8.41032)
(3.46925 2.45302e-20 8.03075)
(4.27847 5.65811e-20 6.68544)
(5.22995 2.10201e-19 4.36011)
(6.31457 -1.52115e-19 1.34868)
(7.04246 5.58003e-20 -1.75416)
(7.52193 -1.36878e-19 -4.40887)
(7.85572 -3.58059e-20 -6.39593)
(8.07313 -2.84592e-20 -7.68556)
(8.19566 0 -8.36077)
(8.24751 0 -8.54755)
(8.25248 -1.43003e-20 -8.37741)
(8.2313 1.11553e-20 -7.96789)
(8.20108 0 -7.41399)
(8.17468 7.09932e-21 -6.7868)
(8.16057 0 -6.13619)
(8.16328 0 -5.4951)
(8.18421 3.58844e-21 -4.88386)
(8.22252 -2.54872e-23 -4.31397)
(8.27595 -2.49844e-21 -3.7909)
(8.34152 5.68207e-23 -3.3162)
(8.41597 -1.02405e-21 -2.88885)
(8.49611 -1.5489e-22 -2.50628)
(8.57902 -2.04134e-23 -2.16502)
(8.66216 -5.89033e-22 -1.8611)
(8.74335 0 -1.5904)
(8.82084 -2.28267e-24 -1.3488)
(8.89296 2.02182e-23 -1.13229)
(8.97316 -6.06054e-23 -0.936776)
(9.99148 -2.75813e-20 0.126418)
(9.98246 -1.73803e-21 0.257456)
(9.96238 -2.08858e-24 0.397694)
(9.93063 2.96866e-20 0.548583)
(9.88893 1.57806e-22 0.708324)
(9.83816 0 0.873503)
(9.77878 0 1.04073)
(9.7115 -1.46881e-20 1.20783)
(9.63733 -1.46652e-20 1.37431)
(9.55745 -1.69851e-20 1.5413)
(9.47298 9.39758e-22 1.71126)
(9.385 9.59626e-22 1.88748)
(9.29448 1.5781e-20 2.07379)
(9.20232 -1.56059e-20 2.27427)
(9.10938 0 2.49312)
(9.01648 -3.11627e-20 2.73463)
(8.92441 -1.00885e-21 3.00331)
(8.83402 0 3.304)
(8.74619 -8.22917e-21 3.64216)
(8.66192 8.17313e-21 4.02422)
(8.58236 -7.7744e-21 4.45812)
(8.50896 7.70629e-21 4.95404)
(8.44363 -7.60873e-21 5.52566)
(8.38945 0 6.1922)
(8.35088 3.34688e-21 6.98195)
(8.34195 2.53833e-21 7.93962)
(8.37924 -3.83727e-21 9.13827)
(8.61764 -2.49074e-21 10.7136)
(9.56728 1.36792e-21 12.8673)
(10.4604 -2.75584e-21 16.4045)
(9.99195 5.27477e-20 0.130756)
(9.98448 8.40285e-22 0.26629)
(9.96726 0 0.411338)
(9.93969 -3.05338e-22 0.56738)
(9.90351 1.62483e-22 0.732496)
(9.85964 0 0.903078)
(9.8086 -1.02938e-20 1.07552)
(9.7511 1.04087e-20 1.24749)
(9.6882 2.28048e-22 1.41837)
(9.62111 0 1.58921)
(9.55105 0 1.76242)
(9.47925 0 1.94129)
(9.40689 1.46502e-20 2.12962)
(9.33517 1.32751e-20 2.33144)
(9.26532 1.87958e-21 2.55092)
(9.19866 1.34668e-20 2.79226)
(9.13666 1.89123e-21 3.05982)
(9.081 7.38545e-21 3.35826)
(9.03375 0 3.69277)
(8.99746 0 4.06938)
(8.97553 0 4.49539)
(8.97266 6.6587e-21 4.98003)
(8.99569 6.26576e-21 5.53527)
(9.0555 5.74085e-21 6.17723)
(9.16979 9.88387e-21 6.92789)
(9.37386 -1.60942e-20 7.81789)
(9.7215 3.61806e-21 8.88575)
(10.309 1.74258e-21 10.1797)
(11.4512 2.07728e-21 11.6297)
(12.639 -4.24008e-21 12.8119)
(9.99243 -1.9004e-21 0.134586)
(9.98658 1.62326e-21 0.274079)
(9.97231 -3.25591e-21 0.423349)
(9.94905 -4.90168e-20 0.583889)
(9.91855 1.32237e-20 0.753664)
(9.88178 -3.31218e-21 0.92887)
(9.83927 1.67485e-20 1.1057)
(9.79177 -1.35469e-20 1.28163)
(9.74034 1.36844e-20 1.45592)
(9.68624 -1.35751e-20 1.62951)
(9.63078 0 1.80473)
(9.5753 1.031e-20 1.98479)
(9.52119 -1.07278e-20 2.17343)
(9.46993 3.53779e-21 2.37457)
(9.42308 -3.31046e-24 2.5922)
(9.38245 -1.10985e-23 2.83034)
(9.35008 -3.54419e-21 3.09302)
(9.32844 -2.09915e-20 3.3845)
(9.32059 6.94406e-21 3.70933)
(9.33045 0 4.07264)
(9.3632 0 4.48037)
(9.42593 -6.42734e-21 4.93955)
(9.52871 -1.16257e-20 5.45858)
(9.68635 -5.5295e-21 6.0473)
(9.92047 0 6.71639)
(10.2644 -2.33024e-21 7.47525)
(10.761 7.89529e-21 8.32283)
(11.4405 -2.0589e-21 9.24204)
(12.4269 -1.12467e-22 10.1642)
(13.7706 3.0409e-21 10.8275)
(9.99293 -2.35759e-20 0.137857)
(9.98872 -1.56699e-21 0.28072)
(9.97748 0 0.433562)
(9.95862 5.04061e-20 0.597877)
(9.93391 0 0.771514)
(9.90436 -6.26327e-21 0.950485)
(9.87051 -6.39458e-21 1.13078)
(9.83312 -6.45584e-21 1.3097)
(9.79327 6.48897e-21 1.48632)
(9.75224 2.55416e-22 1.6615)
(9.71139 6.60094e-21 1.83743)
(9.67219 -2.67122e-20 2.0172)
(9.63618 1.33423e-20 2.20442)
(9.60506 6.50183e-21 2.40282)
(9.58072 0 2.61616)
(9.56531 0 2.84812)
(9.56137 6.57567e-21 3.10229)
(9.57199 -1.27576e-20 3.3823)
(9.60095 6.44472e-21 3.69182)
(9.65307 0 4.03474)
(9.73459 0 4.41515)
(9.85376 0 4.83735)
(10.0216 5.41199e-21 5.30555)