/*--------------------------------*- C++ -*----------------------------------*\
  =========                 |
  \\      /  F ield         | OpenFOAM: The Open Source CFD Toolbox
   \\    /   O peration     | Website:  https://openfoam.org
    \\  /    A nd           | Version:  7
     \\/     M anipulation  |
\*---------------------------------------------------------------------------*/
FoamFile
{
    version     2.0;
    format      ascii;
    class       surfaceVectorField;
    location    "0.1";
    object      Uf;
}
// * * * * * * * * * * * * * * * * * * * * * * * * * * * * * * * * * * * * * //

dimensions      [0 1 -1 0 0 0 0];

internalField   nonuniform List<vector> 
5457
(
(9.92282 0 0.0241377)
(9.96704 0 0.0375693)
(9.82978 0 0.0311096)
(9.92978 0 0.0464034)
(9.72074 4.15574e-24 0.0366949)
(9.86205 -2.01998e-21 0.0557366)
(9.59344 1.08918e-21 0.0421958)
(9.76688 2.0682e-21 0.0666757)
(9.44831 1.05903e-21 0.0475026)
(9.65026 -2.10551e-21 0.0778926)
(9.28647 0 0.0525673)
(9.51424 0 0.0890045)
(9.10896 1.20764e-21 0.0575001)
(9.35924 2.83622e-22 0.100021)
(8.91661 1.02006e-21 0.0624663)
(9.18579 2.06692e-21 0.111056)
(8.70989 7.66578e-24 0.0676486)
(8.99476 -1.5674e-22 0.122289)
(8.48886 1.58596e-22 0.0732376)
(8.78681 1.6054e-22 0.133966)
(8.25314 0 0.0794216)
(8.56222 1.33063e-21 0.146381)
(8.00191 0 0.0863753)
(8.32073 -2.75651e-21 0.159841)
(7.73401 0 0.0942516)
(8.06168 -1.45625e-21 0.174634)
(7.44802 -2.29835e-23 0.103178)
(7.78403 0 0.191007)
(7.14237 1.73431e-21 0.113253)
(7.48646 -1.62364e-21 0.209152)
(6.81546 1.71471e-21 0.124547)
(7.16753 5.11095e-21 0.229196)
(6.46581 4.06958e-21 0.137097)
(6.82575 2.16584e-20 0.251183)
(6.09212 -2.56065e-22 0.150899)
(6.45973 4.41679e-21 0.275071)
(5.69347 -4.12743e-21 0.165908)
(6.06831 -2.01413e-20 0.300712)
(5.26941 0 0.182027)
(5.65069 0 0.327837)
(4.82008 0 0.199105)
(5.2066 0 0.356053)
(4.34637 0 0.216943)
(4.73639 0 0.384837)
(3.84996 0 0.235302)
(4.24118 0 0.413553)
(3.33335 0 0.253933)
(3.72293 4.56481e-20 0.441492)
(2.79978 -5.79428e-20 0.272621)
(3.18445 -2.48713e-19 0.467947)
(2.25301 1.34362e-19 0.2917)
(2.62948 7.47076e-19 0.492313)
(1.69572 -8.58972e-20 0.305485)
(2.05253 3.68358e-19 0.515312)
(1.14795 -2.6824e-19 0.327885)
(1.59084 2.43335e-19 0.520311)
(0.570961 0 0.360725)
(0.56408 -2.0764e-18 0.56109)
(0.878253 9.14184e-19 0.569811)
(9.99801 0 0.04942)
(9.99287 0 0.0385406)
(9.96245 -2.04464e-21 0.0675214)
(9.97933 0 0.0641392)
(9.90312 9.3909e-23 0.0838755)
(9.93864 -5.79659e-24 0.0860614)
(9.82077 -1.17709e-21 0.101068)
(9.86995 -1.97987e-21 0.109811)
(9.71484 -3.13874e-21 0.118686)
(9.77724 -1.13642e-21 0.134744)
(9.58575 2.87067e-22 0.136324)
(9.66214 2.72186e-22 0.16)
(9.43445 1.1644e-21 0.153946)
(9.52497 2.23371e-21 0.185278)
(9.26208 8.6307e-22 0.171707)
(9.36628 8.67583e-22 0.210578)
(9.06968 0 0.189886)
(9.18705 -1.20678e-21 0.236102)
(8.85803 1.34674e-21 0.208857)
(8.98825 -1.24961e-21 0.262246)
(8.62748 -1.47552e-21 0.229055)
(8.77049 1.36359e-21 0.28955)
(8.37792 -4.19685e-21 0.250924)
(8.53392 -2.69796e-21 0.318622)
(8.10879 -1.43863e-21 0.274874)
(8.27821 -1.42044e-21 0.350072)
(7.81915 -1.62131e-21 0.30125)
(8.00261 1.19514e-20 0.384449)
(7.50779 1.8335e-21 0.330307)
(7.70604 -7.78e-21 0.422207)
(7.17334 2.5255e-20 0.362195)
(7.38717 6.6423e-21 0.463674)
(6.81442 2.17988e-20 0.396934)
(7.04456 1.46867e-20 0.50902)
(6.42973 -1.5762e-20 0.434399)
(6.67674 3.95963e-22 0.558234)
(6.01824 -1.5769e-20 0.474296)
(6.28241 -4.75887e-20 0.611091)
(5.57932 0 0.516147)
(5.86054 -5.09682e-20 0.667126)
(5.11289 0 0.559283)
(5.41049 6.98098e-20 0.7256)
(4.61957 0 0.602854)
(4.93226 -1.8793e-20 0.785501)
(4.1008 4.62092e-20 0.645871)
(4.42654 0 0.845551)
(3.55891 -2.0669e-19 0.687289)
(3.89491 2.18318e-21 0.904272)
(2.99711 5.68521e-19 0.726125)
(3.33987 1.74384e-19 0.960099)
(2.41951 9.76801e-19 0.762238)
(2.76555 2.03517e-19 1.01149)
(1.83003 7.02902e-19 0.788673)
(2.16111 9.47833e-19 1.0589)
(1.23351 -1.60858e-18 0.819891)
(1.67872 -3.1196e-19 1.08474)
(0.630391 -1.14122e-18 0.856286)
(0.635544 -2.20173e-18 1.14515)
(0.889325 3.45923e-18 1.16369)
(9.99068 0 0.0563232)
(9.99063 0 0.0430776)
(9.95803 2.03965e-21 0.0855616)
(9.97453 0 0.0804225)
(9.90201 -2.10337e-21 0.114412)
(9.93472 2.01505e-21 0.114695)
(9.82389 -1.92914e-21 0.14511)
(9.86888 -1.93449e-21 0.150727)
(9.72331 2.29198e-21 0.177085)
(9.77974 1.97625e-21 0.188726)
(9.60024 2.2426e-21 0.209545)
(9.66872 5.42057e-22 0.227675)
(9.45533 1.92037e-21 0.242138)
(9.53614 4.42864e-21 0.266932)
(9.28951 -1.22732e-21 0.274889)
(9.38247 -7.40775e-21 0.306318)
(9.10369 -2.45676e-21 0.30811)
(9.20856 2.31367e-21 0.346018)
(8.89861 -1.20113e-21 0.342348)
(9.01531 2.42079e-21 0.386542)
(8.67461 9.14758e-23 0.378303)
(8.80331 -2.49857e-21 0.428645)
(8.43162 9.30908e-23 0.416738)
(8.5727 5.85534e-23 0.473219)
(8.16911 1.21306e-20 0.458391)
(8.32317 5.57525e-21 0.521185)
(7.88617 5.55384e-21 0.503916)
(8.054 6.1178e-21 0.573404)
(7.58159 -2.79568e-21 0.55383)
(7.76409 -1.8539e-20 0.630613)
(7.25394 -3.82484e-21 0.608479)
(7.45209 9.50985e-21 0.693375)
(6.90169 -6.88493e-21 0.668)
(7.11645 -6.96926e-21 0.762036)
(6.52336 -3.20085e-20 0.732284)
(6.75556 1.41863e-20 0.836682)
(6.11762 -8.28383e-20 0.800935)
(6.36788 -6.214e-20 0.917088)
(5.68344 2.02786e-20 0.873234)
(5.95202 1.24191e-20 1.00267)
(5.22026 4.99409e-20 0.948109)
(5.50693 6.981e-20 1.09244)
(4.72816 -1.85644e-20 1.02413)
(5.03206 -3.65337e-20 1.18496)
(4.20802 -4.39646e-20 1.09954)
(4.5275 -3.81741e-20 1.27833)
(3.66164 3.85227e-19 1.17236)
(3.99424 -4.15624e-19 1.37028)
(3.09191 -1.89579e-19 1.24048)
(3.43423 1.08244e-18 1.45822)
(2.5029 1.83395e-19 1.3029)
(2.85207 -8.80645e-19 1.53937)
(1.8985 -6.77635e-20 1.35127)
(2.23108 7.67357e-19 1.61383)
(1.28469 -9.46352e-19 1.39863)
(1.73921 -4.86084e-20 1.66206)
(0.671804 2.44677e-18 1.44291)
(0.696467 -1.08353e-18 1.73495)
(0.89355 2.28098e-18 1.75234)
(9.9868 0 0.0675045)
(9.98947 7.74872e-21 0.0495039)
(9.9541 0 0.108734)
(9.9717 4.61107e-23 0.0967316)
(9.89915 2.13537e-21 0.150212)
(9.93179 -3.11177e-23 0.142781)
(9.82242 2.01815e-21 0.193696)
(9.86726 2.10965e-21 0.190915)
(9.72385 2.0889e-22 0.238827)
(9.78011 4.07429e-21 0.241624)
(9.60347 2.77548e-21 0.284747)
(9.67159 -2.6486e-22 0.293875)
(9.46183 -5.04265e-21 0.33095)
(9.5421 3.00331e-21 0.346743)
(9.29981 -3.74871e-21 0.377407)
(9.39211 -2.88638e-21 0.399863)
(9.11828 7.19265e-21 0.424505)
(9.22244 3.49708e-21 0.453396)
(8.91794 1.06351e-21 0.47297)
(9.03394 -3.57959e-21 0.507963)
(8.69911 -2.50106e-21 0.523755)
(8.82717 4.97979e-21 0.564528)
(8.4617 5.60708e-21 0.577914)
(8.60226 0 0.624259)
(8.20519 -4.30606e-22 0.636494)
(8.35891 8.06546e-23 0.688385)
(7.92865 -1.82731e-20 0.700443)
(8.09638 5.67225e-21 0.75808)
(7.63084 -5.8942e-21 0.770545)
(7.81356 -2.41235e-20 0.834376)
(7.31027 6.16665e-21 0.847366)
(7.50904 -6.38583e-21 0.918098)
(6.9653 1.43577e-20 0.931203)
(7.18119 1.29358e-20 1.00981)
(6.59425 -1.68676e-20 1.02203)
(6.82823 -2.75342e-20 1.10974)
(6.1955 3.39975e-20 1.11943)
(6.44837 -1.86369e-21 1.21776)
(5.76764 6.26224e-20 1.22256)
(6.03987 4.80074e-20 1.33324)
(5.30963 -1.79553e-20 1.33005)
(5.60122 -6.54882e-20 1.45504)
(4.82095 -5.61608e-20 1.44)
(5.13127 5.043e-20 1.58138)
(4.30182 -4.14351e-19 1.54994)
(4.62944 1.81605e-19 1.70983)
(3.75347 2.99277e-19 1.65696)
(4.09599 -3.68568e-19 1.83726)
(3.1783 3.68586e-19 1.75769)
(3.53214 5.37184e-19 1.95996)
(2.58032 -2.76845e-19 1.85001)
(2.94312 -6.80494e-19 2.0735)
(1.96428 7.84938e-19 1.92421)
(2.30645 8.07418e-19 2.17687)
(1.33708 -2.14206e-19 1.98994)
(1.80273 -4.58039e-19 2.24839)
(0.712879 -1.20661e-18 2.03896)
(0.762684 -6.73389e-20 2.33181)
(0.895617 -1.63917e-20 2.34107)
(9.98498 7.7014e-21 0.0793084)
(9.98895 -7.73705e-21 0.0568136)
(9.95189 1.4022e-23 0.131023)
(9.97036 4.61106e-23 0.113235)
(9.89797 -3.07384e-23 0.183991)
(9.9306 7.87736e-21 0.170342)
(9.82286 4.18972e-21 0.239567)
(9.86746 -4.02111e-21 0.230254)
(9.72652 3.54778e-21 0.297431)
(9.78254 -2.40007e-22 0.293326)
(9.60905 2.64722e-24 0.356588)
(9.67688 3.92521e-21 0.358478)
(9.47094 5.08798e-21 0.416304)
(9.55088 -4.35039e-21 0.424561)
(9.31304 4.43685e-21 0.476421)
(9.40504 5.06731e-21 0.491024)
(9.13621 -7.36059e-21 0.537346)
(9.24015 -2.31161e-21 0.557999)
(8.94111 4.40257e-22 0.599951)
(9.05706 -7.23761e-21 0.626209)
(8.72805 7.42041e-21 0.66542)
(8.85629 1.48549e-20 0.696824)
(8.49695 -5.52503e-21 0.735096)
(8.638 0 0.771284)
(8.24727 6.25132e-21 0.810337)
(8.40186 -5.45907e-21 0.851126)
(7.97808 -5.38396e-22 0.8924)
(8.14713 2.86024e-22 0.937841)
(7.6881 -2.4401e-20 0.98236)
(7.8727 -3.14081e-22 1.03277)
(7.37576 6.15536e-22 1.08104)
(7.5771 -2.46549e-20 1.13704)
(7.03929 -2.94422e-20 1.18894)
(7.25857 1.29359e-20 1.25145)
(6.67678 -1.22267e-20 1.3062)
(6.91518 -6.85931e-20 1.37648)
(6.2863 1.27424e-20 1.43246)
(6.54485 4.23527e-20 1.51212)
(5.86601 -8.1469e-20 1.56684)
(6.14543 4.38927e-20 1.65786)
(5.41429 4.25333e-21 1.70778)
(5.71488 -4.87614e-20 1.81248)
(4.92994 2.89756e-19 1.85297)
(5.25133 3.6626e-20 1.97402)
(4.41243 2.20916e-19 1.99929)
(4.75339 1.85173e-19 2.13955)
(3.86218 -1.19945e-19 2.1428)
(4.22037 4.02675e-20 2.30514)
(3.28096 -5.25776e-19 2.27867)
(3.65246 -1.22183e-19 2.46585)
(2.67254 4.21287e-19 2.40314)
(3.05534 -4.69616e-20 2.61531)
(2.04242 -4.4551e-19 2.50483)
(2.40104 4.12106e-19 2.75051)
(1.39761 -3.07845e-19 2.58929)
(1.87793 -1.23304e-18 2.84819)
(0.754999 1.1224e-18 2.63841)
(0.837444 8.9781e-19 2.94311)
(0.894686 2.98981e-19 2.94062)
(9.98421 -1.5298e-20 0.0914194)
(9.98876 -1.54497e-20 0.064498)
(9.95107 8.00501e-21 0.153032)
(9.96997 0 0.129766)
(9.89836 3.74196e-21 0.217113)
(9.93076 7.93229e-21 0.197284)
(9.82525 -8.40464e-21 0.284577)
(9.86929 -8.05156e-21 0.268544)
(9.7316 1.88193e-22 0.354921)
(9.78695 -4.37917e-21 0.343589)
(9.61752 -5.2801e-22 0.42696)
(9.68463 2.84657e-22 0.42121)
(9.48354 -4.25655e-21 0.499758)
(9.5627 -4.8746e-21 0.500054)
(9.33047 -1.77026e-21 0.573055)
(9.42167 5.52191e-22 0.5794)
(9.15914 -2.24855e-21 0.647297)
(9.26236 -2.28804e-21 0.659345)
(8.97021 7.44446e-21 0.723511)
(9.08557 2.30496e-21 0.740711)
(8.764 7.25493e-21 0.803123)
(8.89185 9.69596e-21 0.824867)
(8.54042 0 0.887768)
(8.68134 5.05642e-21 0.913521)
(8.29894 -1.13549e-20 0.979119)
(8.45374 -1.03137e-20 1.00852)
(8.03862 5.02765e-22 1.07876)
(8.20833 -1.12195e-20 1.11167)
(7.75814 -8.6125e-22 1.18806)
(7.94395 1.14486e-20 1.22466)
(7.45585 -1.18822e-20 1.30816)
(7.65912 -2.3774e-22 1.34891)
(7.12983 -2.71965e-20 1.43982)
(7.35197 2.47356e-20 1.48557)
(6.77794 -1.2689e-20 1.5834)
(7.02037 -7.79445e-20 1.63537)
(6.39788 7.352e-20 1.73872)
(6.66195 5.35305e-20 1.79858)
(5.98729 7.55101e-20 1.90496)
(6.27412 5.92729e-20 1.97488)
(5.54389 -1.53686e-20 2.08052)
(5.85419 6.11805e-20 2.16319)
(5.06561 -6.6191e-20 2.26281)
(5.39949 -9.23368e-20 2.36148)
(4.5509 2.89968e-21 2.44812)
(4.90753 -1.86317e-20 2.56652)
(3.99911 3.62448e-20 2.63151)
(4.37641 3.66723e-20 2.77372)
(3.41096 3.57465e-19 2.80649)
(3.80472 0 2.97689)
(2.78942 -5.08711e-20 2.96715)
(3.19809 3.72708e-19 3.16757)
(2.14017 -3.90489e-19 3.09996)
(2.52338 -3.9511e-19 3.34004)
(1.47034 1.28545e-20 3.20595)
(1.97107 1.54061e-19 3.4695)
(0.799332 6.85993e-20 3.25305)
(0.922527 -1.40696e-19 3.57975)
(0.890648 -2.00316e-19 3.56261)
(9.98404 3.58439e-23 0.103584)
(9.98876 7.77673e-21 0.0722691)
(9.95127 2.44532e-23 0.174649)
(9.97021 6.04843e-23 0.146108)
(9.90001 -4.05586e-21 0.249347)
(9.93194 -7.93287e-21 0.223485)
(9.82925 -3.98156e-21 0.328246)
(9.87245 -3.98575e-21 0.3056)
(9.73874 -4.22583e-21 0.410593)
(9.79308 7.917e-21 0.392166)
(9.62861 -4.1244e-21 0.495009)
(9.69457 -1.25126e-20 0.481771)
(9.4994 0 0.580376)
(9.5773 7.91962e-22 0.572858)
(9.35191 0 0.666341)
(9.44178 -5.3697e-22 0.664555)
(9.18695 2.32084e-21 0.753381)
(9.28884 2.24071e-21 0.756918)
(9.0052 4.64667e-21 0.842669)
(9.11928 -2.15505e-23 0.850861)
(8.80698 7.44173e-21 0.935862)
(8.93366 -7.17641e-21 0.947947)
(8.59222 -5.44311e-21 1.03488)
(8.73213 1.7458e-22 1.05014)
(8.3604 -1.01893e-20 1.14172)
(8.51445 -1.03368e-20 1.1596)
(8.11061 0 1.25828)
(8.27989 1.58225e-20 1.27847)
(7.84149 1.19298e-20 1.3863)
(8.02734 -2.18197e-20 1.40876)
(7.55133 3.66791e-20 1.52722)
(7.75528 2.29979e-20 1.55227)
(7.23807 -2.72428e-20 1.68215)
(7.46176 1.30633e-20 1.71049)
(6.89934 -1.01588e-20 1.85177)
(7.14451 -6.37119e-20 1.88454)
(6.53244 3.93518e-20 2.0362)
(6.80084 5.24348e-20 2.07505)
(6.13447 4.4983e-20 2.23488)
(6.42773 0 2.28208)
(5.70233 -1.75642e-20 2.4463)
(6.02179 1.00473e-19 2.50484)
(5.23293 -4.39087e-20 2.66785)
(5.57938 -1.18071e-19 2.74152)
(4.72339 1.57906e-20 2.89543)
(5.09674 -6.79169e-21 2.98889)
(4.1715 0 3.12323)
(4.57029 -7.81734e-21 3.24193)
(3.57629 1.95309e-20 3.34315)
(3.99647 0 3.49347)
(2.93908 1.90838e-20 3.54676)
(3.37982 1.93095e-20 3.73308)
(2.26474 1.55902e-19 3.71797)
(2.68231 0 3.95178)
(1.55995 -6.17624e-21 3.85243)
(2.09048 1.3501e-19 4.12308)
(0.844782 -4.10498e-19 3.90273)
(1.02275 -1.52852e-19 4.25869)
(0.886375 -1.5954e-19 4.23897)
(9.98422 7.70746e-21 0.115592)
(9.98888 7.74037e-21 0.0799482)
(9.95222 -7.99416e-21 0.195703)
(9.97088 6.04842e-23 0.162069)
(9.90269 -7.81466e-21 0.280507)
(9.93392 -7.9567e-21 0.248801)
(9.83463 8.05733e-21 0.37034)
(9.87673 7.9254e-21 0.341244)
(9.74771 -6.18031e-22 0.464188)
(9.80069 -8.05065e-21 0.438817)
(9.64207 -7.4347e-21 0.560452)
(9.70648 -4.28633e-22 0.539863)
(9.51826 2.38848e-22 0.657836)
(9.59443 8.80694e-21 0.642618)
(9.37708 1.73738e-21 0.755894)
(9.46509 1.06365e-21 0.746062)
(9.21936 -1.28819e-22 0.855128)
(9.31929 9.85449e-21 0.850214)
(9.04576 -1.19301e-20 0.956849)
(9.15784 -1.80421e-20 0.956069)
(8.85664 -1.4354e-20 1.06294)
(8.98133 -7.23064e-21 1.06537)
(8.65197 -4.84696e-21 1.17559)
(8.78996 -4.76666e-21 1.18035)
(8.43127 1.59899e-20 1.29713)
(8.58351 -2.37527e-23 1.30344)
(8.19366 -6.45044e-21 1.42979)
(8.36134 5.69012e-21 1.43713)
(7.9378 -1.02129e-20 1.57567)
(8.12238 -1.115e-20 1.58379)
(7.66196 -7.37066e-22 1.73659)
(7.86512 3.82571e-22 1.74559)
(7.36397 -2.43247e-20 1.91407)
(7.58761 -2.47038e-22 1.92443)
(7.04124 2.64918e-22 2.10921)
(7.28744 -7.80105e-22 2.1219)
(6.69072 1.24569e-20 2.32256)
(6.96171 -3.57571e-20 2.33913)
(6.30894 5.66845e-20 2.55401)
(6.60696 5.04192e-20 2.5767)
(5.89194 -2.58646e-21 2.80246)
(6.21913 3.01269e-20 2.83441)
(5.4354 -7.96444e-20 3.06554)
(5.79355 -2.48502e-21 3.11098)
(4.93482 -3.0413e-20 3.33917)
(5.32497 -2.15491e-20 3.4036)
(4.38586 -7.7262e-21 3.61704)
(4.80778 -5.68176e-20 3.70736)
(3.78504 0 3.88975)
(4.2355 0 4.01463)
(3.13087 0 4.14632)
(3.61031 0 4.31349)
(2.42594 -1.93396e-20 4.36776)
(2.88928 0 4.59156)
(1.67546 -1.82393e-20 4.54314)
(2.24878 -7.62677e-23 4.82018)
(0.899168 1.00651e-19 4.61266)
(1.15029 3.99719e-20 4.99774)
(0.890095 9.7224e-20 4.9988)
(9.98466 0 0.127287)
(9.98909 0 0.0874153)
(9.95375 0 0.216034)
(9.97187 7.8289e-21 0.177487)
(9.90624 7.97654e-21 0.310431)
(9.93652 -2.40021e-22 0.273084)
(9.84121 -8.37689e-21 0.410659)
(9.88196 -1.16948e-22 0.375301)
(9.7583 -7.7687e-21 0.515454)
(9.8096 -7.79566e-21 0.483314)
(9.65766 1.59247e-20 0.622979)
(9.72012 8.03456e-21 0.595205)
(9.53985 9.53784e-21 0.731761)
(9.61384 -7.98673e-21 0.708995)
(9.40568 9.28715e-21 0.841259)
(9.4913 1.0798e-21 0.82352)
(9.25599 -8.39596e-21 0.951998)
(9.35336 -2.09578e-21 0.938756)
(9.09147 -1.32116e-20 1.06541)
(9.20085 -1.2315e-20 1.05577)
(8.91252 2.38572e-21 1.1836)
(9.0344 4.89956e-23 1.17648)
(8.71915 1.12741e-22 1.30903)
(8.85427 9.50254e-21 1.30335)
(8.51098 -1.02543e-20 1.44433)
(8.66032 0 1.43911)
(8.28717 7.87546e-22 1.59208)
(8.452 9.84969e-21 1.58656)
(8.04647 -4.15536e-22 1.75476)
(8.22834 5.42181e-22 1.74843)
(7.78716 8.62894e-22 1.9346)
(7.98791 -1.08273e-20 1.9273)
(7.50704 2.32914e-20 2.13358)
(7.72879 2.21757e-20 2.12552)
(7.20338 -3.72199e-20 2.35333)
(7.44857 7.84002e-22 2.3452)
(6.87285 3.22553e-21 2.59502)
(7.1442 -4.80735e-20 2.5881)
(6.51145 2.36257e-20 2.85918)
(6.81191 6.86056e-20 2.85552)
(6.11437 2.98594e-20 3.14545)
(6.44706 -5.02696e-20 3.14813)
(5.676 5.53998e-20 3.45218)
(6.04399 8.03586e-20 3.4656)
(5.18993 -4.83533e-20 3.77584)
(5.59586 -1.8087e-20 3.80613)
(4.64917 -4.84226e-20 4.11034)
(5.09477 -5.07206e-20 4.16569)
(4.04673 0 4.44568)
(4.53062 3.41843e-21 4.53713)
(3.37684 0 4.76868)
(3.90163 0 4.90804)
(2.63783 1.93385e-20 5.05726)
(3.15946 -7.40566e-21 5.26298)
(1.83188 5.88065e-20 5.29198)
(2.46348 3.55663e-20 5.57038)
(0.979037 3.89481e-20 5.40213)
(1.3223 1.12917e-19 5.81197)
(0.91264 -5.69962e-20 5.85326)
(9.98527 7.9239e-21 0.138543)
(9.98936 0 0.0945838)
(9.95571 7.49027e-21 0.2355)
(9.97311 -7.28045e-21 0.192229)
(9.9105 -8.33196e-21 0.338961)
(9.93963 -1.43943e-24 0.296191)
(9.84882 3.70358e-22 0.449008)
(9.88799 -5.06429e-22 0.407605)
(9.77031 8.19955e-21 0.564142)
(9.81966 1.61908e-20 0.525446)
(9.67515 -1.60706e-20 0.682288)
(9.73532 -8.01685e-21 0.647536)
(9.5639 -1.63343e-20 0.801787)
(9.63528 -7.8881e-21 0.771676)
(9.43739 -1.03408e-20 0.922007)
(9.52011 -5.20802e-22 0.896554)
(9.29648 -6.13856e-21 1.04349)
(9.39069 -2.38702e-21 1.02211)
(9.14189 1.09421e-21 1.16778)
(9.24788 1.3171e-20 1.14946)
(8.97408 7.27878e-21 1.29716)
(9.09236 -2.24894e-21 1.28067)
(8.79315 9.27418e-21 1.43438)
(8.92447 4.80367e-21 1.41844)
(8.59882 2.0221e-20 1.58234)
(8.74418 4.63757e-21 1.56575)
(8.39037 9.49151e-21 1.74398)
(8.55108 1.99804e-20 1.72572)
(8.16666 -1.00058e-20 1.92214)
(8.34433 -1.01273e-20 1.90144)
(7.92607 1.08813e-20 2.11951)
(8.12266 1.00354e-20 2.09588)
(7.66646 -5.87607e-22 2.33858)
(7.8843 2.11134e-22 2.31187)
(7.38507 -1.06526e-20 2.58157)
(7.62692 -4.73184e-22 2.5521)
(7.07844 1.86899e-20 2.85043)
(7.34748 3.33758e-20 2.81904)
(6.74216 -6.69173e-21 3.1466)
(7.04209 7.19432e-21 3.11491)
(6.37073 1.77793e-21 3.4708)
(6.70574 -3.59832e-20 3.44152)
(5.9573 5.72668e-21 3.82267)
(6.33198 3.72803e-20 3.79997)
(5.49344 -2.08215e-20 4.20004)
(5.91256 -1.63598e-20 4.19017)
(4.96909 1.75944e-21 4.59803)
(5.43719 -1.72009e-21 4.61005)
(4.37276 3.37767e-21 5.00738)
(4.89173 1.28806e-20 5.05437)
(3.69251 -7.49549e-21 5.41376)
(4.26868 -1.61038e-20 5.51207)
(2.91939 9.38364e-21 5.79219)
(3.51302 2.73797e-21 5.96609)
(2.04886 9.06731e-20 6.11229)
(2.75862 1.81858e-20 6.38187)
(1.0988 1.63975e-20 6.28661)
(1.55992 6.96409e-20 6.72035)
(0.966221 -5.81285e-20 6.82264)
(9.98602 -1.52924e-20 0.149265)
(9.98968 0 0.101389)
(9.95803 -1.46831e-20 0.253973)
(9.97454 -7.58976e-21 0.206187)
(9.91537 7.81761e-21 0.365947)
(9.94316 2.38579e-22 0.317993)
(9.85733 1.55167e-20 0.485206)
(9.8947 -9.91212e-23 0.438005)
(9.78358 -3.19701e-22 0.610027)
(9.8307 2.72866e-22 0.565022)
(9.69432 1.66617e-22 0.738102)
(9.75186 7.50547e-21 0.696621)
(9.59013 8.01411e-21 0.867587)
(9.6585 8.09676e-21 0.830376)
(9.47186 7.41034e-21 0.997751)
(9.55121 -8.0439e-21 0.964831)
(9.34039 1.71097e-20 1.12914)
(9.43089 -9.98781e-22 1.09986)
(9.1965 9.64069e-21 1.26339)
(9.29845 9.75849e-21 1.23665)
(9.04073 -4.63888e-21 1.40298)
(9.15463 0 1.37739)
(8.87327 1.64918e-22 1.55087)
(8.99987 -4.58357e-21 1.52495)
(8.69398 4.58173e-21 1.71025)
(8.83428 4.63752e-21 1.68258)
(8.50232 0 1.88437)
(8.65763 -9.2152e-21 1.85368)
(8.29731 1.01558e-20 2.07646)
(8.46926 0 2.04166)
(8.07753 -7.49958e-22 2.28963)
(8.26815 9.99584e-21 2.24987)
(7.84102 3.16931e-22 2.52691)
(8.05277 -3.05002e-20 2.48163)
(7.58516 4.39509e-20 2.79123)
(7.82102 2.06572e-20 2.74021)
(7.3065 2.15656e-20 3.08537)
(7.5701 2.27461e-20 3.02888)
(7.00054 -2.26069e-20 3.41191)
(7.29624 -4.00149e-22 3.35088)
(6.66133 3.86113e-22 3.77307)
(6.99439 -7.79896e-22 3.70942)
(6.28109 1.45635e-20 4.17034)
(6.65777 6.17847e-21 4.10744)
(5.84959 2.91472e-21 4.60389)
(6.27717 3.15971e-21 4.54737)
(5.35361 9.57468e-21 5.07157)
(5.84033 -3.49064e-22 5.03035)
(4.77641 -6.9411e-21 5.56686)
(5.32922 9.46128e-21 5.55508)
(4.09774 -5.63044e-21 6.07675)
(4.72929 -1.31455e-20 6.11492)
(3.29669 1.17409e-20 6.5753)
(3.97704 5.3533e-20 6.69502)
(2.35412 -2.22643e-21 7.02018)
(3.17026 -9.5148e-20 7.26102)
(1.2752 -5.07704e-21 7.29566)
(1.89804 9.59674e-20 7.75216)
(1.07247 -6.95261e-20 7.96272)
(9.98687 7.61017e-21 0.159373)
(9.99004 0 0.10778)
(9.96063 7.42717e-21 0.271344)
(9.97612 2.23078e-20 0.219272)
(9.92075 -7.68212e-21 0.391259)
(9.94702 -7.44117e-21 0.338378)
(9.8666 -1.53379e-20 0.519088)
(9.90198 -7.05151e-21 0.466362)
(9.79793 8.18577e-21 0.652909)
(9.84258 -8.22128e-21 0.601875)
(9.71494 1.54423e-20 0.790179)
(9.76955 7.89304e-21 0.742252)
(9.61826 -8.15675e-21 0.928869)
(9.68324 -1.56151e-23 0.884848)
(9.50874 -1.63669e-20 1.06815)
(9.58427 -3.29667e-23 1.02805)
(9.3873 -8.21916e-21 1.20854)
(9.47356 2.52386e-22 1.17169)
(9.25478 0 1.35179)
(9.35206 -5.14599e-22 1.31696)
(9.11181 0 1.5005)
(9.2206 -2.12559e-21 1.46615)
(8.95872 0 1.65783)
(9.07973 2.14572e-21 1.62232)
(8.79554 -9.32604e-21 1.82723)
(8.92973 -2.21906e-21 1.78892)
(8.62193 -9.10439e-21 2.01225)
(8.77057 -2.41027e-21 1.96958)
(8.43717 -3.76854e-23 2.21644)
(8.60187 4.56974e-21 2.16801)
(8.24012 -2.02354e-20 2.44335)
(8.4229 9.22196e-21 2.38792)
(8.02913 -9.54684e-21 2.69652)
(8.23249 -5.74442e-21 2.63305)
(7.8019 -5.1857e-22 2.97957)
(8.02896 5.23096e-21 2.90725)
(7.5553 5.0534e-22 3.29623)
(7.80994 -1.52795e-20 3.21456)
(7.28504 2.14196e-20 3.65035)
(7.57214 1.04756e-20 3.55929)
(6.98524 5.09615e-21 4.04591)
(7.31096 5.91186e-21 3.94615)
(6.64776 -5.25903e-21 4.48685)
(7.01993 -1.53186e-20 4.38029)
(6.26131 -1.44105e-22 4.97671)
(6.68981 -7.7485e-21 4.86725)
(5.81008 -3.44865e-22 5.51786)
(6.30753 2.26349e-21 5.41269)
(5.2722 2.99344e-21 6.10959)
(5.85245 1.98493e-20 6.02172)
(4.61749 4.68169e-20 6.74492)
(5.30326 -1.63429e-20 6.69657)
(3.80741 -5.48826e-20 7.40305)
(4.58733 4.33097e-21 7.43228)
(2.79475 6.36407e-21 8.03491)
(3.75537 -9.63828e-20 8.20552)
(1.54739 3.07539e-20 8.48568)
(2.40509 1.39059e-19 8.94463)
(1.28075 -6.81767e-20 9.37357)
(9.9878 1.49684e-20 0.168806)
(9.99042 1.48186e-20 0.113718)
(9.96346 7.07649e-21 0.28752)
(9.97782 1.4433e-20 0.23141)
(9.92653 -6.80622e-21 0.41478)
(9.95116 9.13641e-22 0.357248)
(9.87651 5.05434e-23 0.550513)
(9.90972 7.0941e-21 0.492561)
(9.81318 -8.31772e-21 0.692611)
(9.85514 -4.74998e-22 0.635859)
(9.73679 -7.66026e-21 0.838305)
(9.78819 -8.70875e-21 0.784254)
(9.64798 8.10723e-21 0.98538)
(9.70926 4.76557e-22 0.934881)
(9.54764 1.6589e-20 1.13289)
(9.61896 8.49737e-21 1.08598)
(9.43672 7.94765e-21 1.28136)
(9.51826 5.62646e-22 1.23729)
(9.31614 -2.65963e-21 1.43255)
(9.40818 -5.14594e-22 1.39002)
(9.18661 7.14517e-23 1.58921)
(9.28961 -2.12557e-21 1.54656)
(9.04864 -1.25917e-22 1.75466)
(9.16324 1.04763e-20 1.71007)
(8.90245 4.69231e-21 1.93257)
(9.02955 8.41227e-21 1.88418)
(8.74795 1.13452e-20 2.12672)
(8.88874 2.44364e-21 2.07271)
(8.58475 1.38851e-20 2.34096)
(8.74074 1.12313e-20 2.27962)
(8.41208 2.35352e-20 2.57919)
(8.58519 -4.34678e-21 2.50888)
(8.22874 9.1636e-21 2.84545)
(8.42141 4.95371e-21 2.76462)
(8.03297 -9.77192e-21 3.14399)
(8.24827 -1.95777e-22 3.05116)
(7.82223 -5.00142e-21 3.47943)
(8.06411 -1.182e-20 3.37322)
(7.59291 -5.08376e-21 3.85692)
(7.86646 -2.44551e-21 3.7361)
(7.33984 -1.47471e-20 4.28232)
(7.65176 -4.69284e-21 4.14596)
(7.0555 -1.77105e-20 4.76237)
(7.41472 -4.99745e-21 4.61015)
(6.72882 -5.22267e-21 5.30483)
(7.14742 -1.48562e-20 5.13762)
(6.34324 2.26682e-20 5.91834)
(6.838 2.50762e-20 5.73939)
(5.87361 9.87379e-23 6.61173)
(6.46642 1.10202e-20 6.42912)
(5.28093 -5.8571e-20 7.39147)
(6.00837 -1.98514e-20 7.2231)
(4.50544 -3.82529e-20 8.25549)
(5.38686 -5.27381e-20 8.138)
(3.45408 4.13639e-20 9.17015)
(4.60204 4.36182e-20 9.18582)
(2.00477 3.90829e-20 9.95142)
(3.21951 -1.42295e-20 10.3295)
(1.71052 2.75451e-20 11.2419)
(9.98879 1.42785e-20 0.177512)
(9.99083 -2.19184e-22 0.119173)
(9.96647 8.10549e-21 0.302426)
(9.97961 -1.45343e-20 0.242545)
(9.93265 1.48888e-20 0.436413)
(9.9555 7.43832e-21 0.374527)
(9.88693 6.47623e-21 0.579364)
(9.91782 7.47553e-21 0.516504)
(9.82916 -9.66055e-22 0.728993)
(9.86825 -8.31812e-21 0.666857)
(9.75963 -4.6059e-22 0.882315)
(9.8076 -1.94426e-23 0.822483)
(9.679 9.63859e-22 1.03693)
(9.73627 4.76552e-22 0.980305)
(9.58818 -7.62415e-21 1.19177)
(9.65494 8.12457e-21 1.1384)
(9.48817 -7.91181e-21 1.34732)
(9.56457 -8.00854e-21 1.29643)
(9.37996 0 1.50537)
(9.46625 7.86142e-21 1.45559)
(9.26439 8.431e-21 1.66876)
(9.36097 0 1.61831)
(9.14212 1.89895e-20 1.84095)
(9.24956 -4.41174e-22 1.78784)
(9.01359 6.09189e-21 2.02574)
(9.1327 -5.47472e-21 1.96792)
(8.87903 2.43412e-21 2.2271)
(9.01084 -5.41808e-21 2.16254)
(8.73839 -7.18374e-21 2.44913)
(8.88428 7.72601e-21 2.37578)
(8.59139 -2.2811e-20 2.69599)
(8.7531 -2.90647e-21 2.61186)
(8.4374 -4.46258e-21 2.9721)
(8.61715 -1.14348e-20 2.87512)
(8.27538 -2.38046e-21 3.28222)
(8.47602 4.63065e-21 3.17025)
(8.1037 -9.15265e-21 3.63172)
(8.32897 1.92148e-21 3.50246)
(7.91992 -2.08524e-21 4.02688)
(8.17471 -6.62292e-21 3.87779)
(7.72032 5.04407e-21 4.47527)
(8.01126 4.67603e-21 4.30354)
(7.49922 -2.26654e-21 4.98633)
(7.83546 4.77234e-21 4.78886)
(7.24777 1.58949e-20 5.57218)
(7.64232 -5.03297e-21 5.34569)
(6.95182 1.3274e-20 6.24873)
(7.42401 2.03682e-20 5.9901)
(6.58797 -9.27787e-21 7.03731)
(7.16616 -1.0613e-20 6.74469)
(6.1155 -1.44189e-20 7.96622)
(6.85058 -5.51073e-22 7.64272)
(5.46049 3.00771e-20 9.07415)
(6.41337 -1.45549e-20 8.73387)
(4.47669 -1.2946e-20 10.4017)
(5.83357 4.21977e-20 10.1027)
(2.8625 -2.51093e-20 11.863)
(4.64539 -5.8011e-20 11.8712)
(2.68693 3.36024e-20 13.9684)
(9.98983 -2.92036e-20 0.185454)
(9.99126 -2.8851e-20 0.124121)
(9.96961 -1.49327e-20 0.316)
(9.98147 -1.52975e-20 0.252631)
(9.93903 2.55187e-23 0.456072)
(9.96001 -9.34269e-22 0.390152)
(9.89776 -7.51081e-21 0.605523)
(9.92621 1.55013e-20 0.538114)
(9.84572 -7.2708e-21 0.761902)
(9.8818 -8.39647e-21 0.694776)
(9.78325 9.23677e-22 0.922012)
(9.82762 9.52577e-22 0.856831)
(9.71102 7.72982e-21 1.08327)
(9.76412 0 1.02099)
(9.62997 7.54495e-21 1.24449)
(9.69199 5.74037e-22 1.18518)
(9.54116 7.95635e-21 1.40608)
(9.61224 -7.19489e-21 1.34895)
(9.44564 7.7665e-21 1.56987)
(9.526 -3.24853e-22 1.51347)
(9.34436 -8.8761e-21 1.73872)
(9.43436 4.61054e-22 1.68117)
(9.23818 -2.49631e-20 1.91617)
(9.3383 -8.46427e-21 1.85536)
(9.12778 -1.6982e-20 2.10613)
(9.23869 -8.66302e-21 2.03985)
(9.01368 3.09662e-23 2.31271)
(9.1363 -8.735e-21 2.23869)
(8.89628 1.18768e-20 2.5401)
(9.03177 1.08446e-21 2.45606)
(8.77579 8.36806e-21 2.79268)
(8.92566 -4.39374e-21 2.69626)
(8.65227 -2.14901e-21 3.07506)
(8.81845 -2.71089e-21 2.96375)
(8.52556 8.90037e-21 3.39234)
(8.71054 0 3.26338)
(8.39521 4.34787e-21 3.75037)
(8.60223 4.92031e-21 3.60059)
(8.26033 2.69737e-22 4.15616)
(8.4937 -3.57732e-22 3.98177)
(8.11939 4.40147e-21 4.61847)
(8.38498 7.24292e-22 4.41479)
(7.96978 1.89207e-21 5.14871)
(8.27583 3.78086e-21 4.90976)
(7.80713 -2.61238e-22 5.76239)
(8.16559 -1.83691e-21 5.48022)
(7.62393 -3.86621e-21 6.4815)
(8.05322 -2.12229e-21 6.1452)
(7.40676 -1.76497e-21 7.3391)
(7.93579 -1.66231e-22 6.93289)
(7.12971 -8.43262e-22 8.38763)
(7.81402 1.24537e-21 7.88854)
(6.73803 -1.80854e-21 9.72281)
(7.67012 -2.73148e-21 9.08983)
(6.09225 -5.53908e-21 11.5517)
(7.57108 -2.07082e-21 10.7041)
(4.72063 4.43554e-21 14.5642)
(7.52808 -3.9365e-21 13.18)
(6.8493 1.02152e-20 18.5326)
(-0.480867 2.71169e-19 0.216809)
(0.654888 0 0.466767)
(-0.959383 3.27881e-20 0.21008)
(-1.38682 1.4318e-19 0.448918)
(-1.43072 -2.57392e-19 0.200548)
(-0.893379 -6.16166e-19 0.433743)
(-1.86915 0 0.173885)
(-1.81369 4.56638e-19 0.394309)
(-2.25277 5.07414e-20 0.135864)
(-2.13864 0 0.337942)
(-2.53786 2.25897e-21 0.0831594)
(-2.48441 5.13273e-20 0.2458)
(-2.69675 -5.06569e-20 0.0225357)
(-2.71201 -5.00838e-20 0.133999)
(-2.7076 0 -0.0441808)
(-2.79518 -2.28926e-20 0.00888011)
(-2.55327 0 -0.112818)
(-2.7142 0 -0.124568)
(-2.23317 4.42985e-21 -0.17686)
(-2.46301 -3.57415e-20 -0.252439)
(-1.75949 6.54969e-21 -0.229988)
(-2.05421 4.48666e-20 -0.364963)
(-1.16112 3.07988e-22 -0.26813)
(-1.49321 1.06128e-20 -0.4504)
(-0.470231 -1.79656e-21 -0.290471)
(-0.823689 -1.44919e-20 -0.507992)
(0.278686 1.32653e-22 -0.297913)
(-0.07828 -4.84649e-21 -0.537872)
(1.05257 1.35817e-22 -0.293134)
(0.693669 4.46289e-21 -0.542867)
(1.82409 -1.17239e-22 -0.279545)
(1.48228 -1.37092e-21 -0.528605)
(2.57271 3.22948e-22 -0.260151)
(2.25764 1.02221e-21 -0.500944)
(3.28357 2.73549e-22 -0.237353)
(3.00124 4.50972e-22 -0.464586)
(3.94676 -3.62902e-22 -0.213032)
(3.70073 -1.87516e-22 -0.423315)
(4.55646 -3.94653e-23 -0.188601)
(4.34835 -6.0102e-23 -0.38009)
(5.11012 7.76009e-23 -0.165054)
(4.9401 5.56447e-23 -0.337106)
(5.60768 -1.12965e-22 -0.14303)
(5.47487 -3.07042e-24 -0.295883)
(6.05081 -1.42619e-23 -0.12289)
(5.95365 -9.48275e-23 -0.25738)
(6.44234 3.45668e-23 -0.104782)
(6.37883 1.46258e-24 -0.222121)
(6.78577 0 -0.0887019)
(6.75368 2.52293e-24 -0.190298)
(7.08485 0 -0.0745464)
(7.08188 -1.61516e-24 -0.161876)
(7.34336 0 -0.0621603)
(7.36723 4.11008e-23 -0.136669)
(7.56492 0 -0.0513898)
(7.61343 0 -0.114426)
(7.75318 -2.73072e-24 -0.0425112)
(7.82385 0 -0.0949765)
(8.03823 -1.04148e-25 -0.0795162)
(-0.449456 -1.29199e-19 0.702367)
(0.637817 0 0.928451)
(-0.994988 -4.89453e-19 0.682036)
(-1.3939 1.14584e-19 0.963698)
(-1.4981 9.48778e-20 0.637084)
(-0.992678 -4.76871e-19 0.897774)
(-1.97463 4.62041e-19 0.564343)
(-1.93676 5.66612e-19 0.823601)
(-2.37929 0 0.451471)
(-2.30446 -5.13806e-19 0.694428)
(-2.68201 0 0.299196)
(-2.68455 2.06333e-19 0.506471)
(-2.8498 -2.26281e-20 0.120018)
(-2.93097 1.46843e-19 0.275061)
(-2.85651 -2.31592e-20 -0.0765421)
(-3.02138 -4.59831e-20 0.0138951)
(-2.68579 -3.53243e-20 -0.275355)
(-2.92853 0 -0.262735)
(-2.33843 3.99152e-21 -0.458793)
(-2.65046 -1.49505e-21 -0.526653)
(-1.82797 4.9313e-20 -0.609815)
(-2.19582 6.27928e-21 -0.758457)
(-1.19131 -3.9607e-21 -0.718517)
(-1.59073 4.84283e-21 -0.929752)
(-0.462833 -1.76479e-20 -0.784645)
(-0.875249 -1.58819e-20 -1.0437)
(0.319475 -6.15759e-22 -0.810785)
(-0.0870167 -4.84644e-21 -1.09977)
(1.1228 3.02416e-21 -0.803912)
(0.717551 4.56837e-21 -1.10642)
(1.9205 -2.69322e-22 -0.772628)
(1.53299 -1.37091e-21 -1.07515)
(2.69259 1.15315e-21 -0.724867)
(2.32925 1.62797e-22 -1.01761)