/*--------------------------------*- C++ -*----------------------------------*\
  =========                 |
  \\      /  F ield         | OpenFOAM: The Open Source CFD Toolbox
   \\    /   O peration     | Website:  https://openfoam.org
    \\  /    A nd           | Version:  7
     \\/     M anipulation  |
\*---------------------------------------------------------------------------*/
FoamFile
{
    version     2.0;
    format      ascii;
    class       volVectorField;
    location    "2.55";
    object      U;
}
// * * * * * * * * * * * * * * * * * * * * * * * * * * * * * * * * * * * * * //

dimensions      [0 1 -1 0 0 0 0];

internalField   nonuniform List<vector> 
12013
(
(0.100298 -8.28757e-05 0)
(0.101514 -0.000152951 0)
(0.103477 -0.000217831 0)
(0.106014 -0.000277963 0)
(0.109079 -0.000335046 0)
(0.112628 -0.000390015 0)
(0.116621 -0.000443378 0)
(0.121028 -0.00049542 0)
(0.125819 -0.00054624 0)
(0.130966 -0.000595819 0)
(0.136442 -0.000644066 0)
(0.14222 -0.000690853 0)
(0.148273 -0.000736041 0)
(0.154574 -0.0007795 0)
(0.161098 -0.000821125 0)
(0.167818 -0.000860832 0)
(0.174708 -0.000898574 0)
(0.181745 -0.000934331 0)
(0.188907 -0.000968112 0)
(0.19617 -0.000999951 0)
(0.203515 -0.0010299 0)
(0.210924 -0.00105804 0)
(0.218379 -0.00108444 0)
(0.225866 -0.00110919 0)
(0.233369 -0.00113238 0)
(0.240876 -0.00115412 0)
(0.248377 -0.00117448 0)
(0.25586 -0.00119356 0)
(0.263318 -0.00121144 0)
(0.270743 -0.00122819 0)
(0.278127 -0.00124388 0)
(0.285465 -0.00125856 0)
(0.292751 -0.00127229 0)
(0.299982 -0.00128509 0)
(0.307153 -0.00129701 0)
(0.314261 -0.00130806 0)
(0.321304 -0.00131825 0)
(0.328279 -0.00132759 0)
(0.335184 -0.00133605 0)
(0.342018 -0.00134363 0)
(0.348779 -0.00135029 0)
(0.355467 -0.00135599 0)
(0.36208 -0.00136067 0)
(0.368619 -0.00136428 0)
(0.375082 -0.00136673 0)
(0.381469 -0.00136793 0)
(0.387781 -0.00136777 0)
(0.394017 -0.00136613 0)
(0.400177 -0.00136285 0)
(0.406261 -0.00135777 0)
(0.41227 -0.00135069 0)
(0.418202 -0.0013414 0)
(0.424059 -0.00132962 0)
(0.42984 -0.00131507 0)
(0.435544 -0.0012974 0)
(0.441171 -0.00127623 0)
(0.44672 -0.00125109 0)
(0.452189 -0.00122146 0)
(0.457577 -0.00118672 0)
(0.462881 -0.00114613 0)
(0.468097 -0.00109885 0)
(0.473221 -0.00104384 0)
(0.478248 -0.000979875 0)
(0.483169 -0.000905447 0)
(0.487974 -0.00081871 0)
(0.492651 -0.000717358 0)
(0.497184 -0.000598472 0)
(0.501549 -0.000458296 0)
(0.50572 -0.000291916 0)
(0.509657 -9.27787e-05 0)
(0.513311 0.000148432 0)
(0.516611 0.00044585 0)
(0.519455 0.000820551 0)
(0.521698 0.00130529 0)
(0.523117 0.00195376 0)
(0.523369 0.00285881 0)
(0.52189 0.00419075 0)
(0.517696 0.00628781 0)
(0.509025 0.00995031 0)
(0.49284 0.0179895 0)
(0.475728 0.0486964 0)
(0.100276 -0.000253049 0)
(0.101487 -0.000468808 0)
(0.103443 -0.000667871 0)
(0.105973 -0.000852163 0)
(0.109032 -0.00102705 0)
(0.112574 -0.0011954 0)
(0.116562 -0.00135877 0)
(0.120963 -0.00151803 0)
(0.125747 -0.0016735 0)
(0.130888 -0.00182513 0)
(0.136357 -0.00197263 0)
(0.142128 -0.00211562 0)
(0.148174 -0.00225368 0)
(0.154469 -0.00238643 0)
(0.160985 -0.00251353 0)
(0.167697 -0.00263475 0)
(0.174579 -0.00274993 0)
(0.181608 -0.00285903 0)
(0.188761 -0.00296208 0)
(0.196015 -0.00305918 0)
(0.203351 -0.00315051 0)
(0.21075 -0.00323627 0)
(0.218195 -0.00331673 0)
(0.22567 -0.00339215 0)
(0.233162 -0.00346282 0)
(0.240658 -0.00352902 0)
(0.248147 -0.00359103 0)
(0.255618 -0.00364911 0)
(0.263062 -0.00370353 0)
(0.270473 -0.00375449 0)
(0.277843 -0.00380221 0)
(0.285166 -0.00384685 0)
(0.292437 -0.00388857 0)
(0.299651 -0.00392747 0)
(0.306805 -0.00396366 0)
(0.313896 -0.00399719 0)
(0.32092 -0.00402808 0)
(0.327875 -0.00405635 0)
(0.33476 -0.00408195 0)
(0.341573 -0.00410483 0)
(0.348312 -0.00412488 0)
(0.354976 -0.004142 0)
(0.361565 -0.004156 0)
(0.368077 -0.00416668 0)
(0.374513 -0.00417382 0)
(0.380872 -0.00417712 0)
(0.387153 -0.00417624 0)
(0.393357 -0.0041708 0)
(0.399484 -0.00416035 0)
(0.405533 -0.00414436 0)
(0.411504 -0.00412223 0)
(0.417398 -0.0040933 0)
(0.423213 -0.00405676 0)
(0.428951 -0.00401172 0)
(0.43461 -0.00395714 0)
(0.440189 -0.0038918 0)
(0.445688 -0.00381433 0)
(0.451105 -0.00372311 0)
(0.456438 -0.00361626 0)
(0.461685 -0.00349157 0)
(0.466842 -0.00334642 0)
(0.471905 -0.0031777 0)
(0.476868 -0.00298167 0)
(0.481724 -0.00275378 0)
(0.486464 -0.00248845 0)
(0.491076 -0.00217874 0)
(0.495545 -0.00181588 0)
(0.499849 -0.00138859 0)
(0.503965 -0.000882191 0)
(0.507858 -0.000277109 0)
(0.511482 0.000453868 0)
(0.514778 0.00135045 0)
(0.517664 0.00247106 0)
(0.520027 0.00390455 0)
(0.521709 0.00579155 0)
(0.522489 0.00836414 0)
(0.522058 0.012021 0)
(0.519983 0.0174757 0)
(0.515713 0.026077 0)
(0.509169 0.0404183 0)
(0.507784 0.0650586 0)
(0.100254 -0.000430338 0)
(0.101451 -0.000804371 0)
(0.103391 -0.00114724 0)
(0.105908 -0.00146453 0)
(0.108953 -0.00176557 0)
(0.112482 -0.00205528 0)
(0.116457 -0.00233638 0)
(0.120845 -0.00261037 0)
(0.125617 -0.00287781 0)
(0.130744 -0.00313862 0)
(0.1362 -0.0033923 0)
(0.141957 -0.0036382 0)
(0.147989 -0.0038756 0)
(0.154269 -0.00410383 0)
(0.16077 -0.00432233 0)
(0.167466 -0.00453069 0)
(0.174333 -0.00472865 0)
(0.181344 -0.00491613 0)
(0.188479 -0.00509318 0)
(0.195715 -0.00525999 0)
(0.203031 -0.00541685 0)
(0.21041 -0.00556412 0)
(0.217835 -0.00570225 0)
(0.225289 -0.00583169 0)
(0.232758 -0.00595294 0)
(0.240231 -0.00606649 0)
(0.247695 -0.00617282 0)
(0.255141 -0.00627237 0)
(0.26256 -0.00636557 0)
(0.269943 -0.00645282 0)
(0.277285 -0.00653445 0)
(0.284578 -0.00661075 0)
(0.291819 -0.00668199 0)
(0.299002 -0.00674835 0)
(0.306123 -0.00680998 0)
(0.31318 -0.00686699 0)
(0.320168 -0.00691942 0)
(0.327087 -0.00696726 0)
(0.333933 -0.00701045 0)
(0.340705 -0.00704889 0)
(0.347402 -0.0070824 0)
(0.354022 -0.00711075 0)
(0.360564 -0.00713367 0)
(0.367028 -0.00715079 0)
(0.373414 -0.0071617 0)
(0.37972 -0.00716589 0)
(0.385946 -0.00716279 0)
(0.392092 -0.00715171 0)
(0.398157 -0.00713187 0)
(0.404143 -0.00710239 0)
(0.410047 -0.00706223 0)
(0.415871 -0.0070102 0)
(0.421613 -0.00694497 0)
(0.427274 -0.00686498 0)
(0.432852 -0.00676845 0)
(0.438348 -0.00665332 0)
(0.443759 -0.00651724 0)
(0.449085 -0.00635746 0)
(0.454323 -0.00617079 0)
(0.459471 -0.0059535 0)
(0.464527 -0.00570118 0)
(0.469485 -0.00540862 0)
(0.474342 -0.00506957 0)
(0.47909 -0.00467648 0)
(0.483721 -0.00422014 0)
(0.488225 -0.00368915 0)
(0.492589 -0.00306922 0)
(0.496797 -0.00234218 0)
(0.500828 -0.00148454 0)
(0.504655 -0.00046534 0)
(0.508244 0.00075716 0)
(0.511553 0.00224153 0)
(0.514531 0.00407121 0)
(0.517115 0.0063673 0)
(0.519234 0.0093099 0)
(0.520819 0.0131728 0)
(0.521831 0.0183787 0)
(0.522339 0.0255855 0)
(0.522693 0.0358206 0)
(0.523976 0.0505836 0)
(0.529918 0.0709988 0)
(0.100232 -0.000613364 0)
(0.101411 -0.00115895 0)
(0.103327 -0.00165571 0)
(0.105822 -0.00211565 0)
(0.108847 -0.00255183 0)
(0.112357 -0.00297148 0)
(0.116312 -0.00337857 0)
(0.12068 -0.00377531 0)
(0.125432 -0.00416252 0)
(0.13054 -0.00454006 0)
(0.135975 -0.00490724 0)
(0.141712 -0.00526312 0)
(0.147723 -0.00560664 0)
(0.15398 -0.00593685 0)
(0.160458 -0.00625292 0)
(0.167131 -0.00655427 0)
(0.173972 -0.00684054 0)
(0.180959 -0.00711157 0)
(0.188067 -0.00736747 0)
(0.195275 -0.0076085 0)
(0.202563 -0.00783508 0)
(0.209912 -0.00804774 0)
(0.217305 -0.00824712 0)
(0.224727 -0.00843389 0)
(0.232163 -0.00860874 0)
(0.239601 -0.0087724 0)
(0.24703 -0.00892555 0)
(0.254439 -0.00906883 0)
(0.261819 -0.00920288 0)
(0.269163 -0.00932822 0)
(0.276464 -0.00944537 0)
(0.283715 -0.00955474 0)
(0.290911 -0.00965668 0)
(0.298049 -0.00975148 0)
(0.305123 -0.00983934 0)
(0.31213 -0.0099204 0)
(0.319068 -0.00999472 0)
(0.325933 -0.0100623 0)
(0.332724 -0.010123 0)
(0.339439 -0.0101766 0)
(0.346077 -0.010223 0)
(0.352635 -0.0102618 0)
(0.359113 -0.0102925 0)
(0.36551 -0.0103146 0)
(0.371826 -0.0103276 0)
(0.378059 -0.0103306 0)
(0.384209 -0.0103228 0)
(0.390275 -0.0103033 0)
(0.396259 -0.0102709 0)
(0.402158 -0.0102243 0)
(0.407972 -0.0101621 0)
(0.413702 -0.0100824 0)
(0.419347 -0.0099834 0)
(0.424905 -0.00986285 0)
(0.430378 -0.0097182 0)
(0.435763 -0.00954654 0)
(0.441061 -0.00934449 0)
(0.446268 -0.00910818 0)
(0.451385 -0.0088331 0)
(0.456408 -0.00851403 0)
(0.461335 -0.0081448 0)
(0.466163 -0.00771819 0)
(0.470887 -0.00722558 0)
(0.475502 -0.00665664 0)
(0.480003 -0.00599888 0)
(0.484381 -0.005237 0)
(0.488626 -0.00435204 0)
(0.492728 -0.00332027 0)
(0.496672 -0.00211144 0)
(0.500442 -0.000686619 0)
(0.50402 0.00100462 0)
(0.507385 0.00302975 0)
(0.51052 0.00548057 0)
(0.513415 0.00848215 0)
(0.516075 0.0122057 0)
(0.518546 0.0168852 0)
(0.520951 0.0228342 0)
(0.52356 0.0304553 0)
(0.526902 0.0402142 0)
(0.531901 0.0524876 0)
(0.540143 0.0669338 0)
(0.10021 -0.000802358 0)
(0.101368 -0.0015322 0)
(0.103254 -0.00219337 0)
(0.105722 -0.00280617 0)
(0.108719 -0.0033871 0)
(0.112203 -0.00394579 0)
(0.116132 -0.00448764 0)
(0.120474 -0.00501561 0)
(0.1252 -0.00553079 0)
(0.130281 -0.00603302 0)
(0.13569 -0.00652138 0)
(0.141399 -0.00699461 0)
(0.147381 -0.00745132 0)
(0.153609 -0.00789024 0)
(0.160057 -0.00831027 0)
(0.166698 -0.00871063 0)
(0.173507 -0.00909084 0)
(0.180459 -0.00945072 0)
(0.187532 -0.00979039 0)
(0.194704 -0.0101102 0)
(0.201954 -0.0104107 0)
(0.209264 -0.0106926 0)
(0.216617 -0.0109568 0)
(0.223997 -0.0112041 0)
(0.231389 -0.0114356 0)
(0.238782 -0.011652 0)
(0.246164 -0.0118543 0)
(0.253525 -0.0120435 0)
(0.260856 -0.0122203 0)
(0.268148 -0.0123853 0)
(0.275396 -0.0125394 0)
(0.282592 -0.012683 0)
(0.289732 -0.0128166 0)
(0.296811 -0.0129406 0)
(0.303824 -0.0130551 0)
(0.310769 -0.0131605 0)
(0.317642 -0.0132567 0)
(0.32444 -0.0133437 0)
(0.331162 -0.0134214 0)
(0.337806 -0.0134895 0)
(0.344369 -0.0135477 0)
(0.35085 -0.0135955 0)
(0.357248 -0.0136324 0)
(0.363562 -0.0136575 0)
(0.369791 -0.0136702 0)
(0.375935 -0.0136693 0)
(0.381992 -0.0136538 0)
(0.387962 -0.0136224 0)
(0.393845 -0.0135735 0)
(0.39964 -0.0135053 0)
(0.405347 -0.0134161 0)
(0.410964 -0.0133034 0)
(0.416493 -0.0131647 0)
(0.421931 -0.0129972 0)
(0.42728 -0.0127975 0)
(0.432536 -0.0125618 0)
(0.437701 -0.0122858 0)
(0.442773 -0.0119644 0)
(0.44775 -0.011592 0)
(0.452631 -0.0111619 0)
(0.457414 -0.0106663 0)
(0.462096 -0.0100961 0)
(0.466675 -0.00944077 0)
(0.471147 -0.00868753 0)
(0.475509 -0.00782126 0)
(0.479756 -0.00682371 0)
(0.483883 -0.00567264 0)
(0.487884 -0.00434073 0)
(0.491755 -0.00279407 0)
(0.49549 -0.000990286 0)
(0.499086 0.00112282 0)
(0.502545 0.00361106 0)
(0.505879 0.00655912 0)
(0.509117 0.0100738 0)
(0.512315 0.0142873 0)
(0.515574 0.0193584 0)
(0.519065 0.0254648 0)
(0.523064 0.0327796 0)
(0.527983 0.0414116 0)
(0.534378 0.0512789 0)
(0.542899 0.0618611 0)
(0.100188 -0.000997615 0)
(0.101325 -0.00192391 0)
(0.103177 -0.00276041 0)
(0.105611 -0.00353674 0)
(0.108576 -0.00427259 0)
(0.112026 -0.00498003 0)
(0.115924 -0.00566597 0)
(0.120234 -0.00633418 0)
(0.124927 -0.00698605 0)
(0.129976 -0.00762137 0)
(0.135351 -0.00823902 0)
(0.141026 -0.00883738 0)
(0.146973 -0.0094147 0)
(0.153165 -0.00996937 0)
(0.159576 -0.0105 0)
(0.166178 -0.0110057 0)
(0.172947 -0.0114857 0)
(0.179858 -0.0119399 0)
(0.186888 -0.0123683 0)
(0.194014 -0.0127716 0)
(0.201218 -0.0131503 0)
(0.20848 -0.0135055 0)
(0.215783 -0.013838 0)
(0.223111 -0.0141491 0)
(0.230451 -0.01444 0)
(0.237789 -0.0147118 0)
(0.245114 -0.0149657 0)
(0.252416 -0.0152027 0)
(0.259687 -0.015424 0)
(0.266917 -0.0156303 0)
(0.2741 -0.0158225 0)
(0.28123 -0.0160013 0)
(0.288302 -0.0161673 0)
(0.29531 -0.0163208 0)
(0.302251 -0.0164623 0)
(0.309121 -0.0165919 0)
(0.315917 -0.0167097 0)
(0.322636 -0.0168155 0)
(0.329276 -0.0169093 0)
(0.335835 -0.0169907 0)
(0.34231 -0.0170592 0)
(0.348701 -0.0171142 0)
(0.355005 -0.017155 0)
(0.361223 -0.0171807 0)
(0.367352 -0.0171901 0)
(0.373392 -0.017182 0)
(0.379343 -0.0171551 0)
(0.385202 -0.0171075 0)
(0.390971 -0.0170374 0)
(0.396647 -0.0169427 0)
(0.402232 -0.0168209 0)
(0.407723 -0.0166691 0)
(0.413122 -0.0164843 0)
(0.418426 -0.0162628 0)
(0.423636 -0.0160006 0)
(0.428752 -0.0156929 0)
(0.433772 -0.0153347 0)
(0.438695 -0.0149197 0)
(0.443522 -0.0144413 0)
(0.448251 -0.0138913 0)
(0.452881 -0.0132609 0)
(0.457411 -0.0125393 0)
(0.461841 -0.0117143 0)
(0.466168 -0.0107717 0)
(0.470392 -0.00969437 0)
(0.474512 -0.00846249 0)
(0.478528 -0.00705228 0)
(0.482441 -0.00543528 0)
(0.486254 -0.00357733 0)
(0.489973 -0.00143738 0)
(0.493609 0.00103249 0)
(0.497179 0.00388806 0)
(0.500717 0.0071965 0)
(0.504272 0.0110351 0)
(0.50792 0.0154884 0)
(0.511772 0.0206415 0)
(0.515985 0.0265662 0)
(0.520769 0.0332953 0)
(0.526382 0.0407822 0)
(0.533108 0.0488406 0)
(0.541177 0.0570727 0)
(0.100166 -0.00119949 0)
(0.101282 -0.0023341 0)
(0.103098 -0.00335719 0)
(0.105495 -0.00430811 0)
(0.108422 -0.0052096 0)
(0.111835 -0.00607608 0)
(0.115694 -0.00691603 0)
(0.119967 -0.00773406 0)
(0.124622 -0.00853187 0)
(0.129632 -0.00930922 0)
(0.134968 -0.0100647 0)
(0.140603 -0.0107964 0)
(0.146509 -0.0115022 0)
(0.152659 -0.01218 0)
(0.159026 -0.0128282 0)
(0.165583 -0.0134457 0)
(0.172305 -0.0140316 0)
(0.179167 -0.0145857 0)
(0.186146 -0.0151082 0)
(0.19322 -0.0155997 0)
(0.20037 -0.016061 0)
(0.207575 -0.0164932 0)
(0.21482 -0.0168977 0)
(0.222087 -0.0172758 0)
(0.229365 -0.017629 0)
(0.236638 -0.0179587 0)
(0.243897 -0.0182663 0)
(0.251131 -0.0185532 0)
(0.25833 -0.0188205 0)
(0.265488 -0.0190693 0)
(0.272596 -0.0193007 0)
(0.27965 -0.0195155 0)
(0.286642 -0.0197143 0)
(0.29357 -0.0198976 0)
(0.300427 -0.0200659 0)
(0.307211 -0.0202194 0)
(0.313919 -0.020358 0)
(0.320547 -0.0204818 0)
(0.327093 -0.0205904 0)
(0.333555 -0.0206834 0)
(0.339931 -0.0207602 0)
(0.34622 -0.0208201 0)
(0.352419 -0.0208622 0)
(0.358528 -0.0208852 0)
(0.364546 -0.0208879 0)
(0.37047 -0.0208688 0)
(0.376302 -0.020826 0)
(0.382039 -0.0207576 0)
(0.387682 -0.0206612 0)
(0.393229 -0.0205342 0)
(0.398679 -0.0203737 0)
(0.404034 -0.0201763 0)
(0.409291 -0.0199383 0)
(0.414452 -0.0196554 0)
(0.419514 -0.0193229 0)
(0.424479 -0.0189354 0)
(0.429346 -0.0184867 0)
(0.434115 -0.01797 0)
(0.438785 -0.0173774 0)
(0.443357 -0.0167001 0)
(0.447831 -0.0159279 0)
(0.452208 -0.0150493 0)
(0.456488 -0.014051 0)
(0.460672 -0.0129178 0)
(0.464763 -0.0116322 0)
(0.468764 -0.0101738 0)
(0.472679 -0.00851928 0)
(0.476516 -0.00664158 0)
(0.480284 -0.00450942 0)
(0.483997 -0.002087 0)
(0.487679 0.000665629 0)
(0.491352 0.00378941 0)
(0.495061 0.00732965 0)
(0.498862 0.0113329 0)
(0.502829 0.0158417 0)
(0.507058 0.0208863 0)
(0.511666 0.0264728 0)
(0.516788 0.0325672 0)
(0.522566 0.0390749 0)
(0.52912 0.0458205 0)
(0.536497 0.0525398 0)
(0.100144 -0.00140851 0)
(0.101241 -0.00276307 0)
(0.10302 -0.00398433 0)
(0.105376 -0.00512123 0)
(0.108262 -0.00619959 0)
(0.111633 -0.00723596 0)
(0.11545 -0.00824042 0)
(0.11968 -0.00921842 0)
(0.124293 -0.010172 0)
(0.129259 -0.0111008 0)
(0.134551 -0.0120032 0)
(0.140141 -0.0128769 0)
(0.146 -0.0137193 0)
(0.152102 -0.014528 0)
(0.158419 -0.0153011 0)
(0.164924 -0.0160371 0)
(0.171593 -0.0167352 0)
(0.178399 -0.017395 0)
(0.18532 -0.0180168 0)
(0.192335 -0.0186014 0)
(0.199422 -0.0191496 0)
(0.206563 -0.019663 0)
(0.213741 -0.020143 0)
(0.22094 -0.0205912 0)
(0.228145 -0.0210095 0)
(0.235346 -0.0213995 0)
(0.242529 -0.0217629 0)
(0.249684 -0.0221012 0)
(0.256804 -0.022416 0)
(0.263879 -0.0227085 0)
(0.270903 -0.0229799 0)
(0.277869 -0.0232311 0)
(0.284773 -0.0234629 0)
(0.291608 -0.023676 0)
(0.298372 -0.0238707 0)
(0.305059 -0.0240473 0)
(0.311668 -0.0242058 0)
(0.318194 -0.024346 0)
(0.324636 -0.0244677 0)
(0.330991 -0.0245703 0)
(0.337257 -0.0246531 0)
(0.343433 -0.0247151 0)
(0.349517 -0.0247552 0)
(0.355506 -0.024772 0)
(0.361402 -0.024764 0)
(0.367201 -0.0247294 0)
(0.372903 -0.0246659 0)
(0.378508 -0.0245713 0)
(0.384015 -0.0244429 0)
(0.389422 -0.0242775 0)
(0.394731 -0.0240717 0)
(0.399939 -0.0238218 0)
(0.405048 -0.0235234 0)
(0.410056 -0.0231716 0)
(0.414965 -0.0227612 0)
(0.419773 -0.0222859 0)
(0.424481 -0.0217391 0)
(0.429091 -0.0211132 0)
(0.433602 -0.0203997 0)
(0.438016 -0.019589 0)
(0.442334 -0.0186704 0)
(0.446559 -0.017632 0)
(0.450693 -0.01646 0)
(0.454739 -0.0151395 0)
(0.458704 -0.0136532 0)
(0.462593 -0.0119821 0)
(0.466416 -0.0101047 0)
(0.470183 -0.00799743 0)
(0.473909 -0.00563424 0)
(0.477615 -0.00298704 0)
(0.481327 -2.58064e-05 0)
(0.485076 0.00327563 0)
(0.488901 0.006941 0)
(0.492855 0.0109913 0)
(0.497001 0.0154383 0)
(0.501408 0.0202787 0)
(0.506153 0.0254859 0)
(0.511313 0.0310033 0)
(0.516952 0.036736 0)
(0.523108 0.0425492 0)
(0.529758 0.0482773 0)
(0.100121 -0.00162533 0)
(0.101201 -0.00321143 0)
(0.102944 -0.00464274 0)
(0.105258 -0.00597736 0)
(0.1081 -0.00724423 0)
(0.111426 -0.00846189 0)
(0.115197 -0.00964192 0)
(0.119381 -0.0107906 0)
(0.123947 -0.0119103 0)
(0.128866 -0.0130006 0)
(0.134109 -0.0140595 0)
(0.139648 -0.0150842 0)
(0.145456 -0.0160718 0)
(0.151505 -0.0170195 0)
(0.157766 -0.017925 0)
(0.164214 -0.0187866 0)
(0.170822 -0.0196033 0)
(0.177566 -0.0203748 0)
(0.184423 -0.0211013 0)
(0.19137 -0.0217838 0)
(0.198388 -0.0224234 0)
(0.205456 -0.0230218 0)
(0.212559 -0.0235807 0)
(0.219681 -0.0241021 0)
(0.226806 -0.0245881 0)
(0.233924 -0.0250407 0)
(0.241022 -0.0254618 0)
(0.248091 -0.0258532 0)
(0.25512 -0.0262166 0)
(0.262103 -0.0265537 0)
(0.269033 -0.0268655 0)
(0.275902 -0.0271534 0)
(0.282706 -0.0274182 0)
(0.28944 -0.0276605 0)
(0.296099 -0.0278809 0)
(0.30268 -0.0280795 0)
(0.30918 -0.0282564 0)
(0.315594 -0.0284114 0)
(0.321922 -0.0285441 0)
(0.32816 -0.0286537 0)
(0.334306 -0.0287395 0)
(0.340359 -0.0288004 0)
(0.346316 -0.0288349 0)
(0.352178 -0.0288415 0)
(0.357941 -0.0288183 0)
(0.363605 -0.0287633 0)
(0.36917 -0.0286739 0)
(0.374634 -0.0285474 0)
(0.379996 -0.0283807 0)
(0.385256 -0.0281704 0)
(0.390415 -0.0279127 0)
(0.39547 -0.0276031 0)
(0.400424 -0.0272369 0)
(0.405275 -0.0268089 0)
(0.410024 -0.026313 0)
(0.414672 -0.0257428 0)
(0.419219 -0.0250909 0)
(0.423668 -0.0243495 0)
(0.428019 -0.0235096 0)
(0.432275 -0.0225615 0)
(0.43644 -0.0214942 0)
(0.440516 -0.020296 0)
(0.444508 -0.0189537 0)
(0.448422 -0.017453 0)
(0.452266 -0.0157782 0)
(0.456049 -0.0139127 0)
(0.459783 -0.0118382 0)
(0.463481 -0.00953585 0)
(0.467161 -0.00698598 0)
(0.470846 -0.00416899 0)
(0.47456 -0.00106587 0)
(0.47834 0.00233827 0)
(0.482214 0.00604956 0)
(0.486225 0.0100705 0)
(0.49042 0.0143941 0)
(0.494844 0.0189997 0)
(0.499543 0.0238497 0)
(0.504551 0.0288867 0)
(0.509893 0.0340326 0)
(0.515564 0.039192 0)
(0.521523 0.044264 0)
(0.100097 -0.00185075 0)
(0.101163 -0.00367998 0)
(0.102872 -0.00533362 0)
(0.105143 -0.00687803 0)
(0.107939 -0.00834552 0)
(0.111218 -0.00975639 0)
(0.114941 -0.0111236 0)
(0.119076 -0.0124543 0)
(0.123591 -0.0137511 0)
(0.128458 -0.0150133 0)
(0.133649 -0.0162387 0)
(0.139134 -0.017424 0)
(0.144885 -0.0185658 0)
(0.150875 -0.0196609 0)
(0.157076 -0.0207065 0)
(0.163461 -0.0217009 0)
(0.170003 -0.0226428 0)
(0.176679 -0.0235319 0)
(0.183464 -0.0243686 0)
(0.190336 -0.0251539 0)
(0.197276 -0.0258892 0)
(0.204264 -0.0265764 0)
(0.211284 -0.0272176 0)
(0.218319 -0.0278152 0)
(0.225356 -0.0283713 0)
(0.232382 -0.0288885 0)
(0.239386 -0.0293689 0)
(0.246357 -0.0298147 0)
(0.253287 -0.0302278 0)
(0.260168 -0.0306099 0)
(0.266993 -0.0309625 0)
(0.273756 -0.0312869 0)
(0.28045 -0.0315842 0)
(0.287072 -0.031855 0)
(0.293617 -0.0321 0)
(0.300082 -0.0323192 0)
(0.306462 -0.0325127 0)
(0.312754 -0.0326803 0)
(0.318958 -0.0328214 0)
(0.325068 -0.0329352 0)
(0.331085 -0.0330208 0)
(0.337005 -0.0330767 0)
(0.342828 -0.0331016 0)
(0.348551 -0.0330934 0)
(0.354174 -0.0330501 0)
(0.359695 -0.0329693 0)
(0.365113 -0.0328482 0)
(0.370428 -0.0326838 0)
(0.375639 -0.0324725 0)
(0.380746 -0.0322106 0)
(0.385748 -0.0318939 0)
(0.390646 -0.0315175 0)
(0.395439 -0.0310765 0)
(0.400129 -0.030565 0)
(0.404715 -0.0299768 0)
(0.409201 -0.0293051 0)
(0.413586 -0.0285424 0)
(0.417873 -0.0276805 0)
(0.422066 -0.0267106 0)
(0.426167 -0.025623 0)
(0.43018 -0.0244072 0)
(0.434111 -0.0230522 0)
(0.437965 -0.0215458 0)
(0.441751 -0.0198755 0)
(0.445478 -0.0180277 0)
(0.449156 -0.0159889 0)
(0.452799 -0.0137448 0)
(0.456422 -0.0112819 0)
(0.460044 -0.008587 0)
(0.463685 -0.00564863 0)
(0.467369 -0.00245748 0)
(0.47113 0.00099396 0)
(0.474984 0.00470002 0)
(0.478964 0.00865068 0)
(0.483102 0.0128291 0)
(0.487424 0.0172089 0)
(0.491953 0.0217524 0)
(0.4967 0.0264104 0)
(0.501667 0.0311239 0)
(0.506835 0.0358279 0)
(0.512161 0.0404615 0)
(0.100071 -0.0020856 0)
(0.101126 -0.00416981 0)
(0.102803 -0.00605844 0)
(0.105032 -0.00782515 0)
(0.107781 -0.0095058 0)
(0.111012 -0.0111223 0)
(0.114685 -0.0126889 0)
(0.118768 -0.0142135 0)
(0.12323 -0.0156987 0)
(0.128043 -0.0171439 0)
(0.133177 -0.0185463 0)
(0.138604 -0.0199021 0)
(0.144295 -0.0212074 0)
(0.150221 -0.0224584 0)
(0.156356 -0.0236523 0)
(0.162672 -0.0247867 0)
(0.169142 -0.0258605 0)
(0.175742 -0.0268733 0)
(0.182448 -0.0278255 0)
(0.189238 -0.0287183 0)
(0.196092 -0.0295535 0)
(0.202992 -0.0303332 0)
(0.209919 -0.0310599 0)
(0.216859 -0.0317362 0)
(0.223797 -0.0323648 0)
(0.230722 -0.0329484 0)
(0.237621 -0.0334895 0)
(0.244486 -0.0339907 0)
(0.251306 -0.034454 0)
(0.258075 -0.0348814 0)
(0.264785 -0.0352747 0)
(0.27143 -0.0356353 0)
(0.278005 -0.0359643 0)
(0.284504 -0.0362625 0)
(0.290924 -0.0365305 0)
(0.297261 -0.0367685 0)
(0.303512 -0.0369764 0)
(0.309673 -0.037154 0)
(0.315742 -0.0373006 0)
(0.321716 -0.0374152 0)
(0.327593 -0.0374968 0)
(0.333372 -0.0375437 0)
(0.339051 -0.0375543 0)
(0.344627 -0.0375265 0)
(0.350101 -0.0374578 0)
(0.355471 -0.0373456 0)
(0.360736 -0.0371868 0)
(0.365895 -0.0369781 0)
(0.370948 -0.0367157 0)
(0.375895 -0.0363954 0)
(0.380736 -0.0360128 0)
(0.385471 -0.0355628 0)
(0.390101 -0.03504 0)
(0.394626 -0.0344384 0)
(0.399049 -0.0337518 0)
(0.403371 -0.0329731 0)
(0.407594 -0.0320949 0)
(0.411721 -0.0311092 0)
(0.415757 -0.0300074 0)
(0.419704 -0.0287805 0)
(0.423569 -0.0274188 0)
(0.427358 -0.0259123 0)
(0.431078 -0.0242507 0)
(0.434738 -0.0224234 0)
(0.438347 -0.0204198 0)
(0.441918 -0.0182294 0)
(0.445465 -0.0158425 0)
(0.449001 -0.0132504 0)
(0.452545 -0.010446 0)
(0.456115 -0.00742447 0)
(0.459731 -0.00418385 0)
(0.463413 -0.000724148 0)
(0.467189 0.00294825 0)
(0.471068 0.00681357 0)
(0.47507 0.0108512 0)
(0.479209 0.0150347 0)
(0.483494 0.0193314 0)
(0.487924 0.0237024 0)
(0.492489 0.0281048 0)
(0.497169 0.0324947 0)
(0.501924 0.0368361 0)
(0.100045 -0.0023308 0)
(0.101091 -0.0046822 0)
(0.102737 -0.00681891 0)
(0.104925 -0.00882091 0)
(0.107628 -0.0107277 0)
(0.11081 -0.0125628 0)
(0.114432 -0.0143415 0)
(0.118462 -0.0160723 0)
(0.122869 -0.017758 0)
(0.127624 -0.0193976 0)
(0.132698 -0.0209878 0)
(0.138063 -0.0225243 0)
(0.143688 -0.0240026 0)
(0.149547 -0.0254186 0)
(0.15561 -0.0267687 0)
(0.16185 -0.0280505 0)
(0.168241 -0.0292628 0)
(0.174758 -0.0304052 0)
(0.181378 -0.0314782 0)
(0.188077 -0.0324832 0)
(0.194837 -0.0334223 0)
(0.201638 -0.034298 0)
(0.208464 -0.035113 0)
(0.215299 -0.0358704 0)
(0.222128 -0.0365733 0)
(0.228941 -0.0372248 0)
(0.235726 -0.0378277 0)
(0.242472 -0.0383848 0)
(0.249172 -0.0388986 0)
(0.255817 -0.0393713 0)
(0.262401 -0.0398049 0)
(0.268917 -0.0402008 0)
(0.275361 -0.0405603 0)
(0.281727 -0.0408843 0)
(0.288012 -0.0411735 0)
(0.294211 -0.041428 0)
(0.300321 -0.0416477 0)
(0.30634 -0.0418323 0)
(0.312265 -0.041981 0)
(0.318092 -0.0420928 0)
(0.323821 -0.0421662 0)
(0.329449 -0.0421996 0)
(0.334975 -0.0421911 0)
(0.340397 -0.0421384 0)
(0.345714 -0.0420387 0)
(0.350925 -0.0418892 0)
(0.356029 -0.0416866 0)
(0.361027 -0.0414272 0)
(0.365917 -0.0411071 0)
(0.370699 -0.0407218 0)
(0.375375 -0.0402666 0)
(0.379944 -0.0397364 0)
(0.384407 -0.0391256 0)
(0.388767 -0.0384282 0)
(0.393025 -0.037638 0)
(0.397183 -0.036748 0)
(0.401245 -0.0357511 0)
(0.405214 -0.0346397 0)
(0.409094 -0.0334059 0)
(0.41289 -0.0320417 0)
(0.41661 -0.0305384 0)
(0.420258 -0.0288878 0)
(0.423845 -0.0270813 0)
(0.427378 -0.0251107 0)
(0.430868 -0.0229683 0)
(0.434327 -0.0206471 0)
(0.437767 -0.0181412 0)
(0.441202 -0.0154463 0)
(0.444647 -0.0125599 0)
(0.448118 -0.00948228 0)
(0.45163 -0.00621641 0)
(0.455196 -0.00276793 0)
(0.458841 0.000857679 0)
(0.462563 0.0046396 0)
(0.466373 0.00855522 0)
(0.470278 0.0125805 0)
(0.474278 0.0166886 0)
(0.478366 0.0208502 0)
(0.48253 0.0250345 0)
(0.486749 0.0292122 0)
(0.490992 0.033362 0)
(0.100016 -0.00258729 0)
(0.101056 -0.00521861 0)
(0.102676 -0.00761703 0)
(0.104822 -0.00986781 0)
(0.107481 -0.0120143 0)
(0.110613 -0.0140814 0)
(0.114184 -0.0160854 0)
(0.118158 -0.0180353 0)
(0.122508 -0.0199338 0)
(0.127203 -0.0217796 0)
(0.132215 -0.0235689 0)
(0.137513 -0.0252967 0)
(0.143069 -0.0269577 0)
(0.148854 -0.0285474 0)
(0.154839 -0.0300618 0)
(0.160997 -0.0314985 0)
(0.167302 -0.0328557 0)
(0.173728 -0.0341334 0)
(0.180252 -0.0353322 0)
(0.186851 -0.0364537 0)
(0.193507 -0.0375004 0)
(0.2002 -0.038475 0)
(0.206913 -0.0393809 0)
(0.213631 -0.0402214 0)
(0.220341 -0.0410002 0)
(0.22703 -0.0417206 0)
(0.233688 -0.0423859 0)
(0.240305 -0.0429992 0)
(0.246872 -0.0435634 0)
(0.253381 -0.0440809 0)
(0.259827 -0.0445537 0)
(0.266204 -0.0449837 0)
(0.272505 -0.0453722 0)
(0.278726 -0.0457202 0)
(0.284864 -0.0460282 0)
(0.290914 -0.0462966 0)
(0.296873 -0.0465252 0)
(0.302739 -0.0467134 0)
(0.308509 -0.0468605 0)
(0.31418 -0.0469652 0)
(0.319751 -0.0470261 0)
(0.325219 -0.0470413 0)
(0.330584 -0.0470085 0)
(0.335843 -0.0469254 0)
(0.340996 -0.046789 0)
(0.346041 -0.0465963 0)
(0.350979 -0.0463436 0)
(0.355809 -0.0460272 0)
(0.360531 -0.045643 0)
(0.365145 -0.0451863 0)
(0.369652 -0.0446524 0)
(0.374053 -0.044036 0)
(0.378349 -0.0433317 0)
(0.382542 -0.0425337 0)
(0.386635 -0.0416357 0)
(0.39063 -0.0406313 0)
(0.394532 -0.0395139 0)
(0.398343 -0.0382765 0)
(0.40207 -0.0369123 0)
(0.405718 -0.0354142 0)
(0.409293 -0.0337753 0)
(0.412803 -0.0319887 0)
(0.416255 -0.0300481 0)
(0.419659 -0.0279477 0)
(0.423026 -0.0256825 0)
(0.426364 -0.0232484 0)
(0.429686 -0.020643 0)
(0.433004 -0.0178653 0)
(0.436329 -0.0149164 0)
(0.439674 -0.0117997 0)
(0.443049 -0.00852136 0)
(0.446466 -0.00508989 0)
(0.44993 -0.00151424 0)
(0.453463 0.00219654 0)
(0.457049 0.00601611 0)
(0.460692 0.0099227 0)
(0.46439 0.0138948 0)
(0.468135 0.0179107 0)
(0.471913 0.0219484 0)
(0.475709 0.025988 0)
(0.479495 0.0300175 0)
(0.0999857 -0.00285605 0)
(0.101022 -0.0057807 0)
(0.102618 -0.00845497 0)
(0.104725 -0.0109686 0)
(0.107338 -0.0133688 0)
(0.110423 -0.0156818 0)
(0.11394 -0.0179249 0)
(0.117859 -0.0201071 0)
(0.12215 -0.0222313 0)
(0.126782 -0.0242955 0)
(0.131727 -0.0262952 0)
(0.136955 -0.0282247 0)
(0.142436 -0.0300783 0)
(0.148141 -0.0318505 0)
(0.154041 -0.0335373 0)
(0.16011 -0.0351357 0)
(0.16632 -0.0366442 0)
(0.172645 -0.0380626 0)
(0.179064 -0.0393918 0)
(0.185554 -0.0406337 0)
(0.192094 -0.0417911 0)
(0.198667 -0.0428673 0)
(0.205255 -0.0438661 0)
(0.211845 -0.0447913 0)
(0.218423 -0.0456468 0)
(0.224976 -0.0464367 0)
(0.231494 -0.0471646 0)
(0.237968 -0.047834 0)
(0.244389 -0.0484479 0)
(0.250751 -0.0490091 0)
(0.257046 -0.04952 0)
(0.263269 -0.0499824 0)
(0.269415 -0.0503979 0)
(0.27548 -0.0507675 0)
(0.281458 -0.0510918 0)
(0.287348 -0.051371 0)
(0.293145 -0.0516051 0)
(0.298848 -0.0517933 0)
(0.304452 -0.0519348 0)
(0.309957 -0.0520282 0)
(0.31536 -0.0520718 0)
(0.32066 -0.0520637 0)
(0.325855 -0.0520015 0)
(0.330943 -0.0518825 0)
(0.335925 -0.0517036 0)
(0.340799 -0.0514617 0)
(0.345565 -0.051153 0)
(0.350223 -0.0507735 0)
(0.354772 -0.0503191 0)
(0.359215 -0.0497852 0)
(0.36355 -0.049167 0)
(0.367781 -0.0484594 0)
(0.371909 -0.047657 0)
(0.375935 -0.0467544 0)
(0.379864 -0.0457457 0)
(0.383697 -0.0446252 0)
(0.38744 -0.0433867 0)
(0.391096 -0.0420245 0)
(0.394672 -0.0405326 0)
(0.398172 -0.0389052 0)
(0.401604 -0.037137 0)
(0.404974 -0.0352229 0)
(0.408291 -0.0331587 0)
(0.411563 -0.0309406 0)
(0.414799 -0.0285661 0)
(0.418008 -0.0260337 0)
(0.421201 -0.0233433 0)
(0.424386 -0.0204966 0)
(0.427573 -0.0174968 0)
(0.430771 -0.0143493 0)
(0.433988 -0.0110614 0)
(0.43723 -0.00764249 0)
(0.440501 -0.0041032 0)
(0.443808 -0.000452022 0)
(0.447154 0.00329715 0)
(0.450525 0.00712104 0)
(0.45392 0.0110017 0)
(0.457332 0.0149224 0)
(0.460749 0.0188678 0)
(0.464157 0.0228239 0)
(0.467537 0.0267844 0)
(0.099953 -0.00313809 0)
(0.100988 -0.00637031 0)
(0.102563 -0.00933517 0)
(0.104633 -0.0121264 0)
(0.107202 -0.0147947 0)
(0.110238 -0.0173681 0)
(0.113703 -0.0198642 0)
(0.117565 -0.0222925 0)
(0.121794 -0.0246553 0)
(0.126361 -0.0269502 0)
(0.131235 -0.0291719 0)
(0.136387 -0.0313138 0)
(0.141787 -0.0333694 0)
(0.147405 -0.0353329 0)
(0.153213 -0.0371996 0)
(0.159183 -0.0389665 0)
(0.165288 -0.040632 0)
(0.171503 -0.0421959 0)
(0.177805 -0.0436595 0)
(0.184173 -0.0450251 0)
(0.190585 -0.0462959 0)
(0.197025 -0.0474757 0)
(0.203476 -0.0485688 0)
(0.209924 -0.0495795 0)
(0.216355 -0.0505123 0)
(0.222758 -0.0513717 0)
(0.229123 -0.0521618 0)
(0.23544 -0.0528863 0)
(0.241702 -0.0535489 0)
(0.247901 -0.0541525 0)
(0.254032 -0.0546996 0)
(0.260089 -0.0551924 0)
(0.266067 -0.0556325 0)
(0.271961 -0.056021 0)
(0.277769 -0.0563586 0)
(0.283486 -0.0566455 0)
(0.28911 -0.0568814 0)
(0.294637 -0.0570657 0)
(0.300066 -0.0571974 0)
(0.305395 -0.0572749 0)
(0.310622 -0.0572966 0)
(0.315744 -0.0572602 0)
(0.320761 -0.0571633 0)
(0.325672 -0.0570029 0)
(0.330476 -0.0567761 0)
(0.335173 -0.0564793 0)
(0.339762 -0.0561089 0)
(0.344243 -0.0556608 0)
(0.348618 -0.0551309 0)
(0.352886 -0.0545146 0)
(0.357049 -0.0538073 0)
(0.361109 -0.0530042 0)
(0.365068 -0.0521002 0)
(0.368928 -0.0510903 0)
(0.372693 -0.0499692 0)
(0.376366 -0.0487319 0)
(0.379952 -0.0473731 0)
(0.383455 -0.045888 0)
(0.38688 -0.0442719 0)
(0.390233 -0.0425203 0)
(0.393522 -0.0406295 0)
(0.396752 -0.038596 0)
(0.399931 -0.0364174 0)
(0.403067 -0.0340919 0)
(0.406167 -0.0316187 0)
(0.409239 -0.0289985 0)
(0.412291 -0.0262329 0)
(0.415332 -0.0233252 0)
(0.418366 -0.02028 0)
(0.421402 -0.0171035 0)
(0.424444 -0.0138035 0)
(0.427496 -0.0103892 0)
(0.43056 -0.00687077 0)
(0.433635 -0.00325778 0)
(0.436731 0.000443984 0)
(0.439834 0.00421712 0)
(0.442936 0.00804354 0)
(0.446033 0.0119099 0)
(0.449117 0.0158046 0)
(0.452176 0.019718 0)
(0.455194 0.0236473 0)
(0.0999178 -0.00343449 0)
(0.100955 -0.00698939 0)