/*--------------------------------*- C++ -*----------------------------------*\
  =========                 |
  \\      /  F ield         | OpenFOAM: The Open Source CFD Toolbox
   \\    /   O peration     | Website:  https://openfoam.org
    \\  /    A nd           | Version:  7
     \\/     M anipulation  |
\*---------------------------------------------------------------------------*/
FoamFile
{
    version     2.0;
    format      ascii;
    class       volScalarField;
    location    "8.03";
    object      T;
}
// * * * * * * * * * * * * * * * * * * * * * * * * * * * * * * * * * * * * * //

dimensions      [0 0 0 1 0 0 0];

internalField   nonuniform List<scalar> 
12013
(
300.13
300.392
300.661
300.934
301.209
301.483
301.756
302.026
302.292
302.552
302.806
303.053
303.293
303.525
303.75
303.967
304.176
304.377
304.571
304.758
304.937
305.11
305.277
305.437
305.592
305.741
305.885
306.025
306.16
306.292
306.42
306.545
306.668
306.788
306.908
307.027
307.146
307.266
307.387
307.512
307.64
307.773
307.912
308.059
308.216
308.383
308.564
308.76
308.974
309.209
309.467
309.751
310.066
310.416
310.803
311.234
311.713
312.245
312.838
313.496
314.229
315.042
315.945
316.948
318.06
319.293
320.66
322.174
323.851
325.709
327.769
330.053
332.59
335.413
338.564
342.094
346.073
350.598
355.816
361.969
369.522
300.13
300.393
300.662
300.935
301.21
301.484
301.757
302.027
302.293
302.553
302.807
303.054
303.295
303.527
303.752
303.969
304.178
304.379
304.573
304.76
304.94
305.113
305.279
305.44
305.594
305.744
305.888
306.027
306.163
306.294
306.422
306.548
306.67
306.791
306.911
307.03
307.149
307.268
307.39
307.514
307.642
307.775
307.914
308.061
308.218
308.385
308.566
308.762
308.976
309.21
309.468
309.752
310.066
310.415
310.802
311.232
311.71
312.242
312.833
313.491
314.222
315.033
315.935
316.935
318.044
319.273
320.635
322.144
323.814
325.663
327.712
329.982
332.5
335.298
338.414
341.895
345.8
350.206
355.214
360.948
367.52
300.13
300.393
300.662
300.936
301.211
301.486
301.759
302.029
302.295
302.556
302.81
303.058
303.298
303.531
303.756
303.973
304.183
304.384
304.579
304.765
304.945
305.118
305.285
305.445
305.6
305.75
305.894
306.033
306.169
306.3
306.428
306.554
306.676
306.797
306.917
307.035
307.154
307.274
307.396
307.52
307.648
307.78
307.919
308.066
308.222
308.389
308.57
308.765
308.978
309.212
309.469
309.753
310.067
310.414
310.8
311.229
311.705
312.235
312.824
313.479
314.206
315.014
315.911
316.905
318.008
319.229
320.581
322.077
323.732
325.563
327.587
329.827
332.305
335.05
338.093
341.473
345.232
349.418
354.079
359.242
364.87
300.13
300.394
300.664
300.937
301.213
301.489
301.762
302.033
302.3
302.561
302.816
303.064
303.305
303.538
303.763
303.981
304.191
304.393
304.587
304.774
304.954
305.128
305.294
305.455
305.61
305.759
305.904
306.043
306.179
306.31
306.438
306.564
306.686
306.807
306.926
307.045
307.164
307.284
307.405
307.529
307.656
307.789
307.928
308.074
308.23
308.396
308.576
308.771
308.983
309.216
309.472
309.754
310.067
310.413
310.797
311.223
311.697
312.223
312.809
313.459
314.181
314.983
315.872
316.857
317.949
319.157
320.493
321.969
323.6
325.4
327.386
329.576
331.992
334.655
337.59
340.822
344.378
348.279
352.535
357.125
361.98
300.13
300.395
300.665
300.94
301.216
301.493
301.767
302.039
302.306
302.568
302.824
303.072
303.314
303.548
303.774
303.992
304.202
304.405
304.599
304.787
304.967
305.141
305.308
305.469
305.624
305.774
305.918
306.058
306.194
306.325
306.453
306.578
306.701
306.822
306.941
307.06
307.178
307.298
307.419
307.542
307.67
307.802
307.94
308.086
308.24
308.406
308.585
308.779
308.99
309.222
309.476
309.757
310.067
310.411
310.792
311.215
311.685
312.206
312.786
313.43
314.144
314.937
315.815
316.787
317.863
319.052
320.364
321.813
323.409
325.166
327.098
329.222
331.553
334.107
336.902
339.952
343.268
346.854
350.697
354.765
358.993
300.131
300.396
300.668
300.943
301.221
301.498
301.774
302.047
302.315
302.578
302.834
303.084
303.327
303.561
303.788
304.007
304.218
304.421
304.617
304.805
304.986
305.16
305.327
305.489
305.644
305.794
305.939
306.079
306.214
306.346
306.474
306.599
306.722
306.842
306.961
307.08
307.198
307.317
307.438
307.561
307.688
307.819
307.957
308.102
308.256
308.421
308.598
308.791
309.001
309.23
309.483
309.761
310.068
310.408
310.785
311.204
311.668
312.184
312.756
313.391
314.095
314.874
315.738
316.693
317.747
318.911
320.193
321.604
323.154
324.856
326.721
328.76
330.986
333.41
336.04
338.884
341.941
345.205
348.657
352.262
355.967
300.131
300.398
300.671
300.948
301.227
301.506
301.783
302.057
302.327
302.591
302.849
303.1
303.344
303.58
303.808
304.027
304.239
304.443
304.64
304.829
305.01
305.185
305.353
305.515
305.67
305.821
305.966
306.106
306.242
306.373
306.501
306.626
306.749
306.869
306.988
307.106
307.224
307.343
307.463
307.586
307.712
307.843
307.979
308.123
308.276
308.44
308.616
308.807
309.014
309.241
309.491
309.766
310.069
310.405
310.777
311.19
311.647
312.154
312.717
313.34
314.031
314.795
315.639
316.571
317.599
318.73
319.974
321.338
322.833
324.468
326.25
328.19
330.295
332.57
335.02
337.645
340.44
343.392
346.481
349.677
352.94
300.132
300.401
300.675
300.954
301.235
301.515
301.794
302.07
302.342
302.608
302.868
303.12
303.366
303.603
303.832
304.054
304.267
304.472
304.669
304.859
305.042
305.217
305.386
305.548
305.705
305.855
306.001
306.141
306.277
306.409
306.537
306.662
306.784
306.905
307.023
307.141
307.259
307.377
307.496
307.618
307.743
307.873
308.009
308.151
308.303
308.465
308.639
308.827
309.032
309.256
309.502
309.773
310.072
310.402
310.768
311.173
311.621
312.118
312.669
313.278
313.951
314.696
315.517
316.421
317.416
318.509
319.706
321.016
322.445
324.001
325.689
327.517
329.488
331.604
333.866
336.269
338.806
341.463
344.221
347.055
349.936
300.133
300.404
300.681
300.962
301.245
301.528
301.809
302.087
302.361
302.629
302.891
303.146
303.393
303.633
303.864
304.087
304.301
304.508
304.707
304.898
305.081
305.258
305.428
305.591
305.748
305.899
306.045
306.186
306.322
306.454
306.582
306.707
306.829
306.949
307.068
307.185
307.302
307.419
307.538
307.659
307.783
307.912
308.046
308.187
308.337
308.496
308.668
308.854
309.056
309.276
309.518
309.784
310.077
310.4
310.758
311.153
311.591
312.075
312.611
313.203
313.857
314.577
315.37
316.242
317.198
318.245
319.389
320.635
321.99
323.458
325.044
326.75
328.579
330.531
332.602
334.787
337.077
339.459
341.917
344.43
346.977
300.135
300.408
300.687
300.971
301.257
301.543
301.827
302.108
302.385
302.656
302.921
303.178
303.428
303.67
303.903
304.128
304.345
304.553
304.754
304.946
305.131
305.309
305.48
305.644
305.802
305.954
306.1
306.241
306.378
306.51
306.638
306.763
306.885
307.005
307.123
307.24
307.356
307.473
307.591
307.711
307.834
307.961
308.093
308.232
308.38
308.537
308.706
308.888
309.086
309.302
309.538
309.798
310.084
310.399
310.748
311.132
311.557
312.027
312.545
313.117
313.746
314.439
315.2
316.034
316.946
317.942
319.025
320.202
321.475
322.848
324.324
325.903
327.587
329.372
331.255
333.23
335.287
337.416
339.602
341.83
344.082
300.136
300.412
300.695
300.983
301.272
301.561
301.849
302.134
302.414
302.689
302.957
303.217
303.47
303.715
303.951
304.179
304.398
304.609
304.811
305.006
305.192
305.372
305.544
305.709
305.868
306.021
306.168
306.31
306.447
306.579
306.708
306.833
306.955
307.074
307.192
307.308
307.423
307.539
307.656
307.774
307.896
308.021
308.152
308.289
308.433
308.587
308.753
308.931
309.124
309.335
309.565
309.818
310.096
310.402
310.739
311.111
311.521
311.973
312.471
313.02
313.622
314.284
315.008
315.8
316.663
317.602
318.62
319.72
320.906
322.18
323.541
324.992
326.529
328.151
329.853
331.628
333.469
335.366
337.307
339.279
341.271
300.138
300.418
300.705
300.997
301.29
301.584
301.876
302.166
302.45
302.729
303.001
303.265
303.522
303.77
304.01
304.24
304.463
304.676
304.881
305.078
305.267
305.448
305.622
305.789
305.949
306.103
306.251
306.394
306.531
306.664
306.793
306.918
307.039
307.158
307.275
307.391
307.506
307.62
307.736
307.853
307.973
308.096
308.224
308.358
308.5
308.65
308.812
308.985
309.173
309.378
309.601
309.845
310.114
310.409
310.733
311.09
311.484
311.916
312.392
312.914
313.487
314.113
314.797
315.543
316.353
317.23
318.179
319.2
320.295
321.466
322.713
324.035
325.429
326.893
328.422
330.01
331.651
333.336
335.056
336.8
338.559
300.14
300.425
300.717
301.014
301.312
301.612
301.909
302.203
302.493
302.777
303.054
303.323
303.584
303.837
304.08
304.315
304.541
304.758
304.966
305.166
305.358
305.541
305.717
305.886
306.048
306.203
306.352
306.496
306.634
306.767
306.896
307.021
307.142
307.261
307.377
307.492
307.606
307.719
307.833
307.948
308.066
308.187
308.312
308.444
308.582
308.728
308.885
309.053
309.235
309.432
309.648
309.883
310.14
310.423
310.733
311.074
311.449
311.86
312.31
312.804
313.344
313.932
314.573
315.269
316.023
316.836
317.712
318.651
319.655
320.724
321.856
323.052
324.308
325.621
326.988
328.403
329.86
331.352
332.873
334.413
335.965
300.143
300.434
300.731
301.034
301.339
301.644
301.948
302.249
302.545
302.835
303.118
303.393
303.659
303.917
304.165
304.405
304.635
304.856
305.068
305.272
305.466
305.653
305.831
306.003
306.166
306.323
306.474
306.618
306.757
306.891
307.02
307.145
307.266
307.385
307.5
307.614
307.727
307.839
307.951
308.064
308.179
308.298
308.42
308.548
308.682
308.824
308.975
309.137
309.312
309.502
309.708
309.933
310.179
310.448
310.743
311.066
311.42
311.807
312.231
312.694
313.198
313.747
314.342
314.986
315.681
316.43
317.232
318.089
319.001
319.968
320.99
322.064
323.189
324.361
325.576
326.831
328.121
329.439
330.78
332.137
333.505
300.146
300.444
300.749
301.058
301.371
301.684
301.995
302.303
302.606
302.904
303.193
303.475
303.748
304.012
304.267
304.512
304.748
304.974
305.19
305.398
305.597
305.787
305.968
306.142
306.308
306.467
306.619
306.765
306.905
307.039
307.169
307.294
307.415
307.533
307.648
307.76
307.872
307.982
308.092
308.203
308.316
308.431
308.55
308.674
308.803
308.94
309.086
309.241
309.409
309.59
309.786
310
310.233
310.487
310.765
311.069
311.401
311.763
312.158
312.589
313.056
313.563
314.112
314.703
315.339
316.021
316.75
317.526
318.349
319.218
320.133
321.092
322.094
323.134
324.21
325.319
326.456
327.616
328.796
329.99
331.192
300.15
300.456
300.769
301.087
301.408
301.73
302.051
302.368
302.68
302.985
303.284
303.573
303.854
304.126
304.388
304.64
304.881
305.113
305.336
305.548
305.751
305.946
306.131
306.308
306.477
306.638
306.792
306.94
307.081
307.216
307.346
307.471
307.592
307.709
307.823
307.935
308.044
308.153
308.261
308.37
308.479
308.591
308.706
308.826
308.95
309.082
309.221
309.369
309.529
309.7
309.886
310.088
310.307
310.545
310.806
311.089
311.398
311.734
312.1
312.496
312.926
313.391
313.892
314.43
315.008
315.624
316.281
316.978
317.715
318.491
319.306
320.157
321.044
321.962
322.911
323.887
324.886
325.904
326.94
327.987
329.042
300.155
300.47
300.793
301.121
301.453
301.785
302.116
302.444
302.766
303.082
303.39
303.69
303.98
304.26
304.531
304.79
305.04
305.279
305.508
305.726
305.935
306.134
306.323
306.504
306.676
306.841
306.997
307.146
307.289
307.425
307.555
307.681
307.801
307.918
308.031
308.141
308.249
308.356
308.462
308.567
308.674
308.782
308.893
309.008
309.127
309.252
309.385
309.525
309.676
309.838
310.012
310.201
310.406
310.628
310.869
311.132
311.417
311.726
312.062
312.425
312.817
313.239
313.693
314.179
314.699
315.252
315.84
316.462
317.117
317.806
318.526
319.278
320.058
320.866
321.699
322.554
323.429
324.32
325.226
326.142
327.066
300.161
300.487
300.821
301.162
301.505
301.85
302.193
302.533
302.868
303.196
303.516
303.827
304.128
304.419
304.699
304.968
305.227
305.474
305.71
305.936
306.151
306.356
306.55
306.735
306.911
307.079
307.238
307.389
307.533
307.671
307.802
307.927
308.048
308.164
308.276
308.385
308.491
308.595
308.698
308.801
308.904
309.009
309.115
309.225
309.338
309.457
309.582
309.715
309.856
310.007
310.17
310.345
310.535
310.741
310.963
311.204
311.465
311.748
312.053
312.382
312.737
313.117
313.525
313.961
314.425
314.919
315.441
315.992
316.571
317.178
317.812
318.472
319.156
319.863
320.59
321.337
322.1
322.878
323.668
324.468
325.275
300.167
300.506
300.854
301.209
301.567
301.926
302.284
302.639
302.988
303.33
303.663
303.988
304.302
304.605
304.897
305.177
305.446
305.703
305.948
306.182
306.404
306.615
306.816
307.006
307.187
307.358
307.52
307.674
307.82
307.958
308.09
308.216
308.336
308.452
308.563
308.67
308.774
308.876
308.976
309.076
309.175
309.275
309.377
309.481
309.589
309.701
309.818
309.942
310.074
310.214
310.365
310.527
310.701
310.89
311.093
311.313
311.55
311.806
312.081
312.378
312.696
313.036
313.4
313.788
314.2
314.636
315.097
315.582
316.091
316.623
317.178
317.755
318.351
318.967
319.601
320.25
320.914
321.591
322.278
322.974
323.677
300.175
300.529
300.894
301.265
301.64
302.016
302.391
302.762
303.128
303.486
303.836
304.176
304.505
304.823
305.129
305.422
305.703
305.971
306.226
306.469
306.7
306.919
307.126
307.322
307.507
307.683
307.848
308.005
308.153
308.293
308.426
308.552
308.672
308.786
308.896
309.002
309.104
309.203
309.3
309.396
309.492
309.587
309.684
309.782
309.883
309.988
310.098
310.213
310.335
310.465
310.603
310.751
310.911
311.082
311.266
311.465
311.679
311.909
312.156
312.42
312.704
313.006
313.329
313.671
314.034
314.418
314.822
315.247
315.692
316.156
316.639
317.14
317.659
318.193
318.743
319.306
319.881
320.468
321.064
321.668
322.278
300.183
300.556
300.939
301.33
301.724
302.12
302.515
302.906
303.292
303.669
304.038
304.396
304.743
305.077
305.399
305.707
306.002
306.283
306.55
306.803
307.043
307.271
307.485
307.688
307.879
308.059
308.228
308.388
308.538
308.679
308.813
308.94
309.059
309.173
309.282
309.385
309.485
309.582
309.676
309.768
309.859
309.95
310.041
310.134
310.228
310.326
310.427
310.534
310.646
310.764
310.89
311.025
311.169
311.324
311.49
311.668
311.86
312.065
312.284
312.519
312.77
313.037
313.321
313.621
313.939
314.275
314.627
314.997
315.384
315.787
316.206
316.64
317.088
317.55
318.025
318.512
319.009
319.516
320.031
320.554
321.083
300.194
300.588
300.993
301.405
301.823
302.242
302.66
303.075
303.483
303.883
304.274
304.653
305.02
305.374
305.713
306.038
306.349
306.644
306.924
307.19
307.44
307.677
307.9
308.11
308.307
308.492
308.665
308.828
308.981
309.124
309.259
309.385
309.505
309.618
309.725
309.826
309.924
310.017
310.108
310.196
310.283
310.368
310.454
310.54
310.628
310.719
310.812
310.909
311.011
311.119
311.233
311.355
311.484
311.623
311.771
311.93
312.099
312.281
312.475
312.682
312.902
313.136
313.385
313.647
313.924
314.216
314.522
314.842
315.177
315.525
315.887
316.262
316.648
317.047
317.456
317.875
318.303
318.74
319.184
319.635
320.092
300.206
300.625
301.055
301.494
301.938
302.384
302.829
303.271
303.705
304.132
304.547
304.951
305.341
305.717
306.077
306.421
306.749
307.061
307.356
307.634
307.897
308.144
308.376
308.593
308.797
308.987
309.165
309.331
309.486
309.631
309.767
309.894
310.013
310.125
310.23
310.329
310.424
310.514
310.601
310.685
310.767
310.848
310.928
311.008
311.089
311.171
311.257
311.345
311.437
311.534
311.637
311.745
311.861
311.984
312.115
312.256
312.405
312.565
312.735
312.916
313.109
313.313
313.529
313.757
313.997
314.249
314.514
314.791
315.079
315.379
315.69
316.012
316.345
316.687
317.038
317.399
317.767
318.142
318.524
318.912
319.305
300.22
300.668
301.128
301.597
302.072
302.55
303.026
303.498
303.964
304.42
304.865
305.296
305.712
306.113
306.496
306.862
307.21
307.539
307.85
308.143
308.418
308.677
308.918
309.144
309.354
309.55
309.733
309.903
310.06
310.207
310.343
310.47
310.588
310.699
310.802
310.899
310.991
311.078
311.16
311.24
311.317
311.392
311.466
311.54
311.614
311.689
311.766
311.846
311.928
312.015
312.106
312.202
312.305
312.413
312.529
312.652
312.783
312.922
313.071
313.229
313.396
313.573
313.76
313.957
314.164
314.382
314.609
314.847
315.095
315.353
315.62
315.896
316.181
316.474
316.775
317.084
317.4
317.722
318.049
318.383
318.72
300.237
300.717
301.212
301.717
302.228
302.742
303.254
303.763
304.263
304.754
305.231
305.694
306.14
306.569
306.978
307.367
307.737
308.085
308.414
308.723
309.012
309.282
309.533
309.768
309.985
310.187
310.374
310.547
310.707
310.855
310.992
311.118
311.236
311.344
311.445
311.54
311.628
311.711
311.789
311.864
311.936
312.006
312.074
312.141
312.208
312.276
312.345
312.416
312.489
312.565
312.646
312.73
312.82
312.915
313.016
313.123
313.237
313.358
313.487
313.624
313.768
313.921
314.082
314.252
314.43
314.617
314.813
315.017
315.229
315.45
315.678
315.914
316.158
316.409
316.667
316.931
317.201
317.476
317.757
318.043
318.332
300.256
300.776
301.31
301.856
302.409
302.965
303.519
304.069
304.61
305.139
305.654
306.152
306.631
307.091
307.528
307.944
308.337
308.706
309.054
309.379
309.682
309.964
310.227
310.469
310.694
310.901
311.093
311.269
311.43
311.579
311.716
311.842
311.958
312.064
312.163
312.254
312.338
312.417
312.491
312.561
312.627
312.691
312.753
312.814
312.874
312.934
312.995
313.058
313.122
313.189
313.259
313.333
313.411
313.493
313.581
313.674
313.772
313.877
313.988
314.105
314.23
314.361
314.499
314.645
314.798
314.958
315.126
315.3
315.482
315.671
315.866
316.068
316.276
316.491
316.711
316.936
317.167
317.403
317.643
317.887
318.135
300.278
300.843
301.425
302.018
302.619
303.223
303.826
304.422
305.009
305.582
306.139
306.677
307.193
307.686
308.155
308.598
309.016
309.409
309.775
310.117
310.435
310.73
311.002
311.254
311.485
311.697
311.892
312.07
312.234
312.383
312.519
312.643
312.757
312.861
312.956
313.043
313.123
313.198
313.267
313.331
313.392
313.45
313.506
313.56
313.613
313.667
313.72
313.774
313.83
313.888
313.949
314.012
314.08
314.151
314.226
314.306
314.39
314.48
314.575
314.676
314.783
314.895
315.014
315.139
315.27
315.407
315.55
315.699
315.854
316.016
316.183
316.355
316.533
316.716
316.904
317.097
317.294
317.496
317.701
317.91
318.123
300.304
300.922
301.557
302.206
302.863
303.522
304.18
304.83
305.469
306.092
306.695
307.277
307.833
308.363
308.865
309.338
309.782
310.198
310.585
310.944
311.276
311.582
311.864
312.123
312.36
312.577
312.774
312.954
313.117
313.266
313.401
313.523
313.633
313.734
313.825
313.908
313.984
314.053
314.117
314.176
314.231
314.283
314.333
314.38
314.427
314.473
314.519
314.566
314.614
314.664
314.716
314.77
314.827
314.888
314.952
315.02
315.093
315.17
315.251
315.338
315.429
315.525
315.627
315.733
315.845
315.963
316.085
316.213
316.346
316.484
316.626
316.774
316.926
317.082
317.243
317.408
317.577
317.749
317.925
318.104
318.286
300.334
301.013
301.711
302.423
303.144
303.868
304.588
305.299
305.996
306.675
307.33
307.959
308.559
309.128
309.665
310.169
310.641
311.079
311.486
311.861
312.207
312.524
312.814
313.08
313.321
313.54
313.739
313.919
314.082
314.228
314.36
314.479
314.586
314.683
314.769
314.847
314.918
314.982
315.04
315.093
315.143
315.189
315.232
315.274
315.314
315.353
315.393
315.433
315.473
315.515
315.559
315.606
315.654
315.706
315.761
315.819
315.881
315.946
316.016
316.09
316.168
316.25
316.337
316.429
316.525
316.626
316.731
316.84
316.954
317.072
317.195
317.321
317.451
317.586
317.723
317.865
318.009
318.157
318.308
318.461
318.617
300.369
301.118
301.889
302.675
303.47
304.266
305.058
305.838
306.6
307.34
308.052
308.732
309.379
309.989
310.562
311.098
311.595
312.056
312.481
312.872
313.229
313.555
313.852
314.122
314.366
314.586
314.785
314.963
315.123
315.266
315.395
315.509
315.612
315.703
315.784
315.857
315.922
315.98
316.032
316.08
316.124
316.164
316.202
316.237
316.272
316.305
316.338
316.372
316.406
316.442
316.479
316.518
316.56
316.603
316.65
316.7
316.753
316.809
316.869
316.932
317
317.071
317.146
317.225
317.307
317.394
317.485
317.579
317.677
317.779
317.884
317.993
318.105
318.221
318.34
318.461
318.586
318.713
318.843
318.975
319.109
300.409
301.241
302.095
302.966
303.845
304.725
305.597
306.454
307.289
308.095
308.868
309.603
310.298
310.951
311.56
312.126
312.649
313.131
313.572
313.975
314.341
314.674
314.975
315.246
315.49
315.709
315.904
316.079
316.235
316.374
316.497
316.606
316.703
316.788
316.864
316.931
316.99
317.042
317.089
317.132
317.17
317.205
317.237
317.268
317.297
317.325
317.353
317.382
317.411
317.441
317.473
317.506
317.542
317.579
317.62
317.663
317.708
317.757
317.809
317.864
317.923
317.985
318.05
318.119
318.191
318.266
318.345
318.427
318.512
318.601
318.692
318.787
318.884
318.985
319.087
319.193
319.301
319.411
319.523
319.637
319.753
300.456
301.382
302.334
303.302
304.278
305.252
306.215
307.158
308.071
308.95
309.787
310.579
311.323
312.017
312.661
313.255
313.801
314.299
314.753
315.165
315.537
315.872
316.173
316.443
316.684
316.898
317.089
317.259
317.409
317.541
317.658
317.761
317.851
317.93
318
318.061
318.114
318.162
318.203
318.241
318.274
318.305
318.333
318.359
318.385
318.409
318.434
318.458
318.484
318.51
318.538
318.567
318.598
318.631
318.667
318.705
318.746
318.789
318.835
318.884
318.936
318.991
319.049
319.11
319.173
319.24
319.31
319.382
319.457
319.535
319.615
319.698
319.784
319.872
319.962
320.054
320.148
320.244
320.342
320.441
320.542
300.51
301.546
302.609
303.689
304.776
305.856
306.92
307.956
308.956
309.91
310.815
311.664
312.456
313.189
313.864
314.481
315.044
315.555
316.016
316.431
316.804
317.137
317.434
317.699
317.934
318.142
318.325
318.487
318.63
318.755
318.864
318.96
319.044
319.117
319.181
319.237
319.285
319.328
319.366
319.399
319.43
319.457
319.482
319.506
319.529
319.551
319.574
319.596
319.62
319.644
319.67
319.697
319.726
319.757
319.79
319.825
319.862
319.902
319.944
319.989
320.037
320.087
320.139
320.195
320.252
320.312
320.375
320.44
320.508
320.577
320.649
320.723
320.799
320.877
320.957
321.038
321.121
321.206
321.292
321.379
321.467
300.573
301.735
302.926
304.134
305.346
306.546
307.721
308.859
309.948
310.982
311.952
312.857
313.692
314.459
315.158
315.793
316.366
316.882
317.344
317.757
318.124
318.451
318.74
318.996
319.221
319.42
319.594
319.747
319.881
319.998
320.1
320.189
320.267
320.335
320.394
320.446
320.491
320.531
320.566
320.598
320.626
320.653
320.677
320.701
320.723
320.746
320.768
320.791
320.814
320.839
320.865
320.892
320.921
320.951
320.983
321.018
321.054
321.092
321.133
321.176
321.221
321.268
321.317
321.369
321.423
321.478
321.536
321.596
321.658
321.721
321.786
321.853
321.922
321.992
322.064
322.136
322.211
322.286
322.362
322.44
322.518
300.645
301.953
303.291
304.645
305.996
307.328
308.624
309.87
311.053
312.164
313.198
314.151
315.022
315.814
316.529
317.171
317.746
318.258
318.713
319.117
319.473
319.788
320.065
320.309
320.522
320.71
320.873
321.017
321.142
321.251
321.347
321.43
321.503
321.567
321.624
321.673
321.717
321.756
321.792
321.824
321.854
321.882
321.908
321.934
321.959
321.984
322.008
322.034
322.06
322.087
322.115
322.144
322.175
322.207
322.241
322.276
322.314
322.353
322.393
322.436
322.48
322.526
322.574
322.624
322.675
322.728
322.783
322.839
322.897
322.956
323.016
323.078
323.14
323.204
323.269
323.335
323.402
323.47
323.538
323.608
323.677
300.728
302.203
303.709
305.226
306.734
308.211
309.636
310.993
312.268
313.451
314.539
315.529
316.425
317.231
317.949
318.587
319.151
319.65
320.09
320.476
320.816
321.115
321.376
321.605
321.806
321.981
322.135
322.269
322.387
322.491
322.582
322.662
322.733
322.796
322.852
322.903
322.949
322.99
323.029
323.065
323.098
323.131
323.162
323.192
323.222
323.252
323.282
323.312
323.343
323.375
323.407
323.441
323.475
323.511
323.548
323.586
323.626
323.667
323.709
323.753
323.798
323.845
323.893
323.942
323.992
324.043
324.096
324.15
324.204
324.26
324.317
324.374
324.432
324.491
324.551
324.611
324.672
324.733
324.795
324.857
324.92
300.822
302.488
304.184
305.886
307.567
309.198
310.757
312.222
313.582
314.828
315.953
316.961
317.86
318.658
319.363
319.984
320.53
321.008
321.427
321.794
322.114
322.394
322.64
322.854
323.042
323.207
323.352
323.48
323.593
323.693
323.783
323.863
323.935
324
324.059
324.114
324.164
324.211
324.256
324.298
324.339
324.378
324.416
324.454
324.491
324.528
324.565
324.602
324.64
324.678
324.716
324.756
324.795
324.836
324.877
324.92
324.963
325.007
325.052
325.097
325.144
325.191
325.24
325.289
325.339
325.389
325.441
325.493
325.545
325.598
325.651
325.705
325.76
325.814
325.869
325.925
325.98
326.035
326.091
326.147
326.203
300.93
302.812
304.724
306.63
308.497
310.291
311.984
313.54
314.954
316.227
317.364
318.371
319.26
320.04
320.723
321.319
321.838
322.291
322.685
323.029
323.328
323.59
323.819
324.02
324.197
324.353
324.492
324.616
324.727
324.827
324.917
325
325.076
325.146
325.211
325.272
325.33
325.385
325.438
325.489
325.538
325.587
325.634
325.68
325.726
325.772
325.817
325.862
325.907
325.952
325.997
326.042
326.088
326.134
326.18
326.226
326.273
326.32
326.368
326.416
326.464
326.513
326.562
326.611
326.66
326.71
326.76
326.81
326.861
326.911
326.961
327.012
327.063
327.113
327.163
327.214
327.264
327.314
327.364
327.414
327.463
301.05
303.177
305.328
307.459
309.526
311.46
313.238
314.851
316.297
317.58
318.711
319.702
320.566
321.316
321.967
322.531
323.019
323.442
323.809
324.129
324.407
324.651
324.865
325.054
325.222
325.372
325.507
325.629
325.74
325.842
325.936
326.024
326.105
326.182
326.255
326.324
326.391
326.455
326.517
326.577
326.636
326.693
326.749
326.805
326.859
326.913
326.966
327.019
327.071
327.123
327.174
327.225
327.276
327.327
327.377
327.427
327.477
327.527
327.577
327.626
327.676
327.725
327.774
327.823
327.872
327.921
327.969
328.017
328.065
328.113
328.16
328.207
328.254
328.3
328.346
328.391
328.437
328.481
328.526
328.57
328.613
301.181
303.573
305.989
308.34
310.55
312.584
314.424
316.068
317.521
318.793
319.899
320.858
321.684
322.396
323.009
323.536
323.99
324.382
324.722
325.018
325.277
325.504
325.706
325.885
326.046
326.192
326.324
326.446
326.558
326.663
326.76
326.853
326.94
327.024
327.104
327.18
327.255
327.326
327.396
327.464
327.531
327.596
327.66
327.722
327.784
327.844
327.904
327.962
328.02
328.077
328.133
328.189
328.243
328.297
328.351
328.404
328.456
328.507
328.558
328.609
328.659
328.708
328.757
328.805
328.853
328.9
328.947
328.993
329.038
329.083
329.128
329.171
329.214
329.257
329.299
329.34
329.381
329.421
329.461
329.5
329.538
301.301
303.95
306.587
309.085
311.392
313.482
315.346
316.988
318.422
319.665
320.735
321.655
322.442
323.116
323.693
324.187
324.612
324.979
325.298
325.575
325.819
326.034
326.226
326.398
326.553
326.695
326.826
326.947
327.06
327.166
327.266
327.361
327.452
327.539
327.623
327.704
327.783
327.859
327.934
328.006
328.077
328.147
328.214
328.281
328.346
328.411
328.474
328.535
328.596
328.656
328.715
328.773
328.83
328.885
328.941
328.995
329.048
329.101
329.152
329.203
329.253
329.302
329.351
329.399
329.446
329.492
329.537
329.582
329.625
329.669
329.711
329.752
329.793
329.833
329.873
329.911
329.949
329.986
330.023
330.059
330.094
379.648
387.577
394.258
400.094
405.283
409.932
414.103
417.83
421.126
423.993
426.418
428.379
429.84
430.754
431.053
430.646
429.404
427.129
423.491
417.832
408.505
402.198
397.37
393.421
390.062
387.132
384.529
382.185
380.052
378.092
376.28
374.592
373.011
371.523
370.117
368.782
367.51
366.294
365.128
364.006
362.925
361.878
360.864
359.879
358.921
357.985
357.072
356.177
355.301
354.44
353.594
352.762
351.941
351.132
350.333
349.543
348.762
347.988
347.223
346.464
345.713
344.967
344.228
343.495
342.767
342.046
341.33
340.62
339.916
339.217
338.525
337.838
337.157
336.483
335.815
335.153
334.498
333.85
333.209
332.575
331.949
331.33
330.72
330.118
329.525
328.94
328.365
327.799
327.242
326.696
326.16
325.634
325.12
324.616
324.123
323.641
323.171
322.713
322.266
321.831
321.408
320.997
320.598
320.21
319.834
319.47
319.117
318.776
318.446
318.127
317.819
317.522
317.235
316.957
316.69
316.432
316.184
315.944
315.713
315.49
315.275
315.068
314.867
314.674
314.487
314.306
314.132
313.963
313.799
313.64
313.485
313.335
313.19
313.048
312.909
312.774
312.642
312.513
312.387
312.263
312.141
312.022
311.905
311.789
311.675
311.563
311.452
311.342
311.234
311.127
311.021
310.916
310.812
310.709
310.607
310.506
310.406
310.306
310.208
310.111
310.016
374.914
381.799
388.009
393.598
398.644
403.205
407.32
411.011
414.287
417.144
419.57
421.54
423.02
423.964
424.308
423.969
422.835
420.748
417.491
412.797
406.62
401.281
396.83
393.061
389.803
386.937
384.376
382.063
379.952
378.01
376.21
374.533
372.961
371.48
370.079
368.749
367.481
366.269
365.106
363.987
362.907
361.863
360.85
359.867
358.909
357.975
357.062
356.169
355.293
354.433
353.588
352.756
351.936
351.127
350.328
349.538
348.758
347.985
347.219
346.461
345.709
344.964
344.225
343.492
342.765
342.043
341.328
340.618
339.914
339.215
338.522
337.836
337.155
336.481
335.813
335.151
334.496
333.848
333.207
332.573
331.947
331.328
330.718
330.116
329.523
328.938
328.363
327.797
327.24
326.694
326.158
325.633
325.118
324.614
324.121
323.64
323.17
322.711
322.265
321.83
321.407
320.996
320.596
320.209
319.833
319.469
319.116
318.775
318.445
318.126
317.818
317.521
317.234
316.957
316.69
316.432
316.183
315.944
315.713
315.49
315.275
315.067
314.867
314.674
314.487
314.306
314.132
313.962
313.799
313.64
313.485
313.335
313.19
313.048
312.909
312.774
312.642
312.513
312.387
312.263
312.142
312.022
311.905
311.789
311.675
311.563
311.452
311.343
311.235
311.127
311.021
310.917
310.813
310.71
310.607
310.506
310.406
310.306
310.208
310.111
310.016
370.835
376.722
382.297
387.481
392.26
396.64
400.632
404.239
407.461
410.288
412.704
414.684
416.196
417.194
417.624
417.416
416.484
414.723
412.03
408.358
403.923
399.62
395.738
392.297
389.241
386.506
384.037
381.79
379.729
377.825
376.055
374.402
372.849
371.384
369.997
368.677
367.419
366.214
365.057
363.944
362.869
361.829
360.82
359.84
358.885
357.953
357.043
356.151
355.277
354.419
353.575
352.744
351.925
351.117
350.319
349.53
348.75
347.977
347.212
346.454
345.703
344.958
344.22
343.487
342.76
342.039
341.323
340.613
339.909
339.211
338.518
337.832
337.151
336.477
335.809
335.147