/*--------------------------------*- C++ -*----------------------------------*\
  =========                 |
  \\      /  F ield         | OpenFOAM: The Open Source CFD Toolbox
   \\    /   O peration     | Website:  https://openfoam.org
    \\  /    A nd           | Version:  7
     \\/     M anipulation  |
\*---------------------------------------------------------------------------*/
FoamFile
{
    version     2.0;
    format      ascii;
    class       volVectorField;
    location    "6.22";
    object      U;
}
// * * * * * * * * * * * * * * * * * * * * * * * * * * * * * * * * * * * * * //

dimensions      [0 1 -1 0 0 0 0];

internalField   nonuniform List<vector> 
12013
(
(0.100786 -0.000212646 0)
(0.103882 -0.00037503 0)
(0.108653 -0.000518105 0)
(0.114646 -0.000645922 0)
(0.12173 -0.000763433 0)
(0.12978 -0.000874104 0)
(0.138702 -0.000980547 0)
(0.148428 -0.00108476 0)
(0.158911 -0.00118803 0)
(0.170111 -0.00129094 0)
(0.181993 -0.00139335 0)
(0.194519 -0.00149446 0)
(0.207643 -0.0015929 0)
(0.221306 -0.00168695 0)
(0.235439 -0.00177472 0)
(0.24996 -0.00185433 0)
(0.264779 -0.00192414 0)
(0.279797 -0.00198283 0)
(0.294915 -0.00202945 0)
(0.310031 -0.00206349 0)
(0.32505 -0.00208484 0)
(0.33988 -0.00209373 0)
(0.35444 -0.00209068 0)
(0.368657 -0.00207644 0)
(0.382466 -0.00205188 0)
(0.395817 -0.00201801 0)
(0.408665 -0.00197586 0)
(0.420978 -0.00192645 0)
(0.43273 -0.0018708 0)
(0.443906 -0.00180988 0)
(0.454496 -0.00174458 0)
(0.464496 -0.00167573 0)
(0.473909 -0.0016041 0)
(0.482742 -0.00153037 0)
(0.491004 -0.00145512 0)
(0.49871 -0.00137893 0)
(0.505876 -0.00130228 0)
(0.512521 -0.00122554 0)
(0.518665 -0.00114911 0)
(0.52433 -0.00107331 0)
(0.529538 -0.000998396 0)
(0.534313 -0.000924576 0)
(0.538679 -0.000852054 0)
(0.542659 -0.000780988 0)
(0.546277 -0.000711486 0)
(0.549559 -0.000643625 0)
(0.552528 -0.000577457 0)
(0.555208 -0.000513006 0)
(0.557621 -0.000450254 0)
(0.559792 -0.000389144 0)
(0.561742 -0.000329585 0)
(0.563494 -0.00027145 0)
(0.565068 -0.000214564 0)
(0.566485 -0.000158697 0)
(0.567763 -0.000103568 0)
(0.568923 -4.88353e-05 0)
(0.569981 5.88858e-06 0)
(0.570954 6.10755e-05 0)
(0.571858 0.00011728 0)
(0.572706 0.000175201 0)
(0.573512 0.000235691 0)
(0.574286 0.000299782 0)
(0.575038 0.000368733 0)
(0.575773 0.000444085 0)
(0.576495 0.00052775 0)
(0.577204 0.000622122 0)
(0.577894 0.000730249 0)
(0.578557 0.000856073 0)
(0.579172 0.00100481 0)
(0.579713 0.0011835 0)
(0.580136 0.001402 0)
(0.580378 0.00167447 0)
(0.580346 0.00202209 0)
(0.579902 0.00247795 0)
(0.578831 0.0030963 0)
(0.576795 0.00397095 0)
(0.573238 0.00527403 0)
(0.56718 0.00734766 0)
(0.556859 0.0110009 0)
(0.53919 0.0191099 0)
(0.521268 0.0512376 0)
(0.100718 -0.000648118 0)
(0.103798 -0.00114821 0)
(0.108546 -0.00158659 0)
(0.11452 -0.00197759 0)
(0.121587 -0.00233685 0)
(0.129623 -0.00267495 0)
(0.138531 -0.00299994 0)
(0.148246 -0.00331793 0)
(0.158719 -0.00363291 0)
(0.169912 -0.00394667 0)
(0.18179 -0.00425879 0)
(0.194315 -0.00456683 0)
(0.207441 -0.00486664 0)
(0.22111 -0.00515299 0)
(0.235253 -0.00542012 0)
(0.249789 -0.00566238 0)
(0.264625 -0.00587477 0)
(0.279664 -0.00605328 0)
(0.294805 -0.00619509 0)
(0.309947 -0.00629868 0)
(0.324992 -0.00636369 0)
(0.33985 -0.00639085 0)
(0.354438 -0.00638173 0)
(0.368682 -0.00633858 0)
(0.382519 -0.00626412 0)
(0.395896 -0.00616132 0)
(0.408769 -0.00603331 0)
(0.421105 -0.00588323 0)
(0.432879 -0.00571412 0)
(0.444075 -0.0055289 0)
(0.454683 -0.00533031 0)
(0.4647 -0.00512083 0)
(0.474128 -0.00490278 0)
(0.482973 -0.00467822 0)
(0.491246 -0.004449 0)
(0.498962 -0.00421675 0)
(0.506136 -0.00398295 0)
(0.512787 -0.00374885 0)
(0.518935 -0.00351556 0)
(0.524603 -0.00328404 0)
(0.529812 -0.00305509 0)
(0.534586 -0.00282943 0)
(0.538949 -0.00260761 0)
(0.542925 -0.0023901 0)
(0.546538 -0.00217725 0)
(0.549812 -0.00196933 0)
(0.552771 -0.00176648 0)
(0.555439 -0.00156877 0)
(0.55784 -0.00137613 0)
(0.559995 -0.00118842 0)
(0.561927 -0.00100535 0)
(0.563659 -0.00082653 0)
(0.56521 -0.000651412 0)
(0.566602 -0.0004793 0)
(0.567853 -0.000309331 0)
(0.568982 -0.000140463 0)
(0.570007 2.84986e-05 0)
(0.570943 0.000198952 0)
(0.571807 0.00037258 0)
(0.572611 0.000551499 0)
(0.57337 0.000738298 0)
(0.574094 0.000936109 0)
(0.574792 0.00114874 0)
(0.57547 0.00138085 0)
(0.576133 0.00163818 0)
(0.57678 0.00192792 0)
(0.577408 0.00225915 0)
(0.578008 0.00264356 0)
(0.578565 0.00309651 0)
(0.579053 0.00363857 0)
(0.579438 0.00429812 0)
(0.579666 0.0051154 0)
(0.579664 0.0061494 0)
(0.579325 0.00748988 0)
(0.578498 0.00927886 0)
(0.576968 0.0117506 0)
(0.574431 0.0153079 0)
(0.570461 0.0206731 0)
(0.564512 0.0292176 0)
(0.556493 0.0436101 0)
(0.554163 0.0687833 0)
(0.100643 -0.00109872 0)
(0.10368 -0.00196768 0)
(0.108377 -0.00272333 0)
(0.11431 -0.00339697 0)
(0.121341 -0.00401581 0)
(0.129345 -0.00459811 0)
(0.138226 -0.00515778 0)
(0.147918 -0.00570547 0)
(0.158372 -0.00624809 0)
(0.169552 -0.00678878 0)
(0.181422 -0.00732687 0)
(0.193945 -0.00785814 0)
(0.207077 -0.00837547 0)
(0.220761 -0.00886977 0)
(0.234926 -0.00933108 0)
(0.249492 -0.00974964 0)
(0.264366 -0.0101167 0)
(0.279449 -0.0104254 0)
(0.294639 -0.0106708 0)
(0.309834 -0.0108502 0)
(0.324935 -0.0109631 0)
(0.339851 -0.0110105 0)
(0.354496 -0.0109953 0)
(0.368798 -0.0109214 0)
(0.38269 -0.0107933 0)
(0.39612 -0.0106164 0)
(0.409044 -0.0103958 0)
(0.421427 -0.0101372 0)
(0.433246 -0.00984572 0)
(0.444483 -0.0095264 0)
(0.455128 -0.00918397 0)
(0.465179 -0.00882276 0)
(0.474636 -0.00844671 0)
(0.483508 -0.00805939 0)
(0.491804 -0.007664 0)
(0.499539 -0.00726338 0)
(0.506728 -0.00686 0)
(0.513392 -0.00645607 0)
(0.51955 -0.00605348 0)
(0.525224 -0.00565388 0)
(0.530436 -0.00525866 0)
(0.53521 -0.00486901 0)
(0.53957 -0.00448591 0)
(0.543539 -0.00411013 0)
(0.547143 -0.00374229 0)
(0.550404 -0.00338282 0)
(0.553348 -0.00303198 0)
(0.555997 -0.00268983 0)
(0.558374 -0.00235629 0)
(0.560503 -0.00203107 0)
(0.562406 -0.00171368 0)
(0.564103 -0.00140342 0)
(0.565617 -0.00109933 0)
(0.566966 -0.000800222 0)
(0.56817 -0.000504602 0)
(0.569248 -0.000210665 0)
(0.570216 8.36316e-05 0)
(0.571091 0.000380646 0)
(0.571888 0.000683276 0)
(0.572621 0.000995128 0)
(0.573304 0.00132058 0)
(0.573946 0.00166492 0)
(0.574558 0.00203452 0)
(0.575146 0.00243717 0)
(0.575714 0.00288239 0)
(0.576265 0.00338201 0)
(0.576798 0.00395086 0)
(0.577305 0.0046078 0)
(0.577776 0.00537728 0)
(0.578195 0.00629155 0)
(0.578536 0.00739408 0)
(0.578766 0.00874481 0)
(0.57884 0.0104285 0)
(0.578702 0.0125679 0)
(0.578288 0.0153456 0)
(0.577532 0.0190388 0)
(0.576404 0.0240757 0)
(0.57498 0.0311236 0)
(0.573624 0.0412285 0)
(0.573439 0.0559413 0)
(0.578248 0.0765823 0)
(0.100563 -0.00155916 0)
(0.103541 -0.00282995 0)
(0.108165 -0.00392647 0)
(0.114035 -0.00490452 0)
(0.121012 -0.00580275 0)
(0.128968 -0.00664775 0)
(0.137809 -0.00745996 0)
(0.147466 -0.00825497 0)
(0.157893 -0.00904296 0)
(0.169053 -0.0098286 0)
(0.180913 -0.010611 0)
(0.193439 -0.011384 0)
(0.206585 -0.0121372 0)
(0.220295 -0.0128575 0)
(0.234501 -0.0135301 0)
(0.24912 -0.0141407 0)
(0.264059 -0.0146765 0)
(0.279217 -0.0151274 0)
(0.29449 -0.015486 0)
(0.309774 -0.0157484 0)
(0.324969 -0.0159137 0)
(0.339979 -0.0159837 0)
(0.354719 -0.0159624 0)
(0.369113 -0.0158553 0)
(0.383095 -0.0156694 0)
(0.396611 -0.0154122 0)
(0.409616 -0.0150916 0)
(0.422075 -0.0147154 0)
(0.433964 -0.0142915 0)
(0.445265 -0.013827 0)
(0.455968 -0.0133289 0)
(0.46607 -0.0128035 0)
(0.475574 -0.0122566 0)
(0.484485 -0.0116932 0)
(0.492816 -0.0111182 0)
(0.50058 -0.0105355 0)
(0.507794 -0.00994876 0)
(0.514477 -0.0093612 0)
(0.520649 -0.00877555 0)
(0.526332 -0.00819417 0)
(0.531549 -0.00761908 0)
(0.536324 -0.00705196 0)
(0.54068 -0.00649422 0)
(0.544641 -0.00594699 0)
(0.548232 -0.00541111 0)
(0.551476 -0.00488718 0)
(0.554398 -0.00437555 0)
(0.557021 -0.00387633 0)
(0.559368 -0.00338934 0)
(0.561462 -0.00291413 0)
(0.563324 -0.00244999 0)
(0.564976 -0.00199587 0)
(0.56644 -0.0015504 0)
(0.567733 -0.00111182 0)
(0.568877 -0.000677968 0)
(0.569887 -0.000246244 0)
(0.570783 0.000186255 0)
(0.57158 0.000622859 0)
(0.572294 0.00106772 0)
(0.572938 0.00152597 0)
(0.573526 0.00200377 0)
(0.574069 0.00250849 0)
(0.574576 0.003049 0)
(0.575056 0.00363598 0)
(0.575516 0.00428243 0)
(0.575958 0.00500427 0)
(0.576384 0.00582124 0)
(0.576793 0.00675801 0)
(0.577182 0.00784593 0)
(0.577543 0.00912533 0)
(0.577866 0.0106489 0)
(0.57814 0.0124864 0)
(0.578354 0.0147316 0)
(0.578503 0.017512 0)
(0.5786 0.0210018 0)
(0.578694 0.0254385 0)
(0.578915 0.0311406 0)
(0.579539 0.0385163 0)
(0.581102 0.0480394 0)
(0.584536 0.0601029 0)
(0.591446 0.0744309 0)
(0.100482 -0.00202879 0)
(0.103394 -0.00373249 0)
(0.107927 -0.0051947 0)
(0.113717 -0.00650052 0)
(0.120623 -0.00769963 0)
(0.128518 -0.0088275 0)
(0.137304 -0.00991178 0)
(0.146917 -0.0109735 0)
(0.15731 -0.0120265 0)
(0.168448 -0.0130773 0)
(0.180302 -0.0141247 0)
(0.192837 -0.0151606 0)
(0.206011 -0.0161712 0)
(0.219769 -0.0171383 0)
(0.234043 -0.0180422 0)
(0.248748 -0.0188635 0)
(0.26379 -0.0195846 0)
(0.279066 -0.0201917 0)
(0.294468 -0.0206749 0)
(0.309888 -0.0210287 0)
(0.325223 -0.021252 0)
(0.340375 -0.0213471 0)
(0.355256 -0.0213194 0)
(0.369786 -0.0211765 0)
(0.383899 -0.0209277 0)
(0.397538 -0.0205831 0)
(0.410658 -0.0201536 0)
(0.423225 -0.0196496 0)
(0.435211 -0.0190815 0)
(0.446601 -0.0184593 0)
(0.457383 -0.0177921 0)
(0.467557 -0.0170884 0)
(0.477122 -0.0163559 0)
(0.486088 -0.0156016 0)
(0.494465 -0.0148316 0)
(0.502267 -0.0140514 0)
(0.509512 -0.0132659 0)
(0.516219 -0.0124792 0)
(0.522409 -0.0116951 0)
(0.528104 -0.0109165 0)
(0.533326 -0.0101463 0)
(0.5381 -0.00938656 0)
(0.54245 -0.0086392 0)
(0.5464 -0.00790566 0)
(0.549973 -0.00718703 0)
(0.553195 -0.00648409 0)
(0.556089 -0.00579727 0)
(0.558678 -0.00512667 0)
(0.560986 -0.004472 0)
(0.563036 -0.00383268 0)
(0.564848 -0.0032077 0)
(0.566445 -0.00259568 0)
(0.567847 -0.00199475 0)
(0.569073 -0.00140258 0)
(0.570143 -0.000816301 0)
(0.571075 -0.000232534 0)
(0.571886 0.000352463 0)
(0.572592 0.00094299 0)
(0.57321 0.00154448 0)
(0.573752 0.00216353 0)
(0.574234 0.00280798 0)
(0.574666 0.00348714 0)
(0.57506 0.00421205 0)
(0.575425 0.00499591 0)
(0.575769 0.00585456 0)
(0.576099 0.00680711 0)
(0.576422 0.00787678 0)
(0.57674 0.00909203 0)
(0.57706 0.010488 0)
(0.577383 0.0121084 0)
(0.577718 0.0140082 0)
(0.578072 0.0162564 0)
(0.578464 0.0189402 0)
(0.578929 0.0221691 0)
(0.579528 0.0260783 0)
(0.580366 0.0308295 0)
(0.581619 0.0366039 0)
(0.583564 0.0435774 0)
(0.586616 0.0518609 0)
(0.591329 0.0613768 0)
(0.598353 0.0716265 0)
(0.100399 -0.00250777 0)
(0.103248 -0.00467364 0)
(0.10768 -0.00652738 0)
(0.113376 -0.00818571 0)
(0.120198 -0.00970901 0)
(0.128019 -0.0111419 0)
(0.136742 -0.0125198 0)
(0.146304 -0.0138699 0)
(0.15666 -0.0152103 0)
(0.167778 -0.0165494 0)
(0.179632 -0.0178861 0)
(0.192192 -0.0192101 0)
(0.205417 -0.0205035 0)
(0.219255 -0.0217428 0)
(0.233636 -0.0229025 0)
(0.248475 -0.0239569 0)
(0.263674 -0.0248835 0)
(0.279125 -0.0256638 0)
(0.294716 -0.0262852 0)
(0.310334 -0.0267404 0)
(0.32587 -0.0270279 0)
(0.341222 -0.0271507 0)
(0.356298 -0.0271159 0)
(0.371017 -0.0269334 0)
(0.385308 -0.0266152 0)
(0.399114 -0.0261745 0)
(0.412388 -0.0256252 0)
(0.425095 -0.0249808 0)
(0.437209 -0.0242548 0)
(0.448712 -0.0234598 0)
(0.459597 -0.0226076 0)
(0.469859 -0.021709 0)
(0.479501 -0.0207739 0)
(0.488533 -0.0198112 0)
(0.496965 -0.0188287 0)
(0.504812 -0.0178333 0)
(0.512093 -0.0168312 0)
(0.518827 -0.0158277 0)
(0.525036 -0.0148274 0)
(0.530741 -0.0138342 0)
(0.535967 -0.0128515 0)
(0.540737 -0.011882 0)
(0.545076 -0.010928 0)
(0.549008 -0.00999138 0)
(0.552557 -0.00907342 0)
(0.555749 -0.00817505 0)
(0.558606 -0.00729677 0)
(0.561153 -0.00643865 0)
(0.563413 -0.00560034 0)
(0.565407 -0.00478102 0)
(0.567159 -0.00397943 0)
(0.568689 -0.00319376 0)
(0.570018 -0.00242168 0)
(0.571166 -0.00166025 0)
(0.572151 -0.000905865 0)
(0.572991 -0.000154519 0)
(0.573706 0.000598344 0)
(0.574311 0.00135804 0)
(0.574821 0.00213121 0)
(0.575253 0.00292579 0)
(0.575619 0.00375109 0)
(0.575934 0.00461803 0)
(0.576208 0.00553941 0)
(0.576454 0.0065303 0)
(0.576683 0.0076085 0)
(0.576904 0.00879503 0)
(0.577128 0.0101149 0)
(0.577366 0.0115977 0)
(0.577629 0.0132791 0)
(0.577932 0.0152015 0)
(0.578294 0.0174155 0)
(0.578741 0.0199811 0)
(0.579311 0.0229683 0)
(0.580059 0.0264572 0)
(0.581065 0.0305351 0)
(0.582444 0.0352896 0)
(0.584354 0.0407945 0)
(0.587005 0.0470841 0)
(0.590654 0.0541125 0)
(0.595582 0.0616949 0)
(0.602013 0.0694408 0)
(0.100316 -0.00299691 0)
(0.103106 -0.00565285 0)
(0.107436 -0.00792486 0)
(0.113029 -0.00996166 0)
(0.119758 -0.0118343 0)
(0.127497 -0.0135964 0)
(0.136151 -0.015292 0)
(0.145659 -0.016955 0)
(0.15598 -0.0186083 0)
(0.167086 -0.020263 0)
(0.178957 -0.021918 0)
(0.191567 -0.0235605 0)
(0.20488 -0.025168 0)
(0.218844 -0.0267108 0)
(0.23339 -0.0281562 0)
(0.248428 -0.0294717 0)
(0.263856 -0.0306282 0)
(0.279558 -0.0316023 0)
(0.295416 -0.0323777 0)
(0.311308 -0.0329455 0)
(0.327119 -0.0333037 0)
(0.342742 -0.0334562 0)
(0.358078 -0.0334123 0)
(0.373043 -0.0331844 0)
(0.387565 -0.032788 0)
(0.401583 -0.0322396 0)
(0.415052 -0.0315565 0)
(0.427934 -0.0307561 0)
(0.440204 -0.029855 0)
(0.451846 -0.0288689 0)
(0.462851 -0.0278126 0)
(0.473217 -0.0266995 0)
(0.482949 -0.0255417 0)
(0.492054 -0.0243502 0)
(0.500547 -0.0231347 0)
(0.508443 -0.0219036 0)
(0.515761 -0.0206646 0)
(0.522521 -0.0194239 0)
(0.528745 -0.0181874 0)
(0.534457 -0.0169596 0)
(0.53968 -0.0157447 0)
(0.54444 -0.014546 0)
(0.54876 -0.0133663 0)
(0.552667 -0.0122076 0)
(0.556183 -0.0110716 0)
(0.559334 -0.00995937 0)
(0.562145 -0.00887138 0)
(0.564638 -0.00780771 0)
(0.566838 -0.00676789 0)
(0.568766 -0.00575089 0)
(0.570445 -0.00475512 0)
(0.571895 -0.0037784 0)
(0.573139 -0.0028179 0)
(0.574196 -0.00187009 0)
(0.575084 -0.000930655 0)
(0.575822 4.93135e-06 0)
(0.576429 0.000941891 0)
(0.576922 0.0018866 0)
(0.577316 0.00284679 0)
(0.577628 0.00383151 0)
(0.577872 0.0048512 0)
(0.578062 0.00591797 0)
(0.578214 0.00704578 0)
(0.578339 0.0082508 0)
(0.578452 0.00955167 0)
(0.578566 0.0109699 0)
(0.578696 0.0125304 0)
(0.578859 0.0142616 0)
(0.579073 0.0161964 0)
(0.579359 0.018372 0)
(0.579747 0.0208303 0)
(0.580272 0.0236172 0)
(0.580979 0.0267818 0)
(0.581931 0.0303735 0)
(0.583204 0.034437 0)
(0.584896 0.0390047 0)
(0.587125 0.0440844 0)
(0.590026 0.0496432 0)
(0.593736 0.0555871 0)
(0.598372 0.0617417 0)
(0.603977 0.0678445 0)
(0.10023 -0.00349783 0)
(0.102973 -0.00667079 0)
(0.107202 -0.00938865 0)
(0.11269 -0.0118311 0)
(0.119322 -0.0140799 0)
(0.126976 -0.0161978 0)
(0.13556 -0.0182379 0)
(0.145016 -0.0202417 0)
(0.15531 -0.0222379 0)
(0.166421 -0.0242407 0)
(0.178336 -0.0262493 0)
(0.191036 -0.028248 0)
(0.20449 -0.0302086 0)
(0.218648 -0.032094 0)
(0.233438 -0.0338626 0)
(0.248764 -0.0354732 0)
(0.264514 -0.0368892 0)
(0.280565 -0.0380811 0)
(0.296784 -0.0390286 0)
(0.313043 -0.0397207 0)
(0.329215 -0.0401552 0)
(0.345187 -0.0403377 0)
(0.360854 -0.0402798 0)
(0.376127 -0.0399975 0)
(0.390933 -0.03951 0)
(0.405209 -0.0388382 0)
(0.418909 -0.0380034 0)
(0.431997 -0.037027 0)
(0.444448 -0.0359294 0)
(0.456247 -0.0347299 0)
(0.467387 -0.0334465 0)
(0.477867 -0.0320953 0)
(0.487694 -0.0306911 0)
(0.496877 -0.029247 0)
(0.505431 -0.0277746 0)
(0.513374 -0.0262842 0)
(0.520724 -0.0247848 0)
(0.527505 -0.0232838 0)
(0.533738 -0.0217881 0)
(0.539449 -0.0203033 0)
(0.544661 -0.0188341 0)
(0.5494 -0.0173843 0)
(0.553691 -0.0159573 0)
(0.55756 -0.0145554 0)
(0.561032 -0.0131805 0)
(0.564131 -0.0118337 0)
(0.566882 -0.0105157 0)
(0.569309 -0.00922645 0)
(0.571436 -0.0079653 0)
(0.573285 -0.00673104 0)
(0.574878 -0.00552178 0)
(0.576237 -0.00433496 0)
(0.577383 -0.00316728 0)
(0.578336 -0.00201464 0)
(0.579115 -0.000872154 0)
(0.57974 0.000265255 0)
(0.580229 0.00140327 0)
(0.580599 0.00254922 0)
(0.580869 0.00371176 0)
(0.581053 0.00490074 0)
(0.581168 0.00612737 0)
(0.58123 0.00740439 0)
(0.581254 0.00874625 0)
(0.581256 0.0101693 0)
(0.581252 0.0116919 0)
(0.58126 0.0133347 0)
(0.581297 0.0151207 0)
(0.581383 0.0170753 0)
(0.581543 0.0192262 0)
(0.581803 0.0216032 0)
(0.582194 0.0242372 0)
(0.582757 0.0271594 0)
(0.583536 0.0303985 0)
(0.584588 0.0339786 0)
(0.585976 0.0379135 0)
(0.587771 0.0422018 0)
(0.590051 0.0468187 0)
(0.592891 0.0517088 0)
(0.596351 0.0567785 0)
(0.600464 0.0618938 0)
(0.605203 0.0668897 0)
(0.100141 -0.00401285 0)
(0.102849 -0.00772935 0)
(0.106985 -0.0109216 0)
(0.112368 -0.0137981 0)
(0.118904 -0.0164519 0)
(0.126475 -0.0189546 0)
(0.134993 -0.0213691 0)
(0.144406 -0.0237461 0)
(0.154689 -0.0261208 0)
(0.165833 -0.0285116 0)
(0.177834 -0.0309177 0)
(0.190684 -0.0333202 0)
(0.204357 -0.0356835 0)
(0.218802 -0.0379605 0)
(0.23394 -0.0400988 0)
(0.249669 -0.0420462 0)
(0.26586 -0.0437566 0)
(0.282376 -0.0451934 0)
(0.299069 -0.0463318 0)
(0.315797 -0.0471589 0)
(0.332424 -0.0476729 0)
(0.348825 -0.0478816 0)
(0.364893 -0.0478002 0)
(0.380533 -0.0474491 0)
(0.39567 -0.0468523 0)
(0.410243 -0.0460357 0)
(0.424203 -0.0450255 0)
(0.437518 -0.0438478 0)
(0.450165 -0.0425272 0)
(0.462131 -0.041087 0)
(0.47341 -0.0395486 0)
(0.484006 -0.0379314 0)
(0.493925 -0.0362529 0)
(0.503181 -0.0345285 0)
(0.51179 -0.0327719 0)
(0.51977 -0.0309952 0)
(0.527144 -0.0292086 0)
(0.533935 -0.0274212 0)
(0.540166 -0.0256407 0)
(0.545862 -0.0238735 0)
(0.551051 -0.0221251 0)
(0.555757 -0.0204 0)
(0.560006 -0.0187017 0)
(0.563825 -0.017033 0)
(0.567238 -0.0153961 0)
(0.570272 -0.0137921 0)
(0.57295 -0.0122217 0)
(0.575298 -0.0106847 0)
(0.577338 -0.00918054 0)
(0.579095 -0.00770765 0)
(0.58059 -0.00626388 0)
(0.581845 -0.00484631 0)
(0.582881 -0.00345123 0)
(0.583719 -0.00207407 0)
(0.584378 -0.000709608 0)
(0.584881 0.000647786 0)
(0.585243 0.00200429 0)
(0.585483 0.00336793 0)
(0.58562 0.00474795 0)
(0.585671 0.00615469 0)
(0.585652 0.00759964 0)
(0.585581 0.00909561 0)
(0.585475 0.0106568 0)
(0.585351 0.012299 0)
(0.585228 0.0140391 0)
(0.585125 0.0158959 0)
(0.585064 0.0178891 0)
(0.585066 0.0200397 0)
(0.585157 0.0223693 0)
(0.585366 0.0248992 0)
(0.585726 0.0276498 0)
(0.586271 0.0306386 0)
(0.587044 0.0338788 0)
(0.588088 0.0373761 0)
(0.58945 0.0411258 0)
(0.591177 0.0451095 0)
(0.593313 0.0492915 0)
(0.595893 0.0536163 0)
(0.598934 0.0580075 0)
(0.602431 0.0623711 0)
(0.606338 0.0666066 0)
(0.100048 -0.00454483 0)
(0.102735 -0.00883162 0)
(0.106789 -0.0125281 0)
(0.112073 -0.0158685 0)
(0.118518 -0.0189582 0)
(0.126011 -0.0218777 0)
(0.134472 -0.0247009 0)
(0.143859 -0.027489 0)
(0.15416 -0.0302858 0)
(0.16538 -0.0331143 0)
(0.177532 -0.0359743 0)
(0.190617 -0.0388415 0)
(0.204614 -0.0416706 0)
(0.21947 -0.0444012 0)
(0.235095 -0.0469663 0)
(0.251367 -0.0492997 0)
(0.268139 -0.0513438 0)
(0.285252 -0.0530539 0)
(0.30254 -0.0544004 0)
(0.319844 -0.0553692 0)
(0.337015 -0.0559603 0)
(0.353921 -0.0561848 0)
(0.370448 -0.056063 0)
(0.386501 -0.0556211 0)
(0.402002 -0.0548892 0)
(0.416893 -0.0538991 0)
(0.431128 -0.0526828 0)
(0.444677 -0.0512718 0)
(0.45752 -0.0496956 0)
(0.469648 -0.0479818 0)
(0.481058 -0.0461555 0)
(0.491758 -0.0442397 0)
(0.501757 -0.0422546 0)
(0.511071 -0.0402182 0)
(0.519718 -0.0381463 0)
(0.527721 -0.0360528 0)
(0.535101 -0.0339494 0)
(0.541884 -0.0318464 0)
(0.548096 -0.0297525 0)
(0.553763 -0.0276751 0)
(0.558911 -0.0256203 0)
(0.563568 -0.0235931 0)
(0.56776 -0.0215974 0)
(0.571514 -0.0196364 0)
(0.574855 -0.0177121 0)
(0.57781 -0.0158261 0)
(0.580403 -0.0139789 0)
(0.582658 -0.0121705 0)
(0.584601 -0.0103998 0)
(0.586254 -0.0086652 0)
(0.58764 -0.00696434 0)
(0.588781 -0.00529397 0)
(0.589699 -0.00364999 0)
(0.590414 -0.00202747 0)
(0.590945 -0.000421316 0)
(0.591318 0.00117456 0)
(0.591547 0.00276708 0)
(0.591653 0.00436476 0)
(0.591653 0.00597708 0)
(0.591567 0.00761437 0)
(0.591411 0.00928794 0)
(0.591205 0.0110101 0)
(0.590966 0.0127943 0)
(0.590714 0.0146546 0)
(0.590468 0.0166063 0)
(0.590249 0.018665 0)
(0.59008 0.0208467 0)
(0.589984 0.0231674 0)
(0.589985 0.0256423 0)
(0.590113 0.0282852 0)
(0.590395 0.0311071 0)
(0.590864 0.0341156 0)
(0.591552 0.0373125 0)
(0.59249 0.0406928 0)
(0.593711 0.0442428 0)
(0.595241 0.0479384 0)
(0.597102 0.0517442 0)
(0.599304 0.0556135 0)
(0.601844 0.0594898 0)
(0.604701 0.0633098 0)
(0.607829 0.0670135 0)
(0.0999473 -0.00509704 0)
(0.102629 -0.00998185 0)
(0.106616 -0.0142139 0)
(0.11181 -0.01805 0)
(0.118172 -0.0216089 0)
(0.1256 -0.0249809 0)
(0.134021 -0.0282526 0)
(0.143408 -0.031498 0)
(0.15377 -0.0347714 0)
(0.165132 -0.038102 0)
(0.177525 -0.0414889 0)
(0.190964 -0.0448998 0)
(0.205429 -0.048275 0)
(0.220855 -0.0515359 0)
(0.237133 -0.0545956 0)
(0.254113 -0.0573704 0)
(0.271622 -0.0597891 0)
(0.28947 -0.0617981 0)
(0.30747 -0.0633641 0)
(0.325445 -0.0644734 0)
(0.343235 -0.0651294 0)
(0.3607 -0.0653492 0)
(0.377724 -0.0651598 0)
(0.394211 -0.0645951 0)
(0.410087 -0.0636926 0)
(0.425296 -0.0624915 0)
(0.439797 -0.0610304 0)
(0.453565 -0.0593469 0)
(0.466584 -0.0574757 0)
(0.478851 -0.0554494 0)
(0.490369 -0.0532972 0)
(0.501147 -0.0510454 0)
(0.511199 -0.0487172 0)
(0.520544 -0.0463334 0)
(0.529204 -0.0439117 0)
(0.537203 -0.0414678 0)
(0.544565 -0.039015 0)
(0.551318 -0.0365648 0)
(0.557489 -0.0341268 0)
(0.563105 -0.0317091 0)
(0.568195 -0.0293186 0)
(0.572785 -0.0269606 0)
(0.576903 -0.0246395 0)
(0.580576 -0.0223586 0)
(0.583831 -0.0201202 0)
(0.586694 -0.0179259 0)
(0.58919 -0.0157761 0)
(0.591343 -0.0136707 0)
(0.593179 -0.0116086 0)
(0.594721 -0.00958801 0)
(0.595991 -0.00760635 0)
(0.597012 -0.00566012 0)
(0.597806 -0.003745 0)
(0.598393 -0.00185578 0)
(0.598796 1.24168e-05 0)
(0.599037 0.00186574 0)
(0.599132 0.00371202 0)
(0.599102 0.00556 0)
(0.598966 0.00741899 0)
(0.598742 0.00929897 0)
(0.59845 0.0112106 0)
(0.598108 0.0131653 0)
(0.597737 0.015175 0)
(0.597355 0.017252 0)
(0.596983 0.0194089 0)
(0.596642 0.0216582 0)
(0.596354 0.0240119 0)
(0.596143 0.0264813 0)
(0.596031 0.0290759 0)
(0.596044 0.0318032 0)
(0.596206 0.0346675 0)
(0.596542 0.0376692 0)
(0.597077 0.040804 0)
(0.597831 0.0440615 0)
(0.598825 0.0474252 0)
(0.600071 0.0508717 0)
(0.601576 0.0543709 0)
(0.603339 0.0578869 0)
(0.605346 0.0613798 0)
(0.607575 0.0648084 0)
(0.609984 0.0681374 0)
(0.0998388 -0.00567313 0)
(0.102531 -0.0111855 0)
(0.106467 -0.0159863 0)
(0.111582 -0.0203525 0)
(0.117874 -0.0244172 0)
(0.125254 -0.0282826 0)
(0.133661 -0.0320503 0)
(0.143091 -0.0358107 0)
(0.153578 -0.0396315 0)
(0.165177 -0.0435486 0)
(0.177941 -0.0475582 0)
(0.191894 -0.0516147 0)
(0.207009 -0.0556368 0)
(0.2232 -0.0595195 0)
(0.240322 -0.0631502 0)
(0.258189 -0.0664237 0)
(0.276587 -0.0692536 0)
(0.295296 -0.0715785 0)
(0.314106 -0.0733637 0)
(0.332821 -0.0745986 0)
(0.351274 -0.0752933 0)
(0.369321 -0.0754737 0)
(0.386845 -0.0751763 0)
(0.403756 -0.0744444 0)
(0.419984 -0.073325 0)
(0.435481 -0.0718655 0)
(0.450212 -0.0701122 0)
(0.464159 -0.0681092 0)
(0.477314 -0.0658974 0)
(0.489677 -0.0635141 0)
(0.501259 -0.0609927 0)
(0.512073 -0.0583633 0)
(0.522137 -0.0556521 0)
(0.531475 -0.0528822 0)
(0.540111 -0.0500735 0)
(0.548072 -0.0472434 0)
(0.555385 -0.0444066 0)
(0.562078 -0.0415756 0)
(0.568181 -0.038761 0)
(0.573722 -0.0359716 0)
(0.57873 -0.0332146 0)
(0.583233 -0.030496 0)
(0.58726 -0.0278203 0)
(0.590838 -0.0251911 0)
(0.593993 -0.0226107 0)
(0.596753 -0.0200806 0)
(0.599142 -0.0176014 0)
(0.601186 -0.0151727 0)
(0.602909 -0.0127936 0)
(0.604334 -0.010462 0)
(0.605485 -0.00817519 0)
(0.606385 -0.00592964 0)
(0.607056 -0.00372098 0)
(0.607517 -0.00154404 0)
(0.607795 0.000606556 0)
(0.607907 0.00273682 0)
(0.607872 0.00485485 0)
(0.60771 0.00696927 0)
(0.607442 0.00908899 0)
(0.607087 0.0112233 0)
(0.606664 0.013382 0)
(0.606192 0.015575 0)
(0.605691 0.0178127 0)
(0.605181 0.0201052 0)
(0.604682 0.0224624 0)
(0.604214 0.0248938 0)
(0.603799 0.0274076 0)
(0.603458 0.030011 0)
(0.603212 0.0327092 0)
(0.603081 0.0355049 0)
(0.603086 0.0383981 0)
(0.603245 0.0413852 0)
(0.603576 0.0444589 0)
(0.604092 0.0476075 0)
(0.604802 0.0508153 0)
(0.605712 0.0540622 0)
(0.606822 0.0573248 0)
(0.608122 0.0605772 0)
(0.609599 0.063792 0)
(0.61123 0.0669431 0)
(0.612983 0.0700102 0)
(0.0997196 -0.00627715 0)
(0.102439 -0.0124492 0)
(0.106342 -0.0178546 0)
(0.111394 -0.0227885 0)
(0.117634 -0.0274003 0)
(0.12499 -0.0318071 0)
(0.133423 -0.0361298 0)
(0.142957 -0.04048 0)
(0.153664 -0.0449421 0)
(0.165635 -0.0495582 0)
(0.178944 -0.054316 0)
(0.193618 -0.0591473 0)
(0.209606 -0.0639376 0)
(0.226782 -0.0685456 0)
(0.24495 -0.0728257 0)
(0.263873 -0.0766487 0)
(0.283293 -0.0799137 0)
(0.302959 -0.0825547 0)
(0.322635 -0.0845396 0)
(0.342117 -0.0858659 0)
(0.361231 -0.0865547 0)
(0.379837 -0.0866439 0)
(0.397824 -0.0861826 0)
(0.415109 -0.0852259 0)
(0.431632 -0.0838313 0)
(0.447353 -0.0820559 0)
(0.462249 -0.0799545 0)
(0.47631 -0.0775783 0)
(0.489534 -0.0749741 0)
(0.501931 -0.0721843 0)
(0.513515 -0.0692467 0)
(0.524307 -0.0661948 0)
(0.53433 -0.0630578 0)
(0.54361 -0.0598611 0)
(0.552175 -0.0566266 0)
(0.560055 -0.0533731 0)
(0.567279 -0.0501165 0)
(0.573877 -0.0468704 0)
(0.57988 -0.043646 0)
(0.585318 -0.0404528 0)
(0.59022 -0.0372984 0)
(0.594616 -0.034189 0)
(0.598533 -0.0311293 0)
(0.602 -0.028123 0)
(0.605044 -0.0251725 0)
(0.60769 -0.0222792 0)
(0.609966 -0.0194437 0)
(0.611895 -0.0166656 0)
(0.613503 -0.0139438 0)
(0.614812 -0.0112762 0)
(0.615846 -0.00866002 0)
(0.616628 -0.00609183 0)
(0.61718 -0.00356737 0)
(0.617522 -0.00108186 0)
(0.617681 0.00137079 0)
(0.617672 0.00379683 0)
(0.617517 0.00620404 0)
(0.617235 0.00860053 0)
(0.616847 0.0109946 0)
(0.616371 0.0133945 0)
(0.615827 0.015809 0)
(0.615234 0.0182465 0)
(0.614612 0.0207155 0)
(0.613979 0.023224 0)
(0.613356 0.0257794 0)
(0.612762 0.0283883 0)
(0.612216 0.0310561 0)
(0.611736 0.0337867 0)
(0.61134 0.0365822 0)
(0.611046 0.0394423 0)
(0.61087 0.0423647 0)
(0.610823 0.0453439 0)
(0.610919 0.0483722 0)
(0.611165 0.0514385 0)
(0.611564 0.0545297 0)
(0.612118 0.0576299 0)
(0.612822 0.0607221 0)
(0.613665 0.0637882 0)
(0.614636 0.0668101 0)
(0.615713 0.0697715 0)
(0.616874 0.0726615 0)
(0.0995877 -0.00691362 0)
(0.102353 -0.0137813 0)
(0.106243 -0.0198304 0)
(0.11125 -0.0253739 0)
(0.117461 -0.0305807 0)
(0.124829 -0.0355874 0)
(0.133344 -0.0405413 0)
(0.143073 -0.0455816 0)
(0.154137 -0.050812 0)
(0.166665 -0.0562768 0)
(0.180747 -0.0619445 0)
(0.196393 -0.0677083 0)
(0.213506 -0.0734045 0)
(0.231894 -0.0788438 0)
(0.251295 -0.0838427 0)
(0.271411 -0.0882474 0)
(0.291941 -0.0919476 0)
(0.312602 -0.0948786 0)
(0.333146 -0.097018 0)
(0.353363 -0.0983774 0)
(0.373084 -0.0989936 0)
(0.392177 -0.098921 0)
(0.410542 -0.0982237 0)
(0.42811 -0.0969708 0)
(0.444834 -0.0952317 0)
(0.460686 -0.093074 0)
(0.475653 -0.0905612 0)
(0.489735 -0.0877517 0)
(0.502943 -0.0846987 0)
(0.51529 -0.0814495 0)
(0.526801 -0.078046 0)
(0.537499 -0.0745249 0)
(0.547413 -0.0709181 0)
(0.556574 -0.067253 0)
(0.565013 -0.0635533 0)
(0.572761 -0.059839 0)
(0.57985 -0.0561271 0)
(0.586313 -0.0524319 0)
(0.592181 -0.0487653 0)
(0.597485 -0.0451369 0)
(0.602254 -0.0415547 0)
(0.606519 -0.0380251 0)
(0.610308 -0.0345529 0)
(0.613649 -0.0311416 0)
(0.61657 -0.0277938 0)
(0.619096 -0.0245108 0)
(0.621253 -0.0212931 0)
(0.623065 -0.0181403 0)
(0.624558 -0.0150512 0)
(0.625754 -0.0120236 0)
(0.626677 -0.00905498 0)
(0.627349 -0.00614174 0)
(0.627792 -0.00327981 0)
(0.628026 -0.000465418 0)
(0.628079 0.00230789 0)
(0.627964 0.00504705 0)
(0.627704 0.00775954 0)
(0.627317 0.0104527 0)
(0.626824 0.0131338 0)
(0.626243 0.0158103 0)
(0.625593 0.0184894 0)
(0.624893 0.021178 0)
(0.624162 0.023883 0)
(0.623419 0.0266102 0)
(0.62268 0.0293651 0)
(0.621964 0.032152 0)
(0.621288 0.0349739 0)
(0.620668 0.0378327 0)
(0.620119 0.0407283 0)
(0.619654 0.0436592 0)
(0.619285 0.0466219 0)
(0.619022 0.0496109 0)
(0.618871 0.0526189 0)
(0.618838 0.0556371 0)
(0.618923 0.0586549 0)
(0.619124 0.061661 0)
(0.619436 0.0646432 0)
(0.619849 0.0675896 0)
(0.620352 0.0704887 0)
(0.620929 0.0733306 0)
(0.621563 0.0761103 0)
(0.0994401 -0.00758771 0)
(0.102271 -0.0151915 0)
(0.106172 -0.0219281 0)
(0.111156 -0.0281295 0)
(0.117369 -0.0339887 0)
(0.124801 -0.0396705 0)
(0.133481 -0.0453578 0)
(0.143536 -0.0512251 0)
(0.155146 -0.0573958 0)
(0.168475 -0.0639058 0)
(0.183611 -0.0706839 0)
(0.200512 -0.0775609 0)
(0.219006 -0.0843053 0)
(0.238811 -0.0906693 0)
(0.259586 -0.0964302 0)
(0.280971 -0.101416 0)
(0.302628 -0.105517 0)
(0.324254 -0.108678 0)
(0.345598 -0.110895 0)
(0.366456 -0.112202 0)
(0.386671 -0.112656 0)
(0.406127 -0.112332 0)
(0.424743 -0.111312 0)
(0.442465 -0.109679 0)
(0.459262 -0.107516 0)
(0.475121 -0.104902 0)
(0.490041 -0.101908 0)
(0.504034 -0.098602 0)
(0.517118 -0.0950409 0)
(0.529319 -0.0912775 0)
(0.540664 -0.0873572 0)
(0.551185 -0.0833198 0)
(0.560915 -0.0791992 0)
(0.569887 -0.0750249 0)
(0.578135 -0.0708217 0)
(0.585695 -0.0666107 0)
(0.5926 -0.0624095 0)
(0.598883 -0.058233 0)
(0.604577 -0.0540933 0)
(0.609712 -0.0500003 0)
(0.61432 -0.0459621 0)
(0.618431 -0.0419849 0)
(0.622073 -0.0380736 0)
(0.625273 -0.0342318 0)
(0.628059 -0.0304617 0)
(0.630457 -0.0267646 0)
(0.632492 -0.023141 0)
(0.634188 -0.0195903 0)
(0.635569 -0.0161114 0)
(0.636659 -0.0127022 0)
(0.637479 -0.00936013 0)
(0.638053 -0.006082 0)
(0.6384 -0.00286396 0)
(0.638548 0.000298097 0)
(0.638509 0.00340986 0)
(0.638306 0.00647875 0)
(0.637958 0.00951167 0)
(0.637485 0.0125151 0)
(0.636906 0.0154954 0)
(0.636239 0.0184588 0)
(0.635503 0.0214113 0)
(0.634715 0.0243585 0)
(0.633892 0.0273056 0)
(0.633052 0.0302569 0)
(0.632211 0.0332161 0)
(0.631386 0.0361859 0)
(0.630589 0.0391679 0)
(0.629836 0.0421625 0)
(0.629138 0.0451688 0)
(0.628506 0.0481848 0)
(0.627949 0.0512068 0)
(0.627473 0.0542301 0)
(0.627084 0.0572489 0)
(0.626783 0.0602563 0)
(0.626569 0.0632449 0)
(0.626441 0.0662067 0)
(0.626392 0.0691338 0)
(0.626416 0.0720184 0)
(0.626501 0.0748537 0)
(0.626638 0.077634 0)
(0.626813 0.0803582 0)
(0.0992739 -0.00830548 0)
(0.102193 -0.0166923 0)
(0.106131 -0.0241663 0)
(0.111121 -0.0310829 0)
(0.11738 -0.037667 0)
(0.124948 -0.0441238 0)
(0.133914 -0.0506857 0)
(0.144481 -0.0575693 0)
(0.15689 -0.0649109 0)
(0.171325 -0.0727146 0)
(0.187832 -0.0808366 0)
(0.206279 -0.0890157 0)