/*--------------------------------*- C++ -*----------------------------------*\
  =========                 |
  \\      /  F ield         | OpenFOAM: The Open Source CFD Toolbox
   \\    /   O peration     | Website:  https://openfoam.org
    \\  /    A nd           | Version:  7
     \\/     M anipulation  |
\*---------------------------------------------------------------------------*/
FoamFile
{
    version     2.0;
    format      ascii;
    class       surfaceScalarField;
    location    "4.35";
    object      phi;
}
// * * * * * * * * * * * * * * * * * * * * * * * * * * * * * * * * * * * * * //

dimensions      [1 0 -1 0 0 0 0];

internalField   nonuniform List<scalar> 
23692
(
1.18187e-05
-1.83819e-07
1.21561e-05
-3.36943e-07
1.26319e-05
-4.75123e-07
1.32306e-05
-5.97724e-07
1.39392e-05
-7.07378e-07
1.47459e-05
-8.05334e-07
1.56398e-05
-8.92157e-07
1.66099e-05
-9.68221e-07
1.76457e-05
-1.03379e-06
1.87371e-05
-1.08913e-06
1.9874e-05
-1.13452e-06
2.10468e-05
-1.17033e-06
2.22464e-05
-1.19701e-06
2.34642e-05
-1.21508e-06
2.46921e-05
-1.22514e-06
2.59228e-05
-1.22783e-06
2.71495e-05
-1.22384e-06
2.83663e-05
-1.21387e-06
2.95678e-05
-1.19864e-06
3.07496e-05
-1.17884e-06
3.19076e-05
-1.15515e-06
3.30387e-05
-1.12822e-06
3.41402e-05
-1.09864e-06
3.521e-05
-1.06698e-06
3.62464e-05
-1.03373e-06
3.72485e-05
-9.99362e-07
3.82153e-05
-9.64278e-07
3.91467e-05
-9.28841e-07
4.00425e-05
-8.93363e-07
4.0903e-05
-8.58114e-07
4.17285e-05
-8.23323e-07
4.25199e-05
-7.89184e-07
4.32778e-05
-7.55854e-07
4.40032e-05
-7.2346e-07
4.46972e-05
-6.92101e-07
4.53608e-05
-6.61853e-07
4.59952e-05
-6.32768e-07
4.66016e-05
-6.04881e-07
4.71812e-05
-5.78204e-07
4.77353e-05
-5.52737e-07
4.82649e-05
-5.28468e-07
4.87714e-05
-5.05373e-07
4.92558e-05
-4.83414e-07
4.97192e-05
-4.62542e-07
5.01627e-05
-4.42703e-07
5.05873e-05
-4.23835e-07
5.09937e-05
-4.05868e-07
5.13829e-05
-3.88721e-07
5.17557e-05
-3.72311e-07
5.21125e-05
-3.56545e-07
5.24541e-05
-3.41325e-07
5.27808e-05
-3.26545e-07
5.30929e-05
-3.12092e-07
5.33908e-05
-2.97844e-07
5.36744e-05
-2.8367e-07
5.39437e-05
-2.6943e-07
5.41984e-05
-2.5497e-07
5.44383e-05
-2.40125e-07
5.46627e-05
-2.24711e-07
5.48709e-05
-2.08527e-07
5.50619e-05
-1.91344e-07
5.52344e-05
-1.72907e-07
5.53868e-05
-1.52921e-07
5.55174e-05
-1.3104e-07
5.56238e-05
-1.06858e-07
5.57031e-05
-7.98822e-08
5.57521e-05
-4.95096e-08
5.57666e-05
-1.49854e-08
5.57413e-05
2.47013e-08
5.56698e-05
7.09358e-08
5.55437e-05
1.25601e-07
5.53518e-05
1.91374e-07
5.50791e-05
2.72216e-07
5.47043e-05
3.74243e-07
5.41965e-05
5.07302e-07
5.35081e-05
6.87999e-07
5.25619e-05
9.45709e-07
5.12261e-05
1.33544e-06
4.92546e-05
1.97108e-06
4.61188e-05
3.13545e-06
6.01837e-06
4.01001e-05
1.26417e-05
-3.76079e-07
1.30012e-05
-6.95995e-07
1.35095e-05
-9.82629e-07
1.41493e-05
-1.2365e-06
1.49068e-05
-1.46365e-06
1.57696e-05
-1.66656e-06
1.67257e-05
-1.8464e-06
1.77634e-05
-2.00396e-06
1.88716e-05
-2.13978e-06
2.00393e-05
-2.2544e-06
2.12557e-05
-2.34843e-06
2.25107e-05
-2.42261e-06
2.37943e-05
-2.47788e-06
2.50975e-05
-2.51532e-06
2.64115e-05
-2.53616e-06
2.77284e-05
-2.54173e-06
2.90411e-05
-2.53347e-06
3.03432e-05
-2.51283e-06
3.1629e-05
-2.48128e-06
3.28935e-05
-2.44028e-06
3.41327e-05
-2.39122e-06
3.5343e-05
-2.33543e-06
3.65215e-05
-2.27416e-06
3.76661e-05
-2.20856e-06
3.8775e-05
-2.13969e-06
3.9847e-05
-2.06849e-06
4.08813e-05
-1.99581e-06
4.18775e-05
-1.92239e-06
4.28357e-05
-1.84889e-06
4.37559e-05
-1.77585e-06
4.46388e-05
-1.70376e-06
4.54849e-05
-1.63302e-06
4.62952e-05
-1.56395e-06
4.70707e-05
-1.4968e-06
4.78123e-05
-1.4318e-06
4.85215e-05
-1.36909e-06
4.91992e-05
-1.30879e-06
4.98469e-05
-1.25095e-06
5.04659e-05
-1.19561e-06
5.10573e-05
-1.14277e-06
5.16225e-05
-1.09241e-06
5.21628e-05
-1.04446e-06
5.26793e-05
-9.98847e-07
5.31732e-05
-9.55483e-07
5.36456e-05
-9.14246e-07
5.40975e-05
-8.75007e-07
5.45299e-05
-8.37619e-07
5.49436e-05
-8.0192e-07
5.53395e-05
-7.67733e-07
5.57181e-05
-7.34868e-07
5.60802e-05
-7.03122e-07
5.64261e-05
-6.72276e-07
5.67561e-05
-6.42096e-07
5.70706e-05
-6.12331e-07
5.73696e-05
-5.82713e-07
5.7653e-05
-5.52952e-07
5.79205e-05
-5.22736e-07
5.81719e-05
-4.91723e-07
5.84064e-05
-4.59541e-07
5.86232e-05
-4.25778e-07
5.88215e-05
-3.89973e-07
5.89997e-05
-3.51607e-07
5.91564e-05
-3.10085e-07
5.92896e-05
-2.64718e-07
5.93969e-05
-2.1469e-07
5.94755e-05
-1.59027e-07
5.95219e-05
-9.65329e-08
5.95321e-05
-2.5719e-08
5.95008e-05
5.53765e-08
5.94218e-05
1.49361e-07
5.92871e-05
2.59732e-07
5.90866e-05
3.91355e-07
5.8807e-05
5.51214e-07
5.84311e-05
7.49646e-07
5.79355e-05
1.00242e-06
5.72887e-05
1.3343e-06
5.64488e-05
1.78514e-06
5.53633e-05
2.42043e-06
5.39817e-05
3.35226e-06
5.23416e-05
4.77521e-06
6.9369e-06
5.14226e-05
1.3521e-05
-5.76084e-07
1.39029e-05
-1.07749e-06
1.44443e-05
-1.52316e-06
1.5127e-05
-1.91811e-06
1.59361e-05
-2.27138e-06
1.68581e-05
-2.5869e-06
1.78801e-05
-2.86654e-06
1.89898e-05
-3.11151e-06
2.01751e-05
-3.3227e-06
2.14242e-05
-3.50092e-06
2.27256e-05
-3.64712e-06
2.40683e-05
-3.76247e-06
2.54419e-05
-3.84842e-06
2.68363e-05
-3.90665e-06
2.82424e-05
-3.93906e-06
2.96517e-05
-3.94774e-06
3.10564e-05
-3.93491e-06
3.24497e-05
-3.90282e-06
3.38256e-05
-3.85378e-06
3.51787e-05
-3.79003e-06
3.65045e-05
-3.71375e-06
3.77994e-05
-3.62701e-06
3.90603e-05
-3.53175e-06
4.02847e-05
-3.42975e-06
4.14708e-05
-3.32266e-06
4.26173e-05
-3.21195e-06
4.37234e-05
-3.09893e-06
4.47886e-05
-2.98475e-06
4.5813e-05
-2.87044e-06
4.67967e-05
-2.75684e-06
4.77402e-05
-2.64471e-06
4.86443e-05
-2.53465e-06
4.95099e-05
-2.42718e-06
5.0338e-05
-2.3227e-06
5.11299e-05
-2.22153e-06
5.18867e-05
-2.12391e-06
5.26098e-05
-2.03001e-06
5.33006e-05
-1.93993e-06
5.39603e-05
-1.85371e-06
5.45904e-05
-1.77136e-06
5.51922e-05
-1.69282e-06
5.5767e-05
-1.61803e-06
5.63162e-05
-1.54684e-06
5.68408e-05
-1.47912e-06
5.73422e-05
-1.41468e-06
5.78213e-05
-1.35332e-06
5.82791e-05
-1.2948e-06
5.87167e-05
-1.23889e-06
5.91347e-05
-1.1853e-06
5.95339e-05
-1.13374e-06
5.9915e-05
-1.08389e-06
6.02783e-05
-1.03542e-06
6.06242e-05
-9.87958e-07
6.0953e-05
-9.4113e-07
6.12647e-05
-8.94518e-07
6.15593e-05
-8.4768e-07
6.18365e-05
-8.00137e-07
6.20959e-05
-7.51371e-07
6.23368e-05
-7.00817e-07
6.25585e-05
-6.47852e-07
6.27599e-05
-5.91786e-07
6.29396e-05
-5.31843e-07
6.30961e-05
-4.67141e-07
6.32275e-05
-3.96664e-07
6.33315e-05
-3.19223e-07
6.34053e-05
-2.33406e-07
6.34457e-05
-1.37504e-07
6.34487e-05
-2.94055e-08
6.34099e-05
9.35946e-08
6.33237e-05
2.34974e-07
6.31835e-05
3.99279e-07
6.29817e-05
5.92604e-07
6.2709e-05
8.23289e-07
6.23552e-05
1.10293e-06
6.19092e-05
1.44784e-06
6.13618e-05
1.88111e-06
6.07113e-05
2.43518e-06
5.99768e-05
3.15438e-06
5.9233e-05
4.09562e-06
5.86933e-05
5.31447e-06
6.78681e-06
5.8843e-05
1.44612e-05
-7.83909e-07
1.48657e-05
-1.48143e-06
1.54411e-05
-2.09769e-06
1.61685e-05
-2.6444e-06
1.70319e-05
-3.13326e-06
1.80166e-05
-3.56977e-06
1.91087e-05
-3.95661e-06
2.0295e-05
-4.2955e-06
2.15625e-05
-4.58765e-06
2.28985e-05
-4.8342e-06
2.42908e-05
-5.03646e-06
2.57274e-05
-5.19605e-06
2.71972e-05
-5.31497e-06
2.86894e-05
-5.39554e-06
3.01942e-05
-5.4404e-06
3.17024e-05
-5.45243e-06
3.32057e-05
-5.4347e-06
3.46968e-05
-5.39033e-06
3.61691e-05
-5.32251e-06
3.7617e-05
-5.23433e-06
3.90356e-05
-5.12882e-06
4.0421e-05
-5.00883e-06
4.17698e-05
-4.87706e-06
4.30794e-05
-4.73597e-06
4.4348e-05
-4.58782e-06
4.55739e-05
-4.43466e-06
4.67565e-05
-4.27829e-06
4.78952e-05
-4.12032e-06
4.89899e-05
-3.96214e-06
5.00409e-05
-3.80495e-06
5.10487e-05
-3.64976e-06
5.20142e-05
-3.49743e-06
5.29382e-05
-3.34865e-06
5.38218e-05
-3.20399e-06
5.46665e-05
-3.06387e-06
5.54733e-05
-2.92864e-06
5.62439e-05
-2.79852e-06
5.69795e-05
-2.67365e-06
5.76816e-05
-2.55409e-06
5.83517e-05
-2.43984e-06
5.89912e-05
-2.33083e-06
5.96015e-05
-2.22695e-06
6.01839e-05
-2.12803e-06
6.07397e-05
-2.03384e-06
6.12702e-05
-1.94416e-06
6.17764e-05
-1.85868e-06
6.22594e-05
-1.77711e-06
6.27202e-05
-1.69908e-06
6.31596e-05
-1.62422e-06
6.35784e-05
-1.55213e-06
6.39772e-05
-1.48237e-06
6.43564e-05
-1.41448e-06
6.47165e-05
-1.34797e-06
6.50577e-05
-1.28231e-06
6.53801e-05
-1.21695e-06
6.56835e-05
-1.15128e-06
6.59678e-05
-1.08466e-06
6.62325e-05
-1.01639e-06
6.64771e-05
-9.45733e-07
6.67007e-05
-8.71854e-07
6.69022e-05
-7.93848e-07
6.70806e-05
-7.10706e-07
6.72342e-05
-6.2129e-07
6.73612e-05
-5.24306e-07
6.74597e-05
-4.18257e-07
6.7527e-05
-3.01392e-07
6.75605e-05
-1.71627e-07
6.75569e-05
-2.64441e-08
6.75125e-05
1.37276e-07
6.74235e-05
3.2338e-07
6.72854e-05
5.3671e-07
6.70939e-05
7.83437e-07
6.68451e-05
1.07147e-06
6.65365e-05
1.41094e-06
6.6169e-05
1.81469e-06
6.5751e-05
2.2986e-06
6.53044e-05
2.88116e-06
6.48768e-05
3.58154e-06
6.4558e-05
4.41384e-06
6.4499e-05
5.37302e-06
6.40019e-06
6.48852e-05
1.5467e-05
-9.99959e-07
1.58944e-05
-1.90824e-06
1.65051e-05
-2.70746e-06
1.72794e-05
-3.41745e-06
1.82e-05
-4.05222e-06
1.9251e-05
-4.61891e-06
2.04177e-05
-5.1211e-06
2.16857e-05
-5.56102e-06
2.3041e-05
-5.94027e-06
2.44701e-05
-6.26034e-06
2.59597e-05
-6.52292e-06
2.74971e-05
-6.73013e-06
2.90702e-05
-6.88454e-06
3.06674e-05
-6.98916e-06
3.22781e-05
-7.04743e-06
3.38925e-05
-7.06308e-06
3.55017e-05
-7.04008e-06
3.70977e-05
-6.9825e-06
3.86735e-05
-6.89447e-06
4.02231e-05
-6.78002e-06
4.17411e-05
-6.64306e-06
4.32234e-05
-6.48731e-06
4.46663e-05
-6.31625e-06
4.60672e-05
-6.13309e-06
4.74237e-05
-5.94078e-06
4.87345e-05
-5.74194e-06
4.99986e-05
-5.53893e-06
5.12155e-05
-5.33384e-06
5.2385e-05
-5.12845e-06
5.35075e-05
-4.92432e-06
5.45835e-05
-4.72277e-06
5.56138e-05
-4.5249e-06
5.65995e-05
-4.33162e-06
5.75417e-05
-4.14364e-06
5.84418e-05
-3.96153e-06
5.93012e-05
-3.78571e-06
6.01213e-05
-3.61648e-06
6.09037e-05
-3.45402e-06
6.16499e-05
-3.2984e-06
6.23614e-05
-3.14962e-06
6.30398e-05
-3.00758e-06
6.36864e-05
-2.87213e-06
6.43028e-05
-2.74306e-06
6.48902e-05
-2.62008e-06
6.54499e-05
-2.50287e-06
6.59832e-05
-2.39107e-06
6.64912e-05
-2.28426e-06
6.69747e-05
-2.18199e-06
6.74348e-05
-2.08379e-06
6.78722e-05
-1.98912e-06
6.82876e-05
-1.89744e-06
6.86815e-05
-1.80815e-06
6.90542e-05
-1.72063e-06
6.94061e-05
-1.6342e-06
6.97372e-05
-1.54817e-06
7.00476e-05
-1.46178e-06
7.03369e-05
-1.37422e-06
7.06048e-05
-1.28464e-06
7.08508e-05
-1.19212e-06
7.10741e-05
-1.09563e-06
7.12739e-05
-9.94103e-07
7.14489e-05
-8.86317e-07
7.1598e-05
-7.70938e-07
7.17195e-05
-6.46465e-07
7.18118e-05
-5.11195e-07
7.18729e-05
-3.63179e-07
7.19008e-05
-2.00152e-07
7.18931e-05
-1.94696e-08
7.18477e-05
1.82016e-07
7.17624e-05
4.07975e-07
7.16355e-05
6.62813e-07
7.14665e-05
9.5177e-07
7.12563e-05
1.28101e-06
7.1009e-05
1.65762e-06
7.07336e-05
2.0894e-06
7.04474e-05
2.58415e-06
7.01797e-05
3.14831e-06
6.99764e-05
3.78422e-06
6.99042e-05
4.48557e-06
7.00467e-05
5.23003e-06
5.96737e-06
7.0479e-05
1.65433e-05
-1.22495e-06
1.69943e-05
-2.35872e-06
1.76419e-05
-3.35408e-06
1.84655e-05
-4.23969e-06
1.94467e-05
-5.0316e-06
2.05683e-05
-5.73851e-06
2.18146e-05
-6.36496e-06
2.31699e-05
-6.91374e-06
2.46195e-05
-7.38686e-06
2.61485e-05
-7.78616e-06
2.77427e-05
-8.11377e-06
2.93885e-05
-8.37231e-06
3.10726e-05
-8.56498e-06
3.27829e-05
-8.69554e-06
3.45076e-05
-8.76826e-06
3.62364e-05
-8.7878e-06
3.79596e-05
-8.75911e-06
3.96685e-05
-8.68729e-06
4.13556e-05
-8.57747e-06
4.30145e-05
-8.43468e-06
4.46393e-05
-8.26381e-06
4.62256e-05
-8.06951e-06
4.77695e-05
-7.8561e-06
4.9268e-05
-7.6276e-06
5.07188e-05
-7.38767e-06
5.21202e-05
-7.1396e-06
5.34713e-05
-6.88632e-06
5.47715e-05
-6.63041e-06
5.60206e-05
-6.37413e-06
5.7219e-05
-6.11939e-06
5.83673e-05
-5.86785e-06
5.94663e-05
-5.62086e-06
6.05172e-05
-5.37954e-06
6.15211e-05
-5.1448e-06
6.24796e-05
-4.91733e-06
6.3394e-05
-4.69766e-06
6.4266e-05
-4.48614e-06
6.50971e-05
-4.28299e-06
6.58891e-05
-4.08831e-06
6.66434e-05
-3.90208e-06
6.73617e-05
-3.72419e-06
6.80456e-05
-3.55444e-06
6.86965e-05
-3.39255e-06
6.93159e-05
-3.23819e-06
6.99051e-05
-3.09095e-06
7.04654e-05
-2.95036e-06
7.09979e-05
-2.81593e-06
7.15037e-05
-2.68709e-06
7.19837e-05
-2.56325e-06
7.24388e-05
-2.44377e-06
7.28697e-05
-2.32797e-06
7.32769e-05
-2.21512e-06
7.36608e-05
-2.10447e-06
7.40218e-05
-1.99521e-06
7.43601e-05
-1.88649e-06
7.46755e-05
-1.77742e-06
7.49681e-05
-1.66703e-06
7.52374e-05
-1.55433e-06
7.54831e-05
-1.43823e-06
7.57046e-05
-1.31759e-06
7.59011e-05
-1.19115e-06
7.60718e-05
-1.05758e-06
7.62156e-05
-9.15397e-07
7.63315e-05
-7.63002e-07
7.64182e-05
-5.9861e-07
7.64745e-05
-4.20236e-07
7.64993e-05
-2.25657e-07
7.64914e-05
-1.23863e-08
7.64503e-05
2.22384e-07
7.63758e-05
4.81694e-07
7.62689e-05
7.68966e-07
7.61321e-05
1.0879e-06
7.597e-05
1.44232e-06
7.5791e-05
1.83595e-06
7.56079e-05
2.27181e-06
7.54399e-05
2.75147e-06
7.53139e-05
3.27366e-06
7.52651e-05
3.83245e-06
7.53352e-05
4.41492e-06
7.55662e-05
4.99843e-06
5.54843e-06
7.59846e-05
1.7695e-05
-1.45986e-06
1.81711e-05
-2.83415e-06
1.88577e-05
-4.03964e-06
1.97336e-05
-5.11405e-06
2.07791e-05
-6.07527e-06
2.19762e-05
-6.93338e-06
2.33077e-05
-7.69387e-06
2.47569e-05
-8.36012e-06
2.63078e-05
-8.93456e-06
2.79445e-05
-9.41941e-06
2.96516e-05
-9.81723e-06
3.14143e-05
-1.01312e-05
3.32185e-05
-1.03652e-05
3.50509e-05
-1.05237e-05
3.6899e-05
-1.0612e-05
3.87513e-05
-1.06358e-05
4.05975e-05
-1.06009e-05
4.24283e-05
-1.05136e-05
4.42355e-05
-1.03802e-05
4.60121e-05
-1.02068e-05
4.7752e-05
-9.99926e-06
4.94502e-05
-9.76327e-06
5.11025e-05
-9.5041e-06
5.27058e-05
-9.2266e-06
5.42576e-05
-8.93523e-06
5.5756e-05
-8.63397e-06
5.72001e-05
-8.32639e-06
5.85891e-05
-8.0156e-06
5.99231e-05
-7.70434e-06
6.12022e-05
-7.39493e-06
6.24272e-05
-7.08937e-06
6.35989e-05
-6.78929e-06
6.47186e-05
-6.49606e-06
6.57876e-05
-6.21076e-06
6.68073e-05
-5.93422e-06
6.77794e-05
-5.66708e-06
6.87055e-05
-5.40975e-06
6.95874e-05
-5.16252e-06
7.04267e-05
-4.92547e-06
7.12253e-05
-4.69859e-06
7.19847e-05
-4.48174e-06
7.27066e-05
-4.27467e-06
7.33926e-05
-4.07705e-06
7.40442e-05
-3.88846e-06
7.46629e-05
-3.70841e-06
7.525e-05
-3.53636e-06
7.58066e-05
-3.37168e-06
7.6334e-05
-3.21372e-06
7.68332e-05
-3.06176e-06
7.73049e-05
-2.91504e-06
7.775e-05
-2.77275e-06
7.81692e-05
-2.63404e-06
7.85629e-05
-2.49803e-06
7.89315e-05
-2.36377e-06
7.92752e-05
-2.23028e-06
7.95941e-05
-2.09654e-06
7.98882e-05
-1.96145e-06
8.01574e-05
-1.82389e-06
8.04014e-05
-1.68266e-06
8.06198e-05
-1.53649e-06
8.08121e-05
-1.38406e-06
8.09779e-05
-1.22394e-06
8.11164e-05
-1.05462e-06
8.12272e-05
-8.74488e-07
8.13096e-05
-6.81815e-07
8.13634e-05
-4.7475e-07
8.13882e-05
-2.51313e-07
8.13845e-05
-9.41676e-09
8.13529e-05
2.53131e-07
8.12953e-05
5.38466e-07
8.12147e-05
8.48764e-07
8.11158e-05
1.18601e-06
8.10056e-05
1.55178e-06
8.08939e-05
1.94689e-06
8.0794e-05
2.37093e-06
8.07232e-05
2.82158e-06
8.07023e-05
3.29385e-06
8.07549e-05
3.77919e-06
8.09045e-05
4.26467e-06
8.11697e-05
4.73265e-06
5.16166e-06
8.15559e-05
1.89278e-05
-1.70594e-06
1.94306e-05
-3.33623e-06
2.01589e-05
-4.76683e-06
2.10906e-05
-6.04414e-06
2.22052e-05
-7.18784e-06
2.34833e-05
-8.20911e-06
2.49066e-05
-9.11437e-06
2.64572e-05
-9.90758e-06
2.81176e-05
-1.05916e-05
2.98708e-05
-1.11689e-05
3.17002e-05
-1.16427e-05
3.35898e-05
-1.20166e-05
3.55242e-05
-1.22953e-05
3.74891e-05
-1.24841e-05
3.94708e-05
-1.25892e-05
4.14571e-05
-1.26173e-05
4.34367e-05
-1.25757e-05
4.53995e-05
-1.24716e-05
4.73367e-05
-1.23126e-05
4.92406e-05
-1.21059e-05
5.11047e-05
-1.18586e-05
5.29236e-05
-1.15774e-05
5.46927e-05
-1.12686e-05
5.64087e-05
-1.0938e-05
5.80689e-05
-1.05909e-05
5.96714e-05
-1.0232e-05
6.12149e-05
-9.86562e-06
6.26989e-05
-9.49542e-06
6.41232e-05
-9.12464e-06
6.54882e-05
-8.75605e-06
6.67946e-05
-8.39201e-06
6.80433e-05
-8.03446e-06
6.92357e-05
-7.68501e-06
7.03731e-05
-7.34493e-06
7.14572e-05
-7.01523e-06
7.24896e-05
-6.69662e-06
7.34722e-05
-6.38963e-06
7.44067e-05
-6.09454e-06
7.52951e-05
-5.81148e-06
7.61391e-05
-5.54042e-06
7.69405e-05
-5.28118e-06
7.77012e-05
-5.03348e-06
7.84227e-05
-4.79691e-06
7.91067e-05
-4.57098e-06
7.97547e-05
-4.35511e-06
8.03681e-05
-4.14865e-06
8.09483e-05
-3.95088e-06
8.14964e-05
-3.76103e-06
8.20136e-05
-3.57827e-06
8.25008e-05
-3.4017e-06
8.29589e-05
-3.23042e-06
8.33885e-05
-3.06343e-06
8.37903e-05
-2.89972e-06
8.41648e-05
-2.73824e-06
8.45123e-05
-2.57788e-06
8.48331e-05
-2.4175e-06
8.51272e-05
-2.25591e-06
8.53949e-05
-2.09189e-06
8.56359e-05
-1.92415e-06
8.58502e-05
-1.75139e-06
8.60378e-05
-1.57221e-06
8.61984e-05
-1.38522e-06
8.6332e-05
-1.18894e-06
8.64386e-05
-9.81858e-07
8.65184e-05
-7.62423e-07
8.65719e-05
-5.29056e-07
8.65999e-05
-2.80172e-07
8.66038e-05
-1.42351e-08
8.65859e-05
2.70185e-07
8.65493e-05
5.74255e-07
8.64983e-05
8.98909e-07
8.64388e-05
1.24461e-06
8.63786e-05
1.61114e-06
8.63274e-05
1.99732e-06
8.62968e-05
2.4007e-06
8.63004e-05
2.81717e-06
8.63529e-05
3.24068e-06
8.64684e-05
3.66295e-06
8.66589e-05
4.07349e-06
8.69309e-05
4.46e-06
4.80979e-06
8.72821e-05
2.02474e-05
-1.96463e-06
2.07791e-05
-3.8672e-06
2.15525e-05
-5.53894e-06
2.25443e-05
-7.0343e-06
2.37334e-05
-8.37475e-06
2.50992e-05
-9.57228e-06
2.66219e-05
-1.06341e-05
2.82824e-05
-1.15647e-05
3.00619e-05
-1.23673e-05
3.19419e-05
-1.30449e-05
3.39045e-05
-1.3601e-05
3.59323e-05
-1.40399e-05
3.80086e-05
-1.43669e-05
4.01178e-05
-1.45884e-05
4.22452e-05
-1.47116e-05
4.43774e-05
-1.47444e-05
4.65021e-05
-1.46952e-05
4.86084e-05
-1.45727e-05
5.06866e-05
-1.43856e-05
5.27286e-05
-1.41426e-05
5.47272e-05
-1.38519e-05
5.66766e-05
-1.35215e-05
5.85718e-05
-1.31588e-05
6.04093e-05
-1.27704e-05
6.21861e-05
-1.23628e-05
6.39002e-05
-1.19413e-05
6.55504e-05
-1.15111e-05
6.71358e-05
-1.10764e-05
6.86566e-05
-1.0641e-05
7.0113e-05
-1.02082e-05
7.15057e-05
-9.78071e-06
7.28359e-05
-9.3608e-06
7.41049e-05
-8.95035e-06
7.53144e-05
-8.55084e-06
7.64659e-05
-8.16343e-06
7.75613e-05
-7.78895e-06
7.86026e-05
-7.428e-06
7.95917e-05
-7.08091e-06
8.05306e-05
-6.74782e-06
8.14212e-05
-6.42869e-06
8.22655e-05
-6.12331e-06
8.30654e-05
-5.83133e-06
8.38225e-05
-5.55229e-06
8.45387e-05
-5.28561e-06
8.52157e-05
-5.03062e-06
8.58549e-05
-4.78657e-06
8.64577e-05
-4.55264e-06
8.70255e-05
-4.32793e-06
8.75594e-05
-4.11149e-06
8.80606e-05
-3.90233e-06
8.853e-05
-3.69939e-06
8.89685e-05
-3.50159e-06
8.93767e-05
-3.3078e-06
8.97554e-05
-3.11685e-06
9.01049e-05
-2.92753e-06
9.04258e-05
-2.73862e-06
9.07184e-05
-2.54885e-06
9.09831e-05
-2.35694e-06
9.122e-05
-2.16157e-06
9.14294e-05
-1.96141e-06
9.16117e-05
-1.75513e-06
9.17672e-05
-1.54137e-06
9.18962e-05
-1.31879e-06
9.19996e-05
-1.08606e-06
9.20783e-05
-8.41906e-07
9.21334e-05
-5.85101e-07
9.21669e-05
-3.14539e-07
9.2181e-05
-2.92863e-08
9.2179e-05
2.71327e-07
9.21647e-05
5.87596e-07
9.21432e-05
9.19419e-07
9.21208e-05
1.26612e-06
9.21048e-05
1.62631e-06
9.21035e-05
1.99769e-06
9.21264e-05
2.37695e-06
9.21831e-05
2.75959e-06
9.22831e-05
3.13993e-06
9.24341e-05
3.51112e-06
9.26414e-05
3.86545e-06
9.29059e-05
4.19485e-06
4.49205e-06
9.3223e-05
2.16598e-05
-2.23763e-06
2.22232e-05
-4.42982e-06
2.30457e-05
-6.36002e-06
2.41031e-05
-8.08982e-06
2.53732e-05
-9.64253e-06
2.68344e-05
-1.10306e-05
2.84655e-05
-1.2262e-05
3.02461e-05
-1.33416e-05
3.21557e-05
-1.42729e-05
3.41744e-05
-1.50593e-05
3.62828e-05
-1.57047e-05
3.84619e-05
-1.62141e-05
4.06936e-05
-1.65935e-05
4.29608e-05
-1.68503e-05
4.52476e-05
-1.69929e-05
4.75392e-05
-1.70305e-05
4.98224e-05
-1.69727e-05
5.20852e-05
-1.68298e-05
5.43172e-05
-1.66119e-05
5.65094e-05
-1.63291e-05
5.86541e-05
-1.5991e-05
6.07448e-05
-1.56067e-05
6.27766e-05
-1.5185e-05
6.47452e-05
-1.47336e-05
6.66476e-05
-1.42599e-05
6.84818e-05
-1.37703e-05
7.02462e-05
-1.32705e-05
7.19402e-05
-1.27655e-05
7.35638e-05
-1.22599e-05
7.51174e-05
-1.17572e-05
7.66017e-05
-1.12607e-05
7.80181e-05
-1.0773e-05
7.93679e-05
-1.02962e-05
8.06529e-05
-9.83206e-06
8.1875e-05
-9.38189e-06
8.30361e-05
-8.94665e-06
8.41383e-05
-8.527e-06
8.51837e-05
-8.12333e-06
8.61744e-05
-7.73578e-06
8.71126e-05
-7.3643e-06
8.80002e-05
-7.00865e-06
8.88395e-05
-6.66841e-06
8.96322e-05
-6.34305e-06
9.03802e-05
-6.03192e-06
9.10854e-05
-5.73424e-06
9.17493e-05
-5.44916e-06
9.23736e-05
-5.17575e-06
9.29596e-05
-4.91299e-06
9.35088e-05
-4.65984e-06
9.40223e-05
-4.41517e-06
9.45012e-05
-4.17783e-06
9.49465e-05
-3.94662e-06
9.53592e-05
-3.72031e-06
9.57401e-05
-3.49765e-06
9.60898e-05
-3.27734e-06
9.6409e-05
-3.0581e-06
9.66985e-05
-2.83863e-06
9.69587e-05
-2.6176e-06
9.71904e-05
-2.39373e-06
9.7394e-05
-2.16572e-06
9.75705e-05
-1.9323e-06
9.77206e-05
-1.69225e-06
9.78455e-05
-1.44442e-06
9.79462e-05
-1.18772e-06
9.80246e-05
-9.21172e-07
9.80825e-05
-6.43967e-07
9.81225e-05
-3.55473e-07
9.81475e-05
-5.53152e-08
9.81613e-05
2.56537e-07
9.81682e-05
5.79696e-07
9.81733e-05
9.13332e-07
9.81824e-05
1.25607e-06
9.82018e-05
1.60592e-06
9.82384e-05
1.96019e-06
9.82989e-05
2.31546e-06
9.839e-05
2.66764e-06
9.85171e-05
3.012e-06
9.8684e-05
3.34334e-06
9.88924e-05
3.65632e-06
9.91406e-05
3.94582e-06
4.20784e-06
9.94241e-05
2.31717e-05
-2.52685e-06
2.37702e-05
-5.02741e-06
2.46465e-05
-7.23489e-06
2.57758e-05
-9.21701e-06
2.71347e-05
-1.09989e-05
2.87005e-05
-1.25933e-05
3.04507e-05
-1.40086e-05
3.23631e-05
-1.525e-05
3.44158e-05
-1.63212e-05
3.65871e-05
-1.72259e-05
3.88559e-05
-1.79685e-05
4.12016e-05
-1.85544e-05
4.36044e-05
-1.89907e-05
4.60455e-05
-1.92857e-05
4.85074e-05
-1.9449e-05
5.09742e-05
-1.94912e-05
5.34312e-05
-1.94236e-05
5.58654e-05
-1.92579e-05
5.82655e-05
-1.90058e-05
6.06215e-05
-1.86789e-05
6.29252e-05
-1.82885e-05
6.51696e-05
-1.7845e-05
6.73493e-05
-1.73585e-05
6.94597e-05
-1.68381e-05
7.14976e-05
-1.62921e-05
7.34608e-05
-1.57278e-05
7.53478e-05
-1.5152e-05
7.7158e-05
-1.45704e-05
7.88912e-05
-1.3988e-05
8.05481e-05
-1.34091e-05
8.21294e-05
-1.28373e-05
8.36367e-05
-1.22757e-05
8.50715e-05
-1.17266e-05
8.64357e-05
-1.11921e-05
8.77313e-05
-1.06736e-05
8.89604e-05
-1.01721e-05
9.01254e-05
-9.68856e-06
9.12286e-05
-9.22324e-06
9.22722e-05
-8.77636e-06
9.32585e-05
-8.34784e-06
9.41898e-05
-7.93738e-06
9.50682e-05
-7.54453e-06
9.5896e-05
-7.16868e-06
9.6675e-05
-6.80907e-06
9.74073e-05
-6.46484e-06
9.80946e-05
-6.13503e-06
9.87387e-05
-5.8186e-06
9.93412e-05
-5.51443e-06
9.99036e-05
-5.22136e-06
0.000100427
-4.93816e-06
0.000100914
-4.66357e-06
0.000101364
-4.3963e-06
0.000101779
-4.13503e-06
0.000102159
-3.87845e-06
0.000102507
-3.6252e-06
0.000102823
-3.37397e-06
0.000103107
-3.12344e-06
0.000103362
-2.8723e-06
0.000103587
-2.6193e-06
0.000103783
-2.36323e-06
0.000103953
-2.10295e-06
0.000104098
-1.83738e-06
0.000104218
-1.56559e-06
0.000104316
-1.28675e-06
0.000104394
-1.00021e-06
0.000104455
-7.05527e-07
0.000104501
-4.02487e-07
0.000104536
-9.11714e-08
0.000104563
2.27995e-07
0.000104587
5.54176e-07
0.000104614
8.86134e-07
0.000104646
1.22218e-06
0.000104691
1.56016e-06
0.000104753
1.89746e-06
0.000104836
2.23101e-06
0.000104946
2.55742e-06
0.000105084
2.87304e-06
0.000105252
3.17414e-06
0.00010545
3.45716e-06
0.000105676
3.71896e-06
3.95743e-06
0.000105926
2.47901e-05
-2.83448e-06
2.54276e-05
-5.66399e-06
2.63637e-05
-8.16934e-06
2.75723e-05
-1.04234e-05
2.90293e-05
-1.24531e-05
3.07107e-05
-1.42713e-05
3.25923e-05
-1.58864e-05
3.46505e-05
-1.73038e-05
3.68615e-05
-1.85274e-05
3.92019e-05
-1.95611e-05
4.16484e-05
-2.04094e-05
4.41786e-05
-2.10787e-05
4.67706e-05
-2.15766e-05
4.9404e-05
-2.19127e-05
5.20594e-05
-2.20979e-05
5.47193e-05
-2.21445e-05
5.73677e-05
-2.20652e-05
5.99903e-05
-2.18736e-05
6.25745e-05
-2.15833e-05
6.51098e-05
-2.12074e-05
6.7587e-05
-2.07589e-05
6.99987e-05
-2.025e-05
7.23388e-05
-1.96921e-05
7.46026e-05
-1.90955e-05
7.67867e-05
-1.84699e-05
7.88888e-05
-1.78236e-05
8.09072e-05
-1.71644e-05
8.28414e-05
-1.64987e-05
8.46913e-05
-1.58323e-05
8.64577e-05
-1.517e-05
8.81416e-05
-1.4516e-05
8.97445e-05
-1.38736e-05
9.12683e-05
-1.32457e-05
9.27149e-05
-1.26343e-05
9.40868e-05
-1.20412e-05
9.53862e-05
-1.14675e-05
9.66157e-05
-1.09142e-05
9.77776e-05
-1.03817e-05
9.88747e-05
-9.87012e-06
9.99093e-05
-9.3794e-06
0.000100884
-8.9092e-06
0.000101801
-8.45901e-06
0.000102663
-8.02811e-06
0.000103471
-7.61569e-06
0.000104229
-7.22076e-06
0.000104938
-6.84228e-06
0.0001056
-6.47908e-06
0.000106217
-6.12996e-06
0.00010679
-5.79362e-06
0.000107321
-5.46876e-06
0.000107812
-5.15402e-06
0.000108264
-4.84802e-06
0.000108679
-4.54939e-06
0.000109057
-4.25675e-06
0.000109401
-3.96872e-06
0.000109711
-3.68398e-06
0.000109988
-3.40121e-06
0.000110234
-3.11916e-06
0.000110451
-2.83663e-06
0.00011064
-2.55252e-06
0.000110802
-2.26583e-06
0.000110939
-1.97566e-06
0.000111054
-1.68129e-06
0.000111148
-1.38213e-06
0.000111225
-1.07782e-06
0.000111287
-7.68213e-07
0.000111336
-4.53412e-07
0.000111378
-1.33811e-07
0.000111415
1.89897e-07
0.000111451
5.16659e-07
0.000111491
8.45097e-07
0.000111539
1.1735e-06
0.000111598
1.49985e-06
0.000111673
1.82185e-06
0.000111766
2.13697e-06
0.000111879
2.4426e-06
0.000112015
2.73605e-06
0.000112174
3.01477e-06
0.000112353
3.27645e-06
0.000112552
3.51921e-06
3.74209e-06
0.000112767
2.65225e-05
-3.16302e-06
2.72039e-05
-6.34435e-06
2.82066e-05
-9.17025e-06
2.95036e-05
-1.17179e-05
3.10697e-05
-1.40161e-05
3.28795e-05
-1.60774e-05
3.49076e-05
-1.79101e-05
3.71281e-05
-1.95195e-05
3.95156e-05
-2.09096e-05
4.20443e-05
-2.20841e-05
4.46888e-05
-2.30479e-05
4.74244e-05
-2.38078e-05
5.02271e-05
-2.43725e-05
5.30741e-05
-2.47528e-05
5.59443e-05
-2.4961e-05
5.88181e-05
-2.5011e-05
6.16779e-05
-2.49176e-05
6.45081e-05
-2.46964e-05
6.72949e-05
-2.43626e-05
7.00266e-05
-2.39317e-05
7.26934e-05
-2.34183e-05
7.52872e-05
-2.28365e-05
7.78015e-05
-2.21992e-05
8.02314e-05
-2.15183e-05
8.25731e-05
-2.08047e-05
8.48243e-05
-2.0068e-05
8.69833e-05
-1.93168e-05
8.90497e-05
-1.85587e-05
9.10235e-05
-1.78e-05
9.29057e-05
-1.70462e-05
9.46974e-05
-1.6302e-05
9.64005e-05
-1.55712e-05
9.8017e-05
-1.48569e-05
9.95492e-05
-1.41615e-05
0.000101
-1.34869e-05
0.000102371
-1.28344e-05
0.000103666
-1.2205e-05
0.000104887
-1.15991e-05
0.000106038
-1.1017e-05
0.00010712
-1.04584e-05
0.000108137
-9.92313e-06
0.000109091
-9.41046e-06
0.000109985
-8.91964e-06
0.000110821
-8.44975e-06
0.000111602
-7.99972e-06
0.00011233
-7.56839e-06
0.000113007
-7.15449e-06
0.000113635
-6.7567e-06
0.000114216
-6.37364e-06
0.000114752
-6.00392e-06
0.000115245
-5.64608e-06
0.000115696
-5.2987e-06
0.000116108
-4.96035e-06
0.000116481
-4.6296e-06
0.000116817
-4.30507e-06
0.000117118
-3.98544e-06
0.000117386
-3.66942e-06
0.000117622
-3.35582e-06
0.000117828
-3.04352e-06
0.000118007
-2.73154e-06
0.000118159
-2.419e-06
0.000118288
-2.10518e-06
0.000118395
-1.78953e-06
0.000118484
-1.47167e-06
0.000118556
-1.15146e-06
0.000118616
-8.28939e-07
0.000118666
-5.04429e-07
0.000118709
-1.78481e-07
0.00011875
1.48109e-07
0.000118791
4.74266e-07
0.000118836
7.98667e-07
0.000118889
1.11977e-06
0.000118951
1.43584e-06
0.000119027
1.74501e-06
0.000119118
2.04534e-06
0.000119224
2.3349e-06
0.000119347
2.61181e-06
0.000119487
2.87438e-06
0.000119641
3.12117e-06
0.000119808
3.3511e-06
3.56387e-06
0.000119985
2.83769e-05
-3.51536e-06
2.91079e-05
-7.07416e-06
3.01855e-05
-1.02459e-05
3.15816e-05
-1.31114e-05
3.32701e-05
-1.57012e-05
3.5224e-05
-1.80273e-05
3.74161e-05
-2.00975e-05
3.98188e-05
-2.1917e-05
4.24042e-05
-2.34892e-05
4.51442e-05
-2.48178e-05
4.80109e-05
-2.59078e-05
5.09767e-05
-2.67665e-05
5.40151e-05
-2.74035e-05
5.71009e-05
-2.78309e-05
6.02104e-05
-2.80626e-05
6.3322e-05
-2.81146e-05
6.64162e-05
-2.80037e-05
6.94758e-05
-2.77477e-05
7.24856e-05
-2.73642e-05
7.5433e-05
-2.68708e-05
7.83071e-05
-2.62843e-05
8.10993e-05
-2.56206e-05
8.38027e-05
-2.48946e-05
8.64119e-05
-2.41197e-05
8.89233e-05
-2.33083e-05
9.13342e-05
-2.24714e-05
9.36433e-05
-2.16186e-05
9.585e-05
-2.07584e-05
9.79548e-05
-1.9898e-05
9.99587e-05
-1.90436e-05
0.000101863
-1.82003e-05
0.000103671
-1.73725e-05
0.000105383
-1.65635e-05
0.000107003
-1.57761e-05
0.000108533
-1.50123e-05
0.000109977
-1.42736e-05
0.000111338
-1.35611e-05
0.000112618
-1.28751e-05
0.000113821
-1.2216e-05
0.00011495
-1.15836e-05
0.000116008
-1.09773e-05
0.000116997
-1.03967e-05
0.000117921
-9.8407e-06
0.000118782
-9.3084e-06
0.000119583
-8.7986e-06
0.000120327
-8.31002e-06
0.000121015
-7.8413e-06
0.000121651
-7.39103e-06
0.000122236
-6.95772e-06
0.000122773
-6.53989e-06
0.000123264
-6.13604e-06
0.00012371
-5.74467e-06
0.000124115
-5.3643e-06
0.000124479
-4.99349e-06
0.000124805
-4.63086e-06
0.000125094
-4.27509e-06
0.000125349
-3.92494e-06
0.000125572
-3.57928e-06
0.000125765
-3.23707e-06
0.00012593
-2.89742e-06
0.00012607
-2.55958e-06
0.000126187
-2.22296e-06
0.000126283
-1.88713e-06
0.000126363
-1.55187e-06
0.000126427
-1.21715e-06
0.00012648
-8.83131e-07
0.000126525
-5.50211e-07
0.000126564
-2.18977e-07
0.000126601
1.098e-07
0.000126639
4.35164e-07
0.00012668
7.55968e-07
0.000126728
1.07093e-06
0.000126784
1.37868e-06
0.00012685
1.6778e-06
0.000126927
1.96687e-06
0.000127016
2.24454e-06
0.000127117
2.50955e-06
0.00012723
2.76083e-06
0.000127352
2.99752e-06
0.000127483
3.21907e-06
3.42556e-06
0.00012762
3.03621e-05
-3.89487e-06
3.11495e-05
-7.86022e-06
3.23118e-05
-1.1406e-05
3.38201e-05
-1.46167e-05
3.56467e-05
-1.7524e-05
3.77634e-05
-2.01394e-05
4.0141e-05
-2.24699e-05
4.27496e-05
-2.45198e-05
4.55589e-05
-2.6292e-05
4.85378e-05
-2.77896e-05
5.16552e-05
-2.90178e-05
5.48807e-05
-2.99841e-05
5.81843e-05
-3.0699e-05
6.1538e-05
-3.1176e-05
6.49154e-05
-3.14312e-05
6.82922e-05
-3.14825e-05
7.16469e-05
-3.13494e-05
7.49604e-05
-3.10521e-05
7.82162e-05
-3.06108e-05
8.14002e-05
-3.00457e-05
8.45009e-05
-2.9376e-05
8.75089e-05
-2.86197e-05
9.0417e-05
-2.77938e-05
9.32196e-05
-2.69136e-05
9.59128e-05
-2.59931e-05
9.84942e-05
-2.50446e-05
0.000100963
-2.40789e-05
0.000103317
-2.31056e-05
0.00010556
-2.21328e-05
0.000107691
-2.11674e-05
0.000109712
-2.0215e-05
0.000111627
-1.92805e-05
0.000113437
-1.83676e-05
0.000115147
-1.74793e-05
0.000116758
-1.66179e-05
0.000118274
-1.57849e-05
0.0001197
-1.49815e-05
0.000121038
-1.42082e-05
0.000122291
-1.34652e-05
0.000123464
-1.27522e-05
0.000124559
-1.20688e-05
0.00012558
-1.14143e-05
0.00012653
-1.07876e-05
0.000127412
-1.01877e-05
0.000128229
-9.61324e-06
0.000128984
-9.06286e-06
0.00012968
-8.5351e-06
0.000130319
-8.02843e-06
0.000130904
-7.54131e-06
0.000131437
-7.07214e-06
0.000131922
-6.61938e-06
0.000132359
-6.18145e-06
0.000132752
-5.75686e-06
0.000133103
-5.34415e-06
0.000133414
-4.94193e-06