# vtk DataFile Version 2.0

ASCII

DATASET UNSTRUCTURED_GRID

POINTS 11 double 

1.00000000000000000e+00  0.00000000000000000e+00  0.00000000000000000e+00
1.00000000000000000e+00  1.00000000000000006e-01  0.00000000000000000e+00
1.00000000000000000e+00  2.00000000000000011e-01  0.00000000000000000e+00
1.00000000000000000e+00  2.99999999999999989e-01  0.00000000000000000e+00
1.00000000000000000e+00  4.00000000000000022e-01  0.00000000000000000e+00
1.00000000000000000e+00  5.00000000000000000e-01  0.00000000000000000e+00
1.00000000000000000e+00  5.99999999999999978e-01  0.00000000000000000e+00
1.00000000000000000e+00  6.99999999999999956e-01  0.00000000000000000e+00
1.00000000000000000e+00  8.00000000000000044e-01  0.00000000000000000e+00
1.00000000000000000e+00  9.00000000000000022e-01  0.00000000000000000e+00
1.00000000000000000e+00  1.00000000000000000e+00  0.00000000000000000e+00

CELLS 0 0


CELL_TYPES 0


POINT_DATA 11

VECTORS VertexNormals double

0.00000000000000000e+00 0.00000000000000000e+00 0
0.00000000000000000e+00 0.00000000000000000e+00 0
0.00000000000000000e+00 0.00000000000000000e+00 0
0.00000000000000000e+00 0.00000000000000000e+00 0
0.00000000000000000e+00 0.00000000000000000e+00 0
0.00000000000000000e+00 0.00000000000000000e+00 0
0.00000000000000000e+00 0.00000000000000000e+00 0
0.00000000000000000e+00 0.00000000000000000e+00 0
0.00000000000000000e+00 0.00000000000000000e+00 0
0.00000000000000000e+00 0.00000000000000000e+00 0
0.00000000000000000e+00 0.00000000000000000e+00 0

SCALARS Temperature double
LOOKUP_TABLE default
3.03999998270033078e+00
3.07000000192122302e+00
3.15999999898662232e+00
3.30999999999550987e+00
3.51999999978661648e+00
3.79000000016779337e+00
4.12000000040164860e+00
4.51000000041131877e+00
4.96000000059965629e+00
5.47000000014905119e+00
6.04000001742544601e+00

SCALARS Flux double
LOOKUP_TABLE default
1.99999932462339425e+00
2.00000006362741667e+00
2.00000000745168238e+00
1.99999998792879619e+00
2.00000000404773370e+00
1.99999999734807732e+00
2.00000000431787539e+00
1.99999999811322593e+00
2.00000001188010135e+00
1.99999992869826859e+00
2.00000045665988546e+00

