# vtk DataFile Version 2.0

ASCII

DATASET UNSTRUCTURED_GRID

POINTS 11 double 

1.00000000000000000e+00  0.00000000000000000e+00  0.00000000000000000e+00
1.00000000000000000e+00  1.00000000000000006e-01  0.00000000000000000e+00
1.00000000000000000e+00  2.00000000000000011e-01  0.00000000000000000e+00
1.00000000000000000e+00  2.99999999999999989e-01  0.00000000000000000e+00
1.00000000000000000e+00  4.00000000000000022e-01  0.00000000000000000e+00
1.00000000000000000e+00  5.00000000000000000e-01  0.00000000000000000e+00
1.00000000000000000e+00  5.99999999999999978e-01  0.00000000000000000e+00
1.00000000000000000e+00  6.99999999999999956e-01  0.00000000000000000e+00
1.00000000000000000e+00  8.00000000000000044e-01  0.00000000000000000e+00
1.00000000000000000e+00  9.00000000000000022e-01  0.00000000000000000e+00
1.00000000000000000e+00  1.00000000000000000e+00  0.00000000000000000e+00

CELLS 0 0


CELL_TYPES 0


POINT_DATA 11

VECTORS VertexNormals double

0.00000000000000000e+00 0.00000000000000000e+00 0
0.00000000000000000e+00 0.00000000000000000e+00 0
0.00000000000000000e+00 0.00000000000000000e+00 0
0.00000000000000000e+00 0.00000000000000000e+00 0
0.00000000000000000e+00 0.00000000000000000e+00 0
0.00000000000000000e+00 0.00000000000000000e+00 0
0.00000000000000000e+00 0.00000000000000000e+00 0
0.00000000000000000e+00 0.00000000000000000e+00 0
0.00000000000000000e+00 0.00000000000000000e+00 0
0.00000000000000000e+00 0.00000000000000000e+00 0
0.00000000000000000e+00 0.00000000000000000e+00 0

SCALARS Temperature double
LOOKUP_TABLE default
2.25999998263424118e+00
2.29000000626865630e+00
2.37999999466158485e+00
2.52999999502720652e+00
2.73999999967402630e+00
3.01000000441300219e+00
3.34000001003715985e+00
3.73000000926801611e+00
4.17999999961536250e+00
4.68999998879863256e+00
5.26000001730164080e+00

SCALARS Flux double
LOOKUP_TABLE default
1.99999931345170912e+00
1.99999996831806226e+00
2.00000009653393374e+00
2.00000004834165868e+00
1.99999999456844813e+00
1.99999995415339815e+00
1.99999988156902675e+00
1.99999989756043739e+00
2.00000006240836647e+00
2.00000014506452262e+00
2.00000047069991815e+00

