/*--------------------------------*- C++ -*----------------------------------*\
  =========                 |
  \\      /  F ield         | OpenFOAM: The Open Source CFD Toolbox
   \\    /   O peration     | Website:  https://openfoam.org
    \\  /    A nd           | Version:  7
     \\/     M anipulation  |
\*---------------------------------------------------------------------------*/
FoamFile
{
    version     2.0;
    format      ascii;
    class       volScalarField;
    location    "2.9";
    object      p;
}
// * * * * * * * * * * * * * * * * * * * * * * * * * * * * * * * * * * * * * //

dimensions      [0 2 -2 0 0 0 0];

internalField   nonuniform List<scalar> 
2790
(
147.475
147.382
147.649
148.22
149.001
149.958
151.091
152.397
153.874
155.515
157.314
159.265
161.359
163.584
165.925
168.36
170.864
173.403
175.935
178.409
180.767
182.945
184.875
186.496
187.755
188.629
189.066
189.121
189.172
189.384
147.272
147.29
147.582
148.15
148.926
149.881
151.009
152.309
153.779
155.411
157.202
159.142
161.225
163.439
165.769
168.194
170.69
173.223
175.753
178.231
180.599
182.794
184.749
186.397
187.682
188.556
188.953
189.007
189.14
189.425
147.073
147.161
147.472
148.03
148.793
149.735
150.848
152.13
153.578
155.186
156.949
158.858
160.906
163.081
165.37
167.752
170.204
172.695
175.186
177.634
179.983
182.176
184.148
185.838
187.189
188.164
188.757
189.113
189.428
189.727
146.848
146.967
147.291
147.84
148.589
149.514
150.607
151.865
153.285
154.859
156.583
158.448
160.447
162.568
164.796
167.114
169.498
171.921
174.348
176.739
179.045
181.217
183.199
184.938
186.393
187.545
188.413
189.084
189.636
190.155
146.587
146.72
147.052
147.594
148.326
149.23
150.298
151.525
152.907
154.438
156.113
157.922
159.858
161.908
164.06
166.296
168.594
170.929
173.27
175.583
177.828
179.963
181.945
183.736
185.306
186.649
187.779
188.741
189.552
190.299
146.287
146.425
146.759
147.291
148.003
148.882
149.918
151.107
152.444
153.924
155.539
157.282
159.143
161.111
163.172
165.31
167.505
169.734
171.971
174.186
176.349
178.426
180.388
182.208
183.871
185.373
186.719
187.925
188.945
189.863
145.944
146.083
146.415
146.933
147.623
148.471
149.47
150.615
151.901
153.322
154.869
156.534
158.309
160.182
162.139
164.165
166.241
168.347
170.46
172.556
174.61
176.601
178.509
180.319
182.025
183.625
185.119
186.498
187.663
188.709
145.559
145.696
146.021
146.523
147.187
148.001
148.958
150.054
151.282
152.635
154.105
155.685
157.363
159.13
160.97
162.869
164.81
166.774
168.742
170.693
172.611
174.478
176.285
178.027
179.705
181.324
182.879
184.351
185.601
186.751
145.133
145.266
145.58
146.063
146.698
147.474
148.385
149.426
150.589
151.868
153.255
154.739
156.312
157.96
159.671
161.429
163.219
165.022
166.821
168.6
170.344
172.041
173.689
175.289
176.851
178.385
179.893
181.364
182.635
183.873
144.666
144.794
145.095
145.556
146.158
146.893
147.754
148.735
149.829
151.028
152.323
153.704
155.161
156.682
158.251
159.855
161.477
163.099
164.705
166.279
167.807
169.281
170.699
172.066
173.399
174.717
176.037
177.374
178.575
179.879
144.161
144.283
144.568
145.004
145.572
146.262
147.07
147.986
149.006
150.119
151.316
152.587
153.921
155.304
156.721
158.157
159.595
161.016
162.403
163.737
165.005
166.195
167.302
168.329
169.293
170.221
171.151
172.149
173.111
174.429
143.619
143.733
144.002
144.41
144.941
145.585
146.335
147.184
148.124
149.147
150.241
151.396
152.599
153.836
155.092
156.348
157.587
158.788
159.93
160.992
161.954
162.796
163.504
164.069
164.495
164.804
165.046
165.353
165.734
166.907
143.042
143.149
143.398
143.778
144.27
144.864
145.554
146.333
147.191
148.119
149.105
150.139
151.206
152.29
153.376
154.442
155.469
156.433
157.309
158.068
158.681
159.115
159.337
159.312
159.008
158.409
157.533
156.539
155.589
156.093
142.432
142.531
142.761
143.111
143.562
144.105
144.733
145.438
146.211
147.041
147.916
148.825
149.75
150.677
151.586
152.455
153.261
153.975
154.567
154.999
155.229
155.206
154.868
154.135
152.912
151.081
148.517
145.212
141.259
139.219
141.793
141.883
142.093
142.411
142.82
143.31
143.874
144.504
145.189
145.92
146.682
147.462
148.244
149.009
149.738
150.405
150.983
151.439
151.736
151.827
151.654
151.144
150.199
148.684
146.405
143.072
138.227
131.206
120.733
108.493
2.19915
2.16816
2.0646
1.91937
1.7622
1.6069
1.45811
1.31715
1.18425
1.05906
0.94111
0.830069
0.725863
0.628479
0.537985
0.455205
0.382801
0.325037
0.284656
0.260475
0.247953
0.243054
0.244335
0.247947
0.246732
0.236848
0.213281
0.174714
0.120704
0.0538654
2.12091
2.08524
1.98851
1.85501
1.70955
1.56423
1.42363
1.28933
1.16171
1.04058
0.925667
0.81693
0.714528
0.618492
0.528632
0.44549
0.37208
0.313972
0.27553
0.255116
0.245741
0.242229
0.244959
0.250865
0.252791
0.242766
0.218751
0.178967
0.122487
0.0504978
2.04113
1.99898
1.9064
1.78313
1.64938
1.51456
1.38285
1.25595
1.1343
1.01781
0.906409
0.800342
0.700132
0.605942
0.517222
0.433994
0.359738
0.3021
0.265625
0.245241
0.233601
0.234861
0.242628
0.25271
0.256626
0.247998
0.225543
0.186268
0.129048
0.0507641
1.97196
1.92337
1.83315
1.71759
1.59361
1.46789
1.34414
1.22401
1.10794
0.995853
0.887782
0.784235
0.686162
0.594075
0.507121
0.423836
0.346273
0.286044
0.255493
0.245587
0.239312
0.236049
0.243705
0.255579
0.260118
0.249311
0.223432
0.183464
0.125915
0.048366
1.9361
1.88114
1.79316
1.68227
1.56431
1.44405
1.32509
1.20902
1.0963
0.986896
0.880851
0.778732
0.681655
0.590585
0.505592
0.426635
0.354476
0.296334
0.256335
0.238118
0.234813
0.236632
0.245719
0.257219
0.261072
0.250328
0.224531
0.181557
0.122138
0.0447236
1.95111
1.88762
1.80048
1.68909
1.57102
1.45047
1.33125
1.21507
1.10248
0.99348
0.888075
0.786647
0.68993
0.598633
0.513284
0.434746
0.365511
0.310264
0.271554
0.250099
0.241008
0.240462
0.246812
0.254666
0.255292
0.242123
0.213004
0.171233
0.112562
0.0388913
2.02402
1.95094
1.8559
1.73722
1.61112
1.48366
1.35865
1.2378
1.12164
1.01015
0.903311
0.801367
0.704718
0.613783
0.52897
0.45086
0.38133
0.324681
0.284784
0.260234
0.247359
0.243164
0.245082
0.247999
0.244736
0.229507
0.200075
0.156805
0.0995672
0.033097
2.15026
2.0598
1.94586
1.81041
1.66897
1.52861
1.3933
1.26474
1.14311
1.02803
0.919084
0.816161
0.71922
0.628281
0.543682
0.466211
0.397722
0.341065
0.298708
0.270135
0.252773
0.243886
0.240492
0.237943
0.230352
0.212632
0.181976
0.138687
0.084107
0.0272195
2.30002
2.18204
2.0392
1.88048
1.72119
1.56741
1.4217
1.28527
1.15836
1.0401
0.929543
0.826007
0.729328
0.639382
0.555999
0.479695
0.411977
0.354984
0.31038
0.278009
0.256093
0.242188
0.233291
0.225345
0.213558
0.193449
0.161784
0.118487
0.0675407
0.0212731
2.42681
2.27573
2.10969
1.92866
1.75094
1.58453
1.43165
1.29152
1.16273
1.04383
0.933458
0.830685
0.735163
0.646688
0.564938
0.490008
0.422888
0.365248
0.31849
0.282721
0.256606
0.237895
0.223745
0.210752
0.195114
0.172859
0.140277
0.0973035
0.0506735
0.0153533
2.51625
2.33231
2.13893
1.94065
1.75156
1.57773
1.42069
1.27933
1.15147
1.03472
0.926858
0.826648
0.733802
0.648139
0.569048
0.496039
0.429584
0.37118
0.3224
0.283705
0.253996
0.231043
0.212164
0.194622
0.17557
0.151503
0.118388
0.0759471
0.0339081
0.00953759
2.53268
2.31695
2.09776
1.88632
1.69571
1.52665
1.37641
1.24196
1.12106
1.01101
0.908868
0.813241
0.724535
0.643106
0.567938
0.497576
0.431894
0.372563
0.321824
0.280711
0.248197
0.221797
0.198842
0.177255
0.155203
0.129739
0.0965109
0.054946
0.0175156
0.00389551
2.39086
2.13613
1.92566
1.7371
1.57121
1.42603
1.29642
1.17816
1.07088
0.972876
0.880054
0.790803
0.707341
0.631579
0.561918
0.495135
0.430219
0.369506
0.316645
0.273628
0.239297
0.210435
0.184089
0.158856
0.134113
0.107705
0.0749643
0.0347297
0.00178519
-0.00149921
1.98261
1.70176
1.57666
1.47805
1.37361
1.27673
1.18474
1.09152
1.00331
0.922816
0.843018
0.760947
0.682717
0.613914
0.551943
0.490007
0.425538
0.362376
0.306795
0.262384
0.227521
0.197406
0.168302
0.139583
0.112223
0.0852481
0.0537881
0.0157588
-0.0128303
-0.00653995
1.14198
0.848494
0.987422
1.12059
1.11543
1.09117
1.05569
0.990935
0.921288
0.864123
0.802322
0.726627
0.651303
0.590332
0.539465
0.484281
0.419288
0.351511
0.291891
0.246639
0.213057
0.183248
0.151894
0.119461
0.0892199
0.061982
0.0329012
-0.00162998
-0.0256398
-0.0109897
141.114
141.195
141.383
141.668
142.033
142.468
142.966
143.518
144.114
144.741
145.386
146.034
146.668
147.268
147.811
148.271
148.615
148.807
148.801
148.542
147.956
146.948
145.384
143.071
139.71
134.803
127.431
115.674
93.4919
33.5976
140.387
140.458
140.624
140.874
141.193
141.571
142
142.472
142.974
143.494
144.019
144.531
145.014
145.444
145.797
146.045
146.151
146.076
145.766
145.157
144.165
142.676
140.531
137.5
133.224
127.12
118.153
104.591
85.0736
56.6539
139.617
139.678
139.821
140.035
140.307
140.626
140.985
141.373
141.779
142.191
142.593
142.968
143.297
143.556
143.719
143.755
143.626
143.287
142.683
141.741
140.372
138.454
135.823
132.25
127.409
120.846
111.973
100.154
85.9508
69.401
138.806
138.857
138.976
139.153
139.376
139.636
139.922
140.227
140.537
140.839
141.117
141.354
141.529
141.619
141.595
141.424
141.067
140.477
139.596
138.352
136.653
134.381
131.386
127.472
122.391
115.852
107.56
97.1869
84.6736
69.5861
137.956
137.997
138.091
138.231
138.405
138.603
138.818
139.037
139.25
139.443
139.598
139.699
139.724
139.647
139.441
139.073
138.501
137.679
136.548
135.04
133.067
130.525
127.284
123.187
118.057
111.693
103.897
94.4275
83.1191
70.1794
137.069
137.1
137.169
137.271
137.396
137.533
137.675
137.81
137.927
138.011
138.046
138.013
137.891
137.656
137.277
136.723
135.953
134.921
133.574
131.845
129.658
126.923
123.534
119.373
114.309
108.209
100.952
92.4379
82.6598
72.0306
136.148
136.168
136.213
136.277
136.352
136.429
136.499
136.551
136.573
136.551
136.469
136.308
136.046
135.659
135.12
134.394
133.446
132.232
130.701
128.797
126.452
123.594
120.14
116.003
111.096
105.342
98.6862
91.118
82.6817
73.7125
135.196
135.205
135.226
135.253
135.279
135.296
135.295
135.266
135.196
135.072
134.877
134.593
134.199
133.672
132.985
132.106
131.002
129.632
127.954
125.916
123.465
120.544
117.09
113.045
108.355
102.983
96.9127
90.1658
82.792
75.063
134.216
134.215
134.212
134.202
134.18
134.139
134.069
133.962
133.803
133.581
133.279
132.88
132.364
131.709
130.888
129.875
128.637
127.14
125.347
123.215
120.703
117.767
114.363
110.455
106.013
101.023
95.4905
89.4504
82.956
76.2344
133.212
133.202
133.175
133.129
133.061
132.964
132.828
132.645
132.402
132.088
131.686
131.18
130.552
129.781
128.843
127.714
126.365
124.768
122.891
120.7
118.164
115.251
111.933
108.189
104.004
99.3819
94.3387
88.9141
83.1611
77.2642
132.19
132.17
132.12
132.04
131.928
131.776
131.578
131.323
131.001
130.6
130.106
129.503
128.774
127.901
126.862
125.635
124.198
122.525
120.591
118.371
115.841
112.98
109.771
106.204
102.277
97.9998
93.3965
88.506
83.376
78.1546
131.154
131.124
131.053
130.94
130.785
130.582
130.325
130.003
129.608
129.127
128.549
127.858
127.04
126.078
124.953
123.648
122.141
120.415
118.448
116.222
113.722
110.933
107.847
104.462
100.784
96.8264
92.6149
88.1856
83.5803
78.918
130.109
130.071
129.979
129.835
129.64
129.389
129.076
128.692
128.229
127.676
127.022
126.254
125.358
124.321
123.126
121.758
120.201
118.44
116.46
114.248
111.794
109.091
106.136
102.932
99.4878
95.8213
91.9566
87.9258
83.7648
79.5696
129.061
129.015
128.904
128.731
128.499
128.203
127.839
127.399
126.874
126.256
125.535
124.699
123.737
122.637
121.385
119.97
118.379
116.6
114.623
112.44
110.045
107.435
104.612
101.582
98.3565
94.9531
91.3942
87.7081
83.9251
80.1227
128.017
127.962
127.834
127.634
127.367
127.031
126.62
126.128
125.549
124.873
124.093
123.2
122.182
121.031
119.736
118.287
116.675
114.892
112.931
110.788
108.459
105.946
103.253
100.388
97.364
94.1967
90.9071
87.5195
84.0592
80.5895
126.982
126.921
126.776
126.551
126.253
125.88
125.427
124.889
124.261
123.535
122.705
121.762
120.7
119.509
118.181
116.711
115.09
113.314
111.378
109.281
107.024
104.608
102.04
99.3299
96.4889
93.5327
90.4798
87.3509
84.1673
80.9808
125.964
125.896
125.736
125.489
125.163
124.756
124.266
123.688
123.017
122.248
121.376
120.393
119.294
118.073
116.723
115.241
113.62
111.859
109.956
107.911
105.726
103.406
100.957
98.3891
95.714
92.9459
90.1008
87.1964
84.2508
81.3063
124.968
124.895
124.721
124.455
124.103
123.667
123.144
122.531
121.824
121.018
120.111
119.096
117.969
116.726
115.363
113.876
112.264
110.525
108.659
106.667
104.555
102.326
99.9884
97.5512
95.0256
92.4243
89.7615
87.0522
84.3117
81.5748
124.004
123.925
123.74
123.455
123.081
122.62
122.068
121.425
120.687
119.852
118.915
117.875
116.728
115.471
114.101
112.617
111.018
109.305
107.479
105.542
103.5
101.358
99.1228
96.8044
94.4127
91.959
89.4558
86.9159
84.3524
81.7941
123.077
122.993
122.798
122.498
122.105
121.621
121.045
120.376
119.613
118.753
117.794
116.735
115.574
114.308
112.937
111.461
109.88
108.196
106.41
104.528
102.552
100.491
98.3501
96.1389
93.8665
91.543
89.1793
86.7866
84.3759
81.9712
122.195
122.108
121.903
121.59
121.18
120.677
120.081
119.391
118.607
117.727
116.752
115.679
114.508
113.239
111.872
110.408
108.847
107.193
105.448
103.617
101.705
99.7175
97.6623
95.5471
93.3803
91.1712
88.9291
86.6639
84.385
82.1123
121.367
121.276
121.064
120.739
120.315
119.796
119.183
118.476
117.675
116.78
115.792
114.71
113.534
112.266
110.906
109.455
107.916
106.293
104.587
102.805
100.951
99.0315
97.053
95.023
92.9493
90.84
88.7036
86.5485
84.3829
82.2236
120.6
120.506
120.287
119.952
119.516
118.984
118.357
117.636
116.822
115.916
114.919
113.831
112.654
111.389
110.038
108.603
107.086
105.492
103.824
102.087
100.286
98.4273
96.517
94.562
92.5696
90.5469
88.5016
86.441
84.3724
82.3098
119.902
119.806
119.581
119.237
118.791
118.248
117.61
116.878
116.054
115.14
114.137
113.047
111.871
110.611
109.27
107.851
106.356
104.79
103.156
101.46
99.7067
97.9018
96.0513
94.1616
92.2393
90.2911
88.3236
86.3436
84.3574
82.377
119.283
119.184
118.953
118.602
118.147
117.595
116.948
116.207
115.376
114.456
113.45
112.359
111.185
109.932
108.602
107.198
105.724
104.183
102.581
100.921
99.2094
97.4512
95.6522
93.8183
91.9557
90.0705
88.1687
86.2563
84.3391
82.427
118.751
118.649
118.412
118.054
117.592
117.032
116.378
115.632
114.796
113.872
112.864
111.774
110.604
109.358
108.038
106.648
105.193
103.675
102.099
100.471
98.7952
97.0767
95.3211
93.5342
91.7214
89.8885
88.0412
86.1848
84.3247
82.4693
118.316
118.21
117.967
117.601
117.131
116.566
115.906
115.155
114.315
113.389
112.38
111.291
110.126
108.886
107.576
106.199
104.759
103.261
101.708
100.106
98.4596
96.7734
95.0531
93.3038
91.531
89.74
87.9359
86.1238
84.3086
82.4972
117.99
117.878
117.626
117.253
116.779
116.209
115.545
114.79
113.947
113.02
112.011
110.925
109.763
108.529
107.227
105.861
104.434
102.951
101.417
99.8352
98.2117
96.551
94.8582
93.1384
91.3967
89.6381
87.8676
86.09
84.31
82.5338
117.787
117.653
117.382
117.004
116.528
115.955
115.289
114.532
113.688
112.761
111.753
110.668
109.51
108.281
106.985
105.626
104.209
102.737
101.215
99.6479
98.04
96.3965
94.7221
93.0218
91.3006
89.5633
87.8147
86.0593
84.3015
82.5464
117.769
117.57
117.272
116.887
116.408
115.832
115.163
114.404
113.56
112.632
111.625
110.542
109.386
108.16
106.869
105.516
104.106
102.641
101.128
99.5704
97.9729
96.3404
94.6778
92.9899
91.2816
89.5575
87.8223
86.0805
84.3364
82.5942
-50.5845
-30.4259
-10.9364
36.3961
29.17
17.5755
52.0342
40.0682
29.017
53.3827
43.014
35.034
57.679
49.4331
42.7191
62.0387
55.162
49.2996
65.2805
59.4213
54.3909
67.8466
62.8369
58.5401
70.0089
65.687
61.9863
71.8333
68.0615
64.8395
73.3665
70.0406
67.2066
74.6575
71.6976
69.1806
75.7467
73.09
70.8343
76.666
74.2629
72.2246
77.4415
75.2525
73.3969
78.0952
76.088
74.3872
78.645
76.7933
75.2242
79.1059
77.3879
75.9315
79.4909
77.888
76.5283
79.8108
78.3074
77.0307
80.0752
78.6575
77.4522
80.2925
78.9487
77.8045
80.4694
79.1889
78.097
80.6139
79.3873
78.3396
80.7285
79.5472
78.5365
80.8249
79.6809
78.7004
80.8943
79.7803
78.8244
80.9655
79.8742
78.9356
80.9985
79.9234
78.9989
81.0672
80.0063
79.0882
-1.76611
-1.59237
-0.197635
0.802108
0.87184
0.886607
0.918816
0.880527
0.822792
0.80267
0.768917
0.693808
0.612349
0.558589
0.525639
0.481093
0.413506
0.33703
0.270831
0.225405
0.195979
0.168708
0.135318
0.0982261
0.0642611
0.0369206
0.0117876
-0.0170898
-0.0359677
-0.01462
3.93131
0.756091
1.67889
1.39118
0.406445
0.370426
0.780826
0.850285
0.747199
0.751509
0.747709
0.656646
0.552152
0.510212
0.514787
0.489266
0.412846
0.318864
0.240833
0.196083
0.176103
0.155121
0.119353
0.0753967
0.0359697
0.00846632
-0.0105222
-0.0302531
-0.0428798
-0.0170307
14.8355
6.36848
3.43623
1.37245
0.801258
1.31964
1.54531
0.861164
0.349726
0.478589
0.744368
0.678915
0.514893
0.473732
0.524145
0.515963
0.414204
0.28925
0.194129
0.154659
0.155235
0.146789
0.106525
0.0511823
0.00334046
-0.0246268
-0.0346927
-0.0400045
-0.0439818
-0.017526
24.3582
14.5261
8.70698
4.99323
3.03442
2.13563
1.31749
0.711125
0.582483
1.15419
1.32309
0.710625
0.26736
0.200706
0.408387
0.568359
0.447067
0.271977
0.148682
0.112868
0.140634
0.147937
0.0966784
0.0224901
-0.0372335
-0.0652529
-0.0626772
-0.045971
-0.0354927
-0.0152334
33.4301
23.7086
16.4062
11.0917
7.3941
4.87739
3.10907
2.01054
1.44885
1.31601
0.994576
0.615855
0.326119
0.382056
0.890667
0.935927
0.459249
0.161637
-0.00241466
-0.024512
0.0763958
0.160172
0.102483
-0.00203968
-0.0791929
-0.107601
-0.0900678
-0.0445453
-0.00847922
-0.00897491
41.3335
32.4313
24.5529
18.1186
13.178
9.5004
6.79719
4.85091
3.48111
2.54467
1.81329
1.25124
0.83376
0.688924
0.795276
0.711609
0.471551
0.211939
0.0406662
0.0415939
0.246093
0.311967
0.102422
-0.0697808
-0.168549
-0.189866
-0.149389
-0.0672347
0.0267379
-0.00517338
47.777
39.9869
32.2218
25.3349
19.6974
15.2065
11.6525
8.8648
6.71601
5.09203
3.84533
2.86107
2.10585
1.61384
1.33403
1.07541
0.76533
0.435824
0.202808
0.129485
0.187667
0.180766
0.0645825
-0.0780346
-0.169851
-0.179319
-0.119332
-0.0260572
0.168436
0.0485676
53.0263
46.3042
39.0539
32.2249
26.3321
21.3666
17.2043
13.7535
10.9398
8.67704
6.85382
5.37432
4.19657
3.30586
2.64845
2.10376
1.58489
1.11033
0.752456
0.543317
0.444088
0.34569
0.194335
0.0211467
-0.100119
-0.136651
-0.0981067
-0.0134858
0.131368
-0.0486167
57.3097
51.4971
44.9158
38.441
32.6151
27.4888
22.9998
19.1117
15.7938
12.9958
10.6479
8.68477
7.06151
5.74373
4.67967
3.78704
3.00201
2.32228
1.77709
1.37679
1.08881
0.842688
0.590331
0.348802
0.167989
0.0719263
0.0503747
0.0719239
0.085117
-0.310913
60.8054
55.7385
49.8358
43.8478
38.2862
33.2283
28.6457
24.5345
20.8962
17.7141
14.953
12.5723
10.5352
8.80708
7.34543
6.09508
5.0098
4.07292
3.28774
2.65157
2.13802
1.69999
1.30225
0.948429
0.663787
0.460655
0.324884
0.214638
0.0412318
-0.535544
63.676
59.2153
53.9329
48.46
43.2556
38.4024
33.8879
29.7238
25.9313
22.5164
19.4683
16.7661
14.3865
12.3039
10.4875
8.90029
7.50808
6.29038
5.23864
4.34324
3.58245
2.92371
2.34034
1.82627
1.38927
1.03081
0.731742
0.444352
0.0790061
-0.620968
66.0534
62.0872
57.3453
52.3607
47.5376
42.9542
38.6035
34.503
30.6823
27.1603
23.9414
21.0198
18.3848
16.0215
13.9102
12.0269
10.3477
8.85423
7.53418
6.37538
5.35974
4.46349
3.66528
2.95411
2.32697
1.77697
1.28168
0.795443
0.245199
-0.554285
68.0363
64.4775
60.1976
55.6522
51.1972
46.9028
42.7628
38.7942
35.029
31.4918
28.1955
25.1444
22.3372
19.7681
17.4269
15.2994
13.3703
11.6255
10.0533
8.64191
7.37645
6.2389
5.21181
4.28241
3.44173
2.6778
1.96781
1.27283
0.539625
-0.360644
69.6992
66.4795
62.5926
58.4331
54.3165
50.3046
46.3899
42.587
38.9262
35.4341
32.1275
29.0166
26.1064
23.3977
20.8874
18.5689
16.4334
14.4715
12.6742
11.0314
9.53153
8.16056
6.90421
5.74977
4.6857
3.698
2.76557
1.85757
0.937647
-0.0789718
71.0994
68.1645
64.6122
60.7885
56.9754
53.2271
49.5344
45.9086
42.377
38.9655
35.6927
32.5713
29.6102
26.8147
24.1867
21.7248
19.4254
17.2832
15.2921
13.4448
11.7322
10.1437
8.66775
7.29255
6.00621
4.79477
3.63983
2.5178
1.40451
0.248852
72.2818
69.5876
66.321
62.7887
59.2443
55.7361
52.253
48.8027
45.4095
42.0974
38.8847
35.7854
32.8103
29.9675
27.2621
24.6964
22.2703
19.9821
17.8284
15.8043
13.9034
12.1176
10.4377
8.85335
7.35345
5.92511
4.55271
3.21813
1.90478
0.586103
73.2817
70.7918
67.7702
64.4903
61.1827
57.89
54.5999
51.317
48.0622
44.8571
41.7191
38.6622
35.6981
32.8361
30.0836
27.4451
24.9232
22.5187
20.2305
18.056
15.9909
14.0293
12.1639
10.386
8.68563
7.05135
5.46983
3.92652
2.40862
0.90624
74.1275
71.8117
69.0004
65.9395
62.8395
59.7388
56.6238
53.4968
50.375
47.2779
44.2213
41.2187
38.2817
35.4203
32.6427
29.9552
27.3622
24.8662
22.4679
20.1665
17.9596
15.8431
13.8112
11.8568
9.97117
8.14409
6.36388
4.61796
2.89467
1.1942
74.8425
72.6752
70.0448
67.1738
64.2554
61.3245
58.367
55.3826
52.3858
49.3934
46.42
43.4777
40.5777
37.7302
34.9437
32.2253
29.5805
27.0131
24.5253
22.1177
19.7892
17.5372
15.3572
13.2435
11.1883
9.1825
7.21544
5.27529
3.34993
1.44465
75.4458
73.4053
70.9305
68.224
65.464
62.6828
59.8656
57.0101
54.1285
51.2352
48.3431
45.4633
42.606
39.781
36.997
34.2613
31.58
28.9578
26.3977
23.9016
21.4693
19.0994
16.7887
14.5321
12.3231
10.1531
8.01206
5.88815
3.7681
1.65889
75.9534
74.0211
71.6801
69.1156
66.4935
63.8433
61.1501
58.4101
55.6332
52.8318
50.0171
47.1989
44.3868
41.5897
38.8159
36.0729
33.367
30.7032
28.0854
25.5159
22.9957
20.5239
18.0984
15.7148
13.3672
11.0477
8.74628
6.45091
4.147
1.84124
76.3791
74.5388
72.3124
69.8704
67.3674
64.8313
62.247
59.6093
56.9262
54.2085
51.4658
48.7068
45.9398
43.1732
40.4147
37.6716
34.95
32.2554
29.5918
26.9621
24.3678
21.8087
19.2831
16.7874
14.3162
11.8618
9.41435
6.96133
4.48706
1.99686
76.7339
74.9715
72.8428
70.5057
68.1053
65.6677
63.1779
60.6299
58.0299
55.3872
52.7101
50.006
47.2825
44.547
41.8066
39.0683
36.3379
33.6209
30.9214
28.2427
25.5864
22.953
20.341
17.7474
15.1671
12.5924
10.0136
7.41789
4.78866
2.12941
77.0287
75.3318
73.2858
71.0377
68.7246
66.3712
63.9627
61.4922
58.9647
56.388
53.7694
51.1153
48.4322
45.7268
43.0057
40.2751
37.5408
34.8079
32.0807
29.3624
26.6549
23.9589
21.2733
18.5952
15.9197
13.2395
10.5445
7.82172
5.05413
2.24282
77.2695
75.627
73.6501
71.4767
69.2368
66.9543
64.6145
62.21
59.7445
57.2248
54.6572
52.0472
49.4005
46.723
44.0207
41.2993
38.5644
35.8206
33.0722
30.3224
27.5731
24.8251
22.0776
19.3277
16.5707
13.7993
11.0035
8.16996
5.28149
2.3368
77.4682
75.8699
73.9498
71.8377
69.6581
67.4341
65.1512
62.8015
60.3878
57.916
55.3916
52.8194
50.2043
47.5515
44.8666
42.1548
39.4212
36.6702
33.9059
31.1314
28.3486
25.5583
22.7598
19.9503
17.1251
14.277
11.3958
8.46808
5.47649
2.41658
77.6214
76.0581
74.1828
72.1194
69.9877
67.8103
65.5728
63.267
60.8949
58.4618
55.9725
53.4311
50.8421
48.2102
45.5402
42.8372
40.1057
37.35
34.574
31.7805
28.9716
26.148
23.3089
20.4516
17.5713
14.6608
11.71
8.7052
5.62918
2.47513
77.7516
76.2139
74.3728
72.3464
70.2509
68.1086
65.9056
63.6331
61.2928
58.8893
56.4268
53.9093
51.3405
48.7248
46.0667
43.3709
40.6415
37.8829
35.0984
32.291
29.4625
26.6137
23.7436
20.8497
17.9272
14.9686
11.9636
8.89866
5.75609
2.52522
77.8316
76.3101
74.4913
72.49
70.419
68.3002
66.1202
63.87
61.551
59.1673
56.723
54.2215
51.6664
49.0618
46.412
43.7211
40.9935
38.233
35.4431
32.6265
29.785
26.9194
24.0286
21.11
18.1587
15.1673
12.1252
9.01834
5.8292
2.54532
77.9202
76.3999
74.5934
72.6071
70.5498
68.4437
66.2758
64.0375
61.7295
59.356
56.9208
54.4272
51.8787
49.2791
46.6327
43.9435
41.2157
38.4532
35.6592
32.8366
29.9872
27.1114
24.2086
21.2758
18.3083
15.2985
12.2353
9.10408
5.88446
2.55229
)
;

boundaryField
{
    inlet
    {
        type            zeroGradient;
    }
    outlet
    {
        type            fixedValue;
        value           uniform 0;
    }
    flap
    {
        type            zeroGradient;
    }
    upperWall
    {
        type            zeroGradient;
    }
    lowerWall
    {
        type            zeroGradient;
    }
    frontAndBack
    {
        type            empty;
    }
}


// ************************************************************************* //
