/*--------------------------------*- C++ -*----------------------------------*\
  =========                 |
  \\      /  F ield         | OpenFOAM: The Open Source CFD Toolbox
   \\    /   O peration     | Website:  https://openfoam.org
    \\  /    A nd           | Version:  7
     \\/     M anipulation  |
\*---------------------------------------------------------------------------*/
FoamFile
{
    version     2.0;
    format      ascii;
    class       surfaceScalarField;
    location    "2.9";
    object      phi;
}
// * * * * * * * * * * * * * * * * * * * * * * * * * * * * * * * * * * * * * //

dimensions      [0 3 -1 0 0 0 0];

internalField   nonuniform List<scalar> 
5457
(
0.198418
0.00158242
0.19648
0.00193744
0.194192
0.00228818
0.191508
0.00268369
0.188427
0.00308132
0.18495
0.00347689
0.181071
0.0038787
0.176777
0.00429412
0.172049
0.00472831
0.166864
0.00518529
0.161195
0.00566854
0.155014
0.00618102
0.148289
0.00672491
0.140988
0.00730123
0.133079
0.00790934
0.124532
0.00854623
0.115327
0.00920563
0.10545
0.00987687
0.0949061
0.0105437
0.0837229
0.0111832
0.0719587
0.0117643
0.0597106
0.012248
0.0471222
0.0125885
0.0343822
0.01274
0.0216872
0.0126949
0.00903715
0.0126501
-0.00291611
0.0119533
-0.00847176
0.00555565
-0.00804266
-0.000429097
-0.00804266
0.199928
0.0016543
0.199176
0.00268995
0.197965
0.00349921
0.196331
0.00431699
0.194271
0.0051415
0.191781
0.0059671
0.188854
0.00680581
0.185477
0.00767111
0.181632
0.00857333
0.177296
0.00952078
0.172444
0.0105207
0.167046
0.0115794
0.161069
0.0127016
0.15448
0.0138901
0.147245
0.0151443
0.139332
0.0164591
0.130715
0.0178233
0.121375
0.0192167
0.11131
0.0206082
0.100541
0.0219527
0.0891167
0.0231884
0.0771293
0.0242353
0.0647236
0.0249942
0.0521163
0.0253473
0.039656
0.0251552
0.0281059
0.0242002
0.0185952
0.021464
0.0087971
0.0153537
0.00118342
0.00718458
-0.00685924
0.199781
0.00187378
0.199087
0.00338387
0.197946
0.00464024
0.196409
0.00585373
0.194483
0.00706777
0.192163
0.00828629
0.189446
0.00952338
0.18632
0.0107967
0.182772
0.0121213
0.178783
0.0135097
0.174331
0.0149729
0.16939
0.0165204
0.163931
0.0181602
0.157924
0.0198972
0.151336
0.0217324
0.144135
0.0236607
0.136289
0.0256685
0.127776
0.0277303
0.118579
0.0298048
0.108702
0.0318303
0.0981701
0.03372
0.0870481
0.0353573
0.0754517
0.0365907
0.0635747
0.0372243
0.0517329
0.036997
0.0403976
0.0355355
0.0297392
0.0321224
0.0191662
0.0259267
0.00959761
0.0167532
0.00273836
0.199703
0.00217075
0.199008
0.00407925
0.197887
0.00576087
0.196376
0.00736476
0.194488
0.00895602
0.192222
0.0105524
0.189574
0.0121712
0.186538
0.0138328
0.183103
0.0155559
0.179256
0.0173563
0.174981
0.019248
0.170259
0.0212431
0.165067
0.0233519
0.159383
0.0255813
0.153181
0.027934
0.146436
0.0304057
0.139122
0.0329827
0.131215
0.0356374
0.122696
0.0383237
0.113556
0.0409708
0.103799
0.0434765
0.0934569
0.0456996
0.082596
0.0474516
0.0713334
0.0484869
0.0598415
0.0484888
0.0483175
0.0470595
0.0368115
0.0436285
0.0251882
0.03755
0.0133358
0.0286057
0.0160741
0.199667
0.00250338
0.198964
0.00478259
0.197863
0.0068623
0.196381
0.00884658
0.194532
0.010805
0.192317
0.0127672
0.189733
0.0147552
0.186774
0.0167916
0.183433
0.0188978
0.179697
0.0210922
0.175554
0.023391
0.170989
0.0258082
0.165985
0.0283556
0.160525
0.0310415
0.154589
0.0338694
0.148159
0.0368361
0.141213
0.0399282
0.133732
0.0431186
0.125695
0.0463602
0.117086
0.0495798
0.107893
0.0526696
0.0981147
0.0554782
0.0877651
0.0578012
0.0768793
0.0593727
0.0655095
0.0598586
0.0537088
0.0588602
0.0414547
0.0558826
0.0285882
0.0504164
0.0148526
0.0423413
0.0309267
0.199653
0.00285063
0.198949
0.00548674
0.197871
0.00794036
0.196426
0.0102909
0.194626
0.0126051
0.192472
0.0149209
0.189963
0.017265
0.187092
0.0196626
0.183852
0.0221372
0.180235
0.0247096
0.176228
0.0273976
0.171819
0.030217
0.166995
0.0331805
0.161739
0.0362974
0.156036
0.0395722
0.149869
0.0430025
0.143221
0.0465762
0.136072
0.0502677
0.1284
0.0540321
0.120181
0.057799
0.111387
0.0614635
0.101989
0.0648766
0.0919551
0.067835
0.0812546
0.0700731
0.069855
0.0712582
0.0577178
0.0709974
0.0447615
0.0688388
0.0308498
0.0643281
0.0158735
0.0573176
0.0468003
0.19965
0.00320062
0.198954
0.00618281
0.197904
0.00899012
0.196504
0.0116908
0.194762
0.0143475
0.19268
0.0170031
0.190256
0.0196888
0.187486
0.0224324
0.184364
0.0252595
0.180881
0.0281926
0.177027
0.0312517
0.17279
0.0344537
0.168158
0.0378126
0.163116
0.041339
0.15765
0.0450384
0.151743
0.0489099
0.145375
0.0529436
0.138526
0.0571169
0.131168
0.06139
0.123268
0.0656994
0.114782
0.0699498
0.105654
0.0740039
0.095817
0.0776724
0.0851869
0.0807032
0.0736693
0.0827758
0.0611627
0.083504
0.0475564
0.0824451
0.0327596
0.0791249
0.0167834
0.0732938
0.0635837
0.199655
0.00354602
0.198974
0.00686302
0.197958
0.010006
0.19661
0.0130397
0.194933
0.0160237
0.192933
0.0190039
0.190606
0.0220151
0.187951
0.0250879
0.184961
0.0282496
0.181628
0.031525
0.177945
0.0349353
0.173899
0.0384992
0.16948
0.0422322
0.164672
0.0461464
0.159461
0.0502492
0.153829
0.0545421
0.147754
0.0590186
0.14121
0.0636613
0.134162
0.0684379
0.126566
0.0732957
0.118361
0.0781543
0.109469
0.0828961
0.0997867
0.0873544
0.0891881
0.0913018
0.0775265
0.0944375
0.064649
0.0963814
0.0504192
0.096675
0.0347696
0.0947745
0.0177906
0.0902727
0.0813743
0.199664
0.0038819
0.199006
0.00752093
0.19803
0.0109824
0.196738
0.0143313
0.195136
0.017626
0.193226
0.0209139
0.191008
0.0242332
0.188479
0.0276167
0.185635
0.0310939
0.182469
0.0346909
0.178973
0.0384309
0.175138
0.0423343
0.170952
0.0464183
0.166402
0.0506969
0.161471
0.0551803
0.156139
0.0598734
0.150383
0.0647747
0.144171
0.0698739
0.137459
0.075149
0.130193
0.0805617
0.122296
0.0860514
0.113666
0.0915264
0.104168
0.0968521
0.0936349
0.101835
0.0818665
0.106206
0.0686517
0.109596
0.0538045
0.111522
0.0372387
0.11134
0.0190847
0.108427
0.100459
0.199677
0.00420474
0.199047
0.00815128
0.198115
0.0119139
0.196887
0.0155597
0.195366
0.0191471
0.193555
0.0227248
0.191455
0.0263333
0.189064
0.0300078
0.186378
0.0337794
0.183393
0.037676
0.180102
0.0417224
0.176495
0.0459407
0.172563
0.0503501
0.168293
0.0549672
0.163668
0.0598052
0.158668
0.0648736
0.153266
0.0701772
0.147425
0.0757145
0.141098
0.0814762
0.134218
0.0874417
0.126694
0.0935749
0.118404
0.0998164
0.109184
0.106073
0.0988207
0.112198
0.0870549
0.117972
0.0735932
0.123058
0.0581522
0.126963
0.0405553
0.128937
0.0209034
0.128079
0.121362
0.199693
0.00451187
0.199094
0.00874978
0.198213
0.0127956
0.197053
0.0167196
0.195619
0.0205807
0.193915
0.0244289
0.191942
0.0283066
0.189699
0.032251
0.187183
0.0362947
0.184392
0.0404672
0.181319
0.0447949
0.177959
0.0493015
0.1743
0.0540083
0.170333
0.0589347
0.166041
0.0640974
0.161403
0.069511
0.156393
0.0751874
0.150972
0.0811353
0.145089
0.0873597
0.13867
0.0938603
0.131616
0.100629
0.123788
0.107645
0.114996
0.114865
0.104984
0.12221
0.0934221
0.129534
0.0799027
0.136577
0.0639735
0.142892
0.0452402
0.147671
0.0236151
0.149704
0.144978
0.199711
0.00480125
0.199147
0.00931291
0.19832
0.0136234
0.197233
0.0178061
0.195893
0.0219211
0.194302
0.0260195
0.192463
0.0301455
0.190377
0.0343375
0.188042
0.0386298
0.185456
0.0430532
0.182615
0.0476353
0.179515
0.0524015
0.176148
0.0573753
0.172505
0.0625785
0.16857
0.0680316
0.164327
0.0737543
0.159748
0.0797659
0.154798
0.0860856
0.149425
0.0927332
0.143556
0.0997295
0.137088
0.107097
0.129876
0.114856
0.121715
0.123026
0.112316
0.131609
0.101277
0.140573
0.0880518
0.149803
0.0719315
0.159013
0.0520951
0.167507
0.0278918
0.173907
0.172869
0.19973
0.00507125
0.199205
0.00983782
0.198435
0.0143936
0.197426
0.018815
0.196184
0.0231635
0.194712
0.0274911
0.193014
0.0318432
0.191092
0.0362598
0.188946
0.0407761
0.186575
0.045424
0.183978
0.0502323
0.181152
0.0552278
0.178091
0.0604357
0.17479
0.0658801
0.171236
0.0715849
0.167416
0.0775747
0.163307
0.0838753
0.158877
0.0905157
0.15408
0.0975296
0.148852
0.104958
0.143096
0.112852
0.136676
0.121276
0.129391
0.130311
0.120943
0.140057
0.110888
0.150628
0.0985521
0.162139
0.0829139
0.174651
0.0624503
0.187971
0.0351363
0.201221
0.208006
0.199751
0.00532061
0.199266
0.0103222
0.198557
0.0151032
0.197629
0.0197428
0.196489
0.0243036
0.195141
0.0288387
0.19359
0.0333944
0.191838
0.0380117
0.189887
0.0427266
0.18774
0.0475717
0.185395
0.0525768
0.182853
0.0577697
0.180112
0.0631767
0.177168
0.068824
0.174015
0.0747381
0.170643
0.0809472
0.167035
0.0874827
0.16317
0.0943813
0.159011
0.101688
0.154509
0.10946
0.149588
0.117773
0.144137
0.126726
0.13799
0.136459
0.130886
0.14716
0.122412
0.159103
0.111872
0.172678
0.098036
0.188487
0.0785618
0.207445
0.0486876
0.231095
0.256693
0.199772
0.00554838
0.19933
0.0107642
0.198684
0.0157499
0.19784
0.0205866
0.196805
0.0253383
0.195585
0.0300587
0.194184
0.0347949
0.192608
0.0395884
0.190858
0.0444758
0.18894
0.0494903
0.186855
0.0546619
0.184605
0.0600191
0.182193
0.0655889
0.179619
0.0713987
0.17688
0.0774764
0.173975
0.0838528
0.170895
0.0905627
0.167628
0.0976477
0.164156
0.10516
0.16045
0.113166
0.156466
0.121757
0.152138
0.131054
0.147367
0.14123
0.141993
0.152534
0.135756
0.16534
0.128184
0.180251
0.118337
0.198333
0.103965
0.221817
0.0777451
0.257315
0.334438
0.00489505
-0.00489505
0.00946042
-0.00456537
0.0133372
-0.0038768
0.0165788
-0.00324158
0.0192991
-0.0027203
0.0216007
-0.00230158
0.0235693
-0.00196859
0.0252752
-0.00170593
0.0267726
-0.00149742
0.0280998
-0.00132723
0.0292823
-0.00118241
0.0303372
-0.00105499
0.0312783
-0.000941017
0.0321119
-0.000833652
0.0328254
-0.00071353
0.0333771
-0.000551659
0.0337155
-0.000338408
0.0338304
-0.000114872
0.0337618
6.85865e-05
0.0335724
0.000189349
0.0332953
0.000277141
0.0329533
0.000342042
0.032626
0.000327225
0.0324246
0.000201444
0.0324329
-8.33408e-06
0.0327112
-0.000278234
0.0332444
-0.000533209
0.0339978
-0.000753417
0.0348911
-0.0008933
-0.0008548
0.00422121
-0.00911626
0.00830608
-0.00865024
0.011846
-0.00741674
0.0148624
-0.00625795
0.0174532
-0.00531111
0.0197061
-0.00455447
0.0216922
-0.00395472
0.0234684
-0.0034821
0.0250778
-0.00310682
0.0265506
-0.00279999
0.0279058
-0.00253763
0.0291562
-0.00230539
0.0303151
-0.00209988
0.0313981
-0.00191671
0.032412
-0.00172746
0.0333344
-0.001474
0.0341159
-0.00111994
0.0347206
-0.00071955
0.0351816
-0.00039239
0.0355569
-0.000185992
0.0358592
-2.51382e-05
0.0360575
0.000143683
0.0362247
0.000160061
0.0364126
1.35946e-05
0.036641
-0.000236727
0.0369041
-0.000541407
0.037219
-0.000848104
0.0375941
-0.0011285
0.0380553
-0.00135447
-0.00133948
0.00334365
-0.0124599
0.0065082
-0.0118148
0.00921486
-0.0101234
0.0115139
-0.00855696
0.0134853
-0.00728258
0.0151948
-0.00626394
0.0166966
-0.00545654
0.0180336
-0.00481908
0.0192379
-0.00431113
0.0203314
-0.0038935
0.0213258
-0.00353195
0.0222255
-0.00320518
0.0230384
-0.00291275
0.0237848
-0.0026631
0.0244884
-0.0024311
0.0251403
-0.00212585
0.0256852
-0.00166488
0.0260719
-0.00110623
0.0263551
-0.000675577
0.0265775
-0.000408384
0.0265928
-4.04505e-05
0.0263888
0.000347646
0.0259046
0.000644305
0.0252667
0.000651519
0.0245866
0.000443379
0.0238901
0.000155101
0.0232031
-0.000161146
0.0225641
-0.000489532
0.0221162
-0.000906508
-0.0014142
0.0024116
-0.0148715
0.00450348
-0.0139067
0.00620105
-0.011821
0.00761398
-0.00996988
0.00879727
-0.00846587
0.00979123
-0.0072579
0.0106316
-0.00629689
0.0113464
-0.00553391
0.0119578
-0.00492249
0.0124814
-0.00441711
0.012924
-0.00397461
0.0132816
-0.00356275
0.0135441
-0.00317528
0.0137215
-0.00284051
0.0138618
-0.00257132
0.0139982
-0.00226224
0.014092
-0.00175872
0.01391
-0.000924258
0.0131588
7.56648e-05
0.0119458
0.000804637
0.0107272
0.00117806
0.00965454
0.00142035
0.0086563
0.00164254
0.00769384
0.00161398
0.00686778
0.00126944
0.0063419
0.000680978
0.0060985
8.22614e-05
0.00619609
-0.000587124
0.00658919
-0.00129961
-0.00195656
0.00135715
-0.0162287
0.00225701
-0.0148065
0.00284588
-0.0124098
0.00325803
-0.010382
0.00351978
-0.00872763
0.00365265
-0.00739077
0.00367537
-0.00631961
0.00360388
-0.00546242
0.00345243
-0.00477104
0.00323409
-0.00419877
0.002959
-0.00369952
0.00262729
-0.00323104
0.00221322
-0.00276121
0.0016534
-0.00228069
0.000867817
-0.00178574
-0.000130454
-0.00126397
-0.00122915
-0.000660017
-0.00221375
6.03452e-05
-0.00286984
0.000731754
-0.00332516
0.00125995
-0.00379218
0.00164508
-0.00425671
0.00188489
-0.00461592
0.00200175
-0.00487234
0.0018704
-0.0050387
0.00143579
-0.00512879
0.000771075
-0.00504012
-6.41599e-06
-0.00490813
-0.000719106
-0.00472731
-0.00148044
-0.00212321
0.000112024
-0.0163407
-0.000218187
-0.0144763
-0.000795625
-0.0118324
-0.00146294
-0.00971472
-0.00222774
-0.00796282
-0.003066
-0.00655251
-0.00396569
-0.00541991
-0.00491734
-0.00451077
-0.00591379
-0.00377459
-0.00694504
-0.00316752
-0.0079938
-0.00265076
-0.0090353
-0.00218955
-0.0100396
-0.00175695
-0.0109834
-0.00133684
-0.0118533
-0.000915862
-0.0126443
-0.000472962
-0.0133144
1.00437e-05
-0.0137791
0.000525088
-0.0140873
0.00103993
-0.0143176
0.00149031
-0.0144867
0.00181416
-0.0145996
0.00199778
-0.0146253
0.00202747
-0.0145887
0.00183382
-0.0145395
0.00138651
-0.0145081
0.000739741
-0.0145036
-1.09409e-05
-0.0144708
-0.000751902
-0.0144424
-0.0015088
-0.00216443
-0.00115494
-0.0151857
-0.00282146
-0.0128098
-0.00458332
-0.0100705
-0.00638997
-0.00790806
-0.00817606
-0.00617673
-0.00991649
-0.00481209
-0.0115876
-0.00374882
-0.0131687
-0.00292962
-0.0146441
-0.00229925
-0.0160032
-0.0018084
-0.0172395
-0.00141447
-0.0183487
-0.00108039
-0.01933
-0.00077565
-0.0201885
-0.000478269
-0.020933
-0.000171401
-0.0215508
0.0001449
-0.0220224
0.000481596
-0.0223555
0.000858209
-0.0225703
0.00125468
-0.0226826
0.00160266
-0.0227178
0.00184933
-0.0226902
0.00197019
-0.0226034
0.00194069
-0.0224872
0.00171756
-0.0223856
0.00128496
-0.0223299
0.000684053
-0.0223266
-1.42299e-05
-0.0223543
-0.000724239
-0.0224032
-0.00145985
-0.00208645
-0.0025304
-0.0126553
-0.00545392
-0.00988629
-0.00838539
-0.00713907
-0.0111831
-0.00511037
-0.0137657
-0.00359409
-0.0161067
-0.0024711
-0.0181998
-0.00165569
-0.0200518
-0.00107764
-0.0216784
-0.000672643
-0.0231001
-0.000386694
-0.024338
-0.000176631
-0.0254077
-1.06598e-05
-0.0263177
0.000134365
-0.0270762
0.000280238
-0.0276934
0.000445835
-0.0281927
0.000644112
-0.028595
0.000883915
-0.0288946
0.00115783
-0.0290789
0.00143896
-0.0291579
0.00168168
-0.0291543
0.00184572
-0.0290882
0.00190405
-0.0289772
0.00182978
-0.028852
0.0015923
-0.0287504
0.00118336
-0.0287019
0.00063559
-0.0287194
3.24236e-06
-0.0287868
-0.000656856
-0.0289019
-0.00134467
-0.00190073
-0.0039864
-0.00866894
-0.00813656
-0.00573613
-0.0121219
-0.00315369
-0.0157272
-0.00150514
-0.0188899
-0.000431364
-0.0215896
0.000228601
-0.0238467
0.000601374
-0.0257213
0.000796959
-0.0272853
0.000891393
-0.0286001
0.000928156
-0.0297131
0.000936352
-0.0306594
0.00093563
-0.0314667
0.000941672
-0.0321549
0.000968433
-0.0327371
0.00102803
-0.0332228
0.00112983
-0.0336131
0.0012742
-0.0339027
0.00144738
-0.0340863
0.00162261
-0.0341711
0.00176647
-0.034175
0.00184966
-0.0341196
0.0018486
-0.0340283
0.00173847
-0.033931
0.00149508
-0.0338609
0.00111319
-0.0338447
0.000619389
-0.0338963
5.49139e-05
-0.0340099
-0.000543348
-0.0341856
-0.00116888
-0.00165812
-0.00567922
-0.00298972
-0.0113447
-7.06316e-05
-0.01604
0.00154164
-0.019913
0.00236782
-0.0230605
0.00271615
-0.0256281
0.00279622
-0.0277622
0.00273546
-0.0295617
0.00259646
-0.0310855
0.00241515
-0.0323812
0.00222384
-0.0334886
0.00204383
-0.0344376
0.00188457
-0.0352474
0.00175153
-0.0359332
0.00165419
-0.0365101
0.00160495
-0.036991
0.00161071
-0.0373813
0.0016645
-0.0376791
0.00174522
-0.0378815
0.00182495
-0.0379929
0.00187791
-0.0380283
0.00188508
-0.0380095
0.00182975
-0.037962
0.00169098
-0.0379144
0.00144748
-0.0378949
0.00109369
-0.0379267
0.000651222
-0.0380238
0.000151982
-0.0381869
-0.00038029
-0.0384176
-0.00093812
-0.00137039
-0.00723516
0.00424544
-0.0134478
0.00614203
-0.0183783
0.00647211
-0.0223886
0.00637809
-0.0256668
0.00599435
-0.0283514
0.00548086
-0.030558
0.00494209
-0.0323838
0.00442218
-0.033906
0.00393735
-0.035186
0.00350392
-0.0362742
0.00313199
-0.0372056
0.00281598
-0.0380002
0.00254613
-0.038672
0.002326
-0.0392378
0.00217076
-0.0397149
0.00208784
-0.0401133
0.00206285
-0.0404323
0.00206424
-0.040667
0.00205967
-0.0408183
0.0020292
-0.0408987
0.00196544
-0.0409305
0.00186157
-0.0409405
0.00170102
-0.0409553
0.00146221
-0.0409978
0.00113619
-0.0410859
0.000739302
-0.0412337
0.000299831
-0.0414472
-0.000166845
-0.0417304
-0.000654897
-0.0010361
-0.00802742
0.0122729
-0.0148811
0.0129957
-0.0203711
0.0119621
-0.024645
0.010652
-0.027996
0.00934531
-0.030653
0.00813784
-0.0327921
0.00708122
-0.034543
0.00617312
-0.0359905
0.00538475
-0.0371995
0.00471295
-0.0382291
0.00416162
-0.0391193
0.00370615
-0.0398851
0.00331196
-0.0405338
0.00297468
-0.0410826
0.00271954
-0.0415558
0.00256106
-0.0419687
0.00247578
-0.0423197
0.00241521
-0.0425976
0.00233758
-0.042797
0.00222862
-0.0429285
0.0020969
-0.0430167
0.00194978
-0.0430907
0.00177499
-0.043175
0.00154653
-0.0432868
0.00124801
-0.0434375
0.000890023
-0.0436394
0.000501674
-0.0439052
9.89969e-05
-0.0442417
-0.000318455
-0.000650175
-0.00936395
0.0216368
-0.0171898
0.0208216
-0.0229189
0.0176912
-0.0270901
0.0148233
-0.0302412
0.0124964
-0.0326642
0.0105608
-0.0345786
0.00899561
-0.036148
0.00774256
-0.0374481
0.00668486
-0.0385304
0.00579527
-0.0394632
0.00509444
-0.0402941
0.00453702
-0.041025
0.00404284
-0.041645
0.00359468
-0.0421701
0.00324464
-0.0426377
0.00302865
-0.0430719
0.00291004
-0.0434669
0.00281021
-0.0437994
0.00267008
-0.0440536
0.00248284
-0.0442385
0.00228174
-0.0443844
0.00209568
-0.0445253
0.00191586
-0.0446841
0.00170535
-0.044871
0.00143488
-0.0450899
0.00110893
-0.0453492
0.00076105
-0.0456665
0.000416228
-0.0460555
7.06074e-05
-0.000205191
-0.0118208
0.0334576
-0.0209292
0.02993
-0.0264306
0.0231927
-0.0298998
0.0182925
-0.0325014
0.015098
-0.0344544
0.0125138
-0.0359623
0.0105035
-0.037248
0.00902822
-0.0383468
0.00778363
-0.0392518
0.00670035
-0.0400496
0.00589219
-0.0408121
0.0052995
-0.0415146
0.0047454
-0.0421059
0.0041859
-0.0425973
0.00373613
-0.0430542
0.00348553
-0.0435182
0.00337396
-0.0439738
0.00326581
-0.0443757
0.00307201
-0.044691
0.0027982
-0.0449278
0.00251853
-0.0451285
0.00229636
-0.0453369
0.00212425
-0.0455745
0.00194295
-0.0458418
0.00170217
-0.0461321
0.00139928
-0.0464487
0.00107759
-0.0468155
0.000783018
-0.0472623
0.000517473
0.000307964
-0.0162641
0.0497217
-0.0270224
0.0406883
-0.0315079
0.0276781
-0.0330823
0.0198669
-0.0347539
0.0167696
-0.0360149
0.0137747
-0.0368977
0.0113864
-0.0378231
0.00995366
-0.0387293
0.00868979
-0.0394146
0.00738568
-0.0400253
0.00650285
-0.0407208
0.005995
-0.0414249
0.00544956
-0.0419974
0.00475842
-0.0424366
0.00417531
-0.0428699
0.00391886
-0.0433757
0.00387972
-0.0439172
0.00380734
-0.0444098
0.00356455
-0.0447925
0.00318097
-0.045074
0.0028
-0.0453203
0.00254267
-0.045594
0.00239789
-0.045914
0.00226304
-0.0462664
0.00205453
-0.0466295
0.00176235
-0.0469985
0.0014466
-0.0474049
0.00118946
-0.0478994
0.00101195
0.000890972
0.207447
0.00576123
0.207034
0.011177
0.206431
0.0163526
0.205647
0.0213714
0.204687
0.0262979
0.203559
0.0311866
0.202269
0.0360849
0.200823
0.0410347
0.199226
0.0460727
0.197484
0.0512323
0.195602
0.0565435
0.193587
0.0620347
0.191443
0.0677332
0.189175
0.0736664
0.186788
0.0798628
0.184287
0.0863537
0.181675
0.093175
0.178953
0.10037
0.176122
0.107991
0.17318
0.116109
0.170123
0.124814
0.166946
0.134231
0.163646
0.14453
0.160224
0.155956
0.156704
0.16886
0.153182
0.183773
0.150027
0.201488
0.148926
0.222918
0.160708
0.245534
0.258597
0.236549
0.21249
0.00595373
0.212117
0.01155
0.211574
0.0168965
0.210867
0.0220776
0.210006
0.0271588
0.208999
0.0321946
0.207851
0.0372325
0.206571
0.0423144
0.205167
0.047477
0.203646
0.0527531
0.202017
0.0581723
0.200289
0.0637625
0.198472
0.0695502
0.196577
0.0755621
0.194614
0.0818256
0.192597
0.0883707
0.190541
0.0952314
0.188462
0.102448
0.186383
0.11007
0.184331
0.11816
0.182348
0.126797
0.180495
0.136084
0.17887
0.146155
0.177647
0.157179
0.177147
0.16936
0.178027
0.182892
0.181708
0.197807
0.190799
0.213827
0.206312
0.23002
0.245452
0.219458
0.217658
0.00612376
0.217328
0.0118792
0.216849
0.0173754
0.216229
0.0226976
0.215477
0.0279116
0.214599
0.0330717
0.213607
0.0382253
0.212507
0.0434138
0.211311
0.0486732
0.210029
0.0540355
0.208672
0.0595294
0.207253
0.0651816
0.205786
0.071017
0.204288
0.0770603
0.202776
0.0833367
0.201274
0.0898729
0.199807
0.0966984
0.198408
0.103847
0.197119
0.11136
0.195995
0.119284
0.195115
0.127677
0.194593
0.136606
0.194598
0.14615
0.195395
0.156383
0.197394
0.167361
0.201206
0.17908
0.2076
0.191413
0.217234
0.204193
0.229817
0.217438
0.228568
0.2467
0.222951
0.00626931
0.22267
0.0121607
0.222261
0.0177838
0.221735
0.0232243
0.221099
0.0285476
0.220362
0.0338078
0.219536
0.0390516
0.218631
0.0443195
0.217657
0.0496466
0.216629
0.0550637
0.21556
0.0605979
0.214468
0.0662739
0.213371
0.0721144
0.21229
0.0781412
0.211251
0.0843757
0.210284
0.0908397
0.209426
0.0975565
0.208722
0.104551
0.208232
0.11185
0.208031
0.119485
0.208222
0.127485
0.208946
0.135883
0.210395
0.1447
0.212833
0.153945
0.216606
0.163588
0.222132
0.173554
0.229859
0.183686
0.240353
0.193699
0.254529
0.203262
0.210122
0.272975
0.228374
0.00638853
0.228144
0.0123909
0.227811
0.0181167
0.227384
0.0236509
0.226873
0.0290588
0.226287
0.0343935
0.225638
0.0397008
0.224938
0.04502
0.2242
0.0503848
0.223439
0.0558243
0.222673
0.0613636
0.221922
0.0670249
0.221209
0.0728279
0.220559
0.0787906
0.220005
0.0849299
0.219583
0.0912616
0.219339
0.0978009
0.219327
0.104562
0.219618
0.111559
0.220299
0.118804
0.221483
0.126301
0.223315
0.134051
0.22598
0.142036
0.229707
0.150217
0.234776
0.158519
0.241515
0.166815
0.2503
0.174901
0.261576
0.182423
0.275812
0.189026
0.193625
0.292309
0.233929
0.00647973
0.233754
0.0125666
0.233501
0.0183692
0.23318
0.0239716
0.232801
0.0294381
0.232374
0.0348207
0.231911
0.0401638
0.231425
0.0455054
0.230933
0.0508773
0.230451
0.0563065
0.229999
0.0618157
0.229599
0.0674242
0.229279
0.0731482
0.229068
0.0790016
0.229002
0.0849957
0.229124
0.0911399
0.229484
0.0974411
0.230143
0.103903
0.231175
0.110527
0.232673
0.117306
0.234747
0.124227
0.237533
0.131265
0.241194
0.138374
0.245923
0.145488
0.251939
0.152503
0.259484
0.159271
0.268797
0.165588
0.280056
0.171164
0.293354
0.175728
0.178768
0.308211
0.23962
0.00654141
0.239501
0.0126849
0.239333
0.0185372
0.239124
0.0241811
0.238883
0.0296793
0.238621
0.0350823
0.238351
0.0404332
0.238089
0.0457678
0.23785
0.0511161
0.237654
0.0565026
0.237523
0.0619473
0.237481
0.0674663
0.237557
0.0730721
0.237785
0.0787739
0.238202
0.0845779
0.238856
0.0904866
0.239798
0.0964991
0.241091
0.10261
0.24281
0.108808
0.245043
0.115074
0.247892
0.121379
0.251476
0.127681
0.25593
0.13392
0.261404
0.140014
0.268053
0.145854
0.276026
0.151298
0.285443
0.156171
0.296347
0.16026
0.308726
0.163349
0.165173
0.322321
0.245448
0.00657232
0.24539
0.0127433
0.24531
0.0186175
0.245215
0.0242751
0.245117
0.0297774
0.245027
0.0351731
0.244957
0.0405031
0.244923
0.0458015
0.244943
0.0510958
0.245038
0.056408
0.24523
0.0617552
0.245546
0.0671502
0.246016
0.0726016
0.246676
0.0781143
0.247565
0.0836891
0.248729
0.0893227
0.250221
0.0950071
0.252102
0.100729
0.254442
0.106468
0.257321
0.112195
0.260827
0.117873
0.265059
0.123449
0.27012
0.128858
0.276118
0.134016
0.283151
0.138821
0.2913
0.143149
0.300612
0.14686
0.311074
0.149798
0.322619
0.151804
0.152747
0.335044
0.251418
0.00657144
0.251421
0.0127401
0.251432
0.0186071
0.251457
0.0242503
0.251505
0.0297286
0.251589
0.0350889
0.251723
0.0403699
0.251921
0.0456032
0.252203
0.0508141
0.252589
0.0560218
0.253104
0.0612405
0.253774
0.0664798
0.254631
0.0717447
0.255709
0.0770357
0.257049
0.0823493
0.258695
0.0876769
0.260697
0.0930049
0.263112
0.0983138
0.266002
0.103577
0.269436
0.108761
0.273486
0.113822
0.278229
0.118706
0.283739
0.123348
0.290085
0.12767
0.297325
0.131581
0.305491
0.134983
0.314584
0.137767
0.32456
0.139822
0.335318
0.141045
0.141377
0.346689
0.257532
0.00653801
0.257599
0.0126736
0.257702
0.0185041
0.257848
0.0241044
0.258046
0.0295307
0.258307
0.0348276
0.258645
0.0400317
0.259076
0.045172
0.259619
0.0502713
0.260295
0.0553462
0.261127
0.0604082
0.262143
0.0654635
0.263374
0.070514
0.264853
0.0755567
0.266618
0.080584
0.268711
0.0855836
0.271179
0.0905377
0.27407
0.0954229
0.277437
0.100209
0.281338
0.104861
0.285828
0.109333
0.290961
0.113573
0.296789
0.117521
0.303349
0.121109
0.310667
0.124263
0.318745
0.126906
0.327554
0.128957
0.337031
0.130345
0.347072
0.131004
0.130914
0.357535
0.263794
0.00647156
0.263925
0.0125431
0.264121
0.0183075
0.264389
0.0238361
0.264738
0.0291825
0.265177
0.0343887
0.26572
0.0394888
0.266382
0.0445094
0.267183
0.0494707
0.268142
0.0543869
0.269284
0.0592667
0.270633
0.0641137
0.272221
0.0689268
0.274077
0.0737002
0.276238
0.0784234
0.27874
0.0830813
0.281624
0.0876536
0.284932
0.0921149
0.288707
0.0964344
0.292992
0.100576
0.297828
0.104497
0.303252
0.10815
0.309291
0.111482
0.315963
0.114437
0.323269
0.116957
0.331191
0.118984
0.339685
0.120463
0.348682
0.121348
0.358084
0.121603
0.121227
0.367771
0.270207
0.00637192
0.270402
0.0123482
0.270692
0.0180168
0.271083
0.0234454
0.271581
0.0286843
0.272196
0.0337732
0.272942
0.0387434
0.273832
0.0436191
0.274885
0.0484182
0.276119
0.0531523
0.277558
0.0578278
0.279226
0.062446
0.281149
0.0670036
0.283357
0.0714926
0.28588
0.0759005
0.28875
0.0802106
0.292002
0.0844015
0.29567
0.0884476
0.299785
0.0923188
0.30438
0.0959807
0.309482
0.0993953
0.31511
0.102521
0.321278
0.105314
0.327985
0.10773
0.335218
0.109724
0.342945
0.111256
0.351118
0.11229
0.359667
0.112799
0.368503
0.112766
0.112203
0.377527
0.276774
0.00623918
0.277033
0.0120892
0.277417
0.0176328
0.277929
0.0229332
0.278575
0.0280381
0.279364
0.032984
0.280308
0.0377998
0.28142
0.0425072
0.282716
0.0471219
0.284215
0.0516534
0.285937
0.056106
0.287904
0.0604791
0.290139
0.0647678
0.292669
0.0689626
0.29552
0.07305
0.298718
0.0770128
0.30229
0.0808296
0.306262
0.0844758
0.310657
0.0879235
0.315496
0.0911418
0.320794
0.0940975
0.326558
0.0967562
0.33279
0.0990827
0.339477
0.101043
0.346596
0.102605
0.35411
0.103742
0.361968
0.104432
0.370105
0.104663
0.378442
0.104429
0.103748
0.386897
0.283498
0.00607372
0.28382
0.0117669
0.284297
0.0171565
0.284928
0.0223017
0.28572
0.0272467
0.286678
0.0320252
0.287814
0.0366637
0.28914
0.0411816
0.29067
0.0455923
0.29242
0.0499035
0.294408
0.0541179
0.296653
0.0582336
0.299177
0.0622444
0.301999
0.0661401
0.305142
0.0699071
0.308627
0.0735283
0.312472
0.0769836
0.316698
0.0802503
0.321318
0.0833033
0.326344
0.086116
0.331781
0.0886607
0.337627
0.0909097
0.343874
0.0928359
0.350502
0.0944147
0.357483
0.0956244
0.364777
0.0964482
0.372334
0.0968751
0.380095
0.0969015
0.387993
0.0965307
0.0957832
0.395958
0.290384
0.00587618
0.290768
0.0113825
0.291335
0.0165901
0.292083
0.0215537
0.293015
0.0263142
0.294138
0.0309025
0.295459
0.0353426
0.296989
0.0396516
0.29874
0.0438412
0.300726
0.0479175
0.302962
0.0518818
0.305464
0.0557313
0.308249
0.0594592
0.311334
0.0630553
0.314735
0.0665063
0.318467
0.0697961
0.322545
0.0729063
0.326978
0.0758169
0.331775
0.0785062
0.336939
0.0809519
0.342468
0.0831318
0.348353
0.0850245
0.354579
0.0866102
0.361122
0.0878717
0.367951
0.0887957
0.375026
0.0893731
0.3823
0.0896004
0.389722
0.08948
0.397232
0.0890202
0.0882419
0.404774
0.297435
0.00564742
0.297879
0.0109378
0.298533
0.0159363
0.299394
0.0206931
0.300462
0.0252458
0.301742
0.0296227
0.30324
0.033845
0.304963
0.0379282
0.306922
0.041882
0.309128
0.0457114
0.311593
0.0494168
0.31433
0.0529947
0.317351
0.0564383
0.320668
0.0597377
0.324294
0.0628805
0.328238
0.0658522
0.332508
0.0686365
0.337108
0.0712162
0.342041
0.0735733
0.347303
0.0756898
0.352887
0.0775485
0.358778
0.0791336
0.364957
0.0804313
0.371398
0.0814308
0.378068
0.0821248
0.384932
0.08251
0.391944
0.082588
0.399059
0.082365
0.406227
0.0818519
0.0810693
0.4134
0.304654
0.0053885
0.305157
0.0104348
0.305895
0.0151982
0.306864
0.0197244
0.308062
0.0240475
0.309492
0.0281932
0.311156
0.0321804
0.313061
0.0360228
0.315215
0.0397287
0.317624
0.043302
0.320299
0.0467423
0.323247
0.0500462
0.326479
0.0532069
0.330001
0.0562155
0.333821
0.0590606
0.337943
0.0617296
0.342371
0.0642087
0.347104
0.0664834
0.352138
0.0685392
0.357466
0.0703624
0.363074
0.0719401
0.368946
0.0732612
0.375061
0.0743169
0.38139
0.0751013
0.387903
0.0756116
0.394565
0.0758487
0.401336
0.0758172
0.408175
0.0755258
0.41504
0.0749865
0.0742188
0.421891
0.312046
0.00510064
0.312605
0.00987602
0.313424
0.0143795
0.314495
0.0186525
0.315817
0.0227258
0.317388
0.0266223
0.319209
0.0303591
0.321284
0.0339478
0.323618
0.0373957
0.326214
0.0407058
0.329078
0.0438775
0.332217
0.0469073
0.335635
0.0497891
0.339336
0.0525147
0.343322
0.0550745
0.347594
0.0574576
0.35215
0.0596526
0.356986
0.0616479
0.362092
0.0634323
0.367459
0.0649956
0.373071
0.0663287
0.378907
0.0674244
0.384946
0.068278
0.391161
0.0688869
0.397521
0.0692519
0.403993
0.0693764
0.410543
0.0692672
0.417135
0.068934
0.423732
0.068389
0.0676504
0.430301
0.319615
0.00478514
0.320227
0.00926397
0.321122
0.0134842
0.322292
0.0174828
0.32373
0.0212875
0.325434
0.0249187
0.327402
0.0283912
0.329634
0.0317154
0.332133
0.0348973
0.334899
0.0379394
0.337936
0.0408409
0.341245
0.0435985
0.344827
0.046207
0.348682
0.0486592
0.35281
0.0509469
0.357206
0.0530614
0.361865
0.0549934
0.366779
0.056734
0.371936
0.058275
0.377323
0.0596089
0.382922
0.06073
0.388712
0.0616343
0.39467
0.0623198
0.40077
0.0627868
0.406984
0.0630381
0.413282
0.063079
0.419631
0.0629173
0.426002
0.062563
0.432363
0.0620281
0.061329
0.438685
0.327365
0.00444338
0.328028
0.00860136
0.328996
0.0125162
0.330258
0.0162209
0.331805
0.0197398
0.333633
0.023091
0.335737
0.0262873
0.338115
0.0293377
0.340765
0.0322474
0.343686
0.0350182
0.346877
0.0376496
0.350337
0.0401385
0.354064
0.0424805
0.358053
0.0446696
0.362301
0.0466992
0.3668
0.0485622
0.371542
0.0502517
0.376515
0.0517609
0.381706
0.0530839
0.387099
0.0542162
0.392674
0.0551542
0.398412
0.0558964
0.404289
0.056443
0.41028
0.0567961