/*--------------------------------*- C++ -*----------------------------------*\
  =========                 |
  \\      /  F ield         | OpenFOAM: The Open Source CFD Toolbox
   \\    /   O peration     | Website:  https://openfoam.org
    \\  /    A nd           | Version:  7
     \\/     M anipulation  |
\*---------------------------------------------------------------------------*/
FoamFile
{
    version     2.0;
    format      ascii;
    class       volVectorField;
    location    "2.9";
    object      U;
}
// * * * * * * * * * * * * * * * * * * * * * * * * * * * * * * * * * * * * * //

dimensions      [0 1 -1 0 0 0 0];

internalField   nonuniform List<vector> 
2790
(
(9.94399 0.0205238 0)
(9.87572 0.0295889 0)
(9.7752 0.0359912 0)
(9.64942 0.0425583 0)
(9.50406 0.049388 0)
(9.34003 0.0564312 0)
(9.1565 0.063819 0)
(8.95257 0.0717149 0)
(8.7274 0.0802586 0)
(8.48001 0.0895769 0)
(8.20919 0.0997968 0)
(7.91356 0.111049 0)
(7.59159 0.123463 0)
(7.24168 0.137168 0)
(6.86222 0.152275 0)
(6.45169 0.168872 0)
(6.00878 0.186999 0)
(5.53259 0.20662 0)
(5.02288 0.227591 0)
(4.48037 0.249611 0)
(3.90709 0.272176 0)
(3.30678 0.294524 0)
(2.68525 0.315618 0)
(2.0506 0.334287 0)
(1.41179 0.350604 0)
(0.798035 0.372882 0)
(0.110707 0.325039 0)
(-0.469511 -0.11485 0)
(-0.45376 -0.297112 0)
(-0.231144 -0.423823 0)
(9.9985 0.0407049 0)
(9.98145 0.0623863 0)
(9.93573 0.0791452 0)
(9.86415 0.0966312 0)
(9.77095 0.115131 0)
(9.65712 0.134496 0)
(9.52201 0.154984 0)
(9.3648 0.176952 0)
(9.18465 0.200717 0)
(8.9806 0.226559 0)
(8.75144 0.254753 0)
(8.4958 0.285568 0)
(8.21211 0.319256 0)
(7.89872 0.356028 0)
(7.55394 0.396024 0)
(7.17609 0.439265 0)
(6.76369 0.485593 0)
(6.31557 0.534585 0)
(5.83117 0.585458 0)
(5.31081 0.636948 0)
(4.7561 0.687196 0)
(4.17037 0.733638 0)
(3.55927 0.772944 0)
(2.93154 0.801085 0)
(2.29995 0.813742 0)
(1.69296 0.807249 0)
(1.10716 0.747245 0)
(0.658906 0.547927 0)
(0.186425 0.2246 0)
(-0.00818946 -0.453716 0)
(9.99559 0.0432101 0)
(9.97555 0.0752777 0)
(9.93179 0.103355 0)
(9.86488 0.132382 0)
(9.77775 0.163072 0)
(9.67151 0.195413 0)
(9.54583 0.229757 0)
(9.40008 0.266618 0)
(9.23359 0.306485 0)
(9.04556 0.349822 0)
(8.83501 0.397086 0)
(8.60072 0.448734 0)
(8.34135 0.505202 0)
(8.0554 0.56687 0)
(7.74128 0.634014 0)
(7.39734 0.70673 0)
(7.02201 0.784832 0)
(6.61387 0.867715 0)
(6.17186 0.954181 0)
(5.69557 1.04224 0)
(5.18558 1.12886 0)
(4.64392 1.20977 0)
(4.07477 1.27914 0)
(3.48537 1.32931 0)
(2.88685 1.35007 0)
(2.29948 1.32642 0)
(1.73186 1.22077 0)
(1.21627 0.973015 0)
(0.701148 0.570169 0)
(0.358033 -0.156539 0)
(9.99403 0.0495036 0)
(9.9718 0.0932147 0)
(9.92787 0.133584 0)
(9.86223 0.174224 0)
(9.77691 0.216451 0)
(9.67295 0.260681 0)
(9.55027 0.307451 0)
(9.40843 0.357436 0)
(9.24696 0.411312 0)
(9.06526 0.469725 0)
(8.8626 0.53332 0)
(8.6381 0.602739 0)
(8.39075 0.678604 0)
(8.11942 0.761481 0)
(7.8229 0.851822 0)
(7.49991 0.94987 0)
(7.14915 1.05554 0)
(6.76935 1.16822 0)
(6.35942 1.28658 0)
(5.91853 1.40824 0)
(5.44648 1.52943 0)
(4.94397 1.64465 0)
(4.41315 1.74611 0)
(3.85827 1.82319 0)
(3.28583 1.86134 0)
(2.70642 1.84031 0)
(2.12567 1.72601 0)
(1.55428 1.47788 0)
(0.957963 1.08372 0)
(0.509432 0.502354 0)
(9.99331 0.0572193 0)
(9.96994 0.11097 0)
(9.92592 0.16212 0)
(9.86144 0.213367 0)
(9.77796 0.26638 0)
(9.67631 0.321939 0)
(9.55649 0.380729 0)
(9.41816 0.443516 0)
(9.2609 0.511084 0)
(9.08425 0.584196 0)
(8.88761 0.663611 0)
(8.67029 0.750083 0)
(8.43148 0.844349 0)
(8.17035 0.947091 0)
(7.88596 1.05888 0)
(7.57737 1.18007 0)
(7.24356 1.31067 0)
(6.88351 1.45015 0)
(6.4962 1.59719 0)
(6.08066 1.74928 0)
(5.63611 1.90236 0)
(5.16209 2.05026 0)
(4.65876 2.18412 0)
(4.12722 2.2917 0)
(3.56942 2.35653 0)
(2.98892 2.3573 0)
(2.38687 2.26496 0)
(1.76642 2.04766 0)
(1.09001 1.69144 0)
(0.536663 1.15419 0)
(9.99302 0.0655457 0)
(9.96922 0.128715 0)
(9.92555 0.190133 0)
(9.86251 0.251868 0)
(9.78126 0.315607 0)
(9.6824 0.38235 0)
(9.56596 0.452908 0)
(9.43165 0.528136 0)
(9.27913 0.608914 0)
(9.10797 0.696117 0)
(8.91768 0.790608 0)
(8.70763 0.893248 0)
(8.47717 1.00487 0)
(8.22555 1.12627 0)
(7.95203 1.25809 0)
(7.65577 1.4008 0)
(7.33591 1.55452 0)
(6.99153 1.71883 0)
(6.62159 1.8925 0)
(6.22493 2.07316 0)
(5.80023 2.25678 0)
(5.34601 2.43713 0)
(4.8607 2.60513 0)
(4.34271 2.74816 0)
(3.79043 2.8495 0)
(3.20262 2.88817 0)
(2.57662 2.83823 0)
(1.91351 2.67164 0)
(1.17278 2.37405 0)
(0.549984 1.89446 0)
(9.99297 0.0740832 0)
(9.96926 0.14633 0)
(9.92636 0.217506 0)
(9.86506 0.289321 0)
(9.78639 0.363389 0)
(9.69081 0.440865 0)
(9.57829 0.522701 0)
(9.44865 0.609853 0)
(9.30157 0.703297 0)
(9.13669 0.804004 0)
(8.95354 0.912935 0)
(8.75159 1.03104 0)
(8.53021 1.15924 0)
(8.28874 1.29841 0)
(8.02645 1.4493 0)
(7.74255 1.61246 0)
(7.43616 1.78816 0)
(7.10628 1.97612 0)
(6.7517 2.17534 0)
(6.37092 2.38374 0)
(5.96204 2.59765 0)
(5.5226 2.81129 0)
(5.04952 3.01606 0)
(4.53903 3.19988 0)
(3.98671 3.34662 0)
(3.38798 3.43593 0)
(2.73732 3.44331 0)
(2.03631 3.34153 0)
(1.2418 3.11364 0)
(0.563538 2.69323 0)
(9.99306 0.0825979 0)
(9.96981 0.163625 0)
(9.92806 0.244077 0)
(9.86883 0.325514 0)
(9.79309 0.409486 0)
(9.70121 0.497251 0)
(9.59317 0.589887 0)
(9.46881 0.688445 0)
(9.32787 0.793989 0)
(9.17004 0.907577 0)
(8.99491 1.03026 0)
(8.80198 1.16307 0)
(8.59068 1.30703 0)
(8.36036 1.4631 0)
(8.1103 1.63215 0)
(7.83965 1.81485 0)
(7.54746 2.01163 0)
(7.23253 2.22246 0)
(6.89338 2.44666 0)
(6.52806 2.68259 0)
(6.13401 2.92724 0)
(5.70781 3.17565 0)
(5.24497 3.42024 0)
(4.73982 3.65009 0)
(4.18555 3.85015 0)
(3.57485 4.00084 0)
(2.89962 4.0779 0)
(2.16221 4.05243 0)
(1.31619 3.90179 0)
(0.583253 3.54027 0)
(9.99326 0.0909396 0)
(9.97072 0.18043 0)
(9.93045 0.269699 0)
(9.8736 0.360281 0)
(9.80115 0.453693 0)
(9.71339 0.551261 0)
(9.61032 0.654168 0)
(9.49181 0.763554 0)
(9.35767 0.880563 0)
(9.20763 1.00634 0)
(9.04133 1.14201 0)
(8.85834 1.28871 0)
(8.65812 1.44755 0)
(8.44005 1.61961 0)
(8.2034 1.80587 0)
(7.94728 2.00719 0)
(7.67061 2.22421 0)
(7.372 2.45721 0)
(7.04965 2.70596 0)
(6.70115 2.96945 0)
(6.32326 3.24552 0)
(5.9116 3.53038 0)
(5.46036 3.81791 0)
(4.96205 4.09884 0)
(4.4075 4.35974 0)
(3.78653 4.58203 0)
(3.08771 4.74107 0)
(2.31284 4.80452 0)
(1.41074 4.74122 0)
(0.614357 4.4421 0)
(9.99352 0.099005 0)
(9.9719 0.196604 0)
(9.93339 0.29423 0)
(9.87922 0.393461 0)
(9.81037 0.495808 0)
(9.72712 0.602648 0)
(9.62947 0.715247 0)
(9.51733 0.834829 0)
(9.39059 0.962612 0)
(9.24901 1.09981 0)
(9.09232 1.24765 0)
(8.92013 1.40734 0)
(8.73196 1.58011 0)
(8.52724 1.76713 0)
(8.30524 1.96956 0)
(8.06506 2.18846 0)
(7.80553 2.42475 0)
(7.52511 2.67909 0)
(7.22173 2.95182 0)
(6.89261 3.24268 0)
(6.53391 3.55062 0)
(6.1404 3.8733 0)
(5.70503 4.2065 0)
(5.21853 4.54319 0)
(4.6691 4.87227 0)
(4.04303 5.17686 0)
(3.32389 5.43228 0)
(2.50996 5.60205 0)
(1.54202 5.64369 0)
(0.664131 5.41831 0)
(9.99384 0.106718 0)
(9.9733 0.212028 0)
(9.93678 0.317542 0)
(9.88556 0.424906 0)
(9.8206 0.535649 0)
(9.7422 0.651188 0)
(9.65038 0.772861 0)
(9.54509 0.901962 0)
(9.42627 1.03978 0)
(9.29378 1.18759 0)
(9.14738 1.3467 0)
(8.98678 1.51841 0)
(8.81157 1.70404 0)
(8.62123 1.9049 0)
(8.4151 2.12232 0)
(8.1923 2.35758 0)
(7.95165 2.61192 0)
(7.69156 2.88646 0)
(7.40983 3.18216 0)
(7.10345 3.4997 0)
(6.76819 3.83927 0)
(6.39823 4.20031 0)
(5.98552 4.58093 0)
(5.51912 4.97707 0)
(4.98451 5.38109 0)
(4.36347 5.77939 0)
(3.63217 6.14908 0)
(2.78041 6.45076 0)
(1.73369 6.62878 0)
(0.744954 6.5035 0)
(9.9942 0.114022 0)
(9.97486 0.226606 0)
(9.94054 0.339518 0)
(9.89249 0.45448 0)
(9.8317 0.57305 0)
(9.75846 0.696685 0)
(9.67281 0.826777 0)
(9.57479 0.96468 0)
(9.46437 1.11174 0)
(9.34149 1.2693 0)
(9.206 1.43873 0)
(9.05769 1.62141 0)
(8.89624 1.81875 0)
(8.72125 2.0322 0)
(8.53213 2.26325 0)
(8.32811 2.51343 0)
(8.10808 2.7843 0)
(7.87054 3.07748 0)
(7.61335 3.39459 0)
(7.33349 3.7373 0)
(7.02671 4.10722 0)
(6.687 4.50574 0)
(6.30581 4.93379 0)
(5.8711 5.39111 0)
(5.36591 5.87503 0)
(4.76715 6.37798 0)
(4.04109 6.8831 0)
(3.16189 7.3536 0)
(2.02513 7.7236 0)
(0.880943 7.75775 0)
(9.99459 0.120871 0)
(9.97656 0.240259 0)
(9.9446 0.360057 0)
(9.89993 0.482063 0)
(9.84352 0.607871 0)
(9.7757 0.738968 0)
(9.69655 0.876791 0)
(9.60613 1.02274 0)
(9.50452 1.17822 0)
(9.39171 1.34462 0)
(9.26765 1.52335 0)
(9.13223 1.71587 0)
(8.98526 1.92369 0)
(8.82644 2.14835 0)
(8.65536 2.39152 0)
(8.47138 2.65493 0)
(8.27362 2.94049 0)
(8.06076 3.25026 0)
(7.83094 3.58654 0)
(7.58148 3.95197 0)
(7.30851 4.34957 0)
(7.00642 4.78282 0)
(6.66707 5.2557 0)
(6.27844 5.7725 0)
(5.82258 6.33724 0)
(5.27279 6.95201 0)
(4.58503 7.61339 0)
(3.71062 8.30098 0)
(2.48884 8.95877 0)
(1.12487 9.29433 0)
(9.99501 0.12723 0)
(9.97837 0.252922 0)
(9.94889 0.379075 0)
(9.90777 0.507556 0)
(9.85594 0.639991 0)
(9.79376 0.777897 0)
(9.72135 0.922743 0)
(9.63883 1.07597 0)
(9.54635 1.23901 0)
(9.44398 1.41329 0)
(9.33177 1.60027 0)
(9.20974 1.80146 0)
(9.07781 2.01843 0)
(8.93587 2.25283 0)
(8.78368 2.50644 0)
(8.62083 2.78119 0)
(8.44673 3.07926 0)
(8.26043 3.40311 0)
(8.06056 3.75563 0)
(7.84507 4.14028 0)
(7.61094 4.56138 0)
(7.35376 5.02432 0)
(7.0669 5.53605 0)
(6.74029 6.10558 0)
(6.35799 6.74463 0)
(5.8944 7.46831 0)
(5.30144 8.29584 0)
(4.50988 9.24786 0)
(3.27003 10.3425 0)
(1.60585 11.3612 0)
(9.99544 0.133072 0)
(9.98026 0.264545 0)
(9.95338 0.396502 0)
(9.91593 0.530865 0)
(9.86884 0.669291 0)
(9.81247 0.813318 0)
(9.74699 0.964439 0)
(9.67261 1.12412 0)
(9.5895 1.29381 0)
(9.49786 1.47497 0)
(9.39783 1.66909 0)
(9.28955 1.8777 0)
(9.17311 2.10241 0)
(9.04856 2.34494 0)
(8.9159 2.60716 0)
(8.77501 2.89115 0)
(8.62566 3.19926 0)
(8.46739 3.53424 0)
(8.29948 3.8994 0)
(8.12081 4.29884 0)
(7.92967 4.73776 0)
(7.72351 5.22302 0)
(7.49851 5.76384 0)
(7.2488 6.37304 0)
(6.96491 7.06908 0)
(6.63135 7.87982 0)
(6.21537 8.85078 0)
(5.66758 10.0651 0)
(4.69277 11.7315 0)
(2.68956 14.5968 0)
(0.157597 -0.164658 0)
(0.358283 -0.145314 0)
(0.567731 -0.117866 0)
(0.750632 -0.0940922 0)
(0.902002 -0.0752105 0)
(1.02752 -0.06042 0)
(1.13353 -0.0488781 0)
(1.22466 -0.0398973 0)
(1.30416 -0.0328664 0)
(1.37432 -0.0272498 0)
(1.43672 -0.0226293 0)
(1.49241 -0.0187296 0)
(1.54212 -0.0153745 0)
(1.58636 -0.0123354 0)
(1.62511 -0.00916747 0)
(1.65713 -0.00530623 0)
(1.67999 -0.000582008 0)
(1.69161 0.00429204 0)
(1.69239 0.00781483 0)
(1.68519 0.00927819 0)
(1.67293 0.00924465 0)
(1.65707 0.00861978 0)
(1.63958 0.00722415 0)
(1.62497 0.004677 0)
(1.61869 0.00102881 0)
(1.62545 -0.00244207 0)
(1.64593 -0.00556229 0)
(1.67863 -0.00808909 0)
(1.72053 -0.00950631 0)
(1.77666 -0.0084822 0)
(0.123043 -0.355072 0)
(0.314218 -0.326989 0)
(0.502902 -0.272452 0)
(0.670087 -0.223044 0)
(0.811871 -0.183403 0)
(0.932972 -0.152286 0)
(1.03844 -0.128022 0)
(1.13196 -0.109165 0)
(1.21614 -0.0943872 0)
(1.29283 -0.0825039 0)
(1.36327 -0.0725891 0)
(1.42824 -0.0640717 0)
(1.4883 -0.0566851 0)
(1.54407 -0.050084 0)
(1.59621 -0.043317 0)
(1.6447 -0.0349415 0)
(1.68802 -0.0244463 0)
(1.72357 -0.0135922 0)
(1.75016 -0.00476434 0)
(1.77014 0.00256697 0)
(1.78692 0.00966306 0)
(1.79928 0.0133276 0)
(1.80795 0.0127815 0)
(1.81669 0.00776152 0)
(1.82645 -0.000764851 0)
(1.83814 -0.0107298 0)
(1.85244 -0.0210975 0)
(1.86954 -0.0302752 0)
(1.88946 -0.0366299 0)
(1.91979 -0.0360249 0)
(0.0901956 -0.546997 0)
(0.248743 -0.509089 0)
(0.392165 -0.428489 0)
(0.519998 -0.354766 0)
(0.627789 -0.295346 0)
(0.719874 -0.248397 0)
(0.799913 -0.21152 0)
(0.870555 -0.182584 0)
(0.933748 -0.15964 0)
(0.990905 -0.140941 0)
(1.04293 -0.125087 0)
(1.09026 -0.111245 0)
(1.13305 -0.0992334 0)
(1.17161 -0.0889763 0)
(1.20708 -0.0792689 0)
(1.24064 -0.0670952 0)
(1.2717 -0.0501162 0)
(1.29711 -0.0320901 0)
(1.31317 -0.0210606 0)
(1.32405 -0.017042 0)
(1.33276 -0.0130135 0)
(1.32932 -0.00735889 0)
(1.3119 -0.00491728 0)
(1.28145 -0.00719118 0)
(1.24657 -0.0120524 0)
(1.21184 -0.016538 0)
(1.17713 -0.0195017 0)
(1.1428 -0.0227224 0)
(1.11365 -0.0258144 0)
(1.09965 -0.0265498 0)
(0.0602609 -0.687305 0)
(0.177038 -0.633695 0)
(0.265319 -0.53022 0)
(0.346479 -0.438362 0)
(0.411812 -0.36483 0)
(0.466449 -0.306684 0)
(0.512361 -0.260973 0)
(0.55112 -0.225052 0)
(0.584035 -0.196537 0)
(0.612142 -0.173257 0)
(0.636158 -0.153366 0)
(0.656339 -0.135638 0)
(0.672356 -0.119847 0)
(0.682998 -0.106548 0)
(0.689162 -0.0957524 0)
(0.693886 -0.085115 0)
(0.700334 -0.0707336 0)
(0.70896 -0.0495352 0)
(0.690639 -0.0240864 0)
(0.629303 -0.0034747 0)
(0.562149 0.0124669 0)
(0.511135 0.0303212 0)
(0.461957 0.0417425 0)
(0.411164 0.0435976 0)
(0.362891 0.0364584 0)
(0.322622 0.0235262 0)
(0.30848 0.00844606 0)
(0.304507 -0.0062403 0)
(0.314852 -0.0238242 0)
(0.345476 -0.0435591 0)
(0.030096 -0.779154 0)
(0.0971551 -0.705033 0)
(0.123157 -0.582252 0)
(0.153143 -0.47863 0)
(0.169524 -0.395762 0)
(0.179884 -0.330036 0)
(0.184107 -0.278234 0)
(0.182981 -0.237427 0)
(0.177257 -0.205044 0)
(0.167669 -0.17876 0)
(0.154997 -0.156438 0)
(0.139962 -0.136282 0)
(0.122788 -0.117162 0)
(0.0990027 -0.0990341 0)
(0.0658293 -0.0817708 0)
(0.0190907 -0.0621683 0)
(-0.0356291 -0.0361151 0)
(-0.0897046 -0.00314865 0)
(-0.127164 0.0271074 0)
(-0.152122 0.0441301 0)
(-0.177618 0.0509336 0)
(-0.199578 0.0551667 0)
(-0.219089 0.0571853 0)
(-0.23512 0.0517738 0)
(-0.247562 0.0377731 0)
(-0.256489 0.0177378 0)
(-0.256755 -0.0020603 0)
(-0.248772 -0.0197671 0)
(-0.242182 -0.0378559 0)
(-0.237604 -0.0534783 0)
(-0.00206622 -0.814021 0)
(0.00825585 -0.716054 0)
(-0.0307191 -0.577303 0)
(-0.0563712 -0.467275 0)
(-0.0934492 -0.378802 0)
(-0.13278 -0.30888 0)
(-0.175775 -0.253808 0)
(-0.221795 -0.210298 0)
(-0.270479 -0.175447 0)
(-0.321424 -0.146815 0)
(-0.37384 -0.122348 0)
(-0.426429 -0.100407 0)
(-0.477801 -0.0799689 0)
(-0.526891 -0.0607797 0)
(-0.572733 -0.0428987 0)
(-0.614711 -0.0259675 0)
(-0.651927 -0.00898999 0)
(-0.679957 0.00852586 0)
(-0.696147 0.026798 0)
(-0.709928 0.0435711 0)
(-0.72018 0.0546417 0)
(-0.726755 0.0594727 0)
(-0.729326 0.0594967 0)
(-0.728787 0.0528175 0)
(-0.727208 0.0391062 0)
(-0.726336 0.02072 0)
(-0.726113 0.000889277 0)
(-0.723969 -0.0197045 0)
(-0.725005 -0.0384734 0)
(-0.728441 -0.0534179 0)
(-0.0397937 -0.783588 0)
(-0.0916426 -0.660663 0)
(-0.191456 -0.517628 0)
(-0.277215 -0.406349 0)
(-0.36672 -0.318157 0)
(-0.454277 -0.249329 0)
(-0.539304 -0.195859 0)
(-0.620579 -0.154514 0)
(-0.697055 -0.122435 0)
(-0.768016 -0.0972345 0)
(-0.832987 -0.0769442 0)
(-0.891623 -0.0599201 0)
(-0.943793 -0.0448534 0)
(-0.989707 -0.0308098 0)
(-1.02982 -0.017138 0)
(-1.06478 -0.00342914 0)
(-1.09207 0.0104496 0)
(-1.11056 0.024472 0)
(-1.12375 0.0378572 0)
(-1.13175 0.049123 0)
(-1.13531 0.0565394 0)
(-1.13505 0.0594859 0)
(-1.13151 0.0576941 0)
(-1.12601 0.05004 0)
(-1.12069 0.0363794 0)
(-1.11732 0.0184898 0)
(-1.11637 -0.000912941 0)
(-1.11692 -0.0197886 0)
(-1.12119 -0.0382295 0)
(-1.12589 -0.0528257 0)
(-0.083449 -0.687124 0)
(-0.195006 -0.546061 0)
(-0.354128 -0.404738 0)
(-0.494976 -0.298649 0)
(-0.628818 -0.218711 0)
(-0.751165 -0.159181 0)
(-0.861406 -0.115049 0)
(-0.959598 -0.0826887 0)
(-1.04623 -0.0592251 0)
(-1.12215 -0.0421233 0)
(-1.18837 -0.0293017 0)
(-1.2459 -0.019143 0)
(-1.29532 -0.0104876 0)
(-1.33688 -0.00248344 0)
(-1.3713 0.00554841 0)
(-1.39886 0.0139971 0)
(-1.42128 0.0232752 0)
(-1.43858 0.0334306 0)
(-1.4503 0.0433998 0)
(-1.45659 0.0514503 0)
(-1.45819 0.0563468 0)
(-1.45601 0.0575006 0)
(-1.45104 0.0544365 0)
(-1.44472 0.0464673 0)
(-1.43895 0.0336402 0)
(-1.43545 0.017315 0)
(-1.43512 -0.000487199 0)
(-1.43791 -0.0184114 0)
(-1.44419 -0.0359111 0)
(-1.44925 -0.0493932 0)
(-0.133275 -0.525972 0)
(-0.303993 -0.376352 0)
(-0.518137 -0.247623 0)
(-0.704869 -0.157505 0)
(-0.872806 -0.0931666 0)
(-1.01881 -0.0488505 0)
(-1.14185 -0.0206007 0)
(-1.2438 -0.00361174 0)
(-1.32877 0.00648698 0)
(-1.40006 0.0124129 0)
(-1.46028 0.0159734 0)
(-1.51138 0.0183681 0)
(-1.55485 0.0204447 0)
(-1.5921 0.0228997 0)
(-1.6238 0.0262188 0)
(-1.6505 0.0306919 0)
(-1.67237 0.0363106 0)
(-1.68921 0.0426591 0)
(-1.70077 0.0488405 0)
(-1.70719 0.0536177 0)
(-1.70907 0.0560051 0)
(-1.70737 0.0554006 0)
(-1.70324 0.0512863 0)
(-1.69814 0.0431723 0)
(-1.69375 0.031176 0)
(-1.69166 0.0163827 0)
(-1.69301 0.00034284 0)
(-1.69828 -0.0159701 0)
(-1.70656 -0.0320227 0)
(-1.71209 -0.0440552 0)
(-0.19378 -0.313017 0)
(-0.434433 -0.16717 0)
(-0.703618 -0.0379534 0)
(-0.912358 0.0259731 0)
(-1.08418 0.0569026 0)
(-1.22393 0.069388 0)
(-1.33957 0.0725333 0)
(-1.43704 0.0711313 0)
(-1.51941 0.0673026 0)
(-1.58935 0.0624965 0)
(-1.64904 0.0576604 0)
(-1.70017 0.053308 0)
(-1.74389 0.0497516 0)
(-1.78108 0.047314 0)
(-1.81252 0.0463427 0)
(-1.83891 0.0470202 0)
(-1.86065 0.0491282 0)
(-1.87775 0.0520121 0)
(-1.89005 0.0547611 0)
(-1.89762 0.0564542 0)
(-1.90095 0.0564079 0)
(-1.90098 0.0541398 0)
(-1.89893 0.0491667 0)
(-1.89619 0.0410679 0)
(-1.89425 0.0299315 0)
(-1.89451 0.0166218 0)
(-1.89834 0.00232255 0)
(-1.90624 -0.012354 0)
(-1.91656 -0.0268332 0)
(-1.92267 -0.0375312 0)
(-0.262236 0.0400987 0)
(-0.537251 0.163938 0)
(-0.814228 0.192372 0)
(-1.03187 0.200372 0)
(-1.21086 0.193957 0)
(-1.3576 0.180208 0)
(-1.47822 0.1635 0)
(-1.57783 0.146049 0)
(-1.66063 0.129105 0)
(-1.73002 0.11363 0)
(-1.7888 0.100186 0)
(-1.839 0.0887849 0)
(-1.8819 0.0792396 0)
(-1.9183 0.0716276 0)
(-1.94905 0.0662691 0)
(-1.97503 0.0632642 0)
(-1.9969 0.0621288 0)
(-2.01479 0.0619043 0)
(-2.02848 0.0615741 0)
(-2.03787 0.060416 0)
(-2.04332 0.0580629 0)
(-2.04577 0.0542507 0)
(-2.04648 0.0485671 0)
(-2.04679 0.0405719 0)
(-2.04791 0.0302461 0)
(-2.05108 0.0182568 0)
(-2.05773 0.00553378 0)
(-2.06833 -0.00747845 0)
(-2.08075 -0.0203674 0)
(-2.08752 -0.0299233 0)
(-0.288002 0.412101 0)
(-0.59231 0.45762 0)
(-0.903728 0.432272 0)
(-1.14 0.389951 0)
(-1.32638 0.342999 0)
(-1.47376 0.297426 0)
(-1.59178 0.256366 0)
(-1.68772 0.220555 0)
(-1.76665 0.189471 0)
(-1.8323 0.162992 0)
(-1.88784 0.141114 0)
(-1.93561 0.123095 0)
(-1.97678 0.10792 0)
(-2.01183 0.0953214 0)
(-2.0415 0.085763 0)
(-2.06694 0.0794352 0)
(-2.08914 0.0755589 0)
(-2.10828 0.0727134 0)
(-2.12391 0.0696499 0)
(-2.13558 0.0658146 0)
(-2.1435 0.0612434 0)
(-2.14865 0.0560012 0)
(-2.15242 0.049757 0)
(-2.15612 0.0419505 0)
(-2.1607 0.0323623 0)
(-2.16715 0.0214715 0)
(-2.17682 0.0101133 0)
(-2.19032 -0.00128701 0)
(-2.2049 -0.012611 0)
(-2.21242 -0.0211406 0)
(-0.33327 0.831441 0)
(-0.687297 0.811869 0)
(-1.02831 0.696884 0)
(-1.2661 0.584407 0)
(-1.44412 0.48943 0)
(-1.58006 0.409173 0)
(-1.68638 0.343152 0)
(-1.77222 0.289734 0)
(-1.84289 0.245362 0)
(-1.90159 0.208488 0)
(-1.95159 0.179032 0)
(-1.99565 0.155452 0)
(-2.03455 0.135386 0)
(-2.06793 0.118082 0)
(-2.09617 0.104546 0)
(-2.12087 0.0954223 0)
(-2.14357 0.0895501 0)
(-2.16449 0.0847237 0)
(-2.18266 0.0792605 0)
(-2.19704 0.0728085 0)
(-2.20761 0.0660105 0)
(-2.21553 0.0594378 0)
(-2.22248 0.0528303 0)
(-2.22978 0.0453568 0)
(-2.23812 0.0364704 0)
(-2.24811 0.0264623 0)
(-2.26101 0.0162019 0)
(-2.2776 0.00622728 0)
(-2.29418 -0.00350752 0)
(-2.30252 -0.0110276 0)
(-0.423537 1.33281 0)
(-0.853486 1.21691 0)
(-1.21421 0.96832 0)
(-1.42418 0.76294 0)
(-1.57042 0.619138 0)
(-1.6804 0.505217 0)
(-1.76467 0.416355 0)
(-1.83368 0.349295 0)
(-1.89236 0.294521 0)
(-1.94137 0.248299 0)
(-1.98364 0.212553 0)
(-2.02302 0.185302 0)
(-2.05973 0.161621 0)
(-2.09152 0.139877 0)
(-2.11795 0.122439 0)
(-2.14153 0.111213 0)
(-2.16492 0.104449 0)
(-2.18834 0.0984996 0)
(-2.20985 0.0909326 0)
(-2.22743 0.0817204 0)
(-2.2407 0.0724961 0)
(-2.25126 0.0646401 0)
(-2.26134 0.0579216 0)
(-2.27241 0.0509821 0)
(-2.28477 0.0427636 0)
(-2.29852 0.0333592 0)
(-2.31467 0.0238009 0)
(-2.33414 0.0149721 0)
(-2.35318 0.00690205 0)
(-2.36232 0.000601264 0)
(-0.612665 2.22045 0)
(-1.13199 1.82928 0)
(-1.50091 1.258 0)
(-1.62813 0.874315 0)
(-1.70435 0.706964 0)
(-1.77375 0.577244 0)
(-1.82489 0.471853 0)
(-1.87056 0.396974 0)
(-1.91593 0.33508 0)
(-1.95394 0.279116 0)
(-1.98601 0.238821 0)
(-2.01988 0.211934 0)
(-2.05547 0.187226 0)
(-2.08648 0.161045 0)
(-2.1106 0.139005 0)
(-2.13225 0.126367 0)
(-2.15649 0.120338 0)
(-2.18351 0.114433 0)
(-2.20958 0.104965 0)
(-2.23094 0.0925024 0)
(-2.24678 0.0803344 0)
(-2.25951 0.0711915 0)
(-2.27248 0.0647763 0)
(-2.28741 0.0587362 0)
(-2.30405 0.0512201 0)
(-2.3217 0.0421294 0)
(-2.34095 0.032856 0)
(-2.3629 0.0249711 0)
(-2.38396 0.0187534 0)
(-2.39412 0.0141806 0)
(9.9959 0.138469 0)
(9.98224 0.275283 0)
(9.95809 0.41259 0)
(9.9245 0.552357 0)
(9.88237 0.696261 0)
(9.8321 0.845856 0)
(9.7739 1.00265 0)
(9.70803 1.16811 0)
(9.63478 1.3437 0)
(9.55441 1.5309 0)
(9.46719 1.73118 0)
(9.37338 1.9461 0)
(9.27327 2.17729 0)
(9.16709 2.42648 0)
(9.05511 2.69558 0)
(8.93754 2.98674 0)
(8.81457 3.3024 0)
(8.68635 3.64544 0)
(8.55295 4.01939 0)
(8.41437 4.42862 0)
(8.27055 4.87875 0)
(8.12139 5.37726 0)
(7.96684 5.93431 0)
(7.80719 6.56424 0)
(7.64371 7.28815 0)
(7.48143 8.13861 0)
(7.33376 9.16964 0)
(7.29117 10.4749 0)
(7.75323 12.1993 0)
(7.94315 14.9193 0)
(9.99638 0.143431 0)
(9.98433 0.285142 0)
(9.96304 0.427324 0)
(9.93348 0.571975 0)
(9.89652 0.720787 0)
(9.85255 0.875316 0)
(9.80187 1.03707 0)
(9.7448 1.20753 0)
(9.68169 1.38814 0)
(9.6129 1.58037 0)
(9.53884 1.78569 0)
(9.45991 2.00563 0)
(9.37656 2.2418 0)
(9.28927 2.49593 0)
(9.19854 2.76989 0)
(9.10498 3.06581 0)
(9.00922 3.38611 0)
(8.91201 3.73362 0)
(8.81429 4.11181 0)
(8.71723 4.52492 0)
(8.62243 4.97837 0)
(8.53228 5.47918 0)
(8.45051 6.03665 0)
(8.3834 6.66337 0)
(8.34216 7.37653 0)
(8.34893 8.1995 0)
(8.4427 9.16235 0)
(8.67952 10.2981 0)
(9.32849 11.5511 0)
(9.82188 12.6342 0)
(9.99688 0.14787 0)
(9.9865 0.293958 0)
(9.96817 0.440481 0)
(9.94279 0.589454 0)
(9.91116 0.742571 0)
(9.8737 0.901384 0)
(9.83076 1.06739 0)
(9.7827 1.24205 0)
(9.72997 1.42679 0)
(9.67303 1.62303 0)
(9.61238 1.83224 0)
(9.54859 2.05587 0)
(9.48227 2.2955 0)
(9.41412 2.55277 0)
(9.34493 2.82948 0)
(9.27564 3.12764 0)
(9.20733 3.4495 0)
(9.14134 3.79771 0)
(9.07937 4.17538 0)
(9.02364 4.58626 0)
(8.97715 5.03494 0)
(8.94421 5.5271 0)
(8.93109 6.06968 0)
(8.94734 6.67107 0)
(9.00747 7.34066 0)
(9.13361 8.08701 0)
(9.3568 8.91187 0)
(9.68641 9.80386 0)
(10.2519 10.7112 0)
(10.9388 11.4229 0)
(9.9974 0.151734 0)
(9.98873 0.301624 0)
(9.97345 0.451895 0)
(9.95235 0.604562 0)
(9.92618 0.761313 0)
(9.89537 0.923683 0)
(9.86031 1.09314 0)
(9.82144 1.27112 0)
(9.77925 1.45901 0)
(9.7343 1.65819 0)
(9.68721 1.87003 0)
(9.63867 2.09596 0)
(9.58945 2.33742 0)
(9.54047 2.59595 0)
(9.49277 2.87321 0)
(9.44758 3.171 0)
(9.40638 3.49131 0)
(9.37101 3.83641 0)
(9.34376 4.20888 0)
(9.3276 4.61166 0)
(9.32647 5.04818 0)
(9.34566 5.52224 0)
(9.39241 6.03795 0)
(9.47664 6.59927 0)
(9.61154 7.20891 0)
(9.81389 7.86648 0)
(10.1064 8.5648 0)
(10.4977 9.28909 0)
(11.0543 10.0291 0)
(11.8459 10.6718 0)
(9.99792 0.154976 0)
(9.991 0.308048 0)
(9.97882 0.461429 0)
(9.96208 0.617123 0)
(9.94145 0.776795 0)
(9.91737 0.941953 0)
(9.89029 1.11403 0)
(9.86067 1.29441 0)
(9.82909 1.48443 0)
(9.79618 1.6854 0)
(9.76264 1.8986 0)
(9.72929 2.12536 0)
(9.69705 2.36699 0)
(9.667 2.62489 0)
(9.64039 2.90048 0)
(9.61869 3.19532 0)
(9.6037 3.51103 0)
(9.59758 3.84941 0)
(9.60303 4.21237 0)
(9.62343 4.60194 0)
(9.66309 5.02021 0)
(9.72755 5.4692 0)
(9.82387 5.95049 0)
(9.96099 6.46477 0)
(10.1499 7.01093 0)
(10.4038 7.58506 0)
(10.7397 8.17901 0)
(11.1693 8.77807 0)
(11.7155 9.37068 0)
(12.4668 9.88201 0)
(9.99845 0.157552 0)
(9.9933 0.313144 0)
(9.98425 0.468958 0)
(9.9719 0.62697 0)
(9.95684 0.788814 0)
(9.93953 0.955954 0)
(9.92043 1.12978 0)
(9.90007 1.31161 0)
(9.87905 1.5027 0)
(9.85808 1.70429 0)
(9.83795 1.91756 0)
(9.81956 2.14369 0)
(9.80395 2.38386 0)
(9.79231 2.63924 0)
(9.78606 2.91104 0)
(9.78684 3.20047 0)
(9.79663 3.50879 0)
(9.81778 3.83722 0)
(9.85316 4.187 0)
(9.90626 4.55923 0)
(9.98134 4.95482 0)
(10.0836 5.37422 0)
(10.2195 5.81717 0)
(10.3963 6.28219 0)
(10.6231 6.76602 0)
(10.9093 7.26287 0)
(11.2662 7.76353 0)
(11.7018 8.25243 0)
(12.2166 8.71292 0)
(12.8906 9.10353 0)
(9.99898 0.159424 0)
(9.99559 0.316835 0)
(9.98969 0.474369 0)
(9.98173 0.633957 0)
(9.97223 0.797188 0)
(9.96165 0.965476 0)
(9.95048 1.14015 0)
(9.93927 1.32245 0)
(9.92867 1.51356 0)
(9.91943 1.7146 0)
(9.9124 1.92664 0)
(9.90855 2.15071 0)
(9.90899 2.3878 0)
(9.915 2.63889 0)
(9.92809 2.9049 0)
(9.94998 3.18671 0)
(9.98271 3.48515 0)
(10.0287 3.80093 0)
(10.0907 4.13461 0)
(10.1722 4.48649 0)
(10.277 4.85646 0)
(10.4098 5.24381 0)
(10.5758 5.64696 0)
(10.781 6.0631 0)
(11.0318 6.48775 0)
(11.3344 6.91421 0)
(11.6951 7.33315 0)
(12.1179 7.73116 0)
(12.5967 8.09371 0)
(13.2004 8.40036 0)
(9.99951 0.160558 0)
(9.99788 0.319054 0)
(9.99508 0.477563 0)
(9.99147 0.637956 0)
(9.98747 0.801767 0)
(9.98353 0.970346 0)
(9.98015 1.14495 0)
(9.97791 1.32673 0)
(9.97748 1.51679 0)
(9.97963 1.71612 0)
(9.98525 1.92567 0)
(9.99534 2.14629 0)
(10.0111 2.37881 0)
(10.0337 2.62395 0)
(10.0649 2.88237 0)
(10.1062 3.15462 0)
(10.1597 3.44112 0)
(10.2278 3.7421 0)
(10.313 4.05754 0)
(10.4184 4.38706 0)
(10.5474 4.7298 0)
(10.7038 5.08423 0)
(10.8917 5.44797 0)
(11.1155 5.8175 0)
(11.3795 6.18792 0)
(11.6873 6.55268 0)
(12.0418 6.90352 0)
(12.4445 7.23015 0)
(12.8878 7.52146 0)
(13.4294 7.7662 0)
(10 0.160925 0)
(10.0001 0.319747 0)
(10.0004 0.478461 0)
(10.001 0.638868 0)
(10.0024 0.802433 0)
(10.005 0.970435 0)
(10.0092 1.14405 0)
(10.0156 1.32434 0)
(10.025 1.51229 0)
(10.0381 1.70879 0)
(10.0558 1.91462 0)
(10.0791 2.1305 0)
(10.1092 2.35704 0)
(10.1473 2.59474 0)
(10.195 2.84401 0)
(10.2539 3.10508 0)
(10.3259 3.378 0)
(10.4131 3.66259 0)
(10.5179 3.95837 0)
(10.6428 4.26445 0)
(10.7908 4.57946 0)
(10.9647 4.90136 0)
(11.1676 5.22738 0)
(11.4023 5.5538 0)
(11.6716 5.87588 0)
(11.9771 6.18779 0)
(12.3199 6.48267 0)
(12.6995 6.75272 0)
(13.1083 6.98962 0)
(13.595 7.18655 0)
(10.0005 0.160505 0)
(10.0023 0.318872 0)
(10.0056 0.477003 0)
(10.0104 0.636617 0)
(10.017 0.799102 0)
(10.0258 0.965657 0)
(10.0373 1.13737 0)
(10.0521 1.3152 0)
(10.0709 1.50003 0)
(10.0943 1.69261 0)
(10.1234 1.89359 0)
(10.159 2.10352 0)
(10.2023 2.32283 0)
(10.2546 2.55182 0)
(10.3172 2.79062 0)
(10.3916 3.03921 0)
(10.4797 3.29734 0)
(10.5831 3.5645 0)
(10.7041 3.83985 0)
(10.8445 4.12218 0)
(11.0067 4.40978 0)
(11.1928 4.70042 0)
(11.4049 4.9912 0)
(11.6448 5.27856 0)
(11.9137 5.55822 0)
(12.2123 5.82521 0)
(12.5401 6.07401 0)
(12.8958 6.29875 0)
(13.2723 6.49341 0)
(13.7114 6.65385 0)
(10.001 0.159282 0)
(10.0044 0.316399 0)
(10.0106 0.473149 0)
(10.0194 0.631158 0)
(10.031 0.791729 0)
(10.0459 0.955974 0)
(10.0643 1.12488 0)
(10.087 1.29932 0)
(10.1146 1.48005 0)
(10.1478 1.66771 0)
(10.1874 1.86279 0)
(10.2343 2.0657 0)
(10.2897 2.27669 0)
(10.3547 2.49586 0)
(10.4305 2.72315 0)
(10.5184 2.9583 0)
(10.6201 3.20083 0)
(10.737 3.44999 0)
(10.8708 3.7047 0)
(11.023 3.96355 0)
(11.1954 4.2247 0)
(11.3894 4.48588 0)
(11.6062 4.74432 0)
(11.8468 4.99677 0)
(12.1115 5.23952 0)
(12.4001 5.46848 0)
(12.7115 5.67934 0)
(13.0438 5.86775 0)
(13.3908 6.0295 0)
(13.789 6.16208 0)
(10.0015 0.157248 0)
(10.0065 0.312314 0)
(10.0153 0.466882 0)
(10.028 0.622475 0)
(10.0444 0.780305 0)
(10.0649 0.941394 0)
(10.09 1.10663 0)
(10.1201 1.27679 0)
(10.1559 1.45251 0)
(10.1981 1.6343 0)
(10.2473 1.82254 0)
(10.3046 2.01748 0)
(10.3708 2.21922 0)
(10.4469 2.42771 0)
(10.5341 2.6427 0)
(10.6336 2.86376 0)
(10.7466 3.09024 0)
(10.8742 3.32122 0)
(11.0179 3.55551 0)
(11.1787 3.79161 0)
(11.3578 4.02767 0)
(11.556 4.26152 0)
(11.7741 4.49062 0)
(12.0122 4.71214 0)
(12.2702 4.92296 0)
(12.5472 5.11982 0)
(12.8418 5.29941 0)
(13.152 5.45857 0)
(13.4724 5.5944 0)
(13.8355 5.7054 0)
(10.0019 0.154403 0)
(10.0084 0.306616 0)
(10.0199 0.458203 0)
(10.0361 0.610579 0)
(10.0571 0.764859 0)
(10.0829 0.921972 0)
(10.1141 1.08271 0)
(10.1511 1.24774 0)
(10.1945 1.4176 0)
(10.2448 1.59268 0)
(10.3028 1.77325 0)
(10.3692 1.95942 0)
(10.4449 2.15117 0)
(10.5308 2.3483 0)
(10.6278 2.55044 0)
(10.7368 2.75704 0)
(10.8588 2.96732 0)
(10.9948 3.18029 0)
(11.1457 3.3947 0)
(11.3123 3.60907 0)
(11.4952 3.82163 0)
(11.6949 4.0304 0)
(11.9116 4.23313 0)
(12.145 4.42741 0)
(12.3946 4.6107 0)
(12.6593 4.78044 0)
(12.9374 4.93415 0)
(13.2271 5.06955 0)
(13.5238 5.18468 0)
(13.8565 5.27867 0)
(10.0024 0.150751 0)
(10.0102 0.299318 0)
(10.0241 0.447137 0)
(10.0437 0.59551 0)
(10.0689 0.745455 0)
(10.0997 0.897805 0)
(10.1365 1.05326 0)
(10.1798 1.21238 0)
(10.2301 1.37561 0)
(10.2878 1.54323 0)
(10.3536 1.7154 0)
(10.4281 1.89214 0)
(10.512 2.07331 0)
(10.6061 2.25861 0)
(10.7111 2.44757 0)
(10.8278 2.63957 0)
(10.9569 2.83376 0)
(11.0991 3.02913 0)
(11.2549 3.22445 0)
(11.4249 3.41831 0)
(11.6094 3.60909 0)
(11.8084 3.79501 0)
(12.0218 3.97416 0)
(12.249 4.14453 0)
(12.4893 4.30409 0)
(12.7414 4.45086 0)
(13.0038 4.58301 0)
(13.2747 4.69892 0)
(13.5502 4.79729 0)
(13.8567 4.87766 0)
(10.0027 0.146307 0)
(10.0119 0.290446 0)
(10.0281 0.433727 0)
(10.0508 0.577335 0)
(10.0798 0.722189 0)
(10.1152 0.86903 0)
(10.1572 1.01846 0)
(10.2062 1.17096 0)
(10.2626 1.32686 0)
(10.3268 1.48637 0)
(10.3994 1.64956 0)
(10.4808 1.81633 0)
(10.5717 1.98649 0)
(10.6727 2.15965 0)
(10.7842 2.3353 0)
(10.9069 2.51275 0)
(11.0413 2.69116 0)
(11.1877 2.86954 0)
(11.3466 3.04671 0)
(11.5181 3.22137 0)
(11.7023 3.39208 0)
(11.8989 3.55731 0)
(12.1076 3.71544 0)
(12.3277 3.86483 0)
(12.5583 4.0039 0)
(12.7981 4.13114 0)
(13.0456 4.2452 0)
(13.2993 4.34497 0)
(13.5559 4.42957 0)
(13.8396 4.49885 0)
(10.0031 0.141087 0)
(10.0134 0.280038 0)
(10.0317 0.418034 0)
(10.0573 0.556143 0)
(10.0898 0.695188 0)
(10.1293 0.835819 0)
(10.1759 0.978553 0)
(10.23 1.12378 0)
(10.2918 1.27175 0)
(10.3617 1.42259 0)
(10.4402 1.57629 0)
(10.5275 1.7327 0)
(10.6242 1.89155 0)
(10.7307 2.05243 0)
(10.8474 2.21478 0)
(10.9745 2.37791 0)
(11.1126 2.541 0)
(11.2617 2.7031 0)
(11.422 2.86314 0)
(11.5934 3.01995 0)
(11.7758 3.17228 0)
(11.9689 3.31881 0)
(12.172 3.45823 0)
(12.3845 3.58922 0)
(12.6052 3.71054 0)
(12.8332 3.82107 0)
(13.0669 3.91983 0)
(13.305 4.00607 0)
(13.5447 4.07923 0)
(13.8083 4.13931 0)
(10.0034 0.135116 0)
(10.0148 0.268143 0)
(10.035 0.400134 0)
(10.0631 0.532044 0)
(10.0988 0.664602 0)
(10.142 0.798372 0)
(10.1927 0.933786 0)
(10.2513 1.07116 0)
(10.3178 1.21067 0)