/*--------------------------------*- C++ -*----------------------------------*\
  =========                 |
  \\      /  F ield         | OpenFOAM: The Open Source CFD Toolbox
   \\    /   O peration     | Website:  https://openfoam.org
    \\  /    A nd           | Version:  7
     \\/     M anipulation  |
\*---------------------------------------------------------------------------*/
FoamFile
{
    version     2.0;
    format      ascii;
    class       surfaceVectorField;
    location    "2.9";
    object      Uf;
}
// * * * * * * * * * * * * * * * * * * * * * * * * * * * * * * * * * * * * * //

dimensions      [0 1 -1 0 0 0 0];

internalField   nonuniform List<vector> 
5457
(
(9.92088 0.0251105 0)
(9.97124 0.038747 0)
(9.82401 0.0328283 0)
(9.92858 0.0485876 0)
(9.7096 0.039314 0)
(9.85547 0.0587716 0)
(9.57541 0.046014 0)
(9.75678 0.0705977 0)
(9.42135 0.0529517 0)
(9.63751 0.0830186 0)
(9.2475 0.0601693 0)
(9.49857 0.0959423 0)
(9.05357 0.0678142 0)
(9.33926 0.109619 0)
(8.83886 0.0760378 0)
(9.15868 0.124295 0)
(8.60245 0.0849735 0)
(8.95603 0.140174 0)
(8.34318 0.0947479 0)
(8.7303 0.157439 0)
(8.05975 0.10549 0)
(8.48032 0.176275 0)
(7.7507 0.11733 0)
(8.20468 0.196862 0)
(7.41446 0.130397 0)
(7.90185 0.219365 0)
(7.0494 0.144812 0)
(7.5702 0.243926 0)
(6.65393 0.160673 0)
(7.20808 0.270634 0)
(6.22662 0.178044 0)
(6.81389 0.2995 0)
(5.76634 0.196927 0)
(6.38623 0.330412 0)
(5.27249 0.217231 0)
(5.92408 0.36308 0)
(4.74531 0.238733 0)
(5.42703 0.39697 0)
(4.18615 0.261028 0)
(4.89559 0.43123 0)
(3.59793 0.283483 0)
(4.33159 0.464611 0)
(2.98553 0.305197 0)
(3.73857 0.495416 0)
(2.35611 0.325064 0)
(3.12226 0.521503 0)
(1.71911 0.342543 0)
(2.49107 0.540549 0)
(1.08436 0.361876 0)
(1.85587 0.551666 0)
(0.451858 0.348675 0)
(1.2455 0.563014 0)
(-0.145805 0.102466 0)
(0.608935 0.544869 0)
(-0.423588 -0.20707 0)
(0.0946971 0.259371 0)
(-0.402133 -0.361225 0)
(-0.133668 -0.0205174 0)
(-0.119667 -0.393865 0)
(9.99641 0.0516752 0)
(9.99705 0.0405071 0)
(9.95878 0.0708659 0)
(9.9785 0.0674593 0)
(9.89823 0.0879927 0)
(9.93376 0.0898769 0)
(9.81656 0.105992 0)
(9.86451 0.113564 0)
(9.71355 0.12493 0)
(9.77435 0.138525 0)
(9.58904 0.144863 0)
(9.66431 0.164658 0)
(9.44269 0.166099 0)
(9.53392 0.192344 0)
(9.27384 0.188977 0)
(9.38244 0.222043 0)
(9.08159 0.213792 0)
(9.20912 0.254161 0)
(8.86481 0.240824 0)
(9.01308 0.289076 0)
(8.62221 0.270345 0)
(8.79322 0.327164 0)
(8.35229 0.302614 0)
(8.54826 0.368796 0)
(8.05345 0.337862 0)
(8.27673 0.414324 0)
(7.72401 0.376265 0)
(7.97706 0.464052 0)
(7.36226 0.417903 0)
(7.64761 0.518192 0)
(6.96662 0.462706 0)
(7.28672 0.576806 0)
(6.53573 0.510382 0)
(6.89285 0.639721 0)
(6.06874 0.560325 0)
(6.46472 0.706419 0)
(5.56552 0.611511 0)
(6.00152 0.775897 0)
(5.02704 0.662372 0)
(5.50319 0.846509 0)
(4.45583 0.710695 0)
(4.97084 0.915789 0)
(3.85647 0.753526 0)
(4.40715 0.980288 0)
(3.23618 0.787183 0)
(3.81702 1.03544 0)
(2.60581 0.807489 0)
(3.20845 1.07547 0)
(1.9828 0.810457 0)
(2.5934 1.09313 0)
(1.4053 0.776888 0)
(1.99622 1.07707 0)
(0.929759 0.646395 0)
(1.41951 0.978402 0)
(0.439855 0.384332 0)
(0.937586 0.716804 0)
(0.0591711 -0.118611 0)
(0.443786 0.343533 0)
(0.174922 -0.33591 0)
(9.98903 0.0594355 0)
(9.99481 0.0458812 0)
(9.95433 0.0894839 0)
(9.97368 0.0848615 0)
(9.89728 0.118042 0)
(9.92983 0.119184 0)
(9.82044 0.14791 0)
(9.86355 0.153989 0)
(9.72413 0.179435 0)
(9.77733 0.190424 0)
(9.60817 0.21279 0)
(9.67223 0.228654 0)
(9.47229 0.248408 0)
(9.54805 0.269148 0)
(9.31601 0.28679 0)
(9.40426 0.312516 0)
(9.13861 0.328413 0)
(9.24027 0.359344 0)
(8.93916 0.373736 0)
(9.05541 0.410192 0)
(8.71655 0.423218 0)
(8.8488 0.465614 0)
(8.4695 0.477305 0)
(8.61941 0.526166 0)
(8.19657 0.536404 0)
(8.36605 0.592382 0)
(7.89622 0.600843 0)
(8.08741 0.664742 0)
(7.56681 0.670807 0)
(7.78209 0.743617 0)
(7.20673 0.746248 0)
(7.44863 0.829182 0)
(6.81447 0.826769 0)
(7.08558 0.921306 0)
(6.38879 0.911464 0)
(6.69161 1.01939 0)
(5.92896 0.998735 0)
(6.26564 1.12215 0)
(5.43508 1.08607 0)
(5.80705 1.22739 0)
(4.90851 1.1698 0)
(5.31603 1.33171 0)
(4.35241 1.24487 0)
(4.79395 1.43016 0)
(3.77258 1.30453 0)
(4.24396 1.51585 0)
(3.17873 1.33982 0)
(3.67182 1.5794 0)
(2.58664 1.33811 0)
(3.08634 1.60772 0)
(2.01988 1.27297 0)
(2.50295 1.58157 0)
(1.48696 1.09541 0)
(1.92876 1.46425 0)
(0.958312 0.769185 0)
(1.38527 1.21041 0)
(0.47988 0.202473 0)
(0.829556 0.80106 0)
(0.433733 0.134103 0)
(9.98515 0.0716203 0)
(9.99367 0.0531529 0)
(9.95038 0.113641 0)
(9.97087 0.102301 0)
(9.89435 0.154147 0)
(9.92689 0.147967 0)
(9.8188 0.19559 0)
(9.86183 0.193739 0)
(9.72439 0.23883 0)
(9.77743 0.241298 0)
(9.61108 0.284345 0)
(9.67463 0.291187 0)
(9.47869 0.332742 0)
(9.55338 0.34398 0)
(9.32688 0.384696 0)
(9.41329 0.400397 0)
(9.15515 0.440868 0)
(9.25393 0.461164 0)
(8.96282 0.501903 0)
(9.07475 0.526985 0)
(8.74907 0.568444 0)
(8.8751 0.598557 0)
(8.51294 0.641125 0)
(8.65419 0.676579 0)
(8.25335 0.720538 0)
(8.41112 0.761733 0)
(7.96915 0.807192 0)
(8.14488 0.854642 0)
(7.65907 0.901432 0)
(7.85443 0.955817 0)
(7.32182 1.00333 0)
(7.53864 1.06556 0)
(6.95611 1.11255 0)
(7.19635 1.18383 0)
(6.56076 1.22811 0)
(6.82643 1.31005 0)
(6.13482 1.34813 0)
(6.42781 1.44288 0)
(5.67779 1.46956 0)
(5.9996 1.57986 0)
(5.18996 1.58773 0)
(5.54129 1.71703 0)
(4.67285 1.69598 0)
(5.05303 1.84849 0)
(4.1298 1.78511 0)
(4.53596 1.96578 0)
(3.56667 1.84249 0)
(3.99274 2.05726 0)
(2.99208 1.8507 0)
(3.42763 2.10711 0)
(2.41588 1.78248 0)
(2.84767 2.09446 0)
(1.84057 1.60046 0)
(2.25627 1.98873 0)
(1.25941 1.27845 0)
(1.66035 1.75306 0)
(0.666788 0.789565 0)
(1.02399 1.36779 0)
(0.523048 0.78718 0)
(9.98337 0.0844157 0)
(9.99316 0.0612977 0)
(9.9482 0.13685 0)
(9.96958 0.119939 0)
(9.89313 0.18805 0)
(9.92574 0.176258 0)
(9.81904 0.24019 0)
(9.86197 0.23272 0)
(9.72659 0.294491 0)
(9.77961 0.291113 0)
(9.61585 0.351685 0)
(9.67936 0.352302 0)
(9.48665 0.412498 0)
(9.56122 0.417008 0)
(9.33872 0.477704 0)
(9.4249 0.486039 0)
(9.17163 0.548077 0)
(9.27001 0.560235 0)
(8.98483 0.624378 0)
(9.09611 0.640415 0)
(8.77768 0.707363 0)
(8.90264 0.727393 0)
(8.54943 0.797779 0)
(8.68896 0.821976 0)
(8.29924 0.896334 0)
(8.45433 0.924955 0)
(8.02623 1.00365 0)
(8.19795 1.03706 0)
(7.72946 1.1202 0)
(7.91899 1.15891 0)
(7.40794 1.24615 0)
(7.61657 1.29091 0)
(7.06066 1.38124 0)
(7.28974 1.43312 0)
(6.6866 1.52455 0)
(6.93752 1.58507 0)
(6.28477 1.67414 0)
(6.55889 1.74545 0)
(5.85432 1.82674 0)
(6.1528 1.91183 0)
(5.39467 1.9772 0)
(5.71817 2.0801 0)
(4.90573 2.11799 0)
(5.25405 2.24402 0)
(4.38825 2.23855 0)
(4.75973 2.39454 0)
(3.84397 2.3245 0)
(4.23497 2.51914 0)
(3.27547 2.35692 0)
(3.67993 2.60119 0)
(2.68544 2.31058 0)
(3.09577 2.61967 0)
(2.07273 2.15501 0)
(2.48175 2.54731 0)
(1.42941 1.86742 0)
(1.83997 2.35374 0)
(0.742631 1.4196 0)
(1.1314 2.02456 0)
(0.543324 1.51454 0)
(9.98264 0.0975078 0)
(9.99299 0.0698004 0)
(9.94743 0.159791 0)
(9.96924 0.137598 0)
(9.89353 0.221369 0)
(9.92596 0.203947 0)
(9.82131 0.284118 0)
(9.86379 0.270714 0)
(9.7313 0.349377 0)
(9.78383 0.339613 0)
(9.62362 0.418051 0)
(9.6866 0.411731 0)
(9.49813 0.490972 0)
(9.57213 0.487939 0)
(9.35458 0.569008 0)
(9.44015 0.569142 0)
(9.19261 0.653036 0)
(9.29035 0.656271 0)
(9.01174 0.743927 0)
(9.12233 0.750249 0)
(8.8114 0.842541 0)
(8.93561 0.851988 0)
(8.59097 0.949728 0)
(8.72961 0.962392 0)
(8.34973 1.06629 0)
(8.50369 1.08234 0)
(8.08693 1.19296 0)
(8.25715 1.21265 0)
(7.80179 1.3303 0)
(7.98924 1.35404 0)
(7.49347 1.47858 0)
(7.69916 1.50701 0)
(7.16107 1.63765 0)
(7.38604 1.67173 0)
(6.80362 1.8067 0)
(7.04891 1.84787 0)
(6.42002 1.98391 0)
(6.68664 2.0343 0)
(6.00906 2.16607 0)
(6.29792 2.22876 0)
(5.56936 2.34803 0)
(5.88113 2.4274 0)
(5.09944 2.52213 0)
(5.43431 2.62417 0)
(4.59775 2.6775 0)
(4.95511 2.81021 0)
(4.06273 2.79944 0)
(4.44087 2.97315 0)
(3.49275 2.86907 0)
(3.88857 3.09657 0)
(2.88589 2.8629 0)
(3.2953 3.15986 0)
(2.23808 2.75394 0)
(2.65697 3.1379 0)
(1.54249 2.52107 0)
(1.97491 3.00322 0)
(0.793675 2.13139 0)
(1.20729 2.74066 0)
(0.556761 2.2919 0)
(9.9825 0.110638 0)
(9.99301 0.0783703 0)
(9.9477 0.182343 0)
(9.96953 0.155054 0)
(9.89521 0.253843 0)
(9.92721 0.23091 0)
(9.82522 0.326798 0)
(9.86695 0.30754 0)
(9.73809 0.40259 0)
(9.78974 0.386558 0)
(9.63398 0.482272 0)
(9.69601 0.469188 0)
(9.51279 0.566798 0)
(9.58573 0.556441 0)
(9.3743 0.657133 0)
(9.45873 0.649315 0)
(9.21819 0.754252 0)
(9.31472 0.748831 0)
(9.04404 0.859121 0)
(9.15336 0.856004 0)
(8.85133 0.972693 0)
(8.97422 0.971839 0)
(8.6395 1.09591 0)
(8.77678 1.09733 0)
(8.40789 1.22966 0)
(8.56044 1.23344 0)
(8.15581 1.37475 0)
(8.32455 1.38109 0)
(7.8825 1.53186 0)
(8.06837 1.54108 0)
(7.58713 1.70136 0)
(7.7911 1.71403 0)
(7.26876 1.88326 0)
(7.49181 1.90027 0)
(6.9263 2.07692 0)
(7.1694 2.09965 0)
(6.55841 2.28079 0)
(6.82254 2.31132 0)
(6.16339 2.49197 0)
(6.44949 2.53341 0)
(5.73908 2.70575 0)
(6.04803 2.76255 0)
(5.28271 2.9149 0)
(5.61521 2.99336 0)
(4.79085 3.10907 0)
(5.14724 3.21774 0)
(4.25934 3.27413 0)
(4.63942 3.42417 0)
(3.68346 3.39181 0)
(4.08613 3.59707 0)
(3.05813 3.43966 0)
(3.48141 3.71649 0)
(2.37782 3.39181 0)
(2.81847 3.75812 0)
(1.63798 3.22622 0)
(2.09926 3.69402 0)
(0.839171 2.90093 0)
(1.27899 3.50456 0)
(0.573395 3.11381 0)
(9.98273 0.123596 0)
(9.99316 0.0868278 0)
(9.94872 0.204332 0)
(9.97026 0.172113 0)
(9.89792 0.285282 0)
(9.92925 0.257003 0)
(9.83048 0.368002 0)
(9.87121 0.343024 0)
(9.74667 0.453893 0)
(9.79712 0.43172 0)
(9.64663 0.544122 0)
(9.7073 0.524398 0)
(9.53032 0.639755 0)
(9.60175 0.622186 0)
(9.39754 0.741848 0)
(9.48031 0.726178 0)
(9.24803 0.851462 0)
(9.34277 0.837477 0)
(9.08142 0.96965 0)
(9.18883 0.957182 0)
(8.89724 1.09746 0)
(9.01812 1.08639 0)
(8.69496 1.23591 0)
(8.83016 1.22617 0)
(8.47398 1.386 0)
(8.6244 1.37761 0)
(8.23361 1.54864 0)
(8.40021 1.5417 0)
(7.97307 1.72459 0)
(8.15685 1.71938 0)
(7.69146 1.91442 0)
(7.89347 1.91141 0)
(7.3877 2.1183 0)
(7.60903 2.11832 0)
(7.06048 2.3359 0)
(7.30226 2.34023 0)
(6.70809 2.56604 0)
(6.97151 2.57668 0)
(6.32828 2.80638 0)
(6.6146 2.82633 0)
(5.91805 3.05293 0)
(6.22863 3.08658 0)
(5.47344 3.29941 0)
(5.8097 3.35304 0)
(4.98934 3.53654 0)
(5.35266 3.61884 0)
(4.45941 3.75131 0)
(4.85093 3.87386 0)
(3.87632 3.92639 0)
(4.29652 4.10383 0)
(3.23245 4.03983 0)
(3.68069 4.28962 0)
(2.52096 4.06501 0)
(2.99367 4.40677 0)
(1.73848 3.97621 0)
(2.23753 4.42464 0)
(0.889532 3.71887 0)
(1.36347 4.31641 0)
(0.598805 3.98506 0)
(9.98321 0.13622 0)
(9.99339 0.0950522 0)
(9.95031 0.225598 0)
(9.97131 0.188612 0)
(9.90149 0.315531 0)
(9.93192 0.282082 0)
(9.83691 0.407545 0)
(9.87641 0.377001 0)
(9.7568 0.50306 0)
(9.80576 0.474889 0)
(9.6613 0.603329 0)
(9.72025 0.577104 0)
(9.55039 0.709514 0)
(9.61989 0.684873 0)
(9.42395 0.822758 0)
(9.50457 0.799377 0)
(9.28174 0.944201 0)
(9.37413 0.921796 0)
(9.12344 1.07498 0)
(9.22832 1.05331 0)
(8.94866 1.21624 0)
(9.06683 1.19509 0)
(8.75691 1.36908 0)
(8.88923 1.34832 0)
(8.5476 1.53461 0)
(8.69504 1.51415 0)
(8.32008 1.71385 0)
(8.48365 1.69373 0)
(8.07353 1.90773 0)
(8.25432 1.8881 0)
(7.80696 2.11699 0)
(8.00617 2.09825 0)
(7.51916 2.3421 0)
(7.73807 2.32492 0)
(7.20853 2.58307 0)
(7.44855 2.56861 0)
(6.87297 2.83928 0)
(7.13569 2.82935 0)
(6.50967 3.10914 0)
(6.79688 3.1065 0)
(6.11482 3.38966 0)
(6.42858 3.39846 0)
(5.6833 3.67586 0)
(6.026 3.70212 0)
(5.20842 3.96005 0)
(5.5827 4.0123 0)
(4.68175 4.23085 0)
(5.09029 4.32079 0)
(4.09332 4.47221 0)
(4.5383 4.61524 0)
(3.43259 4.6625 0)
(3.91478 4.87777 0)
(2.69022 4.77317 0)
(3.2058 5.08356 0)
(1.86194 4.77249 0)
(2.4114 5.19803 0)
(0.954234 4.58987 0)
(1.47638 5.18446 0)
(0.639244 4.91967 0)
(9.98386 0.148387 0)
(9.99368 0.102957 0)
(9.95234 0.246 0)
(9.9726 0.20442 0)
(9.90577 0.344439 0)
(9.93509 0.306007 0)
(9.84434 0.445247 0)
(9.88239 0.409317 0)
(9.76829 0.549867 0)
(9.81548 0.515872 0)
(9.67774 0.65962 0)
(9.73466 0.627074 0)
(9.57274 0.775752 0)
(9.63992 0.744226 0)
(9.45319 0.899484 0)
(9.53121 0.868587 0)
(9.31891 1.03203 0)
(9.40843 1.00141 0)
(9.16966 1.17462 0)
(9.2714 1.14394 0)
(9.00508 1.32845 0)
(9.11985 1.29745 0)
(8.82476 1.49476 0)
(8.95345 1.46318 0)
(8.62817 1.67474 0)
(8.77176 1.64241 0)
(8.41466 1.86956 0)
(8.57424 1.83639 0)
(8.18341 2.08032 0)
(8.36017 2.04635 0)
(7.9334 2.30802 0)
(8.12868 2.27348 0)
(7.66328 2.55344 0)
(7.87859 2.51883 0)
(7.37125 2.81708 0)
(7.60833 2.78331 0)
(7.05489 3.09899 0)
(7.31578 3.06757 0)
(6.71089 3.39849 0)
(6.99803 3.37181 0)
(6.33471 3.71389 0)
(6.65105 3.69559 0)
(5.92021 4.04189 0)
(6.26932 4.03744 0)
(5.45918 4.37686 0)
(5.84528 4.39428 0)
(4.94103 4.7097 0)
(5.36883 4.76049 0)
(4.35274 5.02638 0)
(4.8268 5.12653 0)
(3.67966 5.30609 0)
(4.20325 5.47691 0)
(2.90761 5.51818 0)
(3.47803 5.7874 0)
(2.02777 5.62312 0)
(2.64519 6.01956 0)
(1.04517 5.52965 0)
(1.63785 6.12412 0)
(0.704542 5.94335 0)
(9.98464 0.160002 0)
(9.99402 0.110478 0)
(9.95472 0.265415 0)
(9.97408 0.219429 0)
(9.91063 0.371866 0)
(9.93866 0.328654 0)
(9.85264 0.480939 0)
(9.88902 0.43983 0)
(9.78096 0.594109 0)
(9.82615 0.554497 0)
(9.69575 0.712751 0)
(9.75033 0.674097 0)
(9.59709 0.838183 0)
(9.6616 0.799995 0)
(9.48493 0.971693 0)
(9.55994 0.933517 0)
(9.35916 1.11457 0)
(9.44532 1.07598 0)
(9.2196 1.2681 0)
(9.31763 1.22869 0)
(9.06597 1.43359 0)
(9.17669 1.39299 0)
(8.89793 1.61234 0)
(9.02223 1.57022 0)
(8.71502 1.80567 0)
(8.8539 1.76174 0)
(8.51665 2.01491 0)
(8.67124 1.96894 0)
(8.30204 2.24136 0)
(8.47362 2.19322 0)
(8.07017 2.48627 0)
(8.2602 2.43599 0)
(7.81966 2.75083 0)
(8.02987 2.69866 0)
(7.54861 3.03608 0)
(7.78105 2.98259 0)
(7.25444 3.34283 0)
(7.51159 3.28908 0)
(6.93351 3.67152 0)
(7.21847 3.61931 0)
(6.58081 4.02195 0)
(6.89745 3.97417 0)
(6.1894 4.39289 0)
(6.54261 4.35408 0)
(5.74978 4.78137 0)
(6.14566 4.75853 0)
(5.24921 5.18149 0)
(5.69511 5.18527 0)
(4.67111 5.58262 0)
(5.17521 5.62896 0)
(3.99513 5.96644 0)
(4.56531 6.07861 0)
(3.19868 6.30172 0)
(3.83663 6.51351 0)
(2.26201 6.54084 0)
(2.97115 6.89414 0)
(1.18076 6.5654 0)
(1.87941 7.15812 0)
(0.812949 7.09983 0)
(9.98553 0.170987 0)
(9.9944 0.117563 0)
(9.95737 0.283736 0)
(9.97571 0.233552 0)
(9.91599 0.397686 0)
(9.94257 0.349916 0)
(9.86166 0.514474 0)
(9.89621 0.468411 0)
(9.79464 0.635606 0)
(9.83761 0.590611 0)
(9.71511 0.762508 0)
(9.76708 0.71799 0)
(9.62317 0.896552 0)
(9.68468 0.851964 0)
(9.51884 1.03909 0)
(9.59046 0.993912 0)
(9.40209 1.19146 0)
(9.48444 1.1452 0)
(9.27279 1.35503 0)
(9.3666 1.30721 0)
(9.13077 1.53116 0)
(9.23682 1.48132 0)
(8.97577 1.72126 0)
(9.09496 1.66896 0)
(8.80742 1.92675 0)
(8.94075 1.87157 0)
(8.62523 2.14911 0)
(8.77384 2.09068 0)
(8.42852 2.38984 0)
(8.59374 2.32784 0)
(8.21635 2.65049 0)
(8.39974 2.5847 0)
(7.98742 2.93264 0)
(8.19085 2.86299 0)
(7.73991 3.23793 0)
(7.96565 3.16456 0)
(7.47124 3.568 0)
(7.72215 3.49139 0)
(7.17778 3.92447 0)
(7.45749 3.84563 0)
(6.85439 4.30886 0)
(7.16761 4.22961 0)
(6.4938 4.72232 0)
(6.84671 4.64578 0)
(6.08576 5.16518 0)
(6.48644 5.09661 0)
(5.61581 5.63596 0)
(6.07477 5.58406 0)
(5.06386 6.12951 0)
(5.59424 6.10867 0)
(4.40259 6.63356 0)
(5.01997 6.66723 0)
(3.59657 7.12116 0)
(4.31306 7.24833 0)
(2.60475 7.54081 0)
(3.43626 7.82023 0)
(1.39459 7.74088 0)
(2.25698 8.31541 0)
(1.00291 8.46574 0)
(9.9865 0.181278 0)
(9.9948 0.124174 0)
(9.96025 0.300874 0)
(9.97747 0.246715 0)
(9.92175 0.421789 0)
(9.94675 0.369698 0)
(9.8713 0.545719 0)
(9.90385 0.494951 0)
(9.80918 0.674202 0)
(9.84973 0.624082 0)
(9.73561 0.808703 0)
(9.78473 0.758596 0)
(9.65072 0.950639 0)
(9.70895 0.899945 0)
(9.55461 1.10141 0)
(9.62248 1.04955 0)
(9.44729 1.26241 0)
(9.52543 1.20883 0)
(9.32875 1.43505 0)
(9.41784 1.37919 0)
(9.1989 1.62076 0)
(9.29971 1.56208 0)
(9.05759 1.82102 0)
(9.17098 1.75897 0)
(8.90457 2.03736 0)
(9.03153 1.9714 0)
(8.73949 2.27139 0)
(8.88116 2.20098 0)
(8.56182 2.5248 0)
(8.71952 2.44942 0)
(8.3708 2.79942 0)
(8.54611 2.71858 0)
(8.16534 3.09722 0)
(8.36017 3.01049 0)
(7.94383 3.42041 0)
(8.1606 3.32741 0)
(7.70401 3.77144 0)
(7.94575 3.67198 0)
(7.44258 4.15314 0)
(7.71327 4.04725 0)
(7.15481 4.56878 0)
(7.45973 4.45691 0)
(6.83382 5.02209 0)
(7.18009 4.90545 0)
(6.46956 5.51719 0)
(6.86698 5.39841 0)
(6.04717 6.05824 0)
(6.50937 5.9425 0)
(5.5444 6.6483 0)
(6.09028 6.54563 0)
(4.9276 7.28665 0)
(5.58359 7.21626 0)
(4.14569 7.96129 0)
(4.94324 7.96117 0)
(3.12251 8.63381 0)
(4.11025 8.77559 0)
(1.75682 9.12856 0)
(2.87943 9.62144 0)
(1.36536 10.1864 0)
(9.98753 0.190827 0)
(9.99523 0.13028 0)
(9.96331 0.316752 0)
(9.97931 0.258863 0)
(9.92783 0.444083 0)
(9.95113 0.387924 0)
(9.88144 0.574565 0)
(9.91185 0.519358 0)
(9.82444 0.709768 0)
(9.86239 0.654801 0)
(9.75705 0.851185 0)
(9.80311 0.795783 0)
(9.67949 1.00027 0)
(9.73417 0.943786 0)
(9.5919 1.15846 0)
(9.65572 1.10026 0)
(9.49437 1.32719 0)
(9.56792 1.26665 0)
(9.38699 1.5079 0)
(9.47092 1.4444 0)
(9.26976 1.70207 0)
(9.3648 1.63499 0)
(9.14267 1.91124 0)
(9.24964 1.83993 0)
(9.00561 2.13703 0)
(9.12546 2.06081 0)
(8.85842 2.38115 0)
(8.99222 2.29933 0)
(8.70076 2.64546 0)
(8.84979 2.55731 0)
(8.53213 2.93201 0)
(8.69792 2.83677 0)
(8.35176 3.24312 0)
(8.53619 3.13996 0)
(8.15848 3.58147 0)
(8.36391 3.46952 0)
(7.95055 3.95025 0)
(8.18002 3.82854 0)
(7.72544 4.35335 0)
(7.98294 4.22086 0)
(7.4794 4.79561 0)
(7.7703 4.65125 0)
(7.20687 5.28324 0)
(7.53863 5.12592 0)
(6.89949 5.82422 0)
(7.28271 5.65309 0)
(6.54431 6.42892 0)
(6.99454 6.2439 0)
(6.12059 7.11079 0)
(6.66145 6.91389 0)
(5.59359 7.88702 0)
(6.26287 7.68535 0)
(4.9018 8.77754 0)
(5.7584 8.59185 0)
(3.92809 9.80174 0)
(5.08873 9.68476 0)
(2.43438 10.858 0)
(3.9814 11.0499 0)
(2.1477 12.5708 0)
(9.98861 0.199594 0)
(9.99567 0.135857 0)
(9.96651 0.331312 0)
(9.98123 0.269949 0)
(9.93418 0.464486 0)
(9.95569 0.404534 0)
(9.89198 0.600905 0)
(9.92014 0.541556 0)
(9.84025 0.742165 0)
(9.87548 0.682679 0)
(9.77925 0.889781 0)
(9.8221 0.829449 0)
(9.70922 1.04523 0)
(9.76019 0.983366 0)
(9.63038 1.20998 0)
(9.68999 1.1459 0)
(9.54292 1.38548 0)
(9.61171 1.31851 0)
(9.44699 1.57319 0)
(9.5256 1.50266 0)
(9.34274 1.77464 0)
(9.43186 1.69983 0)
(9.23027 1.99139 0)
(9.33068 1.91157 0)
(9.10966 2.22512 0)
(9.22225 2.1395 0)
(8.98093 2.47762 0)
(9.10671 2.38535 0)
(8.84401 2.75085 0)
(8.9842 2.65101 0)
(8.69873 3.04705 0)
(8.85475 2.9386 0)
(8.54473 3.36875 0)
(8.71834 3.25051 0)
(8.38141 3.71901 0)
(8.57481 3.58959 0)
(8.20782 4.10151 0)
(8.42384 3.95926 0)
(8.02251 4.52092 0)
(8.26483 4.36377 0)
(7.82331 4.98329 0)
(8.09691 4.80859 0)
(7.60692 5.49666 0)
(7.91871 5.30097 0)
(7.36834 6.07208 0)
(7.72827 5.85076 0)
(7.09967 6.72522 0)
(7.52275 6.47189 0)
(6.78779 7.4793 0)
(7.29793 7.18496 0)
(6.40918 8.37111 0)
(7.0484 8.02237 0)
(5.91687 9.46522 0)
(6.76406 9.04068 0)
(5.19825 10.9083 0)
(6.46412 10.3558 0)
(3.88726 13.1813 0)
(6.19425 12.3036 0)
(5.267 16.3781 0)
(0.244752 -0.155101 0)
(0.14032 -0.23972 0)
(0.473021 -0.131754 0)
(0.33625 -0.218294 0)
(0.666861 -0.106121 0)
(0.535317 -0.180992 0)
(0.82894 -0.0847641 0)
(0.710359 -0.147762 0)
(0.964955 -0.0679036 0)
(0.856937 -0.121072 0)
(1.08003 -0.054718 0)
(0.980247 -0.100016 0)
(1.17846 -0.0444413 0)
(1.08598 -0.0835257 0)
(1.26376 -0.0364239 0)
(1.17831 -0.0706716 0)
(1.33863 -0.0300916 0)
(1.26015 -0.0605688 0)
(1.40499 -0.0249671 0)
(1.33357 -0.0524166 0)
(1.46411 -0.0207027 0)
(1.39999 -0.0455945 0)
(1.51686 -0.0170721 0)
(1.46032 -0.0397201 0)
(1.56391 -0.0138731 0)
(1.51521 -0.0345924 0)
(1.6056 -0.0107704 0)
(1.56522 -0.0299218 0)
(1.64127 -0.00725992 0)
(1.61066 -0.0250054 0)
(1.66885 -0.00297235 0)
(1.65092 -0.0188761 0)
(1.68578 0.00182589 0)
(1.684 -0.0113058 0)
(1.69152 0.00603238 0)
(1.70759 -0.00374712 0)
(1.68809 0.00853776 0)
(1.72127 0.00218444 0)
(1.67862 0.00926162 0)
(1.72767 0.0058882 0)
(1.66476 0.00893595 0)
(1.72993 0.00841475 0)
(1.64766 0.0079303 0)
(1.72818 0.01014 0)
(1.6313 0.00596579 0)
(1.72376 0.00947165 0)
(1.62123 0.0028747 0)
(1.72083 0.00569315 0)
(1.62165 -0.000685888 0)
(1.72257 -0.000229973 0)
(1.63556 -0.00398354 0)
(1.73179 -0.00749634 0)
(1.66222 -0.00681059 0)
(1.74918 -0.0140267 0)
(1.69989 -0.00878923 0)
(1.77408 -0.0193514 0)
(1.74455 -0.00900037 0)
(1.80499 -0.0224024 0)
(1.84822 -0.0209306 0)
(0.211061 -0.341198 0)
(0.106619 -0.446441 0)
(0.415304 -0.300046 0)
(0.28148 -0.413614 0)
(0.592301 -0.248043 0)
(0.447534 -0.346258 0)
(0.74312 -0.203461 0)
(0.595042 -0.285258 0)
(0.87266 -0.168031 0)
(0.71983 -0.23638 0)
(0.985305 -0.140299 0)
(0.826423 -0.197917 0)
(1.08461 -0.118706 0)
(0.919176 -0.167795 0)
(1.17342 -0.101864 0)
(1.00126 -0.144253 0)
(1.25389 -0.0885166 0)
(1.07494 -0.125667 0)
(1.32753 -0.0776058 0)
(1.14187 -0.110581 0)
(1.39529 -0.0683813 0)
(1.2031 -0.0978523 0)
(1.45781 -0.0604225 0)
(1.25925 -0.0867978 0)
(1.51575 -0.053424 0)
(1.31067 -0.077193 0)
(1.56991 -0.0467409 0)
(1.35784 -0.0687953 0)
(1.6206 -0.0391793 0)
(1.40164 -0.0605382 0)
(1.66672 -0.0297566 0)
(1.44267 -0.050436 0)
(1.7058 -0.0190841 0)
(1.47986 -0.0374158 0)
(1.73603 -0.00923099 0)
(1.51034 -0.0234716 0)
(1.75908 -0.00114249 0)
(1.53166 -0.0124974 0)
(1.77785 0.00607262 0)
(1.5471 -0.00578381 0)
(1.79296 0.0114734 0)
(1.55984 -0.000763264 0)
(1.80288 0.0130578 0)
(1.5643 0.00425956 0)
(1.81124 0.0103015 0)
(1.55992 0.00463302 0)
(1.82063 0.00354928 0)
(1.54907 0.000384208 0)
(1.83205 -0.00568778 0)
(1.53651 -0.00653232 0)
(1.84521 -0.0158517 0)
(1.52499 -0.0145869 0)
(1.86095 -0.0256315 0)
(1.51478 -0.0223104 0)
(1.8797 -0.0334146 0)
(1.50617 -0.0289853 0)
(1.90276 -0.036331 0)
(1.50156 -0.0339677 0)
(1.50972 -0.0327985 0)
(0.167182 -0.528269 0)
(0.0752282 -0.610186 0)
(0.32541 -0.469271 0)
(0.21289 -0.564928 0)
(0.460743 -0.392068 0)
(0.328742 -0.47262 0)
(0.575693 -0.325411 0)
(0.433239 -0.390055 0)
(0.674267 -0.272152 0)
(0.519801 -0.324124 0)
(0.75974 -0.230179 0)
(0.593161 -0.272203 0)
(0.834832 -0.197225 0)
(0.656137 -0.231517 0)
(0.90168 -0.171249 0)
(0.710838 -0.199641 0)
(0.961896 -0.150403 0)
(0.758891 -0.17438 0)
(1.01657 -0.133109 0)
(0.801524 -0.153768 0)
(1.06629 -0.118249 0)
(0.839546 -0.136194 0)
(1.11128 -0.105311 0)
(0.873301 -0.120674 0)
(1.15192 -0.0941661 0)
(0.902702 -0.107074 0)
(1.18924 -0.0841806 0)
(0.927306 -0.0955851 0)
(1.22442 -0.0732548 0)
(0.94812 -0.0851972 0)
(1.25701 -0.0587071 0)
(0.967261 -0.0727401 0)
(1.28426 -0.0412108 0)
(0.986015 -0.0556218 0)
(1.3036 -0.0266412 0)
(1.00303 -0.036085 0)
(1.31775 -0.0190753 0)
(1.00191 -0.0215167 0)
(1.32887 -0.0150518 0)
(0.976679 -0.0126996 0)
(1.32964 -0.01022 0)
(0.947457 -0.00122819 0)
(1.31944 -0.00615267 0)
(0.920229 0.0103062 0)
(1.29523 -0.00604064 0)
(0.886927 0.0186497 0)
(1.26333 -0.00959277 0)
(0.846306 0.0184131 0)
(1.22933 -0.0142684 0)
(0.804733 0.0122347 0)
(1.1945 -0.0180021 0)
(0.767231 0.00417882 0)
(1.16015 -0.0210928 0)
(0.742807 -0.00423915 0)
(1.12821 -0.02425 0)
(0.723653 -0.0125736 0)
(1.10581 -0.0261777 0)
(0.714252 -0.0227336 0)
(0.722561 -0.034628 0)
(0.12058 -0.66082 0)
(0.0451784 -0.728286 0)
(0.225174 -0.582576 0)
(0.137096 -0.664951 0)
(0.310053 -0.48484 0)
(0.194238 -0.551873 0)
(0.380699 -0.402035 0)
(0.249811 -0.454461 0)
(0.439863 -0.336105 0)
(0.290668 -0.376788 0)
(0.489561 -0.284102 0)
(0.323167 -0.315396 0)
(0.531579 -0.243227 0)
(0.348234 -0.267172 0)
(0.56732 -0.210965 0)
(0.367051 -0.229254 0)
(0.597888 -0.185036 0)
(0.380646 -0.199108 0)
(0.624068 -0.16343 0)
(0.389905 -0.174446 0)
(0.646201 -0.144608 0)
(0.395577 -0.153263 0)
(0.66408 -0.127837 0)
(0.398151 -0.134137 0)
(0.677207 -0.113277 0)
(0.397572 -0.116725 0)
(0.686077 -0.101215 0)
(0.391 -0.101953 0)
(0.693088 -0.0904972 0)
(0.377495 -0.0901113 0)
(0.699908 -0.0780102 0)
(0.356488 -0.0774071 0)
(0.7046 -0.0602611 0)
(0.332352 -0.0587567 0)
(0.695501 -0.0369629 0)
(0.309628 -0.0301491 0)
(0.657939 -0.0139037 0)
(0.281738 0.00240988 0)
(0.597288 0.00440086 0)
(0.238591 0.0250219 0)
(0.536362 0.0212874 0)
(0.192266 0.0357692 0)
(0.482727 0.0359636 0)
(0.155778 0.0421072 0)
(0.432815 0.0426589 0)
(0.121434 0.047544 0)
(0.384692 0.0400706 0)
(0.0880219 0.045614 0)
(0.343389 0.0300695 0)
(0.0576649 0.0350291 0)
(0.317095 0.0160762 0)
(0.0330668 0.0183473 0)
(0.304925 0.00119063 0)
(0.0258627 0.00216399 0)
(0.309804 -0.0149272 0)
(0.0278675 -0.0150802 0)
(0.32946 -0.0335737 0)
(0.0363351 -0.032592 0)
(0.0539359 -0.0479084 0)
(0.0678574 -0.742536 0)
(0.0140149 -0.794749 0)
(0.112851 -0.644376 0)
(0.0527055 -0.707979 0)
(0.142294 -0.53106 0)
(0.0462188 -0.579365 0)
(0.162901 -0.437691 0)
(0.0483861 -0.473248 0)
(0.175989 -0.363292 0)
(0.0380375 -0.388438 0)
(0.182632 -0.304445 0)
(0.0235519 -0.32117 0)
(0.183768 -0.258075 0)
(0.00416593 -0.268136 0)
(0.180194 -0.221429 0)
(-0.019407 -0.226292 0)
(0.172622 -0.192059 0)
(-0.046611 -0.192982 0)
(0.161705 -0.167732 0)
(-0.0768779 -0.165823 0)
(0.14795 -0.14648 0)
(-0.109421 -0.142656 0)
(0.131365 -0.126836 0)
(-0.143233 -0.121648 0)
(0.110661 -0.108206 0)
(-0.177506 -0.101504 0)
(0.08267 -0.0905056 0)
(-0.213944 -0.0818594 0)
(0.0433909 -0.0720867 0)
(-0.253452 -0.0625808 0)
(-0.0065227 -0.0492974 0)
(-0.29781 -0.0432493 0)
(-0.0614576 -0.0198288 0)
(-0.343778 -0.0220504 0)
(-0.110688 0.0117986 0)
(-0.384831 0.00196845 0)
(-0.143492 0.035517 0)
(-0.411655 0.0233059 0)
(-0.166258 0.0474912 0)
(-0.431025 0.0391809 0)
(-0.189609 0.0530249 0)
(-0.448899 0.0499491 0)
(-0.212836 0.0561639 0)
(-0.463166 0.0558787 0)
(-0.230796 0.0545119 0)
(-0.474208 0.0579415 0)
(-0.243617 0.0448571 0)
(-0.481954 0.0528609 0)
(-0.251935 0.0278752 0)
(-0.487385 0.0396195 0)
(-0.25644 0.00795703 0)
(-0.491412 0.0207747 0)
(-0.252006 -0.0108079 0)
(-0.491434 -0.00016878 0)
(-0.245407 -0.0287034 0)
(-0.48637 -0.0184702 0)
(-0.236366 -0.0455737 0)
(-0.483594 -0.0371268 0)
(-0.483023 -0.0519889 0)
(0.00560119 -0.765623 0)
(-0.02093 -0.800235 0)
(-0.0109094 -0.647508 0)
(-0.0416934 -0.69219 0)
(-0.0397812 -0.522946 0)
(-0.111087 -0.552407 0)
(-0.073147 -0.423567 0)
(-0.166793 -0.442829 0)
(-0.111387 -0.344259 0)
(-0.230085 -0.354399 0)
(-0.1533 -0.281673 0)
(-0.293529 -0.284743 0)
(-0.198285 -0.232313 0)
(-0.35754 -0.229963 0)
(-0.245867 -0.193081 0)
(-0.421187 -0.186868 0)
(-0.29569 -0.161302 0)
(-0.483767 -0.152677 0)
(-0.347252 -0.134728 0)
(-0.54472 -0.125096 0)
(-0.39969 -0.111509 0)
(-0.603413 -0.102215 0)
(-0.451765 -0.0903102 0)
(-0.659026 -0.0824361 0)
(-0.501978 -0.070489 0)
(-0.710797 -0.0645866 0)
(-0.54917 -0.051946 0)
(-0.758299 -0.0479824 0)
(-0.592664 -0.0345342 0)
(-0.801275 -0.0320961 0)
(-0.632215 -0.0175802 0)
(-0.839743 -0.0161833 0)
(-0.665718 -0.000336725 0)
(-0.872001 0.00033555 0)
(-0.688955 0.0175528 0)
(-0.895256 0.0171283 0)
(-0.704364 0.0350844 0)
(-0.909949 0.033121 0)
(-0.715882 0.0490403 0)
(-0.920836 0.0463443 0)
(-0.724336 0.0570284 0)
(-0.927743 0.0550828 0)
(-0.72998 0.0594846 0)
(-0.930905 0.0592253 0)
(-0.731266 0.056197 0)
(-0.930416 0.0586861 0)
(-0.729437 0.0460438 0)
(-0.927399 0.0518271 0)
(-0.726973 0.030023 0)
(-0.923947 0.0382597 0)
(-0.725407 0.0109231 0)
(-0.921827 0.0199305 0)
(-0.72518 -0.00928456 0)
(-0.921244 -0.000287814 0)
(-0.723541 -0.0289768 0)
(-0.920445 -0.0193125 0)
(-0.722122 -0.0458564 0)
(-0.923097 -0.0378381 0)
(-0.927165 -0.0529981 0)
(-0.057747 -0.72286 0)
(-0.0616213 -0.743675 0)
(-0.141073 -0.59 0)
(-0.143324 -0.612505 0)
(-0.229166 -0.462653 0)
(-0.272792 -0.470153 0)
(-0.319499 -0.36278 0)
(-0.386095 -0.360476 0)
(-0.408803 -0.284154 0)
(-0.497769 -0.274906 0)
(-0.495824 -0.222913 0)
(-0.602721 -0.209112 0)
(-0.579379 -0.175434 0)
(-0.700355 -0.159059 0)
(-0.658437 -0.138667 0)
(-0.790088 -0.121366 0)
(-0.732204 -0.109986 0)
(-0.871643 -0.0930017 0)
(-0.80016 -0.0872106 0)
(-0.945081 -0.0714196 0)
(-0.861975 -0.0685338 0)
(-1.01068 -0.0545427 0)
(-0.917433 -0.0524768 0)
(-1.06876 -0.0406763 0)
(-0.966498 -0.0379155 0)
(-1.11956 -0.0285134 0)
(-1.00943 -0.0240556 0)
(-1.16329 -0.0171662 0)
(-1.04665 -0.0103655 0)
(-1.20056 -0.00600668 0)
(-1.07754 0.00342729 0)
(-1.23182 0.00495806 0)
(-1.10112 0.017377 0)
(-1.25667 0.0160896 0)
(-1.11778 0.0310846 0)
(-1.27457 0.0279946 0)
(-1.12851 0.0434228 0)
(-1.28703 0.0399606 0)
(-1.13413 0.0527869 0)
(-1.29417 0.0498381 0)
(-1.13589 0.0579951 0)
(-1.29675 0.0561506 0)
(-1.13451 0.0586007 0)
(-1.29553 0.0584073 0)
(-1.13017 0.0539128 0)
(-1.29127 0.0561741 0)
(-1.12436 0.0432913 0)
(-1.28536 0.0485414 0)
(-1.11928 0.0275415 0)
(-1.27982 0.0354576 0)
(-1.1165 0.00890434 0)
(-1.27638 0.0184301 0)
(-1.11633 -0.010238 0)
(-1.27575 -0.000374336 0)
(-1.11771 -0.0288989 0)
(-1.27742 -0.018602 0)
(-1.12016 -0.0454404 0)
(-1.28269 -0.0366105 0)
(-1.28757 -0.0510887 0)
(-0.12652 -0.617435 0)
(-0.108362 -0.619756 0)
(-0.272696 -0.476244 0)
(-0.2495 -0.472716 0)
(-0.419269 -0.352328 0)
(-0.436133 -0.333294 0)
(-0.559154 -0.259157 0)
(-0.599923 -0.232948 0)
(-0.688286 -0.189302 0)
(-0.750812 -0.159961 0)
(-0.805336 -0.137379 0)
(-0.884988 -0.107383 0)
(-0.909992 -0.0990622 0)
(-1.00163 -0.0702496 0)
(-1.00259 -0.0710971 0)
(-1.1017 -0.0446435 0)
(-1.08392 -0.0507764 0)
(-1.1875 -0.0272075 0)
(-1.15501 -0.0357891 0)
(-1.2611 -0.0152718 0)
(-1.2169 -0.024283 0)
(-1.32433 -0.00681098 0)
(-1.27038 -0.014867 0)
(-1.37864 -0.000401341 0)
(-1.31589 -0.00653334 0)
(-1.42508 0.00493933 0)
(-1.35381 0.00148449 0)
(-1.46449 0.0100584 0)
(-1.38467 0.00972226 0)
(-1.49755 0.0156242 0)
(-1.40963 0.0185807 0)
(-1.52468 0.0220396 0)
(-1.42975 0.0282922 0)
(-1.54682 0.0295306 0)
(-1.44473 0.0383556 0)
(-1.56389 0.0377681 0)
(-1.45394 0.047377 0)
(-1.57554 0.0458299 0)
(-1.4579 0.0538693 0)
(-1.58189 0.0522955 0)
(-1.45771 0.0569168 0)
(-1.58363 0.056041 0)
(-1.45441 0.0559869 0)
(-1.58169 0.0564466 0)
(-1.44886 0.0504996 0)
(-1.57714 0.0529638 0)
(-1.4426 0.0401304 0)
(-1.57143 0.0450012 0)
(-1.43752 0.0255751 0)
(-1.56635 0.0326539 0)
(-1.4351 0.00852028 0)
(-1.56355 0.0171244 0)
(-1.43597 -0.00934219 0)
(-1.56407 8.52941e-05 0)
(-1.43934 -0.0270567 0)
(-1.5681 -0.0168713 0)
(-1.4451 -0.0425716 0)
(-1.57537 -0.0337221 0)
(-1.58067 -0.0465413 0)
(-0.19932 -0.452056 0)
(-0.163527 -0.424535 0)
(-0.406828 -0.312756 0)
(-0.369213 -0.274275 0)
(-0.606097 -0.203103 0)
(-0.610878 -0.147233 0)
(-0.786358 -0.12572 0)
(-0.808614 -0.0686093 0)
(-0.944495 -0.0712733 0)
(-0.978493 -0.0191986 0)
(-1.07948 -0.0348944 0)