/*--------------------------------*- C++ -*----------------------------------*\
  =========                 |
  \\      /  F ield         | OpenFOAM: The Open Source CFD Toolbox
   \\    /   O peration     | Website:  https://openfoam.org
    \\  /    A nd           | Version:  7
     \\/     M anipulation  |
\*---------------------------------------------------------------------------*/
FoamFile
{
    version     2.0;
    format      ascii;
    class       volScalarField;
    location    "3.4";
    object      p;
}
// * * * * * * * * * * * * * * * * * * * * * * * * * * * * * * * * * * * * * //

dimensions      [0 2 -2 0 0 0 0];

internalField   nonuniform List<scalar> 
2790
(
147.436
147.343
147.611
148.182
148.962
149.919
151.052
152.358
153.835
155.476
157.275
159.226
161.32
163.545
165.885
168.321
170.825
173.364
175.896
178.37
180.728
182.906
184.836
186.457
187.716
188.591
189.027
189.082
189.133
189.346
147.233
147.251
147.543
148.111
148.888
149.842
150.97
152.27
153.74
155.372
157.162
159.103
161.186
163.4
165.729
168.155
170.65
173.184
175.714
178.192
180.56
182.755
184.71
186.358
187.643
188.517
188.914
188.969
189.101
189.386
147.035
147.122
147.433
147.991
148.755
149.696
150.809
152.091
153.539
155.147
156.909
158.819
160.867
163.042
165.33
167.713
170.164
172.655
175.147
177.594
179.944
182.137
184.109
185.799
187.15
188.126
188.719
189.074
189.39
189.688
146.81
146.928
147.252
147.801
148.55
149.475
150.568
151.826
153.245
154.82
156.543
158.409
160.408
162.528
164.756
167.074
169.459
171.882
174.309
176.699
179.006
181.178
183.16
184.899
186.354
187.506
188.374
189.045
189.598
190.117
146.549
146.681
147.014
147.555
148.287
149.191
150.259
151.486
152.868
154.399
156.073
157.883
159.818
161.869
164.021
166.256
168.554
170.889
173.231
175.544
177.789
179.924
181.906
183.697
185.267
186.61
187.74
188.703
189.514
190.261
146.248
146.386
146.721
147.253
147.965
148.843
149.879
151.068
152.405
153.885
155.5
157.243
159.103
161.071
163.132
165.27
167.465
169.694
171.931
174.147
176.309
178.387
180.348
182.169
183.832
185.334
186.68
187.886
188.906
189.824
145.905
146.044
146.376
146.895
147.584
148.432
149.431
150.576
151.862
153.282
154.829
156.495
158.27
160.143
162.1
164.126
166.202
168.307
170.42
172.516
174.571
176.562
178.47
180.28
181.986
183.586
185.08
186.459
187.624
188.671
145.521
145.658
145.982
146.485
147.148
147.962
148.919
150.015
151.243
152.596
154.066
155.646
157.324
159.09
160.93
162.829
164.77
166.734
168.702
170.654
172.571
174.439
176.246
177.988
179.666
181.285
182.84
184.312
185.562
186.713
145.094
145.228
145.541
146.024
146.659
147.435
148.346
149.387
150.55
151.829
153.215
154.7
156.272
157.92
159.631
161.39
163.179
164.982
166.782
168.56
170.304
172.002
173.649
175.25
176.811
178.346
179.854
181.325
182.596
183.834
144.628
144.756
145.056
145.517
146.12
146.854
147.715
148.696
149.79
150.989
152.284
153.665
155.122
156.642
158.212
159.816
161.437
163.059
164.665
166.239
167.767
169.241
170.659
172.027
173.359
174.678
175.998
177.335
178.536
179.84
144.123
144.244
144.529
144.965
145.533
146.224
147.031
147.948
148.967
150.08
151.277
152.548
153.882
155.264
156.682
158.118
159.555
160.976
162.363
163.697
164.965
166.155
167.262
168.289
169.253
170.181
171.111
172.11
173.072
174.39
143.58
143.695
143.963
144.372
144.903
145.546
146.296
147.145
148.085
149.108
150.202
151.357
152.56
153.797
155.052
156.309
157.547
158.748
159.89
160.952
161.914
162.756
163.464
164.029
164.455
164.764
165.006
165.314
165.695
166.868
143.003
143.11
143.36
143.74
144.232
144.826
145.516
146.294
147.152
148.08
149.066
150.1
151.166
152.251
153.336
154.403
155.429
156.393
157.269
158.028
158.641
159.075
159.297
159.271
158.967
158.369
157.493
156.499
155.55
156.054
142.394
142.493
142.723
143.072
143.523
144.066
144.694
145.399
146.172
147.002
147.877
148.785
149.711
150.638
151.546
152.416
153.221
153.935
154.526
154.958
155.188
155.165
154.827
154.094
152.87
151.04
148.476
145.171
141.22
139.181
141.755
141.845
142.055
142.372
142.781
143.271
143.835
144.465
145.151
145.881
146.643
147.423
148.204
148.97
149.698
150.365
150.943
151.399
151.695
151.786
151.613
151.103
150.157
148.642
146.363
143.03
138.184
131.164
120.694
108.459
1.99883
1.97283
1.88436
1.76113
1.62961
1.50199
1.38203
1.2704
1.16662
1.06967
0.978288
0.891388
0.808292
0.72884
0.653277
0.581985
0.515264
0.453514
0.39787
0.350544
0.313249
0.286705
0.266393
0.246406
0.223531
0.196252
0.163628
0.126013
0.0825166
0.0334286
1.9329
1.90298
1.82032
1.7073
1.58611
1.4673
1.35455
1.24875
1.1496
1.0562
0.967457
0.882426
0.800596
0.722002
0.647089
0.576326
0.509868
0.447856
0.391471
0.343666
0.308075
0.283962
0.266106
0.247898
0.225883
0.198996
0.167032
0.129137
0.0847281
0.0334519
1.86465
1.82902
1.74986
1.64597
1.53529
1.42593
1.32117
1.222
1.12822
1.03904
0.953481
0.870733
0.790449
0.712902
0.638824
0.568875
0.503081
0.441212
0.384424
0.336624
0.302192
0.280389
0.264072
0.24715
0.226311
0.20021
0.168699
0.131245
0.0869532
0.0328406
1.80433
1.76302
1.68592
1.58917
1.48749
1.38647
1.28895
1.19592
1.10721
1.0221
0.939702
0.859287
0.780628
0.704186
0.630972
0.561931
0.497089
0.435644
0.377776
0.327766
0.293958
0.277768
0.267114
0.252536
0.231855
0.204806
0.171788
0.13324
0.087854
0.0324664
1.77101
1.72414
1.64911
1.55685
1.46087
1.36495
1.27184
1.18248
1.09679
1.01412
0.933628
0.854685
0.777121
0.70146
0.628785
0.560179
0.49599
0.436032
0.381099
0.334784
0.298976
0.277192
0.265429
0.252147
0.232966
0.206252
0.172803
0.133817
0.0876963
0.0317118
1.77982
1.72576
1.65196
1.55952
1.46384
1.3679
1.2747
1.18524
1.09949
1.01687
0.936578
0.858
0.780968
0.705919
0.633739
0.565286
0.501048
0.441339
0.387415
0.342501
0.309162
0.286931
0.271424
0.255449
0.234492
0.206537
0.171777
0.131177
0.0837284
0.0283677
1.83872
1.77589
1.69583
1.59737
1.49483
1.39298
1.29477
1.20121
1.11219
1.02709
0.945119
0.865675
0.788522
0.713907
0.642415
0.574652
0.511046
0.452095
0.399023
0.35366
0.318645
0.294032
0.275293
0.256593
0.233752
0.20461
0.168826
0.126878
0.0781818
0.0256876
1.94587
1.86809
1.77153
1.65821
1.54212
1.42897
1.32166
1.22108
1.1269
1.0382
0.953953
0.87336
0.796007
0.721866
0.651177
0.584286
0.521584
0.463668
0.411473
0.36645
0.33011
0.302286
0.279488
0.257132
0.231577
0.200694
0.163499
0.119466
0.0705748
0.022801
2.08041
1.97758
1.85489
1.71955
1.58632
1.46038
1.34349
1.23566
1.13639
1.0445
0.958558
0.877482
0.800606
0.727582
0.658246
0.59262
0.530997
0.474015
0.422705
0.378208
0.341102
0.310559
0.283867
0.2576
0.228903
0.195818
0.156806
0.111062
0.0624302
0.0198395
2.20475
2.0689
1.92214
1.76543
1.61411
1.47509
1.35
1.23783
1.13641
1.04357
0.957479
0.876933
0.801264
0.729961
0.662509
0.598602
0.538445
0.482804
0.432701
0.388897
0.351251
0.318452
0.288181
0.257954
0.225807
0.190127
0.149045
0.10182
0.0540254
0.0168466
2.29521
2.12664
1.95193
1.7772
1.61475
1.46879
1.33964
1.22578
1.12463
1.03318
0.948849
0.870274
0.796997
0.728497
0.66381
0.602137
0.54362
0.489383
0.440708
0.398032
0.360442
0.326006
0.292533
0.258348
0.222483
0.183889
0.140602
0.0920554
0.0455853
0.013917
2.32244
2.12116
1.9211
1.73189
1.56601
1.42303
1.29922
1.19114
1.09601
1.01029
0.930644
0.855836
0.786354
0.7221
0.661468
0.602776
0.546059
0.493184
0.446171
0.40531
0.368692
0.333399
0.297084
0.258846
0.218908
0.177094
0.131602
0.0820242
0.0371568
0.0109663
2.21127
1.96431
1.76765
1.59762
1.45336
1.33157
1.22591
1.13222
1.04968
0.974985
0.903269
0.833657
0.76902
0.710597
0.655666
0.600776
0.545714
0.493791
0.448612
0.410568
0.376246
0.341064
0.302186
0.259566
0.21498
0.169581
0.122002
0.0718348
0.0288474
0.00804602
1.83842
1.55809
1.44111
1.35543
1.26834
1.19233
1.12158
1.05095
0.986985
0.929207
0.868688
0.804384
0.744617
0.69387
0.647104
0.597082
0.542978
0.49086
0.44746
0.413674
0.383587
0.349742
0.308398
0.260667
0.210481
0.160985
0.111607
0.0616007
0.0209059
0.00524034
1.03186
0.728463
0.867484
1.00912
1.01758
1.0158
0.999333
0.953468
0.90803
0.874784
0.830555
0.769868
0.713104
0.672228
0.637573
0.593756
0.538654
0.483729
0.441559
0.414221
0.391366
0.360489
0.316483
0.262328
0.205045
0.150691
0.0999827
0.0512851
0.013479
0.00260905
141.076
141.156
141.345
141.629
141.994
142.43
142.928
143.48
144.075
144.702
145.347
145.995
146.629
147.229
147.772
148.231
148.575
148.767
148.761
148.501
147.915
146.906
145.342
143.029
139.666
134.759
127.386
115.629
93.4517
33.5821
140.348
140.42
140.586
140.836
141.155
141.533
141.962
142.433
142.935
143.455
143.98
144.492
144.974
145.404
145.757
146.005
146.111
146.035
145.725
145.116
144.123
142.633
140.488
137.456
133.179
127.073
118.105
104.54
85.0174
56.582
139.579
139.64
139.783
139.997
140.268
140.588
140.946
141.334
141.741
142.152
142.554
142.929
143.257
143.516
143.679
143.715
143.586
143.247
142.642
141.7
140.33
138.411
135.78
132.205
127.362
120.797
111.919
100.094
85.878
69.302
138.768
138.819
138.938
139.115
139.338
139.597
139.884
140.188
140.498
140.8
141.078
141.315
141.49
141.579
141.555
141.384
141.027
140.437
139.555
138.31
136.61
134.338
131.342
127.426
122.342
115.8
107.504
97.1224
84.597
69.4914
137.918
137.959
138.053
138.193
138.367
138.565
138.779
138.999
139.212
139.404
139.56
139.66
139.684
139.608
139.402
139.033
138.461
137.638
136.507
134.998
133.025
130.481
127.239
123.141
118.008
111.64
103.839
94.3631
83.0451
70.0932
137.031
137.062
137.132
137.234
137.358
137.495
137.637
137.772
137.889
137.973
138.007
137.974
137.852
137.616
137.238
136.683
135.912
134.881
133.532
131.803
129.615
126.879
123.489
119.326
114.26
108.157
100.895
92.3753
82.5896
71.951
136.11
136.13
136.175
136.24
136.314
136.391
136.461
136.513
136.535
136.513
136.43
136.269
136.007
135.62
135.08
134.355
133.406
132.191
130.66
128.755
126.41
123.55
120.095
115.956
111.047
105.29
98.6308
91.0579
82.6157
73.6398
135.158
135.167
135.188
135.215
135.241
135.258
135.257
135.228
135.158
135.034
134.839
134.554
134.161
133.633
132.945
132.067
130.962
129.592
127.913
125.874
123.423
120.5
117.045
112.999
108.308
102.933
96.8594
90.1089
82.7309
74.9973
134.178
134.177
134.174
134.164
134.142
134.101
134.032
133.924
133.765
133.543
133.241
132.842
132.326
131.67
130.849
129.835
128.597
127.1
125.306
123.174
120.662
117.724
114.32
110.41
105.966
100.974
95.4397
89.397
82.8998
76.1752
133.175
133.164
133.137
133.092
133.024
132.926
132.79
132.607
132.365
132.05
131.648
131.142
130.514
129.742
128.804
127.675
126.326
124.728
122.85
120.66
118.123
115.209
111.891
108.145
103.959
99.3354
94.2907
88.8644
83.1097
77.211
132.153
132.132
132.083
132.003
131.89
131.739
131.54
131.285
130.964
130.562
130.068
129.465
128.736
127.862
126.823
125.597
124.159
122.485
120.551
118.331
115.8
112.939
109.729
106.161
102.233
97.9556
93.3513
88.4598
83.3289
78.1068
131.117
131.087
131.016
130.903
130.748
130.545
130.287
129.966
129.57
129.089
128.511
127.82
127.002
126.04
124.915
123.609
122.103
120.376
118.409
116.183
113.682
110.893
107.807
104.421
100.742
96.7844
92.5724
88.1428
83.5372
78.8749
130.072
130.034
129.942
129.798
129.603
129.352
129.039
128.655
128.192
127.639
126.985
126.217
125.321
124.283
123.088
121.72
120.163
118.402
116.422
114.21
111.756
109.052
106.097
102.892
99.4482
95.7816
91.9168
87.8861
83.7254
79.5306
129.025
128.978
128.867
128.694
128.462
128.166
127.802
127.362
126.837
126.219
125.498
124.662
123.7
122.599
121.348
119.933
118.341
116.562
114.586
112.402
110.007
107.397
104.574
101.544
98.3188
94.9155
91.3569
87.6713
83.8888
80.0874
127.98
127.926
127.797
127.598
127.331
126.994
126.583
126.092
125.512
124.837
124.057
123.163
122.145
120.994
119.699
118.25
116.639
114.856
112.895
110.751
108.422
105.909
103.217
100.352
97.328
94.1612
90.8721
87.4852
84.0258
80.5572
126.946
126.884
126.739
126.515
126.217
125.843
125.39
124.853
124.224
123.499
122.668
121.726
120.663
119.472
118.145
116.674
115.054
113.277
111.342
109.245
106.988
104.572
102.005
99.2951
96.4546
93.499
90.4469
87.3189
84.1364
80.9512
125.927
125.859
125.699
125.453
125.126
124.72
124.23
123.652
122.981
122.212
121.339
120.357
119.258
118.037
116.687
115.205
113.585
111.824
109.921
107.876
105.691
103.371
100.923
98.3557
95.6813
92.9139
90.0696
87.1664
84.222
81.279
124.932
124.859
124.685
124.419
124.067
123.631
123.108
122.495
121.788
120.983
120.075
119.06
117.933
116.691
115.328
113.841
112.229
110.49
108.624
106.633
104.521
102.293
99.9556
97.5191
94.9942
92.3938
89.732
87.0239
84.2847
81.5493
123.968
123.889
123.704
123.42
123.046
122.584
122.032
121.389
120.651
119.816
118.88
117.84
116.693
115.436
114.066
112.582
110.984
109.271
107.445
105.509
103.467
101.325
99.0911
96.7734
94.3825
91.9298
89.4277
86.8891
84.3269
81.7701
123.041
122.958
122.762
122.462
122.069
121.585
121.009
120.341
119.577
118.717
117.759
116.7
115.539
114.273
112.903
111.427
109.846
108.162
106.377
104.495
102.52
100.459
98.3194
96.109
93.8374
91.515
89.1524
86.761
84.3517
81.9485
122.16
122.072
121.868
121.555
121.145
120.642
120.046
119.356
118.572
117.692
116.717
115.644
114.474
113.205
111.838
110.374
108.814
107.16
105.416
103.585
101.673
99.6869
97.6325
95.518
93.3522
91.1441
88.9033
86.6393
84.3618
82.0906
121.332
121.241
121.028
120.704
120.279
119.761
119.148
118.441
117.64
116.745
115.757
114.676
113.5
112.232
110.872
109.422
107.884
106.26
104.555
102.774
100.92
99.0016
97.0239
94.9948
92.9221
90.8138
88.6786
86.5247
84.3605
82.2027
120.565
120.471
120.252
119.917
119.481
118.949
118.322
117.601
116.787
115.882
114.885
113.797
112.621
111.356
110.005
108.57
107.054
105.46
103.793
102.056
100.256
98.398
96.4886
94.5345
92.543
90.5214
88.4772
86.4179
84.3506
82.2895
119.867
119.771
119.546
119.202
118.756
118.213
117.575
116.843
116.02
115.106
114.103
113.013
111.837
110.578
109.237
107.818
106.324
104.758
103.125
101.43
99.6773
97.8731
96.0234
94.1346
92.2133
90.2661
88.2998
86.321
84.3361
82.357
119.248
119.149
118.918
118.567
118.112
117.56
116.913
116.173
115.342
114.422
113.416
112.325
111.152
109.899
108.57
107.166
105.692
104.152
102.55
100.891
99.1803
97.4229
95.6247
93.7918
91.9302
90.046
88.1453
86.2341
84.3182
82.4074
118.716
118.614
118.378
118.02
117.557
116.998
116.344
115.598
114.762
113.838
112.83
111.74
110.571
109.325
108.006
106.617
105.161
103.644
102.069
100.442
98.7666
97.0488
95.2941
93.508
91.6962
89.8644
88.0181
86.1628
84.304
82.4498
118.281
118.176
117.932
117.566
117.097
116.531
115.872
115.121
114.281
113.355
112.347
111.258
110.093
108.854
107.544
106.168
104.728
103.231
101.679
100.077
98.4312
96.7458
95.0263
93.2779
91.5061
89.7161
87.913
86.1021
84.288
82.4779
117.955
117.844
117.591
117.219
116.745
116.175
115.511
114.756
113.914
112.987
111.978
110.892
109.73
108.497
107.195
105.829
104.403
102.921
101.387
99.8063
98.1835
96.5236
94.8316
93.1127
91.3719
89.6143
87.8449
86.0684
84.2895
82.5144
117.753
117.618
117.348
116.97
116.493
115.921
115.255
114.498
113.655
112.728
111.72
110.636
109.477
108.248
106.953
105.595
104.178
102.707
101.186
99.6191
98.012
96.3692
94.6956
92.9963
91.276
89.5397
87.7921
86.0377
84.2811
82.5271
117.734
117.536
117.237
116.853
116.374
115.798
115.129
114.37
113.526
112.599
111.592
110.509
109.354
108.128
106.838
105.485
104.075
102.611
101.099
99.5416
97.9449
96.3132
94.6514
92.9644
91.257
89.5338
87.7997
86.0589
84.3159
82.5749
-50.5206
-30.3398
-10.9147
36.2939
29.0183
17.3249
51.8979
39.9001
28.8087
53.2671
42.883
34.8864
57.5778
49.3205
42.5954
61.9476
55.0625
49.1928
65.1999
59.3351
54.3002
67.7757
62.7624
58.463
69.9465
65.6225
61.9202
71.7783
68.0053
64.7826
73.3178
69.9915
67.1574
74.6143
71.6545
69.1378
75.7082
73.052
70.7968
76.6315
74.2291
72.1916
77.4104
75.2222
73.3676
78.0669
76.0607
74.3608
78.619
76.7685
75.2003
79.0819
77.365
75.9096
79.4684
77.8667
76.5079
79.7896
78.2873
77.0116
80.0549
78.6383
77.434
80.273
78.9302
77.787
80.4504
79.171
78.0799
80.5953
79.3697
78.3227
80.7101
79.5297
78.5198
80.8066
79.6635
78.6837
80.8762
79.7629
78.8078
80.9473
79.8568
78.9189
80.9803
79.906
78.9821
81.049
79.9888
79.0714
-1.92308
-1.76137
-0.344012
0.704403
0.774632
0.816649
0.862214
0.833697
0.805734
0.821138
0.804698
0.736964
0.672462
0.641745
0.626938
0.592405
0.533006
0.470884
0.429053
0.411921
0.401295
0.375639
0.328069
0.265052
0.198168
0.137638
0.0862637
0.040667
0.00662533
0.000151618
3.64068
0.512556
1.59943
1.29028
0.222664
0.256334
0.729072
0.799273
0.742685
0.797796
0.792077
0.683389
0.594144
0.589055
0.624366
0.607771
0.534733
0.454222
0.407696
0.4047
0.414602
0.39758
0.344324
0.268397
0.188138
0.119524
0.0687296
0.0294095
0.00048174
-0.00216885
14.6023
6.15373
3.26396
1.11058
0.592449
1.35104
1.58649
0.74204
0.247105
0.47006
0.793171
0.694002
0.556148
0.57991
0.668288
0.639066
0.525041
0.407067
0.35223
0.379805
0.43549
0.435181
0.370853
0.275375
0.17629
0.0964422
0.0473272
0.0187351
-0.00361039
-0.00443254
24.1904
14.347
8.51866
4.78794
2.88434
2.0845
1.16581
0.503739
0.478514
1.41535
1.57818
0.654447
0.207162
0.234186
0.530035
0.686788
0.555357
0.385346
0.320863
0.395645
0.504482
0.491924
0.401022
0.276074
0.151381
0.0562898
0.0111189
0.0029834
-0.0071546
-0.00740005
33.2923
23.56
16.2545
10.9464
7.26644
4.76389
2.96206
1.87888
1.41262
1.44106
1.0119
0.498245
0.232698
0.551573
1.19933
1.11139
0.549824
0.217781
0.0974194
0.20506
0.465148
0.561682
0.453149
0.290564
0.135005
0.0217314
-0.0166558
0.00864052
0.0147903
-0.00754326
41.2182
32.3101
24.4302
17.998
13.0629
9.39571
6.70164
4.77999
3.45692
2.56378
1.79307
1.18938
0.808648
0.806882
0.923472
0.842179
0.5322
0.230401
0.140147
0.449466
0.851239
0.780833
0.488649
0.258417
0.0670016
-0.0718345
-0.111959
-0.0413277
0.0215859
-0.0230271
47.6815
39.888
32.1211
25.2348
19.6026
15.1234
11.5822
8.81105
6.68721
5.0894
3.84563
2.85298
2.123
1.69368
1.4418
1.19972
0.848956
0.506666
0.367659
0.494729
0.642717
0.676351
0.526241
0.306945
0.0877762
-0.0771782
-0.111931
0.0293795
0.174946
-0.0177843
52.9466
46.2231
38.9721
32.1447
26.2572
21.3007
17.1489
13.7114
10.9168
8.6756
6.86364
5.38797
4.2301
3.38064
2.7591
2.22814
1.69904
1.24031
0.966929
0.89179
0.890444
0.844314
0.655655
0.393692
0.146076
-0.0323523
-0.0892008
-0.0144574
0.101042
-0.108819
57.2426
51.43
44.8494
38.3771
32.5561
27.4374
22.958
19.0824
15.7801
12.9989
10.6639
8.71181
7.10826
5.82198
4.78787
3.91281
3.13908
2.48944
2.01446
1.71386
1.51008
1.29591
1.00611
0.680434
0.385476
0.166562
0.0553575
0.0430645
0.037663
-0.353986
60.7484
55.6826
49.7815
43.7966
38.2399
33.1891
28.6156
24.5156
20.8906
17.7229
14.9758
12.6098
10.5919
8.88896
7.45297
6.22461
5.16136
4.25851
3.52971
2.96542
2.51105
2.09158
1.66208
1.23584
0.85261
0.54478
0.32784
0.177402
-0.0094118
-0.566821
63.6273
59.1682
53.8881
48.4187
43.2193
38.3728
33.8668
29.7129
25.9323
22.5307
19.4967
16.81
14.4486
12.3877
10.5947
9.03092
7.66393
6.47868
5.47087
4.62567
3.90424
3.25597
2.64578
2.07137
1.55215
1.10667
0.737059
0.40994
0.0339847
-0.642109
66.0115
62.0473
57.3081
52.3272
47.509
42.932
38.5892
34.4981
30.6882
27.1786
23.9732
21.0666
18.4486
16.1047
14.0147
12.154
10.4993
9.03422
7.74778
6.62376
5.63371
4.74218
3.92113
3.16115
2.46785
1.84755
1.29334
0.771322
0.211806
-0.566105
68
64.4433
60.1664
55.6248
51.1746
46.8863
42.7536
38.7936
35.0383
31.5124
28.2287
25.1916
22.4001
19.8485
17.5263
15.4193
13.512
11.791
10.2443
8.85706
7.60791
6.47135
5.42525
4.4575
3.56508
2.74572
1.98786
1.26203
0.519558
-0.365041
69.6675
66.45
62.5661
58.4104
54.2985
50.2923
46.3844
42.5893
38.9377
35.4558
32.1607
29.0626
26.1664
23.4732
20.9797
18.6791
16.5623
14.62
12.8419
11.2161
9.72648
8.35455
7.08285
5.89891
4.79516
3.76442
2.79375
1.85953
0.929642
-0.0782169
71.0715
68.1388
64.5895
60.7696
56.9609
53.2179
49.5315
45.9128
42.3895
38.9873
35.7247
32.6147
29.6662
26.8843
24.2708
21.8243
19.5406
17.4142
15.4378
13.6024
11.8965
10.3063
8.81821
7.4206
6.10416
4.85961
3.67433
2.53004
1.40595
0.252637
72.2569
69.5649
66.3013
62.7726
59.2324
55.7291
52.2517
48.808
45.4222
42.1184
38.9149
35.8257
32.8616
30.0306
27.3377
24.7849
22.3719
20.0964
17.954
15.9386
14.0421
12.2545
10.5652
8.96394
7.4413
5.98755
4.59105
3.23746
1.91268
0.591174
73.2592
70.7715
67.7527
64.4763
61.1726
57.8845
54.5996
51.3227
48.0745
44.8768
41.7469
38.6989
35.7444
32.8926
30.1507
27.5231
25.012
22.6177
20.3383
18.1703
16.1083
14.1451
12.2724
10.4818
8.76419
7.11031
5.5095
3.94983
2.42025
0.911355
74.107
71.7933
68.9847
65.9271
62.8307
59.7342
56.624
53.5023
50.3865
47.2959
44.2465
41.2517
38.3229
35.4703
32.7018
30.0234
27.4393
24.9514
22.5601
20.2638
18.0591
15.9412
13.9039
11.9397
10.0409
8.19857
6.40276
4.64268
2.90785
1.19861
74.8235
72.6582
70.0303
67.1624
64.2474
61.3204
58.3672
55.3876
52.396
49.4095
46.4424
43.5068
40.614
37.774
34.9951
32.2844
29.647
27.0863
24.604
22.2003
19.8735
17.6204
15.4362
13.315
11.2496
9.23178
7.25195
5.29949
3.3631
1.448
75.4279
73.3893
70.9169
68.2132
65.4564
62.6787
59.8654
57.0143
54.1373
51.2492
48.3627
45.4887
42.6376
39.819
37.0415
34.3122
31.637
29.0202
26.4646
23.9716
21.5407
19.1699
16.8559
14.5935
12.3765
10.1968
8.04517
5.91057
3.78025
1.66107
75.9364
74.0058
71.667
69.1052
66.486
63.839
61.1494
58.4133
55.6405
52.8436
50.0338
47.2208
44.414
41.6223
38.854
36.1164
33.4155
30.7562
28.142
25.575
23.0559
20.5834
18.1553
15.7671
13.4131
11.0857
8.77543
6.47078
4.15756
1.84228
76.3627
74.524
72.2997
69.8601
67.3598
64.8267
62.2455
59.6113
56.9319
54.2182
51.4798
48.7252
45.9628
43.2008
40.447
37.7084
34.9911
32.3002
29.6395
27.0119
24.4183
21.8587
19.331
16.8316
14.3552
11.8943
9.43933
6.97829
4.49574
1.99684
76.7178
74.957
72.8302
70.4954
68.0974
65.6624
63.1755
60.6307
58.034
55.3948
52.7214
50.0212
47.3017
44.5701
41.8338
39.0992
36.3724
33.6584
30.9614
28.2843
25.6286
22.9947
20.381
17.7844
15.1997
12.6196
10.0345
7.43186
4.79538
2.12843
77.0128
75.3173
73.2732
71.0272
68.7163
66.3653
63.9594
61.4917
58.9672
56.3936
53.7783
51.1276
48.4479
45.746
43.0282
40.3008
37.5695
34.8392
32.114
29.397
26.69
23.9936
21.3064
18.6258
15.9466
13.2618
10.5615
7.83278
5.05894
2.24097
77.2537
75.6125
73.6373
71.4658
69.228
66.9478
64.6104
62.2084
59.7455
57.2286
54.6639
52.0568
49.4131
46.7386
44.0392
41.3206
38.5882
35.8465
33.0998
30.351
27.6021
24.8537
22.1048
19.3527
16.5926
13.8173
11.0169
8.17836
5.28454
2.33419
77.4524
75.8553
73.9368
71.8265
69.6489
67.4269
65.1462
62.7988
60.3875
57.9182
55.3964
52.8267
50.2143
47.5642
44.8818
42.1723
39.4408
36.6916
33.9287
31.155
28.3725
25.5818
22.7821
19.9707
17.1428
14.2913
11.4061
8.47411
5.47797
2.41333
77.6056
76.0434
74.1696
72.1079
69.978
67.8025
65.567
63.2633
60.8934
58.4626
55.9756
53.4366
50.8499
48.2203
45.5526
42.8516
40.1219
37.3678
34.5929
31.8002
28.9914
26.1674
23.3272
20.4681
17.5855
14.6721
11.7178
8.70925
5.62935
2.47137
77.7357
76.1991
74.3594
72.3346
70.2408
68.1003
65.8991
63.6286
61.2903
58.8889
56.4286
53.9132
51.3466
48.733
46.0769
43.3829
40.6552
37.8978
35.1143
32.3075
29.4791
26.6299
23.7588
20.8633
17.9386
14.9774
11.9694
8.9011
5.75517
2.52103
77.8156
76.2952
74.4777
72.4779
70.4086
68.2915
66.1132
63.865
61.5479
59.1662
56.7239
54.2244
51.6713
49.0687
46.4206
43.7315
41.0053
38.2461
35.457
32.6409
29.7995
26.9334
24.0417
21.1216
18.1683
15.1744
12.1295
9.01972
5.8276
2.54091
77.9042
76.3848
74.5796
72.5948
70.5392
68.4347
66.2686
64.032
61.7259
59.3544
56.9211
54.4295
51.8829
49.2852
46.6405
43.9529
41.2265
38.4651
35.672
32.8499
30.0004
27.1242
24.2204
21.2863
18.3168
15.3046
12.2388
9.1047
5.88226
2.54755
)
;

boundaryField
{
    inlet
    {
        type            zeroGradient;
    }
    outlet
    {
        type            fixedValue;
        value           uniform 0;
    }
    flap
    {
        type            zeroGradient;
    }
    upperWall
    {
        type            zeroGradient;
    }
    lowerWall
    {
        type            zeroGradient;
    }
    frontAndBack
    {
        type            empty;
    }
}


// ************************************************************************* //
