/*--------------------------------*- C++ -*----------------------------------*\
  =========                 |
  \\      /  F ield         | OpenFOAM: The Open Source CFD Toolbox
   \\    /   O peration     | Website:  https://openfoam.org
    \\  /    A nd           | Version:  7
     \\/     M anipulation  |
\*---------------------------------------------------------------------------*/
FoamFile
{
    version     2.0;
    format      ascii;
    class       surfaceScalarField;
    location    "3.4";
    object      phi;
}
// * * * * * * * * * * * * * * * * * * * * * * * * * * * * * * * * * * * * * //

dimensions      [0 3 -1 0 0 0 0];

internalField   nonuniform List<scalar> 
5457
(
0.198418
0.00158239
0.19648
0.00193739
0.194192
0.00228811
0.191509
0.0026836
0.188427
0.00308122
0.184951
0.00347678
0.181072
0.00387857
0.176778
0.00429399
0.17205
0.00472817
0.166865
0.00518514
0.161196
0.00566839
0.155015
0.00618087
0.148291
0.00672476
0.14099
0.00730109
0.13308
0.00790921
0.124534
0.00854612
0.115329
0.00920553
0.105452
0.0098768
0.0949082
0.0105437
0.083725
0.0111832
0.0719607
0.0117643
0.0597127
0.0122481
0.0471241
0.0125886
0.0343839
0.0127402
0.0216888
0.0126951
0.00903862
0.0126502
-0.00291549
0.0119541
-0.00847189
0.0055564
-0.00804292
-0.00042897
-0.00804292
0.199928
0.00165424
0.199176
0.00268985
0.197965
0.00349907
0.196332
0.00431681
0.194271
0.00514129
0.191781
0.00596686
0.188854
0.00680555
0.185478
0.00767084
0.181633
0.00857304
0.177297
0.00952047
0.172445
0.0105204
0.167047
0.0115791
0.161071
0.0127013
0.154482
0.0138898
0.147247
0.015144
0.139334
0.0164589
0.130717
0.0178231
0.121377
0.0192166
0.111312
0.0206081
0.100543
0.0219527
0.0891188
0.0231885
0.0771314
0.0242355
0.0647256
0.0249944
0.0521181
0.0253476
0.0396577
0.0251556
0.0281073
0.0242006
0.0185965
0.0214648
0.00879859
0.0153544
0.00118418
0.00718543
-0.00685873
0.199781
0.00187369
0.199087
0.00338371
0.197946
0.00464003
0.196409
0.00585346
0.194483
0.00706746
0.192164
0.00828594
0.189446
0.009523
0.186321
0.0107963
0.182773
0.0121209
0.178784
0.0135093
0.174332
0.0149724
0.169391
0.01652
0.163933
0.0181597
0.157926
0.0198968
0.151338
0.021732
0.144136
0.0236603
0.136291
0.0256682
0.127778
0.0277301
0.118581
0.0298047
0.108704
0.0318302
0.0981722
0.03372
0.0870501
0.0353575
0.0754535
0.036591
0.0635764
0.0372248
0.0517344
0.0369975
0.0403989
0.0355362
0.0297404
0.0321233
0.0191671
0.0259277
0.00959824
0.0167543
0.0027395
0.199703
0.00217064
0.199008
0.00407905
0.197887
0.00576059
0.196376
0.00736441
0.194488
0.00895561
0.192222
0.010552
0.189574
0.0121707
0.186538
0.0138323
0.183104
0.0155553
0.179257
0.0173557
0.174983
0.0192474
0.17026
0.0212425
0.165068
0.0233513
0.159385
0.0255807
0.153183
0.0279335
0.146438
0.0304053
0.139124
0.0329823
0.131217
0.0356371
0.122698
0.0383235
0.113558
0.0409708
0.103801
0.0434766
0.0934588
0.0456999
0.0825977
0.0474521
0.071335
0.0484875
0.0598429
0.0484896
0.0483187
0.0470604
0.0368124
0.0436296
0.0251889
0.0375512
0.0133361
0.0286071
0.0160756
0.199667
0.00250324
0.198964
0.00478234
0.197863
0.00686195
0.196381
0.00884614
0.194532
0.0108044
0.192318
0.0127667
0.189734
0.0147545
0.186775
0.0167909
0.183433
0.018897
0.179698
0.0210914
0.175555
0.0233902
0.17099
0.0258075
0.165986
0.0283549
0.160526
0.0310408
0.154591
0.0338688
0.148161
0.0368355
0.141215
0.0399278
0.133734
0.0431183
0.125697
0.04636
0.117088
0.0495798
0.107895
0.0526698
0.0981165
0.0554786
0.0877667
0.0578018
0.0768808
0.0593734
0.0655108
0.0598596
0.0537098
0.0588613
0.0414555
0.0558839
0.0285888
0.0504179
0.0148529
0.042343
0.0309285
0.199653
0.00285046
0.198949
0.00548643
0.197871
0.00793993
0.196426
0.0102904
0.194626
0.0126045
0.192473
0.0149202
0.189963
0.0172642
0.187092
0.0196618
0.183853
0.0221363
0.180236
0.0247087
0.176229
0.0273967
0.171821
0.0302161
0.166996
0.0331796
0.16174
0.0362965
0.156038
0.0395714
0.149871
0.0430019
0.143223
0.0465757
0.136074
0.0502673
0.128402
0.0540319
0.120183
0.0577991
0.111389
0.0614638
0.101991
0.0648771
0.0919567
0.0678358
0.0812561
0.0700741
0.0698562
0.0712594
0.0577188
0.0709988
0.0447623
0.0688405
0.0308503
0.0643299
0.0158738
0.0573195
0.0468022
0.19965
0.00320043
0.198954
0.00618245
0.197904
0.00898961
0.196505
0.0116901
0.194762
0.0143468
0.19268
0.0170023
0.190256
0.0196879
0.187487
0.0224314
0.184365
0.0252584
0.180882
0.0281916
0.177028
0.0312506
0.172791
0.0344526
0.168159
0.0378116
0.163118
0.041338
0.157652
0.0450375
0.151745
0.0489091
0.145377
0.052943
0.138528
0.0571165
0.13117
0.0613898
0.12327
0.0656995
0.114784
0.0699501
0.105656
0.0740045
0.0958187
0.0776733
0.0851884
0.0807044
0.0736705
0.0827773
0.0611636
0.0835057
0.0475571
0.082447
0.03276
0.079127
0.0167836
0.0732959
0.0635859
0.199655
0.0035458
0.198974
0.0068626
0.197959
0.0100054
0.19661
0.0130389
0.194934
0.0160229
0.192933
0.0190029
0.190607
0.0220141
0.187952
0.0250867
0.184962
0.0282484
0.18163
0.0315237
0.177946
0.034934
0.173901
0.0384979
0.169481
0.042231
0.164674
0.0461453
0.159463
0.0502482
0.153831
0.0545412
0.147756
0.0590179
0.141212
0.0636608
0.134164
0.0684377
0.126568
0.0732958
0.118363
0.0781548
0.109471
0.0828968
0.0997885
0.0873556
0.0891897
0.0913032
0.0775277
0.0944392
0.06465
0.0963834
0.0504198
0.0966772
0.03477
0.0947768
0.0177908
0.0902751
0.0813767
0.199664
0.00388165
0.199006
0.00752046
0.19803
0.0109817
0.196738
0.0143304
0.195136
0.017625
0.193226
0.0209128
0.191009
0.024232
0.18848
0.0276154
0.185636
0.0310925
0.18247
0.0346894
0.178975
0.0384294
0.17514
0.0423328
0.170954
0.0464168
0.166404
0.0506956
0.161473
0.0551791
0.156142
0.0598723
0.150386
0.0647739
0.144173
0.0698733
0.137462
0.0751487
0.130196
0.0805618
0.122299
0.0860519
0.113668
0.0915274
0.104171
0.0968535
0.0936367
0.101837
0.0818678
0.106208
0.0686527
0.109599
0.0538051
0.111525
0.0372391
0.111343
0.0190848
0.108429
0.100461
0.199677
0.00420445
0.199047
0.00815075
0.198115
0.0119131
0.196887
0.0155588
0.195366
0.019146
0.193555
0.0227235
0.191455
0.0263319
0.189065
0.0300063
0.186379
0.0337778
0.183394
0.0376743
0.180103
0.0417207
0.176497
0.0459389
0.172565
0.0503484
0.168295
0.0549656
0.163671
0.0598037
0.158671
0.0648723
0.153268
0.0701762
0.147428
0.0757138
0.141101
0.0814759
0.134221
0.0874419
0.126697
0.0935755
0.118407
0.0998175
0.109186
0.106074
0.0988227
0.1122
0.0870565
0.117974
0.0735942
0.123061
0.0581528
0.126966
0.0405555
0.12894
0.0209035
0.128081
0.121365
0.199693
0.00451155
0.199094
0.00874919
0.198213
0.0127948
0.197053
0.0167186
0.19562
0.0205795
0.193916
0.0244275
0.191942
0.0283051
0.189699
0.0322493
0.187184
0.0362929
0.184393
0.0404654
0.181321
0.044793
0.17796
0.0492995
0.174302
0.0540064
0.170335
0.0589328
0.166043
0.0640957
0.161406
0.0695095
0.156396
0.0751862
0.150975
0.0811345
0.145092
0.0873593
0.138674
0.0938604
0.13162
0.10063
0.123791
0.107646
0.114998
0.114867
0.104986
0.122212
0.0934239
0.129537
0.0799039
0.136581
0.0639741
0.142896
0.0452403
0.147674
0.023615
0.149707
0.14498
0.199711
0.0048009
0.199148
0.00931226
0.19832
0.0136225
0.197234
0.017805
0.195893
0.0219198
0.194303
0.026018
0.192464
0.0301437
0.190378
0.0343356
0.188043
0.0386278
0.185457
0.0430511
0.182617
0.0476331
0.179517
0.0523993
0.176151
0.0573731
0.172507
0.0625763
0.168573
0.0680296
0.16433
0.0737525
0.159752
0.0797644
0.154802
0.0860845
0.149429
0.0927326
0.143559
0.0997295
0.137092
0.107097
0.12988
0.114858
0.121719
0.123028
0.112319
0.131612
0.101279
0.140577
0.0880531
0.149807
0.0719319
0.159017
0.0520947
0.167511
0.0278912
0.17391
0.172871
0.19973
0.00507087
0.199205
0.00983711
0.198435
0.0143926
0.197426
0.0188138
0.196184
0.023162
0.194713
0.0274894
0.193015
0.0318413
0.191093
0.0362577
0.188947
0.0407739
0.186577
0.0454216
0.18398
0.0502298
0.181154
0.0552253
0.178094
0.0604331
0.174792
0.0658776
0.171239
0.0715826
0.167419
0.0775725
0.16331
0.0838734
0.158881
0.0905143
0.154084
0.0975288
0.148856
0.104958
0.143101
0.112853
0.136681
0.121278
0.129395
0.130314
0.120947
0.14006
0.110891
0.150633
0.0985535
0.162144
0.082914
0.174657
0.0624491
0.187976
0.0351348
0.201224
0.208006
0.199751
0.0053202
0.199266
0.0103214
0.198557
0.0151021
0.197629
0.0197414
0.196489
0.024302
0.195142
0.0288369
0.193591
0.0333924
0.191839
0.0380094
0.189889
0.0427241
0.187741
0.0475691
0.185397
0.0525741
0.182855
0.0577668
0.180115
0.0631738
0.177171
0.0688212
0.174018
0.0747354
0.170646
0.0809446
0.167039
0.0874804
0.163174
0.0943796
0.159016
0.101687
0.154514
0.10946
0.149593
0.117773
0.144143
0.126728
0.137995
0.136461
0.130891
0.147165
0.122415
0.159108
0.111874
0.172686
0.0980357
0.188495
0.0785591
0.207453
0.0486837
0.2311
0.25669
0.199772
0.00554794
0.19933
0.0107634
0.198684
0.0157487
0.19784
0.0205851
0.196805
0.0253366
0.195586
0.0300567
0.194185
0.0347927
0.192609
0.0395859
0.19086
0.0444731
0.188941
0.0494874
0.186857
0.0546588
0.184608
0.0600158
0.182196
0.0655856
0.179622
0.0713954
0.176884
0.0774732
0.173979
0.0838498
0.170899
0.09056
0.167633
0.0976455
0.164162
0.105158
0.160456
0.113166
0.156472
0.121757
0.152145
0.131056
0.147373
0.141233
0.141999
0.152539
0.13576
0.165347
0.128186
0.18026
0.118337
0.198344
0.10396
0.22183
0.0777348
0.257325
0.334425
0.00448029
-0.00448029
0.00868751
-0.00420722
0.0122225
-0.00353496
0.015126
-0.00290349
0.0175106
-0.0023846
0.0194814
-0.00197086
0.021128
-0.00164658
0.0225255
-0.00139745
0.0237344
-0.00120893
0.0248007
-0.00106627
0.0257558
-0.00095512
0.026618
-0.000862225
0.0273948
-0.000776803
0.0280874
-0.000692637
0.0286961
-0.000608649
0.0292207
-0.00052461
0.029653
-0.000432329
0.0299656
-0.0003126
0.030118
-0.000152328
0.0300892
2.87362e-05
0.029898
0.000191263
0.0296293
0.000268696
0.0293487
0.000280562
0.0290897
0.000259041
0.028885
0.000204705
0.028774
0.000110949
0.0288048
-3.07642e-05
0.0290196
-0.00021481
0.0293971
-0.000377472
-0.000442812
0.00391968
-0.00839997
0.00771732
-0.00800485
0.0109739
-0.00679155
0.0137117
-0.00564125
0.016029
-0.00470198
0.0180153
-0.00395711
0.0197438
-0.00337508
0.0212744
-0.00292803
0.0226548
-0.00258932
0.0239214
-0.00233296
0.0251002
-0.00213388
0.0262065
-0.0019685
0.0272466
-0.00181693
0.0282213
-0.00166736
0.0291318
-0.00151912
0.0299842
-0.00137697
0.0307853
-0.0012335
0.0315287
-0.001056
0.0321821
-0.000805696
0.0327012
-0.000490411
0.0330925
-0.000199977
0.0334091
-4.78839e-05
0.033707
-1.7374e-05
0.0340066
-4.0531e-05
0.0343159
-0.000104629
0.0346364
-0.000209501
0.0349586
-0.000353048
0.0352811
-0.000537262
0.0356315
-0.00072793
-0.00076966
0.00313915
-0.0115391
0.00610643
-0.0109721
0.00861041
-0.00929552
0.0107085
-0.00773937
0.0124854
-0.00647886
0.0140094
-0.0054811
0.0153365
-0.00470215
0.0165112
-0.00410281
0.0175691
-0.00364718
0.0185377
-0.00330154
0.0194371
-0.0030333
0.0202794
-0.00281077
0.021068
-0.00260559
0.0218002
-0.00239953
0.0224731
-0.00219206
0.0230937
-0.00199751
0.023678
-0.00181786
0.0242343
-0.00161228
0.0247393
-0.00131072
0.0251477
-0.000898771
0.025451
-0.000503325
0.0256945
-0.000291317
0.0258998
-0.000222686
0.026084
-0.000224763
0.0262286
-0.000249236
0.0263027
-0.000283546
0.0262853
-0.000335654
0.0261748
-0.000426739
0.0260057
-0.000558833
-0.000759099
0.00230503
-0.0138442
0.00430099
-0.0129681
0.00589317
-0.0108877
0.00720208
-0.00904828
0.00829115
-0.00756792
0.00920454
-0.00639449
0.00997885
-0.00547646
0.0106426
-0.00476652
0.0112185
-0.00422308
0.0117251
-0.00380821
0.0121774
-0.00348557
0.0125857
-0.00321909
0.0129538
-0.00297372
0.0132768
-0.00272243
0.0135431
-0.00245838
0.013748
-0.00220244
0.0139103
-0.0019802
0.0140686
-0.00177058
0.014233
-0.00147507
0.0142988
-0.000964585
0.0140323
-0.0002368
0.0133769
0.000364061
0.0125573
0.000596952
0.011746
0.000586474
0.0110459
0.000450875
0.0105144
0.000247963
0.010124
5.47898e-05
0.00987241
-0.000175177
0.00978156
-0.000467985
-0.000880125
0.00135591
-0.0152001
0.00227332
-0.0138855
0.00286939
-0.0114838
0.0032923
-0.0094712
0.00358275
-0.00785837
0.00376439
-0.00657612
0.00385697
-0.00556904
0.00387654
-0.0047861
0.00383635
-0.00418289
0.00374752
-0.00371938
0.00362038
-0.00335843
0.00346484
-0.00306356
0.00328949
-0.00279837
0.00309699
-0.00252993
0.00287598
-0.00223737
0.00258924
-0.00191571
0.00218413
-0.00157508
0.00163315
-0.0012196
0.000970021
-0.000811943
0.000290337
-0.0002849
-0.000213667
0.000267205
-0.000524423
0.000674816
-0.000823591
0.000896119
-0.00112992
0.0008928
-0.001401
0.000721962
-0.00159479
0.000441754
-0.00167084
0.000130835
-0.00167274
-0.000173275
-0.00162605
-0.000514676
-0.000917195
0.000252656
-0.0154527
2.75299e-05
-0.0136604
-0.000422406
-0.0110338
-0.000938204
-0.0089554
-0.0015328
-0.00726377
-0.00217629
-0.00593264
-0.00285398
-0.00489134
-0.00355318
-0.0040869
-0.00426536
-0.00347071
-0.00498429
-0.00300045
-0.00570302
-0.00263969
-0.00641198
-0.0023546
-0.00709847
-0.00211188
-0.0077479
-0.0018805
-0.00834761
-0.00163765
-0.00888964
-0.00137367
-0.00937687
-0.00108786
-0.00982086
-0.000775611
-0.0102114
-0.000421408
-0.0104785
-1.78095e-05
-0.0106149
0.000403622
-0.010694
0.000753868
-0.0107546
0.000956745
-0.0108313
0.000969488
-0.0109271
0.000817811
-0.0110379
0.00055256
-0.0111472
0.000240151
-0.0112263
-9.41948e-05
-0.0112687
-0.000472259
-0.000885931
-0.000916674
-0.014536
-0.00233371
-0.0122433
-0.00383271
-0.00953484
-0.00536395
-0.00742416
-0.0068594
-0.00576832
-0.0082937
-0.00449834
-0.00964747
-0.00353758
-0.0109065
-0.00282785
-0.0120618
-0.00231541
-0.0131109
-0.00195139
-0.0140567
-0.00169383
-0.0149049
-0.00150638
-0.0156608
-0.00135602
-0.0163279
-0.00121343
-0.0169087
-0.0010568
-0.0174074
-0.000874962
-0.0178305
-0.000664797
-0.0181825
-0.000423642
-0.018466
-0.000137898
-0.0186514
0.000167611
-0.018737
0.000489232
-0.0187627
0.000779585
-0.0187673
0.000961282
-0.0187881
0.000990314
-0.0188415
0.000871221
-0.01893
0.000641011
-0.0190405
0.000350682
-0.0191485
1.38098e-05
-0.0192477
-0.000373093
-0.000765317
-0.00217885
-0.0123572
-0.00474703
-0.00967516
-0.00730853
-0.00697334
-0.00974342
-0.00498927
-0.0119712
-0.0035405
-0.0139612
-0.00250835
-0.0157124
-0.00178638
-0.0172382
-0.00130204
-0.018561
-0.000992692
-0.019706
-0.000806326
-0.0206986
-0.000701261
-0.0215606
-0.00064435
-0.0223095
-0.000607122
-0.0229585
-0.000564442
-0.023518
-0.000497356
-0.0239963
-0.000396636
-0.0243995
-0.000261569
-0.0247295
-9.361e-05
-0.0249722
0.000104803
-0.0251354
0.000330754
-0.0252283
0.000582185
-0.0252656
0.000816836
-0.0252798
0.000975481
-0.0253048
0.00101528
-0.0253607
0.000927122
-0.0254534
0.000733749
-0.0255741
0.00047138
-0.0257084
0.0001481
-0.0258483
-0.000233146
-0.000572098
-0.0035415
-0.00881569
-0.00727277
-0.0059439
-0.0108151
-0.00343103
-0.0140027
-0.00180167
-0.0167769
-0.000766268
-0.0191402
-0.000145078
-0.0211069
0.000180354
-0.0227235
0.00031458
-0.0240562
0.000339979
-0.025169
0.00030651
-0.0261134
0.000243049
-0.0269259
0.000168177
-0.0276309
9.78605e-05
-0.0282441
4.87606e-05
-0.0287761
3.4672e-05
-0.0292335
6.07828e-05
-0.0296186
0.000123526
-0.0299298
0.000217556
-0.0301688
0.000343822
-0.0303438
0.000505803
-0.030458
0.00069634
-0.0305261
0.000884944
-0.0305753
0.00102468
-0.0306334
0.00107338
-0.0307185
0.00101226
-0.0308361
0.000851321
-0.0309788
0.000614019
-0.0311386
0.000307913
-0.0313217
-5.00302e-05
-0.000344906
-0.00516138
-0.00365431
-0.0104138
-0.000691514
-0.0148364
0.000991649
-0.0184445
0.00180643
-0.0213322
0.00212138
-0.0236367
0.00215945
-0.0255011
0.00204479
-0.02704
0.00185344
-0.0283241
0.00162403
-0.0294053
0.00138779
-0.030326
0.00116373
-0.0311164
0.000958579
-0.0317967
0.000778186
-0.032383
0.00063504
-0.0328909
0.000542521
-0.0333336
0.000503538
-0.0337182
0.000508114
-0.0340443
0.000543676
-0.0343078
0.000607301
-0.0345079
0.000705864
-0.0346523
0.000840789
-0.0347598
0.000992386
-0.0348551
0.00112005
-0.0349607
0.00117899
-0.0350894
0.00114094
-0.035243
0.00100489
-0.0354162
0.000787186
-0.0356087
0.000500456
-0.0358285
0.000169747
-9.13752e-05
-0.00687092
0.00321661
-0.0128145
0.00525203
-0.0174683
0.0056455
-0.021186
0.00552416
-0.0241783
0.00511362
-0.0265884
0.00456959
-0.0285402
0.00399661
-0.0301299
0.00344309
-0.0314362
0.0029303
-0.0325256
0.00247722
-0.0334519
0.00209005
-0.0342501
0.00175674
-0.0349388
0.00146695
-0.035533
0.00122922
-0.0360511
0.00106061
-0.0365108
0.000963237
-0.03692
0.000917345
-0.0372746
0.000898258
-0.037566
0.00089871
-0.037793
0.000932874
-0.0379683
0.00101607
-0.0381154
0.00113943
-0.0382593
0.001264
-0.038418
0.00133771
-0.0385981
0.00132097
-0.0387966
0.00120344
-0.0390089
0.000999483
-0.0392377
0.000729244
-0.0394929
0.000424927
0.000192636
-0.00784954
0.0110661
-0.0144639
0.0118664
-0.0196867
0.0108683
-0.0237092
0.00954665
-0.0268133
0.00821773
-0.029232
0.00698829
-0.0311491
0.00591366
-0.0326945
0.00498851
-0.0339538
0.00418959
-0.0349991
0.00352255
-0.0358949
0.00298579
-0.0366786
0.00254045
-0.0373606
0.00214903
-0.0379489
0.0018175
-0.038465
0.00157665
-0.0389342
0.00143249
-0.0393667
0.00134987
-0.0397519
0.00128345
-0.0400725
0.00121926
-0.0403245
0.00118492
-0.0405266
0.00121817
-0.0407104
0.00132318
-0.0409038
0.00145747
-0.041121
0.00155481
-0.0413603
0.00156029
-0.0416116
0.00145479
-0.0418679
0.00125575
-0.0421351
0.000996422
-0.0424282
0.000718102
0.000514609
-0.00929847
0.0203646
-0.016999
0.0195669
-0.0225435
0.0164128
-0.0265217
0.0135248
-0.0294776
0.0111736
-0.0317072
0.00921793
-0.0334422
0.00764865
-0.0348441
0.00639036
-0.0359845
0.00533006
-0.0369274
0.00446547
-0.037753
0.00381135
-0.0385034
0.00329079
-0.0391684
0.00281409
-0.0397376
0.0023867
-0.0402369
0.00207592
-0.0407073
0.00190289
-0.041164
0.00180654
-0.0415851
0.00170462
-0.0419373
0.0015714
-0.0422101
0.0014578
-0.0424311
0.00143912
-0.0426456
0.00153766
-0.0428878
0.00169972
-0.0431672
0.00183415
-0.0434713
0.00186446
-0.0437791
0.00176253
-0.0440777
0.00155439
-0.0443756
0.00129434
-0.0446941
0.00103652
0.000864081
-0.01195
0.0323146
-0.0210593
0.0286762
-0.0264564
0.0218099
-0.0298045
0.016873
-0.0322809
0.01365
-0.0340873
0.0110244
-0.0354616
0.00902292
-0.0366229
0.00755168
-0.0375877
0.00629481
-0.03837
0.00524775
-0.039085
0.00452638
-0.039795
0.00400083
-0.0404458
0.0034648
-0.0409846
0.00292555
-0.0414465
0.00253781
-0.0419064
0.00236281
-0.0423913
0.00229141
-0.0428593
0.0021726
-0.0432474
0.00195949
-0.0435324
0.00174282
-0.0437562
0.00166295
-0.0439886
0.00177003
-0.0442743
0.00198539
-0.0446158
0.00217567
-0.0449858
0.00223447
-0.0453479
0.00212466
-0.0456817
0.00188818
-0.046
0.00161267
-0.0463349
0.00137135
0.00123144
-0.0166832
0.0489978
-0.0275689
0.039562
-0.0320608
0.0263018
-0.033579
0.0183912
-0.0352212
0.0152922
-0.0363578
0.012161
-0.0371456
0.0098107
-0.0380114
0.00841743
-0.0388152
0.00709869
-0.0393764
0.00580886
-0.0399191
0.00506911
-0.0405936
0.00467532
-0.0412518
0.00412302
-0.0417501
0.00342381
-0.0421393
0.00292703
-0.0425689
0.00279245
-0.0430917
0.00281416
-0.0436267
0.00270762
-0.0440584
0.00239122
-0.0443396
0.00202398
-0.0445381
0.00186146
-0.0447681
0.00200003
-0.0450913
0.00230866
-0.0454984
0.00258273
-0.04594
0.00267603
-0.0463589
0.00254354
-0.0467229
0.0022522
-0.0470512
0.00194097
-0.0473931
0.00171328
0.00160611
0.207447
0.00576075
0.207034
0.0111761
0.206431
0.0163514
0.205647
0.0213698
0.204687
0.026296
0.20356
0.0311844
0.20227
0.0360825
0.200824
0.0410319
0.199227
0.0460697
0.197486
0.051229
0.195604
0.05654
0.193589
0.0620311
0.191445
0.0677295
0.189178
0.0736626
0.186792
0.0798591
0.184292
0.0863502
0.18168
0.0931717
0.178959
0.100367
0.176128
0.107989
0.173187
0.116107
0.17013
0.124814
0.166954
0.134232
0.163654
0.144533
0.160232
0.155961
0.156711
0.168868
0.153187
0.183784
0.150027
0.201504
0.148917
0.22294
0.160674
0.245567
0.258662
0.236436
0.21249
0.00595322
0.212117
0.011549
0.211574
0.0168951
0.210868
0.0220759
0.210007
0.0271567
0.208999
0.0321922
0.207852
0.0372298
0.206572
0.0423114
0.205168
0.0474737
0.203648
0.0527495
0.202019
0.0581685
0.200292
0.0637584
0.198475
0.069546
0.19658
0.0755577
0.194618
0.0818212
0.192602
0.0883664
0.190546
0.0952274
0.188468
0.102445
0.18639
0.110067
0.184339
0.118158
0.182357
0.126796
0.180505
0.136084
0.17888
0.146157
0.177657
0.157184
0.177157
0.169368
0.178036
0.182905
0.181713
0.197827
0.190797
0.213856
0.206298
0.230066
0.245524
0.219436
0.217658
0.00612321
0.217328
0.0118782
0.21685
0.0173739
0.21623
0.0226958
0.215477
0.0279093
0.2146
0.0330691
0.213608
0.0382224
0.212509
0.0434105
0.211313
0.0486695
0.210031
0.0540315
0.208674
0.0595252
0.207255
0.065177
0.205789
0.0710122
0.204292
0.0770554
0.202781
0.0833317
0.20128
0.0898679
0.199813
0.0966935
0.198415
0.103843
0.197127
0.111356
0.196004
0.11928
0.195126
0.127674
0.194605
0.136605
0.194612
0.14615
0.19541
0.156386
0.19741
0.167368
0.201223
0.179092
0.207619
0.191431
0.217255
0.20422
0.229846
0.217476
0.228621
0.246749
0.222951
0.00626872
0.22267
0.0121596
0.222261
0.0177823
0.221735
0.0232223
0.221099
0.0285452
0.220363
0.033805
0.219537
0.0390484
0.218632
0.0443159
0.217659
0.0496427
0.216631
0.0550594
0.215563
0.0605932
0.214471
0.0662688
0.213374
0.072109
0.212294
0.0781356
0.211256
0.0843699
0.21029
0.0908339
0.209433
0.0975506
0.20873
0.104545
0.208241
0.111845
0.208042
0.11948
0.208234
0.127481
0.20896
0.13588
0.210411
0.144699
0.212852
0.153945
0.216627
0.163592
0.222158
0.173562
0.22989
0.183699
0.240393
0.193717
0.254581
0.203287
0.210156
0.273046
0.228374
0.0063879
0.228144
0.0123897
0.227811
0.018115
0.227385
0.0236488
0.226874
0.0290562
0.226288
0.0343905
0.225639
0.0396974
0.224939
0.0450161
0.224201
0.0503805
0.223441
0.0558196
0.222676
0.0613584
0.221925
0.0670193
0.221212
0.0728219
0.220564
0.0787843
0.22001
0.0849233
0.219589
0.0912548
0.219346
0.0977939
0.219336
0.104555
0.219628
0.111553
0.220311
0.118797
0.221497
0.126295
0.223331
0.134046
0.225999
0.142032
0.22973
0.150215
0.234803
0.158519
0.241547
0.166817
0.25034
0.174906
0.261625
0.182431
0.275875
0.189038
0.19364
0.29239
0.233929
0.00647907
0.233754
0.0125653
0.233501
0.0183674
0.233181
0.0239694
0.232802
0.0294353
0.232375
0.0348175
0.231912
0.0401602
0.231427
0.0455012
0.230935
0.0508727
0.230453
0.0563014
0.230001
0.0618101
0.229602
0.067418
0.229283
0.0731416
0.229073
0.0789945
0.229008
0.0849882
0.22913
0.091132
0.229491
0.0974329
0.230152
0.103895
0.231186
0.110518
0.232685
0.117298
0.234762
0.124219
0.23755
0.131257
0.241215
0.138367
0.245948
0.145482
0.251969
0.152497
0.25952
0.159266
0.268842
0.165585
0.280111
0.171162
0.293423
0.175726
0.178766
0.308298
0.23962
0.00654072
0.239501
0.0126835
0.239333
0.0185354
0.239124
0.0241788
0.238883
0.0296764
0.238622
0.0350789
0.238352
0.0404293
0.23809
0.0457633
0.237852
0.051111
0.237656
0.056497
0.237525
0.0619411
0.237484
0.0674595
0.237561
0.0730647
0.237789
0.078766
0.238208
0.0845694
0.238863
0.0904776
0.239806
0.0964896
0.241101
0.1026
0.242822
0.108797
0.245056
0.115063
0.247908
0.121368
0.251495
0.12767
0.255953
0.133909
0.261431
0.140003
0.268085
0.145843
0.276065
0.151287
0.28549
0.15616
0.296404
0.160248
0.308795
0.163335
0.165156
0.322405
0.245448
0.00657159
0.24539
0.012742
0.24531
0.0186155
0.245216
0.0242726
0.245118
0.0297743
0.245027
0.0351695
0.244958
0.040499
0.244924
0.0457968
0.244945
0.0510904
0.24504
0.056402
0.245232
0.0617485
0.245549
0.0671428
0.24602
0.0725935
0.246681
0.0781055
0.24757
0.0836796
0.248736
0.0893125
0.250229
0.0949962
0.252112
0.100717
0.254454
0.106455
0.257335
0.112182
0.260843
0.117859
0.265078
0.123435
0.270144
0.128844
0.276146
0.134001
0.283184
0.138805
0.29134
0.143131
0.300658
0.146841
0.311129
0.149777
0.322684
0.15178
0.152719
0.335121
0.251418
0.00657067
0.251421
0.0127386
0.251432
0.018605
0.251457
0.0242477
0.251506
0.0297254
0.25159
0.0350851
0.251724
0.0403655
0.251922
0.0455982
0.252204
0.0508083
0.252591
0.0560153
0.253106
0.0612333
0.253777
0.0664718
0.254635
0.0717359
0.255714
0.0770261
0.257055
0.0823388
0.258702
0.0876655
0.260705
0.0929927
0.263122
0.0983007
0.266014
0.103563
0.26945
0.108746
0.273503
0.113806
0.278248
0.118689
0.283762
0.12333
0.290113
0.12765
0.297357
0.13156
0.305528
0.13496
0.314628
0.137741
0.324611
0.139794
0.335378
0.141013
0.14134
0.346758
0.257532
0.00653721
0.257599
0.0126721
0.257702
0.018502
0.257848
0.0241016
0.258046
0.0295273
0.258307
0.0348237
0.258646
0.040027
0.259077
0.0451667
0.259621
0.0502652
0.260296
0.0553394
0.261129
0.0604005
0.262146
0.065455
0.263378
0.0705045
0.264857
0.0755463
0.266624
0.0805726
0.268718
0.0855712
0.271186
0.0905242
0.274079
0.0954082
0.277449
0.100194
0.281351
0.104844
0.285843
0.109314
0.29098
0.113553
0.29681
0.117499
0.303375
0.121086
0.310697
0.124238
0.318779
0.126878
0.327594
0.128926
0.337078
0.130311
0.347125
0.130965
0.13087
0.357594
0.263794
0.00647074
0.263925
0.0125415
0.264121
0.0183053
0.26439
0.0238332
0.264738
0.0291789
0.265177
0.0343845
0.26572
0.0394839
0.266383
0.0445038
0.267184
0.0494643
0.268144
0.0543797
0.269286
0.0592585
0.270636
0.0641046
0.272224
0.0689167
0.274081
0.073689
0.276243
0.0784111
0.278746
0.0830678
0.281632
0.0876389
0.284941
0.0920989
0.288718
0.096417
0.293005
0.100557
0.297843
0.104476
0.303269
0.108127
0.309311
0.111457
0.315986
0.114411
0.323296
0.116928
0.331222
0.118952
0.33972
0.120427
0.348722
0.121309
0.358128
0.121559
0.121178
0.36782
0.270207
0.00637107
0.270402
0.0123466
0.270692
0.0180146
0.271083
0.0234424
0.271581
0.0286807
0.272197
0.0337689
0.272943
0.0387384
0.273833
0.0436133
0.274886
0.0484115
0.276121
0.0531447
0.27756
0.0578192
0.279228
0.0624364
0.281152
0.0669929
0.28336
0.0714807
0.285884
0.0758874
0.288756
0.0801962
0.292009
0.0843857
0.295677
0.0884303
0.299795
0.0922998
0.304391
0.0959601
0.309494
0.0993728
0.315125
0.102497
0.321295
0.105287
0.328005
0.107701
0.335241
0.109692
0.342971
0.111221
0.351147
0.112252
0.359699
0.112757
0.368538
0.11272
0.112152
0.377565
0.276774
0.00623831
0.277033
0.0120876
0.277417
0.0176304
0.277929
0.0229302
0.278575
0.0280344
0.279365
0.0329795
0.280309
0.0377945
0.281421
0.0425012
0.282717
0.047115
0.284216
0.0516455
0.285938
0.0560971
0.287906
0.0604691
0.290142
0.0647566
0.292673
0.0689501
0.295524
0.0730362
0.298722
0.0769975
0.302295
0.0808128
0.306268
0.0844574
0.310665
0.0879033
0.315505
0.0911197
0.320804
0.0940735
0.326571
0.0967299
0.332804
0.0990541
0.339494
0.101012
0.346615
0.102571
0.354131
0.103705
0.361991
0.104392
0.370129
0.104619
0.378469
0.104381
0.103696
0.386925
0.283498
0.00607284
0.28382
0.0117652
0.284297
0.0171541
0.284928
0.0222986
0.28572
0.0272429
0.286679
0.0320207
0.287815
0.0366584
0.289141
0.0411754
0.290671
0.0455852
0.292421
0.0498954
0.294409
0.0541087
0.296655
0.0582232
0.299179
0.0622328
0.302002
0.0661272
0.305145
0.0698927
0.30863
0.0735124
0.312477
0.0769661
0.316703
0.080231
0.321324
0.0832822
0.326351
0.0860929
0.331789
0.0886355
0.337637
0.0908822
0.343885
0.092806
0.350515
0.0943821
0.357497
0.095589
0.364792
0.0964098
0.37235
0.0968335
0.380112
0.0968564
0.388011
0.096482
0.0957307
0.395976
0.290384
0.0058753
0.290768
0.0113808
0.291335
0.0165877
0.292083
0.0215506
0.293015
0.0263103
0.294138
0.0308979
0.295459
0.0353372
0.296989
0.0396454
0.29874
0.043834
0.300727
0.0479092
0.302963
0.0518724
0.305465
0.0557207
0.308251
0.0594473
0.311336
0.063042
0.314737
0.0664915
0.31847
0.0697797
0.322548
0.0728883
0.326982
0.0757971
0.331779
0.0784844
0.336944
0.0809281
0.342474
0.0831059
0.34836
0.0849963
0.354586
0.0865795
0.36113
0.0878385
0.367959
0.0887597
0.375035
0.0893342
0.38231
0.0895585
0.389731
0.0894349
0.397241
0.0889718
0.0881902
0.404782
0.297435
0.00564654
0.297879
0.0109361
0.298533
0.0159338
0.299394
0.02069
0.300462
0.025242
0.301742
0.029618
0.30324
0.0338395
0.304963
0.0379218
0.306922
0.0418747
0.309129
0.0457031
0.311594
0.0494073
0.31433
0.052984
0.317351
0.0564263
0.320669
0.0597242
0.324295
0.0628655
0.328239
0.0658356
0.332509
0.0686183
0.33711
0.0711961
0.342044
0.0735512
0.347306
0.0756657
0.35289
0.0775223
0.358781
0.0791051
0.36496
0.0804004
0.371401
0.0813975
0.378072
0.0820888
0.384935
0.0824714
0.391947
0.0825465
0.399061
0.0823207
0.406228
0.0818046
0.0810191
0.413399
0.304654
0.00538762
0.305157
0.0104332
0.305895
0.0151958
0.306864
0.0197213
0.308062
0.0240437
0.309491
0.0281886
0.311156
0.032175
0.313061
0.0360165
0.315215
0.0397215
0.317624
0.0432936
0.320299
0.0467328
0.323247
0.0500355
0.326479
0.0531949
0.330001
0.056202
0.333821
0.0590456
0.337943
0.061713
0.342371
0.0641904
0.347104
0.0664632
0.352138
0.0685172
0.357465
0.0703384
0.363074
0.071914
0.368946
0.0732329
0.37506
0.0742864
0.381389
0.0750684
0.387902
0.0755763
0.394562
0.0758108
0.401332
0.0757768
0.40817
0.0754829
0.415033
0.074941
0.0741707
0.421882
0.312046
0.00509977
0.312605
0.00987439
0.313424
0.0143772
0.314495
0.0186495
0.315817
0.022722
0.317388
0.0266178
0.319209
0.0303537
0.321284
0.0339416
0.323617
0.0373885
0.326213
0.0406976
0.329078
0.0438681
0.332216
0.0468967
0.335634
0.0497772
0.339335
0.0525014
0.343321
0.0550597
0.347593
0.0574412
0.352148
0.0596345
0.356984
0.0616281
0.36209
0.0634107
0.367456
0.064972
0.373067
0.0663031
0.378903
0.0673968
0.384942
0.0682482
0.391155
0.068855
0.397514
0.0692177
0.403985
0.06934
0.410533
0.0692285
0.417123
0.068893
0.423718
0.0683458
0.0676049
0.430284
0.319615
0.0047843
0.320227
0.00926238
0.321122
0.0134819
0.322292
0.0174799
0.32373
0.0212839
0.325434
0.0249143
0.327401
0.028386
0.329634
0.0317093
0.332132
0.0348903
0.334898
0.0379313
0.337934
0.0408317
0.341243
0.0435882
0.344825
0.0461953
0.34868
0.0486462
0.352807
0.0509325
0.357203
0.0530454
0.361862
0.0549758
0.366775
0.0567148
0.371932
0.0582539
0.377318
0.0595861
0.382915
0.0607053
0.388705
0.0616077
0.394662
0.0622912
0.40076
0.0627562
0.406973
0.0630055
0.413268
0.0630444
0.419616
0.0628806
0.425985
0.0625244
0.432343
0.0619876
0.0612866
0.438661
0.327365
0.00444257
0.328028
0.00859983
0.328995
0.012514
0.330257
0.016218
0.331805
0.0197363
0.333632
0.0230867
0.335736
0.0262823
0.338114
0.0293319
0.340763
0.0322406
0.343684
0.0350105
0.346875
0.0376408
0.350335
0.0401286
0.354061
0.0424693
0.35805
0.0446571
0.362297
0.0466853
0.366796
0.0485469
0.371537
0.0502348
0.376509
0.0517424
0.381699
0.0530639
0.387091
0.0541944
0.392665
0.0551307
0.398402
0.0558712