/*--------------------------------*- C++ -*----------------------------------*\
  =========                 |
  \\      /  F ield         | OpenFOAM: The Open Source CFD Toolbox
   \\    /   O peration     | Website:  https://openfoam.org
    \\  /    A nd           | Version:  7
     \\/     M anipulation  |
\*---------------------------------------------------------------------------*/
FoamFile
{
    version     2.0;
    format      ascii;
    class       volVectorField;
    location    "3.4";
    object      U;
}
// * * * * * * * * * * * * * * * * * * * * * * * * * * * * * * * * * * * * * //

dimensions      [0 1 -1 0 0 0 0];

internalField   nonuniform List<vector> 
2790
(
(9.94399 0.0205234 0)
(9.87572 0.0295882 0)
(9.7752 0.0359903 0)
(9.64943 0.0425572 0)
(9.50408 0.0493866 0)
(9.34005 0.0564296 0)
(9.15653 0.0638172 0)
(8.9526 0.0717129 0)
(8.72744 0.0802564 0)
(8.48006 0.0895745 0)
(8.20924 0.0997942 0)
(7.91362 0.111046 0)
(7.59166 0.12346 0)
(7.24176 0.137165 0)
(6.86231 0.152272 0)
(6.45178 0.16887 0)
(6.00888 0.186997 0)
(5.53269 0.206618 0)
(5.02299 0.227589 0)
(4.48048 0.24961 0)
(3.9072 0.272175 0)
(3.30688 0.294525 0)
(2.68535 0.31562 0)
(2.05069 0.334289 0)
(1.41187 0.350607 0)
(0.798105 0.372884 0)
(0.110819 0.325099 0)
(-0.46955 -0.114836 0)
(-0.453763 -0.29716 0)
(-0.231158 -0.423856 0)
(9.9985 0.0407038 0)
(9.98145 0.0623844 0)
(9.93574 0.0791425 0)
(9.86416 0.0966277 0)
(9.77096 0.115127 0)
(9.65714 0.134492 0)
(9.52204 0.154978 0)
(9.36483 0.176946 0)
(9.18469 0.20071 0)
(8.98064 0.226552 0)
(8.7515 0.254746 0)
(8.49586 0.285561 0)
(8.21218 0.319249 0)
(7.8988 0.356021 0)
(7.55403 0.396017 0)
(7.17619 0.439259 0)
(6.76379 0.485588 0)
(6.31567 0.534581 0)
(5.83128 0.585455 0)
(5.31092 0.636948 0)
(4.75621 0.687198 0)
(4.17048 0.733642 0)
(3.55937 0.772951 0)
(2.93163 0.801094 0)
(2.30004 0.813754 0)
(1.69303 0.807263 0)
(1.10724 0.747276 0)
(0.658947 0.547962 0)
(0.186532 0.224662 0)
(-0.00819813 -0.453707 0)
(9.99559 0.0432084 0)
(9.97556 0.0752744 0)
(9.9318 0.10335 0)
(9.86489 0.132376 0)
(9.77777 0.163065 0)
(9.67153 0.195404 0)
(9.54586 0.229748 0)
(9.40011 0.266608 0)
(9.23363 0.306475 0)
(9.04561 0.34981 0)
(8.83506 0.397073 0)
(8.60078 0.448721 0)
(8.34142 0.505189 0)
(8.05548 0.566858 0)
(7.74136 0.634003 0)
(7.39743 0.70672 0)
(7.02211 0.784823 0)
(6.61397 0.867707 0)
(6.17196 0.954176 0)
(5.69568 1.04224 0)
(5.18568 1.12887 0)
(4.64402 1.20977 0)
(4.07487 1.27915 0)
(3.48546 1.32933 0)
(2.88693 1.3501 0)
(2.29955 1.32645 0)
(1.73192 1.22081 0)
(1.21632 0.973055 0)
(0.701188 0.570208 0)
(0.358065 -0.156475 0)
(9.99403 0.0495012 0)
(9.97181 0.0932102 0)
(9.92788 0.133578 0)
(9.86224 0.174216 0)
(9.77692 0.216441 0)
(9.67297 0.260669 0)
(9.55029 0.307438 0)
(9.40847 0.357423 0)
(9.247 0.411297 0)
(9.0653 0.469709 0)
(8.86265 0.533304 0)
(8.63816 0.602722 0)
(8.39082 0.678587 0)
(8.11949 0.761465 0)
(7.82298 0.851806 0)
(7.49999 0.949856 0)
(7.14924 1.05552 0)
(6.76945 1.16821 0)
(6.35951 1.28657 0)
(5.91863 1.40823 0)
(5.44658 1.52944 0)
(4.94406 1.64466 0)
(4.41324 1.74612 0)
(3.85835 1.82321 0)
(3.28591 1.86137 0)
(2.70649 1.84035 0)
(2.12572 1.72605 0)
(1.55432 1.47793 0)
(0.957989 1.08378 0)
(0.509439 0.502413 0)
(9.99331 0.0572162 0)
(9.96994 0.110964 0)
(9.92593 0.162111 0)
(9.86145 0.213357 0)
(9.77797 0.266367 0)
(9.67633 0.321925 0)
(9.55652 0.380713 0)
(9.41819 0.443498 0)
(9.26094 0.511064 0)
(9.0843 0.584176 0)
(8.88767 0.663589 0)
(8.67035 0.750061 0)
(8.43155 0.844327 0)
(8.17043 0.94707 0)
(7.88605 1.05886 0)
(7.57746 1.18005 0)
(7.24365 1.31065 0)
(6.88361 1.45014 0)
(6.4963 1.59718 0)
(6.08076 1.74928 0)
(5.6362 1.90237 0)
(5.16218 2.05028 0)
(4.65885 2.18414 0)
(4.1273 2.29172 0)
(3.56949 2.35657 0)
(2.98898 2.35735 0)
(2.38692 2.26501 0)
(1.76646 2.04773 0)
(1.09004 1.69151 0)
(0.536672 1.15427 0)
(9.99302 0.0655419 0)
(9.96923 0.128708 0)
(9.92556 0.190123 0)
(9.86252 0.251855 0)
(9.78127 0.315591 0)
(9.68242 0.382333 0)
(9.56598 0.452888 0)
(9.43168 0.528114 0)
(9.27917 0.60889 0)
(9.10802 0.696091 0)
(8.91773 0.790582 0)
(8.7077 0.893221 0)
(8.47724 1.00485 0)
(8.22563 1.12624 0)
(7.95211 1.25806 0)
(7.65586 1.40078 0)
(7.33601 1.5545 0)
(6.99163 1.71881 0)
(6.62169 1.8925 0)
(6.22503 2.07316 0)
(5.80032 2.25679 0)
(5.3461 2.43715 0)
(4.86079 2.60515 0)
(4.34279 2.7482 0)
(3.7905 2.84955 0)
(3.20268 2.88823 0)
(2.57667 2.8383 0)
(1.91355 2.67172 0)
(1.1728 2.37414 0)
(0.549992 1.89455 0)
(9.99297 0.0740788 0)
(9.96926 0.146322 0)
(9.92637 0.217494 0)
(9.86507 0.289306 0)
(9.78641 0.363371 0)
(9.69083 0.440844 0)
(9.57832 0.522677 0)
(9.44868 0.609826 0)
(9.30161 0.703268 0)
(9.13674 0.803974 0)
(8.9536 0.912904 0)
(8.75165 1.03101 0)
(8.53029 1.15921 0)
(8.28883 1.29838 0)
(8.02655 1.44927 0)
(7.74265 1.61244 0)
(7.43627 1.78813 0)
(7.10639 1.9761 0)
(6.75181 2.17534 0)
(6.37103 2.38374 0)
(5.96214 2.59766 0)
(5.5227 2.81131 0)
(5.04961 3.01609 0)
(4.53911 3.19993 0)
(3.98678 3.34667 0)
(3.38803 3.436 0)
(2.73737 3.44339 0)
(2.03634 3.34162 0)
(1.24181 3.11374 0)
(0.563545 2.69334 0)
(9.99306 0.0825927 0)
(9.96981 0.163615 0)
(9.92806 0.244063 0)
(9.86884 0.325496 0)
(9.79311 0.409465 0)
(9.70124 0.497226 0)
(9.5932 0.589859 0)
(9.46884 0.688415 0)
(9.32792 0.793956 0)
(9.1701 0.907541 0)
(8.99497 1.03022 0)
(8.80205 1.16303 0)
(8.59076 1.307 0)
(8.36045 1.46307 0)
(8.11039 1.63211 0)
(7.83976 1.81482 0)
(7.54757 2.01161 0)
(7.23265 2.22244 0)
(6.8935 2.44665 0)
(6.52818 2.6826 0)
(6.13413 2.92726 0)
(5.70792 3.17568 0)
(5.24506 3.42029 0)
(4.7399 3.65014 0)
(4.18562 3.85022 0)
(3.57491 4.00092 0)
(2.89966 4.07799 0)
(2.16223 4.05253 0)
(1.3162 3.9019 0)
(0.583258 3.54039 0)
(9.99326 0.0909337 0)
(9.97072 0.180419 0)
(9.93045 0.269683 0)
(9.87361 0.36026 0)
(9.80116 0.453669 0)
(9.71341 0.551233 0)
(9.61035 0.654136 0)
(9.49184 0.763519 0)
(9.35771 0.880525 0)
(9.20768 1.00629 0)
(9.0414 1.14197 0)
(8.85841 1.28867 0)
(8.65821 1.44751 0)
(8.44015 1.61956 0)
(8.20351 1.80583 0)
(7.9474 2.00715 0)
(7.67073 2.22418 0)
(7.37213 2.45719 0)
(7.04978 2.70595 0)
(6.70128 2.96946 0)
(6.32338 3.24554 0)
(5.91172 3.53042 0)
(5.46047 3.81796 0)
(4.96215 4.09891 0)
(4.40758 4.35983 0)
(3.78659 4.58212 0)
(3.08775 4.74117 0)
(2.31287 4.80464 0)
(1.41075 4.74134 0)
(0.614361 4.44222 0)
(9.99352 0.0989983 0)
(9.9719 0.196591 0)
(9.9334 0.294212 0)
(9.87923 0.393438 0)
(9.81038 0.495781 0)
(9.72714 0.602616 0)
(9.6295 0.71521 0)
(9.51737 0.834788 0)
(9.39063 0.962568 0)
(9.24907 1.09977 0)
(9.09239 1.2476 0)
(8.92021 1.40729 0)
(8.73205 1.58006 0)
(8.52734 1.76708 0)
(8.30536 1.96952 0)
(8.06518 2.18842 0)
(7.80566 2.42471 0)
(7.52525 2.67907 0)
(7.22188 2.95181 0)
(6.89276 3.24269 0)
(6.53406 3.55065 0)
(6.14054 3.87335 0)
(5.70516 4.20656 0)
(5.21864 4.54327 0)
(4.66919 4.87237 0)
(4.0431 5.17697 0)
(3.32393 5.43241 0)
(2.50998 5.60218 0)
(1.54202 5.64382 0)
(0.664132 5.41843 0)
(9.99384 0.106711 0)
(9.9733 0.212014 0)
(9.93679 0.317522 0)
(9.88557 0.42488 0)
(9.82062 0.535618 0)
(9.74223 0.651152 0)
(9.65041 0.77282 0)
(9.54513 0.901916 0)
(9.42632 1.03973 0)
(9.29384 1.18754 0)
(9.14745 1.34665 0)
(8.98686 1.51836 0)
(8.81166 1.70398 0)
(8.62134 1.90485 0)
(8.41522 2.12227 0)
(8.19244 2.35753 0)
(7.9518 2.61188 0)
(7.69171 2.88643 0)
(7.41 3.18215 0)
(7.10361 3.4997 0)
(6.76836 3.8393 0)
(6.39839 4.20036 0)
(5.98567 4.581 0)
(5.51926 4.97717 0)
(4.98461 5.38121 0)
(4.36355 5.77953 0)
(3.63221 6.14923 0)
(2.78043 6.45091 0)
(1.73368 6.62892 0)
(0.744947 6.50363 0)
(9.9942 0.114014 0)
(9.97487 0.22659 0)
(9.94055 0.339495 0)
(9.8925 0.454451 0)
(9.83171 0.573016 0)
(9.75848 0.696645 0)
(9.67285 0.826731 0)
(9.57483 0.964629 0)
(9.46442 1.11168 0)
(9.34155 1.26924 0)
(9.20608 1.43867 0)
(9.05778 1.62134 0)
(8.89635 1.81868 0)
(8.72137 2.03214 0)
(8.53226 2.26319 0)
(8.32825 2.51337 0)
(8.10825 2.78425 0)
(7.87072 3.07744 0)
(7.61353 3.39457 0)
(7.33368 3.73731 0)
(7.02691 4.10724 0)
(6.68718 4.5058 0)
(6.30599 4.93388 0)
(5.87126 5.39123 0)
(5.36604 5.87518 0)
(4.76724 6.37816 0)
(4.04113 6.88328 0)
(3.16189 7.35378 0)
(2.0251 7.72374 0)
(0.88092 7.75785 0)
(9.99459 0.120862 0)
(9.97657 0.240242 0)
(9.9446 0.360032 0)
(9.89994 0.482032 0)
(9.84354 0.607833 0)
(9.77572 0.738923 0)
(9.69658 0.87674 0)
(9.60618 1.02269 0)
(9.50457 1.17816 0)
(9.39177 1.34455 0)
(9.26773 1.52328 0)
(9.13232 1.7158 0)
(8.98536 1.92361 0)
(8.82657 2.14827 0)
(8.6555 2.39144 0)
(8.47154 2.65486 0)
(8.27379 2.94043 0)
(8.06095 3.25021 0)
(7.83115 3.58652 0)
(7.5817 3.95197 0)
(7.30873 4.34959 0)
(7.00665 4.78288 0)
(6.66728 5.2558 0)
(6.27864 5.77265 0)
(5.82273 6.33742 0)
(5.27289 6.95223 0)
(4.58507 7.61362 0)
(3.71059 8.3012 0)
(2.48876 8.95893 0)
(1.12481 9.29439 0)
(9.99501 0.12722 0)
(9.97837 0.252904 0)
(9.9489 0.379049 0)
(9.90778 0.507522 0)
(9.85596 0.639949 0)
(9.79378 0.777848 0)
(9.72138 0.922687 0)
(9.63888 1.07591 0)
(9.5464 1.23894 0)
(9.44404 1.41321 0)
(9.33186 1.60019 0)
(9.20984 1.80138 0)
(9.07793 2.01834 0)
(8.93601 2.25274 0)
(8.78383 2.50635 0)
(8.62101 2.78111 0)
(8.44692 3.07919 0)
(8.26065 3.40305 0)
(8.06079 3.75559 0)
(7.84531 4.14027 0)
(7.6112 4.5614 0)
(7.35402 5.02438 0)
(7.06716 5.53616 0)
(6.74053 6.10575 0)
(6.35819 6.74485 0)
(5.89454 7.46859 0)
(5.30148 8.29615 0)
(4.50981 9.24816 0)
(3.26985 10.3427 0)
(1.6057 11.3611 0)
(9.99544 0.133061 0)
(9.98026 0.264525 0)
(9.95338 0.396473 0)
(9.91594 0.530828 0)
(9.86885 0.669246 0)
(9.81249 0.813264 0)
(9.74703 0.964377 0)
(9.67265 1.12405 0)
(9.58956 1.29373 0)
(9.49793 1.47489 0)
(9.39792 1.669 0)
(9.28965 1.8776 0)
(9.17323 2.10231 0)
(9.0487 2.34484 0)
(8.91606 2.60706 0)
(8.7752 2.89106 0)
(8.62587 3.19917 0)
(8.46763 3.53417 0)
(8.29974 3.89935 0)
(8.12109 4.29882 0)
(7.92997 4.73778 0)
(7.72382 5.22308 0)
(7.49883 5.76396 0)
(7.2491 6.37323 0)
(6.96517 7.06935 0)
(6.63154 7.88018 0)
(6.21543 8.85122 0)
(5.66744 10.0656 0)
(4.69235 11.7318 0)
(2.68915 14.5963 0)
(0.14331 -0.147952 0)
(0.328843 -0.131523 0)
(0.52105 -0.105502 0)
(0.686594 -0.0825396 0)
(0.820968 -0.0642786 0)
(0.929798 -0.0500921 0)
(1.01945 -0.039195 0)
(1.09475 -0.0309318 0)
(1.15923 -0.0247234 0)
(1.21555 -0.0200455 0)
(1.26566 -0.016436 0)
(1.31081 -0.0135051 0)
(1.35164 -0.0109573 0)
(1.38832 -0.00862094 0)
(1.42083 -0.00643948 0)
(1.44915 -0.00436588 0)
(1.47314 -0.00218992 0)
(1.49204 0.000497435 0)
(1.50409 0.00396467 0)
(1.50745 0.00771709 0)
(1.50187 0.0103205 0)
(1.48957 0.0111888 0)
(1.47482 0.01033 0)
(1.46069 0.00830216 0)
(1.44866 0.00571433 0)
(1.44007 0.00273227 0)
(1.43732 -0.00068217 0)
(1.44336 -0.00391937 0)
(1.45852 -0.00639546 0)
(1.48596 -0.00706972 0)
(0.114326 -0.326087 0)
(0.291971 -0.302107 0)
(0.466682 -0.249301 0)
(0.619632 -0.200886 0)
(0.747513 -0.16207 0)
(0.855081 -0.131854 0)
(0.947411 -0.108649 0)
(1.02831 -0.0910688 0)
(1.10056 -0.0778691 0)
(1.16629 -0.0679169 0)
(1.22705 -0.0602032 0)
(1.28392 -0.0538604 0)
(1.33745 -0.0482176 0)
(1.38779 -0.0428938 0)
(1.43491 -0.0378197 0)
(1.47888 -0.033023 0)
(1.52002 -0.0281835 0)
(1.55856 -0.0224389 0)
(1.59389 -0.0150744 0)
(1.62407 -0.00683323 0)
(1.64715 1.97329e-06 0)
(1.66419 0.00433587 0)
(1.67859 0.00683399 0)
(1.69302 0.00772721 0)
(1.70811 0.00691532 0)
(1.72389 0.00427839 0)
(1.74012 -0.000169685 0)
(1.75606 -0.00578636 0)
(1.7722 -0.0116981 0)
(1.79366 -0.0146979 0)
(0.0852428 -0.504912 0)
(0.233369 -0.471534 0)
(0.367368 -0.39265 0)
(0.484879 -0.32019 0)
(0.582691 -0.26203 0)
(0.665244 -0.216533 0)
(0.736254 -0.181348 0)
(0.798452 -0.154421 0)
(0.8539 -0.13394 0)
(0.904201 -0.118284 0)
(0.950574 -0.106004 0)
(0.993864 -0.0958229 0)
(1.03452 -0.0867088 0)
(1.07259 -0.0780582 0)
(1.10783 -0.0698248 0)
(1.14007 -0.0622948 0)
(1.16971 -0.0552827 0)
(1.19773 -0.0473664 0)
(1.22456 -0.0364459 0)
(1.24888 -0.0228341 0)
(1.26765 -0.0118127 0)
(1.28038 -0.00766177 0)
(1.29073 -0.00845423 0)
(1.30046 -0.0110363 0)
(1.30887 -0.0140924 0)
(1.31435 -0.016999 0)
(1.31596 -0.0194057 0)
(1.31281 -0.0216797 0)
(1.30561 -0.0236157 0)
(1.29535 -0.0230198 0)
(0.0584579 -0.637731 0)
(0.168751 -0.58934 0)
(0.253121 -0.487419 0)
(0.328602 -0.396991 0)
(0.388903 -0.325195 0)
(0.439147 -0.269112 0)
(0.481383 -0.225735 0)
(0.517232 -0.192467 0)
(0.54802 -0.167084 0)
(0.574814 -0.147648 0)
(0.598469 -0.13242 0)
(0.619663 -0.119828 0)
(0.638907 -0.108523 0)
(0.656316 -0.0976189 0)
(0.671462 -0.0869855 0)
(0.68343 -0.0772262 0)
(0.691716 -0.068825 0)
(0.698134 -0.0611872 0)
(0.705428 -0.0522055 0)
(0.715637 -0.0394388 0)
(0.71856 -0.0231802 0)
(0.69087 -0.00877081 0)
(0.649531 -0.00180512 0)
(0.607568 0.00115652 0)
(0.568693 0.00285335 0)
(0.535543 0.00377538 0)
(0.51451 0.00285529 0)
(0.499192 -0.000425909 0)
(0.489816 -0.00540085 0)
(0.488049 -0.0140012 0)
(0.0313088 -0.72728 0)
(0.0965888 -0.658975 0)
(0.124839 -0.537439 0)
(0.154657 -0.435476 0)
(0.172001 -0.355011 0)
(0.184304 -0.292136 0)
(0.191523 -0.243435 0)
(0.194498 -0.205972 0)
(0.193969 -0.177296 0)
(0.190537 -0.155323 0)
(0.184731 -0.138214 0)
(0.177151 -0.124266 0)
(0.168611 -0.111888 0)
(0.159541 -0.0998019 0)
(0.149805 -0.0874623 0)
(0.138008 -0.0751919 0)
(0.119881 -0.063436 0)
(0.0961184 -0.0513834 0)
(0.0642248 -0.0359283 0)
(0.0310178 -0.013887 0)
(-0.00256143 0.0107566 0)
(-0.0155175 0.0264233 0)
(-0.0316047 0.0309316 0)
(-0.0470078 0.0275728 0)
(-0.0629584 0.0196319 0)
(-0.0777164 0.00946314 0)
(-0.0829071 0.000391026 0)
(-0.0833768 -0.00737912 0)
(-0.0825703 -0.0158379 0)
(-0.0842397 -0.0268236 0)
(0.00233777 -0.766069 0)
(0.0163103 -0.674205 0)
(-0.0143486 -0.536296 0)
(-0.0335291 -0.428462 0)
(-0.0629326 -0.343189 0)
(-0.0931482 -0.277051 0)
(-0.12571 -0.226079 0)
(-0.159844 -0.187073 0)
(-0.195065 -0.157269 0)
(-0.230987 -0.134376 0)
(-0.267252 -0.116501 0)
(-0.303354 -0.102003 0)
(-0.338585 -0.0894152 0)
(-0.372132 -0.0775302 0)
(-0.403318 -0.0656042 0)
(-0.431888 -0.0534995 0)
(-0.457968 -0.0415174 0)
(-0.481563 -0.0296807 0)
(-0.502327 -0.0175819 0)
(-0.519139 -0.00465855 0)
(-0.526544 0.00839094 0)
(-0.531027 0.0196061 0)
(-0.53446 0.0264184 0)
(-0.538043 0.0265469 0)
(-0.543151 0.0217345 0)
(-0.549603 0.0142039 0)
(-0.555319 0.00600631 0)
(-0.558703 -0.00260899 0)
(-0.564219 -0.0119873 0)
(-0.570092 -0.0213967 0)
(-0.031385 -0.746103 0)
(-0.0741209 -0.627452 0)
(-0.160178 -0.486441 0)
(-0.232572 -0.377889 0)
(-0.308062 -0.293388 0)
(-0.380666 -0.22898 0)
(-0.450014 -0.18023 0)
(-0.515207 -0.143844 0)
(-0.575546 -0.117009 0)
(-0.63066 -0.0973207 0)
(-0.680555 -0.0827996 0)
(-0.725442 -0.0717715 0)
(-0.76556 -0.0627741 0)
(-0.801084 -0.0545788 0)
(-0.83217 -0.04632 0)
(-0.859071 -0.0375758 0)
(-0.882163 -0.028243 0)
(-0.90175 -0.0182786 0)
(-0.917652 -0.00753994 0)
(-0.92951 0.00376462 0)
(-0.934557 0.0145072 0)
(-0.936729 0.0230624 0)
(-0.937161 0.0276614 0)
(-0.937757 0.0273201 0)
(-0.939947 0.0227183 0)
(-0.944058 0.015381 0)
(-0.949328 0.00706737 0)
(-0.954733 -0.00155682 0)
(-0.961856 -0.0114866 0)
(-0.967512 -0.0208132 0)
(-0.0713065 -0.665097 0)
(-0.169141 -0.528121 0)
(-0.309186 -0.388568 0)
(-0.43156 -0.284873 0)
(-0.547561 -0.208198 0)
(-0.652265 -0.152706 0)
(-0.745183 -0.113016 0)
(-0.826575 -0.0851711 0)
(-0.89739 -0.0662113 0)
(-0.95877 -0.0536186 0)
(-1.01197 -0.0453216 0)
(-1.05815 -0.0396795 0)
(-1.09827 -0.0353613 0)
(-1.13306 -0.031294 0)
(-1.16314 -0.0267406 0)
(-1.189 -0.0213807 0)
(-1.21104 -0.015219 0)
(-1.22944 -0.00832209 0)
(-1.2441 -0.000633989 0)
(-1.25356 0.00778207 0)
(-1.25933 0.0163782 0)
(-1.26203 0.0237173 0)
(-1.26294 0.0279889 0)
(-1.26379 0.0282368 0)
(-1.26591 0.0246836 0)
(-1.26986 0.0183878 0)
(-1.27552 0.0106699 0)
(-1.28275 0.00203751 0)
(-1.29039 -0.00807875 0)
(-1.29568 -0.0168086 0)
(-0.117479 -0.522719 0)
(-0.271324 -0.376336 0)
(-0.463621 -0.248717 0)
(-0.628452 -0.16087 0)
(-0.776204 -0.0998131 0)
(-0.90354 -0.0592896 0)
(-1.01139 -0.0338392 0)
(-1.09987 -0.0195712 0)
(-1.17258 -0.0122373 0)
(-1.233 -0.00901678 0)
(-1.28394 -0.00812037 0)
(-1.32754 -0.00835249 0)
(-1.36525 -0.00881164 0)
(-1.39805 -0.00875341 0)
(-1.42659 -0.00766239 0)
(-1.45131 -0.00537207 0)
(-1.47243 -0.00201507 0)
(-1.48992 0.00220744 0)
(-1.50344 0.0071854 0)
(-1.51354 0.0129431 0)
(-1.52037 0.019235 0)
(-1.52449 0.024951 0)
(-1.52709 0.0286015 0)
(-1.52961 0.0291351 0)
(-1.53316 0.0263898 0)
(-1.53831 0.021021 0)
(-1.54525 0.013955 0)
(-1.55397 0.00555155 0)
(-1.56263 -0.00386344 0)
(-1.56802 -0.0115567 0)
(-0.174751 -0.324761 0)
(-0.396364 -0.182248 0)
(-0.649125 -0.0607877 0)
(-0.845255 0.00433227 0)
(-1.0039 0.0354026 0)
(-1.13104 0.0477691 0)
(-1.23299 0.0495666 0)
(-1.31698 0.04629 0)
(-1.38685 0.040592 0)
(-1.44545 0.0340391 0)
(-1.49513 0.0275366 0)
(-1.53764 0.0215314 0)
(-1.57417 0.0163588 0)
(-1.60562 0.0124495 0)
(-1.63282 0.0101842 0)
(-1.65653 0.00961909 0)
(-1.67724 0.0104543 0)
(-1.69503 0.0123141 0)
(-1.70969 0.0150551 0)
(-1.72105 0.0187073 0)
(-1.72932 0.0231179 0)
(-1.73526 0.0275216 0)
(-1.74007 0.030678 0)
(-1.74496 0.0314557 0)
(-1.75073 0.0293662 0)
(-1.7578 0.0247015 0)
(-1.76647 0.0181318 0)
(-1.77685 0.0100884 0)
(-1.78699 0.00124968 0)
(-1.79229 -0.00563345 0)
(-0.247311 -0.014317 0)
(-0.51214 0.125226 0)
(-0.775838 0.161392 0)
(-0.978575 0.168683 0)
(-1.14311 0.161187 0)
(-1.2759 0.146214 0)
(-1.3833 0.12839 0)
(-1.47061 0.110047 0)
(-1.54208 0.0924413 0)
(-1.60131 0.0765575 0)
(-1.6513 0.0628549 0)
(-1.69414 0.0511779 0)
(-1.73105 0.0413174 0)
(-1.76286 0.033481 0)
(-1.79048 0.0280435 0)
(-1.81489 0.0249637 0)
(-1.83668 0.0236359 0)
(-1.85582 0.0233476 0)
(-1.87187 0.0238308 0)
(-1.88457 0.025305 0)
(-1.89429 0.02794 0)
(-1.90205 0.0312613 0)
(-1.90914 0.0341064 0)
(-1.91662 0.035159 0)
(-1.92499 0.0336018 0)
(-1.93442 0.0294322 0)
(-1.94525 0.0232064 0)
(-1.95761 0.0155067 0)
(-1.96926 0.00720759 0)
(-1.97481 0.000963863 0)
(-0.283779 0.3607 0)
(-0.57777 0.410081 0)
(-0.875866 0.387263 0)
(-1.09917 0.345372 0)
(-1.27305 0.298396 0)
(-1.4083 0.252638 0)
(-1.51483 0.21145 0)
(-1.60004 0.175624 0)
(-1.66908 0.14479 0)
(-1.72595 0.119017 0)
(-1.7741 0.0981447 0)
(-1.81589 0.0810496 0)
(-1.85227 0.0666093 0)
(-1.88368 0.0547927 0)
(-1.91106 0.0462069 0)
(-1.93569 0.0408376 0)
(-1.9584 0.0376456 0)
(-1.97895 0.0353748 0)
(-1.99647 0.033571 0)
(-2.01046 0.0327701 0)
(-2.02143 0.033678 0)
(-2.03081 0.0361478 0)
(-2.04014 0.0389488 0)
(-2.0504 0.0404194 0)
(-2.06173 0.0393461 0)
(-2.07397 0.0354738 0)
(-2.08725 0.0293729 0)
(-2.10171 0.0218809 0)
(-2.11496 0.0140738 0)
(-2.1214 0.00838709 0)
(-0.333798 0.771472 0)
(-0.681614 0.755472 0)
(-1.01396 0.641733 0)
(-1.24227 0.529679 0)
(-1.41054 0.434958 0)
(-1.53676 0.35492 0)
(-1.63382 0.289547 0)
(-1.71091 0.236939 0)
(-1.77329 0.193618 0)
(-1.82451 0.158546 0)
(-1.86847 0.131455 0)
(-1.90789 0.109981 0)
(-1.94305 0.0914607 0)
(-1.97343 0.0756788 0)
(-1.9998 0.0640404 0)
(-2.0241 0.056849 0)
(-2.04762 0.0523815 0)
(-2.0698 0.0484409 0)
(-2.08899 0.0442719 0)
(-2.10415 0.0409706 0)
(-2.11602 0.0401357 0)
(-2.12665 0.0420572 0)
(-2.13808 0.0452417 0)
(-2.15123 0.0474253 0)
(-2.16582 0.0468621 0)
(-2.18109 0.0430633 0)
(-2.19686 0.0367662 0)
(-2.21318 0.0292438 0)
(-2.2276 0.021826 0)
(-2.2344 0.0166241 0)
(-0.431895 1.27132 0)
(-0.861099 1.15636 0)
(-1.21811 0.907143 0)
(-1.42242 0.701115 0)
(-1.56241 0.557245 0)
(-1.66552 0.443126 0)
(-1.74292 0.355826 0)
(-1.8054 0.290698 0)
(-1.85734 0.237432 0)
(-1.89991 0.193581 0)
(-1.9373 0.161376 0)
(-1.97344 0.137225 0)
(-2.00737 0.115423 0)
(-2.03634 0.0955484 0)
(-2.06077 0.0808944 0)
(-2.08398 0.0727008 0)
(-2.10827 0.0680292 0)
(-2.13256 0.0629442 0)
(-2.15378 0.0561822 0)
(-2.1699 0.0498359 0)
(-2.18196 0.0470483 0)
(-2.19311 0.0487678 0)
(-2.20623 0.0529136 0)
(-2.22221 0.0562121 0)
(-2.24012 0.05619 0)
(-2.25839 0.0521427 0)
(-2.27634 0.0451598 0)
(-2.29403 0.0372216 0)
(-2.30921 0.0300607 0)
(-2.31624 0.0253602 0)
(-0.633227 2.18334 0)
(-1.15761 1.78082 0)
(-1.52866 1.19689 0)
(-1.65464 0.804564 0)
(-1.72856 0.639914 0)
(-1.79374 0.510359 0)
(-1.83977 0.408239 0)
(-1.8817 0.335749 0)
(-1.92242 0.273028 0)
(-1.95455 0.218097 0)
(-1.98236 0.183296 0)
(-2.01435 0.161897 0)
(-2.04788 0.139629 0)
(-2.07543 0.115405 0)
(-2.09649 0.0968997 0)
(-2.11729 0.0884191 0)
(-2.14237 0.084887 0)
(-2.16972 0.0791452 0)
(-2.19362 0.0691388 0)
(-2.2103 0.0586621 0)
(-2.2213 0.0534624 0)
(-2.23176 0.0555257 0)
(-2.24599 0.0615754 0)
(-2.26483 0.0666472 0)
(-2.28634 0.0672944 0)
(-2.3078 0.0626486 0)
(-2.3278 0.0543911 0)
(-2.3464 0.0455908 0)
(-2.36193 0.0386014 0)
(-2.36907 0.0344614 0)
(9.9959 0.138458 0)
(9.98225 0.275262 0)
(9.9581 0.412559 0)
(9.92452 0.552317 0)
(9.88239 0.696212 0)
(9.83212 0.845798 0)
(9.77393 1.00258 0)
(9.70808 1.16803 0)
(9.63484 1.34362 0)
(9.55448 1.5308 0)
(9.46727 1.73108 0)
(9.37349 1.94599 0)
(9.2734 2.17717 0)
(9.16724 2.42636 0)
(9.05528 2.69546 0)
(8.93774 2.98662 0)
(8.8148 3.30229 0)
(8.68661 3.64535 0)
(8.55324 4.01932 0)
(8.41469 4.42857 0)
(8.2709 4.87875 0)
(8.12176 5.37731 0)
(7.96722 5.93443 0)
(7.80758 6.56445 0)
(7.64407 7.28847 0)
(7.48172 8.13907 0)
(7.3339 9.17025 0)
(7.29097 10.4756 0)
(7.75209 12.2002 0)
(7.93991 14.9201 0)
(9.99638 0.143418 0)
(9.98433 0.285119 0)
(9.96304 0.427291 0)
(9.9335 0.571931 0)
(9.89653 0.720733 0)
(9.85258 0.875253 0)
(9.80191 1.037 0)
(9.74485 1.20745 0)
(9.68175 1.38805 0)
(9.61298 1.58027 0)
(9.53893 1.78558 0)
(9.46003 2.00551 0)
(9.3767 2.24167 0)
(9.28942 2.49579 0)
(9.19873 2.76976 0)
(9.10519 3.06568 0)
(9.00946 3.38597 0)
(8.9123 3.7335 0)
(8.81461 4.11171 0)
(8.71758 4.52485 0)
(8.62283 4.97834 0)
(8.53272 5.4792 0)
(8.45099 6.03676 0)
(8.3839 6.66358 0)
(8.34267 7.37688 0)
(8.34941 8.20004 0)
(8.44309 9.16316 0)
(8.67972 10.2994 0)
(9.32833 11.553 0)
(9.82105 12.6377 0)
(9.99688 0.147857 0)
(9.9865 0.293933 0)
(9.96818 0.440445 0)
(9.94281 0.589407 0)
(9.91118 0.742513 0)
(9.87373 0.901315 0)
(9.83079 1.06731 0)
(9.78275 1.24195 0)
(9.73003 1.42668 0)
(9.6731 1.62292 0)
(9.61248 1.83211 0)
(9.5487 2.05574 0)
(9.48241 2.29535 0)
(9.41428 2.55261 0)
(9.34513 2.82932 0)
(9.27586 3.12747 0)
(9.20759 3.44934 0)
(9.14165 3.79756 0)
(9.07973 4.17525 0)
(9.02404 4.58615 0)
(8.97761 5.03488 0)
(8.94472 5.52708 0)
(8.93166 6.06975 0)
(8.94798 6.67124 0)
(9.00816 7.34098 0)
(9.13437 8.08756 0)
(9.35763 8.91275 0)
(9.68735 9.80525 0)
(10.2531 10.7134 0)
(10.9405 11.4264 0)
(9.9974 0.15172 0)
(9.98873 0.301598 0)
(9.97345 0.451856 0)
(9.95237 0.604512 0)
(9.92619 0.761251 0)
(9.89539 0.923609 0)
(9.86035 1.09306 0)
(9.82149 1.27102 0)
(9.77931 1.4589 0)
(9.73438 1.65806 0)
(9.68731 1.8699 0)
(9.63878 2.0958 0)
(9.5896 2.33725 0)
(9.54064 2.59577 0)
(9.49297 2.87303 0)
(9.44782 3.17081 0)
(9.40666 3.49112 0)
(9.37133 3.83623 0)
(9.34414 4.2087 0)
(9.32804 4.61151 0)
(9.32697 5.04805 0)
(9.34624 5.52216 0)
(9.39308 6.03795 0)
(9.47742 6.59936 0)
(9.61243 7.20915 0)
(9.81494 7.86692 0)
(10.1077 8.56552 0)
(10.4992 9.2902 0)
(11.0563 10.0308 0)
(11.8487 10.6741 0)
(9.99792 0.154961 0)
(9.991 0.30802 0)
(9.97883 0.461388 0)
(9.96209 0.617069 0)
(9.94146 0.776729 0)
(9.9174 0.941874 0)
(9.89032 1.11394 0)
(9.86072 1.2943 0)
(9.82915 1.48431 0)
(9.79626 1.68526 0)
(9.76274 1.89845 0)
(9.72941 2.12519 0)
(9.6972 2.36681 0)
(9.66718 2.62469 0)
(9.6406 2.90027 0)
(9.61894 3.19509 0)
(9.60399 3.5108 0)
(9.59792 3.84918 0)
(9.60343 4.21214 0)
(9.6239 4.60172 0)
(9.66365 5.02002 0)
(9.7282 5.46904 0)
(9.82463 5.95039 0)
(9.96188 6.46475 0)
(10.151 7.01101 0)
(10.405 7.58528 0)
(10.7413 8.17941 0)
(11.1712 8.7787 0)
(11.7179 9.37157 0)
(12.47 9.88318 0)
(9.99845 0.157536 0)
(9.9933 0.313114 0)
(9.98426 0.468914 0)
(9.97191 0.626913 0)
(9.95686 0.788743 0)
(9.93956 0.955869 0)
(9.92047 1.12968 0)
(9.90011 1.31149 0)
(9.87911 1.50257 0)
(9.85816 1.70414 0)
(9.83805 1.91739 0)
(9.81968 2.14351 0)
(9.80409 2.38365 0)
(9.79249 2.63901 0)
(9.78627 2.91079 0)
(9.7871 3.20021 0)
(9.79693 3.50851 0)
(9.81814 3.83694 0)
(9.85358 4.18671 0)
(9.90676 4.55895 0)
(9.98193 4.95454 0)
(10.0843 5.37396 0)
(10.2203 5.81694 0)
(10.3973 6.282 0)
(10.6243 6.76589 0)
(10.9107 7.26282 0)
(11.268 7.76356 0)
(11.7039 8.25256 0)
(12.2192 8.71313 0)
(12.8939 9.1038 0)
(9.99898 0.159407 0)
(9.9956 0.316803 0)
(9.98969 0.474322 0)
(9.98174 0.633896 0)
(9.97224 0.797112 0)
(9.96167 0.965385 0)
(9.95051 1.14004 0)
(9.93931 1.32232 0)
(9.92873 1.51341 0)
(9.91951 1.71443 0)
(9.9125 1.92645 0)
(9.90867 2.1505 0)
(9.90913 2.38757 0)
(9.91518 2.63864 0)
(9.9283 2.90462 0)
(9.95023 3.18642 0)
(9.98302 3.48483 0)
(10.0291 3.8006 0)
(10.0912 4.13426 0)
(10.1727 4.48612 0)
(10.2776 4.85608 0)
(10.4105 5.24343 0)
(10.5767 5.64658 0)
(10.782 6.06273 0)
(11.033 6.48739 0)
(11.3359 6.91386 0)
(11.6969 7.3328 0)
(12.1201 7.7308 0)
(12.5993 8.09331 0)
(13.2037 8.39986 0)
(9.99951 0.16054 0)
(9.99788 0.319021 0)
(9.99509 0.477514 0)
(9.99148 0.637892 0)
(9.98749 0.801687 0)
(9.98356 0.97025 0)
(9.98018 1.14483 0)
(9.97795 1.3266 0)
(9.97753 1.51664 0)
(9.9797 1.71595 0)
(9.98534 1.92547 0)
(9.99546 2.14607 0)
(10.0112 2.37855 0)
(10.0339 2.62367 0)
(10.0651 2.88206 0)
(10.1065 3.15428 0)
(10.16 3.44075 0)
(10.2281 3.7417 0)
(10.3134 4.05711 0)
(10.4189 4.38661 0)
(10.548 4.72932 0)
(10.7045 5.08373 0)
(10.8926 5.44744 0)
(11.1166 5.81694 0)
(11.3807 6.18733 0)
(11.6887 6.55204 0)
(12.0435 6.90282 0)
(12.4466 7.22935 0)
(12.8902 7.52052 0)
(13.4324 7.76505 0)
(10 0.160907 0)
(10.0001 0.319712 0)
(10.0004 0.478409 0)
(10.0011 0.6388 0)
(10.0025 0.802348 0)
(10.005 0.970333 0)
(10.0092 1.14392 0)
(10.0157 1.3242 0)
(10.0251 1.51213 0)
(10.0382 1.7086 0)
(10.0559 1.9144 0)
(10.0792 2.13025 0)
(10.1093 2.35676 0)
(10.1475 2.59444 0)
(10.1952 2.84367 0)
(10.2541 3.1047 0)
(10.3262 3.37758 0)
(10.4134 3.66214 0)
(10.5183 3.95788 0)
(10.6433 4.26392 0)
(10.7914 4.57888 0)
(10.9654 4.90073 0)
(11.1684 5.22669 0)
(11.4033 5.55305 0)
(11.6727 5.87506 0)
(11.9785 6.18688 0)
(12.3215 6.48164 0)
(12.7014 6.75154 0)
(13.1106 6.98823 0)
(13.5976 7.18491 0)
(10.0005 0.160486 0)
(10.0023 0.318835 0)
(10.0056 0.476949 0)
(10.0104 0.636546 0)
(10.017 0.799013 0)
(10.0258 0.96555 0)
(10.0374 1.13724 0)
(10.0522 1.31505 0)
(10.0709 1.49985 0)
(10.0944 1.6924 0)
(10.1234 1.89336 0)
(10.1591 2.10326 0)
(10.2024 2.32253 0)
(10.2547 2.55148 0)
(10.3173 2.79024 0)
(10.3919 3.03879 0)
(10.4799 3.29688 0)
(10.5835 3.56399 0)
(10.7044 3.83929 0)
(10.845 4.12156 0)
(11.0073 4.4091 0)
(11.1935 4.69967 0)
(11.4057 4.99037 0)
(11.6457 5.27765 0)
(11.9148 5.5572 0)
(12.2136 5.82406 0)
(12.5416 6.0727 0)
(12.8975 6.29725 0)
(13.2742 6.49168 0)
(13.7135 6.65183 0)
(10.001 0.159262 0)
(10.0044 0.316361 0)
(10.0106 0.473093 0)
(10.0194 0.631085 0)
(10.031 0.791637 0)
(10.0459 0.955862 0)
(10.0644 1.12475 0)
(10.0871 1.29917 0)
(10.1147 1.47987 0)
(10.1478 1.66749 0)
(10.1874 1.86254 0)
(10.2344 2.06542 0)
(10.2898 2.27637 0)
(10.3548 2.4955 0)
(10.4306 2.72274 0)
(10.5187 2.95785 0)
(10.6204 3.20033 0)
(10.7373 3.44942 0)
(10.8711 3.70407 0)
(11.0235 3.96285 0)
(11.1959 4.22393 0)
(11.39 4.48503 0)
(11.6069 4.74337 0)
(11.8476 4.9957 0)
(12.1125 5.23832 0)
(12.4012 5.46713 0)
(12.7128 5.67781 0)
(13.0452 5.86602 0)
(13.3924 6.02752 0)
(13.7908 6.15981 0)
(10.0015 0.157228 0)
(10.0065 0.312274 0)
(10.0154 0.466824 0)
(10.028 0.622398 0)
(10.0444 0.780209 0)
(10.0649 0.941277 0)
(10.09 1.10649 0)
(10.1202 1.27663 0)
(10.156 1.45231 0)
(10.1981 1.63407 0)
(10.2474 1.82228 0)
(10.3047 2.01718 0)
(10.3709 2.21888 0)
(10.447 2.42732 0)
(10.5343 2.64227 0)
(10.6338 2.86327 0)
(10.7468 3.08969 0)
(10.8745 3.32061 0)
(11.0182 3.55482 0)
(11.1791 3.79084 0)
(11.3582 4.02681 0)
(11.5566 4.26056 0)
(11.7747 4.48956 0)
(12.0129 4.71095 0)
(12.271 4.92163 0)
(12.5481 5.11832 0)
(12.8428 5.29772 0)
(13.1531 5.45666 0)
(13.4737 5.59224 0)
(13.8368 5.70295 0)
(10.0019 0.154382 0)
(10.0084 0.306575 0)
(10.0199 0.458144 0)
(10.0361 0.6105 0)
(10.0571 0.76476 0)
(10.0829 0.921851 0)
(10.1141 1.08257 0)
(10.1511 1.24757 0)
(10.1945 1.4174 0)
(10.2449 1.59245 0)
(10.3029 1.77298 0)
(10.3693 1.95911 0)
(10.445 2.15081 0)
(10.5309 2.34789 0)
(10.6279 2.54998 0)
(10.7369 2.75652 0)
(10.859 2.96673 0)
(10.995 3.17963 0)
(11.146 3.39396 0)
(11.3126 3.60824 0)
(11.4956 3.82071 0)
(11.6954 4.02937 0)
(11.9121 4.23198 0)
(12.1456 4.42612 0)
(12.3953 4.60926 0)
(12.66 4.77883 0)
(12.9382 4.93234 0)
(13.228 5.06752 0)
(13.5247 5.1824 0)
(13.8575 5.27613 0)
(10.0024 0.15073 0)
(10.0102 0.299277 0)
(10.0241 0.447076 0)
(10.0437 0.595429 0)
(10.0689 0.745353 0)
(10.0997 0.897681 0)
(10.1366 1.05311 0)
(10.1799 1.2122 0)
(10.2301 1.3754 0)
(10.2878 1.54299 0)
(10.3536 1.71512 0)
(10.4281 1.89182 0)
(10.512 2.07293 0)
(10.6062 2.25818 0)
(10.7112 2.44709 0)
(10.8279 2.63902 0)
(10.957 2.83314 0)
(11.0992 3.02844 0)
(11.2551 3.22367 0)
(11.4252 3.41744 0)
(11.6097 3.60811 0)
(11.8087 3.79392 0)
(12.0221 3.97294 0)
(12.2494 4.14317 0)
(12.4897 4.30257 0)
(12.7419 4.44917 0)
(13.0044 4.58112 0)
(13.2753 4.69683 0)
(13.5508 4.79496 0)
(13.8573 4.87508 0)
(10.0027 0.146285 0)
(10.0119 0.290404 0)
(10.0281 0.433666 0)
(10.0508 0.577253 0)
(10.0798 0.722086 0)
(10.1152 0.868904 0)
(10.1572 1.01831 0)
(10.2062 1.17078 0)
(10.2626 1.32665 0)
(10.3268 1.48613 0)
(10.3994 1.64927 0)
(10.4809 1.816 0)
(10.5718 1.9861 0)
(10.6727 2.15921 0)
(10.7843 2.3348 0)
(10.907 2.51218 0)
(11.0414 2.69052 0)
(11.1878 2.86882 0)
(11.3467 3.0459 0)
(11.5183 3.22046 0)
(11.7024 3.39107 0)
(11.8991 3.55618 0)
(12.1078 3.71418 0)
(12.3279 3.86343 0)
(12.5585 4.00235 0)
(12.7984 4.12941 0)
(13.046 4.24329 0)
(13.2996 4.34285 0)
(13.5562 4.42724 0)
(13.8398 4.49629 0)
(10.0031 0.141065 0)
(10.0134 0.279996 0)
(10.0317 0.417972 0)
(10.0573 0.55606 0)
(10.0898 0.695084 0)
(10.1293 0.835692 0)
(10.1759 0.9784 0)
(10.23 1.12359 0)
(10.2918 1.27153 0)
(10.3618 1.42234 0)
(10.4402 1.57599 0)
(10.5276 1.73236 0)
(10.6243 1.89116 0)
(10.7307 2.05198 0)
(10.8474 2.21427 0)
(10.9746 2.37733 0)
(11.1126 2.54035 0)
(11.2617 2.70237 0)
(11.422 2.86232 0)
(11.5935 3.01903 0)
(11.7759 3.17125 0)
(11.969 3.31766 0)
(12.1721 3.45695 0)
(12.3846 3.5878 0)
(12.6054 3.70897 0)
(12.8333 3.81933 0)
(13.067 3.91792 0)
(13.3051 4.00397 0)
(13.5448 4.07693 0)
(13.8083 4.13681 0)
(10.0034 0.135094 0)
(10.0148 0.268101 0)
(10.035 0.400072 0)
(10.0631 0.531962 0)
(10.0988 0.664498 0)
(10.142 0.798244 0)