/*--------------------------------*- C++ -*----------------------------------*\
  =========                 |
  \\      /  F ield         | OpenFOAM: The Open Source CFD Toolbox
   \\    /   O peration     | Website:  https://openfoam.org
    \\  /    A nd           | Version:  7
     \\/     M anipulation  |
\*---------------------------------------------------------------------------*/
FoamFile
{
    version     2.0;
    format      ascii;
    class       surfaceVectorField;
    location    "3.4";
    object      Uf;
}
// * * * * * * * * * * * * * * * * * * * * * * * * * * * * * * * * * * * * * //

dimensions      [0 1 -1 0 0 0 0];

internalField   nonuniform List<vector> 
5457
(
(9.92088 0.02511 0)
(9.97124 0.0387463 0)
(9.82401 0.0328275 0)
(9.92859 0.0485863 0)
(9.70961 0.039313 0)
(9.85547 0.0587698 0)
(9.57543 0.0460127 0)
(9.75679 0.0705954 0)
(9.42136 0.0529502 0)
(9.63752 0.0830158 0)
(9.24753 0.0601675 0)
(9.49859 0.0959391 0)
(9.0536 0.0678122 0)
(9.33928 0.109615 0)
(8.8389 0.0760357 0)
(9.15872 0.124291 0)
(8.60249 0.0849711 0)
(8.95607 0.140169 0)
(8.34323 0.0947454 0)
(8.73035 0.157435 0)
(8.05981 0.105487 0)
(8.48037 0.176271 0)
(7.75077 0.117327 0)
(8.20474 0.196857 0)
(7.41453 0.130394 0)
(7.90192 0.21936 0)
(7.04948 0.144809 0)
(7.57028 0.243921 0)
(6.65402 0.16067 0)
(7.20817 0.270629 0)
(6.22671 0.178041 0)
(6.81399 0.299496 0)
(5.76643 0.196925 0)
(6.38633 0.330409 0)
(5.27259 0.217229 0)
(5.92418 0.363077 0)
(4.74541 0.238731 0)
(5.42713 0.396969 0)
(4.18625 0.261028 0)
(4.8957 0.431229 0)
(3.59804 0.283484 0)
(4.3317 0.464612 0)
(2.98563 0.305198 0)
(3.73868 0.495418 0)
(2.3562 0.325066 0)
(3.12236 0.521508 0)
(1.7192 0.342546 0)
(2.49116 0.540555 0)
(1.08444 0.361879 0)
(1.85595 0.551673 0)
(0.451931 0.348706 0)
(1.24557 0.563019 0)
(-0.145775 0.102503 0)
(0.609028 0.544908 0)
(-0.423594 -0.207087 0)
(0.0946989 0.259406 0)
(-0.402146 -0.361265 0)
(-0.133615 -0.0205113 0)
(-0.119678 -0.393877 0)
(9.99641 0.0516737 0)
(9.99705 0.0405058 0)
(9.95878 0.0708636 0)
(9.9785 0.0674567 0)
(9.89824 0.0879896 0)
(9.93377 0.0898732 0)
(9.81658 0.105988 0)
(9.86452 0.113559 0)
(9.71357 0.124925 0)
(9.77437 0.138519 0)
(9.58907 0.144857 0)
(9.66433 0.164651 0)
(9.44272 0.166094 0)
(9.53395 0.192337 0)
(9.27388 0.18897 0)
(9.38247 0.222035 0)
(9.08163 0.213785 0)
(9.20916 0.254153 0)
(8.86487 0.240817 0)
(9.01313 0.289067 0)
(8.62227 0.270337 0)
(8.79328 0.327154 0)
(8.35236 0.302606 0)
(8.54832 0.368786 0)
(8.05353 0.337855 0)
(8.2768 0.414314 0)
(7.72409 0.376258 0)
(7.97714 0.464042 0)
(7.36235 0.417896 0)
(7.64769 0.518182 0)
(6.96671 0.4627 0)
(7.28681 0.576797 0)
(6.53584 0.510377 0)
(6.89295 0.639714 0)
(6.06885 0.560322 0)
(6.46482 0.706414 0)
(5.56562 0.611509 0)
(6.00162 0.775894 0)
(5.02715 0.662373 0)
(5.5033 0.846508 0)
(4.45594 0.710698 0)
(4.97094 0.915791 0)
(3.85657 0.753531 0)
(4.40725 0.980293 0)
(3.23628 0.787191 0)
(3.81712 1.03545 0)
(2.60591 0.8075 0)
(3.20855 1.07548 0)
(1.98288 0.810469 0)
(2.59348 1.09315 0)
(1.40536 0.776911 0)
(1.99629 1.07709 0)
(0.929827 0.646428 0)
(1.41958 0.978439 0)
(0.439929 0.38438 0)
(0.937631 0.716833 0)
(0.0592092 -0.118576 0)
(0.44386 0.343573 0)
(0.174934 -0.335885 0)
(9.98903 0.059433 0)
(9.99481 0.0458792 0)
(9.95433 0.08948 0)
(9.97368 0.0848576 0)
(9.89729 0.118036 0)
(9.92984 0.119179 0)
(9.82045 0.147904 0)
(9.86356 0.153982 0)
(9.72415 0.179428 0)
(9.77735 0.190415 0)
(9.60819 0.212782 0)
(9.67225 0.228644 0)
(9.47232 0.248398 0)
(9.54808 0.269137 0)
(9.31605 0.28678 0)
(9.40429 0.312504 0)
(9.13865 0.328401 0)
(9.24031 0.359331 0)
(8.93921 0.373724 0)
(9.05546 0.410178 0)
(8.71661 0.423206 0)
(8.84886 0.4656 0)
(8.46956 0.477293 0)
(8.61947 0.526151 0)
(8.19664 0.536392 0)
(8.36612 0.592367 0)
(7.8963 0.600831 0)
(8.08748 0.664728 0)
(7.5669 0.670796 0)
(7.78217 0.743603 0)
(7.20682 0.746238 0)
(7.44871 0.82917 0)
(6.81457 0.82676 0)
(7.08567 0.921295 0)
(6.38889 0.911459 0)
(6.69171 1.01938 0)
(5.92906 0.998732 0)
(6.26574 1.12214 0)
(5.43519 1.08607 0)
(5.80715 1.22739 0)
(4.90861 1.1698 0)
(5.31613 1.33172 0)
(4.35251 1.24487 0)
(4.79404 1.43017 0)
(3.77268 1.30454 0)
(4.24406 1.51586 0)
(3.17882 1.33984 0)
(3.6719 1.57942 0)
(2.58672 1.33813 0)
(3.08642 1.60775 0)
(2.01995 1.273 0)
(2.50302 1.5816 0)
(1.48702 1.09545 0)
(1.92882 1.46429 0)
(0.958354 0.769224 0)
(1.38532 1.21046 0)
(0.479912 0.202524 0)
(0.829588 0.801111 0)
(0.433752 0.134159 0)
(9.98515 0.0716169 0)
(9.99367 0.0531502 0)
(9.95039 0.113635 0)
(9.97087 0.102295 0)
(9.89436 0.15414 0)
(9.9269 0.14796 0)
(9.81881 0.195581 0)
(9.86184 0.19373 0)
(9.7244 0.23882 0)
(9.77745 0.241287 0)
(9.6111 0.284333 0)
(9.67465 0.291174 0)
(9.47872 0.332729 0)
(9.5534 0.343966 0)
(9.32692 0.384682 0)
(9.41333 0.400381 0)
(9.15519 0.440852 0)
(9.25397 0.461147 0)
(8.96287 0.501886 0)
(9.0748 0.526966 0)
(8.74913 0.568427 0)
(8.87516 0.598538 0)
(8.513 0.641107 0)
(8.65426 0.67656 0)
(8.25342 0.720521 0)
(8.41119 0.761713 0)
(7.96923 0.807175 0)
(8.14496 0.854623 0)
(7.65915 0.901417 0)
(7.85451 0.955799 0)
(7.32191 1.00332 0)
(7.53873 1.06554 0)
(6.9562 1.11254 0)
(7.19645 1.18381 0)
(6.56086 1.2281 0)
(6.82653 1.31004 0)
(6.13491 1.34813 0)
(6.42791 1.44287 0)
(5.67789 1.46956 0)
(5.9997 1.57986 0)
(5.19006 1.58774 0)
(5.54139 1.71704 0)
(4.67294 1.696 0)
(5.05312 1.8485 0)
(4.12989 1.78513 0)
(4.53605 1.9658 0)
(3.56675 1.84252 0)
(3.99283 2.05729 0)
(2.99215 1.85073 0)
(3.4277 2.10714 0)
(2.41593 1.78252 0)
(2.84773 2.09451 0)
(1.84062 1.60051 0)
(2.25632 1.98878 0)
(1.25944 1.2785 0)
(1.66039 1.75312 0)
(0.666803 0.789622 0)
(1.02401 1.36786 0)
(0.523056 0.787251 0)
(9.98337 0.0844112 0)
(9.99316 0.0612943 0)
(9.94821 0.136843 0)
(9.96958 0.119933 0)
(9.89314 0.18804 0)
(9.92574 0.176248 0)
(9.81905 0.240179 0)
(9.86198 0.232708 0)
(9.72661 0.294478 0)
(9.77962 0.291099 0)
(9.61588 0.35167 0)
(9.67938 0.352286 0)
(9.48668 0.412481 0)
(9.56125 0.416989 0)
(9.33875 0.477685 0)
(9.42494 0.486019 0)
(9.17167 0.548057 0)
(9.27006 0.560213 0)
(8.98488 0.624357 0)
(9.09616 0.640392 0)
(8.77774 0.707342 0)
(8.9027 0.727369 0)
(8.54949 0.797757 0)
(8.68902 0.821952 0)
(8.29931 0.896312 0)
(8.4544 0.924931 0)
(8.02631 1.00363 0)
(8.19803 1.03704 0)
(7.72954 1.12018 0)
(7.91908 1.15889 0)
(7.40803 1.24613 0)
(7.61666 1.29089 0)
(7.06075 1.38123 0)
(7.28983 1.4331 0)
(6.68669 1.52454 0)
(6.93762 1.58505 0)
(6.28487 1.67414 0)
(6.55899 1.74545 0)
(5.85442 1.82674 0)
(6.15289 1.91183 0)
(5.39476 1.97721 0)
(5.71826 2.08011 0)
(4.90582 2.11801 0)
(5.25414 2.24404 0)
(4.38834 2.23858 0)
(4.75982 2.39456 0)
(3.84404 2.32453 0)
(4.23505 2.51917 0)
(3.27554 2.35696 0)
(3.68 2.60123 0)
(2.68549 2.31063 0)
(3.09583 2.61973 0)
(2.07277 2.15507 0)
(2.48179 2.54738 0)
(1.42944 1.86749 0)
(1.84 2.35381 0)
(0.742646 1.41968 0)
(1.13142 2.02464 0)
(0.543332 1.51463 0)
(9.98264 0.0975024 0)
(9.99299 0.0697963 0)
(9.94743 0.159782 0)
(9.96924 0.13759 0)
(9.89354 0.221358 0)
(9.92596 0.203936 0)
(9.82132 0.284104 0)
(9.8638 0.2707 0)
(9.73132 0.349361 0)
(9.78384 0.339596 0)
(9.62364 0.418032 0)
(9.68663 0.411712 0)
(9.49816 0.490951 0)
(9.57215 0.487918 0)
(9.35462 0.568985 0)
(9.44018 0.569118 0)
(9.19265 0.653012 0)
(9.29039 0.656245 0)
(9.01179 0.743901 0)
(9.12238 0.750221 0)
(8.81147 0.842515 0)
(8.93567 0.851959 0)
(8.59104 0.949701 0)
(8.72968 0.962362 0)
(8.3498 1.06627 0)
(8.50376 1.08231 0)
(8.08702 1.19294 0)
(8.25723 1.21263 0)
(7.80188 1.33027 0)
(7.98933 1.35402 0)
(7.49357 1.47856 0)
(7.69925 1.50699 0)
(7.16117 1.63764 0)
(7.38614 1.67171 0)
(6.80372 1.80669 0)
(7.04901 1.84786 0)
(6.42012 1.98391 0)
(6.68675 2.03429 0)
(6.00916 2.16607 0)
(6.29803 2.22877 0)
(5.56946 2.34805 0)
(5.88123 2.42741 0)
(5.09953 2.52215 0)
(5.4344 2.62419 0)
(4.59784 2.67753 0)
(4.9552 2.81024 0)
(4.0628 2.79948 0)
(4.44095 2.97319 0)
(3.49281 2.86912 0)
(3.88864 3.09662 0)
(2.88594 2.86296 0)
(3.29535 3.15993 0)
(2.23811 2.75401 0)
(2.65702 3.13798 0)
(1.54251 2.52115 0)
(1.97494 3.0033 0)
(0.793688 2.13148 0)
(1.20731 2.74075 0)
(0.556768 2.29199 0)
(9.9825 0.110632 0)
(9.99301 0.0783655 0)
(9.9477 0.182333 0)
(9.96953 0.155045 0)
(9.89522 0.253829 0)
(9.92721 0.230897 0)
(9.82523 0.326781 0)
(9.86696 0.307523 0)
(9.73811 0.40257 0)
(9.78976 0.386539 0)
(9.63401 0.482249 0)
(9.69603 0.469166 0)
(9.51282 0.566772 0)
(9.58576 0.556415 0)
(9.37434 0.657106 0)
(9.45876 0.649287 0)
(9.21824 0.754223 0)
(9.31476 0.748801 0)
(9.04409 0.85909 0)
(9.15342 0.855972 0)
(8.8514 0.972662 0)
(8.97429 0.971805 0)
(8.63957 1.09588 0)
(8.77685 1.09729 0)
(8.40797 1.22963 0)
(8.56052 1.23341 0)
(8.1559 1.37473 0)
(8.32464 1.38105 0)
(7.8826 1.53183 0)
(8.06847 1.54105 0)
(7.58723 1.70134 0)
(7.79121 1.71401 0)
(7.26887 1.88324 0)
(7.49192 1.90025 0)
(6.92641 2.07691 0)
(7.16952 2.09964 0)
(6.55852 2.28078 0)
(6.82265 2.31132 0)
(6.1635 2.49198 0)
(6.4496 2.53341 0)
(5.73918 2.70576 0)
(6.04814 2.76256 0)
(5.28281 2.91492 0)
(5.61531 2.99339 0)
(4.79093 3.10911 0)
(5.14734 3.21778 0)
(4.25942 3.27418 0)
(4.63951 3.42422 0)
(3.68352 3.39187 0)
(4.0862 3.59713 0)
(3.05818 3.43974 0)
(3.48147 3.71657 0)
(2.37786 3.3919 0)
(2.81851 3.75821 0)
(1.638 3.22632 0)
(2.09929 3.69412 0)
(0.839181 2.90103 0)
(1.27901 3.50467 0)
(0.573402 3.11392 0)
(9.98273 0.123588 0)
(9.99316 0.0868222 0)
(9.94872 0.20432 0)
(9.97026 0.172102 0)
(9.89793 0.285266 0)
(9.92926 0.256988 0)
(9.83049 0.367982 0)
(9.87122 0.343005 0)
(9.74669 0.45387 0)
(9.79714 0.431698 0)
(9.64666 0.544096 0)
(9.70732 0.524372 0)
(9.53035 0.639726 0)
(9.60178 0.622156 0)
(9.39758 0.741816 0)
(9.48034 0.726145 0)
(9.24808 0.851427 0)
(9.34281 0.837441 0)
(9.08148 0.969614 0)
(9.18889 0.957144 0)
(8.89731 1.09742 0)
(9.01818 1.08635 0)
(8.69504 1.23588 0)
(8.83023 1.22613 0)
(8.47407 1.38596 0)
(8.62448 1.37757 0)
(8.2337 1.5486 0)
(8.4003 1.54166 0)
(7.97317 1.72456 0)
(8.15695 1.71934 0)
(7.69157 1.91439 0)
(7.89358 1.91138 0)
(7.38782 2.11828 0)
(7.60915 2.11829 0)
(7.0606 2.33589 0)
(7.30239 2.34021 0)
(6.70821 2.56603 0)
(6.97164 2.57667 0)
(6.32839 2.80639 0)
(6.61473 2.82633 0)
(5.91816 3.05295 0)
(6.22876 3.08659 0)
(5.47354 3.29944 0)
(5.80982 3.35307 0)
(4.98943 3.53659 0)
(5.35277 3.61889 0)
(4.45949 3.75138 0)
(4.85102 3.87393 0)
(3.87639 3.92647 0)
(4.2966 4.10391 0)
(3.2325 4.03992 0)
(3.68075 4.28971 0)
(2.52099 4.06511 0)
(2.99371 4.40687 0)
(1.7385 3.97631 0)
(2.23755 4.42475 0)
(0.889541 3.71898 0)
(1.36348 4.31653 0)
(0.59881 3.98517 0)
(9.98321 0.136211 0)
(9.99339 0.0950459 0)
(9.95031 0.225584 0)
(9.97131 0.1886 0)
(9.9015 0.315513 0)
(9.93193 0.282065 0)
(9.83692 0.407523 0)
(9.87642 0.37698 0)
(9.75682 0.503034 0)
(9.80577 0.474863 0)
(9.66132 0.603299 0)
(9.72028 0.577074 0)
(9.55043 0.709481 0)
(9.61992 0.684839 0)
(9.42399 0.822721 0)
(9.50461 0.799339 0)
(9.28179 0.944161 0)
(9.37417 0.921754 0)
(9.1235 1.07494 0)
(9.22838 1.05326 0)
(8.94873 1.21619 0)
(9.06689 1.19505 0)
(8.75699 1.36904 0)
(8.88931 1.34827 0)
(8.54769 1.53456 0)
(8.69513 1.51411 0)
(8.32018 1.71381 0)
(8.48375 1.69368 0)
(8.07364 1.90769 0)
(8.25443 1.88806 0)
(7.80708 2.11696 0)
(8.00629 2.09821 0)
(7.51928 2.34208 0)
(7.7382 2.32489 0)
(7.20866 2.58306 0)
(7.44869 2.56859 0)
(6.8731 2.83928 0)
(7.13583 2.82934 0)
(6.5098 3.10915 0)
(6.79702 3.10651 0)
(6.11495 3.38968 0)
(6.42872 3.39848 0)
(5.68342 3.67591 0)
(6.02613 3.70216 0)
(5.20853 3.96011 0)
(5.58281 4.01236 0)
(4.68183 4.23093 0)
(5.09039 4.32087 0)
(4.09339 4.4723 0)
(4.53838 4.61533 0)
(3.43264 4.6626 0)
(3.91484 4.87787 0)
(2.69026 4.77328 0)
(3.20584 5.08367 0)
(1.86195 4.77261 0)
(2.41143 5.19815 0)
(0.954241 4.58999 0)
(1.47639 5.18458 0)
(0.639246 4.91979 0)
(9.98386 0.148378 0)
(9.99368 0.10295 0)
(9.95235 0.245985 0)
(9.9726 0.204407 0)
(9.90577 0.344418 0)
(9.93509 0.305988 0)
(9.84436 0.445221 0)
(9.8824 0.409293 0)
(9.76831 0.549837 0)
(9.8155 0.515843 0)
(9.67777 0.659586 0)
(9.73468 0.627039 0)
(9.57277 0.775714 0)
(9.63995 0.744187 0)
(9.45323 0.899442 0)
(9.53125 0.868544 0)
(9.31896 1.03199 0)
(9.40848 1.00136 0)
(9.16972 1.17457 0)
(9.27145 1.14389 0)
(9.00516 1.3284 0)
(9.11992 1.29739 0)
(8.82485 1.49471 0)
(8.95354 1.46313 0)
(8.62827 1.67469 0)
(8.77186 1.64235 0)
(8.41477 1.86951 0)
(8.57434 1.83634 0)
(8.18353 2.08028 0)
(8.36029 2.0463 0)
(7.93353 2.30798 0)
(8.12881 2.27343 0)
(7.66342 2.55341 0)
(7.87873 2.51879 0)
(7.37139 2.81707 0)
(7.60848 2.78329 0)
(7.05504 3.09898 0)
(7.31594 3.06756 0)
(6.71103 3.39851 0)
(6.99819 3.37181 0)
(6.33485 3.71392 0)
(6.65121 3.69561 0)
(5.92034 4.04195 0)
(6.26947 4.03749 0)
(5.4593 4.37693 0)
(5.84542 4.39435 0)
(4.94113 4.70979 0)
(5.36895 4.76058 0)
(4.35282 5.02649 0)
(4.8269 5.12664 0)
(3.67971 5.30622 0)
(4.20332 5.47703 0)
(2.90764 5.51831 0)
(3.47807 5.78754 0)
(2.02778 5.62324 0)
(2.64521 6.0197 0)
(1.04517 5.52978 0)
(1.63785 6.12425 0)
(0.704539 5.94348 0)
(9.98464 0.159991 0)
(9.99402 0.11047 0)
(9.95472 0.265398 0)
(9.97408 0.219415 0)
(9.91064 0.371843 0)
(9.93867 0.328633 0)
(9.85265 0.480911 0)
(9.88903 0.439803 0)
(9.78098 0.594075 0)
(9.82616 0.554464 0)
(9.69578 0.712713 0)
(9.75035 0.674059 0)
(9.59712 0.838139 0)
(9.66163 0.799952 0)
(9.48497 0.971645 0)
(9.55998 0.933469 0)
(9.35921 1.11452 0)
(9.44537 1.07593 0)
(9.21966 1.26804 0)
(9.3177 1.22864 0)
(9.06605 1.43353 0)
(9.17676 1.39293 0)
(8.89802 1.61228 0)
(9.02232 1.57016 0)
(8.71512 1.80561 0)
(8.854 1.76168 0)
(8.51676 2.01486 0)
(8.67135 1.96888 0)
(8.30216 2.24131 0)
(8.47374 2.19316 0)
(8.07031 2.48623 0)
(8.26034 2.43594 0)
(7.81981 2.7508 0)
(8.03002 2.69861 0)
(7.54877 3.03606 0)
(7.78122 2.98255 0)
(7.2546 3.34282 0)
(7.51176 3.28906 0)
(6.93368 3.67153 0)
(7.21865 3.61931 0)
(6.58098 4.02199 0)
(6.89763 3.9742 0)
(6.18956 4.39296 0)
(6.54279 4.35413 0)
(5.74992 4.78145 0)
(6.14583 4.75861 0)
(5.24932 5.1816 0)
(5.69526 5.18538 0)
(4.6712 5.58275 0)
(5.17533 5.6291 0)
(3.99519 5.96659 0)
(4.5654 6.07877 0)
(3.1987 6.30187 0)
(3.83667 6.51367 0)
(2.26201 6.54098 0)
(2.97116 6.8943 0)
(1.18075 6.56553 0)
(1.87939 7.15827 0)
(0.812934 7.09995 0)
(9.98553 0.170975 0)
(9.9944 0.117555 0)
(9.95738 0.283717 0)
(9.97572 0.233535 0)
(9.91599 0.39766 0)
(9.94258 0.349892 0)
(9.86168 0.514442 0)
(9.89622 0.468381 0)
(9.79466 0.635569 0)
(9.83763 0.590575 0)
(9.71514 0.762465 0)
(9.7671 0.717948 0)
(9.6232 0.896504 0)
(9.68471 0.851915 0)
(9.51889 1.03904 0)
(9.5905 0.993858 0)
(9.40214 1.19141 0)
(9.4845 1.14514 0)
(9.27286 1.35497 0)
(9.36666 1.30715 0)
(9.13085 1.5311 0)
(9.2369 1.48125 0)
(8.97586 1.72119 0)
(9.09505 1.66888 0)
(8.80753 1.92669 0)
(8.94085 1.8715 0)
(8.62535 2.14904 0)
(8.77397 2.0906 0)
(8.42866 2.38978 0)
(8.59388 2.32777 0)
(8.2165 2.65043 0)
(8.3999 2.58463 0)
(7.98759 2.9326 0)
(8.19102 2.86294 0)
(7.74009 3.2379 0)
(7.96583 3.16452 0)
(7.47143 3.56799 0)
(7.72234 3.49137 0)
(7.17797 3.92449 0)
(7.45769 3.84563 0)
(6.85458 4.3089 0)
(7.16782 4.22963 0)
(6.49399 4.7224 0)
(6.84692 4.64584 0)
(6.08593 5.16529 0)
(6.48663 5.0967 0)
(5.61595 5.6361 0)
(6.07495 5.58419 0)
(5.06397 6.12967 0)
(5.59439 6.10883 0)
(4.40266 6.63374 0)
(5.02007 6.66742 0)
(3.59659 7.12134 0)
(4.3131 7.24853 0)
(2.60474 7.54097 0)
(3.43624 7.82042 0)
(1.39456 7.741 0)
(2.25693 8.31556 0)
(1.00287 8.46584 0)
(9.9865 0.181265 0)
(9.9948 0.124165 0)
(9.96026 0.300853 0)
(9.97747 0.246698 0)
(9.92175 0.421761 0)
(9.94675 0.369672 0)
(9.87132 0.545684 0)
(9.90386 0.494918 0)
(9.80921 0.674161 0)
(9.84975 0.624043 0)
(9.73564 0.808655 0)
(9.78475 0.758549 0)
(9.65076 0.950586 0)
(9.70898 0.899891 0)
(9.55466 1.10135 0)
(9.62253 1.04949 0)
(9.44735 1.26235 0)
(9.52549 1.20876 0)
(9.32883 1.43498 0)
(9.41791 1.37912 0)
(9.19899 1.62069 0)
(9.29979 1.562 0)
(9.05769 1.82094 0)
(9.17108 1.75889 0)
(8.90469 2.03728 0)
(9.03165 1.97132 0)
(8.73962 2.27131 0)
(8.88129 2.2009 0)
(8.56197 2.52473 0)
(8.71966 2.44934 0)
(8.37097 2.79935 0)
(8.54627 2.71851 0)
(8.16552 3.09717 0)
(8.36036 3.01042 0)
(7.94403 3.42037 0)
(8.1608 3.32736 0)
(7.70422 3.77143 0)
(7.94597 3.67195 0)
(7.4428 4.15316 0)
(7.71351 4.04724 0)
(7.15503 4.56883 0)
(7.45997 4.45693 0)
(6.83404 5.02217 0)
(7.18033 4.90552 0)
(6.46977 5.51731 0)
(6.86722 5.39852 0)
(6.04735 6.05841 0)
(6.50958 5.94265 0)
(5.54453 6.6485 0)
(6.09046 6.54584 0)
(4.92768 7.28688 0)
(5.58372 7.2165 0)
(4.1457 7.96152 0)
(4.94328 7.96144 0)
(3.12246 8.63399 0)
(4.1102 8.77584 0)
(1.75674 9.12866 0)
(2.87931 9.6216 0)
(1.36526 10.1865 0)
(9.98753 0.190813 0)
(9.99523 0.13027 0)
(9.96332 0.31673 0)
(9.97932 0.258844 0)
(9.92784 0.444053 0)
(9.95114 0.387897 0)
(9.88146 0.574527 0)
(9.91186 0.519322 0)
(9.82446 0.709722 0)
(9.86241 0.654757 0)
(9.75708 0.851133 0)
(9.80314 0.795732 0)
(9.67953 1.00021 0)
(9.7342 0.943727 0)
(9.59194 1.1584 0)
(9.65576 1.1002 0)
(9.49443 1.32712 0)
(9.56798 1.26658 0)
(9.38706 1.50782 0)
(9.47099 1.44432 0)
(9.26985 1.70199 0)
(9.36489 1.6349 0)
(9.14277 1.91116 0)
(9.24974 1.83984 0)
(9.00574 2.13694 0)
(9.12558 2.06072 0)
(8.85856 2.38106 0)
(8.99236 2.29924 0)
(8.70092 2.64537 0)
(8.84995 2.55722 0)
(8.53231 2.93193 0)
(8.6981 2.83668 0)
(8.35196 3.24306 0)
(8.5364 3.13988 0)
(8.1587 3.58143 0)
(8.36414 3.46945 0)
(7.95079 3.95023 0)
(8.18027 3.8285 0)
(7.72569 4.35335 0)
(7.9832 4.22084 0)
(7.47966 4.79566 0)
(7.77058 4.65126 0)
(7.20714 5.28333 0)
(7.53892 5.12598 0)
(6.89974 5.82436 0)
(7.28299 5.6532 0)
(6.54453 6.42912 0)
(6.99482 6.24408 0)
(6.12076 7.11104 0)
(6.66168 6.91414 0)
(5.59368 7.88731 0)
(6.26304 7.68567 0)
(4.90178 8.77785 0)
(5.75846 8.59222 0)
(3.92796 9.80198 0)
(5.08862 9.68512 0)
(2.43419 10.858 0)
(3.9811 11.0501 0)
(2.14742 12.5706 0)
(9.98861 0.199579 0)
(9.99567 0.135847 0)
(9.96651 0.331287 0)
(9.98123 0.269928 0)
(9.93419 0.464453 0)
(9.95569 0.404504 0)
(9.892 0.600864 0)
(9.92015 0.541517 0)
(9.84027 0.742115 0)
(9.8755 0.682632 0)
(9.77928 0.889724 0)
(9.82212 0.829393 0)
(9.70926 1.04517 0)
(9.76023 0.983302 0)
(9.63044 1.20991 0)
(9.69003 1.14583 0)
(9.54298 1.38539 0)
(9.61177 1.31843 0)
(9.44707 1.5731 0)
(9.52567 1.50257 0)
(9.34283 1.77455 0)
(9.43194 1.69973 0)
(9.23038 1.9913 0)
(9.33078 1.91147 0)
(9.10979 2.22502 0)
(9.22237 2.13939 0)
(8.98108 2.47752 0)
(9.10686 2.38524 0)
(8.84419 2.75076 0)
(8.98436 2.6509 0)
(8.69893 3.04696 0)
(8.85494 2.93849 0)
(8.54495 3.36867 0)
(8.71856 3.25042 0)
(8.38166 3.71894 0)
(8.57506 3.58951 0)
(8.20809 4.10147 0)
(8.42411 3.95919 0)
(8.02281 4.52092 0)
(8.26513 4.36373 0)
(7.82361 4.98333 0)
(8.09723 4.8086 0)
(7.60723 5.49675 0)
(7.91905 5.30103 0)
(7.36865 6.07223 0)
(7.72862 5.85088 0)
(7.09996 6.72545 0)
(7.52309 6.47209 0)
(6.78802 7.47961 0)
(7.29824 7.18525 0)
(6.40931 8.3715 0)
(7.04864 8.02277 0)
(5.91684 9.46567 0)
(6.76415 9.04119 0)
(5.19798 10.9087 0)
(6.46395 10.3563 0)
(3.88674 13.1811 0)
(6.19348 12.304 0)
(5.2652 16.3774 0)
(0.224014 -0.139836 0)
(0.128818 -0.219408 0)
(0.434375 -0.118668 0)
(0.310407 -0.201169 0)
(0.611124 -0.0941581 0)
(0.493866 -0.165033 0)
(0.756298 -0.0735182 0)
(0.653113 -0.132351 0)
(0.875528 -0.0572701 0)
(0.784241 -0.106131 0)
(0.974071 -0.0447086 0)
(0.89244 -0.0856449 0)
(1.0564 -0.0351128 0)
(0.983428 -0.0698632 0)
(1.12627 -0.0278647 0)
(1.06153 -0.0578922 0)
(1.18672 -0.0224124 0)
(1.1299 -0.0488998 0)
(1.24003 -0.0182623 0)
(1.19092 -0.0421107 0)
(1.28779 -0.014988 0)
(1.24636 -0.03683 0)
(1.3309 -0.0122464 0)
(1.29737 -0.0324626 0)
(1.36974 -0.00980306 0)
(1.34454 -0.0285558 0)
(1.40437 -0.00754324 0)
(1.38805 -0.0248604 0)
(1.4348 -0.00541507 0)
(1.42787 -0.0213299 0)
(1.46104 -0.0032909 0)
(1.46402 -0.0179506 0)
(1.48265 -0.0008623 0)
(1.49658 -0.0144436 0)
(1.49828 0.00221034 0)
(1.5253 -0.010197 0)
(1.5059 0.00581846 0)
(1.54899 -0.00485156 0)
(1.50446 0.00900323 0)
(1.56576 0.000893615 0)
(1.4949 0.0107495 0)
(1.57451 0.00580725 0)
(1.48146 0.0107645 0)
(1.57688 0.00796565 0)
(1.46744 0.0093282 0)
(1.57671 0.00812099 0)
(1.45448 0.00702371 0)
(1.57686 0.00732095 0)
(1.44425 0.00424112 0)
(1.57838 0.00564869 0)
(1.4387 0.00104545 0)
(1.58198 0.00298925 0)
(1.44024 -0.00228143 0)
(1.58872 -0.000809289 0)
(1.45098 -0.00514262 0)
(1.59971 -0.00551738 0)
(1.46985 -0.00672856 0)
(1.61536 -0.00946633 0)
(1.63981 -0.0108427 0)
(0.195984 -0.31424 0)
(0.0997846 -0.411363 0)
(0.385866 -0.276019 0)
(0.26267 -0.382754 0)
(0.548695 -0.225383 0)
(0.417025 -0.31707 0)
(0.685583 -0.18171 0)
(0.552255 -0.257147 0)
(0.801452 -0.147143 0)
(0.665102 -0.20927 0)
(0.900764 -0.12039 0)
(0.760162 -0.171958 0)
(0.987189 -0.099964 0)
(0.841832 -0.143202 0)
(1.06372 -0.0845479 0)
(0.913381 -0.1213 0)
(1.13274 -0.0729525 0)
(0.977232 -0.104735 0)
(1.19607 -0.0641062 0)
(1.03524 -0.0921365 0)
(1.25501 -0.0570697 0)
(1.08881 -0.0822838 0)
(1.31032 -0.0510727 0)
(1.13889 -0.0741139 0)
(1.36233 -0.0455875 0)
(1.18598 -0.0667913 0)
(1.41107 -0.0403871 0)
(1.23019 -0.0598456 0)
(1.45659 -0.03545 0)
(1.27137 -0.0532371 0)
(1.49921 -0.0306322 0)
(1.30948 -0.0471157 0)
(1.53927 -0.0253455 0)
(1.34487 -0.0412098 0)
(1.57644 -0.0188006 0)
(1.37814 -0.0344465 0)
(1.6091 -0.011003 0)
(1.40922 -0.0256609 0)
(1.63506 -0.00345647 0)
(1.43647 -0.0152504 0)
(1.65462 0.00214302 0)
(1.4574 -0.00607185 0)
(1.67045 0.00557 0)
(1.47229 -0.00141955 0)
(1.68535 0.00727527 0)
(1.48466 -0.000502896 0)
(1.70033 0.00732612 0)
(1.49674 -0.00114548 0)
(1.7158 0.00561261 0)
(1.50849 -0.00288715 0)
(1.73182 0.00208093 0)
(1.51912 -0.00564449 0)
(1.74793 -0.00294446 0)
(1.52804 -0.00928735 0)
(1.76405 -0.00870692 0)
(1.53444 -0.0137995 0)
(1.78158 -0.0131801 0)
(1.53891 -0.0182552 0)
(1.54451 -0.0188459 0)
(0.156957 -0.488422 0)
(0.0718504 -0.565093 0)
(0.305322 -0.432563 0)
(0.20106 -0.524636 0)
(0.43052 -0.356853 0)
(0.310245 -0.43397 0)
(0.535426 -0.291457 0)
(0.40674 -0.352786 0)
(0.62427 -0.239553 0)
(0.485797 -0.288353 0)
(0.70047 -0.199151 0)
(0.552195 -0.238184 0)
(0.766823 -0.168046 0)
(0.608818 -0.199508 0)
(0.825562 -0.144303 0)
(0.657842 -0.169967 0)
(0.878455 -0.126205 0)
(0.70096 -0.147524 0)
(0.926884 -0.112217 0)
(0.739508 -0.130389 0)
(0.971855 -0.100974 0)
(0.774522 -0.116966 0)
(1.01397 -0.0913203 0)
(0.806764 -0.105825 0)
(1.0534 -0.0824352 0)
(0.836714 -0.0957831 0)
(1.09001 -0.0739907 0)
(0.864451 -0.0861248 0)
(1.12366 -0.0661048 0)
(0.889644 -0.0768202 0)
(1.15468 -0.0588307 0)
(0.911751 -0.0683488 0)
(1.1839 -0.0513719 0)
(0.930715 -0.0607325 0)
(1.21172 -0.0419714 0)
(0.947931 -0.0525921 0)
(1.23697 -0.0297213 0)
(0.964993 -0.0417455 0)
(1.25738 -0.0173893 0)
(0.982257 -0.0279492 0)
(1.27255 -0.00976205 0)
(0.993104 -0.0152823 0)
(1.28472 -0.00805326 0)
(0.985626 -0.00863626 0)
(1.29499 -0.00972986 0)
(0.970131 -0.00644573 0)
(1.3042 -0.0125461 0)
(0.954013 -0.00635221 0)
(1.31143 -0.0155283 0)
(0.938781 -0.00687749 0)
(1.31513 -0.0181879 0)
(0.924945 -0.00763945 0)
(1.31426 -0.0205291 0)
(0.915235 -0.00882978 0)
(1.30874 -0.0226362 0)
(0.905999 -0.0109608 0)
(1.30028 -0.0233213 0)
(0.897713 -0.0140146 0)
(0.8917 -0.0185873 0)
(0.115251 -0.613825 0)
(0.0448833 -0.677975 0)
(0.215049 -0.538989 0)
(0.13267 -0.620073 0)
(0.294658 -0.442746 0)
(0.18898 -0.508303 0)
(0.360104 -0.361522 0)
(0.241629 -0.412451 0)
(0.414558 -0.297488 0)
(0.280452 -0.336824 0)
(0.460227 -0.247683 0)
(0.311725 -0.277876 0)
(0.498942 -0.2093 0)
(0.336453 -0.232362 0)
(0.532128 -0.179927 0)
(0.355865 -0.197463 0)
(0.560923 -0.157482 0)
(0.370995 -0.170818 0)
(0.586257 -0.140125 0)
(0.382676 -0.150399 0)
(0.60887 -0.126199 0)
(0.3916 -0.134405 0)
(0.629286 -0.114243 0)
(0.398407 -0.121198 0)
(0.647692 -0.103136 0)
(0.403759 -0.109316 0)
(0.663838 -0.0923657 0)
(0.407928 -0.0977146 0)
(0.677153 -0.0821642 0)
(0.410633 -0.0861531 0)
(0.6874 -0.0730758 0)
(0.410719 -0.075361 0)
(0.695517 -0.0650518 0)
(0.405799 -0.0661562 0)
(0.703432 -0.05675 0)
(0.397126 -0.0577558 0)
(0.71165 -0.0458984 0)
(0.384827 -0.04698 0)
(0.714941 -0.0314066 0)
(0.373327 -0.0299958 0)
(0.701614 -0.0160616 0)
(0.357999 -0.00718987 0)
(0.668845 -0.00532959 0)
(0.337676 0.0107928 0)
(0.627864 -0.000341996 0)
(0.308963 0.017279 0)
(0.587302 0.0019948 0)
(0.28028 0.0165748 0)
(0.552296 0.00330886 0)
(0.252867 0.0124416 0)
(0.525721 0.00332084 0)
(0.228913 0.00668077 0)
(0.506198 0.0012343 0)
(0.215801 0.00144131 0)
(0.49362 -0.00288365 0)
(0.207908 -0.0044994 0)
(0.489078 -0.00964965 0)
(0.203623 -0.0117362 0)
(0.201905 -0.0215507 0)
(0.0677957 -0.693536 0)
(0.0168233 -0.744376 0)
(0.113666 -0.598933 0)
(0.0564496 -0.663939 0)
(0.143469 -0.487067 0)
(0.0552452 -0.536131 0)
(0.164615 -0.395724 0)
(0.0605639 -0.431729 0)
(0.179137 -0.323949 0)
(0.0545344 -0.34975 0)
(0.188219 -0.268076 0)
(0.0455778 -0.285769 0)
(0.192848 -0.224927 0)
(0.0329067 -0.23629 0)
(0.193827 -0.191806 0)
(0.017327 -0.198274 0)
(0.191818 -0.166441 0)
(-0.000548251 -0.169192 0)
(0.187376 -0.146871 0)
(-0.0202248 -0.146891 0)
(0.181019 -0.131323 0)
(-0.0412605 -0.129503 0)
(0.173242 -0.118151 0)
(-0.0631018 -0.115342 0)
(0.164475 -0.105917 0)
(-0.0849871 -0.10287 0)
(0.15485 -0.0937058 0)
(-0.106296 -0.0908053 0)
(0.143799 -0.0814004 0)
(-0.126756 -0.0784078 0)
(0.129462 -0.0693842 0)
(-0.14694 -0.0655497 0)
(0.109206 -0.0574817 0)
(-0.169044 -0.0526218 0)
(0.0816574 -0.0437482 0)
(-0.192722 -0.039783 0)
(0.0485011 -0.0250393 0)
(-0.219051 -0.0258599 0)
(0.0145169 -0.00171246 0)
(-0.244061 -0.00885959 0)
(-0.0106834 0.0184963 0)
(-0.264553 0.00811307 0)
(-0.0262212 0.0286505 0)
(-0.273272 0.0200053 0)
(-0.0411795 0.0292723 0)
(-0.283032 0.0259385 0)
(-0.0564958 0.0236498 0)
(-0.292526 0.0252321 0)
(-0.0700502 0.0146083 0)
(-0.303055 0.019922 0)
(-0.0797397 0.00498129 0)
(-0.31366 0.011902 0)
(-0.083542 -0.00344762 0)
(-0.319113 0.00344178 0)
(-0.0836371 -0.011558 0)
(-0.32104 -0.00445056 0)
(-0.0813025 -0.0212651 0)
(-0.323395 -0.0129072 0)
(-0.327166 -0.0224584 0)
(0.0126328 -0.720686 0)
(-0.0145236 -0.756749 0)
(0.00137649 -0.606075 0)
(-0.0289053 -0.653175 0)
(-0.0211203 -0.483024 0)
(-0.0872632 -0.515125 0)
(-0.0469102 -0.386335 0)
(-0.13305 -0.408217 0)
(-0.0766401 -0.310515 0)
(-0.185497 -0.323287 0)
(-0.108814 -0.251869 0)
(-0.236907 -0.257806 0)
(-0.142699 -0.206809 0)
(-0.287862 -0.207536 0)
(-0.177659 -0.172349 0)
(-0.337525 -0.169309 0)
(-0.213268 -0.145959 0)
(-0.385305 -0.140386 0)
(-0.249214 -0.125545 0)
(-0.430823 -0.118498 0)
(-0.285151 -0.109339 0)
(-0.473903 -0.101788 0)
(-0.320599 -0.0957841 0)
(-0.514398 -0.0886503 0)
(-0.354923 -0.0835437 0)
(-0.552072 -0.077634 0)
(-0.387395 -0.0716385 0)
(-0.586608 -0.0674956 0)
(-0.417381 -0.0596242 0)
(-0.617744 -0.057391 0)
(-0.444482 -0.04758 0)
(-0.64548 -0.047003 0)
(-0.468844 -0.0356697 0)
(-0.670065 -0.0363441 0)
(-0.491043 -0.0237036 0)
(-0.691657 -0.0253003 0)
(-0.51057 -0.0111974 0)
(-0.70999 -0.0134216 0)
(-0.523924 0.00178822 0)
(-0.724325 -0.000553825 0)
(-0.530745 0.0139315 0)
(-0.730551 0.0122551 0)
(-0.534698 0.0229716 0)
(-0.733878 0.0223489 0)
(-0.537729 0.0264819 0)
(-0.73581 0.0276934 0)
(-0.541563 0.0241695 0)
(-0.7379 0.0273994 0)
(-0.546356 0.0180142 0)
(-0.741549 0.0225669 0)
(-0.551896 0.0101541 0)
(-0.74683 0.0148874 0)
(-0.557362 0.00175014 0)
(-0.752323 0.00631745 0)
(-0.561316 -0.00724212 0)
(-0.756718 -0.00241938 0)
(-0.563437 -0.0166358 0)
(-0.763037 -0.0118434 0)
(-0.768802 -0.0216929 0)
(-0.0458337 -0.687487 0)
(-0.0513457 -0.711858 0)
(-0.116686 -0.557789 0)
(-0.121631 -0.585419 0)
(-0.191635 -0.432814 0)
(-0.234682 -0.445143 0)
(-0.268198 -0.336144 0)
(-0.332066 -0.338418 0)
(-0.34297 -0.261569 0)
(-0.427811 -0.256729 0)
(-0.414685 -0.204896 0)
(-0.516466 -0.195478 0)
(-0.482373 -0.162254 0)
(-0.597599 -0.150097 0)
(-0.545326 -0.130586 0)
(-0.670891 -0.11715 0)
(-0.603091 -0.107282 0)
(-0.736468 -0.0936554 0)
(-0.655544 -0.0901469 0)
(-0.794715 -0.0770668 0)
(-0.702837 -0.0773514 0)
(-0.846261 -0.0653152 0)
(-0.745247 -0.0673266 0)
(-0.891794 -0.0567151 0)
(-0.783041 -0.0587254 0)
(-0.931913 -0.049848 0)
(-0.816394 -0.0504987 0)
(-0.967074 -0.0435531 0)
(-0.845436 -0.0420001 0)
(-0.997654 -0.0370352 0)
(-0.870372 -0.0329652 0)
(-1.02403 -0.0299386 0)
(-0.891525 -0.0233203 0)
(-1.0466 -0.0222101 0)
(-0.909124 -0.0129734 0)
(-1.0656 -0.0138191 0)
(-0.923299 -0.00195521 0)
(-1.08088 -0.00439197 0)
(-0.93257 0.00907172 0)
(-1.09153 0.00521223 0)
(-0.936851 0.0187337 0)
(-1.09695 0.0148544 0)
(-0.938136 0.0253344 0)
(-1.09938 0.0231113 0)
(-0.938363 0.0274928 0)
(-1.10005 0.0278247 0)
(-0.939405 0.0250467 0)
(-1.10077 0.027988 0)
(-0.942075 0.0190935 0)
(-1.10293 0.0240407 0)
(-0.946498 0.0112738 0)
(-1.10696 0.0172705 0)
(-0.952024 0.00280681 0)
(-1.11243 0.00922511 0)
(-0.957424 -0.0064624 0)
(-1.11874 0.000354704 0)
(-0.962383 -0.0160942 0)
(-1.12612 -0.00935653 0)
(-1.13159 -0.0187395 0)
(-0.108943 -0.597428 0)
(-0.0943927 -0.605155 0)
(-0.237351 -0.459178 0)
(-0.220232 -0.462621 0)
(-0.365426 -0.33734 0)
(-0.386403 -0.325557 0)
(-0.487171 -0.246994 0)
(-0.530006 -0.227427 0)
(-0.598562 -0.180783 0)
(-0.661883 -0.157576 0)
(-0.698061 -0.133098 0)
(-0.777903 -0.109002 0)
(-0.785621 -0.0992598 0)
(-0.878285 -0.0757949 0)
(-0.861912 -0.0758045 0)
(-0.963221 -0.0539396 0)
(-0.928048 -0.0599902 0)
(-1.03499 -0.0401531 0)
(-0.985301 -0.0495197 0)
(-1.09588 -0.0318445 0)
(-1.03493 -0.0425343 0)
(-1.14795 -0.027041 0)
(-1.07803 -0.0375462 0)
(-1.19284 -0.0242597 0)
(-1.11548 -0.0333519 0)
(-1.23176 -0.0223182 0)
(-1.14793 -0.0290445 0)
(-1.26556 -0.0202592 0)
(-1.1759 -0.0240927 0)
(-1.29486 -0.0174297 0)
(-1.19981 -0.0183366 0)
(-1.32015 -0.0135717 0)
(-1.21998 -0.0118117 0)
(-1.34174 -0.00873871 0)
(-1.23648 -0.00452398 0)
(-1.35968 -0.00305354 0)
(-1.24861 0.00352376 0)
(-1.37377 0.00333791 0)
(-1.25677 0.0120288 0)
(-1.38355 0.0102855 0)
(-1.26142 0.0200039 0)
(-1.38985 0.0176767 0)
(-1.26328 0.0258276 0)
(-1.39326 0.0242156 0)
(-1.26399 0.0281114 0)
(-1.39502 0.0282357 0)
(-1.26524 0.0264814 0)
(-1.3967 0.0286936 0)
(-1.26803 0.0215733 0)
(-1.39954 0.0255833 0)
(-1.27267 0.014575 0)
(-1.40408 0.019769 0)
(-1.2787 0.0064053 0)
(-1.41039 0.0124002 0)
(-1.28542 -0.00296018 0)
(-1.41836 0.00380394 0)
(-1.29242 -0.0123915 0)
(-1.42651 -0.00584689 0)
(-1.43185 -0.0140084 0)
(-0.177075 -0.450402 0)
(-0.146115 -0.431721 0)
(-0.363638 -0.313289 0)
(-0.333844 -0.284209 0)
(-0.540754 -0.205318 0)
(-0.556373 -0.160181 0)
(-0.700134 -0.130706 0)