/*--------------------------------*- C++ -*----------------------------------*\
  =========                 |
  \\      /  F ield         | OpenFOAM: The Open Source CFD Toolbox
   \\    /   O peration     | Website:  https://openfoam.org
    \\  /    A nd           | Version:  7
     \\/     M anipulation  |
\*---------------------------------------------------------------------------*/
FoamFile
{
    version     2.0;
    format      ascii;
    class       volScalarField;
    location    "6.3";
    object      T;
}
// * * * * * * * * * * * * * * * * * * * * * * * * * * * * * * * * * * * * * //

dimensions      [0 0 0 1 0 0 0];

internalField   nonuniform List<scalar> 
12013
(
300.104
300.314
300.529
300.748
300.969
301.19
301.41
301.629
301.844
302.055
302.262
302.465
302.661
302.852
303.038
303.217
303.39
303.558
303.719
303.875
304.025
304.171
304.311
304.446
304.577
304.705
304.828
304.948
305.065
305.18
305.293
305.404
305.515
305.625
305.735
305.847
305.96
306.076
306.196
306.32
306.451
306.589
306.736
306.893
307.062
307.245
307.444
307.662
307.901
308.164
308.454
308.774
309.128
309.52
309.953
310.434
310.966
311.556
312.209
312.931
313.73
314.614
315.59
316.668
317.857
319.169
320.616
322.212
323.971
325.911
328.052
330.416
333.032
335.932
339.156
342.756
346.801
351.386
356.659
362.859
370.451
300.104
300.314
300.53
300.749
300.97
301.191
301.411
301.629
301.845
302.056
302.264
302.466
302.663
302.854
303.039
303.219
303.392
303.559
303.721
303.877
304.027
304.173
304.313
304.448
304.58
304.707
304.83
304.95
305.068
305.182
305.295
305.407
305.517
305.627
305.737
305.849
305.962
306.078
306.198
306.322
306.453
306.591
306.737
306.894
307.063
307.246
307.445
307.663
307.902
308.164
308.454
308.774
309.127
309.518
309.952
310.432
310.963
311.552
312.204
312.925
313.722
314.604
315.578
316.653
317.839
319.148
320.59
322.18
323.932
325.863
327.993
330.343
332.94
335.814
339.003
342.553
346.524
350.99
356.052
361.833
368.443
300.104
300.314
300.53
300.75
300.971
301.192
301.413
301.631
301.847
302.059
302.266
302.469
302.666
302.857
303.043
303.222
303.396
303.563
303.725
303.881
304.032
304.177
304.317
304.453
304.584
304.712
304.835
304.955
305.073
305.187
305.3
305.411
305.522
305.632
305.742
305.853
305.967
306.083
306.202
306.327
306.457
306.595
306.741
306.897
307.066
307.249
307.448
307.665
307.903
308.165
308.454
308.773
309.125
309.516
309.948
310.426
310.956
311.543
312.192
312.91
313.705
314.582
315.551
316.621
317.8
319.1
320.532
322.11
323.846
325.758
327.864
330.183
332.739
335.56
338.676
342.125
345.948
350.193
354.907
360.115
365.781
300.104
300.315
300.531
300.751
300.972
301.194
301.415
301.634
301.85
302.063
302.27
302.473
302.671
302.862
303.048
303.228
303.402
303.57
303.732
303.888
304.039
304.185
304.325
304.461
304.592
304.72
304.843
304.963
305.081
305.196
305.308
305.42
305.53
305.64
305.75
305.861
305.974
306.09
306.209
306.334
306.464
306.601
306.747
306.903
307.071
307.254
307.452
307.668
307.906
308.167
308.454
308.772
309.123
309.511
309.941
310.417
310.944
311.527
312.173
312.887
313.675
314.546
315.508
316.568
317.736
319.022
320.438
321.995
323.707
325.588
327.654
329.924
332.417
335.155
338.162
341.462
345.081
349.04
353.347
357.982
362.873
300.104
300.316
300.533
300.753
300.975
301.198
301.419
301.639
301.855
302.068
302.277
302.48
302.678
302.87
303.057
303.237
303.411
303.58
303.742
303.899
304.05
304.196
304.336
304.472
304.604
304.731
304.855
304.975
305.093
305.208
305.32
305.432
305.542
305.652
305.762
305.873
305.986
306.101
306.22
306.344
306.474
306.611
306.756
306.912
307.079
307.26
307.458
307.673
307.909
308.169
308.455
308.77
309.119
309.505
309.932
310.404
310.927
311.505
312.145
312.852
313.633
314.494
315.444
316.491
317.643
318.909
320.301
321.83
323.506
325.343
327.356
329.558
331.965
334.593
337.458
340.575
343.953
347.595
351.489
355.6
359.863
300.105
300.317
300.535
300.756
300.979
301.202
301.424
301.645
301.862
302.076
302.285
302.49
302.688
302.881
303.068
303.249
303.424
303.593
303.756
303.913
304.065
304.211
304.352
304.488
304.62
304.748
304.871
304.992
305.109
305.224
305.337
305.448
305.558
305.668
305.778
305.889
306.001
306.116
306.235
306.359
306.488
306.624
306.769
306.923
307.09
307.27
307.466
307.68
307.914
308.172
308.456
308.769
309.114
309.496
309.919
310.386
310.904
311.475
312.107
312.805
313.574
314.423
315.358
316.386
317.516
318.757
320.118
321.608
323.238
325.019
326.962
329.079
331.38
333.876
336.575
339.484
342.602
345.921
349.421
353.068
356.809
300.105
300.319
300.537
300.759
300.983
301.208
301.432
301.653
301.872
302.087
302.297
302.502
302.702
302.896
303.084
303.266
303.441
303.611
303.775
303.932
304.084
304.231
304.373
304.509
304.641
304.769
304.893
305.014
305.132
305.246
305.359
305.47
305.58
305.69
305.8
305.91
306.022
306.137
306.255
306.378
306.506
306.642
306.785
306.939
307.104
307.283
307.477
307.689
307.921
308.176
308.457
308.766
309.108
309.485
309.903
310.364
310.873
311.436
312.058
312.744
313.499
314.331
315.246
316.251
317.354
318.562
319.883
321.326
322.899
324.611
326.471
328.487
330.665
333.011
335.529
338.217
341.07
344.076
347.213
350.45
353.747
300.106
300.32
300.541
300.764
300.99
301.216
301.441
301.664
301.884
302.1
302.312
302.519
302.72
302.915
303.104
303.287
303.464
303.634
303.799
303.957
304.11
304.257
304.399
304.536
304.669
304.797
304.922
305.043
305.16
305.275
305.388
305.499
305.609
305.718
305.828
305.938
306.049
306.164
306.281
306.403
306.531
306.665
306.807
306.96
307.123
307.3
307.492
307.702
307.931
308.182
308.459
308.764
309.101
309.472
309.882
310.336
310.836
311.388
311.997
312.667
313.405
314.217
315.107
316.084
317.153
318.32
319.594
320.98
322.487
324.119
325.883
327.785
329.828
332.013
334.341
336.805
339.399
342.108
344.913
347.787
350.703
300.107
300.323
300.545
300.77
300.997
301.225
301.452
301.677
301.899
302.117
302.331
302.539
302.742
302.939
303.129
303.314
303.492
303.663
303.829
303.988
304.142
304.29
304.433
304.571
304.704
304.833
304.958
305.079
305.197
305.312
305.424
305.535
305.645
305.754
305.863
305.973
306.084
306.197
306.314
306.435
306.561
306.694
306.835
306.986
307.147
307.322
307.511
307.718
307.943
308.191
308.463
308.763
309.093
309.457
309.859
310.302
310.79
311.329
311.922
312.575
313.292
314.078
314.94
315.882
316.911
318.032
319.251
320.572
322.002
323.545
325.205
326.983
328.882
330.901
333.035
335.28
337.626
340.058
342.562
345.115
347.696
300.108
300.326
300.55
300.778
301.007
301.237
301.467
301.694
301.918
302.139
302.354
302.565
302.77
302.968
303.161
303.347
303.527
303.7
303.867
304.028
304.182
304.332
304.475
304.614
304.748
304.877
305.002
305.124
305.242
305.357
305.47
305.581
305.69
305.799
305.908
306.017
306.127
306.24
306.355
306.475
306.6
306.732
306.871
307.019
307.178
307.35
307.536
307.739
307.96
308.203
308.469
308.762
309.084
309.44
309.831
310.263
310.738
311.26
311.835
312.466
313.158
313.916
314.744
315.647
316.63
317.698
318.854
320.104
321.45
322.896
324.443
326.093
327.844
329.695
331.639
333.672
335.783
337.961
340.192
342.459
344.746
300.109
300.33
300.556
300.787
301.019
301.252
301.484
301.715
301.942
302.165
302.383
302.597
302.804
303.005
303.2
303.388
303.57
303.745
303.913
304.076
304.232
304.383
304.528
304.667
304.802
304.932
305.058
305.18
305.298
305.413
305.526
305.637
305.746
305.855
305.963
306.071
306.181
306.292
306.407
306.525
306.648
306.778
306.915
307.061
307.217
307.385
307.567
307.766
307.982
308.219
308.478
308.763
309.077
309.422
309.801
310.219
310.678
311.182
311.736
312.342
313.005
313.73
314.52
315.379
316.311
317.319
318.408
319.58
320.837
322.181
323.612
325.13
326.733
328.418
330.179
332.011
333.904
335.848
337.833
339.844
341.87
300.11
300.334
300.564
300.798
301.034
301.27
301.506
301.74
301.97
302.197
302.419
302.635
302.845
303.05
303.247
303.438
303.622
303.799
303.97
304.135
304.293
304.445
304.591
304.732
304.868
304.999
305.125
305.248
305.367
305.482
305.595
305.706
305.815
305.923
306.03
306.138
306.246
306.357
306.47
306.587
306.708
306.835
306.969
307.112
307.265
307.429
307.607
307.8
308.011
308.24
308.492
308.768
309.071
309.404
309.77
310.172
310.613
311.096
311.625
312.204
312.835
313.523
314.27
315.081
315.957
316.903
317.919
319.009
320.173
321.412
322.726
324.112
325.57
327.094
328.681
330.323
332.015
333.747
335.509
337.292
339.085
300.112
300.34
300.574
300.812
301.052
301.292
301.532
301.77
302.005
302.236
302.461
302.682
302.896
303.103
303.304
303.498
303.685
303.866
304.039
304.206
304.366
304.52
304.668
304.811
304.948
305.08
305.207
305.33
305.45
305.566
305.679
305.789
305.898
306.006
306.112
306.219
306.327
306.436
306.547
306.662
306.781
306.905
307.037
307.176
307.325
307.485
307.657
307.845
308.048
308.27
308.513
308.779
309.07
309.389
309.74
310.124
310.544
311.004
311.506
312.054
312.651
313.298
314
314.759
315.576
316.455
317.397
318.402
319.471
320.604
321.801
323.059
324.376
325.747
327.17
328.637
330.143
331.681
333.243
334.822
336.408
300.114
300.347
300.585
300.828
301.073
301.318
301.563
301.806
302.046
302.282
302.513
302.737
302.956
303.168
303.373
303.571
303.762
303.945
304.122
304.291
304.454
304.611
304.761
304.905
305.044
305.177
305.306
305.43
305.55
305.666
305.78
305.89
305.999
306.106
306.212
306.317
306.423
306.531
306.64
306.753
306.87
306.991
307.119
307.255
307.399
307.554
307.721
307.901
308.097
308.31
308.543
308.797
309.075
309.38
309.713
310.077
310.475
310.91
311.383
311.898
312.457
313.062
313.715
314.419
315.176
315.986
316.851
317.77
318.745
319.775
320.857
321.991
323.173
324.401
325.67
326.976
328.313
329.675
331.057
332.452
333.854
300.117
300.355
300.599
300.847
301.098
301.35
301.601
301.85
302.096
302.337
302.574
302.804
303.028
303.245
303.455
303.657
303.853
304.04
304.221
304.394
304.56
304.719
304.872
305.018
305.159
305.294
305.424
305.549
305.67
305.787
305.901
306.011
306.119
306.226
306.331
306.435
306.54
306.646
306.753
306.863
306.977
307.096
307.22
307.351
307.49
307.639
307.8
307.973
308.16
308.364
308.585
308.827
309.091
309.379
309.694
310.037
310.411
310.818
311.26
311.74
312.259
312.82
313.423
314.072
314.766
315.506
316.294
317.13
318.012
318.94
319.913
320.929
321.985
323.079
324.206
325.364
326.547
327.751
328.97
330.201
331.438
300.12
300.364
300.615
300.87
301.128
301.387
301.645
301.902
302.155
302.403
302.646
302.883
303.114
303.337
303.552
303.76
303.961
304.153
304.338
304.515
304.685
304.848
305.004
305.153
305.296
305.433
305.565
305.691
305.813
305.931
306.045
306.155
306.263
306.369
306.473
306.577
306.68
306.784
306.889
306.996
307.107
307.222
307.342
307.468
307.602
307.745
307.898
308.063
308.241
308.434
308.644
308.872
309.121
309.391
309.686
310.007
310.355
310.734
311.144
311.587
312.066
312.581
313.134
313.726
314.358
315.03
315.743
316.496
317.288
318.12
318.989
319.894
320.833
321.802
322.8
323.822
324.866
325.926
327.001
328.085
329.174
300.124
300.376
300.634
300.898
301.164
301.431
301.698
301.963
302.224
302.481
302.732
302.977
303.215
303.445
303.668
303.883
304.089
304.287
304.478
304.66
304.834
305.001
305.161
305.313
305.459
305.598
305.732
305.86
305.983
306.101
306.216
306.326
306.434
306.539
306.643
306.745
306.846
306.948
307.051
307.155
307.262
307.373
307.489
307.61
307.738
307.874
308.02
308.176
308.344
308.526
308.723
308.937
309.17
309.422
309.696
309.993
310.316
310.665
311.042
311.449
311.886
312.356
312.858
313.394
313.965
314.57
315.21
315.884
316.592
317.333
318.105
318.907
319.736
320.592
321.471
322.371
323.288
324.221
325.164
326.117
327.075
300.128
300.389
300.657
300.93
301.206
301.483
301.76
302.035
302.306
302.573
302.833
303.087
303.334
303.573
303.804
304.026
304.24
304.445
304.642
304.83
305.01
305.181
305.345
305.502
305.651
305.793
305.929
306.059
306.183
306.303
306.418
306.529
306.636
306.741
306.843
306.944
307.044
307.143
307.243
307.344
307.448
307.555
307.665
307.781
307.903
308.032
308.169
308.316
308.474
308.645
308.828
309.028
309.243
309.477
309.729
310.003
310.299
310.618
310.962
311.332
311.729
312.154
312.607
313.089
313.601
314.142
314.712
315.312
315.94
316.595
317.277
317.985
318.715
319.467
320.239
321.028
321.832
322.649
323.476
324.311
325.151
300.134
300.405
300.684
300.968
301.255
301.544
301.833
302.119
302.402
302.68
302.952
303.217
303.475
303.724
303.964
304.196
304.418
304.631
304.835
305.03
305.216
305.393
305.562
305.723
305.876
306.021
306.16
306.292
306.419
306.539
306.655
306.766
306.873
306.978
307.079
307.178
307.276
307.373
307.47
307.568
307.668
307.77
307.876
307.986
308.101
308.223
308.352
308.489
308.636
308.795
308.965
309.149
309.348
309.562
309.794
310.043
310.313
310.603
310.914
311.248
311.605
311.986
312.392
312.822
313.278
313.759
314.264
314.794
315.348
315.926
316.525
317.145
317.786
318.444
319.119
319.809
320.512
321.226
321.949
322.679
323.414
300.14
300.423
300.715
301.012
301.313
301.616
301.919
302.219
302.515
302.807
303.092
303.37
303.639
303.9
304.152
304.394
304.626
304.849
305.062
305.264
305.457
305.641
305.816
305.982
306.139
306.288
306.43
306.565
306.693
306.815
306.932
307.044
307.151
307.254
307.355
307.453
307.549
307.643
307.738
307.832
307.928
308.025
308.126
308.229
308.338
308.452
308.572
308.7
308.837
308.983
309.14
309.308
309.49
309.685
309.896
310.122
310.365
310.627
310.907
311.206
311.525
311.865
312.225
312.607
313.01
313.435
313.88
314.346
314.832
315.338
315.862
316.404
316.963
317.537
318.126
318.727
319.339
319.962
320.592
321.229
321.871
300.147
300.445
300.752
301.065
301.381
301.7
302.019
302.335
302.648
302.955
303.255
303.548
303.832
304.106
304.371
304.626
304.87
305.103
305.325
305.537
305.739
305.93
306.111
306.283
306.445
306.599
306.744
306.882
307.012
307.136
307.254
307.366
307.474
307.577
307.676
307.772
307.866
307.958
308.05
308.141
308.232
308.325
308.42
308.518
308.619
308.725
308.837
308.955
309.081
309.215
309.358
309.512
309.677
309.853
310.043
310.247
310.466
310.699
310.949
311.215
311.499
311.8
312.118
312.455
312.809
313.182
313.572
313.98
314.405
314.846
315.303
315.775
316.261
316.76
317.271
317.793
318.325
318.866
319.414
319.969
320.528
300.155
300.47
300.795
301.126
301.461
301.798
302.136
302.471
302.802
303.127
303.445
303.755
304.056
304.347
304.627
304.895
305.152
305.398
305.632
305.854
306.065
306.264
306.453
306.631
306.799
306.957
307.107
307.248
307.381
307.507
307.626
307.739
307.846
307.949
308.047
308.142
308.234
308.324
308.412
308.499
308.587
308.674
308.764
308.856
308.95
309.049
309.152
309.26
309.375
309.497
309.627
309.766
309.915
310.074
310.244
310.427
310.621
310.829
311.051
311.286
311.536
311.801
312.081
312.377
312.687
313.012
313.353
313.708
314.078
314.461
314.858
315.267
315.688
316.121
316.564
317.016
317.477
317.946
318.421
318.903
319.389
300.165
300.5
300.845
301.197
301.554
301.913
302.272
302.629
302.982
303.328
303.667
303.997
304.317
304.626
304.923
305.208
305.48
305.739
305.986
306.22
306.441
306.65
306.846
307.032
307.206
307.37
307.524
307.669
307.805
307.933
308.053
308.167
308.275
308.377
308.474
308.567
308.657
308.744
308.829
308.913
308.996
309.079
309.163
309.249
309.337
309.427
309.522
309.621
309.726
309.836
309.954
310.079
310.212
310.354
310.506
310.668
310.84
311.024
311.22
311.427
311.647
311.879
312.124
312.381
312.652
312.935
313.231
313.539
313.86
314.192
314.535
314.889
315.253
315.627
316.01
316.401
316.8
317.205
317.617
318.034
318.455
300.176
300.534
300.903
301.28
301.662
302.046
302.431
302.813
303.191
303.562
303.924
304.277
304.619
304.949
305.265
305.569
305.858
306.133
306.393
306.64
306.873
307.092
307.298
307.491
307.672
307.842
308.001
308.15
308.289
308.419
308.541
308.656
308.763
308.865
308.962
309.053
309.141
309.226
309.308
309.388
309.466
309.545
309.623
309.703
309.784
309.867
309.954
310.044
310.139
310.238
310.344
310.455
310.574
310.701
310.835
310.978
311.13
311.292
311.464
311.645
311.838
312.04
312.254
312.478
312.713
312.959
313.215
313.482
313.759
314.046
314.342
314.648
314.962
315.285
315.615
315.952
316.296
316.646
317.002
317.362
317.727
300.189
300.575
300.971
301.376
301.787
302.201
302.615
303.027
303.433
303.832
304.222
304.602
304.968
305.321
305.66
305.984
306.292
306.584
306.86
307.121
307.366
307.597
307.812
308.014
308.203
308.379
308.543
308.696
308.838
308.97
309.094
309.21
309.318
309.419
309.515
309.605
309.69
309.772
309.851
309.927
310.002
310.076
310.149
310.223
310.297
310.374
310.452
310.534
310.619
310.708
310.802
310.902
311.007
311.119
311.238
311.364
311.498
311.64
311.79
311.948
312.116
312.292
312.478
312.672
312.876
313.089
313.31
313.541
313.78
314.028
314.283
314.547
314.817
315.095
315.38
315.671
315.967
316.269
316.576
316.887
317.202
300.205
300.621
301.05
301.489
301.933
302.381
302.83
303.275
303.714
304.146
304.567
304.975
305.37
305.75
306.113
306.459
306.788
307.099
307.393
307.669
307.927
308.17
308.396
308.607
308.803
308.985
309.154
309.311
309.457
309.592
309.717
309.834
309.942
310.043
310.137
310.226
310.309
310.388
310.464
310.537
310.607
310.676
310.745
310.813
310.881
310.951
311.022
311.095
311.172
311.252
311.335
311.424
311.517
311.616
311.72
311.831
311.948
312.072
312.203
312.341
312.487
312.64
312.801
312.97
313.146
313.33
313.522
313.721
313.927
314.141
314.361
314.588
314.821
315.061
315.306
315.556
315.812
316.072
316.337
316.605
316.877
300.223
300.676
301.142
301.619
302.103
302.59
303.078
303.562
304.039
304.507
304.963
305.405
305.832
306.24
306.631
307.002
307.353
307.685
307.996
308.288
308.562
308.816
309.053
309.273
309.477
309.666
309.841
310.002
310.15
310.288
310.414
310.531
310.639
310.74
310.833
310.92
311.001
311.077
311.15
311.219
311.286
311.35
311.414
311.477
311.539
311.603
311.667
311.733
311.802
311.873
311.947
312.025
312.108
312.194
312.286
312.383
312.486
312.594
312.708
312.829
312.956
313.089
313.229
313.375
313.528
313.687
313.852
314.024
314.203
314.387
314.577
314.773
314.974
315.18
315.391
315.607
315.828
316.052
316.28
316.512
316.746
300.244
300.739
301.249
301.771
302.3
302.833
303.365
303.893
304.414
304.923
305.419
305.898
306.359
306.8
307.22
307.618
307.993
308.346
308.677
308.986
309.274
309.542
309.79
310.019
310.23
310.425
310.605
310.77
310.921
311.06
311.188
311.305
311.413
311.513
311.604
311.689
311.768
311.842
311.912
311.977
312.04
312.101
312.16
312.217
312.275
312.332
312.391
312.45
312.511
312.575
312.641
312.71
312.783
312.859
312.94
313.025
313.115
313.21
313.31
313.415
313.525
313.641
313.763
313.89
314.022
314.161
314.304
314.453
314.607
314.767
314.931
315.1
315.274
315.452
315.635
315.821
316.012
316.205
316.402
316.603
316.805
300.268
300.812
301.373
301.946
302.528
303.113
303.697
304.276
304.845
305.401
305.941
306.461
306.96
307.436
307.888
308.314
308.715
309.091
309.441
309.768
310.07
310.35
310.608
310.846
311.065
311.265
311.449
311.617
311.771
311.912
312.04
312.157
312.265
312.363
312.453
312.536
312.613
312.684
312.75
312.813
312.872
312.929
312.984
313.037
313.09
313.142
313.195
313.249
313.304
313.36
313.419
313.481
313.545
313.613
313.684
313.759
313.838
313.922
314.01
314.102
314.198
314.3
314.406
314.517
314.633
314.753
314.878
315.007
315.142
315.28
315.423
315.57
315.72
315.875
316.033
316.195
316.36
316.528
316.698
316.872
317.048
300.296
300.898
301.517
302.15
302.792
303.437
304.08
304.716
305.34
305.948
306.536
307.102
307.642
308.155
308.64
309.097
309.524
309.922
310.293
310.636
310.952
311.244
311.512
311.758
311.983
312.188
312.375
312.546
312.701
312.842
312.97
313.087
313.193
313.29
313.379
313.46
313.534
313.603
313.666
313.726
313.782
313.835
313.886
313.936
313.985
314.033
314.081
314.13
314.18
314.231
314.284
314.34
314.397
314.458
314.521
314.588
314.658
314.732
314.81
314.892
314.977
315.066
315.16
315.258
315.359
315.465
315.575
315.688
315.805
315.927
316.051
316.18
316.311
316.446
316.584
316.725
316.868
317.015
317.163
317.314
317.467
300.328
300.996
301.684
302.386
303.097
303.81
304.52
305.221
305.906
306.572
307.213
307.828
308.412
308.964
309.484
309.971
310.424
310.845
311.234
311.593
311.922
312.224
312.501
312.753
312.982
313.191
313.38
313.552
313.708
313.849
313.977
314.092
314.197
314.293
314.379
314.458
314.53
314.596
314.658
314.715
314.768
314.819
314.867
314.914
314.96
315.005
315.05
315.095
315.141
315.188
315.237
315.287
315.34
315.395
315.452
315.513
315.576
315.643
315.712
315.786
315.862
315.942
316.025
316.112
316.203
316.297
316.394
316.494
316.598
316.705
316.815
316.928
317.044
317.162
317.284
317.407
317.533
317.661
317.791
317.923
318.057
300.366
301.111
301.877
302.658
303.449
304.24
305.026
305.799
306.552
307.281
307.98
308.646
309.276
309.869
310.423
310.94
311.418
311.86
312.266
312.638
312.978
313.289
313.571
313.827
314.06
314.27
314.46
314.632
314.788
314.928
315.054
315.168
315.271
315.365
315.45
315.527
315.597
315.661
315.721
315.776
315.828
315.877
315.924
315.969
316.012
316.055
316.098
316.142
316.185
316.23
316.276
316.323
316.372
316.424
316.477
316.533
316.592
316.653
316.717
316.784
316.854
316.927
317.002
317.081
317.163
317.247
317.335
317.425
317.518
317.614
317.712
317.812
317.915
318.021
318.128
318.237
318.349
318.462
318.576
318.693
318.81
300.41
301.244
302.1
302.973
303.854
304.734
305.605
306.458
307.285
308.082
308.842
309.562
310.239
310.871
311.46
312.003
312.504
312.964
313.383
313.766
314.114
314.43
314.715
314.974
315.207
315.417
315.607
315.777
315.931
316.069
316.194
316.306
316.408
316.5
316.583
316.659
316.728
316.792
316.85
316.905
316.956
317.005
317.051
317.096
317.139
317.182
317.225
317.268
317.311
317.355
317.4
317.446
317.494
317.543
317.595
317.648
317.704
317.762
317.822
317.885
317.951
318.018
318.089
318.162
318.237
318.314
318.394
318.477
318.561
318.648
318.737
318.828
318.92
319.015
319.111
319.209
319.308
319.409
319.511
319.614
319.718
300.461
301.397
302.358
303.335
304.319
305.299
306.265
307.206
308.114
308.982
309.805
310.578
311.301
311.971
312.589
313.157
313.676
314.148
314.578
314.967
315.318
315.636
315.922
316.179
316.411
316.619
316.806
316.974
317.126
317.262
317.385
317.495
317.596
317.686
317.769
317.845
317.914
317.978
318.037
318.093
318.145
318.195
318.243
318.289
318.335
318.379
318.423
318.468
318.512
318.557
318.603
318.651
318.699
318.749
318.8
318.853
318.908
318.965
319.024
319.085
319.148
319.212
319.279
319.348
319.419
319.492
319.566
319.643
319.721
319.801
319.882
319.965
320.05
320.136
320.223
320.311
320.401
320.491
320.582
320.675
320.767
300.519
301.573
302.654
303.751
304.852
305.944
307.013
308.049
309.042
309.983
310.869
311.694
312.458
313.161
313.803
314.388
314.919
315.399
315.832
316.222
316.573
316.888
317.171
317.425
317.653
317.857
318.041
318.206
318.354
318.489
318.61
318.72
318.819
318.91
318.994
319.071
319.142
319.208
319.27
319.329
319.384
319.438
319.489
319.539
319.588
319.636
319.684
319.732
319.78
319.829
319.878
319.928
319.979
320.031
320.084
320.139
320.195
320.252
320.311
320.372
320.434
320.497
320.562
320.629
320.697
320.766
320.837
320.909
320.982
321.057
321.133
321.209
321.287
321.366
321.446
321.526
321.607
321.689
321.771
321.854
321.937
300.586
301.775
302.993
304.226
305.458
306.673
307.855
308.991
310.071
311.085
312.029
312.899
313.697
314.423
315.083
315.677
316.211
316.69
317.12
317.505
317.85
318.159
318.435
318.683
318.905
319.105
319.285
319.447
319.594
319.727
319.848
319.959
320.06
320.153
320.239
320.32
320.395
320.465
320.532
320.596
320.657
320.716
320.773
320.829
320.884
320.938
320.991
321.045
321.099
321.152
321.206
321.261
321.316
321.372
321.428
321.486
321.544
321.603
321.664
321.725
321.787
321.85
321.915
321.98
322.046
322.113
322.181
322.25
322.319
322.39
322.461
322.532
322.605
322.677
322.751
322.824
322.898
322.972
323.047
323.121
323.196
300.663
302.007
303.381
304.766
306.144
307.492
308.794
310.033
311.196
312.277
313.271
314.174
314.99
315.726
316.386
316.978
317.507
317.979
318.4
318.776
319.112
319.413
319.682
319.923
320.14
320.336
320.513
320.673
320.819
320.952
321.075
321.188
321.292
321.39
321.481
321.567
321.648
321.725
321.799
321.869
321.938
322.004
322.069
322.132
322.195
322.256
322.317
322.377
322.437
322.497
322.557
322.617
322.678
322.738
322.798
322.859
322.921
322.982
323.044
323.107
323.17
323.233
323.297
323.362
323.427
323.492
323.558
323.624
323.69
323.756
323.823
323.89
323.957
324.024
324.091
324.159
324.226
324.293
324.36
324.427
324.494
300.749
302.269
303.819
305.375
306.911
308.402
309.827
311.164
312.395
313.519
314.537
315.454
316.276
317.01
317.665
318.247
318.764
319.224
319.633
319.997
320.322
320.612
320.873
321.108
321.319
321.511
321.686
321.846
321.993
322.128
322.254
322.371
322.48
322.583
322.681
322.774
322.863
322.948
323.029
323.109
323.186
323.26
323.333
323.405
323.475
323.545
323.613
323.681
323.748
323.814
323.88
323.945
324.01
324.075
324.14
324.204
324.268
324.332
324.396
324.459
324.523
324.587
324.65
324.714
324.777
324.84
324.904
324.967
325.029
325.092
325.155
325.217
325.279
325.341
325.402
325.463
325.524
325.585
325.645
325.704
325.763
300.846
302.563
304.309
306.052
307.76
309.391
310.912
312.311
313.585
314.734
315.764
316.683
317.498
318.221
318.86
319.425
319.925
320.367
320.76
321.11
321.422
321.702
321.954
322.182
322.389
322.577
322.751
322.911
323.059
323.197
323.327
323.449
323.565
323.674
323.779
323.879
323.976
324.069
324.159
324.246
324.331
324.414
324.495
324.575
324.653
324.729
324.804
324.878
324.951
325.023
325.094
325.164
325.233
325.301
325.369
325.435
325.502
325.567
325.632
325.696
325.76
325.823
325.885
325.948
326.009
326.07
326.131
326.19
326.25
326.309
326.367
326.424
326.482
326.538
326.594
326.649
326.704
326.758
326.811
326.864
326.916
300.949
302.877
304.836
306.778
308.627
310.355
311.943
313.385
314.682
315.837
316.862
317.767
318.563
319.264
319.88
320.422
320.899
321.322
321.696
322.03
322.329
322.597
322.84
323.061
323.263
323.449
323.621
323.782
323.931
324.072
324.205
324.332
324.452
324.567
324.678
324.785
324.887
324.987
325.084
325.178
325.269
325.358
325.446
325.531
325.614
325.696
325.776
325.855
325.932
326.007
326.082
326.155
326.226
326.297
326.366
326.434
326.502
326.568
326.633
326.697
326.76
326.822
326.884
326.944
327.003
327.062
327.12
327.177
327.233
327.288
327.342
327.396
327.448
327.5
327.551
327.601
327.651
327.699
327.747
327.794
327.84
301.041
303.162
305.318
307.391
309.334
311.123
312.745
314.2
315.494
316.637
317.642
318.523
319.294
319.969
320.56
321.079
321.536
321.939
322.298
322.617
322.904
323.163
323.398
323.613
323.811
323.994
324.164
324.323
324.473
324.615
324.75
324.878
325.001
325.119
325.233
325.343
325.449
325.552
325.652
325.75
325.844
325.937
326.027
326.115
326.202
326.286
326.369
326.449
326.529
326.606
326.682
326.757
326.829
326.901
326.971
327.04
327.108
327.174
327.239
327.303
327.365
327.427
327.487
327.546
327.604
327.661
327.717
327.772
327.826
327.879
327.931
327.982
328.031
328.08
328.128
328.175
328.221
328.266
328.31
328.353
328.396
380.607
388.553
395.241
401.077
406.261
410.9
415.057
418.766
422.041
424.884
427.283
429.216
430.649
431.534
431.805
431.37
430.1
427.801
424.14
418.459
409.113
402.788
397.943
393.978
390.604
387.659
385.043
382.686
380.54
378.569
376.745
375.045
373.453
371.953
370.535
369.188
367.903
366.673
365.493
364.356
363.258
362.195
361.163
360.158
359.179
358.221
357.284
356.365
355.461
354.572
353.696
352.832
351.978
351.133
350.297
349.469
348.647
347.832
347.022
346.217
345.418
344.623
343.833
343.047
342.266
341.488
340.715
339.946
339.182
338.422
337.667
336.916
336.171
335.431
334.697
333.969
333.247
332.531
331.823
331.122
330.429
329.744
329.068
328.401
327.744
327.097
326.46
325.834
325.219
324.616
324.026
323.447
322.881
322.328
321.789
321.262
320.75
320.251
319.766
319.294
318.837
318.394
317.965
317.549
317.147
316.759
316.384
316.022
315.674
315.338
315.014
314.703
314.403
314.115
313.838
313.572
313.317
313.071
312.836
312.609
312.392
312.183
311.983
311.79
311.605
311.427
311.256
311.092
310.933
310.781
310.633
310.492
310.354
310.222
310.094
309.97
309.85
309.733
309.62
309.509
309.402
309.298
309.195
309.096
308.998
308.903
308.809
308.717
308.626
308.537
308.45
308.363
308.278
308.193
308.109
308.027
307.945
307.863
307.783
307.703
307.625
375.865
382.769
388.988
394.579
399.62
404.172
408.273
411.947
415.201
418.035
420.434
422.377
423.828
424.743
425.058
424.691
423.529
421.417
418.137
413.422
407.225
401.869
397.4
393.616
390.343
387.462
384.889
382.562
380.439
378.485
376.674
374.985
373.401
371.909
370.496
369.154
367.873
366.647
365.47
364.336
363.24
362.179
361.148
360.145
359.167
358.211
357.275
356.356
355.454
354.565
353.69
352.826
351.973
351.129
350.293
349.464
348.643
347.828
347.018
346.214
345.415
344.62
343.83
343.045
342.263
341.486
340.713
339.944
339.18
338.42
337.664
336.914
336.169
335.429
334.695
333.966
333.244
332.529
331.821
331.12
330.427
329.742
329.066
328.399
327.742
327.094
326.458
325.832
325.217
324.614
324.023
323.445
322.879
322.326
321.787
321.26
320.748
320.249
319.764
319.293
318.836
318.392
317.963
317.548
317.146
316.758
316.383
316.021
315.673
315.337
315.013
314.702
314.402
314.114
313.838
313.572
313.316
313.071
312.835
312.609
312.392
312.183
311.983
311.79
311.605
311.427
311.256
311.092
310.933
310.781
310.634
310.492
310.355
310.222
310.094
309.97
309.85
309.733
309.62
309.51
309.402
309.298
309.196
309.096
308.998
308.903
308.809
308.717
308.627
308.538
308.45
308.363
308.278
308.193
308.11
308.027
307.945
307.863
307.783
307.703
307.625
371.774
377.681
383.267
388.454
393.23
397.603
401.581
405.172
408.373
411.176
413.566
415.518
417.001
417.97
418.37
418.134
417.173
415.387
412.67
408.977
404.523
400.202
396.303
392.846
389.775
387.027
384.545
382.286
380.212
378.297
376.516
374.851
373.287
371.811
370.412
369.08
367.809
366.591
365.421
364.292
363.202
362.145
361.118
360.118
359.143
358.189
357.255
356.339
355.438
354.551
353.677
352.814
351.962
351.119
350.284
349.456
348.635
347.821
347.012
346.208
345.409
344.615
343.825
343.039
342.258
341.481
340.708
339.939
339.175
338.415
337.66
336.91
336.165
335.425
334.69