<?xml version="1.0"?>
<VTKFile type="UnstructuredGrid"  version="0.1"  >
<UnstructuredGrid>
<Piece  NumberOfPoints="121" NumberOfCells="200">
<Points>
<DataArray  type="Float64"  NumberOfComponents="3"  format="ascii">1 0 0  1.1 0 0  1.2 0 0  1.3 0 0  1.4 0 0  1.5 0 0  1.6 0 0  1.7 0 0  1.8 0 0  1.9 0 0  2 0 0  1 0.1 0  1.1 0.1 0  1.2 0.1 0  1.3 0.1 0  1.4 0.1 0  1.5 0.1 0  1.6 0.1 0  1.7 0.1 0  1.8 0.1 0  1.9 0.1 0  2 0.1 0  1 0.2 0  1.1 0.2 0  1.2 0.2 0  1.3 0.2 0  1.4 0.2 0  1.5 0.2 0  1.6 0.2 0  1.7 0.2 0  1.8 0.2 0  1.9 0.2 0  2 0.2 0  1 0.3 0  1.1 0.3 0  1.2 0.3 0  1.3 0.3 0  1.4 0.3 0  1.5 0.3 0  1.6 0.3 0  1.7 0.3 0  1.8 0.3 0  1.9 0.3 0  2 0.3 0  1 0.4 0  1.1 0.4 0  1.2 0.4 0  1.3 0.4 0  1.4 0.4 0  1.5 0.4 0  1.6 0.4 0  1.7 0.4 0  1.8 0.4 0  1.9 0.4 0  2 0.4 0  1 0.5 0  1.1 0.5 0  1.2 0.5 0  1.3 0.5 0  1.4 0.5 0  1.5 0.5 0  1.6 0.5 0  1.7 0.5 0  1.8 0.5 0  1.9 0.5 0  2 0.5 0  1 0.6 0  1.1 0.6 0  1.2 0.6 0  1.3 0.6 0  1.4 0.6 0  1.5 0.6 0  1.6 0.6 0  1.7 0.6 0  1.8 0.6 0  1.9 0.6 0  2 0.6 0  1 0.7 0  1.1 0.7 0  1.2 0.7 0  1.3 0.7 0  1.4 0.7 0  1.5 0.7 0  1.6 0.7 0  1.7 0.7 0  1.8 0.7 0  1.9 0.7 0  2 0.7 0  1 0.8 0  1.1 0.8 0  1.2 0.8 0  1.3 0.8 0  1.4 0.8 0  1.5 0.8 0  1.6 0.8 0  1.7 0.8 0  1.8 0.8 0  1.9 0.8 0  2 0.8 0  1 0.9 0  1.1 0.9 0  1.2 0.9 0  1.3 0.9 0  1.4 0.9 0  1.5 0.9 0  1.6 0.9 0  1.7 0.9 0  1.8 0.9 0  1.9 0.9 0  2 0.9 0  1 1 0  1.1 1 0  1.2 1 0  1.3 1 0  1.4 1 0  1.5 1 0  1.6 1 0  1.7 1 0  1.8 1 0  1.9 1 0  2 1 0  </DataArray>
</Points>
<Cells>
<DataArray  type="UInt32"  Name="connectivity"  format="ascii">0 1 12  0 11 12  1 2 13  1 12 13  2 3 14  2 13 14  3 4 15  3 14 15  4 5 16  4 15 16  5 6 17  5 16 17  6 7 18  6 17 18  7 8 19  7 18 19  8 9 20  8 19 20  9 10 21  9 20 21  11 12 23  11 22 23  12 13 24  12 23 24  13 14 25  13 24 25  14 15 26  14 25 26  15 16 27  15 26 27  16 17 28  16 27 28  17 18 29  17 28 29  18 19 30  18 29 30  19 20 31  19 30 31  20 21 32  20 31 32  22 23 34  22 33 34  23 24 35  23 34 35  24 25 36  24 35 36  25 26 37  25 36 37  26 27 38  26 37 38  27 28 39  27 38 39  28 29 40  28 39 40  29 30 41  29 40 41  30 31 42  30 41 42  31 32 43  31 42 43  33 34 45  33 44 45  34 35 46  34 45 46  35 36 47  35 46 47  36 37 48  36 47 48  37 38 49  37 48 49  38 39 50  38 49 50  39 40 51  39 50 51  40 41 52  40 51 52  41 42 53  41 52 53  42 43 54  42 53 54  44 45 56  44 55 56  45 46 57  45 56 57  46 47 58  46 57 58  47 48 59  47 58 59  48 49 60  48 59 60  49 50 61  49 60 61  50 51 62  50 61 62  51 52 63  51 62 63  52 53 64  52 63 64  53 54 65  53 64 65  55 56 67  55 66 67  56 57 68  56 67 68  57 58 69  57 68 69  58 59 70  58 69 70  59 60 71  59 70 71  60 61 72  60 71 72  61 62 73  61 72 73  62 63 74  62 73 74  63 64 75  63 74 75  64 65 76  64 75 76  66 67 78  66 77 78  67 68 79  67 78 79  68 69 80  68 79 80  69 70 81  69 80 81  70 71 82  70 81 82  71 72 83  71 82 83  72 73 84  72 83 84  73 74 85  73 84 85  74 75 86  74 85 86  75 76 87  75 86 87  77 78 89  77 88 89  78 79 90  78 89 90  79 80 91  79 90 91  80 81 92  80 91 92  81 82 93  81 92 93  82 83 94  82 93 94  83 84 95  83 94 95  84 85 96  84 95 96  85 86 97  85 96 97  86 87 98  86 97 98  88 89 100  88 99 100  89 90 101  89 100 101  90 91 102  90 101 102  91 92 103  91 102 103  92 93 104  92 103 104  93 94 105  93 104 105  94 95 106  94 105 106  95 96 107  95 106 107  96 97 108  96 107 108  97 98 109  97 108 109  99 100 111  99 110 111  100 101 112  100 111 112  101 102 113  101 112 113  102 103 114  102 113 114  103 104 115  103 114 115  104 105 116  104 115 116  105 106 117  105 116 117  106 107 118  106 117 118  107 108 119  107 118 119  108 109 120  108 119 120  </DataArray>
<DataArray  type="UInt32"  Name="offsets"  format="ascii">3 6 9 12 15 18 21 24 27 30 33 36 39 42 45 48 51 54 57 60 63 66 69 72 75 78 81 84 87 90 93 96 99 102 105 108 111 114 117 120 123 126 129 132 135 138 141 144 147 150 153 156 159 162 165 168 171 174 177 180 183 186 189 192 195 198 201 204 207 210 213 216 219 222 225 228 231 234 237 240 243 246 249 252 255 258 261 264 267 270 273 276 279 282 285 288 291 294 297 300 303 306 309 312 315 318 321 324 327 330 333 336 339 342 345 348 351 354 357 360 363 366 369 372 375 378 381 384 387 390 393 396 399 402 405 408 411 414 417 420 423 426 429 432 435 438 441 444 447 450 453 456 459 462 465 468 471 474 477 480 483 486 489 492 495 498 501 504 507 510 513 516 519 522 525 528 531 534 537 540 543 546 549 552 555 558 561 564 567 570 573 576 579 582 585 588 591 594 597 600 </DataArray>
<DataArray  type="UInt8"  Name="types"  format="ascii">5 5 5 5 5 5 5 5 5 5 5 5 5 5 5 5 5 5 5 5 5 5 5 5 5 5 5 5 5 5 5 5 5 5 5 5 5 5 5 5 5 5 5 5 5 5 5 5 5 5 5 5 5 5 5 5 5 5 5 5 5 5 5 5 5 5 5 5 5 5 5 5 5 5 5 5 5 5 5 5 5 5 5 5 5 5 5 5 5 5 5 5 5 5 5 5 5 5 5 5 5 5 5 5 5 5 5 5 5 5 5 5 5 5 5 5 5 5 5 5 5 5 5 5 5 5 5 5 5 5 5 5 5 5 5 5 5 5 5 5 5 5 5 5 5 5 5 5 5 5 5 5 5 5 5 5 5 5 5 5 5 5 5 5 5 5 5 5 5 5 5 5 5 5 5 5 5 5 5 5 5 5 5 5 5 5 5 5 5 5 5 5 5 5 5 5 5 5 5 5 </DataArray>
</Cells>
<PointData  Scalars="Temperature"> 
<DataArray  type="Float64"  Name="Temperature"  format="ascii">2.2599999999999998e+00  2.4699999999999998e+00  2.7000000000000002e+00  2.9500000000000002e+00  3.2199999999999998e+00  3.5099999999999998e+00  3.8200000000000003e+00  4.1499999999999995e+00  4.5000000000000000e+00  4.8699999999999992e+00  5.2599999999999998e+00  2.2891087088976949e+00  2.4996943144609922e+00  2.7298749355537506e+00  2.9799397831944616e+00  3.2499671765947094e+00  3.5399806314355913e+00  3.8499881120603798e+00  4.1799927013145908e+00  4.5299957770240971e+00  4.8999980593161201e+00  5.2900000000000000e+00  2.3797804394143660e+00  2.5897906701369138e+00  2.8198635058167882e+00  3.0699155192718321e+00  3.3399472439485431e+00  3.6299665101429999e+00  3.9399786195895432e+00  4.2699865913590003e+00  4.6199921548376937e+00  4.9899963767752142e+00  5.3799999999999999e+00  2.5297591871317353e+00  2.7398198410659420e+00  2.9698692689585138e+00  3.2199088491511332e+00  3.4899378218920916e+00  3.7799581640081108e+00  4.0899723080512151e+00  4.4199822549701873e+00  4.7699894910726934e+00  5.1399951179726084e+00  5.5299999999999994e+00  2.7398548141388983e+00  2.9498551875239363e+00  3.1798806083132525e+00  3.4299094300523159e+00  3.6999345060767719e+00  3.9899541777102256e+00  4.2999688985169717e+00  4.6299797598664076e+00  4.9799879060650065e+00  5.3499943568430943e+00  5.7400000000000002e+00  3.0098415916308152e+00  3.2198603581130909e+00  3.4498840738182275e+00  3.6999101160774814e+00  3.9699337779305286e+00  4.2599530490846300e+00  4.5699678531027343e+00  4.8999789662586295e+00  5.2499873932275110e+00  5.6199941092131409e+00  6.0099999999999998e+00  3.3398554770565996e+00  3.5498554811272505e+00  3.7798807243746135e+00  4.0299094824071204e+00  4.2999345440312444e+00  4.5899542154640498e+00  4.8999689364234973e+00  5.2299797946245654e+00  5.5799879339735607e+00  5.9499943737644374e+00  6.3399999999999999e+00  3.7297603101421353e+00  3.9398203240839056e+00  4.1698694657154203e+00  4.4199089502485718e+00  4.6899379010712972e+00  4.9799582401204319e+00  5.2899723807010970e+00  5.6199823193178844e+00  5.9699895418326188e+00  6.3399951486431689e+00  6.7299999999999995e+00  4.1797816285433500e+00  4.3897911565645069e+00  4.6198637299478555e+00  4.8699156601978189e+00  5.1399473600385042e+00  5.4299666149028978e+00  5.7399787129233095e+00  6.0699866703286771e+00  6.4199922157936484e+00  6.7899964136328270e+00  7.1799999999999997e+00  4.6891090276171017e+00  4.8996945788344375e+00  5.1298751216974328e+00  5.3799399226796396e+00  5.6499672889627872e+00  5.9399807249497956e+00  6.2499881897595895e+00  6.5799927642378702e+00  6.9299958248039442e+00  7.2999980886510745e+00  7.6899999999999986e+00  5.2599999999999998e+00  5.4699999999999998e+00  5.6999999999999993e+00  5.9500000000000002e+00  6.2199999999999998e+00  6.5099999999999998e+00  6.8200000000000003e+00  7.1499999999999995e+00  7.5000000000000009e+00  7.8699999999999992e+00  8.2599999999999998e+00  </DataArray> 
</PointData> 
</Piece>
</UnstructuredGrid>
</VTKFile>