/*--------------------------------*- C++ -*----------------------------------*\
  =========                 |
  \\      /  F ield         | OpenFOAM: The Open Source CFD Toolbox
   \\    /   O peration     | Website:  https://openfoam.org
    \\  /    A nd           | Version:  7
     \\/     M anipulation  |
\*---------------------------------------------------------------------------*/
FoamFile
{
    version     2.0;
    format      ascii;
    class       volScalarField;
    location    "1.2";
    object      p;
}
// * * * * * * * * * * * * * * * * * * * * * * * * * * * * * * * * * * * * * //

dimensions      [0 2 -2 0 0 0 0];

internalField   nonuniform List<scalar> 
2790
(
208.185
208.095
208.37
208.952
209.746
210.719
211.868
213.192
214.685
216.341
218.153
220.113
222.211
224.434
226.766
229.186
231.666
234.172
236.661
239.085
241.384
243.497
245.36
246.912
248.106
248.923
249.307
249.339
249.397
249.604
207.981
208.002
208.301
208.881
209.671
210.641
211.785
213.103
214.589
216.237
218.04
219.99
222.078
224.29
226.612
229.022
231.494
233.995
236.484
238.911
241.221
243.352
245.237
246.816
248.034
248.848
249.194
249.242
249.364
249.631
207.78
207.871
208.19
208.759
209.536
210.493
211.623
212.923
214.387
216.011
217.786
219.705
221.759
223.934
226.215
228.583
231.012
233.472
235.924
238.322
240.615
242.744
244.649
246.269
247.553
248.468
249.012
249.339
249.629
249.908
207.552
207.674
208.005
208.566
209.328
210.269
211.379
212.655
214.092
215.682
217.419
219.295
221.3
223.421
225.644
227.949
230.313
232.706
235.095
237.439
239.692
241.803
243.719
245.391
246.779
247.869
248.685
249.315
249.837
250.332
207.287
207.423
207.763
208.316
209.062
209.982
211.067
212.312
213.711
215.259
216.948
218.768
220.711
222.764
224.912
227.136
229.416
231.724
234.031
236.301
238.495
240.573
242.492
244.218
245.723
247.004
248.078
248.994
249.769
250.486
206.982
207.123
207.465
208.008
208.735
209.629
210.682
211.89
213.245
214.742
216.373
218.128
219.997
221.969
224.028
226.158
228.337
230.543
232.748
234.925
237.041
239.065
240.969
242.728
244.329
245.769
247.059
248.214
249.194
250.076
206.633
206.775
207.115
207.645
208.348
209.213
210.23
211.394
212.698
214.137
215.7
217.38
219.165
221.043
223.001
225.021
227.085
229.172
231.258
233.32
235.334
237.278
239.133
240.887
242.534
244.076
245.514
246.841
247.963
248.97
206.242
206.382
206.714
207.228
207.906
208.736
209.712
210.827
212.074
213.446
214.934
216.529
218.22
219.994
221.838
223.735
225.668
227.618
229.565
231.489
233.372
235.199
236.962
238.655
240.281
241.847
243.348
244.768
245.973
247.081
205.807
205.944
206.265
206.76
207.409
208.202
209.132
210.192
211.376
212.675
214.08
215.582
217.169
218.828
220.546
222.307
224.093
225.888
227.673
229.431
231.149
232.816
234.429
235.99
237.51
239
240.461
241.882
243.11
244.301
205.332
205.463
205.771
206.244
206.861
207.613
208.493
209.494
210.609
211.829
213.145
214.545
216.019
217.554
219.134
220.745
222.369
223.989
225.588
227.15
228.663
230.118
231.514
232.857
234.162
235.45
236.735
238.033
239.194
240.447
204.817
204.941
205.234
205.682
206.265
206.973
207.799
208.737
209.778
210.914
212.133
213.425
214.779
216.179
217.611
219.059
220.505
221.931
223.32
224.654
225.918
227.103
228.205
229.227
230.184
231.105
232.024
233.003
233.939
235.202
204.263
204.381
204.657
205.078
205.624
206.285
207.055
207.925
208.888
209.934
211.052
212.23
213.456
214.714
215.988
217.262
218.515
219.729
220.883
221.956
222.929
223.784
224.507
225.092
225.543
225.881
226.154
226.483
226.872
227.996
203.674
203.784
204.042
204.434
204.941
205.553
206.263
207.063
207.945
208.897
209.909
210.968
212.059
213.168
214.277
215.366
216.415
217.401
218.298
219.081
219.721
220.188
220.451
220.477
220.241
219.726
218.95
218.063
217.208
217.7
203.052
203.154
203.392
203.753
204.219
204.78
205.429
206.156
206.953
207.809
208.711
209.647
210.6
211.554
212.491
213.388
214.223
214.967
215.591
216.06
216.335
216.367
216.098
215.457
214.355
212.686
210.333
207.294
203.65
201.773
202.399
202.492
202.709
203.039
203.463
203.971
204.556
205.209
205.919
206.676
207.466
208.275
209.087
209.884
210.644
211.344
211.957
212.452
212.792
212.934
212.823
212.391
211.547
210.168
208.073
204.999
200.524
194.043
184.381
173.097
69.6329
69.2671
68.6125
67.8306
67.0026
66.1526
65.277
64.3392
63.2843
62.0658
60.6515
59.0062
57.1033
54.9044
52.3923
49.6025
46.5758
43.3479
39.967
36.4908
32.9844
29.5176
26.1585
22.9579
19.8942
16.9498
14.087
11.072
7.36039
2.95445
69.4086
69.0335
68.4616
67.7657
67.022
66.2351
65.3758
64.4417
63.4013
62.1743
60.7491
59.0864
57.1567
54.9332
52.4089
49.6076
46.5645
43.3191
39.9206
36.4274
32.9044
29.4199
26.038
22.7956
19.6982
16.7141
13.8038
10.7929
7.28344
2.83209
69.5296
69.1683
68.6635
68.0275
67.3062
66.5071
65.6407
64.6888
63.6127
62.3549
60.8872
59.1769
57.1971
54.9281
52.3672
49.5328
46.4567
43.1795
39.7515
36.2311
32.683
29.1737
25.7636
22.4982
19.3505
16.3277
13.3829
10.4052
7.06945
2.6518
69.9926
69.6257
69.1366
68.5138
67.7872
66.9713
66.0733
65.0696
63.9254
62.5988
61.0571
59.2704
57.2147
54.875
52.2508
49.3582
46.227
42.8977
39.4212
35.8565
32.2684
28.7226
25.2741
21.9513
18.7851
15.7419
12.792
9.86458
6.65584
2.42952
70.6714
70.2982
69.8002
69.1641
68.4148
67.5664
66.6138
65.5371
64.3069
62.8888
61.2518
59.3685
57.2178
54.7881
52.0802
49.1097
45.9053
42.5077
38.9678
35.3454
31.7056
28.1135
24.6224
21.2647
18.0677
15.0166
12.0864
9.21845
6.12577
2.18802
71.3992
71.0558
70.5536
69.8983
69.1179
68.2217
67.2037
66.0457
64.7216
63.2017
61.4577
59.4647
57.2047
54.6684
51.8585
48.7906
45.4936
42.0085
38.3869
34.6899
30.984
27.335
23.7978
20.4099
17.1976
14.158
11.2723
8.47906
5.52262
1.93634
72.1955
71.8237
71.3048
70.6276
69.8157
68.8736
67.7936
66.5579
65.1423
63.5202
61.6657
59.5572
57.179
54.5246
51.5985
48.4176
45.0115
41.4222
37.7029
33.9164
30.1313
26.416
22.8293
19.414
16.1979
13.187
10.3664
7.6668
4.87594
1.6792
72.8515
72.4808
71.9622
71.2782
70.4499
69.4772
68.3498
67.0495
65.5528
63.8352
61.8734
59.6484
57.1477
54.3674
51.3143
48.007
44.477
40.7678
36.935
33.0438
29.1663
25.375
21.7345
18.294
15.0846
12.1191
9.38269
6.79927
4.20395
1.41966
73.3346
72.9787
72.483
71.8146
70.9931
70.0123
68.8585
67.5118
65.9489
64.1467
62.0843
59.7456
57.121
54.2098
51.0214
47.577
43.91
40.0669
36.1058
32.0956
28.1125
24.2347
20.5343
17.0686
13.8753
10.9703
8.33524
5.89121
3.51845
1.15996
73.6451
73.3188
72.866
72.2372
71.4478
70.4834
69.3256
67.9517
66.3383
64.4633
62.3083
59.8599
57.1121
54.067
50.7372
47.1467
43.3319
39.3421
35.239
31.0958
26.994
23.0185
19.2501
15.7575
12.5883
9.75593
7.23722
4.95501
2.82793
0.901782
73.8114
73.5291
73.139
72.5744
71.8421
70.9168
69.7744
68.3896
66.7387
64.801
62.5602
60.0064
57.1363
53.9555
50.4798
46.7362
42.7643
38.6167
34.3591
30.0696
25.8361
21.7513
17.9059
14.382
11.2389
8.48819
6.10104
4.00145
2.13911
0.64648
73.8686
73.6488
73.3477
72.8752
72.2234
71.3546
70.2409
68.8554
67.1748
65.1802
62.8582
60.2013
57.2098
53.8923
50.2674
46.3654
42.229
37.9144
33.4913
29.0433
24.6654
20.4591
16.5261
12.9624
9.84146
7.17912
4.93935
3.04039
1.45777
0.395405
73.8404
73.7167
73.5493
73.204
72.6522
71.8492
70.7681
69.3831
67.6735
65.6227
63.22
60.4609
57.3483
53.8932
50.1173
46.0535
41.7474
37.2588
32.6614
28.044
23.5096
19.1695
15.1363
11.5199
8.41101
5.84396
3.76683
2.08139
0.789324
0.149938
73.7125
73.7595
73.8117
73.6385
73.1966
72.4547
71.3973
70.0041
68.2583
66.1465
63.6605
60.798
57.5643
53.9715
50.0445
45.8179
41.3399
36.6735
31.8957
27.1001
22.3982
17.9117
13.7645
10.08
6.97285
4.50076
2.59301
1.13359
0.139678
-0.0880916
73.3741
73.7782
74.2235
74.2706
73.9215
73.2153
72.1587
70.7387
68.9432
66.7615
64.1871
61.2194
57.8658
54.1361
50.0602
45.6728
41.0242
36.1799
31.2197
26.2401
21.3622
16.7186
12.4445
8.67766
5.55655
3.16304
1.42482
0.207878
-0.483052
-0.315614
201.704
201.788
201.984
202.281
202.661
203.114
203.633
204.208
204.829
205.483
206.158
206.837
207.503
208.137
208.716
209.213
209.599
209.838
209.886
209.691
209.184
208.277
206.846
204.713
201.602
197.06
190.242
179.4
159.018
104.23
200.96
201.034
201.208
201.469
201.803
202.2
202.65
203.144
203.672
204.221
204.775
205.32
205.836
206.303
206.696
206.986
207.141
207.119
206.873
206.34
205.443
204.076
202.092
199.279
195.31
189.65
181.362
168.882
151.048
125.227
200.172
200.236
200.386
200.612
200.898
201.235
201.615
202.026
202.459
202.899
203.331
203.74
204.104
204.402
204.607
204.69
204.614
204.336
203.802
202.948
201.686
199.907
197.457
194.128
189.622
183.532
175.334
164.483
151.596
136.774
199.341
199.395
199.521
199.709
199.947
200.224
200.531
200.858
201.194
201.524
201.834
202.105
202.317
202.446
202.466
202.345
202.045
201.52
200.717
199.566
197.984
195.86
193.057
189.396
184.655
178.577
170.912
161.39
150.029
136.467
198.469
198.513
198.614
198.765
198.953
199.168
199.402
199.644
199.883
200.103
200.29
200.424
200.486
200.451
200.29
199.973
199.459
198.705
197.655
196.244
194.392
192
188.952
185.105
180.301
174.366
167.135
158.407
148.071
136.338
197.559
197.592
197.668
197.781
197.918
198.072
198.233
198.39
198.532
198.643
198.708
198.709
198.624
198.429
198.096
197.592
196.881
195.918
194.651
193.019
190.951
188.363
185.158
181.231
176.467
170.749
163.98
156.083
147.079
137.363
196.612
196.634
196.686
196.76
196.848
196.94
197.028
197.101
197.147
197.151
197.098
196.969
196.742
196.395
195.899
195.224
194.333
193.185
191.732
189.919
187.687
184.965
181.68
177.753
173.109
167.68
161.428
154.353
146.516
138.235
195.632
195.644
195.671
195.707
195.745
195.776
195.792
195.783
195.735
195.635
195.468
195.214
194.854
194.364
193.718
192.886
191.835
190.526
188.919
186.966
184.616
181.816
178.509
174.643
170.172
165.064
159.313
152.946
146.019
138.787
194.624
194.625
194.627
194.626
194.614
194.586
194.532
194.442
194.304
194.104
193.827
193.456
192.97
192.348
191.565
190.594
189.403
187.961
186.23
184.172
181.746
178.911
175.628
171.864
167.593
162.806
157.511
151.745
145.563
139.177
193.589
193.581
193.559
193.52
193.462
193.376
193.254
193.086
192.861
192.566
192.186
191.705
191.103
190.361
189.455
188.362
187.053
185.501
183.675
181.543
179.075
176.241
173.015
169.377
165.317
160.836
155.954
150.709
145.152
139.457
192.535
192.516
192.47
192.397
192.292
192.15
191.963
191.722
191.415
191.03
190.554
189.971
189.264
188.414
187.4
186.202
184.795
183.156
181.26
179.083
176.601
173.794
170.646
167.147
163.297
159.104
154.592
149.798
144.765
139.635
191.464
191.436
191.368
191.26
191.111
190.916
190.668
190.357
189.973
189.505
188.94
188.265
187.462
186.517
185.411
184.124
182.638
180.933
178.989
176.788
174.314
171.553
168.497
165.143
161.496
157.57
153.386
148.98
144.389
139.726
190.383
190.346
190.257
190.117
189.926
189.681
189.374
188.998
188.543
187.998
187.353
186.594
185.708
184.68
183.494
182.135
180.587
178.834
176.861
174.655
172.205
169.504
166.547
163.338
159.883
156.199
152.307
148.236
144.018
139.747
189.298
189.252
189.143
188.972
188.742
188.45
188.09
187.653
187.133
186.519
185.801
184.968
184.009
182.91
181.658
180.241
178.646
176.861
174.875
172.678
170.264
167.63
164.776
161.707
158.432
154.967
151.331
147.551
143.652
139.712
188.215
188.161
188.033
187.834
187.568
187.232
186.822
186.33
185.75
185.074
184.292
183.394
182.372
181.213
179.908
178.447
176.818
175.014
173.026
170.85
168.481
165.919
163.166
160.231
157.122
153.854
150.445
146.917
143.291
139.633
187.14
187.079
186.933
186.708
186.408
186.033
185.577
185.036
184.403
183.671
182.832
181.88
180.804
179.596
178.249
176.754
175.103
173.291
171.312
169.163
166.844
164.356
161.703
158.892
155.935
152.844
149.635
146.326
142.937
139.52
186.081
186.013
185.851
185.602
185.272
184.86
184.364
183.778
183.098
182.317
181.43
180.43
179.31
178.063
176.683
175.164
173.501
171.689
169.726
167.611
165.345
162.93
160.371
157.678
154.858
151.925
148.892
145.776
142.591
139.383
185.045
184.97
184.794
184.523
184.165
183.722
183.189
182.564
181.843
181.02
180.091
179.052
177.896
176.618
175.214
173.68
172.012
170.207
168.266
166.187
163.974
161.631
159.162
156.575
153.881
151.089
148.212
145.263
142.256
139.228
184.039
183.959
183.77
183.479
183.097
182.624
182.06
181.401
180.643
179.785
178.822
177.75
176.565
175.264
173.843
172.301
170.634
168.842
166.925
164.885
162.726
160.45
158.064
155.576
152.994
150.328
147.588
144.786
141.934
139.063
183.071
182.986
182.785
182.478
182.073
181.576
180.984
180.295
179.507
178.619
177.627
176.529
175.322
174.004
172.573
171.027
169.366
167.59
165.701
163.7
161.592
159.38
157.071
154.672
152.191
149.636
147.017
144.345
141.627
138.893
182.15
182.06
181.849
181.526
181.103
180.584
179.968
179.254
178.441
177.527
176.512
175.394
174.17
172.841
171.404
169.859
168.208
166.451
164.589
162.627
160.567
158.416
156.177
153.858
151.467
149.011
146.498
143.938
141.338
138.723
181.282
181.189
180.969
180.633
180.193
179.655
179.019
178.284
177.45
176.516
175.483
174.349
173.113
171.776
170.338
168.798
167.159
165.421
163.588
161.662
159.649
157.552
155.377
153.13
150.818
148.449
146.029
143.567
141.07
138.557
180.478
180.381
180.154
179.806
179.352
178.798
178.145
177.392
176.541
175.592
174.544
173.398
172.155
170.814
169.377
167.844
166.218
164.5
162.694
160.803
158.832
156.784
154.666
152.484
150.242
147.949
145.61
143.233
140.823
138.399
179.746
179.646
179.411
179.054
178.588
178.021
177.353
176.586
175.721
174.759
173.701
172.547
171.299
169.957
168.523
166.999
165.386
163.688
161.908
160.049
158.116
156.113
154.045
151.918
149.738
147.51
145.241
142.936
140.603
138.255
179.095
178.992
178.751
178.384
177.908
177.33
176.651
175.872
174.997
174.025
172.959
171.799
170.548
169.207
167.778
166.263
164.664
162.984
161.227
159.397
157.498
155.534
153.51
151.431
149.303
147.131
144.921
142.679
140.409
138.125
178.535
178.429
178.181
177.806
177.321
176.734
176.046
175.259
174.375
173.396
172.324
171.162
169.91
168.571
167.147
165.64
164.054
162.392
160.656
158.851
156.981
155.05
153.063
151.026
148.942
146.817
144.657
142.466
140.25
138.019
178.076
177.966
177.711
177.327
176.834
176.239
175.543
174.749
173.859
172.875
171.8
170.636
169.384
168.048
166.63
165.132
163.557
161.909
160.191
158.407
156.562
154.658
152.702
150.697
148.649
146.562
144.442
142.292
140.118
137.928
177.732
177.615
177.35
176.959
176.461
175.86
175.158
174.359
173.464
172.477
171.4
170.235
168.985
167.651
166.238
164.747
163.182
161.547
159.844
158.077
156.251
154.37
152.439
150.461
148.441
146.384
144.295
142.178
140.039
137.884
177.517
177.376
177.094
176.696
176.195
175.59
174.886
174.083
173.187
172.198
171.12
169.956
168.707
167.376
165.967
164.482
162.924
161.297
159.604
157.85
156.037
154.171
152.255
150.295
148.293
146.256
144.187
142.091
139.973
137.837
177.491
177.287
176.976
176.572
176.067
175.459
174.751
173.947
173.049
172.06
170.982
169.819
168.572
167.245
165.839
164.36
162.808
161.189
159.504
157.759
155.957
154.102
152.199
150.251
148.263
146.24
144.186
142.105
140.002
137.881
28.1638
46.8739
63.6692
107.27
100.843
90.5193
121.63
111.334
101.835
122.22
113.26
106.403
125.286
118.109
112.285
128.478
122.438
117.273
130.646
125.423
120.9
132.186
127.638
123.69
133.379
129.377
125.899
134.299
130.732
127.635
134.993
131.778
128.992
135.507
132.581
130.051
135.88
133.194
130.877
136.141
133.657
131.519
136.314
134.002
132.016
136.417
134.253
132.398
136.467
134.431
132.688
136.475
134.551
132.907
136.452
134.626
133.067
136.406
134.667
133.182
136.345
134.681
133.261
136.275
134.677
133.314
136.2
134.66
133.346
136.127
134.637
133.365
136.058
134.611
133.374
136.005
134.593
133.386
135.954
134.571
133.388
135.945
134.585
133.418
135.916
134.573
133.422
135.984
134.655
133.51
71.8321
73.5545
74.8991
75.2129
74.8869
74.1696
73.0777
71.6023
69.7369
67.4727
64.8034
61.7292
58.2615
54.3993
50.1787
45.6345
40.8189
35.8
30.6585
25.4913
20.4303
15.619
11.2028
7.33053
4.16426
1.81742
0.251122
-0.69943
-1.08067
-0.53287
80.4405
77.9184
77.4621
76.7961
76.097
75.2907
74.1419
72.5894
70.636
68.2765
65.5055
62.3229
58.737
54.7556
50.4006
45.7129
40.7475
35.5684
30.247
24.891
19.6428
14.6548
10.0778
6.06769
2.81857
0.488441
-0.910758
-1.58378
-1.64233
-0.739459
89.9238
82.6855
80.1348
78.916
77.9417
76.7664
75.3332
73.6285
71.5767
69.1241
66.2554
62.9702
59.2754
55.1826
50.7122
45.9026
40.8055
35.4812
30.003
24.4875
19.0784
13.9171
9.15387
4.98118
1.61914
-0.742689
-2.04035
-2.44328
-2.1543
-0.93564
97.1425
88.7624
84.218
81.5369
79.7122
78.1977
76.611
74.7403
72.528
69.9555
66.9938
63.6225
59.8394
55.6554
51.0917
46.1848
40.9835
35.5487
29.9563
24.3211
18.7769
13.4583
8.53325
4.22162
0.750431
-1.69834
-2.98808
-3.23571
-2.63993
-1.11529
104.097
95.6652
89.6741
85.3873
82.2576
79.869
77.8117
75.7373
73.4167
70.7425
67.684
64.2324
60.3818
56.1351
51.5088
46.5362
41.2653
35.7581
30.0929
24.379
18.7463
13.3364
8.32144
3.92264
0.358376
-2.20355
-3.59891
-3.84066
-2.85589
-1.21184
110.096
102.151
95.4117
89.9764
85.7056
82.3062
79.4527
76.8455
74.232
71.4196
68.286
64.7755
60.8748
56.5884
51.9308
46.9299
41.63
36.0923
30.3956
24.646
18.9727
13.5242
8.47527
4.03825
0.42967
-2.16969
-3.6133
-3.87013
-2.97578
-1.48235
114.798
107.633
100.742
94.6877
89.6322
85.3978
81.7443
78.4517
75.3209
72.172
68.8539
65.2562
61.3156
57.01
52.3458
47.348
42.0575
36.5322
30.8489
25.1101
19.4435
13.9993
8.95231
4.50695
0.874926
-1.75915
-3.26264
-3.61532
-2.91388
-1.59013
118.482
112.111
105.432
99.1767
93.6778
88.8581
84.5559
80.6242
76.922
73.3092
69.6548
65.846
61.7959
57.449
52.7832
47.8064
42.5515
37.0716
31.4403
25.755
20.1389
14.7388
9.72583
5.2949
1.64681
-1.04257
-2.65458
-3.17574
-2.70283
-1.63594
121.379
115.708
109.423
103.249
97.5896
92.4339
87.6817
83.2464
79.0397
74.9623
70.9131
66.7981
62.5376
58.0696
53.3552
48.3815
43.1634
37.7424
32.184
26.579
21.0433
15.7167
10.7621
6.36124
2.69935
-0.0623956
-1.81873
-2.55767
-2.36787
-1.62795
123.647
118.567
112.738
106.813
101.199
95.921
90.919
86.1476
81.5608
77.0965
72.6831
68.2495
63.732
59.0776
54.2484
49.2249
44.01
38.631
33.1412
27.62
22.1731
16.9297
12.0404
7.67112
3.98872
1.13723
-0.79074
-1.78436
-1.92235
-1.55246
125.424
120.837
115.46
109.86
104.42
99.179
94.097
89.153
84.3291
79.5923
74.8971
70.1943
65.4373
60.586
55.6106
50.4949
45.2397
39.8656
34.4159
28.9583
23.5853
18.4126
13.5755
9.22214
5.49983
2.53481
0.407488
-0.872695
-1.37374
-1.4118
126.823
122.65
117.689
112.434
107.234
102.132
97.0947
92.1136
87.1862
82.2987
77.4254
72.5353
67.5974
62.5845
57.4763
52.263
46.9479
41.5507
36.1099
30.6845
25.3554
20.2244
15.4102
11.0424
7.24867
4.13795
1.77901
0.179607
-0.719227
-1.20653
127.931
124.106
119.516
114.595
109.661
104.753
99.8425
94.9225
89.9987
85.0684
80.1188
75.1322
70.09
64.9759
59.7784
54.494
49.1298
43.7064
38.26
32.8442
27.5308
22.4089
17.5823
13.1627
9.25951
5.96552
3.33884
1.38533
0.0528549
-0.923887
128.809
125.282
121.019
116.407
111.74
107.051
102.312
97.5161
92.6716
87.7813
82.8404
77.8396
72.7691
67.6206
62.3894
57.0773
51.6947
46.263
40.8168
35.4051
30.0921
24.9565
20.0881
15.5831
11.535
8.02201
5.09313
2.75257
0.954174
-0.54116
129.507
126.235
122.259
117.929
113.516
109.05
104.503
99.866
95.1478
90.3539
85.4834
80.5326
75.4969
70.3735
65.1624
59.8689
54.5054
49.0935
43.6656
38.2663
32.9528
27.7937
22.8669
18.2549
14.0368
10.2789
7.02245
4.27081
1.98425
-0.0418085
130.061
127.01
123.286
119.21
115.032
110.783
106.431
101.968
97.401
92.7365
87.976
83.1185
78.163
73.1097
67.9616
62.7259
57.4156
52.0516
46.6636
41.2913
35.9847
30.8033
25.8137
21.0859
16.6869
12.6723
9.07685
5.90409
3.12131
0.567605
130.5
127.641
124.139
120.289
116.327
112.28
108.119
103.832
99.4257
94.9066
90.2772
85.5382
80.6905
75.7361
70.6796
65.5289
60.2969
55.0025
49.6723
44.3409
39.0513
33.8539
28.8051
23.9633
19.3844
15.1148
11.1836
7.59461
4.32184
1.25291
130.846
128.153
124.846
121.198
117.431
113.573
109.591
105.475
101.229
96.8592
92.3691
87.7598
83.0333
78.1927
73.2431
68.1923
63.0524
57.8403
52.5789
47.2977
42.0328
36.8264
31.725
26.7767
22.0273
17.5146
13.2625
9.2744
5.52954
1.96236
131.117
128.569
125.433
121.965
118.374
114.686
110.871
106.915
102.823
98.6001
94.2487
89.7709
85.1691
80.4466
75.6086
70.6626
65.6193
60.4934
55.3044
50.0768
44.8405
39.6297
34.4823
29.437
24.5302
19.7921
15.2411
10.8793
6.68866
2.6431
131.328
128.905
125.92
122.61
119.176
115.643
111.979
108.173
104.225
100.14
95.9219
91.5714
87.0911
82.4843
77.7558
72.9124
67.9635
62.9215
57.8027
52.6271
47.4188
42.2054
37.0168
31.8835
26.8335
21.8897
17.0653
12.3598
7.75532
3.25467
131.49
129.175
126.322
123.152
119.858
116.462
112.936
109.265
105.449
101.493
97.3988
93.1679
88.8021
84.3044
79.6791
74.9321
70.0712
65.107
60.0525
54.9241
49.7407
44.5242
39.2975
34.0838
28.9042
23.7747
18.7031
13.6857
8.70295
3.77525
131.614
129.391
126.653
123.607
120.435
117.161
113.757
110.207
106.511
102.672
98.6916
94.5705
90.3101
85.9128
81.3821
76.723
71.942
67.0474
62.05
56.9624
51.7995
46.578
41.3153
36.0282
30.7315
25.4354
20.1426
14.8457
9.52231
4.20095
131.707
129.564
126.925
123.985
120.92
117.754
114.457
111.015
107.426
103.691
99.8126
95.7903
91.6248
87.3179
82.8723
78.2918
73.5815
68.7481
63.7999
58.7466
53.5997
48.3714
43.0744
37.7203
32.3186
26.8742
21.3855
15.841
10.2158
4.53929
131.778
129.702
127.148
124.3
121.328
118.254
115.051
111.703
108.206
104.564
100.775
96.8402
92.7587
88.5317
84.161
79.6494
75.0007
70.22
65.3136
60.2887
55.1536
49.9172
44.588
39.1735
33.6786
28.1039
22.4437
16.6833
10.7953
4.80506
131.831
129.81
127.328
124.559
121.665
118.67
115.547
112.279
108.862
105.299
101.588
97.7285
93.7196
89.5616
85.2554
80.8029
76.2069
71.4708
66.5991
61.597
56.4705
51.2252
45.8666
40.3986
34.8223
29.1348
23.327
17.3816
11.2691
5.00891
131.877
129.902
127.48
124.776
121.947
119.017
115.961
112.76
109.411
105.914
102.268
98.4725
94.5247
90.4248
86.173
81.7701
77.2179
72.5186
67.6753
62.6915
57.5709
52.3169
46.9324
41.4183
35.7728
29.9901
24.0584
17.9578
11.658
5.16916
131.91
129.971
127.596
124.944
122.168
119.291
116.288
113.141
109.846
106.403
102.81
99.0651
95.1668
91.1137
86.9055
82.5424
78.0251
73.355
68.5339
63.5638
58.4469
53.1848
47.7781
42.2257
36.5234
30.663
24.6304
18.4043
11.9534
5.27996
131.958
130.046
127.709
125.097
122.361
119.525
116.563
113.458
110.205
106.803
103.251
99.5458
95.6857
91.6688
87.4943
83.1617
78.6712
74.0233
69.2189
64.2589
59.1443
53.8753
48.451
42.8686
37.1221
31.2014
25.0909
18.7674
12.1986
5.37427
131.98
130.086
127.772
125.188
122.479
119.67
116.735
113.658
110.433
107.059
103.534
99.8548
96.0199
92.027
87.8747
83.5622
79.0892
74.4557
69.6619
64.7081
59.5944
54.3201
48.8833
43.2799
37.5029
31.5409
25.3766
18.9857
12.335
5.40695
132.067
130.175
127.878
125.312
122.62
119.827
116.909
113.849
110.641
107.283
103.773
100.11
96.2892
92.3096
88.1695
83.8677
79.4037
74.7772
69.9882
65.0365
59.9219
54.6432
49.1979
43.5816
37.7865
31.8005
25.6052
19.1743
12.4696
5.44694
)
;

boundaryField
{
    inlet
    {
        type            zeroGradient;
    }
    outlet
    {
        type            fixedValue;
        value           uniform 0;
    }
    flap
    {
        type            zeroGradient;
    }
    upperWall
    {
        type            zeroGradient;
    }
    lowerWall
    {
        type            zeroGradient;
    }
    frontAndBack
    {
        type            empty;
    }
}


// ************************************************************************* //
