/*--------------------------------*- C++ -*----------------------------------*\
  =========                 |
  \\      /  F ield         | OpenFOAM: The Open Source CFD Toolbox
   \\    /   O peration     | Website:  https://openfoam.org
    \\  /    A nd           | Version:  7
     \\/     M anipulation  |
\*---------------------------------------------------------------------------*/
FoamFile
{
    version     2.0;
    format      ascii;
    class       surfaceScalarField;
    location    "1.2";
    object      phi;
}
// * * * * * * * * * * * * * * * * * * * * * * * * * * * * * * * * * * * * * //

dimensions      [0 3 -1 0 0 0 0];

internalField   nonuniform List<scalar> 
5457
(
0.198408
0.00159176
0.196452
0.00195629
0.194135
0.00231683
0.191413
0.00272206
0.188284
0.0031292
0.18475
0.00353393
0.180806
0.00394431
0.176438
0.00436753
0.17163
0.00480853
0.166358
0.0052711
0.1606
0.0057585
0.154327
0.00627346
0.147509
0.0068179
0.140116
0.0073926
0.132119
0.00799666
0.123493
0.00862681
0.114216
0.00927653
0.104281
0.00993496
0.0936953
0.0105857
0.0824896
0.0112058
0.0707252
0.0117643
0.0585025
0.0122227
0.0459667
0.0125359
0.033307
0.0126596
0.0207157
0.0125914
0.00816966
0.012546
-0.00333297
0.0115026
-0.00851416
0.00518119
-0.0079504
-0.000563761
-0.0079504
0.199919
0.00167303
0.199147
0.00272795
0.197907
0.00355688
0.196235
0.00439429
0.194126
0.00523801
0.191578
0.00608211
0.188584
0.0069382
0.185132
0.00781933
0.181205
0.00873541
0.176782
0.0096943
0.171838
0.0107028
0.166344
0.0117668
0.160272
0.0128904
0.153589
0.014076
0.146263
0.0153224
0.138266
0.0166241
0.129573
0.0179691
0.120171
0.0193371
0.11006
0.0206965
0.0992639
0.0220019
0.0878363
0.0231919
0.075872
0.024187
0.0635187
0.0248891
0.0509961
0.0251822
0.0386602
0.0249273
0.0273061
0.0239002
0.0178194
0.0209893
0.00806669
0.0149339
0.000848801
0.00665413
-0.0071016
0.199771
0.00190169
0.199059
0.00344058
0.197889
0.00472615
0.196315
0.00596871
0.194342
0.00721113
0.191967
0.00845691
0.189186
0.00971954
0.185989
0.0110161
0.182363
0.0123611
0.178291
0.0137663
0.173752
0.015242
0.168722
0.0167974
0.163173
0.0184394
0.157076
0.0201724
0.150402
0.0219966
0.14312
0.0239062
0.135202
0.0258867
0.126628
0.0279119
0.117384
0.0299398
0.107478
0.0319084
0.0969388
0.0337308
0.0858347
0.0352911
0.0742853
0.0364385
0.0624885
0.0369791
0.050763
0.0366527
0.0395761
0.0350871
0.0290216
0.0315439
0.0186719
0.0252835
0.00925705
0.016069
0.00215545
0.199694
0.00220789
0.19898
0.00415469
0.197831
0.00587505
0.196282
0.00751741
0.194347
0.00914614
0.192026
0.0107784
0.189314
0.0124307
0.186208
0.0141227
0.182697
0.0158722
0.178769
0.0176943
0.174409
0.0196021
0.169599
0.0216069
0.16432
0.0237182
0.158551
0.025942
0.152267
0.0282799
0.145447
0.030727
0.138065
0.0332684
0.130101
0.0358756
0.121539
0.0385018
0.112372
0.0410753
0.102609
0.0434938
0.0922842
0.0456161
0.0814679
0.0472549
0.0702805
0.0481665
0.058896
0.0480372
0.0475096
0.0464734
0.0361538
0.0428996
0.0247225
0.0367149
0.0130798
0.0277117
0.0152352
0.199658
0.00254977
0.198936
0.00487682
0.197806
0.00700485
0.196287
0.00903708
0.194391
0.0110421
0.19212
0.013049
0.189472
0.0150786
0.186442
0.0171526
0.183023
0.0192913
0.179205
0.0215124
0.174976
0.0238308
0.170324
0.0262596
0.165232
0.0288094
0.159687
0.0314876
0.15367
0.0342967
0.147165
0.0372322
0.140153
0.04028
0.132617
0.0434116
0.12454
0.0465791
0.115907
0.0497084
0.106709
0.0526912
0.0969494
0.0553762
0.0866444
0.0575598
0.0758324
0.0589785
0.0645675
0.0593022
0.0529031
0.0581379
0.0408078
0.0549949
0.0281277
0.0493949
0.0146039
0.0412355
0.0298392
0.199643
0.00290631
0.19892
0.00559985
0.197814
0.00811146
0.196331
0.0105195
0.194484
0.0128897
0.192274
0.0152591
0.189699
0.0176531
0.186756
0.0200958
0.183438
0.0226096
0.179736
0.0252138
0.175642
0.0279254
0.171143
0.0307585
0.166227
0.0337247
0.160883
0.0368322
0.155095
0.040084
0.148851
0.0434767
0.142134
0.0469969
0.134928
0.0506178
0.127213
0.0542936
0.118969
0.0579529
0.11017
0.0614901
0.10079
0.0647562
0.0908011
0.0675488
0.0801749
0.0696047
0.0688813
0.0705958
0.0568825
0.0701367
0.0440927
0.0677847
0.0303773
0.0631103
0.0156256
0.0559872
0.0454648
0.199641
0.00326566
0.198926
0.00631491
0.197847
0.00918996
0.196409
0.0119579
0.194618
0.0146801
0.192479
0.0173985
0.189989
0.0201427
0.187146
0.0229394
0.183943
0.0258125
0.180373
0.0287835
0.176428
0.0318705
0.172097
0.0350891
0.16737
0.0384519
0.162235
0.0419677
0.156678
0.0456408
0.150686
0.0494687
0.144243
0.05344
0.137329
0.0575311
0.129922
0.0617008
0.121991
0.0658846
0.113494
0.0699864
0.104381
0.073869
0.0945866
0.0773436
0.0840305
0.0801608
0.0726212
0.0820051
0.060259
0.0824989
0.0468319
0.0812118
0.0322489
0.0776933
0.016517
0.0717192
0.0619817
0.199645
0.00362046
0.198946
0.00701422
0.197901
0.0102348
0.196513
0.0133456
0.194789
0.0164049
0.19273
0.0194572
0.190337
0.022536
0.187606
0.0256702
0.184533
0.0288856
0.181111
0.0322053
0.177333
0.0356489
0.173188
0.0392333
0.168668
0.0429723
0.16376
0.0468761
0.15845
0.0509503
0.152724
0.0551947
0.146563
0.0596012
0.139943
0.0641507
0.132835
0.0688095
0.125196
0.0735236
0.11697
0.0782118
0.108083
0.0827558
0.098437
0.08699
0.087909
0.0906889
0.0763571
0.093557
0.0636321
0.0952239
0.0495984
0.0952454
0.0341885
0.0931032
0.017487
0.0884207
0.0794687
0.199655
0.0039658
0.198978
0.00769135
0.197972
0.0112404
0.196641
0.0146763
0.19499
0.0180562
0.193021
0.0214261
0.190735
0.0248223
0.188129
0.0282761
0.185199
0.0318152
0.181941
0.0354639
0.178346
0.0392435
0.174407
0.0431724
0.170113
0.0472657
0.165454
0.0515355
0.160415
0.0559897
0.154978
0.0606312
0.149123
0.0654565
0.14282
0.0704531
0.136032
0.0755973
0.128707
0.080849
0.120772
0.0861463
0.112132
0.0913966
0.102657
0.0964651
0.0921848
0.101161
0.0805238
0.105218
0.067469
0.108279
0.0528385
0.109876
0.036548
0.109394
0.0187217
0.106247
0.0981904
0.199668
0.00429814
0.199018
0.00834103
0.198057
0.0122012
0.196789
0.0159443
0.195218
0.019627
0.193348
0.0232966
0.191178
0.0269919
0.188708
0.0307462
0.185935
0.0345886
0.182853
0.0385452
0.179458
0.0426385
0.175742
0.0468885
0.171696
0.0513122
0.167307
0.0559238
0.162563
0.060734
0.157445
0.0657499
0.151927
0.0709736
0.145979
0.0764014
0.139555
0.0820213
0.132594
0.0878105
0.12501
0.0937304
0.116686
0.0997199
0.107467
0.105684
0.0971483
0.111479
0.0854806
0.116886
0.0721817
0.121578
0.0569789
0.125079
0.0397025
0.12667
0.0204501
0.125499
0.118641
0.199683
0.00461482
0.199065
0.00895894
0.198154
0.0131125
0.196954
0.017144
0.195471
0.0211108
0.193706
0.0250613
0.191662
0.0290361
0.189338
0.0330702
0.186732
0.0371945
0.183841
0.0414361
0.18066
0.0458193
0.177183
0.0503652
0.173403
0.055093
0.169307
0.0600191
0.164884
0.0651577
0.160113
0.0705204
0.154971
0.0761162
0.149421
0.0819507
0.143417
0.0880256
0.13689
0.0943374
0.129746
0.100875
0.121853
0.107613
0.11303
0.114507
0.103034
0.121475
0.0915489
0.128371
0.0781849
0.134942
0.0625103
0.140753
0.04415
0.14503
0.023023
0.146626
0.141664
0.199701
0.00491376
0.199118
0.00954154
0.198261
0.0139699
0.197134
0.0182706
0.195743
0.0225019
0.194091
0.0267133
0.19218
0.030947
0.190011
0.0352394
0.187583
0.0396227
0.184894
0.0441254
0.18194
0.0487727
0.178718
0.0535876
0.17522
0.0585907
0.171438
0.0638011
0.16736
0.0692363
0.162967
0.0749128
0.158237
0.0808464
0.153135
0.0870526
0.147614
0.0935473
0.141604
0.100347
0.135009
0.107469
0.127692
0.11493
0.119457
0.122742
0.11003
0.130902
0.0990275
0.139374
0.0859302
0.148039
0.0700646
0.156619
0.050652
0.164443
0.0270782
0.1702
0.168742
0.19972
0.00519333
0.199176
0.0100859
0.198376
0.0147698
0.197327
0.0193197
0.196034
0.0237952
0.1945
0.0282468
0.192729
0.0327179
0.190723
0.0372461
0.188481
0.0418646
0.186003
0.046603
0.183288
0.0514875
0.180333
0.0565424
0.177134
0.06179
0.173684
0.0672515
0.169973
0.0729475
0.165986
0.0788989
0.161705
0.085128
0.157098
0.0916595
0.152123
0.0985225
0.146717
0.105753
0.140792
0.113395
0.134216
0.121506
0.126799
0.130159
0.11826
0.139442
0.108174
0.149459
0.0959052
0.160308
0.0804842
0.17204
0.0604692
0.184458
0.0339446
0.196725
0.202686
0.199741
0.00545224
0.199237
0.0105898
0.198498
0.0155092
0.19753
0.0202878
0.196338
0.0249866
0.194928
0.029657
0.193303
0.0343432
0.191465
0.0390838
0.189417
0.0439129
0.187159
0.0488607
0.184692
0.0539544
0.182016
0.059219
0.179128
0.0646781
0.176024
0.0703547
0.1727
0.0762719
0.169145
0.0824542
0.165344
0.0889291
0.161274
0.0957286
0.156904
0.102892
0.152185
0.110472
0.147045
0.118534
0.141379
0.127172
0.135028
0.13651
0.127746
0.146724
0.119141
0.158064
0.108555
0.170894
0.0948244
0.18577
0.0757354
0.203547
0.0467831
0.225677
0.249469
0.199763
0.0056895
0.199301
0.0110511
0.198625
0.0161854
0.197741
0.0211719
0.196655
0.0260727
0.195372
0.0309399
0.193897
0.0358184
0.192233
0.0407476
0.190384
0.045762
0.188352
0.0508922
0.186141
0.056166
0.183751
0.0616088
0.181184
0.067245
0.17844
0.0730987
0.175517
0.0791946
0.172412
0.0855595
0.169117
0.0922241
0.16562
0.0992254
0.161903
0.10661
0.157937
0.114438
0.153681
0.122791
0.14907
0.131782
0.144011
0.14157
0.138351
0.152384
0.131843
0.164572
0.124043
0.178695
0.114065
0.195748
0.0997871
0.217825
0.0743022
0.251162
0.323772
0.0120271
-0.0120271
0.0205766
-0.00854954
0.0269981
-0.00642145
0.0317937
-0.00479564
0.0350359
-0.00324218
0.036531
-0.00149507
0.0361437
0.0003873
0.0341102
0.00203351
0.030714
0.00339623
0.0261706
0.00454339
0.0207224
0.0054482
0.0145775
0.00614486
0.00797641
0.00660109
0.00113868
0.00683773
-0.0057345
0.00687318
-0.0125035
0.00676903
-0.0190244
0.00652092
-0.025134
0.00610953
-0.0306636
0.00552963
-0.0354438
0.00478016
-0.0393061
0.00386231
-0.0420834
0.00277734
-0.0435978
0.00151438
-0.0435802
-1.75668e-05
-0.0417071
-0.0018731
-0.0375155
-0.00419161
-0.0304962
-0.00701935
-0.0196571
-0.010839
-0.00364318
-0.016014
-0.0146854
0.00649411
-0.0185212
0.0114226
-0.0134781
0.0143913
-0.00939007
0.0152918
-0.00569623
0.0141462
-0.00209654
0.0114358
0.00121532
0.00775976
0.00406336
0.0032182
0.00657507
-0.00214706
0.00876148
-0.00813886
0.0105352
-0.0146769
0.0119863
-0.0216223
0.0130903
-0.0288538
0.0138326
-0.0362329
0.0142168
-0.0436229
0.0142631
-0.0508519
0.0139981
-0.0577507
0.0134197
-0.064156
0.0125148
-0.0699016
0.0112752
-0.0748186
0.00969723
-0.0787392
0.00778287
-0.0814985
0.00553668
-0.0829301
0.00294595
-0.0828967
-5.09836e-05
-0.0812443
-0.00352552
-0.0779322
-0.00750364
-0.0729107
-0.0120409
-0.0664756
-0.0172741
-0.0601773
-0.0223123
-0.0243952
0.000931976
-0.0194532
0.00127216
-0.0138182
-5.86591e-06
-0.00811205
-0.00268687
-0.00301522
-0.00615041
0.001367
-0.0101864
0.00525133
-0.0148977
0.0087746
-0.0202371
0.0119145
-0.0261109
0.0146353
-0.032478
0.0169024
-0.0392238
0.0187321
-0.0462453
0.0201117
-0.0534418
0.0210291
-0.0607066
0.0214816
-0.0679192
0.0214757
-0.0749399
0.0210188
-0.0816255
0.0201052
-0.0878334
0.0187227
-0.0934192
0.016861
-0.098237
0.014515
-0.102141
0.0116869
-0.104989
0.00838451
-0.106663
0.00461963
-0.107026
0.000312163
-0.106131
-0.00442014
-0.103914
-0.00972065
-0.100509
-0.0154459
-0.0963319
-0.0214512
-0.0916746
-0.0269696
-0.0309482
-0.003256
-0.0161972
-0.00710218
-0.00997207
-0.011297
-0.00391722
-0.0156603
0.00134808
-0.0203238
0.00603047
-0.0253923
0.0103198
-0.0308596
0.014242
-0.036697
0.0177519
-0.0428713
0.0208095
-0.0493519
0.023383
-0.0560787
0.0254589
-0.0629853
0.0270183
-0.0699993
0.0280431
-0.0770387
0.028521
-0.084007
0.028444
-0.0907923
0.0278041
-0.0972743
0.0265872
-0.103328
0.0247761
-0.108823
0.022356
-0.113626
0.0193188
-0.117606
0.0156669
-0.120636
0.0114146
-0.1226
0.00658325
-0.12346
0.00117223
-0.12315
-0.00473004
-0.12177
-0.0111012
-0.119465
-0.0177509
-0.116532
-0.0243838
-0.113006
-0.0304958
-0.0353609
-0.00636802
-0.00982917
-0.0127383
-0.0036018
-0.0185281
0.00187261
-0.0241519
0.00697185
-0.0298379
0.0117165
-0.0356623
0.0161442
-0.0416403
0.0202199
-0.0477848
0.0238964
-0.0541024
0.0271271
-0.0605903
0.0298709
-0.0672269
0.0320955
-0.0739778
0.0337692
-0.0807968
0.0348621
-0.0876236
0.0353478
-0.0943823
0.0352028
-0.100982
0.0344035
-0.107319
0.0329241
-0.113281
0.0307389
-0.118752
0.0278264
-0.123607
0.0241743
-0.127724
0.019784
-0.130985
0.0146747
-0.133285
0.00888329
-0.134575
0.00246228
-0.134843
-0.00446186
-0.134178
-0.0117666
-0.132722
-0.0192065
-0.13068
-0.0264257
-0.128121
-0.0330546
-0.0383062
-0.00827928
-0.00154989
-0.0157612
0.00388008
-0.0226822
0.00879366
-0.0292737
0.0135633
-0.0356893
0.0181321
-0.0420092
0.0224641
-0.0482937
0.0265045
-0.0545922
0.0301949
-0.0609428
0.0334777
-0.0673703
0.0362984
-0.0738818
0.0386071
-0.0804685
0.0403559
-0.0871055
0.0414991
-0.0937513
0.0419936
-0.100347
0.0417985
-0.106817
0.0408738
-0.113073
0.0391797
-0.119013
0.0366789
-0.124527
0.0333407
-0.129499
0.0291462
-0.13381
0.0240945
-0.137344
0.018209
-0.140005
0.0115439
-0.141741
0.00419911
-0.142551
-0.00365236
-0.142518
-0.0117998
-0.141766
-0.0199577
-0.140456
-0.0277359
-0.138727
-0.0347838
-0.0402076
-0.00884553
0.00729564
-0.017075
0.0121095
-0.0246871
0.0164058
-0.0318398
0.0207159
-0.0386463
0.0249386
-0.045204
0.0290219
-0.0515992
0.0328996
-0.0579068
0.0365026
-0.0641894
0.0397602
-0.0704933
0.0426023
-0.0768473
0.044961
-0.0832614
0.04677
-0.0897275
0.0479652
-0.096219
0.048485
-0.10269
0.0482699
-0.109078
0.0472619
-0.115304
0.0454055
-0.121275
0.0426494
-0.126885
0.0389513
-0.132023
0.0342841
-0.136572
0.0286434
-0.14042
0.0220566
-0.143471
0.0145953
-0.145669
0.00639713
-0.147004
-0.00231702
-0.14755
-0.0112541
-0.147417
-0.0200908
-0.146749
-0.0284039
-0.145732
-0.0358004
-0.0413133
-0.00887008
0.0161657
-0.0172975
0.020537
-0.0251234
0.0242317
-0.0324254
0.0280179
-0.0392944
0.0318077
-0.0458323
0.0355598
-0.0521392
0.0392065
-0.0583071
0.0426704
-0.0644147
0.0458677
-0.0705239
0.0487116
-0.0766779
0.051115
-0.0829002
0.0529923
-0.0891948
0.0542597
-0.0955457
0.0548359
-0.101918
0.054642
-0.108257
0.0536013
-0.114493
0.0516409
-0.120537
0.0486938
-0.12629
0.0447046
-0.131642
0.0396358
-0.136477
0.0334779
-0.140681
0.026261
-0.144156
0.0180706
-0.146832
0.00907303
-0.148683
-0.000466534
-0.149767
-0.0101699
-0.150196
-0.0196616
-0.150108
-0.0284918
-0.149712
-0.0361967
-0.0417705
-0.00854002
0.0247057
-0.0167395
0.0287365
-0.0243664
0.0318585
-0.0314506
0.0351021
-0.0380712
0.0384283
-0.0443346
0.0418232
-0.0503508
0.0452227
-0.0562227
0.0485423
-0.062039
0.0516841
-0.0678711
0.0545436
-0.0737704
0.0570144
-0.0797686
0.0589906
-0.0858774
0.0603685
-0.0920883
0.0610469
-0.0983738
0.0609274
-0.104687
0.0599142
-0.110962
0.0579159
-0.117116
0.0548487
-0.123054
0.050642
-0.128664
0.045246
-0.13383
0.0386435
-0.138433
0.0308641
-0.142365
0.0220027
-0.145538
0.012246
-0.147904
0.00189957
-0.149504
-0.00857042
-0.15046
-0.0187051
-0.150906
-0.0280454
-0.151063
-0.0360404
-0.0416676
-0.00794591
0.0326516
-0.0156023
0.0363929
-0.0226895
0.0389457
-0.0292272
0.0416398
-0.0353046
0.0445057
-0.0410427
0.0475614
-0.0465632
0.0507431
-0.0519767
0.0539558
-0.0573771
0.0570845
-0.062839
0.0600055
-0.0684171
0.0625925
-0.0741462
0.0647197
-0.0800417
0.066264
-0.0860999
0.0671051
-0.0922981
0.0671256
-0.0985945
0.0662106
-0.104929
0.0642499
-0.111221
0.0611416
-0.117377
0.0567978
-0.123285
0.0511536
-0.128821
0.0441795
-0.133857
0.0359004
-0.138271
0.026417
-0.14196
0.0159348
-0.144867
0.004807
-0.146997
-0.00644124
-0.148462
-0.0172399
-0.14941
-0.0270972
-0.150071
-0.0353793
-0.0410581
-0.00717983
0.0398315
-0.0140604
0.0432735
-0.0203154
0.0452007
-0.0259985
0.0473229
-0.0312451
0.0497522
-0.0362088
0.0525251
-0.041027
0.0555613
-0.0458162
0.058745
-0.05067
0.0619384
-0.0556608
0.0649963
-0.0608409
0.0677725
-0.0662437
0.0701225
-0.0718848
0.0719051
-0.0777627
0.072983
-0.0838582
0.0732211
-0.0901339
0.0724863
-0.0965331
0.0706491
-0.10298
0.0675881
-0.109378
0.0631965
-0.115615
0.0573902
-0.121558
0.050123
-0.127069
0.041411
-0.132011
0.0313594
-0.136268
0.0201911
-0.139751
0.00829035
-0.142423
-0.00376966
-0.144387
-0.0152759
-0.145816
-0.0256675
-0.146952
-0.0342434
-0.0399778
-0.0063772
0.0462087
-0.0123175
0.0492138
-0.0174576
0.0503408
-0.021969
0.0518343
-0.026089
0.0538723
-0.0300266
0.0564627
-0.0339366
0.0594712
-0.0379358
0.0627442
-0.0421107
0.0661133
-0.0465245
0.0694101
-0.0512213
0.0724694
-0.0562289
0.07513
-0.0615598
0.077236
-0.0672128
0.0786361
-0.0731717
0.0791799
-0.0794032
0.0787178
-0.0858551
0.077101
-0.0924547
0.0741876
-0.0991083
0.0698501
-0.1057
0.063982
-0.112091
0.0565143
-0.11813
0.0474491
-0.123663
0.036893
-0.128553
0.0250806
-0.132669
0.0124068
-0.13591
-0.000528967
-0.138368
-0.0128175
-0.140273
-0.0237626
-0.14187
-0.0326463
-0.038437
-0.00576947
0.0519781
-0.0106635
0.0541077
-0.0143515
0.0540288
-0.0173171
0.0547999
-0.0199884
0.0565437
-0.022645
0.0591193
-0.0254462
0.0622724
-0.0284968
0.0657948
-0.0318646
0.0694812
-0.0355951
0.0731406
-0.0397183
0.0765926
-0.0442516
0.0796634
-0.0492011
0.0821854
-0.054565
0.084
-0.0603295
0.0849444
-0.0664674
0.0848557
-0.0729326
0.0835663
-0.0796586
0.0809136
-0.0865571
0.0767487
-0.0935158
0.0709406
-0.10039
0.0633887
-0.107013
0.0540721
-0.11321
0.0430903
-0.118807
0.0306773
-0.123621
0.0172206
-0.127496
0.00334643
-0.130494
-0.00981937
-0.13289
-0.0213672
-0.134954
-0.0305816
-0.0364218
-0.00581393
0.0577921
-0.00957242
0.0578662
-0.0112727
0.055729
-0.0121856
0.0557128
-0.0130462
0.0574043
-0.0141732
0.0602463
-0.015682
0.0637813
-0.0176427
0.0677554
-0.0200879
0.0719264
-0.0230352
0.0760879
-0.0264942
0.0800516
-0.030468
0.0836371
-0.0349507
0.0866682
-0.0399409
0.0889902
-0.0454262
0.0904298
-0.0513881
0.0908176
-0.0577892
0.0899674
-0.0645726
0.087697
-0.0716626
0.0838387
-0.0789609
0.0782389
-0.086323
0.0707508
-0.093566
0.0613151
-0.100485
0.0500092
-0.106861
0.0370533
-0.112466
0.0228255
-0.117143
0.00802395
-0.120815
-0.00614759
-0.123742
-0.0184404
-0.126303
-0.0280205
-0.0338971
-0.00759192
0.065384
-0.00989469
0.060169
-0.00851954
0.0543539
-0.00662624
0.0538195
-0.00531122
0.0560893
-0.00469006
0.0596251
-0.00476159
0.0638528
-0.00551734
0.0685111
-0.00694313
0.0733522
-0.00901991
0.0781647
-0.0117301
0.0827618
-0.0150589
0.0869659
-0.0189802
0.0905896
-0.0234965
0.0935064
-0.0285924
0.0955256
-0.0342623
0.0964874
-0.0404776
0.0961827
-0.0471935
0.0944129
-0.0543527
0.090998
-0.0618925
0.0857787
-0.0696819
0.0785402
-0.0775376
0.0691708
-0.0852394
0.057711
-0.0925475
0.0443615
-0.0991874
0.0294654
-0.104884
0.0137203
-0.109357
-0.00167415
-0.112874
-0.0149234
-0.115992
-0.0249028
-0.0308108
0.207437
0.0059121
0.207004
0.0114838
0.206371
0.0168187
0.205545
0.0219982
0.204532
0.0270854
0.203339
0.032133
0.201971
0.0371864
0.200433
0.0422851
0.198731
0.0474641
0.19687
0.052754
0.194853
0.0581826
0.192686
0.0637756
0.190374
0.0695574
0.18792
0.0755524
0.185329
0.0817857
0.182604
0.088285
0.179746
0.0950819
0.176757
0.102215
0.173634
0.109732
0.170376
0.117696
0.166978
0.12619
0.163432
0.135328
0.159733
0.145268
0.155881
0.156235
0.151898
0.168556
0.147873
0.18272
0.144158
0.199463
0.142361
0.219622
0.15281
0.240713
0.252421
0.224161
0.21248
0.00611447
0.212087
0.0118769
0.211513
0.0173933
0.210764
0.0227466
0.209849
0.0280003
0.208775
0.0332076
0.207547
0.0384138
0.206174
0.0436588
0.204661
0.0489772
0.203015
0.0543994
0.201245
0.0599529
0.199358
0.0656628
0.197362
0.0715532
0.195267
0.0776476
0.193082
0.0839704
0.190819
0.0905482
0.18849
0.097411
0.18611
0.104595
0.183697
0.112145
0.181276
0.120116
0.178884
0.128582
0.176575
0.137637
0.174439
0.147404
0.172638
0.158037
0.17147
0.169723
0.171554
0.182636
0.17423
0.196787
0.181963
0.211889
0.195685
0.226991
0.241147
0.206958
0.217648
0.00629439
0.217298
0.0122263
0.216788
0.0179033
0.216126
0.0234091
0.215318
0.0288077
0.214374
0.0341522
0.2133
0.0394879
0.212104
0.0448541
0.210796
0.0502851
0.209385
0.0558105
0.207881
0.0614571
0.206295
0.0672488
0.20464
0.0732085
0.202929
0.0793579
0.20118
0.0857195
0.199412
0.0923169
0.197646
0.0991764
0.195913
0.106328
0.194249
0.113808
0.192705
0.12166
0.191352
0.129936
0.190292
0.138697
0.189682
0.148013
0.189766
0.157953
0.190926
0.168564
0.193728
0.179834
0.198886
0.191629
0.206993
0.203782
0.217697
0.216287
0.226626
0.232218
0.222941
0.0064498
0.22264
0.0125279
0.2222
0.0183427
0.221631
0.0239783
0.22094
0.0294985
0.220136
0.0349563
0.219228
0.0403963
0.218225
0.0458573
0.217137
0.0513725
0.215977
0.0569708
0.214757
0.0626771
0.213492
0.0685142
0.212197
0.0745026
0.210894
0.0806616
0.209603
0.0870104
0.208351
0.0935683
0.207172
0.100356
0.206106
0.107394
0.205205
0.114709
0.204539
0.122327
0.2042
0.130275
0.204316
0.138581
0.205064
0.147265
0.206685
0.156332
0.209496
0.165753
0.213878
0.175452
0.220229
0.185278
0.229053
0.194958
0.241159
0.204181
0.210741
0.257044
0.228364
0.00657876
0.228114
0.012778
0.227751
0.0187062
0.227282
0.0244471
0.226716
0.0300642
0.226063
0.0356098
0.225331
0.0411278
0.224533
0.0466558
0.223679
0.0522259
0.222785
0.0578653
0.221865
0.0635975
0.220936
0.0694427
0.22002
0.075419
0.219139
0.0815423
0.218322
0.0878277
0.217601
0.0942889
0.217017
0.100939
0.21662
0.107792
0.216471
0.114858
0.216651
0.122147
0.217261
0.129665
0.218433
0.137409
0.220335
0.145364
0.223175
0.153492
0.227205
0.161722
0.232721
0.169936
0.240057
0.177942
0.249609
0.185406
0.261788
0.192002
0.196658
0.27587
0.23392
0.00667948
0.233725
0.0129732
0.233442
0.0189887
0.23308
0.0248091
0.232647
0.030497
0.232153
0.0361039
0.231609
0.0416723
0.231026
0.0472386
0.230418
0.0528333
0.229802
0.0584818
0.229194
0.0642054
0.228615
0.0700218
0.228088
0.0759458
0.22764
0.0819897
0.227304
0.0881637
0.227118
0.0944757
0.227125
0.100932
0.227383
0.107534
0.227956
0.114284
0.228929
0.121175
0.2304
0.128193
0.232494
0.135315
0.235357
0.142501
0.239163
0.149686
0.244109
0.156776
0.25041
0.163635
0.258278
0.170074
0.267861
0.175823
0.279224
0.18064
0.184022
0.29186
0.23961
0.00675035
0.239473
0.0131102
0.239276
0.0191858
0.239027
0.0250587
0.238734
0.0307903
0.238407
0.0364307
0.238058
0.0420213
0.2377
0.0475966
0.237348
0.0531853
0.237019
0.0588108
0.236732
0.0644918
0.236511
0.0702432
0.23638
0.0760765
0.23637
0.0819999
0.236515
0.0880186
0.236856
0.0941348
0.237441
0.100347
0.238325
0.10665
0.239577
0.113033
0.241274
0.119477
0.24351
0.125957
0.246391
0.132434
0.25004
0.138852
0.25459
0.145136
0.260179
0.151187
0.266939
0.156874
0.274972
0.162041
0.284304
0.16649
0.294912
0.170033
0.172412
0.306521
0.245439
0.00678998
0.245363
0.0131865
0.245255
0.0192936
0.245123
0.0251908
0.244975
0.0309381
0.244822
0.0365839
0.244676
0.0421678
0.24455
0.0477225
0.24446
0.0532747
0.244426
0.0588455
0.244467
0.0644508
0.244607
0.0701028
0.244874
0.0758094
0.245299
0.0815749
0.245918
0.0873997
0.246772
0.0932807
0.247909
0.09921
0.249384
0.105175
0.25126
0.111157
0.253607
0.117129
0.256508
0.123057
0.260049
0.128893
0.264324
0.134577
0.269428
0.140032
0.275448
0.145166
0.282455
0.149868
0.290484
0.154011
0.299519
0.157455
0.309491
0.160061
0.161705
0.320198
0.25141
0.0067972
0.251397
0.0131998
0.251381
0.0193089
0.251371
0.0252016
0.251373
0.0309359
0.251398
0.0365584
0.251459
0.0421067
0.25157
0.0476115
0.251748
0.0530972
0.252011
0.0585824
0.252381
0.0640808
0.252883
0.0696012
0.253544
0.0751483
0.254396
0.0807227
0.255475
0.0863209
0.256821
0.0919348
0.258479
0.0975516
0.260501
0.103153
0.262942
0.108716
0.265864
0.114207
0.269334
0.119588
0.273418
0.124809
0.278185
0.12981
0.283695
0.134522
0.289999
0.138863
0.297124
0.142743
0.305069
0.146066
0.31379
0.148734
0.323195
0.150657
0.151778
0.333122
0.257525
0.00677111
0.257576
0.0131484
0.257656
0.0192292
0.25777
0.025088
0.257925
0.0307803
0.258133
0.0363508
0.258405
0.0418347
0.258755
0.0472607
0.259202
0.0526509
0.259763
0.0580214
0.26046
0.0633833
0.261319
0.0687427
0.262366
0.0741014
0.263632
0.0794566
0.265151
0.0848014
0.266962
0.090124
0.269105
0.0954081
0.271627
0.100632
0.274574
0.105769
0.277997
0.110784
0.281947
0.115637
0.286475
0.120282
0.291623
0.124662
0.297428
0.128717
0.303911
0.13238
0.311073
0.13558
0.318889
0.13825
0.327301
0.140322
0.336215
0.141742
0.142491
0.345502
0.263788
0.00671107
0.263905
0.013031
0.264081
0.0190529
0.264321
0.0248481
0.264632
0.0304695
0.265024
0.0359593
0.265508
0.0413507
0.266099
0.0466699
0.266813
0.0519367
0.267669
0.0571651
0.268689
0.0623636
0.269896
0.0675359
0.271316
0.0726811
0.272979
0.0777939
0.274915
0.0828647
0.27716
0.0878792
0.27975
0.0928188
0.282722
0.09766
0.286116
0.102374
0.289971
0.106929
0.294324
0.111284
0.299209
0.115397
0.304651
0.11922
0.310666
0.122702
0.317256
0.12579
0.324404
0.128432
0.332073
0.130581
0.340202
0.132194
0.348703
0.133241
0.13372
0.357473
0.270201
0.0066167
0.270385
0.0128469
0.270659
0.0187792
0.271026
0.024481
0.271493
0.0300025
0.272069
0.0353837
0.272765
0.040655
0.273594
0.0458406
0.274572
0.0509581
0.275718
0.0560191
0.277052
0.06103
0.278595
0.0659924
0.280373
0.0709033
0.282412
0.0757555
0.284739
0.0805374
0.287385
0.0852334
0.29038
0.0898239
0.293755
0.094285
0.29754
0.0985889
0.301764
0.102704
0.306453
0.106596
0.311624
0.110225
0.317291
0.113554
0.323453
0.116539
0.3301
0.119143
0.337206
0.121326
0.344728
0.123059
0.352605
0.124316
0.360763
0.125083
0.125369
0.369115
0.27677
0.00648795
0.27702
0.0125961
0.277392
0.0184078
0.277886
0.0239868
0.278508
0.0293803
0.279266
0.0346254
0.280171
0.0397504
0.281235
0.044777
0.282472
0.0497209
0.2839
0.0545915
0.285536
0.0593935
0.287402
0.0641267
0.289518
0.0687866
0.291909
0.0733646
0.294598
0.0778481
0.297611
0.0822211
0.300971
0.0864638
0.304703
0.0905533
0.308828
0.0944637
0.313366
0.0981664
0.31833
0.101631
0.323731
0.104825
0.329567
0.107717
0.335831
0.110275
0.342504
0.11247
0.349553
0.114277
0.356935
0.115677
0.364596
0.116656
0.372468
0.117211
0.117355
0.380481
0.283496
0.00632499
0.283813
0.0122789
0.284281
0.0179397
0.284901
0.0233669
0.285677
0.0286045
0.286615
0.0336873
0.287724
0.0386408
0.289016
0.0434849
0.290504
0.0482329
0.292203
0.0528928
0.294129
0.0574676
0.2963
0.0619557
0.298735
0.0663517
0.301453
0.0706462
0.304475
0.0748264
0.30782
0.0788764
0.311506
0.0827775
0.315551
0.0865083
0.319969
0.0900455
0.324772
0.0933642
0.329964
0.0964387
0.335546
0.099243
0.341511
0.101752
0.347843
0.103942
0.35452
0.105794
0.361506
0.107291
0.368762
0.108422
0.376235
0.109183
0.383871
0.109576
0.109617
0.391609
0.290383
0.00612828
0.290766
0.0118962
0.291329
0.0173761
0.292073
0.0226233
0.292999
0.0276785
0.294113
0.0325736
0.295421
0.0373322
0.296934
0.0419718
0.298663
0.0465039
0.300621
0.0509352
0.302821
0.0552672
0.305279
0.0594977
0.308011
0.0636204
0.311031
0.0676259
0.314356
0.0715017
0.317999
0.0752328
0.321975
0.0788018
0.326293
0.0821896
0.330963
0.0853761
0.335987
0.0883401
0.341365
0.0910605
0.347091
0.093517
0.353153
0.0956907
0.35953
0.0975651
0.366197
0.099127
0.37312
0.100367
0.380261
0.101281
0.387575
0.101869
0.395014
0.102137
0.102103
0.402527
0.297436
0.0058985
0.297882
0.0114494
0.298539
0.0167193
0.299403
0.021759
0.300476
0.0266062
0.301759
0.03129
0.30326
0.0358316
0.304985
0.0402466
0.306944
0.0445451
0.309147
0.0487322
0.311605
0.0528088
0.314331
0.0567719
0.317336
0.0606152
0.320633
0.0643295
0.324232
0.067903
0.328142
0.0713219
0.332373
0.0745709
0.33693
0.0776334
0.341813
0.0804922
0.347023
0.08313
0.352554
0.0855303
0.358393
0.0876774
0.364526
0.0895578
0.370931
0.0911605
0.37758
0.0924774
0.384443
0.0935043
0.391482
0.094241
0.39866
0.0946916
0.405933
0.0948641
0.0947751
0.413261
0.304657
0.00563656
0.305166
0.0109403
0.305914
0.0159719
0.306895
0.020778
0.308108
0.0253927
0.309555
0.0298428
0.31124
0.0341471
0.313167
0.0383194
0.315344
0.0423685
0.317777
0.0462984
0.320477
0.0501093
0.323451
0.053798
0.326708
0.0573584
0.330255
0.0607818
0.334101
0.0640576
0.338249
0.0671735
0.342704
0.0701161
0.347466
0.0728716
0.352532
0.0754257
0.357897
0.0777648
0.363552
0.079876
0.369481
0.0817482
0.375667
0.083372
0.382087
0.0847405
0.388714
0.0858499
0.395519
0.0866992
0.402469
0.0872912
0.409529
0.0876319
0.416663
0.0877303
0.087602
0.423836
0.312051
0.0053435
0.312621
0.0103709
0.313455
0.0151371
0.314549
0.0196844
0.315898
0.0240438
0.317502
0.0282392
0.319361
0.0322876
0.321479
0.036201
0.323861
0.0399869
0.326511
0.0436487
0.329434
0.047186
0.332636
0.0505956
0.336123
0.0538718
0.339898
0.0570069
0.343964
0.0599913
0.348323
0.0628145
0.352974
0.0654652
0.357914
0.067932
0.363136
0.0702037
0.368631
0.0722696
0.374387
0.0741204
0.380387
0.0757481
0.386612
0.077147
0.393039
0.0783135
0.399642
0.0792463
0.406394
0.0799472
0.413265
0.0804205
0.420224
0.0806733
0.427239
0.0807149
0.0805597
0.434281
0.319623
0.00502053
0.32025
0.0097436
0.321168
0.0142185
0.32237
0.0184832
0.323848
0.0225656
0.3256
0.0264871
0.327625
0.0302626
0.329923
0.0339026
0.332497
0.0374136
0.335347
0.0407981
0.338478
0.0440557
0.34189
0.0471834
0.345586
0.0501761
0.349566
0.0530267
0.35383
0.0557273
0.358375
0.058269
0.363198
0.0606425
0.368291
0.0628387
0.373646
0.0648489
0.37925
0.0666653
0.38509
0.0682811
0.391146
0.0696914
0.3974
0.0708929
0.403829
0.0718844
0.410409
0.0726667
0.417113
0.0732432
0.423915
0.0736191
0.430786
0.0738018
0.437701
0.0738005
0.0736284
0.444632
0.327375
0.0046689
0.328058
0.00906086
0.329056
0.0132197
0.33036
0.0171795
0.331961
0.0209647
0.333854
0.0245945
0.336035
0.0280817
0.338502
0.0314355
0.341254
0.0346613
0.344291
0.0377613
0.347612
0.0407349
0.351216
0.0435794
0.355102
0.0462902
0.359267
0.0488615
0.363707
0.0512866
0.368418
0.0535582
0.373392
0.0556689
0.378619
0.0576116
0.384088
0.0593798
0.389785
0.060968
0.395695
0.0623718
0.401798
0.0635882
0.408075
0.064616
0.414503
0.0654557
0.421061
0.0661094
0.427723
0.0665813
0.434464
0.0668772
0.441262
0.0670046
0.44809
0.0669719
0.0667912
0.454927
0.335313
0.0042899
0.336049
0.00832519
0.337124
0.0121447
0.338525
0.0157783
0.340242
0.0192477
0.342267
0.0225694
0.344594
0.0257544
0.347219
0.0288107
0.350137
0.0317427
0.353346
0.0345522
0.356843
0.0372387
0.360622
0.0397998
0.364681
0.0422316
0.369013
0.0445293
0.373612
0.0466873
0.378471
0.0487
0.383578
0.0505616
0.388923
0.0522668
0.394492
0.0538109
0.400269
0.0551902
0.406239
0.056402
0.412382
0.0574452
0.418679
0.0583197
0.425107
0.0590271
0.431646
0.0595707
0.438272
0.0599548
0.444964
0.0601854
0.451699
0.0602695
0.458456
0.0602151