/*--------------------------------*- C++ -*----------------------------------*\
  =========                 |
  \\      /  F ield         | OpenFOAM: The Open Source CFD Toolbox
   \\    /   O peration     | Website:  https://openfoam.org
    \\  /    A nd           | Version:  7
     \\/     M anipulation  |
\*---------------------------------------------------------------------------*/
FoamFile
{
    version     2.0;
    format      ascii;
    class       volVectorField;
    location    "1.2";
    object      U;
}
// * * * * * * * * * * * * * * * * * * * * * * * * * * * * * * * * * * * * * //

dimensions      [0 1 -1 0 0 0 0];

internalField   nonuniform List<vector> 
2790
(
(9.9438 0.0206324 0)
(9.8749 0.0298228 0)
(9.77322 0.0363605 0)
(9.64577 0.0430702 0)
(9.49825 0.050048 0)
(9.3316 0.0572437 0)
(9.145 0.0647854 0)
(8.93759 0.0728334 0)
(8.70857 0.0815239 0)
(8.45702 0.0909798 0)
(8.18179 0.101323 0)
(7.88158 0.11268 0)
(7.55496 0.125175 0)
(7.20042 0.138927 0)
(6.81646 0.154044 0)
(6.4017 0.170602 0)
(5.95496 0.188633 0)
(5.4755 0.20809 0)
(4.96323 0.228816 0)
(4.41904 0.250502 0)
(3.84512 0.27263 0)
(3.24536 0.294431 0)
(2.62567 0.314862 0)
(1.99423 0.332762 0)
(1.35972 0.348347 0)
(0.754298 0.370417 0)
(0.0544604 0.296938 0)
(-0.46163 -0.120541 0)
(-0.450746 -0.279307 0)
(-0.229452 -0.411183 0)
(9.99832 0.0410423 0)
(9.98063 0.0630949 0)
(9.93374 0.0802485 0)
(9.86045 0.0981452 0)
(9.76506 0.117066 0)
(9.64856 0.136856 0)
(9.51033 0.157762 0)
(9.34958 0.180135 0)
(9.16551 0.204276 0)
(8.9572 0.230456 0)
(8.72354 0.258934 0)
(8.46319 0.289965 0)
(8.17471 0.323783 0)
(7.85655 0.360578 0)
(7.5071 0.400471 0)
(7.12484 0.443461 0)
(6.70841 0.489365 0)
(6.25681 0.537738 0)
(5.76964 0.587774 0)
(5.24739 0.638194 0)
(4.69185 0.68713 0)
(4.10652 0.732024 0)
(3.49721 0.769573 0)
(2.87282 0.795797 0)
(2.24619 0.806452 0)
(1.64652 0.79794 0)
(1.0653 0.729476 0)
(0.630767 0.527437 0)
(0.14368 0.190376 0)
(-0.00931333 -0.457387 0)
(9.99541 0.0437823 0)
(9.97475 0.076469 0)
(9.92984 0.105204 0)
(9.86128 0.13492 0)
(9.77203 0.166316 0)
(9.66323 0.199372 0)
(9.53456 0.234424 0)
(9.38543 0.271969 0)
(9.21521 0.312478 0)
(9.02316 0.356393 0)
(8.80834 0.40415 0)
(8.56963 0.45618 0)
(8.30574 0.512889 0)
(8.01527 0.574626 0)
(7.69673 0.641632 0)
(7.3486 0.713965 0)
(6.96941 0.791396 0)
(6.55788 0.873281 0)
(6.11312 0.958381 0)
(5.63487 1.04467 0)
(5.12389 1.1291 0)
(4.58242 1.20738 0)
(4.01479 1.27372 0)
(3.42845 1.32051 0)
(2.83466 1.33755 0)
(2.25396 1.30977 0)
(1.69308 1.19758 0)
(1.18552 0.947355 0)
(0.681385 0.544251 0)
(0.340283 -0.185954 0)
(9.99385 0.0503 0)
(9.971 0.0948709 0)
(9.92592 0.136151 0)
(9.85862 0.17774 0)
(9.77118 0.220937 0)
(9.66467 0.266144 0)
(9.53902 0.313879 0)
(9.39383 0.364794 0)
(9.22867 0.419539 0)
(9.04301 0.478736 0)
(8.83618 0.542997 0)
(8.60736 0.612932 0)
(8.35564 0.689125 0)
(8.07997 0.772101 0)
(7.77925 0.862265 0)
(7.45229 0.959811 0)
(7.09791 1.06459 0)
(6.71496 1.17596 0)
(6.30248 1.29249 0)
(5.8598 1.41177 0)
(5.38686 1.53 0)
(4.88454 1.64162 0)
(4.35518 1.73887 0)
(3.8032 1.81117 0)
(3.23522 1.84403 0)
(2.66201 1.81724 0)
(2.08859 1.69624 0)
(1.52535 1.44383 0)
(0.940202 1.0472 0)
(0.499483 0.467842 0)
(9.99313 0.0582417 0)
(9.96913 0.113097 0)
(9.92396 0.165416 0)
(9.85782 0.21788 0)
(9.77221 0.272135 0)
(9.66799 0.328945 0)
(9.54517 0.388965 0)
(9.40346 0.452934 0)
(9.24248 0.521603 0)
(9.06183 0.595701 0)
(8.86098 0.675948 0)
(8.6393 0.763055 0)
(8.3961 0.857714 0)
(8.13062 0.960556 0)
(7.84204 1.07209 0)
(7.5295 1.19262 0)
(7.19214 1.32209 0)
(6.82903 1.45991 0)
(6.43928 1.60465 0)
(6.02207 1.75377 0)
(5.57675 1.90313 0)
(5.10301 2.04651 0)
(4.60119 2.17504 0)
(4.07254 2.27653 0)
(3.51913 2.33462 0)
(2.94467 2.32818 0)
(2.3501 2.2282 0)
(1.73804 2.00459 0)
(1.07266 1.64396 0)
(0.526655 1.1071 0)
(9.99284 0.0667952 0)
(9.96841 0.131314 0)
(9.92358 0.19416 0)
(9.85887 0.257379 0)
(9.77547 0.322633 0)
(9.67402 0.3909 0)
(9.55454 0.462956 0)
(9.4168 0.539621 0)
(9.26049 0.621737 0)
(9.08525 0.710135 0)
(8.89064 0.805631 0)
(8.67612 0.909033 0)
(8.44112 1.02112 0)
(8.185 1.14262 0)
(7.90711 1.27411 0)
(7.60675 1.41601 0)
(7.28319 1.56833 0)
(6.93561 1.7306 0)
(6.56313 1.9015 0)
(6.16473 2.07857 0)
(5.73921 2.25769 0)
(5.28527 2.4326 0)
(4.80148 2.59417 0)
(4.2864 2.72984 0)
(3.73856 2.82301 0)
(3.15684 2.85296 0)
(2.53855 2.79406 0)
(1.88427 2.61949 0)
(1.15509 2.31596 0)
(0.540318 1.8355 0)
(9.99278 0.0755611 0)
(9.96844 0.149404 0)
(9.92438 0.222269 0)
(9.8614 0.29584 0)
(9.78056 0.371701 0)
(9.68234 0.450981 0)
(9.56676 0.534593 0)
(9.43362 0.62345 0)
(9.28267 0.718484 0)
(9.11359 0.820613 0)
(8.92599 0.93074 0)
(8.71939 1.04975 0)
(8.49327 1.17851 0)
(8.24705 1.3178 0)
(7.98011 1.46831 0)
(7.69179 1.6305 0)
(7.38135 1.80454 0)
(7.04793 1.99009 0)
(6.69046 2.18603 0)
(6.30761 2.39019 0)
(5.89764 2.59882 0)
(5.45825 2.80605 0)
(4.98653 3.00326 0)
(4.47889 3.17839 0)
(3.93106 3.31545 0)
(3.3386 3.39442 0)
(2.69608 3.39125 0)
(2.00464 3.27981 0)
(1.22264 3.04438 0)
(0.553651 2.62158 0)
(9.99288 0.0843053 0)
(9.96898 0.167177 0)
(9.92606 0.249581 0)
(9.86513 0.333049 0)
(9.78721 0.419098 0)
(9.69267 0.508955 0)
(9.58151 0.603654 0)
(9.45358 0.704199 0)
(9.30868 0.8116 0)
(9.14653 0.926856 0)
(8.96678 1.05095 0)
(8.76899 1.18485 0)
(8.55268 1.32949 0)
(8.3173 1.48574 0)
(8.06221 1.65438 0)
(7.78672 1.836 0)
(7.48998 2.0309 0)
(7.17097 2.23896 0)
(6.82837 2.45939 0)
(6.4604 2.69043 0)
(6.0647 2.92897 0)
(5.63805 3.16996 0)
(5.17615 3.40577 0)
(4.67359 3.62548 0)
(4.12376 3.81421 0)
(3.51955 3.9527 0)
(2.85305 4.01728 0)
(2.12626 3.98015 0)
(1.29424 3.8201 0)
(0.572466 3.45464 0)
(9.99307 0.092878 0)
(9.96989 0.184463 0)
(9.92844 0.275949 0)
(9.86988 0.368842 0)
(9.79522 0.46462 0)
(9.70476 0.564577 0)
(9.59852 0.669845 0)
(9.47637 0.781514 0)
(9.33816 0.900667 0)
(9.18366 1.02838 0)
(9.01256 1.16571 0)
(8.82448 1.31371 0)
(8.61896 1.4734 0)
(8.39546 1.64574 0)
(8.15334 1.83163 0)
(7.89185 2.03181 0)
(7.61002 2.24678 0)
(7.30663 2.47672 0)
(6.98005 2.72125 0)
(6.62809 2.97922 0)
(6.2477 3.24835 0)
(5.83477 3.52473 0)
(5.38374 3.80217 0)
(4.88745 4.07137 0)
(4.33703 4.31903 0)
(3.72264 4.5269 0)
(3.03321 4.67101 0)
(2.27035 4.72026 0)
(1.38439 4.64514 0)
(0.601896 4.34027 0)
(9.99334 0.101176 0)
(9.97107 0.201119 0)
(9.93137 0.301233 0)
(9.87548 0.403057 0)
(9.80439 0.508066 0)
(9.71841 0.617599 0)
(9.61753 0.732871 0)
(9.50168 0.855048 0)
(9.37076 0.985284 0)
(9.22458 1.12472 0)
(9.06289 1.2745 0)
(8.88535 1.43575 0)
(8.69155 1.60957 0)
(8.48099 1.79705 0)
(8.25303 1.99922 0)
(8.00687 2.21699 0)
(7.74146 2.45115 0)
(7.45543 2.70221 0)
(7.14688 2.97033 0)
(6.81324 3.25512 0)
(6.45091 3.55533 0)
(6.05496 3.86847 0)
(5.61868 4.19019 0)
(5.13319 4.51338 0)
(4.58719 4.827 0)
(3.96748 5.11447 0)
(3.25827 5.35181 0)
(2.45796 5.50388 0)
(1.50907 5.53032 0)
(0.648931 5.29669 0)
(9.99366 0.109122 0)
(9.97246 0.217029 0)
(9.93475 0.325301 0)
(9.88179 0.435546 0)
(9.81458 0.549251 0)
(9.73342 0.667799 0)
(9.63831 0.792469 0)
(9.52924 0.924495 0)
(9.40613 1.06509 0)
(9.26888 1.21548 0)
(9.11727 1.37685 0)
(8.95106 1.55041 0)
(8.76987 1.73737 0)
(8.57326 1.93893 0)
(8.36062 2.15626 0)
(8.13117 2.39051 0)
(7.88385 2.64274 0)
(7.61719 2.9139 0)
(7.32918 3.20475 0)
(7.01699 3.51576 0)
(6.67668 3.84691 0)
(6.30273 4.1974 0)
(5.88751 4.56512 0)
(5.42059 4.94586 0)
(4.88808 5.33189 0)
(4.27261 5.70978 0)
(3.55135 6.05726 0)
(2.7148 6.33635 0)
(1.69085 6.49404 0)
(0.725328 6.35656 0)
(9.99401 0.11666 0)
(9.97403 0.232095 0)
(9.9385 0.348037 0)
(9.88871 0.466171 0)
(9.82565 0.588012 0)
(9.74961 0.714979 0)
(9.66064 0.848405 0)
(9.55875 0.989581 0)
(9.44394 1.13978 0)
(9.31614 1.30027 0)
(9.17524 1.47232 0)
(9.02104 1.6572 0)
(8.85326 1.85621 0)
(8.67153 2.07067 0)
(8.47533 2.30191 0)
(8.26395 2.5513 0)
(8.03637 2.82021 0)
(7.79121 3.11004 0)
(7.52646 3.42222 0)
(7.23932 3.75812 0)
(6.92577 4.11908 0)
(6.58013 4.5062 0)
(6.1943 4.92004 0)
(5.75683 5.36003 0)
(5.25158 5.82319 0)
(4.65658 6.30185 0)
(3.9397 6.77943 0)
(3.07675 7.2204 0)
(1.96714 7.56187 0)
(0.853902 7.57669 0)
(9.99441 0.123743 0)
(9.97573 0.246237 0)
(9.94256 0.369339 0)
(9.89614 0.494812 0)
(9.83745 0.624203 0)
(9.76681 0.758965 0)
(9.68428 0.900471 0)
(9.58994 1.05006 0)
(9.48383 1.20906 0)
(9.36596 1.37877 0)
(9.23628 1.56052 0)
(9.0947 1.75565 0)
(8.94104 1.96554 0)
(8.77502 2.19161 0)
(8.59626 2.43534 0)
(8.40418 2.69831 0)
(8.19794 2.9822 0)
(7.97632 3.28885 0)
(7.73757 3.6203 0)
(7.47916 3.97887 0)
(7.19742 4.36724 0)
(6.88707 4.78848 0)
(6.54037 5.24609 0)
(6.14592 5.74381 0)
(5.68667 6.28502 0)
(5.13731 6.87121 0)
(4.45603 7.49854 0)
(3.5971 8.14694 0)
(2.4066 8.76275 0)
(1.08449 9.06427 0)
(9.99482 0.130336 0)
(9.97754 0.259388 0)
(9.94686 0.389121 0)
(9.90398 0.521365 0)
(9.84987 0.657703 0)
(9.78485 0.799614 0)
(9.70903 0.948506 0)
(9.62252 1.10576 0)
(9.52545 1.27272 0)
(9.41789 1.45074 0)
(9.29988 1.64118 0)
(9.17142 1.84544 0)
(9.03245 2.06496 0)
(8.88285 2.30123 0)
(8.72239 2.55589 0)
(8.55068 2.83068 0)
(8.36715 3.12754 0)
(8.17091 3.44869 0)
(7.96063 3.79672 0)
(7.73437 4.17476 0)
(7.48927 4.5867 0)
(7.22111 5.03743 0)
(6.92362 5.53328 0)
(6.58723 6.08245 0)
(6.19683 6.69563 0)
(5.72821 7.38662 0)
(5.13579 8.17298 0)
(4.35463 9.07341 0)
(3.14671 10.1043 0)
(1.53901 11.0536 0)
(9.99526 0.136411 0)
(9.97943 0.271498 0)
(9.95135 0.407309 0)
(9.91216 0.545733 0)
(9.86278 0.688383 0)
(9.80356 0.836762 0)
(9.73466 0.992302 0)
(9.65624 1.1564 0)
(9.56847 1.33045 0)
(9.47151 1.5158 0)
(9.36551 1.71386 0)
(9.25056 1.92604 0)
(9.12675 2.15384 0)
(8.99411 2.39882 0)
(8.8526 2.66269 0)
(8.70211 2.94732 0)
(8.54238 3.25484 0)
(8.37297 3.58776 0)
(8.19315 3.94905 0)
(8.00182 4.34245 0)
(7.79733 4.77271 0)
(7.57722 5.2461 0)
(7.33783 5.77109 0)
(7.07356 6.35951 0)
(6.7754 7.02842 0)
(6.42875 7.80362 0)
(6.00258 8.72747 0)
(5.45103 9.87767 0)
(4.49388 11.4503 0)
(2.56336 14.1459 0)
(0.333757 -0.52034 0)
(0.81003 -0.376228 0)
(1.19629 -0.286742 0)
(1.48812 -0.224555 0)
(1.69554 -0.172423 0)
(1.82091 -0.117895 0)
(1.84534 -0.0562508 0)
(1.77849 0.00246815 0)
(1.63795 0.0504594 0)
(1.43462 0.0873582 0)
(1.17887 0.112399 0)
(0.885011 0.127704 0)
(0.560677 0.13397 0)
(0.217372 0.133422 0)
(-0.12672 0.128096 0)
(-0.468203 0.120218 0)
(-0.801967 0.110038 0)
(-1.11913 0.0975074 0)
(-1.41149 0.0828288 0)
(-1.67066 0.0662308 0)
(-1.88789 0.0478732 0)
(-2.05375 0.0276572 0)
(-2.15879 0.00500058 0)
(-2.19542 -0.0213787 0)
(-2.15766 -0.0566824 0)
(-2.00456 -0.101322 0)
(-1.70848 -0.158954 0)
(-1.24198 -0.239297 0)
(-0.619038 -0.338423 0)
(0.441523 -0.313616 0)
(0.119703 -0.813246 0)
(0.46816 -0.576488 0)
(0.655203 -0.415844 0)
(0.767027 -0.285593 0)
(0.766688 -0.15859 0)
(0.653854 -0.0281234 0)
(0.496568 0.0830909 0)
(0.288909 0.172086 0)
(0.0339137 0.242475 0)
(-0.250338 0.295508 0)
(-0.567101 0.335423 0)
(-0.906871 0.363019 0)
(-1.26448 0.378294 0)
(-1.63226 0.382374 0)
(-2.00363 0.37675 0)
(-2.37111 0.363588 0)
(-2.72624 0.343355 0)
(-3.06069 0.316014 0)
(-3.36624 0.281819 0)
(-3.63451 0.241133 0)
(-3.85686 0.194357 0)
(-4.02446 0.141716 0)
(-4.12874 0.0827669 0)
(-4.16297 0.0158978 0)
(-4.12202 -0.0610765 0)
(-3.99642 -0.149347 0)
(-3.77847 -0.249777 0)
(-3.46749 -0.365823 0)
(-3.10408 -0.474655 0)
(-2.81746 -0.487423 0)
(-0.026453 -0.965048 0)
(0.0962733 -0.682513 0)
(0.0351845 -0.430694 0)
(-0.0548704 -0.212371 0)
(-0.219589 -0.0164564 0)
(-0.397193 0.142903 0)
(-0.61626 0.273539 0)
(-0.869673 0.383208 0)
(-1.15238 0.472569 0)
(-1.46054 0.541182 0)
(-1.79057 0.591634 0)
(-2.13681 0.624345 0)
(-2.49445 0.639891 0)
(-2.85807 0.639363 0)
(-3.22198 0.624245 0)
(-3.57968 0.596108 0)
(-3.92411 0.555754 0)
(-4.24814 0.503683 0)
(-4.54459 0.440533 0)
(-4.80616 0.367116 0)
(-5.02541 0.28443 0)
(-5.19489 0.193554 0)
(-5.30756 0.0952961 0)
(-5.35692 -0.0104243 0)
(-5.34364 -0.124891 0)
(-5.26465 -0.248241 0)
(-5.11686 -0.37893 0)
(-4.90394 -0.514644 0)
(-4.65952 -0.635791 0)
(-4.49579 -0.699405 0)
(-0.151394 -0.884591 0)
(-0.24474 -0.581447 0)
(-0.465468 -0.293738 0)
(-0.680143 -0.041892 0)
(-0.89707 0.164887 0)
(-1.13739 0.339129 0)
(-1.40107 0.489166 0)
(-1.68448 0.615512 0)
(-1.98588 0.718104 0)
(-2.30353 0.797008 0)
(-2.63512 0.853732 0)
(-2.97742 0.889096 0)
(-3.32701 0.903966 0)
(-3.67998 0.899446 0)
(-4.03182 0.876867 0)
(-4.37729 0.837516 0)
(-4.71056 0.782299 0)
(-5.0255 0.711916 0)
(-5.3157 0.627094 0)
(-5.57454 0.528688 0)
(-5.7952 0.417758 0)
(-5.97094 0.29556 0)
(-6.09571 0.163432 0)
(-6.16558 0.0221891 0)
(-6.1773 -0.128983 0)
(-6.13449 -0.28523 0)
(-6.03621 -0.442777 0)
(-5.88586 -0.595779 0)
(-5.71152 -0.730768 0)
(-5.60262 -0.824323 0)
(-0.24913 -0.647297 0)
(-0.47995 -0.338065 0)
(-0.797755 -0.0477287 0)
(-1.0725 0.190461 0)
(-1.35048 0.395035 0)
(-1.63673 0.575147 0)
(-1.93122 0.7316 0)
(-2.23424 0.863615 0)
(-2.54612 0.97079 0)
(-2.86686 1.05314 0)
(-3.19579 1.11132 0)
(-3.53145 1.14593 0)
(-3.87184 1.15766 0)
(-4.21425 1.14734 0)
(-4.55525 1.11594 0)
(-4.89062 1.06441 0)
(-5.21547 0.993551 0)
(-5.5244 0.90412 0)
(-5.81164 0.796975 0)
(-6.07107 0.673222 0)
(-6.29638 0.534305 0)
(-6.48132 0.382046 0)
(-6.62039 0.218489 0)
(-6.70972 0.0457593 0)
(-6.7461 -0.132773 0)
(-6.73555 -0.314335 0)
(-6.67706 -0.49246 0)
(-6.57446 -0.659127 0)
(-6.45219 -0.804741 0)
(-6.37869 -0.910141 0)
(-0.305222 -0.285304 0)
(-0.611676 0.0104141 0)
(-0.976215 0.250805 0)
(-1.30636 0.468049 0)
(-1.62836 0.664063 0)
(-1.94488 0.839006 0)
(-2.2589 0.99183 0)
(-2.57289 1.12143 0)
(-2.88891 1.22701 0)
(-3.20847 1.30811 0)
(-3.53232 1.36467 0)
(-3.86037 1.39679 0)
(-4.19177 1.4047 0)
(-4.52483 1.38881 0)
(-4.857 1.34966 0)
(-5.1849 1.28783 0)
(-5.50437 1.20391 0)
(-5.81062 1.09853 0)
(-6.09834 0.972514 0)
(-6.36175 0.827009 0)
(-6.5948 0.663592 0)
(-6.79146 0.484369 0)
(-6.94649 0.292019 0)
(-7.05607 0.0900003 0)
(-7.11736 -0.11666 0)
(-7.13557 -0.322548 0)
(-7.11114 -0.520378 0)
(-7.04833 -0.701132 0)
(-6.96826 -0.856699 0)
(-6.921 -0.967264 0)
(-0.313132 0.148033 0)
(-0.655393 0.383671 0)
(-1.05947 0.588037 0)
(-1.42238 0.78101 0)
(-1.7686 0.958583 0)
(-2.10069 1.11929 0)
(-2.42312 1.26129 0)
(-2.73974 1.38293 0)
(-3.05393 1.48277 0)
(-3.36836 1.55966 0)
(-3.68486 1.61276 0)
(-4.00438 1.64147 0)
(-4.32695 1.64541 0)
(-4.65166 1.62438 0)
(-4.9767 1.57837 0)
(-5.29929 1.50751 0)
(-5.61587 1.41202 0)
(-5.92208 1.29233 0)
(-6.21295 1.14913 0)
(-6.48292 0.983566 0)
(-6.72611 0.79737 0)
(-6.93662 0.593044 0)
(-7.1093 0.374052 0)
(-7.24026 0.145224 0)
(-7.32677 -0.0869769 0)
(-7.37174 -0.315267 0)
(-7.37791 -0.531473 0)
(-7.34999 -0.725807 0)
(-7.30575 -0.889952 0)
(-7.27947 -1.00284 0)
(-0.302039 0.572579 0)
(-0.657011 0.77971 0)
(-1.07588 0.948466 0)
(-1.44848 1.1112 0)
(-1.80046 1.26385 0)
(-2.13361 1.40474 0)
(-2.4532 1.53155 0)
(-2.76392 1.64197 0)
(-3.07003 1.73381 0)
(-3.37499 1.80508 0)
(-3.68142 1.85408 0)
(-3.99095 1.8794 0)
(-4.30426 1.8799 0)
(-4.62102 1.85471 0)
(-4.93993 1.80321 0)
(-5.25874 1.72499 0)
(-5.57427 1.61987 0)
(-5.88255 1.48794 0)
(-6.17882 1.32973 0)
(-6.45774 1.14631 0)
(-6.71348 0.939506 0)
(-6.94016 0.712161 0)
(-7.13242 0.468396 0)
(-7.28604 0.214091 0)
(-7.39804 -0.0429319 0)
(-7.4683 -0.293053 0)
(-7.50268 -0.527217 0)
(-7.50624 -0.734986 0)
(-7.49337 -0.906927 0)
(-7.48473 -1.02125 0)
(-0.282611 0.999617 0)
(-0.631133 1.17844 0)
(-1.0427 1.31071 0)
(-1.40487 1.44069 0)
(-1.74563 1.56554 0)
(-2.06576 1.6842 0)
(-2.37118 1.79407 0)
(-2.66716 1.89222 0)
(-2.95848 1.97562 0)
(-3.24912 2.04136 0)
(-3.54213 2.0868 0)
(-3.83958 2.10965 0)
(-4.14253 2.10796 0)
(-4.45105 2.08014 0)
(-4.7642 2.02491 0)
(-5.0801 1.94129 0)
(-5.39592 1.82863 0)
(-5.70793 1.68664 0)
(-6.01158 1.51559 0)
(-6.30162 1.31641 0)
(-6.57222 1.09098 0)
(-6.81731 0.842409 0)
(-7.03112 0.57534 0)
(-7.20874 0.296488 0)
(-7.3465 0.0151093 0)
(-7.44171 -0.256794 0)
(-7.50264 -0.508767 0)
(-7.5353 -0.730022 0)
(-7.55065 -0.909472 0)
(-7.55749 -1.02513 0)
(-0.257442 1.40643 0)
(-0.585377 1.56003 0)
(-0.971959 1.6565 0)
(-1.30644 1.75331 0)
(-1.62032 1.85005 0)
(-1.91376 1.94662 0)
(-2.19368 2.04019 0)
(-2.46581 2.12709 0)
(-2.73526 2.20334 0)
(-3.00624 2.26504 0)
(-3.28194 2.30858 0)
(-3.56458 2.33077 0)
(-3.85541 2.32884 0)
(-4.15471 2.30046 0)
(-4.46181 2.24369 0)
(-4.77507 2.15697 0)
(-5.09193 2.03912 0)
(-5.40886 1.88945 0)
(-5.72147 1.70789 0)
(-6.0245 1.49518 0)
(-6.31195 1.25311 0)
(-6.57737 0.984962 0)
(-6.81431 0.695815 0)
(-7.01694 0.393192 0)
(-7.18069 0.0878309 0)
(-7.30349 -0.206579 0)
(-7.38997 -0.476805 0)
(-7.45018 -0.711886 0)
(-7.49165 -0.89893 0)
(-7.51261 -1.01613 0)
(-0.229159 1.77986 0)
(-0.526527 1.91031 0)
(-0.873837 1.97064 0)
(-1.16508 2.03441 0)
(-1.43701 2.10435 0)
(-1.69026 2.18113 0)
(-1.93332 2.26116 0)
(-2.17238 2.33976 0)
(-2.41264 2.4118 0)
(-2.65824 2.4723 0)
(-2.91225 2.51668 0)
(-3.1768 2.54085 0)
(-3.4531 2.54129 0)
(-3.7415 2.51496 0)
(-4.04149 2.45929 0)
(-4.35164 2.37214 0)
(-4.66959 2.2518 0)
(-4.99201 2.09711 0)
(-5.31459 1.9076 0)
(-5.63204 1.68369 0)
(-5.9381 1.427 0)
(-6.22583 1.14084 0)
(-6.4881 0.830717 0)
(-6.71811 0.504966 0)
(-6.91024 0.175596 0)
(-7.06204 -0.14204 0)
(-7.17362 -0.431721 0)
(-7.26045 -0.681253 0)
(-7.32681 -0.876249 0)
(-7.36122 -0.995345 0)
(-0.201785 2.11413 0)
(-0.463307 2.21945 0)
(-0.759004 2.23965 0)
(-0.99132 2.2698 0)
(-1.20579 2.31555 0)
(-1.40505 2.37688 0)
(-1.59987 2.44827 0)
(-1.79663 2.52338 0)
(-2.00035 2.59569 0)
(-2.21469 2.65907 0)
(-2.44231 2.70798 0)
(-2.68496 2.73755 0)
(-2.94366 2.74356 0)
(-3.21867 2.72239 0)
(-3.50958 2.67091 0)
(-3.81518 2.5864 0)
(-4.13333 2.46663 0)
(-4.46091 2.30991 0)
(-4.79375 2.11532 0)
(-5.12659 1.88285 0)
(-5.45292 1.61379 0)
(-5.76531 1.31141 0)
(-6.05589 0.981659 0)
(-6.31668 0.633573 0)
(-6.54041 0.279859 0)
(-6.7234 -0.0629522 0)
(-6.86002 -0.373758 0)
(-6.97315 -0.638483 0)
(-7.06412 -0.841986 0)
(-7.11194 -0.963375 0)
(-0.182296 2.41246 0)
(-0.409395 2.48101 0)
(-0.640922 2.44946 0)
(-0.79548 2.44409 0)
(-0.934875 2.47012 0)
(-1.06564 2.52299 0)
(-1.20092 2.59292 0)
(-1.34652 2.67125 0)
(-1.50662 2.74975 0)
(-1.68393 2.82115 0)
(-1.8803 2.8791 0)
(-2.09687 2.91809 0)
(-2.33423 2.93334 0)
(-2.59248 2.92085 0)
(-2.87128 2.87698 0)
(-3.16963 2.79857 0)
(-3.48573 2.68282 0)
(-3.81677 2.5275 0)
(-4.15892 2.33117 0)
(-4.50716 2.09333 0)
(-4.85494 1.81472 0)
(-5.19433 1.49843 0)
(-5.51657 1.15065 0)
(-5.81218 0.780807 0)
(-6.07136 0.401833 0)
(-6.28687 0.0320315 0)
(-6.4532 -0.302468 0)
(-6.59316 -0.583523 0)
(-6.70967 -0.796289 0)
(-6.7716 -0.9203 0)
(-0.184467 2.69497 0)
(-0.38948 2.6912 0)
(-0.539003 2.581 0)
(-0.587737 2.53814 0)
(-0.630207 2.55334 0)
(-0.677207 2.60874 0)
(-0.742375 2.68717 0)
(-0.828833 2.77727 0)
(-0.939018 2.86908 0)
(-1.074 2.95446 0)
(-1.23442 3.02654 0)
(-1.42058 3.07936 0)
(-1.63237 3.10778 0)
(-1.86962 3.1077 0)
(-2.13204 3.07511 0)
(-2.41896 3.00654 0)
(-2.72899 2.89864 0)
(-3.05976 2.74862 0)
(-3.40805 2.55454 0)
(-3.7696 2.31531 0)
(-4.13824 2.03076 0)
(-4.50564 1.70341 0)
(-4.86204 1.33938 0)
(-5.19611 0.948357 0)
(-5.49464 0.543738 0)
(-5.74681 0.14614 0)
(-5.95502 -0.21568 0)
(-6.12359 -0.515773 0)
(-6.26803 -0.738824 0)
(-6.34571 -0.865529 0)
(-0.256378 3.09523 0)
(-0.452834 2.86627 0)
(-0.483507 2.60504 0)
(-0.375609 2.5265 0)
(-0.293356 2.54971 0)
(-0.242439 2.62402 0)
(-0.229068 2.72396 0)
(-0.249964 2.8365 0)
(-0.305153 2.95019 0)
(-0.393404 3.05629 0)
(-0.513671 3.14778 0)
(-0.665208 3.21866 0)
(-0.846986 3.26348 0)
(-1.05838 3.27888 0)
(-1.29916 3.26096 0)
(-1.56897 3.20589 0)
(-1.86698 3.10964 0)
(-2.19126 2.96886 0)
(-2.53935 2.78126 0)
(-2.90855 2.54539 0)
(-3.29392 2.25956 0)
(-3.68742 1.92535 0)
(-4.07913 1.54855 0)
(-4.45691 1.13905 0)
(-4.80478 0.710354 0)
(-5.10761 0.283996 0)
(-5.365 -0.109643 0)
(-5.5658 -0.433656 0)
(-5.74241 -0.668192 0)
(-5.83892 -0.797179 0)
(9.99572 0.142044 0)
(9.98142 0.282729 0)
(9.95608 0.424171 0)
(9.92076 0.568305 0)
(9.87636 0.716767 0)
(9.82324 0.871076 0)
(9.7616 1.03268 0)
(9.69168 1.20299 0)
(9.6137 1.38339 0)
(9.52792 1.57528 0)
(9.43458 1.78004 0)
(9.3339 1.99912 0)
(9.2261 2.23402 0)
(9.11142 2.48633 0)
(8.99004 2.7578 0)
(8.86214 3.05038 0)
(8.72787 3.36629 0)
(8.5873 3.70816 0)
(8.44046 4.07919 0)
(8.28727 4.48337 0)
(8.1276 4.92587 0)
(7.96128 5.41354 0)
(7.78818 5.95577 0)
(7.60848 6.56582 0)
(7.42327 7.26321 0)
(7.23729 8.07819 0)
(7.06306 9.061 0)
(6.98674 10.299 0)
(7.38659 11.9266 0)
(7.51957 14.4864 0)
(9.9962 0.147246 0)
(9.98352 0.29309 0)
(9.96105 0.439693 0)
(9.92979 0.589023 0)
(9.89056 0.742734 0)
(9.84377 0.902354 0)
(9.78967 1.06933 0)
(9.72852 1.24508 0)
(9.66066 1.431 0)
(9.5864 1.62846 0)
(9.5061 1.83885 0)
(9.42012 2.06359 0)
(9.32883 2.30418 0)
(9.23266 2.56221 0)
(9.13205 2.8394 0)
(9.0275 3.13769 0)
(8.91956 3.45929 0)
(8.80888 3.80679 0)
(8.69624 4.18334 0)
(8.58268 4.59285 0)
(8.46961 5.04029 0)
(8.35915 5.53211 0)
(8.25469 6.0769 0)
(8.162 6.68627 0)
(8.0915 7.37607 0)
(8.06393 8.16783 0)
(8.11577 9.08907 0)
(8.2997 10.1697 0)
(8.87323 11.3532 0)
(9.28122 12.3657 0)
(9.99671 0.151927 0)
(9.9857 0.302412 0)
(9.96623 0.453646 0)
(9.93917 0.607617 0)
(9.90531 0.765985 0)
(9.86506 0.930275 0)
(9.81871 1.10193 0)
(9.7666 1.28235 0)
(9.70912 1.47292 0)
(9.64667 1.67497 0)
(9.57971 1.88988 0)
(9.50873 2.11904 0)
(9.43428 2.36388 0)
(9.35696 2.62594 0)
(9.27747 2.90687 0)
(9.19662 3.20852 0)
(9.11538 3.53295 0)
(9.03492 3.88258 0)
(8.95674 4.26027 0)
(8.88282 4.66945 0)
(8.81587 5.11435 0)
(8.75978 5.60018 0)
(8.72031 6.13333 0)
(8.70624 6.72149 0)
(8.73097 7.37321 0)
(8.81506 8.09609 0)
(8.98726 8.89096 0)
(9.25465 9.74606 0)
(9.74275 10.6095 0)
(10.3206 11.2761 0)
(9.99722 0.156033 0)
(9.98795 0.310584 0)
(9.97155 0.465856 0)
(9.94882 0.623845 0)
(9.92047 0.786204 0)
(9.88692 0.954447 0)
(9.84851 1.13 0)
(9.80563 1.31424 0)
(9.75872 1.5085 0)
(9.70828 1.7141 0)
(9.65486 1.93234 0)
(9.59906 2.16455 0)
(9.54159 2.41209 0)
(9.48323 2.6764 0)
(9.42492 2.95901 0)
(9.36775 3.26156 0)
(9.31303 3.58591 0)
(9.26238 3.93413 0)
(9.21787 4.30859 0)
(9.18216 4.71201 0)
(9.15881 5.14751 0)
(9.15261 5.61861 0)
(9.1702 6.12907 0)
(9.22061 6.68244 0)
(9.31593 7.28111 0)
(9.47149 7.92437 0)
(9.70808 8.60494 0)
(10.0316 9.30831 0)
(10.5068 10.0238 0)
(11.1826 10.6399 0)
(9.99776 0.159515 0)
(9.99025 0.317511 0)
(9.977 0.476184 0)
(9.95867 0.637521 0)
(9.93592 0.803161 0)
(9.90919 0.974595 0)
(9.87883 1.15321 0)
(9.84529 1.34036 0)
(9.80907 1.53732 0)
(9.77073 1.74535 0)
(9.7309 1.96568 0)
(9.69031 2.19955 0)
(9.64978 2.44821 0)
(9.61026 2.71295 0)
(9.57287 2.99512 0)
(9.53893 3.29613 0)
(9.51002 3.61753 0)
(9.4881 3.96094 0)
(9.47557 4.32815 0)
(9.47548 4.72102 0)
(9.49173 5.14148 0)
(9.52932 5.59139 0)
(9.59467 6.0722 0)
(9.69589 6.58447 0)
(9.843 7.12711 0)
(10.0477 7.69634 0)
(10.3257 8.28437 0)
(10.6862 8.87724 0)
(11.1519 9.46441 0)
(11.7937 9.97253 0)
(9.99829 0.162327 0)
(9.99258 0.323101 0)
(9.98251 0.484494 0)
(9.96864 0.648469 0)
(9.95155 0.816638 0)
(9.93169 0.990459 0)
(9.90943 1.17128 0)
(9.88527 1.36039 0)
(9.85973 1.55901 0)
(9.83346 1.76833 0)
(9.80716 1.98948 0)
(9.78163 2.22359 0)
(9.75779 2.47177 0)
(9.73673 2.73514 0)
(9.7197 3.01483 0)
(9.70817 3.31197 0)
(9.70391 3.62774 0)
(9.70903 3.9633 0)
(9.7261 4.31977 0)
(9.75827 4.69822 0)
(9.80938 5.09947 0)
(9.88416 5.52397 0)
(9.98831 5.97148 0)
(10.1286 6.44065 0)
(10.313 6.92848 0)
(10.5501 7.42961 0)
(10.85 7.93555 0)
(11.2191 8.43181 0)
(11.6582 8.90343 0)
(12.2331 9.30979 0)
(9.99883 0.164428 0)
(9.99492 0.327272 0)
(9.98804 0.490664 0)
(9.97865 0.656528 0)
(9.96723 0.826439 0)
(9.95423 1.00181 0)
(9.94005 1.18393 0)
(9.92521 1.37403 0)
(9.91028 1.57326 0)
(9.89593 1.78271 0)
(9.88292 2.0034 0)
(9.87213 2.23634 0)
(9.86455 2.48248 0)
(9.86133 2.74274 0)
(9.86381 3.01802 0)
(9.87355 3.30914 0)
(9.89237 3.6169 0)
(9.92243 3.94199 0)
(9.96628 4.28493 0)
(10.0269 4.64605 0)
(10.1079 5.02527 0)
(10.2134 5.42198 0)
(10.3481 5.83477 0)
(10.5174 6.2611 0)
(10.7269 6.69691 0)
(10.9824 7.13613 0)
(11.2892 7.57028 0)
(11.6504 7.98706 0)
(12.0604 8.37356 0)
(12.577 8.71002 0)
(9.99937 0.165781 0)
(9.99726 0.329951 0)
(9.99356 0.494586 0)
(9.98861 0.661559 0)
(9.98283 0.832393 0)
(9.97662 1.00845 0)
(9.97043 1.19095 0)
(9.96477 1.38105 0)
(9.96024 1.57981 0)
(9.95755 1.78823 0)
(9.95749 2.00721 0)
(9.96096 2.2376 0)
(9.969 2.48021 0)
(9.98279 2.73573 0)
(10.0037 3.00481 0)
(10.0333 3.288 0)
(10.0733 3.58572 0)
(10.1259 3.89822 0)
(10.1935 4.22551 0)
(10.2787 4.5673 0)
(10.3846 4.92284 0)
(10.5147 5.29079 0)
(10.6727 5.66902 0)
(10.8624 6.05438 0)
(11.0877 6.44247 0)
(11.3517 6.82742 0)
(11.657 7.20183 0)
(12.0046 7.55644 0)
(12.3873 7.88149 0)
(12.8546 8.16647 0)
(9.9999 0.166354 0)
(9.99956 0.331077 0)
(9.99901 0.49617 0)
(9.99845 0.663444 0)
(9.99821 0.83436 0)
(9.99868 1.01021 0)
(10.0003 1.19216 0)
(10.0036 1.38126 0)
(10.0092 1.57849 0)
(10.0178 1.78474 0)
(10.0302 2.00078 0)
(10.0473 2.22732 0)
(10.0701 2.46498 0)
(10.0999 2.71427 0)
(10.1379 2.97559 0)
(10.1857 3.2492 0)
(10.245 3.53521 0)
(10.3176 3.83349 0)
(10.4057 4.14365 0)
(10.5117 4.46492 0)
(10.638 4.79609 0)
(10.7873 5.13539 0)
(10.9624 5.48034 0)
(11.1659 5.82763 0)
(11.4 6.17305 0)
(11.6663 6.51141 0)
(11.9656 6.83663 0)
(12.2975 7.14183 0)
(12.6547 7.41976 0)
(13.0797 7.66424 0)
(10.0004 0.166123 0)
(10.0018 0.330598 0)
(10.0043 0.495344 0)
(10.0081 0.662091 0)
(10.0133 0.832233 0)
(10.0202 1.00699 0)
(10.0294 1.18744 0)
(10.0414 1.37456 0)
(10.0567 1.56922 0)
(10.0761 1.77218 0)
(10.1003 1.98412 0)
(10.1303 2.20557 0)
(10.167 2.437 0)
(10.2116 2.67872 0)
(10.2653 2.93091 0)
(10.3296 3.1936 0)
(10.4059 3.4666 0)
(10.496 3.74951 0)
(10.6016 4.0416 0)
(10.7247 4.34182 0)
(10.8672 4.64868 0)
(11.0311 4.96019 0)
(11.2183 5.27381 0)
(11.4304 5.58637 0)
(11.6685 5.89408 0)
(11.9331 6.19256 0)
(12.2239 6.47695 0)
(12.5396 6.74213 0)
(12.8736 6.98289 0)
(13.2632 7.19556 0)
(10.0009 0.165069 0)
(10.004 0.328479 0)
(10.0095 0.492053 0)
(10.0174 0.657435 0)
(10.0278 0.825939 0)
(10.0411 0.998708 0)
(10.0576 1.17673 0)
(10.0778 1.3609 0)
(10.1024 1.55197 0)
(10.132 1.7506 0)
(10.1673 1.95733 0)
(10.2093 2.17257 0)
(10.2588 2.3966 0)
(10.317 2.62959 0)
(10.3849 2.87152 0)
(10.4638 3.12221 0)
(10.555 3.38127 0)
(10.66 3.64805 0)
(10.7802 3.92164 0)
(10.9172 4.20079 0)
(11.0723 4.4839 0)
(11.247 4.76896 0)
(11.4423 5.05351 0)
(11.6591 5.3347 0)
(11.8978 5.60923 0)
(12.1582 5.87354 0)
(12.4392 6.12382 0)
(12.7393 6.35632 0)
(13.0528 6.56738 0)
(13.4129 6.75483 0)
(10.0014 0.163178 0)
(10.0061 0.324695 0)
(10.0145 0.486265 0)
(10.0264 0.649438 0)
(10.0418 0.815443 0)
(10.061 0.985339 0)
(10.0845 1.16003 0)
(10.1126 1.3403 0)
(10.1459 1.52681 0)
(10.185 1.72012 0)
(10.2307 1.92063 0)
(10.2837 2.12863 0)
(10.345 2.34427 0)
(10.4153 2.56754 0)
(10.4958 2.7983 0)
(10.5875 3.03618 0)
(10.6916 3.28064 0)
(10.8091 3.5309 0)
(10.9413 3.78592 0)
(11.0892 4.04437 0)
(11.2538 4.30466 0)
(11.436 4.56483 0)
(11.6363 4.82267 0)
(11.8551 5.07566 0)
(12.0921 5.32106 0)
(12.3467 5.55599 0)
(12.6177 5.77757 0)
(12.9034 5.98304 0)
(13.1987 6.16989 0)
(13.5342 6.33682 0)
(10.0019 0.160446 0)
(10.0081 0.319236 0)
(10.0193 0.477969 0)
(10.035 0.638093 0)
(10.0551 0.800745 0)
(10.08 0.9669 0)
(10.11 1.13737 0)
(10.1454 1.31284 0)
(10.1868 1.49389 0)
(10.2348 1.68095 0)
(10.29 1.87432 0)
(10.3531 2.07418 0)
(10.4248 2.28055 0)
(10.5061 2.49332 0)
(10.5976 2.71218 0)
(10.7004 2.93669 0)
(10.8152 3.16619 0)
(10.9431 3.39981 0)
(11.0848 3.63647 0)
(11.2411 3.87486 0)
(11.4126 4.11343 0)
(11.5997 4.35041 0)
(11.8026 4.58381 0)
(12.0213 4.81152 0)
(12.2551 5.03127 0)
(12.5032 5.24081 0)
(12.7643 5.43795 0)
(13.0367 5.62071 0)
(13.3162 5.78735 0)
(13.631 5.93711 0)
(10.0023 0.156874 0)
(10.01 0.312106 0)
(10.0237 0.467173 0)
(10.043 0.623416 0)
(10.0677 0.78188 0)
(10.0979 0.943451 0)
(10.1339 1.10885 0)
(10.1761 1.27868 0)
(10.2251 1.4534 0)
(10.2811 1.63337 0)
(10.3449 1.81879 0)
(10.417 2.00973 0)
(10.4981 2.20611 0)
(10.5888 2.40772 0)
(10.6899 2.61418 0)
(10.802 2.82496 0)
(10.9258 3.03934 0)
(11.062 3.25644 0)
(11.2111 3.47517 0)
(11.3736 3.69428 0)
(11.5498 3.91234 0)
(11.7398 4.12778 0)
(11.9436 4.3389 0)
(12.1606 4.5439 0)
(12.3902 4.74097 0)
(12.6315 4.92837 0)
(12.8831 5.10445 0)
(13.1435 5.26778 0)
(13.4091 5.41718 0)
(13.7062 5.55221 0)
(10.0027 0.15247 0)
(10.0118 0.303321 0)
(10.0279 0.453905 0)
(10.0506 0.605453 0)
(10.0794 0.758917 0)
(10.1145 0.915093 0)
(10.1561 1.07461 0)
(10.2046 1.23799 0)
(10.2604 1.40562 0)
(10.3237 1.57774 0)
(10.3952 1.75448 0)
(10.4753 1.93583 0)
(10.5645 2.12163 0)
(10.6634 2.31161 0)
(10.7726 2.50531 0)
(10.8924 2.70218 0)
(11.0235 2.90147 0)
(11.1663 3.10231 0)
(11.321 3.30366 0)
(11.4879 3.50438 0)
(11.667 3.70317 0)
(11.8583 3.89867 0)
(12.0614 4.08943 0)
(12.2757 4.27398 0)
(12.5006 4.45088 0)
(12.735 4.61879 0)
(12.9776 4.77647 0)
(13.2271 4.9229 0)
(13.4803 5.05728 0)
(13.7622 5.17937 0)
(10.0031 0.147248 0)
(10.0135 0.292909 0)
(10.0318 0.438212 0)
(10.0575 0.584274 0)
(10.0902 0.731953 0)
(10.1298 0.881961 0)
(10.1765 1.03484 0)
(10.2307 1.19104 0)
(10.2926 1.35084 0)
(10.3625 1.51444 0)
(10.4407 1.68189 0)
(10.5278 1.85309 0)
(10.6241 2.02785 0)
(10.7299 2.20584 0)
(10.8458 2.38658 0)
(10.972 2.5695 0)
(11.1088 2.75385 0)
(11.2565 2.93882 0)
(11.4152 3.12345 0)
(11.5849 3.30668 0)
(11.7656 3.4874 0)
(11.9568 3.66443 0)
(12.1583 3.83656 0)
(12.3693 4.0026 0)
(12.5891 4.16143 0)
(12.8166 4.312 0)
(13.0507 4.4534 0)
(13.2902 4.5849 0)
(13.5326 4.70595 0)
(13.8011 4.81645 0)
(10.0035 0.141227 0)
(10.015 0.280911 0)
(10.0354 0.420155 0)
(10.0639 0.559967 0)
(10.1001 0.701114 0)
(10.1437 0.84422 0)
(10.1951 0.989757 0)
(10.2544 1.13808 0)
(10.3217 1.28943 0)
(10.3973 1.44391 0)
(10.4815 1.60152 0)
(10.5746 1.76214 0)
(10.6768 1.92551 0)
(10.7884 2.09127 0)
(10.9097 2.25896 0)
(11.0409 2.42799 0)
(11.1822 2.59767 0)
(11.3335 2.76723 0)
(11.4948 2.9358 0)
(11.6662 3.10246 0)
(11.8472 3.26624 0)
(12.0375 3.42614 0)
(12.2366 3.58117 0)
(12.4437 3.73038 0)
(12.6582 3.87288 0)
(12.879 4.00787 0)
(13.1052 4.13468 0)
(13.3356 4.25279 0)
(13.5681 4.36182 0)
(13.8248 4.46177 0)
(10.0038 0.134432 0)
(10.0164 0.267375 0)
(10.0386 0.399812 0)
(10.0697 0.532643 0)
(10.109 0.666544 0)
(10.1563 0.802063 0)
(10.2118 0.939596 0)
(10.2756 1.07943 0)
(10.3476 1.22175 0)