/*--------------------------------*- C++ -*----------------------------------*\
  =========                 |
  \\      /  F ield         | OpenFOAM: The Open Source CFD Toolbox
   \\    /   O peration     | Website:  https://openfoam.org
    \\  /    A nd           | Version:  7
     \\/     M anipulation  |
\*---------------------------------------------------------------------------*/
FoamFile
{
    version     2.0;
    format      ascii;
    class       surfaceVectorField;
    location    "1.2";
    object      Uf;
}
// * * * * * * * * * * * * * * * * * * * * * * * * * * * * * * * * * * * * * //

dimensions      [0 1 -1 0 0 0 0];

internalField   nonuniform List<vector> 
5457
(
(9.92041 0.0252825 0)
(9.97106 0.0389759 0)
(9.8226 0.0331307 0)
(9.92777 0.0490605 0)
(9.70676 0.0397555 0)
(9.85348 0.0595074 0)
(9.57065 0.0466008 0)
(9.75311 0.0716072 0)
(9.41419 0.0536889 0)
(9.63165 0.0843086 0)
(9.2375 0.0610596 0)
(9.49008 0.0975161 0)
(9.04028 0.0688575 0)
(9.32767 0.111473 0)
(8.8219 0.0772306 0)
(9.14358 0.12642 0)
(8.58148 0.0863084 0)
(8.93704 0.142552 0)
(8.31792 0.0962134 0)
(8.70711 0.160045 0)
(8.03 0.10707 0)
(8.45266 0.179073 0)
(7.71633 0.119002 0)
(8.17239 0.199806 0)
(7.37543 0.132133 0)
(7.86484 0.222399 0)
(7.0058 0.146576 0)
(7.52848 0.246978 0)
(6.60597 0.162422 0)
(7.16178 0.273622 0)
(6.17463 0.179725 0)
(6.76327 0.302324 0)
(5.7108 0.198477 0)
(6.33168 0.332957 0)
(5.21405 0.218577 0)
(5.86615 0.365215 0)
(4.68477 0.239788 0)
(5.36643 0.398551 0)
(4.12448 0.261698 0)
(4.83322 0.432101 0)
(3.53626 0.28366 0)
(4.26849 0.464612 0)
(2.92513 0.304769 0)
(3.67594 0.494392 0)
(2.29833 0.323919 0)
(3.06144 0.519324 0)
(1.66535 0.340647 0)
(2.43353 0.537139 0)
(1.03578 0.359514 0)
(1.80296 0.547164 0)
(0.408483 0.333239 0)
(1.20041 0.558383 0)
(-0.166649 0.0857044 0)
(0.559879 0.524328 0)
(-0.425708 -0.200872 0)
(0.0845686 0.241889 0)
(-0.39752 -0.346033 0)
(-0.153533 -0.0269564 0)
(-0.119382 -0.389346 0)
(9.99594 0.0522003 0)
(9.99686 0.0409659 0)
(9.95735 0.0717742 0)
(9.97769 0.0684121 0)
(9.89535 0.0893037 0)
(9.93179 0.0913581 0)
(9.81174 0.107719 0)
(9.86086 0.115597 0)
(9.7063 0.127079 0)
(9.76854 0.141125 0)
(9.57889 0.147434 0)
(9.65589 0.167831 0)
(9.4292 0.169082 0)
(9.52245 0.196086 0)
(9.25661 0.19235 0)
(9.3675 0.226334 0)
(9.06026 0.217522 0)
(9.19036 0.258966 0)
(8.8391 0.244865 0)
(8.99018 0.294345 0)
(8.59189 0.274635 0)
(8.76594 0.332827 0)
(8.31722 0.307076 0)
(8.51641 0.374764 0)
(8.01359 0.3424 0)
(8.24023 0.420483 0)
(7.67943 0.380763 0)
(7.93591 0.470262 0)
(7.31314 0.422223 0)
(7.60191 0.524285 0)
(6.91328 0.466687 0)
(7.23672 0.582585 0)
(6.47865 0.51384 0)
(6.83891 0.644956 0)
(6.00854 0.563055 0)
(6.40734 0.710845 0)
(5.503 0.613285 0)
(5.94138 0.779219 0)
(4.9632 0.662954 0)
(5.44113 0.848406 0)
(4.39182 0.709845 0)
(4.90787 0.915927 0)
(3.7936 0.751023 0)
(4.34447 0.978333 0)
(3.17594 0.782842 0)
(3.756 1.03108 0)
(2.54981 0.801188 0)
(3.15064 1.06846 0)
(1.93301 0.802145 0)
(2.54043 1.08323 0)
(1.3653 0.763299 0)
(1.95024 1.06372 0)
(0.890968 0.627249 0)
(1.37919 0.956764 0)
(0.403335 0.356893 0)
(0.908142 0.697201 0)
(0.04244 -0.137376 0)
(0.412532 0.318169 0)
(0.165485 -0.347779 0)
(9.98857 0.0603209 0)
(9.99463 0.0465648 0)
(9.95294 0.0910084 0)
(9.97287 0.0862837 0)
(9.89447 0.12024 0)
(9.92788 0.121391 0)
(9.81575 0.150806 0)
(9.85995 0.157014 0)
(9.71709 0.183041 0)
(9.77161 0.194286 0)
(9.59835 0.217107 0)
(9.66395 0.233362 0)
(9.45929 0.253421 0)
(9.53679 0.274691 0)
(9.29945 0.292465 0)
(9.38963 0.318866 0)
(9.11817 0.334698 0)
(9.22194 0.366451 0)
(8.91457 0.380557 0)
(9.03308 0.41798 0)
(8.68761 0.430476 0)
(8.82226 0.473984 0)
(8.43608 0.484873 0)
(8.58849 0.534986 0)
(8.15863 0.544127 0)
(8.33069 0.601489 0)
(7.85381 0.60853 0)
(8.04762 0.673937 0)
(7.5201 0.678231 0)
(7.73799 0.752658 0)
(7.15599 0.753143 0)
(7.40044 0.837784 0)
(6.76011 0.832828 0)
(7.03366 0.929135 0)
(6.33138 0.916339 0)
(6.63642 1.02606 0)
(5.86921 1.00204 0)
(6.2078 1.12723 0)
(5.37389 1.08739 0)
(5.74734 1.23041 0)
(4.84694 1.16871 0)
(5.25538 1.33214 0)
(4.29174 1.24095 0)
(4.73348 1.42748 0)
(3.71427 1.29739 0)
(4.18499 1.50954 0)
(3.12442 1.32913 0)
(3.61583 1.569 0)
(2.53815 1.32349 0)
(3.03494 1.59276 0)
(1.97881 1.253 0)
(2.45798 1.56161 0)
(1.45108 1.07097 0)
(1.89084 1.43787 0)
(0.933597 0.743394 0)
(1.35543 1.18039 0)
(0.462853 0.174785 0)
(0.810793 0.768344 0)
(0.419883 0.105557 0)
(9.98469 0.0728518 0)
(9.99349 0.0540622 0)
(9.94898 0.115758 0)
(9.97006 0.104192 0)
(9.89154 0.157194 0)
(9.92494 0.1509 0)
(9.81411 0.199596 0)
(9.85822 0.197754 0)
(9.71735 0.243811 0)
(9.7717 0.24642 0)
(9.60128 0.290297 0)
(9.66633 0.297423 0)
(9.46572 0.33964 0)
(9.54209 0.351314 0)
(9.31039 0.392493 0)
(9.39864 0.408787 0)
(9.13483 0.449491 0)
(9.23558 0.470541 0)
(8.93843 0.511251 0)
(9.05242 0.537246 0)
(8.72043 0.578382 0)
(8.84858 0.609568 0)
(8.47995 0.651483 0)
(8.62333 0.688167 0)
(8.21601 0.731109 0)
(8.37587 0.773681 0)
(7.92754 0.817722 0)
(8.1053 0.866691 0)
(7.61337 0.911621 0)
(7.81064 0.967655 0)
(7.27233 1.01283 0)
(7.49089 1.07682 0)
(6.90324 1.12094 0)
(7.14502 1.19408 0)
(6.50505 1.23492 0)
(6.772 1.31881 0)
(6.07696 1.35285 0)
(6.37088 1.44959 0)
(5.61861 1.47159 0)
(5.94094 1.58389 0)
(5.13046 1.58648 0)
(5.4818 1.71771 0)
(4.61421 1.69083 0)
(4.99378 1.84511 0)
(4.07339 1.77545 0)
(4.47819 1.95763 0)
(3.51402 1.82779 0)
(3.93787 2.04367 0)
(2.9448 1.83048 0)
(3.37718 2.08748 0)
(2.37548 1.75602 0)
(2.80334 2.06838 0)
(1.80769 1.56853 0)
(2.21935 1.95551 0)
(1.23612 1.24315 0)
(1.6317 1.71407 0)
(0.653989 0.75406 0)
(1.00643 1.32504 0)
(0.513069 0.746099 0)
(9.98291 0.0859971 0)
(9.99298 0.0624335 0)
(9.9468 0.139569 0)
(9.96877 0.122302 0)
(9.89031 0.191961 0)
(9.92377 0.179919 0)
(9.81433 0.245332 0)
(9.85834 0.237731 0)
(9.71953 0.300879 0)
(9.77384 0.297502 0)
(9.606 0.359313 0)
(9.671 0.360078 0)
(9.47361 0.421331 0)
(9.54986 0.426147 0)
(9.32211 0.487679 0)
(9.41013 0.496488 0)
(9.15116 0.559095 0)
(9.25149 0.571902 0)
(8.96025 0.636304 0)
(9.07354 0.653173 0)
(8.74882 0.720022 0)
(8.87581 0.741069 0)
(8.51619 0.81095 0)
(8.65771 0.836351 0)
(8.26162 0.909749 0)
(8.41861 0.939758 0)
(7.98434 1.01699 0)
(8.15781 1.05197 0)
(7.6835 1.13308 0)
(7.87457 1.17353 0)
(7.35824 1.25813 0)
(7.56813 1.30479 0)
(7.00766 1.39182 0)
(7.23766 1.44575 0)
(6.63086 1.53314 0)
(6.88232 1.59584 0)
(6.227 1.6801 0)
(6.50121 1.75369 0)
(5.79535 1.82934 0)
(6.0934 1.91678 0)
(5.33547 1.97567 0)
(5.65798 2.08095 0)
(4.84747 2.11154 0)
(5.19414 2.23989 0)
(4.33222 2.22639 0)
(4.70134 2.38454 0)
(3.79162 2.30592 0)
(4.17947 2.50241 0)
(3.22838 2.33136 0)
(3.62885 2.57701 0)
(2.64515 2.27759 0)
(3.05075 2.58753 0)
(2.04039 2.11506 0)
(2.44432 2.50685 0)
(1.40639 1.82212 0)
(1.81116 2.30605 0)
(0.730197 1.37232 0)
(1.11387 1.97169 0)
(0.533486 1.46128 0)
(9.98217 0.0994403 0)
(9.99281 0.0711639 0)
(9.94602 0.163113 0)
(9.96843 0.140434 0)
(9.89069 0.226147 0)
(9.92398 0.208342 0)
(9.81657 0.290396 0)
(9.86013 0.276729 0)
(9.72419 0.357174 0)
(9.77802 0.347282 0)
(9.61368 0.427358 0)
(9.67818 0.421064 0)
(9.48496 0.501746 0)
(9.56065 0.498908 0)
(9.33779 0.581169 0)
(9.42521 0.581682 0)
(9.17188 0.666464 0)
(9.27158 0.670274 0)
(8.9868 0.758453 0)
(9.09942 0.76556 0)
(8.78208 0.85795 0)
(8.90832 0.868399 0)
(8.55713 0.965747 0)
(8.69776 0.979637 0)
(8.31137 1.08259 0)
(8.46719 1.10009 0)
(8.04414 1.20915 0)
(8.21602 1.23052 0)
(7.75477 1.34591 0)
(7.94361 1.37155 0)
(7.44255 1.49308 0)
(7.64927 1.52363 0)
(7.10671 1.65044 0)
(7.33227 1.68683 0)
(6.7464 1.81707 0)
(6.99177 1.86074 0)
(6.36067 1.99109 0)
(6.6268 2.04415 0)
(5.94845 2.1692 0)
(6.23617 2.2347 0)
(5.5085 2.34619 0)
(5.81842 2.42845 0)
(5.0395 2.51435 0)
(5.37176 2.6193 0)
(4.54006 2.66282 0)
(4.894 2.79835 0)
(4.00875 2.77698 0)
(4.38264 2.95327 0)
(3.44406 2.83816 0)
(3.83481 3.06778 0)
(2.84412 2.82316 0)
(3.24772 3.12155 0)
(2.20463 2.70573 0)
(2.61731 3.08985 0)
(1.51887 2.46591 0)
(1.94446 2.94637 0)
(0.781278 2.07286 0)
(1.18886 2.67705 0)
(0.546984 2.2265 0)
(9.98203 0.112924 0)
(9.99283 0.0799628 0)
(9.94628 0.186272 0)
(9.96871 0.158367 0)
(9.89235 0.259494 0)
(9.92522 0.236043 0)
(9.82044 0.334224 0)
(9.86327 0.314566 0)
(9.73092 0.411815 0)
(9.78389 0.39552 0)
(9.62395 0.493287 0)
(9.68751 0.480098 0)
(9.49947 0.579553 0)
(9.57413 0.569269 0)
(9.3573 0.671535 0)
(9.4436 0.663989 0)
(9.19715 0.770158 0)
(9.29568 0.765227 0)
(9.01866 0.876334 0)
(9.13006 0.873944 0)
(8.82141 0.990958 0)
(8.94638 0.991082 0)
(8.60487 1.1149 0)
(8.74419 1.11757 0)
(8.36851 1.24899 0)
(8.52297 1.25429 0)
(8.11173 1.39395 0)
(8.28217 1.40209 0)
(7.8339 1.55037 0)
(8.02116 1.56169 0)
(7.5343 1.71856 0)
(7.73926 1.73361 0)
(7.21214 1.89842 0)
(7.43567 1.91809 0)
(6.86647 2.08923 0)
(7.10945 2.11488 0)
(6.49611 2.28933 0)
(6.75941 2.32303 0)
(6.09953 2.49575 0)
(6.38401 2.54055 0)
(5.67471 2.70367 0)
(5.98117 2.764 0)
(5.21907 2.90583 0)
(5.54815 2.9879 0)
(4.72933 3.09187 0)
(5.08134 3.20412 0)
(4.20153 3.24774 0)
(4.57624 3.40116 0)
(3.63106 3.35541 0)
(4.02741 3.56358 0)
(3.01295 3.39282 0)
(3.42908 3.67175 0)
(2.3416 3.33486 0)
(2.77457 3.70191 0)
(1.61245 3.16069 0)
(2.06545 3.62719 0)
(0.82585 2.83045 0)
(1.25844 3.42927 0)
(0.563058 3.03537 0)
(9.98226 0.126236 0)
(9.99298 0.0886505 0)
(9.94729 0.208871 0)
(9.96944 0.175905 0)
(9.89505 0.291814 0)
(9.92725 0.26288 0)
(9.82567 0.376588 0)
(9.86751 0.351071 0)
(9.73943 0.464564 0)
(9.79122 0.441989 0)
(9.63649 0.556871 0)
(9.69872 0.536907 0)
(9.51683 0.654528 0)
(9.59001 0.636907 0)
(9.38029 0.758542 0)
(9.46497 0.743033 0)
(9.22663 0.869917 0)
(9.32342 0.856331 0)
(9.05554 0.989644 0)
(9.1651 0.977839 0)
(8.86663 1.1187 0)
(8.98967 1.10858 0)
(8.65942 1.25803 0)
(8.79673 1.24956 0)
(8.4334 1.40855 0)
(8.58582 1.40175 0)
(8.18798 1.57107 0)
(8.35638 1.56608 0)
(7.92251 1.74628 0)
(8.10778 1.74337 0)
(7.6362 1.93461 0)
(7.83928 1.93428 0)
(7.32815 2.13617 0)
(7.55 2.13923 0)
(6.99717 2.35049 0)
(7.2388 2.35822 0)
(6.64173 2.57629 0)
(6.90421 2.59067 0)
(6.25978 2.81113 0)
(6.54425 2.83511 0)
(5.84851 3.05091 0)
(6.1562 3.08885 0)
(5.40417 3.28927 0)
(5.73641 3.34736 0)
(4.92185 3.51694 0)
(5.27995 3.60374 0)
(4.39545 3.72097 0)
(4.78052 3.84786 0)
(3.81785 3.88428 0)
(4.23039 4.06557 0)
(3.1816 3.98538 0)
(3.62109 4.2381 0)
(2.47992 3.99849 0)
(2.94313 4.3416 0)
(1.70943 3.89917 0)
(2.1983 4.34661 0)
(0.874348 3.63519 0)
(1.33931 4.22786 0)
(0.587181 3.89174 0)
(9.98273 0.139218 0)
(9.9932 0.0971065 0)
(9.94888 0.230753 0)
(9.97048 0.192886 0)
(9.8986 0.32295 0)
(9.9299 0.288707 0)
(9.83206 0.417303 0)
(9.87268 0.386079 0)
(9.74949 0.515196 0)
(9.7998 0.48648 0)
(9.65105 0.61784 0)
(9.71159 0.591236 0)
(9.53673 0.726347 0)
(9.60802 0.701522 0)
(9.40644 0.841803 0)
(9.48903 0.818464 0)
(9.25996 0.965286 0)
(9.35446 0.94318 0)
(9.09703 1.09787 0)
(9.20412 1.07678 0)
(8.91729 1.24059 0)
(9.03772 1.22036 0)
(8.72034 1.39451 0)
(8.85491 1.37501 0)
(8.50567 1.5606 0)
(8.65525 1.5418 0)
(8.2727 1.7398 0)
(8.43822 1.72174 0)
(8.02073 1.93292 0)
(8.20318 1.9158 0)
(7.7489 2.14058 0)
(7.94936 2.1248 0)
(7.45613 2.36312 0)
(7.67574 2.34939 0)
(7.14101 2.60044 0)
(7.38103 2.5899 0)
(6.80162 2.85177 0)
(7.06347 2.84623 0)
(6.43535 3.11539 0)
(6.72066 3.11759 0)
(6.03862 3.38819 0)
(6.3493 3.40221 0)
(5.60659 3.66511 0)
(5.94486 3.69687 0)
(5.13283 3.93837 0)
(5.50121 3.99627 0)
(4.60924 4.19668 0)
(5.01032 4.29217 0)
(4.02619 4.42421 0)
(4.46211 4.57231 0)
(3.37345 4.59982 0)
(3.84506 4.81913 0)
(2.64193 4.69593 0)
(3.14574 5.00851 0)
(1.8274 4.68225 0)
(2.36415 5.10715 0)
(0.936086 4.49088 0)
(1.44673 5.08023 0)
(0.625413 4.80857 0)
(9.98338 0.151745 0)
(9.9935 0.105244 0)
(9.9509 0.251774 0)
(9.97177 0.209179 0)
(9.90286 0.352753 0)
(9.93306 0.313387 0)
(9.83946 0.456189 0)
(9.87863 0.419434 0)
(9.76092 0.563487 0)
(9.80949 0.528801 0)
(9.66739 0.675924 0)
(9.72591 0.642853 0)
(9.55891 0.79469 0)
(9.62792 0.76284 0)
(9.43541 0.920944 0)
(9.51546 0.88996 0)
(9.29674 1.05584 0)
(9.38845 1.0254 0)
(9.14267 1.20051 0)
(9.24673 1.17033 0)
(8.97292 1.35609 0)
(9.09008 1.32594 0)
(8.78712 1.5237 0)
(8.9182 1.49337 0)
(8.58479 1.70443 0)
(8.73071 1.67379 0)
(8.36537 1.89934 0)
(8.52712 1.86835 0)
(8.12816 2.1094 0)
(8.30682 2.07814 0)
(7.87223 2.33547 0)
(8.06902 2.30418 0)
(7.59637 2.57818 0)
(7.81265 2.54742 0)
(7.29895 2.83787 0)
(7.53631 2.80856 0)
(6.97775 3.11443 0)
(7.23803 3.08809 0)
(6.62968 3.40702 0)
(6.91511 3.38602 0)
(6.25048 3.71377 0)
(6.56379 3.70173 0)
(5.83431 4.03125 0)
(6.17884 4.03354 0)
(5.37334 4.35371 0)
(5.75309 4.3782 0)
(4.85742 4.67206 0)
(5.27689 4.72997 0)
(4.27403 4.97245 0)
(4.73763 5.07933 0)
(3.60908 5.23456 0)
(4.12004 5.41102 0)
(2.84895 5.42875 0)
(3.40481 5.7015 0)
(1.98513 5.51726 0)
(2.58638 5.91372 0)
(1.02251 5.41211 0)
(1.59996 6.00079 0)
(0.687129 5.81005 0)
(9.98417 0.163721 0)
(9.99383 0.112998 0)
(9.95327 0.271812 0)
(9.97325 0.224675 0)
(9.90771 0.381082 0)
(9.93663 0.336793 0)
(9.84772 0.493078 0)
(9.88525 0.450994 0)
(9.77353 0.609234 0)
(9.82011 0.568778 0)
(9.6853 0.730879 0)
(9.74151 0.691548 0)
(9.58309 0.859271 0)
(9.64948 0.820611 0)
(9.46689 0.995635 0)
(9.54399 0.957231 0)
(9.33659 1.14118 0)
(9.42503 1.10265 0)
(9.19204 1.29713 0)
(9.29251 1.25811 0)
(9.03301 1.46466 0)
(9.14626 1.42485 0)
(8.85917 1.64501 0)
(8.98605 1.6041 0)
(8.67013 1.83935 0)
(8.81157 1.79712 0)
(8.46537 2.04889 0)
(8.62239 2.00517 0)
(8.24418 2.27478 0)
(8.41798 2.2295 0)
(8.00565 2.51813 0)
(8.19756 2.47137 0)
(7.74853 2.77994 0)
(7.96011 2.73199 0)
(7.47106 3.06106 0)
(7.7042 3.01256 0)
(7.17085 3.36211 0)
(7.42782 3.31415 0)
(6.8445 3.68331 0)
(7.12815 3.63771 0)
(6.48729 4.02425 0)
(6.80122 3.98387 0)
(6.09264 4.38346 0)
(6.44143 4.3528 0)
(5.65151 4.75777 0)
(6.0409 4.7437 0)
(5.15172 5.14118 0)
(5.58871 5.15409 0)
(4.57745 5.52309 0)
(5.06983 5.57844 0)
(3.90924 5.8856 0)
(4.46459 6.00582 0)
(3.12552 6.19847 0)
(3.74553 6.416 0)
(2.2075 6.41614 0)
(2.89577 6.77089 0)
(1.15115 6.42448 0)
(1.829 7.01098 0)
(0.789615 6.93754 0)
(9.98505 0.175067 0)
(9.99421 0.120318 0)
(9.95592 0.290759 0)
(9.97488 0.239285 0)
(9.91305 0.40781 0)
(9.94053 0.358816 0)
(9.85672 0.52782 0)
(9.89243 0.48063 0)
(9.78717 0.652254 0)
(9.83155 0.606257 0)
(9.70457 0.782489 0)
(9.75821 0.737134 0)
(9.60902 0.919836 0)
(9.67246 0.874616 0)
(9.50057 1.06558 0)
(9.57434 1.02002 0)
(9.37915 1.22098 0)
(9.46388 1.17464 0)
(9.24469 1.38732 0)
(9.34105 1.33976 0)
(9.09702 1.56586 0)
(9.20576 1.51669 0)
(8.9359 1.75789 0)
(9.05787 1.70673 0)
(8.76102 1.96472 0)
(8.89715 1.91122 0)
(8.57192 2.18767 0)
(8.72328 2.13152 0)
(8.36799 2.42809 0)
(8.5358 2.36906 0)
(8.14837 2.68736 0)
(8.33406 2.6253 0)
(7.91186 2.96686 0)
(8.11716 2.90177 0)
(7.65677 3.26799 0)
(7.88376 3.20011 0)
(7.38068 3.59218 0)
(7.63202 3.52204 0)
(7.0802 3.94076 0)
(7.35924 3.86944 0)
(6.75047 4.31495 0)
(7.0616 4.24432 0)
(6.38461 4.71559 0)
(6.7336 4.64877 0)
(5.97287 5.14266 0)
(6.36733 5.08485 0)
(5.5015 5.59438 0)
(5.95137 5.55409 0)
(4.95137 6.06538 0)
(5.46912 6.05656 0)
(4.29651 6.5435 0)
(4.89695 6.58873 0)
(3.50323 7.00255 0)
(4.19786 7.1392 0)
(2.5326 7.39317 0)
(3.33693 7.67718 0)
(1.35391 7.56937 0)
(2.18687 8.13817 0)
(0.969198 8.26361 0)
(9.98602 0.185722 0)
(9.99461 0.127164 0)
(9.9588 0.308523 0)
(9.97663 0.252938 0)
(9.91881 0.432825 0)
(9.94471 0.379362 0)
(9.86635 0.56028 0)
(9.90006 0.508229 0)
(9.80168 0.692389 0)
(9.84366 0.641103 0)
(9.72501 0.830563 0)
(9.77583 0.779451 0)
(9.63646 0.976161 0)
(9.69666 0.924664 0)
(9.53613 1.13051 0)
(9.60623 1.0781 0)
(9.42403 1.29493 0)
(9.50464 1.2411 0)
(9.30015 1.47073 0)
(9.39192 1.41499 0)
(9.16441 1.65925 0)
(9.26808 1.60112 0)
(9.01667 1.86185 0)
(9.13306 1.80084 0)
(8.8567 2.07992 0)
(8.98675 2.01558 0)
(8.68419 2.31493 0)
(8.82894 2.24679 0)
(8.49863 2.56839 0)
(8.65933 2.49604 0)
(8.29932 2.84195 0)
(8.47743 2.76499 0)
(8.08524 3.13735 0)
(8.28255 3.05545 0)
(7.8549 3.45655 0)
(8.07362 3.36946 0)
(7.60614 3.80173 0)
(7.8491 3.70936 0)
(7.33586 4.17538 0)
(7.60676 4.07788 0)
(7.03959 4.58038 0)
(7.34335 4.47833 0)
(6.71081 5.02002 0)
(7.05409 4.91475 0)
(6.33997 5.49793 0)
(6.73199 5.3921 0)
(5.91298 6.01765 0)
(6.36657 5.91643 0)
(5.40871 6.58162 0)
(5.94175 6.49482 0)
(4.79526 7.18863 0)
(5.43276 7.13479 0)
(4.02421 7.82662 0)
(4.79591 7.84214 0)
(3.02346 8.45852 0)
(3.97587 8.61161 0)
(1.69723 8.91531 0)
(2.77666 9.40646 0)
(1.31175 9.92594 0)
(9.98705 0.195633 0)
(9.99504 0.133503 0)
(9.96186 0.32503 0)
(9.97848 0.265573 0)
(9.9249 0.456033 0)
(9.9491 0.398351 0)
(9.87649 0.590348 0)
(9.90807 0.533696 0)
(9.81692 0.729506 0)
(9.85632 0.673203 0)
(9.74641 0.87495 0)
(9.7942 0.818364 0)
(9.66515 1.02807 0)
(9.72185 0.970598 0)
(9.57326 1.19023 0)
(9.63938 1.1313 0)
(9.47084 1.36279 0)
(9.54696 1.30182 0)
(9.35795 1.5471 0)
(9.4447 1.48354 0)
(9.23461 1.74453 0)
(9.33269 1.67783 0)
(9.10078 1.95651 0)
(9.21099 1.88609 0)
(8.95638 2.18451 0)
(9.0796 2.10979 0)
(8.80122 2.43009 0)
(8.93848 2.35047 0)
(8.63499 2.69493 0)
(8.78749 2.6098 0)
(8.45723 2.98088 0)
(8.6264 2.88958 0)
(8.26718 3.29003 0)
(8.45477 3.19188 0)
(8.06372 3.62478 0)
(8.27194 3.51904 0)
(7.84522 3.988 0)
(8.07689 3.87389 0)
(7.60925 4.38319 0)
(7.8681 4.25986 0)
(7.35226 4.81476 0)
(7.6433 4.68132 0)
(7.06896 5.28832 0)
(7.39917 5.14393 0)
(6.75141 5.81114 0)
(7.13073 5.65521 0)
(6.38732 6.3927 0)
(6.83039 6.22539 0)
(5.95705 7.04526 0)
(6.48612 6.86877 0)
(5.42774 7.7845 0)
(6.07848 7.60594 0)
(4.74122 8.62858 0)
(5.56919 8.46802 0)
(3.78677 9.59502 0)
(4.90283 9.50279 0)
(2.33916 10.5847 0)
(3.8203 10.7908 0)
(2.05118 12.217 0)
(9.98814 0.204762 0)
(9.99548 0.139313 0)
(9.96507 0.340215 0)
(9.98041 0.277143 0)
(9.93126 0.477348 0)
(9.95367 0.415721 0)
(9.88705 0.617911 0)
(9.91638 0.556953 0)
(9.83275 0.763459 0)
(9.86944 0.702464 0)
(9.76861 0.915461 0)
(9.81322 0.853764 0)
(9.69484 1.07533 0)
(9.74788 1.01229 0)
(9.61165 1.24446 0)
(9.67362 1.17946 0)
(9.5192 1.42423 0)
(9.59066 1.35664 0)
(9.41762 1.61601 0)
(9.49919 1.54523 0)
(9.30704 1.82122 0)
(9.3994 1.7466 0)
(9.18755 2.0413 0)
(9.29145 1.9622 0)
(9.05921 2.27779 0)
(9.17549 2.19352 0)
(8.92201 2.53233 0)
(9.05166 2.44215 0)
(8.77587 2.8067 0)
(8.92003 2.7098 0)
(8.6206 3.10292 0)
(8.78062 2.99841 0)
(8.45585 3.42329 0)
(8.63339 3.31015 0)
(8.28101 3.77057 0)
(8.47812 3.64759 0)
(8.09515 4.1481 0)
(8.31448 4.01384 0)
(7.89686 4.56015 0)
(8.14186 4.41278 0)
(7.68404 5.01223 0)
(7.95936 4.84943 0)
(7.45352 5.51173 0)
(7.76564 5.33041 0)
(7.20053 6.06882 0)
(7.55877 5.86482 0)
(6.91756 6.69796 0)
(7.33599 6.46552 0)
(6.59216 7.42065 0)
(7.09325 7.15158 0)
(6.20215 8.27107 0)
(6.82542 7.95311 0)
(5.70324 9.30944 0)
(6.52286 8.92285 0)
(4.98936 10.6734 0)
(6.20446 10.1694 0)
(3.71511 12.8142 0)
(5.91306 12.0094 0)
(4.9949 15.8557 0)
(0.601356 -0.449145 0)
(0.22673 -0.588991 0)
(1.02883 -0.332019 0)
(0.639095 -0.408799 0)
(1.3499 -0.25602 0)
(0.925744 -0.299791 0)
(1.58969 -0.198801 0)
(1.12757 -0.218601 0)
(1.7518 -0.145485 0)
(1.23111 -0.144299 0)
(1.82655 -0.0874411 0)
(1.23738 -0.0649691 0)
(1.80718 -0.0272422 0)
(1.17096 0.0164328 0)
(1.70551 0.026177 0)
(1.0337 0.0842424 0)
(1.5357 0.0686883 0)
(0.835934 0.137373 0)
(1.30853 0.0997292 0)
(0.59214 0.179434 0)
(1.03612 0.11996 0)
(0.305886 0.210086 0)
(0.728875 0.1308 0)
(-0.01093 0.231353 0)
(0.398821 0.133699 0)
(-0.351899 0.24266 0)
(0.056934 0.130791 0)
(-0.707446 0.245423 0)
(-0.286725 0.124204 0)
(-1.06518 0.240868 0)
(-0.625176 0.115189 0)
(-1.41966 0.231616 0)
(-0.951222 0.103848 0)
(-1.76411 0.217857 0)
(-1.2567 0.0902558 0)
(-2.08991 0.199291 0)
(-1.53318 0.074629 0)
(-2.38886 0.176115 0)
(-1.77219 0.0571617 0)
(-2.65258 0.148649 0)
(-1.9653 0.037886 0)
(-2.87238 0.11727 0)
(-2.10417 0.0164643 0)
(-3.0391 0.0823358 0)
(-2.17989 -0.00803144 0)
(-3.14376 0.0438344 0)
(-2.17901 -0.0388196 0)
(-3.17919 -0.000496469 0)
(-2.08536 -0.0787353 0)
(-3.13984 -0.0516867 0)
(-1.87578 -0.129793 0)
(-3.00049 -0.112933 0)
(-1.52481 -0.198645 0)
(-2.74348 -0.184652 0)
(-0.982857 -0.288268 0)
(-2.35473 -0.278399 0)
(-0.182159 -0.326168 0)
(-1.86156 -0.401603 0)
(-1.18797 -0.359586 0)
(0.324706 -0.696282 0)
(0.046625 -0.90702 0)
(0.571132 -0.497126 0)
(0.282217 -0.644457 0)
(0.719563 -0.351496 0)
(0.345194 -0.438385 0)
(0.764592 -0.22285 0)
(0.356078 -0.259653 0)
(0.70731 -0.0941363 0)
(0.27355 -0.0933099 0)
(0.571791 0.0268192 0)
(0.128331 0.0528122 0)
(0.387988 0.127057 0)
(-0.0598461 0.172405 0)
(0.16091 0.20686 0)
(-0.290382 0.272386 0)
(-0.107353 0.268675 0)
(-0.559234 0.35439 0)
(-0.406943 0.315227 0)
(-0.855439 0.41607 0)
(-0.733847 0.349056 0)
(-1.17883 0.462198 0)
(-1.08112 0.370565 0)
(-1.52184 0.492846 0)
(-1.44269 0.380309 0)
(-1.87946 0.508495 0)
(-1.81165 0.379595 0)
(-2.24517 0.510276 0)
(-2.18114 0.370248 0)
(-2.61281 0.499847 0)
(-2.5426 0.353592 0)
(-2.97539 0.478973 0)
(-2.88754 0.329847 0)
(-3.32518 0.448337 0)
(-3.2078 0.299121 0)
(-3.65441 0.408231 0)
(-3.49508 0.261719 0)
(-3.95541 0.359108 0)
(-3.74093 0.218025 0)
(-4.22033 0.301556 0)
(-3.93696 0.168351 0)
(-4.44114 0.236309 0)
(-4.07493 0.112594 0)
(-4.60968 0.164138 0)
(-4.14651 0.0497319 0)
(-4.71815 0.0852718 0)
(-4.14484 -0.0221294 0)
(-4.75994 -0.00144089 0)
(-4.06221 -0.104684 0)
(-4.73283 -0.0972842 0)
(-3.89661 -0.198962 0)
(-4.63054 -0.202167 0)
(-3.64554 -0.307106 0)
(-4.44767 -0.31675 0)
(-3.32378 -0.419588 0)
(-4.18571 -0.443684 0)
(-3.00887 -0.480963 0)
(-3.8818 -0.559553 0)
(-3.65663 -0.59734 0)
(0.0465988 -0.825468 0)
(-0.0889237 -0.952661 0)
(0.063608 -0.558108 0)
(-0.0742335 -0.660723 0)
(-0.000293295 -0.322837 0)
(-0.215142 -0.378719 0)
(-0.134344 -0.115584 0)
(-0.367507 -0.137444 0)
(-0.30752 0.0622709 0)
(-0.55833 0.0608406 0)
(-0.509321 0.20744 0)
(-0.767289 0.2282 0)
(-0.744883 0.327718 0)
(-1.00866 0.372299 0)
(-1.01185 0.427354 0)
(-1.27708 0.493582 0)
(-1.30554 0.506466 0)
(-1.56913 0.591978 0)
(-1.6239 0.566107 0)
(-1.88204 0.667531 0)
(-1.96119 0.607794 0)
(-2.21284 0.72232 0)
(-2.31226 0.632025 0)
(-2.55711 0.757203 0)
(-2.67209 0.639631 0)
(-2.91073 0.773044 0)
(-3.03533 0.631894 0)
(-3.26903 0.771027 0)
(-3.39596 0.610345 0)
(-3.6269 0.75261 0)
(-3.747 0.576172 0)
(-3.97848 0.719201 0)
(-4.08127 0.530029 0)
(-4.31733 0.671693 0)
(-4.39167 0.472485 0)
(-4.63682 0.610732 0)
(-4.67096 0.404263 0)
(-4.93014 0.537014 0)
(-4.91185 0.326267 0)
(-5.19035 0.451376 0)
(-5.10705 0.239535 0)
(-5.4103 0.354845 0)
(-5.24944 0.145012 0)
(-5.58292 0.248564 0)
(-5.33313 0.0430676 0)
(-5.70163 0.133717 0)
(-5.35128 -0.0669739 0)
(-5.76125 0.00882227 0)
(-5.30655 -0.185829 0)
(-5.76047 -0.121971 0)
(-5.1957 -0.312804 0)
(-5.69957 -0.261899 0)
(-5.02545 -0.445976 0)
(-5.57653 -0.406323 0)
(-4.8166 -0.574494 0)
(-5.3949 -0.550973 0)
(-4.58373 -0.667218 0)
(-5.18552 -0.67635 0)
(-5.04921 -0.757797 0)
(-0.1628 -0.73483 0)
(-0.200262 -0.793208 0)
(-0.355109 -0.439311 0)
(-0.362345 -0.476817 0)
(-0.56485 -0.16932 0)
(-0.631612 -0.182879 0)
(-0.783015 0.0602618 0)
(-0.876322 0.0614501 0)
(-1.01619 0.250967 0)
(-1.12377 0.268397 0)
(-1.26961 0.413251 0)
(-1.38706 0.448454 0)
(-1.54298 0.551584 0)
(-1.66614 0.604275 0)
(-1.83485 0.666195 0)
(-1.95936 0.735408 0)
(-2.14356 0.757084 0)
(-2.266 0.841718 0)
(-2.46759 0.825031 0)
(-2.5852 0.923472 0)
(-2.80394 0.871203 0)
(-2.91545 0.98171 0)
(-3.14926 0.896442 0)
(-3.25444 1.01723 0)
(-3.49996 0.901733 0)
(-3.59942 1.03088 0)
(-3.85193 0.888292 0)
(-3.94712 1.02369 0)
(-4.20035 0.857427 0)
(-4.29354 0.996813 0)
(-4.53962 0.810237 0)
(-4.63395 0.951374 0)
(-4.86371 0.747528 0)
(-4.96301 0.888248 0)
(-5.16638 0.670012 0)
(-5.27495 0.808191 0)
(-5.44113 0.578479 0)
(-5.56367 0.712025 0)
(-5.68132 0.473886 0)
(-5.8228 0.600761 0)
(-5.88032 0.357389 0)
(-6.04579 0.475688 0)
(-6.03182 0.230286 0)
(-6.22613 0.338391 0)
(-6.13 0.0936546 0)
(-6.35805 0.190555 0)
(-6.17301 -0.0524937 0)
(-6.43765 0.0331292 0)
(-6.15751 -0.206173 0)
(-6.4617 -0.130522 0)
(-6.08848 -0.363062 0)
(-6.43502 -0.299096 0)
(-5.97323 -0.518364 0)
(-6.35663 -0.466959 0)
(-5.8266 -0.662467 0)
(-6.23016 -0.626296 0)
(-5.65029 -0.776986 0)
(-6.08186 -0.764781 0)
(-5.99066 -0.865847 0)
(-0.318401 -0.494529 0)
(-0.277176 -0.481354 0)
(-0.636914 -0.194632 0)
(-0.545813 -0.172221 0)
(-0.926406 0.069943 0)
(-0.886985 0.0874247 0)
(-1.20759 0.291526 0)
(-1.18943 0.3178 0)
(-1.4919 0.484015 0)
(-1.48942 0.521464 0)
(-1.78312 0.652438 0)
(-1.79081 0.701555 0)
(-2.08201 0.796819 0)
(-2.09506 0.857917 0)
(-2.38924 0.916562 0)
(-2.40356 0.989959 0)
(-2.70512 1.01147 0)
(-2.71752 1.09725 0)
(-3.02951 1.08188 0)
(-3.03767 1.1797 0)
(-3.36134 1.12842 0)
(-3.36405 1.23762 0)
(-3.69889 1.15173 0)
(-3.69591 1.27141 0)
(-4.03984 1.15256 0)
(-4.0318 1.28155 0)
(-4.38118 1.13183 0)
(-4.36954 1.26872 0)
(-4.71912 1.09048 0)
(-4.70613 1.23367 0)
(-5.04908 1.0294 0)
(-5.03776 1.17718 0)
(-5.36593 0.94937 0)
(-5.35992 1.09996 0)
(-5.66407 0.851188 0)
(-5.66751 1.0027 0)
(-5.93759 0.735838 0)
(-5.95499 0.886255 0)
(-6.18036 0.604593 0)
(-6.21641 0.751753 0)
(-6.38622 0.459085 0)
(-6.44559 0.600696 0)
(-6.54923 0.301245 0)
(-6.63639 0.435041 0)
(-6.66423 0.133156 0)
(-6.78344 0.25713 0)
(-6.72874 -0.0424403 0)
(-6.88289 0.0695884 0)
(-6.74215 -0.222469 0)
(-6.93173 -0.123122 0)
(-6.70888 -0.402333 0)
(-6.93556 -0.317022 0)
(-6.6361 -0.574798 0)
(-6.8941 -0.50525 0)
(-6.534 -0.731064 0)
(-6.8114 -0.678743 0)
(-6.40606 -0.856811 0)
(-6.71023 -0.828952 0)
(-6.64984 -0.937964 0)
(-0.413964 -0.139212 0)
(-0.309177 -0.0759012 0)
(-0.788059 0.129173 0)
(-0.633534 0.185527 0)
(-1.13411 0.358129 0)
(-1.01784 0.410541 0)
(-1.46368 0.564885 0)
(-1.36437 0.618259 0)
(-1.78446 0.750489 0)
(-1.69848 0.807003 0)
(-2.10046 0.914505 0)
(-2.02279 0.976191 0)
(-2.41469 1.05586 0)
(-2.34101 1.12456 0)
(-2.72961 1.17359 0)
(-2.65631 1.25089 0)
(-3.04714 1.26708 0)
(-2.97142 1.35413 0)
(-3.36851 1.33605 0)
(-3.28842 1.43354 0)
(-3.69409 1.38054 0)
(-3.60859 1.48871 0)
(-4.02343 1.4007 0)
(-3.93238 1.51939 0)
(-4.35528 1.39685 0)
(-4.25936 1.52553 0)
(-4.68757 1.36947 0)
(-4.58825 1.50725 0)
(-5.01735 1.31912 0)
(-4.91685 1.46482 0)
(-5.34087 1.24637 0)
(-5.2421 1.39858 0)
(-5.65365 1.15185 0)
(-5.56012 1.30895 0)
(-5.95065 1.03627 0)
(-5.86635 1.19646 0)
(-6.22637 0.900631 0)
(-6.15564 1.06188 0)
(-6.47496 0.746277 0)
(-6.42234 0.906364 0)
(-6.69049 0.575051 0)
(-6.66045 0.731574 0)
(-6.8672 0.389343 0)
(-6.86404 0.539815 0)
(-7.00023 0.192217 0)
(-7.02789 0.334143 0)
(-7.08707 -0.012095 0)
(-7.14816 0.118674 0)
(-7.12754 -0.218374 0)
(-7.22206 -0.100784 0)
(-7.12589 -0.420281 0)
(-7.25365 -0.317915 0)
(-7.08832 -0.609675 0)
(-7.24452 -0.525012 0)
(-7.02282 -0.777986 0)
(-7.19916 -0.712394 0)
(-6.93635 -0.911321 0)
(-7.13701 -0.872318 0)
(-7.10023 -0.984521 0)
(-0.442277 0.264444 0)
(-0.307586 0.357282 0)
(-0.853748 0.484633 0)
(-0.656202 0.57902 0)
(-1.23436 0.68337 0)
(-1.06768 0.765922 0)
(-1.59199 0.868735 0)
(-1.43543 0.9443 0)
(-1.93231 1.03798 0)
(-1.78453 1.10994 0)
(-2.2602 1.18944 0)
(-2.11715 1.26116 0)
(-2.57996 1.32139 0)
(-2.43816 1.3959 0)
(-2.89534 1.43225 0)
(-2.75183 1.5122 0)
(-3.20947 1.52075 0)
(-3.06198 1.60825 0)
(-3.52467 1.58589 0)
(-3.37168 1.68251 0)
(-3.84236 1.62694 0)
(-3.68314 1.73372 0)
(-4.16307 1.64342 0)
(-3.99767 1.76088 0)
(-4.48638 1.63502 0)
(-4.3156 1.76323 0)
(-4.81095 1.60165 0)
(-4.63634 1.74024 0)
(-5.13451 1.54336 0)
(-4.95831 1.6916 0)
(-5.45392 1.46034 0)
(-5.27901 1.61716 0)
(-5.76521 1.35289 0)
(-5.59507 1.51694 0)
(-6.06373 1.22159 0)
(-5.90231 1.39121 0)
(-6.34426 1.06734 0)
(-6.19588 1.24058 0)
(-6.60115 0.891581 0)
(-6.47033 1.06614 0)
(-6.8286 0.696428 0)
(-6.71979 0.86969 0)
(-7.02098 0.484856 0)
(-6.93839 0.65388 0)
(-7.17355 0.261005 0)
(-7.12086 0.422467 0)
(-7.28345 0.0305109 0)
(-7.26315 0.180794 0)
(-7.35022 -0.199758 0)
(-7.3624 -0.0639363 0)
(-7.3775 -0.422078 0)
(-7.42002 -0.303215 0)
(-7.37084 -0.627479 0)
(-7.44029 -0.528512 0)
(-7.33745 -0.806899 0)
(-7.42812 -0.72955 0)
(-7.28662 -0.945724 0)
(-7.39956 -0.897813 0)
(-7.3821 -1.0116 0)
(-0.443504 0.674907 0)
(-0.292325 0.791666 0)
(-0.864877 0.863079 0)
(-0.644072 0.981981 0)
(-1.25617 1.02886 0)
(-1.05929 1.13128 0)
(-1.62127 1.18662 0)
(-1.42667 1.27715 0)
(-1.96472 1.33346 0)
(-1.77305 1.41565 0)
(-2.29162 1.46739 0)
(-2.09969 1.54527 0)
(-2.60696 1.5861 0)
(-2.41219 1.6635 0)
(-2.91536 1.68734 0)
(-2.71554 1.76771 0)
(-3.22073 1.76902 0)
(-3.01425 1.85529 0)
(-3.5262 1.82929 0)
(-3.31205 1.92378 0)
(-3.8339 1.86659 0)
(-3.61177 1.97103 0)
(-4.14501 1.87965 0)
(-3.91527 1.99515 0)
(-4.45974 1.86746 0)
(-4.2234 1.99462 0)
(-4.77728 1.82927 0)
(-4.53603 1.96819 0)
(-5.09589 1.76457 0)
(-4.85207 1.91491 0)
(-5.41286 1.67306 0)
(-5.16942 1.83408 0)
(-5.72463 1.55469 0)
(-5.4851 1.72526 0)
(-6.02686 1.40978 0)
(-5.79524 1.58838 0)
(-6.31452 1.23912 0)
(-6.0952 1.42381 0)
(-6.5821 1.04414 0)
(-6.37968 1.23256 0)
(-6.82383 0.827192 0)
(-6.64285 1.01648 0)
(-7.03405 0.591735 0)
(-6.87873 0.778522 0)
(-7.20781 0.342763 0)
(-7.08177 0.523061 0)
(-7.34161 0.0871154 0)
(-7.24739 0.25642 0)
(-7.43413 -0.166498 0)
(-7.37227 -0.0128737 0)
(-7.48835 -0.408736 0)
(-7.45501 -0.274003 0)
(-7.50981 -0.62986 0)
(-7.50266 -0.517221 0)
(-7.50541 -0.819929 0)
(-7.52077 -0.731809 0)
(-7.4856 -0.963404 0)
(-7.52201 -0.907749 0)
(-7.52111 -1.02279 0)
(-0.427001 1.08796 0)
(-0.270026 1.20989 0)
(-0.836977 1.24379 0)
(-0.608255 1.37404 0)
(-1.21832 1.37492 0)
(-1.00733 1.48735 0)
(-1.57253 1.50237 0)
(-1.35565 1.60007 0)
(-1.90356 1.62416 0)
(-1.68297 1.71032 0)
(-2.21673 1.73848 0)
(-1.98976 1.81745 0)
(-2.51754 1.84256 0)
(-2.28243 1.91876 0)
(-2.81113 1.93342 0)
(-2.56648 2.01097 0)
(-3.10195 2.0081 0)
(-2.84687 2.09055 0)
(-3.39355 2.06381 0)
(-3.12768 2.15411 0)
(-3.68852 2.09809 0)
(-3.41203 2.19851 0)
(-3.98843 2.10881 0)
(-3.70208 2.22099 0)
(-4.29387 2.09422 0)
(-3.99897 2.21918 0)
(-4.60442 2.05286 0)
(-4.30288 2.19112 0)
(-4.91869 1.9836 0)
(-4.613 2.13518 0)
(-5.23433 1.88563 0)
(-4.92759 2.05008 0)
(-5.54808 1.75848 0)
(-5.24393 1.9349 0)
(-5.85582 1.60214 0)
(-5.5584 1.78915 0)
(-6.1527 1.41719 0)
(-5.86653 1.61292 0)
(-6.43321 1.20504 0)
(-6.16306 1.40702 0)
(-6.69149 0.968181 0)
(-6.44209 1.17332 0)
(-6.92165 0.71047 0)
(-6.69734 0.914984 0)