/*--------------------------------*- C++ -*----------------------------------*\
  =========                 |
  \\      /  F ield         | OpenFOAM: The Open Source CFD Toolbox
   \\    /   O peration     | Website:  https://openfoam.org
    \\  /    A nd           | Version:  7
     \\/     M anipulation  |
\*---------------------------------------------------------------------------*/
FoamFile
{
    version     2.0;
    format      ascii;
    class       surfaceScalarField;
    location    "4.94";
    object      phi;
}
// * * * * * * * * * * * * * * * * * * * * * * * * * * * * * * * * * * * * * //

dimensions      [1 0 -1 0 0 0 0];

internalField   nonuniform List<scalar> 
23692
(
1.18472e-05
-2.12348e-07
1.22256e-05
-3.77927e-07
1.27489e-05
-5.22447e-07
1.33982e-05
-6.48213e-07
1.41596e-05
-7.59978e-07
1.50219e-05
-8.60577e-07
1.59755e-05
-9.51645e-07
1.70118e-05
-1.03412e-06
1.81227e-05
-1.10839e-06
1.92997e-05
-1.17444e-06
2.05346e-05
-1.23205e-06
2.18185e-05
-1.2809e-06
2.31423e-05
-1.32069e-06
2.44967e-05
-1.35121e-06
2.58725e-05
-1.3724e-06
2.72602e-05
-1.38437e-06
2.86511e-05
-1.38742e-06
3.00367e-05
-1.38202e-06
3.1409e-05
-1.36879e-06
3.2761e-05
-1.34846e-06
3.40864e-05
-1.32181e-06
3.53797e-05
-1.28969e-06
3.66361e-05
-1.25295e-06
3.78521e-05
-1.21242e-06
3.90244e-05
-1.16891e-06
4.0151e-05
-1.12316e-06
4.12302e-05
-1.07585e-06
4.22611e-05
-1.02759e-06
4.32432e-05
-9.78951e-07
4.41767e-05
-9.30394e-07
4.50621e-05
-8.82332e-07
4.59001e-05
-8.35113e-07
4.6692e-05
-7.89025e-07
4.7439e-05
-7.443e-07
4.81428e-05
-7.01121e-07
4.88049e-05
-6.59628e-07
4.94272e-05
-6.19924e-07
5.00116e-05
-5.82075e-07
5.05599e-05
-5.46118e-07
5.1074e-05
-5.12063e-07
5.15558e-05
-4.79899e-07
5.20072e-05
-4.49595e-07
5.243e-05
-4.21104e-07
5.28259e-05
-3.94363e-07
5.31966e-05
-3.69297e-07
5.35437e-05
-3.4582e-07
5.38687e-05
-3.23836e-07
5.4173e-05
-3.03243e-07
5.44579e-05
-2.83926e-07
5.47245e-05
-2.65767e-07
5.49738e-05
-2.48638e-07
5.52068e-05
-2.32406e-07
5.54242e-05
-2.16927e-07
5.56266e-05
-2.02055e-07
5.58145e-05
-1.87629e-07
5.59881e-05
-1.73482e-07
5.61476e-05
-1.59436e-07
5.62929e-05
-1.45297e-07
5.64236e-05
-1.30859e-07
5.65393e-05
-1.15894e-07
5.66392e-05
-1.00153e-07
5.67222e-05
-8.3356e-08
5.6787e-05
-6.51888e-08
5.68318e-05
-4.52896e-08
5.68546e-05
-2.32404e-08
5.68525e-05
1.50629e-09
5.68224e-05
2.95178e-08
5.67601e-05
6.1683e-08
5.66605e-05
9.89944e-08
5.6517e-05
1.42833e-07
5.63212e-05
1.9509e-07
5.60621e-05
2.58459e-07
5.57245e-05
3.36922e-07
5.52872e-05
4.36615e-07
5.47191e-05
5.67409e-07
5.39725e-05
7.45935e-07
5.29703e-05
1.00161e-06
5.15801e-05
1.38951e-06
4.95559e-05
2.02365e-06
4.63681e-05
3.18728e-06
6.07361e-06
4.02939e-05
1.26708e-05
-4.33906e-07
1.30737e-05
-7.80324e-07
1.36323e-05
-1.08016e-06
1.43259e-05
-1.34062e-06
1.51397e-05
-1.57221e-06
1.60616e-05
-1.78066e-06
1.70814e-05
-1.96936e-06
1.81899e-05
-2.14028e-06
1.93784e-05
-2.29419e-06
2.06378e-05
-2.4311e-06
2.19593e-05
-2.55054e-06
2.33335e-05
-2.65184e-06
2.47505e-05
-2.73436e-06
2.62004e-05
-2.79767e-06
2.76732e-05
-2.84163e-06
2.91589e-05
-2.86649e-06
3.06481e-05
-2.87286e-06
3.21316e-05
-2.86173e-06
3.36009e-05
-2.83435e-06
3.50485e-05
-2.79224e-06
3.64676e-05
-2.73704e-06
3.78522e-05
-2.6705e-06
3.91974e-05
-2.59439e-06
4.04992e-05
-2.51042e-06
4.17542e-05
-2.42026e-06
4.29602e-05
-2.32546e-06
4.41153e-05
-2.22742e-06
4.52187e-05
-2.12744e-06
4.62698e-05
-2.02664e-06
4.72688e-05
-1.92602e-06
4.82161e-05
-1.82642e-06
4.91127e-05
-1.72856e-06
4.99597e-05
-1.63304e-06
5.07587e-05
-1.54035e-06
5.15112e-05
-1.45085e-06
5.22191e-05
-1.36484e-06
5.28843e-05
-1.28252e-06
5.35087e-05
-1.20404e-06
5.40944e-05
-1.12948e-06
5.46434e-05
-1.05884e-06
5.51576e-05
-9.92118e-07
5.56392e-05
-9.29234e-07
5.609e-05
-8.70094e-07
5.65119e-05
-8.14568e-07
5.69066e-05
-7.625e-07
5.72759e-05
-7.13711e-07
5.76213e-05
-6.68003e-07
5.79443e-05
-6.2516e-07
5.82463e-05
-5.84948e-07
5.85286e-05
-5.47121e-07
5.87921e-05
-5.11414e-07
5.90378e-05
-4.77552e-07
5.92667e-05
-4.4524e-07
5.94792e-05
-4.14171e-07
5.96758e-05
-3.84019e-07
5.98569e-05
-3.54439e-07
6.00226e-05
-3.25062e-07
6.01728e-05
-2.95496e-07
6.03071e-05
-2.65314e-07
6.04251e-05
-2.34056e-07
6.05259e-05
-2.01213e-07
6.06084e-05
-1.66218e-07
6.06712e-05
-1.28436e-07
6.07125e-05
-8.71362e-08
6.07302e-05
-4.1472e-08
6.07215e-05
9.5998e-09
6.06831e-05
6.73296e-08
6.06108e-05
1.33303e-07
6.04996e-05
2.09496e-07
6.03432e-05
2.98523e-07
6.01337e-05
4.03912e-07
5.98608e-05
5.30567e-07
5.95115e-05
6.85512e-07
5.90683e-05
8.79126e-07
5.85078e-05
1.12723e-06
5.77984e-05
1.45463e-06
5.6898e-05
1.90127e-06
5.57541e-05
2.53276e-06
5.43158e-05
3.46136e-06
5.26204e-05
4.88203e-06
7.04358e-06
5.16499e-05
1.35499e-05
-6.63356e-07
1.39771e-05
-1.20694e-06
1.45712e-05
-1.67333e-06
1.53106e-05
-2.07873e-06
1.61792e-05
-2.4391e-06
1.71639e-05
-2.76343e-06
1.82538e-05
-3.05706e-06
1.94391e-05
-3.32304e-06
2.07103e-05
-3.56259e-06
2.2058e-05
-3.77573e-06
2.34724e-05
-3.9617e-06
2.49434e-05
-4.11947e-06
2.64606e-05
-4.24803e-06
2.80134e-05
-4.3467e-06
2.95908e-05
-4.41526e-06
3.11823e-05
-4.45408e-06
3.27776e-05
-4.46413e-06
3.43668e-05
-4.44691e-06
3.59409e-05
-4.4044e-06
3.74917e-05
-4.33895e-06
3.90119e-05
-4.25312e-06
4.04951e-05
-4.14964e-06
4.1936e-05
-4.03125e-06
4.33303e-05
-3.90065e-06
4.46743e-05
-3.76039e-06
4.59657e-05
-3.61291e-06
4.72025e-05
-3.46039e-06
4.83837e-05
-3.30484e-06
4.95087e-05
-3.14802e-06
5.05777e-05
-2.99147e-06
5.15913e-05
-2.83651e-06
5.25503e-05
-2.68425e-06
5.34562e-05
-2.53562e-06
5.43103e-05
-2.39136e-06
5.51145e-05
-2.25207e-06
5.58708e-05
-2.11819e-06
5.65811e-05
-1.99004e-06
5.72475e-05
-1.86785e-06
5.78722e-05
-1.75172e-06
5.84574e-05
-1.64168e-06
5.90052e-05
-1.5377e-06
5.95177e-05
-1.43968e-06
5.99969e-05
-1.34745e-06
6.0445e-05
-1.26081e-06
6.08636e-05
-1.17952e-06
6.12547e-05
-1.1033e-06
6.16199e-05
-1.03185e-06
6.19607e-05
-9.64816e-07
6.22787e-05
-9.01849e-07
6.25751e-05
-8.42559e-07
6.2851e-05
-7.86539e-07
6.31075e-05
-7.33359e-07
6.33453e-05
-6.82566e-07
6.35652e-05
-6.33685e-07
6.37677e-05
-5.86214e-07
6.39531e-05
-5.39623e-07
6.41215e-05
-4.93349e-07
6.42727e-05
-4.4679e-07
6.44066e-05
-3.993e-07
6.45225e-05
-3.50179e-07
6.46196e-05
-2.98661e-07
6.46969e-05
-2.43896e-07
6.47529e-05
-1.84937e-07
6.4786e-05
-1.20702e-07
6.47939e-05
-4.99431e-08
6.4774e-05
2.88522e-08
6.47231e-05
1.17493e-07
6.46376e-05
2.18165e-07
6.45127e-05
3.33606e-07
6.43432e-05
4.67327e-07
6.41224e-05
6.23933e-07
6.38426e-05
8.09582e-07
6.34946e-05
1.03267e-06
6.30681e-05
1.30486e-06
6.2552e-05
1.64254e-06
6.1937e-05
2.06888e-06
6.12212e-05
2.6164e-06
6.04236e-05
3.32958e-06
5.96189e-05
4.26545e-06
5.90204e-05
5.47983e-06
6.94919e-06
5.91142e-05
1.44895e-05
-9.0031e-07
1.49404e-05
-1.65722e-06
1.55706e-05
-2.30248e-06
1.63573e-05
-2.86404e-06
1.72831e-05
-3.36313e-06
1.8334e-05
-3.81226e-06
1.94983e-05
-4.21891e-06
2.07653e-05
-4.58733e-06
2.21249e-05
-4.91923e-06
2.3567e-05
-5.2146e-06
2.50812e-05
-5.47241e-06
2.66566e-05
-5.6912e-06
2.8282e-05
-5.86956e-06
2.99458e-05
-6.00652e-06
3.16364e-05
-6.10177e-06
3.33423e-05
-6.1558e-06
3.50524e-05
-6.16995e-06
3.67561e-05
-6.14631e-06
3.84437e-05
-6.08761e-06
4.01062e-05
-5.99711e-06
4.17359e-05
-5.87837e-06
4.33257e-05
-5.73516e-06
4.48701e-05
-5.57129e-06
4.63643e-05
-5.39048e-06
4.78044e-05
-5.19632e-06
4.91878e-05
-4.99213e-06
5.05125e-05
-4.78098e-06
5.17774e-05
-4.56563e-06
5.29818e-05
-4.34851e-06
5.41259e-05
-4.13176e-06
5.52103e-05
-3.9172e-06
5.6236e-05
-3.70637e-06
5.72045e-05
-3.50055e-06
5.81172e-05
-3.30078e-06
5.89762e-05
-3.10785e-06
5.97835e-05
-2.9224e-06
6.05413e-05
-2.74486e-06
6.12518e-05
-2.57553e-06
6.19173e-05
-2.41455e-06
6.25401e-05
-2.26198e-06
6.31225e-05
-2.11775e-06
6.36668e-05
-1.98172e-06
6.4175e-05
-1.85366e-06
6.46494e-05
-1.7333e-06
6.50919e-05
-1.6203e-06
6.55045e-05
-1.51427e-06
6.58889e-05
-1.41477e-06
6.62467e-05
-1.32135e-06
6.65795e-05
-1.2335e-06
6.68886e-05
-1.1507e-06
6.71753e-05
-1.07238e-06
6.74406e-05
-9.97945e-07
6.76854e-05
-9.26783e-07
6.79104e-05
-8.58242e-07
6.81161e-05
-7.91637e-07
6.83029e-05
-7.2625e-07
6.8471e-05
-6.61317e-07
6.86202e-05
-5.96031e-07
6.87503e-05
-5.29525e-07
6.88607e-05
-4.6087e-07
6.89508e-05
-3.89051e-07
6.90194e-05
-3.12959e-07
6.90653e-05
-2.31361e-07
6.90869e-05
-1.42869e-07
6.90823e-05
-4.58938e-08
6.9049e-05
6.14512e-08
6.89844e-05
1.81359e-07
6.88854e-05
3.1642e-07
6.87484e-05
4.69801e-07
6.85695e-05
6.45424e-07
6.83444e-05
8.48214e-07
6.80687e-05
1.08442e-06
6.77385e-05
1.36204e-06
6.73512e-05
1.69129e-06
6.69078e-05
2.08509e-06
6.64165e-05
2.5594e-06
6.58992e-05
3.13285e-06
6.54034e-05
3.8247e-06
6.50189e-05
4.64918e-06
6.48966e-05
5.60146e-06
6.62301e-06
6.52221e-05
1.54943e-05
-1.14487e-06
1.59688e-05
-2.13104e-06
1.66358e-05
-2.96834e-06
1.74714e-05
-3.69823e-06
1.84572e-05
-4.34699e-06
1.9578e-05
-4.93081e-06
2.08212e-05
-5.45951e-06
2.21754e-05
-5.93863e-06
2.36298e-05
-6.3704e-06
2.51735e-05
-6.7548e-06
2.67952e-05
-7.09045e-06
2.84834e-05
-7.37543e-06
3.02258e-05
-7.60788e-06
3.20101e-05
-7.78649e-06
3.38235e-05
-7.91084e-06
3.56538e-05
-7.98155e-06
3.74887e-05
-8.00033e-06
3.9317e-05
-7.96992e-06
4.11279e-05
-7.89387e-06
4.29119e-05
-7.77641e-06
4.46605e-05
-7.62219e-06
4.63661e-05
-7.43613e-06
4.80227e-05
-7.22319e-06
4.96251e-05
-6.98822e-06
5.11692e-05
-6.73588e-06
5.2652e-05
-6.47051e-06
5.40715e-05
-6.19608e-06
5.54264e-05
-5.9162e-06
5.67162e-05
-5.63402e-06
5.79408e-05
-5.35232e-06
5.91011e-05
-5.07346e-06
6.0198e-05
-4.79944e-06
6.12331e-05
-4.53193e-06
6.22082e-05
-4.27224e-06
6.31252e-05
-4.02143e-06
6.39864e-05
-3.7803e-06
6.47941e-05
-3.54941e-06
6.55508e-05
-3.32915e-06
6.62588e-05
-3.11969e-06
6.69206e-05
-2.92111e-06
6.75387e-05
-2.7333e-06
6.81154e-05
-2.55609e-06
6.86531e-05
-2.38917e-06
6.9154e-05
-2.23218e-06
6.96203e-05
-2.08469e-06
7.00539e-05
-1.94617e-06
7.04568e-05
-1.81608e-06
7.08306e-05
-1.69382e-06
7.1177e-05
-1.57872e-06
7.14975e-05
-1.47012e-06
7.17933e-05
-1.36728e-06
7.20656e-05
-1.26944e-06
7.23152e-05
-1.17582e-06
7.2543e-05
-1.08559e-06
7.27496e-05
-9.97867e-07
7.29353e-05
-9.11752e-07
7.31004e-05
-8.26285e-07
7.32447e-05
-7.40456e-07
7.33682e-05
-6.53192e-07
7.34705e-05
-5.63347e-07
7.35507e-05
-4.6969e-07
7.36082e-05
-3.70883e-07
7.36418e-05
-2.65461e-07
7.36501e-05
-1.518e-07
7.36316e-05
-2.80663e-08
7.35845e-05
1.07857e-07
7.35067e-05
2.58329e-07
7.33962e-05
4.26084e-07
7.32508e-05
6.14331e-07
7.30685e-05
8.2687e-07
7.28476e-05
1.0682e-06
7.25875e-05
1.34368e-06
7.22891e-05
1.65955e-06
7.19564e-05
2.02301e-06
7.15987e-05
2.44194e-06
7.1233e-05
2.92427e-06
7.08884e-05
3.47653e-06
7.06111e-05
4.10117e-06
7.04675e-05
4.792e-06
7.05414e-05
5.52687e-06
6.25574e-06
7.09079e-05
1.65693e-05
-1.39758e-06
1.70677e-05
-2.62878e-06
1.77726e-05
-3.67207e-06
1.86594e-05
-4.58336e-06
1.97082e-05
-5.39379e-06
2.0903e-05
-6.12326e-06
2.22304e-05
-6.78407e-06
2.36781e-05
-7.38315e-06
2.52344e-05
-7.92328e-06
2.68877e-05
-8.40439e-06
2.8626e-05
-8.82473e-06
3.04366e-05
-9.18182e-06
3.23064e-05
-9.47328e-06
3.42219e-05
-9.69742e-06
3.61695e-05
-9.85366e-06
3.81355e-05
-9.94275e-06
4.01069e-05
-9.96681e-06
4.20712e-05
-9.92926e-06
4.4017e-05
-9.83454e-06
4.59336e-05
-9.68797e-06
4.78118e-05
-9.49538e-06
4.96437e-05
-9.26294e-06
5.14223e-05
-8.99685e-06
5.31423e-05
-8.70323e-06
5.47992e-05
-8.38789e-06
5.63898e-05
-8.05627e-06
5.79118e-05
-7.71335e-06
5.93638e-05
-7.36363e-06
6.07454e-05
-7.01105e-06
6.20566e-05
-6.65908e-06
6.32981e-05
-6.31066e-06
6.44711e-05
-5.9683e-06
6.55772e-05
-5.63405e-06
6.66184e-05
-5.30955e-06
6.75968e-05
-4.99613e-06
6.85148e-05
-4.69476e-06
6.93749e-05
-4.40615e-06
7.01798e-05
-4.13074e-06
7.09319e-05
-3.86878e-06
7.1634e-05
-3.62033e-06
7.22887e-05
-3.38526e-06
7.28985e-05
-3.16334e-06
7.34659e-05
-2.95421e-06
7.39932e-05
-2.75738e-06
7.44829e-05
-2.57232e-06
7.49369e-05
-2.39838e-06
7.53574e-05
-2.23487e-06
7.57461e-05
-2.08105e-06
7.61047e-05
-1.9361e-06
7.64349e-05
-1.79918e-06
7.6738e-05
-1.6694e-06
7.70152e-05
-1.54583e-06
7.72676e-05
-1.42749e-06
7.74959e-05
-1.31338e-06
7.77008e-05
-1.20245e-06
7.78828e-05
-1.09359e-06
7.80423e-05
-9.85665e-07
7.81793e-05
-8.77477e-07
7.82937e-05
-7.67765e-07
7.83852e-05
-6.55199e-07
7.84535e-05
-5.38364e-07
7.84979e-05
-4.15751e-07
7.85176e-05
-2.85734e-07
7.85117e-05
-1.46548e-07
7.84791e-05
3.7742e-09
7.84188e-05
1.67398e-07
7.83297e-05
3.46617e-07
7.82108e-05
5.44037e-07
7.80617e-05
7.62553e-07
7.78822e-05
1.00538e-06
7.76734e-05
1.27606e-06
7.74377e-05
1.57841e-06
7.71799e-05
1.91637e-06
7.69082e-05
2.29375e-06
7.66355e-05
2.71373e-06
7.63808e-05
3.17794e-06
7.61712e-05
3.68523e-06
7.60417e-05
4.2298e-06
7.6034e-05
4.79882e-06
7.61903e-05
5.36979e-06
5.90828e-06
7.6537e-05
1.77196e-05
-1.65939e-06
1.8243e-05
-3.15135e-06
1.89875e-05
-4.4154e-06
1.99279e-05
-5.52202e-06
2.10435e-05
-6.5072e-06
2.23173e-05
-7.39443e-06
2.37348e-05
-8.19859e-06
2.52831e-05
-8.92806e-06
2.69497e-05
-9.58616e-06
2.87221e-05
-1.01728e-05
3.05873e-05
-1.06856e-05
3.25317e-05
-1.11216e-05
3.45409e-05
-1.14778e-05
3.66004e-05
-1.1752e-05
3.86952e-05
-1.19433e-05
4.08105e-05
-1.20528e-05
4.29318e-05
-1.20829e-05
4.50457e-05
-1.20378e-05
4.71395e-05
-1.19229e-05
4.92016e-05
-1.17447e-05
5.12221e-05
-1.15104e-05
5.31921e-05
-1.12275e-05
5.51042e-05
-1.09036e-05
5.69525e-05
-1.05462e-05
5.87322e-05
-1.01623e-05
6.04398e-05
-9.75869e-06
6.20728e-05
-9.34134e-06
6.36299e-05
-8.91575e-06
6.51105e-05
-8.48673e-06
6.65146e-05
-8.05849e-06
6.78432e-05
-7.6346e-06
6.90974e-05
-7.2181e-06
7.02792e-05
-6.81146e-06
7.13905e-05
-6.4167e-06
7.24337e-05
-6.03537e-06
7.34114e-05
-5.66868e-06
7.43264e-05
-5.31745e-06
7.51813e-05
-4.98223e-06
7.59791e-05
-4.66329e-06
7.67226e-05
-4.36069e-06
7.74145e-05
-4.07429e-06
7.80577e-05
-3.80378e-06
7.86547e-05
-3.5487e-06
7.92082e-05
-3.30849e-06
7.97205e-05
-3.08247e-06
8.01939e-05
-2.86988e-06
8.06307e-05
-2.66986e-06
8.10327e-05
-2.48151e-06
8.14019e-05
-2.30387e-06
8.17399e-05
-2.13591e-06
8.20481e-05
-1.97658e-06
8.23279e-05
-1.82477e-06
8.25804e-05
-1.67932e-06
8.28066e-05
-1.53905e-06
8.30073e-05
-1.40273e-06
8.3183e-05
-1.26908e-06
8.33342e-05
-1.1368e-06
8.34612e-05
-1.0045e-06
8.3564e-05
-8.70791e-07
8.36427e-05
-7.34177e-07
8.3697e-05
-5.93119e-07
8.37267e-05
-4.45998e-07
8.37315e-05
-2.9111e-07
8.37109e-05
-1.2665e-07
8.36645e-05
4.93287e-08
8.35922e-05
2.38855e-07
8.34939e-05
4.4401e-07
8.337e-05
6.67011e-07
8.32214e-05
9.10169e-07
8.30499e-05
1.17583e-06
8.28586e-05
1.46631e-06
8.26523e-05
1.78373e-06
8.24378e-05
2.12978e-06
8.22251e-05
2.50541e-06
8.20275e-05
2.91032e-06
8.18621e-05
3.34231e-06
8.17498e-05
3.79651e-06
8.17142e-05
4.26445e-06
8.17788e-05
4.73333e-06
8.19621e-05
5.1856e-06
5.59988e-06
8.22696e-05
1.89508e-05
-1.93153e-06
1.95005e-05
-3.70022e-06
2.02871e-05
-5.20068e-06
2.12845e-05
-6.51753e-06
2.24714e-05
-7.69172e-06
2.38298e-05
-8.7501e-06
2.53447e-05
-9.71016e-06
2.7002e-05
-1.05818e-05
2.87887e-05
-1.13688e-05
3.06912e-05
-1.20709e-05
3.26956e-05
-1.26854e-05
3.47871e-05
-1.32082e-05
3.69501e-05
-1.36357e-05
3.91686e-05
-1.39652e-05
4.14262e-05
-1.41954e-05
4.37066e-05
-1.43276e-05
4.59939e-05
-1.43645e-05
4.82732e-05
-1.43113e-05
5.05306e-05
-1.41744e-05
5.27534e-05
-1.39617e-05
5.49306e-05
-1.36817e-05
5.70525e-05
-1.33436e-05
5.91112e-05
-1.29564e-05
6.11e-05
-1.25292e-05
6.30138e-05
-1.20705e-05
6.48489e-05
-1.15882e-05
6.66026e-05
-1.10896e-05
6.82735e-05
-1.05813e-05
6.98609e-05
-1.00689e-05
7.13651e-05
-9.55756e-06
7.27869e-05
-9.0515e-06
7.41279e-05
-8.5543e-06
7.539e-05
-8.06892e-06
7.65755e-05
-7.59772e-06
7.7687e-05
-7.14258e-06
7.87273e-05
-6.70487e-06
7.96993e-05
-6.28557e-06
8.06061e-05
-5.88532e-06
8.14508e-05
-5.50443e-06
8.22364e-05
-5.14295e-06
8.29659e-05
-4.80069e-06
8.36424e-05
-4.47729e-06
8.42686e-05
-4.17218e-06
8.48473e-05
-3.88468e-06
8.53811e-05
-3.61399e-06
8.58725e-05
-3.35919e-06
8.63238e-05
-3.11928e-06
8.67372e-05
-2.89319e-06
8.71146e-05
-2.67978e-06
8.74579e-05
-2.47787e-06
8.77686e-05
-2.2862e-06
8.80483e-05
-2.1035e-06
8.82981e-05
-1.92843e-06
8.85193e-05
-1.75965e-06
8.87127e-05
-1.59574e-06
8.88792e-05
-1.43528e-06
8.90192e-05
-1.2768e-06
8.91335e-05
-1.1188e-06
8.92222e-05
-9.59726e-07
8.92857e-05
-7.98015e-07
8.93242e-05
-6.32043e-07
8.93378e-05
-4.60156e-07
8.93266e-05
-2.80654e-07
8.9291e-05
-9.17995e-08
8.92313e-05
1.0821e-07
8.91481e-05
3.21119e-07
8.90425e-05
5.48658e-07
8.89159e-05
7.92515e-07
8.87708e-05
1.05428e-06
8.86102e-05
1.33534e-06
8.84385e-05
1.6368e-06
8.82619e-05
1.95925e-06
8.80879e-05
2.30264e-06
8.79262e-05
2.66591e-06
8.77887e-05
3.04674e-06
8.76888e-05
3.44115e-06
8.7641e-05
3.8432e-06
8.76597e-05
4.24471e-06
8.77567e-05
4.63529e-06
8.79387e-05
5.00272e-06
5.33439e-06
8.82032e-05
2.02687e-05
-2.21553e-06
2.08468e-05
-4.27745e-06
2.16785e-05
-6.03101e-06
2.27371e-05
-7.57411e-06
2.40008e-05
-8.95282e-06
2.54509e-05
-1.01972e-05
2.70714e-05
-1.13272e-05
2.88479e-05
-1.23543e-05
3.07662e-05
-1.32828e-05
3.2812e-05
-1.41121e-05
3.49703e-05
-1.48386e-05
3.72249e-05
-1.54576e-05
3.95589e-05
-1.59642e-05
4.19544e-05
-1.6355e-05
4.43934e-05
-1.66286e-05
4.68579e-05
-1.67859e-05
4.93302e-05
-1.68307e-05
5.17937e-05
-1.67686e-05
5.42331e-05
-1.66075e-05
5.66343e-05
-1.63566e-05
5.89852e-05
-1.60262e-05
6.12751e-05
-1.56272e-05
6.34953e-05
-1.51703e-05
6.56385e-05
-1.46663e-05
6.76994e-05
-1.41252e-05
6.96737e-05
-1.35565e-05
7.15588e-05
-1.29688e-05
7.3353e-05
-1.23697e-05
7.50558e-05
-1.17661e-05
7.66676e-05
-1.11638e-05
7.81894e-05
-1.05679e-05
7.96228e-05
-9.98261e-06
8.09702e-05
-9.41127e-06
8.2234e-05
-8.85671e-06
8.34171e-05
-8.32107e-06
8.45226e-05
-7.80596e-06
8.55538e-05
-7.3125e-06
8.65139e-05
-6.84141e-06
8.74063e-05
-6.39303e-06
8.82343e-05
-5.9674e-06
8.90012e-05
-5.56429e-06
8.97103e-05
-5.18323e-06
9.03647e-05
-4.82357e-06
9.09672e-05
-4.48451e-06
9.15208e-05
-4.16508e-06
9.20281e-05
-3.86421e-06
9.24916e-05
-3.58075e-06
9.29137e-05
-3.31345e-06
9.32965e-05
-3.06099e-06
9.3642e-05
-2.82199e-06
9.39521e-05
-2.59505e-06
9.42283e-05
-2.3787e-06
9.44721e-05
-2.17144e-06
9.46848e-05
-1.97175e-06
9.48675e-05
-1.77808e-06
9.50214e-05
-1.58885e-06
9.51471e-05
-1.40247e-06
9.52456e-05
-1.21732e-06
9.53174e-05
-1.03179e-06
9.53633e-05
-8.44249e-07
9.53838e-05
-6.53059e-07
9.53796e-05
-4.56597e-07
9.53515e-05
-2.53248e-07
9.53003e-05
-4.14244e-08
9.52271e-05
1.80445e-07
9.51335e-05
4.13732e-07
9.50214e-05
6.59733e-07
9.48932e-05
9.19566e-07
9.47522e-05
1.1941e-06
9.46025e-05
1.48385e-06
9.44492e-05
1.78892e-06
9.42984e-05
2.10878e-06
9.41576e-05
2.4422e-06
9.40353e-05
2.78705e-06
9.39407e-05
3.14013e-06
9.38836e-05
3.4971e-06
9.38732e-05
3.85236e-06
9.39176e-05
4.19921e-06
9.40218e-05
4.53e-06
9.41867e-05
4.83676e-06
5.11226e-06
9.44078e-05
2.16793e-05
-2.51318e-06
2.22885e-05
-4.88569e-06
2.31693e-05
-6.91027e-06
2.42943e-05
-8.69695e-06
2.56414e-05
-1.02972e-05
2.71915e-05
-1.1744e-05
2.89279e-05
-1.30599e-05
3.08356e-05
-1.42577e-05
3.28995e-05
-1.53421e-05
3.51046e-05
-1.63121e-05
3.74344e-05
-1.71631e-05
3.98715e-05
-1.78889e-05
4.23971e-05
-1.84838e-05
4.49914e-05
-1.89431e-05
4.76344e-05
-1.92651e-05
5.03057e-05
-1.94508e-05
5.29858e-05
-1.95041e-05
5.5656e-05
-1.94321e-05
5.82992e-05
-1.92438e-05
6.08997e-05
-1.89503e-05
6.3444e-05
-1.85637e-05
6.59204e-05
-1.80968e-05
6.83193e-05
-1.75625e-05
7.06329e-05
-1.69732e-05
7.28552e-05
-1.63409e-05
7.49819e-05
-1.56767e-05
7.701e-05
-1.49905e-05
7.8938e-05
-1.42915e-05
8.07655e-05
-1.35875e-05
8.24929e-05
-1.28853e-05
8.41215e-05
-1.21908e-05
8.56533e-05
-1.15088e-05
8.70908e-05
-1.08434e-05
8.84368e-05
-1.01976e-05
8.96946e-05
-9.57391e-06
9.08677e-05
-8.97422e-06
9.19595e-05
-8.39977e-06
9.29737e-05
-7.85135e-06
9.39141e-05
-7.32932e-06
9.47843e-05
-6.8337e-06
9.55878e-05
-6.3642e-06
9.63283e-05
-5.92026e-06
9.7009e-05
-5.50111e-06
9.76332e-05
-5.10579e-06
9.8204e-05
-4.7332e-06
9.87243e-05
-4.38209e-06
9.91968e-05
-4.05113e-06
9.96243e-05
-3.73889e-06
0.000100009
-3.44387e-06
0.000100353
-3.16452e-06
0.000100658
-2.89924e-06
0.000100927
-2.64639e-06
0.000101161
-2.40432e-06
0.000101361
-2.17135e-06
0.000101529
-1.94579e-06
0.000101667
-1.72594e-06
0.000101774
-1.51012e-06
0.000101854
-1.29663e-06
0.000101905
-1.08381e-06
0.000101931
-8.70031e-07
0.000101931
-6.53691e-07
0.000101907
-4.3325e-07
0.00010186
-2.07235e-07
0.000101792
2.57429e-08
0.000101704
2.66972e-07
0.0001016
5.17418e-07
0.00010148
7.77956e-07
0.000101349
1.04917e-06
0.000101211
1.33133e-06
0.000101069
1.62428e-06
0.00010093
1.92739e-06
0.000100797
2.23948e-06
0.00010068
2.55872e-06
0.000100583
2.8826e-06
0.000100514
3.20784e-06
0.000100479
3.53049e-06
0.000100484
3.84593e-06
0.000100533
4.1491e-06
0.000100627
4.43472e-06
0.000100765
4.69779e-06
4.93432e-06
0.000100942
2.31892e-05
-2.82649e-06
2.38328e-05
-5.52827e-06
2.47675e-05
-7.84325e-06
2.59653e-05
-9.89243e-06
2.74041e-05
-1.17329e-05
2.90643e-05
-1.34006e-05
3.09289e-05
-1.49204e-05
3.29822e-05
-1.63064e-05
3.52088e-05
-1.75636e-05
3.75925e-05
-1.86902e-05
4.01155e-05
-1.96802e-05
4.27587e-05
-2.0526e-05
4.55013e-05
-2.12198e-05
4.83211e-05
-2.17562e-05
5.11953e-05
-2.21324e-05
5.41012e-05
-2.23495e-05
5.70165e-05
-2.24122e-05
5.99201e-05
-2.23284e-05
6.27927e-05
-2.2109e-05
6.56169e-05
-2.17671e-05
6.83777e-05
-2.1317e-05
7.10619e-05
-2.07737e-05
7.36592e-05
-2.01524e-05
7.61609e-05
-1.94677e-05
7.85608e-05
-1.87336e-05
8.08542e-05
-1.7963e-05
8.30381e-05
-1.71675e-05
8.5111e-05
-1.63577e-05
8.70727e-05
-1.55426e-05
8.8924e-05
-1.47301e-05
9.06663e-05
-1.39269e-05
9.23022e-05
-1.31386e-05
9.38343e-05
-1.23697e-05
9.52661e-05
-1.16238e-05
9.66012e-05
-1.09036e-05
9.78435e-05
-1.02113e-05
9.89968e-05
-9.54822e-06
0.000100065
-8.91523e-06
0.000101053
-8.31272e-06
0.000101964
-7.74066e-06
0.000102803
-7.19868e-06
0.000103572
-6.68612e-06
0.000104277
-6.20207e-06
0.000104919
-5.7454e-06
0.000105504
-5.31486e-06
0.000106033
-4.90901e-06
0.000106511
-4.52632e-06
0.000106939
-4.16519e-06
0.000107321
-3.82393e-06
0.000107659
-3.5008e-06
0.000107955
-3.19402e-06
0.000108212
-2.90179e-06
0.000108431
-2.62229e-06
0.000108614
-2.35371e-06
0.000108763
-2.09424e-06
0.000108879
-1.84208e-06
0.000108965
-1.59546e-06
0.000109021
-1.35267e-06
0.000109049
-1.11202e-06
0.00010905
-8.7191e-07
0.000109027
-6.30811e-07
0.00010898
-3.87301e-07
0.000108912
-1.40077e-07
0.000108825
1.12051e-07
0.00010872
3.69997e-07
0.000108602
6.34472e-07
0.000108473
9.05949e-07
0.000108336
1.18459e-06
0.000108196
1.47022e-06
0.000108057
1.76226e-06
0.000107923
2.05969e-06
0.0001078
2.36103e-06
0.000107693
2.66432e-06
0.000107607
2.96711e-06
0.000107547
3.26651e-06
0.000107517
3.55926e-06
0.000107519
3.84185e-06
0.000107556
4.11068e-06
0.000107628
4.36227e-06
0.000107731
4.59356e-06
4.80251e-06
0.000107861
2.48054e-05
-3.15776e-06
2.54874e-05
-6.2092e-06
2.64818e-05
-8.83575e-06
2.77603e-05
-1.11683e-05
2.93005e-05
-1.327e-05
3.10832e-05
-1.51794e-05
3.3091e-05
-1.69237e-05
3.53079e-05
-1.85184e-05
3.77181e-05
-1.99682e-05
4.03042e-05
-2.12704e-05
4.30473e-05
-2.24169e-05
4.59259e-05
-2.33979e-05
4.89168e-05
-2.42036e-05
5.19947e-05
-2.48268e-05
5.51337e-05
-2.52639e-05
5.83076e-05
-2.55157e-05
6.1491e-05
-2.55877e-05
6.46599e-05
-2.54893e-05
6.77923e-05
-2.52335e-05
7.08688e-05
-2.48355e-05
7.38723e-05
-2.43125e-05
7.67886e-05
-2.36821e-05
7.96061e-05
-2.2962e-05
8.23158e-05
-2.21695e-05
8.49107e-05
-2.13208e-05
8.73861e-05
-2.04308e-05
8.97392e-05
-1.95131e-05
9.19685e-05
-1.85797e-05
9.40742e-05
-1.76411e-05
9.60574e-05
-1.67063e-05
9.792e-05
-1.57828e-05
9.9665e-05
-1.48771e-05
0.000101296
-1.39941e-05
0.000102816
-1.3138e-05
0.00010423
-1.23118e-05
0.000105542
-1.15179e-05
0.000106757
-1.07576e-05
0.000107879
-1.0032e-05
0.000108912
-9.3415e-06
0.000109862
-8.6859e-06
0.000110732
-8.06478e-06
0.000111528
-7.47734e-06
0.000112252
-6.92251e-06
0.000112909
-6.39901e-06
0.000113502
-5.90537e-06
0.000114036
-5.43998e-06
0.000114514
-5.00111e-06
0.000114938
-4.58694e-06
0.000115311
-4.19561e-06
0.000115637
-3.82517e-06
0.000115919
-3.47368e-06
0.000116157
-3.13916e-06
0.000116355
-2.81967e-06
0.000116516
-2.51325e-06
0.00011664
-2.21798e-06
0.00011673
-1.93199e-06
0.000116788
-1.65346e-06
0.000116816
-1.38064e-06
0.000116816
-1.11188e-06
0.000116789
-8.45604e-07
0.000116738
-5.80384e-07
0.000116665
-3.14922e-07
0.000116572
-4.8077e-08
0.000116462
2.21134e-07
0.000116337
4.93346e-07
0.000116201
7.69039e-07
0.000116058
1.04841e-06
0.000115909
1.33134e-06
0.000115761
1.61741e-06
0.000115616
1.90582e-06
0.000115478
2.19544e-06
0.000115353
2.4848e-06
0.000115244
2.77207e-06
0.000115154
3.05514e-06
0.000115088
3.33169e-06
0.000115046
3.59923e-06
0.000115031
3.85524e-06
0.000115043
4.09727e-06
0.000115081
4.32312e-06
0.000115142
4.53101e-06
4.72001e-06
0.000115223
2.65353e-05
-3.50956e-06
2.72606e-05
-6.93336e-06
2.83217e-05
-9.89482e-06
2.96903e-05
-1.25341e-05
3.13442e-05
-1.49204e-05
3.32644e-05
-1.70954e-05
3.54339e-05
-1.90883e-05
3.78366e-05
-2.09157e-05
4.04564e-05
-2.2582e-05
4.32749e-05
-2.40824e-05
4.62716e-05
-2.54066e-05
4.94224e-05
-2.65413e-05
5.27005e-05
-2.74741e-05
5.60771e-05
-2.81954e-05
5.95218e-05
-2.87003e-05
6.30043e-05
-2.89898e-05
6.64952e-05
-2.907e-05
6.9967e-05
-2.89524e-05
7.33946e-05
-2.86523e-05
7.67559e-05
-2.81881e-05
8.0032e-05
-2.75799e-05
8.32073e-05
-2.68486e-05
8.62691e-05
-2.60152e-05
8.92078e-05
-2.50996e-05
9.20162e-05
-2.41207e-05
9.46896e-05
-2.30959e-05
9.72252e-05
-2.20406e-05
9.96223e-05
-2.09688e-05
0.000101881
-1.98922e-05
0.000104003
-1.88211e-05
0.000105992
-1.77641e-05
0.00010785
-1.67283e-05
0.000109582
-1.57193e-05
0.000111193
-1.47416e-05
0.000112686
-1.37988e-05
0.000114067
-1.28931e-05
0.000115342
-1.20263e-05
0.000116514
-1.11993e-05
0.00011759
-1.04124e-05
0.000118575
-9.66553e-06
0.000119473
-8.95802e-06
0.000120289
-8.28893e-06
0.000121027
-7.65703e-06
0.000121693
-7.06082e-06
0.000122289
-6.49863e-06
0.000122821
-5.96865e-06
0.000123292
-5.46892e-06
0.000123704
-4.99742e-06
0.000124063
-4.55208e-06
0.000124371
-4.13077e-06
0.00012463
-3.73135e-06
0.000124844
-3.35172e-06
0.000125015
-2.98975e-06
0.000125146
-2.64338e-06
0.000125239
-2.3106e-06
0.000125297
-1.98946e-06
0.000125322
-1.67811e-06
0.000125316
-1.37478e-06
0.000125281
-1.07784e-06
0.000125221
-7.85772e-07
0.000125137
-4.97224e-07
0.000125032
-2.1101e-07
0.000124909
7.3899e-08
0.000124771
3.58251e-07
0.000124621
6.42565e-07
0.000124461
9.27153e-07
0.000124296
1.21205e-06
0.000124129
1.49702e-06
0.000123963
1.78154e-06
0.000123803
2.06481e-06
0.000123651
2.34578e-06
0.000123511
2.62315e-06
0.000123386
2.89541e-06
0.000123278
3.16091e-06
0.00012319
3.41789e-06
0.000123123
3.66458e-06
0.000123078
3.89927e-06
0.000123053
4.12038e-06
0.000123048
4.3266e-06
0.000123061
4.51693e-06
4.69113e-06
0.000123088
2.83868e-05
-3.88489e-06
2.91614e-05
-7.70659e-06
3.02978e-05
-1.1029e-05
3.1768e-05
-1.40013e-05
3.35505e-05
-1.66991e-05
3.5627e-05
-1.91672e-05
3.79811e-05
-2.14371e-05
4.05976e-05
-2.35261e-05
4.34599e-05
-2.54377e-05
4.6549e-05
-2.71644e-05
4.98418e-05
-2.86917e-05
5.33109e-05
-3.00024e-05
5.69251e-05
-3.10799e-05
6.06503e-05
-3.19118e-05
6.44507e-05
-3.24918e-05
6.82906e-05
-3.28205e-05
7.21357e-05
-3.29058e-05
7.59541e-05
-3.27613e-05
7.97172e-05
-3.24058e-05
8.34e-05
-3.18613e-05
8.69816e-05
-3.11519e-05
9.04449e-05
-3.03024e-05
9.37763e-05
-2.93371e-05
9.69658e-05
-2.82797e-05
0.000100006
-2.71519e-05
0.000102893
-2.59736e-05
0.000105624
-2.47627e-05
0.000108199
-2.35349e-05
0.000110619
-2.23036e-05
0.000112886
-2.10803e-05
0.000115005
-1.98746e-05
0.000116978
-1.86944e-05
0.000118812
-1.75459e-05
0.000120512
-1.64341e-05
0.000122083
-1.53627e-05
0.000123531
-1.43342e-05
0.000124861
-1.33505e-05
0.00012608
-1.24124e-05
0.000127194
-1.15203e-05
0.000128207
-1.06737e-05
0.000129126
-9.87204e-06
0.000129956
-9.1141e-06
0.000130702
-8.39843e-06
0.000131368
-7.72333e-06
0.00013196
-7.08689e-06
0.000132482
-6.48706e-06
0.000132938
-5.92166e-06
0.000133331
-5.38846e-06
0.000133667
-4.88514e-06
0.000133948
-4.4094e-06
0.000134177
-3.95892e-06
0.000134358
-3.53141e-06
0.000134494
-3.12463e-06
0.000134588
-2.73639e-06
0.000134643
-2.36458e-06
0.000134661
-2.00719e-06
0.000134645
-1.66232e-06
0.000134598
-1.32819e-06
0.000134523
-1.00319e-06
0.000134423
-6.85823e-07
0.0001343
-3.74809e-07
0.000134157
-6.90242e-08
0.000133997
2.32502e-07
0.000133824
5.30352e-07
0.00013364
8.25011e-07
0.000133449
1.11672e-06
0.000133254
1.40547e-06
0.000133059
1.69103e-06
0.000132865
1.97293e-06
0.000132678
2.25049e-06
0.000132499
2.52286e-06
0.000132331
2.78902e-06
0.000132177
3.04785e-06
0.000132038
3.29814e-06
0.000131916
3.53868e-06
0.00013181
3.76829e-06
0.000131722
3.9859e-06
0.00013165
4.19055e-06
0.000131593
4.38151e-06
0.00013155
4.55833e-06
4.72115e-06
0.000131519
3.03686e-05
-4.28724e-06
3.11994e-05
-8.53593e-06
3.24215e-05
-1.22487e-05
3.40076e-05
-1.5584e-05
3.59373e-05
-1.86245e-05
3.81935e-05
-2.14184e-05
4.07617e-05
-2.39995e-05
4.36276e-05
-2.63854e-05
4.67749e-05
-2.85778e-05
5.01832e-05
-3.05649e-05
5.38264e-05
-3.23266e-05
5.76723e-05
-3.38395e-05
6.16835e-05
-3.50818e-05
6.58188e-05
-3.60375e-05
7.00352e-05
-3.66983e-05
7.42903e-05
-3.70655e-05
7.85436e-05
-3.71488e-05
8.27582e-05
-3.69655e-05
8.69015e-05
-3.65386e-05
9.09455e-05
-3.58948e-05
9.48672e-05
-3.50632e-05
9.86482e-05
-3.4073e-05
0.000102275
-3.29531e-05
0.000105736
-3.17308e-05
0.000109026
-3.04314e-05
0.00011214
-2.90777e-05
0.000115077
-2.769e-05
0.000117837
-2.62859e-05
0.000120423
-2.48806e-05
0.000122839
-2.3487e-05
0.000125089
-2.21155e-05
0.000127178
-2.07749e-05
0.000129112
-1.9472e-05
0.000130898
-1.82121e-05
0.000132542
-1.69992e-05
0.000134051
-1.58359e-05
0.000135431
-1.47241e-05
0.00013669
-1.36645e-05
0.000137833
-1.26574e-05
0.000138868
-1.17023e-05
0.000139799
-1.07983e-05
0.000140634
-9.9439e-06
0.000141378
-9.13749e-06
0.000142036
-8.37708e-06
0.000142614
-7.66052e-06
0.000143116
-6.98548e-06
0.000143547
-6.34956e-06
0.000143912
-5.75025e-06
0.000144214
-5.18505e-06
0.000144458
-4.65142e-06
0.000144648
-4.14686e-06
0.000144787
-3.6689e-06
0.000144879
-3.21516e-06
0.000144927
-2.78332e-06
0.000144934
-2.37118e-06
0.000144904
-1.97665e-06
0.00014484
-1.59776e-06
0.000144744