/*--------------------------------*- C++ -*----------------------------------*\
  =========                 |
  \\      /  F ield         | OpenFOAM: The Open Source CFD Toolbox
   \\    /   O peration     | Website:  https://openfoam.org
    \\  /    A nd           | Version:  7
     \\/     M anipulation  |
\*---------------------------------------------------------------------------*/
FoamFile
{
    version     2.0;
    format      ascii;
    class       surfaceScalarField;
    location    "1.89";
    object      phi;
}
// * * * * * * * * * * * * * * * * * * * * * * * * * * * * * * * * * * * * * //

dimensions      [1 0 -1 0 0 0 0];

internalField   nonuniform List<scalar> 
23692
(
1.1732e-05
-9.71619e-08
1.1911e-05
-1.78827e-07
1.21646e-05
-2.53493e-07
1.24853e-05
-3.20514e-07
1.28666e-05
-3.8107e-07
1.33026e-05
-4.35684e-07
1.37876e-05
-4.84605e-07
1.4316e-05
-5.28069e-07
1.48827e-05
-5.66325e-07
1.54827e-05
-5.99664e-07
1.61116e-05
-6.28435e-07
1.67649e-05
-6.53032e-07
1.74392e-05
-6.73876e-07
1.81309e-05
-6.91406e-07
1.88372e-05
-7.06057e-07
1.95556e-05
-7.18243e-07
2.0284e-05
-7.28348e-07
2.10208e-05
-7.36719e-07
2.17644e-05
-7.43657e-07
2.25136e-05
-7.49419e-07
2.32675e-05
-7.54216e-07
2.40253e-05
-7.58217e-07
2.47863e-05
-7.61551e-07
2.55499e-05
-7.64312e-07
2.63157e-05
-7.66567e-07
2.7083e-05
-7.68356e-07
2.78515e-05
-7.69697e-07
2.86207e-05
-7.70597e-07
2.93902e-05
-7.71046e-07
3.01595e-05
-7.71028e-07
3.09281e-05
-7.70519e-07
3.16955e-05
-7.69493e-07
3.24611e-05
-7.6792e-07
3.32244e-05
-7.65769e-07
3.39846e-05
-7.6301e-07
3.47413e-05
-7.59615e-07
3.54937e-05
-7.55555e-07
3.62412e-05
-7.50802e-07
3.69829e-05
-7.45333e-07
3.77183e-05
-7.39122e-07
3.84464e-05
-7.32147e-07
3.91666e-05
-7.24387e-07
3.9878e-05
-7.1582e-07
4.05798e-05
-7.06425e-07
4.12712e-05
-6.96181e-07
4.19512e-05
-6.85066e-07
4.26191e-05
-6.73058e-07
4.32738e-05
-6.60131e-07
4.39145e-05
-6.46259e-07
4.45401e-05
-6.31413e-07
4.51497e-05
-6.15558e-07
4.57422e-05
-5.98657e-07
4.63166e-05
-5.80668e-07
4.68717e-05
-5.61541e-07
4.74064e-05
-5.4122e-07
4.79193e-05
-5.1964e-07
4.84092e-05
-4.96724e-07
4.88746e-05
-4.72384e-07
4.9314e-05
-4.46516e-07
4.97259e-05
-4.18996e-07
5.01083e-05
-3.89676e-07
5.04593e-05
-3.5838e-07
5.07768e-05
-3.24893e-07
5.10583e-05
-2.88951e-07
5.1301e-05
-2.50228e-07
5.15018e-05
-2.08313e-07
5.1657e-05
-1.62685e-07
5.17621e-05
-1.12671e-07
5.1812e-05
-5.73952e-08
5.18002e-05
4.30791e-09
5.17185e-05
7.42348e-08
5.15561e-05
1.55e-07
5.12984e-05
2.50442e-07
5.09248e-05
3.66469e-07
5.04051e-05
5.1261e-07
4.96933e-05
7.04928e-07
4.87147e-05
9.71778e-07
4.73421e-05
1.36608e-06
4.53388e-05
1.99697e-06
4.21999e-05
3.13276e-06
5.86453e-06
3.63296e-05
1.25511e-05
-1.98642e-07
1.27416e-05
-3.69201e-07
1.30123e-05
-5.24006e-07
1.33547e-05
-6.62724e-07
1.3762e-05
-7.88094e-07
1.42278e-05
-9.01147e-07
1.47459e-05
-1.0024e-06
1.53106e-05
-1.09234e-06
1.59162e-05
-1.1715e-06
1.65574e-05
-1.24047e-06
1.72293e-05
-1.29998e-06
1.79275e-05
-1.35084e-06
1.86479e-05
-1.39393e-06
1.9387e-05
-1.43016e-06
2.01416e-05
-1.46043e-06
2.09092e-05
-1.48559e-06
2.16874e-05
-1.50644e-06
2.24744e-05
-1.5237e-06
2.32686e-05
-1.538e-06
2.40689e-05
-1.54985e-06
2.48741e-05
-1.55971e-06
2.56833e-05
-1.56792e-06
2.64959e-05
-1.57475e-06
2.73113e-05
-1.5804e-06
2.81288e-05
-1.58499e-06
2.89479e-05
-1.58861e-06
2.97683e-05
-1.59131e-06
3.05893e-05
-1.59309e-06
3.14106e-05
-1.59394e-06
3.22315e-05
-1.59382e-06
3.30516e-05
-1.59268e-06
3.38703e-05
-1.59046e-06
3.4687e-05
-1.58711e-06
3.55011e-05
-1.58256e-06
3.6312e-05
-1.57675e-06
3.71188e-05
-1.56962e-06
3.7921e-05
-1.56111e-06
3.87178e-05
-1.55116e-06
3.95083e-05
-1.53972e-06
4.02919e-05
-1.52674e-06
4.10676e-05
-1.51217e-06
4.18347e-05
-1.49598e-06
4.25923e-05
-1.47811e-06
4.33394e-05
-1.45852e-06
4.40753e-05
-1.43716e-06
4.47988e-05
-1.414e-06
4.55092e-05
-1.38899e-06
4.62053e-05
-1.36207e-06
4.68863e-05
-1.33319e-06
4.7551e-05
-1.30229e-06
4.81983e-05
-1.26929e-06
4.88273e-05
-1.23414e-06
4.94366e-05
-1.19672e-06
5.00252e-05
-1.15696e-06
5.05916e-05
-1.11473e-06
5.11347e-05
-1.06989e-06
5.16529e-05
-1.0223e-06
5.21449e-05
-9.71782e-07
5.26089e-05
-9.18116e-07
5.30433e-05
-8.61059e-07
5.34462e-05
-8.00315e-07
5.38154e-05
-7.35529e-07
5.41489e-05
-6.66275e-07
5.4444e-05
-5.92028e-07
5.46979e-05
-5.12143e-07
5.49073e-05
-4.25812e-07
5.50686e-05
-3.32012e-07
5.51773e-05
-2.29431e-07
5.52282e-05
-1.16362e-07
5.5215e-05
9.46271e-09
5.513e-05
1.51339e-07
5.49632e-05
3.13941e-07
5.47018e-05
5.04008e-07
5.43291e-05
7.3152e-07
5.38224e-05
1.01172e-06
5.31514e-05
1.36856e-06
5.22754e-05
1.84051e-06
5.11438e-05
2.49065e-06
4.97075e-05
3.42646e-06
4.80017e-05
4.83203e-06
6.92536e-06
4.69346e-05
1.34267e-05
-3.0394e-07
1.36286e-05
-5.71056e-07
1.39164e-05
-8.11558e-07
1.4281e-05
-1.02717e-06
1.47152e-05
-1.22195e-06
1.52119e-05
-1.39753e-06
1.57647e-05
-1.55475e-06
1.63671e-05
-1.69437e-06
1.70132e-05
-1.81721e-06
1.76974e-05
-1.92423e-06
1.84144e-05
-2.01653e-06
1.91594e-05
-2.09539e-06
1.9928e-05
-2.16217e-06
2.07165e-05
-2.21829e-06
2.15215e-05
-2.26514e-06
2.23401e-05
-2.30406e-06
2.31701e-05
-2.33628e-06
2.40094e-05
-2.36293e-06
2.48563e-05
-2.38496e-06
2.57094e-05
-2.4032e-06
2.65677e-05
-2.41834e-06
2.74302e-05
-2.43092e-06
2.82962e-05
-2.44134e-06
2.91649e-05
-2.44992e-06
3.00358e-05
-2.45687e-06
3.09083e-05
-2.4623e-06
3.1782e-05
-2.4663e-06
3.26562e-05
-2.46887e-06
3.35304e-05
-2.46998e-06
3.44042e-05
-2.46957e-06
3.52769e-05
-2.46759e-06
3.6148e-05
-2.46392e-06
3.70167e-05
-2.45849e-06
3.78824e-05
-2.45118e-06
3.87445e-05
-2.44191e-06
3.96021e-05
-2.43058e-06
4.04544e-05
-2.4171e-06
4.13008e-05
-2.40137e-06
4.21403e-05
-2.38332e-06
4.29721e-05
-2.36288e-06
4.37953e-05
-2.33996e-06
4.4609e-05
-2.31449e-06
4.54123e-05
-2.28642e-06
4.62042e-05
-2.25566e-06
4.69836e-05
-2.22216e-06
4.77497e-05
-2.18584e-06
4.85014e-05
-2.14663e-06
4.92376e-05
-2.10445e-06
4.99572e-05
-2.05923e-06
5.06592e-05
-2.01086e-06
5.13423e-05
-1.95924e-06
5.20054e-05
-1.90426e-06
5.26473e-05
-1.84578e-06
5.32666e-05
-1.78365e-06
5.3862e-05
-1.71771e-06
5.44322e-05
-1.64775e-06
5.49756e-05
-1.57354e-06
5.54907e-05
-1.49482e-06
5.59757e-05
-1.41128e-06
5.6429e-05
-1.32255e-06
5.68485e-05
-1.22818e-06
5.72323e-05
-1.12768e-06
5.75779e-05
-1.02041e-06
5.7883e-05
-9.0561e-07
5.81446e-05
-7.8236e-07
5.83597e-05
-6.49505e-07
5.85246e-05
-5.05602e-07
5.86354e-05
-3.48812e-07
5.86872e-05
-1.76772e-07
5.86745e-05
1.35815e-08
5.85908e-05
2.26496e-07
5.84286e-05
4.67705e-07
5.8179e-05
7.45216e-07
5.78321e-05
1.0702e-06
5.73773e-05
1.45841e-06
5.68058e-05
1.93219e-06
5.61156e-05
2.52296e-06
5.5325e-05
3.27368e-06
5.45048e-05
4.23933e-06
5.38572e-05
5.47253e-06
6.94206e-06
5.38337e-05
1.43631e-05
-4.12925e-07
1.45763e-05
-7.84092e-07
1.48812e-05
-1.11625e-06
1.52685e-05
-1.41431e-06
1.57303e-05
-1.68342e-06
1.62591e-05
-1.92591e-06
1.68477e-05
-2.14296e-06
1.74894e-05
-2.33566e-06
1.81778e-05
-2.50513e-06
1.89068e-05
-2.65271e-06
1.96707e-05
-2.77995e-06
2.04643e-05
-2.8886e-06
2.12831e-05
-2.98057e-06
2.2123e-05
-3.05779e-06
2.29803e-05
-3.1222e-06
2.38522e-05
-3.17565e-06
2.47359e-05
-3.21984e-06
2.56293e-05
-3.25632e-06
2.65307e-05
-3.28643e-06
2.74386e-05
-3.31131e-06
2.83518e-05
-3.33189e-06
2.92693e-05
-3.34892e-06
3.01902e-05
-3.36298e-06
3.11139e-05
-3.37449e-06
3.20398e-05
-3.38373e-06
3.29671e-05
-3.39088e-06
3.38954e-05
-3.39604e-06
3.48241e-05
-3.39921e-06
3.57526e-05
-3.40036e-06
3.66803e-05
-3.39942e-06
3.76066e-05
-3.39627e-06
3.85309e-05
-3.3908e-06
3.94525e-05
-3.38288e-06
4.03706e-05
-3.37236e-06
4.12844e-05
-3.35911e-06
4.21932e-05
-3.34301e-06
4.30962e-05
-3.32391e-06
4.39924e-05
-3.30171e-06
4.4881e-05
-3.27629e-06
4.57611e-05
-3.24754e-06
4.66316e-05
-3.21537e-06
4.74916e-05
-3.17966e-06
4.83401e-05
-3.14033e-06
4.91761e-05
-3.09729e-06
4.99985e-05
-3.05044e-06
5.08062e-05
-2.99969e-06
5.15981e-05
-2.94494e-06
5.23731e-05
-2.88608e-06
5.313e-05
-2.82301e-06
5.38677e-05
-2.75559e-06
5.45848e-05
-2.6837e-06
5.52803e-05
-2.60716e-06
5.59526e-05
-2.52582e-06
5.66005e-05
-2.43947e-06
5.72226e-05
-2.34789e-06
5.78175e-05
-2.25081e-06
5.83835e-05
-2.14794e-06
5.8919e-05
-2.03894e-06
5.94225e-05
-1.9234e-06
5.9892e-05
-1.80085e-06
6.03256e-05
-1.67074e-06
6.07214e-05
-1.53241e-06
6.1077e-05
-1.38509e-06
6.13901e-05
-1.22784e-06
6.1658e-05
-1.05951e-06
6.1878e-05
-8.78708e-07
6.20468e-05
-6.83713e-07
6.21612e-05
-4.72367e-07
6.22171e-05
-2.41953e-07
6.22106e-05
1.09047e-08
6.21373e-05
2.90727e-07
6.19928e-05
6.03069e-07
6.17736e-05
9.555e-07
6.14772e-05
1.35774e-06
6.11048e-05
1.82216e-06
6.06643e-05
2.36414e-06
6.01773e-05
3.00169e-06
5.96892e-05
3.75361e-06
5.92867e-05
4.63396e-06
5.91137e-05
5.63791e-06
6.70568e-06
5.93427e-05
1.53648e-05
-5.25611e-07
1.5589e-05
-1.00814e-06
1.59112e-05
-1.4382e-06
1.63217e-05
-1.82455e-06
1.68119e-05
-2.17326e-06
1.73736e-05
-2.48731e-06
1.79994e-05
-2.7683e-06
1.86819e-05
-3.01766e-06
1.94141e-05
-3.23688e-06
2.01896e-05
-3.42767e-06
2.10022e-05
-3.59208e-06
2.18465e-05
-3.73239e-06
2.27174e-05
-3.85105e-06
2.36106e-05
-3.9506e-06
2.45223e-05
-4.03355e-06
2.54492e-05
-4.10229e-06
2.63885e-05
-4.15903e-06
2.7338e-05
-4.20577e-06
2.82958e-05
-4.24425e-06
2.92602e-05
-4.27595e-06
3.023e-05
-4.30208e-06
3.12041e-05
-4.3236e-06
3.21817e-05
-4.34127e-06
3.31619e-05
-4.35562e-06
3.41441e-05
-4.36702e-06
3.51276e-05
-4.37572e-06
3.61119e-05
-4.38182e-06
3.70962e-05
-4.38534e-06
3.80801e-05
-4.38623e-06
3.90628e-05
-4.3844e-06
4.00437e-05
-4.3797e-06
4.10221e-05
-4.37197e-06
4.19973e-05
-4.36105e-06
4.29684e-05
-4.34676e-06
4.39346e-05
-4.32892e-06
4.48951e-05
-4.30736e-06
4.5849e-05
-4.28192e-06
4.67953e-05
-4.25243e-06
4.77331e-05
-4.21875e-06
4.86613e-05
-4.18074e-06
4.9579e-05
-4.13828e-06
5.04851e-05
-4.09122e-06
5.13784e-05
-4.03947e-06
5.2258e-05
-3.98288e-06
5.31226e-05
-3.92135e-06
5.39711e-05
-3.85476e-06
5.48023e-05
-3.78299e-06
5.5615e-05
-3.70589e-06
5.6408e-05
-3.62334e-06
5.718e-05
-3.53517e-06
5.79297e-05
-3.44121e-06
5.86558e-05
-3.34129e-06
5.93569e-05
-3.23518e-06
6.00316e-05
-3.12264e-06
6.06785e-05
-3.00341e-06
6.12961e-05
-2.87718e-06
6.18827e-05
-2.74358e-06
6.24369e-05
-2.60222e-06
6.29568e-05
-2.45262e-06
6.34408e-05
-2.29423e-06
6.38869e-05
-2.12643e-06
6.42933e-05
-1.94845e-06
6.4658e-05
-1.75943e-06
6.49787e-05
-1.55832e-06
6.52532e-05
-1.34387e-06
6.54792e-05
-1.11458e-06
6.56542e-05
-8.68646e-07
6.57758e-05
-6.03854e-07
6.58414e-05
-3.17502e-07
6.5849e-05
-6.47599e-09
6.57965e-05
3.3346e-07
6.56834e-05
7.06488e-07
6.55107e-05
1.11856e-06
6.52826e-05
1.57641e-06
6.5008e-05
2.08746e-06
6.47036e-05
2.6593e-06
6.43981e-05
3.29826e-06
6.41361e-05
4.0069e-06
6.3982e-05
4.77955e-06
6.40166e-05
5.59498e-06
6.40381e-06
6.43105e-05
1.64365e-05
-6.42137e-07
1.66717e-05
-1.24317e-06
1.70113e-05
-1.77757e-06
1.74453e-05
-2.25832e-06
1.79646e-05
-2.69217e-06
1.85604e-05
-3.08271e-06
1.92246e-05
-3.43199e-06
1.99492e-05
-3.74181e-06
2.07269e-05
-4.01402e-06
2.15506e-05
-4.25081e-06
2.24138e-05
-4.45472e-06
2.33105e-05
-4.6286e-06
2.42354e-05
-4.77552e-06
2.51839e-05
-4.89865e-06
2.61518e-05
-5.0011e-06
2.71357e-05
-5.08586e-06
2.81325e-05
-5.15569e-06
2.91398e-05
-5.21308e-06
3.01557e-05
-5.26018e-06
3.11783e-05
-5.29883e-06
3.22064e-05
-5.33055e-06
3.32388e-05
-5.35653e-06
3.42744e-05
-5.37771e-06
3.53126e-05
-5.39475e-06
3.63525e-05
-5.40813e-06
3.73935e-05
-5.41812e-06
3.84349e-05
-5.42487e-06
3.94761e-05
-5.4284e-06
4.05164e-05
-5.42865e-06
4.15551e-05
-5.42549e-06
4.25914e-05
-5.41875e-06
4.36247e-05
-5.40824e-06
4.46542e-05
-5.39373e-06
4.56789e-05
-5.37501e-06
4.6698e-05
-5.35186e-06
4.77106e-05
-5.32406e-06
4.87157e-05
-5.29141e-06
4.97123e-05
-5.25371e-06
5.06993e-05
-5.21078e-06
5.16757e-05
-5.16245e-06
5.26404e-05
-5.10855e-06
5.35922e-05
-5.04893e-06
5.453e-05
-4.98344e-06
5.54526e-05
-4.91194e-06
5.63588e-05
-4.83428e-06
5.72473e-05
-4.75032e-06
5.81169e-05
-4.65992e-06
5.89663e-05
-4.56291e-06
5.97942e-05
-4.45912e-06
6.05994e-05
-4.34839e-06
6.13803e-05
-4.23052e-06
6.21357e-05
-4.10528e-06
6.28642e-05
-3.97243e-06
6.35642e-05
-3.83171e-06
6.42343e-05
-3.68281e-06
6.48731e-05
-3.52539e-06
6.5479e-05
-3.35905e-06
6.60503e-05
-3.18334e-06
6.65855e-05
-2.99777e-06
6.70829e-05
-2.80174e-06
6.75408e-05
-2.59457e-06
6.79576e-05
-2.3755e-06
6.83313e-05
-2.14362e-06
6.86604e-05
-1.89788e-06
6.8943e-05
-1.63705e-06
6.91776e-05
-1.3597e-06
6.93625e-05
-1.06413e-06
6.94964e-05
-7.48385e-07
6.95784e-05
-4.10136e-07
6.96082e-05
-4.67672e-08
6.95866e-05
3.44548e-07
6.9516e-05
7.6669e-07
6.94011e-05
1.22313e-06
6.92501e-05
1.71727e-06
6.90756e-05
2.25195e-06
6.88965e-05
2.8286e-06
6.8739e-05
3.44609e-06
6.86376e-05
4.0989e-06
6.86331e-05
4.77484e-06
6.87668e-05
5.45234e-06
6.09792e-06
6.9064e-05
1.75831e-05
-7.62739e-07
1.78294e-05
-1.48925e-06
1.81867e-05
-2.13464e-06
1.86447e-05
-2.71607e-06
1.91938e-05
-3.24085e-06
1.98246e-05
-3.71307e-06
2.05283e-05
-4.13522e-06
2.12966e-05
-4.50947e-06
2.21212e-05
-4.83811e-06
2.29948e-05
-5.12378e-06
2.39102e-05
-5.3696e-06
2.48612e-05
-5.57903e-06
2.5842e-05
-5.7558e-06
2.68475e-05
-5.90375e-06
2.78735e-05
-6.02667e-06
2.89161e-05
-6.12817e-06
2.99722e-05
-6.2116e-06
3.10391e-05
-6.27996e-06
3.21147e-05
-6.33587e-06
3.31972e-05
-6.38155e-06
3.42851e-05
-6.41884e-06
3.53771e-05
-6.44919e-06
3.64723e-05
-6.47371e-06
3.75698e-05
-6.49323e-06
3.86687e-05
-6.5083e-06
3.97683e-05
-6.51926e-06
4.0868e-05
-6.52629e-06
4.1967e-05
-6.52942e-06
4.30646e-05
-6.52856e-06
4.41602e-05
-6.52356e-06
4.52528e-05
-6.51422e-06
4.63417e-05
-6.50029e-06
4.7426e-05
-6.48151e-06
4.85048e-05
-6.45762e-06
4.95772e-05
-6.42834e-06
5.06422e-05
-6.39343e-06
5.16987e-05
-6.35262e-06
5.27457e-05
-6.30569e-06
5.3782e-05
-6.2524e-06
5.48064e-05
-6.19257e-06
5.58179e-05
-6.12599e-06
5.68151e-05
-6.05247e-06
5.77969e-05
-5.97185e-06
5.8762e-05
-5.88394e-06
5.97091e-05
-5.7886e-06
6.06368e-05
-5.68564e-06
6.1544e-05
-5.5749e-06
6.24292e-05
-5.4562e-06
6.3291e-05
-5.32937e-06
6.41281e-05
-5.19419e-06
6.49391e-05
-5.05046e-06
6.57226e-05
-4.89794e-06
6.64771e-05
-4.73638e-06
6.72012e-05
-4.56547e-06
6.78934e-05
-4.38491e-06
6.85523e-05
-4.19433e-06
6.91763e-05
-3.99334e-06
6.97639e-05
-3.78148e-06
7.03137e-05
-3.55824e-06
7.08242e-05
-3.32304e-06
7.12939e-05
-3.07523e-06
7.17215e-05
-2.81408e-06
7.21054e-05
-2.53875e-06
7.24446e-05
-2.24829e-06
7.27379e-05
-1.94163e-06
7.29844e-05
-1.61757e-06
7.31837e-05
-1.27473e-06
7.33355e-05
-9.1161e-07
7.34406e-05
-5.26554e-07
7.35004e-05
-1.17832e-07
7.35177e-05
3.16002e-07
7.34971e-05
7.7612e-07
7.34455e-05
1.26368e-06
7.33726e-05
1.77923e-06
7.32916e-05
2.32217e-06
7.32195e-05
2.89018e-06
7.31768e-05
3.47842e-06
7.31868e-05
4.0787e-06
7.3273e-05
4.6787e-06
7.34541e-05
5.26155e-06
5.80669e-06
7.37359e-05
1.881e-05
-8.87723e-07
1.90675e-05
-1.74658e-06
1.94428e-05
-2.50975e-06
1.99254e-05
-3.1983e-06
2.0505e-05
-3.82004e-06
2.11718e-05
-4.37935e-06
2.19162e-05
-4.87915e-06
2.27293e-05
-5.32199e-06
2.36024e-05
-5.7106e-06
2.45275e-05
-6.04816e-06
2.54968e-05
-6.33836e-06
2.65038e-05
-6.58536e-06
2.75421e-05
-6.79359e-06
2.86065e-05
-6.96762e-06
2.96922e-05
-7.11194e-06
3.07952e-05
-7.23086e-06
3.19122e-05
-7.32835e-06
3.30403e-05
-7.40797e-06
3.41771e-05
-7.47282e-06
3.53209e-05
-7.52556e-06
3.64699e-05
-7.56833e-06
3.7623e-05
-7.60287e-06
3.87789e-05
-7.63051e-06
3.99368e-05
-7.6522e-06
4.10958e-05
-7.66862e-06
4.22551e-05
-7.68017e-06
4.3414e-05
-7.68703e-06
4.45717e-05
-7.68926e-06
4.57275e-05
-7.68675e-06
4.68805e-05
-7.67931e-06
4.80299e-05
-7.66672e-06
4.9175e-05
-7.64866e-06
5.03146e-05
-7.62485e-06
5.14479e-05
-7.59495e-06
5.25739e-05
-7.55865e-06
5.36914e-05
-7.51564e-06
5.47994e-05
-7.46563e-06
5.58967e-05
-7.40834e-06
5.69821e-05
-7.34351e-06
5.80543e-05
-7.27089e-06
5.91122e-05
-7.19027e-06
6.01545e-05
-7.10143e-06
6.11797e-05
-7.00416e-06
6.21866e-05
-6.89828e-06
6.31739e-05
-6.78359e-06
6.41401e-05
-6.65991e-06
6.50839e-05
-6.52706e-06
6.60039e-05
-6.38485e-06
6.68986e-05
-6.23307e-06
6.77666e-05
-6.07152e-06
6.86066e-05
-5.89999e-06
6.9417e-05
-5.71822e-06
7.01965e-05
-5.52596e-06
7.09436e-05
-5.32292e-06
7.16569e-05
-5.10879e-06
7.2335e-05
-4.88323e-06
7.29765e-05
-4.64585e-06
7.358e-05
-4.39624e-06
7.41443e-05
-4.13393e-06
7.46681e-05
-3.8584e-06
7.51502e-05
-3.5691e-06
7.55897e-05
-3.2654e-06
7.59856e-05
-2.94662e-06
7.63374e-05
-2.61203e-06
7.66444e-05
-2.26083e-06
7.69069e-05
-1.89218e-06
7.71252e-05
-1.50519e-06
7.73004e-05
-1.09899e-06
7.74344e-05
-6.72709e-07
7.75301e-05
-2.25641e-07
7.75916e-05
2.42465e-07
7.76246e-05
7.31142e-07
7.76367e-05
1.2397e-06
7.76376e-05
1.76664e-06
7.76388e-05
2.30934e-06
7.76539e-05
2.86368e-06
7.76975e-05
3.42369e-06
7.77838e-05
3.98135e-06
7.79253e-05
4.52654e-06
7.81289e-05
5.04745e-06
5.53208e-06
7.83932e-05
2.01227e-05
-1.01744e-06
2.03917e-05
-2.01545e-06
2.07856e-05
-2.90336e-06
2.12932e-05
-3.70562e-06
2.19041e-05
-4.43047e-06
2.26078e-05
-5.08248e-06
2.33941e-05
-5.66487e-06
2.42534e-05
-6.18061e-06
2.51763e-05
-6.63288e-06
2.61542e-05
-7.02541e-06
2.71791e-05
-7.36254e-06
2.82435e-05
-7.64915e-06
2.9341e-05
-7.89046e-06
3.04657e-05
-8.09179e-06
3.16126e-05
-8.25843e-06
3.27775e-05
-8.3954e-06
3.39568e-05
-8.50735e-06
3.51473e-05
-8.59845e-06
3.63468e-05
-8.67232e-06
3.7553e-05
-8.73204e-06
3.87644e-05
-8.78014e-06
3.99795e-05
-8.81864e-06
4.11971e-05
-8.84908e-06
4.24164e-05
-8.87259e-06
4.36363e-05
-8.88993e-06
4.4856e-05
-8.90158e-06
4.60748e-05
-8.90777e-06
4.72918e-05
-8.90852e-06
4.85062e-05
-8.90374e-06
4.97172e-05
-8.89321e-06
5.09238e-05
-8.87662e-06
5.21253e-05
-8.85366e-06
5.33204e-05
-8.82395e-06
5.45083e-05
-8.78711e-06
5.56878e-05
-8.7428e-06
5.68578e-05
-8.69063e-06
5.80171e-05
-8.63028e-06
5.91645e-05
-8.56142e-06
6.02986e-05
-8.48375e-06
6.14183e-05
-8.39699e-06
6.2522e-05
-8.30089e-06
6.36086e-05
-8.1952e-06
6.46766e-05
-8.0797e-06
6.57246e-05
-7.95417e-06
6.67511e-05
-7.81841e-06
6.77548e-05
-7.67223e-06
6.87342e-05
-7.51543e-06
6.96879e-05
-7.34781e-06
7.06144e-05
-7.16918e-06
7.15123e-05
-6.97933e-06
7.23801e-05
-6.77804e-06
7.32164e-05
-6.56509e-06
7.40199e-05
-6.34024e-06
7.47891e-05
-6.10322e-06
7.55227e-05
-5.85377e-06
7.62195e-05
-5.59157e-06
7.68781e-05
-5.31631e-06
7.74975e-05
-5.02764e-06
7.80766e-05
-4.72519e-06
7.86144e-05
-4.40858e-06
7.91101e-05
-4.07739e-06
7.95632e-05
-3.73118e-06
7.99733e-05
-3.36952e-06
8.03404e-05
-2.99198e-06
8.06647e-05
-2.59811e-06
8.0947e-05
-2.18754e-06
8.11888e-05
-1.75996e-06
8.13919e-05
-1.31516e-06
8.15592e-05
-8.53124e-07
8.16947e-05
-3.74074e-07
8.18028e-05
1.2139e-07
8.18896e-05
6.31563e-07
8.19622e-05
1.15433e-06
8.20292e-05
1.68704e-06
8.20999e-05
2.22618e-06
8.21842e-05
2.76716e-06
8.22915e-05
3.30429e-06
8.24302e-05
3.83084e-06
8.26058e-05
4.33925e-06
8.28202e-05
4.82173e-06
5.27151e-06
8.30697e-05
2.15272e-05
-1.15226e-06
2.18081e-05
-2.29621e-06
2.2221e-05
-3.31595e-06
2.27544e-05
-4.23863e-06
2.33974e-05
-5.07293e-06
2.41388e-05
-5.82337e-06
2.4968e-05
-6.49345e-06
2.58746e-05
-7.0865e-06
2.68486e-05
-7.60618e-06
2.78808e-05
-8.05682e-06
2.89624e-05
-8.44345e-06
3.00857e-05
-8.77172e-06
3.12436e-05
-9.04769e-06
3.24299e-05
-9.27752e-06
3.36393e-05
-9.46734e-06
3.48673e-05
-9.62294e-06
3.61099e-05
-9.74969e-06
3.73639e-05
-9.8524e-06
3.86268e-05
-9.93527e-06
3.98964e-05
-1.00018e-05
4.11708e-05
-1.0055e-05
4.24487e-05
-1.00972e-05
4.37287e-05
-1.013e-05
4.50099e-05
-1.01549e-05
4.62911e-05
-1.01727e-05
4.75717e-05
-1.01839e-05
4.88506e-05
-1.01888e-05
5.01272e-05
-1.01875e-05
5.14004e-05
-1.01797e-05
5.26694e-05
-1.01653e-05
5.39333e-05
-1.01439e-05
5.5191e-05
-1.01152e-05
5.64416e-05
-1.00786e-05
5.76838e-05
-1.00339e-05
5.89165e-05
-9.98047e-06
6.01385e-05
-9.918e-06
6.13486e-05
-9.84608e-06
6.25455e-05
-9.76435e-06
6.37277e-05
-9.67246e-06
6.48939e-05
-9.57011e-06
6.60427e-05
-9.457e-06
6.71727e-05
-9.33287e-06
6.82824e-05
-9.19747e-06
6.93704e-05
-9.05057e-06
7.04351e-05
-8.89197e-06
7.14751e-05
-8.72146e-06
7.24889e-05
-8.53884e-06
7.34751e-05
-8.34393e-06
7.44322e-05
-8.13654e-06
7.53587e-05
-7.91647e-06
7.62533e-05
-7.68355e-06
7.71145e-05
-7.43758e-06
7.7941e-05
-7.17835e-06
7.87316e-05
-6.90566e-06
7.9485e-05
-6.6193e-06
8.02001e-05
-6.31906e-06
8.08758e-05
-6.0047e-06
8.15113e-05
-5.676e-06
8.21058e-05
-5.33273e-06
8.26586e-05
-4.97469e-06
8.31695e-05
-4.60166e-06
8.36382e-05
-4.21347e-06
8.40649e-05
-3.80997e-06
8.44502e-05
-3.39109e-06
8.47951e-05
-2.95682e-06
8.51008e-05
-2.50726e-06
8.53696e-05
-2.04269e-06
8.5604e-05
-1.56354e-06
8.58074e-05
-1.07056e-06
8.59842e-05
-5.64749e-07
8.61389e-05
-4.72022e-08
8.62769e-05
4.79779e-07
8.64046e-05
1.01292e-06
8.6529e-05
1.54917e-06
8.66569e-05
2.08488e-06
8.67951e-05
2.61574e-06
8.69495e-05
3.13692e-06
8.71244e-05
3.64318e-06
8.73219e-05
4.12918e-06
8.75414e-05
4.58991e-06
5.02172e-06
8.77792e-05
2.303e-05
-1.29256e-06
2.33233e-05
-2.58929e-06
2.37557e-05
-3.74807e-06
2.43155e-05
-4.79799e-06
2.49912e-05
-5.74814e-06
2.57713e-05
-6.60286e-06
2.66444e-05
-7.3658e-06
2.75993e-05
-8.04065e-06
2.86254e-05
-8.63155e-06
2.97128e-05
-9.14344e-06
3.08523e-05
-9.58212e-06
3.20354e-05
-9.95408e-06
3.32547e-05
-1.02662e-05
3.45036e-05
-1.05257e-05
3.57763e-05
-1.07395e-05
3.7068e-05
-1.09142e-05
3.83746e-05
-1.1056e-05
3.96927e-05
-1.11704e-05
4.10196e-05
-1.12622e-05
4.23528e-05
-1.13354e-05
4.36907e-05
-1.13933e-05
4.50315e-05
-1.14387e-05
4.6374e-05
-1.14735e-05
4.77171e-05
-1.14992e-05
4.90597e-05
-1.15169e-05
5.04009e-05
-1.1527e-05
5.17399e-05
-1.153e-05
5.30757e-05
-1.15258e-05
5.44074e-05
-1.15143e-05
5.5734e-05
-1.14952e-05
5.70546e-05
-1.14682e-05
5.83681e-05
-1.14327e-05
5.96733e-05
-1.13883e-05
6.09691e-05
-1.13345e-05
6.22543e-05
-1.12709e-05
6.35275e-05
-1.11969e-05
6.47874e-05
-1.11121e-05
6.60326e-05
-1.10161e-05
6.72618e-05
-1.09085e-05
6.84734e-05
-1.07891e-05
6.9666e-05
-1.06574e-05
7.0838e-05
-1.05131e-05
7.19881e-05
-1.03561e-05
7.31146e-05
-1.01861e-05
7.42161e-05
-1.00029e-05
7.5291e-05
-9.80618e-06
7.63378e-05
-9.59589e-06
7.7355e-05
-9.37182e-06
7.83413e-05
-9.13381e-06
7.92952e-05
-8.8817e-06
8.02153e-05
-8.61537e-06
8.11003e-05
-8.33465e-06
8.1949e-05
-8.03944e-06
8.27603e-05
-7.7296e-06
8.3533e-05
-7.40501e-06
8.42663e-05
-7.06558e-06
8.49593e-05
-6.71123e-06
8.56114e-05
-6.34187e-06
8.62222e-05
-5.95749e-06
8.67914e-05
-5.55807e-06
8.7319e-05
-5.14367e-06
8.78054e-05
-4.71441e-06
8.82512e-05
-4.27046e-06
8.86575e-05
-3.81215e-06
8.90257e-05
-3.33987e-06
8.93577e-05
-2.85423e-06
8.9656e-05
-2.35598e-06
8.99236e-05
-1.84612e-06
9.0164e-05
-1.32594e-06
9.03813e-05
-7.96968e-07
9.05802e-05
-2.61054e-07
9.07656e-05
2.79615e-07
9.09423e-05
8.21572e-07
9.11154e-05
1.36154e-06
9.12898e-05
1.89602e-06
9.14701e-05
2.42131e-06
9.16595e-05
2.93355e-06
9.186e-05
3.42885e-06
9.20722e-05
3.90351e-06
9.22944e-05
4.35436e-06
4.77961e-06
9.25235e-05
2.46378e-05
-1.43871e-06
2.49439e-05
-2.89514e-06
2.53964e-05
-4.20027e-06
2.59832e-05
-5.38434e-06
2.66924e-05
-6.4568e-06
2.75119e-05
-7.42168e-06
2.84296e-05
-8.2827e-06
2.94336e-05
-9.04383e-06
3.05126e-05
-9.70973e-06
3.1656e-05
-1.0286e-05
3.2854e-05
-1.07792e-05
3.40975e-05
-1.11968e-05
3.53787e-05
-1.15466e-05
3.66905e-05
-1.18367e-05
3.80267e-05
-1.20751e-05
3.93824e-05
-1.22693e-05
4.07531e-05
-1.24263e-05
4.21352e-05
-1.25524e-05
4.35259e-05
-1.26528e-05
4.49226e-05
-1.27323e-05
4.63235e-05
-1.27947e-05
4.77269e-05
-1.28428e-05
4.91313e-05
-1.2879e-05
5.05357e-05
-1.29049e-05
5.1939e-05
-1.29218e-05
5.33402e-05
-1.29302e-05
5.47383e-05
-1.29304e-05
5.61325e-05
-1.29226e-05
5.75217e-05
-1.29066e-05
5.89049e-05
-1.28819e-05
6.0281e-05
-1.28482e-05
6.1649e-05
-1.2805e-05
6.30077e-05
-1.27516e-05
6.43557e-05
-1.26877e-05
6.56918e-05
-1.26126e-05
6.70147e-05
-1.25257e-05
6.83229e-05
-1.24267e-05
6.96149e-05
-1.2315e-05
7.08893e-05
-1.21903e-05
7.21446e-05
-1.20522e-05
7.33792e-05
-1.19002e-05
7.45915e-05
-1.17342e-05
7.57801e-05
-1.15539e-05
7.69433e-05
-1.1359e-05
7.80797e-05
-1.11493e-05
7.91876e-05
-1.09246e-05
8.02657e-05
-1.06849e-05
8.13123e-05
-1.04298e-05
8.23262e-05
-1.01594e-05
8.3306e-05
-9.8736e-06
8.42503e-05
-9.57222e-06
8.51581e-05
-9.25525e-06
8.6028e-05
-8.92265e-06
8.68593e-05
-8.57442e-06
8.7651e-05
-8.21057e-06
8.84024e-05
-7.83115e-06
8.91129e-05
-7.43624e-06
8.97823e-05
-7.02596e-06
9.04103e-05
-6.60052e-06
9.09972e-05
-6.16014e-06
9.15433e-05
-5.70518e-06
9.20494e-05
-5.23603e-06
9.25165e-05
-4.75325e-06
9.2946e-05
-4.25749e-06
9.33398e-05
-3.74957e-06
9.37001e-05
-3.23049e-06
9.40295e-05
-2.70143e-06
9.43311e-05
-2.16382e-06
9.46085e-05
-1.61931e-06
9.48653e-05
-1.06984e-06
9.51058e-05
-5.17526e-07
9.53338e-05
3.58301e-08
9.55526e-05
5.87014e-07
9.57662e-05
1.13226e-06
9.59782e-05
1.66863e-06
9.61911e-05
2.19313e-06
9.64068e-05
2.70278e-06
9.66261e-05
3.19473e-06
9.68485e-05
3.66644e-06
9.70726e-05
4.11592e-06
4.54246e-06
9.72957e-05
2.63581e-05
-1.59105e-06
2.66773e-05
-3.21419e-06
2.71505e-05
-4.67304e-06
2.77649e-05
-5.99823e-06
2.85081e-05
-7.19946e-06
2.93676e-05
-8.28039e-06
3.03303e-05
-9.24464e-06
3.13838e-05
-1.00965e-05
3.25161e-05
-1.08411e-05
3.37158e-05
-1.14847e-05
3.49724e-05
-1.20349e-05
3.62765e-05
-1.24999e-05
3.76194e-05
-1.28887e-05
3.89938e-05
-1.32103e-05
4.03932e-05
-1.34739e-05
4.18123e-05
-1.36878e-05
4.32464e-05
-1.386e-05
4.46917e-05
-1.39975e-05
4.61453e-05
-1.41063e-05
4.76044e-05
-1.41917e-05
4.90672e-05
-1.42578e-05
5.05318e-05
-1.43081e-05
5.19968e-05
-1.43451e-05
5.34611e-05
-1.43706e-05
5.49236e-05
-1.43859e-05
5.63831e-05
-1.43917e-05
5.78388e-05
-1.43885e-05
5.92895e-05
-1.43762e-05
6.07344e-05
-1.43546e-05
6.21723e-05
-1.43234e-05
6.36022e-05
-1.42821e-05
6.50227e-05
-1.423e-05
6.64327e-05
-1.41666e-05
6.78309e-05
-1.40913e-05
6.92158e-05
-1.40034e-05
7.05861e-05
-1.39024e-05
7.19402e-05
-1.37877e-05
7.32768e-05
-1.36589e-05
7.45941e-05
-1.35155e-05
7.58906e-05
-1.3357e-05
7.71648e-05
-1.31833e-05
7.84151e-05
-1.29938e-05
7.96398e-05
-1.27884e-05
8.08374e-05
-1.25668e-05
8.20063e-05
-1.2329e-05
8.31451e-05
-1.20746e-05
8.42522e-05
-1.18036e-05
8.53263e-05
-1.1516e-05
8.6366e-05
-1.12116e-05
8.73699e-05
-1.08905e-05
8.8337e-05
-1.05527e-05
8.92662e-05
-1.01982e-05
9.01565e-05
-9.82707e-06
9.1007e-05
-9.43951e-06
9.18173e-05
-9.03567e-06
9.25868e-05
-8.61576e-06
9.33151e-05
-8.18008e-06
9.40024e-05
-7.72897e-06
9.46487e-05
-7.26285e-06
9.52546e-05
-6.78223e-06
9.58207e-05
-6.28774e-06
9.63481e-05
-5.78009e-06
9.68382e-05
-5.26013e-06
9.72927e-05
-4.72886e-06
9.77135e-05
-4.18743e-06
9.81031e-05
-3.63715e-06
9.8464e-05
-3.07953e-06
9.87993e-05
-2.51624e-06
9.91119e-05
-1.94918e-06
9.94053e-05
-1.38038e-06
9.96828e-05
-8.12047e-07
9.99479e-05
-2.46267e-07
0.000100203
3.14734e-07
0.000100451
8.6748e-07
0.000100694
1.40927e-06
0.000100933
1.93758e-06
0.00010117
2.45012e-06
0.000101404
2.94484e-06
0.000101634
3.41997e-06
0.00010186
3.87426e-06
4.30761e-06
0.00010208
2.81984e-05
-1.74991e-06
2.85314e-05
-3.54691e-06
2.90256e-05
-5.16683e-06
2.9668e-05
-6.64011e-06
3.04457e-05
-7.97651e-06
3.13454e-05
-9.17925e-06
3.23534e-05
-1.02518e-05
3.34565e-05
-1.11986e-05
3.46419e-05
-1.20255e-05
3.58975e-05
-1.27393e-05
3.72123e-05
-1.33486e-05
3.8576e-05
-1.38626e-05
3.99798e-05
-1.42915e-05
4.14158e-05
-1.46454e-05
4.28771e-05
-1.49344e-05
4.43581e-05
-1.51682e-05
4.5854e-05
-1.53554e-05
4.73607e-05
-1.5504e-05
4.88752e-05
-1.56207e-05
5.03947e-05
-1.57114e-05
5.19172e-05
-1.57807e-05
5.34408e-05
-1.58324e-05
5.49641e-05
-1.58694e-05
5.64859e-05
-1.58937e-05
5.80049e-05
-1.59067e-05
5.95202e-05
-1.59091e-05
6.10307e-05
-1.59015e-05
6.25354e-05
-1.58838e-05
6.40332e-05
-1.58558e-05
6.5523e-05
-1.5817e-05
6.70036e-05
-1.57669e-05
6.84737e-05
-1.57049e-05
6.99321e-05
-1.56303e-05
7.13774e-05
-1.55423e-05
7.28081e-05
-1.54403e-05
7.42227e-05
-1.53238e-05
7.56197e-05
-1.5192e-05
7.69975e-05
-1.50446e-05
7.83546e-05
-1.48809e-05
7.96893e-05
-1.47006e-05
8.1e-05
-1.45033e-05
8.22851e-05
-1.42887e-05
8.35429e-05
-1.40566e-05
8.4772e-05
-1.38068e-05
8.59707e-05
-1.35391e-05
8.71376e-05
-1.32534e-05
8.82712e-05
-1.29497e-05
8.93703e-05
-1.2628e-05
9.04335e-05
-1.22882e-05
9.14597e-05
-1.19305e-05
9.24479e-05
-1.15551e-05
9.33971e-05
-1.1162e-05
9.43066e-05
-1.07516e-05
9.51757e-05
-1.03241e-05
9.60041e-05
-9.87989e-06
9.67915e-05
-9.41936e-06
9.75379e-05
-8.94302e-06
9.82436e-05
-8.45145e-06
9.8909e-05
-7.94533e-06
9.95349e-05
-7.42541e-06
0.000100122
-6.89259e-06
0.000100672
-6.34786e-06
0.000101186
-5.79235e-06
0.000101667
-5.22733e-06
0.000102115
-4.6542e-06
0.000102534
-4.07451e-06
0.000102927
-3.48997e-06
0.000103294
-2.90239e-06
0.000103641
-2.31376e-06
0.000103968
-1.72616e-06
0.000104279
-1.14175e-06
0.000104578
-5.62652e-07
0.000104864
9.80463e-09
0.000105141
5.72901e-07
0.000105409
1.12344e-06
0.00010567
1.65951e-06
0.000105923
2.17942e-06
0.000106169
2.68164e-06
0.000106407
3.16494e-06
0.000106636
3.62851e-06
4.07262e-06
0.000106855
3.01673e-05
-1.91555e-06
3.05143e-05
-3.89366e-06
3.10299e-05
-5.682e-06
3.17006e-05
-7.31025e-06
3.25129e-05
-8.78807e-06
3.34527e-05
-1.01182e-05
3.45057e-05
-1.13038e-05
3.56578e-05
-1.23497e-05
3.68955e-05
-1.32621e-05
3.8206e-05
-1.40487e-05
3.95775e-05
-1.4719e-05
4.09994e-05
-1.52834e-05
4.24622e-05
-1.57531e-05
4.39575e-05
-1.61397e-05
4.54784e-05
-1.64544e-05
4.70187e-05
-1.67078e-05
4.85736e-05
-1.69096e-05
5.01388e-05
-1.70688e-05
5.17111e-05
-1.71928e-05
5.32877e-05
-1.72881e-05
5.48665e-05
-1.73599e-05
5.64456e-05
-1.74122e-05
5.80236e-05
-1.74484e-05
5.95991e-05
-1.74706e-05
6.11711e-05
-1.74803e-05
6.27383e-05
-1.74785e-05
6.42998e-05
-1.74656e-05
6.58545e-05
-1.74415e-05
6.74013e-05
-1.7406e-05
6.89389e-05
-1.73587e-05
7.04663e-05
-1.72987e-05
7.1982e-05
-1.72256e-05
7.34846e-05
-1.71384e-05
7.49729e-05
-1.70366e-05
7.64452e-05
-1.69192e-05
7.79001e-05
-1.67857e-05
7.93359e-05
-1.66355e-05
8.0751e-05
-1.64679e-05
8.21437e-05
-1.62825e-05
8.35126e-05
-1.60788e-05
8.48558e-05
-1.58565e-05
8.61718e-05
-1.56152e-05
8.74591e-05
-1.53549e-05
8.87159e-05
-1.50753e-05
8.9941e-05
-1.47763e-05
9.11327e-05
-1.44578e-05
9.22898e-05
-1.412e-05
9.34111e-05
-1.37629e-05
9.44953e-05
-1.33866e-05
9.55415e-05
-1.29914e-05
9.65487e-05
-1.25775e-05
9.75163e-05
-1.21452e-05
9.84436e-05
-1.1695e-05
9.93303e-05
-1.12273e-05
0.000100176