/*--------------------------------*- C++ -*----------------------------------*\
  =========                 |
  \\      /  F ield         | OpenFOAM: The Open Source CFD Toolbox
   \\    /   O peration     | Website:  https://openfoam.org
    \\  /    A nd           | Version:  7
     \\/     M anipulation  |
\*---------------------------------------------------------------------------*/
FoamFile
{
    version     2.0;
    format      ascii;
    class       surfaceScalarField;
    location    "5.85";
    object      phi;
}
// * * * * * * * * * * * * * * * * * * * * * * * * * * * * * * * * * * * * * //

dimensions      [1 0 -1 0 0 0 0];

internalField   nonuniform List<scalar> 
23692
(
1.1885e-05
-2.50333e-07
1.23197e-05
-4.34334e-07
1.2911e-05
-5.90718e-07
1.36362e-05
-7.24344e-07
1.44787e-05
-8.41529e-07
1.54265e-05
-9.46541e-07
1.64703e-05
-1.04236e-06
1.7603e-05
-1.13111e-06
1.88189e-05
-1.21407e-06
2.01126e-05
-1.29177e-06
2.14788e-05
-1.3641e-06
2.29114e-05
-1.43043e-06
2.44035e-05
-1.48979e-06
2.5947e-05
-1.54104e-06
2.75326e-05
-1.5831e-06
2.91503e-05
-1.61505e-06
3.07892e-05
-1.63627e-06
3.24384e-05
-1.64647e-06
3.4087e-05
-1.64574e-06
3.57243e-05
-1.63445e-06
3.73404e-05
-1.61327e-06
3.89263e-05
-1.58307e-06
4.04741e-05
-1.54485e-06
4.19767e-05
-1.49971e-06
4.34284e-05
-1.44875e-06
4.48243e-05
-1.39306e-06
4.61609e-05
-1.3337e-06
4.74354e-05
-1.27162e-06
4.8646e-05
-1.2077e-06
4.97915e-05
-1.14275e-06
5.08717e-05
-1.07744e-06
5.18868e-05
-1.01237e-06
5.28375e-05
-9.48065e-07
5.37251e-05
-8.84938e-07
5.4551e-05
-8.23344e-07
5.5317e-05
-7.63566e-07
5.60253e-05
-7.05829e-07
5.66779e-05
-6.50303e-07
5.72772e-05
-5.97112e-07
5.78257e-05
-5.46341e-07
5.83257e-05
-4.98038e-07
5.87799e-05
-4.52223e-07
5.91905e-05
-4.08888e-07
5.95602e-05
-3.68002e-07
5.98913e-05
-3.29517e-07
6.0186e-05
-2.93365e-07
6.04468e-05
-2.59464e-07
6.06756e-05
-2.27718e-07
6.08746e-05
-1.9802e-07
6.10457e-05
-1.70248e-07
6.11906e-05
-1.44273e-07
6.1311e-05
-1.19953e-07
6.14085e-05
-9.71374e-08
6.14843e-05
-7.56643e-08
6.15396e-05
-5.53613e-08
6.15755e-05
-3.6045e-08
6.15926e-05
-1.75217e-08
6.15916e-05
4.27286e-10
6.15729e-05
1.79985e-08
6.15366e-05
3.54656e-08
6.14825e-05
5.30917e-08
6.14101e-05
7.11892e-08
6.13186e-05
9.01092e-08
6.12068e-05
1.10254e-07
6.10731e-05
1.32093e-07
6.09151e-05
1.56186e-07
6.073e-05
1.83211e-07
6.0514e-05
2.14016e-07
6.02622e-05
2.49686e-07
5.99684e-05
2.91654e-07
5.96242e-05
3.41877e-07
5.92188e-05
4.0312e-07
5.8737e-05
4.79456e-07
5.81574e-05
5.77127e-07
5.74489e-05
7.06156e-07
5.65631e-05
8.83407e-07
5.5422e-05
1.13869e-06
5.38918e-05
1.52786e-06
5.17228e-05
2.16665e-06
4.8377e-05
3.3436e-06
6.29103e-06
4.20838e-05
1.27091e-05
-5.10681e-07
1.31714e-05
-8.96231e-07
1.3802e-05
-1.22069e-06
1.4576e-05
-1.49744e-06
1.54759e-05
-1.74029e-06
1.64885e-05
-1.9579e-06
1.76042e-05
-2.15647e-06
1.88152e-05
-2.34041e-06
2.01154e-05
-2.51239e-06
2.14993e-05
-2.67353e-06
2.2961e-05
-2.82358e-06
2.44941e-05
-2.96123e-06
2.60913e-05
-3.08447e-06
2.77438e-05
-3.19095e-06
2.94418e-05
-3.27838e-06
3.11744e-05
-3.34486e-06
3.29301e-05
-3.38909e-06
3.4697e-05
-3.41047e-06
3.64634e-05
-3.40915e-06
3.82179e-05
-3.38592e-06
3.99499e-05
-3.34215e-06
4.16496e-05
-3.27966e-06
4.33084e-05
-3.20053e-06
4.49188e-05
-3.10702e-06
4.64746e-05
-3.00143e-06
4.79707e-05
-2.88604e-06
4.94031e-05
-2.763e-06
5.07688e-05
-2.63433e-06
5.2066e-05
-2.50185e-06
5.32935e-05
-2.3672e-06
5.44508e-05
-2.23182e-06
5.55383e-05
-2.09695e-06
5.65568e-05
-1.96364e-06
5.75074e-05
-1.83278e-06
5.83919e-05
-1.70509e-06
5.92121e-05
-1.58116e-06
5.99703e-05
-1.46145e-06
6.06688e-05
-1.34633e-06
6.13101e-05
-1.23604e-06
6.18968e-05
-1.13076e-06
6.24315e-05
-1.03058e-06
6.29169e-05
-9.3555e-07
6.33556e-05
-8.45651e-07
6.37502e-05
-7.60817e-07
6.41032e-05
-6.80946e-07
6.44173e-05
-6.05896e-07
6.46947e-05
-5.35499e-07
6.49377e-05
-4.69553e-07
6.51486e-05
-4.07833e-07
6.53293e-05
-3.50092e-07
6.54818e-05
-2.96058e-07
6.56078e-05
-2.45438e-07
6.57089e-05
-1.9792e-07
6.57865e-05
-1.53169e-07
6.5842e-05
-1.10829e-07
6.58763e-05
-7.05217e-08
6.58902e-05
-3.18445e-08
6.58844e-05
5.6358e-09
6.58593e-05
4.23568e-08
6.5815e-05
7.88403e-08
6.57513e-05
1.15641e-07
6.56678e-05
1.53391e-07
6.55637e-05
1.92801e-07
6.54376e-05
2.34683e-07
6.5288e-05
2.79977e-07
6.51125e-05
3.29799e-07
6.49082e-05
3.85489e-07
6.46713e-05
4.48707e-07
6.43972e-05
5.21551e-07
6.40798e-05
6.06754e-07
6.37113e-05
7.07974e-07
6.32816e-05
8.3026e-07
6.27778e-05
9.80808e-07
6.21821e-05
1.17021e-06
6.14711e-05
1.41456e-06
6.06129e-05
1.73907e-06
5.95648e-05
2.18427e-06
5.82733e-05
2.8168e-06
5.66868e-05
3.7507e-06
5.48431e-05
5.18486e-06
7.37992e-06
5.37519e-05
1.35878e-05
-7.78757e-07
1.40764e-05
-1.38444e-06
1.47456e-05
-1.88927e-06
1.55692e-05
-2.32011e-06
1.65282e-05
-2.69809e-06
1.76085e-05
-3.03674e-06
1.87994e-05
-3.34579e-06
2.0093e-05
-3.63214e-06
2.14826e-05
-3.89998e-06
2.29624e-05
-4.15105e-06
2.45262e-05
-4.38499e-06
2.61672e-05
-4.59976e-06
2.78776e-05
-4.79219e-06
2.96481e-05
-4.9586e-06
3.1468e-05
-5.09539e-06
3.33257e-05
-5.19957e-06
3.52087e-05
-5.26907e-06
3.71044e-05
-5.30294e-06
3.89998e-05
-5.30139e-06
4.08828e-05
-5.26567e-06
4.27418e-05
-5.19789e-06
4.45664e-05
-5.10088e-06
4.63471e-05
-4.97791e-06
4.80759e-05
-4.83248e-06
4.9746e-05
-4.66821e-06
5.13519e-05
-4.48864e-06
5.28894e-05
-4.29714e-06
5.43552e-05
-4.09685e-06
5.57472e-05
-3.89063e-06
5.70642e-05
-3.68102e-06
5.83058e-05
-3.47026e-06
5.94723e-05
-3.26028e-06
6.05645e-05
-3.05274e-06
6.15837e-05
-2.849e-06
6.25317e-05
-2.65019e-06
6.34106e-05
-2.45724e-06
6.42228e-05
-2.27085e-06
6.49707e-05
-2.09158e-06
6.5657e-05
-1.91982e-06
6.62845e-05
-1.75584e-06
6.68561e-05
-1.59979e-06
6.73744e-05
-1.45173e-06
6.78425e-05
-1.31163e-06
6.8263e-05
-1.17939e-06
6.86386e-05
-1.05485e-06
6.89721e-05
-9.37781e-07
6.9266e-05
-8.2792e-07
6.95227e-05
-7.24956e-07
6.97445e-05
-6.28535e-07
6.99336e-05
-5.38271e-07
7.00921e-05
-4.53742e-07
7.02217e-05
-3.74493e-07
7.03242e-05
-3.00038e-07
7.0401e-05
-2.29858e-07
7.04536e-05
-1.63404e-07
7.04829e-05
-1.0009e-07
7.04899e-05
-3.92964e-08
7.04753e-05
1.96297e-08
7.04395e-05
7.7373e-08
7.03826e-05
1.34707e-07
7.03046e-05
1.92485e-07
7.0205e-05
2.51655e-07
7.00829e-05
3.13282e-07
6.99373e-05
3.78569e-07
6.97665e-05
4.48901e-07
6.95684e-05
5.25897e-07
6.93402e-05
6.11484e-07
6.90787e-05
7.08005e-07
6.87794e-05
8.18366e-07
6.84374e-05
9.4626e-07
6.80463e-05
1.09648e-06
6.75985e-05
1.2754e-06
6.7085e-05
1.49165e-06
6.64953e-05
1.75718e-06
6.58184e-05
2.08872e-06
6.50448e-05
2.50987e-06
6.41726e-05
3.05372e-06
6.32212e-05
3.76547e-06
6.22662e-05
4.70309e-06
6.15247e-05
5.92381e-06
7.40759e-06
6.14945e-05
1.4526e-05
-1.05341e-06
1.50394e-05
-1.89741e-06
1.57469e-05
-2.59601e-06
1.66208e-05
-3.193e-06
1.76406e-05
-3.71663e-06
1.87911e-05
-4.18572e-06
2.00609e-05
-4.6139e-06
2.14415e-05
-5.01077e-06
2.29259e-05
-5.3822e-06
2.45079e-05
-5.73065e-06
2.61812e-05
-6.05565e-06
2.79384e-05
-6.35433e-06
2.97713e-05
-6.62224e-06
3.167e-05
-6.85423e-06
3.36229e-05
-7.04523e-06
3.56176e-05
-7.19102e-06
3.76405e-05
-7.28867e-06
3.96777e-05
-7.33681e-06
4.17154e-05
-7.33568e-06
4.37402e-05
-7.28701e-06
4.57396e-05
-7.19375e-06
4.77021e-05
-7.05981e-06
4.96175e-05
-6.88974e-06
5.1477e-05
-6.68844e-06
5.32733e-05
-6.46093e-06
5.50004e-05
-6.21214e-06
5.66536e-05
-5.94678e-06
5.82295e-05
-5.66921e-06
5.97257e-05
-5.38339e-06
6.1141e-05
-5.09288e-06
6.24749e-05
-4.80076e-06
6.37277e-05
-4.50974e-06
6.49004e-05
-4.22208e-06
6.59943e-05
-3.9397e-06
6.70114e-05
-3.66415e-06
6.79539e-05
-3.39671e-06
6.88243e-05
-3.13835e-06
6.96255e-05
-2.88985e-06
7.03601e-05
-2.65173e-06
7.10312e-05
-2.42437e-06
7.16419e-05
-2.20797e-06
7.21951e-05
-2.0026e-06
7.26939e-05
-1.80823e-06
7.31413e-05
-1.62471e-06
7.35402e-05
-1.4518e-06
7.38933e-05
-1.2892e-06
7.42035e-05
-1.13654e-06
7.44733e-05
-9.93371e-07
7.47052e-05
-8.59217e-07
7.49014e-05
-7.33535e-07
7.50643e-05
-6.15744e-07
7.51956e-05
-5.05215e-07
7.52972e-05
-4.0128e-07
7.53708e-05
-3.03224e-07
7.54176e-05
-2.10293e-07
7.5439e-05
-1.21689e-07
7.54358e-05
-3.65698e-08
7.54089e-05
4.59371e-08
7.53586e-05
1.26754e-07
7.52854e-05
2.06917e-07
7.5189e-05
2.87564e-07
7.50693e-05
3.69947e-07
7.49254e-05
4.55452e-07
7.47565e-05
5.45633e-07
7.45612e-05
6.42252e-07
7.43376e-05
7.47335e-07
7.40835e-05
8.63248e-07
7.37963e-05
9.92801e-07
7.34727e-05
1.13938e-06
7.31091e-05
1.30715e-06
7.27016e-05
1.50127e-06
7.22459e-05
1.72826e-06
7.17383e-05
1.99639e-06
7.11763e-05
2.3162e-06
7.05611e-05
2.70097e-06
6.9901e-05
3.16704e-06
6.92183e-05
3.73345e-06
6.8561e-05
4.41987e-06
6.80203e-05
5.24092e-06
6.77491e-05
6.19223e-06
7.21656e-06
6.79375e-05
1.55288e-05
-1.33421e-06
1.60659e-05
-2.43407e-06
1.68114e-05
-3.34069e-06
1.77362e-05
-4.11679e-06
1.88186e-05
-4.79765e-06
2.00422e-05
-5.40765e-06
2.13948e-05
-5.96461e-06
2.28673e-05
-6.48117e-06
2.44525e-05
-6.96504e-06
2.61439e-05
-7.4195e-06
2.79349e-05
-7.84393e-06
2.98181e-05
-8.23458e-06
3.17845e-05
-8.58557e-06
3.38235e-05
-8.89003e-06
3.59228e-05
-9.14124e-06
3.80687e-05
-9.33353e-06
4.02466e-05
-9.46298e-06
4.24411e-05
-9.52771e-06
4.46371e-05
-9.52799e-06
4.68198e-05
-9.46603e-06
4.89756e-05
-9.3457e-06
5.10917e-05
-9.17211e-06
5.3157e-05
-8.95124e-06
5.51619e-05
-8.68951e-06
5.70983e-05
-8.39353e-06
5.89598e-05
-8.06974e-06
6.07411e-05
-7.72431e-06
6.24386e-05
-7.36295e-06
6.40498e-05
-6.99085e-06
6.55733e-05
-6.61264e-06
6.70085e-05
-6.23237e-06
6.83559e-05
-5.85353e-06
6.96165e-05
-5.4791e-06
7.07918e-05
-5.11155e-06
7.18839e-05
-4.75291e-06
7.28953e-05
-4.40482e-06
7.38286e-05
-4.06856e-06
7.46869e-05
-3.7451e-06
7.54733e-05
-3.43514e-06
7.61909e-05
-3.13915e-06
7.6843e-05
-2.85738e-06
7.74328e-05
-2.58993e-06
7.79637e-05
-2.33673e-06
7.84388e-05
-2.09759e-06
7.88612e-05
-1.87219e-06
7.9234e-05
-1.66013e-06
7.95601e-05
-1.46092e-06
7.98422e-05
-1.274e-06
8.0083e-05
-1.09872e-06
8.02849e-05
-9.3439e-07
8.04503e-05
-7.80251e-07
8.05812e-05
-6.35491e-07
8.06796e-05
-4.99249e-07
8.07472e-05
-3.70608e-07
8.07855e-05
-2.48602e-07
8.07958e-05
-1.32211e-07
8.07792e-05
-2.03823e-08
8.07365e-05
8.79634e-08
8.06683e-05
1.93988e-07
8.05751e-05
2.98983e-07
8.0457e-05
4.04349e-07
8.03138e-05
5.11605e-07
8.0145e-05
6.2241e-07
7.99501e-05
7.38596e-07
7.9728e-05
8.62202e-07
7.94776e-05
9.9552e-07
7.91972e-05
1.14116e-06
7.88853e-05
1.30212e-06
7.854e-05
1.48188e-06
7.81598e-05
1.68452e-06
7.77433e-05
1.91483e-06
7.729e-05
2.17846e-06
7.68014e-05
2.48198e-06
7.62816e-05
2.8329e-06
7.57399e-05
3.23942e-06
7.5194e-05
3.7098e-06
7.46735e-05
4.25087e-06
7.42249e-05
4.86531e-06
7.39157e-05
5.54713e-06
7.38306e-05
6.27435e-06
6.99734e-06
7.40469e-05
1.66013e-05
-1.62141e-06
1.71617e-05
-2.99398e-06
1.79453e-05
-4.12347e-06
1.89221e-05
-5.09247e-06
2.00691e-05
-5.9432e-06
2.13689e-05
-6.70564e-06
2.28085e-05
-7.40222e-06
2.43785e-05
-8.04886e-06
2.60713e-05
-8.65536e-06
2.78805e-05
-9.22592e-06
2.97993e-05
-9.75978e-06
3.18199e-05
-1.02521e-05
3.39331e-05
-1.06955e-05
3.61275e-05
-1.10809e-05
3.83897e-05
-1.13998e-05
4.07046e-05
-1.16448e-05
4.30561e-05
-1.18107e-05
4.54273e-05
-1.1895e-05
4.78013e-05
-1.1898e-05
5.01617e-05
-1.18225e-05
5.24933e-05
-1.16732e-05
5.47821e-05
-1.14568e-05
5.70156e-05
-1.11807e-05
5.91834e-05
-1.08532e-05
6.12765e-05
-1.04825e-05
6.32877e-05
-1.00769e-05
6.52116e-05
-9.64408e-06
6.7044e-05
-9.19134e-06
6.87824e-05
-8.72518e-06
7.04251e-05
-8.25141e-06
7.19718e-05
-7.77513e-06
7.34228e-05
-7.30072e-06
7.47794e-05
-6.83189e-06
7.60433e-05
-6.37173e-06
7.72168e-05
-5.92278e-06
7.83025e-05
-5.48707e-06
7.93036e-05
-5.06619e-06
8.02231e-05
-4.66133e-06
8.10645e-05
-4.27336e-06
8.18312e-05
-3.90285e-06
8.25268e-05
-3.5501e-06
8.31548e-05
-3.21521e-06
8.37187e-05
-2.89809e-06
8.4222e-05
-2.59848e-06
8.4668e-05
-2.31599e-06
8.506e-05
-2.05011e-06
8.5401e-05
-1.8002e-06
8.56942e-05
-1.56557e-06
8.59423e-05
-1.34541e-06
8.6148e-05
-1.13886e-06
8.63136e-05
-9.44971e-07
8.64416e-05
-7.62742e-07
8.65339e-05
-5.91107e-07
8.65925e-05
-4.28941e-07
8.6619e-05
-2.75062e-07
8.66148e-05
-1.28229e-07
8.65811e-05
1.28034e-08
8.6519e-05
1.49282e-07
8.64294e-05
2.82647e-07
8.63128e-05
4.14406e-07
8.61695e-05
5.46185e-07
8.59998e-05
6.79719e-07
8.58034e-05
8.16872e-07
8.55803e-05
9.5966e-07
8.533e-05
1.11027e-06
8.50519e-05
1.2711e-06
8.47457e-05
1.44478e-06
8.44108e-05
1.63422e-06
8.40472e-05
1.84262e-06
8.36551e-05
2.07351e-06
8.32361e-05
2.33076e-06
8.27928e-05
2.61851e-06
8.23304e-05
2.94104e-06
8.18575e-05
3.30247e-06
8.13873e-05
3.70627e-06
8.09394e-05
4.15437e-06
8.0541e-05
4.64585e-06
8.0228e-05
5.17508e-06
8.00424e-05
5.72938e-06
8.00272e-05
6.28634e-06
6.81167e-06
8.02098e-05
1.77488e-05
-1.91579e-06
1.83327e-05
-3.57735e-06
1.91553e-05
-4.94515e-06
2.01856e-05
-6.12156e-06
2.13998e-05
-7.1558e-06
2.27795e-05
-8.08343e-06
2.43111e-05
-8.93175e-06
2.59851e-05
-9.72033e-06
2.77937e-05
-1.04613e-05
2.97307e-05
-1.11599e-05
3.17894e-05
-1.18153e-05
3.39619e-05
-1.24214e-05
3.62386e-05
-1.29686e-05
3.86072e-05
-1.34458e-05
4.1053e-05
-1.38418e-05
4.35593e-05
-1.41472e-05
4.61081e-05
-1.43554e-05
4.86802e-05
-1.4463e-05
5.12568e-05
-1.44703e-05
5.38193e-05
-1.43807e-05
5.63506e-05
-1.42002e-05
5.88351e-05
-1.39368e-05
6.12589e-05
-1.36001e-05
6.36103e-05
-1.32001e-05
6.58794e-05
-1.27472e-05
6.80584e-05
-1.22515e-05
7.01413e-05
-1.17226e-05
7.21238e-05
-1.11695e-05
7.4003e-05
-1.06001e-05
7.57774e-05
-1.00215e-05
7.74466e-05
-9.44009e-06
7.90111e-05
-8.86111e-06
8.04724e-05
-8.2891e-06
8.18325e-05
-7.7278e-06
8.30939e-05
-7.1803e-06
8.42596e-05
-6.64903e-06
8.5333e-05
-6.13592e-06
8.63176e-05
-5.64239e-06
8.72171e-05
-5.16947e-06
8.80353e-05
-4.71782e-06
8.87761e-05
-4.28779e-06
8.94433e-05
-3.87948e-06
9.00407e-05
-3.49276e-06
9.05721e-05
-3.1273e-06
9.10411e-05
-2.78261e-06
9.14512e-05
-2.45804e-06
9.18058e-05
-2.15285e-06
9.21081e-05
-1.86615e-06
9.23612e-05
-1.59698e-06
9.25679e-05
-1.34429e-06
9.27309e-05
-1.10694e-06
9.28527e-05
-8.83723e-07
9.29355e-05
-6.73368e-07
9.29814e-05
-4.74538e-07
9.29922e-05
-2.85834e-07
9.29695e-05
-1.05815e-07
9.29149e-05
6.6946e-08
9.28295e-05
2.3388e-07
9.27145e-05
3.96633e-07
9.25708e-05
5.5693e-07
9.23989e-05
7.16571e-07
9.21994e-05
8.77445e-07
9.19728e-05
1.04154e-06
9.17193e-05
1.21094e-06
9.14393e-05
1.38787e-06
9.11331e-05
1.57464e-06
9.08014e-05
1.77372e-06
9.0445e-05
1.98767e-06
9.00654e-05
2.21915e-06
8.96648e-05
2.47087e-06
8.92467e-05
2.74548e-06
8.88164e-05
3.04545e-06
8.83811e-05
3.37283e-06
8.79511e-05
3.72886e-06
8.75403e-05
4.11356e-06
8.71661e-05
4.52499e-06
8.68498e-05
4.95849e-06
8.66156e-05
5.4058e-06
8.64872e-05
5.85423e-06
8.64838e-05
6.28637e-06
6.68093e-06
8.66111e-05
1.8977e-05
-2.21857e-06
1.95853e-05
-4.18509e-06
2.04483e-05
-5.80724e-06
2.15344e-05
-7.20631e-06
2.2819e-05
-8.43874e-06
2.42832e-05
-9.54556e-06
2.5913e-05
-1.05592e-05
2.76987e-05
-1.15034e-05
2.96331e-05
-1.23928e-05
3.17104e-05
-1.3234e-05
3.39242e-05
-1.40258e-05
3.6267e-05
-1.47605e-05
3.87285e-05
-1.54263e-05
4.12954e-05
-1.60088e-05
4.39516e-05
-1.64938e-05
4.6678e-05
-1.68694e-05
4.9454e-05
-1.7127e-05
5.22578e-05
-1.72623e-05
5.50676e-05
-1.72756e-05
5.78623e-05
-1.71708e-05
6.06225e-05
-1.69556e-05
6.33303e-05
-1.664e-05
6.59705e-05
-1.62355e-05
6.85297e-05
-1.57546e-05
7.09973e-05
-1.521e-05
7.33646e-05
-1.46141e-05
7.56252e-05
-1.39785e-05
7.77745e-05
-1.33141e-05
7.98096e-05
-1.26305e-05
8.17289e-05
-1.19363e-05
8.35324e-05
-1.1239e-05
8.52208e-05
-1.0545e-05
8.67957e-05
-9.85965e-06
8.82596e-05
-9.18743e-06
8.96154e-05
-8.53195e-06
9.08666e-05
-7.89612e-06
9.20168e-05
-7.28217e-06
9.307e-05
-6.69176e-06
9.40302e-05
-6.12608e-06
9.49018e-05
-5.58587e-06
9.56889e-05
-5.07153e-06
9.63957e-05
-4.58314e-06
9.70264e-05
-4.12051e-06
9.75851e-05
-3.68322e-06
9.80758e-05
-3.27068e-06
9.85022e-05
-2.88209e-06
9.8868e-05
-2.51655e-06
9.91768e-05
-2.17301e-06
9.94318e-05
-1.85032e-06
9.96361e-05
-1.54723e-06
9.97927e-05
-1.2624e-06
9.99042e-05
-9.94413e-07
9.99733e-05
-7.41792e-07
0.000100002
-5.02981e-07
9.99927e-05
-2.76373e-07
9.9947e-05
-6.03676e-08
9.98668e-05
1.46624e-07
9.97537e-05
3.4623e-07
9.9609e-05
5.40292e-07
9.94339e-05
7.30693e-07
9.92295e-05
9.19354e-07
9.89969e-05
1.10824e-06
9.8737e-05
1.29939e-06
9.84507e-05
1.49486e-06
9.81393e-05
1.69676e-06
9.78039e-05
1.90722e-06
9.74464e-05
2.12837e-06
9.70686e-05
2.36228e-06
9.66736e-05
2.61092e-06
9.62649e-05
2.87609e-06
9.58476e-05
3.15924e-06
9.54281e-05
3.46136e-06
9.50145e-05
3.78272e-06
9.46169e-05
4.12263e-06
9.42476e-05
4.47905e-06
9.39205e-05
4.84829e-06
9.36505e-05
5.22465e-06
9.34524e-05
5.60016e-06
9.33383e-05
5.96462e-06
9.3315e-05
6.30598e-06
6.61176e-06
9.33805e-05
2.02916e-05
-2.53131e-06
2.09259e-05
-4.81878e-06
2.18317e-05
-6.71202e-06
2.29767e-05
-8.34984e-06
2.4336e-05
-9.79625e-06
2.58903e-05
-1.10977e-05
2.76257e-05
-1.22921e-05
2.95329e-05
-1.34078e-05
3.16057e-05
-1.44625e-05
3.38391e-05
-1.5464e-05
3.62279e-05
-1.64109e-05
3.87647e-05
-1.72935e-05
4.14389e-05
-1.80964e-05
4.42359e-05
-1.88015e-05
4.7137e-05
-1.93905e-05
5.01204e-05
-1.98482e-05
5.31617e-05
-2.01636e-05
5.62355e-05
-2.03313e-05
5.93164e-05
-2.03515e-05
6.23799e-05
-2.02294e-05
6.54036e-05
-1.99744e-05
6.83675e-05
-1.95988e-05
7.12541e-05
-1.9117e-05
7.40489e-05
-1.85442e-05
7.67399e-05
-1.78959e-05
7.93181e-05
-1.71871e-05
8.17766e-05
-1.64319e-05
8.41106e-05
-1.5643e-05
8.63173e-05
-1.48322e-05
8.83955e-05
-1.40095e-05
9.03452e-05
-1.31838e-05
9.21677e-05
-1.23627e-05
9.38651e-05
-1.15523e-05
9.54402e-05
-1.0758e-05
9.68966e-05
-9.98382e-06
9.82381e-05
-9.23322e-06
9.94689e-05
-8.50874e-06
0.000100594
-7.81226e-06
0.000101617
-7.14511e-06
0.000102543
-6.50811e-06
0.000103376
-5.90166e-06
0.000104122
-5.32582e-06
0.000104785
-4.78032e-06
0.00010537
-4.26464e-06
0.00010588
-3.77803e-06
0.00010632
-3.31958e-06
0.000106694
-2.88817e-06
0.000107006
-2.48259e-06
0.000107259
-2.10149e-06
0.000107456
-1.7434e-06
0.000107602
-1.40679e-06
0.000107699
-1.09002e-06
0.000107749
-7.91398e-07
0.000107755
-5.09148e-07
0.000107721
-2.41449e-07
0.000107647
1.3346e-08
0.000107536
2.5695e-07
0.00010739
4.91346e-07
0.000107211
7.18476e-07
0.000107
9.40315e-07
0.000106759
1.15885e-06
0.000106489
1.37606e-06
0.000106192
1.59395e-06
0.00010587
1.81446e-06
0.000105525
2.03953e-06
0.000105158
2.27098e-06
0.000104773
2.51054e-06
0.000104372
2.75975e-06
0.00010396
3.01989e-06
0.00010354
3.29191e-06
0.000103119
3.5763e-06
0.000102704
3.87295e-06
0.000102302
4.181e-06
0.000101922
4.49866e-06
0.000101574
4.82309e-06
0.000101268
5.15023e-06
0.000101013
5.47479e-06
0.000100819
5.7903e-06
0.00010069
6.08938e-06
0.000100628
6.36423e-06
6.60785e-06
0.000100628
2.16988e-05
-2.85587e-06
2.23614e-05
-5.4807e-06
2.33131e-05
-7.66262e-06
2.45211e-05
-9.55628e-06
2.59605e-05
-1.12337e-05
2.7612e-05
-1.27469e-05
2.94624e-05
-1.41398e-05
3.15035e-05
-1.54458e-05
3.37308e-05
-1.66863e-05
3.61412e-05
-1.78708e-05
3.87311e-05
-1.89968e-05
4.14937e-05
-2.00519e-05
4.44176e-05
-2.1016e-05
4.74863e-05
-2.18655e-05
5.06775e-05
-2.2577e-05
5.3965e-05
-2.31307e-05
5.73195e-05
-2.3513e-05
6.07106e-05
-2.37172e-05
6.41081e-05
-2.37437e-05
6.74836e-05
-2.35995e-05
7.08112e-05
-2.32965e-05
7.40679e-05
-2.285e-05
7.72345e-05
-2.2278e-05
8.02948e-05
-2.1599e-05
8.32361e-05
-2.08317e-05
8.60488e-05
-1.99943e-05
8.87258e-05
-1.91034e-05
9.12626e-05
-1.81743e-05
9.36565e-05
-1.72207e-05
9.59068e-05
-1.62545e-05
9.80142e-05
-1.52859e-05
9.99804e-05
-1.43236e-05
0.000101808
-1.33749e-05
0.000103501
-1.24458e-05
0.000105063
-1.1541e-05
0.000106499
-1.06643e-05
0.000107813
-9.81849e-06
0.000109011
-9.00577e-06
0.000110098
-8.22754e-06
0.000111079
-7.48469e-06
0.000111958
-6.7776e-06
0.000112743
-6.10626e-06
0.000113436
-5.4703e-06
0.000114044
-4.86908e-06
0.00011457
-4.30169e-06
0.000115021
-3.76703e-06
0.000115399
-3.26381e-06
0.000115709
-2.7906e-06
0.000115956
-2.34585e-06
0.000116142
-1.92788e-06
0.000116271
-1.53493e-06
0.000116347
-1.16515e-06
0.000116374
-8.16639e-07
0.000116352
-4.87433e-07
0.000116287
-1.7557e-07
0.000116179
1.20822e-07
0.000116032
4.03551e-07
0.000115848
6.74748e-07
0.000115629
9.36513e-07
0.000115377
1.19088e-06
0.000115094
1.43986e-06
0.000114783
1.68539e-06
0.000114445
1.92937e-06
0.000114083
2.17361e-06
0.0001137
2.41979e-06
0.000113299
2.66942e-06
0.000112882
2.92381e-06
0.000112454
3.18402e-06
0.00011202
3.45076e-06
0.000111584
3.72433e-06
0.000111151
4.00455e-06
0.00011073
4.29066e-06
0.000110325
4.58124e-06
0.000109946
4.87417e-06
0.000109598
5.16655e-06
0.000109289
5.45476e-06
0.000109025
5.73452e-06
0.00010881
6.00107e-06
0.000108646
6.24943e-06
0.000108531
6.47483e-06
6.67357e-06
0.000108461
2.3205e-05
-3.19432e-06
2.38988e-05
-6.1738e-06
2.49004e-05
-8.66307e-06
2.61767e-05
-1.08309e-05
2.77031e-05
-1.2758e-05
2.94609e-05
-1.45022e-05
3.14383e-05
-1.61143e-05
3.36294e-05
-1.76336e-05
3.60326e-05
-1.9086e-05
3.86482e-05
-2.04824e-05
4.14746e-05
-2.18189e-05
4.45057e-05
-2.30785e-05
4.77289e-05
-2.42344e-05
5.11238e-05
-2.52554e-05
5.46631e-05
-2.61111e-05
5.83139e-05
-2.67762e-05
6.20402e-05
-2.72339e-05
6.5805e-05
-2.74763e-05
6.95723e-05
-2.75053e-05
7.33086e-05
-2.73301e-05
7.69843e-05
-2.69662e-05
8.05736e-05
-2.64334e-05
8.40551e-05
-2.57535e-05
8.74116e-05
-2.49495e-05
9.06299e-05
-2.4044e-05
9.37e-05
-2.30584e-05
9.66152e-05
-2.20126e-05
9.93713e-05
-2.09245e-05
0.000101967
-1.981e-05
0.000104401
-1.86828e-05
0.000106675
-1.75547e-05
0.000108793
-1.64357e-05
0.000110757
-1.53338e-05
0.000112573
-1.42558e-05
0.000114244
-1.3207e-05
0.000115777
-1.21917e-05
0.000117176
-1.12128e-05
0.000118448
-1.02728e-05
0.000119598
-9.37314e-06
0.000120633
-8.51466e-06
0.000121557
-7.69773e-06
0.000122377
-6.92224e-06
0.000123098
-6.1877e-06
0.000123726
-5.49329e-06
0.000124266
-4.83794e-06
0.000124722
-4.22033e-06
0.0001251
-3.63898e-06
0.000125404
-3.09223e-06
0.000125639
-2.5783e-06
0.000125808
-2.09531e-06
0.000125916
-1.64125e-06
0.000125966
-1.21409e-06
0.000125962
-8.11692e-07
0.000125907
-4.319e-07
0.000125805
-7.27318e-08
0.000125657
2.67875e-07
0.000125469
5.92019e-07
0.000125241
9.01937e-07
0.000124976
1.19978e-06
0.000124678
1.48762e-06
0.000124349
1.76742e-06
0.000123991
2.04109e-06
0.000123608
2.31038e-06
0.000123202
2.57694e-06
0.000122776
2.8422e-06
0.000122335
3.10739e-06
0.000121882
3.37348e-06
0.000121422
3.64113e-06
0.000120958
3.91066e-06
0.000120496
4.18198e-06
0.000120042
4.45456e-06
0.000119601
4.72736e-06
0.000119179
4.99889e-06
0.000118782
5.26712e-06
0.000118414
5.52958e-06
0.000118081
5.7834e-06
0.000117786
6.02544e-06
0.00011753
6.25246e-06
0.000117313
6.46131e-06
0.000117134
6.64925e-06
6.8145e-06
0.000116989
2.48171e-05
-3.54899e-06
2.55458e-05
-6.90176e-06
2.66024e-05
-9.71836e-06
2.79536e-05
-1.21803e-05
2.95756e-05
-1.43777e-05
3.14512e-05
-1.63752e-05
3.35713e-05
-1.82312e-05
3.59341e-05
-1.99928e-05
3.85428e-05
-2.16908e-05
4.14021e-05
-2.33374e-05
4.45134e-05
-2.49257e-05
4.7871e-05
-2.64312e-05
5.14589e-05
-2.78171e-05
5.52507e-05
-2.90418e-05
5.92108e-05
-3.00656e-05
6.3297e-05
-3.08567e-05
6.74642e-05
-3.13951e-05
7.1667e-05
-3.16731e-05
7.58624e-05
-3.16946e-05
8.00118e-05
-3.14732e-05
8.40813e-05
-3.10294e-05
8.80428e-05
-3.03884e-05
9.18732e-05
-2.95775e-05
9.55546e-05
-2.86246e-05
9.90738e-05
-2.75567e-05
0.000102421
-2.63995e-05
0.000105591
-2.5176e-05
0.00010858
-2.39071e-05
0.000111387
-2.26109e-05
0.000114014
-2.13031e-05
0.000116462
-1.9997e-05
0.000118736
-1.87037e-05
0.000120841
-1.74323e-05
0.000122781
-1.61901e-05
0.000124563
-1.49831e-05
0.000126193
-1.38158e-05
0.000127677
-1.26914e-05
0.000129022
-1.16123e-05
0.000130234
-1.05802e-05
0.00013132
-9.59576e-06
0.000132286
-8.65932e-06
0.000133139
-7.7706e-06
0.000133884
-6.92896e-06
0.000134528
-6.13337e-06
0.000135076
-5.38255e-06
0.000135534
-4.67497e-06
0.000135907
-4.00891e-06
0.000136201
-3.38247e-06
0.000136418
-2.79365e-06
0.000136565
-2.24034e-06
0.000136646
-1.72031e-06
0.000136665
-1.23131e-06
0.000136625
-7.71012e-07
0.000136531
-3.37077e-07
0.000136386
7.25435e-08
0.000136194
4.60003e-07
0.000135958
8.27812e-07
0.000135681
1.17826e-06
0.000135366
1.51352e-06
0.000135017
1.83564e-06
0.000134636
2.14658e-06
0.000134227
2.44815e-06
0.000133793
2.742e-06
0.000133338
3.0296e-06
0.000132865
3.3122e-06
0.000132378
3.5908e-06
0.000131882
3.86615e-06
0.000131381
4.13867e-06
0.000130879
4.40845e-06
0.000130381
4.67525e-06
0.000129893
4.93845e-06
0.000129419
5.19707e-06
0.000128964
5.4498e-06
0.000128531
5.69499e-06
0.000128125
5.93077e-06
0.000127749
6.15511e-06
0.000127403
6.36589e-06
0.00012709
6.56108e-06
0.000126808
6.73885e-06
0.000126555
6.89777e-06
7.03723e-06
0.000126327
2.65423e-05
-3.92248e-06
2.73105e-05
-7.66909e-06
2.84283e-05
-1.08347e-05
2.98627e-05
-1.36128e-05
3.15914e-05
-1.61038e-05
3.36e-05
-1.83808e-05
3.58841e-05
-2.05119e-05
3.84484e-05
-2.25533e-05
4.13036e-05
-2.45417e-05
4.44605e-05
-2.64896e-05
4.79234e-05
-2.83836e-05
5.16849e-05
-3.01874e-05
5.57227e-05
-3.18493e-05
6e-05
-3.33133e-05
6.44687e-05
-3.45282e-05
6.9074e-05
-3.54558e-05
7.3759e-05
-3.60736e-05
7.84686e-05
-3.6376e-05
8.31522e-05
-3.63715e-05
8.77659e-05
-3.608e-05
9.22724e-05
-3.55291e-05
9.66417e-05
-3.47507e-05
0.00010085
-3.37789e-05
0.00010488
-3.26473e-05
0.000108719
-3.13884e-05
0.000112358
-3.00318e-05
0.000115793
-2.86044e-05
0.000119023
-2.71299e-05
0.000122048
-2.56289e-05
0.000124871
-2.4119e-05
0.000127495
-2.26148e-05
0.000129927
-2.11285e-05
0.000132172
-1.96703e-05
0.000134236
-1.82479e-05
0.000136127
-1.68677e-05
0.000137851
-1.55343e-05
0.000139417
-1.42514e-05
0.000140832
-1.30212e-05
0.000142102
-1.18453e-05
0.000143236
-1.07243e-05
0.000144241
-9.65847e-06
0.000145122
-8.64726e-06
0.000145888
-7.68982e-06
0.000146543
-6.78492e-06
0.000147096
-5.931e-06
0.000147551
-5.12631e-06
0.000147914
-4.36886e-06
0.000148192
-3.65653e-06
0.000148388
-2.98706e-06
0.000148508
-2.35809e-06
0.000148557
-1.76722e-06
0.000148539
-1.21197e-06
0.000148459
-6.89866e-07
0.000148322
-1.98486e-07
0.00014813
2.64659e-07
0.000147889
7.01804e-07
0.000147601
1.11555e-06
0.00014727
1.5083e-06
0.0001469
1.88225e-06
0.000146495
2.23948e-06
0.000146058
2.5819e-06
0.000145593
2.91125e-06
0.000145103
3.22911e-06
0.000144594
3.53682e-06
0.000144067
3.83551e-06
0.000143529
4.12606e-06
0.000142982
4.4091e-06
0.000142432
4.68496e-06
0.000141883
4.9537e-06
0.000141339
5.2151e-06
0.000140804
5.46866e-06
0.000140283
5.71363e-06
0.000139779
5.94905e-06
0.000139295
6.17378e-06
0.000138834
6.38658e-06
0.000138398
6.58616e-06
0.000137988
6.77128e-06
0.000137603
6.9408e-06
0.000137243
7.09382e-06
0.000136907
7.22974e-06
7.34868e-06
0.00013659
2.83886e-05
-4.31774e-06
2.92017e-05
-8.48124e-06
3.03883e-05
-1.20198e-05
3.19166e-05
-1.5139e-05
3.37663e-05
-1.79509e-05
3.59284e-05
-2.05397e-05
3.84061e-05
-2.2986e-05
4.12144e-05
-2.53574e-05
4.43741e-05
-2.76969e-05
4.79035e-05
-3.0014e-05
5.18084e-05
-3.22831e-05
5.60753e-05
-3.44486e-05
6.06699e-05
-3.64378e-05
6.55389e-05
-3.81759e-05
7.06167e-05
-3.95995e-05
7.58321e-05
-4.06644e-05
8.11144e-05
-4.1349e-05
8.63982e-05
-4.16527e-05
9.16258e-05
-4.15919e-05
9.67488e-05
-4.11956e-05
0.000101728
-4.05005e-05
0.000106532
-3.95474e-05
0.000111139
-3.83779e-05
0.000115531
-3.70324e-05
0.0001197
-3.55488e-05
0.000123637
-3.39615e-05
0.000127341
-3.23009e-05
0.000130813
-3.05939e-05
0.000134054
-2.88631e-05
0.000137071
-2.7128e-05
0.000139868
-2.54046e-05
0.000142453
-2.37061e-05
0.000144833
-2.20431e-05
0.000147016
-2.0424e-05
0.000149011
-1.88554e-05
0.000150825
-1.7342e-05
0.000152468
-1.58874e-05
0.000153947
-1.4494e-05
0.000155271
-1.31631e-05
0.000156447
-1.18951e-05
0.000157485
-1.06901e-05
0.00015839
-9.54724e-06
0.000159171
-8.46545e-06
0.000159834
-7.44321e-06
0.000160386
-6.47871e-06
0.000160834
-5.56989e-06
0.000161183
-4.71452e-06
0.00016144
-3.9102e-06
0.000161611
-3.15444e-06
0.0001617
-2.44465e-06
0.000161714
-1.77818e-06
0.000161656
-1.15235e-06
0.000161532
-5.64457e-07
0.000161347
-1.22316e-08
0.000161106
5.07074e-07
0.000160811
9.96402e-07
0.000160469
1.45829e-06
0.000160081
1.89511e-06
0.000159654
2.3091e-06
0.00015919
2.70235e-06
0.000158693
3.07674e-06
0.000158168
3.43402e-06
0.000157619
3.7757e-06
0.00015705
4.10308e-06
0.000156466
4.41725e-06
0.000155869
4.71907e-06
0.000155266
5.00916e-06
0.000154659
5.2879e-06
0.000154053
5.55544e-06
0.000153452
5.81173e-06
0.00015286
6.05653e-06
0.000152279
6.2894e-06
0.000151714
6.50981e-06
0.000151165
6.71713e-06
0.000150636
6.9107e-06
0.000150127
7.08987e-06
0.000149639
7.25407e-06
0.000149172
7.40284e-06
0.000148725
7.5359e-06
0.000148296
7.65322e-06
7.75534e-06
0.000147885
3.03643e-05
-4.73818e-06
3.1229e-05
-9.34485e-06
3.24941e-05
-1.32833e-05
3.41297e-05
-1.67723e-05
3.61199e-05
-1.99383e-05
3.84639e-05
-2.28802e-05
4.11775e-05
-2.56955e-05
4.42904e-05
-2.84658e-05
4.78369e-05
-3.12384e-05
5.18419e-05
-3.40135e-05
5.6308e-05
-3.67433e-05
6.12082e-05
-3.93425e-05
6.64869e-05
-4.171e-05
7.20673e-05
-4.37494e-05
7.78607e-05
-4.53857e-05
8.37769e-05
-4.65731e-05
8.97308e-05
-4.72953e-05
9.56475e-05
-4.75615e-05
0.000101464
-4.74001e-05
0.000107128
-4.68522e-05
0.000112602
-4.59661e-05
0.000117856
-4.47927e-05
0.000122868
-4.33821e-05
0.000127627
-4.17822e-05
0.000132123
-4.00365e-05
0.000136354
-3.8184e-05
0.00014032
-3.6259e-05
0.000144025
-3.42907e-05
0.000147475
-3.23043e-05
0.000150675
-3.03205e-05
0.000153635
-2.83565e-05
0.000156363
-2.64262e-05
0.000158869
-2.45407e-05
0.000161161
-2.27087e-05
0.00016325
-2.09368e-05
0.000165145
-1.92298e-05
0.000166856
-1.75911e-05
0.000168392
-1.60229e-05
0.000169762
-1.45262e-05
0.000170974
-1.31013e-05
0.000172038
-1.17478e-05
0.000172962
-1.04647e-05
0.000173752
-9.25046e-06
0.000174418
-8.10334e-06
0.000174965
-7.02119e-06
0.000175402
-6.00165e-06
0.000175734
-5.04222e-06
0.000175968
-4.14021e-06
0.00017611
-3.29289e-06
0.000176166
-2.49743e-06
0.000176141
-1.751e-06
0.000176042
-1.05075e-06
0.000175874
-3.9388e-07
0.00017564
2.22615e-07
0.000175347
8.01425e-07
0.000174998
1.34553e-06
0.000174599
1.85765e-06
0.000174154
2.34027e-06
0.000173667
2.79566e-06
0.000173142
3.22593e-06
0.000172585
3.63302e-06
0.000171998
4.01867e-06
0.000171387
4.38442e-06
0.000170756
4.73158e-06
0.000170109
5.0613e-06