/*--------------------------------*- C++ -*----------------------------------*\
| =========                 |                                                 |
| \\      /  F ield         | OpenFOAM: The Open Source CFD Toolbox           |
|  \\    /   O peration     | Version:  2012                                  |
|   \\  /    A nd           | Website:  www.openfoam.com                      |
|    \\/     M anipulation  |                                                 |
\*---------------------------------------------------------------------------*/
FoamFile
{
    version     2.0;
    format      ascii;
    class       volScalarField;
    location    "0";
    object      T;
}
// * * * * * * * * * * * * * * * * * * * * * * * * * * * * * * * * * * * * * //

dimensions      [0 0 0 1 0 0 0];


internalField   nonuniform List<scalar> 
100
(
1.01
1.03
1.07
1.13
1.21
1.31
1.43
1.57
1.73
1.91
1.07
1.09
1.13
1.19
1.27
1.37
1.49
1.63
1.79
1.97
1.19
1.21
1.25
1.31
1.39
1.49
1.61
1.75
1.91
2.09
1.37
1.39
1.43
1.49
1.57
1.67
1.79
1.93
2.09
2.27
1.61
1.63
1.67
1.73
1.81
1.91
2.03
2.17
2.33
2.51
1.91
1.93
1.97
2.03
2.11
2.21
2.33
2.47
2.63
2.81
2.27
2.29
2.33
2.39
2.47
2.57
2.69
2.83
2.99
3.17
2.69
2.71
2.75
2.81
2.89
2.99
3.11
3.25
3.41
3.59
3.17
3.19
3.23
3.29
3.37
3.47
3.59
3.73
3.89
4.07
3.71
3.73
3.77
3.83
3.91
4.01
4.13
4.27
4.43
4.61
)
;

boundaryField
{
    DirichletBoundary
    {
        type            groovyBC;
	variables   "alpha=3;beta=1.3;para=1+pow(pos().x,2)+(alpha*pow(pos().y,2));";
	valueExpression  "para+(beta*time())";
	value        uniform 1;
    }
    interface
    {
        type            fixedValue;
	value           uniform 0;
    }
    defaultFaces
    {
        type            empty;
    }
}


// ************************************************************************* //
