FoamFile
{
    version     2.0;
    format      ascii;
    class       volScalarField;
    location    "0";
    object      T;
}
// * * * * * * * * * * * * * * * * * * * * * * * * * * * * * * * * * * * * * //

dimensions      [0 0 0 1 0 0 0];


internalField   nonuniform List<scalar> 
10000
(
1.0001
1.0003
1.0007
1.0013
1.0021
1.0031
1.0043
1.0057
1.0073
1.0091
1.0111
1.0133
1.0157
1.0183
1.0211
1.0241
1.0273
1.0307
1.0343
1.0381
1.0421
1.0463
1.0507
1.0553
1.0601
1.0651
1.0703
1.0757
1.0813
1.0871
1.0931
1.0993
1.1057
1.1123
1.1191
1.1261
1.1333
1.1407
1.1483
1.1561
1.1641
1.1723
1.1807
1.1893
1.1981
1.2071
1.2163
1.2257
1.2353
1.2451
1.2551
1.2653
1.2757
1.2863
1.2971
1.3081
1.3193
1.3307
1.3423
1.3541
1.3661
1.3783
1.3907
1.4033
1.4161
1.4291
1.4423
1.4557
1.4693
1.4831
1.4971
1.5113
1.5257
1.5403
1.5551
1.5701
1.5853
1.6007
1.6163
1.6321
1.6481
1.6643
1.6807
1.6973
1.7141
1.7311
1.7483
1.7657
1.7833
1.8011
1.8191
1.8373
1.8557
1.8743
1.8931
1.9121
1.9313
1.9507
1.9703
1.9901
1.0007
1.0009
1.0013
1.0019
1.0027
1.0037
1.0049
1.0063
1.0079
1.0097
1.0117
1.0139
1.0163
1.0189
1.0217
1.0247
1.0279
1.0313
1.0349
1.0387
1.0427
1.0469
1.0513
1.0559
1.0607
1.0657
1.0709
1.0763
1.0819
1.0877
1.0937
1.0999
1.1063
1.1129
1.1197
1.1267
1.1339
1.1413
1.1489
1.1567
1.1647
1.1729
1.1813
1.1899
1.1987
1.2077
1.2169
1.2263
1.2359
1.2457
1.2557
1.2659
1.2763
1.2869
1.2977
1.3087
1.3199
1.3313
1.3429
1.3547
1.3667
1.3789
1.3913
1.4039
1.4167
1.4297
1.4429
1.4563
1.4699
1.4837
1.4977
1.5119
1.5263
1.5409
1.5557
1.5707
1.5859
1.6013
1.6169
1.6327
1.6487
1.6649
1.6813
1.6979
1.7147
1.7317
1.7489
1.7663
1.7839
1.8017
1.8197
1.8379
1.8563
1.8749
1.8937
1.9127
1.9319
1.9513
1.9709
1.9907
1.0019
1.0021
1.0025
1.0031
1.0039
1.0049
1.0061
1.0075
1.0091
1.0109
1.0129
1.0151
1.0175
1.0201
1.0229
1.0259
1.0291
1.0325
1.0361
1.0399
1.0439
1.0481
1.0525
1.0571
1.0619
1.0669
1.0721
1.0775
1.0831
1.0889
1.0949
1.1011
1.1075
1.1141
1.1209
1.1279
1.1351
1.1425
1.1501
1.1579
1.1659
1.1741
1.1825
1.1911
1.1999
1.2089
1.2181
1.2275
1.2371
1.2469
1.2569
1.2671
1.2775
1.2881
1.2989
1.3099
1.3211
1.3325
1.3441
1.3559
1.3679
1.3801
1.3925
1.4051
1.4179
1.4309
1.4441
1.4575
1.4711
1.4849
1.4989
1.5131
1.5275
1.5421
1.5569
1.5719
1.5871
1.6025
1.6181
1.6339
1.6499
1.6661
1.6825
1.6991
1.7159
1.7329
1.7501
1.7675
1.7851
1.8029
1.8209
1.8391
1.8575
1.8761
1.8949
1.9139
1.9331
1.9525
1.9721
1.9919
1.0037
1.0039
1.0043
1.0049
1.0057
1.0067
1.0079
1.0093
1.0109
1.0127
1.0147
1.0169
1.0193
1.0219
1.0247
1.0277
1.0309
1.0343
1.0379
1.0417
1.0457
1.0499
1.0543
1.0589
1.0637
1.0687
1.0739
1.0793
1.0849
1.0907
1.0967
1.1029
1.1093
1.1159
1.1227
1.1297
1.1369
1.1443
1.1519
1.1597
1.1677
1.1759
1.1843
1.1929
1.2017
1.2107
1.2199
1.2293
1.2389
1.2487
1.2587
1.2689
1.2793
1.2899
1.3007
1.3117
1.3229
1.3343
1.3459
1.3577
1.3697
1.3819
1.3943
1.4069
1.4197
1.4327
1.4459
1.4593
1.4729
1.4867
1.5007
1.5149
1.5293
1.5439
1.5587
1.5737
1.5889
1.6043
1.6199
1.6357
1.6517
1.6679
1.6843
1.7009
1.7177
1.7347
1.7519
1.7693
1.7869
1.8047
1.8227
1.8409
1.8593
1.8779
1.8967
1.9157
1.9349
1.9543
1.9739
1.9937
1.0061
1.0063
1.0067
1.0073
1.0081
1.0091
1.0103
1.0117
1.0133
1.0151
1.0171
1.0193
1.0217
1.0243
1.0271
1.0301
1.0333
1.0367
1.0403
1.0441
1.0481
1.0523
1.0567
1.0613
1.0661
1.0711
1.0763
1.0817
1.0873
1.0931
1.0991
1.1053
1.1117
1.1183
1.1251
1.1321
1.1393
1.1467
1.1543
1.1621
1.1701
1.1783
1.1867
1.1953
1.2041
1.2131
1.2223
1.2317
1.2413
1.2511
1.2611
1.2713
1.2817
1.2923
1.3031
1.3141
1.3253
1.3367
1.3483
1.3601
1.3721
1.3843
1.3967
1.4093
1.4221
1.4351
1.4483
1.4617
1.4753
1.4891
1.5031
1.5173
1.5317
1.5463
1.5611
1.5761
1.5913
1.6067
1.6223
1.6381
1.6541
1.6703
1.6867
1.7033
1.7201
1.7371
1.7543
1.7717
1.7893
1.8071
1.8251
1.8433
1.8617
1.8803
1.8991
1.9181
1.9373
1.9567
1.9763
1.9961
1.0091
1.0093
1.0097
1.0103
1.0111
1.0121
1.0133
1.0147
1.0163
1.0181
1.0201
1.0223
1.0247
1.0273
1.0301
1.0331
1.0363
1.0397
1.0433
1.0471
1.0511
1.0553
1.0597
1.0643
1.0691
1.0741
1.0793
1.0847
1.0903
1.0961
1.1021
1.1083
1.1147
1.1213
1.1281
1.1351
1.1423
1.1497
1.1573
1.1651
1.1731
1.1813
1.1897
1.1983
1.2071
1.2161
1.2253
1.2347
1.2443
1.2541
1.2641
1.2743
1.2847
1.2953
1.3061
1.3171
1.3283
1.3397
1.3513
1.3631
1.3751
1.3873
1.3997
1.4123
1.4251
1.4381
1.4513
1.4647
1.4783
1.4921
1.5061
1.5203
1.5347
1.5493
1.5641
1.5791
1.5943
1.6097
1.6253
1.6411
1.6571
1.6733
1.6897
1.7063
1.7231
1.7401
1.7573
1.7747
1.7923
1.8101
1.8281
1.8463
1.8647
1.8833
1.9021
1.9211
1.9403
1.9597
1.9793
1.9991
1.0127
1.0129
1.0133
1.0139
1.0147
1.0157
1.0169
1.0183
1.0199
1.0217
1.0237
1.0259
1.0283
1.0309
1.0337
1.0367
1.0399
1.0433
1.0469
1.0507
1.0547
1.0589
1.0633
1.0679
1.0727
1.0777
1.0829
1.0883
1.0939
1.0997
1.1057
1.1119
1.1183
1.1249
1.1317
1.1387
1.1459
1.1533
1.1609
1.1687
1.1767
1.1849
1.1933
1.2019
1.2107
1.2197
1.2289
1.2383
1.2479
1.2577
1.2677
1.2779
1.2883
1.2989
1.3097
1.3207
1.3319
1.3433
1.3549
1.3667
1.3787
1.3909
1.4033
1.4159
1.4287
1.4417
1.4549
1.4683
1.4819
1.4957
1.5097
1.5239
1.5383
1.5529
1.5677
1.5827
1.5979
1.6133
1.6289
1.6447
1.6607
1.6769
1.6933
1.7099
1.7267
1.7437
1.7609
1.7783
1.7959
1.8137
1.8317
1.8499
1.8683
1.8869
1.9057
1.9247
1.9439
1.9633
1.9829
2.0027
1.0169
1.0171
1.0175
1.0181
1.0189
1.0199
1.0211
1.0225
1.0241
1.0259
1.0279
1.0301
1.0325
1.0351
1.0379
1.0409
1.0441
1.0475
1.0511
1.0549
1.0589
1.0631
1.0675
1.0721
1.0769
1.0819
1.0871
1.0925
1.0981
1.1039
1.1099
1.1161
1.1225
1.1291
1.1359
1.1429
1.1501
1.1575
1.1651
1.1729
1.1809
1.1891
1.1975
1.2061
1.2149
1.2239
1.2331
1.2425
1.2521
1.2619
1.2719
1.2821
1.2925
1.3031
1.3139
1.3249
1.3361
1.3475
1.3591
1.3709
1.3829
1.3951
1.4075
1.4201
1.4329
1.4459
1.4591
1.4725
1.4861
1.4999
1.5139
1.5281
1.5425
1.5571
1.5719
1.5869
1.6021
1.6175
1.6331
1.6489
1.6649
1.6811
1.6975
1.7141
1.7309
1.7479
1.7651
1.7825
1.8001
1.8179
1.8359
1.8541
1.8725
1.8911
1.9099
1.9289
1.9481
1.9675
1.9871
2.0069
1.0217
1.0219
1.0223
1.0229
1.0237
1.0247
1.0259
1.0273
1.0289
1.0307
1.0327
1.0349
1.0373
1.0399
1.0427
1.0457
1.0489
1.0523
1.0559
1.0597
1.0637
1.0679
1.0723
1.0769
1.0817
1.0867
1.0919
1.0973
1.1029
1.1087
1.1147
1.1209
1.1273
1.1339
1.1407
1.1477
1.1549
1.1623
1.1699
1.1777
1.1857
1.1939
1.2023
1.2109
1.2197
1.2287
1.2379
1.2473
1.2569
1.2667
1.2767
1.2869
1.2973
1.3079
1.3187
1.3297
1.3409
1.3523
1.3639
1.3757
1.3877
1.3999
1.4123
1.4249
1.4377
1.4507
1.4639
1.4773
1.4909
1.5047
1.5187
1.5329
1.5473
1.5619
1.5767
1.5917
1.6069
1.6223
1.6379
1.6537
1.6697
1.6859
1.7023
1.7189
1.7357
1.7527
1.7699
1.7873
1.8049
1.8227
1.8407
1.8589
1.8773
1.8959
1.9147
1.9337
1.9529
1.9723
1.9919
2.0117
1.0271
1.0273
1.0277
1.0283
1.0291
1.0301
1.0313
1.0327
1.0343
1.0361
1.0381
1.0403
1.0427
1.0453
1.0481
1.0511
1.0543
1.0577
1.0613
1.0651
1.0691
1.0733
1.0777
1.0823
1.0871
1.0921
1.0973
1.1027
1.1083
1.1141
1.1201
1.1263
1.1327
1.1393
1.1461
1.1531
1.1603
1.1677
1.1753
1.1831
1.1911
1.1993
1.2077
1.2163
1.2251
1.2341
1.2433
1.2527
1.2623
1.2721
1.2821
1.2923
1.3027
1.3133
1.3241
1.3351
1.3463
1.3577
1.3693
1.3811
1.3931
1.4053
1.4177
1.4303
1.4431
1.4561
1.4693
1.4827
1.4963
1.5101
1.5241
1.5383
1.5527
1.5673
1.5821
1.5971
1.6123
1.6277
1.6433
1.6591
1.6751
1.6913
1.7077
1.7243
1.7411
1.7581
1.7753
1.7927
1.8103
1.8281
1.8461
1.8643
1.8827
1.9013
1.9201
1.9391
1.9583
1.9777
1.9973
2.0171
1.0331
1.0333
1.0337
1.0343
1.0351
1.0361
1.0373
1.0387
1.0403
1.0421
1.0441
1.0463
1.0487
1.0513
1.0541
1.0571
1.0603
1.0637
1.0673
1.0711
1.0751
1.0793
1.0837
1.0883
1.0931
1.0981
1.1033
1.1087
1.1143
1.1201
1.1261
1.1323
1.1387
1.1453
1.1521
1.1591
1.1663
1.1737
1.1813
1.1891
1.1971
1.2053
1.2137
1.2223
1.2311
1.2401
1.2493
1.2587
1.2683
1.2781
1.2881
1.2983
1.3087
1.3193
1.3301
1.3411
1.3523
1.3637
1.3753
1.3871
1.3991
1.4113
1.4237
1.4363
1.4491
1.4621
1.4753
1.4887
1.5023
1.5161
1.5301
1.5443
1.5587
1.5733
1.5881
1.6031
1.6183
1.6337
1.6493
1.6651
1.6811
1.6973
1.7137
1.7303
1.7471
1.7641
1.7813
1.7987
1.8163
1.8341
1.8521
1.8703
1.8887
1.9073
1.9261
1.9451
1.9643
1.9837
2.0033
2.0231
1.0397
1.0399
1.0403
1.0409
1.0417
1.0427
1.0439
1.0453
1.0469
1.0487
1.0507
1.0529
1.0553
1.0579
1.0607
1.0637
1.0669
1.0703
1.0739
1.0777
1.0817
1.0859
1.0903
1.0949
1.0997
1.1047
1.1099
1.1153
1.1209
1.1267
1.1327
1.1389
1.1453
1.1519
1.1587
1.1657
1.1729
1.1803
1.1879
1.1957
1.2037
1.2119
1.2203
1.2289
1.2377
1.2467
1.2559
1.2653
1.2749
1.2847
1.2947
1.3049
1.3153
1.3259
1.3367
1.3477
1.3589
1.3703
1.3819
1.3937
1.4057
1.4179
1.4303
1.4429
1.4557
1.4687
1.4819
1.4953
1.5089
1.5227
1.5367
1.5509
1.5653
1.5799
1.5947
1.6097
1.6249
1.6403
1.6559
1.6717
1.6877
1.7039
1.7203
1.7369
1.7537
1.7707
1.7879
1.8053
1.8229
1.8407
1.8587
1.8769
1.8953
1.9139
1.9327
1.9517
1.9709
1.9903
2.0099
2.0297
1.0469
1.0471
1.0475
1.0481
1.0489
1.0499
1.0511
1.0525
1.0541
1.0559
1.0579
1.0601
1.0625
1.0651
1.0679
1.0709
1.0741
1.0775
1.0811
1.0849
1.0889
1.0931
1.0975
1.1021
1.1069
1.1119
1.1171
1.1225
1.1281
1.1339
1.1399
1.1461
1.1525
1.1591
1.1659
1.1729
1.1801
1.1875
1.1951
1.2029
1.2109
1.2191
1.2275
1.2361
1.2449
1.2539
1.2631
1.2725
1.2821
1.2919
1.3019
1.3121
1.3225
1.3331
1.3439
1.3549
1.3661
1.3775
1.3891
1.4009
1.4129
1.4251
1.4375
1.4501
1.4629
1.4759
1.4891
1.5025
1.5161
1.5299
1.5439
1.5581
1.5725
1.5871
1.6019
1.6169
1.6321
1.6475
1.6631
1.6789
1.6949
1.7111
1.7275
1.7441
1.7609
1.7779
1.7951
1.8125
1.8301
1.8479
1.8659
1.8841
1.9025
1.9211
1.9399
1.9589
1.9781
1.9975
2.0171
2.0369
1.0547
1.0549
1.0553
1.0559
1.0567
1.0577
1.0589
1.0603
1.0619
1.0637
1.0657
1.0679
1.0703
1.0729
1.0757
1.0787
1.0819
1.0853
1.0889
1.0927
1.0967
1.1009
1.1053
1.1099
1.1147
1.1197
1.1249
1.1303
1.1359
1.1417
1.1477
1.1539
1.1603
1.1669
1.1737
1.1807
1.1879
1.1953
1.2029
1.2107
1.2187
1.2269
1.2353
1.2439
1.2527
1.2617
1.2709
1.2803
1.2899
1.2997
1.3097
1.3199
1.3303
1.3409
1.3517
1.3627
1.3739
1.3853
1.3969
1.4087
1.4207
1.4329
1.4453
1.4579
1.4707
1.4837
1.4969
1.5103
1.5239
1.5377
1.5517
1.5659
1.5803
1.5949
1.6097
1.6247
1.6399
1.6553
1.6709
1.6867
1.7027
1.7189
1.7353
1.7519
1.7687
1.7857
1.8029
1.8203
1.8379
1.8557
1.8737
1.8919
1.9103
1.9289
1.9477
1.9667
1.9859
2.0053
2.0249
2.0447
1.0631
1.0633
1.0637
1.0643
1.0651
1.0661
1.0673
1.0687
1.0703
1.0721
1.0741
1.0763
1.0787
1.0813
1.0841
1.0871
1.0903
1.0937
1.0973
1.1011
1.1051
1.1093
1.1137
1.1183
1.1231
1.1281
1.1333
1.1387
1.1443
1.1501
1.1561
1.1623
1.1687
1.1753
1.1821
1.1891
1.1963
1.2037
1.2113
1.2191
1.2271
1.2353
1.2437
1.2523
1.2611
1.2701
1.2793
1.2887
1.2983
1.3081
1.3181
1.3283
1.3387
1.3493
1.3601
1.3711
1.3823
1.3937
1.4053
1.4171
1.4291
1.4413
1.4537
1.4663
1.4791
1.4921
1.5053
1.5187
1.5323
1.5461
1.5601
1.5743
1.5887
1.6033
1.6181
1.6331
1.6483
1.6637
1.6793
1.6951
1.7111
1.7273
1.7437
1.7603
1.7771
1.7941
1.8113
1.8287
1.8463
1.8641
1.8821
1.9003
1.9187
1.9373
1.9561
1.9751
1.9943
2.0137
2.0333
2.0531
1.0721
1.0723
1.0727
1.0733
1.0741
1.0751
1.0763
1.0777
1.0793
1.0811
1.0831
1.0853
1.0877
1.0903
1.0931
1.0961
1.0993
1.1027
1.1063
1.1101
1.1141
1.1183
1.1227
1.1273
1.1321
1.1371
1.1423
1.1477
1.1533
1.1591
1.1651
1.1713
1.1777
1.1843
1.1911
1.1981
1.2053
1.2127
1.2203
1.2281
1.2361
1.2443
1.2527
1.2613
1.2701
1.2791
1.2883
1.2977
1.3073
1.3171
1.3271
1.3373
1.3477
1.3583
1.3691
1.3801
1.3913
1.4027
1.4143
1.4261
1.4381
1.4503
1.4627
1.4753
1.4881
1.5011
1.5143
1.5277
1.5413
1.5551
1.5691
1.5833
1.5977
1.6123
1.6271
1.6421
1.6573
1.6727
1.6883
1.7041
1.7201
1.7363
1.7527
1.7693
1.7861
1.8031
1.8203
1.8377
1.8553
1.8731
1.8911
1.9093
1.9277
1.9463
1.9651
1.9841
2.0033
2.0227
2.0423
2.0621
1.0817
1.0819
1.0823
1.0829
1.0837
1.0847
1.0859
1.0873
1.0889
1.0907
1.0927
1.0949
1.0973
1.0999
1.1027
1.1057
1.1089
1.1123
1.1159
1.1197
1.1237
1.1279
1.1323
1.1369
1.1417
1.1467
1.1519
1.1573
1.1629
1.1687
1.1747
1.1809
1.1873
1.1939
1.2007
1.2077
1.2149
1.2223
1.2299
1.2377
1.2457
1.2539
1.2623
1.2709
1.2797
1.2887
1.2979
1.3073
1.3169
1.3267
1.3367
1.3469
1.3573
1.3679
1.3787
1.3897
1.4009
1.4123
1.4239
1.4357
1.4477
1.4599
1.4723
1.4849
1.4977
1.5107
1.5239
1.5373
1.5509
1.5647
1.5787
1.5929
1.6073
1.6219
1.6367
1.6517
1.6669
1.6823
1.6979
1.7137
1.7297
1.7459
1.7623
1.7789
1.7957
1.8127
1.8299
1.8473
1.8649
1.8827
1.9007
1.9189
1.9373
1.9559
1.9747
1.9937
2.0129
2.0323
2.0519
2.0717
1.0919
1.0921
1.0925
1.0931
1.0939
1.0949
1.0961
1.0975
1.0991
1.1009
1.1029
1.1051
1.1075
1.1101
1.1129
1.1159
1.1191
1.1225
1.1261
1.1299
1.1339
1.1381
1.1425
1.1471
1.1519
1.1569
1.1621
1.1675
1.1731
1.1789
1.1849
1.1911
1.1975
1.2041
1.2109
1.2179
1.2251
1.2325
1.2401
1.2479
1.2559
1.2641
1.2725
1.2811
1.2899
1.2989
1.3081
1.3175
1.3271
1.3369
1.3469
1.3571
1.3675
1.3781
1.3889
1.3999
1.4111
1.4225
1.4341
1.4459
1.4579
1.4701
1.4825
1.4951
1.5079
1.5209
1.5341
1.5475
1.5611
1.5749
1.5889
1.6031
1.6175
1.6321
1.6469
1.6619
1.6771
1.6925
1.7081
1.7239
1.7399
1.7561
1.7725
1.7891
1.8059
1.8229
1.8401
1.8575
1.8751
1.8929
1.9109
1.9291
1.9475
1.9661
1.9849
2.0039
2.0231
2.0425
2.0621
2.0819
1.1027
1.1029
1.1033
1.1039
1.1047
1.1057
1.1069
1.1083
1.1099
1.1117
1.1137
1.1159
1.1183
1.1209
1.1237
1.1267
1.1299
1.1333
1.1369
1.1407
1.1447
1.1489
1.1533
1.1579
1.1627
1.1677
1.1729
1.1783
1.1839
1.1897
1.1957
1.2019
1.2083
1.2149
1.2217
1.2287
1.2359
1.2433
1.2509
1.2587
1.2667
1.2749
1.2833
1.2919
1.3007
1.3097
1.3189
1.3283
1.3379
1.3477
1.3577
1.3679
1.3783
1.3889
1.3997
1.4107
1.4219
1.4333
1.4449
1.4567
1.4687
1.4809
1.4933
1.5059
1.5187
1.5317
1.5449
1.5583
1.5719
1.5857
1.5997
1.6139
1.6283
1.6429
1.6577
1.6727
1.6879
1.7033
1.7189
1.7347
1.7507
1.7669
1.7833
1.7999
1.8167
1.8337
1.8509
1.8683
1.8859
1.9037
1.9217
1.9399
1.9583
1.9769
1.9957
2.0147
2.0339
2.0533
2.0729
2.0927
1.1141
1.1143
1.1147
1.1153
1.1161
1.1171
1.1183
1.1197
1.1213
1.1231
1.1251
1.1273
1.1297
1.1323
1.1351
1.1381
1.1413
1.1447
1.1483
1.1521
1.1561
1.1603
1.1647
1.1693
1.1741
1.1791
1.1843
1.1897
1.1953
1.2011
1.2071
1.2133
1.2197
1.2263
1.2331
1.2401
1.2473
1.2547
1.2623
1.2701
1.2781
1.2863
1.2947
1.3033
1.3121
1.3211
1.3303
1.3397
1.3493
1.3591
1.3691
1.3793
1.3897
1.4003
1.4111
1.4221
1.4333
1.4447
1.4563
1.4681
1.4801
1.4923
1.5047
1.5173
1.5301
1.5431
1.5563
1.5697
1.5833
1.5971
1.6111
1.6253
1.6397
1.6543
1.6691
1.6841
1.6993
1.7147
1.7303
1.7461
1.7621
1.7783
1.7947
1.8113
1.8281
1.8451
1.8623
1.8797
1.8973
1.9151
1.9331
1.9513
1.9697
1.9883
2.0071
2.0261
2.0453
2.0647
2.0843
2.1041
1.1261
1.1263
1.1267
1.1273
1.1281
1.1291
1.1303
1.1317
1.1333
1.1351
1.1371
1.1393
1.1417
1.1443
1.1471
1.1501
1.1533
1.1567
1.1603
1.1641
1.1681
1.1723
1.1767
1.1813
1.1861
1.1911
1.1963
1.2017
1.2073
1.2131
1.2191
1.2253
1.2317
1.2383
1.2451
1.2521
1.2593
1.2667
1.2743
1.2821
1.2901
1.2983
1.3067
1.3153
1.3241
1.3331
1.3423
1.3517
1.3613
1.3711
1.3811
1.3913
1.4017
1.4123
1.4231
1.4341
1.4453
1.4567
1.4683
1.4801
1.4921
1.5043
1.5167
1.5293
1.5421
1.5551
1.5683
1.5817
1.5953
1.6091
1.6231
1.6373
1.6517
1.6663
1.6811
1.6961
1.7113
1.7267
1.7423
1.7581
1.7741
1.7903
1.8067
1.8233
1.8401
1.8571
1.8743
1.8917
1.9093
1.9271
1.9451
1.9633
1.9817
2.0003
2.0191
2.0381
2.0573
2.0767
2.0963
2.1161
1.1387
1.1389
1.1393
1.1399
1.1407
1.1417
1.1429
1.1443
1.1459
1.1477
1.1497
1.1519
1.1543
1.1569
1.1597
1.1627
1.1659
1.1693
1.1729
1.1767
1.1807
1.1849
1.1893
1.1939
1.1987
1.2037
1.2089
1.2143
1.2199
1.2257
1.2317
1.2379
1.2443
1.2509
1.2577
1.2647
1.2719
1.2793
1.2869
1.2947
1.3027
1.3109
1.3193
1.3279
1.3367
1.3457
1.3549
1.3643
1.3739
1.3837
1.3937
1.4039
1.4143
1.4249
1.4357
1.4467
1.4579
1.4693
1.4809
1.4927
1.5047
1.5169
1.5293
1.5419
1.5547
1.5677
1.5809
1.5943
1.6079
1.6217
1.6357
1.6499
1.6643
1.6789
1.6937
1.7087
1.7239
1.7393
1.7549
1.7707
1.7867
1.8029
1.8193
1.8359
1.8527
1.8697
1.8869
1.9043
1.9219
1.9397
1.9577
1.9759
1.9943
2.0129
2.0317
2.0507
2.0699
2.0893
2.1089
2.1287
1.1519
1.1521
1.1525
1.1531
1.1539
1.1549
1.1561
1.1575
1.1591
1.1609
1.1629
1.1651
1.1675
1.1701
1.1729
1.1759
1.1791
1.1825
1.1861
1.1899
1.1939
1.1981
1.2025
1.2071
1.2119
1.2169
1.2221
1.2275
1.2331
1.2389
1.2449
1.2511
1.2575
1.2641
1.2709
1.2779
1.2851
1.2925
1.3001
1.3079
1.3159
1.3241
1.3325
1.3411
1.3499
1.3589
1.3681
1.3775
1.3871
1.3969
1.4069
1.4171
1.4275
1.4381
1.4489
1.4599
1.4711
1.4825
1.4941
1.5059
1.5179
1.5301
1.5425
1.5551
1.5679
1.5809
1.5941
1.6075
1.6211
1.6349
1.6489
1.6631
1.6775
1.6921
1.7069
1.7219
1.7371
1.7525
1.7681
1.7839
1.7999
1.8161
1.8325
1.8491
1.8659
1.8829
1.9001
1.9175
1.9351
1.9529
1.9709
1.9891
2.0075
2.0261
2.0449
2.0639
2.0831
2.1025
2.1221
2.1419
1.1657
1.1659
1.1663
1.1669
1.1677
1.1687
1.1699
1.1713
1.1729
1.1747
1.1767
1.1789
1.1813
1.1839
1.1867
1.1897
1.1929
1.1963
1.1999
1.2037
1.2077
1.2119
1.2163
1.2209
1.2257
1.2307
1.2359
1.2413
1.2469
1.2527
1.2587
1.2649
1.2713
1.2779
1.2847
1.2917
1.2989
1.3063
1.3139
1.3217
1.3297
1.3379
1.3463
1.3549
1.3637
1.3727
1.3819
1.3913
1.4009
1.4107
1.4207
1.4309
1.4413
1.4519
1.4627
1.4737
1.4849
1.4963
1.5079
1.5197
1.5317
1.5439
1.5563
1.5689
1.5817
1.5947
1.6079
1.6213
1.6349
1.6487
1.6627
1.6769
1.6913
1.7059
1.7207
1.7357
1.7509
1.7663
1.7819
1.7977
1.8137
1.8299
1.8463
1.8629
1.8797
1.8967
1.9139
1.9313
1.9489
1.9667
1.9847
2.0029
2.0213
2.0399
2.0587
2.0777
2.0969
2.1163
2.1359
2.1557
1.1801
1.1803
1.1807
1.1813
1.1821
1.1831
1.1843
1.1857
1.1873
1.1891
1.1911
1.1933
1.1957
1.1983
1.2011
1.2041
1.2073
1.2107
1.2143
1.2181
1.2221
1.2263
1.2307
1.2353
1.2401
1.2451
1.2503
1.2557
1.2613
1.2671
1.2731
1.2793
1.2857
1.2923
1.2991
1.3061
1.3133
1.3207
1.3283
1.3361
1.3441
1.3523
1.3607
1.3693
1.3781
1.3871
1.3963
1.4057
1.4153
1.4251
1.4351
1.4453
1.4557
1.4663
1.4771
1.4881
1.4993
1.5107
1.5223
1.5341
1.5461
1.5583
1.5707
1.5833
1.5961
1.6091
1.6223
1.6357
1.6493
1.6631
1.6771
1.6913
1.7057
1.7203
1.7351
1.7501
1.7653
1.7807
1.7963
1.8121
1.8281
1.8443
1.8607
1.8773
1.8941
1.9111
1.9283
1.9457
1.9633
1.9811
1.9991
2.0173
2.0357
2.0543
2.0731
2.0921
2.1113
2.1307
2.1503
2.1701
1.1951
1.1953
1.1957
1.1963
1.1971
1.1981
1.1993
1.2007
1.2023
1.2041
1.2061
1.2083
1.2107
1.2133
1.2161
1.2191
1.2223
1.2257
1.2293
1.2331
1.2371
1.2413
1.2457
1.2503
1.2551
1.2601
1.2653
1.2707
1.2763
1.2821
1.2881
1.2943
1.3007
1.3073
1.3141
1.3211
1.3283
1.3357
1.3433
1.3511
1.3591
1.3673
1.3757
1.3843
1.3931
1.4021
1.4113
1.4207
1.4303
1.4401
1.4501
1.4603
1.4707
1.4813
1.4921
1.5031
1.5143
1.5257
1.5373
1.5491
1.5611
1.5733
1.5857
1.5983
1.6111
1.6241
1.6373
1.6507
1.6643
1.6781
1.6921
1.7063
1.7207
1.7353
1.7501
1.7651
1.7803
1.7957
1.8113
1.8271
1.8431
1.8593
1.8757
1.8923
1.9091
1.9261
1.9433
1.9607
1.9783
1.9961
2.0141
2.0323
2.0507
2.0693
2.0881
2.1071
2.1263
2.1457
2.1653
2.1851
1.2107
1.2109
1.2113
1.2119
1.2127
1.2137
1.2149
1.2163
1.2179
1.2197
1.2217
1.2239
1.2263
1.2289
1.2317
1.2347
1.2379
1.2413
1.2449
1.2487
1.2527
1.2569
1.2613
1.2659
1.2707
1.2757
1.2809
1.2863
1.2919
1.2977
1.3037
1.3099
1.3163
1.3229
1.3297
1.3367
1.3439
1.3513
1.3589
1.3667
1.3747
1.3829
1.3913
1.3999
1.4087
1.4177
1.4269
1.4363
1.4459
1.4557
1.4657
1.4759
1.4863
1.4969
1.5077
1.5187
1.5299
1.5413
1.5529
1.5647
1.5767
1.5889
1.6013
1.6139
1.6267
1.6397
1.6529
1.6663
1.6799
1.6937
1.7077
1.7219
1.7363
1.7509
1.7657
1.7807
1.7959
1.8113
1.8269
1.8427
1.8587
1.8749
1.8913
1.9079
1.9247
1.9417
1.9589
1.9763
1.9939
2.0117
2.0297
2.0479
2.0663
2.0849
2.1037
2.1227
2.1419
2.1613
2.1809
2.2007
1.2269
1.2271
1.2275
1.2281
1.2289
1.2299
1.2311
1.2325
1.2341
1.2359
1.2379
1.2401
1.2425
1.2451
1.2479
1.2509
1.2541
1.2575
1.2611
1.2649
1.2689
1.2731
1.2775
1.2821
1.2869
1.2919
1.2971
1.3025
1.3081
1.3139
1.3199
1.3261
1.3325
1.3391
1.3459
1.3529
1.3601
1.3675
1.3751
1.3829
1.3909
1.3991
1.4075
1.4161
1.4249
1.4339
1.4431
1.4525
1.4621
1.4719
1.4819
1.4921
1.5025
1.5131
1.5239
1.5349
1.5461
1.5575
1.5691
1.5809
1.5929
1.6051
1.6175
1.6301
1.6429
1.6559
1.6691
1.6825
1.6961
1.7099
1.7239
1.7381
1.7525
1.7671
1.7819
1.7969
1.8121
1.8275
1.8431
1.8589
1.8749
1.8911
1.9075
1.9241
1.9409
1.9579
1.9751
1.9925
2.0101
2.0279
2.0459
2.0641
2.0825
2.1011
2.1199
2.1389
2.1581
2.1775
2.1971
2.2169
1.2437
1.2439
1.2443
1.2449
1.2457
1.2467
1.2479
1.2493
1.2509
1.2527
1.2547
1.2569
1.2593
1.2619
1.2647
1.2677
1.2709
1.2743
1.2779
1.2817
1.2857
1.2899
1.2943
1.2989
1.3037
1.3087
1.3139
1.3193
1.3249
1.3307
1.3367
1.3429
1.3493
1.3559
1.3627
1.3697
1.3769
1.3843
1.3919
1.3997
1.4077
1.4159
1.4243
1.4329
1.4417
1.4507
1.4599
1.4693
1.4789
1.4887
1.4987
1.5089
1.5193
1.5299
1.5407
1.5517
1.5629
1.5743
1.5859
1.5977
1.6097
1.6219
1.6343
1.6469
1.6597
1.6727
1.6859
1.6993
1.7129
1.7267
1.7407
1.7549
1.7693
1.7839
1.7987
1.8137
1.8289
1.8443
1.8599
1.8757
1.8917
1.9079
1.9243
1.9409
1.9577
1.9747
1.9919
2.0093
2.0269
2.0447
2.0627
2.0809
2.0993
2.1179
2.1367
2.1557
2.1749
2.1943
2.2139
2.2337
1.2611
1.2613
1.2617
1.2623
1.2631
1.2641
1.2653
1.2667
1.2683
1.2701
1.2721
1.2743
1.2767
1.2793
1.2821
1.2851
1.2883
1.2917
1.2953
1.2991
1.3031
1.3073
1.3117
1.3163
1.3211
1.3261
1.3313
1.3367
1.3423
1.3481
1.3541
1.3603
1.3667
1.3733
1.3801
1.3871
1.3943
1.4017
1.4093
1.4171
1.4251
1.4333
1.4417
1.4503
1.4591
1.4681
1.4773
1.4867
1.4963
1.5061
1.5161
1.5263
1.5367
1.5473
1.5581
1.5691
1.5803
1.5917
1.6033
1.6151
1.6271
1.6393
1.6517
1.6643
1.6771
1.6901
1.7033
1.7167
1.7303
1.7441
1.7581
1.7723
1.7867
1.8013
1.8161
1.8311
1.8463
1.8617
1.8773
1.8931
1.9091
1.9253
1.9417
1.9583
1.9751
1.9921
2.0093
2.0267
2.0443
2.0621
2.0801
2.0983
2.1167
2.1353
2.1541
2.1731
2.1923
2.2117
2.2313
2.2511
1.2791
1.2793
1.2797
1.2803
1.2811
1.2821
1.2833
1.2847
1.2863
1.2881
1.2901
1.2923
1.2947
1.2973
1.3001
1.3031
1.3063
1.3097
1.3133
1.3171
1.3211
1.3253
1.3297
1.3343
1.3391
1.3441
1.3493
1.3547
1.3603
1.3661
1.3721
1.3783
1.3847
1.3913
1.3981
1.4051
1.4123
1.4197
1.4273
1.4351
1.4431
1.4513
1.4597
1.4683
1.4771
1.4861
1.4953
1.5047
1.5143
1.5241
1.5341
1.5443
1.5547
1.5653
1.5761
1.5871
1.5983
1.6097
1.6213
1.6331
1.6451
1.6573
1.6697
1.6823
1.6951
1.7081
1.7213
1.7347
1.7483
1.7621
1.7761
1.7903
1.8047
1.8193
1.8341
1.8491
1.8643
1.8797
1.8953
1.9111
1.9271
1.9433
1.9597
1.9763
1.9931
2.0101
2.0273
2.0447
2.0623
2.0801
2.0981
2.1163
2.1347
2.1533
2.1721
2.1911
2.2103
2.2297
2.2493
2.2691
1.2977
1.2979
1.2983
1.2989
1.2997
1.3007
1.3019
1.3033
1.3049
1.3067
1.3087
1.3109
1.3133
1.3159
1.3187
1.3217
1.3249
1.3283
1.3319
1.3357
1.3397
1.3439
1.3483
1.3529
1.3577
1.3627
1.3679
1.3733
1.3789
1.3847
1.3907
1.3969
1.4033
1.4099
1.4167
1.4237
1.4309
1.4383
1.4459
1.4537
1.4617
1.4699
1.4783
1.4869
1.4957
1.5047
1.5139
1.5233
1.5329
1.5427
1.5527
1.5629
1.5733
1.5839
1.5947
1.6057
1.6169
1.6283
1.6399
1.6517
1.6637
1.6759
1.6883
1.7009
1.7137
1.7267
1.7399
1.7533
1.7669
1.7807
1.7947
1.8089
1.8233
1.8379
1.8527
1.8677
1.8829
1.8983
1.9139
1.9297
1.9457
1.9619
1.9783
1.9949
2.0117
2.0287
2.0459
2.0633
2.0809
2.0987
2.1167
2.1349
2.1533
2.1719
2.1907
2.2097
2.2289
2.2483
2.2679
2.2877
1.3169
1.3171
1.3175
1.3181
1.3189
1.3199
1.3211
1.3225
1.3241
1.3259
1.3279
1.3301
1.3325
1.3351
1.3379
1.3409
1.3441
1.3475
1.3511
1.3549
1.3589
1.3631
1.3675
1.3721
1.3769
1.3819
1.3871
1.3925
1.3981
1.4039
1.4099
1.4161
1.4225
1.4291
1.4359
1.4429
1.4501
1.4575
1.4651
1.4729
1.4809
1.4891
1.4975
1.5061
1.5149
1.5239
1.5331
1.5425
1.5521
1.5619
1.5719
1.5821
1.5925
1.6031
1.6139
1.6249
1.6361
1.6475
1.6591
1.6709
1.6829
1.6951
1.7075
1.7201
1.7329
1.7459
1.7591
1.7725
1.7861
1.7999
1.8139
1.8281
1.8425
1.8571
1.8719
1.8869
1.9021
1.9175
1.9331
1.9489
1.9649
1.9811
1.9975
2.0141
2.0309
2.0479
2.0651
2.0825
2.1001
2.1179
2.1359
2.1541
2.1725
2.1911
2.2099
2.2289
2.2481
2.2675
2.2871
2.3069
1.3367
1.3369
1.3373
1.3379
1.3387
1.3397
1.3409
1.3423
1.3439
1.3457
1.3477
1.3499
1.3523
1.3549
1.3577
1.3607
1.3639
1.3673
1.3709
1.3747
1.3787
1.3829
1.3873
1.3919
1.3967
1.4017
1.4069
1.4123
1.4179
1.4237
1.4297
1.4359
1.4423
1.4489
1.4557
1.4627
1.4699
1.4773
1.4849
1.4927
1.5007
1.5089
1.5173
1.5259
1.5347
1.5437
1.5529
1.5623
1.5719
1.5817
1.5917
1.6019
1.6123
1.6229
1.6337
1.6447
1.6559
1.6673
1.6789
1.6907
1.7027
1.7149
1.7273
1.7399
1.7527
1.7657
1.7789
1.7923
1.8059
1.8197
1.8337
1.8479
1.8623
1.8769
1.8917
1.9067
1.9219
1.9373
1.9529
1.9687
1.9847
2.0009
2.0173
2.0339
2.0507
2.0677
2.0849
2.1023
2.1199
2.1377
2.1557
2.1739
2.1923
2.2109
2.2297
2.2487
2.2679
2.2873
2.3069
2.3267
1.3571
1.3573
1.3577
1.3583
1.3591
1.3601
1.3613
1.3627
1.3643
1.3661
1.3681
1.3703
1.3727
1.3753
1.3781
1.3811
1.3843
1.3877
1.3913
1.3951
1.3991
1.4033
1.4077
1.4123
1.4171
1.4221
1.4273
1.4327
1.4383
1.4441
1.4501
1.4563
1.4627
1.4693
1.4761
1.4831
1.4903
1.4977
1.5053
1.5131
1.5211
1.5293
1.5377
1.5463
1.5551
1.5641
1.5733
1.5827
1.5923
1.6021
1.6121
1.6223
1.6327
1.6433
1.6541
1.6651
1.6763
1.6877
1.6993
1.7111
1.7231
1.7353
1.7477
1.7603
1.7731
1.7861
1.7993
1.8127
1.8263
1.8401
1.8541
1.8683
1.8827
1.8973
1.9121
1.9271
1.9423
1.9577
1.9733
1.9891
2.0051
2.0213
2.0377
2.0543
2.0711
2.0881
2.1053
2.1227
2.1403
2.1581
2.1761
2.1943
2.2127
2.2313
2.2501
2.2691
2.2883
2.3077
2.3273
2.3471
1.3781
1.3783
1.3787
1.3793
1.3801
1.3811
1.3823
1.3837
1.3853
1.3871
1.3891
1.3913
1.3937
1.3963
1.3991
1.4021
1.4053
1.4087
1.4123
1.4161
1.4201
1.4243
1.4287
1.4333
1.4381
1.4431
1.4483
1.4537
1.4593
1.4651
1.4711
1.4773
1.4837
1.4903
1.4971
1.5041
1.5113
1.5187
1.5263
1.5341
1.5421
1.5503
1.5587
1.5673
1.5761
1.5851
1.5943
1.6037
1.6133
1.6231
1.6331
1.6433
1.6537
1.6643
1.6751
1.6861
1.6973
1.7087
1.7203
1.7321
1.7441
1.7563
1.7687
1.7813
1.7941
1.8071
1.8203
1.8337
1.8473
1.8611
1.8751
1.8893
1.9037
1.9183
1.9331
1.9481
1.9633
1.9787
1.9943
2.0101
2.0261
2.0423
2.0587
2.0753
2.0921
2.1091
2.1263
2.1437
2.1613
2.1791
2.1971
2.2153
2.2337
2.2523
2.2711
2.2901
2.3093
2.3287
2.3483
2.3681
1.3997
1.3999
1.4003
1.4009
1.4017
1.4027
1.4039
1.4053
1.4069
1.4087
1.4107
1.4129
1.4153
1.4179
1.4207
1.4237
1.4269
1.4303
1.4339
1.4377
1.4417
1.4459
1.4503
1.4549
1.4597
1.4647
1.4699
1.4753
1.4809
1.4867
1.4927
1.4989
1.5053
1.5119
1.5187
1.5257
1.5329
1.5403
1.5479
1.5557
1.5637
1.5719
1.5803
1.5889
1.5977
1.6067
1.6159
1.6253
1.6349
1.6447
1.6547
1.6649
1.6753
1.6859
1.6967
1.7077
1.7189
1.7303
1.7419
1.7537
1.7657
1.7779
1.7903
1.8029
1.8157
1.8287
1.8419
1.8553
1.8689
1.8827
1.8967
1.9109
1.9253
1.9399
1.9547
1.9697
1.9849
2.0003
2.0159
2.0317
2.0477
2.0639
2.0803
2.0969
2.1137
2.1307
2.1479
2.1653
2.1829
2.2007
2.2187
2.2369
2.2553
2.2739
2.2927
2.3117
2.3309
2.3503
2.3699
2.3897
1.4219
1.4221
1.4225
1.4231
1.4239
1.4249
1.4261
1.4275
1.4291
1.4309
1.4329
1.4351
1.4375
1.4401
1.4429
1.4459
1.4491
1.4525
1.4561
1.4599
1.4639
1.4681
1.4725
1.4771
1.4819
1.4869
1.4921
1.4975
1.5031
1.5089
1.5149
1.5211
1.5275
1.5341
1.5409
1.5479
1.5551
1.5625
1.5701
1.5779
1.5859
1.5941
1.6025
1.6111
1.6199
1.6289
1.6381
1.6475
1.6571
1.6669
1.6769
1.6871
1.6975
1.7081
1.7189
1.7299
1.7411
1.7525
1.7641
1.7759
1.7879
1.8001
1.8125
1.8251
1.8379
1.8509
1.8641
1.8775
1.8911
1.9049
1.9189
1.9331
1.9475
1.9621
1.9769
1.9919
2.0071
2.0225
2.0381
2.0539
2.0699
2.0861
2.1025
2.1191
2.1359
2.1529
2.1701
2.1875
2.2051
2.2229
2.2409
2.2591
2.2775
2.2961
2.3149
2.3339
2.3531
2.3725
2.3921
2.4119
1.4447
1.4449
1.4453
1.4459
1.4467
1.4477
1.4489
1.4503
1.4519
1.4537
1.4557
1.4579
1.4603
1.4629
1.4657
1.4687
1.4719
1.4753
1.4789
1.4827
1.4867
1.4909
1.4953
1.4999
1.5047
1.5097
1.5149
1.5203
1.5259
1.5317
1.5377
1.5439
1.5503
1.5569
1.5637
1.5707
1.5779
1.5853
1.5929
1.6007
1.6087
1.6169
1.6253
1.6339
1.6427
1.6517
1.6609
1.6703
1.6799
1.6897
1.6997
1.7099
1.7203
1.7309
1.7417
1.7527
1.7639
1.7753
1.7869
1.7987
1.8107
1.8229
1.8353
1.8479
1.8607
1.8737
1.8869
1.9003
1.9139
1.9277
1.9417
1.9559
1.9703
1.9849
1.9997
2.0147
2.0299
2.0453
2.0609
2.0767
2.0927
2.1089
2.1253
2.1419
2.1587
2.1757
2.1929
2.2103
2.2279
2.2457
2.2637
2.2819
2.3003
2.3189
2.3377
2.3567
2.3759
2.3953
2.4149
2.4347
1.4681
1.4683
1.4687
1.4693
1.4701
1.4711
1.4723
1.4737
1.4753
1.4771
1.4791
1.4813
1.4837
1.4863
1.4891
1.4921
1.4953
1.4987
1.5023
1.5061
1.5101
1.5143
1.5187
1.5233
1.5281
1.5331
1.5383
1.5437
1.5493
1.5551
1.5611
1.5673
1.5737
1.5803
1.5871
1.5941
1.6013
1.6087
1.6163
1.6241
1.6321
1.6403
1.6487
1.6573
1.6661
1.6751
1.6843
1.6937
1.7033
1.7131
1.7231
1.7333
1.7437
1.7543
1.7651
1.7761
1.7873
1.7987
1.8103
1.8221
1.8341
1.8463
1.8587
1.8713
1.8841
1.8971
1.9103
1.9237
1.9373
1.9511
1.9651
1.9793
1.9937
2.0083
2.0231
2.0381
2.0533
2.0687
2.0843
2.1001
2.1161
2.1323
2.1487
2.1653
2.1821
2.1991
2.2163
2.2337
2.2513
2.2691
2.2871
2.3053
2.3237
2.3423
2.3611
2.3801
2.3993
2.4187
2.4383
2.4581
1.4921
1.4923
1.4927
1.4933
1.4941
1.4951
1.4963
1.4977
1.4993
1.5011
1.5031
1.5053
1.5077
1.5103
1.5131
1.5161
1.5193
1.5227
1.5263
1.5301
1.5341
1.5383
1.5427
1.5473
1.5521
1.5571
1.5623
1.5677
1.5733
1.5791
1.5851
1.5913
1.5977
1.6043
1.6111
1.6181
1.6253
1.6327
1.6403
1.6481
1.6561
1.6643
1.6727
1.6813
1.6901
1.6991
1.7083
1.7177
1.7273
1.7371
1.7471
1.7573
1.7677
1.7783
1.7891
1.8001
1.8113
1.8227
1.8343
1.8461
1.8581
1.8703
1.8827
1.8953
1.9081
1.9211
1.9343
1.9477
1.9613
1.9751
1.9891
2.0033
2.0177
2.0323
2.0471
2.0621
2.0773
2.0927
2.1083
2.1241
2.1401
2.1563
2.1727
2.1893
2.2061
2.2231
2.2403
2.2577
2.2753
2.2931
2.3111
2.3293
2.3477
2.3663
2.3851
2.4041
2.4233
2.4427
2.4623
2.4821
1.5167
1.5169
1.5173
1.5179
1.5187
1.5197
1.5209
1.5223
1.5239
1.5257
1.5277
1.5299
1.5323
1.5349
1.5377
1.5407
1.5439
1.5473
1.5509
1.5547
1.5587
1.5629
1.5673
1.5719
1.5767
1.5817
1.5869
1.5923
1.5979
1.6037
1.6097
1.6159
1.6223
1.6289
1.6357
1.6427
1.6499
1.6573
1.6649
1.6727
1.6807
1.6889
1.6973
1.7059
1.7147
1.7237
1.7329
1.7423
1.7519
1.7617
1.7717
1.7819
1.7923
1.8029
1.8137
1.8247
1.8359
1.8473
1.8589
1.8707
1.8827
1.8949
1.9073
1.9199
1.9327
1.9457
1.9589
1.9723
1.9859
1.9997
2.0137
2.0279
2.0423
2.0569
2.0717
2.0867
2.1019
2.1173
2.1329
2.1487
2.1647
2.1809
2.1973
2.2139
2.2307
2.2477
2.2649
2.2823
2.2999
2.3177
2.3357
2.3539
2.3723
2.3909
2.4097
2.4287
2.4479
2.4673
2.4869
2.5067
1.5419
1.5421
1.5425
1.5431
1.5439
1.5449
1.5461
1.5475
1.5491
1.5509
1.5529
1.5551
1.5575
1.5601
1.5629
1.5659
1.5691
1.5725
1.5761
1.5799
1.5839
1.5881
1.5925
1.5971
1.6019
1.6069
1.6121
1.6175
1.6231
1.6289
1.6349
1.6411
1.6475
1.6541
1.6609
1.6679
1.6751
1.6825
1.6901
1.6979
1.7059
1.7141
1.7225