/*--------------------------------*- C++ -*----------------------------------*\
  =========                 |
  \\      /  F ield         | OpenFOAM: The Open Source CFD Toolbox
   \\    /   O peration     | Website:  https://openfoam.org
    \\  /    A nd           | Version:  7
     \\/     M anipulation  |
\*---------------------------------------------------------------------------*/
FoamFile
{
    version     2.0;
    format      ascii;
    class       volScalarField;
    location    "4.82";
    object      T;
}
// * * * * * * * * * * * * * * * * * * * * * * * * * * * * * * * * * * * * * //

dimensions      [0 0 0 1 0 0 0];

internalField   nonuniform List<scalar> 
12013
(
300.061
300.186
300.314
300.445
300.577
300.711
300.844
300.978
301.11
301.242
301.372
301.501
301.627
301.752
301.874
301.994
302.112
302.228
302.342
302.454
302.564
302.673
302.78
302.887
302.993
303.098
303.204
303.31
303.417
303.526
303.637
303.75
303.867
303.988
304.115
304.247
304.385
304.532
304.688
304.854
305.032
305.224
305.43
305.652
305.893
306.155
306.439
306.748
307.085
307.452
307.853
308.29
308.767
309.288
309.857
310.478
311.156
311.896
312.703
313.583
314.543
315.59
316.731
317.976
319.332
320.81
322.423
324.181
326.101
328.197
330.49
333.001
335.757
338.789
342.137
345.852
350.001
354.679
360.031
366.298
373.939
300.061
300.186
300.315
300.445
300.578
300.711
300.845
300.978
301.111
301.243
301.373
301.501
301.628
301.753
301.875
301.995
302.113
302.229
302.343
302.455
302.565
302.674
302.782
302.888
302.994
303.1
303.205
303.312
303.419
303.527
303.638
303.752
303.869
303.99
304.116
304.248
304.387
304.534
304.689
304.856
305.034
305.225
305.431
305.653
305.894
306.155
306.439
306.748
307.085
307.452
307.852
308.289
308.766
309.286
309.855
310.475
311.152
311.891
312.697
313.576
314.534
315.58
316.719
317.96
319.313
320.788
322.396
324.149
326.061
328.149
330.43
332.926
335.663
338.669
341.982
345.646
349.72
354.278
359.419
365.264
371.923
300.062
300.187
300.315
300.446
300.578
300.712
300.846
300.979
301.112
301.244
301.375
301.503
301.63
301.755
301.877
301.998
302.116
302.232
302.346
302.458
302.568
302.677
302.785
302.891
302.997
303.103
303.208
303.315
303.422
303.531
303.641
303.755
303.872
303.993
304.119
304.251
304.39
304.536
304.692
304.858
305.036
305.227
305.433
305.655
305.895
306.156
306.44
306.748
307.085
307.451
307.851
308.287
308.763
309.282
309.849
310.468
311.143
311.88
312.684
313.56
314.515
315.556
316.691
317.927
319.273
320.739
322.336
324.076
325.973
328.041
330.298
332.762
335.458
338.41
341.649
345.21
349.136
353.472
358.262
363.533
369.245
300.062
300.187
300.315
300.447
300.579
300.713
300.847
300.981
301.115
301.247
301.377
301.506
301.633
301.758
301.881
302.001
302.12
302.236
302.35
302.462
302.573
302.682
302.79
302.896
303.002
303.108
303.214
303.32
303.427
303.536
303.647
303.76
303.877
303.998
304.124
304.256
304.394
304.541
304.696
304.862
305.04
305.23
305.436
305.658
305.898
306.158
306.441
306.749
307.084
307.45
307.848
308.283
308.757
309.275
309.84
310.457
311.129
311.862
312.662
313.534
314.483
315.518
316.644
317.871
319.205
320.658
322.238
323.958
325.829
327.866
330.083
332.497
335.128
337.997
341.125
344.537
348.256
352.303
356.685
361.381
366.317
300.062
300.187
300.316
300.448
300.581
300.715
300.85
300.984
301.118
301.25
301.381
301.511
301.638
301.763
301.886
302.007
302.126
302.242
302.357
302.469
302.58
302.689
302.797
302.904
303.01
303.116
303.221
303.328
303.435
303.544
303.654
303.768
303.885
304.005
304.131
304.263
304.401
304.548
304.703
304.868
305.046
305.236
305.441
305.662
305.901
306.161
306.443
306.75
307.084
307.448
307.845
308.278
308.75
309.265
309.827
310.44
311.108
311.837
312.63
313.495
314.437
315.462
316.577
317.789
319.107
320.54
322.096
323.787
325.622
327.614
329.776
332.122
334.666
337.423
340.408
343.633
347.11
350.837
354.804
358.974
363.281
300.062
300.188
300.318
300.45
300.583
300.718
300.853
300.988
301.122
301.255
301.387
301.517
301.645
301.77
301.894
302.015
302.134
302.251
302.366
302.479
302.59
302.699
302.807
302.914
303.02
303.126
303.232
303.338
303.446
303.554
303.665
303.778
303.895
304.016
304.142
304.273
304.411
304.557
304.712
304.877
305.054
305.243
305.447
305.668
305.906
306.165
306.446
306.751
307.083
307.445
307.84
308.27
308.739
309.251
309.809
310.417
311.079
311.801
312.587
313.442
314.373
315.385
316.484
317.678
318.974
320.38
321.905
323.556
325.345
327.279
329.371
331.63
334.066
336.689
339.506
342.521
345.735
349.138
352.709
356.413
360.197
300.062
300.189
300.319
300.452
300.586
300.722
300.858
300.993
301.128
301.262
301.394
301.525
301.653
301.78
301.904
302.026
302.145
302.263
302.378
302.491
302.602
302.712
302.821
302.928
303.034
303.14
303.246
303.353
303.46
303.569
303.679
303.793
303.909
304.03
304.155
304.286
304.424
304.57
304.724
304.888
305.064
305.253
305.456
305.676
305.913
306.17
306.449
306.753
307.083
307.442
307.834
308.261
308.726
309.233
309.785
310.386
311.041
311.754
312.53
313.373
314.29
315.285
316.364
317.534
318.802
320.175
321.659
323.262
324.992
326.857
328.864
331.02
333.331
335.802
338.435
341.228
344.175
347.262
350.468
353.76
357.101
300.063
300.19
300.321
300.455
300.59
300.727
300.864
301
301.136
301.271
301.404
301.535
301.665
301.792
301.917
302.04
302.16
302.278
302.394
302.507
302.619
302.729
302.838
302.946
303.052
303.159
303.265
303.371
303.479
303.587
303.698
303.811
303.927
304.048
304.173
304.303
304.441
304.586
304.739
304.903
305.078
305.266
305.468
305.686
305.921
306.177
306.454
306.755
307.082
307.438
307.826
308.248
308.708
309.209
309.754
310.348
310.994
311.695
312.458
313.286
314.185
315.159
316.213
317.354
318.588
319.919
321.355
322.9
324.562
326.345
328.255
330.295
332.469
334.777
337.217
339.784
342.469
345.258
348.129
351.059
354.017
300.063
300.192
300.324
300.459
300.595
300.733
300.871
301.009
301.146
301.282
301.416
301.549
301.679
301.808
301.933
302.057
302.178
302.297
302.413
302.528
302.64
302.751
302.86
302.968
303.075
303.182
303.288
303.395
303.502
303.611
303.721
303.834
303.95
304.07
304.195
304.325
304.462
304.606
304.759
304.922
305.096
305.282
305.483
305.699
305.932
306.185
306.46
306.758
307.081
307.433
307.816
308.233
308.687
309.18
309.717
310.3
310.934
311.623
312.369
313.179
314.056
315.004
316.029
317.136
318.328
319.612
320.991
322.47
324.054
325.746
327.548
329.463
331.491
333.629
335.874
338.219
340.654
343.165
345.734
348.342
350.965
300.064
300.194
300.327
300.464
300.602
300.741
300.88
301.02
301.158
301.296
301.432
301.565
301.697
301.827
301.954
302.079
302.201
302.321
302.438
302.553
302.667
302.778
302.888
302.996
303.104
303.21
303.317
303.424
303.531
303.64
303.75
303.863
303.979
304.099
304.223
304.352
304.488
304.632
304.784
304.945
305.118
305.302
305.501
305.715
305.946
306.196
306.467
306.762
307.081
307.428
307.805
308.215
308.661
309.145
309.672
310.243
310.863
311.535
312.263
313.05
313.902
314.82
315.811
316.877
318.022
319.251
320.567
321.972
323.47
325.063
326.751
328.535
330.412
332.38
334.433
336.564
338.763
341.017
343.313
345.634
347.963
300.065
300.196
300.332
300.47
300.609
300.75
300.892
301.033
301.173
301.313
301.45
301.586
301.72
301.851
301.979
302.105
302.229
302.35
302.469
302.585
302.699
302.811
302.922
303.031
303.139
303.246
303.353
303.46
303.567
303.676
303.786
303.899
304.014
304.134
304.257
304.386
304.521
304.663
304.814
304.974
305.145
305.328
305.524
305.736
305.964
306.21
306.477
306.767
307.081
307.422
307.792
308.194
308.631
309.105
309.618
310.175
310.779
311.432
312.138
312.9
313.721
314.606
315.557
316.577
317.67
318.838
320.084
321.41
322.817
324.305
325.875
327.524
329.251
331.051
332.918
334.846
336.825
338.845
340.894
342.959
345.028
300.066
300.199
300.337
300.477
300.619
300.762
300.906
301.049
301.192
301.333
301.473
301.611
301.747
301.88
302.01
302.138
302.263
302.386
302.506
302.623
302.739
302.852
302.963
303.073
303.182
303.289
303.397
303.504
303.612
303.72
303.83
303.943
304.058
304.176
304.299
304.427
304.561
304.702
304.851
305.01
305.178
305.359
305.553
305.761
305.985
306.228
306.49
306.775
307.082
307.416
307.778
308.171
308.596
309.058
309.557
310.098
310.682
311.313
311.993
312.726
313.515
314.361
315.268
316.238
317.274
318.377
319.548
320.789
322.1
323.481
324.931
326.446
328.025
329.663
331.353
333.091
334.867
336.673
338.499
340.337
342.174
300.067
300.203
300.343
300.486
300.63
300.776
300.923
301.069
301.215
301.359
301.501
301.642
301.78
301.915
302.048
302.178
302.305
302.429
302.551
302.67
302.787
302.901
303.014
303.124
303.234
303.342
303.45
303.557
303.665
303.774
303.884
303.996
304.11
304.228
304.35
304.477
304.61
304.749
304.897
305.053
305.219
305.397
305.587
305.792
306.013
306.25
306.507
306.785
307.086
307.411
307.764
308.145
308.558
309.005
309.488
310.01
310.572
311.179
311.831
312.532
313.283
314.088
314.947
315.863
316.837
317.871
318.964
320.118
321.332
322.605
323.935
325.319
326.755
328.237
329.762
331.322
332.912
334.524
336.151
337.784
339.415
300.068
300.207
300.35
300.496
300.644
300.794
300.943
301.093
301.242
301.389
301.535
301.678
301.819
301.958
302.093
302.226
302.355
302.482
302.605
302.726
302.845
302.96
303.074
303.186
303.296
303.405
303.513
303.621
303.729
303.838
303.948
304.059
304.173
304.291
304.412
304.537
304.669
304.806
304.952
305.105
305.269
305.443
305.63
305.831
306.046
306.278
306.529
306.799
307.092
307.408
307.749
308.118
308.517
308.948
309.412
309.913
310.452
311.031
311.652
312.317
313.029
313.788
314.597
315.456
316.366
317.328
318.342
319.408
320.524
321.69
322.903
324.16
325.459
326.796
328.166
329.563
330.983
332.419
333.866
335.316
336.764
300.07
300.213
300.359
300.509
300.661
300.814
300.968
301.121
301.274
301.425
301.575
301.722
301.867
302.009
302.147
302.283
302.415
302.544
302.671
302.794
302.914
303.031
303.147
303.26
303.371
303.481
303.59
303.698
303.807
303.915
304.025
304.136
304.249
304.366
304.485
304.61
304.739
304.875
305.018
305.169
305.329
305.5
305.683
305.878
306.088
306.314
306.557
306.819
307.102
307.408
307.737
308.092
308.475
308.888
309.332
309.809
310.322
310.871
311.459
312.087
312.756
313.468
314.223
315.023
315.868
316.757
317.691
318.669
319.689
320.751
321.851
322.988
324.159
325.359
326.585
327.833
329.099
330.376
331.661
332.949
334.234
300.072
300.219
300.37
300.524
300.681
300.839
300.997
301.155
301.313
301.469
301.623
301.775
301.923
302.069
302.212
302.351
302.487
302.619
302.748
302.874
302.996
303.116
303.233
303.348
303.46
303.571
303.681
303.79
303.899
304.007
304.117
304.227
304.34
304.455
304.574
304.696
304.824
304.957
305.098
305.245
305.402
305.569
305.747
305.937
306.14
306.359
306.594
306.847
307.12
307.413
307.729
308.069
308.434
308.827
309.249
309.702
310.186
310.704
311.256
311.845
312.47
313.133
313.834
314.573
315.352
316.168
317.023
317.915
318.842
319.804
320.797
321.821
322.871
323.945
325.04
326.152
327.277
328.412
329.553
330.694
331.834
300.075
300.226
300.383
300.542
300.704
300.868
301.032
301.196
301.359
301.52
301.68
301.837
301.991
302.141
302.289
302.432
302.572
302.708
302.84
302.969
303.094
303.216
303.336
303.452
303.566
303.679
303.789
303.899
304.008
304.117
304.226
304.336
304.448
304.562
304.679
304.8
304.925
305.056
305.193
305.338
305.49
305.652
305.825
306.008
306.205
306.416
306.642
306.885
307.146
307.426
307.727
308.051
308.398
308.77
309.168
309.594
310.049
310.534
311.049
311.597
312.177
312.79
313.436
314.115
314.828
315.574
316.351
317.16
317.998
318.865
319.758
320.675
321.615
322.573
323.548
324.537
325.536
326.542
327.553
328.565
329.574
300.078
300.235
300.398
300.564
300.732
300.902
301.073
301.244
301.413
301.582
301.748
301.911
302.07
302.227
302.379
302.528
302.672
302.813
302.949
303.081
303.21
303.335
303.457
303.576
303.692
303.805
303.917
304.028
304.137
304.246
304.355
304.465
304.576
304.689
304.804
304.923
305.046
305.174
305.308
305.448
305.596
305.753
305.92
306.097
306.286
306.488
306.704
306.936
307.185
307.451
307.736
308.042
308.369
308.719
309.093
309.491
309.916
310.366
310.844
311.35
311.885
312.448
313.04
313.66
314.309
314.986
315.689
316.419
317.173
317.951
318.75
319.57
320.407
321.26
322.126
323.003
323.888
324.78
325.674
326.57
327.465
300.081
300.246
300.415
300.589
300.765
300.943
301.122
301.3
301.478
301.654
301.827
301.998
302.165
302.328
302.487
302.641
302.791
302.937
303.078
303.214
303.347
303.475
303.6
303.721
303.84
303.955
304.068
304.18
304.29
304.399
304.508
304.617
304.727
304.839
304.952
305.069
305.189
305.314
305.444
305.581
305.724
305.875
306.035
306.205
306.386
306.579
306.785
307.005
307.24
307.492
307.761
308.048
308.354
308.681
309.029
309.4
309.793
310.209
310.65
311.114
311.604
312.118
312.657
313.22
313.807
314.418
315.051
315.706
316.382
317.077
317.79
318.52
319.264
320.02
320.788
321.565
322.348
323.137
323.928
324.721
325.512
300.085
300.258
300.436
300.619
300.804
300.991
301.179
301.367
301.554
301.739
301.921
302.1
302.276
302.446
302.613
302.774
302.931
303.082
303.229
303.37
303.507
303.64
303.768
303.893
304.013
304.131
304.246
304.359
304.469
304.579
304.688
304.797
304.906
305.016
305.128
305.242
305.36
305.481
305.607
305.739
305.877
306.022
306.175
306.338
306.51
306.693
306.888
307.096
307.317
307.553
307.805
308.073
308.359
308.662
308.985
309.326
309.688
310.071
310.474
310.898
311.343
311.81
312.298
312.806
313.335
313.884
314.452
315.037
315.64
316.26
316.893
317.541
318.2
318.87
319.55
320.236
320.929
321.625
322.324
323.025
323.725
300.09
300.273
300.461
300.654
300.85
301.048
301.247
301.446
301.644
301.84
302.032
302.221
302.406
302.586
302.761
302.931
303.095
303.253
303.406
303.554
303.696
303.833
303.966
304.093
304.217
304.338
304.454
304.569
304.68
304.79
304.899
305.008
305.116
305.225
305.335
305.447
305.561
305.679
305.801
305.928
306.06
306.199
306.345
306.499
306.663
306.836
307.019
307.214
307.421
307.642
307.876
308.125
308.389
308.669
308.966
309.28
309.611
309.96
310.327
310.712
311.115
311.537
311.976
312.433
312.907
313.398
313.904
314.426
314.963
315.512
316.074
316.647
317.231
317.823
318.422
319.028
319.64
320.254
320.871
321.49
322.108
300.096
300.29
300.49
300.696
300.904
301.115
301.327
301.539
301.749
301.958
302.162
302.363
302.559
302.75
302.935
303.114
303.287
303.454
303.614
303.768
303.917
304.059
304.197
304.329
304.456
304.579
304.698
304.814
304.927
305.038
305.147
305.255
305.362
305.47
305.578
305.687
305.799
305.913
306.031
306.153
306.279
306.412
306.55
306.696
306.85
307.013
307.185
307.367
307.56
307.764
307.981
308.211
308.454
308.711
308.983
309.269
309.571
309.887
310.22
310.567
310.931
311.309
311.703
312.112
312.536
312.973
313.424
313.887
314.363
314.849
315.346
315.853
316.368
316.89
317.419
317.953
318.492
319.034
319.578
320.123
320.669
300.102
300.31
300.525
300.744
300.968
301.194
301.421
301.648
301.873
302.096
302.315
302.53
302.739
302.942
303.139
303.329
303.512
303.688
303.857
304.019
304.175
304.324
304.466
304.603
304.735
304.861
304.983
305.101
305.216
305.328
305.437
305.545
305.651
305.757
305.864
305.97
306.079
306.189
306.302
306.419
306.54
306.666
306.797
306.935
307.079
307.231
307.391
307.561
307.74
307.929
308.128
308.339
308.562
308.797
309.044
309.304
309.577
309.864
310.163
310.476
310.802
311.141
311.493
311.857
312.234
312.623
313.023
313.433
313.854
314.284
314.722
315.169
315.623
316.083
316.549
317.019
317.493
317.971
318.45
318.931
319.412
300.11
300.334
300.565
300.802
301.043
301.287
301.531
301.776
302.019
302.259
302.494
302.725
302.949
303.167
303.377
303.58
303.775
303.962
304.141
304.312
304.475
304.631
304.78
304.923
305.059
305.19
305.315
305.436
305.552
305.665
305.775
305.883
305.989
306.093
306.198
306.302
306.407
306.514
306.623
306.734
306.849
306.969
307.092
307.222
307.357
307.498
307.647
307.804
307.969
308.143
308.326
308.519
308.722
308.936
309.16
309.396
309.642
309.9
310.169
310.449
310.741
311.043
311.357
311.681
312.016
312.36
312.714
313.077
313.448
313.827
314.214
314.608
315.007
315.412
315.822
316.236
316.653
317.073
317.495
317.919
318.343
300.119
300.362
300.613
300.87
301.131
301.395
301.661
301.926
302.189
302.449
302.704
302.953
303.195
303.429
303.655
303.872
304.081
304.28
304.471
304.652
304.825
304.989
305.146
305.295
305.436
305.571
305.7
305.824
305.943
306.057
306.168
306.276
306.381
306.485
306.587
306.689
306.792
306.895
306.999
307.106
307.215
307.327
307.444
307.565
307.691
307.823
307.961
308.106
308.257
308.417
308.584
308.76
308.945
309.139
309.342
309.554
309.776
310.007
310.248
310.499
310.759
311.029
311.307
311.595
311.891
312.196
312.509
312.83
313.157
313.491
313.832
314.178
314.53
314.886
315.247
315.611
315.978
316.347
316.719
317.092
317.465
300.13
300.395
300.669
300.949
301.234
301.523
301.813
302.103
302.389
302.672
302.949
303.22
303.482
303.735
303.979
304.213
304.437
304.651
304.854
305.048
305.231
305.405
305.569
305.725
305.873
306.013
306.147
306.274
306.395
306.512
306.623
306.732
306.837
306.939
307.04
307.14
307.239
307.339
307.439
307.541
307.645
307.751
307.86
307.974
308.091
308.213
308.341
308.474
308.614
308.76
308.912
309.073
309.24
309.416
309.599
309.79
309.99
310.197
310.413
310.637
310.869
311.108
311.356
311.611
311.874
312.143
312.42
312.703
312.992
313.286
313.586
313.891
314.2
314.514
314.831
315.151
315.474
315.799
316.126
316.454
316.783
300.143
300.434
300.734
301.043
301.356
301.673
301.992
302.309
302.624
302.933
303.236
303.531
303.817
304.092
304.357
304.61
304.852
305.081
305.299
305.506
305.701
305.885
306.059
306.223
306.378
306.524
306.662
306.793
306.918
307.036
307.149
307.258
307.363
307.465
307.564
307.662
307.759
307.855
307.951
308.048
308.147
308.247
308.35
308.456
308.566
308.679
308.797
308.92
309.048
309.181
309.321
309.467
309.619
309.777
309.943
310.115
310.294
310.48
310.674
310.873
311.08
311.294
311.514
311.74
311.973
312.211
312.456
312.706
312.961
313.22
313.485
313.753
314.026
314.302
314.581
314.862
315.146
315.432
315.72
316.009
316.299
300.158
300.48
300.812
301.153
301.499
301.85
302.201
302.552
302.898
303.239
303.571
303.895
304.207
304.508
304.796
305.07
305.332
305.58
305.814
306.035
306.244
306.44
306.624
306.797
306.959
307.112
307.255
307.39
307.518
307.639
307.754
307.864
307.969
308.07
308.168
308.264
308.359
308.452
308.544
308.637
308.731
308.826
308.923
309.022
309.124
309.23
309.339
309.452
309.57
309.692
309.82
309.953
310.091
310.235
310.385
310.54
310.701
310.868
311.041
311.22
311.405
311.595
311.791
311.992
312.199
312.411
312.627
312.848
313.074
313.303
313.536
313.773
314.014
314.257
314.503
314.751
315.001
315.253
315.507
315.762
316.017
300.176
300.534
300.903
301.282
301.668
302.057
302.447
302.836
303.219
303.596
303.963
304.318
304.661
304.99
305.305
305.604
305.888
306.156
306.408
306.646
306.868
307.077
307.272
307.455
307.626
307.785
307.934
308.074
308.206
308.33
308.446
308.557
308.663
308.764
308.861
308.955
309.048
309.138
309.228
309.317
309.406
309.496
309.588
309.681
309.776
309.875
309.976
310.081
310.19
310.302
310.42
310.541
310.667
310.798
310.934
311.075
311.22
311.371
311.527
311.687
311.853
312.023
312.198
312.377
312.561
312.75
312.942
313.138
313.338
313.542
313.748
313.958
314.17
314.385
314.602
314.821
315.042
315.265
315.488
315.713
315.939
300.197
300.597
301.011
301.434
301.866
302.301
302.736
303.169
303.595
304.013
304.419
304.811
305.189
305.55
305.894
306.221
306.529
306.819
307.091
307.346
307.585
307.807
308.014
308.207
308.387
308.554
308.709
308.854
308.989
309.116
309.235
309.347
309.453
309.554
309.651
309.744
309.834
309.923
310.009
310.095
310.181
310.267
310.354
310.442
310.532
310.624
310.719
310.817
310.918
311.022
311.13
311.242
311.358
311.478
311.602
311.73
311.862
311.998
312.139
312.284
312.433
312.586
312.743
312.904
313.069
313.237
313.409
313.584
313.762
313.943
314.126
314.312
314.501
314.691
314.884
315.078
315.273
315.47
315.668
315.867
316.066
300.221
300.672
301.137
301.614
302.098
302.587
303.075
303.558
304.034
304.499
304.95
305.384
305.801
306.198
306.575
306.931
307.266
307.58
307.874
308.148
308.403
308.639
308.859
309.062
309.251
309.425
309.587
309.737
309.876
310.006
310.127
310.24
310.347
310.449
310.545
310.638
310.727
310.813
310.898
310.981
311.064
311.147
311.23
311.314
311.4
311.487
311.576
311.668
311.763
311.861
311.961
312.065
312.172
312.283
312.397
312.514
312.635
312.76
312.888
313.02
313.155
313.294
313.436
313.581
313.729
313.88
314.035
314.191
314.351
314.512
314.676
314.842
315.01
315.18
315.351
315.523
315.697
315.872
316.047
316.223
316.4
300.251
300.761
301.287
301.825
302.372
302.923
303.472
304.015
304.547
305.066
305.567
306.048
306.508
306.945
307.357
307.745
308.109
308.449
308.765
309.058
309.33
309.581
309.813
310.027
310.224
310.406
310.574
310.729
310.872
311.005
311.128
311.244
311.352
311.454
311.55
311.642
311.731
311.816
311.9
311.981
312.062
312.143
312.223
312.304
312.387
312.47
312.556
312.644
312.734
312.826
312.92
313.018
313.118
313.221
313.327
313.436
313.548
313.663
313.781
313.902
314.025
314.152
314.281
314.413
314.548
314.685
314.824
314.966
315.109
315.255
315.402
315.551
315.701
315.853
316.006
316.16
316.314
316.47
316.626
316.782
316.939
300.285
300.865
301.463
302.074
302.694
303.317
303.936
304.547
305.145
305.724
306.282
306.815
307.322
307.801
308.252
308.674
309.067
309.433
309.771
310.084
310.373
310.638
310.882
311.106
311.311
311.5
311.674
311.833
311.98
312.116
312.242
312.359
312.469
312.572
312.669
312.762
312.85
312.936
313.019
313.1
313.18
313.259
313.339
313.418
313.499
313.58
313.663
313.748
313.835
313.923
314.013
314.106
314.201
314.298
314.398
314.5
314.605
314.712
314.822
314.934
315.049
315.166
315.284
315.406
315.529
315.654
315.781
315.909
316.04
316.171
316.304
316.438
316.574
316.71
316.847
316.985
317.123
317.262
317.401
317.54
317.679
300.325
300.988
301.67
302.367
303.072
303.779
304.48
305.168
305.838
306.485
307.105
307.695
308.253
308.777
309.267
309.723
310.146
310.537
310.897
311.228
311.532
311.81
312.064
312.297
312.51
312.705
312.884
313.048
313.198
313.337
313.466
313.585
313.697
313.801
313.9
313.994
314.084
314.171
314.254
314.337
314.417
314.497
314.577
314.656
314.737
314.818
314.9
314.983
315.068
315.154
315.242
315.331
315.423
315.516
315.611
315.709
315.808
315.909
316.012
316.117
316.224
316.333
316.444
316.556
316.669
316.784
316.901
317.018
317.137
317.257
317.378
317.499
317.621
317.744
317.867
317.991
318.115
318.239
318.363
318.487
318.611
300.373
301.132
301.914
302.711
303.515
304.319
305.112
305.888
306.639
307.361
308.048
308.697
309.307
309.877
310.406
310.895
311.345
311.759
312.138
312.484
312.801
313.089
313.352
313.592
313.811
314.011
314.194
314.361
314.516
314.658
314.789
314.911
315.026
315.133
315.235
315.331
315.424
315.513
315.6
315.684
315.767
315.849
315.931
316.012
316.094
316.176
316.259
316.342
316.426
316.512
316.598
316.686
316.776
316.867
316.959
317.053
317.148
317.245
317.343
317.442
317.543
317.645
317.749
317.853
317.959
318.065
318.172
318.28
318.389
318.498
318.608
318.719
318.829
318.94
319.051
319.162
319.273
319.384
319.494
319.605
319.715
300.429
301.302
302.199
303.113
304.032
304.946
305.844
306.717
307.557
308.357
309.114
309.824
310.485
311.097
311.661
312.178
312.651
313.083
313.476
313.834
314.16
314.456
314.725
314.97
315.193
315.396
315.582
315.753
315.911
316.056
316.191
316.318
316.436
316.547
316.653
316.754
316.851
316.945
317.036
317.125
317.212
317.298
317.383
317.468
317.552
317.637
317.721
317.806
317.892
317.978
318.065
318.152
318.241
318.33
318.42
318.512
318.604
318.697
318.791
318.886
318.982
319.078
319.175
319.273
319.371
319.47
319.569
319.668
319.768
319.867
319.967
320.067
320.167
320.267
320.366
320.466
320.565
320.663
320.762
320.859
320.957
300.495
301.5
302.532
303.58
304.63
305.668
306.682
307.66
308.594
309.475
310.299
311.065
311.772
312.421
313.012
313.549
314.036
314.478
314.879
315.242
315.571
315.87
316.141
316.388
316.614
316.82
317.01
317.184
317.346
317.496
317.636
317.768
317.892
318.009
318.121
318.228
318.331
318.431
318.528
318.623
318.716
318.807
318.897
318.987
319.075
319.163
319.251
319.338
319.426
319.513
319.601
319.689
319.777
319.866
319.955
320.044
320.134
320.224
320.314
320.405
320.496
320.587
320.678
320.769
320.861
320.952
321.043
321.134
321.225
321.316
321.406
321.496
321.586
321.675
321.764
321.852
321.94
322.027
322.114
322.199
322.285
300.57
301.728
302.916
304.117
305.314
306.49
307.629
308.716
309.745
310.701
311.581
312.387
313.122
313.79
314.394
314.94
315.434
315.879
316.281
316.645
316.975
317.274
317.546
317.794
318.022
318.231
318.424
318.602
318.769
318.924
319.07
319.208
319.339
319.463
319.583
319.697
319.807
319.914
320.018
320.12
320.219
320.316
320.412
320.506
320.599
320.691
320.782
320.872
320.962
321.051
321.14
321.228
321.317
321.404
321.492
321.58
321.667
321.754
321.84
321.927
322.013
322.099
322.184
322.269
322.353
322.438
322.521
322.604
322.687
322.769
322.85
322.93
323.01
323.09
323.168
323.246
323.323
323.399
323.474
323.548
323.622
300.655
301.987
303.35
304.723
306.083
307.409
308.671
309.852
310.946
311.95
312.866
313.696
314.446
315.122
315.73
316.276
316.767
317.209
317.608
317.968
318.294
318.591
318.862
319.11
319.338
319.549
319.744
319.926
320.097
320.258
320.41
320.554
320.691
320.823
320.949
321.07
321.188
321.302
321.412
321.52
321.625
321.728
321.829
321.928
322.025
322.12
322.214
322.307
322.398
322.489
322.578
322.667
322.755
322.841
322.927
323.013
323.097
323.181
323.263
323.345
323.427
323.507
323.587
323.665
323.743
323.82
323.896
323.972
324.046
324.119
324.192
324.263
324.334
324.404
324.472
324.54
324.607
324.673
324.738
324.801
324.864
300.745
302.263
303.818
305.381
306.9
308.343
309.693
310.939
312.078
313.112
314.044
314.88
315.63
316.3
316.9
317.436
317.917
318.349
318.738
319.09
319.409
319.701
319.967
320.213
320.44
320.65
320.847
321.032
321.205
321.37
321.526
321.675
321.817
321.954
322.085
322.212
322.335
322.454
322.569
322.682
322.791
322.898
323.002
323.105
323.204
323.302
323.398
323.492
323.585
323.676
323.766
323.854
323.941
324.026
324.11
324.193
324.274
324.355
324.434
324.512
324.588
324.664
324.738
324.811
324.883
324.954
325.023
325.092
325.159
325.225
325.29
325.354
325.417
325.478
325.539
325.598
325.656
325.713
325.769
325.824
325.878
300.822
302.503
304.243
305.947
307.573
309.095
310.497
311.775
312.93
313.967
314.894
315.72
316.456
317.111
317.694
318.215
318.681
319.099
319.477
319.818
320.129
320.413
320.674
320.915
321.139
321.348
321.543
321.728
321.902
322.067
322.224
322.375
322.519
322.658
322.792
322.921
323.046
323.168
323.286
323.4
323.512
323.621
323.727
323.831
323.932
324.031
324.128
324.223
324.316
324.407
324.496
324.584
324.67
324.754
324.837
324.918
324.998
325.076
325.152
325.227
325.301
325.373
325.444
325.513
325.581
325.648
325.713
325.777
325.84
325.902
325.962
326.021
326.078
326.135
326.19
326.244
326.297
326.348
326.399
326.448
326.497
384.126
392.081
398.762
404.578
409.731
414.332
418.444
422.101
425.32
428.102
430.439
432.308
433.677
434.497
434.705
434.21
432.883
430.53
426.819
421.092
411.701
405.33
400.441
396.431
393.013
390.024
387.364
384.964
382.774
380.759
378.89
377.145
375.507
373.961
372.494
371.098
369.762
368.48
367.246
366.053
364.897
363.773
362.678
361.609
360.562
359.535
358.526
357.532
356.551
355.583
354.625
353.676
352.735
351.802
350.874
349.952
349.036
348.123
347.215
346.311
345.41
344.513
343.619
342.729
341.843
340.96
340.081
339.206
338.336
337.469
336.608
335.751
334.9
334.055
333.216
332.383
331.558
330.741
329.932
329.133
328.343
327.563
326.794
326.037
325.292
324.56
323.842
323.137
322.448
321.774
321.116
320.474
319.848
319.24
318.649
318.076
317.521
316.984
316.465
315.965
315.482
315.018
314.572
314.144
313.734
313.341
312.965
312.606
312.264
311.938
311.627
311.332
311.051
310.785
310.532
310.292
310.065
309.85
309.646
309.453
309.271
309.098
308.934
308.779
308.631
308.491
308.358
308.231
308.11
307.994
307.882
307.776
307.673
307.573
307.476
307.382
307.29
307.201
307.112
307.025
306.939
306.854
306.769
306.684
306.599
306.514
306.429
306.343
306.256
306.169
306.08
305.99
305.899
305.807
305.713
305.618
305.521
305.423
305.324
305.223
305.122
379.375
386.29
392.504
398.077
403.09
407.605
411.661
415.283
418.481
421.254
423.591
425.468
426.855
427.705
427.957
427.529
426.31
424.143
420.813
416.051
409.81
404.408
399.896
396.067
392.751
389.826
387.209
384.839
382.672
380.674
378.819
377.085
375.456
373.917
372.456
371.065
369.733
368.455
367.223
366.033
364.879
363.758
362.665
361.597
360.552
359.526
358.517
357.524
356.544
355.577
354.619
353.671
352.731
351.797
350.87
349.949
349.032
348.12
347.212
346.308
345.407
344.51
343.617
342.727
341.841
340.958
340.079
339.204
338.334
337.467
336.606
335.749
334.898
334.053
333.214
332.381
331.556
330.739
329.93
329.13
328.34
327.56
326.792
326.034
325.29
324.558
323.839
323.135
322.446
321.772
321.113
320.471
319.846
319.238
318.647
318.074
317.519
316.982
316.463
315.963
315.481
315.016
314.57
314.142
313.732
313.339
312.964
312.605
312.263
311.937
311.626
311.331
311.05
310.784
310.531
310.292
310.065
309.85
309.646
309.453
309.271
309.098
308.934
308.779
308.631
308.491
308.358
308.231
308.11
307.994
307.883
307.776
307.673
307.573
307.477
307.383
307.291
307.201
307.113
307.026
306.94
306.854
306.769
306.685
306.6
306.515
306.43
306.344
306.257
306.169
306.081
305.991
305.9
305.808
305.714
305.619
305.522
305.424
305.324
305.224
305.123
375.269
381.188
386.772
391.945
396.695
401.032
404.966
408.506
411.651
414.395
416.721
418.608
420.025
420.928
421.265
420.966
419.947
418.106
415.338
411.597
407.099
402.734
398.792
395.291
392.178
389.386
386.862
384.559
382.443
380.484
378.659
376.949
375.34
373.818
372.371
370.991
369.669
368.399
367.175
365.991
364.842
363.725
362.636
361.572
360.529
359.506
358.5
357.509
356.531
355.564
354.608
353.661
352.722
351.789
350.863
349.942
349.026
348.114
347.207
346.303
345.403
344.506
343.613
342.723
341.837
340.954
340.075
339.201
338.33
337.464
336.602
335.745