/*--------------------------------*- C++ -*----------------------------------*\
  =========                 |
  \\      /  F ield         | OpenFOAM: The Open Source CFD Toolbox
   \\    /   O peration     | Website:  https://openfoam.org
    \\  /    A nd           | Version:  7
     \\/     M anipulation  |
\*---------------------------------------------------------------------------*/
FoamFile
{
    version     2.0;
    format      ascii;
    class       surfaceScalarField;
    location    "0.95";
    object      phi;
}
// * * * * * * * * * * * * * * * * * * * * * * * * * * * * * * * * * * * * * //

dimensions      [1 0 -1 0 0 0 0];

internalField   nonuniform List<scalar> 
23692
(
1.16344e-05
5.13371e-10
1.16331e-05
1.36602e-09
1.16303e-05
2.76744e-09
1.16255e-05
4.83171e-09
1.1618e-05
7.50301e-09
1.16074e-05
1.05165e-08
1.1594e-05
1.34836e-08
1.15779e-05
1.60323e-08
1.156e-05
1.79219e-08
1.15409e-05
1.90883e-08
1.15213e-05
1.96211e-08
1.15016e-05
1.96952e-08
1.14821e-05
1.95053e-08
1.14629e-05
1.92133e-08
1.1444e-05
1.89303e-08
1.14252e-05
1.87147e-08
1.14067e-05
1.85853e-08
1.13881e-05
1.85376e-08
1.13696e-05
1.85553e-08
1.13509e-05
1.8621e-08
1.13322e-05
1.87191e-08
1.13134e-05
1.88388e-08
1.12944e-05
1.89737e-08
1.12753e-05
1.91203e-08
1.1256e-05
1.92777e-08
1.12366e-05
1.94462e-08
1.12169e-05
1.96275e-08
1.11971e-05
1.98228e-08
1.11771e-05
2.00338e-08
1.11568e-05
2.02624e-08
1.11363e-05
2.05096e-08
1.11155e-05
2.07767e-08
1.10945e-05
2.10649e-08
1.10731e-05
2.13753e-08
1.10514e-05
2.17085e-08
1.10293e-05
2.20656e-08
1.10069e-05
2.24479e-08
1.0984e-05
2.28561e-08
1.09607e-05
2.32914e-08
1.0937e-05
2.37554e-08
1.09127e-05
2.42499e-08
1.08879e-05
2.47768e-08
1.08626e-05
2.53389e-08
1.08367e-05
2.59388e-08
1.08101e-05
2.65801e-08
1.07828e-05
2.72669e-08
1.07548e-05
2.80042e-08
1.0726e-05
2.87974e-08
1.06964e-05
2.9653e-08
1.06658e-05
3.05789e-08
1.06342e-05
3.15838e-08
1.06015e-05
3.26784e-08
1.05676e-05
3.38748e-08
1.05325e-05
3.51874e-08
1.04958e-05
3.66331e-08
1.04576e-05
3.8232e-08
1.04176e-05
4.0008e-08
1.03756e-05
4.19897e-08
1.03314e-05
4.42115e-08
1.02847e-05
4.67154e-08
1.02351e-05
4.95526e-08
1.01823e-05
5.27863e-08
1.01258e-05
5.64956e-08
1.00651e-05
6.07801e-08
9.99929e-06
6.57666e-08
9.92767e-06
7.16189e-08
9.84912e-06
7.85517e-08
9.76227e-06
8.68495e-08
9.66537e-06
9.68966e-08
9.55615e-06
1.0922e-07
9.4316e-06
1.24554e-07
9.28765e-06
1.43943e-07
9.11876e-06
1.68896e-07
8.91713e-06
2.01633e-07
8.67165e-06
2.45477e-07
8.36618e-06
3.05468e-07
7.97689e-06
3.8929e-07
7.46809e-06
5.08796e-07
6.78448e-06
6.83616e-07
5.83447e-06
9.50003e-07
1.40421e-06
4.43027e-06
1.24494e-05
1.04557e-09
1.24479e-05
2.80835e-09
1.2445e-05
5.69766e-09
1.24399e-05
9.95632e-09
1.24319e-05
1.54734e-08
1.24207e-05
2.17027e-08
1.24064e-05
2.78424e-08
1.23893e-05
3.31217e-08
1.23702e-05
3.70404e-08
1.23498e-05
3.94652e-08
1.23288e-05
4.05777e-08
1.23078e-05
4.07403e-08
1.22869e-05
4.03533e-08
1.22664e-05
3.97535e-08
1.22462e-05
3.91694e-08
1.22262e-05
3.87231e-08
1.22063e-05
3.84547e-08
1.21865e-05
3.8354e-08
1.21666e-05
3.8389e-08
1.21467e-05
3.85228e-08
1.21267e-05
3.87243e-08
1.21066e-05
3.89707e-08
1.20863e-05
3.92486e-08
1.20659e-05
3.95509e-08
1.20453e-05
3.98758e-08
1.20245e-05
4.02244e-08
1.20035e-05
4.05989e-08
1.19824e-05
4.10028e-08
1.1961e-05
4.14395e-08
1.19393e-05
4.19121e-08
1.19174e-05
4.24234e-08
1.18952e-05
4.29759e-08
1.18727e-05
4.35719e-08
1.18499e-05
4.42134e-08
1.18267e-05
4.49024e-08
1.18031e-05
4.56409e-08
1.17791e-05
4.64305e-08
1.17547e-05
4.72738e-08
1.17298e-05
4.81732e-08
1.17044e-05
4.91318e-08
1.16785e-05
5.01531e-08
1.16521e-05
5.12414e-08
1.1625e-05
5.24014e-08
1.15973e-05
5.36398e-08
1.15689e-05
5.49633e-08
1.15398e-05
5.63804e-08
1.15099e-05
5.79009e-08
1.14792e-05
5.95364e-08
1.14475e-05
6.13004e-08
1.14149e-05
6.32083e-08
1.13812e-05
6.52788e-08
1.13463e-05
6.75328e-08
1.13102e-05
6.99954e-08
1.12727e-05
7.26961e-08
1.12337e-05
7.56689e-08
1.11929e-05
7.8955e-08
1.11503e-05
8.26026e-08
1.11057e-05
8.66694e-08
1.10587e-05
9.12253e-08
1.1009e-05
9.63544e-08
1.09564e-05
1.0216e-07
1.09004e-05
1.08768e-07
1.08406e-05
1.16336e-07
1.07763e-05
1.25062e-07
1.07069e-05
1.35196e-07
1.06314e-05
1.47059e-07
1.05489e-05
1.61068e-07
1.0458e-05
1.77772e-07
1.0357e-05
1.97902e-07
1.02438e-05
2.22448e-07
1.01155e-05
2.52767e-07
9.96875e-06
2.90745e-07
9.7986e-06
3.39037e-07
9.59883e-06
4.01404e-07
9.36111e-06
4.83204e-07
9.07457e-06
5.91999e-07
8.72572e-06
7.38141e-07
8.29963e-06
9.34892e-07
7.78563e-06
1.19761e-06
7.20014e-06
1.53549e-06
1.89732e-06
6.70703e-06
1.33214e-05
1.59768e-09
1.33199e-05
4.32357e-09
1.33168e-05
8.77776e-09
1.33114e-05
1.53515e-08
1.3303e-05
2.38783e-08
1.32912e-05
3.35196e-08
1.3276e-05
4.3037e-08
1.32579e-05
5.12372e-08
1.32376e-05
5.73412e-08
1.32159e-05
6.11358e-08
1.31936e-05
6.28962e-08
1.31712e-05
6.31792e-08
1.31489e-05
6.26021e-08
1.3127e-05
6.16864e-08
1.31054e-05
6.07876e-08
1.3084e-05
6.00965e-08
1.30628e-05
5.96771e-08
1.30416e-05
5.95159e-08
1.30204e-05
5.95645e-08
1.29992e-05
5.97665e-08
1.29778e-05
6.00741e-08
1.29564e-05
6.04524e-08
1.29347e-05
6.08802e-08
1.29129e-05
6.13471e-08
1.2891e-05
6.18495e-08
1.28688e-05
6.23893e-08
1.28464e-05
6.29698e-08
1.28238e-05
6.35965e-08
1.2801e-05
6.4274e-08
1.27779e-05
6.50071e-08
1.27545e-05
6.58002e-08
1.27308e-05
6.66571e-08
1.27068e-05
6.75813e-08
1.26825e-05
6.8576e-08
1.26577e-05
6.96438e-08
1.26326e-05
7.07878e-08
1.2607e-05
7.2011e-08
1.2581e-05
7.3317e-08
1.25544e-05
7.47095e-08
1.25274e-05
7.6193e-08
1.24997e-05
7.77732e-08
1.24715e-05
7.94564e-08
1.24427e-05
8.12505e-08
1.24132e-05
8.31647e-08
1.23829e-05
8.52099e-08
1.23519e-05
8.73989e-08
1.232e-05
8.97468e-08
1.22873e-05
9.22712e-08
1.22536e-05
9.49925e-08
1.22189e-05
9.79345e-08
1.2183e-05
1.01125e-07
1.2146e-05
1.04597e-07
1.21076e-05
1.08388e-07
1.20677e-05
1.12541e-07
1.20263e-05
1.1711e-07
1.19831e-05
1.22155e-07
1.1938e-05
1.27749e-07
1.18906e-05
1.33979e-07
1.18409e-05
1.40948e-07
1.17885e-05
1.48783e-07
1.1733e-05
1.57634e-07
1.16741e-05
1.67689e-07
1.16113e-05
1.79177e-07
1.15439e-05
1.92385e-07
1.14715e-05
2.07672e-07
1.1393e-05
2.25496e-07
1.13076e-05
2.46443e-07
1.12141e-05
2.71274e-07
1.11111e-05
3.00983e-07
1.09966e-05
3.36889e-07
1.08686e-05
3.80753e-07
1.07244e-05
4.3494e-07
1.05608e-05
5.0264e-07
1.03741e-05
5.88132e-07
1.01603e-05
6.97067e-07
9.91564e-06
8.36614e-07
9.6387e-06
1.01507e-06
9.33349e-06
1.24011e-06
9.01729e-06
1.51381e-06
8.73444e-06
1.81834e-06
2.07765e-06
8.55411e-06
1.42545e-05
2.17058e-09
1.4253e-05
5.90477e-09
1.42498e-05
1.19903e-08
1.42441e-05
2.09834e-08
1.42353e-05
3.26659e-08
1.4223e-05
4.59008e-08
1.4207e-05
5.89976e-08
1.41879e-05
7.0317e-08
1.41665e-05
7.87804e-08
1.41435e-05
8.40815e-08
1.41198e-05
8.65847e-08
1.4096e-05
8.70438e-08
1.40723e-05
8.63017e-08
1.40489e-05
8.50737e-08
1.40258e-05
8.38522e-08
1.4003e-05
8.29032e-08
1.39804e-05
8.23195e-08
1.39578e-05
8.20869e-08
1.39352e-05
8.21415e-08
1.39126e-05
8.24077e-08
1.38898e-05
8.28207e-08
1.3867e-05
8.33335e-08
1.38439e-05
8.3917e-08
1.38207e-05
8.45559e-08
1.37973e-05
8.52458e-08
1.37737e-05
8.59881e-08
1.37499e-05
8.6788e-08
1.37258e-05
8.76516e-08
1.37015e-05
8.85857e-08
1.36769e-05
8.95968e-08
1.36521e-05
9.06902e-08
1.36268e-05
9.18716e-08
1.36013e-05
9.31452e-08
1.35753e-05
9.45151e-08
1.3549e-05
9.59855e-08
1.35222e-05
9.75601e-08
1.3495e-05
9.92431e-08
1.34673e-05
1.01039e-07
1.3439e-05
1.02953e-07
1.34102e-05
1.04992e-07
1.33808e-05
1.07162e-07
1.33508e-05
1.09472e-07
1.33201e-05
1.11934e-07
1.32887e-05
1.1456e-07
1.32566e-05
1.17363e-07
1.32236e-05
1.20363e-07
1.31898e-05
1.23578e-07
1.3155e-05
1.27032e-07
1.31193e-05
1.30754e-07
1.30824e-05
1.34775e-07
1.30444e-05
1.39132e-07
1.30052e-05
1.43869e-07
1.29645e-05
1.49035e-07
1.29224e-05
1.54691e-07
1.28786e-05
1.60904e-07
1.2833e-05
1.67756e-07
1.27854e-05
1.75342e-07
1.27356e-05
1.83775e-07
1.26833e-05
1.93192e-07
1.26284e-05
2.03754e-07
1.25703e-05
2.15657e-07
1.25089e-05
2.29138e-07
1.24436e-05
2.44488e-07
1.23739e-05
2.62066e-07
1.22992e-05
2.82317e-07
1.22189e-05
3.05797e-07
1.21322e-05
3.33208e-07
1.2038e-05
3.65441e-07
1.19354e-05
4.03636e-07
1.1823e-05
4.49257e-07
1.16996e-05
5.0419e-07
1.15636e-05
5.7086e-07
1.14139e-05
6.52357e-07
1.12495e-05
7.52534e-07
1.10706e-05
8.75998e-07
1.08794e-05
1.02778e-06
1.06822e-05
1.21227e-06
1.04916e-05
1.43071e-06
1.03293e-05
1.67609e-06
1.02244e-05
1.92331e-06
2.11456e-06
1.01875e-05
1.5253e-05
2.76441e-09
1.52514e-05
7.54371e-09
1.52481e-05
1.5311e-08
1.52422e-05
2.68042e-08
1.52332e-05
4.17627e-08
1.52203e-05
5.87526e-08
1.52037e-05
7.56208e-08
1.51837e-05
9.02629e-08
1.51612e-05
1.0128e-07
1.51371e-05
1.08255e-07
1.5112e-05
1.11627e-07
1.50867e-05
1.12348e-07
1.50615e-05
1.1149e-07
1.50366e-05
1.0997e-07
1.50121e-05
1.08425e-07
1.49878e-05
1.07208e-07
1.49636e-05
1.06444e-07
1.49396e-05
1.06125e-07
1.49156e-05
1.06173e-07
1.48915e-05
1.06494e-07
1.48673e-05
1.07009e-07
1.4843e-05
1.07656e-07
1.48185e-05
1.08398e-07
1.47938e-05
1.09215e-07
1.4769e-05
1.10101e-07
1.47439e-05
1.11058e-07
1.47186e-05
1.1209e-07
1.4693e-05
1.13206e-07
1.46672e-05
1.14413e-07
1.46411e-05
1.1572e-07
1.46146e-05
1.17133e-07
1.45879e-05
1.18659e-07
1.45607e-05
1.20304e-07
1.45331e-05
1.22072e-07
1.45052e-05
1.23969e-07
1.44767e-05
1.25999e-07
1.44478e-05
1.28167e-07
1.44184e-05
1.30479e-07
1.43884e-05
1.32942e-07
1.43578e-05
1.35564e-07
1.43266e-05
1.38354e-07
1.42948e-05
1.41322e-07
1.42622e-05
1.44482e-07
1.42289e-05
1.4785e-07
1.41948e-05
1.51445e-07
1.41599e-05
1.55287e-07
1.41241e-05
1.59403e-07
1.40873e-05
1.63821e-07
1.40495e-05
1.68577e-07
1.40105e-05
1.7371e-07
1.39704e-05
1.79267e-07
1.3929e-05
1.853e-07
1.38861e-05
1.91872e-07
1.38418e-05
1.99055e-07
1.37957e-05
2.06934e-07
1.37479e-05
2.15606e-07
1.3698e-05
2.25189e-07
1.3646e-05
2.35818e-07
1.35915e-05
2.47655e-07
1.35344e-05
2.60892e-07
1.34743e-05
2.75758e-07
1.34109e-05
2.92531e-07
1.33438e-05
3.11543e-07
1.32727e-05
3.332e-07
1.3197e-05
3.57997e-07
1.31163e-05
3.86543e-07
1.30299e-05
4.19586e-07
1.29373e-05
4.58051e-07
1.28378e-05
5.03087e-07
1.2731e-05
5.56113e-07
1.26163e-05
6.18873e-07
1.24937e-05
6.93489e-07
1.23636e-05
7.82477e-07
1.22274e-05
8.88691e-07
1.20883e-05
1.0151e-06
1.19519e-05
1.16423e-06
1.18271e-05
1.33697e-06
1.17274e-05
1.53047e-06
1.16688e-05
1.73465e-06
1.16645e-05
1.92763e-06
2.07219e-06
1.17069e-05
1.63215e-05
3.37884e-09
1.63198e-05
9.22927e-09
1.63164e-05
1.87094e-08
1.63104e-05
3.27541e-08
1.63011e-05
5.10753e-08
1.62879e-05
7.19521e-08
1.62708e-05
9.27678e-08
1.62501e-05
1.1094e-07
1.62266e-05
1.24727e-07
1.62013e-05
1.33573e-07
1.6175e-05
1.37982e-07
1.61482e-05
1.39086e-07
1.61215e-05
1.38188e-07
1.60951e-05
1.36415e-07
1.6069e-05
1.34559e-07
1.60431e-05
1.33065e-07
1.60174e-05
1.32106e-07
1.59919e-05
1.3168e-07
1.59663e-05
1.31703e-07
1.59408e-05
1.32067e-07
1.59151e-05
1.32673e-07
1.58893e-05
1.3345e-07
1.58634e-05
1.34351e-07
1.58372e-05
1.35351e-07
1.58109e-05
1.36441e-07
1.57843e-05
1.37622e-07
1.57575e-05
1.389e-07
1.57304e-05
1.40283e-07
1.57031e-05
1.41781e-07
1.56754e-05
1.43402e-07
1.56474e-05
1.45155e-07
1.5619e-05
1.47047e-07
1.55902e-05
1.49084e-07
1.5561e-05
1.51273e-07
1.55313e-05
1.53619e-07
1.55012e-05
1.56128e-07
1.54706e-05
1.58806e-07
1.54394e-05
1.6166e-07
1.54076e-05
1.64698e-07
1.53753e-05
1.67928e-07
1.53423e-05
1.71362e-07
1.53086e-05
1.75014e-07
1.52742e-05
1.78899e-07
1.5239e-05
1.83035e-07
1.5203e-05
1.87446e-07
1.51661e-05
1.92156e-07
1.51283e-05
1.97197e-07
1.50895e-05
2.02602e-07
1.50497e-05
2.08413e-07
1.50087e-05
2.14676e-07
1.49665e-05
2.21446e-07
1.49231e-05
2.28786e-07
1.48782e-05
2.36767e-07
1.48317e-05
2.45474e-07
1.47837e-05
2.55003e-07
1.47338e-05
2.65469e-07
1.4682e-05
2.77001e-07
1.46281e-05
2.89754e-07
1.45718e-05
3.03909e-07
1.4513e-05
3.19677e-07
1.44515e-05
3.37311e-07
1.43869e-05
3.57106e-07
1.4319e-05
3.79418e-07
1.42476e-05
4.04668e-07
1.41722e-05
4.3336e-07
1.40926e-05
4.661e-07
1.40086e-05
5.0361e-07
1.39199e-05
5.46756e-07
1.38264e-05
5.96568e-07
1.37283e-05
6.54259e-07
1.36259e-05
7.21238e-07
1.35203e-05
7.99098e-07
1.34132e-05
8.89554e-07
1.33076e-05
9.94298e-07
1.3208e-05
1.1147e-06
1.3121e-05
1.25127e-06
1.30553e-05
1.40269e-06
1.30212e-05
1.5645e-06
1.30286e-05
1.72726e-06
1.30812e-05
1.87502e-06
1.98563e-06
1.31678e-05
1.74647e-05
4.01293e-09
1.7463e-05
1.095e-08
1.74596e-05
2.21511e-08
1.74535e-05
3.87645e-08
1.74441e-05
6.04947e-08
1.74307e-05
8.53539e-08
1.74132e-05
1.10272e-07
1.7392e-05
1.3218e-07
1.73677e-05
1.4897e-07
1.73414e-05
1.59923e-07
1.73138e-05
1.65573e-07
1.72857e-05
1.67223e-07
1.72575e-05
1.66396e-07
1.72294e-05
1.64433e-07
1.72017e-05
1.6229e-07
1.71742e-05
1.60518e-07
1.7147e-05
1.59346e-07
1.71199e-05
1.58791e-07
1.70928e-05
1.58766e-07
1.70658e-05
1.59151e-07
1.70386e-05
1.59835e-07
1.70113e-05
1.60733e-07
1.69839e-05
1.6179e-07
1.69562e-05
1.62975e-07
1.69284e-05
1.64276e-07
1.69003e-05
1.65692e-07
1.6872e-05
1.67228e-07
1.68434e-05
1.68894e-07
1.68145e-05
1.70699e-07
1.67852e-05
1.72653e-07
1.67556e-05
1.74766e-07
1.67256e-05
1.77044e-07
1.66952e-05
1.79496e-07
1.66644e-05
1.82127e-07
1.6633e-05
1.84945e-07
1.66012e-05
1.87956e-07
1.65688e-05
1.91166e-07
1.65359e-05
1.94583e-07
1.65024e-05
1.98216e-07
1.64683e-05
2.02077e-07
1.64334e-05
2.06177e-07
1.63979e-05
2.10532e-07
1.63617e-05
2.1516e-07
1.63246e-05
2.20082e-07
1.62867e-05
2.25325e-07
1.6248e-05
2.30917e-07
1.62083e-05
2.36892e-07
1.61676e-05
2.43292e-07
1.61258e-05
2.50161e-07
1.6083e-05
2.57552e-07
1.60389e-05
2.65527e-07
1.59935e-05
2.74156e-07
1.59468e-05
2.83518e-07
1.58985e-05
2.93706e-07
1.58487e-05
3.04827e-07
1.57972e-05
3.17003e-07
1.57438e-05
3.30376e-07
1.56884e-05
3.4511e-07
1.5631e-05
3.61393e-07
1.55712e-05
3.79448e-07
1.5509e-05
3.99531e-07
1.54441e-05
4.21939e-07
1.53765e-05
4.47022e-07
1.5306e-05
4.75186e-07
1.52325e-05
5.06903e-07
1.51558e-05
5.42721e-07
1.50762e-05
5.83275e-07
1.49936e-05
6.29291e-07
1.49086e-05
6.81589e-07
1.48218e-05
7.41077e-07
1.47343e-05
8.08733e-07
1.46479e-05
8.85549e-07
1.4565e-05
9.72438e-07
1.44892e-05
1.07007e-06
1.44253e-05
1.17861e-06
1.43793e-05
1.2973e-06
1.43581e-05
1.42388e-06
1.43687e-05
1.55387e-06
1.44161e-05
1.67989e-06
1.44997e-05
1.7914e-06
1.87579e-06
1.46095e-05
1.86881e-05
4.66508e-09
1.86863e-05
1.26928e-08
1.86829e-05
2.56003e-08
1.86769e-05
4.47619e-08
1.86675e-05
6.9902e-08
1.8654e-05
9.87976e-08
1.86364e-05
1.27944e-07
1.86147e-05
1.53788e-07
1.85899e-05
1.73832e-07
1.85626e-05
1.87158e-07
1.85339e-05
1.94298e-07
1.85044e-05
1.96697e-07
1.84748e-05
1.96088e-07
1.84452e-05
1.94024e-07
1.84158e-05
1.91635e-07
1.83867e-05
1.89592e-07
1.83579e-05
1.88191e-07
1.83292e-05
1.87481e-07
1.83006e-05
1.8738e-07
1.8272e-05
1.87761e-07
1.82433e-05
1.88503e-07
1.82145e-05
1.89509e-07
1.81856e-05
1.90716e-07
1.81565e-05
1.92085e-07
1.81272e-05
1.93601e-07
1.80976e-05
1.95261e-07
1.80678e-05
1.97068e-07
1.80376e-05
1.99031e-07
1.80072e-05
2.01161e-07
1.79764e-05
2.03467e-07
1.79452e-05
2.05958e-07
1.79136e-05
2.08643e-07
1.78815e-05
2.11529e-07
1.7849e-05
2.14623e-07
1.78161e-05
2.17933e-07
1.77825e-05
2.21464e-07
1.77485e-05
2.25225e-07
1.77138e-05
2.29223e-07
1.76786e-05
2.33469e-07
1.76427e-05
2.37975e-07
1.76061e-05
2.42754e-07
1.75688e-05
2.47824e-07
1.75308e-05
2.53205e-07
1.74919e-05
2.5892e-07
1.74523e-05
2.64997e-07
1.74117e-05
2.7147e-07
1.73702e-05
2.78375e-07
1.73278e-05
2.85757e-07
1.72843e-05
2.93665e-07
1.72397e-05
3.02157e-07
1.71939e-05
3.11299e-07
1.71469e-05
3.21164e-07
1.70986e-05
3.31839e-07
1.70488e-05
3.43421e-07
1.69976e-05
3.56021e-07
1.69449e-05
3.69766e-07
1.68905e-05
3.848e-07
1.68343e-05
4.01287e-07
1.67763e-05
4.19417e-07
1.67163e-05
4.39405e-07
1.66543e-05
4.61495e-07
1.65903e-05
4.85967e-07
1.65242e-05
5.1314e-07
1.6456e-05
5.43371e-07
1.63858e-05
5.77067e-07
1.63139e-05
6.14678e-07
1.62405e-05
6.56701e-07
1.61661e-05
7.03675e-07
1.60915e-05
7.56166e-07
1.60178e-05
8.14748e-07
1.59466e-05
8.7996e-07
1.58799e-05
9.5225e-07
1.58205e-05
1.03188e-06
1.57717e-05
1.11878e-06
1.5738e-05
1.21239e-06
1.57239e-05
1.31136e-06
1.57345e-05
1.41332e-06
1.57738e-05
1.51452e-06
1.5844e-05
1.60975e-06
1.59429e-05
1.69244e-06
1.75559e-06
1.60631e-05
1.99971e-05
5.33343e-09
1.99953e-05
1.44468e-08
1.99919e-05
2.9023e-08
1.9986e-05
5.06763e-08
1.99767e-05
7.91823e-08
1.99634e-05
1.12122e-07
1.99458e-05
1.45591e-07
1.9924e-05
1.75555e-07
1.98987e-05
1.99111e-07
1.98708e-05
2.15104e-07
1.9841e-05
2.2402e-07
1.98103e-05
2.27412e-07
1.97792e-05
2.27205e-07
1.97481e-05
2.25159e-07
1.97171e-05
2.22585e-07
1.96864e-05
2.20288e-07
1.9656e-05
2.18647e-07
1.96257e-05
2.17755e-07
1.95955e-05
2.17546e-07
1.95654e-05
2.17894e-07
1.95352e-05
2.1867e-07
1.9505e-05
2.19767e-07
1.94746e-05
2.21113e-07
1.9444e-05
2.22664e-07
1.94132e-05
2.24398e-07
1.93822e-05
2.26309e-07
1.93508e-05
2.28398e-07
1.93192e-05
2.30673e-07
1.92872e-05
2.33143e-07
1.92549e-05
2.35818e-07
1.92221e-05
2.38705e-07
1.91889e-05
2.41815e-07
1.91553e-05
2.45153e-07
1.91212e-05
2.48728e-07
1.90866e-05
2.52545e-07
1.90514e-05
2.56612e-07
1.90157e-05
2.60937e-07
1.89794e-05
2.65529e-07
1.89425e-05
2.70397e-07
1.89049e-05
2.75555e-07
1.88667e-05
2.81018e-07
1.88277e-05
2.86803e-07
1.8788e-05
2.92933e-07
1.87474e-05
2.99433e-07
1.87061e-05
3.06333e-07
1.86639e-05
3.13667e-07
1.86208e-05
3.21475e-07
1.85768e-05
3.29804e-07
1.85317e-05
3.38705e-07
1.84856e-05
3.48239e-07
1.84385e-05
3.58473e-07
1.83901e-05
3.69483e-07
1.83406e-05
3.81358e-07
1.82899e-05
3.94194e-07
1.82378e-05
4.08101e-07
1.81843e-05
4.23204e-07
1.81295e-05
4.39643e-07
1.80732e-05
4.57574e-07
1.80154e-05
4.77171e-07
1.79562e-05
4.98633e-07
1.78955e-05
5.22176e-07
1.78335e-05
5.48041e-07
1.77701e-05
5.76496e-07
1.77057e-05
6.07829e-07
1.76404e-05
6.4235e-07
1.75747e-05
6.8039e-07
1.75091e-05
7.22285e-07
1.74444e-05
7.68372e-07
1.73816e-05
8.18963e-07
1.7322e-05
8.74321e-07
1.72673e-05
9.3462e-07
1.72197e-05
9.99887e-07
1.71816e-05
1.06994e-06
1.71562e-05
1.14428e-06
1.71465e-05
1.222e-06
1.71563e-05
1.30166e-06
1.71884e-05
1.38117e-06
1.72452e-05
1.45774e-06
1.73271e-05
1.52787e-06
1.74318e-05
1.58766e-06
1.63326e-06
1.75542e-05
2.13978e-05
6.01819e-09
2.13961e-05
1.62031e-08
2.13927e-05
3.23931e-08
2.13869e-05
5.64488e-08
2.13779e-05
8.82339e-08
2.13648e-05
1.25182e-07
2.13474e-05
1.63028e-07
2.13257e-05
1.97277e-07
2.13002e-05
2.24602e-07
2.12717e-05
2.43571e-07
2.12411e-05
2.54579e-07
2.12093e-05
2.59244e-07
2.11769e-05
2.59655e-07
2.11443e-05
2.57773e-07
2.11117e-05
2.55097e-07
2.10795e-05
2.52577e-07
2.10474e-05
2.50692e-07
2.10156e-05
2.49595e-07
2.09839e-05
2.49247e-07
2.09522e-05
2.4953e-07
2.09206e-05
2.50312e-07
2.08889e-05
2.5148e-07
2.0857e-05
2.52953e-07
2.0825e-05
2.5468e-07
2.07928e-05
2.56632e-07
2.07603e-05
2.58799e-07
2.07275e-05
2.6118e-07
2.06944e-05
2.63779e-07
2.06609e-05
2.66603e-07
2.06271e-05
2.69662e-07
2.05928e-05
2.72962e-07
2.05582e-05
2.76511e-07
2.0523e-05
2.80316e-07
2.04873e-05
2.84384e-07
2.04512e-05
2.8872e-07
2.04144e-05
2.93332e-07
2.03772e-05
2.98228e-07
2.03393e-05
3.03416e-07
2.03008e-05
3.08907e-07
2.02616e-05
3.14713e-07
2.02218e-05
3.20852e-07
2.01812e-05
3.2734e-07
2.014e-05
3.34201e-07
2.00979e-05
3.4146e-07
2.00551e-05
3.49149e-07
2.00115e-05
3.57302e-07
1.9967e-05
3.65962e-07
1.99216e-05
3.75173e-07
1.98753e-05
3.84989e-07
1.98281e-05
3.9547e-07
1.97799e-05
4.06682e-07
1.97307e-05
4.18701e-07
1.96804e-05
4.31611e-07
1.96291e-05
4.45504e-07
1.95767e-05
4.60484e-07
1.95233e-05
4.76667e-07
1.94687e-05
4.94179e-07
1.94131e-05
5.13159e-07
1.93566e-05
5.33758e-07
1.92991e-05
5.56143e-07
1.92407e-05
5.8049e-07
1.91818e-05
6.06989e-07
1.91224e-05
6.35839e-07
1.9063e-05
6.67246e-07
1.9004e-05
7.01414e-07
1.89458e-05
7.38544e-07
1.88893e-05
7.78816e-07
1.88353e-05
8.22377e-07
1.87849e-05
8.69323e-07
1.87396e-05
9.1967e-07
1.87009e-05
9.73324e-07
1.86707e-05
1.03004e-06
1.86512e-05
1.08939e-06
1.86448e-05
1.1507e-06
1.86538e-05
1.21299e-06
1.86805e-05
1.27499e-06
1.87266e-05
1.33503e-06
1.87932e-05
1.39117e-06
1.88799e-05
1.44117e-06
1.89848e-05
1.48276e-06
1.51386e-06
1.91042e-05
2.28967e-05
6.719e-09
2.28949e-05
1.79578e-08
2.28916e-05
3.56934e-08
2.2886e-05
6.20406e-08
2.28773e-05
9.69841e-08
2.28646e-05
1.37865e-07
2.28475e-05
1.80106e-07
2.2826e-05
2.18774e-07
2.28005e-05
2.5011e-07
2.27717e-05
2.72367e-07
2.27405e-05
2.85797e-07
2.27077e-05
2.92036e-07
2.26741e-05
2.9331e-07
2.26401e-05
2.91767e-07
2.26061e-05
2.89093e-07
2.25722e-05
2.86398e-07
2.25387e-05
2.84278e-07
2.25053e-05
2.82958e-07
2.24721e-05
2.82442e-07
2.2439e-05
2.82629e-07
2.24059e-05
2.83389e-07
2.23728e-05
2.84606e-07
2.23396e-05
2.86192e-07
2.23062e-05
2.88086e-07
2.22725e-05
2.90255e-07
2.22387e-05
2.92682e-07
2.22045e-05
2.95361e-07
2.217e-05
2.98293e-07
2.21351e-05
3.01483e-07
2.20998e-05
3.04937e-07
2.20641e-05
3.0866e-07
2.2028e-05
3.12659e-07
2.19913e-05
3.1694e-07
2.19542e-05
3.21508e-07
2.19166e-05
3.26367e-07
2.18784e-05
3.31526e-07
2.18396e-05
3.36989e-07
2.18003e-05
3.42767e-07
2.17603e-05
3.48868e-07
2.17197e-05
3.55307e-07
2.16785e-05
3.62097e-07
2.16365e-05
3.69258e-07
2.15939e-05
3.76812e-07
2.15506e-05
3.84784e-07
2.15065e-05
3.93206e-07
2.14617e-05
4.02111e-07
2.14162e-05
4.1154e-07
2.13698e-05
4.21538e-07
2.13226e-05
4.32155e-07
2.12746e-05
4.43449e-07
2.12258e-05
4.55481e-07
2.11762e-05
4.68323e-07
2.11258e-05
4.82049e-07
2.10745e-05
4.96746e-07
2.10225e-05
5.12503e-07
2.09698e-05
5.2942e-07
2.09163e-05
5.47603e-07
2.08623e-05
5.67166e-07
2.08079e-05
5.88229e-07
2.07531e-05
6.10917e-07
2.06982e-05
6.3536e-07
2.06435e-05
6.61685e-07
2.05893e-05
6.9002e-07
2.05361e-05
7.20482e-07
2.04843e-05
7.53175e-07
2.04347e-05
7.88178e-07
2.0388e-05
8.25534e-07
2.03451e-05
8.65239e-07
2.03072e-05
9.07226e-07
2.02756e-05
9.51342e-07
2.02516e-05
9.97333e-07
2.02368e-05
1.04482e-06
2.02329e-05
1.09327e-06
2.02416e-05
1.142e-06
2.02644e-05
1.19014e-06
2.03028e-05
1.23665e-06
2.03575e-05
1.28032e-06
2.04288e-05
1.31983e-06
2.05162e-05
1.35383e-06
2.06179e-05
1.381e-06
1.40025e-06
2.07315e-05
2.45005e-05
7.43757e-09
2.44988e-05
1.97129e-08
2.44955e-05
3.89225e-08
2.44901e-05
6.74376e-08
2.44817e-05
1.05398e-07
2.44695e-05
1.50103e-07
2.44529e-05
1.9672e-07
2.44317e-05
2.39908e-07
2.44064e-05
2.75469e-07
2.43774e-05
3.0131e-07
2.43457e-05
3.17488e-07
2.43122e-05
3.25614e-07
2.42775e-05
3.28012e-07
2.42422e-05
3.27001e-07
2.42069e-05
3.24455e-07
2.41716e-05
3.21653e-07
2.41366e-05
3.19321e-07
2.41017e-05
3.17774e-07
2.40671e-05
3.17069e-07
2.40326e-05
3.17133e-07
2.39982e-05
3.17845e-07
2.39637e-05
3.1909e-07
2.39291e-05
3.20772e-07
2.38944e-05
3.22825e-07
2.38594e-05
3.25206e-07
2.38242e-05
3.27893e-07
2.37887e-05
3.30874e-07
2.37528e-05
3.34144e-07
2.37166e-05
3.37706e-07
2.368e-05
3.41562e-07
2.36429e-05
3.45714e-07
2.36054e-05
3.50168e-07
2.35674e-05
3.54925e-07
2.3529e-05
3.59991e-07
2.349e-05
3.65369e-07
2.34504e-05
3.71063e-07
2.34103e-05
3.7708e-07
2.33697e-05
3.83427e-07
2.33284e-05
3.90112e-07
2.32866e-05
3.97149e-07
2.32441e-05
4.04551e-07
2.32011e-05
4.12334e-07
2.31573e-05
4.20522e-07
2.3113e-05
4.29136e-07
2.3068e-05
4.38208e-07
2.30223e-05
4.47767e-07
2.2976e-05
4.57852e-07
2.29291e-05
4.68505e-07
2.28814e-05
4.7977e-07
2.28332e-05
4.91699e-07
2.27843e-05
5.04348e-07
2.27349e-05
5.17777e-07
2.26849e-05
5.32052e-07
2.26344e-05
5.47243e-07
2.25834e-05
5.63423e-07
2.25322e-05
5.8067e-07
2.24807e-05
5.99066e-07
2.24292e-05
6.18694e-07
2.23778e-05
6.39635e-07
2.23267e-05
6.61971e-07
2.22763e-05
6.85778e-07
2.22269e-05
7.11125e-07
2.21788e-05
7.38068e-07
2.21327e-05
7.66644e-07
2.2089e-05
7.96867e-07
2.20484e-05
8.28718e-07
2.20118e-05
8.62137e-07
2.19801e-05
8.97014e-07
2.19541e-05
9.33177e-07
2.19351e-05
9.70381e-07
2.19241e-05
1.0083e-06
2.19224e-05
1.04651e-06
2.19312e-05
1.08451e-06
2.19515e-05
1.12167e-06
2.19843e-05
1.1573e-06
2.20304e-05
1.19062e-06
2.20899e-05
1.22078e-06
2.21628e-05
1.24694e-06
2.22484e-05
1.26828e-06
2.23453e-05
1.28408e-06
1.29379e-06
2.24517e-05
2.62167e-05
8.17706e-09
2.62149e-05
2.14749e-08
2.62117e-05
4.20918e-08
2.62065e-05
7.26524e-08
2.61985e-05
1.13479e-07
2.61867e-05
1.61883e-07
2.61706e-05
2.12825e-07
2.61499e-05
2.60592e-07
2.61248e-05
3.00554e-07
2.60959e-05
3.3024e-07
2.60639e-05
3.49474e-07
2.60297e-05
3.59791e-07
2.59941e-05
3.6358e-07
2.59578e-05
3.63309e-07
2.59213e-05
3.61036e-07
2.58847e-05
3.58212e-07
2.58483e-05
3.55708e-07
2.58121e-05
3.53943e-07
2.57762e-05
3.5304e-07
2.57403e-05
3.52962e-07
2.57046e-05
3.53607e-07
2.56688e-05
3.5486e-07
2.5633e-05
3.56623e-07
2.5597e-05
3.58823e-07
2.55608e-05
3.61411e-07
2.55243e-05
3.64354e-07
2.54875e-05
3.67635e-07
2.54504e-05
3.71245e-07
2.5413e-05
3.75179e-07
2.53751e-05
3.79436e-07
2.53368e-05
3.84016e-07
2.5298e-05
3.88918e-07
2.52588e-05
3.94145e-07
2.52191e-05
3.99696e-07
2.51789e-05
4.05574e-07
2.51382e-05
4.11782e-07
2.50969e-05
4.18323e-07
2.50552e-05
4.25202e-07
2.50128e-05
4.32429e-07
2.497e-05
4.40011e-07
2.49266e-05
4.47961e-07
2.48826e-05
4.56295e-07
2.48381e-05
4.65031e-07
2.47931e-05
4.7419e-07
2.47475e-05
4.83798e-07
2.47013e-05
4.93882e-07
2.46547e-05
5.04475e-07
2.46076e-05
5.15613e-07
2.45601e-05
5.27334e-07
2.45121e-05
5.3968e-07
2.44637e-05
5.52698e-07
2.44151e-05
5.66435e-07
2.43662e-05
5.80941e-07
2.43171e-05
5.9627e-07
2.42681e-05
6.12473e-07
2.42192e-05
6.29606e-07
2.41705e-05
6.47719e-07
2.41223e-05
6.66862e-07
2.40749e-05
6.87079e-07
2.40285e-05
7.08406e-07
2.39834e-05
7.30872e-07
2.394e-05
7.54487e-07
2.38988e-05
7.79248e-07
2.38603e-05
8.05127e-07
2.38251e-05
8.32069e-07
2.37939e-05
8.59984e-07
2.37673e-05
8.88747e-07
2.37461e-05
9.18184e-07
2.37312e-05
9.48074e-07
2.37234e-05
9.78139e-07
2.37237e-05
1.00805e-06
2.37328e-05
1.03741e-06
2.37515e-05
1.06577e-06
2.37805e-05
1.09265e-06
2.38203e-05
1.11751e-06
2.38712e-05
1.13979e-06
2.3933e-05
1.15895e-06
2.40055e-05
1.17445e-06
2.40879e-05
1.18584e-06
2.41793e-05
1.19272e-06
1.19485e-06
2.42782e-05
2.80531e-05
8.94042e-09
2.80513e-05
2.32554e-08
2.80481e-05
4.52243e-08
2.80431e-05
7.77212e-08
2.80353e-05
1.21272e-07
2.80239e-05
1.73239e-07
2.80083e-05
2.28432e-07
2.79881e-05
2.80798e-07
2.79634e-05
3.25287e-07
2.79346e-05
3.59034e-07
2.79025e-05
3.81591e-07
2.78679e-05
3.9438e-07
2.78316e-05
3.99817e-07
2.77945e-05
4.00498e-07
2.77568e-05
3.98654e-07
2.77191e-05
3.95913e-07
2.76816e-05
3.93298e-07
2.76442e-05
3.91342e-07
2.76069e-05
3.90246e-07
2.75699e-05
3.90019e-07
2.75329e-05
3.90582e-07
2.74959e-05
3.91828e-07
2.74589e-05
3.93659e-07
2.74217e-05
3.95995e-07
2.73844e-05
3.98779e-07
2.73468e-05
4.01972e-07
2.73088e-05
4.05548e-07
2.72706e-05
4.0949e-07
2.7232e-05
4.13789e-07
2.7193e-05
4.18438e-07
2.71536e-05
4.23432e-07
2.71137e-05
4.28768e-07
2.70734e-05
4.34442e-07
2.70327e-05
4.40453e-07
2.69914e-05
4.468e-07
2.69497e-05
4.53482e-07
2.69076e-05
4.60501e-07
2.68649e-05
4.67859e-07
2.68218e-05
4.75561e-07
2.67782e-05
4.83615e-07
2.67341e-05
4.92028e-07
2.66896e-05
5.00814e-07
2.66446e-05
5.09987e-07
2.65993e-05
5.19563e-07
2.65535e-05
5.29564e-07
2.65074e-05
5.4001e-07
2.64609e-05
5.50929e-07
2.64142e-05
5.62346e-07
2.63672e-05
5.74293e-07
2.63201e-05
5.86799e-07
2.62729e-05
5.99898e-07
2.62257e-05
6.13623e-07
2.61786e-05
6.28008e-07
2.61318e-05
6.43084e-07
2.60854e-05
6.58883e-07
2.60396e-05
6.75431e-07
2.59946e-05
6.92753e-07
2.59506e-05
7.10863e-07
2.59079e-05
7.2977e-07
2.58668e-05
7.49472e-07
2.58277e-05
7.69952e-07
2.5791e-05
7.91177e-07
2.57572e-05
8.13098e-07
2.57267e-05
8.35638e-07
2.57e-05
8.58698e-07
2.56779e-05
8.82149e-07
2.56608e-05
9.0583e-07
2.56494e-05
9.29546e-07
2.56444e-05
9.53065e-07
2.56464e-05
9.76123e-07
2.56561e-05
9.98419e-07
2.56739e-05
1.01962e-06
2.57002e-05
1.03938e-06
2.57356e-05
1.05732e-06
2.578e-05
1.07307e-06
2.58336e-05
1.08625e-06
2.5896e-05
1.09652e-06
2.59669e-05
1.10357e-06
2.60456e-05
1.10715e-06
2.61312e-05
1.10707e-06
1.10324e-06
2.62228e-05
3.00181e-05
9.73142e-09
3.00162e-05
2.50668e-08
3.00131e-05
4.83491e-08
3.00082e-05
8.26933e-08
3.00006e-05
1.28841e-07
2.99896e-05
1.84243e-07
2.99744e-05
2.43594e-07
2.99547e-05
3.00545e-07
2.99303e-05
3.49635e-07
2.99018e-05
3.87603e-07
2.98696e-05
4.13702e-07
2.98348e-05
4.29205e-07
2.97981e-05
4.36526e-07
2.97602e-05
4.38364e-07
2.97218e-05
4.37112e-07
2.96831e-05
4.34573e-07
2.96445e-05
4.31924e-07
2.9606e-05
4.29821e-07
2.95677e-05
4.28552e-07
2.95296e-05
4.28181e-07
2.94915e-05
4.28657e-07
2.94534e-05
4.29887e-07
2.94153e-05
4.31774e-07
2.93771e-05
4.34235e-07
2.93386e-05
4.37203e-07
2.93e-05
4.40633e-07
2.9261e-05
4.4449e-07
2.92218e-05
4.4875e-07
2.91822e-05
4.53397e-07
2.91422e-05
4.58418e-07
2.91018e-05
4.63802e-07
2.90611e-05
4.69542e-07
2.90199e-05
4.75629e-07
2.89783e-05
4.82059e-07
2.89362e-05
4.88825e-07
2.88938e-05
4.95925e-07
2.88509e-05
5.03356e-07
2.88077e-05
5.11117e-07
2.8764e-05
5.1921e-07
2.872e-05
5.27636e-07
2.86756e-05
5.36403e-07
2.86309e-05
5.45516e-07
2.85859e-05
5.54986e-07
2.85407e-05
5.64823e-07
2.84952e-05
5.75041e-07
2.84495e-05
5.85656e-07
2.84038e-05
5.96684e-07
2.8358e-05
6.08143e-07
2.83122e-05
6.20052e-07
2.82666e-05
6.32428e-07
2.82212e-05
6.45291e-07
2.81762e-05
6.58658e-07
2.81316e-05
6.72544e-07
2.80878e-05
6.8696e-07
2.80447e-05
7.01915e-07
2.80028e-05
7.17412e-07
2.79621e-05
7.33447e-07
2.79229e-05
7.50007e-07
2.78856e-05
7.67068e-07
2.78505e-05
7.84598e-07
2.78179e-05
8.02548e-07
2.77882e-05
8.20852e-07
2.77619e-05
8.39429e-07
2.77393e-05
8.58179e-07
2.77211e-05
8.76977e-07
2.77075e-05
8.9568e-07
2.76992e-05
9.14121e-07
2.76967e-05
9.32109e-07
2.77003e-05
9.49433e-07
2.77106e-05
9.65863e-07
2.77278e-05
9.81154e-07
2.77524e-05
9.95047e-07
2.77845e-05
1.00728e-06
2.78242e-05
1.01759e-06
2.78716e-05
1.02574e-06
2.79263e-05
1.03148e-06
2.79882e-05
1.03462e-06
2.80568e-05
1.03498e-06
2.81315e-05
1.03246e-06
2.82116e-05
1.02696e-06
1.01849e-06
2.82964e-05
3.21207e-05
1.05521e-08
3.21188e-05
2.69212e-08
3.21157e-05
5.14958e-08
3.21108e-05
8.76228e-08
3.21033e-05
1.36266e-07
3.20926e-05
1.94982e-07
3.20778e-05
2.58394e-07
3.20585e-05
3.19882e-07
3.20345e-05
3.73601e-07
3.20062e-05
4.15891e-07
3.19742e-05
4.45693e-07
3.19393e-05
4.64107e-07
3.19023e-05
4.73516e-07
3.1864e-05
4.76702e-07
3.18249e-05
4.76203e-07
3.17855e-05
4.7399e-07
3.1746e-05
4.71397e-07
3.17066e-05