/*--------------------------------*- C++ -*----------------------------------*\
  =========                 |
  \\      /  F ield         | OpenFOAM: The Open Source CFD Toolbox
   \\    /   O peration     | Website:  https://openfoam.org
    \\  /    A nd           | Version:  7
     \\/     M anipulation  |
\*---------------------------------------------------------------------------*/
FoamFile
{
    version     2.0;
    format      ascii;
    class       volScalarField;
    location    "8.27";
    object      T;
}
// * * * * * * * * * * * * * * * * * * * * * * * * * * * * * * * * * * * * * //

dimensions      [0 0 0 1 0 0 0];

internalField   nonuniform List<scalar> 
12013
(
300.132
300.401
300.676
300.954
301.235
301.515
301.793
302.068
302.339
302.604
302.863
303.114
303.358
303.595
303.823
304.043
304.255
304.459
304.656
304.845
305.027
305.202
305.37
305.532
305.688
305.839
305.984
306.125
306.262
306.394
306.523
306.649
306.772
306.893
307.013
307.132
307.252
307.371
307.493
307.617
307.744
307.877
308.015
308.161
308.317
308.483
308.662
308.857
309.069
309.301
309.557
309.839
310.151
310.497
310.882
311.309
311.785
312.313
312.902
313.556
314.284
315.094
315.993
316.991
318.098
319.327
320.689
322.198
323.871
325.724
327.78
330.06
332.593
335.412
338.559
342.086
346.063
350.586
355.802
361.954
369.506
300.132
300.401
300.676
300.955
301.235
301.516
301.794
302.07
302.34
302.605
302.864
303.116
303.36
303.597
303.825
304.045
304.257
304.462
304.658
304.847
305.029
305.204
305.373
305.535
305.691
305.842
305.987
306.128
306.264
306.397
306.526
306.651
306.775
306.896
307.016
307.135
307.254
307.374
307.495
307.619
307.747
307.879
308.018
308.164
308.319
308.485
308.664
308.858
309.07
309.302
309.558
309.839
310.151
310.497
310.881
311.308
311.782
312.31
312.898
313.551
314.278
315.085
315.982
316.977
318.082
319.307
320.664
322.168
323.834
325.679
327.723
329.989
332.503
335.297
338.41
341.888
345.79
350.194
355.201
360.933
367.505
300.133
300.401
300.677
300.956
301.237
301.517
301.796
302.072
302.343
302.608
302.868
303.12
303.364
303.601
303.829
304.05
304.262
304.467
304.663
304.853
305.035
305.21
305.378
305.541
305.697
305.848
305.993
306.134
306.27
306.403
306.532
306.658
306.781
306.902
307.022
307.141
307.26
307.38
307.501
307.625
307.752
307.884
308.023
308.168
308.323
308.489
308.668
308.862
309.073
309.305
309.559
309.84
310.151
310.496
310.879
311.304
311.777
312.303
312.888
313.539
314.262
315.066
315.958
316.948
318.046
319.263
320.61
322.102
323.752
325.578
327.599
329.834
332.308
335.049
338.09
341.467
345.223
349.407
354.066
359.228
364.855
300.133
300.402
300.678
300.958
301.239
301.52
301.8
302.076
302.347
302.613
302.873
303.125
303.37
303.607
303.836
304.057
304.27
304.475
304.672
304.862
305.044
305.219
305.388
305.55
305.707
305.858
306.003
306.144
306.281
306.413
306.542
306.668
306.791
306.912
307.032
307.151
307.27
307.389
307.51
307.634
307.761
307.893
308.031
308.176
308.331
308.496
308.674
308.867
309.078
309.309
309.562
309.842
310.152
310.495
310.876
311.299
311.769
312.292
312.873
313.519
314.237
315.034
315.919
316.9
317.987
319.19
320.522
321.994
323.62
325.415
327.397
329.584
331.996
334.655
337.587
340.816
344.37
348.269
352.523
357.112
361.967
300.133
300.403
300.68
300.96
301.242
301.524
301.805
302.082
302.354
302.621
302.881
303.134
303.38
303.618
303.847
304.069
304.282
304.487
304.685
304.875
305.057
305.233
305.402
305.565
305.721
305.872
306.018
306.159
306.296
306.428
306.557
306.683
306.806
306.927
307.047
307.166
307.284
307.404
307.524
307.648
307.774
307.906
308.043
308.188
308.342
308.506
308.684
308.876
309.085
309.315
309.567
309.845
310.152
310.493
310.871
311.29
311.757
312.275
312.851
313.49
314.201
314.989
315.863
316.83
317.902
319.086
320.394
321.838
323.429
325.182
327.111
329.23
331.557
334.109
336.9
339.947
343.261
346.844
350.687
354.754
358.981
300.134
300.405
300.682
300.964
301.247
301.53
301.812
302.09
302.363
302.631
302.892
303.146
303.393
303.632
303.862
304.084
304.298
304.504
304.702
304.893
305.076
305.252
305.421
305.584
305.741
305.893
306.039
306.18
306.317
306.449
306.578
306.704
306.827
306.948
307.067
307.186
307.304
307.423
307.544
307.667
307.793
307.924
308.06
308.204
308.357
308.521
308.697
308.888
309.096
309.323
309.573
309.849
310.153
310.491
310.865
311.28
311.741
312.252
312.821
313.452
314.151
314.927
315.786
316.736
317.786
318.945
320.223
321.63
323.176
324.873
326.734
328.769
330.992
333.412
336.039
338.88
341.935
345.198
348.648
352.252
355.957
300.134
300.407
300.686
300.968
301.253
301.538
301.821
302.1
302.375
302.644
302.907
303.163
303.41
303.65
303.882
304.105
304.32
304.527
304.726
304.917
305.101
305.277
305.447
305.611
305.768
305.92
306.066
306.208
306.344
306.477
306.606
306.732
306.855
306.975
307.095
307.213
307.331
307.45
307.57
307.692
307.817
307.947
308.083
308.226
308.378
308.54
308.715
308.904
309.11
309.335
309.582
309.854
310.155
310.488
310.857
311.266
311.72
312.224
312.782
313.402
314.088
314.848
315.688
316.616
317.639
318.766
320.005
321.365
322.856
324.486
326.265
328.201
330.302
332.574
335.021
337.644
340.436
343.387
346.474
349.669
352.932
300.135
300.409
300.69
300.975
301.261
301.548
301.832
302.114
302.391
302.662
302.926
303.183
303.433
303.674
303.907
304.132
304.348
304.556
304.756
304.948
305.133
305.31
305.481
305.645
305.803
305.955
306.102
306.243
306.38
306.513
306.642
306.768
306.89
307.011
307.13
307.248
307.366
307.484
307.603
307.725
307.849
307.978
308.113
308.255
308.405
308.566
308.738
308.925
309.128
309.35
309.594
309.862
310.158
310.486
310.848
311.25
311.695
312.188
312.735
313.34
314.009
314.749
315.566
316.466
317.457
318.545
319.738
321.043
322.468
324.02
325.705
327.529
329.497
331.61
333.869
336.27
338.804
341.46
344.217
347.05
349.931
300.136
300.412
300.695
300.982
301.271
301.56
301.847
302.131
302.41
302.684
302.95
303.21
303.461
303.704
303.939
304.165
304.383
304.593
304.794
304.987
305.173
305.352
305.523
305.688
305.847
305.999
306.147
306.289
306.426
306.559
306.688
306.813
306.936
307.056
307.175
307.293
307.41
307.527
307.646
307.766
307.89
308.018
308.151
308.291
308.44
308.598
308.768
308.952
309.152
309.37
309.61
309.873
310.163
310.484
310.839
311.231
311.665
312.146
312.678
313.266
313.916
314.632
315.421
316.288
317.24
318.283
319.423
320.665
322.016
323.48
325.062
326.765
328.59
330.539
332.607
334.79
337.078
339.458
341.915
344.428
346.974
300.137
300.416
300.702
300.992
301.284
301.576
301.866
302.153
302.435
302.711
302.98
303.242
303.496
303.742
303.979
304.207
304.427
304.639
304.842
305.037
305.224
305.404
305.576
305.742
305.902
306.055
306.203
306.345
306.483
306.616
306.745
306.87
306.993
307.113
307.231
307.348
307.465
307.581
307.699
307.818
307.941
308.067
308.199
308.337
308.483
308.639
308.806
308.987
309.183
309.397
309.631
309.888
310.172
310.484
310.829
311.211
311.632
312.098
312.613
313.181
313.807
314.495
315.252
316.082
316.99
317.981
319.061
320.233
321.502
322.871
324.343
325.92
327.6
329.382
331.263
333.236
335.291
337.419
339.604
341.831
344.083
300.139
300.421
300.71
301.004
301.299
301.595
301.888
302.179
302.465
302.744
303.017
303.282
303.539
303.788
304.028
304.259
304.481
304.695
304.9
305.097
305.286
305.468
305.642
305.809
305.969
306.124
306.272
306.415
306.553
306.686
306.815
306.941
307.063
307.183
307.301
307.417
307.533
307.648
307.765
307.883
308.004
308.129
308.258
308.394
308.538
308.691
308.854
309.031
309.222
309.431
309.659
309.909
310.184
310.487
310.822
311.19
311.597
312.046
312.54
313.085
313.684
314.341
315.062
315.849
316.708
317.643
318.657
319.754
320.936
322.206
323.564
325.011
326.546
328.165
329.864
331.637
333.476
335.372
337.312
339.284
341.275
300.141
300.427
300.72
301.018
301.318
301.618
301.916
302.211
302.501
302.785
303.062
303.331
303.592
303.844
304.088
304.322
304.547
304.764
304.972
305.171
305.362
305.546
305.721
305.89
306.052
306.207
306.357
306.5
306.639
306.772
306.902
307.027
307.149
307.269
307.386
307.502
307.616
307.731
307.846
307.963
308.082
308.204
308.332
308.465
308.605
308.755
308.914
309.086
309.272
309.475
309.696
309.938
310.203
310.496
310.817
311.171
311.561
311.991
312.463
312.981
313.55
314.173
314.853
315.594
316.4
317.274
318.219
319.236
320.328
321.495
322.739
324.057
325.449
326.91
328.437
330.023
331.662
333.346
335.065
336.809
338.567
300.143
300.434
300.733
301.035
301.341
301.646
301.95
302.25
302.545
302.834
303.116
303.39
303.656
303.912
304.16
304.398
304.627
304.847
305.058
305.26
305.454
305.64
305.818
305.989
306.152
306.309
306.459
306.604
306.743
306.877
307.006
307.132
307.254
307.373
307.489
307.604
307.718
307.831
307.945
308.06
308.177
308.297
308.421
308.551
308.688
308.834
308.989
309.155
309.335
309.531
309.744
309.977
310.232
310.512
310.819
311.157
311.528
311.936
312.383
312.873
313.409
313.994
314.631
315.323
316.073
316.883
317.755
318.691
319.691
320.756
321.886
323.078
324.332
325.643
327.007
328.42
329.876
331.367
332.886
334.426
335.978
300.146
300.443
300.747
301.056
301.368
301.68
301.99
302.296
302.598
302.893
303.181
303.461
303.732
303.994
304.247
304.49
304.723
304.947
305.162
305.368
305.565
305.754
305.934
306.107
306.273
306.431
306.583
306.728
306.868
307.003
307.133
307.258
307.38
307.498
307.614
307.728
307.84
307.952
308.064
308.177
308.291
308.409
308.53
308.657
308.79
308.931
309.08
309.241
309.414
309.602
309.806
310.028
310.272
310.538
310.83
311.15
311.501
311.885
312.306
312.765
313.266
313.811
314.403
315.043
315.735
316.479
317.278
318.132
319.041
320.005
321.023
322.095
323.217
324.387
325.6
326.854
328.141
329.458
330.798
332.155
333.522
300.15
300.453
300.765
301.081
301.4
301.72
302.037
302.352
302.661
302.963
303.259
303.545
303.823
304.091
304.35
304.599
304.838
305.067
305.287
305.497
305.698
305.89
306.074
306.249
306.417
306.577
306.731
306.877
307.018
307.154
307.284
307.409
307.531
307.649
307.764
307.876
307.987
308.097
308.207
308.318
308.43
308.544
308.662
308.785
308.913
309.049
309.193
309.347
309.513
309.692
309.886
310.097
310.328
310.58
310.855
311.156
311.485
311.844
312.236
312.663
313.127
313.631
314.176
314.764
315.396
316.075
316.8
317.573
318.393
319.259
320.172
321.128
322.127
323.165
324.239
325.346
326.482
327.641
328.82
330.013
331.215
300.154
300.466
300.786
301.111
301.439
301.767
302.094
302.417
302.735
303.047
303.351
303.646
303.931
304.207
304.473
304.729
304.974
305.209
305.434
305.65
305.855
306.052
306.239
306.418
306.588
306.751
306.906
307.055
307.197
307.333
307.463
307.589
307.71
307.828
307.942
308.053
308.163
308.271
308.379
308.486
308.596
308.707
308.821
308.939
309.063
309.192
309.33
309.477
309.634
309.804
309.988
310.187
310.404
310.64
310.898
311.178
311.484
311.818
312.18
312.574
313
313.462
313.959
314.495
315.069
315.682
316.336
317.03
317.764
318.537
319.349
320.198
321.082
321.999
322.946
323.92
324.917
325.935
326.969
328.016
329.071
300.158
300.48
300.81
301.146
301.484
301.823
302.161
302.495
302.824
303.146
303.459
303.764
304.059
304.344
304.619
304.883
305.136
305.378
305.61
305.831
306.042
306.243
306.435
306.618
306.791
306.957
307.114
307.265
307.408
307.545
307.676
307.802
307.923
308.039
308.152
308.263
308.37
308.477
308.582
308.687
308.793
308.9
309.01
309.124
309.242
309.366
309.496
309.636
309.784
309.944
310.117
310.303
310.506
310.725
310.964
311.224
311.507
311.813
312.146
312.506
312.894
313.314
313.764
314.248
314.764
315.315
315.9
316.519
317.171
317.857
318.575
319.325
320.103
320.909
321.74
322.593
323.467
324.357
325.262
326.178
327.101
300.164
300.497
300.839
301.187
301.538
301.89
302.24
302.587
302.928
303.262
303.588
303.904
304.21
304.506
304.791
305.064
305.326
305.577
305.816
306.045
306.262
306.469
306.666
306.853
307.03
307.199
307.359
307.512
307.657
307.794
307.926
308.052
308.173
308.289
308.401
308.509
308.615
308.719
308.822
308.924
309.026
309.129
309.235
309.343
309.456
309.573
309.697
309.827
309.967
310.116
310.277
310.451
310.638
310.841
311.061
311.3
311.558
311.838
312.14
312.467
312.819
313.196
313.601
314.034
314.496
314.986
315.506
316.054
316.631
317.235
317.867
318.525
319.207
319.912
320.638
321.383
322.145
322.922
323.711
324.51
325.317
300.171
300.517
300.873
301.235
301.601
301.968
302.333
302.694
303.05
303.398
303.738
304.068
304.388
304.696
304.992
305.277
305.55
305.81
306.059
306.295
306.52
306.734
306.936
307.128
307.31
307.483
307.646
307.8
307.947
308.086
308.219
308.345
308.465
308.58
308.691
308.798
308.902
309.003
309.103
309.202
309.3
309.399
309.5
309.603
309.709
309.82
309.936
310.058
310.188
310.327
310.475
310.635
310.808
310.994
311.195
311.412
311.647
311.9
312.173
312.467
312.782
313.12
313.481
313.866
314.276
314.709
315.168
315.65
316.157
316.687
317.24
317.814
318.409
319.023
319.655
320.303
320.966
321.642
322.328
323.023
323.726
300.178
300.541
300.913
301.292
301.675
302.059
302.442
302.82
303.193
303.558
303.915
304.26
304.595
304.918
305.229
305.527
305.811
306.083
306.342
306.588
306.821
307.042
307.251
307.449
307.636
307.813
307.979
308.137
308.285
308.426
308.559
308.685
308.805
308.919
309.029
309.134
309.236
309.335
309.431
309.526
309.621
309.715
309.81
309.908
310.008
310.111
310.219
310.333
310.453
310.581
310.717
310.863
311.021
311.19
311.372
311.568
311.78
312.007
312.252
312.514
312.795
313.095
313.415
313.755
314.116
314.497
314.899
315.321
315.764
316.226
316.707
317.206
317.723
318.256
318.804
319.366
319.94
320.526
321.121
321.724
322.334
300.187
300.568
300.96
301.358
301.761
302.166
302.569
302.968
303.36
303.745
304.121
304.485
304.838
305.178
305.504
305.817
306.116
306.401
306.671
306.928
307.171
307.4
307.617
307.821
308.013
308.195
308.365
308.525
308.676
308.818
308.952
309.078
309.198
309.311
309.419
309.523
309.622
309.718
309.811
309.902
309.992
310.082
310.172
310.263
310.356
310.452
310.552
310.657
310.767
310.884
311.008
311.141
311.283
311.436
311.6
311.776
311.965
312.168
312.385
312.617
312.866
313.13
313.412
313.71
314.026
314.359
314.71
315.077
315.462
315.863
316.28
316.712
317.159
317.62
318.094
318.579
319.075
319.581
320.096
320.617
321.145
300.198
300.601
301.014
301.436
301.862
302.29
302.717
303.14
303.556
303.963
304.361
304.747
305.12
305.48
305.825
306.155
306.469
306.769
307.052
307.321
307.574
307.813
308.038
308.25
308.448
308.634
308.808
308.972
309.125
309.268
309.403
309.53
309.649
309.761
309.868
309.969
310.065
310.158
310.248
310.335
310.42
310.505
310.589
310.674
310.761
310.849
310.941
311.036
311.137
311.243
311.355
311.475
311.602
311.739
311.885
312.042
312.209
312.389
312.58
312.785
313.003
313.235
313.481
313.742
314.017
314.306
314.61
314.929
315.262
315.608
315.968
316.341
316.726
317.123
317.531
317.949
318.377
318.812
319.256
319.706
320.162
300.21
300.638
301.078
301.526
301.98
302.436
302.89
303.34
303.783
304.217
304.64
305.051
305.448
305.83
306.195
306.545
306.877
307.193
307.491
307.773
308.038
308.288
308.522
308.741
308.945
309.137
309.315
309.482
309.637
309.782
309.918
310.044
310.163
310.274
310.379
310.477
310.571
310.66
310.746
310.829
310.909
310.989
311.067
311.146
311.225
311.306
311.39
311.476
311.567
311.662
311.763
311.869
311.983
312.104
312.234
312.372
312.52
312.677
312.845
313.024
313.215
313.417
313.631
313.857
314.095
314.346
314.608
314.883
315.17
315.468
315.778
316.098
316.429
316.77
317.121
317.48
317.847
318.221
318.603
318.99
319.383
300.225
300.682
301.152
301.632
302.117
302.605
303.091
303.572
304.047
304.511
304.964
305.403
305.827
306.233
306.623
306.994
307.346
307.68
307.994
308.291
308.569
308.829
309.072
309.3
309.511
309.708
309.891
310.061
310.219
310.365
310.501
310.627
310.745
310.854
310.957
311.053
311.143
311.229
311.311
311.389
311.464
311.538
311.611
311.683
311.755
311.829
311.904
311.982
312.062
312.147
312.236
312.331
312.431
312.538
312.652
312.773
312.902
313.039
313.186
313.342
313.507
313.682
313.867
314.062
314.268
314.484
314.71
314.946
315.192
315.448
315.714
315.989
316.272
316.564
316.864
317.172
317.487
317.808
318.135
318.467
318.805
300.242
300.733
301.239
301.754
302.276
302.801
303.324
303.842
304.352
304.852
305.338
305.809
306.263
306.698
307.113
307.508
307.882
308.235
308.568
308.879
309.171
309.443
309.696
309.932
310.15
310.353
310.54
310.713
310.873
311.02
311.157
311.282
311.399
311.506
311.606
311.699
311.786
311.868
311.945
312.018
312.088
312.156
312.223
312.288
312.354
312.42
312.487
312.556
312.627
312.702
312.78
312.863
312.951
313.044
313.143
313.249
313.361
313.48
313.607
313.741
313.884
314.035
314.194
314.362
314.539
314.724
314.918
315.121
315.332
315.551
315.778
316.013
316.256
316.506
316.762
317.025
317.295
317.569
317.85
318.134
318.424
300.261
300.793
301.339
301.897
302.462
303.029
303.594
304.155
304.706
305.245
305.769
306.276
306.763
307.23
307.674
308.095
308.492
308.867
309.217
309.545
309.851
310.135
310.399
310.643
310.868
311.076
311.267
311.443
311.604
311.752
311.888
312.013
312.127
312.233
312.33
312.419
312.502
312.579
312.652
312.72
312.784
312.847
312.907
312.966
313.024
313.082
313.142
313.202
313.265
313.33
313.398
313.47
313.546
313.627
313.712
313.803
313.9
314.003
314.112
314.228
314.35
314.48
314.617
314.761
314.912
315.071
315.237
315.41
315.59
315.778
315.972
316.173
316.38
316.593
316.812
317.037
317.267
317.502
317.742
317.986
318.233
300.284
300.862
301.456
302.062
302.676
303.293
303.907
304.516
305.114
305.698
306.264
306.811
307.336
307.836
308.311
308.76
309.183
309.58
309.95
310.295
310.615
310.911
311.184
311.436
311.668
311.88
312.075
312.252
312.415
312.563
312.698
312.821
312.933
313.035
313.129
313.214
313.293
313.365
313.432
313.495
313.554
313.61
313.664
313.716
313.767
313.819
313.87
313.923
313.977
314.033
314.091
314.153
314.218
314.288
314.361
314.439
314.522
314.61
314.703
314.803
314.908
315.019
315.136
315.259
315.388
315.524
315.666
315.814
315.968
316.128
316.294
316.465
316.642
316.825
317.012
317.204
317.4
317.601
317.806
318.014
318.226
300.311
300.942
301.591
302.254
302.925
303.598
304.269
304.932
305.583
306.217
306.831
307.422
307.987
308.525
309.033
309.512
309.961
310.38
310.77
311.132
311.466
311.774
312.056
312.315
312.552
312.768
312.965
313.144
313.306
313.453
313.586
313.706
313.815
313.914
314.003
314.084
314.158
314.225
314.287
314.344
314.397
314.447
314.494
314.54
314.584
314.629
314.673
314.718
314.764
314.811
314.861
314.914
314.969
315.028
315.091
315.157
315.228
315.303
315.383
315.468
315.558
315.652
315.753
315.858
315.969
316.085
316.206
316.332
316.464
316.601
316.743
316.889
317.04
317.196
317.356
317.52
317.688
317.86
318.035
318.214
318.395
300.341
301.035
301.749
302.476
303.213
303.951
304.686
305.411
306.121
306.811
307.478
308.117
308.726
309.302
309.846
310.356
310.832
311.274
311.683
312.06
312.407
312.725
313.016
313.281
313.521
313.74
313.937
314.116
314.277
314.421
314.551
314.668
314.773
314.867
314.951
315.027
315.095
315.157
315.213
315.264
315.311
315.355
315.396
315.436
315.474
315.511
315.549
315.587
315.626
315.666
315.708
315.752
315.799
315.849
315.902
315.959
316.019
316.083
316.151
316.223
316.3
316.381
316.467
316.557
316.652
316.751
316.855
316.964
317.077
317.194
317.315
317.441
317.571
317.704
317.841
317.982
318.126
318.273
318.424
318.577
318.732
300.377
301.143
301.931
302.734
303.545
304.358
305.165
305.96
306.737
307.489
308.212
308.903
309.559
310.177
310.756
311.297
311.799
312.263
312.69
313.082
313.44
313.766
314.063
314.331
314.574
314.792
314.989
315.165
315.323
315.464
315.59
315.702
315.802
315.891
315.969
316.039
316.102
316.158
316.208
316.253
316.294
316.332
316.368
316.401
316.434
316.465
316.496
316.528
316.561
316.594
316.63
316.667
316.707
316.749
316.794
316.842
316.893
316.948
317.007
317.069
317.135
317.205
317.278
317.356
317.438
317.523
317.613
317.707
317.804
317.905
318.009
318.118
318.229
318.344
318.462
318.583
318.707
318.834
318.963
319.095
319.229
300.418
301.268
302.141
303.031
303.929
304.827
305.716
306.589
307.439
308.258
309.043
309.789
310.493
311.153
311.768
312.339
312.865
313.349
313.792
314.195
314.561
314.893
315.192
315.462
315.704
315.92
316.114
316.286
316.439
316.575
316.695
316.801
316.895
316.978
317.051
317.115
317.171
317.221
317.266
317.305
317.341
317.374
317.404
317.432
317.459
317.486
317.512
317.539
317.566
317.595
317.624
317.656
317.69
317.726
317.765
317.807
317.851
317.899
317.949
318.003
318.061
318.121
318.186
318.253
318.324
318.399
318.477
318.558
318.643
318.731
318.822
318.915
319.012
319.112
319.214
319.319
319.427
319.537
319.648
319.762
319.878
300.466
301.413
302.385
303.374
304.371
305.365
306.346
307.306
308.236
309.128
309.978
310.78
311.533
312.234
312.883
313.481
314.029
314.529
314.983
315.394
315.764
316.098
316.397
316.664
316.902
317.114
317.301
317.468
317.614
317.743
317.857
317.956
318.044
318.12
318.186
318.244
318.295
318.34
318.379
318.414
318.445
318.473
318.499
318.524
318.547
318.57
318.592
318.615
318.639
318.664
318.69
318.718
318.747
318.779
318.814
318.85
318.89
318.932
318.977
319.025
319.076
319.13
319.187
319.247
319.31
319.376
319.445
319.516
319.591
319.668
319.748
319.831
319.916
320.003
320.093
320.185
320.278
320.374
320.472
320.571
320.672
300.522
301.581
302.667
303.77
304.879
305.981
307.065
308.12
309.136
310.105
311.021
311.88
312.68
313.419
314.098
314.719
315.283
315.793
316.254
316.667
317.037
317.368
317.662
317.923
318.154
318.358
318.538
318.696
318.835
318.956
319.062
319.155
319.235
319.305
319.366
319.418
319.464
319.504
319.54
319.571
319.599
319.624
319.647
319.669
319.69
319.711
319.732
319.753
319.775
319.798
319.822
319.848
319.876
319.905
319.937
319.971
320.008
320.047
320.088
320.132
320.179
320.228
320.28
320.334
320.391
320.451
320.513
320.578
320.645
320.714
320.785
320.859
320.935
321.012
321.092
321.173
321.256
321.34
321.426
321.513
321.602
300.586
301.774
302.991
304.225
305.461
306.684
307.881
309.038
310.145
311.193
312.175
313.088
313.931
314.702
315.404
316.04
316.613
317.128
317.587
317.997
318.361
318.684
318.969
319.22
319.441
319.635
319.805
319.954
320.084
320.197
320.295
320.381
320.455
320.52
320.576
320.624
320.667
320.704
320.737
320.767
320.793
320.818
320.84
320.862
320.883
320.904
320.925
320.946
320.969
320.992
321.017
321.043
321.07
321.1
321.131
321.165
321.2
321.238
321.278
321.32
321.365
321.411
321.46
321.511
321.564
321.62
321.677
321.737
321.798
321.861
321.926
321.993
322.061
322.131
322.203
322.275
322.349
322.425
322.501
322.578
322.656
300.659
301.997
303.364
304.746
306.125
307.482
308.801
310.067
311.267
312.392
313.436
314.397
315.274
316.069
316.784
317.426
317.999
318.508
318.959
319.358
319.71
320.021
320.293
320.531
320.739
320.922
321.081
321.22
321.34
321.446
321.537
321.617
321.687
321.748
321.801
321.848
321.89
321.927
321.96
321.99
322.018
322.044
322.069
322.093
322.117
322.14
322.164
322.188
322.213
322.239
322.267
322.295
322.325
322.357
322.39
322.425
322.461
322.5
322.54
322.582
322.626
322.672
322.719
322.769
322.82
322.872
322.927
322.983
323.04
323.099
323.159
323.221
323.283
323.347
323.412
323.478
323.545
323.613
323.681
323.75
323.82
300.744
302.252
303.79
305.34
306.878
308.381
309.83
311.208
312.499
313.695
314.792
315.788
316.687
317.494
318.211
318.845
319.406
319.9
320.335
320.716
321.051
321.343
321.599
321.823
322.018
322.188
322.337
322.467
322.581
322.68
322.768
322.844
322.912
322.972
323.026
323.074
323.117
323.157
323.194
323.228
323.26
323.291
323.321
323.35
323.379
323.408
323.437
323.466
323.496
323.527
323.559
323.592
323.626
323.661
323.698
323.736
323.775
323.816
323.858
323.901
323.946
323.992
324.04
324.089
324.139
324.19
324.242
324.296
324.351
324.406
324.463
324.52
324.578
324.637
324.697
324.757
324.818
324.88
324.941
325.004
325.066
300.841
302.543
304.277
306.014
307.726
309.387
310.97
312.455
313.831
315.087
316.217
317.229
318.128
318.925
319.627
320.244
320.784
321.257
321.669
322.03
322.344
322.618
322.857
323.066
323.249
323.409
323.549
323.672
323.781
323.878
323.964
324.041
324.11
324.172
324.229
324.282
324.33
324.376
324.419
324.459
324.499
324.537
324.574
324.611
324.647
324.683
324.72
324.756
324.793
324.831
324.869
324.907
324.947
324.987
325.028
325.07
325.113
325.157
325.201
325.247
325.294
325.341
325.389
325.438
325.488
325.539
325.59
325.642
325.694
325.747
325.801
325.854
325.909
325.964
326.019
326.074
326.129
326.185
326.241
326.296
326.352
300.951
302.875
304.827
306.773
308.675
310.499
312.215
313.789
315.215
316.496
317.636
318.645
319.531
320.308
320.986
321.576
322.089
322.535
322.922
323.259
323.552
323.807
324.03
324.226
324.398
324.549
324.684
324.803
324.911
325.007
325.095
325.174
325.248
325.316
325.379
325.439
325.495
325.548
325.6
325.65
325.698
325.745
325.791
325.837
325.882
325.927
325.972
326.016
326.061
326.106
326.151
326.196
326.241
326.286
326.332
326.379
326.425
326.472
326.52
326.568
326.616
326.665
326.713
326.763
326.812
326.862
326.912
326.962
327.012
327.063
327.113
327.164
327.215
327.265
327.316
327.366
327.416
327.466
327.516
327.566
327.616
301.074
303.248
305.446
307.62
309.722
311.684
313.484
315.113
316.568
317.857
318.989
319.978
320.838
321.583
322.228
322.784
323.265
323.681
324.04
324.353
324.625
324.862
325.071
325.255
325.418
325.564
325.695
325.813
325.921
326.02
326.111
326.196
326.276
326.351
326.422
326.49
326.555
326.618
326.679
326.738
326.796
326.852
326.908
326.963
327.017
327.07
327.123
327.175
327.227
327.279
327.33
327.381
327.431
327.481
327.532
327.582
327.632
327.681
327.731
327.781
327.83
327.879
327.929
327.977
328.026
328.075
328.123
328.172
328.219
328.267
328.314
328.362
328.408
328.455
328.501
328.546
328.592
328.637
328.681
328.725
328.769
301.208
303.655
306.122
308.518
310.763
312.824
314.685
316.341
317.8
319.075
320.18
321.134
321.955
322.66
323.265
323.784
324.23
324.615
324.947
325.236
325.489
325.71
325.906
326.081
326.238
326.379
326.508
326.627
326.736
326.838
326.934
327.024
327.11
327.192
327.27
327.346
327.419
327.49
327.559
327.626
327.692
327.757
327.82
327.882
327.943
328.003
328.062
328.121
328.178
328.235
328.291
328.346
328.401
328.454
328.508
328.56
328.613
328.664
328.715
328.766
328.815
328.865
328.914
328.962
329.01
329.057
329.104
329.15
329.195
329.24
329.284
329.328
329.371
329.414
329.456
329.497
329.538
329.578
329.618
329.657
329.695
301.333
304.045
306.736
309.279
311.621
313.736
315.617
317.269
318.707
319.95
321.017
321.931
322.711
323.377
323.945
324.431
324.848
325.208
325.518
325.789
326.027
326.236
326.423
326.591
326.742
326.881
327.008
327.126
327.237
327.34
327.439
327.532
327.621
327.707
327.79
327.87
327.948
328.023
328.097
328.169
328.239
328.308
328.376
328.442
328.507
328.571
328.634
328.695
328.756
328.815
328.874
328.932
328.988
329.044
329.099
329.153
329.207
329.259
329.311
329.362
329.412
329.461
329.509
329.557
329.604
329.65
329.696
329.74
329.784
329.827
329.869
329.911
329.952
329.992
330.031
330.07
330.108
330.145
330.182
330.218
330.253
379.632
387.563
394.246
400.084
405.275
409.927
414.102
417.832
421.132
424.002
426.431
428.395
429.861
430.778
431.08
430.677
429.437
427.166
423.53
417.874
408.549
402.244
397.419
393.472
390.115
387.187
384.586
382.245
380.113
378.156
376.345
374.66
373.081
371.595
370.191
368.858
367.588
366.375
365.211
364.091
363.012
361.968
360.957
359.974
359.018
358.086
357.175
356.283
355.41
354.553
353.71
352.881
352.063
351.258
350.462
349.676
348.899
348.13
347.368
346.614
345.866
345.125
344.391
343.662
342.94
342.223
341.512
340.807
340.108
339.414
338.727
338.046
337.371
336.702
336.039
335.383
334.734
334.091
333.456
332.828
332.208
331.595
330.99
330.394
329.806
329.227
328.657
328.096
327.545
327.003
326.472
325.951
325.441
324.941
324.452
323.975
323.508
323.053
322.61
322.178
321.757
321.348
320.951
320.566
320.192
319.829
319.478
319.138
318.809
318.491
318.184
317.887
317.601
317.324
317.057
316.799
316.551
316.311
316.08
315.857
315.642
315.434
315.233
315.04
314.852
314.671
314.496
314.327
314.162
314.003
313.848
313.697
313.551
313.408
313.269
313.133
313.001
312.871
312.744
312.619
312.497
312.377
312.259
312.142
312.027
311.914
311.802
311.692
311.582
311.474
311.367
311.261
311.155
311.051
310.948
310.845
310.743
310.642
310.542
310.444
310.347
374.899
381.785
387.996
393.588
398.636
403.2
407.319
411.013
414.293
417.154
419.583
421.556
423.041
423.988
424.336
424
422.869
420.785
417.531
412.839
406.664
401.327
396.879
393.112
389.857
386.992
384.434
382.122
380.013
378.073
376.276
374.601
373.03
371.552
370.153
368.825
367.56
366.349
365.188
364.071
362.994
361.952
360.942
359.961
359.007
358.075
357.165
356.275
355.402
354.545
353.703
352.875
352.058
351.253
350.457
349.672
348.895
348.126
347.365
346.61
345.863
345.122
344.388
343.659
342.937
342.22
341.51
340.805
340.105
339.412
338.725
338.044
337.368
336.7
336.037
335.381
334.732
334.089
333.454
332.826
332.206
331.593
330.988
330.392
329.804
329.225
328.655
328.094
327.543
327.002
326.47
325.949
325.439
324.939
324.451
323.973
323.507
323.052
322.608
322.176
321.756
321.347
320.95
320.564
320.191
319.828
319.477
319.137
318.808
318.49
318.183
317.886
317.6
317.323
317.056
316.799
316.55
316.311
316.08
315.857
315.641
315.434
315.233
315.04
314.852
314.671
314.496
314.326
314.162
314.003
313.848
313.697
313.551
313.408
313.269
313.134
313.001
312.871
312.744
312.62
312.497
312.377
312.259
312.142
312.028
311.914
311.802
311.692
311.583
311.474
311.367
311.261
311.156
311.051
310.948
310.845
310.743
310.642
310.543
310.444
310.347
370.821
376.709
382.286
387.471
392.253
396.636
400.631
404.242
407.467
410.298
412.717
414.701
416.216
417.218
417.652
417.447
416.518
414.76
412.07
408.4
403.968
399.667
395.787
392.348
389.294
386.562
384.095
381.85
379.79
377.888
376.121
374.469
372.919
371.456
370.07
368.753
367.497
366.294
365.14
364.028
362.956
361.918
360.912
359.934
358.982
358.053
357.146
356.257
355.386
354.531
353.69
352.862
352.047
351.242
350.448
349.663
348.887
348.118
347.358
346.604
345.857
345.117
344.382
343.654
342.932
342.215
341.505
340.8
340.101
339.408
338.721
338.04