/*--------------------------------*- C++ -*----------------------------------*\
  =========                 |
  \\      /  F ield         | OpenFOAM: The Open Source CFD Toolbox
   \\    /   O peration     | Website:  https://openfoam.org
    \\  /    A nd           | Version:  7
     \\/     M anipulation  |
\*---------------------------------------------------------------------------*/
FoamFile
{
    version     2.0;
    format      ascii;
    class       volScalarField;
    location    "4.7";
    object      p;
}
// * * * * * * * * * * * * * * * * * * * * * * * * * * * * * * * * * * * * * //

dimensions      [0 2 -2 0 0 0 0];

internalField   nonuniform List<scalar> 
2790
(
147.055
146.962
147.23
147.801
148.581
149.538
150.671
151.977
153.454
155.095
156.894
158.845
160.939
163.164
165.504
167.94
170.444
172.983
175.515
177.989
180.347
182.525
184.455
186.076
187.336
188.21
188.646
188.701
188.752
188.965
146.852
146.87
147.162
147.73
148.507
149.461
150.589
151.889
153.359
154.991
156.781
158.722
160.805
163.019
165.348
167.774
170.269
172.803
175.333
177.811
180.179
182.374
184.329
185.978
187.262
188.137
188.533
188.588
188.72
189.005
146.654
146.741
147.053
147.61
148.374
149.315
150.428
151.71
153.158
154.766
156.528
158.437
160.485
162.661
164.949
167.331
169.783
172.274
174.766
177.213
179.563
181.756
183.728
185.418
186.769
187.745
188.338
188.693
189.009
189.307
146.429
146.547
146.871
147.42
148.169
149.094
150.187
151.445
152.864
154.439
156.162
158.028
160.026
162.147
164.375
166.693
169.078
171.501
173.928
176.318
178.625
180.797
182.779
184.519
185.973
187.125
187.993
188.664
189.217
189.736
146.168
146.3
146.633
147.174
147.906
148.81
149.878
151.105
152.487
154.018
155.692
157.502
159.437
161.488
163.64
165.875
168.173
170.508
172.85
175.163
177.408
179.543
181.526
183.316
184.887
186.229
187.359
188.322
189.133
189.88
145.867
146.005
146.34
146.872
147.584
148.462
149.498
150.687
152.024
153.504
155.119
156.861
158.722
160.69
162.751
164.889
167.084
169.313
171.55
173.766
175.928
178.006
179.968
181.789
183.452
184.953
186.3
187.505
188.525
189.443
145.525
145.664
145.995
146.514
147.203
148.051
149.05
150.195
151.481
152.901
154.448
156.114
157.889
159.762
161.719
163.744
165.82
167.926
170.039
172.135
174.19
176.181
178.089
179.899
181.605
183.206
184.7
186.079
187.243
188.29
145.14
145.277
145.601
146.104
146.767
147.581
148.538
149.634
150.861
152.214
153.685
155.264
156.943
158.709
160.549
162.448
164.389
166.353
168.321
170.273
172.19
174.058
175.865
177.607
179.285
180.904
182.459
183.931
185.181
186.332
144.714
144.847
145.161
145.644
146.278
147.054
147.965
149.006
150.169
151.448
152.834
154.319
155.891
157.539
159.25
161.008
162.798
164.601
166.401
168.179
169.923
171.621
173.269
174.869
176.431
177.966
179.474
180.945
182.216
183.454
144.247
144.375
144.676
145.136
145.739
146.473
147.334
148.315
149.409
150.607
151.902
153.284
154.741
156.261
157.83
159.434
161.056
162.678
164.284
165.857
167.386
168.86
170.278
171.646
172.979
174.297
175.618
176.956
178.156
179.46
143.742
143.863
144.149
144.584
145.152
145.843
146.65
147.567
148.586
149.698
150.895
152.167
153.5
154.883
156.3
157.736
159.174
160.595
161.981
163.316
164.584
165.774
166.881
167.909
168.873
169.801
170.732
171.73
172.693
174.011
143.2
143.314
143.582
143.991
144.522
145.165
145.915
146.764
147.704
148.726
149.821
150.975
152.178
153.415
154.671
155.927
157.166
158.366
159.508
160.57
161.532
162.374
163.082
163.648
164.074
164.384
164.627
164.935
165.317
166.491
142.623
142.73
142.979
143.359
143.851
144.445
145.135
145.913
146.771
147.698
148.685
149.718
150.785
151.869
152.954
154.021
155.048
156.011
156.887
157.646
158.258
158.693
158.915
158.89
158.587
157.989
157.114
156.122
155.175
155.68
142.013
142.112
142.342
142.691
143.142
143.685
144.313
145.018
145.791
146.62
147.496
148.404
149.329
150.256
151.164
152.034
152.839
153.553
154.144
154.576
154.806
154.783
154.444
153.712
152.489
150.66
148.097
144.796
140.849
138.814
141.374
141.464
141.674
141.992
142.4
142.891
143.455
144.084
144.769
145.499
146.261
147.041
147.823
148.588
149.316
149.983
150.56
151.016
151.313
151.403
151.23
150.719
149.774
148.259
145.98
142.648
137.805
130.79
120.33
108.111
1.25879
1.24063
1.17591
1.08575
0.991039
0.901711
0.820749
0.748292
0.683566
0.625465
0.572761
0.524242
0.478818
0.435566
0.393767
0.352923
0.312796
0.273437
0.235182
0.19859
0.164285
0.13276
0.104239
0.0787422
0.0566391
0.0380713
0.0233298
0.0125333
0.00532704
6.88028e-05
1.21257
1.19141
1.13031
1.04728
0.960222
0.87761
0.802116
0.733994
0.67265
0.617159
0.566453
0.519452
0.475163
0.432731
0.39148
0.350943
0.310912
0.271482
0.233062
0.196304
0.161921
0.130449
0.102139
0.0770686
0.055085
0.0365626
0.021971
0.0115122
0.00497179
0.00160423
1.1625
1.13677
1.07779
1.00145
0.922573
0.847517
0.778376
0.715395
0.658135
0.605846
0.557624
0.512535
0.469696
0.428333
0.387825
0.347742
0.307909
0.26847
0.229922
0.193042
0.158662
0.127367
0.0993249
0.0744046
0.0524587
0.0337534
0.0190497
0.00927754
0.00407233
0.00209004
1.11557
1.08532
1.02777
0.957158
0.885785
0.817751
0.754612
0.696531
0.643205
0.59404
0.548275
0.505102
0.463742
0.423501
0.383814
0.344289
0.304776
0.265452
0.226877
0.189927
0.155554
0.124411
0.0966241
0.0719282
0.0501152
0.0314551
0.016806
0.00712631
0.00230144
0.000811506
1.08513
1.05054
0.994495
0.928093
0.862191
0.798919
0.739736
0.684803
0.633973
0.586771
0.542534
0.500538
0.460079
0.420523
0.381351
0.342206
0.302959
0.263799
0.225306
0.188394
0.154062
0.123015
0.095432
0.0710752
0.0496801
0.031365
0.0168981
0.0074634
0.00280319
0.000480794
1.08257
1.04268
0.987532
0.922429
0.858406
0.796416
0.737915
0.683393
0.632836
0.585808
0.541672
0.499729
0.459296
0.419764
0.380639
0.341588
0.302496
0.26355
0.2253
0.188602
0.15439
0.123353
0.0957247
0.0713611
0.050098
0.0320636
0.0180047
0.00835188
0.00293609
0.000411873
1.11717
1.06985
1.01163
0.942813
0.874836
0.809565
0.748154
0.691204
0.638651
0.589992
0.544527
0.501518
0.460261
0.420133
0.380638
0.341455
0.302487
0.263896
0.226145
0.189944
0.156069
0.125123
0.0973999
0.0729131
0.0516236
0.0335852
0.0190266
0.00858119
0.00232426
3.67917e-05
1.19358
1.13454
1.06453
0.984343
0.906253
0.83287
0.765213
0.703384
0.647079
0.595584
0.547979
0.503369
0.460942
0.419999
0.380001
0.340637
0.301858
0.263808
0.226842
0.191463
0.158211
0.127543
0.0997638
0.0750414
0.0534146
0.0350776
0.0202113
0.00877635
0.00139365
-0.000340506
1.30917
1.22656
1.13451
1.03466
0.941126
0.856991
0.781979
0.714595
0.653866
0.599132
0.549212
0.502994
0.459513
0.417921
0.377566
0.33814
0.299732
0.262538
0.226814
0.192767
0.160524
0.130223
0.102076
0.0766649
0.0546861
0.0362895
0.0210872
0.00865125
0.000345173
-0.00071353
1.44025
1.3223
1.20329
1.0835
0.971932
0.873388
0.788551
0.716036
0.653093
0.597091
0.546282
0.499422
0.455545
0.413728
0.373189
0.333658
0.295491
0.259374
0.225515
0.193462
0.162573
0.132603
0.104104
0.0780873
0.0556139
0.0370156
0.021478
0.00817545
-0.000785437
-0.00106659
1.53893
1.39562
1.24641
1.10388
0.97947
0.873587
0.784186
0.708865
0.644802
0.588738
0.538108
0.491471
0.447994
0.406681
0.366462
0.327034
0.289253
0.254387
0.222774
0.193332
0.164417
0.135125
0.106031
0.0789111
0.0556625
0.03689
0.0212779
0.00748512
-0.00181437
-0.00137127
1.61112
1.42116
1.24462
1.08396
0.950816
0.843365
0.755858
0.683708
0.623407
0.570895
0.522735
0.477674
0.435663
0.395853
0.356587
0.317337
0.279822
0.246573
0.218256
0.192694
0.16659
0.138049
0.107825
0.0788379
0.0543453
0.0355001
0.0203358
0.00664416
-0.00265325
-0.00159729
1.58161
1.32629
1.13648
0.984382
0.865497
0.773588
0.699505
0.638107
0.587632
0.543465
0.500479
0.458056
0.418395
0.381319
0.343823
0.304506
0.266495
0.234856
0.21121
0.19153
0.169595
0.141904
0.109631
0.0775514
0.0510918
0.0323978
0.0185574
0.00577937
-0.0032108
-0.00171771
1.28375
0.981463
0.859339
0.779449
0.708507
0.657487
0.613707
0.571502
0.537168
0.507304
0.472363
0.432564
0.395642
0.363234
0.329131
0.289282
0.249008
0.218341
0.201174
0.190401
0.174598
0.14768
0.111795
0.0746703
0.0451142
0.0269725
0.015878
0.0051309
-0.00336761
-0.00170714
0.547778
0.201823
0.322031
0.461286
0.477523
0.50406
0.511848
0.48873
0.471171
0.464513
0.442667
0.403528
0.368011
0.342711
0.314571
0.272666
0.225964
0.194121
0.186095
0.189432
0.182953
0.156585
0.114673
0.069588
0.0352341
0.0183088
0.0122615
0.00515506
-0.00295558
-0.00154476
140.695
140.776
140.964
141.249
141.614
142.049
142.547
143.099
143.694
144.32
144.965
145.613
146.247
146.847
147.39
147.848
148.192
148.384
148.378
148.117
147.531
146.522
144.958
142.644
139.281
134.375
127.004
115.253
93.0944
33.3084
139.968
140.039
140.205
140.455
140.774
141.152
141.581
142.052
142.554
143.074
143.598
144.111
144.592
145.022
145.375
145.622
145.728
145.652
145.341
144.731
143.738
142.248
140.102
137.069
132.792
126.685
117.715
104.151
84.6257
56.1694
139.198
139.26
139.402
139.616
139.888
140.207
140.565
140.953
141.36
141.771
142.173
142.547
142.875
143.134
143.297
143.332
143.203
142.863
142.257
141.315
139.944
138.025
135.392
131.816
126.971
120.402
111.519
99.6834
85.4462
68.8214
138.388
138.439
138.558
138.735
138.958
139.217
139.503
139.807
140.117
140.419
140.697
140.933
141.108
141.197
141.172
141.001
140.643
140.053
139.171
137.925
136.224
133.95
130.953
127.034
121.947
115.4
107.095
96.7005
84.1537
69.0159
137.538
137.579
137.673
137.813
137.986
138.185
138.399
138.618
138.831
139.023
139.178
139.278
139.302
139.225
139.019
138.649
138.077
137.254
136.122
134.612
132.638
130.093
126.848
122.747
117.61
111.236
103.427
93.9387
82.6039
69.6298
136.651
136.682
136.751
136.853
136.977
137.115
137.256
137.391
137.508
137.591
137.626
137.593
137.47
137.234
136.855
136.3
135.529
134.496
133.147
131.416
129.228
126.489
123.097
118.93
113.86
107.751
100.482
91.9515
82.1519
71.4955
135.73
135.75
135.795
135.859
135.934
136.011
136.08
136.132
136.154
136.132
136.049
135.887
135.625
135.238
134.697
133.971
133.022
131.807
130.274
128.368
126.021
123.16
119.702
115.56
110.647
104.885
98.2182
90.6363
82.1827
73.1932
134.778
134.787
134.808
134.835
134.861
134.878
134.877
134.847
134.777
134.653
134.457
134.173
133.779
133.251
132.563
131.683
130.578
129.207
127.527
125.488
123.035
120.11
116.652
112.603
107.908
102.528
96.4487
89.6908
82.304
74.5605
133.798
133.798
133.794
133.784
133.762
133.721
133.651
133.543
133.385
133.162
132.86
132.461
131.944
131.288
130.466
129.452
128.213
126.716
124.92
122.787
120.273
117.334
113.927
110.015
105.568
100.571
95.0318
88.9834
82.4795
75.7479
132.795
132.784
132.758
132.712
132.644
132.546
132.41
132.227
131.984
131.669
131.267
130.761
130.132
129.36
128.422
127.292
125.942
124.344
122.465
120.273
117.735
114.82
111.499
107.751
103.562
98.9349
93.8862
88.4555
82.6959
76.7922
131.773
131.753
131.703
131.623
131.511
131.359
131.16
130.905
130.583
130.182
129.687
129.084
128.355
127.481
126.441
125.214
123.776
122.101
120.166
117.945
115.413
112.55
109.339
105.768
101.838
97.5578
92.9505
88.0557
82.9213
77.6958
130.737
130.708
130.636
130.524
130.368
130.165
129.908
129.586
129.19
128.709
128.131
127.44
126.621
125.658
124.533
123.227
121.72
119.992
118.024
115.798
113.296
110.505
107.418
104.031
100.35
96.3897
92.1754
87.7434
83.1355
78.471
129.693
129.654
129.563
129.419
129.224
128.973
128.659
128.276
127.812
127.259
126.605
125.836
124.94
123.902
122.707
121.338
119.781
118.019
116.038
113.825
111.37
108.666
105.709
102.503
99.0581
95.39
91.5236
87.4914
83.3292
79.1331
128.646
128.599
128.488
128.315
128.083
127.787
127.423
126.982
126.457
125.839
125.118
124.282
123.319
122.219
120.967
119.551
117.96
116.18
114.203
112.019
109.623
107.012
104.188
101.157
97.9313
94.5271
90.9675
87.2809
83.4977
79.6957
127.601
127.547
127.418
127.219
126.952
126.615
126.204
125.713
125.133
124.457
123.677
122.783
121.766
120.614
119.319
117.87
116.258
114.474
112.513
110.369
108.04
105.526
102.833
99.9678
96.9432
93.7758
90.4863
87.099
83.6394
80.1708
126.567
126.505
126.36
126.136
125.838
125.464
125.012
124.474
123.846
123.12
122.289
121.347
120.284
119.093
117.765
116.294
114.674
112.897
110.962
108.865
106.607
104.191
101.624
98.9132
96.0725
93.1168
90.0645
86.9366
83.7544
80.5696
125.549
125.481
125.321
125.075
124.748
124.341
123.851
123.273
122.602
121.833
120.961
119.978
118.879
117.658
116.308
114.826
113.206
111.445
109.542
107.497
105.312
102.992
100.543
97.9761
95.3018
92.5346
89.6906
86.7878
83.844
80.9018
124.554
124.48
124.307
124.041
123.689
123.253
122.73
122.117
121.41
120.604
119.697
118.682
117.555
116.312
114.949
113.463
111.851
110.112
108.246
106.255
104.143
101.915
99.578
97.1418
94.6173
92.0174
89.3561
86.6487
83.9104
81.1762
123.59
123.511
123.326
123.042
122.668
122.206
121.655
121.011
120.273
119.438
118.502
117.462
116.315
115.058
113.689
112.205
110.607
108.894
107.068
105.132
103.091
100.949
98.7155
96.3983
94.008
91.556
89.0547
86.5171
83.9561
81.4006
122.663
122.58
122.384
122.085
121.691
121.207
120.632
119.963
119.2
118.34
117.382
116.323
115.162
113.896
112.526
111.051
109.47
107.786
106.002
104.12
102.145
100.085
97.9457
95.736
93.4652
91.1437
88.7822
86.392
83.984
81.5823
121.782
121.695
121.49
121.177
120.767
120.264
119.668
118.979
118.195
117.315
116.34
115.268
114.097
112.829
111.462
109.998
108.439
106.785
105.041
103.211
101.3
99.3142
97.2606
95.147
92.9822
90.7752
88.5356
86.273
83.997
81.7275
120.954
120.863
120.651
120.327
119.902
119.383
118.771
118.064
117.263
116.369
115.381
114.299
113.124
111.857
110.497
109.047
107.509
105.886
104.182
102.401
100.548
98.6305
96.6537
94.6256
92.554
90.4471
88.3132
86.1609
83.9983
81.8423
120.188
120.094
119.875
119.54
119.104
118.572
117.945
117.225
116.411
115.505
114.509
113.422
112.245
110.981
109.63
108.196
106.681
105.087
103.421
101.685
99.8854
98.0283
96.1199
94.167
92.1768
90.1566
88.1139
86.0563
83.9908
81.9316
119.49
119.394
119.169
118.826
118.379
117.836
117.198
116.467
115.644
114.73
113.727
112.638
111.462
110.204
108.864
107.445
105.951
104.386
102.754
101.06
99.3078
97.5047
95.6562
93.7687
91.8487
89.9031
87.9384
85.9614
83.9784
82.0013
118.871
118.772
118.542
118.191
117.736
117.184
116.537
115.797
114.966
114.047
113.041
111.951
110.778
109.526
108.196
106.794
105.32
103.781
102.18
100.522
98.812
97.0557
95.2588
93.4272
91.5671
89.6845
87.7855
85.8762
83.9623
82.0536
118.339
118.238
118.001
117.643
117.181
116.622
115.968
115.222
114.386
113.463
112.456
111.366
110.197
108.952
107.633
106.245
104.79
103.274
101.7
100.073
98.3992
96.6826
94.9292
93.1446
91.3343
89.5042
87.6597
85.8064
83.9496
82.0976
117.905
117.799
117.556
117.19
116.721
116.156
115.496
114.745
113.906
112.98
111.972
110.884
109.719
108.481
107.172
105.796
104.358
102.861
101.31
99.7093
98.0645
96.3805
94.6623
92.9155
91.1453
89.357
87.5558
85.7468
83.9349
82.127
117.579
117.468
117.215
116.842
116.369
115.799
115.135
114.381
113.539
112.612
111.604
110.518
109.357
108.124
106.823
105.458
104.033
102.552
101.019
99.4391
97.8175
96.1589
94.4683
92.751
91.0119
89.2561
87.4885
85.714
83.9373
82.1645
117.377
117.242
116.972
116.594
116.118
115.545
114.879
114.123
113.28
112.353
111.346
110.262
109.104
107.876
106.581
105.224
103.808
102.338
100.818
99.2523
97.6464
96.0049
94.3328
92.635
90.9165
89.182
87.4363
85.684
83.9295
82.1778
117.358
117.159
116.861
116.477
115.998
115.422
114.753
113.995
113.151
112.225
111.218
110.136
108.981
107.756
106.466
105.114
103.705
102.242
100.731
99.1749
97.5794
95.9491
94.2888
92.6034
90.8976
89.1764
87.4441
85.7054
83.9646
82.2259
-50.5698
-30.3459
-11.083
35.8257
28.4424
16.5325
51.3467
39.2879
28.1167
52.7558
42.3454
34.3179
57.0881
48.8103
42.0641
61.471
54.5702
48.6865
64.7384
58.8628
53.819
67.3286
62.308
58.0025
69.5119
65.1827
61.4764
71.3545
67.578
64.3528
72.9035
69.5748
66.7391
74.2083
71.247
68.7294
75.3095
72.6525
70.3968
76.2393
73.8366
71.799
77.0241
74.8359
72.9815
77.6858
75.68
73.9805
78.2426
76.3927
74.8252
78.7098
76.9937
75.539
79.1002
77.4994
76.1415
79.4249
77.9237
76.6489
79.6934
78.278
77.0747
79.9144
78.5729
77.4307
80.0944
78.8162
77.7264
80.2415
79.0173
77.9716
80.3583
79.1793
78.1707
80.4565
79.3148
78.3363
80.5273
79.4156
78.4618
80.5995
79.5105
78.574
80.6332
79.5605
78.6379
80.7021
79.6435
78.7274
-2.51014
-2.37892
-0.918686
0.2055
0.249079
0.328315
0.389844
0.369427
0.374341
0.423861
0.426353
0.374175
0.329721
0.314196
0.299397
0.254696
0.195377
0.158986
0.164978
0.191808
0.199623
0.172332
0.119872
0.0619141
0.0197648
0.00488998
0.00769696
0.00682916
-0.00160444
-0.00121371
2.7893
-0.217108
1.22621
0.78737
-0.465549
-0.29312
0.285376
0.341777
0.341137
0.43827
0.426952
0.321096
0.257577
0.277214
0.304457
0.254336
0.164847
0.109859
0.131012
0.195734
0.225611
0.194881
0.125054
0.0473551
-0.00651174
-0.017154
0.00182228
0.0120925
0.00149878
-0.000721404
13.8734
5.47759
2.6743
0.321948
-0.0724975
1.10952
1.31432
0.185216
-0.235203
0.0873112
0.443394
0.333172
0.230455
0.28547
0.340246
0.249714
0.0920791
-0.00319326
0.050942
0.205196
0.283189
0.240117
0.140442
0.0325865
-0.0400375
-0.0457116
-0.00192255
0.0260122
0.00892589
-0.000128003
23.5846
13.7212
7.87283
4.11288
2.32198
1.68252
0.583641
-0.101395
0.125371
1.28889
1.30023
0.237104
-0.178169
-0.061662
0.273925
0.311066
0.0686699
-0.083353
0.0437957
0.269256
0.377889
0.29238
0.142885
-0.00943111
-0.111505
-0.11076
-0.0225864
0.048121
0.0238841
0.000122718
32.7338
22.9807
15.6698
10.3756
6.72826
4.24789
2.40343
1.37347
1.05053
1.11006
0.64123
0.0789699
-0.0932638
0.483848
1.01932
0.601528
-0.0676857
-0.474853
-0.434122
0.169302
0.514085
0.386916
0.167482
-0.0372563
-0.1729
-0.15743
0.0112204
0.12351
0.0638074
-0.000479414
40.6949
31.775
23.8926
17.4637
12.5383
8.89011
6.21508
4.32863
3.05604
2.17803
1.41994
0.817344
0.501247
0.599574
0.602465
0.353881
-0.173202
-0.53115
-0.158816
0.791297
0.944286
0.443862
0.118009
-0.145987
-0.338865
-0.361488
-0.11701
0.175311
0.128735
-0.00496265
47.1899
39.3883
31.6165
24.7296
19.1056
14.6447
11.1223
8.37112
6.27685
4.70692
3.48249
2.49898
1.79439
1.38391
1.06912
0.703512
0.204996
-0.110958
0.0829884
0.522538
0.666337
0.450411
0.154073
-0.140433
-0.36143
-0.328153
0.128963
0.443424
0.246068
-0.0151295
52.4798
45.7508
38.4958
31.6684
25.7871
20.8425
16.7038
13.2825
10.5108
8.29271
6.49539
5.02717
3.87844
3.02947
2.36678
1.75124
1.1529
0.745847
0.677579
0.810589
0.842885
0.622522
0.282325
-0.0356132
-0.242911
-0.220467
0.0514258
0.26263
0.293941
-0.0624334
56.795
50.9793
44.3965
37.9245
32.1079
26.9972
22.5284
18.6662
15.3804
12.6148
10.2909
8.34516
6.74521
5.4542
4.39234
3.47079
2.6711
2.06824
1.7256
1.56514
1.38522
1.06092
0.664311
0.312222
0.0822188
0.0389126
0.166158
0.286264
0.2387
-0.299343
60.3162
55.2489
49.3468
43.3627
37.8095
32.7649
28.2
24.1105
20.4973
17.341
14.6029
12.2425
10.2265
8.51907
7.06779
5.81882
4.75098
3.88614
3.2426
2.7658
2.33205
1.85737
1.36815
0.93686
0.620968
0.454934
0.413826
0.368583
0.151961
-0.51778
63.2078
58.7482
53.4681
47.9999
42.8036
37.9623
33.4631
29.3174
25.5459
22.1534
19.127
16.4457
14.0867
12.0245
10.2259
8.6566
7.29532
6.14028
5.18781
4.39863
3.69874
3.03072
2.39501
1.82972
1.37171
1.03628
0.793426
0.544373
0.154849
-0.597894
65.6026
61.6385
56.9
51.9206
47.1054
42.5328
38.1958
34.1115
30.3092
26.8071
23.6086
20.7076
18.0935
15.7518
13.6628
11.8048
10.1604
8.71975
7.47117
6.386
5.41801
4.527
3.70283
2.96129
2.32116
1.78484
1.32205
0.858859
0.297988
-0.528891
67.6
64.044
59.7682
55.2285
50.7812
46.4969
42.3692
38.4152
34.6665
31.1474
27.8703
24.8393
22.0532
19.5064
17.1893
15.0894
13.1945
11.494
9.97535
8.61752
7.39027
6.26535
5.22964
4.28553
3.43857
2.68333
1.99255
1.31223
0.575856
-0.336821
69.2752
66.0588
62.1764
58.0228
53.9138
49.9114
46.0081
42.2184
38.5728
35.0973
31.8088
28.7172
25.8276
23.1412
20.6552
18.3639
16.2602
14.3359
12.5805
10.9789
9.51073
8.1561
6.90202
5.74383
4.67899
3.69813
2.77815
1.88041
0.961413
-0.0589807
70.686
67.7546
64.2071
60.3894
56.5837
52.8444
49.1624
45.5488
42.0312
38.6352
35.3792
32.2762
29.3349
26.5609
23.9564
21.5204
19.2499
17.1399
15.1831
13.369
11.6839
10.1135
8.64626
7.27464
5.99197
4.78745
3.6421
2.52843
1.41854
0.263848
71.8774
69.1869
65.9253
62.399
58.8619
55.3623
51.8891
48.4504
45.0701
41.7724
38.5756
35.4935
32.5372
29.7148
27.0314
24.4898
22.0899
19.8298
17.7051
15.7092
13.8327
12.0656
10.3982
8.8222
7.32944
5.90908
4.54556
3.21894
1.91068
0.59558
72.885
70.399
67.3823
64.1086
60.808
57.5236
54.2429
50.9709
47.7282
44.5365
41.4134
38.3727
35.4261
32.5833
29.8513
27.2349
24.7367
22.3571
20.0943
17.9445
15.9018
13.9589
12.108
10.3415
8.65084
7.02594
5.45369
3.91876
2.40737
0.910226
73.7375
71.4256
68.6193
65.5645
62.4714
59.3786
56.2727
53.1558
50.0455
46.9609
43.9183
40.9308
38.0102
35.1666
32.4081
29.741
27.1695
24.6958
22.3203
20.0412
17.855
15.7569
13.7407
11.7995
9.92546
8.10913
6.33907
4.6024
2.88699
1.19315
74.4583
72.2949
69.6695
66.8045
63.8928
60.9696
58.0207
55.046
52.0599
49.0794
46.1189
43.1908
40.3062
37.4752
34.7064
32.0068
29.3818
26.8348
24.3677
21.9805
19.6715
17.4374
15.2737
13.1742
11.132
9.13823
7.18237
5.25257
3.33649
1.43927
75.0666
73.03
70.5602
67.8595
65.1061
62.3323
59.5233
56.6771
53.8056
50.9235
48.0437
45.1771
42.3342
39.5247
36.7571
34.0388
31.3757
28.7723
26.2314
23.7542
21.3404
18.9881
16.6937
14.4521
12.257
10.1001
7.97128
5.85889
3.74954
1.64996
75.5786
73.65
71.3139
68.7553
66.1395
63.4965
60.8112
58.08
55.3127
52.5219
49.7187
46.9131
44.1145
41.3318
38.5734
35.8466
33.1576
30.5113
27.9114
25.3598
22.8572
20.4026
17.9933
15.6252
13.2922
10.9866
8.69844
6.41575
4.12398
1.82949
76.0079
74.1714
71.9498
69.5135
67.0168
64.4876
61.9109
59.2816
56.6077
53.9
51.1683
48.4211
45.6668
42.9137
40.1697
37.4418
34.7362
32.058
29.4112
26.7985
24.2211
21.6787
19.1694
16.6894
14.2333
11.7935
9.36017
6.92093
4.46017
1.9829
76.3659
74.6072
72.4833
70.1517
67.7574
65.3265
62.844
60.3041
57.7129
55.0798
52.4131
49.7202
47.0088
44.2861
41.5594
38.8354
36.1201
33.4186
30.7352
28.0727
25.4328
22.8156
20.2198
17.642
15.0771
12.5177
9.95386
7.37291
4.75846
2.1137
76.6633
74.97
72.9287
70.6861
68.3789
66.0321
63.6306
61.168
58.6489
56.0814
53.4727
50.8293
48.1577
45.4645
42.7563
40.0394
37.3194
34.6015
31.8896
29.1869
26.4953
23.8153
21.1456
18.4835
15.8237
13.1592
10.4798
7.77276
5.0211
2.22573
76.9063
75.2674
73.2951
71.127
68.893
66.6169
64.284
61.887
59.4296
56.9188
54.3607
51.761
49.1252
46.4594
43.7695
41.0613
38.34
35.6105
32.8769
30.1422
27.4084
24.6762
21.9445
19.2105
16.4695
13.7142
10.9346
8.11763
5.24609
2.31862
77.1067
75.512
73.5964
71.4896
69.3157
67.0979
64.8218
62.4794
60.0736
57.6104
55.0952
52.5328
49.9283
47.2869
44.6139
41.9147
39.1943
36.4571
33.7071
30.9474
28.1797
25.405
22.6222
19.8287
17.0196
14.1879
11.3234
8.41292
5.43911
2.39753
77.2614
75.7015
73.8307
71.7725
69.6465
67.4751
65.2442
62.9455
60.5812
58.1564
55.676
53.1443
50.5655
47.9445
45.2862
42.5953
39.8767
37.1345
34.3724
31.5934
28.7994
25.9911
23.1676
20.3263
17.4624
14.5686
11.6348
8.64777
5.59025
2.45546
77.3925
75.8583
74.0216
72.0003
69.9104
67.7741
65.5775
63.312
60.9793
58.5839
56.1302
53.622
51.0633
48.4583
45.8116
43.1276
40.4109
37.6653
34.8946
32.1014
29.2877
26.454
23.5995
20.7216
17.8155
14.8737
11.8862
8.83939
5.71586
2.50501
77.4732
75.9551
74.1407
72.1445
70.079
67.9662
65.7925
63.5492
61.2377
58.862
56.4263
53.9341
51.3889
48.7948
46.156
43.477
40.7617
38.0142
35.2378
32.4353
29.6085
26.7578
23.8826
20.98
18.0452
15.0708
12.0463
8.95793
5.78821
2.52488
77.562
76.045
74.2429
72.2616
70.2098
68.1096
65.9481
63.7166
61.416
59.0505
56.6238
54.1394
51.6006
49.0115
46.376
43.6985
40.983
38.2334
35.4529
32.6443
29.8093
26.9486
24.0613
21.1445
18.1936
15.2008
12.1554
9.04268
5.84267
2.53143
)
;

boundaryField
{
    inlet
    {
        type            zeroGradient;
    }
    outlet
    {
        type            fixedValue;
        value           uniform 0;
    }
    flap
    {
        type            zeroGradient;
    }
    upperWall
    {
        type            zeroGradient;
    }
    lowerWall
    {
        type            zeroGradient;
    }
    frontAndBack
    {
        type            empty;
    }
}


// ************************************************************************* //
