/*--------------------------------*- C++ -*----------------------------------*\
  =========                 |
  \\      /  F ield         | OpenFOAM: The Open Source CFD Toolbox
   \\    /   O peration     | Website:  https://openfoam.org
    \\  /    A nd           | Version:  7
     \\/     M anipulation  |
\*---------------------------------------------------------------------------*/
FoamFile
{
    version     2.0;
    format      ascii;
    class       surfaceScalarField;
    location    "4.7";
    object      phi;
}
// * * * * * * * * * * * * * * * * * * * * * * * * * * * * * * * * * * * * * //

dimensions      [0 3 -1 0 0 0 0];

internalField   nonuniform List<scalar> 
5457
(
0.198418
0.00158237
0.19648
0.00193734
0.194192
0.00228804
0.191509
0.00268353
0.188428
0.00308113
0.184951
0.00347668
0.181072
0.00387847
0.176779
0.0042939
0.17205
0.00472809
0.166865
0.00518508
0.161197
0.00566835
0.155016
0.00618086
0.148291
0.00672478
0.14099
0.00730114
0.133081
0.0079093
0.124535
0.00854624
0.115329
0.00920568
0.105452
0.00987698
0.0949081
0.0105439
0.0837248
0.0111834
0.0719603
0.0117645
0.059712
0.0122483
0.0471233
0.0125887
0.0343831
0.0127403
0.0216879
0.0126952
0.00903763
0.0126503
-0.00291622
0.0119538
-0.00847223
0.00555601
-0.00804308
-0.000429154
-0.00804308
0.199928
0.0016542
0.199176
0.00268976
0.197965
0.00349894
0.196332
0.00431665
0.194272
0.00514111
0.191782
0.00596667
0.188855
0.00680536
0.185478
0.00767066
0.181633
0.00857288
0.177298
0.00952035
0.172446
0.0105203
0.167048
0.011579
0.161071
0.0127014
0.154483
0.0138899
0.147248
0.0151442
0.139335
0.0164591
0.130717
0.0178234
0.121377
0.0192169
0.111312
0.0206085
0.100543
0.0219531
0.0891184
0.0231889
0.0771308
0.0242358
0.0647248
0.0249947
0.0521173
0.0253478
0.0396568
0.0251556
0.0281065
0.0242006
0.0185958
0.0214645
0.00879788
0.0153539
0.00118383
0.00718489
-0.00685924
0.199781
0.00187362
0.199087
0.00338358
0.197946
0.00463984
0.196409
0.00585322
0.194483
0.00706719
0.192164
0.00828565
0.189447
0.00952271
0.186322
0.010796
0.182774
0.0121207
0.178785
0.0135091
0.174333
0.0149723
0.169392
0.0165199
0.163934
0.0181598
0.157927
0.0198969
0.151339
0.0217322
0.144137
0.0236607
0.136292
0.0256687
0.127778
0.0277307
0.118581
0.0298053
0.108704
0.0318308
0.0981718
0.0337206
0.0870495
0.0353581
0.0754528
0.0365914
0.0635756
0.037225
0.0517336
0.0369976
0.0403981
0.035536
0.0297397
0.0321229
0.0191665
0.0259271
0.00959794
0.0167535
0.00273869
0.199703
0.00217055
0.199008
0.00407886
0.197887
0.00576033
0.196376
0.00736409
0.194488
0.00895525
0.192222
0.0105516
0.189575
0.0121703
0.186539
0.0138319
0.183105
0.015555
0.179258
0.0173555
0.174983
0.0192472
0.170261
0.0212424
0.165069
0.0233513
0.159385
0.0255809
0.153184
0.0279338
0.146439
0.0304057
0.139125
0.0329829
0.131217
0.0356378
0.122698
0.0383243
0.113558
0.0409716
0.103801
0.0434775
0.0934582
0.0457006
0.0825969
0.0474527
0.0713341
0.0484879
0.059842
0.0484897
0.0483178
0.0470603
0.0368116
0.0436291
0.0251883
0.0375504
0.0133358
0.028606
0.0160745
0.199667
0.00250312
0.198964
0.00478211
0.197863
0.00686162
0.196381
0.00884573
0.194533
0.010804
0.192318
0.0127662
0.189734
0.0147541
0.186776
0.0167904
0.183434
0.0188966
0.179699
0.0210911
0.175556
0.02339
0.170991
0.0258074
0.165987
0.028355
0.160527
0.031041
0.154592
0.0338692
0.148161
0.0368361
0.141216
0.0399286
0.133734
0.0431192
0.125698
0.046361
0.117088
0.0495809
0.107895
0.0526709
0.0981159
0.0554796
0.0877659
0.0578026
0.0768798
0.059374
0.0655097
0.0598598
0.0537088
0.0588612
0.0414546
0.0558833
0.0285881
0.0504169
0.0148525
0.0423416
0.030927
0.199653
0.00285032
0.198949
0.00548615
0.197871
0.00793953
0.196427
0.0102899
0.194627
0.0126039
0.192473
0.0149196
0.189964
0.0172636
0.187093
0.0196612
0.183854
0.0221358
0.180237
0.0247082
0.17623
0.0273964
0.171822
0.0302159
0.166997
0.0331796
0.161741
0.0362968
0.156039
0.0395719
0.149872
0.0430026
0.143224
0.0465766
0.136075
0.0502684
0.128403
0.0540332
0.120183
0.0578004
0.111389
0.0614652
0.10199
0.0648784
0.0919558
0.0678368
0.0812549
0.0700748
0.069855
0.0712598
0.0577175
0.0709986
0.0447611
0.0688397
0.0308494
0.0643286
0.0158733
0.0573178
0.0468003
0.19965
0.00320025
0.198954
0.00618212
0.197904
0.00898914
0.196505
0.0116896
0.194763
0.0143461
0.192681
0.0170016
0.190257
0.0196872
0.187488
0.0224307
0.184366
0.0252578
0.180883
0.028191
0.177029
0.0312502
0.172792
0.0344524
0.168161
0.0378116
0.163119
0.0413383
0.157653
0.045038
0.151746
0.0489099
0.145378
0.052944
0.138529
0.0571178
0.131171
0.0613913
0.12327
0.0657011
0.114783
0.0699518
0.105655
0.0740062
0.0958176
0.0776747
0.085187
0.0807055
0.0736689
0.0827778
0.061162
0.0835056
0.0475556
0.0824461
0.0327589
0.0791253
0.016783
0.0732937
0.0635833
0.199655
0.0035456
0.198975
0.00686222
0.197959
0.0100049
0.19661
0.0130382
0.194934
0.0160221
0.192934
0.0190021
0.190608
0.0220132
0.187952
0.0250859
0.184963
0.0282477
0.181631
0.0315231
0.177947
0.0349335
0.173902
0.0384976
0.169483
0.042231
0.164675
0.0461455
0.159465
0.0502487
0.153832
0.0545421
0.147757
0.0590191
0.141213
0.0636623
0.134165
0.0684395
0.126568
0.0732978
0.118363
0.0781569
0.10947
0.0828989
0.0997873
0.0873575
0.089188
0.0913047
0.0775258
0.0944401
0.0646479
0.0963834
0.0504178
0.0966762
0.0347684
0.0947748
0.0177899
0.0902721
0.0813732
0.199664
0.00388142
0.199006
0.00752001
0.19803
0.0109811
0.196739
0.0143297
0.195137
0.0176241
0.193227
0.0209118
0.191009
0.024231
0.188481
0.0276144
0.185637
0.0310916
0.182471
0.0346887
0.178976
0.0384288
0.175141
0.0423324
0.170955
0.0464167
0.166405
0.0506958
0.161474
0.0551797
0.156143
0.0598733
0.150387
0.0647752
0.144174
0.0698751
0.137463
0.0751508
0.130196
0.0805642
0.122299
0.0860545
0.113668
0.09153
0.104169
0.0968559
0.0936346
0.101839
0.0818653
0.106209
0.0686499
0.109599
0.0538024
0.111524
0.0372368
0.11134
0.0190835
0.108425
0.100457
0.199677
0.00420419
0.199047
0.00815024
0.198116
0.0119124
0.196887
0.0155579
0.195367
0.019145
0.193556
0.0227224
0.191456
0.0263308
0.189065
0.0300051
0.18638
0.0337767
0.183396
0.0376734
0.180104
0.04172
0.176498
0.0459385
0.172567
0.0503482
0.168297
0.0549658
0.163672
0.0598043
0.158672
0.0648734
0.15327
0.0701777
0.147429
0.0757158
0.141102
0.0814784
0.134221
0.0874448
0.126697
0.0935787
0.118406
0.0998209
0.109184
0.106078
0.0988202
0.112203
0.0870532
0.117976
0.0735905
0.123062
0.058149
0.126965
0.0405523
0.128937
0.0209016
0.128076
0.121358
0.199693
0.00451126
0.199095
0.00874862
0.198213
0.012794
0.197053
0.0167176
0.19562
0.0205783
0.193916
0.0244262
0.191943
0.0283038
0.1897
0.032248
0.187185
0.0362917
0.184395
0.0404642
0.181322
0.044792
0.177962
0.0492989
0.174304
0.0540061
0.170337
0.0589329
0.166045
0.0640962
0.161408
0.0695106
0.156398
0.0751878
0.150977
0.0811367
0.145093
0.0873621
0.138674
0.0938638
0.131619
0.100633
0.12379
0.10765
0.114997
0.114871
0.104983
0.122216
0.0934198
0.12954
0.0798988
0.136583
0.0639686
0.142895
0.0452353
0.14767
0.0236119
0.1497
0.14497
0.199711
0.00480057
0.199148
0.00931163
0.19832
0.0136216
0.197234
0.0178038
0.195894
0.0219185
0.194303
0.0260165
0.192465
0.0301422
0.190379
0.0343341
0.188044
0.0386264
0.185459
0.0430497
0.182619
0.047632
0.179519
0.0523985
0.176153
0.0573726
0.172509
0.0625763
0.168575
0.0680301
0.164332
0.0737536
0.159754
0.0797662
0.154804
0.0860869
0.14943
0.0927358
0.14356
0.0997335
0.137092
0.107102
0.129879
0.114863
0.121716
0.123034
0.112315
0.131618
0.101274
0.140581
0.0880463
0.14981
0.071924
0.159018
0.0520871
0.167507
0.0278861
0.173901
0.172856
0.19973
0.0050705
0.199205
0.0098364
0.198435
0.0143916
0.197427
0.0188125
0.196185
0.0231605
0.194713
0.0274877
0.193016
0.0318396
0.191094
0.0362559
0.188948
0.0407722
0.186578
0.0454201
0.183982
0.0502285
0.181156
0.0552242
0.178096
0.0604325
0.174795
0.0658774
0.171242
0.071583
0.167422
0.0775736
0.163313
0.0838752
0.158883
0.0905169
0.154086
0.0975323
0.148857
0.104962
0.143101
0.112858
0.13668
0.121284
0.129393
0.130321
0.120943
0.140068
0.110884
0.15064
0.0985445
0.16215
0.0829026
0.17466
0.0624369
0.187973
0.0351256
0.201212
0.207982
0.199751
0.00531979
0.199266
0.0103206
0.198557
0.015101
0.19763
0.01974
0.19649
0.0243003
0.195142
0.028835
0.193592
0.0333904
0.19184
0.0380074
0.18989
0.0427222
0.187743
0.0475673
0.185399
0.0525725
0.182858
0.0577655
0.180117
0.0631729
0.177174
0.0688208
0.174021
0.0747356
0.170649
0.0809456
0.167042
0.0874822
0.163177
0.0943823
0.159018
0.101691
0.154516
0.109465
0.149595
0.11778
0.144143
0.126736
0.137993
0.13647
0.130886
0.147175
0.122408
0.159119
0.111862
0.172696
0.0980193
0.188502
0.0785389
0.207453
0.0486653
0.231086
0.256647
0.199772
0.00554749
0.19933
0.0107626
0.198684
0.0157475
0.19784
0.0205836
0.196806
0.0253347
0.195586
0.0300547
0.194186
0.0347905
0.19261
0.0395837
0.190861
0.0444709
0.188943
0.0494853
0.186859
0.0546569
0.18461
0.0600142
0.182199
0.0655844
0.179625
0.0713947
0.176887
0.0774732
0.173982
0.0838505
0.170903
0.0905616
0.167637
0.0976481
0.164165
0.105162
0.160459
0.113171
0.156475
0.121764
0.152146
0.131064
0.147372
0.141244
0.141996
0.152551
0.135753
0.165362
0.128172
0.180276
0.118314
0.19836
0.103926
0.221841
0.0776935
0.257318
0.334341
0.00372245
-0.00372245
0.00730115
-0.0035787
0.0102794
-0.00297829
0.0126553
-0.0023759
0.0145261
-0.00187071
0.0159945
-0.00146845
0.0171497
-0.00115518
0.0180649
-0.000915188
0.0187993
-0.000734463
0.0194005
-0.000601195
0.0199062
-0.000505712
0.0203463
-0.000440027
0.0207434
-0.000397146
0.0211138
-0.000370389
0.0214667
-0.000352921
0.0218044
-0.000337629
0.0221219
-0.000317519
0.0224087
-0.0002868
0.0226512
-0.0002425
0.0228369
-0.000185729
0.0229582
-0.000121315
0.0230139
-5.56591e-05
0.0230085
5.36431e-06
0.022938
7.04838e-05
0.022798
0.000139982
0.0225817
0.000216353
0.0222933
0.000288427
0.0219573
0.000335917
0.021627
0.000330308
0.000220573
0.00340658
-0.00712903
0.0067046
-0.00687672
0.00949746
-0.00577115
0.0117906
-0.00466905
0.0136752
-0.00375527
0.0152411
-0.00303439
0.0165626
-0.00247669
0.0176977
-0.00205031
0.0186917
-0.00172838
0.0195797
-0.00148925
0.0203896
-0.0013156
0.021143
-0.00119339
0.0218566
-0.00111073
0.0225429
-0.00105673
0.0232106
-0.00102063
0.0238644
-0.00099139
0.0245047
-0.000957869
0.0251282
-0.000910296
0.0257285
-0.000842838
0.026299
-0.000756181
0.0268352
-0.000657564
0.0273357
-0.000556143
0.0277962
-0.000455066
0.0282139
-0.000347222
0.0285797
-0.000225823
0.0288794
-8.33324e-05
0.0291001
6.76698e-05
0.0292594
0.000176645
0.0293985
0.000191185
0.000125986
0.00283979
-0.00996882
0.00548437
-0.0095213
0.00767242
-0.0079592
0.00945004
-0.00644668
0.0109085
-0.00521372
0.0121249
-0.00425081
0.0131596
-0.00351141
0.0140559
-0.00294659
0.0148463
-0.00251873
0.015556
-0.00219899
0.0162051
-0.00196469
0.0168093
-0.00179762
0.0173811
-0.00168251
0.01793
-0.00160567
0.0184633
-0.00155387
0.0189855
-0.0015136
0.0194985
-0.00147084
0.0200007
-0.00141251
0.0204877
-0.00132983
0.0209539
-0.00122239
0.0213959
-0.00109963
0.0218154
-0.000975641
0.0222187
-0.000858335
0.0226138
-0.000742347
0.0230031
-0.000615125
0.0233855
-0.000465733
0.0237502
-0.00029704
0.0240675
-0.000140573
0.0243096
-5.09249e-05
-2.38318e-05
0.00221652
-0.0121853
0.00409555
-0.0114003
0.00555705
-0.0094207
0.00670654
-0.00759617
0.00763141
-0.00613859
0.00839109
-0.00501049
0.00903101
-0.00415132
0.00957713
-0.00349272
0.0100486
-0.00299025
0.0104608
-0.00261117
0.010826
-0.00232985
0.0111542
-0.00212579
0.0114535
-0.00198186
0.0117309
-0.00188302
0.0119922
-0.00181522
0.0122428
-0.00176415
0.0124863
-0.00171442
0.0127242
-0.00165039
0.0129541
-0.00155966
0.0131702
-0.00143851
0.0133667
-0.00129617
0.0135425
-0.00115145
0.0137033
-0.0010191
0.0138598
-0.000898804
0.0140203
-0.000775709
0.0141838
-0.000629189
0.0143356
-0.000448815
0.0144474
-0.000252361
0.0144733
-7.68818e-05
-3.301e-05
0.00149424
-0.0136796
0.0025283
-0.0124344
0.00319996
-0.0100924
0.00365852
-0.00805473
0.003985
-0.00646507
0.0042112
-0.00523669
0.00437376
-0.00431389
0.0044812
-0.00360016
0.004543
-0.00305205
0.00456739
-0.00263556
0.00456101
-0.00232348
0.00452944
-0.00209422
0.00447755
-0.00192997
0.00441007
-0.00181554
0.00433214
-0.0017373
0.00424965
-0.00168165
0.00416864
-0.00163341
0.00409379
-0.00157554
0.00402579
-0.00149166
0.00395901
-0.00137173
0.00388062
-0.00121779
0.0037745
-0.00104532
0.00363051
-0.000875117
0.00344935
-0.000717647
0.00324321
-0.000569562
0.00303592
-0.000421908
0.00283393
-0.000246824
0.00262213
-4.05587e-05
0.00243387
0.000111376
7.71376e-05
0.000664062
-0.0143436
0.000786695
-0.012557
0.000628588
-0.00993425
0.000366859
-0.007793
2.85824e-05
-0.00612679
-0.000333536
-0.00487457
-0.000721545
-0.00392588
-0.00112384
-0.00319786
-0.00153298
-0.0026429
-0.00194333
-0.00222521
-0.0023511
-0.00191571
-0.00275336
-0.00169196
-0.00314747
-0.00153586
-0.00353082
-0.00143219
-0.00390021
-0.00136791
-0.00425139
-0.00133047
-0.00457933
-0.00130548
-0.00487964
-0.00127523
-0.00515036
-0.00122094
-0.00539339
-0.00112869
-0.00561498
-0.000996204
-0.0058257
-0.000834603
-0.0060381
-0.000662713
-0.00626012
-0.000495632
-0.00649367
-0.000336007
-0.00674278
-0.0001728
-0.00699481
5.20397e-06
-0.00720067
0.000165305
-0.00733116
0.000241863
0.000200429
-0.000300111
-0.0140435
-0.0011076
-0.0117495
-0.00208822
-0.00895363
-0.0031221
-0.00675912
-0.00414922
-0.00509967
-0.00514
-0.00388379
-0.00607901
-0.00298687
-0.0069572
-0.00231968
-0.00777028
-0.00182983
-0.0085174
-0.00147808
-0.0092009
-0.00123221
-0.00982525
-0.00106761
-0.010396
-0.00096514
-0.0109187
-0.000909473
-0.011398
-0.000888622
-0.0118364
-0.000892055
-0.0122349
-0.000906999
-0.0125942
-0.000915859
-0.0129172
-0.000897952
-0.0132099
-0.00083604
-0.0134813
-0.000724825
-0.0137418
-0.000574014
-0.0140016
-0.000402922
-0.0142668
-0.000230484
-0.0145383
-6.45203e-05
-0.0147968
8.57113e-05
-0.0150128
0.000221185
-0.0151835
0.000335998
-0.0153236
0.000382048
0.000338121
-0.00132892
-0.0127146
-0.00313622
-0.00994224
-0.00496417
-0.00712568
-0.00674752
-0.00497577
-0.008422
-0.00342519
-0.00995041
-0.00235538
-0.0113128
-0.00162449
-0.0125138
-0.00111869
-0.0135675
-0.000776118
-0.0144929
-0.000552716
-0.0153092
-0.000415831
-0.0160339
-0.000342923
-0.0166818
-0.000317264
-0.0172657
-0.000325595
-0.0177958
-0.000358544
-0.0182781
-0.00040973
-0.0187155
-0.000469594
-0.01911
-0.000521352
-0.0194657
-0.000542208
-0.0197911
-0.000510667
-0.0200976
-0.000418384
-0.0203954
-0.00027613
-0.0206928
-0.000105566
-0.0209841
6.08392e-05
-0.0212474
0.000198797
-0.0214744
0.000312665
-0.0216739
0.000420734
-0.0218471
0.000509157
-0.0220006
0.0005356
0.000499641
-0.00252401
-0.0101906
-0.00544085
-0.0070254
-0.00816368
-0.00440284
-0.0106377
-0.00250179
-0.012836
-0.00122688
-0.014775
-0.000416381
-0.0164572
5.7699e-05
-0.0178746
0.000298762
-0.0190469
0.00039613
-0.0200249
0.000425332
-0.0208564
0.000415611
-0.0215774
0.000378167
-0.0222151
0.000320352
-0.0227901
0.000249442
-0.0233187
0.000170042
-0.0238101
8.17027e-05
-0.0242652
-1.44848e-05
-0.0246785
-0.000108041
-0.0250495
-0.000171223
-0.0253883
-0.00017187
-0.0257105
-9.61847e-05
-0.0260266
4.00015e-05
-0.0263286
0.0001964
-0.026603
0.000335201
-0.0268514
0.000447261
-0.0270759
0.00053708
-0.0272719
0.000616797
-0.0274421
0.000679291
-0.0276011
0.000694616
0.000672499
-0.0040834
-0.0061072
-0.00850714
-0.00260165
-0.01248
-0.000430029
-0.0157437
0.000761978
-0.0183133
0.00134268
-0.0203057
0.00157603
-0.021867
0.00161901
-0.0231285
0.0015602
-0.024186
0.00145364
-0.0250882
0.00132757
-0.0258706
0.00119804
-0.0265587
0.00106625
-0.0271703
0.000931915
-0.0277204
0.000799603
-0.0282223
0.000671899
-0.0286836
0.000543014
-0.0291052
0.000407121
-0.0294874
0.000274163
-0.0298333
0.000174689
-0.0301503
0.000145123
-0.0304482
0.000201686
-0.0307352
0.000327006
-0.0310184
0.000479589
-0.0312973
0.000614116
-0.0315564
0.000706359
-0.0317835
0.00076413
-0.0319763
0.00080963
-0.0321439
0.000846919
-0.032306
0.000856654
0.000847962
-0.00633274
0.000225542
-0.0118389
0.00290448
-0.0161492
0.00388031
-0.0194512
0.004064
-0.0220354
0.00392683
-0.0240855
0.00362615
-0.0257298
0.00326332
-0.0270626
0.00289301
-0.0281552
0.00254621
-0.029072
0.00224434
-0.0298631
0.00198917
-0.0305592
0.00176239
-0.031177
0.0015497
-0.0317312
0.00135373
-0.0322376
0.00117831
-0.0327052
0.00101068
-0.0331292
0.000831124
-0.0334981
0.000643053
-0.0338107
0.000487294
-0.0340852
0.000419582
-0.0343504
0.000466869
-0.0346286
0.000605233
-0.0349228
0.00077375
-0.0352171
0.000908425
-0.0354877
0.000976997
-0.0357173
0.000993747
-0.0359058
0.000998151
-0.0360694
0.00101048
-0.0362311
0.00101832
0.00102289
-0.00782649
0.00805203
-0.0141432
0.00922122
-0.0189579
0.00869496
-0.0226299
0.00773607
-0.0254104
0.00670733
-0.027529
0.00574473
-0.0291793
0.00491365
-0.0304925
0.00420612
-0.0315514
0.00360517
-0.0324302
0.00312315
-0.0331926
0.00275156
-0.0338718
0.00244161
-0.0344766
0.00215448
-0.0350173
0.00189437
-0.0355144
0.00167544
-0.0359815
0.00147778
-0.0364085
0.0012581
-0.0367718
0.00100638
-0.0370637
0.000779228
-0.0373097
0.000665521
-0.0375533
0.000710481
-0.0378269
0.00087885
-0.0381332
0.00108005
-0.0384474
0.00122265
-0.0387333
0.00126286
-0.0389655
0.00122594
-0.0391465
0.00117917
-0.039302
0.00116603
-0.0394596
0.0011759
0.00119411
-0.0093795
0.0174315
-0.0170582
0.0168999
-0.0224072
0.014044
-0.0261528
0.0114817
-0.0288699
0.00942448
-0.0308596
0.00773442
-0.0323736
0.00642761
-0.0335733
0.00540582
-0.0345269
0.00455879
-0.0353085
0.00390477
-0.0360033
0.00344632
-0.0366471
0.00308544
-0.0372269
0.00273422
-0.0377394
0.00240689
-0.0382143
0.00215033
-0.0386767
0.00194025
-0.0391096
0.00169095
-0.0394671
0.00136386
-0.0397269
0.00103909
-0.0399255
0.000864093
-0.0401323
0.000917336
-0.0403964
0.00114292
-0.0407189
0.00140254
-0.0410611
0.00156484
-0.0413683
0.00157004
-0.0416027
0.00146037
-0.0417701
0.00134659
-0.0419112
0.00130706
-0.0420609
0.00132568
0.00135913
-0.0124061
0.0298376
-0.021672
0.0261658
-0.0269838
0.0193558
-0.0302088
0.0147066
-0.0325491
0.0117648
-0.0341639
0.00934925
-0.0353552
0.00761886
-0.0363449
0.00639548
-0.03713
0.00534388
-0.0377493
0.00452413
-0.0383341
0.00403111
-0.0389334
0.00368472
-0.0394834
0.00328425
-0.0399493
0.00287273
-0.0403804
0.0025814
-0.0408321
0.00239198
-0.0412795
0.0021384
-0.0416365
0.00172081
-0.041851
0.00125364
-0.0419755
0.000988582
-0.0421248
0.00106663
-0.0423753
0.0013934
-0.0427227
0.00174996
-0.0431062
0.00194837
-0.0434444
0.00190817
-0.0436803
0.00169627
-0.0438236
0.00148997
-0.0439398
0.00142325
-0.0440784
0.00146427
0.00151676
-0.0176719
0.0475095
-0.0288617
0.0373556
-0.0333898
0.0238839
-0.0348418
0.0161586
-0.0364807
0.0134037
-0.0374071
0.0102757
-0.0380197
0.00823144
-0.0387614
0.00713717
-0.0393875
0.00596999
-0.0397649
0.00490155
-0.0401695
0.00443574
-0.0407271
0.0042423
-0.0412612
0.00381834
-0.0416626
0.00327416
-0.0420186
0.00293733
-0.0424578
0.00283125
-0.0429462
0.00262675
-0.0433236
0.00209827
-0.0434783
0.00140833
-0.0434851
0.000995393
-0.0435446
0.00112611
-0.0437777
0.00162649
-0.0441647
0.00213698
-0.0446095
0.00239318
-0.0449927
0.00229137
-0.0452288
0.00193231
-0.0453309
0.00159211
-0.0454055
0.00149781
-0.045531
0.00158979
0.00166922
0.207447
0.00576026
0.207034
0.0111752
0.206432
0.01635
0.205647
0.021368
0.204688
0.026294
0.203561
0.0311822
0.202271
0.03608
0.200825
0.0410294
0.199229
0.0460672
0.197488
0.0512266
0.195607
0.0565378
0.193592
0.0620291
0.191449
0.0677279
0.189182
0.0736616
0.186796
0.0798587
0.184296
0.0863505
0.181685
0.093173
0.178964
0.100369
0.176133
0.107993
0.173191
0.116113
0.170134
0.124821
0.166957
0.134242
0.163655
0.144546
0.16023
0.155977
0.156704
0.168888
0.153172
0.183808
0.149998
0.201534
0.148861
0.222978
0.160556
0.245623
0.258783
0.236114
0.21249
0.00595269
0.212118
0.011548
0.211574
0.0168936
0.210868
0.022074
0.210008
0.0271545
0.209
0.0321897
0.207853
0.0372271
0.206574
0.0423086
0.20517
0.0474709
0.20365
0.0527467
0.202022
0.0581658
0.200295
0.063756
0.198479
0.0695439
0.196584
0.0755562
0.194623
0.0818203
0.192607
0.0883663
0.190552
0.0952283
0.188474
0.102447
0.186396
0.110071
0.184346
0.118163
0.182363
0.126804
0.18051
0.136095
0.178884
0.146171
0.177659
0.157202
0.177155
0.169392
0.178026
0.182937
0.181689
0.197871
0.190747
0.21392
0.206209
0.230162
0.245673
0.219319
0.217658
0.00612263
0.217329
0.011877
0.21685
0.0173723
0.21623
0.0226937
0.215478
0.0279069
0.214601
0.0330663
0.213609
0.0382194
0.21251
0.0434073
0.211315
0.0486663
0.210033
0.0540283
0.208677
0.059522
0.207259
0.0651741
0.205793
0.0710096
0.204296
0.0770533
0.202786
0.0833302
0.201285
0.0898671
0.19982
0.0966938
0.198422
0.103844
0.197134
0.111359
0.196012
0.119285
0.195134
0.127682
0.194613
0.136616
0.19462
0.146165
0.195417
0.156405
0.197415
0.167394
0.201225
0.179127
0.207617
0.191479
0.217251
0.204286
0.229848
0.217565
0.22874
0.24678
0.222951
0.00626809
0.22267
0.0121583
0.222262
0.0177805
0.221735
0.02322
0.2211
0.0285425
0.220364
0.0338019
0.219539
0.039045
0.218633
0.0443123
0.217661
0.049639
0.216633
0.0550556
0.215566
0.0605895
0.214475
0.0662653
0.213378
0.0721058
0.212299
0.0781327
0.211262
0.0843676
0.210296
0.0908323
0.20944
0.09755
0.208739
0.104546
0.20825
0.111847
0.208052
0.119484
0.208246
0.127488
0.208972
0.135889
0.210425
0.144712
0.212866
0.153964
0.216644
0.163616
0.222176
0.173594
0.229913
0.183742
0.240426
0.193773
0.254631
0.20336
0.210249
0.273122
0.228374
0.00638722
0.228144
0.0123884
0.227812
0.0181131
0.227385
0.0236464
0.226874
0.0290533
0.226289
0.0343871
0.225641
0.0396936
0.224941
0.0450122
0.224203
0.0503764
0.223444
0.0558153
0.222679
0.0613542
0.221929
0.0670151
0.221217
0.0728179
0.220569
0.0787806
0.220017
0.0849201
0.219597
0.0912522
0.219355
0.0977922
0.219346
0.104555
0.219639
0.111553
0.220324
0.118799
0.221512
0.1263
0.223348
0.134053
0.226018
0.142043
0.229752
0.15023
0.23483
0.158539
0.24158
0.166844
0.250381
0.17494
0.26168
0.182475
0.275948
0.189092
0.193706
0.292492
0.233929
0.00647833
0.233754
0.0125639
0.233502
0.0183653
0.233181
0.0239667
0.232802
0.0294321
0.232376
0.0348138
0.231913
0.0401561
0.231429
0.0454968
0.230937
0.050868
0.230456
0.0562965
0.230005
0.0618051
0.229607
0.0674131
0.229288
0.0731368
0.229079
0.0789899
0.229015
0.0849839
0.229139
0.0911283
0.229501
0.0974299
0.230163
0.103893
0.231199
0.110517
0.232701
0.117298
0.234779
0.124221
0.237571
0.131261
0.24124
0.138374
0.245977
0.145492
0.252005
0.152511
0.259563
0.159285
0.268896
0.165608
0.28018
0.17119
0.293512
0.17576
0.178803
0.308415
0.23962
0.00653993
0.239502
0.012682
0.239334
0.0185331
0.239125
0.0241759
0.238884
0.0296729
0.238623
0.0350749
0.238354
0.0404248
0.238092
0.0457585
0.237854
0.0511059
0.23766
0.0564915
0.237529
0.0619355
0.237489
0.0674538
0.237566
0.073059
0.237796
0.0787603
0.238216
0.0845639
0.238872
0.0904725
0.239817
0.096485
0.241113
0.102596
0.242837
0.108794
0.245074
0.115061
0.247928
0.121367
0.251519
0.12767
0.255981
0.133911
0.261465
0.140008
0.268127
0.14585
0.276116
0.151296
0.285552
0.156172
0.296481
0.160261
0.308892
0.163349
0.165169
0.322525
0.245448
0.00657075
0.24539
0.0127403
0.24531
0.0186131
0.245216
0.0242695
0.245119
0.0297705
0.245029
0.0351651
0.244959
0.0404941
0.244926
0.0457914
0.244947
0.0510847
0.245043
0.0563959
0.245236
0.0617421
0.245554
0.0671362
0.246026
0.0725868
0.246688
0.0780987
0.247579
0.0836728
0.248745
0.0893059
0.250241
0.0949898
0.252125
0.100711
0.25447
0.10645
0.257354
0.112177
0.260866
0.117855
0.265105
0.123431
0.270175
0.128841
0.276184
0.133999
0.28323
0.138804
0.291395
0.143131
0.300725
0.146841
0.31121
0.149776
0.322782
0.151778
0.152713
0.335238
0.251418
0.00656977
0.251422
0.0127369
0.251432
0.0186024
0.251457
0.0242444
0.251507
0.0297214
0.251591
0.0350804
0.251725
0.0403602
0.251924
0.0455923
0.252207
0.050802
0.252594
0.0560086
0.25311
0.0612262
0.253782
0.0664644
0.254641
0.0717281
0.255721
0.0770181
0.257064
0.0823306
0.258712
0.0876572
0.260718
0.0929843
0.263136
0.0982923
0.266031
0.103555
0.26947
0.108738
0.273527
0.113798
0.278277
0.118681
0.283795
0.123322
0.290153
0.127642
0.297404
0.131552
0.305585
0.134951
0.314696
0.137731
0.324691
0.139781
0.335472
0.140997
0.141319
0.346867
0.257532
0.00653626
0.257599
0.0126702
0.257702
0.0184992
0.257848
0.0240981
0.258047
0.029523
0.258309
0.0348186
0.258647
0.0400213
0.259079
0.0451604
0.259623
0.0502583
0.2603
0.0553319
0.261133
0.0603926
0.262151
0.0654466
0.263384
0.0704957
0.264865
0.075537
0.266632
0.080563
0.268729
0.0855611
0.271199
0.0905138
0.274094
0.0953975
0.277466
0.100183
0.281372
0.104832
0.285868
0.109302
0.291009
0.11354
0.296845
0.117486
0.303415
0.121072
0.310745
0.124223
0.318835
0.12686
0.327659
0.128906
0.337153
0.130288
0.347212
0.130938
0.130837
0.357693
0.263794
0.00646973
0.263925
0.0125396
0.264122
0.0183024
0.26439
0.0238295
0.264739
0.0291744
0.265178
0.0343792
0.265722
0.0394778
0.266385
0.044497
0.267187
0.0494568
0.268147
0.0543715
0.26929
0.0592498
0.270641
0.0640952
0.27223
0.0689067
0.274089
0.0736785
0.276252
0.0784
0.278757
0.0830561
0.281644
0.0876265
0.284956
0.0920858
0.288735
0.0964032
0.293025
0.100542
0.297867
0.10446
0.303297
0.10811
0.309344
0.111439
0.316025
0.114391
0.323342
0.116906
0.331274
0.118927
0.339781
0.1204
0.348791
0.121277
0.358207
0.121523
0.121136
0.367908
0.270207
0.00637001
0.270402
0.0123445
0.270693
0.0180115
0.271084
0.0234385
0.271582
0.0286759
0.272198
0.0337632
0.272944
0.0387319
0.273835
0.043606
0.274888
0.0484035
0.276124
0.0531359
0.277564
0.0578097
0.279233
0.0624262
0.281158
0.0669819
0.283367
0.0714689
0.285893
0.0758748
0.288766
0.0801827
0.292021
0.0843714
0.295692
0.088415
0.299812
0.0922834
0.304411
0.0959424
0.309518
0.0993538
0.315153
0.102476
0.321327
0.105265
0.328042
0.107676
0.335283
0.109665
0.34302
0.111191
0.351202
0.112218
0.359761
0.112719
0.368607
0.112677
0.112103
0.37764
0.276774
0.00623721
0.277033
0.0120854
0.277417
0.0176272
0.277929
0.0229261
0.278576
0.0280293
0.279366
0.0329736
0.28031
0.0377877
0.281422
0.0424935
0.282719
0.0471064
0.284219
0.0516361
0.285942
0.0560868
0.28791
0.060458
0.290148
0.0647446
0.292679
0.0689372
0.295532
0.0730223
0.298732
0.0769825
0.302307
0.0807966
0.306282
0.08444
0.310681
0.0878845
0.315524
0.0910994
0.320826
0.0940513
0.326596
0.0967058
0.332834
0.0990277
0.339527
0.100983
0.346653
0.102539
0.354174
0.10367
0.362039
0.104353
0.370183
0.104575
0.378527
0.104332
0.103642
0.386988
0.283498
0.0060717
0.283821
0.011763
0.284297
0.0171508
0.284929
0.0222943
0.28572
0.0272376
0.28668
0.0320145
0.287816
0.0366512
0.289142
0.0411673
0.290673
0.0455761
0.292423
0.0498854
0.294412
0.0540978
0.296659
0.0582113
0.299184
0.0622198
0.302008
0.0661131
0.305152
0.0698775
0.308639
0.073496
0.312487
0.0769483
0.316715
0.0802117
0.321339
0.0832613
0.326368
0.0860702
0.331809
0.0886107
0.337659
0.0908551
0.34391
0.0927764
0.350543
0.0943497
0.357529
0.0955534
0.364828
0.0963707
0.37239
0.0967905
0.380156
0.0968092
0.388058
0.0964301
0.0956738
0.396027
0.290384
0.00587412
0.290768
0.0113785
0.291335
0.0165843
0.292083
0.0215462
0.293016
0.0263049
0.294139
0.0308915
0.29546
0.0353297
0.29699
0.0396369
0.298742
0.0438246
0.300729
0.0478988
0.302966
0.051861
0.305469
0.0557081
0.308255
0.0594336
0.311341
0.0630271
0.314743
0.0664753
0.318477
0.0697621
0.322556
0.0728691
0.326992
0.0757762
0.331791
0.0784617
0.336958
0.0809034
0.34249
0.083079
0.348378
0.0849669
0.354607
0.0865474
0.361153
0.0878035
0.367985
0.0887214
0.375064
0.0892924
0.382341
0.0895129
0.389765
0.0893852
0.397278
0.0889177
0.0881315
0.40482
0.297435
0.00564534
0.297879
0.0109338
0.298533
0.0159304
0.299394
0.0206855
0.300462
0.0252364
0.301743
0.0296114
0.30324
0.0338319
0.304964
0.0379132
0.306924
0.041865
0.30913
0.0456923
0.311596
0.0493954
0.314333
0.0529709
0.317355
0.0564119
0.320673
0.0597086
0.3243
0.0628484
0.328245
0.065817
0.332516
0.0685979
0.337119
0.071174
0.342053
0.0735272
0.347317
0.0756395
0.352902
0.0774937
0.358795
0.079074
0.364976
0.0803666
0.371419
0.0813606
0.378091
0.0820488
0.384956
0.0824279
0.39197
0.0824994
0.399085
0.0822696
0.406253
0.0817495
0.0809598
0.413425
0.304654
0.00538642
0.305157
0.0104308
0.305895
0.0151923
0.306864
0.0197167
0.308062
0.024038
0.309492
0.0281819
0.311156
0.0321672
0.313062
0.0360077
0.315215
0.0397115
0.317625
0.0432825
0.3203
0.0467206
0.323249
0.050022
0.326481
0.0531801
0.330004
0.0561858
0.333824
0.0590279
0.337947
0.0616937
0.342376
0.0641693
0.34711
0.0664403
0.352145
0.0684922
0.357473
0.0703112
0.363082
0.0718844
0.368956
0.0732008
0.375071
0.0742515
0.381401
0.0750306
0.387914
0.0755353
0.394576
0.0757666
0.401346
0.0757291
0.408184
0.0754315
0.415048
0.0748859
0.0741118
0.421896
0.312046
0.00509857
0.312605
0.00987202
0.313424
0.0143737
0.314495
0.0186449
0.315817
0.0227164
0.317388
0.026611
0.319209
0.0303459
0.321284
0.0339327
0.323617
0.0373785
0.326213
0.0406864
0.329078
0.0438557
0.332217
0.046883
0.335635
0.0497621
0.339336
0.0524849
0.343322
0.0550416
0.347594
0.0574215
0.352151
0.059613
0.356986
0.0616046
0.362093
0.0633852
0.36746
0.0649443
0.373072
0.066273
0.378908
0.0673642
0.384947
0.0682129
0.391161
0.0688169
0.397519
0.0691766
0.40399
0.0692957
0.410538
0.069181
0.417127
0.0688422
0.423722
0.0682916
0.0675474
0.430286
0.319615
0.00478311
0.320227
0.00926004
0.321122
0.0134784
0.322292
0.0174753
0.32373
0.0212783
0.325433
0.0249076
0.327401
0.0283782
0.329633
0.0317005
0.332131
0.0348803
0.334898
0.0379202
0.337934
0.0408193
0.341243
0.0435745
0.344824
0.0461803
0.34868
0.0486296
0.352807
0.0509144
0.357203
0.0530257
0.361861
0.0549543
0.366775
0.0566913
0.371931
0.0582284
0.377317
0.0595584
0.382915
0.0606753
0.388704
0.0615752
0.394661
0.0622562
0.400759
0.0627185
0.406971
0.062965
0.413266
0.063001
0.419612
0.0628343
0.425979
0.062475
0.432336
0.0619352
0.0612312
0.438652
0.327365
0.00444141
0.328027
0.00859755
0.328995
0.0125106
0.330257
0.0162136
0.331804
0.0197308
0.333632
0.0230802
0.335735
0.0262747
0.338113
0.0293232
0.340762
0.0322308
0.343683
0.0349995
0.346874
0.0376286
0.350333
0.0401151
0.354059
0.0424545
0.358048
0.0446408
0.362295
0.0466675
0.366793
0.0485275
0.371534
0.0502136
0.376505
0.0517194