/*--------------------------------*- C++ -*----------------------------------*\
  =========                 |
  \\      /  F ield         | OpenFOAM: The Open Source CFD Toolbox
   \\    /   O peration     | Website:  https://openfoam.org
    \\  /    A nd           | Version:  7
     \\/     M anipulation  |
\*---------------------------------------------------------------------------*/
FoamFile
{
    version     2.0;
    format      ascii;
    class       volVectorField;
    location    "4.7";
    object      U;
}
// * * * * * * * * * * * * * * * * * * * * * * * * * * * * * * * * * * * * * //

dimensions      [0 1 -1 0 0 0 0];

internalField   nonuniform List<vector> 
2790
(
(9.94399 0.0205232 0)
(9.87572 0.0295877 0)
(9.77521 0.0359895 0)
(9.64944 0.0425561 0)
(9.50409 0.0493854 0)
(9.34007 0.0564283 0)
(9.15655 0.0638158 0)
(8.95263 0.0717115 0)
(8.72747 0.0802552 0)
(8.48009 0.0895735 0)
(8.20928 0.0997936 0)
(7.91366 0.111046 0)
(7.5917 0.123461 0)
(7.24179 0.137166 0)
(6.86234 0.152274 0)
(6.45181 0.168872 0)
(6.0089 0.187 0)
(5.5327 0.206622 0)
(5.02299 0.227594 0)
(4.48047 0.249615 0)
(3.90718 0.27218 0)
(3.30685 0.294529 0)
(2.68531 0.315624 0)
(2.05065 0.334292 0)
(1.41182 0.35061 0)
(0.798062 0.372887 0)
(0.110748 0.325076 0)
(-0.469563 -0.114854 0)
(-0.453773 -0.297162 0)
(-0.231164 -0.423862 0)
(9.9985 0.040703 0)
(9.98145 0.0623828 0)
(9.93574 0.07914 0)
(9.86416 0.0966246 0)
(9.77097 0.115124 0)
(9.65715 0.134488 0)
(9.52206 0.154974 0)
(9.36486 0.176943 0)
(9.18472 0.200707 0)
(8.98068 0.226549 0)
(8.75154 0.254744 0)
(8.4959 0.28556 0)
(8.21222 0.31925 0)
(7.89884 0.356024 0)
(7.55406 0.396022 0)
(7.17621 0.439265 0)
(6.76381 0.485596 0)
(6.31569 0.534591 0)
(5.83128 0.585466 0)
(5.31091 0.636959 0)
(4.75619 0.68721 0)
(4.17045 0.733653 0)
(3.55933 0.772959 0)
(2.93159 0.8011 0)
(2.29999 0.813757 0)
(1.69299 0.807262 0)
(1.10719 0.747266 0)
(0.658919 0.547946 0)
(0.186491 0.224639 0)
(-0.0082 -0.45372 0)
(9.99559 0.0432069 0)
(9.97556 0.0752716 0)
(9.9318 0.103346 0)
(9.8649 0.132371 0)
(9.77778 0.163059 0)
(9.67155 0.195398 0)
(9.54588 0.229741 0)
(9.40014 0.266602 0)
(9.23366 0.306469 0)
(9.04564 0.349805 0)
(8.8351 0.39707 0)
(8.60082 0.44872 0)
(8.34146 0.505191 0)
(8.05552 0.566862 0)
(7.7414 0.63401 0)
(7.39746 0.70673 0)
(7.02213 0.784837 0)
(6.61398 0.867724 0)
(6.17197 0.954195 0)
(5.69567 1.04226 0)
(5.18566 1.12888 0)
(4.644 1.20979 0)
(4.07483 1.27916 0)
(3.48542 1.32934 0)
(2.88689 1.3501 0)
(2.29951 1.32644 0)
(1.73188 1.2208 0)
(1.21628 0.973031 0)
(0.701166 0.570175 0)
(0.358054 -0.156518 0)
(9.99403 0.0494992 0)
(9.97181 0.0932062 0)
(9.92788 0.133572 0)
(9.86225 0.174209 0)
(9.77693 0.216433 0)
(9.67298 0.26066 0)
(9.55032 0.307428 0)
(9.40849 0.357413 0)
(9.24703 0.411289 0)
(9.06534 0.469703 0)
(8.86269 0.533299 0)
(8.6382 0.60272 0)
(8.39086 0.678589 0)
(8.11953 0.761471 0)
(7.82302 0.851816 0)
(7.50003 0.94987 0)
(7.14927 1.05554 0)
(6.76947 1.16823 0)
(6.35952 1.2866 0)
(5.91863 1.40826 0)
(5.44656 1.52947 0)
(4.94404 1.64468 0)
(4.41321 1.74615 0)
(3.85831 1.82322 0)
(3.28586 1.86138 0)
(2.70644 1.84034 0)
(2.12568 1.72603 0)
(1.55429 1.4779 0)
(0.957967 1.08374 0)
(0.509431 0.502368 0)
(9.99331 0.0572136 0)
(9.96994 0.110959 0)
(9.92593 0.162104 0)
(9.86146 0.213347 0)
(9.77799 0.266356 0)
(9.67635 0.321913 0)
(9.55654 0.3807 0)
(9.41822 0.443486 0)
(9.26098 0.511053 0)
(9.08434 0.584167 0)
(8.88771 0.663583 0)
(8.67039 0.750058 0)
(8.4316 0.844329 0)
(8.17047 0.947077 0)
(7.88609 1.05887 0)
(7.57749 1.18007 0)
(7.24368 1.31068 0)
(6.88363 1.45017 0)
(6.49631 1.59721 0)
(6.08076 1.74932 0)
(5.63619 1.9024 0)
(5.16215 2.05031 0)
(4.65881 2.18417 0)
(4.12725 2.29174 0)
(3.56944 2.35657 0)
(2.98893 2.35734 0)
(2.38687 2.26499 0)
(1.76642 2.04769 0)
(1.09001 1.69145 0)
(0.536659 1.1542 0)
(9.99302 0.0655387 0)
(9.96923 0.128702 0)
(9.92556 0.190113 0)
(9.86253 0.251843 0)
(9.78129 0.315578 0)
(9.68244 0.382317 0)
(9.56601 0.452873 0)
(9.43171 0.528099 0)
(9.27921 0.608877 0)
(9.10806 0.69608 0)
(8.91778 0.790574 0)
(8.70774 0.893218 0)
(8.47729 1.00485 0)
(8.22568 1.12625 0)
(7.95216 1.25808 0)
(7.6559 1.4008 0)
(7.33605 1.55453 0)
(6.99166 1.71885 0)
(6.62171 1.89254 0)
(6.22503 2.07321 0)
(5.80031 2.25684 0)
(5.34608 2.43719 0)
(4.86075 2.60519 0)
(4.34274 2.74822 0)
(3.79044 2.84956 0)
(3.20261 2.88822 0)
(2.5766 2.83826 0)
(1.91349 2.67166 0)
(1.17277 2.37406 0)
(0.549975 1.89447 0)
(9.99297 0.0740749 0)
(9.96926 0.146314 0)
(9.92637 0.217483 0)
(9.86508 0.289291 0)
(9.78642 0.363354 0)
(9.69085 0.440826 0)
(9.57835 0.522658 0)
(9.44871 0.609808 0)
(9.30165 0.703251 0)
(9.13678 0.80396 0)
(8.95365 0.912894 0)
(8.75171 1.031 0)
(8.53034 1.15921 0)
(8.28888 1.29839 0)
(8.0266 1.44929 0)
(7.7427 1.61247 0)
(7.43631 1.78817 0)
(7.10642 1.97615 0)
(6.75183 2.17539 0)
(6.37104 2.3838 0)
(5.96213 2.59772 0)
(5.52268 2.81137 0)
(5.04957 3.01614 0)
(4.53905 3.19997 0)
(3.9867 3.34669 0)
(3.38795 3.43599 0)
(2.73729 3.44335 0)
(2.03627 3.34155 0)
(1.24177 3.11364 0)
(0.563522 2.69323 0)
(9.99306 0.0825881 0)
(9.96981 0.163606 0)
(9.92807 0.24405 0)
(9.86885 0.325479 0)
(9.79313 0.409445 0)
(9.70126 0.497205 0)
(9.59323 0.589836 0)
(9.46888 0.688393 0)
(9.32796 0.793935 0)
(9.17014 0.907524 0)
(8.99503 1.03021 0)
(8.80211 1.16303 0)
(8.59082 1.307 0)
(8.36051 1.46308 0)
(8.11045 1.63213 0)
(7.83982 1.81485 0)
(7.54762 2.01165 0)
(7.23269 2.22249 0)
(6.89352 2.44671 0)
(6.52819 2.68267 0)
(6.13412 2.92733 0)
(5.70789 3.17575 0)
(5.24501 3.42035 0)
(4.73983 3.6502 0)
(4.18553 3.85025 0)
(3.5748 4.00092 0)
(2.89956 4.07795 0)
(2.16214 4.05244 0)
(1.31614 3.90178 0)
(0.583227 3.54024 0)
(9.99326 0.0909284 0)
(9.97072 0.180409 0)
(9.93046 0.269667 0)
(9.87362 0.360241 0)
(9.80118 0.453646 0)
(9.71344 0.551208 0)
(9.61038 0.654109 0)
(9.49188 0.763492 0)
(9.35776 0.8805 0)
(9.20773 1.00627 0)
(9.04146 1.14195 0)
(8.85848 1.28866 0)
(8.65827 1.44751 0)
(8.44022 1.61957 0)
(8.20358 1.80585 0)
(7.94747 2.00719 0)
(7.67079 2.22423 0)
(7.37218 2.45725 0)
(7.04982 2.70603 0)
(6.7013 2.96954 0)
(6.32338 3.24564 0)
(5.91169 3.53051 0)
(5.46041 3.81805 0)
(4.96206 4.09898 0)
(4.40746 4.35987 0)
(3.78645 4.58213 0)
(3.08761 4.74112 0)
(2.31274 4.80453 0)
(1.41066 4.74117 0)
(0.614316 4.44202 0)
(9.99352 0.0989923 0)
(9.97191 0.196579 0)
(9.9334 0.294195 0)
(9.87924 0.393416 0)
(9.8104 0.495755 0)
(9.72717 0.602587 0)
(9.62953 0.71518 0)
(9.51741 0.834758 0)
(9.39068 0.962539 0)
(9.24913 1.09974 0)
(9.09245 1.24758 0)
(8.92028 1.40728 0)
(8.73213 1.58005 0)
(8.52742 1.76709 0)
(8.30544 1.96954 0)
(8.06526 2.18846 0)
(7.80574 2.42477 0)
(7.52531 2.67914 0)
(7.22193 2.95189 0)
(6.89279 3.24279 0)
(6.53406 3.55076 0)
(6.14051 3.87347 0)
(5.7051 4.20668 0)
(5.21853 4.54338 0)
(4.66905 4.87244 0)
(4.04292 5.17699 0)
(3.32373 5.43236 0)
(2.5098 5.60204 0)
(1.54189 5.6436 0)
(0.664064 5.41816 0)
(9.99384 0.106704 0)
(9.9733 0.212 0)
(9.9368 0.317502 0)
(9.88558 0.424855 0)
(9.82063 0.535588 0)
(9.74225 0.651119 0)
(9.65044 0.772784 0)
(9.54518 0.901881 0)
(9.42638 1.03969 0)
(9.2939 1.18751 0)
(9.14752 1.34662 0)
(8.98694 1.51834 0)
(8.81175 1.70397 0)
(8.62143 1.90485 0)
(8.41532 2.12229 0)
(8.19253 2.35757 0)
(7.95189 2.61194 0)
(7.6918 2.88651 0)
(7.41006 3.18225 0)
(7.10366 3.49983 0)
(6.76837 3.83944 0)
(6.39837 4.20051 0)
(5.9856 4.58116 0)
(5.51913 4.97731 0)
(4.98443 5.38132 0)
(4.36332 5.77958 0)
(3.63194 6.14919 0)
(2.78015 6.45075 0)
(1.73347 6.62863 0)
(0.744839 6.50323 0)
(9.9942 0.114006 0)
(9.97487 0.226575 0)
(9.94056 0.339473 0)
(9.89252 0.454423 0)
(9.83173 0.572982 0)
(9.75851 0.696607 0)
(9.67288 0.82669 0)
(9.57488 0.964588 0)
(9.46448 1.11164 0)
(9.34162 1.26921 0)
(9.20615 1.43864 0)
(9.05786 1.62132 0)
(8.89644 1.81867 0)
(8.72147 2.03214 0)
(8.53237 2.26321 0)
(8.32836 2.51341 0)
(8.10835 2.78432 0)
(7.87082 3.07753 0)
(7.61362 3.39469 0)
(7.33374 3.73745 0)
(7.02694 4.10741 0)
(6.68717 4.50599 0)
(6.30592 4.93408 0)
(5.87112 5.39143 0)
(5.36582 5.87535 0)
(4.76694 6.37826 0)
(4.04075 6.88328 0)
(3.16149 7.3536 0)
(2.02476 7.72334 0)
(0.880738 7.75726 0)
(9.99459 0.120854 0)
(9.97657 0.240225 0)
(9.94461 0.360008 0)
(9.89995 0.482 0)
(9.84356 0.607795 0)
(9.77575 0.73888 0)
(9.69662 0.876694 0)
(9.60623 1.02264 0)
(9.50463 1.17811 0)
(9.39184 1.34451 0)
(9.26781 1.52324 0)
(9.13242 1.71577 0)
(8.98547 1.92359 0)
(8.82668 2.14827 0)
(8.65562 2.39146 0)
(8.47167 2.6549 0)
(8.27392 2.94049 0)
(8.06107 3.2503 0)
(7.83126 3.58664 0)
(7.58179 3.95213 0)
(7.30879 4.34979 0)
(7.00666 4.78311 0)
(6.66723 5.25606 0)
(6.27849 5.77292 0)
(5.82248 6.33768 0)
(5.2725 6.95242 0)
(4.58455 7.61369 0)
(3.70998 8.30102 0)
(2.48819 8.95839 0)
(1.12448 9.29343 0)
(9.99501 0.127211 0)
(9.97838 0.252885 0)
(9.94891 0.379021 0)
(9.90779 0.507487 0)
(9.85598 0.639907 0)
(9.79381 0.7778 0)
(9.72142 0.922635 0)
(9.63893 1.07585 0)
(9.54647 1.23888 0)
(9.44412 1.41316 0)
(9.33195 1.60015 0)
(9.20994 1.80134 0)
(9.07805 2.01832 0)
(8.93614 2.25273 0)
(8.78397 2.50636 0)
(8.62115 2.78115 0)
(8.44707 3.07925 0)
(8.2608 3.40315 0)
(8.06094 3.75573 0)
(7.84544 4.14046 0)
(7.61129 4.56163 0)
(7.35406 5.02466 0)
(7.06713 5.53649 0)
(6.74039 6.10612 0)
(6.35791 6.74524 0)
(5.89407 7.46893 0)
(5.30078 8.29637 0)
(4.50887 9.24808 0)
(3.26882 10.342 0)
(1.60501 11.3594 0)
(9.99545 0.133051 0)
(9.98026 0.264504 0)
(9.95339 0.396443 0)
(9.91596 0.530789 0)
(9.86888 0.669199 0)
(9.81252 0.813211 0)
(9.74707 0.964319 0)
(9.67271 1.12399 0)
(9.58963 1.29367 0)
(9.49801 1.47483 0)
(9.39801 1.66894 0)
(9.28977 1.87755 0)
(9.17336 2.10227 0)
(9.04885 2.34482 0)
(8.91622 2.60707 0)
(8.77537 2.89108 0)
(8.62605 3.19923 0)
(8.46781 3.53427 0)
(8.29992 3.8995 0)
(8.12126 4.29902 0)
(7.93011 4.73804 0)
(7.72392 5.22341 0)
(7.49884 5.76437 0)
(7.249 6.37371 0)
(6.9649 7.0699 0)
(6.631 7.88076 0)
(6.21452 8.85173 0)
(5.66601 10.0658 0)
(4.69037 11.7312 0)
(2.68756 14.5928 0)
(0.116951 -0.117474 0)
(0.275641 -0.107709 0)
(0.438602 -0.0856335 0)
(0.576266 -0.0648235 0)
(0.684368 -0.0479387 0)
(0.767848 -0.0348577 0)
(0.832688 -0.024928 0)
(0.883632 -0.0175086 0)
(0.924175 -0.0120583 0)
(0.956977 -0.00813564 0)
(0.984153 -0.00538768 0)
(1.00739 -0.00353175 0)
(1.028 -0.00233367 0)
(1.04695 -0.00158803 0)
(1.0649 -0.00110526 0)
(1.08211 -0.000706879 0)
(1.09852 -0.000232455 0)
(1.11374 0.000439114 0)
(1.12712 0.00135962 0)
(1.13797 0.0024935 0)
(1.14574 0.00373711 0)
(1.15017 0.00496809 0)
(1.15131 0.00606484 0)
(1.14947 0.00690977 0)
(1.1443 0.00775639 0)
(1.13543 0.00859748 0)
(1.12271 0.00922738 0)
(1.10677 0.00933262 0)
(1.08951 0.00855829 0)
(1.072 0.00601658 0)
(0.0997249 -0.273398 0)
(0.253946 -0.258177 0)
(0.404924 -0.211273 0)
(0.534755 -0.165988 0)
(0.640546 -0.12912 0)
(0.726766 -0.100553 0)
(0.798387 -0.0788529 0)
(0.859202 -0.0625718 0)
(0.911913 -0.0505001 0)
(0.958528 -0.0416706 0)
(1.00061 -0.0353216 0)
(1.03938 -0.0308527 0)
(1.0758 -0.0277749 0)
(1.11061 -0.0256662 0)
(1.14431 -0.0241416 0)
(1.17725 -0.0228386 0)
(1.20956 -0.0214261 0)
(1.24117 -0.0196431 0)
(1.27184 -0.0173622 0)
(1.30121 -0.0146363 0)
(1.32895 -0.0116746 0)
(1.35491 -0.00872391 0)
(1.37902 -0.00592319 0)
(1.40096 -0.00322297 0)
(1.4206 -0.000316675 0)
(1.43754 0.00289632 0)
(1.45062 0.00597425 0)
(1.45975 0.0079531 0)
(1.4666 0.00807377 0)
(1.47445 0.00578158 0)
(0.0788228 -0.431289 0)
(0.210315 -0.406027 0)
(0.328978 -0.334028 0)
(0.430197 -0.265364 0)
(0.511914 -0.209868 0)
(0.578697 -0.166942 0)
(0.634589 -0.134301 0)
(0.682471 -0.109654 0)
(0.724292 -0.0911673 0)
(0.761488 -0.0774184 0)
(0.795186 -0.0673016 0)
(0.826282 -0.0599514 0)
(0.855479 -0.0546694 0)
(0.883324 -0.0508635 0)
(0.910231 -0.0480034 0)
(0.936497 -0.0455944 0)
(0.962295 -0.0431776 0)
(0.987652 -0.0403759 0)
(1.01244 -0.0369813 0)
(1.03638 -0.0330408 0)
(1.05919 -0.0288479 0)
(1.08074 -0.0247603 0)
(1.1012 -0.0209014 0)
(1.12101 -0.0170073 0)
(1.14057 -0.0127532 0)
(1.15979 -0.00793333 0)
(1.17892 -0.00302062 0)
(1.19675 0.000660049 0)
(1.21089 0.00177377 0)
(1.22203 0.000620098 0)
(0.0585639 -0.554896 0)
(0.161137 -0.513577 0)
(0.240615 -0.418497 0)
(0.308209 -0.331302 0)
(0.360354 -0.262278 0)
(0.402417 -0.209433 0)
(0.437224 -0.169529 0)
(0.466714 -0.139385 0)
(0.491994 -0.116675 0)
(0.51391 -0.0996692 0)
(0.533165 -0.0870426 0)
(0.550325 -0.0777624 0)
(0.565846 -0.0709976 0)
(0.5801 -0.0660522 0)
(0.593403 -0.062315 0)
(0.606033 -0.0592191 0)
(0.618237 -0.0562255 0)
(0.630189 -0.0528608 0)
(0.64192 -0.048821 0)
(0.653252 -0.0441004 0)
(0.663791 -0.0390394 0)
(0.673179 -0.0341635 0)
(0.681442 -0.0298566 0)
(0.689119 -0.0260766 0)
(0.696883 -0.0224085 0)
(0.705025 -0.0183152 0)
(0.713413 -0.0136003 0)
(0.720875 -0.00878315 0)
(0.725568 -0.00501557 0)
(0.723314 -0.0022595 0)
(0.0375113 -0.646099 0)
(0.105749 -0.583428 0)
(0.14091 -0.467913 0)
(0.172626 -0.367494 0)
(0.191782 -0.289669 0)
(0.205767 -0.230753 0)
(0.215541 -0.186621 0)
(0.22239 -0.153116 0)
(0.226647 -0.127686 0)
(0.228752 -0.108477 0)
(0.229108 -0.094069 0)
(0.228024 -0.0833561 0)
(0.225762 -0.0754523 0)
(0.222563 -0.0696267 0)
(0.218679 -0.0652513 0)
(0.214397 -0.0617455 0)
(0.210048 -0.0585332 0)
(0.205985 -0.0550543 0)
(0.202424 -0.050859 0)
(0.199351 -0.045774 0)
(0.196178 -0.0400309 0)
(0.192128 -0.0341698 0)
(0.186051 -0.0286849 0)
(0.177812 -0.023718 0)
(0.167839 -0.0190031 0)
(0.156464 -0.0141465 0)
(0.147083 -0.00884526 0)
(0.137694 -0.00314055 0)
(0.127993 0.00188804 0)
(0.115753 0.000794266 0)
(0.014892 -0.699441 0)
(0.0437068 -0.611228 0)
(0.031727 -0.478292 0)
(0.0261169 -0.369474 0)
(0.00984751 -0.286264 0)
(-0.00745222 -0.223873 0)
(-0.0262268 -0.1782 0)
(-0.0456913 -0.143579 0)
(-0.065863 -0.117443 0)
(-0.0863481 -0.0978356 0)
(-0.10687 -0.083226 0)
(-0.127258 -0.0724555 0)
(-0.14735 -0.0646091 0)
(-0.166988 -0.0589403 0)
(-0.186022 -0.0548286 0)
(-0.204262 -0.0517237 0)
(-0.221453 -0.0490735 0)
(-0.237302 -0.0462995 0)
(-0.251576 -0.0428739 0)
(-0.264227 -0.0384993 0)
(-0.275488 -0.0332761 0)
(-0.285901 -0.0276772 0)
(-0.296234 -0.0222609 0)
(-0.30709 -0.017348 0)
(-0.318671 -0.0128338 0)
(-0.330871 -0.00826981 0)
(-0.343268 -0.00327249 0)
(-0.355246 0.0014235 0)
(-0.363013 0.00417044 0)
(-0.371509 0.00337091 0)
(-0.0111055 -0.708156 0)
(-0.0267848 -0.591082 0)
(-0.0853961 -0.446949 0)
(-0.131055 -0.33569 0)
(-0.183256 -0.253014 0)
(-0.233384 -0.193106 0)
(-0.281395 -0.148782 0)
(-0.326629 -0.115836 0)
(-0.368819 -0.0915299 0)
(-0.407795 -0.073839 0)
(-0.44354 -0.0611359 0)
(-0.47622 -0.0521981 0)
(-0.506086 -0.0460876 0)
(-0.533425 -0.0420631 0)
(-0.558504 -0.0395333 0)
(-0.581507 -0.0379893 0)
(-0.602498 -0.0369022 0)
(-0.621479 -0.0356726 0)
(-0.638486 -0.0336936 0)
(-0.653715 -0.030534 0)
(-0.667577 -0.0261392 0)
(-0.680643 -0.0208672 0)
(-0.693512 -0.0152983 0)
(-0.706618 -0.00995366 0)
(-0.720091 -0.00504112 0)
(-0.73389 -0.000581219 0)
(-0.745962 0.00346981 0)
(-0.754994 0.00653092 0)
(-0.763188 0.0074313 0)
(-0.768517 0.00601528 0)
(-0.0434665 -0.665187 0)
(-0.106185 -0.525065 0)
(-0.209839 -0.379859 0)
(-0.295657 -0.270681 0)
(-0.381907 -0.191864 0)
(-0.461782 -0.137146 0)
(-0.533861 -0.0991111 0)
(-0.597642 -0.0721993 0)
(-0.653658 -0.0532581 0)
(-0.70288 -0.0403463 0)
(-0.746217 -0.0318478 0)
(-0.784575 -0.026556 0)
(-0.818754 -0.0235665 0)
(-0.849453 -0.0221856 0)
(-0.877254 -0.0219007 0)
(-0.902563 -0.0223204 0)
(-0.925571 -0.0230344 0)
(-0.946351 -0.0234905 0)
(-0.965018 -0.023036 0)
(-0.981883 -0.0211268 0)
(-0.997481 -0.0176083 0)
(-1.01243 -0.0128321 0)
(-1.02723 -0.00750422 0)
(-1.04213 -0.00245297 0)
(-1.05643 0.00182696 0)
(-1.06841 0.00540914 0)
(-1.07897 0.00854699 0)
(-1.08861 0.0109641 0)
(-1.09679 0.0115342 0)
(-1.10128 0.0103135 0)
(-0.0836483 -0.565488 0)
(-0.196852 -0.410317 0)
(-0.350934 -0.273262 0)
(-0.475966 -0.175895 0)
(-0.590786 -0.10799 0)
(-0.693432 -0.0624751 0)
(-0.783901 -0.033562 0)
(-0.861876 -0.0162578 0)
(-0.925731 -0.00673118 0)
(-0.978802 -0.00160868 0)
(-1.02355 0.000754935 0)
(-1.062 0.0012635 0)
(-1.0957 0.000512481 0)
(-1.12584 -0.00103583 0)
(-1.15334 -0.00307053 0)
(-1.17881 -0.00543373 0)
(-1.20254 -0.0079333 0)
(-1.2243 -0.010107 0)
(-1.24378 -0.0111783 0)
(-1.26134 -0.0104013 0)
(-1.27766 -0.00757115 0)
(-1.29356 -0.0032378 0)
(-1.3094 0.00153034 0)
(-1.32379 0.00575001 0)
(-1.33662 0.00899482 0)
(-1.34843 0.0115132 0)
(-1.35903 0.0136667 0)
(-1.36864 0.0151984 0)
(-1.37665 0.015309 0)
(-1.38071 0.0142487 0)
(-0.139333 -0.403957 0)
(-0.315962 -0.24515 0)
(-0.537757 -0.124013 0)
(-0.717698 -0.0398195 0)
(-0.860542 0.00633917 0)
(-0.971856 0.0292365 0)
(-1.05865 0.0386503 0)
(-1.12736 0.0403631 0)
(-1.18486 0.0386317 0)
(-1.23346 0.0354509 0)
(-1.27527 0.0317091 0)
(-1.31179 0.0276646 0)
(-1.34407 0.0234305 0)
(-1.37298 0.0191951 0)
(-1.39925 0.0150793 0)
(-1.42337 0.0109959 0)
(-1.44541 0.00686195 0)
(-1.46535 0.003024 0)
(-1.48341 0.000377088 0)
(-1.49985 -0.000141481 0)
(-1.51521 0.00177783 0)
(-1.5299 0.00549316 0)
(-1.54403 0.00972955 0)
(-1.55822 0.013388 0)
(-1.57169 0.0159619 0)
(-1.58377 0.017618 0)
(-1.59439 0.0188306 0)
(-1.60392 0.0196031 0)
(-1.61176 0.0194147 0)
(-1.61554 0.0185248 0)
(-0.224112 -0.194121 0)
(-0.473602 0.00952813 0)
(-0.720683 0.0893085 0)
(-0.90142 0.113574 0)
(-1.04484 0.118055 0)
(-1.1587 0.112949 0)
(-1.24962 0.10346 0)
(-1.32293 0.0923625 0)
(-1.38273 0.0810832 0)
(-1.43239 0.0706485 0)
(-1.47474 0.0614666 0)
(-1.51167 0.053225 0)
(-1.54428 0.045589 0)
(-1.57341 0.0386088 0)
(-1.59991 0.0323734 0)
(-1.62437 0.0265887 0)
(-1.64673 0.0208248 0)
(-1.66645 0.0152394 0)
(-1.68319 0.0108659 0)
(-1.69754 0.00901035 0)
(-1.71085 0.0102137 0)
(-1.72447 0.0137534 0)
(-1.73899 0.0180386 0)
(-1.7539 0.0214525 0)
(-1.76805 0.023239 0)
(-1.78045 0.023748 0)
(-1.79102 0.023836 0)
(-1.80035 0.023867 0)
(-1.80798 0.0235059 0)
(-1.81154 0.0228347 0)
(-0.294256 0.227077 0)
(-0.569548 0.294036 0)
(-0.848649 0.294575 0)
(-1.05324 0.2705 0)
(-1.2102 0.238401 0)
(-1.32987 0.205164 0)
(-1.42233 0.174679 0)
(-1.49514 0.148043 0)
(-1.55343 0.125235 0)
(-1.60119 0.106565 0)
(-1.64189 0.091752 0)
(-1.67772 0.0794155 0)
(-1.70956 0.0683623 0)
(-1.73797 0.0585076 0)
(-1.76391 0.0500901 0)
(-1.78824 0.0425848 0)
(-1.81077 0.0349799 0)
(-1.83039 0.0271304 0)
(-1.84633 0.020478 0)
(-1.85931 0.0171075 0)
(-1.87131 0.0179422 0)
(-1.88436 0.0219122 0)
(-1.8992 0.0266826 0)
(-1.91503 0.0300165 0)
(-1.93008 0.0309118 0)
(-1.94286 0.0299878 0)
(-1.95326 0.0287175 0)
(-1.96219 0.0279807 0)
(-1.96946 0.027526 0)
(-1.9728 0.0270802 0)
(-0.345955 0.624795 0)
(-0.687066 0.629835 0)
(-1.01193 0.536203 0)
(-1.22916 0.442011 0)
(-1.38561 0.362755 0)
(-1.49987 0.295875 0)
(-1.58548 0.242497 0)
(-1.652 0.200473 0)
(-1.70463 0.166414 0)
(-1.7472 0.139779 0)
(-1.78391 0.12007 0)
(-1.81734 0.104424 0)
(-1.84765 0.0902046 0)
(-1.8746 0.0774121 0)
(-1.8993 0.0669915 0)
(-1.92316 0.0582655 0)
(-1.94593 0.0491629 0)
(-1.96553 0.0388414 0)
(-1.98028 0.0293268 0)
(-1.99102 0.0240724 0)
(-2.00085 0.0247673 0)
(-2.01285 0.0298131 0)
(-2.02807 0.0356949 0)
(-2.04519 0.0392278 0)
(-2.0615 0.0390836 0)
(-2.07476 0.0363133 0)
(-2.08477 0.0333475 0)
(-2.09297 0.0318155 0)
(-2.09968 0.0314007 0)
(-2.10276 0.031214 0)
(-0.459222 1.13291 0)
(-0.890573 1.03129 0)
(-1.2469 0.796561 0)
(-1.44569 0.605593 0)
(-1.57909 0.476064 0)
(-1.67384 0.373488 0)
(-1.74199 0.299033 0)
(-1.79555 0.245909 0)
(-1.83856 0.202554 0)
(-1.87262 0.167973 0)
(-1.90279 0.144388 0)
(-1.93278 0.127156 0)
(-1.96122 0.110599 0)
(-1.98597 0.0949884 0)
(-2.00835 0.0830396 0)
(-2.03121 0.0741628 0)
(-2.05447 0.0642765 0)
(-2.07443 0.0510977 0)
(-2.08762 0.0375658 0)
(-2.09496 0.0296281 0)
(-2.10139 0.030458 0)
(-2.1118 0.037512 0)
(-2.12763 0.0453554 0)
(-2.14668 0.0494337 0)
(-2.16485 0.0479928 0)
(-2.17873 0.0427248 0)
(-2.18797 0.0375169 0)
(-2.19491 0.0351463 0)
(-2.20078 0.0350208 0)
(-2.2036 0.0351686 0)
(-0.684328 2.10616 0)
(-1.21796 1.68523 0)
(-1.59467 1.08817 0)
(-1.71974 0.69626 0)
(-1.79194 0.55239 0)
(-1.85105 0.434366 0)
(-1.88786 0.347848 0)
(-1.92244 0.288564 0)
(-1.95515 0.233267 0)
(-1.97823 0.186697 0)
(-1.99826 0.162252 0)
(-2.02367 0.14917 0)
(-2.05071 0.132337 0)
(-2.07278 0.112739 0)
(-2.09144 0.0980481 0)
(-2.11274 0.0894197 0)
(-2.1375 0.0790653 0)
(-2.15905 0.062 0)
(-2.17052 0.0425108 0)
(-2.1727 0.0308334 0)
(-2.17382 0.0328154 0)
(-2.18189 0.0439448 0)
(-2.19876 0.0554061 0)
(-2.22074 0.060761 0)
(-2.24165 0.057799 0)
(-2.25634 0.0491372 0)
(-2.2642 0.0408511 0)
(-2.26903 0.0376055 0)
(-2.2737 0.0382829 0)
(-2.27625 0.0389457 0)
(9.9959 0.138446 0)
(9.98225 0.275239 0)
(9.9581 0.412526 0)
(9.92453 0.552273 0)
(9.88242 0.69616 0)
(9.83216 0.845738 0)
(9.77398 1.00251 0)
(9.70814 1.16796 0)
(9.63491 1.34355 0)
(9.55457 1.53074 0)
(9.46738 1.73102 0)
(9.37362 1.94594 0)
(9.27354 2.17713 0)
(9.1674 2.42633 0)
(9.05546 2.69546 0)
(8.93793 2.98664 0)
(8.81501 3.30234 0)
(8.68683 3.64545 0)
(8.55347 4.01947 0)
(8.41491 4.42879 0)
(8.27111 4.87904 0)
(8.12193 5.37769 0)
(7.96732 5.93492 0)
(7.80757 6.56507 0)
(7.64387 7.28922 0)
(7.48122 8.13996 0)
(7.33287 9.17128 0)
(7.28895 10.4767 0)
(7.74758 12.2012 0)
(7.93026 14.9201 0)
(9.99638 0.143406 0)
(9.98434 0.285094 0)
(9.96305 0.427254 0)
(9.93351 0.571884 0)
(9.89656 0.720676 0)
(9.85261 0.875187 0)
(9.80196 1.03693 0)
(9.74491 1.20737 0)
(9.68182 1.38797 0)
(9.61307 1.58019 0)
(9.53905 1.7855 0)
(9.46016 2.00544 0)
(9.37685 2.24162 0)
(9.2896 2.49575 0)
(9.19893 2.76974 0)
(9.10541 3.06568 0)
(9.00971 3.38602 0)
(8.91256 3.73359 0)
(8.81489 4.11185 0)
(8.71787 4.52506 0)
(8.62312 4.97864 0)
(8.53299 5.47962 0)
(8.45121 6.03731 0)
(8.38404 6.66432 0)
(8.34266 7.37784 0)
(8.34914 8.20131 0)
(8.44236 9.16485 0)
(8.67823 10.3017 0)
(9.32557 11.5566 0)
(9.81624 12.6447 0)
(9.99688 0.147843 0)
(9.98651 0.293906 0)
(9.96819 0.440405 0)
(9.94282 0.589355 0)
(9.9112 0.74245 0)
(9.87376 0.901242 0)
(9.83084 1.06723 0)
(9.78282 1.24187 0)
(9.73011 1.42659 0)
(9.67321 1.62283 0)
(9.6126 1.83202 0)
(9.54885 2.05565 0)
(9.48257 2.29527 0)
(9.41448 2.55255 0)
(9.34535 2.82928 0)
(9.27611 3.12746 0)
(9.20787 3.44937 0)
(9.14196 3.79763 0)
(9.08006 4.17538 0)
(9.0244 4.58636 0)
(8.97799 5.03518 0)
(8.94511 5.52751 0)
(8.93206 6.07034 0)
(8.94835 6.67206 0)
(9.00848 7.34209 0)
(9.13459 8.08909 0)
(9.3577 8.91491 0)
(9.6873 9.80841 0)
(10.2532 10.7182 0)
(10.941 11.4341 0)
(9.9974 0.151705 0)
(9.98873 0.301568 0)
(9.97346 0.451812 0)
(9.95238 0.604455 0)
(9.92622 0.761182 0)
(9.89543 0.923529 0)
(9.8604 1.09297 0)
(9.82155 1.27093 0)
(9.7794 1.4588 0)
(9.73448 1.65796 0)
(9.68744 1.86979 0)
(9.63894 2.0957 0)
(9.58978 2.33716 0)
(9.54085 2.59569 0)
(9.49322 2.87296 0)
(9.44809 3.17077 0)
(9.40698 3.49112 0)
(9.37169 3.83627 0)
(9.34454 4.2088 0)
(9.32848 4.61169 0)
(9.32746 5.04833 0)
(9.34678 5.52257 0)
(9.39367 6.03853 0)
(9.47805 6.60017 0)
(9.61313 7.21027 0)
(9.81573 7.86848 0)
(10.1086 8.56769 0)
(10.5005 9.29323 0)
(11.0581 10.0349 0)
(11.8514 10.6797 0)
(9.99792 0.154945 0)
(9.99101 0.307988 0)
(9.97884 0.46134 0)
(9.96211 0.617007 0)
(9.94149 0.776653 0)
(9.91744 0.941785 0)
(9.89038 1.11384 0)
(9.86079 1.2942 0)
(9.82924 1.48419 0)
(9.79637 1.68514 0)
(9.76287 1.89833 0)
(9.72957 2.12507 0)
(9.69739 2.36669 0)
(9.6674 2.62458 0)
(9.64086 2.90018 0)
(9.61925 3.19502 0)
(9.60434 3.51076 0)
(9.59833 3.84918 0)
(9.60389 4.2122 0)
(9.62443 4.60185 0)
(9.66425 5.02024 0)
(9.72888 5.46938 0)
(9.82541 5.9509 0)
(9.96279 6.46546 0)
(10.1521 7.01201 0)
(10.4063 7.58664 0)
(10.7429 8.18124 0)
(11.1733 8.78111 0)
(11.7207 9.37466 0)
(12.4738 9.88699 0)
(9.99845 0.157519 0)
(9.9933 0.313079 0)
(9.98427 0.468863 0)
(9.97193 0.626845 0)
(9.95689 0.78866 0)
(9.9396 0.955772 0)
(9.92052 1.12957 0)
(9.90019 1.31137 0)
(9.87921 1.50244 0)
(9.85828 1.704 0)
(9.83819 1.91725 0)
(9.81985 2.14336 0)
(9.8043 2.38351 0)
(9.79273 2.63888 0)
(9.78656 2.91067 0)
(9.78743 3.2001 0)
(9.79732 3.50843 0)
(9.81859 3.83689 0)
(9.85411 4.18671 0)
(9.90736 4.559 0)
(9.98263 4.95468 0)
(10.0851 5.3742 0)
(10.2212 5.81731 0)
(10.3985 6.28255 0)
(10.6256 6.76665 0)
(10.9124 7.26384 0)
(11.27 7.7649 0)
(11.7065 8.25426 0)
(12.2225 8.71521 0)
(12.8984 9.10625 0)
(9.99898 0.159389 0)
(9.9956 0.316766 0)
(9.9897 0.474266 0)
(9.98175 0.633822 0)
(9.97227 0.797022 0)
(9.96171 0.965279 0)
(9.95057 1.13992 0)
(9.93938 1.32219 0)
(9.92882 1.51327 0)
(9.91962 1.71428 0)
(9.91264 1.92629 0)
(9.90884 2.15033 0)
(9.90934 2.3874 0)
(9.91543 2.63847 0)
(9.9286 2.90446 0)
(9.95059 3.18626 0)
(9.98343 3.4847 0)
(10.0295 3.80049 0)
(10.0917 4.13418 0)
(10.1734 4.48609 0)
(10.2784 4.85611 0)
(10.4115 5.24353 0)
(10.5778 5.64679 0)
(10.7833 6.06306 0)
(11.0346 6.48786 0)
(11.3378 6.91449 0)
(11.6992 7.33361 0)
(12.123 7.73178 0)
(12.6029 8.09445 0)
(13.2082 8.40108 0)
(9.99951 0.16052 0)
(9.99788 0.318981 0)
(9.9951 0.477454 0)
(9.9915 0.637813 0)
(9.98751 0.801589 0)
(9.9836 0.970135 0)
(9.98024 1.1447 0)
(9.97802 1.32645 0)
(9.97763 1.51647 0)
(9.97982 1.71577 0)
(9.98549 1.92528 0)
(9.99564 2.14587 0)
(10.0114 2.37835 0)
(10.0342 2.62346 0)
(10.0654 2.88185 0)
(10.1068 3.15408 0)
(10.1605 3.44055 0)
(10.2287 3.74152 0)
(10.314 4.05695 0)
(10.4196 4.38647 0)
(10.5488 4.72922 0)
(10.7055 5.08368 0)
(10.8938 5.44744 0)
(11.118 5.81701 0)
(11.3824 6.18746 0)
(11.6908 6.55225 0)
(12.046 6.90308 0)
(12.4495 7.22964 0)
(12.8938 7.52079 0)
(13.4368 7.76521 0)
(10 0.160886 0)
(10.0001 0.319669 0)
(10.0004 0.478345 0)
(10.0011 0.638715 0)
(10.0025 0.802243 0)
(10.005 0.970208 0)
(10.0093 1.14378 0)
(10.0158 1.32404 0)
(10.0252 1.51195 0)
(10.0383 1.7084 0)
(10.056 1.91419 0)
(10.0794 2.13003 0)
(10.1095 2.35653 0)
(10.1477 2.59419 0)
(10.1955 2.84341 0)
(10.2545 3.10444 0)
(10.3266 3.37732 0)
(10.414 3.66187 0)
(10.5189 3.95762 0)
(10.6441 4.26366 0)
(10.7923 4.57863 0)
(10.9664 4.9005 0)
(11.1696 5.22648 0)
(11.4048 5.55285 0)
(11.6745 5.87486 0)
(11.9806 6.18667 0)
(12.3239 6.4814 0)
(12.7043 6.75121 0)
(13.114 6.98777 0)
(13.6017 7.18421 0)
(10.0005 0.160463 0)
(10.0023 0.318789 0)
(10.0056 0.476881 0)
(10.0104 0.636456 0)
(10.017 0.798901 0)
(10.0259 0.965416 0)
(10.0374 1.13708 0)
(10.0522 1.31487 0)
(10.071 1.49966 0)
(10.0945 1.69219 0)
(10.1236 1.89312 0)
(10.1593 2.10301 0)
(10.2026 2.32226 0)
(10.255 2.55119 0)
(10.3177 2.78994 0)
(10.3922 3.03847 0)
(10.4804 3.29654 0)
(10.584 3.56364 0)
(10.7051 3.83893 0)
(10.8457 4.12118 0)
(11.0081 4.40871 0)
(11.1945 4.69925 0)
(11.4069 4.98993 0)
(11.6472 5.27717 0)
(11.9165 5.55668 0)
(12.2156 5.82346 0)
(12.5439 6.072 0)
(12.9002 6.2964 0)
(13.2773 6.49061 0)
(13.7172 6.65047 0)
(10.001 0.159238 0)
(10.0044 0.316312 0)
(10.0106 0.473021 0)
(10.0194 0.630988 0)
(10.0311 0.791517 0)
(10.0459 0.955718 0)
(10.0644 1.12458 0)
(10.0871 1.29898 0)
(10.1147 1.47966 0)
(10.1479 1.66725 0)
(10.1876 1.86229 0)
(10.2346 2.06514 0)
(10.29 2.27606 0)
(10.3551 2.49517 0)
(10.4309 2.72239 0)
(10.519 2.95747 0)
(10.6208 3.19992 0)
(10.7378 3.44898 0)
(10.8717 3.7036 0)
(11.0242 3.96235 0)
(11.1968 4.22339 0)
(11.391 4.48443 0)
(11.6081 4.74272 0)
(11.849 4.99498 0)
(12.1141 5.2375 0)
(12.4031 5.46619 0)
(12.7149 5.67672 0)
(13.0477 5.86472 0)
(13.3952 6.02596 0)
(13.7939 6.15794 0)
(10.0015 0.157202 0)
(10.0065 0.312224 0)
(10.0154 0.466748 0)
(10.028 0.622297 0)
(10.0444 0.780082 0)
(10.065 0.941125 0)
(10.0901 1.10632 0)
(10.1202 1.27642 0)
(10.156 1.45208 0)
(10.1982 1.63381 0)
(10.2475 1.82199 0)
(10.3048 2.01687 0)
(10.3711 2.21854 0)
(10.4473 2.42695 0)
(10.5346 2.64186 0)
(10.6341 2.86283 0)
(10.7472 3.08921 0)
(10.875 3.32008 0)
(11.0188 3.55425 0)
(11.1798 3.79021 0)
(11.359 4.02613 0)
(11.5575 4.2598 0)
(11.7758 4.48871 0)
(12.0142 4.71 0)
(12.2724 4.92055 0)
(12.5498 5.11709 0)
(12.8447 5.29629 0)
(13.1553 5.45501 0)
(13.4761 5.59031 0)
(13.8395 5.70069 0)
(10.0019 0.154355 0)
(10.0084 0.306522 0)
(10.0199 0.458064 0)
(10.0361 0.610393 0)
(10.0571 0.764626 0)
(10.083 0.92169 0)
(10.1142 1.08238 0)
(10.1512 1.24735 0)
(10.1946 1.41715 0)
(10.245 1.59217 0)
(10.303 1.77267 0)
(10.3695 1.95877 0)
(10.4452 2.15043 0)
(10.5311 2.34747 0)
(10.6281 2.54952 0)
(10.7372 2.75602 0)
(10.8593 2.96618 0)
(10.9955 3.17902 0)
(11.1465 3.3933 0)
(11.3132 3.6075 0)
(11.4963 3.81989 0)
(11.6962 4.02846 0)
(11.9131 4.23096 0)
(12.1467 4.42497 0)
(12.3965 4.60796 0)
(12.6615 4.77735 0)
(12.9399 4.93065 0)
(13.2298 5.06559 0)
(13.5267 5.18019 0)
(13.8597 5.27359 0)
(10.0024 0.150703 0)
(10.0102 0.299222 0)
(10.0241 0.446994 0)
(10.0438 0.595318 0)
(10.0689 0.745214 0)
(10.0997 0.897512 0)
(10.1366 1.05291 0)
(10.1799 1.21198 0)
(10.2302 1.37514 0)
(10.2879 1.54269 0)
(10.3537 1.71479 0)
(10.4282 1.89145 0)
(10.5122 2.07253 0)
(10.6063 2.25773 0)
(10.7114 2.44659 0)
(10.8282 2.63847 0)
(10.9574 2.83253 0)
(11.0996 3.02776 0)
(11.2556 3.22292 0)
(11.4257 3.4166 0)
(11.6103 3.60718 0)
(11.8095 3.79288 0)
(12.023 3.97177 0)
(12.2504 4.14186 0)
(12.4908 4.30109 0)
(12.7431 4.4475 0)
(13.0057 4.57924 0)
(13.2767 4.69469 0)
(13.5524 4.79254 0)
(13.859 4.87235 0)
(10.0027 0.146257 0)
(10.0119 0.290347 0)
(10.0281 0.43358 0)
(10.0508 0.577138 0)
(10.0798 0.721941 0)
(10.1152 0.868729 0)
(10.1572 1.0181 0)
(10.2062 1.17054 0)
(10.2626 1.32638 0)
(10.3269 1.48582 0)
(10.3995 1.64892 0)
(10.481 1.81561 0)
(10.5719 1.98567 0)
(10.6729 2.15872 0)
(10.7845 2.33426 0)
(10.9072 2.51158 0)
(11.0416 2.68986 0)
(11.1882 2.86808 0)
(11.3471 3.04508 0)
(11.5187 3.21954 0)
(11.703 3.39004 0)
(11.8997 3.55503 0)
(12.1085 3.71289 0)
(12.3287 3.86199 0)
(12.5594 4.00073 0)
(12.7993 4.1276 0)
(13.047 4.24125 0)
(13.3008 4.34057 0)
(13.5575 4.42469 0)
(13.8411 4.49344 0)
(10.0031 0.141036 0)
(10.0134 0.279938 0)
(10.0317 0.417884 0)
(10.0573 0.555943 0)
(10.0898 0.694935 0)
(10.1293 0.835511 0)
(10.1759 0.978186 0)
(10.23 1.12335 0)
(10.2918 1.27125 0)
(10.3618 1.42201 0)
(10.4403 1.57563 0)
(10.5276 1.73195 0)
(10.6244 1.8907 0)
(10.7309 2.05147 0)
(10.8475 2.2137 0)
(10.9748 2.37669 0)
(11.1128 2.53964 0)
(11.262 2.70157 0)
(11.4223 2.86143 0)
(11.5938 3.01804 0)
(11.7763 3.17015 0)
(11.9694 3.31643 0)
(12.1726 3.45558 0)
(12.3851 3.58627 0)
(12.606 3.70726 0)
(12.834 3.81743 0)
(13.0678 3.9158 0)
(13.3059 4.00161 0)
(13.5456 4.07431 0)
(13.8092 4.13391 0)
(10.0034 0.135065 0)
(10.0148 0.268042 0)