/*--------------------------------*- C++ -*----------------------------------*\
  =========                 |
  \\      /  F ield         | OpenFOAM: The Open Source CFD Toolbox
   \\    /   O peration     | Website:  https://openfoam.org
    \\  /    A nd           | Version:  7
     \\/     M anipulation  |
\*---------------------------------------------------------------------------*/
FoamFile
{
    version     2.0;
    format      ascii;
    class       surfaceVectorField;
    location    "4.7";
    object      Uf;
}
// * * * * * * * * * * * * * * * * * * * * * * * * * * * * * * * * * * * * * //

dimensions      [0 1 -1 0 0 0 0];

internalField   nonuniform List<vector> 
5457
(
(9.92088 0.0251096 0)
(9.97125 0.0387458 0)
(9.82401 0.0328268 0)
(9.92859 0.0485852 0)
(9.70961 0.039312 0)
(9.85548 0.0587681 0)
(9.57544 0.0460116 0)
(9.7568 0.0705934 0)
(9.42138 0.0529489 0)
(9.63753 0.0830134 0)
(9.24755 0.0601662 0)
(9.49861 0.0959365 0)
(9.05362 0.0678108 0)
(9.3393 0.109613 0)
(8.83893 0.0760344 0)
(9.15874 0.124289 0)
(8.60252 0.08497 0)
(8.9561 0.140167 0)
(8.34327 0.0947446 0)
(8.73038 0.157433 0)
(8.05985 0.105487 0)
(8.48041 0.176269 0)
(7.75081 0.117327 0)
(8.20478 0.196857 0)
(7.41457 0.130395 0)
(7.90196 0.219361 0)
(7.04951 0.14481 0)
(7.57032 0.243923 0)
(6.65405 0.160672 0)
(7.2082 0.270632 0)
(6.22673 0.178044 0)
(6.81401 0.2995 0)
(5.76645 0.196928 0)
(6.38635 0.330414 0)
(5.2726 0.217233 0)
(5.92419 0.363084 0)
(4.74541 0.238736 0)
(5.42713 0.396976 0)
(4.18624 0.261032 0)
(4.89569 0.431237 0)
(3.59801 0.283488 0)
(4.33168 0.46462 0)
(2.9856 0.305203 0)
(3.73865 0.495426 0)
(2.35617 0.32507 0)
(3.12232 0.521514 0)
(1.71915 0.342549 0)
(2.49112 0.540559 0)
(1.08439 0.361882 0)
(1.85591 0.551676 0)
(0.451881 0.348696 0)
(1.24553 0.563022 0)
(-0.145811 0.102482 0)
(0.608971 0.544896 0)
(-0.423612 -0.207097 0)
(0.094678 0.259388 0)
(-0.402154 -0.361269 0)
(-0.133641 -0.0205201 0)
(-0.119682 -0.393885 0)
(9.99641 0.0516724 0)
(9.99705 0.0405046 0)
(9.95879 0.0708615 0)
(9.97851 0.0674544 0)
(9.89824 0.0879868 0)
(9.93377 0.0898699 0)
(9.81659 0.105985 0)
(9.86453 0.113555 0)
(9.71359 0.124921 0)
(9.77438 0.138515 0)
(9.58909 0.144853 0)
(9.66435 0.164646 0)
(9.44274 0.16609 0)
(9.53397 0.192332 0)
(9.27391 0.188967 0)
(9.3825 0.22203 0)
(9.08167 0.213782 0)
(9.20919 0.254148 0)
(8.8649 0.240815 0)
(9.01316 0.289063 0)
(8.6223 0.270336 0)
(8.79332 0.327152 0)
(8.35239 0.302606 0)
(8.54836 0.368785 0)
(8.05357 0.337857 0)
(8.27684 0.414316 0)
(7.72413 0.376262 0)
(7.97718 0.464046 0)
(7.36238 0.417902 0)
(7.64773 0.518188 0)
(6.96674 0.462707 0)
(7.28684 0.576806 0)
(6.53585 0.510386 0)
(6.89297 0.639725 0)
(6.06885 0.560333 0)
(6.46483 0.706427 0)
(5.56562 0.611521 0)
(6.00162 0.775909 0)
(5.02714 0.662385 0)
(5.50329 0.846523 0)
(4.45592 0.710709 0)
(4.97093 0.915806 0)
(3.85654 0.753541 0)
(4.40722 0.980307 0)
(3.23624 0.787198 0)
(3.81708 1.03546 0)
(2.60586 0.807504 0)
(3.2085 1.07549 0)
(1.98284 0.810471 0)
(2.59344 1.09315 0)
(1.40532 0.776906 0)
(1.99625 1.07709 0)
(0.92979 0.646415 0)
(1.41954 0.978425 0)
(0.439894 0.384361 0)
(0.937601 0.716813 0)
(0.0591917 -0.118594 0)
(0.443828 0.343548 0)
(0.174927 -0.33591 0)
(9.98903 0.0594309 0)
(9.99481 0.0458775 0)
(9.95434 0.0894765 0)
(9.97368 0.0848542 0)
(9.89729 0.118032 0)
(9.92984 0.119174 0)
(9.82046 0.147898 0)
(9.86357 0.153976 0)
(9.72416 0.179422 0)
(9.77736 0.190408 0)
(9.60821 0.212775 0)
(9.67227 0.228636 0)
(9.47234 0.248392 0)
(9.5481 0.269129 0)
(9.31608 0.286773 0)
(9.40432 0.312496 0)
(9.13869 0.328396 0)
(9.24034 0.359324 0)
(8.93925 0.37372 0)
(9.05549 0.410173 0)
(8.71665 0.423204 0)
(8.84889 0.465596 0)
(8.4696 0.477293 0)
(8.61951 0.52615 0)
(8.19668 0.536395 0)
(8.36616 0.592369 0)
(7.89633 0.600837 0)
(8.08752 0.664733 0)
(7.56693 0.670805 0)
(7.78221 0.743612 0)
(7.20685 0.74625 0)
(7.44875 0.829183 0)
(6.81459 0.826776 0)
(7.0857 0.921311 0)
(6.3889 0.911476 0)
(6.69173 1.0194 0)
(5.92906 0.998752 0)
(6.26575 1.12216 0)
(5.43518 1.08609 0)
(5.80715 1.22742 0)
(4.90859 1.16982 0)
(5.31611 1.33174 0)
(4.35248 1.24489 0)
(4.79402 1.43019 0)
(3.77264 1.30455 0)
(4.24402 1.51588 0)
(3.17878 1.33984 0)
(3.67186 1.57943 0)
(2.58668 1.33813 0)
(3.08637 1.60775 0)
(2.01991 1.27299 0)
(2.50297 1.58159 0)
(1.48699 1.09543 0)
(1.92878 1.46427 0)
(0.958327 0.769196 0)
(1.38529 1.21043 0)
(0.479897 0.202487 0)
(0.829566 0.801073 0)
(0.433743 0.134119 0)
(9.98515 0.0716139 0)
(9.99367 0.0531479 0)
(9.95039 0.11363 0)
(9.97087 0.102291 0)
(9.89436 0.154133 0)
(9.92691 0.147953 0)
(9.81882 0.195573 0)
(9.86185 0.193721 0)
(9.72442 0.238811 0)
(9.77746 0.241277 0)
(9.61112 0.284324 0)
(9.67467 0.291163 0)
(9.47874 0.33272 0)
(9.55343 0.343955 0)
(9.32695 0.384673 0)
(9.41336 0.400371 0)
(9.15523 0.440845 0)
(9.254 0.461138 0)
(8.96291 0.501881 0)
(9.07484 0.526959 0)
(8.74917 0.568424 0)
(8.8752 0.598533 0)
(8.51304 0.641108 0)
(8.6543 0.676558 0)
(8.25347 0.720525 0)
(8.41123 0.761715 0)
(7.96926 0.807183 0)
(8.145 0.85463 0)
(7.65919 0.901429 0)
(7.85455 0.955811 0)
(7.32194 1.00334 0)
(7.53876 1.06556 0)
(6.95623 1.11256 0)
(7.19647 1.18384 0)
(6.56087 1.22812 0)
(6.82655 1.31007 0)
(6.13492 1.34816 0)
(6.42792 1.4429 0)
(5.67788 1.46959 0)
(5.9997 1.57989 0)
(5.19004 1.58776 0)
(5.54138 1.71707 0)
(4.67291 1.69602 0)
(5.0531 1.84853 0)
(4.12985 1.78515 0)
(4.53601 1.96583 0)
(3.5667 1.84253 0)
(3.99278 2.0573 0)
(2.9921 1.85073 0)
(3.42765 2.10715 0)
(2.41589 1.7825 0)
(2.84768 2.0945 0)
(1.84058 1.60048 0)
(2.25627 1.98876 0)
(1.25942 1.27846 0)
(1.66035 1.75308 0)
(0.666789 0.789578 0)
(1.02399 1.36781 0)
(0.523045 0.787198 0)
(9.98337 0.0844073 0)
(9.99316 0.0612914 0)
(9.94821 0.136837 0)
(9.96958 0.119927 0)
(9.89314 0.188032 0)
(9.92575 0.17624 0)
(9.81906 0.240168 0)
(9.86199 0.232698 0)
(9.72663 0.294466 0)
(9.77964 0.291086 0)
(9.6159 0.351658 0)
(9.6794 0.352273 0)
(9.48671 0.412468 0)
(9.56128 0.416975 0)
(9.33879 0.477673 0)
(9.42497 0.486006 0)
(9.17171 0.548047 0)
(9.27009 0.560201 0)
(8.98493 0.62435 0)
(9.0962 0.640382 0)
(8.77779 0.707337 0)
(8.90274 0.727362 0)
(8.54954 0.797757 0)
(8.68907 0.821949 0)
(8.29936 0.896317 0)
(8.45444 0.924933 0)
(8.02635 1.00364 0)
(8.19808 1.03704 0)
(7.72958 1.12019 0)
(7.91912 1.1589 0)
(7.40806 1.24615 0)
(7.6167 1.29091 0)
(7.06078 1.38126 0)
(7.28986 1.43313 0)
(6.68671 1.52457 0)
(6.93764 1.58509 0)
(6.28488 1.67417 0)
(6.55901 1.74549 0)
(5.85441 1.82677 0)
(6.1529 1.91187 0)
(5.39474 1.97724 0)
(5.71825 2.08015 0)
(4.90579 2.11804 0)
(5.25412 2.24408 0)
(4.3883 2.2386 0)
(4.75978 2.3946 0)
(3.84399 2.32455 0)
(4.235 2.51919 0)
(3.27549 2.35696 0)
(3.67994 2.60124 0)
(2.68544 2.31061 0)
(3.09577 2.61972 0)
(2.07273 2.15504 0)
(2.48174 2.54735 0)
(1.42941 1.86744 0)
(1.83995 2.35376 0)
(0.742627 1.41962 0)
(1.13139 2.02458 0)
(0.543317 1.51456 0)
(9.98264 0.0974975 0)
(9.99299 0.0697927 0)
(9.94744 0.159774 0)
(9.96925 0.137583 0)
(9.89354 0.221347 0)
(9.92597 0.203926 0)
(9.82134 0.284091 0)
(9.86381 0.270687 0)
(9.73134 0.349346 0)
(9.78386 0.339581 0)
(9.62367 0.418017 0)
(9.68665 0.411695 0)
(9.49819 0.490935 0)
(9.57218 0.4879 0)
(9.35465 0.56897 0)
(9.44021 0.569101 0)
(9.19269 0.652999 0)
(9.29043 0.656229 0)
(9.01183 0.743892 0)
(9.12242 0.750208 0)
(8.81151 0.842509 0)
(8.93571 0.85195 0)
(8.59109 0.9497 0)
(8.72973 0.962358 0)
(8.34985 1.06627 0)
(8.50382 1.08231 0)
(8.08706 1.19295 0)
(8.25728 1.21263 0)
(7.80193 1.33029 0)
(7.98938 1.35403 0)
(7.4936 1.47858 0)
(7.6993 1.50701 0)
(7.1612 1.63767 0)
(7.38618 1.67175 0)
(6.80374 1.80673 0)
(7.04904 1.8479 0)
(6.42013 1.98395 0)
(6.68677 2.03434 0)
(6.00915 2.16612 0)
(6.29803 2.22882 0)
(5.56944 2.34809 0)
(5.88122 2.42747 0)
(5.0995 2.5222 0)
(5.43438 2.62424 0)
(4.59779 2.67756 0)
(4.95516 2.81028 0)
(4.06275 2.7995 0)
(4.44089 2.97322 0)
(3.49275 2.86912 0)
(3.88857 3.09663 0)
(2.88588 2.86294 0)
(3.29528 3.15992 0)
(2.23806 2.75397 0)
(2.65695 3.13794 0)
(1.54247 2.52108 0)
(1.97488 3.00324 0)
(0.793664 2.1314 0)
(1.20727 2.74067 0)
(0.556748 2.2919 0)
(9.9825 0.110626 0)
(9.99302 0.0783613 0)
(9.9477 0.182324 0)
(9.96954 0.155037 0)
(9.89522 0.253816 0)
(9.92722 0.230885 0)
(9.82524 0.326765 0)
(9.86697 0.307508 0)
(9.73813 0.402553 0)
(9.78978 0.386521 0)
(9.63403 0.482231 0)
(9.69605 0.469146 0)
(9.51285 0.566754 0)
(9.58579 0.556394 0)
(9.37438 0.657088 0)
(9.4588 0.649266 0)
(9.21828 0.754207 0)
(9.3148 0.748782 0)
(9.04414 0.859078 0)
(9.15346 0.855956 0)
(8.85145 0.972654 0)
(8.97434 0.971793 0)
(8.63962 1.09587 0)
(8.77691 1.09729 0)
(8.40803 1.22963 0)
(8.56058 1.23341 0)
(8.15595 1.37474 0)
(8.3247 1.38106 0)
(7.88265 1.53185 0)
(8.06853 1.54107 0)
(7.58728 1.70137 0)
(7.79126 1.71403 0)
(7.26891 1.88328 0)
(7.49197 1.90029 0)
(6.92644 2.07696 0)
(7.16955 2.09969 0)
(6.55853 2.28084 0)
(6.82268 2.31137 0)
(6.1635 2.49204 0)
(6.44961 2.53347 0)
(5.73916 2.70582 0)
(6.04813 2.76263 0)
(5.28277 2.91498 0)
(5.61528 2.99345 0)
(4.79088 3.10915 0)
(5.14729 3.21784 0)
(4.25935 3.27421 0)
(4.63944 3.42427 0)
(3.68345 3.39187 0)
(4.08612 3.59716 0)
(3.0581 3.43971 0)
(3.48138 3.71656 0)
(2.37778 3.39184 0)
(2.81842 3.75817 0)
(1.63794 3.22624 0)
(2.0992 3.69404 0)
(0.83915 2.90092 0)
(1.27895 3.50456 0)
(0.573375 3.1138 0)
(9.98273 0.123581 0)
(9.99316 0.0868173 0)
(9.94873 0.204309 0)
(9.97027 0.172092 0)
(9.89794 0.285251 0)
(9.92926 0.256974 0)
(9.83051 0.367964 0)
(9.87123 0.342987 0)
(9.74671 0.453849 0)
(9.79715 0.431676 0)
(9.64668 0.544074 0)
(9.70735 0.524348 0)
(9.53038 0.639703 0)
(9.6018 0.622132 0)
(9.39762 0.741795 0)
(9.48038 0.726121 0)
(9.24813 0.851408 0)
(9.34286 0.837419 0)
(9.08153 0.969599 0)
(9.18894 0.957125 0)
(8.89736 1.09741 0)
(9.01824 1.08633 0)
(8.6951 1.23587 0)
(8.83029 1.22613 0)
(8.47413 1.38597 0)
(8.62455 1.37757 0)
(8.23377 1.54862 0)
(8.40037 1.54167 0)
(7.97323 1.72459 0)
(8.15702 1.71936 0)
(7.69162 1.91443 0)
(7.89364 1.91141 0)
(7.38787 2.11833 0)
(7.60921 2.11834 0)
(7.06064 2.33594 0)
(7.30243 2.34027 0)
(6.70823 2.5661 0)
(6.97167 2.57674 0)
(6.3284 2.80646 0)
(6.61475 2.82641 0)
(5.91814 3.05303 0)
(6.22875 3.08668 0)
(5.4735 3.29951 0)
(5.80979 3.35315 0)
(4.98936 3.53665 0)
(5.35271 3.61897 0)
(4.4594 3.75142 0)
(4.85094 3.87399 0)
(3.87629 3.92648 0)
(4.2965 4.10395 0)
(3.2324 4.03989 0)
(3.68063 4.28971 0)
(2.52089 4.06504 0)
(2.99358 4.40682 0)
(1.73842 3.97621 0)
(2.23744 4.42465 0)
(0.889497 3.71885 0)
(1.3634 4.31639 0)
(0.598772 3.985 0)
(9.98321 0.136203 0)
(9.99339 0.0950402 0)
(9.95032 0.225571 0)
(9.97131 0.188589 0)
(9.90151 0.315495 0)
(9.93193 0.282048 0)
(9.83694 0.407502 0)
(9.87643 0.376959 0)
(9.75684 0.50301 0)
(9.80579 0.474838 0)
(9.66135 0.603273 0)
(9.7203 0.577047 0)
(9.55046 0.709454 0)
(9.61995 0.68481 0)
(9.42403 0.822695 0)
(9.50465 0.799311 0)
(9.28184 0.944138 0)
(9.37422 0.921728 0)
(9.12356 1.07492 0)
(9.22843 1.05324 0)
(8.94879 1.21618 0)
(9.06695 1.19503 0)
(8.75705 1.36903 0)
(8.88938 1.34826 0)
(8.54776 1.53457 0)
(8.6952 1.5141 0)
(8.32025 1.71382 0)
(8.48382 1.69369 0)
(8.07371 1.90772 0)
(8.25451 1.88808 0)
(7.80714 2.117 0)
(8.00637 2.09824 0)
(7.51934 2.34213 0)
(7.73827 2.32494 0)
(7.2087 2.58313 0)
(7.44875 2.56865 0)
(6.87313 2.83936 0)
(7.13587 2.82942 0)
(6.50981 3.10924 0)
(6.79704 3.1066 0)
(6.11493 3.38978 0)
(6.42872 3.39858 0)
(5.68338 3.676 0)
(6.0261 3.70227 0)
(5.20845 3.9602 0)
(5.58275 4.01246 0)
(4.68173 4.23099 0)
(5.0903 4.32095 0)
(4.09327 4.47233 0)
(4.53825 4.61539 0)
(3.4325 4.66258 0)
(3.91468 4.87789 0)
(2.69012 4.7732 0)
(3.20567 5.08362 0)
(1.86184 4.77247 0)
(2.41127 5.19803 0)
(0.954177 4.58981 0)
(1.47627 5.18439 0)
(0.63919 4.91956 0)
(9.98386 0.148369 0)
(9.99368 0.102944 0)
(9.95235 0.24597 0)
(9.9726 0.204394 0)
(9.90578 0.344398 0)
(9.9351 0.305969 0)
(9.84437 0.445197 0)
(9.88241 0.409269 0)
(9.76833 0.549809 0)
(9.81552 0.515815 0)
(9.6778 0.659556 0)
(9.73471 0.627008 0)
(9.57281 0.775683 0)
(9.63999 0.744154 0)
(9.45327 0.899412 0)
(9.53129 0.868511 0)
(9.31902 1.03196 0)
(9.40853 1.00133 0)
(9.16978 1.17454 0)
(9.27151 1.14387 0)
(9.00522 1.32839 0)
(9.11999 1.29737 0)
(8.82492 1.4947 0)
(8.95361 1.46311 0)
(8.62835 1.67469 0)
(8.77194 1.64235 0)
(8.41485 1.86952 0)
(8.57443 1.83634 0)
(8.18361 2.08031 0)
(8.36038 2.04632 0)
(7.93361 2.30802 0)
(8.1289 2.27347 0)
(7.66349 2.55347 0)
(7.87881 2.51885 0)
(7.37145 2.81715 0)
(7.60855 2.78336 0)
(7.05508 3.09908 0)
(7.316 3.06765 0)
(6.71105 3.39861 0)
(6.99823 3.37192 0)
(6.33484 3.71404 0)
(6.65122 3.69574 0)
(5.9203 4.04207 0)
(6.26944 4.03762 0)
(5.45922 4.37704 0)
(5.84535 4.39449 0)
(4.94101 4.70987 0)
(5.36883 4.7607 0)
(4.35266 5.02654 0)
(4.82674 5.12673 0)
(3.67952 5.3062 0)
(4.20312 5.47707 0)
(2.90745 5.51821 0)
(3.47784 5.7875 0)
(2.02761 5.62307 0)
(2.64498 6.01955 0)
(1.04508 5.52953 0)
(1.63768 6.124 0)
(0.704452 5.94315 0)
(9.98465 0.159981 0)
(9.99402 0.110463 0)
(9.95473 0.265382 0)
(9.97409 0.2194 0)
(9.91065 0.37182 0)
(9.93868 0.328612 0)
(9.85267 0.480883 0)
(9.88905 0.439776 0)
(9.781 0.594043 0)
(9.82618 0.554433 0)
(9.69581 0.712678 0)
(9.75038 0.674023 0)
(9.59716 0.838104 0)
(9.66166 0.799914 0)
(9.48502 0.97161 0)
(9.56003 0.933431 0)
(9.35927 1.11448 0)
(9.44543 1.07589 0)
(9.21973 1.26802 0)
(9.31776 1.2286 0)
(9.06612 1.43351 0)
(9.17684 1.3929 0)
(8.8981 1.61227 0)
(9.0224 1.57014 0)
(8.71521 1.80561 0)
(8.85409 1.76167 0)
(8.51685 2.01487 0)
(8.67145 1.96888 0)
(8.30226 2.24134 0)
(8.47384 2.19318 0)
(8.0704 2.48627 0)
(8.26045 2.43598 0)
(7.81989 2.75086 0)
(8.03012 2.69867 0)
(7.54885 3.03615 0)
(7.78131 2.98264 0)
(7.25466 3.34294 0)
(7.51184 3.28917 0)
(6.93371 3.67166 0)
(7.2187 3.61944 0)
(6.58097 4.02213 0)
(6.89766 3.97435 0)
(6.18951 4.39311 0)
(6.54277 4.3543 0)
(5.74983 4.7816 0)
(6.14576 4.75878 0)
(5.24917 5.18173 0)
(5.69513 5.18555 0)
(4.67099 5.58283 0)
(5.17513 5.62924 0)
(3.99494 5.96659 0)
(4.56513 6.07884 0)
(3.19843 6.30177 0)
(3.83635 6.51365 0)
(2.26177 6.54075 0)
(2.97082 6.89413 0)
(1.1806 6.56518 0)
(1.87911 7.15793 0)
(0.812789 7.09947 0)
(9.98553 0.170963 0)
(9.9944 0.117547 0)
(9.95738 0.283699 0)
(9.97572 0.233519 0)
(9.916 0.397635 0)
(9.94258 0.349869 0)
(9.86169 0.514411 0)
(9.89623 0.468351 0)
(9.79469 0.635533 0)
(9.83765 0.590539 0)
(9.71517 0.762426 0)
(9.76713 0.717908 0)
(9.62324 0.896463 0)
(9.68475 0.851872 0)
(9.51894 1.039 0)
(9.59055 0.993814 0)
(9.40221 1.19137 0)
(9.48456 1.1451 0)
(9.27293 1.35494 0)
(9.36673 1.30711 0)
(9.13093 1.53107 0)
(9.23698 1.48122 0)
(8.97595 1.72118 0)
(9.09514 1.66886 0)
(8.80763 1.92668 0)
(8.94096 1.87148 0)
(8.62546 2.14905 0)
(8.77407 2.0906 0)
(8.42876 2.38981 0)
(8.594 2.32779 0)
(8.21661 2.65048 0)
(8.40002 2.58467 0)
(7.9877 2.93267 0)
(8.19114 2.863 0)
(7.74018 3.238 0)
(7.96595 3.16461 0)
(7.4715 3.56812 0)
(7.72244 3.49149 0)
(7.17802 3.92464 0)
(7.45777 3.84578 0)
(6.85459 4.30908 0)
(7.16786 4.22982 0)
(6.49395 4.72259 0)
(6.84691 4.64605 0)
(6.08582 5.16549 0)
(6.48657 5.09693 0)
(5.61577 5.63628 0)
(6.07481 5.58443 0)
(5.0637 6.12981 0)
(5.59415 6.10904 0)
(4.40232 6.63379 0)
(5.01972 6.66757 0)
(3.5962 7.12125 0)
(4.31265 7.24856 0)
(2.60435 7.54068 0)
(3.43573 7.82024 0)
(1.3943 7.7405 0)
(2.25647 8.3151 0)
(1.00261 8.46511 0)
(9.9865 0.181252 0)
(9.9948 0.124156 0)
(9.96026 0.300832 0)
(9.97747 0.24668 0)
(9.92176 0.421733 0)
(9.94676 0.369646 0)
(9.87133 0.545649 0)
(9.90387 0.494885 0)
(9.80923 0.674121 0)
(9.84977 0.624002 0)
(9.73567 0.808611 0)
(9.78478 0.758504 0)
(9.6508 0.950539 0)
(9.70902 0.899843 0)
(9.55471 1.1013 0)
(9.62258 1.04944 0)
(9.44742 1.2623 0)
(9.52555 1.20871 0)
(9.3289 1.43494 0)
(9.41798 1.37908 0)
(9.19908 1.62065 0)
(9.29988 1.56196 0)
(9.05779 1.82092 0)
(9.17118 1.75886 0)
(8.9048 2.03727 0)
(9.03176 1.9713 0)
(8.73974 2.27132 0)
(8.88141 2.20089 0)
(8.5621 2.52475 0)
(8.7198 2.44935 0)
(8.3711 2.7994 0)
(8.54641 2.71854 0)
(8.16565 3.09725 0)
(8.3605 3.01048 0)
(7.94415 3.42048 0)
(8.16094 3.32746 0)
(7.70432 3.77157 0)
(7.9461 3.67208 0)
(7.44287 4.15334 0)
(7.71362 4.04741 0)
(7.15507 4.56904 0)
(7.46004 4.45715 0)
(6.83402 5.02241 0)
(7.18036 4.90577 0)
(6.46967 5.51758 0)
(6.86718 5.39881 0)
(6.04715 6.05867 0)
(6.50944 5.94297 0)
(5.54421 6.64872 0)
(6.09019 6.54615 0)
(4.92722 7.28701 0)
(5.58329 7.21677 0)
(4.14513 7.96146 0)
(4.94267 7.96157 0)
(3.12184 8.63363 0)
(4.10942 8.7757 0)
(1.75628 9.12791 0)
(2.87851 9.621 0)
(1.36474 10.1853 0)
(9.98754 0.190799 0)
(9.99523 0.13026 0)
(9.96332 0.316707 0)
(9.97932 0.258824 0)
(9.92785 0.444021 0)
(9.95115 0.387868 0)
(9.88148 0.574488 0)
(9.91187 0.519284 0)
(9.82448 0.709677 0)
(9.86243 0.654713 0)
(9.75712 0.851083 0)
(9.80317 0.795681 0)
(9.67958 1.00016 0)
(9.73425 0.943672 0)
(9.592 1.15834 0)
(9.65582 1.10014 0)
(9.49451 1.32706 0)
(9.56805 1.26652 0)
(9.38715 1.50777 0)
(9.47107 1.44427 0)
(9.26995 1.70195 0)
(9.36498 1.63485 0)
(9.14288 1.91113 0)
(9.24985 1.8398 0)
(9.00586 2.13692 0)
(9.1257 2.06069 0)
(8.85869 2.38106 0)
(8.99249 2.29922 0)
(8.70106 2.64539 0)
(8.8501 2.55723 0)
(8.53246 2.93198 0)
(8.69826 2.83671 0)
(8.35211 3.24314 0)
(8.53656 3.13995 0)
(8.15885 3.58155 0)
(8.3643 3.46955 0)
(7.95092 3.95039 0)
(8.18043 3.82864 0)
(7.7258 4.35356 0)
(7.98335 4.22103 0)
(7.47973 4.79591 0)
(7.7707 4.65151 0)
(7.20714 5.28363 0)
(7.53899 5.12629 0)
(6.89966 5.82471 0)
(7.28299 5.65357 0)
(6.54432 6.42949 0)
(6.9947 6.24451 0)
(6.12038 7.11141 0)
(6.6614 6.9146 0)
(5.5931 7.8876 0)
(6.26253 7.68612 0)
(4.90096 8.77791 0)
(5.75765 8.59256 0)
(3.92695 9.80159 0)
(5.08744 9.68516 0)
(2.43326 10.8568 0)
(3.9796 11.0494 0)
(2.14628 12.5685 0)
(9.98862 0.199563 0)
(9.99567 0.135836 0)
(9.96652 0.331262 0)
(9.98124 0.269906 0)
(9.9342 0.464418 0)
(9.9557 0.404472 0)
(9.89202 0.600821 0)
(9.92016 0.541476 0)
(9.8403 0.742065 0)
(9.87552 0.682582 0)
(9.77932 0.889668 0)
(9.82216 0.829337 0)
(9.70931 1.04511 0)
(9.76027 0.983241 0)
(9.6305 1.20985 0)
(9.69009 1.14576 0)
(9.54306 1.38533 0)
(9.61184 1.31837 0)
(9.44716 1.57305 0)
(9.52576 1.50251 0)
(9.34294 1.7745 0)
(9.43205 1.69967 0)
(9.2305 1.99126 0)
(9.3309 1.91142 0)
(9.10993 2.225 0)
(9.22251 2.13935 0)
(8.98123 2.47751 0)
(9.10701 2.38521 0)
(8.84435 2.75077 0)
(8.98453 2.6509 0)
(8.6991 3.047 0)
(8.85512 2.93852 0)
(8.54513 3.36875 0)
(8.71875 3.25047 0)
(8.38184 3.71907 0)
(8.57526 3.58961 0)
(8.20827 4.10164 0)
(8.42431 3.95934 0)
(8.02296 4.52115 0)
(8.26533 4.36394 0)
(7.82373 4.98363 0)
(8.0974 4.80888 0)
(7.60729 5.49712 0)
(7.91918 5.30138 0)
(7.36861 6.07268 0)
(7.72868 5.85133 0)
(7.09978 6.72596 0)
(7.52304 6.47264 0)
(6.78763 7.48017 0)
(7.29801 7.1859 0)
(6.40861 8.37204 0)
(7.04812 8.0235 0)
(5.91571 9.46604 0)
(6.76319 9.04193 0)
(5.1963 10.9085 0)
(6.46223 10.3569 0)
(3.88467 13.1791 0)
(6.19026 12.3037 0)
(5.25966 16.3733 0)
(0.186123 -0.11265 0)
(0.108338 -0.182296 0)
(0.365058 -0.0968031 0)
(0.264793 -0.171117 0)
(0.513972 -0.0753528 0)
(0.421763 -0.139045 0)
(0.632767 -0.056482 0)
(0.555511 -0.108301 0)
(0.726303 -0.0414764 0)
(0.662457 -0.0832591 0)
(0.799725 -0.0299522 0)
(0.747307 -0.0638124 0)
(0.857484 -0.0212626 0)
(0.815537 -0.0490133 0)
(0.903244 -0.014816 0)
(0.871417 -0.0379136 0)
(0.939967 -0.0101204 0)
(0.918044 -0.029708 0)
(0.970026 -0.00677808 0)
(0.957752 -0.0237432 0)
(0.995312 -0.00447081 0)
(0.99238 -0.0195006 0)
(1.01731 -0.00293987 0)
(1.02338 -0.016567 0)
(1.03717 -0.0019653 0)
(1.0519 -0.0145993 0)
(1.05569 -0.00134953 0)
(1.07878 -0.0132941 0)
(1.07334 -0.000908449 0)
(1.1046 -0.012368 0)
(1.09022 -0.000472502 0)
(1.12968 -0.0115527 0)
(1.10609 9.93172e-05 0)
(1.15404 -0.0106079 0)
(1.12043 0.000893866 0)
(1.17745 -0.00935536 0)
(1.13256 0.00191978 0)
(1.19948 -0.00772347 0)
(1.14185 0.00310787 0)
(1.21959 -0.00577563 0)
(1.14791 0.00434524 0)
(1.23735 -0.00368345 0)
(1.15069 0.00550991 0)
(1.25254 -0.00165005 0)
(1.15043 0.00648225 0)
(1.26517 0.000155272 0)
(1.1469 0.00732802 0)
(1.27522 0.001992 0)
(1.1399 0.00817191 0)
(1.28245 0.00386269 0)
(1.12908 0.00890866 0)
(1.28648 0.0058291 0)
(1.11466 0.00927937 0)
(1.28667 0.00758742 0)
(1.09787 0.00895008 0)
(1.28326 0.00862799 0)
(1.08135 0.00730262 0)
(1.27806 0.00828354 0)
(1.27323 0.00540093 0)
(0.170329 -0.265879 0)
(0.0892738 -0.349122 0)
(0.33523 -0.235005 0)
(0.23213 -0.328812 0)
(0.474873 -0.188901 0)
(0.366951 -0.269432 0)
(0.58953 -0.147774 0)
(0.482476 -0.212831 0)
(0.683759 -0.115007 0)
(0.57623 -0.167135 0)
(0.762056 -0.0898325 0)
(0.652731 -0.131861 0)
(0.828132 -0.0708096 0)
(0.716488 -0.105084 0)
(0.884887 -0.0566081 0)
(0.770836 -0.0849383 0)
(0.934583 -0.0461381 0)
(0.818103 -0.0699105 0)
(0.978986 -0.038534 0)
(0.860008 -0.0588156 0)
(1.01948 -0.0331138 0)
(0.897897 -0.0507302 0)
(1.05715 -0.0293322 0)
(0.932831 -0.0449309 0)
(1.09283 -0.0267331 0)
(0.965642 -0.0408312 0)
(1.12714 -0.024913 0)
(0.996965 -0.0379286 0)
(1.16053 -0.0234979 0)
(1.02727 -0.0357678 0)
(1.19322 -0.0221408 0)
(1.05687 -0.0339224 0)
(1.22524 -0.0205452 0)
(1.08593 -0.0320013 0)
(1.25641 -0.0185163 0)
(1.11441 -0.0296937 0)
(1.28643 -0.0160155 0)
(1.14214 -0.0268439 0)
(1.31495 -0.0131732 0)
(1.16879 -0.0235151 0)
(1.34176 -0.0102169 0)
(1.19407 -0.0199654 0)
(1.36679 -0.00734029 0)
(1.21783 -0.0164872 0)
(1.38981 -0.00458922 0)
(1.24011 -0.0131721 0)
(1.41069 -0.00178719 0)
(1.26098 -0.00981311 0)
(1.42898 0.00127063 0)
(1.28058 -0.00623143 0)
(1.44397 0.0044169 0)
(1.29866 -0.00224519 0)
(1.45501 0.00695185 0)
(1.31477 0.00178014 0)
(1.46297 0.00801271 0)
(1.32825 0.00453711 0)
(1.46993 0.00694137 0)
(1.33874 0.0047946 0)
(1.34824 0.0030849 0)
(0.14199 -0.418809 0)
(0.0686934 -0.488192 0)
(0.274219 -0.370458 0)
(0.185726 -0.455264 0)
(0.383621 -0.300107 0)
(0.284796 -0.371583 0)
(0.472502 -0.237948 0)
(0.369203 -0.293861 0)
(0.545425 -0.188661 0)
(0.436134 -0.232046 0)
(0.606245 -0.150817 0)
(0.490557 -0.184721 0)
(0.657981 -0.122125 0)
(0.535906 -0.148986 0)
(0.702795 -0.100521 0)
(0.574593 -0.122069 0)
(0.742313 -0.084375 0)
(0.608143 -0.101879 0)
(0.7778 -0.0724205 0)
(0.637699 -0.0868456 0)
(0.810255 -0.0636704 0)
(0.664176 -0.0757594 0)
(0.840466 -0.057342 0)
(0.688304 -0.0676801 0)
(0.869055 -0.0527892 0)
(0.710662 -0.0618503 0)
(0.896502 -0.0494505 0)
(0.731712 -0.0576312 0)
(0.923164 -0.0468133 0)
(0.751817 -0.0544549 0)
(0.949274 -0.0444004 0)
(0.771265 -0.0517908 0)
(0.974923 -0.0417935 0)
(0.790266 -0.049139 0)
(1.00003 -0.0386989 0)
(0.808921 -0.0460759 0)
(1.02438 -0.0350346 0)
(0.827178 -0.0423541 0)
(1.04769 -0.0309694 0)
(0.844817 -0.0380128 0)
(1.0698 -0.0268285 0)
(0.861493 -0.0333878 0)
(1.09077 -0.0228539 0)
(0.876961 -0.0289234 0)
(1.11094 -0.0189776 0)
(0.89132 -0.0248448 0)
(1.13069 -0.0149057 0)
(0.905065 -0.02098 0)
(1.15016 -0.0103721 0)
(0.918724 -0.0169739 0)
(1.16928 -0.00550633 0)
(0.932408 -0.012548 0)
(1.18751 -0.00120228 0)
(0.946166 -0.007814 0)
(1.20337 0.00121025 0)
(0.958811 -0.00361061 0)
(1.21548 0.00120383 0)
(0.968228 -0.00127711 0)
(0.97267 -0.000583546 0)
(0.110826 -0.534483 0)
(0.0480376 -0.596739 0)
(0.204777 -0.466605 0)
(0.133443 -0.54511 0)
(0.277853 -0.375421 0)
(0.190763 -0.439815 0)
(0.335327 -0.297203 0)
(0.240417 -0.346259 0)
(0.38157 -0.236171 0)
(0.276068 -0.273208 0)
(0.419555 -0.189719 0)
(0.304092 -0.217734 0)
(0.45155 -0.154637 0)
(0.326383 -0.176137 0)
(0.478857 -0.128165 0)
(0.344552 -0.144693 0)
(0.502432 -0.108274 0)
(0.359321 -0.120952 0)
(0.523041 -0.0934313 0)
(0.371331 -0.103124 0)
(0.5413 -0.082458 0)
(0.381137 -0.0898404 0)
(0.557708 -0.0744204 0)
(0.389175 -0.0800357 0)
(0.572676 -0.0685545 0)
(0.395804 -0.0728545 0)
(0.586543 -0.0642059 0)
(0.401332 -0.0675861 0)
(0.599611 -0.0607856 0)
(0.406041 -0.0636138 0)
(0.612138 -0.0577402 0)
(0.410215 -0.0603639 0)
(0.624317 -0.0545633 0)
(0.414142 -0.0572768 0)
(0.636211 -0.0508651 0)
(0.418087 -0.0538354 0)
(0.647703 -0.0464889 0)
(0.422172 -0.0496742 0)
(0.658509 -0.0416001 0)
(0.426302 -0.0447337 0)
(0.668336 -0.0366306 0)
(0.429984 -0.0393554 0)
(0.677127 -0.0320358 0)
(0.432654 -0.0341354 0)
(0.685165 -0.0279892 0)
(0.433746 -0.0294984 0)
(0.692988 -0.0242645 0)
(0.433466 -0.0254018 0)
(0.701017 -0.0203863 0)
(0.432361 -0.0214051 0)
(0.70919 -0.0159859 0)
(0.430745 -0.0169519 0)
(0.716779 -0.0112205 0)
(0.430248 -0.0118066 0)
(0.722368 -0.00692187 0)
(0.429285 -0.00648188 0)
(0.723666 -0.00365401 0)
(0.426781 -0.00192806 0)
(0.419533 -0.000808282 0)
(0.0747119 -0.615138 0)
(0.0262016 -0.669915 0)
(0.126415 -0.52636 0)
(0.0747281 -0.594554 0)
(0.159998 -0.418303 0)
(0.0863186 -0.471172 0)
(0.182926 -0.329046 0)
(0.0993712 -0.367161 0)
(0.19925 -0.260563 0)
(0.100815 -0.287739 0)
(0.21056 -0.208951 0)
(0.0991573 -0.227563 0)
(0.218688 -0.170069 0)
(0.0946573 -0.183035 0)
(0.22406 -0.140553 0)
(0.0883495 -0.149144 0)
(0.22715 -0.118196 0)
(0.0803922 -0.123451 0)
(0.228369 -0.101359 0)
(0.0712018 -0.104087 0)
(0.228051 -0.0887766 0)
(0.0611187 -0.0895946 0)
(0.226472 -0.0794514 0)
(0.050383 -0.0788469 0)
(0.223877 -0.0725743 0)
(0.0392062 -0.0709469 0)
(0.220503 -0.0674652 0)
(0.0277876 -0.0651641 0)
(0.216607 -0.0635194 0)
(0.0163285 -0.060883 0)
(0.212482 -0.0601586 0)
(0.00506742 -0.057541 0)
(0.208432 -0.0568146 0)
(-0.0057025 -0.0545705 0)
(0.20469 -0.0529817 0)
(-0.0156585 -0.0513938 0)
(0.20129 -0.0483469 0)
(-0.0245759 -0.0475085 0)
(0.19795 -0.0429367 0)
(-0.032438 -0.0426568 0)
(0.194031 -0.0371353 0)
(-0.039655 -0.0369755 0)
(0.188725 -0.0314601 0)
(-0.0468868 -0.0309892 0)
(0.181525 -0.0262311 0)
(-0.0550914 -0.0253306 0)
(0.172468 -0.0213887 0)
(-0.0646391 -0.020282 0)
(0.16216 -0.0166038 0)
(-0.0754158 -0.0157166 0)
(0.151796 -0.0115275 0)
(-0.0872036 -0.0113673 0)
(0.141697 -0.00602699 0)
(-0.0980921 -0.006493 0)
(0.131107 -0.000656304 0)
(-0.108776 -0.00104174 0)
(0.121694 0.00134769 0)
(-0.11751 0.00279311 0)
(-0.127878 0.00188879 0)
(0.0332031 -0.655862 0)
(0.00189324 -0.702435 0)
(0.0393347 -0.545554 0)
(0.008461 -0.600418 0)
(0.0314294 -0.424533 0)
(-0.0268345 -0.46379 0)
(0.018343 -0.328366 0)
(-0.0524691 -0.355231 0)
(0.00142912 -0.255441 0)
(-0.0867044 -0.272684 0)
(-0.0166768 -0.201309 0)
(-0.120418 -0.211827 0)
(-0.0360773 -0.161096 0)
(-0.153811 -0.166572 0)
(-0.0561918 -0.130667 0)
(-0.18616 -0.132478 0)
(-0.0766491 -0.107757 0)
(-0.217341 -0.106902 0)
(-0.0971667 -0.0906181 0)
(-0.247071 -0.0878808 0)
(-0.117555 -0.0779051 0)
(-0.275205 -0.0738708 0)
(-0.137668 -0.0685792 0)
(-0.301739 -0.0637021 0)
(-0.157374 -0.0618086 0)
(-0.326718 -0.0564591 0)
(-0.176541 -0.056909 0)
(-0.350207 -0.0514048 0)
(-0.19501 -0.0532947 0)
(-0.372263 -0.0479378 0)
(-0.21257 -0.0504144 0)
(-0.392884 -0.0455247 0)
(-0.228966 -0.0477031 0)
(-0.411976 -0.0436144 0)
(-0.243982 -0.0446072 0)
(-0.42939 -0.0415979 0)
(-0.257518 -0.0407128 0)
(-0.445031 -0.0388862 0)
(-0.269669 -0.0359189 0)
(-0.458971 -0.0350992 0)
(-0.280749 -0.0305101 0)
(-0.471533 -0.0302474 0)
(-0.291285 -0.0250014 0)
(-0.483272 -0.0247423 0)
(-0.301905 -0.0198338 0)
(-0.494873 -0.0191825 0)
(-0.313006 -0.0151179 0)
(-0.506854 -0.0140074 0)
(-0.324684 -0.0105791 0)
(-0.519381 -0.00927187 0)
(-0.337139 -0.00580101 0)
(-0.53238 -0.00465568 0)
(-0.34974 -0.000952558 0)
(-0.544615 0.000136897 0)
(-0.360034 0.00278055 0)
(-0.55512 0.00424583 0)
(-0.366558 0.00377545 0)
(-0.5631 0.00606551 0)
(-0.570013 0.0049077 0)
(-0.0150056 -0.650319 0)
(-0.027286 -0.687738 0)
(-0.05538 -0.519877 0)
(-0.0664848 -0.561808 0)
(-0.104411 -0.391984 0)
(-0.147617 -0.418009 0)
(-0.156105 -0.294846 0)
(-0.213356 -0.308103 0)
(-0.207461 -0.223418 0)
(-0.282581 -0.22697 0)
(-0.257 -0.171209 0)
(-0.347583 -0.168772 0)
(-0.303951 -0.132506 0)
(-0.407628 -0.126731 0)
(-0.34786 -0.103828 0)
(-0.462135 -0.0960975 0)
(-0.388514 -0.0827901 0)
(-0.511239 -0.074014 0)
(-0.42587 -0.0675634 0)
(-0.555337 -0.0583745 0)
(-0.460045 -0.0567204 0)
(-0.594878 -0.0475147 0)
(-0.491262 -0.0491794 0)
(-0.630397 -0.0401955 0)
(-0.519798 -0.0440994 0)
(-0.66242 -0.0354791 0)
(-0.545934 -0.0408133 0)
(-0.691439 -0.0326432 0)
(-0.569898 -0.0387705 0)
(-0.717879 -0.0311415 0)
(-0.591819 -0.0374523 0)
(-0.742035 -0.0305235 0)
(-0.611743 -0.0362947 0)
(-0.764035 -0.0303018 0)
(-0.629712 -0.0346949 0)
(-0.783915 -0.0298751 0)
(-0.645861 -0.0321327 0)
(-0.801752 -0.0285992 0)
(-0.660494 -0.0283629 0)
(-0.817799 -0.0259985 0)
(-0.674063 -0.0235347 0)
(-0.832529 -0.0220076 0)
(-0.687092 -0.018116 0)
(-0.846538 -0.017017 0)
(-0.700082 -0.0126579 0)
(-0.860372 -0.0116627 0)
(-0.713339 -0.00752674 0)
(-0.874376 -0.00651387 0)
(-0.726914 -0.00283782 0)
(-0.888259 -0.00178039 0)
(-0.739839 0.00142009 0)
(-0.90115 0.00230928 0)
(-0.750638 0.00498208 0)
(-0.912464 0.00581853 0)
(-0.759173 0.00697573 0)
(-0.9218 0.00863008 0)
(-0.766182 0.00673175 0)
(-0.929987 0.0095811 0)
(-0.934899 0.00827922 0)
(-0.066446 -0.595963 0)
(-0.0635574 -0.622659 0)
(-0.156811 -0.453329 0)
(-0.151519 -0.475391 0)
(-0.248209 -0.325922 0)
(-0.280386 -0.332669 0)
(-0.337376 -0.231744 0)
(-0.385812 -0.226812 0)
(-0.4211 -0.164832 0)
(-0.486346 -0.152444 0)
(-0.497521 -0.118356 0)
(-0.577607 -0.102354 0)
(-0.56564 -0.085816 0)
(-0.658881 -0.068926 0)
(-0.625689 -0.0628418 0)
(-0.729759 -0.0463441 0)
(-0.678374 -0.0468793 0)
(-0.789695 -0.0313929 0)
(-0.724643 -0.0361479 0)
(-0.840841 -0.0218286 0)
(-0.765462 -0.0292335 0)
(-0.884882 -0.0160347 0)
(-0.801696 -0.0250791 0)
(-0.923287 -0.012911 0)
(-0.83409 -0.0228843 0)
(-0.957227 -0.0116628 0)
(-0.863284 -0.0220449 0)
(-0.987646 -0.0116864 0)
(-0.889788 -0.022108 0)
(-1.0153 -0.0125651 0)
(-0.913904 -0.0226731 0)
(-1.04069 -0.0140197 0)
(-0.935774 -0.0232597 0)
(-1.06405 -0.0156886 0)
(-0.9555 -0.023266 0)
(-1.08533 -0.0170064 0)
(-0.973287 -0.0220928 0)
(-1.1044 -0.017269 0)
(-0.989555 -0.0193886 0)
(-1.12161 -0.0158803 0)
(-1.00488 -0.0152487 0)
(-1.13757 -0.0127033 0)
(-1.01977 -0.0102 0)
(-1.15299 -0.00818604 0)
(-1.03464 -0.00500878 0)
(-1.16832 -0.00305566 0)
(-1.04921 -0.000338578 0)
(-1.18296 0.00171942 0)
(-1.06237 0.00359664 0)
(-1.19653 0.00548567 0)
(-1.07372 0.00695931 0)
(-1.20842 0.00842399 0)
(-1.0837 0.00974108 0)
(-1.219 0.0110679 0)
(-1.09235 0.0112457 0)
(-1.22862 0.0130776 0)
(-1.10003 0.0109311 0)
(-1.23672 0.0134319 0)
(-1.24099 0.0122342 0)
(-0.126201 -0.48883 0)
(-0.111491 -0.499053 0)
(-0.272042 -0.342609 0)