/*--------------------------------*- C++ -*----------------------------------*\
  =========                 |
  \\      /  F ield         | OpenFOAM: The Open Source CFD Toolbox
   \\    /   O peration     | Website:  https://openfoam.org
    \\  /    A nd           | Version:  7
     \\/     M anipulation  |
\*---------------------------------------------------------------------------*/
FoamFile
{
    version     2.0;
    format      ascii;
    class       surfaceScalarField;
    location    "2.23";
    object      phi;
}
// * * * * * * * * * * * * * * * * * * * * * * * * * * * * * * * * * * * * * //

dimensions      [1 0 -1 0 0 0 0];

internalField   nonuniform List<scalar> 
23692
(
1.17321e-05
-9.72473e-08
1.19094e-05
-1.77255e-07
1.21595e-05
-2.50028e-07
1.24753e-05
-3.15757e-07
1.28515e-05
-3.76081e-07
1.32834e-05
-4.3178e-07
1.37667e-05
-4.83182e-07
1.42972e-05
-5.3045e-07
1.4871e-05
-5.73646e-07
1.54839e-05
-6.12805e-07
1.61319e-05
-6.47974e-07
1.68112e-05
-6.79238e-07
1.7518e-05
-7.06725e-07
1.82486e-05
-7.30603e-07
1.89996e-05
-7.5108e-07
1.97678e-05
-7.6839e-07
2.05504e-05
-7.82785e-07
2.13447e-05
-7.94526e-07
2.21483e-05
-8.03874e-07
2.29589e-05
-8.11079e-07
2.37748e-05
-8.16382e-07
2.45942e-05
-8.20002e-07
2.54157e-05
-8.22142e-07
2.62378e-05
-8.22981e-07
2.70596e-05
-8.22677e-07
2.78799e-05
-8.21368e-07
2.86979e-05
-8.19171e-07
2.95128e-05
-8.16183e-07
3.03239e-05
-8.12485e-07
3.11305e-05
-8.08144e-07
3.1932e-05
-8.03211e-07
3.27279e-05
-7.97727e-07
3.35177e-05
-7.91723e-07
3.43008e-05
-7.8522e-07
3.50768e-05
-7.78233e-07
3.58451e-05
-7.70771e-07
3.66054e-05
-7.62838e-07
3.73572e-05
-7.54433e-07
3.80999e-05
-7.45551e-07
3.88331e-05
-7.36185e-07
3.95563e-05
-7.26325e-07
4.0269e-05
-7.15958e-07
4.09706e-05
-7.0507e-07
4.16607e-05
-6.93642e-07
4.23386e-05
-6.81655e-07
4.30039e-05
-6.69087e-07
4.36558e-05
-6.55911e-07
4.42938e-05
-6.421e-07
4.49172e-05
-6.27622e-07
4.55253e-05
-6.1244e-07
4.61174e-05
-5.96515e-07
4.66926e-05
-5.79799e-07
4.72501e-05
-5.62243e-07
4.77891e-05
-5.43787e-07
4.83085e-05
-5.24364e-07
4.88074e-05
-5.03898e-07
4.92846e-05
-4.82302e-07
4.97389e-05
-4.59475e-07
5.01689e-05
-4.35301e-07
5.05732e-05
-4.09642e-07
5.09502e-05
-3.82338e-07
5.12979e-05
-3.53199e-07
5.16144e-05
-3.21994e-07
5.18972e-05
-2.88444e-07
5.21439e-05
-2.52208e-07
5.23511e-05
-2.12856e-07
5.25153e-05
-1.69846e-07
5.26321e-05
-1.22482e-07
5.26964e-05
-6.98541e-08
5.27015e-05
-1.07579e-08
5.26393e-05
5.65867e-08
5.24989e-05
1.3482e-07
5.22656e-05
2.27823e-07
5.19186e-05
3.41567e-07
5.14275e-05
4.85676e-07
5.07459e-05
6.76382e-07
4.97984e-05
9.42356e-07
4.84561e-05
1.33718e-06
4.64798e-05
1.97149e-06
4.33568e-05
3.11822e-06
5.89896e-06
3.74534e-05
1.25511e-05
-1.98746e-07
1.27398e-05
-3.659e-07
1.30066e-05
-5.16777e-07
1.33437e-05
-6.52819e-07
1.37455e-05
-7.77716e-07
1.42068e-05
-8.93024e-07
1.47232e-05
-9.99424e-07
1.52901e-05
-1.09726e-06
1.59032e-05
-1.18665e-06
1.65582e-05
-1.26769e-06
1.72508e-05
-1.34046e-06
1.79767e-05
-1.40514e-06
1.8732e-05
-1.46199e-06
1.95128e-05
-1.51138e-06
2.03154e-05
-1.55372e-06
2.11363e-05
-1.5895e-06
2.19726e-05
-1.61925e-06
2.28213e-05
-1.6435e-06
2.36799e-05
-1.6628e-06
2.4546e-05
-1.67766e-06
2.54177e-05
-1.68858e-06
2.62931e-05
-1.69601e-06
2.71706e-05
-1.70039e-06
2.80488e-05
-1.70206e-06
2.89265e-05
-1.70137e-06
2.98026e-05
-1.6986e-06
3.06762e-05
-1.69399e-06
3.15464e-05
-1.68773e-06
3.24124e-05
-1.68001e-06
3.32735e-05
-1.67095e-06
3.41292e-05
-1.66066e-06
3.49787e-05
-1.64923e-06
3.58216e-05
-1.63672e-06
3.66573e-05
-1.62318e-06
3.74853e-05
-1.60862e-06
3.8305e-05
-1.59308e-06
3.9116e-05
-1.57656e-06
3.99178e-05
-1.55906e-06
4.07098e-05
-1.54056e-06
4.14914e-05
-1.52106e-06
4.22623e-05
-1.50052e-06
4.30218e-05
-1.47894e-06
4.37693e-05
-1.45626e-06
4.45043e-05
-1.43246e-06
4.52262e-05
-1.4075e-06
4.59343e-05
-1.38133e-06
4.66281e-05
-1.35389e-06
4.73067e-05
-1.32513e-06
4.79695e-05
-1.29499e-06
4.86158e-05
-1.26338e-06
4.92447e-05
-1.23023e-06
4.98555e-05
-1.19543e-06
5.04471e-05
-1.1589e-06
5.10186e-05
-1.1205e-06
5.15691e-05
-1.0801e-06
5.20974e-05
-1.03754e-06
5.26023e-05
-9.92657e-07
5.30825e-05
-9.45234e-07
5.35366e-05
-8.95039e-07
5.3963e-05
-8.41796e-07
5.43601e-05
-7.85183e-07
5.47259e-05
-7.24816e-07
5.50582e-05
-6.60237e-07
5.53547e-05
-5.90891e-07
5.56126e-05
-5.16101e-07
5.58287e-05
-4.35021e-07
5.59994e-05
-3.46589e-07
5.61204e-05
-2.49447e-07
5.61863e-05
-1.4183e-07
5.61909e-05
-2.13969e-08
5.61264e-05
1.15144e-07
5.59827e-05
2.72514e-07
5.57471e-05
4.57525e-07
5.54026e-05
6.80262e-07
5.49264e-05
9.56124e-07
5.42878e-05
1.3093e-06
5.3446e-05
1.7787e-06
5.23496e-05
2.42814e-06
5.09493e-05
3.36656e-06
4.9281e-05
4.7814e-06
6.89986e-06
4.82753e-05
1.34265e-05
-3.03928e-07
1.36264e-05
-5.6578e-07
1.39099e-05
-8.00191e-07
1.42688e-05
-1.01166e-06
1.46969e-05
-1.20572e-06
1.51889e-05
-1.38483e-06
1.57397e-05
-1.55008e-06
1.63445e-05
-1.70199e-06
1.69988e-05
-1.84077e-06
1.76978e-05
-1.96656e-06
1.84369e-05
-2.07949e-06
1.92117e-05
-2.17985e-06
2.00177e-05
-2.26805e-06
2.0851e-05
-2.34463e-06
2.17074e-05
-2.41027e-06
2.25835e-05
-2.46572e-06
2.34759e-05
-2.51179e-06
2.43814e-05
-2.54932e-06
2.52974e-05
-2.57916e-06
2.62213e-05
-2.6021e-06
2.71511e-05
-2.61891e-06
2.80847e-05
-2.63032e-06
2.90205e-05
-2.63696e-06
2.99569e-05
-2.63941e-06
3.08927e-05
-2.63819e-06
3.18266e-05
-2.63373e-06
3.27577e-05
-2.6264e-06
3.36851e-05
-2.61653e-06
3.46078e-05
-2.60436e-06
3.55252e-05
-2.59012e-06
3.64366e-05
-2.57396e-06
3.73413e-05
-2.55602e-06
3.82387e-05
-2.53639e-06
3.91282e-05
-2.51515e-06
4.00094e-05
-2.49233e-06
4.08815e-05
-2.46797e-06
4.17441e-05
-2.44207e-06
4.25966e-05
-2.41464e-06
4.34384e-05
-2.38565e-06
4.42691e-05
-2.35509e-06
4.50879e-05
-2.32291e-06
4.58942e-05
-2.28908e-06
4.66876e-05
-2.25355e-06
4.74673e-05
-2.21626e-06
4.82328e-05
-2.17715e-06
4.89832e-05
-2.13614e-06
4.97179e-05
-2.09316e-06
5.04362e-05
-2.04811e-06
5.11372e-05
-2.0009e-06
5.18203e-05
-1.9514e-06
5.24844e-05
-1.8995e-06
5.31288e-05
-1.84505e-06
5.37524e-05
-1.78788e-06
5.43542e-05
-1.72783e-06
5.49331e-05
-1.66467e-06
5.5488e-05
-1.59819e-06
5.60176e-05
-1.52811e-06
5.65206e-05
-1.45412e-06
5.69954e-05
-1.37588e-06
5.74405e-05
-1.29298e-06
5.7854e-05
-1.20494e-06
5.82341e-05
-1.11119e-06
5.85786e-05
-1.01107e-06
5.88851e-05
-9.03766e-07
5.91509e-05
-7.88308e-07
5.9373e-05
-6.63486e-07
5.95477e-05
-5.278e-07
5.96711e-05
-3.79347e-07
5.97385e-05
-2.15691e-07
5.97443e-05
-3.36534e-08
5.96821e-05
1.71009e-07
5.95441e-05
4.04114e-07
5.93215e-05
6.73749e-07
5.90044e-05
9.91201e-07
5.85819e-05
1.37239e-06
5.80453e-05
1.83986e-06
5.73927e-05
2.42533e-06
5.66429e-05
3.17218e-06
5.58678e-05
4.136e-06
5.52734e-05
5.37036e-06
6.84622e-06
5.53218e-05
1.43627e-05
-4.12598e-07
1.45735e-05
-7.76517e-07
1.48737e-05
-1.10029e-06
1.52548e-05
-1.39265e-06
1.571e-05
-1.66082e-06
1.62335e-05
-1.90824e-06
1.682e-05
-2.13644e-06
1.74643e-05
-2.34617e-06
1.81614e-05
-2.53774e-06
1.89063e-05
-2.71131e-06
1.9694e-05
-2.86711e-06
2.05198e-05
-3.00553e-06
2.13789e-05
-3.12712e-06
2.22669e-05
-3.23267e-06
2.31796e-05
-3.32308e-06
2.41132e-05
-3.39942e-06
2.5064e-05
-3.46279e-06
2.60287e-05
-3.51437e-06
2.70044e-05
-3.55531e-06
2.79886e-05
-3.58673e-06
2.89787e-05
-3.60968e-06
2.99728e-05
-3.62517e-06
3.09691e-05
-3.63406e-06
3.19659e-05
-3.63718e-06
3.29618e-05
-3.63521e-06
3.39555e-05
-3.62876e-06
3.49461e-05
-3.61835e-06
3.59324e-05
-3.60441e-06
3.69136e-05
-3.5873e-06
3.78889e-05
-3.56731e-06
3.88575e-05
-3.54467e-06
3.98188e-05
-3.51955e-06
4.07721e-05
-3.49209e-06
4.17167e-05
-3.46238e-06
4.26521e-05
-3.43049e-06
4.35777e-05
-3.39644e-06
4.44928e-05
-3.36026e-06
4.53968e-05
-3.32194e-06
4.62891e-05
-3.28145e-06
4.71691e-05
-3.23876e-06
4.80362e-05
-3.19382e-06
4.88897e-05
-3.14658e-06
4.97289e-05
-3.09697e-06
5.05532e-05
-3.04491e-06
5.13618e-05
-2.99031e-06
5.2154e-05
-2.93308e-06
5.29291e-05
-2.87309e-06
5.36862e-05
-2.81024e-06
5.44245e-05
-2.74438e-06
5.51431e-05
-2.67536e-06
5.58412e-05
-2.60301e-06
5.65176e-05
-2.52714e-06
5.71715e-05
-2.44753e-06
5.78017e-05
-2.36395e-06
5.84071e-05
-2.27611e-06
5.89865e-05
-2.18372e-06
5.95386e-05
-2.08642e-06
6.00619e-05
-1.98381e-06
6.0555e-05
-1.87545e-06
6.10163e-05
-1.76079e-06
6.14439e-05
-1.63923e-06
6.18361e-05
-1.51006e-06
6.21907e-05
-1.37242e-06
6.25054e-05
-1.22532e-06
6.27777e-05
-1.06754e-06
6.3005e-05
-8.97622e-07
6.3184e-05
-7.13767e-07
6.33115e-05
-5.13741e-07
6.33836e-05
-2.94739e-07
6.33963e-05
-5.32199e-08
6.33452e-05
2.1526e-07
6.3226e-05
5.1646e-07
6.3035e-05
8.5799e-07
6.27698e-05
1.24967e-06
6.24316e-05
1.704e-06
6.20285e-05
2.23646e-06
6.15822e-05
2.8652e-06
6.1139e-05
3.60912e-06
6.07867e-05
4.48224e-06
6.06715e-05
5.47969e-06
6.54192e-06
6.097e-05
1.53642e-05
-5.24723e-07
1.55856e-05
-9.97869e-07
1.59024e-05
-1.41709e-06
1.6306e-05
-1.79612e-06
1.6789e-05
-2.14369e-06
1.73451e-05
-2.46422e-06
1.79686e-05
-2.75977e-06
1.86539e-05
-3.03131e-06
1.93956e-05
-3.27925e-06
2.01882e-05
-3.50383e-06
2.10266e-05
-3.70535e-06
2.19054e-05
-3.88431e-06
2.28198e-05
-4.04145e-06
2.37649e-05
-4.17778e-06
2.47362e-05
-4.2945e-06
2.57296e-05
-4.39296e-06
2.67412e-05
-4.47463e-06
2.77675e-05
-4.54101e-06
2.88054e-05
-4.59361e-06
2.9852e-05
-4.63387e-06
3.09048e-05
-4.66317e-06
3.19617e-05
-4.68278e-06
3.30206e-05
-4.69387e-06
3.40798e-05
-4.69745e-06
3.51379e-05
-4.69445e-06
3.61934e-05
-4.68564e-06
3.72452e-05
-4.6717e-06
3.82923e-05
-4.65317e-06
3.93337e-05
-4.63053e-06
4.03685e-05
-4.60415e-06
4.13959e-05
-4.57431e-06
4.24153e-05
-4.54125e-06
4.34257e-05
-4.50514e-06
4.44267e-05
-4.4661e-06
4.54174e-05
-4.4242e-06
4.63974e-05
-4.3795e-06
4.73658e-05
-4.332e-06
4.8322e-05
-4.2817e-06
4.92654e-05
-4.22858e-06
5.01953e-05
-4.17257e-06
5.1111e-05
-4.11363e-06
5.20118e-05
-4.05167e-06
5.2897e-05
-3.98662e-06
5.37658e-05
-3.91836e-06
5.46174e-05
-3.84679e-06
5.54511e-05
-3.77178e-06
5.6266e-05
-3.6932e-06
5.70612e-05
-3.61087e-06
5.78359e-05
-3.52465e-06
5.85892e-05
-3.43432e-06
5.932e-05
-3.33969e-06
6.00273e-05
-3.24051e-06
6.07101e-05
-3.13652e-06
6.13673e-05
-3.02742e-06
6.19976e-05
-2.91288e-06
6.25998e-05
-2.79254e-06
6.31727e-05
-2.66596e-06
6.37147e-05
-2.53267e-06
6.42245e-05
-2.39213e-06
6.47004e-05
-2.24372e-06
6.51408e-05
-2.08673e-06
6.55439e-05
-1.92033e-06
6.59078e-05
-1.74356e-06
6.62304e-05
-1.55529e-06
6.65097e-05
-1.3542e-06
6.67434e-05
-1.1387e-06
6.69291e-05
-9.0688e-07
6.70644e-05
-6.56453e-07
6.71469e-05
-3.84623e-07
6.71743e-05
-8.80126e-08
6.71449e-05
2.37292e-07
6.7058e-05
5.96008e-07
6.69147e-05
9.93972e-07
6.67192e-05
1.43798e-06
6.64806e-05
1.93556e-06
6.62157e-05
2.49431e-06
6.59535e-05
3.12056e-06
6.57391e-05
3.81676e-06
6.56378e-05
4.57702e-06
6.57313e-05
5.37973e-06
6.17524e-06
6.60918e-05
1.64355e-05
-6.40416e-07
1.66674e-05
-1.22974e-06
1.70012e-05
-1.75071e-06
1.74276e-05
-2.22242e-06
1.7939e-05
-2.65498e-06
1.85287e-05
-3.05374e-06
1.91904e-05
-3.4213e-06
1.99181e-05
-3.75889e-06
2.0706e-05
-4.06702e-06
2.15484e-05
-4.34601e-06
2.24394e-05
-4.59624e-06
2.33735e-05
-4.81835e-06
2.43454e-05
-5.01328e-06
2.53498e-05
-5.18229e-06
2.63821e-05
-5.32687e-06
2.74377e-05
-5.44872e-06
2.85125e-05
-5.54968e-06
2.96028e-05
-5.63161e-06
3.07051e-05
-5.69639e-06
3.18165e-05
-5.74582e-06
3.29343e-05
-5.78162e-06
3.4056e-05
-5.80537e-06
3.51797e-05
-5.8185e-06
3.63034e-05
-5.82231e-06
3.74256e-05
-5.81792e-06
3.85449e-05
-5.80631e-06
3.96598e-05
-5.78829e-06
4.07694e-05
-5.76457e-06
4.18727e-05
-5.73572e-06
4.29685e-05
-5.7022e-06
4.40562e-05
-5.66437e-06
4.51349e-05
-5.62251e-06
4.62039e-05
-5.57683e-06
4.72623e-05
-5.52747e-06
4.83095e-05
-5.47455e-06
4.93447e-05
-5.4181e-06
5.03673e-05
-5.35814e-06
5.13765e-05
-5.29467e-06
5.23716e-05
-5.22765e-06
5.33519e-05
-5.15701e-06
5.43165e-05
-5.08269e-06
5.52649e-05
-5.00458e-06
5.6196e-05
-4.92259e-06
5.71093e-05
-4.83658e-06
5.80037e-05
-4.74643e-06
5.88785e-05
-4.65197e-06
5.97328e-05
-4.55305e-06
6.05656e-05
-4.44947e-06
6.13761e-05
-4.34103e-06
6.21631e-05
-4.2275e-06
6.29258e-05
-4.10865e-06
6.3663e-05
-3.98417e-06
6.43737e-05
-3.85378e-06
6.50566e-05
-3.71713e-06
6.57106e-05
-3.57384e-06
6.63345e-05
-3.42349e-06
6.6927e-05
-3.2656e-06
6.74867e-05
-3.09964e-06
6.80121e-05
-2.92501e-06
6.85019e-05
-2.74104e-06
6.89545e-05
-2.54696e-06
6.93684e-05
-2.3419e-06
6.97419e-05
-2.12486e-06
7.00735e-05
-1.89468e-06
7.03615e-05
-1.65004e-06
7.06043e-05
-1.38941e-06
7.08004e-05
-1.11099e-06
7.09487e-05
-8.12707e-07
7.10483e-05
-4.92143e-07
7.10989e-05
-1.46539e-07
7.11013e-05
2.26984e-07
7.10579e-05
6.31487e-07
7.09736e-05
1.07046e-06
7.08566e-05
1.54732e-06
7.07196e-05
2.06493e-06
7.05816e-05
2.62471e-06
7.04694e-05
3.22546e-06
7.04174e-05
3.86147e-06
7.0467e-05
4.5203e-06
7.06598e-05
5.18001e-06
5.80679e-06
7.10215e-05
1.75818e-05
-7.59909e-07
1.78243e-05
-1.47216e-06
1.8175e-05
-2.10135e-06
1.86247e-05
-2.67197e-06
1.91653e-05
-3.19537e-06
1.97895e-05
-3.67778e-06
2.04906e-05
-4.12229e-06
2.12623e-05
-4.53041e-06
2.20982e-05
-4.90276e-06
2.29921e-05
-5.23974e-06
2.39378e-05
-5.54182e-06
2.49294e-05
-5.80981e-06
2.5961e-05
-6.04486e-06
2.70272e-05
-6.24849e-06
2.81228e-05
-6.42254e-06
2.9243e-05
-6.56907e-06
3.03833e-05
-6.6903e-06
3.15399e-05
-6.78851e-06
3.2709e-05
-6.86596e-06
3.38874e-05
-6.92484e-06
3.50723e-05
-6.96724e-06
3.62611e-05
-6.99506e-06
3.74516e-05
-7.01005e-06
3.86418e-05
-7.01376e-06
3.98301e-05
-7.00755e-06
4.10149e-05
-6.99259e-06
4.21947e-05
-6.96989e-06
4.33685e-05
-6.94029e-06
4.45352e-05
-6.90446e-06
4.56936e-05
-6.86296e-06
4.6843e-05
-6.81624e-06
4.79824e-05
-6.76462e-06
4.9111e-05
-6.70835e-06
5.0228e-05
-6.64762e-06
5.13326e-05
-6.58252e-06
5.2424e-05
-6.51314e-06
5.35015e-05
-6.43947e-06
5.45643e-05
-6.36152e-06
5.56117e-05
-6.27923e-06
5.66427e-05
-6.19253e-06
5.76567e-05
-6.10133e-06
5.86527e-05
-6.00552e-06
5.96299e-05
-5.90497e-06
6.05875e-05
-5.79954e-06
6.15246e-05
-5.68907e-06
6.24403e-05
-5.57338e-06
6.33335e-05
-5.45227e-06
6.42034e-05
-5.32553e-06
6.5049e-05
-5.19294e-06
6.58691e-05
-5.05423e-06
6.66629e-05
-4.90913e-06
6.74291e-05
-4.75732e-06
6.81667e-05
-4.59848e-06
6.88746e-05
-4.43222e-06
6.95515e-05
-4.25813e-06
7.01962e-05
-4.07577e-06
7.08075e-05
-3.88463e-06
7.13842e-05
-3.68415e-06
7.1925e-05
-3.47373e-06
7.24286e-05
-3.25266e-06
7.28936e-05
-3.0202e-06
7.3319e-05
-2.7755e-06
7.37034e-05
-2.51759e-06
7.40457e-05
-2.24542e-06
7.4345e-05
-1.9578e-06
7.46005e-05
-1.65341e-06
7.48118e-05
-1.33077e-06
7.49788e-05
-9.88271e-07
7.51023e-05
-6.24143e-07
7.51838e-05
-2.36541e-07
7.52261e-05
1.76193e-07
7.52338e-05
6.153e-07
7.5214e-05
1.08194e-06
7.51763e-05
1.57665e-06
7.51342e-05
2.09885e-06
7.51046e-05
2.64617e-06
7.51085e-05
3.21367e-06
7.51691e-05
3.79302e-06
7.531e-05
4.37166e-06
7.55501e-05
4.93246e-06
5.45457e-06
7.58949e-05
1.88083e-05
-8.83521e-07
1.90616e-05
-1.72534e-06
1.94297e-05
-2.46938e-06
1.99031e-05
-3.14528e-06
2.04736e-05
-3.76564e-06
2.11333e-05
-4.33736e-06
2.18753e-05
-4.86403e-06
2.26924e-05
-5.34739e-06
2.35781e-05
-5.78821e-06
2.45254e-05
-6.18693e-06
2.55279e-05
-6.54416e-06
2.65791e-05
-6.86086e-06
2.76727e-05
-7.13843e-06
2.88029e-05
-7.37868e-06
2.99641e-05
-7.58382e-06
3.11512e-05
-7.75631e-06
3.23594e-05
-7.89879e-06
3.35845e-05
-8.01396e-06
3.48225e-05
-8.10453e-06
3.60702e-05
-8.1731e-06
3.73243e-05
-8.22214e-06
3.85822e-05
-8.2539e-06
3.98415e-05
-8.27047e-06
4.11002e-05
-8.27367e-06
4.23563e-05
-8.26512e-06
4.36083e-05
-8.24622e-06
4.48547e-05
-8.21813e-06
4.60942e-05
-8.18185e-06
4.73257e-05
-8.13819e-06
4.85481e-05
-8.0878e-06
4.97604e-05
-8.03119e-06
5.09616e-05
-7.96876e-06
5.21509e-05
-7.90079e-06
5.33274e-05
-7.8275e-06
5.44903e-05
-7.74901e-06
5.56387e-05
-7.66538e-06
5.67718e-05
-7.57666e-06
5.78888e-05
-7.4828e-06
5.89888e-05
-7.38376e-06
6.00709e-05
-7.27946e-06
6.11344e-05
-7.16978e-06
6.21782e-05
-7.0546e-06
6.32015e-05
-6.93378e-06
6.42034e-05
-6.80714e-06
6.51829e-05
-6.67451e-06
6.6139e-05
-6.53569e-06
6.70708e-05
-6.39046e-06
6.79772e-05
-6.23859e-06
6.88573e-05
-6.07982e-06
6.971e-05
-5.91389e-06
7.05341e-05
-5.74048e-06
7.13286e-05
-5.55928e-06
7.20925e-05
-5.36992e-06
7.28245e-05
-5.17202e-06
7.35236e-05
-4.96517e-06
7.41887e-05
-4.74891e-06
7.48185e-05
-4.52273e-06
7.54121e-05
-4.2861e-06
7.59683e-05
-4.03843e-06
7.64861e-05
-3.77908e-06
7.69645e-05
-3.50736e-06
7.74026e-05
-3.22251e-06
7.77999e-05
-2.92373e-06
7.81556e-05
-2.61014e-06
7.84695e-05
-2.28082e-06
7.87418e-05
-1.9348e-06
7.8973e-05
-1.57109e-06
7.91642e-05
-1.18867e-06
7.93175e-05
-7.86604e-07
7.94359e-05
-3.64062e-07
7.95234e-05
7.95413e-08
7.95858e-05
5.43852e-07
7.96308e-05
1.02799e-06
7.9668e-05
1.53051e-06
7.97092e-05
2.04879e-06
7.9768e-05
2.57866e-06
7.9859e-05
3.1141e-06
7.99966e-05
3.64694e-06
8.0193e-05
4.16693e-06
8.04552e-05
4.66207e-06
5.12016e-06
8.07817e-05
2.01207e-05
-1.01164e-06
2.0385e-05
-1.98958e-06
2.07711e-05
-2.85528e-06
2.12689e-05
-3.643e-06
2.18701e-05
-4.36663e-06
2.25665e-05
-5.03358e-06
2.33505e-05
-5.64785e-06
2.42148e-05
-6.21141e-06
2.51519e-05
-6.72511e-06
2.61546e-05
-7.18949e-06
2.72159e-05
-7.60529e-06
2.83288e-05
-7.97363e-06
2.94866e-05
-8.29618e-06
3.06831e-05
-8.5751e-06
3.19121e-05
-8.81296e-06
3.31683e-05
-9.01267e-06
3.44466e-05
-9.17734e-06
3.57424e-05
-9.31013e-06
3.70515e-05
-9.41421e-06
3.83704e-05
-9.49263e-06
3.96957e-05
-9.54826e-06
4.10246e-05
-9.58376e-06
4.23545e-05
-9.60154e-06
4.36832e-05
-9.60375e-06
4.50088e-05
-9.59226e-06
4.63296e-05
-9.5687e-06
4.76439e-05
-9.53443e-06
4.89505e-05
-9.49061e-06
5.02481e-05
-9.43816e-06
5.15355e-05
-9.37786e-06
5.28118e-05
-9.31028e-06
5.40758e-05
-9.23589e-06
5.53267e-05
-9.15501e-06
5.65635e-05
-9.06789e-06
5.77853e-05
-8.97466e-06
5.89912e-05
-8.87541e-06
6.01803e-05
-8.77015e-06
6.13518e-05
-8.65887e-06
6.25047e-05
-8.54151e-06
6.36381e-05
-8.41795e-06
6.4751e-05
-8.28809e-06
6.58426e-05
-8.15178e-06
6.69118e-05
-8.00885e-06
6.79576e-05
-7.85913e-06
6.89792e-05
-7.70242e-06
6.99754e-05
-7.5385e-06
7.09452e-05
-7.36714e-06
7.18877e-05
-7.18809e-06
7.28017e-05
-7.00109e-06
7.36861e-05
-6.80586e-06
7.454e-05
-6.60208e-06
7.53622e-05
-6.38943e-06
7.61517e-05
-6.16755e-06
7.69074e-05
-5.93608e-06
7.76284e-05
-5.69461e-06
7.83135e-05
-5.4427e-06
7.89619e-05
-5.17992e-06
7.95725e-05
-4.90576e-06
8.01447e-05
-4.61972e-06
8.06776e-05
-4.32127e-06
8.11707e-05
-4.00983e-06
8.16236e-05
-3.68484e-06
8.2036e-05
-3.34571e-06
8.2408e-05
-2.99184e-06
8.27402e-05
-2.62267e-06
8.30333e-05
-2.23768e-06
8.32888e-05
-1.83641e-06
8.35088e-05
-1.41854e-06
8.36963e-05
-9.83955e-07
8.38552e-05
-5.32775e-07
8.39903e-05
-6.53249e-08
8.41074e-05
4.17024e-07
8.42139e-05
9.11845e-07
8.43182e-05
1.41656e-06
8.44298e-05
1.92767e-06
8.45585e-05
2.44054e-06
8.47139e-05
2.94945e-06
8.49041e-05
3.44757e-06
8.51348e-05
3.92728e-06
8.54073e-05
4.38067e-06
4.80082e-06
8.5718e-05
2.1525e-05
-1.14468e-06
2.18008e-05
-2.26534e-06
2.22053e-05
-3.25965e-06
2.27284e-05
-4.16592e-06
2.33613e-05
-4.99932e-06
2.40956e-05
-5.76762e-06
2.49231e-05
-6.47515e-06
2.5836e-05
-7.12404e-06
2.68263e-05
-7.71523e-06
2.78864e-05
-8.24934e-06
2.90085e-05
-8.72721e-06
3.01852e-05
-9.1502e-06
3.14093e-05
-9.52023e-06
3.26741e-05
-9.83985e-06
3.39731e-05
-1.01121e-05
3.53005e-05
-1.03402e-05
3.66508e-05
-1.0528e-05
3.80193e-05
-1.0679e-05
3.94013e-05
-1.07968e-05
4.07932e-05
-1.08852e-05
4.21914e-05
-1.09473e-05
4.35928e-05
-1.09862e-05
4.49948e-05
-1.10048e-05
4.6395e-05
-1.10054e-05
4.77914e-05
-1.09903e-05
4.91821e-05
-1.09612e-05
5.05655e-05
-1.09199e-05
5.19401e-05
-1.08676e-05
5.33047e-05
-1.08053e-05
5.4658e-05
-1.0734e-05
5.5999e-05
-1.06542e-05
5.73264e-05
-1.05666e-05
5.86394e-05
-1.04716e-05
5.99369e-05
-1.03692e-05
6.1218e-05
-1.02598e-05
6.24817e-05
-1.01435e-05
6.3727e-05
-1.00201e-05
6.49531e-05
-9.88982e-06
6.61588e-05
-9.75245e-06
6.73433e-05
-9.60791e-06
6.85055e-05
-9.45607e-06
6.96445e-05
-9.29677e-06
7.07592e-05
-9.12985e-06
7.18486e-05
-8.95509e-06
7.29117e-05
-8.7723e-06
7.39474e-05
-8.58125e-06
7.49547e-05
-8.38171e-06
7.59324e-05
-8.17342e-06
7.68796e-05
-7.95611e-06
7.77952e-05
-7.72951e-06
7.86782e-05
-7.49333e-06
7.95275e-05
-7.24724e-06
8.03422e-05
-6.99094e-06
8.11213e-05
-6.72407e-06
8.18638e-05
-6.44629e-06
8.25691e-05
-6.15723e-06
8.32362e-05
-5.85651e-06
8.38645e-05
-5.54375e-06
8.44536e-05
-5.21856e-06
8.5003e-05
-4.88057e-06
8.55125e-05
-4.5294e-06
8.59822e-05
-4.16471e-06
8.64124e-05
-3.7862e-06
8.68038e-05
-3.39361e-06
8.71575e-05
-2.98679e-06
8.7475e-05
-2.56569e-06
8.77585e-05
-2.13041e-06
8.80107e-05
-1.68127e-06
8.82351e-05
-1.21886e-06
8.84358e-05
-7.44043e-07
8.8618e-05
-2.5809e-07
8.87873e-05
2.3727e-07
8.89498e-05
7.38961e-07
8.91122e-05
1.24378e-06
8.92817e-05
1.74798e-06
8.94648e-05
2.24726e-06
8.96674e-05
2.73677e-06
8.98939e-05
3.21126e-06
9.01461e-05
3.66534e-06
9.04232e-05
4.09395e-06
4.49335e-06
9.07213e-05
2.30276e-05
-1.2831e-06
2.33155e-05
-2.55314e-06
2.37392e-05
-3.68323e-06
2.42884e-05
-4.71494e-06
2.4954e-05
-5.66478e-06
2.57274e-05
-6.54075e-06
2.65999e-05
-7.34738e-06
2.7563e-05
-8.0869e-06
2.86083e-05
-8.76031e-06
2.97275e-05
-9.3683e-06
3.09124e-05
-9.91184e-06
3.21548e-05
-1.03925e-05
3.34472e-05
-1.08125e-05
3.47823e-05
-1.11748e-05
3.61531e-05
-1.1483e-05
3.75535e-05
-1.17408e-05
3.89776e-05
-1.19524e-05
4.04203e-05
-1.2122e-05
4.18768e-05
-1.2254e-05
4.33431e-05
-1.23522e-05
4.48154e-05
-1.24205e-05
4.62906e-05
-1.24625e-05
4.77657e-05
-1.24812e-05
4.92384e-05
-1.24795e-05
5.07064e-05
-1.246e-05
5.21678e-05
-1.24246e-05
5.36209e-05
-1.23752e-05
5.50642e-05
-1.23133e-05
5.64962e-05
-1.224e-05
5.79158e-05
-1.21565e-05
5.93217e-05
-1.20634e-05
6.07128e-05
-1.19612e-05
6.2088e-05
-1.18505e-05
6.34462e-05
-1.17316e-05
6.47865e-05
-1.16045e-05
6.61078e-05
-1.14694e-05
6.74091e-05
-1.13264e-05
6.86894e-05
-1.11753e-05
6.99476e-05
-1.10162e-05
7.11827e-05
-1.08489e-05
7.23937e-05
-1.06732e-05
7.35795e-05
-1.0489e-05
7.4739e-05
-1.02961e-05
7.58713e-05
-1.00943e-05
7.69751e-05
-9.88342e-06
7.80495e-05
-9.66319e-06
7.90933e-05
-9.4334e-06
8.01056e-05
-9.19379e-06
8.10853e-05
-8.94413e-06
8.20313e-05
-8.68416e-06
8.29427e-05
-8.41362e-06
8.38186e-05
-8.13222e-06
8.4658e-05
-7.83971e-06
8.54602e-05
-7.53581e-06
8.62244e-05
-7.22025e-06
8.695e-05
-6.89275e-06
8.76364e-05
-6.55306e-06
8.82833e-05
-6.20094e-06
8.88904e-05
-5.83618e-06
8.94578e-05
-5.45859e-06
8.99856e-05
-5.06803e-06
9.04745e-05
-4.66445e-06
9.09251e-05
-4.24785e-06
9.13387e-05
-3.81834e-06
9.17169e-05
-3.37618e-06
9.20618e-05
-2.92179e-06
9.23758e-05
-2.45576e-06
9.26622e-05
-1.97896e-06
9.29245e-05
-1.49253e-06
9.31671e-05
-9.97932e-07
9.33947e-05
-4.96952e-07
9.36119e-05
8.7716e-09
9.38235e-05
5.16171e-07
9.40348e-05
1.02134e-06
9.42508e-05
1.52092e-06
9.44758e-05
2.0113e-06
9.47132e-05
2.48861e-06
9.49648e-05
2.94899e-06
9.52309e-05
3.38873e-06
9.55098e-05
3.80466e-06
4.1949e-06
9.5798e-05
2.46353e-05
-1.42736e-06
2.49359e-05
-2.85363e-06
2.53796e-05
-4.1268e-06
2.59559e-05
-5.29104e-06
2.66555e-05
-6.36416e-06
2.74693e-05
-7.35428e-06
2.83882e-05
-8.26598e-06
2.94031e-05
-9.10155e-06
3.05051e-05
-9.86202e-06
3.16852e-05
-1.05481e-05
3.29345e-05
-1.11609e-05
3.42444e-05
-1.17022e-05
3.56068e-05
-1.21747e-05
3.70137e-05
-1.25817e-05
3.84579e-05
-1.29272e-05
3.99326e-05
-1.32157e-05
4.14318e-05
-1.34518e-05
4.29499e-05
-1.36405e-05
4.44819e-05
-1.37865e-05
4.60235e-05
-1.38945e-05
4.75707e-05
-1.39687e-05
4.91203e-05
-1.40131e-05
5.06691e-05
-1.40313e-05
5.22146e-05
-1.40266e-05
5.37545e-05
-1.40017e-05
5.52868e-05
-1.39589e-05
5.68096e-05
-1.39004e-05
5.83215e-05
-1.38277e-05
5.98209e-05
-1.37423e-05
6.13065e-05
-1.36452e-05
6.2777e-05
-1.35373e-05
6.42314e-05
-1.34193e-05
6.56683e-05
-1.32915e-05
6.70868e-05
-1.31543e-05
6.84856e-05
-1.3008e-05
6.98639e-05
-1.28526e-05
7.12204e-05
-1.26882e-05
7.25541e-05
-1.25146e-05
7.38639e-05
-1.23319e-05
7.51488e-05
-1.21399e-05
7.64075e-05
-1.19385e-05
7.76392e-05
-1.17275e-05
7.88425e-05
-1.15066e-05
8.00165e-05
-1.12758e-05
8.116e-05
-1.10347e-05
8.22721e-05
-1.07833e-05
8.33515e-05
-1.05212e-05
8.43973e-05
-1.02483e-05
8.54086e-05
-9.96431e-06
8.63842e-05
-9.66906e-06
8.73234e-05
-9.36232e-06
8.82254e-05
-9.0439e-06
8.90893e-05
-8.71359e-06
8.99144e-05
-8.37124e-06
9.07004e-05
-8.01666e-06
9.14467e-05
-7.64972e-06
9.21531e-05
-7.27033e-06
9.28195e-05
-6.87842e-06
9.3446e-05
-6.47396e-06
9.40331e-05
-6.05702e-06
9.45812e-05
-5.62772e-06
9.50913e-05
-5.18629e-06
9.55647e-05
-4.73304e-06
9.6003e-05
-4.26847e-06
9.6408e-05
-3.79319e-06
9.67821e-05
-3.30801e-06
9.71282e-05
-2.81394e-06
9.74493e-05
-2.31225e-06
9.7749e-05
-1.80441e-06
9.80311e-05
-1.29222e-06
9.82997e-05
-7.77675e-07
9.85593e-05
-2.62913e-07
9.88135e-05
2.49865e-07
9.90658e-05
7.57056e-07
9.93194e-05
1.25544e-06
9.9577e-05
1.74196e-06
9.98402e-05
2.21368e-06
0.00010011
2.66781e-06
0.000100385
3.10184e-06
0.000100665
3.51381e-06
3.90292e-06
0.000100946
2.63555e-05
-1.57793e-06
2.66694e-05
-3.16749e-06
2.7134e-05
-4.59126e-06
2.77385e-05
-5.8953e-06
2.84733e-05
-7.09866e-06
2.93288e-05
-8.20952e-06
3.02955e-05
-9.23237e-06
3.13638e-05
-1.01695e-05
3.2524e-05
-1.10219e-05
3.37664e-05
-1.17902e-05
3.50816e-05
-1.24759e-05
3.64604e-05
-1.30808e-05
3.7894e-05
-1.36081e-05
3.93739e-05
-1.40616e-05
4.08925e-05
-1.44458e-05
4.24425e-05
-1.47658e-05
4.40174e-05
-1.5027e-05
4.56115e-05
-1.5235e-05
4.72193e-05
-1.5395e-05
4.88364e-05
-1.55123e-05
5.04586e-05
-1.55919e-05
5.20824e-05
-1.56381e-05
5.37047e-05
-1.5655e-05
5.53226e-05
-1.56462e-05
5.6934e-05
-1.56149e-05
5.85365e-05
-1.55636e-05
6.01285e-05
-1.54947e-05
6.17081e-05
-1.54101e-05
6.3274e-05
-1.53112e-05
6.48247e-05
-1.51992e-05
6.63589e-05
-1.50751e-05
6.78754e-05
-1.49397e-05
6.93729e-05
-1.47933e-05
7.08504e-05
-1.46364e-05
7.23066e-05
-1.44692e-05
7.37405e-05
-1.42918e-05
7.51508e-05
-1.41042e-05
7.65366e-05
-1.39064e-05
7.78966e-05
-1.36982e-05
7.92298e-05
-1.34797e-05
8.05349e-05
-1.32506e-05
8.18109e-05
-1.30108e-05
8.30566e-05
-1.276e-05
8.42709e-05
-1.24981e-05
8.54528e-05
-1.22249e-05
8.66011e-05
-1.19403e-05
8.77149e-05
-1.1644e-05
8.87931e-05
-1.13358e-05
8.98349e-05
-1.10156e-05
9.08393e-05
-1.06833e-05
9.18056e-05
-1.03388e-05
9.27331e-05
-9.98179e-06
9.36211e-05
-9.61234e-06
9.44693e-05
-9.23035e-06
9.52772e-05
-8.8358e-06
9.60448e-05
-8.42872e-06
9.6772e-05
-8.00918e-06
9.7459e-05
-7.57731e-06
9.81063e-05
-7.13334e-06
9.87146e-05
-6.67754e-06
9.92848e-05
-6.21033e-06
9.98182e-05
-5.73219e-06
0.000100316
-5.24378e-06
0.000100781
-4.74586e-06
0.000101214
-4.23939e-06
0.000101619
-3.72548e-06
0.000101997
-3.20544e-06
0.000102353
-2.68078e-06
0.000102688
-2.1532e-06
0.000103008
-1.62462e-06
0.000103314
-1.09712e-06
0.000103611
-5.72887e-07
0.000103902
-5.3485e-08
0.000104187
4.58367e-07
0.000104471
9.59177e-07
0.000104754
1.44657e-06
0.000105036
1.91834e-06
0.000105319
2.3725e-06
0.000105601
2.80736e-06
0.000105881
3.22168e-06
3.61533e-06
0.000106157
2.81959e-05
-1.73527e-06
2.8524e-05
-3.49548e-06
2.90104e-05
-5.07753e-06
2.96442e-05
-6.5288e-06
3.04153e-05
-7.8695e-06
3.13139e-05
-9.10775e-06
3.23297e-05
-1.02479e-05
3.34526e-05
-1.1292e-05
3.46722e-05
-1.22411e-05
3.59782e-05
-1.30959e-05
3.73605e-05
-1.38578e-05
3.88091e-05
-1.45291e-05
4.03146e-05
-1.51134e-05
4.18681e-05
-1.56149e-05
4.34614e-05
-1.6039e-05
4.50868e-05
-1.63913e-05
4.67374e-05
-1.66779e-05
4.84071e-05
-1.6905e-05
5.00903e-05
-1.70788e-05
5.17822e-05
-1.7205e-05
5.34785e-05
-1.72892e-05
5.51756e-05
-1.73363e-05
5.687e-05
-1.73509e-05
5.85592e-05
-1.7337e-05
6.02405e-05
-1.72981e-05
6.19118e-05
-1.72372e-05
6.35712e-05
-1.71567e-05
6.5217e-05
-1.70587e-05
6.68475e-05
-1.69449e-05
6.84615e-05
-1.68166e-05
7.00574e-05
-1.66749e-05
7.16341e-05
-1.65205e-05
7.31903e-05
-1.6354e-05
7.47247e-05
-1.61757e-05
7.62363e-05
-1.5986e-05
7.77237e-05
-1.57848e-05
7.91859e-05
-1.55723e-05
8.06217e-05
-1.53485e-05
8.20298e-05
-1.51131e-05
8.34092e-05
-1.48662e-05
8.47587e-05
-1.46075e-05
8.60771e-05
-1.43369e-05
8.73633e-05
-1.40543e-05
8.86161e-05
-1.37595e-05
8.98346e-05
-1.34523e-05
9.10176e-05
-1.31325e-05
9.21642e-05
-1.28001e-05
9.32735e-05
-1.2455e-05
9.43446e-05
-1.2097e-05
9.53768e-05
-1.17261e-05
9.63694e-05
-1.13422e-05
9.73218e-05
-1.09454e-05
9.82338e-05
-1.05357e-05
9.91049e-05
-1.01132e-05
9.99351e-05
-9.67799e-06
0.000100724
-9.23033e-06
0.000101473
-8.77047e-06
0.000102182
-8.29876e-06
0.000102851
-7.81564e-06
0.000103482
-7.32165e-06
0.000104076
-6.81743e-06
0.000104634
-6.30375e-06
0.000105159
-5.78151e-06
0.000105651
-5.25174e-06
0.000106113
-4.71563e-06
0.000106548
-4.1745e-06
0.000106959
-3.62985e-06
0.000107347
-3.08331e-06
0.000107717
-2.53665e-06
0.00010807
-1.99179e-06
0.000108409
-1.4507e-06
0.000108738
-9.15422e-07
0.000109059
-3.87885e-07
0.000109372
1.30634e-07
0.00010968
6.3747e-07
0.000109983
1.13001e-06
0.000110281
1.60657e-06
0.000110575
2.06574e-06
0.000110862
2.50637e-06
0.000111143
2.9277e-06
3.32997e-06
0.000111416
3.01649e-05
-1.89984e-06
3.0508e-05
-3.83837e-06
3.10172e-05
-5.58654e-06
3.16813e-05
-7.19264e-06
3.24899e-05
-8.67781e-06
3.34327e-05
-1.00501e-05
3.44988e-05
-1.13136e-05
3.56774e-05
-1.24702e-05
3.69574e-05
-1.35206e-05
3.83277e-05
-1.44658e-05
3.97774e-05
-1.53071e-05
4.12961e-05
-1.60474e-05
4.28736e-05
-1.66906e-05
4.45004e-05
-1.72416e-05
4.61678e-05
-1.77063e-05
4.78678e-05
-1.80913e-05
4.9593e-05
-1.84033e-05
5.1337e-05
-1.86494e-05
5.3094e-05
-1.88363e-05
5.4859e-05
-1.89707e-05
5.66274e-05
-1.90586e-05
5.83955e-05
-1.91056e-05
6.01599e-05
-1.91168e-05
6.19178e-05
-1.90966e-05
6.36665e-05
-1.90489e-05
6.54038e-05
-1.89769e-05
6.71279e-05
-1.88834e-05
6.8837e-05
-1.87707e-05
7.05294e-05
-1.86406e-05
7.22036e-05
-1.84946e-05
7.38584e-05
-1.83337e-05
7.54923e-05
-1.81588e-05
7.71042e-05
-1.79706e-05
7.86927e-05
-1.77694e-05
8.02566e-05
-1.75554e-05
8.17948e-05
-1.73289e-05
8.33059e-05
-1.70898e-05
8.47889e-05
-1.68381e-05
8.62424e-05
-1.65738e-05
8.76654e-05
-1.62966e-05
8.90566e-05
-1.60066e-05
9.04148e-05
-1.57035e-05
9.1739e-05
-1.53872e-05
9.30281e-05
-1.50576e-05
9.4281e-05
-1.47146e-05
9.54967e-05
-1.43581e-05
9.66744e-05
-1.3988e-05
9.78131e-05
-1.36043e-05
9.89122e-05
-1.3207e-05
9.9971e-05
-1.27962e-05
0.000100989
-1.23719e-05
0.000101966
-1.19342e-05
0.000102901
-1.14834e-05
0.000103795
-1.10198e-05
0.000104648