/*--------------------------------*- C++ -*----------------------------------*\
  =========                 |
  \\      /  F ield         | OpenFOAM: The Open Source CFD Toolbox
   \\    /   O peration     | Website:  https://openfoam.org
    \\  /    A nd           | Version:  7
     \\/     M anipulation  |
\*---------------------------------------------------------------------------*/
FoamFile
{
    version     2.0;
    format      ascii;
    class       volScalarField;
    location    "2.23";
    object      T;
}
// * * * * * * * * * * * * * * * * * * * * * * * * * * * * * * * * * * * * * //

dimensions      [0 0 0 1 0 0 0];

internalField   nonuniform List<scalar> 
12013
(
300.026
300.079
300.134
300.192
300.252
300.314
300.379
300.447
300.518
300.592
300.669
300.749
300.833
300.92
301.012
301.107
301.207
301.311
301.42
301.534
301.653
301.777
301.907
302.043
302.186
302.335
302.492
302.656
302.828
303.009
303.198
303.397
303.607
303.828
304.06
304.305
304.563
304.836
305.124
305.428
305.751
306.093
306.455
306.84
307.248
307.683
308.145
308.637
309.161
309.72
310.317
310.954
311.635
312.363
313.142
313.976
314.869
315.826
316.852
317.953
319.135
320.405
321.769
323.237
324.816
326.517
328.35
330.329
332.466
334.778
337.283
340.003
342.963
346.195
349.737
353.64
357.97
362.82
368.335
374.753
382.532
300.026
300.079
300.134
300.192
300.252
300.314
300.379
300.447
300.518
300.592
300.669
300.749
300.833
300.92
301.012
301.107
301.207
301.311
301.42
301.534
301.653
301.777
301.907
302.044
302.186
302.336
302.492
302.656
302.828
303.009
303.198
303.398
303.607
303.828
304.06
304.305
304.563
304.836
305.124
305.429
305.751
306.093
306.455
306.84
307.249
307.683
308.145
308.637
309.161
309.72
310.316
310.953
311.634
312.361
313.14
313.973
314.865
315.822
316.847
317.947
319.127
320.395
321.757
323.222
324.798
326.495
328.324
330.296
332.426
334.729
337.223
339.928
342.869
346.075
349.582
353.434
357.688
362.418
367.72
373.716
380.511
300.026
300.079
300.134
300.192
300.252
300.314
300.379
300.447
300.518
300.592
300.669
300.749
300.833
300.92
301.012
301.107
301.207
301.311
301.42
301.534
301.653
301.777
301.908
302.044
302.187
302.336
302.492
302.657
302.829
303.009
303.199
303.398
303.608
303.829
304.061
304.306
304.564
304.837
305.125
305.429
305.752
306.094
306.456
306.84
307.249
307.683
308.145
308.636
309.16
309.719
310.315
310.951
311.631
312.358
313.135
313.967
314.858
315.812
316.835
317.932
319.109
320.373
321.731
323.19
324.759
326.448
328.266
330.226
332.34
334.623
337.092
339.765
342.664
345.815
349.248
352.996
357.101
361.607
366.558
371.978
377.825
300.026
300.079
300.134
300.192
300.252
300.314
300.379
300.447
300.518
300.592
300.669
300.749
300.833
300.92
301.012
301.107
301.207
301.311
301.42
301.534
301.653
301.778
301.908
302.044
302.187
302.337
302.493
302.657
302.83
303.01
303.2
303.399
303.609
303.83
304.062
304.307
304.565
304.838
305.126
305.431
305.753
306.095
306.457
306.841
307.249
307.683
308.145
308.636
309.159
309.717
310.312
310.947
311.626
312.351
313.126
313.956
314.844
315.796
316.815
317.908
319.079
320.337
321.687
323.136
324.694
326.369
328.17
330.109
332.198
334.449
336.878
339.501
342.335
345.401
348.722
352.32
356.217
360.434
364.974
369.817
374.888
300.026
300.079
300.134
300.192
300.252
300.314
300.379
300.447
300.518
300.592
300.669
300.749
300.833
300.921
301.012
301.108
301.207
301.312
301.421
301.535
301.654
301.778
301.909
302.045
302.188
302.338
302.494
302.658
302.831
303.012
303.201
303.401
303.611
303.831
304.064
304.309
304.567
304.84
305.128
305.432
305.755
306.096
306.458
306.842
307.25
307.683
308.144
308.635
309.157
309.714
310.308
310.941
311.618
312.341
313.114
313.94
314.825
315.771
316.785
317.871
319.035
320.283
321.622
323.058
324.599
326.254
328.031
329.941
331.993
334.2
336.573
339.126
341.872
344.826
348.002
351.413
355.065
358.96
363.084
367.4
371.84
300.026
300.079
300.134
300.192
300.252
300.314
300.379
300.447
300.518
300.592
300.669
300.749
300.833
300.921
301.012
301.108
301.208
301.312
301.421
301.535
301.655
301.779
301.91
302.046
302.189
302.339
302.496
302.66
302.832
303.013
303.203
303.403
303.613
303.833
304.066
304.311
304.569
304.842
305.13
305.435
305.757
306.098
306.46
306.843
307.251
307.683
308.144
308.633
309.154
309.71
310.302
310.933
311.607
312.327
313.096
313.918
314.797
315.738
316.744
317.821
318.974
320.21
321.533
322.95
324.47
326.098
327.843
329.713
331.718
333.867
336.169
338.634
341.271
344.09
347.097
350.295
353.684
357.252
360.979
364.827
368.744
300.026
300.079
300.134
300.192
300.252
300.314
300.379
300.447
300.518
300.592
300.669
300.75
300.834
300.921
301.013
301.108
301.208
301.313
301.422
301.536
301.656
301.78
301.911
302.048
302.191
302.341
302.498
302.662
302.835
303.016
303.206
303.406
303.615
303.836
304.069
304.314
304.572
304.845
305.133
305.437
305.76
306.1
306.462
306.845
307.252
307.683
308.142
308.631
309.15
309.704
310.293
310.922
311.593
312.308
313.073
313.889
314.761
315.693
316.689
317.755
318.894
320.113
321.416
322.81
324.301
325.895
327.6
329.422
331.368
333.446
335.662
338.023
340.535
343.2
346.021
348.995
352.115
355.366
358.725
362.162
365.634
300.026
300.079
300.134
300.192
300.252
300.314
300.38
300.447
300.518
300.592
300.669
300.75
300.834
300.922
301.013
301.109
301.209
301.314
301.423
301.537
301.657
301.782
301.913
302.049
302.193
302.343
302.5
302.665
302.837
303.019
303.209
303.409
303.619
303.84
304.073
304.318
304.576
304.849
305.137
305.441
305.763
306.103
306.464
306.847
307.252
307.683
308.141
308.627
309.145
309.696
310.282
310.907
311.573
312.284
313.042
313.851
314.714
315.635
316.619
317.67
318.792
319.99
321.268
322.633
324.09
325.643
327.299
329.062
330.939
332.935
335.053
337.297
339.669
342.169
344.796
347.542
350.398
353.349
356.373
359.446
362.535
300.026
300.079
300.134
300.192
300.252
300.314
300.38
300.448
300.518
300.592
300.67
300.75
300.834
300.922
301.014
301.11
301.21
301.315
301.424
301.539
301.658
301.784
301.915
302.052
302.195
302.345
302.503
302.668
302.841
303.022
303.213
303.413
303.623
303.844
304.077
304.322
304.581
304.854
305.141
305.445
305.767
306.107
306.467
306.848
307.253
307.682
308.138
308.623
309.137
309.685
310.268
310.888
311.549
312.253
313.003
313.802
314.655
315.563
316.532
317.564
318.665
319.837
321.087
322.417
323.832
325.337
326.936
328.632
330.431
332.334
334.343
336.46
338.685
341.014
343.444
345.966
348.57
351.241
353.962
356.712
359.467
300.026
300.079
300.134
300.192
300.252
300.315
300.38
300.448
300.519
300.593
300.67
300.751
300.835
300.923
301.015
301.111
301.211
301.316
301.426
301.54
301.66
301.786
301.917
302.054
302.198
302.349
302.506
302.672
302.845
303.027
303.218
303.418
303.628
303.85
304.083
304.328
304.587
304.859
305.147
305.45
305.771
306.111
306.47
306.85
307.254
307.681
308.135
308.616
309.128
309.671
310.249
310.864
311.518
312.214
312.954
313.742
314.581
315.474
316.424
317.435
318.511
319.654
320.868
322.158
323.526
324.976
326.51
328.132
329.844
331.646
333.54
335.525
337.597
339.754
341.99
344.296
346.662
349.076
351.522
353.985
356.445
300.026
300.079
300.134
300.192
300.252
300.315
300.38
300.448
300.519
300.593
300.67
300.751
300.836
300.924
301.016
301.112
301.213
301.318
301.428
301.543
301.663
301.788
301.92
302.058
302.202
302.353
302.511
302.676
302.85
303.032
303.223
303.424
303.635
303.856
304.089
304.335
304.593
304.866
305.153
305.456
305.777
306.115
306.473
306.852
307.254
307.679
308.13
308.608
309.115
309.654
310.226
310.834
311.48
312.166
312.895
313.669
314.493
315.367
316.296
317.282
318.328
319.437
320.612
321.855
323.17
324.559
326.023
327.564
329.183
330.879
332.653
334.502
336.422
338.409
340.458
342.559
344.704
346.882
349.08
351.287
353.487
300.026
300.079
300.134
300.192
300.252
300.315
300.38
300.448
300.519
300.593
300.671
300.752
300.836
300.925
301.017
301.113
301.214
301.32
301.43
301.545
301.666
301.792
301.924
302.062
302.206
302.357
302.516
302.682
302.856
303.038
303.23
303.431
303.642
303.864
304.097
304.343
304.601
304.873
305.16
305.463
305.782
306.12
306.477
306.854
307.253
307.676
308.123
308.597
309.1
309.633
310.198
310.797
311.433
312.108
312.823
313.582
314.387
315.24
316.144
317.101
318.114
319.185
320.316
321.509
322.766
324.088
325.477
326.932
328.454
330.042
331.693
333.406
335.177
337
338.87
340.779
342.72
344.683
346.658
348.636
350.604
300.026
300.079
300.134
300.192
300.252
300.315
300.38
300.448
300.52
300.594
300.671
300.753
300.837
300.926
301.018
301.115
301.216
301.322
301.432
301.548
301.669
301.795
301.928
302.066
302.211
302.363
302.522
302.688
302.863
303.046
303.238
303.439
303.65
303.873
304.106
304.351
304.61
304.882
305.168
305.47
305.789
306.125
306.48
306.855
307.252
307.671
308.114
308.584
309.08
309.606
310.163
310.753
311.378
312.039
312.739
313.48
314.264
315.093
315.969
316.894
317.87
318.899
319.982
321.12
322.315
323.567
324.877
326.243
327.666
329.144
330.674
332.254
333.88
335.546
337.248
338.979
340.732
342.5
344.274
346.048
347.811
300.026
300.079
300.134
300.192
300.252
300.315
300.38
300.449
300.52
300.594
300.672
300.753
300.838
300.927
301.02
301.117
301.218
301.324
301.435
301.551
301.673
301.8
301.932
302.071
302.217
302.369
302.529
302.696
302.871
303.054
303.247
303.448
303.66
303.883
304.116
304.362
304.62
304.891
305.177
305.478
305.796
306.13
306.483
306.856
307.249
307.664
308.103
308.567
309.057
309.575
310.122
310.701
311.312
311.958
312.641
313.362
314.122
314.925
315.77
316.66
317.596
318.579
319.611
320.691
321.821
323
324.229
325.506
326.829
328.198
329.61
331.061
332.548
334.067
335.612
337.179
338.761
340.352
341.946
343.536
345.117
300.026
300.079
300.134
300.192
300.252
300.315
300.381
300.449
300.52
300.595
300.673
300.754
300.839
300.928
301.021
301.119
301.221
301.327
301.439
301.555
301.677
301.804
301.938
302.077
302.224
302.377
302.537
302.704
302.88
303.064
303.257
303.459
303.671
303.894
304.128
304.373
304.631
304.902
305.187
305.487
305.803
306.136
306.486
306.856
307.245
307.656
308.089
308.546
309.028
309.537
310.074
310.64
311.237
311.866
312.529
313.227
313.962
314.735
315.547
316.399
317.293
318.228
319.205
320.226
321.289
322.394
323.541
324.728
325.954
327.217
328.514
329.843
331.199
332.58
333.981
335.397
336.823
338.255
339.687
341.114
342.531
300.026
300.079
300.135
300.192
300.252
300.315
300.381
300.449
300.521
300.596
300.674
300.755
300.841
300.93
301.023
301.121
301.223
301.33
301.442
301.559
301.682
301.81
301.944
302.084
302.231
302.385
302.546
302.714
302.89
303.075
303.268
303.471
303.684
303.906
304.14
304.386
304.643
304.914
305.198
305.497
305.811
306.141
306.489
306.855
307.24
307.645
308.072
308.522
308.995
309.493
310.018
310.57
311.15
311.761
312.403
313.077
313.784
314.525
315.302
316.114
316.963
317.848
318.771
319.73
320.725
321.756
322.822
323.922
325.053
326.214
327.402
328.615
329.849
331.102
332.37
333.649
334.934
336.222
337.509
338.791
340.063
300.026
300.079
300.135
300.192
300.253
300.315
300.381
300.45
300.521
300.596
300.675
300.756
300.842
300.932
301.026
301.124
301.227
301.334
301.447
301.564
301.687
301.816
301.951
302.092
302.24
302.394
302.556
302.725
302.902
303.087
303.281
303.485
303.697
303.921
304.154
304.4
304.657
304.927
305.21
305.507
305.819
306.147
306.491
306.853
307.233
307.632
308.052
308.493
308.956
309.443
309.954
310.491
311.054
311.644
312.263
312.911
313.589
314.297
315.036
315.807
316.61
317.445
318.311
319.209
320.137
321.095
322.082
323.097
324.137
325.201
326.287
327.392
328.513
329.648
330.795
331.948
333.107
334.266
335.423
336.575
337.718
300.026
300.079
300.135
300.192
300.253
300.316
300.381
300.45
300.522
300.597
300.676
300.758
300.844
300.934
301.028
301.127
301.23
301.338
301.451
301.57
301.694
301.823
301.959
302.101
302.249
302.405
302.567
302.737
302.915
303.101
303.296
303.499
303.713
303.936
304.17
304.415
304.671
304.94
305.222
305.517
305.827
306.152
306.492
306.849
307.224
307.617
308.028
308.46
308.913
309.387
309.883
310.403
310.947
311.516
312.111
312.731
313.378
314.052
314.754
315.482
316.239
317.022
317.833
318.67
319.533
320.42
321.331
322.264
323.218
324.191
325.181
326.186
327.204
328.232
329.268
330.309
331.352
332.396
333.437
334.472
335.5
300.026
300.079
300.135
300.192
300.253
300.316
300.382
300.45
300.522
300.598
300.677
300.759
300.846
300.936
301.031
301.13
301.234
301.343
301.457
301.576
301.701
301.831
301.968
302.11
302.26
302.416
302.58
302.75
302.929
303.116
303.311
303.516
303.729
303.953
304.187
304.431
304.687
304.955
305.235
305.529
305.835
306.157
306.493
306.845
307.213
307.598
308.002
308.423
308.864
309.325
309.806
310.308
310.832
311.378
311.947
312.54
313.155
313.794
314.457
315.144
315.854
316.587
317.343
318.121
318.92
319.739
320.578
321.435
322.308
323.196
324.098
325.011
325.933
326.864
327.799
328.739
329.68
330.62
331.557
332.489
333.414
300.026
300.079
300.135
300.192
300.253
300.316
300.382
300.451
300.523
300.598
300.678
300.761
300.847
300.938
301.034
301.134
301.238
301.348
301.462
301.583
301.708
301.84
301.977
302.121
302.271
302.429
302.593
302.765
302.945
303.132
303.328
303.533
303.747
303.971
304.205
304.449
304.704
304.971
305.249
305.54
305.844
306.161
306.493
306.839
307.2
307.578
307.972
308.382
308.811
309.257
309.722
310.206
310.709
311.232
311.775
312.339
312.922
313.527
314.151
314.796
315.46
316.144
316.847
317.568
318.307
319.062
319.833
320.618
321.416
322.226
323.047
323.876
324.712
325.554
326.399
327.247
328.096
328.943
329.788
330.628
331.462
300.026
300.079
300.134
300.192
300.253
300.316
300.382
300.451
300.523
300.599
300.679
300.762
300.849
300.941
301.037
301.137
301.243
301.353
301.469
301.59
301.716
301.849
301.988
302.132
302.284
302.442
302.608
302.781
302.961
303.15
303.347
303.552
303.767
303.991
304.224
304.468
304.722
304.987
305.263
305.552
305.852
306.165
306.492
306.832
307.186
307.555
307.939
308.338
308.753
309.185
309.633
310.098
310.58
311.08
311.597
312.131
312.683
313.253
313.84
314.444
315.064
315.701
316.354
317.021
317.702
318.397
319.105
319.823
320.553
321.291
322.037
322.79
323.548
324.31
325.074
325.84
326.606
327.371
328.133
328.891
329.643
300.026
300.079
300.134
300.192
300.253
300.316
300.382
300.451
300.524
300.6
300.68
300.764
300.851
300.943
301.04
301.141
301.247
301.359
301.475
301.597
301.725
301.859
301.999
302.145
302.297
302.457
302.624
302.798
302.979
303.169
303.366
303.573
303.787
304.011
304.244
304.487
304.74
305.004
305.278
305.563
305.86
306.169
306.49
306.824
307.17
307.53
307.904
308.291
308.693
309.11
309.541
309.986
310.447
310.923
311.415
311.921
312.442
312.978
313.528
314.093
314.672
315.264
315.868
316.485
317.113
317.752
318.401
319.059
319.725
320.397
321.076
321.76
322.448
323.138
323.83
324.523
325.215
325.906
326.594
327.279
327.959
300.026
300.079
300.134
300.192
300.253
300.316
300.382
300.451
300.524
300.601
300.681
300.765
300.853
300.946
301.043
301.145
301.252
301.365
301.482
301.605
301.734
301.869
302.01
302.158
302.312
302.473
302.64
302.816
302.998
303.189
303.387
303.594
303.809
304.033
304.266
304.508
304.76
305.021
305.293
305.575
305.868
306.173
306.488
306.815
307.153
307.504
307.867
308.243
308.631
309.032
309.446
309.873
310.313
310.766
311.232
311.71
312.202
312.705
313.221
313.749
314.287
314.837
315.397
315.967
316.546
317.133
317.729
318.331
318.939
319.552
320.171
320.792
321.417
322.043
322.67
323.297
323.924
324.549
325.171
325.79
326.406
300.026
300.079
300.134
300.192
300.252
300.316
300.382
300.452
300.525
300.601
300.682
300.766
300.855
300.949
301.047
301.15
301.257
301.371
301.489
301.614
301.744
301.88
302.022
302.171
302.327
302.489
302.658
302.834
303.018
303.209
303.409
303.616
303.831
304.055
304.288
304.529
304.779
305.039
305.309
305.588
305.877
306.176
306.485
306.805
307.136
307.478
307.83
308.194
308.568
308.954
309.351
309.76
310.179
310.61
311.051
311.504
311.966
312.439
312.922
313.415
313.917
314.427
314.946
315.473
316.006
316.547
317.093
317.645
318.201
318.761
319.325
319.891
320.458
321.027
321.596
322.165
322.733
323.3
323.864
324.424
324.982
300.026
300.079
300.134
300.192
300.252
300.315
300.382
300.451
300.525
300.602
300.683
300.768
300.857
300.951
301.05
301.154
301.263
301.377
301.497
301.622
301.753
301.891
302.035
302.185
302.342
302.505
302.676
302.853
303.038
303.231
303.431
303.638
303.854
304.078
304.31
304.55
304.799
305.057
305.324
305.6
305.885
306.179
306.482
306.795
307.118
307.451
307.793
308.144
308.506
308.877
309.258
309.648
310.048
310.457
310.876
311.303
311.739
312.183
312.636
313.096
313.563
314.038
314.519
315.006
315.499
315.996
316.498
317.004
317.514
318.026
318.54
319.057
319.574
320.091
320.609
321.126
321.642
322.156
322.667
323.176
323.682
300.026
300.078
300.134
300.191
300.251
300.315
300.381
300.451
300.524
300.602
300.683
300.769
300.859
300.953
301.053
301.157
301.267
301.383
301.504
301.63
301.763
301.902
302.047
302.199
302.357
302.522
302.694
302.873
303.059
303.252
303.453
303.661
303.877
304.1
304.332
304.572
304.819
305.075
305.339
305.611
305.892
306.182
306.479
306.786
307.1
307.424
307.756
308.096
308.445
308.802
309.167
309.54
309.922
310.311
310.707
311.111
311.522
311.94
312.364
312.795
313.231
313.672
314.119
314.57
315.026
315.485
315.947
316.412
316.88
317.349
317.82
318.292
318.764
319.236
319.708
320.178
320.647
321.115
321.58
322.043
322.502
300.026
300.078
300.133
300.191
300.251
300.314
300.38
300.45
300.524
300.601
300.683
300.769
300.86
300.955
301.055
301.161
301.272
301.388
301.51
301.638
301.772
301.913
302.059
302.212
302.372
302.538
302.711
302.891
303.079
303.273
303.474
303.683
303.899
304.123
304.354
304.592
304.838
305.092
305.354
305.623
305.899
306.184
306.476
306.775
307.083
307.397
307.719
308.049
308.385
308.729
309.08
309.437
309.801
310.171
310.548
310.93
311.318
311.712
312.11
312.513
312.921
313.333
313.748
314.167
314.589
315.013
315.44
315.869
316.299
316.73
317.162
317.594
318.026
318.457
318.888
319.318
319.746
320.172
320.595
321.017
321.435
300.026
300.078
300.132
300.19
300.25
300.313
300.379
300.449
300.523
300.601
300.683
300.769
300.86
300.956
301.057
301.164
301.276
301.393
301.516
301.646
301.781
301.923
302.071
302.225
302.386
302.554
302.728
302.91
303.098
303.293
303.495
303.704
303.921
304.144
304.374
304.612
304.857
305.108
305.367
305.633
305.906
306.185
306.472
306.765
307.065
307.371
307.684
308.003
308.328
308.659
308.996
309.339
309.687
310.04
310.398
310.76
311.127
311.499
311.874
312.252
312.634
313.019
313.406
313.796
314.188
314.582
314.977
315.373
315.769
316.167
316.564
316.961
317.357
317.753
318.147
318.54
318.931
319.32
319.707
320.092
320.473
300.025
300.077
300.132
300.189
300.249
300.312
300.378
300.448
300.522
300.599
300.682
300.769
300.86
300.957
301.059
301.166
301.279
301.397
301.521
301.652
301.789
301.932
302.081
302.237
302.399
302.568
302.744
302.926
303.115
303.311
303.514
303.724
303.94
304.163
304.393
304.63
304.873
305.122
305.379
305.641
305.91
306.185
306.466
306.754
307.046
307.345
307.649
307.959
308.273
308.593
308.917
309.246
309.579
309.916
310.257
310.601
310.949
311.3
311.654
312.011
312.369
312.73
313.093
313.457
313.822
314.188
314.554
314.921
315.288
315.655
316.021
316.387
316.752
317.115
317.477
317.838
318.196
318.552
318.906
319.258
319.606
300.025
300.077
300.131
300.187
300.247
300.31
300.376
300.446
300.52
300.598
300.68
300.767
300.859
300.956
301.059
301.167
301.28
301.4
301.525
301.657
301.795
301.939
302.089
302.247
302.41
302.58
302.757
302.941
303.131
303.327
303.531
303.741
303.957
304.18
304.409
304.644
304.886
305.134
305.387
305.647
305.912
306.183
306.459
306.74
307.026
307.318
307.613
307.914
308.218
308.527
308.84
309.156
309.475
309.798
310.124
310.452
310.783
311.115
311.45
311.787
312.125
312.464
312.804
313.144
313.486
313.827
314.168
314.509
314.85
315.19
315.529
315.867
316.203
316.538
316.871
317.203
317.532
317.859
318.183
318.505
318.824
300.025
300.076
300.13
300.186
300.245
300.308
300.373
300.443
300.517
300.595
300.677
300.765
300.857
300.955
301.058
301.166
301.281
301.401
301.527
301.66
301.799
301.944
302.096
302.254
302.419
302.59
302.768
302.952
303.143
303.34
303.544
303.754
303.97
304.192
304.421
304.655
304.895
305.14
305.392
305.648
305.909
306.176
306.447
306.723
307.003
307.287
307.575
307.867
308.163
308.461
308.763
309.067
309.374
309.684
309.995
310.309
310.624
310.94
311.258
311.576
311.895
312.215
312.535
312.854
313.174
313.493
313.812
314.13
314.447
314.763
315.077
315.39
315.702
316.011
316.318
316.624
316.927
317.227
317.525
317.821
318.113
300.025
300.075
300.128
300.184
300.243
300.305
300.37
300.44
300.513
300.591
300.674
300.761
300.854
300.952
301.055
301.164
301.279
301.4
301.528
301.661
301.801
301.947
302.1
302.259
302.425
302.597
302.775
302.96
303.151
303.349
303.553
303.763
303.978
304.2
304.427
304.66
304.898
305.142
305.39
305.643
305.901
306.163
306.43
306.7
306.974
307.252
307.532
307.816
308.103
308.392
308.684
308.977
309.273
309.57
309.868
310.168
310.468
310.77
311.071
311.373
311.675
311.977
312.279
312.58
312.88
313.18
313.478
313.775
314.071
314.365
314.657
314.948
315.236
315.523
315.807
316.089
316.368
316.645
316.919
317.191
317.459
300.024
300.074
300.127
300.182
300.24
300.302
300.367
300.436
300.509
300.587
300.669
300.757
300.849
300.947
301.051
301.161
301.276
301.398
301.526
301.66
301.8
301.947
302.101
302.26
302.427
302.599
302.778
302.964
303.155
303.353
303.556
303.766
303.981
304.202
304.428
304.659
304.895
305.136
305.381
305.631
305.885
306.143
306.405
306.669
306.937
307.208
307.482
307.758
308.036
308.316
308.598
308.881
309.166
309.451
309.737
310.024
310.311
310.598
310.886
311.172
311.459
311.744
312.029
312.312
312.595
312.876
313.156
313.434
313.71
313.984
314.257
314.527
314.795
315.06
315.323
315.584
315.842
316.097
316.35
316.599
316.846
300.024
300.073
300.125
300.18
300.237
300.298
300.363
300.431
300.504
300.581
300.664
300.751
300.844
300.942
301.046
301.155
301.271
301.393
301.521
301.656
301.797
301.944
302.098
302.258
302.425
302.598
302.777
302.963
303.154
303.351
303.554
303.763
303.977
304.196
304.421
304.65
304.884
305.122
305.364
305.61
305.86
306.113
306.37
306.629
306.891
307.155
307.421
307.689
307.959
308.23
308.503
308.776
309.049
309.324
309.598
309.872
310.147
310.42
310.693
310.966
311.237
311.507
311.776
312.044
312.309
312.573
312.836
313.096
313.354
313.61
313.864
314.115
314.364
314.61
314.854
315.095
315.333
315.569
315.801
316.031
316.258
300.024
300.072
300.123
300.177
300.234
300.294
300.358
300.426
300.498
300.575
300.657
300.744
300.837
300.935
301.039
301.149
301.264
301.387
301.515
301.65
301.791
301.939
302.093
302.253
302.42
302.592
302.771
302.956
303.147
303.344
303.546
303.754
303.966
304.184
304.406
304.633
304.864
305.099
305.337
305.579
305.825
306.073
306.324
306.577
306.832
307.089
307.348
307.608
307.869
308.131
308.394
308.657
308.92
309.183
309.445
309.708
309.969
310.23
310.489
310.747
311.004
311.26
311.513
311.765
312.015
312.263
312.509
312.752
312.993
313.232
313.468
313.702
313.933
314.161
314.387
314.61
314.83
315.047
315.261
315.472
315.681
300.023
300.071
300.121
300.174
300.23
300.289
300.353
300.42
300.492
300.568
300.65
300.737
300.829
300.927
301.031
301.14
301.256
301.378
301.507
301.641
301.783
301.93
302.084
302.244
302.411
302.583
302.762
302.946
303.136
303.332
303.532
303.738
303.949
304.164
304.384
304.608
304.836
305.067
305.301
305.539
305.779
306.021
306.266
306.513
306.761
307.011
307.262
307.514
307.766
308.018
308.271
308.523
308.775
309.027
309.277
309.527
309.776
310.023
310.269
310.514
310.756
310.997
311.236
311.473
311.707
311.939
312.169
312.397
312.621
312.844
313.063
313.28
313.494
313.706
313.914
314.12
314.323
314.523
314.72
314.914
315.105
300.023
300.07
300.119
300.171
300.226
300.285
300.348
300.414
300.485
300.561
300.642
300.729
300.821
300.918
301.022
301.131
301.247
301.369
301.497
301.632
301.773
301.92
302.074
302.234
302.4
302.572
302.749
302.933
303.122
303.316
303.515
303.719
303.928
304.14
304.357
304.578
304.802
305.029
305.258
305.491
305.725
305.962
306.2
306.439
306.68
306.921
307.163
307.406
307.648
307.891
308.133
308.374
308.615
308.855
309.094
309.331
309.567
309.801
310.034
310.265
310.493
310.72
310.944
311.166
311.386
311.603
311.817
312.029
312.238
312.445
312.649
312.85
313.048
313.243
313.436
313.625
313.812
313.996
314.177
314.355
314.53
300.022
300.069
300.117
300.168
300.223
300.281
300.343
300.409
300.479
300.555
300.635
300.721
300.813
300.91
301.013
301.123
301.238
301.36
301.488
301.622
301.763
301.91
302.064
302.223
302.389
302.56
302.737
302.919
303.107
303.3
303.497
303.699
303.905
304.115
304.328
304.545
304.765
304.987
305.211
305.438
305.666
305.896
306.127
306.359
306.592
306.825
307.058
307.291
307.524
307.756
307.988
308.218
308.448
308.676
308.902
309.127
309.351
309.572
309.791
310.009
310.224
310.436
310.647
310.854
311.059
311.262
311.462
311.659
311.853
312.045
312.234
312.42
312.603
312.783
312.961
313.136
313.307
313.476
313.642
313.806
313.966
300.022
300.067
300.115
300.166
300.22
300.277
300.338
300.404
300.474
300.549
300.629
300.715
300.806
300.903
301.006
301.115
301.231
301.352
301.48
301.615
301.756
301.903
302.056
302.215
302.38
302.551
302.728
302.909
303.096
303.287
303.482
303.682
303.885
304.092
304.302
304.514
304.73
304.947
305.167
305.388
305.61
305.834
306.058
306.283
306.508
306.733
306.958
307.182
307.405
307.628
307.849
308.07
308.288
308.505
308.721
308.934
309.146
309.355
309.562
309.766
309.969
310.168
310.366
310.56
310.752
310.941
311.127
311.311
311.492
311.669
311.844
312.017
312.186
312.352
312.516
312.677
312.835
312.99
313.142
313.292
313.438
300.022
300.067
300.114
300.164
300.217
300.274
300.335
300.4
300.47
300.545
300.624
300.71
300.801
300.898
301.001
301.11
301.226
301.348
301.476
301.611
301.752
301.899
302.052
302.212
302.377
302.548
302.723
302.904
303.09
303.279
303.473
303.671
303.872
304.077
304.284
304.494
304.706
304.92
305.135
305.352
305.569
305.787
306.006
306.225
306.444
306.662
306.879
307.096
307.312
307.526
307.74
307.951
308.161
308.369
308.575
308.778
308.98
309.179
309.375
309.57
309.761
309.95
310.136
310.319
310.5
310.678
310.853
311.025
311.194
311.36
311.524
311.684
311.842
311.997
312.149
312.298
312.444
312.588
312.728
312.866
313.001
300.022
300.066
300.113
300.163
300.216
300.272
300.333
300.398
300.468
300.542
300.622
300.707
300.799
300.896
300.999
301.108
301.224
301.346
301.475
301.61
301.752
301.899
302.053
302.213
302.378
302.549
302.725
302.905
303.09
303.28
303.473
303.67
303.871
304.074
304.28
304.488
304.699
304.91
305.124
305.338
305.553
305.769
305.984
306.2
306.415
306.629
306.843
307.055
307.267
307.477
307.685
307.891
308.095
308.298
308.498
308.696
308.891
309.084
309.274
309.462
309.647
309.829
310.008
310.184
310.358
310.529
310.696
310.861
311.023
311.182
311.338
311.491
311.642
311.789
311.934
312.075
312.214
312.35
312.483
312.614
312.742
392.842
400.899
407.666
413.554
418.765
423.407
427.544
431.208
434.415
437.165
439.446
441.236
442.5
443.19
443.24
442.56
441.021
438.43
434.459
428.453
418.77
412.103
406.91
402.587
398.845
395.52
392.509
389.746
387.179
384.772
382.498
380.335
378.266
376.276
374.354
372.491
370.68
368.913
367.186
365.494
363.832
362.199
360.591
359.005
357.439
355.891
354.36
352.844
351.341
349.853
348.377
346.914
345.465
344.03
342.609
341.205
339.817
338.449
337.101
335.774
334.472
333.194
331.944
330.723
329.532
328.372
327.245
326.152
325.094
324.072
323.085
322.135
321.221
320.344
319.503
318.698
317.927
317.192
316.489
315.82
315.181
314.573
313.994
313.443
312.919
312.419
311.944
311.491
311.06
310.648
310.255
309.88
309.521
309.178
308.849
308.533
308.23
307.938
307.657
307.386
307.124
306.871
306.626
306.389
306.159
305.935
305.718
305.507
305.302
305.102
304.908
304.718
304.533
304.353
304.178
304.007
303.84
303.678
303.52
303.366
303.216
303.07
302.929
302.791
302.657
302.527
302.402
302.28
302.162
302.048
301.937
301.831
301.728
301.629
301.534
301.442
301.355
301.271
301.19
301.113
301.039
300.969
300.902
300.839
300.779
300.722
300.668
300.617
300.569
300.523
300.481
300.441
300.403
300.368
300.335
300.305
300.277
300.25
300.226
300.204
300.183
388.085
395.105
401.408
407.056
412.128
416.685
420.768
424.399
427.586
430.328
432.61
434.409
435.692
436.412
436.507
435.894
434.462
432.058
428.466
423.423
416.89
411.191
406.374
402.232
398.591
395.329
392.362
389.629
387.084
384.694
382.433
380.281
378.219
376.236
374.32
372.462
370.654
368.89
367.166
365.476
363.816
362.185
360.578
358.993
357.428
355.881
354.351
352.835
351.333
349.845
348.37
346.907
345.458
344.023
342.602
341.197
339.81
338.441
337.093
335.766
334.464
333.186
331.936
330.714
329.523
328.363
327.237
326.144
325.086
324.063
323.077
322.127
321.214
320.337
319.496
318.691
317.921
317.186
316.484
315.814
315.176
314.569
313.99
313.439
312.915
312.416
311.941
311.488
311.057
310.646
310.253
309.878
309.52
309.177
308.848
308.532
308.229
307.937
307.656
307.385
307.124
306.871
306.626
306.389
306.159
305.935
305.718
305.507
305.302
305.102
304.908
304.718
304.533
304.353
304.178
304.007
303.84
303.678
303.52
303.366
303.216
303.071
302.929
302.791
302.657
302.528
302.402
302.28
302.162
302.048
301.937
301.831
301.728
301.629
301.534
301.443
301.355
301.271
301.19
301.113
301.039
300.969
300.903
300.839
300.779
300.722
300.668
300.617
300.569
300.523
300.481
300.441
300.403
300.368
300.335
300.305
300.277
300.25
300.226
300.204
300.183
383.97
389.997
395.673
400.923
405.736
410.119
414.084
417.635
420.772
423.487
425.762
427.574
428.889
429.665
429.846
429.364
428.134
426.055
423.026
419.005
414.213
409.548
405.3
401.484
398.044
394.914
392.039
389.371
386.876
384.524
382.292
380.162
378.119
376.151
374.246
372.398
370.599
368.842
367.123
365.438
363.783
362.155
360.551
358.968
357.406
355.861
354.332
352.817
351.316
349.829
348.354
346.892
345.442
344.007
342.586
341.182
339.794
338.425
337.076
335.749
334.446
333.169
331.918
330.697
329.505
328.346
327.219
326.127
325.069
324.047
323.061
322.112
321.199