/*--------------------------------*- C++ -*----------------------------------*\
  =========                 |
  \\      /  F ield         | OpenFOAM: The Open Source CFD Toolbox
   \\    /   O peration     | Website:  https://openfoam.org
    \\  /    A nd           | Version:  7
     \\/     M anipulation  |
\*---------------------------------------------------------------------------*/
FoamFile
{
    version     2.0;
    format      ascii;
    class       surfaceScalarField;
    location    "3";
    object      phi;
}
// * * * * * * * * * * * * * * * * * * * * * * * * * * * * * * * * * * * * * //

dimensions      [1 0 -1 0 0 0 0];

internalField   nonuniform List<scalar> 
23692
(
1.17569e-05
-1.22059e-07
1.19773e-05
-2.20332e-07
1.22826e-05
-3.05277e-07
1.26602e-05
-3.77524e-07
1.31005e-05
-4.40117e-07
1.35957e-05
-4.95086e-07
1.41397e-05
-5.43847e-07
1.47273e-05
-5.87496e-07
1.53543e-05
-6.26838e-07
1.60169e-05
-6.62458e-07
1.67119e-05
-6.94766e-07
1.74361e-05
-7.24053e-07
1.81868e-05
-7.50512e-07
1.89612e-05
-7.7428e-07
1.97568e-05
-7.95451e-07
2.0571e-05
-8.14098e-07
2.14014e-05
-8.30286e-07
2.22455e-05
-8.44081e-07
2.31011e-05
-8.55554e-07
2.39659e-05
-8.64784e-07
2.48377e-05
-8.7186e-07
2.57144e-05
-8.76881e-07
2.65942e-05
-8.79956e-07
2.74752e-05
-8.81197e-07
2.83557e-05
-8.80724e-07
2.9234e-05
-8.78659e-07
3.01087e-05
-8.75123e-07
3.09785e-05
-8.70237e-07
3.1842e-05
-8.64121e-07
3.26983e-05
-8.56888e-07
3.35462e-05
-8.48647e-07
3.43849e-05
-8.39502e-07
3.52136e-05
-8.29549e-07
3.60315e-05
-8.18877e-07
3.6838e-05
-8.07568e-07
3.76325e-05
-7.95696e-07
3.84146e-05
-7.83326e-07
3.91837e-05
-7.70518e-07
3.99396e-05
-7.57321e-07
4.06818e-05
-7.43778e-07
4.14101e-05
-7.29925e-07
4.21241e-05
-7.15789e-07
4.28236e-05
-7.01391e-07
4.35084e-05
-6.86743e-07
4.41781e-05
-6.71852e-07
4.48327e-05
-6.56715e-07
4.54717e-05
-6.41326e-07
4.6095e-05
-6.25668e-07
4.67022e-05
-6.09718e-07
4.7293e-05
-5.93445e-07
4.78671e-05
-5.76811e-07
4.84241e-05
-5.5977e-07
4.89634e-05
-5.42266e-07
4.94847e-05
-5.24234e-07
4.99872e-05
-5.05599e-07
5.04703e-05
-4.86273e-07
5.09332e-05
-4.66157e-07
5.1375e-05
-4.45136e-07
5.17946e-05
-4.23076e-07
5.2191e-05
-3.99823e-07
5.25626e-05
-3.75197e-07
5.2908e-05
-3.48987e-07
5.32252e-05
-3.20941e-07
5.35122e-05
-2.90756e-07
5.37665e-05
-2.58065e-07
5.39851e-05
-2.2241e-07
5.41645e-05
-1.83217e-07
5.43003e-05
-1.39751e-07
5.43875e-05
-9.10506e-08
5.44194e-05
-3.58419e-08
5.43879e-05
2.7657e-08
5.42819e-05
1.02114e-07
5.40865e-05
1.91485e-07
5.37808e-05
3.01851e-07
5.3334e-05
4.43001e-07
5.26988e-05
6.3145e-07
5.17987e-05
8.96418e-07
5.05025e-05
1.29261e-06
4.85657e-05
1.93323e-06
4.54632e-05
3.09907e-06
5.96503e-06
3.94949e-05
1.25773e-05
-2.49818e-07
1.28121e-05
-4.55072e-07
1.31381e-05
-6.31224e-07
1.35414e-05
-7.8075e-07
1.40118e-05
-9.10349e-07
1.4541e-05
-1.02415e-06
1.51224e-05
-1.12509e-06
1.57505e-05
-1.21545e-06
1.64207e-05
-1.29688e-06
1.71291e-05
-1.37061e-06
1.7872e-05
-1.43748e-06
1.86462e-05
-1.4981e-06
1.94487e-05
-1.55286e-06
2.02766e-05
-1.60204e-06
2.11272e-05
-1.64585e-06
2.19976e-05
-1.68443e-06
2.28854e-05
-1.71792e-06
2.37878e-05
-1.74645e-06
2.47025e-05
-1.77018e-06
2.56269e-05
-1.78925e-06
2.65588e-05
-1.80387e-06
2.74961e-05
-1.81422e-06
2.84365e-05
-1.82055e-06
2.93782e-05
-1.82308e-06
3.03192e-05
-1.82205e-06
3.12579e-05
-1.81773e-06
3.21927e-05
-1.81035e-06
3.31221e-05
-1.80019e-06
3.40449e-05
-1.78747e-06
3.49597e-05
-1.77243e-06
3.58656e-05
-1.7553e-06
3.67616e-05
-1.7363e-06
3.76467e-05
-1.71562e-06
3.85202e-05
-1.69345e-06
3.93815e-05
-1.66995e-06
4.02298e-05
-1.64528e-06
4.10647e-05
-1.61958e-06
4.18857e-05
-1.59296e-06
4.26924e-05
-1.56554e-06
4.34843e-05
-1.53738e-06
4.42612e-05
-1.50858e-06
4.50227e-05
-1.47919e-06
4.57685e-05
-1.44924e-06
4.64984e-05
-1.41877e-06
4.72121e-05
-1.38779e-06
4.79094e-05
-1.35629e-06
4.85899e-05
-1.32426e-06
4.92533e-05
-1.29166e-06
4.98993e-05
-1.25845e-06
5.05277e-05
-1.22457e-06
5.11379e-05
-1.18993e-06
5.17296e-05
-1.15443e-06
5.23022e-05
-1.11798e-06
5.28552e-05
-1.08043e-06
5.33879e-05
-1.04162e-06
5.38996e-05
-1.00139e-06
5.43895e-05
-9.59525e-07
5.48565e-05
-9.15792e-07
5.52997e-05
-8.69922e-07
5.57178e-05
-8.21603e-07
5.61092e-05
-7.70472e-07
5.64725e-05
-7.16103e-07
5.68056e-05
-6.57993e-07
5.71064e-05
-5.95538e-07
5.73723e-05
-5.28006e-07
5.76002e-05
-4.54498e-07
5.77868e-05
-3.73885e-07
5.79276e-05
-2.84735e-07
5.80176e-05
-1.85192e-07
5.80504e-05
-7.28009e-08
5.80181e-05
5.57785e-08
5.79107e-05
2.05341e-07
5.77152e-05
3.82819e-07
5.74144e-05
5.98478e-07
5.69854e-05
8.67982e-07
5.63969e-05
1.21595e-06
5.56073e-05
1.68199e-06
5.45648e-05
2.33124e-06
5.32192e-05
3.27508e-06
5.16081e-05
4.70654e-06
6.86856e-06
5.0701e-05
1.34543e-05
-3.82793e-07
1.37035e-05
-7.04315e-07
1.40504e-05
-9.77998e-07
1.44802e-05
-1.21046e-06
1.49819e-05
-1.41186e-06
1.55465e-05
-1.58867e-06
1.61671e-05
-1.74548e-06
1.68376e-05
-1.88582e-06
1.75533e-05
-2.01231e-06
1.83096e-05
-2.12681e-06
1.9103e-05
-2.23066e-06
1.99299e-05
-2.32478e-06
2.0787e-05
-2.4098e-06
2.16713e-05
-2.48616e-06
2.25798e-05
-2.55416e-06
2.35095e-05
-2.61403e-06
2.44577e-05
-2.66599e-06
2.54215e-05
-2.71024e-06
2.63984e-05
-2.74701e-06
2.73857e-05
-2.77656e-06
2.83809e-05
-2.79917e-06
2.93817e-05
-2.81516e-06
3.03859e-05
-2.82488e-06
3.13913e-05
-2.8287e-06
3.23959e-05
-2.82699e-06
3.33979e-05
-2.82015e-06
3.43957e-05
-2.80857e-06
3.53876e-05
-2.79264e-06
3.63722e-05
-2.77273e-06
3.73483e-05
-2.74922e-06
3.83146e-05
-2.72246e-06
3.92702e-05
-2.69277e-06
4.0214e-05
-2.66047e-06
4.11453e-05
-2.62583e-06
4.20633e-05
-2.58913e-06
4.29673e-05
-2.5506e-06
4.38567e-05
-2.51045e-06
4.4731e-05
-2.46886e-06
4.55898e-05
-2.426e-06
4.64326e-05
-2.382e-06
4.72591e-05
-2.33698e-06
4.80689e-05
-2.29101e-06
4.88617e-05
-2.24418e-06
4.96372e-05
-2.19651e-06
5.0395e-05
-2.14803e-06
5.1135e-05
-2.09872e-06
5.18566e-05
-2.04857e-06
5.25598e-05
-1.99753e-06
5.3244e-05
-1.94552e-06
5.39089e-05
-1.89244e-06
5.4554e-05
-1.83817e-06
5.51789e-05
-1.78258e-06
5.57831e-05
-1.72547e-06
5.63659e-05
-1.66666e-06
5.69266e-05
-1.6059e-06
5.74646e-05
-1.54293e-06
5.79787e-05
-1.47744e-06
5.84682e-05
-1.40907e-06
5.89318e-05
-1.33743e-06
5.93682e-05
-1.26205e-06
5.9776e-05
-1.18238e-06
6.01536e-05
-1.09779e-06
6.04989e-05
-1.00756e-06
6.08099e-05
-9.10788e-07
6.1084e-05
-8.06427e-07
6.13183e-05
-6.93182e-07
6.15094e-05
-5.69457e-07
6.16535e-05
-4.33249e-07
6.17458e-05
-2.81995e-07
6.17809e-05
-1.12375e-07
6.17523e-05
7.99628e-08
6.16522e-05
3.00959e-07
6.14717e-05
5.58838e-07
6.12007e-05
8.65086e-07
6.08284e-05
1.23589e-06
6.03459e-05
1.69417e-06
5.97515e-05
2.27215e-06
5.90647e-05
3.01392e-06
5.83596e-05
3.97604e-06
5.78487e-05
5.21357e-06
6.70104e-06
5.80124e-05
1.43922e-05
-5.20961e-07
1.46558e-05
-9.67865e-07
1.50237e-05
-1.34589e-06
1.54808e-05
-1.66736e-06
1.60148e-05
-1.94576e-06
1.66164e-05
-2.19009e-06
1.72778e-05
-2.40674e-06
1.79928e-05
-2.60062e-06
1.8756e-05
-2.77533e-06
1.95629e-05
-2.93347e-06
2.04093e-05
-3.07688e-06
2.12916e-05
-3.20683e-06
2.22062e-05
-3.32421e-06
2.31498e-05
-3.42961e-06
2.41193e-05
-3.52344e-06
2.51114e-05
-3.60604e-06
2.61233e-05
-3.67769e-06
2.71518e-05
-3.73868e-06
2.81941e-05
-3.78933e-06
2.92475e-05
-3.82998e-06
3.03094e-05
-3.86105e-06
3.1377e-05
-3.88296e-06
3.24482e-05
-3.89619e-06
3.35205e-05
-3.90125e-06
3.45918e-05
-3.89867e-06
3.56602e-05
-3.88899e-06
3.67239e-05
-3.87275e-06
3.77812e-05
-3.85048e-06
3.88305e-05
-3.82272e-06
3.98705e-05
-3.78996e-06
4.08999e-05
-3.75269e-06
4.19175e-05
-3.71137e-06
4.29224e-05
-3.66642e-06
4.39136e-05
-3.61823e-06
4.48903e-05
-3.56717e-06
4.58518e-05
-3.51356e-06
4.67975e-05
-3.45769e-06
4.77268e-05
-3.39981e-06
4.86392e-05
-3.34015e-06
4.95342e-05
-3.2789e-06
5.04114e-05
-3.2162e-06
5.12704e-05
-3.15218e-06
5.21108e-05
-3.08693e-06
5.29324e-05
-3.02049e-06
5.37347e-05
-2.95291e-06
5.45175e-05
-2.88417e-06
5.52803e-05
-2.81423e-06
5.60229e-05
-2.74303e-06
5.67448e-05
-2.67047e-06
5.74455e-05
-2.59641e-06
5.81247e-05
-2.5207e-06
5.87819e-05
-2.44313e-06
5.94163e-05
-2.36348e-06
6.00275e-05
-2.28147e-06
6.06146e-05
-2.1968e-06
6.11768e-05
-2.10909e-06
6.17134e-05
-2.01795e-06
6.22231e-05
-1.92291e-06
6.27049e-05
-1.82344e-06
6.31575e-05
-1.71893e-06
6.35795e-05
-1.60869e-06
6.39691e-05
-1.49191e-06
6.43247e-05
-1.36765e-06
6.46441e-05
-1.23479e-06
6.49251e-05
-1.09204e-06
6.5165e-05
-9.37799e-07
6.5361e-05
-7.7016e-07
6.55097e-05
-5.86757e-07
6.56076e-05
-3.84644e-07
6.56505e-05
-1.60112e-07
6.56342e-05
9.1458e-08
6.55544e-05
3.75985e-07
6.54073e-05
7.01196e-07
6.51906e-05
1.07708e-06
6.49054e-05
1.51634e-06
6.45603e-05
2.03469e-06
6.41774e-05
2.65048e-06
6.38041e-05
3.38274e-06
6.35303e-05
4.24546e-06
6.35061e-05
5.23353e-06
6.2877e-06
6.39153e-05
1.53955e-05
-6.64468e-07
1.56734e-05
-1.24571e-06
1.60628e-05
-1.73526e-06
1.65477e-05
-2.15217e-06
1.71153e-05
-2.51315e-06
1.77552e-05
-2.82985e-06
1.84593e-05
-3.11063e-06
1.92207e-05
-3.36186e-06
2.00338e-05
-3.58821e-06
2.08937e-05
-3.79306e-06
2.17958e-05
-3.97881e-06
2.27363e-05
-4.14711e-06
2.37114e-05
-4.29908e-06
2.47175e-05
-4.43551e-06
2.57512e-05
-4.55693e-06
2.68091e-05
-4.66377e-06
2.78879e-05
-4.75641e-06
2.89845e-05
-4.83521e-06
3.00958e-05
-4.90058e-06
3.12189e-05
-4.953e-06
3.23507e-05
-4.99296e-06
3.34887e-05
-5.02104e-06
3.46301e-05
-5.03786e-06
3.57727e-05
-5.04408e-06
3.69141e-05
-5.04038e-06
3.80521e-05
-5.02746e-06
3.91849e-05
-5.00602e-06
4.03105e-05
-4.97676e-06
4.14275e-05
-4.94036e-06
4.25341e-05
-4.89746e-06
4.36292e-05
-4.8487e-06
4.47115e-05
-4.79467e-06
4.57798e-05
-4.73591e-06
4.68333e-05
-4.67294e-06
4.78709e-05
-4.60621e-06
4.8892e-05
-4.53615e-06
4.98958e-05
-4.46313e-06
5.08817e-05
-4.38749e-06
5.18491e-05
-4.3095e-06
5.27976e-05
-4.22941e-06
5.37267e-05
-4.14742e-06
5.46358e-05
-4.06368e-06
5.55248e-05
-3.9783e-06
5.6393e-05
-3.89136e-06
5.72403e-05
-3.80289e-06
5.80662e-05
-3.71289e-06
5.88702e-05
-3.6213e-06
5.96521e-05
-3.52805e-06
6.04114e-05
-3.43301e-06
6.11475e-05
-3.33602e-06
6.18602e-05
-3.23686e-06
6.25487e-05
-3.13531e-06
6.32124e-05
-3.03106e-06
6.38508e-05
-2.92378e-06
6.44631e-05
-2.8131e-06
6.50484e-05
-2.69856e-06
6.56058e-05
-2.57967e-06
6.61344e-05
-2.45587e-06
6.6633e-05
-2.32653e-06
6.71004e-05
-2.19091e-06
6.75352e-05
-2.04819e-06
6.79359e-05
-1.89744e-06
6.8301e-05
-1.73757e-06
6.86286e-05
-1.56732e-06
6.89169e-05
-1.38523e-06
6.91636e-05
-1.18958e-06
6.93667e-05
-9.78318e-07
6.95239e-05
-7.49002e-07
6.96328e-05
-4.98686e-07
6.96913e-05
-2.2381e-07
6.96978e-05
7.9797e-08
6.96517e-05
4.17035e-07
6.9554e-05
7.93796e-07
6.9409e-05
1.217e-06
6.9226e-05
1.69428e-06
6.90224e-05
2.23332e-06
6.88275e-05
2.84044e-06
6.86875e-05
3.51791e-06
6.86689e-05
4.2594e-06
6.88551e-05
5.04264e-06
5.8174e-06
6.93209e-05
1.64689e-05
-8.13618e-07
1.67612e-05
-1.53804e-06
1.71727e-05
-2.14657e-06
1.76863e-05
-2.66567e-06
1.82885e-05
-3.11517e-06
1.89682e-05
-3.50944e-06
1.97168e-05
-3.85896e-06
2.05268e-05
-4.17164e-06
2.13922e-05
-4.45332e-06
2.23076e-05
-4.70821e-06
2.32683e-05
-4.93929e-06
2.427e-05
-5.1486e-06
2.53088e-05
-5.33758e-06
2.63807e-05
-5.50716e-06
2.7482e-05
-5.65804e-06
2.86091e-05
-5.79074e-06
2.97586e-05
-5.90572e-06
3.09269e-05
-6.00345e-06
3.21108e-05
-6.08444e-06
3.33071e-05
-6.14927e-06
3.45126e-05
-6.19857e-06
3.57245e-05
-6.23306e-06
3.694e-05
-6.25351e-06
3.81563e-05
-6.26073e-06
3.93712e-05
-6.25559e-06
4.05822e-05
-6.23895e-06
4.17873e-05
-6.21168e-06
4.29846e-05
-6.17465e-06
4.41722e-05
-6.12871e-06
4.53485e-05
-6.07467e-06
4.65121e-05
-6.0133e-06
4.76617e-05
-5.94534e-06
4.8796e-05
-5.87147e-06
4.99141e-05
-5.79232e-06
5.10149e-05
-5.70847e-06
5.20975e-05
-5.62044e-06
5.31613e-05
-5.52869e-06
5.42056e-05
-5.43363e-06
5.52296e-05
-5.33561e-06
5.6233e-05
-5.23494e-06
5.72151e-05
-5.13185e-06
5.81755e-05
-5.02654e-06
5.91137e-05
-4.91916e-06
6.00294e-05
-4.80979e-06
6.0922e-05
-4.69847e-06
6.17913e-05
-4.58521e-06
6.26367e-05
-4.46995e-06
6.34579e-05
-4.35258e-06
6.42543e-05
-4.23297e-06
6.50256e-05
-4.11092e-06
6.57711e-05
-3.98618e-06
6.64903e-05
-3.85848e-06
6.71827e-05
-3.72747e-06
6.78474e-05
-3.59276e-06
6.84839e-05
-3.4539e-06
6.90912e-05
-3.31038e-06
6.96686e-05
-3.16164e-06
7.02151e-05
-3.00704e-06
7.07296e-05
-2.84586e-06
7.12111e-05
-2.6773e-06
7.16583e-05
-2.50045e-06
7.20701e-05
-2.31429e-06
7.2445e-05
-2.11768e-06
7.27818e-05
-1.90931e-06
7.30789e-05
-1.6877e-06
7.33351e-05
-1.45113e-06
7.3549e-05
-1.19767e-06
7.37196e-05
-9.25076e-07
7.38462e-05
-6.30769e-07
7.39287e-05
-3.11817e-07
7.39679e-05
3.50265e-08
7.39664e-05
4.13074e-07
7.3929e-05
8.25676e-07
7.38642e-05
1.27638e-06
7.3785e-05
1.76808e-06
7.37108e-05
2.3022e-06
7.36686e-05
2.87738e-06
7.36936e-05
3.48765e-06
7.38279e-05
4.12007e-06
7.41134e-05
4.75209e-06
5.34926e-06
7.45767e-05
1.76174e-05
-9.68856e-07
1.79246e-05
-1.84522e-06
1.83587e-05
-2.58049e-06
1.89019e-05
-3.20879e-06
1.954e-05
-3.75308e-06
2.02613e-05
-4.23049e-06
2.10562e-05
-4.65368e-06
2.1917e-05
-5.03222e-06
2.28372e-05
-5.3732e-06
2.38109e-05
-5.68169e-06
2.48332e-05
-5.9613e-06
2.58994e-05
-6.21453e-06
2.70052e-05
-6.44308e-06
2.81464e-05
-6.64811e-06
2.9319e-05
-6.83043e-06
3.05192e-05
-6.9907e-06
3.17431e-05
-7.12946e-06
3.29871e-05
-7.24729e-06
3.42475e-05
-7.34481e-06
3.55209e-05
-7.42271e-06
3.68041e-05
-7.48177e-06
3.80938e-05
-7.52287e-06
3.9387e-05
-7.54693e-06
4.06809e-05
-7.55494e-06
4.19729e-05
-7.54795e-06
4.32605e-05
-7.52701e-06
4.45414e-05
-7.49317e-06
4.58136e-05
-7.44749e-06
4.70751e-05
-7.39098e-06
4.83241e-05
-7.32464e-06
4.95592e-05
-7.2494e-06
5.07788e-05
-7.16614e-06
5.19818e-05
-7.0757e-06
5.31669e-05
-6.97883e-06
5.4333e-05
-6.87623e-06
5.54794e-05
-6.76852e-06
5.66051e-05
-6.65627e-06
5.77095e-05
-6.53997e-06
5.87917e-05
-6.42005e-06
5.98513e-05
-6.29686e-06
6.08877e-05
-6.1707e-06
6.19003e-05
-6.0418e-06
6.28887e-05
-5.91035e-06
6.38524e-05
-5.77644e-06
6.47909e-05
-5.64015e-06
6.57039e-05
-5.50145e-06
6.65908e-05
-5.36031e-06
6.74513e-05
-5.21661e-06
6.82847e-05
-5.07019e-06
6.90907e-05
-4.92083e-06
6.98687e-05
-4.76825e-06
7.06182e-05
-4.61214e-06
7.13385e-05
-4.45211e-06
7.20289e-05
-4.28773e-06
7.26889e-05
-4.11851e-06
7.33176e-05
-3.94389e-06
7.39143e-05
-3.76326e-06
7.44782e-05
-3.57592e-06
7.50083e-05
-3.38112e-06
7.55038e-05
-3.17802e-06
7.59636e-05
-2.96569e-06
7.6387e-05
-2.74312e-06
7.67729e-05
-2.50916e-06
7.71205e-05
-2.26258e-06
7.74291e-05
-2.00201e-06
7.76982e-05
-1.72593e-06
7.79274e-05
-1.4327e-06
7.8117e-05
-1.12051e-06
7.82677e-05
-7.87445e-07
7.83815e-05
-4.31493e-07
7.84612e-05
-5.06076e-08
7.85116e-05
3.56808e-07
7.85397e-05
7.91689e-07
7.85555e-05
1.25466e-06
7.85727e-05
1.74516e-06
7.86084e-05
2.26072e-06
7.86838e-05
2.79627e-06
7.88227e-05
3.34319e-06
7.90487e-05
3.88854e-06
7.93806e-05
4.41472e-06
4.9004e-06
7.98242e-05
1.88464e-05
-1.13074e-06
1.91691e-05
-2.16783e-06
1.96266e-05
-3.0379e-06
2.02006e-05
-3.78266e-06
2.08761e-05
-4.42835e-06
2.16406e-05
-4.99478e-06
2.24841e-05
-5.4969e-06
2.33981e-05
-5.94604e-06
2.43758e-05
-6.35056e-06
2.54109e-05
-6.71649e-06
2.6498e-05
-7.04811e-06
2.76322e-05
-7.34836e-06
2.88086e-05
-7.61925e-06
3.0023e-05
-7.86216e-06
3.12708e-05
-8.07805e-06
3.25481e-05
-8.2677e-06
3.38505e-05
-8.43175e-06
3.51743e-05
-8.5709e-06
3.65155e-05
-8.68588e-06
3.78703e-05
-8.77751e-06
3.92352e-05
-8.84673e-06
4.06068e-05
-8.89458e-06
4.19818e-05
-8.92216e-06
4.33573e-05
-8.93066e-06
4.47303e-05
-8.92131e-06
4.60981e-05
-8.89537e-06
4.74585e-05
-8.8541e-06
4.8809e-05
-8.79873e-06
5.01477e-05
-8.73049e-06
5.14726e-05
-8.65054e-06
5.27821e-05
-8.56e-06
5.40747e-05
-8.45991e-06
5.53488e-05
-8.35125e-06
5.66034e-05
-8.23493e-06
5.78373e-05
-8.11177e-06
5.90495e-05
-7.9825e-06
6.0239e-05
-7.8478e-06
6.14051e-05
-7.70825e-06
6.25471e-05
-7.56434e-06
6.36643e-05
-7.41652e-06
6.47561e-05
-7.26512e-06
6.58219e-05
-7.11043e-06
6.68612e-05
-6.95265e-06
6.78735e-05
-6.79193e-06
6.88584e-05
-6.62834e-06
6.98153e-05
-6.46189e-06
7.07438e-05
-6.29252e-06
7.16435e-05
-6.12011e-06
7.25138e-05
-5.9445e-06
7.33542e-05
-5.76546e-06
7.41643e-05
-5.58268e-06
7.49435e-05
-5.39582e-06
7.56912e-05
-5.20448e-06
7.64068e-05
-5.00819e-06
7.70898e-05
-4.80644e-06
7.77394e-05
-4.59865e-06
7.83551e-05
-4.38418e-06
7.89361e-05
-4.16234e-06
7.94818e-05
-3.93237e-06
7.99916e-05
-3.69344e-06
8.04649e-05
-3.44468e-06
8.0901e-05
-3.18512e-06
8.12996e-05
-2.91376e-06
8.16605e-05
-2.62952e-06
8.19837e-05
-2.33125e-06
8.22694e-05
-2.01779e-06
8.25183e-05
-1.68793e-06
8.2732e-05
-1.34047e-06
8.29126e-05
-9.74285e-07
8.30631e-05
-5.88367e-07
8.31881e-05
-1.81975e-07
8.32935e-05
2.45096e-07
8.33869e-05
6.91936e-07
8.34782e-05
1.15706e-06
8.35793e-05
1.63778e-06
8.3704e-05
2.12988e-06
8.3867e-05
2.62717e-06
8.40828e-05
3.12131e-06
8.43636e-05
3.60176e-06
8.47162e-05
4.05625e-06
4.47221e-06
8.51387e-05
2.01615e-05
-1.29992e-06
2.05004e-05
-2.50666e-06
2.09825e-05
-3.5199e-06
2.15887e-05
-4.38868e-06
2.23032e-05
-5.14266e-06
2.3113e-05
-5.80433e-06
2.40074e-05
-6.39099e-06
2.49774e-05
-6.91577e-06
2.60156e-05
-7.38841e-06
2.71154e-05
-7.81591e-06
2.82709e-05
-8.20324e-06
2.94767e-05
-8.55384e-06
3.07278e-05
-8.87004e-06
3.20194e-05
-9.15343e-06
3.33468e-05
-9.40516e-06
3.47055e-05
-9.62609e-06
3.60909e-05
-9.81702e-06
3.7499e-05
-9.97873e-06
3.89253e-05
-1.01121e-05
4.0366e-05
-1.02181e-05
4.1817e-05
-1.02978e-05
4.32749e-05
-1.03525e-05
4.4736e-05
-1.03834e-05
4.61971e-05
-1.0392e-05
4.7655e-05
-1.03797e-05
4.91071e-05
-1.03479e-05
5.05505e-05
-1.02982e-05
5.1983e-05
-1.02319e-05
5.34022e-05
-1.01506e-05
5.48062e-05
-1.00556e-05
5.61932e-05
-9.94809e-06
5.75614e-05
-9.82944e-06
5.89095e-05
-9.70074e-06
6.0236e-05
-9.56304e-06
6.15398e-05
-9.41731e-06
6.28197e-05
-9.2644e-06
6.40749e-05
-9.1051e-06
6.53045e-05
-8.94007e-06
6.65076e-05
-8.76992e-06
6.76836e-05
-8.59513e-06
6.88318e-05
-8.41613e-06
6.99516e-05
-8.23325e-06
7.10425e-05
-8.04672e-06
7.21039e-05
-7.85673e-06
7.31354e-05
-7.66336e-06
7.41364e-05
-7.46665e-06
7.51065e-05
-7.26655e-06
7.60452e-05
-7.06295e-06
7.69521e-05
-6.85566e-06
7.78266e-05
-6.64447e-06
7.86684e-05
-6.42905e-06
7.94768e-05
-6.20907e-06
8.02514e-05
-5.98411e-06
8.09918e-05
-5.7537e-06
8.16973e-05
-5.51732e-06
8.23676e-05
-5.2744e-06
8.30021e-05
-5.02432e-06
8.36004e-05
-4.76642e-06
8.41621e-05
-4.5e-06
8.46869e-05
-4.22429e-06
8.51746e-05
-3.93853e-06
8.56251e-05
-3.6419e-06
8.60386e-05
-3.33358e-06
8.64153e-05
-3.01275e-06
8.67561e-05
-2.6786e-06
8.70621e-05
-2.33038e-06
8.73349e-05
-1.96741e-06
8.75768e-05
-1.58916e-06
8.77911e-05
-1.19529e-06
8.79817e-05
-7.85774e-07
8.81538e-05
-3.60954e-07
8.83136e-05
7.84979e-08
8.84682e-05
5.30543e-07
8.86263e-05
9.92204e-07
8.87974e-05
1.45996e-06
8.89915e-05
1.92916e-06
8.9218e-05
2.394e-06
8.94853e-05
2.84754e-06
8.97986e-05
3.28201e-06
9.01592e-05
3.68931e-06
4.06229e-06
9.05629e-05
2.15688e-05
-1.47712e-06
2.19249e-05
-2.86268e-06
2.24329e-05
-4.02783e-06
2.30729e-05
-5.02849e-06
2.38285e-05
-5.898e-06
2.46859e-05
-6.66148e-06
2.56339e-05
-7.33861e-06
2.66629e-05
-7.94443e-06
2.77649e-05
-8.49006e-06
2.89329e-05
-8.98354e-06
3.01606e-05
-9.43057e-06
3.14423e-05
-9.83508e-06
3.27723e-05
-1.01997e-05
3.41457e-05
-1.05264e-05
3.55572e-05
-1.08163e-05
3.70019e-05
-1.10705e-05
3.84752e-05
-1.129e-05
3.99722e-05
-1.14755e-05
4.14884e-05
-1.16282e-05
4.30196e-05
-1.17492e-05
4.45615e-05
-1.18397e-05
4.61101e-05
-1.19012e-05
4.76616e-05
-1.19352e-05
4.92126e-05
-1.19432e-05
5.07597e-05
-1.19271e-05
5.22998e-05
-1.18885e-05
5.38301e-05
-1.18291e-05
5.53481e-05
-1.17506e-05
5.68512e-05
-1.16547e-05
5.83375e-05
-1.15428e-05
5.98048e-05
-1.14166e-05
6.12515e-05
-1.12775e-05
6.26759e-05
-1.11267e-05
6.40766e-05
-1.09655e-05
6.54524e-05
-1.07949e-05
6.6802e-05
-1.06161e-05
6.81245e-05
-1.04298e-05
6.94189e-05
-1.02369e-05
7.06844e-05
-1.0038e-05
7.19202e-05
-9.83373e-06
7.31256e-05
-9.62457e-06
7.43e-05
-9.41089e-06
7.54429e-05
-9.193e-06
7.65537e-05
-8.9711e-06
7.76319e-05
-8.74533e-06
7.8677e-05
-8.51572e-06
7.96885e-05
-8.28226e-06
8.0666e-05
-8.04484e-06
8.16091e-05
-7.80331e-06
8.25172e-05
-7.55743e-06
8.33901e-05
-7.30692e-06
8.42273e-05
-7.05143e-06
8.50284e-05
-6.79056e-06
8.57931e-05
-6.52387e-06
8.65209e-05
-6.25087e-06
8.72117e-05
-5.97102e-06
8.78651e-05
-5.68376e-06
8.8481e-05
-5.38851e-06
8.90593e-05
-5.08465e-06
8.96001e-05
-4.77155e-06
9.01036e-05
-4.44861e-06
9.05702e-05
-4.11522e-06
9.10006e-05
-3.7708e-06
9.13958e-05
-3.41485e-06
9.17571e-05
-3.04694e-06
9.20864e-05
-2.66677e-06
9.2386e-05
-2.2742e-06
9.26589e-05
-1.86931e-06
9.29088e-05
-1.45246e-06
9.31401e-05
-1.02438e-06
9.33581e-05
-5.86198e-07
9.35686e-05
-1.39348e-07
9.37779e-05
3.13945e-07
9.39928e-05
7.70048e-07
9.42203e-05
1.22524e-06
9.4467e-05
1.67519e-06
9.47389e-05
2.11501e-06
9.504e-05
2.53941e-06
9.53721e-05
2.94295e-06
9.57341e-05
3.32049e-06
3.66812e-06
9.61215e-05
2.30746e-05
-1.66313e-06
2.34491e-05
-3.23706e-06
2.39847e-05
-4.56327e-06
2.46605e-05
-5.70405e-06
2.54594e-05
-6.69666e-06
2.63671e-05
-7.56887e-06
2.73716e-05
-8.34278e-06
2.84629e-05
-9.03535e-06
2.96325e-05
-9.65917e-06
3.08727e-05
-1.02234e-05
3.21769e-05
-1.07343e-05
3.35388e-05
-1.11965e-05
3.49525e-05
-1.1613e-05
3.64124e-05
-1.19858e-05
3.79129e-05
-1.23165e-05
3.94488e-05
-1.2606e-05
4.10147e-05
-1.28556e-05
4.26057e-05
-1.30663e-05
4.42169e-05
-1.32391e-05
4.58434e-05
-1.33756e-05
4.74808e-05
-1.3477e-05
4.91248e-05
-1.35452e-05
5.07713e-05
-1.35818e-05
5.24164e-05
-1.35886e-05
5.40567e-05
-1.35678e-05
5.56888e-05
-1.35211e-05
5.73097e-05
-1.34506e-05
5.89166e-05
-1.33583e-05
6.05069e-05
-1.32459e-05
6.20784e-05
-1.31154e-05
6.36289e-05
-1.29684e-05
6.51565e-05
-1.28065e-05
6.66596e-05
-1.26313e-05
6.81366e-05
-1.24442e-05
6.95862e-05
-1.22464e-05
7.10071e-05
-1.20391e-05
7.23982e-05
-1.18233e-05
7.37586e-05
-1.15998e-05
7.50873e-05
-1.13695e-05
7.63837e-05
-1.1133e-05
7.76469e-05
-1.0891e-05
7.88763e-05
-1.06437e-05
8.00714e-05
-1.03917e-05
8.12315e-05
-1.01351e-05
8.23563e-05
-9.8741e-06
8.34451e-05
-9.60883e-06
8.44977e-05
-9.33927e-06
8.55135e-05
-9.06535e-06
8.64922e-05
-8.78693e-06
8.74335e-05
-8.50381e-06
8.8337e-05
-8.21573e-06
8.92024e-05
-7.92238e-06
9.00296e-05
-7.62339e-06
9.08182e-05
-7.31838e-06
9.15681e-05
-7.0069e-06
9.22793e-05
-6.68851e-06
9.29518e-05
-6.36273e-06
9.35858e-05
-6.02909e-06
9.41815e-05
-5.6871e-06
9.47393e-05
-5.33633e-06
9.526e-05
-4.97636e-06
9.57444e-05
-4.60682e-06
9.61937e-05
-4.22743e-06
9.66095e-05
-3.83803e-06
9.69936e-05
-3.43855e-06
9.73483e-05
-3.02914e-06
9.76765e-05
-2.61012e-06
9.79816e-05
-2.18209e-06
9.82673e-05
-1.74594e-06
9.8538e-05
-1.30291e-06
9.87986e-05
-8.54623e-07
9.90544e-05
-4.03062e-07
9.93107e-05
4.9885e-08
9.9572e-05
5.00946e-07
9.98433e-05
9.46093e-07
0.000100129
1.38171e-06
0.000100432
1.804e-06
0.000100755
2.20911e-06
0.000101097
2.59337e-06
0.000101457
2.95359e-06
3.28776e-06
0.00010183
2.4686e-05
-1.85882e-06
2.50802e-05
-3.63115e-06
2.56452e-05
-5.12804e-06
2.6359e-05
-6.41761e-06
2.72039e-05
-7.54126e-06
2.81649e-05
-8.52951e-06
2.92293e-05
-9.40686e-06
3.03867e-05
-1.01923e-05
3.16278e-05
-1.08998e-05
3.29446e-05
-1.15397e-05
3.43299e-05
-1.21191e-05
3.57769e-05
-1.2643e-05
3.72792e-05
-1.31149e-05
3.88308e-05
-1.35369e-05
4.04255e-05
-1.39108e-05
4.20577e-05
-1.42378e-05
4.37217e-05
-1.45192e-05
4.54119e-05
-1.47561e-05
4.7123e-05
-1.495e-05
4.88498e-05
-1.51022e-05
5.05876e-05
-1.52147e-05
5.23316e-05
-1.52891e-05
5.40774e-05
-1.53277e-05
5.5821e-05
-1.53324e-05
5.75585e-05
-1.53056e-05
5.92863e-05
-1.52494e-05
6.10013e-05
-1.51662e-05
6.27003e-05
-1.50581e-05
6.43808e-05
-1.49273e-05
6.60402e-05
-1.47759e-05
6.76763e-05
-1.46057e-05
6.92871e-05
-1.44188e-05
7.08709e-05
-1.42167e-05
7.24258e-05
-1.40011e-05
7.39507e-05
-1.37733e-05
7.5444e-05
-1.35347e-05
7.69048e-05
-1.32865e-05
7.8332e-05
-1.30296e-05
7.97246e-05
-1.2765e-05
8.10818e-05
-1.24934e-05
8.24029e-05
-1.22155e-05
8.36874e-05
-1.19317e-05
8.49344e-05
-1.16426e-05
8.61436e-05
-1.13484e-05
8.73145e-05
-1.10493e-05
8.84466e-05
-1.07455e-05
8.95396e-05
-1.0437e-05
9.05931e-05
-1.01238e-05
9.16068e-05
-9.80586e-06
9.25805e-05
-9.48294e-06
9.35139e-05
-9.15486e-06
9.4407e-05
-8.82136e-06
9.52597e-05
-8.48215e-06
9.60719e-05
-8.13691e-06
9.68438e-05
-7.78529e-06
9.75755e-05
-7.42695e-06
9.82674e-05
-7.06153e-06
9.892e-05
-6.68871e-06
9.95338e-05
-6.30818e-06
0.00010011
-5.9197e-06
0.000100649
-5.52307e-06
0.000101153
-5.1182e-06
0.000101622
-4.70508e-06
0.00010206
-4.28388e-06
0.000102469
-3.85487e-06
0.00010285
-3.41857e-06
0.000103207
-2.97568e-06
0.000103544
-2.52715e-06
0.000103864
-2.07422e-06
0.000104171
-1.6184e-06
0.000104469
-1.16151e-06
0.000104764
-7.05651e-07
0.000105058
-2.52964e-07
0.000105356
1.94414e-07
0.000105661
6.33055e-07
0.000105975
1.05962e-06
0.000106299
1.47123e-06
0.000106635
1.86519e-06
0.000106981
2.23907e-06
0.000107336
2.59093e-06
2.9199e-06
0.000107696
2.64103e-05
-2.06509e-06
2.68257e-05
-4.04651e-06
2.74221e-05
-5.72421e-06
2.81765e-05
-7.17172e-06
2.90703e-05
-8.43478e-06
3.0088e-05
-9.54677e-06
3.12162e-05
-1.05346e-05
3.24437e-05
-1.14193e-05
3.37608e-05
-1.22164e-05
3.5159e-05
-1.29373e-05
3.66304e-05
-1.35899e-05
3.81677e-05
-1.41797e-05
3.9764e-05
-1.47106e-05
4.14126e-05
-1.51849e-05
4.31071e-05
-1.56047e-05
4.4841e-05
-1.59712e-05
4.66083e-05
-1.6286e-05
4.8403e-05
-1.65503e-05
5.02192e-05
-1.67658e-05
5.20514e-05
-1.69341e-05
5.38942e-05
-1.70574e-05
5.57428e-05
-1.71376e-05
5.75923e-05
-1.71772e-05
5.94382e-05
-1.71785e-05
6.12767e-05
-1.71442e-05
6.31037e-05
-1.70769e-05
6.49159e-05
-1.69789e-05
6.671e-05
-1.6853e-05
6.84832e-05
-1.67014e-05
7.02329e-05
-1.65266e-05
7.19567e-05
-1.63308e-05
7.36524e-05
-1.6116e-05
7.53182e-05
-1.58842e-05
7.69524e-05
-1.56372e-05
7.85535e-05
-1.53765e-05
8.01201e-05
-1.51037e-05
8.1651e-05
-1.482e-05
8.31452e-05
-1.45266e-05
8.46018e-05
-1.42246e-05
8.60198e-05
-1.39148e-05
8.73986e-05
-1.35978e-05
8.87376e-05
-1.32745e-05
9.00361e-05
-1.29452e-05
9.12938e-05
-1.26103e-05
9.251e-05
-1.22701e-05
9.36846e-05
-1.19248e-05
9.48171e-05
-1.15746e-05
9.59074e-05
-1.12194e-05
9.69552e-05
-1.08592e-05
9.79605e-05
-1.0494e-05
9.89231e-05
-1.01236e-05
9.98432e-05
-9.74775e-06
0.000100721
-9.36635e-06
0.000101556
-8.97914e-06
0.00010235
-8.5859e-06
0.000103102
-8.1864e-06
0.000103814
-7.78045e-06
0.000104486
-7.36789e-06
0.000105118
-6.94861e-06
0.000105713
-6.52255e-06
0.000106272
-6.08978e-06
0.000106796
-5.65043e-06
0.000107287
-5.20478e-06
0.000107748
-4.75325e-06
0.000108181
-4.29643e-06
0.000108589
-3.83507e-06
0.000108974
-3.37016e-06
0.000109341
-2.90285e-06
0.000109693
-2.43456e-06
0.000110032
-1.96689e-06
0.000110363
-1.50166e-06
0.000110689
-1.04087e-06
0.000111014
-5.86602e-07
0.00011134
-1.40509e-07
0.000111669
2.95285e-07
0.000112002
7.17748e-07
0.00011234
1.12459e-06
0.000112682
1.51393e-06
0.000113028
1.88418e-06
0.000113376
2.23421e-06
2.56381e-06
0.000113724
2.82552e-05
-2.28293e-06
2.86937e-05
-4.48488e-06
2.93238e-05
-6.35411e-06
3.01217e-05
-7.96925e-06
3.10678e-05
-9.38056e-06
3.21459e-05
-1.06244e-05
3.3342e-05
-1.17302e-05
3.46442e-05
-1.27209e-05
3.60422e-05
-1.36138e-05
3.75268e-05
-1.44212e-05
3.90896e-05
-1.5152e-05
4.07227e-05
-1.58121e-05
4.24186e-05
-1.64057e-05
4.417e-05
-1.69356e-05
4.59698e-05
-1.74038e-05
4.78111e-05
-1.78119e-05
4.96872e-05
-1.81615e-05
5.15916e-05
-1.84541e-05
5.35179e-05
-1.86917e-05
5.54602e-05
-1.88761e-05
5.74128e-05
-1.90096e-05
5.93701e-05
-1.90947e-05
6.13272e-05
-1.91341e-05
6.32792e-05
-1.91306e-05
6.52219e-05
-1.90871e-05
6.71511e-05
-1.90064e-05
6.90632e-05
-1.88915e-05
7.09547e-05
-1.87452e-05
7.28227e-05
-1.85703e-05
7.46644e-05
-1.83693e-05
7.64773e-05
-1.81449e-05
7.82591e-05
-1.78993e-05
8.00079e-05
-1.76347e-05
8.1722e-05
-1.73531e-05
8.33996e-05
-1.70564e-05
8.50396e-05
-1.6746e-05
8.66406e-05
-1.64237e-05
8.82016e-05
-1.60906e-05
8.97216e-05
-1.57478e-05
9.11999e-05
-1.53964e-05
9.26356e-05
-1.50373e-05
9.40283e-05
-1.46711e-05
9.53773e-05
-1.42984e-05
9.66823e-05
-1.39198e-05
9.79428e-05
-1.35354e-05
9.91586e-05
-1.31458e-05
0.00010033
-1.27509e-05
0.000101456
-1.2351e-05
0.000102536
-1.1946e-05
0.000103572
-1.15361e-05
0.000104563
-1.1121e-05
0.00010551
-1.07009e-05
0.000106412
-1.02755e-05
0.00010727
-9.84472e-06
0.000108086
-9.40856e-06
0.000108859
-8.9669e-06
0.00010959
-8.51972e-06
0.000110281
-8.06702e-06
0.000110933
-7.6089e-06
0.000111548
-7.14551e-06
0.000112126
-6.67711e-06
0.000112671
-6.20407e-06
0.000113184
-5.72689e-06
0.000113668
-5.2462e-06
0.000114125
-4.7628e-06
0.000114558
-4.27762e-06
0.000114971
-3.79177e-06
0.000115365
-3.30653e-06
0.000115744
-2.82333e-06
0.000116111
-2.34372e-06
0.000116469
-1.8694e-06
0.000116821
-1.40215e-06
0.000117169
-9.43781e-07
0.000117514
-4.96e-07
0.00011786
-5.98072e-08
0.000118205
3.63001e-07
0.00011855
7.70002e-07
0.000118895
1.15991e-06
0.000119238
1.53169e-06
0.000119578
1.8847e-06
2.21912e-06
0.000119914
3.02293e-05
-2.5134e-06
3.06928e-05
-4.94821e-06
3.13593e-05
-7.02033e-06
3.22038e-05
-8.81341e-06
3.3206e-05
-1.03823e-05
3.43487e-05
-1.17666e-05
3.56172e-05
-1.29981e-05
3.6999e-05
-1.4102e-05
3.84831e-05
-1.50972e-05
4.00597e-05
-1.5997e-05
4.17195e-05
-1.68111e-05
4.34542e-05
-1.7546e-05
4.52554e-05
-1.82061e-05
4.71153e-05
-1.87947e-05
4.90261e-05
-1.93138e-05
5.09803e-05
-1.97653e-05
5.29705e-05
-2.0151e-05
5.49897e-05
-2.04726e-05
5.7031e-05
-2.07323e-05
5.9088e-05
-2.09324e-05
6.11543e-05
-2.10755e-05
6.32242e-05
-2.11643e-05
6.52923e-05
-2.1202e-05
6.73535e-05
-2.11917e-05
6.94031e-05
-2.11368e-05
7.14369e-05
-2.10404e-05
7.34508e-05
-2.09059e-05
7.54414e-05
-2.07364e-05
7.74055e-05
-2.05352e-05
7.93402e-05
-2.0305e-05
8.12428e-05
-2.00488e-05
8.31112e-05
-1.97691e-05
8.49431e-05
-1.94684e-05
8.67369e-05
-1.91488e-05
8.84908e-05
-1.88125e-05
9.02036e-05
-1.84613e-05
9.18739e-05
-1.80968e-05
9.35008e-05
-1.77204e-05
9.50833e-05
-1.73336e-05
9.66205e-05
-1.69373e-05
9.81119e-05
-1.65326e-05
9.95568e-05
-1.61202e-05
0.000100955
-1.5701e-05
0.000102306
-1.52754e-05
0.000103609
-1.48439e-05
0.000104865
-1.44068e-05
0.000106073
-1.39646e-05
0.000107233
-1.35172e-05
0.000108346
-1.3065e-05
0.000109411
-1.2608e-05
0.00011043
-1.21463e-05
0.000111402
-1.16799e-05
0.000112328
-1.12089e-05
0.000113209
-1.07332e-05
0.000114045