/*--------------------------------*- C++ -*----------------------------------*\
  =========                 |
  \\      /  F ield         | OpenFOAM: The Open Source CFD Toolbox
   \\    /   O peration     | Website:  https://openfoam.org
    \\  /    A nd           | Version:  7
     \\/     M anipulation  |
\*---------------------------------------------------------------------------*/
FoamFile
{
    version     2.0;
    format      ascii;
    class       volScalarField;
    location    "3";
    object      T;
}
// * * * * * * * * * * * * * * * * * * * * * * * * * * * * * * * * * * * * * //

dimensions      [0 0 0 1 0 0 0];

internalField   nonuniform List<scalar> 
12013
(
300.027
300.083
300.142
300.202
300.264
300.328
300.395
300.463
300.534
300.607
300.682
300.759
300.839
300.921
301.005
301.093
301.183
301.276
301.372
301.471
301.574
301.68
301.79
301.905
302.023
302.147
302.275
302.409
302.548
302.694
302.847
303.008
303.176
303.353
303.539
303.735
303.943
304.162
304.395
304.641
304.903
305.182
305.479
305.795
306.133
306.495
306.881
307.295
307.739
308.215
308.726
309.275
309.865
310.5
311.183
311.919
312.712
313.566
314.487
315.481
316.553
317.711
318.962
320.314
321.775
323.357
325.071
326.927
328.942
331.131
333.513
336.11
338.948
342.058
345.481
349.266
353.481
358.221
363.631
369.95
377.64
300.027
300.083
300.142
300.202
300.264
300.328
300.395
300.463
300.534
300.607
300.682
300.759
300.839
300.921
301.005
301.093
301.183
301.276
301.372
301.471
301.574
301.68
301.791
301.905
302.023
302.147
302.275
302.409
302.549
302.695
302.848
303.008
303.176
303.353
303.539
303.736
303.943
304.162
304.395
304.642
304.904
305.182
305.479
305.796
306.134
306.495
306.881
307.295
307.739
308.214
308.725
309.274
309.864
310.498
311.181
311.916
312.708
313.561
314.481
315.474
316.545
317.701
318.949
320.299
321.757
323.335
325.044
326.895
328.903
331.083
333.453
336.035
338.854
341.939
345.326
349.061
353.2
357.821
363.018
368.916
375.622
300.027
300.083
300.142
300.202
300.264
300.328
300.395
300.463
300.534
300.607
300.682
300.759
300.839
300.921
301.006
301.093
301.183
301.276
301.372
301.472
301.575
301.681
301.791
301.905
302.024
302.148
302.276
302.41
302.55
302.696
302.849
303.009
303.177
303.354
303.54
303.737
303.944
304.163
304.396
304.642
304.904
305.183
305.48
305.796
306.134
306.495
306.881
307.295
307.738
308.213
308.723
309.271
309.86
310.494
311.175
311.909
312.699
313.551
314.469
315.458
316.526
317.678
318.922
320.266
321.717
323.287
324.985
326.824
328.816
330.976
333.322
335.873
338.65
341.68
344.993
348.625
352.617
357.014
361.861
367.184
372.943
300.027
300.084
300.142
300.202
300.264
300.329
300.395
300.464
300.534
300.607
300.682
300.76
300.839
300.922
301.006
301.094
301.184
301.277
301.373
301.473
301.575
301.682
301.792
301.907
302.025
302.149
302.277
302.411
302.551
302.697
302.85
303.01
303.179
303.356
303.542
303.738
303.946
304.165
304.397
304.644
304.906
305.184
305.481
305.797
306.134
306.495
306.881
307.294
307.736
308.211
308.72
309.267
309.855
310.486
311.166
311.898
312.685
313.533
314.447
315.433
316.495
317.641
318.877
320.211
321.652
323.208
324.889
326.707
328.674
330.803
333.109
335.609
338.322
341.268
344.47
347.952
351.737
355.845
360.284
365.031
370.014
300.027
300.084
300.142
300.202
300.264
300.329
300.395
300.464
300.535
300.607
300.683
300.76
300.84
300.922
301.007
301.095
301.185
301.278
301.374
301.474
301.577
301.683
301.794
301.908
302.027
302.151
302.279
302.413
302.553
302.699
302.852
303.013
303.181
303.358
303.544
303.741
303.948
304.167
304.4
304.646
304.908
305.186
305.482
305.798
306.135
306.495
306.88
307.292
307.734
308.207
308.715
309.26
309.846
310.476
311.152
311.881
312.664
313.508
314.416
315.395
316.449
317.586
318.81
320.131
321.555
323.091
324.749
326.538
328.469
330.553
332.804
335.235
337.861
340.696
343.754
347.05
350.591
354.38
358.402
362.623
366.977
300.028
300.084
300.142
300.202
300.265
300.329
300.396
300.464
300.535
300.608
300.683
300.761
300.841
300.923
301.008
301.096
301.186
301.279
301.376
301.476
301.579
301.685
301.796
301.91
302.029
302.153
302.282
302.416
302.556
302.702
302.855
303.016
303.184
303.361
303.547
303.744
303.951
304.171
304.403
304.649
304.91
305.188
305.484
305.799
306.136
306.495
306.879
307.29
307.73
308.202
308.708
309.251
309.834
310.46
311.133
311.857
312.635
313.473
314.373
315.343
316.387
317.51
318.72
320.022
321.424
322.934
324.56
326.31
328.194
330.221
332.401
334.745
337.263
339.963
342.854
345.939
349.217
352.68
356.307
360.062
363.893
300.028
300.084
300.142
300.202
300.265
300.329
300.396
300.465
300.536
300.609
300.684
300.762
300.842
300.924
301.01
301.097
301.188
301.281
301.378
301.478
301.581
301.688
301.799
301.913
302.033
302.156
302.285
302.42
302.56
302.706
302.86
303.02
303.189
303.366
303.552
303.748
303.956
304.175
304.407
304.653
304.914
305.191
305.487
305.801
306.137
306.495
306.878
307.287
307.726
308.196
308.699
309.239
309.818
310.44
311.108
311.826
312.597
313.426
314.317
315.275
316.304
317.411
318.601
319.88
321.254
322.73
324.316
326.018
327.844
329.801
331.896
334.138
336.53
339.079
341.785
344.647
347.658
350.805
354.066
357.41
360.797
300.028
300.084
300.142
300.203
300.265
300.33
300.397
300.466
300.537
300.61
300.685
300.763
300.843
300.926
301.011
301.099
301.19
301.284
301.381
301.481
301.584
301.691
301.802
301.917
302.037
302.161
302.29
302.424
302.565
302.711
302.865
303.025
303.194
303.371
303.557
303.754
303.961
304.18
304.412
304.657
304.918
305.195
305.49
305.803
306.138
306.495
306.876
307.284
307.72
308.187
308.687
309.223
309.798
310.414
311.076
311.786
312.548
313.366
314.245
315.187
316.2
317.286
318.451
319.701
321.041
322.477
324.014
325.658
327.416
329.291
331.29
333.415
335.67
338.054
340.567
343.203
345.953
348.801
351.728
354.709
357.713
300.028
300.084
300.142
300.203
300.266
300.331
300.397
300.466
300.538
300.611
300.687
300.765
300.845
300.928
301.014
301.102
301.193
301.287
301.384
301.484
301.588
301.695
301.807
301.922
302.042
302.166
302.295
302.43
302.571
302.718
302.871
303.032
303.201
303.378
303.564
303.761
303.968
304.187
304.418
304.664
304.924
305.2
305.494
305.806
306.139
306.495
306.874
307.279
307.712
308.176
308.672
309.203
309.772
310.381
311.035
311.736
312.487
313.292
314.155
315.08
316.071
317.132
318.268
319.483
320.782
322.17
323.651
325.229
326.909
328.693
330.584
332.584
334.693
336.908
339.226
341.639
344.138
346.708
349.333
351.991
354.662
300.028
300.084
300.143
300.203
300.266
300.331
300.398
300.468
300.539
300.613
300.689
300.767
300.847
300.931
301.017
301.105
301.196
301.291
301.388
301.489
301.593
301.701
301.812
301.928
302.048
302.173
302.302
302.438
302.578
302.726
302.879
303.041
303.209
303.387
303.573
303.769
303.976
304.195
304.426
304.671
304.93
305.206
305.498
305.81
306.141
306.494
306.871
307.273
307.703
308.162
308.653
309.178
309.74
310.341
310.985
311.674
312.412
313.201
314.046
314.949
315.915
316.947
318.048
319.224
320.476
321.81
323.227
324.731
326.325
328.01
329.787
331.655
333.614
335.658
337.784
339.983
342.246
344.56
346.911
349.284
351.66
300.028
300.084
300.143
300.204
300.267
300.332
300.399
300.469
300.541
300.614
300.691
300.769
300.85
300.934
301.02
301.109
301.201
301.295
301.393
301.494
301.599
301.707
301.819
301.935
302.056
302.181
302.311
302.447
302.588
302.735
302.889
303.051
303.22
303.397
303.584
303.78
303.987
304.205
304.436
304.68
304.938
305.213
305.504
305.813
306.143
306.493
306.867
307.266
307.691
308.145
308.629
309.147
309.701
310.292
310.925
311.6
312.322
313.093
313.916
314.794
315.731
316.729
317.792
318.922
320.122
321.395
322.743
324.167
325.67
327.25
328.908
330.642
332.45
334.327
336.266
338.262
340.306
342.386
344.49
346.608
348.724
300.028
300.085
300.144
300.205
300.268
300.333
300.401
300.471
300.543
300.617
300.693
300.772
300.854
300.938
301.024
301.114
301.206
301.301
301.399
301.501
301.606
301.715
301.827
301.944
302.065
302.191
302.321
302.457
302.599
302.747
302.902
303.063
303.232
303.41
303.597
303.793
303.999
304.217
304.447
304.691
304.948
305.221
305.511
305.818
306.145
306.492
306.862
307.257
307.676
308.124
308.602
309.111
309.655
310.235
310.853
311.513
312.216
312.966
313.764
314.614
315.518
316.479
317.498
318.578
319.721
320.928
322.202
323.542
324.949
326.422
327.959
329.56
331.219
332.933
334.697
336.502
338.343
340.209
342.092
343.982
345.868
300.028
300.085
300.144
300.206
300.269
300.335
300.403
300.473
300.545
300.62
300.697
300.776
300.858
300.942
301.029
301.119
301.212
301.308
301.407
301.509
301.615
301.724
301.837
301.955
302.076
302.203
302.334
302.47
302.613
302.761
302.916
303.078
303.248
303.425
303.612
303.808
304.014
304.232
304.461
304.704
304.96
305.231
305.519
305.824
306.148
306.491
306.857
307.246
307.66
308.1
308.569
309.069
309.601
310.167
310.77
311.412
312.095
312.82
313.591
314.409
315.277
316.196
317.167
318.194
319.276
320.414
321.61
322.863
324.172
325.537
326.955
328.424
329.94
331.499
333.097
334.726
336.381
338.053
339.737
341.423
343.104
300.028
300.085
300.145
300.207
300.27
300.336
300.405
300.475
300.548
300.623
300.7
300.78
300.863
300.948
301.036
301.126
301.22
301.316
301.416
301.519
301.625
301.735
301.849
301.967
302.09
302.217
302.349
302.486
302.629
302.778
302.933
303.096
303.266
303.444
303.63
303.826
304.032
304.249
304.478
304.719
304.974
305.243
305.529
305.831
306.151
306.491
306.851
307.234
307.641
308.073
308.532
309.02
309.539
310.09
310.676
311.297
311.957
312.656
313.396
314.18
315.008
315.882
316.803
317.773
318.791
319.858
320.974
322.138
323.35
324.608
325.909
327.251
328.631
330.045
331.487
332.954
334.439
335.937
337.441
338.946
340.444
300.028
300.086
300.146
300.208
300.272
300.338
300.407
300.478
300.551
300.627
300.705
300.785
300.869
300.954
301.043
301.134
301.228
301.326
301.426
301.53
301.638
301.749
301.863
301.982
302.106
302.234
302.367
302.505
302.648
302.798
302.954
303.117
303.287
303.466
303.652
303.848
304.054
304.27
304.498
304.738
304.991
305.258
305.54
305.839
306.155
306.49
306.845
307.221
307.619
308.042
308.49
308.966
309.47
310.004
310.57
311.169
311.803
312.473
313.181
313.927
314.714
315.541
316.409
317.32
318.272
319.267
320.303
321.379
322.495
323.649
324.838
326.059
327.311
328.588
329.888
331.206
332.537
333.877
335.22
336.563
337.899
300.028
300.086
300.147
300.209
300.274
300.341
300.41
300.481
300.555
300.632
300.71
300.792
300.876
300.962
301.052
301.144
301.239
301.337
301.439
301.544
301.652
301.764
301.88
302
302.125
302.254
302.388
302.527
302.671
302.822
302.979
303.142
303.313
303.491
303.678
303.874
304.079
304.295
304.521
304.76
305.011
305.276
305.555
305.85
306.161
306.49
306.839
307.207
307.596
308.009
308.445
308.906
309.394
309.91
310.454
311.029
311.636
312.275
312.948
313.655
314.398
315.176
315.99
316.841
317.727
318.649
319.606
320.597
321.62
322.674
323.756
324.864
325.995
327.147
328.316
329.498
330.69
331.888
333.088
334.285
335.478
300.029
300.087
300.148
300.211
300.276
300.343
300.413
300.485
300.56
300.637
300.717
300.799
300.884
300.971
301.062
301.155
301.251
301.351
301.454
301.56
301.67
301.783
301.9
302.022
302.147
302.278
302.413
302.553
302.698
302.85
303.008
303.172
303.343
303.522
303.709
303.904
304.109
304.324
304.549
304.786
305.035
305.297
305.573
305.863
306.169
306.492
306.833
307.193
307.573
307.973
308.396
308.842
309.312
309.808
310.33
310.88
311.457
312.064
312.701
313.368
314.065
314.794
315.554
316.344
317.165
318.016
318.896
319.804
320.738
321.697
322.678
323.681
324.701
325.738
326.787
327.846
328.913
329.983
331.054
332.123
333.187
300.029
300.088
300.149
300.213
300.278
300.347
300.417
300.49
300.566
300.644
300.724
300.807
300.893
300.982
301.074
301.168
301.266
301.367
301.471
301.579
301.69
301.805
301.924
302.047
302.174
302.305
302.442
302.583
302.73
302.883
303.042
303.207
303.379
303.558
303.745
303.94
304.145
304.359
304.583
304.817
305.064
305.323
305.595
305.88
306.181
306.497
306.83
307.181
307.549
307.937
308.346
308.775
309.227
309.702
310.2
310.723
311.27
311.844
312.443
313.069
313.722
314.401
315.106
315.838
316.595
317.377
318.183
319.011
319.862
320.732
321.62
322.525
323.443
324.375
325.315
326.264
327.217
328.174
329.13
330.084
331.034
300.029
300.089
300.151
300.215
300.281
300.35
300.422
300.496
300.572
300.651
300.733
300.817
300.905
300.995
301.088
301.184
301.283
301.386
301.492
301.601
301.714
301.831
301.951
302.076
302.205
302.338
302.476
302.619
302.768
302.922
303.082
303.248
303.42
303.6
303.788
303.983
304.187
304.4
304.622
304.855
305.099
305.354
305.622
305.903
306.197
306.506
306.831
307.171
307.528
307.903
308.296
308.709
309.141
309.593
310.067
310.562
311.08
311.619
312.181
312.766
313.374
314.004
314.656
315.331
316.026
316.743
317.478
318.233
319.004
319.792
320.594
321.409
322.235
323.071
323.914
324.763
325.615
326.47
327.324
328.176
329.024
300.03
300.09
300.152
300.217
300.285
300.355
300.427
300.502
300.58
300.66
300.743
300.829
300.918
301.01
301.104
301.202
301.303
301.408
301.516
301.627
301.742
301.861
301.983
302.11
302.241
302.376
302.517
302.662
302.812
302.967
303.129
303.296
303.47
303.65
303.838
304.033
304.237
304.449
304.67
304.901
305.142
305.394
305.657
305.932
306.22
306.521
306.837
307.167
307.512
307.873
308.25
308.645
309.057
309.487
309.936
310.403
310.89
311.396
311.921
312.465
313.029
313.612
314.214
314.833
315.47
316.124
316.794
317.479
318.178
318.89
319.613
320.347
321.089
321.838
322.594
323.353
324.115
324.879
325.642
326.403
327.161
300.03
300.091
300.154
300.22
300.289
300.36
300.434
300.51
300.589
300.671
300.755
300.843
300.933
301.027
301.124
301.224
301.327
301.434
301.544
301.657
301.775
301.896
302.021
302.15
302.284
302.421
302.564
302.711
302.863
303.021
303.184
303.352
303.527
303.709
303.897
304.093
304.296
304.507
304.727
304.956
305.194
305.442
305.701
305.97
306.251
306.545
306.851
307.17
307.503
307.849
308.211
308.587
308.979
309.387
309.811
310.251
310.707
311.18
311.669
312.175
312.696
313.234
313.787
314.355
314.937
315.533
316.142
316.763
317.396
318.038
318.69
319.349
320.015
320.687
321.364
322.044
322.725
323.408
324.09
324.77
325.448
300.03
300.092
300.157
300.224
300.294
300.366
300.441
300.519
300.599
300.683
300.769
300.859
300.951
301.047
301.146
301.248
301.354
301.463
301.576
301.693
301.813
301.937
302.065
302.197
302.333
302.474
302.619
302.769
302.923
303.083
303.248
303.419
303.595
303.778
303.967
304.163
304.366
304.577
304.795
305.022
305.257
305.502
305.756
306.02
306.294
306.58
306.876
307.184
307.505
307.837
308.183
308.541
308.913
309.299
309.698
310.111
310.538
310.979
311.433
311.902
312.383
312.878
313.386
313.905
314.437
314.979
315.532
316.095
316.666
317.246
317.833
318.426
319.024
319.627
320.233
320.841
321.451
322.062
322.672
323.28
323.887
300.031
300.094
300.16
300.228
300.299
300.373
300.449
300.529
300.611
300.697
300.785
300.877
300.972
301.07
301.172
301.277
301.386
301.498
301.614
301.734
301.857
301.985
302.116
302.251
302.391
302.535
302.683
302.836
302.994
303.156
303.324
303.497
303.675
303.86
304.05
304.247
304.45
304.66
304.877
305.102
305.335
305.576
305.826
306.084
306.352
306.629
306.916
307.214
307.522
307.841
308.17
308.511
308.864
309.228
309.603
309.991
310.39
310.8
311.222
311.655
312.099
312.554
313.02
313.495
313.979
314.473
314.975
315.484
316.001
316.524
317.052
317.586
318.123
318.664
319.208
319.753
320.3
320.846
321.392
321.937
322.48
300.032
300.096
300.163
300.233
300.305
300.381
300.459
300.541
300.625
300.713
300.804
300.898
300.996
301.098
301.202
301.311
301.423
301.539
301.658
301.782
301.909
302.04
302.176
302.315
302.458
302.606
302.758
302.915
303.076
303.242
303.413
303.588
303.769
303.956
304.148
304.345
304.549
304.759
304.976
305.2
305.43
305.668
305.913
306.166
306.428
306.698
306.976
307.263
307.559
307.865
308.179
308.504
308.838
309.181
309.534
309.897
310.27
310.652
311.043
311.444
311.854
312.272
312.698
313.133
313.575
314.024
314.479
314.941
315.408
315.881
316.357
316.837
317.321
317.807
318.295
318.784
319.274
319.764
320.254
320.742
321.229
300.032
300.098
300.167
300.238
300.313
300.39
300.471
300.554
300.641
300.732
300.826
300.923
301.024
301.129
301.238
301.35
301.466
301.586
301.71
301.838
301.969
302.105
302.245
302.389
302.537
302.689
302.846
303.007
303.172
303.342
303.517
303.696
303.88
304.069
304.263
304.463
304.668
304.878
305.095
305.317
305.546
305.781
306.023
306.271
306.527
306.79
307.06
307.337
307.622
307.915
308.216
308.525
308.841
309.166
309.498
309.839
310.187
310.543
310.906
311.277
311.655
312.04
312.431
312.829
313.232
313.641
314.056
314.475
314.898
315.325
315.755
316.188
316.624
317.061
317.5
317.939
318.379
318.819
319.259
319.697
320.134
300.033
300.101
300.171
300.245
300.321
300.401
300.484
300.57
300.66
300.754
300.851
300.952
301.057
301.166
301.278
301.395
301.516
301.641
301.769
301.902
302.039
302.181
302.326
302.475
302.629
302.786
302.948
303.114
303.285
303.459
303.638
303.822
304.01
304.202
304.4
304.602
304.808
305.02
305.237
305.46
305.687
305.921
306.159
306.404
306.655
306.911
307.174
307.443
307.718
307.999
308.287
308.581
308.882
309.189
309.503
309.823
310.149
310.481
310.819
311.163
311.512
311.867
312.227
312.592
312.961
313.334
313.712
314.092
314.476
314.863
315.253
315.644
316.037
316.431
316.827
317.223
317.618
318.014
318.409
318.803
319.196
300.034
300.104
300.176
300.252
300.331
300.413
300.499
300.588
300.682
300.779
300.88
300.985
301.094
301.208
301.325
301.447
301.573
301.704
301.839
301.978
302.121
302.268
302.42
302.575
302.735
302.899
303.067
303.24
303.416
303.597
303.781
303.97
304.163
304.36
304.561
304.766
304.976
305.19
305.408
305.631
305.859
306.091
306.328
306.57
306.816
307.068
307.324
307.586
307.852
308.123
308.4
308.682
308.968
309.26
309.557
309.858
310.164
310.475
310.791
311.111
311.435
311.763
312.095
312.43
312.769
313.111
313.456
313.803
314.153
314.504
314.857
315.212
315.568
315.924
316.281
316.638
316.995
317.352
317.708
318.063
318.416
300.035
300.107
300.182
300.26
300.342
300.427
300.516
300.61
300.707
300.808
300.913
301.023
301.138
301.257
301.38
301.508
301.64
301.777
301.919
302.065
302.215
302.37
302.529
302.692
302.859
303.031
303.207
303.386
303.57
303.757
303.948
304.143
304.342
304.545
304.751
304.961
305.175
305.392
305.613
305.838
306.067
306.299
306.535
306.775
307.019
307.267
307.518
307.774
308.033
308.296
308.563
308.834
309.108
309.386
309.668
309.954
310.243
310.535
310.831
311.13
311.431
311.736
312.043
312.353
312.665
312.98
313.296
313.614
313.933
314.253
314.575
314.897
315.22
315.543
315.867
316.19
316.512
316.834
317.156
317.476
317.795
300.036
300.111
300.189
300.27
300.355
300.444
300.537
300.634
300.735
300.841
300.952
301.068
301.188
301.313
301.443
301.578
301.718
301.862
302.012
302.166
302.324
302.488
302.655
302.827
303.004
303.184
303.368
303.557
303.749
303.945
304.144
304.347
304.553
304.762
304.975
305.191
305.41
305.632
305.857
306.086
306.317
306.551
306.788
307.027
307.27
307.515
307.764
308.015
308.268
308.525
308.784
309.046
309.31
309.578
309.847
310.119
310.393
310.67
310.948
311.229
311.511
311.796
312.082
312.369
312.658
312.949
313.24
313.532
313.825
314.118
314.412
314.706
315
315.294
315.588
315.881
316.174
316.465
316.756
317.046
317.334
300.038
300.115
300.196
300.281
300.37
300.462
300.56
300.661
300.768
300.88
300.996
301.118
301.245
301.378
301.516
301.659
301.807
301.96
302.119
302.283
302.451
302.624
302.802
302.985
303.171
303.362
303.557
303.756
303.958
304.164
304.373
304.585
304.8
305.018
305.239
305.463
305.689
305.917
306.148
306.381
306.616
306.853
307.093
307.334
307.577
307.822
308.069
308.317
308.568
308.82
309.073
309.328
309.585
309.843
310.102
310.363
310.625
310.888
311.152
311.418
311.684
311.951
312.219
312.487
312.756
313.026
313.295
313.565
313.835
314.105
314.375
314.644
314.913
315.182
315.45
315.716
315.982
316.247
316.511
316.774
317.035
300.04
300.12
300.205
300.293
300.386
300.484
300.586
300.693
300.806
300.924
301.047
301.177
301.312
301.453
301.599
301.752
301.91
302.074
302.243
302.418
302.598
302.783
302.972
303.167
303.366
303.569
303.776
303.987
304.201
304.419
304.639
304.863
305.089
305.318
305.549
305.782
306.017
306.254
306.492
306.732
306.973
307.215
307.459
307.704
307.949
308.196
308.443
308.691
308.94
309.189
309.439
309.69
309.94
310.192
310.443
310.695
310.948
311.2
311.452
311.705
311.958
312.21
312.463
312.715
312.967
313.219
313.47
313.721
313.971
314.22
314.469
314.717
314.964
315.211
315.456
315.699
315.942
316.183
316.423
316.662
316.899
300.041
300.126
300.215
300.308
300.405
300.508
300.616
300.729
300.849
300.974
301.105
301.243
301.388
301.538
301.695
301.859
302.028
302.204
302.386
302.574
302.767
302.965
303.169
303.378
303.591
303.808
304.03
304.255
304.484
304.716
304.95
305.187
305.427
305.668
305.911
306.156
306.402
306.649
306.897
307.146
307.395
307.645
307.895
308.145
308.395
308.645
308.895
309.145
309.395
309.643
309.892
310.14
310.387
310.634
310.881
311.126
311.371
311.615
311.858
312.1
312.342
312.583
312.822
313.061
313.299
313.535
313.771
314.005
314.238
314.47
314.701
314.93
315.158
315.385
315.61
315.834
316.056
316.277
316.496
316.713
316.928
300.043
300.132
300.226
300.324
300.427
300.535
300.65
300.77
300.897
301.031
301.172
301.319
301.474
301.636
301.805
301.981
302.164
302.354
302.55
302.753
302.961
303.176
303.396
303.621
303.851
304.085
304.324
304.566
304.811
305.059
305.31
305.564
305.819
306.075
306.333
306.592
306.852
307.112
307.372
307.632
307.892
308.151
308.41
308.668
308.925
309.181
309.436
309.689
309.941
310.192
310.442
310.689
310.936
311.18
311.423
311.664
311.904
312.142
312.378
312.613
312.845
313.076
313.305
313.533
313.759
313.983
314.205
314.425
314.644
314.861
315.076
315.289
315.5
315.71
315.918
316.124
316.328
316.53
316.73
316.928
317.125
300.046
300.14
300.238
300.342
300.451
300.566
300.688
300.816
300.952
301.095
301.246
301.405
301.572
301.747
301.93
302.12
302.318
302.524
302.737
302.957
303.184
303.417
303.656
303.9
304.149
304.403
304.661
304.923
305.188
305.456
305.726
305.998
306.272
306.547
306.822
307.098
307.374
307.649
307.924
308.198
308.471
308.742
309.012
309.28
309.547
309.811
310.073
310.332
310.59
310.844
311.097
311.346
311.594
311.838
312.08
312.319
312.556
312.789
313.021
313.249
313.475
313.699
313.92
314.138
314.354
314.567
314.778
314.987
315.193
315.397
315.598
315.798
315.994
316.189
316.382
316.572
316.76
316.946
317.129
317.311
317.49
300.048
300.148
300.252
300.361
300.477
300.6
300.73
300.868
301.013
301.167
301.33
301.502
301.682
301.872
302.07
302.278
302.493
302.718
302.95
303.19
303.437
303.691
303.952
304.218
304.49
304.767
305.047
305.332
305.62
305.91
306.203
306.497
306.792
307.088
307.383
307.679
307.974
308.268
308.56
308.851
309.139
309.425
309.709
309.99
310.267
310.542
310.813
311.081
311.346
311.607
311.864
312.118
312.368
312.614
312.857
313.096
313.331
313.563
313.791
314.016
314.237
314.455
314.669
314.881
315.089
315.293
315.495
315.694
315.889
316.082
316.272
316.459
316.644
316.825
317.004
317.181
317.355
317.526
317.695
317.862
318.026
300.051
300.156
300.267
300.383
300.506
300.637
300.776
300.924
301.081
301.247
301.423
301.609
301.805
302.011
302.227
302.453
302.689
302.934
303.188
303.451
303.722
304
304.285
304.577
304.874
305.177
305.484
305.794
306.108
306.424
306.742
307.062
307.382
307.701
308.021
308.339
308.656
308.971
309.284
309.593
309.9
310.203
310.503
310.799
311.09
311.378
311.661
311.939
312.213
312.482
312.747
313.006
313.261
313.511
313.756
313.997
314.233
314.465
314.691
314.914
315.132
315.346
315.556
315.762
315.963
316.161
316.356
316.546
316.733
316.917
317.097
317.274
317.447
317.618
317.785
317.95
318.112
318.27
318.427
318.58
318.731
300.054
300.165
300.282
300.406
300.537
300.677
300.826
300.984
301.153
301.333
301.523
301.725
301.938
302.163
302.399
302.646
302.904
303.172
303.451
303.739
304.037
304.342
304.656
304.976
305.302
305.633
305.97
306.309
306.652
306.997
307.344
307.692
308.039
308.387
308.732
309.076
309.418
309.756
310.092
310.423
310.75
311.073
311.391
311.703
312.011
312.313
312.609
312.9
313.185
313.464
313.737
314.004
314.265
314.521
314.77
315.014
315.253
315.485
315.713
315.935
316.152
316.364
316.571
316.773
316.97
317.163
317.352
317.536
317.716
317.892
318.064
318.232
318.397
318.558
318.716
318.871
319.022
319.17
319.315
319.457
319.596
300.057
300.175
300.298
300.43
300.569
300.718
300.877
301.047
301.229
301.422
301.628
301.847
302.079
302.323
302.581
302.851
303.133
303.428
303.733
304.05
304.376
304.712
305.056
305.408
305.765
306.129
306.497
306.869
307.243
307.62
307.997
308.375
308.752
309.128
309.502
309.874
310.242
310.606
310.965
311.32
311.67
312.013
312.351
312.682
313.007
313.325
313.637
313.941
314.239
314.529
314.812
315.088
315.357
315.62
315.875
316.124
316.366
316.601
316.831
317.054
317.271
317.482
317.687
317.887
318.081
318.271
318.455
318.634
318.809
318.979
319.144
319.305
319.463
319.616
319.765
319.911
320.053
320.191
320.326
320.458
320.587
300.06
300.184
300.314
300.452
300.6
300.758
300.927
301.108
301.303
301.51
301.732
301.968
302.219
302.485
302.765
303.059
303.368
303.689
304.024
304.369
304.726
305.092
305.467
305.851
306.241
306.636
307.037
307.441
307.849
308.257
308.667
309.076
309.484
309.891
310.294
310.694
311.089
311.48
311.865
312.244
312.616
312.982
313.34
313.691
314.034
314.369
314.696
315.015
315.326
315.628
315.922
316.208
316.486
316.756
317.018
317.272
317.518
317.757
317.989
318.213
318.431
318.642
318.846
319.045
319.237
319.423
319.603
319.778
319.947
320.112
320.271
320.426
320.576
320.722
320.863
321
321.133
321.263
321.389
321.511
321.63
300.063
300.191
300.327
300.471
300.626
300.792
300.97
301.161
301.367
301.588
301.824
302.077
302.346
302.631
302.934
303.251
303.583
303.93
304.29
304.662
305.047
305.442
305.846
306.259
306.68
307.107
307.538
307.973
308.411
308.851
309.29
309.73
310.167
310.602
311.033
311.46
311.881
312.297
312.707
313.109
313.503
313.89
314.268
314.638
314.998
315.349
315.691
316.024
316.347
316.66
316.964
317.259
317.544
317.82
318.087
318.346
318.595
318.837
319.07
319.295
319.512
319.722
319.924
320.119
320.308
320.49
320.666
320.835
320.999
321.157
321.31
321.458
321.6
321.738
321.871
322
322.124
322.244
322.36
322.473
322.582
300.064
300.196
300.335
300.484
300.643
300.813
300.998
301.196
301.409
301.639
301.886
302.15
302.433
302.733
303.049
303.382
303.731
304.095
304.474
304.866
305.271
305.687
306.113
306.548
306.991
307.441
307.895
308.353
308.814
309.276
309.738
310.199
310.659
311.115
311.568
312.016
312.458
312.894
313.322
313.743
314.155
314.559
314.953
315.337
315.711
316.074
316.427
316.77
317.101
317.422
317.733
318.032
318.322
318.601
318.87
319.129
319.379
319.62
319.851
320.074
320.288
320.495
320.693
320.884
321.068
321.245
321.415
321.579
321.736
321.888
322.034
322.174
322.31
322.44
322.566
322.687
322.804
322.917
323.025
323.13
323.231
387.869
395.861
402.574
408.419
413.598
418.22
422.35
426.021
429.249
432.036
434.372
436.235
437.59
438.39
438.57
438.04
436.669
434.263
430.49
424.694
415.226
408.774
403.796
399.691
396.171
393.072
390.293
387.765
385.438
383.277
381.252
379.341
377.527
375.795
374.133
372.531
370.981
369.474
368.006
366.571
365.164
363.781
362.42
361.078
359.752
358.44
357.141
355.854
354.576
353.308
352.048
350.796
349.551
348.312
347.08
345.853
344.631
343.415
342.205
341
339.801
338.609
337.424
336.248
335.081
333.925
332.781
331.651
330.536
329.437
328.357
327.296
326.257
325.24
324.248
323.281
322.341
321.429
320.546
319.693
318.87
318.078
317.317
316.588
315.89
315.223
314.587
313.982
313.406
312.86
312.342
311.852
311.388
310.95
310.536
310.146
309.777
309.429
309.101
308.792
308.5
308.223
307.962
307.715
307.48
307.257
307.044
306.842
306.648
306.462
306.283
306.111
305.945
305.784
305.627
305.475
305.326
305.181
305.039
304.899
304.761
304.626
304.492
304.36
304.229
304.1
303.972
303.845
303.72
303.595
303.472
303.35
303.23
303.11
302.993
302.876
302.761
302.648
302.536
302.427
302.319
302.213
302.109
302.008
301.909
301.812
301.717
301.625
301.536
301.45
301.366
301.285
301.207
301.131
301.059
300.99
300.923
300.859
300.799
300.741
300.686
383.117
390.069
396.316
401.919
406.958
411.494
415.568
419.205
422.413
425.191
427.526
429.398
430.771
431.601
431.826
431.363
430.1
427.881
424.489
419.657
413.34
407.856
403.255
399.332
395.913
392.878
390.142
387.644
385.341
383.196
381.185
379.285
377.48
375.755
374.099
372.502
370.955
369.452
367.987
366.554
365.149
363.769
362.409
361.068
359.743
358.432
357.134
355.847
354.57
353.302
352.043
350.791
349.546
348.308
347.076
345.849
344.628
343.412
342.201
340.996
339.798
338.605
337.421
336.244
335.077
333.921
332.777
331.647
330.531
329.432
328.352
327.291
326.251
325.235
324.242
323.276
322.336
321.424
320.541
319.688
318.865
318.073
317.312
316.583
315.885
315.218
314.583
313.978
313.402
312.856
312.339
311.849
311.385
310.947
310.534
310.143
309.775
309.428
309.1
308.79
308.498
308.222
307.961
307.714
307.479
307.256
307.044
306.841
306.647
306.462
306.283
306.111
305.945
305.784
305.628
305.475
305.327
305.182
305.039
304.899
304.762
304.626
304.492
304.36
304.23
304.1
303.972
303.846
303.72
303.596
303.473
303.351
303.23
303.111
302.993
302.877
302.762
302.649
302.537
302.427
302.319
302.214
302.11
302.008
301.909
301.812
301.718
301.626
301.537
301.45
301.366
301.285
301.207
301.132
301.059
300.99
300.923
300.86
300.799
300.741
300.686
379.009
384.966
390.584
395.787
400.563
404.923
408.876
412.431
415.586
418.335
420.662
422.544
423.948
424.832
425.142
424.809
423.747
421.854
419.025
415.215
410.64
406.193
402.162
398.567
395.351
392.449
389.805
387.375
385.122
383.016
381.036
379.16
377.375
375.666
374.023
372.437
370.9
369.405
367.946
366.518
365.118
363.742
362.385
361.047
359.725
358.416
357.119
355.834
354.558
353.292
352.033
350.782
349.538
348.3
347.069
345.842
344.621
343.405
342.195
340.99
339.791
338.598
337.413
336.237
335.07
333.913
332.769
331.638
330.522
329.423
328.342
327.28
326.241
325.224
324.231