/*--------------------------------*- C++ -*----------------------------------*\
  =========                 |
  \\      /  F ield         | OpenFOAM: The Open Source CFD Toolbox
   \\    /   O peration     | Website:  https://openfoam.org
    \\  /    A nd           | Version:  7
     \\/     M anipulation  |
\*---------------------------------------------------------------------------*/
FoamFile
{
    version     2.0;
    format      ascii;
    class       volVectorField;
    location    "3";
    object      U;
}
// * * * * * * * * * * * * * * * * * * * * * * * * * * * * * * * * * * * * * //

dimensions      [0 1 -1 0 0 0 0];

internalField   nonuniform List<vector> 
12013
(
(0.100355 -9.84901e-05 0)
(0.101797 -0.000181778 0)
(0.104124 -0.000257046 0)
(0.107103 -0.000324433 0)
(0.110658 -0.000386057 0)
(0.114718 -0.000443272 0)
(0.119226 -0.000497022 0)
(0.124132 -0.00054804 0)
(0.129397 -0.000596861 0)
(0.134987 -0.000643852 0)
(0.140874 -0.000689253 0)
(0.147029 -0.0007332 0)
(0.153429 -0.000775753 0)
(0.160049 -0.000816917 0)
(0.166868 -0.000856661 0)
(0.173864 -0.00089493 0)
(0.181016 -0.000931663 0)
(0.188303 -0.000966796 0)
(0.195705 -0.00100027 0)
(0.203203 -0.00103205 0)
(0.210778 -0.0010621 0)
(0.218413 -0.0010904 0)
(0.22609 -0.00111696 0)
(0.233795 -0.00114178 0)
(0.241511 -0.0011649 0)
(0.249225 -0.00118634 0)
(0.256924 -0.00120615 0)
(0.264598 -0.0012244 0)
(0.272235 -0.00124113 0)
(0.279826 -0.00125641 0)
(0.287363 -0.00127031 0)
(0.294838 -0.00128288 0)
(0.302245 -0.00129419 0)
(0.309578 -0.0013043 0)
(0.316833 -0.00131328 0)
(0.324006 -0.00132116 0)
(0.331093 -0.00132799 0)
(0.338092 -0.00133381 0)
(0.345002 -0.00133867 0)
(0.35182 -0.00134257 0)
(0.358546 -0.00134553 0)
(0.365181 -0.00134755 0)
(0.371723 -0.00134862 0)
(0.378173 -0.00134873 0)
(0.384532 -0.00134783 0)
(0.390801 -0.00134588 0)
(0.396982 -0.00134279 0)
(0.403075 -0.00133848 0)
(0.409083 -0.00133285 0)
(0.415007 -0.00132576 0)
(0.420848 -0.00131705 0)
(0.426609 -0.00130652 0)
(0.432292 -0.00129394 0)
(0.437897 -0.00127905 0)
(0.443426 -0.00126154 0)
(0.448881 -0.00124103 0)
(0.454262 -0.0012171 0)
(0.459569 -0.00118923 0)
(0.464803 -0.00115682 0)
(0.469963 -0.00111917 0)
(0.475048 -0.00107543 0)
(0.480053 -0.0010246 0)
(0.484976 -0.00096545 0)
(0.48981 -0.000896498 0)
(0.494548 -0.000815908 0)
(0.499178 -0.000721381 0)
(0.503686 -0.000610004 0)
(0.508051 -0.000478018 0)
(0.512247 -0.000320487 0)
(0.516239 -0.000130806 0)
(0.519977 0.000100279 0)
(0.523392 0.000386774 0)
(0.526387 0.000749735 0)
(0.528818 0.0012219 0)
(0.530466 0.00185694 0)
(0.53099 0.00274777 0)
(0.529832 0.00406493 0)
(0.526009 0.00614747 0)
(0.517762 0.00979827 0)
(0.502044 0.0178484 0)
(0.485569 0.0489144 0)
(0.10033 -0.000300885 0)
(0.101769 -0.000557257 0)
(0.104088 -0.000788162 0)
(0.107061 -0.00099464 0)
(0.11061 -0.00118339 0)
(0.114665 -0.00135857 0)
(0.119167 -0.00152306 0)
(0.124067 -0.00167915 0)
(0.129327 -0.00182846 0)
(0.134912 -0.00197213 0)
(0.140792 -0.0021109 0)
(0.146942 -0.00224519 0)
(0.153335 -0.00237518 0)
(0.15995 -0.0025009 0)
(0.166763 -0.00262224 0)
(0.173753 -0.00273906 0)
(0.180898 -0.00285116 0)
(0.188178 -0.00295835 0)
(0.195574 -0.00306047 0)
(0.203064 -0.00315739 0)
(0.210632 -0.00324901 0)
(0.218259 -0.00333529 0)
(0.225929 -0.00341622 0)
(0.233625 -0.00349186 0)
(0.241332 -0.00356228 0)
(0.249037 -0.00362759 0)
(0.256728 -0.00368793 0)
(0.264391 -0.00374348 0)
(0.272018 -0.00379441 0)
(0.279598 -0.0038409 0)
(0.287124 -0.00388316 0)
(0.294587 -0.00392137 0)
(0.301981 -0.00395574 0)
(0.309301 -0.00398645 0)
(0.316542 -0.00401365 0)
(0.3237 -0.00403752 0)
(0.330771 -0.00405819 0)
(0.337754 -0.00407579 0)
(0.344646 -0.00409039 0)
(0.351446 -0.00410207 0)
(0.358153 -0.00411086 0)
(0.364767 -0.00411678 0)
(0.371287 -0.00411979 0)
(0.377714 -0.00411982 0)
(0.384049 -0.00411675 0)
(0.390293 -0.00411042 0)
(0.396446 -0.00410062 0)
(0.402511 -0.00408708 0)
(0.408488 -0.00406945 0)
(0.414379 -0.00404732 0)
(0.420186 -0.00402019 0)
(0.425911 -0.00398748 0)
(0.431554 -0.00394849 0)
(0.437119 -0.00390239 0)
(0.442605 -0.00384824 0)
(0.448014 -0.00378489 0)
(0.453347 -0.00371103 0)
(0.458604 -0.00362512 0)
(0.463786 -0.00352533 0)
(0.46889 -0.0034095 0)
(0.473916 -0.00327509 0)
(0.478862 -0.00311902 0)
(0.483722 -0.00293759 0)
(0.488493 -0.00272632 0)
(0.493165 -0.00247965 0)
(0.49773 -0.00219068 0)
(0.502173 -0.00185065 0)
(0.506477 -0.0014483 0)
(0.510617 -0.000968916 0)
(0.514562 -0.000392817 0)
(0.518269 0.000307134 0)
(0.521678 0.00117044 0)
(0.524713 0.00225546 0)
(0.527261 0.003651 0)
(0.529168 0.0054977 0)
(0.530217 0.00802788 0)
(0.530102 0.011641 0)
(0.528394 0.0170527 0)
(0.524549 0.0256181 0)
(0.518496 0.0399516 0)
(0.517753 0.0647083 0)
(0.100306 -0.000512328 0)
(0.101732 -0.000956686 0)
(0.104035 -0.00135442 0)
(0.106994 -0.00170992 0)
(0.110531 -0.00203482 0)
(0.114573 -0.00233629 0)
(0.119063 -0.00261935 0)
(0.123952 -0.00288789 0)
(0.1292 -0.00314477 0)
(0.134773 -0.00339192 0)
(0.140642 -0.00363061 0)
(0.146779 -0.00386159 0)
(0.153161 -0.00408516 0)
(0.159764 -0.00430137 0)
(0.166564 -0.00451004 0)
(0.173541 -0.0047109 0)
(0.180674 -0.00490363 0)
(0.187941 -0.00508791 0)
(0.195322 -0.00526345 0)
(0.202799 -0.00543001 0)
(0.210352 -0.00558746 0)
(0.217964 -0.00573569 0)
(0.225617 -0.00587472 0)
(0.233296 -0.00600461 0)
(0.240986 -0.0061255 0)
(0.248674 -0.00623759 0)
(0.256345 -0.00634111 0)
(0.263989 -0.00643635 0)
(0.271595 -0.00652362 0)
(0.279154 -0.00660323 0)
(0.286657 -0.00667551 0)
(0.294097 -0.00674082 0)
(0.301466 -0.00679946 0)
(0.30876 -0.00685175 0)
(0.315974 -0.00689798 0)
(0.323104 -0.00693842 0)
(0.330146 -0.0069733 0)
(0.337097 -0.00700282 0)
(0.343956 -0.00702712 0)
(0.350722 -0.00704633 0)
(0.357392 -0.00706049 0)
(0.363967 -0.00706962 0)
(0.370447 -0.00707365 0)
(0.376832 -0.00707244 0)
(0.383122 -0.00706579 0)
(0.389318 -0.00705344 0)
(0.395422 -0.00703499 0)
(0.401434 -0.00700997 0)
(0.407355 -0.00697777 0)
(0.413188 -0.00693769 0)
(0.418933 -0.00688887 0)
(0.424593 -0.0068303 0)
(0.430168 -0.00676078 0)
(0.43566 -0.0066789 0)
(0.441071 -0.006583 0)
(0.4464 -0.00647118 0)
(0.45165 -0.00634117 0)
(0.45682 -0.00619035 0)
(0.46191 -0.00601563 0)
(0.466919 -0.00581337 0)
(0.471847 -0.00557927 0)
(0.47669 -0.00530817 0)
(0.481446 -0.00499392 0)
(0.48611 -0.00462903 0)
(0.490675 -0.00420436 0)
(0.495132 -0.00370857 0)
(0.499471 -0.00312741 0)
(0.503678 -0.00244275 0)
(0.507732 -0.00163105 0)
(0.511609 -0.000661303 0)
(0.515278 0.000508212 0)
(0.518698 0.00193585 0)
(0.52182 0.0037049 0)
(0.524585 0.00593634 0)
(0.526924 0.00881019 0)
(0.52877 0.0126003 0)
(0.530091 0.0177298 0)
(0.530959 0.0248577 0)
(0.531735 0.035015 0)
(0.533516 0.0497127 0)
(0.54006 0.070121 0)
(0.100284 -0.000731492 0)
(0.10169 -0.00137963 0)
(0.10397 -0.00195589 0)
(0.106908 -0.00247128 0)
(0.110425 -0.00294211 0)
(0.114449 -0.00337885 0)
(0.11892 -0.00378885 0)
(0.123791 -0.00417779 0)
(0.129021 -0.00454978 0)
(0.134576 -0.00490767 0)
(0.140428 -0.00525329 0)
(0.146548 -0.00558769 0)
(0.152911 -0.00591135 0)
(0.159496 -0.00622431 0)
(0.166278 -0.00652633 0)
(0.173236 -0.006817 0)
(0.180349 -0.00709587 0)
(0.187596 -0.00736246 0)
(0.194957 -0.00761636 0)
(0.202413 -0.00785722 0)
(0.209944 -0.00808483 0)
(0.217533 -0.00829906 0)
(0.225163 -0.00849991 0)
(0.232818 -0.00868747 0)
(0.240483 -0.00886196 0)
(0.248144 -0.00902364 0)
(0.255788 -0.00917286 0)
(0.263403 -0.00931003 0)
(0.27098 -0.00943558 0)
(0.278507 -0.00954998 0)
(0.285978 -0.00965371 0)
(0.293383 -0.00974724 0)
(0.300717 -0.00983104 0)
(0.307974 -0.00990554 0)
(0.315149 -0.00997118 0)
(0.322238 -0.0100283 0)
(0.329238 -0.0100773 0)
(0.336145 -0.0101184 0)
(0.342957 -0.0101518 0)
(0.349674 -0.0101776 0)
(0.356293 -0.0101961 0)
(0.362815 -0.010207 0)
(0.369239 -0.0102104 0)
(0.375564 -0.010206 0)
(0.381792 -0.0101936 0)
(0.387924 -0.0101727 0)
(0.393959 -0.0101427 0)
(0.399899 -0.0101029 0)
(0.405745 -0.0100526 0)
(0.411499 -0.00999061 0)
(0.417162 -0.00991573 0)
(0.422734 -0.00982649 0)
(0.428219 -0.00972115 0)
(0.433616 -0.00959769 0)
(0.438927 -0.00945377 0)
(0.444152 -0.00928664 0)
(0.449293 -0.00909311 0)
(0.45435 -0.00886945 0)
(0.459323 -0.0086113 0)
(0.464212 -0.00831355 0)
(0.469015 -0.00797018 0)
(0.473731 -0.00757407 0)
(0.478358 -0.0071167 0)
(0.482892 -0.00658785 0)
(0.487328 -0.00597512 0)
(0.49166 -0.00526327 0)
(0.495881 -0.00443345 0)
(0.49998 -0.00346195 0)
(0.503947 -0.00231858 0)
(0.507766 -0.000964384 0)
(0.51142 0.000651157 0)
(0.514892 0.0025953 0)
(0.518167 0.00495958 0)
(0.521236 0.00786882 0)
(0.524108 0.011494 0)
(0.526831 0.0160686 0)
(0.529533 0.0219061 0)
(0.532488 0.0294084 0)
(0.53623 0.0390404 0)
(0.541693 0.0511791 0)
(0.550472 0.0654935 0)
(0.100261 -0.000958923 0)
(0.101647 -0.00182606 0)
(0.103896 -0.00259311 0)
(0.106808 -0.00327992 0)
(0.110298 -0.00390711 0)
(0.114297 -0.0044887 0)
(0.118744 -0.00503458 0)
(0.12359 -0.00555233 0)
(0.128797 -0.00604746 0)
(0.134329 -0.00652376 0)
(0.140157 -0.00698367 0)
(0.146253 -0.0074286 0)
(0.152594 -0.00785918 0)
(0.159154 -0.00827546 0)
(0.165912 -0.00867712 0)
(0.172846 -0.00906362 0)
(0.179934 -0.00943434 0)
(0.187155 -0.00978864 0)
(0.19449 -0.010126 0)
(0.201918 -0.0104459 0)
(0.209421 -0.0107481 0)
(0.216981 -0.0110324 0)
(0.224581 -0.0112988 0)
(0.232205 -0.0115475 0)
(0.239837 -0.0117787 0)
(0.247464 -0.0119927 0)
(0.255072 -0.0121901 0)
(0.262651 -0.0123713 0)
(0.270189 -0.0125369 0)
(0.277676 -0.0126876 0)
(0.285105 -0.012824 0)
(0.292467 -0.0129467 0)
(0.299756 -0.0130562 0)
(0.306966 -0.0131533 0)
(0.314091 -0.0132384 0)
(0.321129 -0.013312 0)
(0.328074 -0.0133746 0)
(0.334925 -0.0134265 0)
(0.34168 -0.0134679 0)
(0.348335 -0.0134991 0)
(0.354891 -0.0135201 0)
(0.361346 -0.013531 0)
(0.367699 -0.0135315 0)
(0.373952 -0.0135214 0)
(0.380104 -0.0135003 0)
(0.386156 -0.0134675 0)
(0.392107 -0.0134224 0)
(0.39796 -0.013364 0)
(0.403716 -0.0132911 0)
(0.409374 -0.0132024 0)
(0.414938 -0.0130962 0)
(0.420407 -0.0129706 0)
(0.425783 -0.0128233 0)
(0.431068 -0.0126516 0)
(0.436261 -0.0124525 0)
(0.441366 -0.0122225 0)
(0.446381 -0.0119573 0)
(0.451308 -0.0116522 0)
(0.456148 -0.0113017 0)
(0.4609 -0.0108992 0)
(0.465563 -0.0104372 0)
(0.470138 -0.00990668 0)
(0.474623 -0.00929714 0)
(0.479017 -0.00859605 0)
(0.483316 -0.00778836 0)
(0.487519 -0.00685593 0)
(0.491622 -0.00577663 0)
(0.495621 -0.00452323 0)
(0.499512 -0.00306194 0)
(0.503293 -0.00135044 0)
(0.506963 0.000663765 0)
(0.510524 0.00304628 0)
(0.513992 0.00588133 0)
(0.517396 0.0092753 0)
(0.520796 0.01336 0)
(0.524294 0.0182934 0)
(0.528066 0.0242524 0)
(0.532391 0.0314085 0)
(0.537682 0.0398681 0)
(0.5445 0.0495467 0)
(0.553496 0.0599244 0)
(0.100239 -0.00119519 0)
(0.101603 -0.00229614 0)
(0.103819 -0.00326679 0)
(0.106698 -0.0041371 0)
(0.110156 -0.00493176 0)
(0.114124 -0.00566842 0)
(0.118541 -0.00635973 0)
(0.123358 -0.00701531 0)
(0.128536 -0.00764213 0)
(0.134039 -0.00824503 0)
(0.139839 -0.00882709 0)
(0.145907 -0.00939011 0)
(0.152218 -0.00993487 0)
(0.15875 -0.0104614 0)
(0.165479 -0.0109694 0)
(0.172383 -0.0114581 0)
(0.179441 -0.0119266 0)
(0.186632 -0.0123743 0)
(0.193934 -0.0128004 0)
(0.20133 -0.0132044 0)
(0.208799 -0.0135858 0)
(0.216324 -0.0139444 0)
(0.223888 -0.0142802 0)
(0.231473 -0.0145935 0)
(0.239066 -0.0148844 0)
(0.246652 -0.0151536 0)
(0.254218 -0.0154014 0)
(0.261753 -0.0156287 0)
(0.269244 -0.0158362 0)
(0.276684 -0.0160245 0)
(0.284063 -0.0161945 0)
(0.291373 -0.016347 0)
(0.298608 -0.0164828 0)
(0.305761 -0.0166025 0)
(0.312828 -0.0167068 0)
(0.319805 -0.0167963 0)
(0.326687 -0.0168716 0)
(0.333471 -0.0169331 0)
(0.340156 -0.0169811 0)
(0.34674 -0.0170158 0)
(0.35322 -0.0170373 0)
(0.359597 -0.0170456 0)
(0.36587 -0.0170404 0)
(0.372038 -0.0170214 0)
(0.378101 -0.016988 0)
(0.38406 -0.0169395 0)
(0.389916 -0.016875 0)
(0.395669 -0.0167931 0)
(0.401321 -0.0166926 0)
(0.406871 -0.0165716 0)
(0.412322 -0.0164281 0)
(0.417675 -0.0162596 0)
(0.42293 -0.0160634 0)
(0.428089 -0.0158362 0)
(0.433153 -0.0155742 0)
(0.438123 -0.015273 0)
(0.443001 -0.0149278 0)
(0.447788 -0.0145326 0)
(0.452483 -0.0140809 0)
(0.457088 -0.0135649 0)
(0.461605 -0.0129756 0)
(0.466032 -0.0123028 0)
(0.470371 -0.0115343 0)
(0.474622 -0.0106559 0)
(0.478786 -0.0096508 0)
(0.482863 -0.00849922 0)
(0.486855 -0.00717752 0)
(0.490765 -0.00565743 0)
(0.494597 -0.00390497 0)
(0.498359 -0.00187926 0)
(0.502064 0.000468308 0)
(0.505731 0.00319324 0)
(0.509394 0.00636198 0)
(0.513106 0.0100513 0)
(0.516944 0.0143451 0)
(0.521021 0.0193278 0)
(0.525497 0.0250696 0)
(0.530582 0.0316018 0)
(0.536537 0.0388753 0)
(0.543646 0.0467009 0)
(0.552137 0.0546794 0)
(0.100217 -0.00144092 0)
(0.101561 -0.00279031 0)
(0.103741 -0.00397787 0)
(0.106584 -0.00504426 0)
(0.110006 -0.00601815 0)
(0.113938 -0.00692078 0)
(0.11832 -0.00776772 0)
(0.123103 -0.00857075 0)
(0.128247 -0.00933845 0)
(0.133717 -0.0100767 0)
(0.139483 -0.0107893 0)
(0.145518 -0.0114785 0)
(0.151797 -0.0121452 0)
(0.158296 -0.0127895 0)
(0.164992 -0.0134108 0)
(0.171862 -0.0140084 0)
(0.178886 -0.0145812 0)
(0.186041 -0.0151282 0)
(0.193307 -0.0156487 0)
(0.200666 -0.0161418 0)
(0.208096 -0.0166071 0)
(0.215581 -0.0170444 0)
(0.223103 -0.0174536 0)
(0.230645 -0.0178349 0)
(0.238193 -0.0181888 0)
(0.245732 -0.0185157 0)
(0.253249 -0.0188164 0)
(0.260733 -0.0190917 0)
(0.268172 -0.0193424 0)
(0.275556 -0.0195696 0)
(0.282878 -0.0197741 0)
(0.290128 -0.0199568 0)
(0.297301 -0.0201188 0)
(0.304389 -0.0202609 0)
(0.311389 -0.0203838 0)
(0.318296 -0.0204883 0)
(0.325105 -0.0205751 0)
(0.331814 -0.0206445 0)
(0.338421 -0.0206971 0)
(0.344922 -0.0207329 0)
(0.351318 -0.0207522 0)
(0.357607 -0.0207548 0)
(0.363787 -0.0207405 0)
(0.36986 -0.0207088 0)
(0.375824 -0.020659 0)
(0.381681 -0.0205901 0)
(0.38743 -0.0205011 0)
(0.393073 -0.0203904 0)
(0.398609 -0.0202563 0)
(0.404041 -0.0200968 0)
(0.409368 -0.0199092 0)
(0.414594 -0.0196909 0)
(0.419717 -0.0194383 0)
(0.424741 -0.0191477 0)
(0.429666 -0.0188147 0)
(0.434494 -0.0184342 0)
(0.439227 -0.0180003 0)
(0.443865 -0.0175066 0)
(0.44841 -0.0169454 0)
(0.452864 -0.016308 0)
(0.457229 -0.0155846 0)
(0.461507 -0.0147638 0)
(0.4657 -0.0138324 0)
(0.469811 -0.0127755 0)
(0.473844 -0.0115756 0)
(0.477802 -0.0102126 0)
(0.481693 -0.00866336 0)
(0.485525 -0.00690089 0)
(0.489309 -0.00489423 0)
(0.493061 -0.00260782 0)
(0.496805 -1.27767e-06 0)
(0.500569 0.00296679 0)
(0.504395 0.0063406 0)
(0.508342 0.0101662 0)
(0.512485 0.0144853 0)
(0.516922 0.0193272 0)
(0.521772 0.0246968 0)
(0.52717 0.0305585 0)
(0.533258 0.0368154 0)
(0.540157 0.0432903 0)
(0.547911 0.0497167 0)
(0.100195 -0.00169691 0)
(0.10152 -0.00330937 0)
(0.103665 -0.00472763 0)
(0.106468 -0.00600317 0)
(0.109851 -0.00716864 0)
(0.113744 -0.0082488 0)
(0.118088 -0.00926224 0)
(0.122833 -0.010223 0)
(0.127939 -0.0111414 0)
(0.133372 -0.0120244 0)
(0.139102 -0.0128766 0)
(0.145101 -0.0137006 0)
(0.151344 -0.0144975 0)
(0.157806 -0.0152673 0)
(0.164465 -0.0160096 0)
(0.171298 -0.0167231 0)
(0.178283 -0.0174068 0)
(0.1854 -0.0180595 0)
(0.192626 -0.0186801 0)
(0.199943 -0.0192678 0)
(0.207331 -0.019822 0)
(0.214771 -0.0203423 0)
(0.222247 -0.0208289 0)
(0.229741 -0.0212818 0)
(0.237238 -0.0217016 0)
(0.244725 -0.022089 0)
(0.252188 -0.0224447 0)
(0.259614 -0.0227697 0)
(0.266994 -0.0230652 0)
(0.274317 -0.023332 0)
(0.281574 -0.0235715 0)
(0.288757 -0.0237847 0)
(0.29586 -0.0239727 0)
(0.302877 -0.0241365 0)
(0.309801 -0.024277 0)
(0.31663 -0.0243951 0)
(0.323358 -0.0244915 0)
(0.329983 -0.0245668 0)
(0.336502 -0.0246213 0)
(0.342913 -0.0246555 0)
(0.349215 -0.0246693 0)
(0.355406 -0.0246626 0)
(0.361485 -0.024635 0)
(0.367453 -0.0245861 0)
(0.373309 -0.024515 0)
(0.379053 -0.0244205 0)
(0.384686 -0.0243013 0)
(0.390209 -0.0241557 0)
(0.395621 -0.0239817 0)
(0.400925 -0.0237767 0)
(0.406121 -0.0235379 0)
(0.41121 -0.023262 0)
(0.416195 -0.0229452 0)
(0.421076 -0.0225832 0)
(0.425855 -0.0221709 0)
(0.430534 -0.0217027 0)
(0.435115 -0.0211721 0)
(0.4396 -0.020572 0)
(0.443992 -0.0198941 0)
(0.448293 -0.019129 0)
(0.452507 -0.0182664 0)
(0.456636 -0.0172944 0)
(0.460686 -0.0161997 0)
(0.464661 -0.0149672 0)
(0.468568 -0.0135801 0)
(0.472415 -0.0120193 0)
(0.476212 -0.0102637 0)
(0.479972 -0.00828973 0)
(0.483711 -0.00607166 0)
(0.487451 -0.00358164 0)
(0.491217 -0.000790269 0)
(0.495048 0.00233012 0)
(0.49898 0.00580247 0)
(0.503067 0.00964704 0)
(0.507373 0.0138749 0)
(0.51197 0.0184815 0)
(0.516934 0.0234396 0)
(0.522343 0.0286907 0)
(0.528261 0.0341389 0)
(0.534725 0.0396476 0)
(0.541709 0.0450494 0)
(0.100171 -0.00196414 0)
(0.101482 -0.00385444 0)
(0.103591 -0.00551775 0)
(0.106355 -0.00701598 0)
(0.109697 -0.00838598 0)
(0.113548 -0.00965588 0)
(0.11785 -0.0108474 0)
(0.122555 -0.0119769 0)
(0.127621 -0.0130564 0)
(0.133014 -0.0140942 0)
(0.138705 -0.0150956 0)
(0.144665 -0.0160636 0)
(0.150869 -0.0169995 0)
(0.157293 -0.0179034 0)
(0.163912 -0.0187745 0)
(0.170706 -0.0196116 0)
(0.17765 -0.0204132 0)
(0.184725 -0.0211781 0)
(0.191908 -0.0219049 0)
(0.19918 -0.0225927 0)
(0.206521 -0.0232408 0)
(0.213913 -0.0238488 0)
(0.221338 -0.0244166 0)
(0.22878 -0.0249447 0)
(0.236222 -0.0254335 0)
(0.243651 -0.0258837 0)
(0.251054 -0.0262965 0)
(0.258418 -0.0266728 0)
(0.265732 -0.027014 0)
(0.272987 -0.0273213 0)
(0.280173 -0.0275959 0)
(0.287282 -0.0278393 0)
(0.294309 -0.0280526 0)
(0.301245 -0.0282371 0)
(0.308087 -0.0283937 0)
(0.314829 -0.0285235 0)
(0.321468 -0.0286273 0)
(0.328 -0.0287057 0)
(0.334424 -0.0287592 0)
(0.340735 -0.0287882 0)
(0.346934 -0.0287926 0)
(0.353019 -0.0287722 0)
(0.358989 -0.0287268 0)
(0.364843 -0.0286556 0)
(0.370582 -0.0285576 0)
(0.376205 -0.0284316 0)
(0.381713 -0.028276 0)
(0.387107 -0.0280887 0)
(0.392387 -0.0278676 0)
(0.397555 -0.0276098 0)
(0.402612 -0.0273121 0)
(0.407558 -0.0269708 0)
(0.412397 -0.0265817 0)
(0.417129 -0.02614 0)
(0.421757 -0.0256403 0)
(0.426283 -0.0250765 0)
(0.43071 -0.0244417 0)
(0.43504 -0.0237283 0)
(0.439277 -0.0229277 0)
(0.443425 -0.0220304 0)
(0.447488 -0.0210259 0)
(0.451472 -0.0199024 0)
(0.455381 -0.0186471 0)
(0.459225 -0.0172459 0)
(0.463011 -0.0156833 0)
(0.466751 -0.0139427 0)
(0.470456 -0.0120061 0)
(0.474143 -0.00985478 0)
(0.477831 -0.00746939 0)
(0.481543 -0.00483065 0)
(0.485306 -0.00192024 0)
(0.489157 0.00127823 0)
(0.493125 0.00477095 0)
(0.497254 0.00855922 0)
(0.501592 0.0126352 0)
(0.506185 0.0169775 0)
(0.511078 0.0215478 0)
(0.516308 0.0262876 0)
(0.521896 0.0311178 0)
(0.527839 0.035942 0)
(0.534093 0.0406578 0)
(0.100147 -0.00224372 0)
(0.101445 -0.00442699 0)
(0.103522 -0.00635029 0)
(0.106246 -0.0080853 0)
(0.109546 -0.00967336 0)
(0.113355 -0.0111459 0)
(0.117614 -0.0125277 0)
(0.122276 -0.0138376 0)
(0.127301 -0.0150895 0)
(0.132653 -0.0162928 0)
(0.138303 -0.0174536 0)
(0.144222 -0.0185755 0)
(0.150386 -0.0196598 0)
(0.156769 -0.0207066 0)
(0.163347 -0.021715 0)
(0.170099 -0.0226836 0)
(0.177 -0.0236106 0)
(0.18403 -0.0244945 0)
(0.191168 -0.0253339 0)
(0.198392 -0.0261275 0)
(0.205683 -0.0268745 0)
(0.213023 -0.0275747 0)
(0.220394 -0.0282279 0)
(0.227778 -0.0288345 0)
(0.235161 -0.0293951 0)
(0.242527 -0.0299106 0)
(0.249864 -0.0303821 0)
(0.257159 -0.0308111 0)
(0.264402 -0.0311988 0)
(0.271582 -0.0315467 0)
(0.27869 -0.0318564 0)
(0.285719 -0.0321293 0)
(0.292661 -0.0323668 0)
(0.29951 -0.0325704 0)
(0.306261 -0.0327411 0)
(0.312909 -0.0328802 0)
(0.31945 -0.0329885 0)
(0.325882 -0.0330668 0)
(0.332201 -0.0331156 0)
(0.338405 -0.0331352 0)
(0.344492 -0.0331256 0)
(0.350462 -0.0330868 0)
(0.356314 -0.033018 0)
(0.362046 -0.0329187 0)
(0.367659 -0.0327878 0)
(0.373153 -0.0326237 0)
(0.378529 -0.0324247 0)
(0.383787 -0.0321886 0)
(0.388927 -0.0319128 0)
(0.393952 -0.0315943 0)
(0.398863 -0.0312297 0)
(0.403661 -0.0308148 0)
(0.408349 -0.0303452 0)
(0.412928 -0.0298158 0)
(0.417401 -0.0292209 0)
(0.421771 -0.0285542 0)
(0.426041 -0.0278085 0)
(0.430215 -0.0269761 0)
(0.434297 -0.0260484 0)
(0.438293 -0.0250162 0)
(0.442207 -0.0238693 0)
(0.446047 -0.0225967 0)
(0.449819 -0.0211867 0)
(0.453534 -0.0196266 0)
(0.457201 -0.0179034 0)
(0.460833 -0.0160034 0)
(0.464444 -0.0139129 0)
(0.468051 -0.0116181 0)
(0.471673 -0.00910636 0)
(0.475333 -0.00636644 0)
(0.479055 -0.00338952 0)
(0.482869 -0.000168819 0)
(0.486804 0.0032937 0)
(0.490887 0.00698566 0)
(0.495149 0.0108895 0)
(0.499619 0.0149783 0)
(0.504317 0.0192136 0)
(0.509258 0.0235457 0)
(0.51444 0.027915 0)
(0.519845 0.0322558 0)
(0.525427 0.0365061 0)
(0.100122 -0.00253691 0)
(0.101411 -0.00502879 0)
(0.103457 -0.00722772 0)
(0.106142 -0.00921424 0)
(0.109401 -0.0110345 0)
(0.113167 -0.0127233 0)
(0.117384 -0.0143083 0)
(0.122003 -0.0158111 0)
(0.126985 -0.0172472 0)
(0.132295 -0.0186275 0)
(0.137903 -0.0199587 0)
(0.143781 -0.0212449 0)
(0.149903 -0.0224877 0)
(0.156244 -0.0236869 0)
(0.16278 -0.0248415 0)
(0.169488 -0.0259498 0)
(0.176345 -0.0270099 0)
(0.183328 -0.02802 0)
(0.190417 -0.0289783 0)
(0.197591 -0.0298835 0)
(0.204829 -0.0307347 0)
(0.212113 -0.0315315 0)
(0.219425 -0.0322739 0)
(0.226747 -0.0329623 0)
(0.234065 -0.0335973 0)
(0.241363 -0.0341801 0)
(0.248628 -0.034712 0)
(0.255849 -0.0351944 0)
(0.263013 -0.035629 0)
(0.270111 -0.0360174 0)
(0.277134 -0.0363615 0)
(0.284074 -0.0366627 0)
(0.290924 -0.0369229 0)
(0.297678 -0.0371434 0)
(0.30433 -0.0373257 0)
(0.310876 -0.0374711 0)
(0.317311 -0.0375805 0)
(0.323633 -0.0376547 0)
(0.329839 -0.0376944 0)
(0.335927 -0.0376998 0)
(0.341895 -0.0376711 0)
(0.347741 -0.0376081 0)
(0.353466 -0.03751 0)
(0.359068 -0.0373763 0)
(0.364548 -0.0372055 0)
(0.369905 -0.0369962 0)
(0.37514 -0.0367463 0)
(0.380255 -0.0364536 0)
(0.385249 -0.0361152 0)
(0.390126 -0.035728 0)
(0.394885 -0.0352882 0)
(0.399529 -0.0347916 0)
(0.404061 -0.0342335 0)
(0.408483 -0.0336087 0)
(0.412799 -0.0329113 0)
(0.417011 -0.032135 0)
(0.421123 -0.0312728 0)
(0.425141 -0.030317 0)
(0.429069 -0.0292596 0)
(0.432913 -0.0280917 0)
(0.43668 -0.026804 0)
(0.440378 -0.0253869 0)
(0.444014 -0.02383 0)
(0.447601 -0.0221231 0)
(0.451147 -0.0202555 0)
(0.454668 -0.0182173 0)
(0.458177 -0.0159986 0)
(0.46169 -0.013591 0)
(0.465226 -0.0109874 0)
(0.468804 -0.00818336 0)
(0.472446 -0.0051772 0)
(0.476171 -0.00197037 0)
(0.480012 0.00143364 0)
(0.483973 0.00501541 0)
(0.488078 0.00875309 0)
(0.492341 0.0126196 0)
(0.496769 0.0165816 0)
(0.501362 0.0206001 0)
(0.50611 0.0246319 0)
(0.510991 0.0286329 0)
(0.515965 0.0325659 0)
(0.100095 -0.00284502 0)
(0.101378 -0.00566192 0)
(0.103398 -0.0081529 0)
(0.106046 -0.0104064 0)
(0.109264 -0.0124738 0)
(0.112989 -0.0143931 0)
(0.117163 -0.0161952 0)
(0.12174 -0.0179039 0)
(0.126679 -0.019537 0)
(0.131947 -0.0211063 0)
(0.137513 -0.0226197 0)
(0.143349 -0.0240814 0)
(0.149429 -0.025493 0)
(0.155728 -0.0268546 0)
(0.16222 -0.0281648 0)
(0.168883 -0.0294215 0)
(0.175693 -0.0306227 0)
(0.182627 -0.0317661 0)
(0.189665 -0.0328499 0)
(0.196785 -0.0338725 0)
(0.203966 -0.0348331 0)
(0.211189 -0.0357309 0)
(0.218437 -0.0365662 0)
(0.225693 -0.0373393 0)
(0.23294 -0.0380511 0)
(0.240164 -0.0387029 0)
(0.247351 -0.0392961 0)
(0.254489 -0.0398325 0)
(0.261568 -0.0403138 0)
(0.268577 -0.0407421 0)
(0.275507 -0.0411192 0)
(0.28235 -0.0414471 0)
(0.289099 -0.0417276 0)
(0.295749 -0.0419624 0)
(0.302293 -0.0421531 0)
(0.308728 -0.042301 0)
(0.315048 -0.0424073 0)
(0.321252 -0.0424729 0)
(0.327336 -0.0424984 0)
(0.333299 -0.0424843 0)
(0.339138 -0.0424305 0)
(0.344853 -0.042337 0)
(0.350442 -0.042203 0)
(0.355906 -0.0420277 0)
(0.361244 -0.0418097 0)
(0.366457 -0.0415475 0)
(0.371545 -0.0412389 0)
(0.37651 -0.0408814 0)
(0.381352 -0.0404722 0)
(0.386074 -0.0400079 0)
(0.390677 -0.0394847 0)
(0.395163 -0.0388983 0)
(0.399536 -0.038244 0)
(0.403799 -0.0375165 0)
(0.407954 -0.0367101 0)
(0.412007 -0.0358185 0)
(0.415962 -0.0348353 0)
(0.419823 -0.0337531 0)
(0.423597 -0.0325646 0)
(0.427291 -0.0312619 0)
(0.430912 -0.0298368 0)
(0.434468 -0.0282812 0)
(0.437968 -0.0265869 0)
(0.441424 -0.0247457 0)
(0.444846 -0.0227501 0)
(0.448248 -0.0205931 0)
(0.451643 -0.0182691 0)
(0.455046 -0.0157738 0)
(0.458472 -0.0131049 0)
(0.461939 -0.0102626 0)
(0.465461 -0.00725019 0)
(0.469056 -0.00407425 0)
(0.472737 -0.000742611 0)
(0.476526 0.00273245 0)
(0.480417 0.00632457 0)
(0.48442 0.0100088 0)
(0.488536 0.0137581 0)
(0.492758 0.017543 0)
(0.497072 0.0213328 0)
(0.501459 0.0250979 0)
(0.505884 0.0288164 0)
(0.100066 -0.00316948 0)
(0.101346 -0.0063288 0)
(0.103343 -0.0091291 0)
(0.105956 -0.011666 0)
(0.109136 -0.0139962 0)
(0.112821 -0.0161611 0)
(0.116954 -0.0181947 0)
(0.121489 -0.0201235 0)
(0.126387 -0.0219669 0)
(0.131613 -0.0237383 0)
(0.137138 -0.025446 0)
(0.142932 -0.0270949 0)
(0.14897 -0.0286866 0)
(0.155224 -0.030221 0)
(0.161672 -0.0316964 0)
(0.168288 -0.0331105 0)
(0.175049 -0.0344609 0)
(0.181932 -0.035745 0)
(0.188915 -0.0369608 0)
(0.195977 -0.0381066 0)
(0.203097 -0.0391813 0)
(0.210255 -0.0401843 0)
(0.217434 -0.0411158 0)
(0.224616 -0.0419763 0)
(0.231786 -0.0427667 0)
(0.238928 -0.0434887 0)
(0.24603 -0.0441438 0)
(0.253078 -0.044734 0)
(0.260063 -0.0452614 0)
(0.266974 -0.0457282 0)
(0.273802 -0.0461366 0)
(0.280539 -0.0464888 0)
(0.287178 -0.0467867 0)
(0.293714 -0.0470323 0)
(0.300141 -0.0472274 0)
(0.306455 -0.0473734 0)
(0.312651 -0.0474718 0)
(0.318727 -0.0475234 0)
(0.32468 -0.047529 0)
(0.330508 -0.0474891 0)
(0.33621 -0.0474038 0)
(0.341784 -0.0472728 0)
(0.34723 -0.0470956 0)
(0.352547 -0.0468711 0)
(0.357737 -0.0465982 0)
(0.362798 -0.0462749 0)
(0.367732 -0.0458993 0)
(0.372541 -0.0454687 0)
(0.377226 -0.0449803 0)
(0.381788 -0.0444307 0)
(0.38623 -0.0438159 0)
(0.390556 -0.043132 0)
(0.394767 -0.0423741 0)
(0.398868 -0.0415372 0)
(0.402863 -0.040616 0)
(0.406755 -0.0396046 0)
(0.410551 -0.0384969 0)
(0.414257 -0.0372866 0)
(0.417878 -0.035967 0)
(0.421421 -0.0345316 0)
(0.424895 -0.0329735 0)
(0.428309 -0.0312864 0)
(0.431671 -0.0294641 0)
(0.434993 -0.0275008 0)
(0.438284 -0.0253916 0)
(0.441557 -0.0231327 0)
(0.444825 -0.0207216 0)
(0.448099 -0.0181573 0)
(0.451393 -0.0154409 0)
(0.45472 -0.0125759 0)
(0.458091 -0.00956821 0)
(0.461518 -0.00642667 0)
(0.465008 -0.00316186 0)
(0.468576 0.000216638 0)
(0.472219 0.0036896 0)
(0.475934 0.00723248 0)
(0.479719 0.0108232 0)
(0.483567 0.0144399 0)
(0.487463 0.0180609 0)
(0.49139 0.0216663 0)
(0.495321 0.0252435 0)
(0.100035 -0.00351184 0)
(0.101315 -0.00703215 0)
(0.103293 -0.01016 0)
(0.105874 -0.0129975 0)
(0.109017 -0.0156071 0)
(0.112664 -0.0180337 0)
(0.116758 -0.0203142 0)
(0.121253 -0.0224778 0)
(0.126111 -0.0245458 0)
(0.131297 -0.0265328 0)
(0.13678 -0.028448 0)
(0.142533 -0.0302964 0)
(0.148528 -0.0320798 0)
(0.154738 -0.0337977 0)
(0.161139 -0.0354483 0)
(0.167707 -0.0370289 0)
(0.174416 -0.0385367 0)
(0.181245 -0.0399689 0)
(0.188169 -0.0413231 0)
(0.195168 -0.0425975 0)
(0.202221 -0.0437909 0)
(0.209308 -0.0449028 0)
(0.216411 -0.0459334 0)
(0.223512 -0.0468833 0)
(0.230596 -0.0477538 0)
(0.237649 -0.0485465 0)
(0.244656 -0.0492633 0)
(0.251605 -0.0499066 0)
(0.258487 -0.0504787 0)
(0.265289 -0.050982 0)
(0.272005 -0.0514191 0)
(0.278627 -0.0517923 0)
(0.285146 -0.052104 0)
(0.291558 -0.0523562 0)
(0.297858 -0.052551 0)
(0.30404 -0.0526901 0)
(0.310102 -0.0527749 0)
(0.31604 -0.0528065 0)
(0.321853 -0.0527858 0)
(0.327537 -0.0527134 0)
(0.333092 -0.0525893 0)
(0.338517 -0.0524134 0)
(0.343811 -0.0521851 0)
(0.348974 -0.0519035 0)
(0.354007 -0.0515672 0)
(0.35891 -0.0511745 0)
(0.363684 -0.0507234 0)
(0.368331 -0.0502113 0)
(0.372853 -0.0496353 0)
(0.377252 -0.0489921 0)
(0.381531 -0.048278 0)
(0.385692 -0.0474891 0)
(0.38974 -0.046621 0)
(0.393677 -0.0456689 0)
(0.39751 -0.044628 0)
(0.401242 -0.043493 0)
(0.40488 -0.0422585 0)
(0.40843 -0.0409192 0)
(0.411897 -0.0394696 0)
(0.41529 -0.0379042 0)
(0.418617 -0.036218 0)
(0.421886 -0.0344062 0)
(0.425106 -0.0324647 0)
(0.428288 -0.0303898 0)
(0.43144 -0.0281791 0)
(0.434574 -0.0258311 0)
(0.437701 -0.0233457 0)
(0.440829 -0.0207245 0)
(0.443971 -0.0179708 0)
(0.447134 -0.0150897 0)
(0.450329 -0.0120886 0)
(0.453561 -0.00897667 0)
(0.456836 -0.00576511 0)
(0.460155 -0.00246483 0)
(0.463531 0.000916218 0)
(0.466947 0.00435628 0)
(0.4704 0.00783554 0)
(0.473883 0.0113372 0)
(0.477384 0.014846 0)
(0.480889 0.0183484 0)
(0.484377 0.0218375 0)
(0.100001 -0.00387373 0)
(0.101286 -0.007775 0)
(0.103248 -0.0112498 0)
(0.105799 -0.0144063 0)
(0.108909 -0.0173128 0)
(0.112521 -0.0200178 0)
(0.116578 -0.0225615 0)
(0.121035 -0.0249756 0)
(0.125853 -0.0272832 0)
(0.131 -0.0295002 0)
(0.136443 -0.0316365 0)
(0.142154 -0.0336973 0)
(0.148105 -0.0356843 0)
(0.15427 -0.0375968 0)
(0.160623 -0.0394327 0)
(0.167139 -0.041189 0)
(0.173793 -0.0428623 0)
(0.180562 -0.0444496 0)
(0.187422 -0.0459482 0)
(0.194352 -0.0473563 0)
(0.201331 -0.0486726 0)
(0.20834 -0.0498966 0)
(0.215358 -0.0510285 0)
(0.22237 -0.0520693 0)
(0.22936 -0.0530204 0)
(0.236313 -0.0538836 0)
(0.243215 -0.0546614 0)
(0.250055 -0.0553562 0)
(0.256822 -0.0559707 0)
(0.263506 -0.0565077 0)
(0.270099 -0.05697 0)
(0.276593 -0.0573604 0)
(0.282981 -0.0576813 0)
(0.289258 -0.0579353 0)
(0.295419 -0.0581244 0)
(0.30146 -0.0582506 0)
(0.307377 -0.0583156 0)
(0.313167 -0.0583205 0)
(0.318829 -0.0582665 0)
(0.32436 -0.058154 0)
(0.329759 -0.0579834 0)
(0.335025 -0.0577546 0)
(0.340159 -0.057467 0)
(0.345161 -0.0571198 0)
(0.35003 -0.0567117 0)
(0.354769 -0.0562411 0)
(0.359377 -0.055706 0)
(0.363858 -0.0551039 0)
(0.368213 -0.0544321 0)
(0.372445 -0.0536875 0)
(0.376557 -0.0528668 0)
(0.380552 -0.0519662 0)
(0.384435 -0.0509817 0)
(0.388208 -0.0499093 0)
(0.391879 -0.0487445 0)
(0.395451 -0.047483 0)
(0.39893 -0.0461202 0)
(0.402323 -0.0446518 0)
(0.405637 -0.0430735 0)
(0.408879 -0.0413813 0)
(0.412057 -0.0395715 0)
(0.415179 -0.0376412 0)
(0.418253 -0.0355877 0)
(0.421289 -0.0334095 0)
(0.424294 -0.031106 0)
(0.427279 -0.0286775 0)
(0.430251 -0.0261257 0)
(0.43322 -0.0234536 0)
(0.436193 -0.0206659 0)
(0.439176 -0.0177683 0)
(0.442176 -0.0147685 0)
(0.445196 -0.0116753 0)
(0.44824 -0.00849891 0)
(0.451307 -0.00525016 0)
(0.454396 -0.00193832 0)
(0.457518 0.00143162 0)
(0.460648 0.00483859 0)
(0.463784 0.00826815 0)
(0.466918 0.0117086 0)
(0.470039 0.0151506 0)
(0.473129 0.0185912 0)
(0.0999645 -0.00425695 0)
(0.101256 -0.00856076 0)