/*--------------------------------*- C++ -*----------------------------------*\
  =========                 |
  \\      /  F ield         | OpenFOAM: The Open Source CFD Toolbox
   \\    /   O peration     | Website:  https://openfoam.org
    \\  /    A nd           | Version:  7
     \\/     M anipulation  |
\*---------------------------------------------------------------------------*/
FoamFile
{
    version     2.0;
    format      ascii;
    class       surfaceScalarField;
    location    "0.6";
    object      phi;
}
// * * * * * * * * * * * * * * * * * * * * * * * * * * * * * * * * * * * * * //

dimensions      [0 3 -1 0 0 0 0];

internalField   nonuniform List<scalar> 
5457
(
0.198409
0.00159099
0.196456
0.00195295
0.194147
0.00230935
0.191437
0.00270931
0.188327
0.00311032
0.184819
0.00350826
0.180907
0.00391147
0.17658
0.00432737
0.171819
0.00476105
0.166602
0.00521649
0.160905
0.00569706
0.1547
0.00620558
0.147956
0.00674403
0.140643
0.00731322
0.13273
0.00791224
0.124193
0.00853781
0.115009
0.00918334
0.105171
0.00983786
0.0946866
0.0104847
0.0835862
0.0111004
0.0719333
0.0116529
0.0598325
0.0121007
0.0474412
0.0123913
0.0349827
0.0124585
0.0227681
0.0122146
0.0112449
0.0115232
0.00113132
0.0101135
-0.00508546
0.00621678
-0.00556862
0.000483164
-0.00556862
0.19992
0.00167146
0.199151
0.00272107
0.197919
0.00354165
0.19626
0.00436832
0.194171
0.00519959
0.191649
0.0060299
0.188689
0.00687142
0.185279
0.00773764
0.181401
0.00863883
0.177035
0.00958317
0.172154
0.0105777
0.166731
0.0116284
0.160735
0.0127397
0.154135
0.0139138
0.146897
0.0151496
0.138994
0.0164415
0.1304
0.0177774
0.121101
0.0191365
0.111099
0.0204867
0.100418
0.0217818
0.0891128
0.0229577
0.0772838
0.0239298
0.0650869
0.0245882
0.0527551
0.0247904
0.0406269
0.0243428
0.0291985
0.0229516
0.0192005
0.0201115
0.0104614
0.0149559
0.00328006
0.0076645
-0.00228856
0.199772
0.00189939
0.199063
0.00343038
0.197901
0.00470361
0.196339
0.00593036
0.194384
0.0071545
0.192034
0.00838011
0.189284
0.0096215
0.186125
0.0108964
0.182544
0.0122198
0.178523
0.0136039
0.174041
0.0150595
0.169074
0.0165958
0.163594
0.01822
0.157571
0.0199365
0.150975
0.0217454
0.143776
0.0236406
0.135946
0.0256076
0.127463
0.0276196
0.118315
0.0296341
0.108509
0.0315877
0.0980754
0.0333916
0.0870799
0.0349253
0.0756374
0.0360307
0.063925
0.0365028
0.0521921
0.0360757
0.0407449
0.0343988
0.0298358
0.0310206
0.0193674
0.0254243
0.00946548
0.0175664
0.00717692
0.199695
0.00220479
0.198984
0.00414109
0.197842
0.0058451
0.196306
0.00746662
0.194389
0.00907133
0.192092
0.0106772
0.189412
0.0123019
0.186342
0.0139659
0.182874
0.0156877
0.178995
0.017483
0.174689
0.0193655
0.169938
0.0213468
0.164722
0.0234364
0.159018
0.0256405
0.152803
0.0279606
0.146052
0.0303913
0.138742
0.0329176
0.130851
0.0355106
0.122362
0.0381227
0.113268
0.0406819
0.103575
0.0430847
0.0933116
0.0451888
0.0825358
0.0468065
0.0713415
0.047697
0.0598555
0.0475618
0.0482099
0.0460443
0.0364816
0.042749
0.0246056
0.0373003
0.0124616
0.0297104
0.0196385
0.199659
0.00254582
0.19894
0.00485969
0.197818
0.00696731
0.196311
0.00897362
0.194434
0.0109488
0.192188
0.0129231
0.189571
0.0149186
0.186579
0.0169583
0.183203
0.0190635
0.179433
0.0212524
0.175258
0.0235409
0.170662
0.0259425
0.165631
0.028468
0.160146
0.0311249
0.154191
0.0339156
0.147747
0.0368356
0.140795
0.0398701
0.133315
0.0429906
0.125289
0.0461487
0.1167
0.0492705
0.107536
0.0522484
0.0977922
0.0549328
0.0874734
0.0571253
0.076598
0.0585724
0.0651931
0.0589667
0.0532812
0.0579562
0.040855
0.0551752
0.0278489
0.0503064
0.0141862
0.0433731
0.0338248
0.199644
0.00290141
0.198925
0.00557901
0.197826
0.00806607
0.196357
0.010443
0.194528
0.0127775
0.192343
0.015108
0.189801
0.0174615
0.186895
0.0198635
0.183621
0.0223377
0.179969
0.0249045
0.175928
0.0275817
0.171487
0.0303841
0.166631
0.0333239
0.161346
0.0364094
0.155618
0.039644
0.14943
0.0430239
0.142764
0.0465357
0.135602
0.0501523
0.127923
0.0538281
0.119701
0.0574924
0.110908
0.0610416
0.10151
0.0643305
0.0914711
0.0671644
0.0807499
0.0692935
0.0693033
0.0704134
0.0570838
0.0701758
0.0440382
0.0682207
0.0301185
0.0642261
0.015333
0.0581585
0.0491578
0.199642
0.00325968
0.198931
0.00629014
0.19786
0.00913639
0.196435
0.0118679
0.194664
0.0145485
0.192551
0.0172214
0.190094
0.0199185
0.18729
0.022668
0.184132
0.0254955
0.180613
0.0284235
0.176723
0.0314716
0.172451
0.0346561
0.167784
0.0379905
0.162709
0.0414842
0.157212
0.0451417
0.151275
0.0489609
0.14488
0.0529305
0.138005
0.0570268
0.130624
0.0612094
0.122702
0.0654148
0.114194
0.0695495
0.105043
0.0734812
0.0951778
0.0770297
0.0845123
0.079959
0.0729508
0.0819749
0.0603966
0.0827299
0.0467696
0.0818477
0.0320429
0.0789529
0.0163016
0.0738998
0.0654594
0.199646
0.00361327
0.198951
0.00698526
0.197915
0.0101727
0.196541
0.0132416
0.194837
0.0162531
0.192805
0.0192533
0.190445
0.0222782
0.187755
0.0253585
0.184728
0.0285219
0.181359
0.0317929
0.177638
0.0351927
0.173554
0.0387395
0.169097
0.042448
0.164252
0.0463294
0.159003
0.05039
0.153334
0.0546303
0.147222
0.0590425
0.140641
0.0636081
0.133555
0.0682944
0.125921
0.073049
0.117677
0.0777933
0.108744
0.0824142
0.0990202
0.0867539
0.08838
0.0905993
0.0766826
0.0936723
0.0637871
0.0956254
0.0495839
0.0960509
0.0340528
0.094484
0.0173356
0.0906169
0.082795
0.199656
0.00395725
0.198983
0.00765791
0.197987
0.0111692
0.196671
0.0145578
0.19504
0.0178836
0.193099
0.0211945
0.190847
0.0245298
0.188283
0.0279227
0.185402
0.031403
0.182198
0.034997
0.178663
0.0387277
0.174788
0.0426148
0.170561
0.0466752
0.165968
0.0509219
0.160994
0.0553642
0.155618
0.0600059
0.149816
0.0648444
0.143556
0.0698683
0.136795
0.0750551
0.129478
0.0803667
0.121527
0.0857439
0.112842
0.0910989
0.103292
0.096304
0.0927137
0.101178
0.0809167
0.105469
0.0677052
0.108837
0.0529177
0.110838
0.0365052
0.110897
0.0186365
0.108486
0.101432
0.199669
0.00428805
0.199024
0.00830277
0.198073
0.0121206
0.19682
0.0158106
0.195271
0.0194326
0.193429
0.0230363
0.191296
0.0266633
0.188869
0.0303494
0.186146
0.034126
0.183122
0.0380213
0.17979
0.0420599
0.176141
0.0462636
0.172165
0.0506512
0.167848
0.0552384
0.163175
0.0600376
0.158124
0.0650572
0.152667
0.0703009
0.146769
0.0757663
0.140381
0.0814432
0.133436
0.087311
0.125846
0.0933341
0.11749
0.0994556
0.108207
0.105587
0.0977939
0.111591
0.0860024
0.117261
0.0725568
0.122283
0.0571984
0.126197
0.0397825
0.128312
0.0204421
0.127826
0.121874
0.199685
0.00460301
0.199072
0.00891552
0.198171
0.0130219
0.196987
0.0169944
0.195526
0.0208939
0.193791
0.0247711
0.191785
0.02867
0.189506
0.0326282
0.186953
0.0366792
0.184121
0.0408525
0.181007
0.0451745
0.177602
0.0496688
0.173896
0.0543564
0.169879
0.0592559
0.165533
0.0643832
0.160839
0.0697519
0.155766
0.0753729
0.150279
0.0812538
0.144324
0.0873985
0.137829
0.0938059
0.130695
0.100468
0.122787
0.107364
0.11392
0.114453
0.10385
0.121662
0.0922575
0.128853
0.0787573
0.135783
0.0629235
0.142031
0.0443945
0.146841
0.0231147
0.149106
0.144988
0.199703
0.00490004
0.199126
0.00949259
0.198279
0.0138688
0.197169
0.0181044
0.195801
0.0222614
0.194181
0.026392
0.192309
0.0305418
0.190187
0.0347503
0.187814
0.0390523
0.185187
0.0434789
0.182304
0.048058
0.179158
0.0528149
0.175741
0.0577728
0.172044
0.0629529
0.168052
0.0683752
0.163746
0.0740583
0.159098
0.0800204
0.154073
0.0862796
0.148617
0.0928542
0.142659
0.0997639
0.136098
0.107029
0.128791
0.11467
0.120539
0.122705
0.111064
0.131137
0.0999806
0.139937
0.0867647
0.148999
0.0707396
0.158056
0.051125
0.166456
0.0273129
0.172918
0.172301
0.199723
0.00517748
0.199184
0.0100311
0.198395
0.0146577
0.197363
0.0191362
0.196095
0.0235303
0.194593
0.0278932
0.192863
0.0322721
0.190906
0.0367078
0.188721
0.0412364
0.18631
0.0458903
0.183669
0.0506988
0.180796
0.0556884
0.177684
0.0608844
0.174327
0.0663105
0.170712
0.07199
0.166823
0.0779465
0.162639
0.0842051
0.158125
0.0907933
0.153236
0.0977431
0.147906
0.105094
0.142042
0.112893
0.135508
0.121204
0.128111
0.130103
0.119561
0.139686
0.109432
0.150066
0.0970768
0.161354
0.0815129
0.17362
0.0612741
0.186695
0.0344095
0.199783
0.206711
0.199743
0.00543406
0.199246
0.0105286
0.198518
0.0153854
0.197568
0.0200862
0.196402
0.0246962
0.195026
0.0292699
0.193442
0.0338552
0.191656
0.0384943
0.189668
0.0432244
0.18748
0.0480786
0.185091
0.0530872
0.182501
0.0582782
0.179708
0.0636779
0.176706
0.0693124
0.173488
0.0752076
0.170044
0.0813911
0.166356
0.0878934
0.162399
0.0947499
0.158138
0.102004
0.153522
0.10971
0.148476
0.11794
0.14289
0.12679
0.136602
0.136392
0.12936
0.146928
0.120765
0.15866
0.11015
0.171969
0.0963303
0.187439
0.077044
0.205981
0.0476705
0.229156
0.254381
0.199765
0.00566879
0.199311
0.0109833
0.198646
0.0160494
0.197781
0.0209515
0.196722
0.0257559
0.195473
0.030518
0.194042
0.0352867
0.192431
0.0401049
0.190645
0.0450105
0.188687
0.0500372
0.186558
0.055216
0.184261
0.0605755
0.181795
0.0661431
0.179162
0.0719461
0.176357
0.0780122
0.173376
0.0843717
0.170211
0.0910586
0.166848
0.0981133
0.163265
0.105586
0.159433
0.113542
0.155307
0.122066
0.15082
0.131277
0.145874
0.141337
0.140315
0.152487
0.133891
0.165084
0.126152
0.179707
0.116202
0.19739
0.101879
0.220304
0.0760949
0.25494
0.330476
-0.0160754
0.0160754
-0.0356176
0.0195422
-0.0562556
0.020638
-0.0773628
0.0211072
-0.0985527
0.0211899
-0.119555
0.0210023
-0.140158
0.0206031
-0.160184
0.0200262
-0.179475
0.019291
-0.197882
0.0184066
-0.215255
0.0173732
-0.231439
0.0161841
-0.246266
0.0148267
-0.259551
0.0132847
-0.27109
0.0115397
-0.280664
0.00957416
-0.288038
0.0073734
-0.292966
0.00492841
-0.295196
0.00223019
-0.294423
-0.000773411
-0.290394
-0.00402889
-0.282771
-0.00762334
-0.271203
-0.0115675
-0.255195
-0.0160087
-0.234002
-0.0211924
-0.206547
-0.0274548
-0.171095
-0.0354526
-0.123655
-0.0474397
-0.0549539
-0.0687012
-0.0939147
-0.0198866
0.0359621
-0.0401094
0.039765
-0.060731
0.0412596
-0.0815619
0.0419381
-0.102348
0.0419759
-0.122867
0.0415214
-0.142931
0.040667
-0.162377
0.0394724
-0.181059
0.0379729
-0.198837
0.0361841
-0.215568
0.0341048
-0.231104
0.0317194
-0.245278
0.0290014
-0.25791
0.0259167
-0.268799
0.0224282
-0.277725
0.0185008
-0.284459
0.014107
-0.28876
0.00922942
-0.290385
0.00385524
-0.289139
-0.00201967
-0.284787
-0.00838107
-0.277144
-0.0152656
-0.265936
-0.0227759
-0.250784
-0.0311611
-0.231138
-0.0408381
-0.206172
-0.0524207
-0.174595
-0.0670296
-0.134915
-0.0871193
-0.0879013
-0.115715
-0.150148
-0.0200668
0.0560288
-0.0399867
0.0596849
-0.0598432
0.0611161
-0.0796214
0.0617163
-0.0991918
0.0615464
-0.118415
0.0607442
-0.137157
0.0594092
-0.155296
0.0576117
-0.172717
0.0553935
-0.189303
0.0527703
-0.204932
0.0497338
-0.219468
0.0462555
-0.232757
0.0422907
-0.244626
0.0377848
-0.254876
0.032679
-0.263294
0.0269188
-0.269649
0.0204619
-0.273706
0.0132861
-0.275236
0.00538565
-0.274045
-0.0032106
-0.269961
-0.0124658
-0.262823
-0.0224028
-0.252458
-0.0331411
-0.238619
-0.0450003
-0.220943
-0.0585146
-0.19889
-0.0744734
-0.171812
-0.0941078
-0.139639
-0.119291
-0.103532
-0.151822
-0.1902
-0.0188633
0.0748921
-0.0375944
0.078416
-0.0561036
0.0796253
-0.0743886
0.0800013
-0.0923879
0.0795457
-0.110031
0.0783871
-0.127239
0.0766177
-0.143932
0.0743045
-0.160022
0.0714838
-0.175413
0.0681609
-0.189991
0.0643117
-0.203622
0.0598869
-0.216149
0.0548176
-0.227388
0.0490234
-0.237129
0.0424207
-0.245144
0.0349339
-0.25119
0.0265075
-0.255023
0.0171195
-0.256427
0.00678907
-0.255226
-0.00441105
-0.251296
-0.0163962
-0.244567
-0.0291313
-0.234959
-0.0427494
-0.222343
-0.0576163
-0.206514
-0.0743435
-0.187193
-0.0937949
-0.164204
-0.117096
-0.138008
-0.145488
-0.109909
-0.179921
-0.218117
-0.0170051
0.0918973
-0.0339322
0.0953431
-0.0506406
0.0963337
-0.0671166
0.0964773
-0.0833299
0.095759
-0.0992513
0.0943085
-0.114839
0.0922057
-0.13004
0.089505
-0.144783
0.0862267
-0.158978
0.082356
-0.172511
0.0778448
-0.185241
0.0726168
-0.196998
0.0665746
-0.207584
0.0596094
-0.216776
0.0516126
-0.224331
0.0424888
-0.229995
0.0321723
-0.233526
0.0206497
-0.234715
0.00797839
-0.233421
-0.00570507
-0.229576
-0.0202413
-0.223185
-0.0355225
-0.214261
-0.0516729
-0.202781
-0.0690963
-0.18867
-0.0884548
-0.171856
-0.110609
-0.152468
-0.136484
-0.131182
-0.166774
-0.109443
-0.20166
-0.237788
-0.0147276
0.106625
-0.0294678
0.110083
-0.0440593
0.110925
-0.0584893
0.110907
-0.0727465
0.110016
-0.0868243
0.108386
-0.100701
0.106082
-0.114335
0.10314
-0.127665
0.0995563
-0.1406
0.0952912
-0.153023
0.0902676
-0.164785
0.0843788
-0.175707
0.0774969
-0.185582
0.0694838
-0.194174
0.0602051
-0.201231
0.0495451
-0.206485
0.0374272
-0.209686
0.02385
-0.21063
0.00892268
-0.209206
-0.00712951
-0.205405
-0.0240418
-0.199319
-0.0416082
-0.191052
-0.0599402
-0.180663
-0.0794856
-0.168169
-0.100949
-0.153638
-0.12514
-0.137378
-0.152744
-0.120172
-0.183979
-0.10348
-0.218352
-0.251764
-0.012161
0.118786
-0.0244604
0.122383
-0.0367114
0.123176
-0.04891
0.123106
-0.0610606
0.122167
-0.073171
0.120497
-0.0852286
0.11814
-0.0971989
0.11511
-0.10902
0.111378
-0.120602
0.106873
-0.131822
0.101488
-0.142529
0.0950855
-0.152537
0.0875057
-0.161633
0.0785797
-0.169573
0.0681451
-0.176092
0.0560637
-0.180911
0.042246
-0.183763
0.0267025
-0.184446
0.0096055
-0.182881
-0.00869495
-0.179117
-0.0278056
-0.173337
-0.0473885
-0.165733
-0.0675439
-0.156429
-0.0887897
-0.145491
-0.111886
-0.133058
-0.137573
-0.119521
-0.166281
-0.105719
-0.197781
-0.0930309
-0.231041
-0.261618
-0.00939513
0.128181
-0.019073
0.132061
-0.0288144
0.132918
-0.0386301
0.132922
-0.0485394
0.132076
-0.0585608
0.130518
-0.0686861
0.128265
-0.0788823
0.125306
-0.0890862
0.121582
-0.0992053
0.116992
-0.109118
0.1114
-0.11867
0.104638
-0.127679
0.0965146
-0.135928
0.0868286
-0.14317
0.0753866
-0.14913
0.0620237
-0.153515
0.046631
-0.156034
0.0292217
-0.156466
0.0100374
-0.154761
-0.0104002
-0.151032
-0.0315345
-0.145567
-0.0528536
-0.138647
-0.0744638
-0.130437
-0.0969993
-0.121015
-0.121309
-0.110524
-0.148064
-0.0993781
-0.177427
-0.0884203
-0.208739
-0.0789227
-0.240538
-0.268339
-0.00649018
0.134671
-0.0134144
0.138985
-0.0205135
0.140017
-0.0278211
0.140229
-0.0353714
0.139626
-0.043193
0.13834
-0.0512789
0.136351
-0.0595939
0.133621
-0.0680719
0.13006
-0.0766175
0.125537
-0.0851117
0.119894
-0.0934067
0.112933
-0.101325
0.104433
-0.108658
0.0941615
-0.11516
0.0818885
-0.12055
0.067414
-0.124519
0.0505993
-0.126743
0.031446
-0.126941
0.0102355
-0.125118
-0.0122236
-0.121442
-0.0352106
-0.116321
-0.0579746
-0.110116
-0.0806682
-0.103013
-0.104102
-0.0950652
-0.129256
-0.0863836
-0.156745
-0.0773544
-0.186456
-0.0687822
-0.217311
-0.0618487
-0.247472
-0.272588
-0.00349225
0.138163
-0.00756414
0.143057
-0.0119163
0.144369
-0.0166139
0.144927
-0.0217088
0.144721
-0.0272395
0.14387
-0.0331968
0.142308
-0.0395396
0.139964
-0.0461953
0.136715
-0.0530615
0.132404
-0.0600268
0.12686
-0.0669523
0.119859
-0.0736741
0.111155
-0.079999
0.100486
-0.0856935
0.0875831
-0.0904777
0.0721981
-0.0940336
0.0541553
-0.0960147
0.0334271
-0.0960457
0.0102666
-0.0941652
-0.0141041
-0.0906074
-0.0387684
-0.0859057
-0.0626763
-0.080472
-0.086102
-0.0744845
-0.11009
-0.067959
-0.135782
-0.0609548
-0.163749
-0.05381
-0.193601
-0.0472527
-0.223869
-0.0423951
-0.252329
-0.274842
-0.000482607
0.138646
-0.00158485
0.144159
-0.00311488
0.145899
-0.00511738
0.146929
-0.00768709
0.147291
-0.0108637
0.147047
-0.0146329
0.146077
-0.018942
0.144273
-0.0237056
0.141479
-0.0288005
0.137498
-0.0341322
0.132191
-0.0395688
0.125295
-0.0449624
0.116549
-0.0501447
0.105669
-0.0549095
0.0923479
-0.0589948
0.0762835
-0.0621013
0.0572617
-0.0638985
0.0352243
-0.0638459
0.0102139
-0.0619981
-0.0159519
-0.0587208
-0.0420456
-0.054607
-0.0667901
-0.0500506
-0.0906584
-0.0451943
-0.114946
-0.0400189
-0.140957
-0.0345496
-0.169219
-0.0290748
-0.199076
-0.0242369
-0.228706
-0.0210617
-0.255505
-0.275493
0.00259683
0.136049
0.0044817
0.142274
0.00580877
0.144572
0.00653602
0.146202
0.00652083
0.147306
0.00572764
0.14784
0.00418332
0.147622
0.00195468
0.146502
-0.000881003
0.144315
-0.00415303
0.14077
-0.00777121
0.13581
-0.0116101
0.129134
-0.0155339
0.120473
-0.0193992
0.109534
-0.0230417
0.0959904
-0.0262384
0.0794802
-0.0287204
0.0597437
-0.0302111
0.036715
-0.0302676
0.0102704
-0.0285972
-0.0176223
-0.0259195
-0.0447233
-0.0226787
-0.070031
-0.0191706
-0.0941665
-0.0154861
-0.118631
-0.0115777
-0.144866
-0.00745043
-0.173346
-0.00344291
-0.203083
-9.78506e-05
-0.232052
0.00172601
-0.257328
-0.274989
0.00574924
0.1303
0.0106497
0.137374
0.014846
0.140376
0.0182913
0.142757
0.0207801
0.144817
0.0222999
0.14632
0.0229175
0.147004
0.0227379
0.146681
0.0218769
0.145176
0.0204363
0.142211
0.0185765
0.137669
0.0164167
0.131294
0.0140815
0.122808
0.0117002
0.111915
0.0094015
0.098289
0.00731225
0.0815695
0.00566262
0.0613933
0.00492305
0.0374546
0.00507409
0.0101193
0.00608395
-0.0186321
0.00764981
-0.0462891
0.00964485
-0.072026
0.011886
-0.0964076
0.0143386
-0.121083
0.0170395
-0.147567
0.0199214
-0.176228
0.0227098
-0.205872
0.0248518
-0.234194
0.0256435
-0.25812
-0.273752
0.00919378
0.121106
0.0169371
0.12963
0.0240334
0.133279
0.0301689
0.136621
0.0350507
0.139936
0.0387492
0.142622
0.0414063
0.144347
0.0431672
0.14492
0.0441714
0.144171
0.0445317
0.141851
0.0444013
0.1378
0.0439095
0.131786
0.0431783
0.123539
0.0423296
0.112764
0.041484
0.0991346
0.0407673
0.0822862
0.0403566
0.0618039
0.0403838
0.0374274
0.040498
0.010005
0.0408476
-0.0189817
0.0412737
-0.0467152
0.0418469
-0.0725993
0.0426941
-0.0972548
0.0439127
-0.122302
0.0455367
-0.149191
0.0474365
-0.178128
0.0492714
-0.207707
0.0504869
-0.235409
0.0504501
-0.258083
-0.271972
0.0133345
0.107772
0.0231818
0.119783
0.0334786
0.122982
0.0422502
0.12785
0.0493186
0.132867
0.0549843
0.136956
0.0594898
0.139841
0.0630249
0.141385
0.0657549
0.141441
0.0678064
0.139799
0.0693229
0.136283
0.0704339
0.130675
0.0712575
0.122715
0.071907
0.112114
0.0724895
0.0985521
0.073099
0.0816767
0.0737795
0.0611234
0.0743941
0.0368128
0.0747174
0.00968171
0.0744986
-0.0187629
0.0738932
-0.0461097
0.0731987
-0.0719047
0.0727969
-0.096853
0.0729567
-0.122462
0.0737309
-0.149965
0.0749031
-0.1793
0.0760273
-0.208831
0.0765167
-0.235899
0.0757925
-0.257359
-0.269713
0.20744
0.00588854
0.207015
0.0114087
0.206394
0.0166695
0.205588
0.0217576
0.204604
0.0267404
0.203448
0.0316739
0.202127
0.0366076
0.200647
0.0415851
0.199013
0.0466444
0.197231
0.0518197
0.195304
0.057142
0.19324
0.0626403
0.191041
0.0683422
0.188711
0.0742754
0.186255
0.0804684
0.183675
0.0869523
0.180971
0.0937624
0.178143
0.100941
0.17519
0.10854
0.172106
0.116626
0.168884
0.125288
0.165518
0.134643
0.161998
0.144857
0.158326
0.156159
0.154524
0.168887
0.150691
0.18354
0.14721
0.200871
0.145791
0.221723
0.157259
0.243472
0.255168
0.232568
0.212484
0.00608776
0.212098
0.0117939
0.211538
0.0172301
0.210811
0.0224845
0.209926
0.0276253
0.208891
0.032709
0.207713
0.0377855
0.2064
0.0428981
0.204959
0.0480851
0.203399
0.0533804
0.201726
0.0588149
0.199949
0.064417
0.198077
0.0702141
0.196119
0.0762332
0.194086
0.0825021
0.191987
0.0890509
0.189836
0.0959136
0.187646
0.10313
0.185437
0.110749
0.183232
0.118831
0.181067
0.127453
0.178997
0.136714
0.177112
0.146742
0.175574
0.157697
0.174691
0.16977
0.175097
0.183134
0.178175
0.197793
0.186473
0.213424
0.200898
0.229047
0.243688
0.212377
0.217651
0.00626423
0.21731
0.0121348
0.216815
0.0177252
0.216175
0.0231244
0.215399
0.0284013
0.214496
0.0336123
0.213474
0.0388073
0.212343
0.0440294
0.211112
0.0493163
0.209791
0.0547015
0.208391
0.0602149
0.206924
0.065884
0.205403
0.0717348
0.203843
0.0777927
0.202262
0.0840836
0.200678
0.0906348
0.199116
0.0974761
0.197604
0.104642
0.19618
0.112172
0.194896
0.120115
0.193823
0.128526
0.193064
0.137472
0.192779
0.147027
0.193212
0.157264
0.194747
0.168234
0.197954
0.179928
0.203532
0.192214
0.212019
0.204937
0.222914
0.218152
0.229431
0.237172
0.222945
0.0064159
0.222652
0.0124274
0.222229
0.0181489
0.221683
0.0236699
0.221025
0.0290592
0.220265
0.0343731
0.219411
0.039661
0.218475
0.0449653
0.217468
0.0503231
0.216403
0.0557665
0.215294
0.0613241
0.214156
0.0670218
0.213007
0.0728837
0.211867
0.0789324
0.210761
0.0851904
0.209715
0.0916807
0.208764
0.0984273
0.20795
0.105456
0.207326
0.112795
0.206965
0.120476
0.206961
0.128531
0.207442
0.13699
0.208589
0.145881
0.210644
0.15521
0.213922
0.164956
0.218798
0.175052
0.225652
0.18536
0.234958
0.195631
0.247511
0.2056
0.213098
0.263844
0.228368
0.00654084
0.228128
0.0126679
0.227781
0.0184959
0.227337
0.024114
0.226805
0.0295908
0.226196
0.0349818
0.225522
0.0403356
0.224793
0.0456939
0.224024
0.0510921
0.22323
0.056561
0.222426
0.0621274
0.221633
0.0678149
0.220872
0.0736448
0.220168
0.0796363
0.219551
0.0858077
0.219056
0.0921762
0.218724
0.0987586
0.218609
0.105571
0.218775
0.112629
0.219305
0.119947
0.220303
0.127532
0.221905
0.135389
0.224281
0.143504
0.227644
0.151847
0.232249
0.160352
0.238391
0.16891
0.246407
0.177343
0.256703
0.185335
0.269713
0.19259
0.198075
0.284736
0.233924
0.00663727
0.233739
0.0128531
0.233473
0.0187614
0.233137
0.0244506
0.232739
0.0299885
0.232291
0.0354297
0.231805
0.0408216
0.231295
0.0462044
0.230775
0.0516121
0.230262
0.0570735
0.229777
0.062613
0.22934
0.0682517
0.228977
0.0740074
0.228718
0.0798955
0.228597
0.0859291
0.228653
0.0921195
0.228937
0.0984755
0.229504
0.105004
0.230427
0.111707
0.231791
0.118582
0.233702
0.125621
0.236288
0.132803
0.239701
0.140091
0.244122
0.147426
0.249755
0.154719
0.256825
0.16184
0.265558
0.16861
0.276121
0.174772
0.288608
0.180103
0.184127
0.302556
0.239615
0.00670362
0.239488
0.0129798
0.239309
0.0189409
0.239085
0.0246741
0.238828
0.0302458
0.238548
0.0357094
0.238259
0.0411109
0.237975
0.0464885
0.237712
0.0518744
0.237491
0.0572953
0.237331
0.0627729
0.237257
0.0683252
0.237298
0.0739664
0.237486
0.0797077
0.237858
0.085557
0.238458
0.0915192
0.239338
0.0975958
0.240558
0.103784
0.242189
0.110075
0.244316
0.116456
0.247037
0.1229
0.250466
0.129374
0.254733
0.135824
0.259981
0.142178
0.26636
0.14834
0.274016
0.154184
0.283068
0.159558
0.29357
0.164271
0.305533
0.16814
0.170918
0.318741
0.245444
0.00673854
0.245379
0.0130454
0.245289
0.0190308
0.245183
0.0247799
0.245071
0.0303575
0.244965
0.0358152
0.244879
0.0411971
0.244828
0.0465398
0.244829
0.0518731
0.244903
0.0572211
0.245073
0.0626029
0.245365
0.0680332
0.245809
0.0735225
0.246439
0.0790777
0.247294
0.0847018
0.24842
0.0903936
0.249868
0.0961479
0.251698
0.101954
0.253978
0.107795
0.256785
0.113648
0.260209
0.119477
0.264343
0.125239
0.269292
0.130874
0.275162
0.136308
0.282054
0.141448
0.290053
0.146185
0.299218
0.150393
0.309558
0.15393
0.321041
0.156657
0.158445
0.333515
0.251415
0.00674092
0.251412
0.013048
0.251415
0.0190282
0.25143
0.0247644
0.251469
0.0303193
0.251541
0.0357425
0.251662
0.0410762
0.251847
0.0463545
0.252116
0.051605
0.252487
0.0568491
0.252987
0.0621032
0.253642
0.0673785
0.254482
0.0726822
0.255543
0.078017
0.256864
0.0833812
0.258488
0.0887687
0.260468
0.0941686
0.262857
0.0995643
0.26572
0.104933
0.269123
0.110244
0.273141
0.115459
0.277851
0.12053
0.283329
0.125396
0.289651
0.129987
0.296878
0.134221
0.305057
0.138006
0.314206
0.141244
0.324305
0.143831
0.335292
0.14567
0.146697
0.34704
0.25753
0.00670993
0.257592
0.0129858
0.257689
0.0189309
0.257829
0.024625
0.258019
0.0301286
0.258273
0.0354889
0.258603
0.0407458
0.259027
0.0459312
0.259562
0.0510699
0.26023
0.056181
0.261056
0.0612777
0.262065
0.0663686
0.263291
0.0714571
0.264765
0.0765425
0.266527
0.0816193
0.268618
0.0866773
0.271086
0.0917011
0.27398
0.0966702
0.277355
0.101558
0.281268
0.106331
0.285779
0.110949
0.290946
0.115363
0.296823
0.119519
0.303458
0.123352
0.310885
0.126794
0.319121
0.12977
0.328157
0.132207
0.337956
0.134033
0.348445
0.135181
0.135625
0.359517
0.263793
0.00664501
0.26392
0.0128578
0.264114
0.0187375
0.264379
0.0243603
0.264723
0.029784
0.265159
0.0350534
0.265699
0.0402059
0.266359
0.0452707
0.267158
0.0502706
0.268118
0.0552216
0.269261
0.0601345
0.270615
0.065015
0.272208
0.0698636
0.274074
0.0746766
0.276248
0.0794453
0.278769
0.0841567
0.281677
0.0887925
0.285018
0.0933298
0.288835
0.0977402
0.293176
0.10199
0.298085
0.10604
0.303604
0.109844
0.309768
0.113355
0.316604
0.116516
0.324124
0.119274
0.332325
0.12157
0.341182
0.12335
0.350649
0.124566
0.360652
0.125177
0.125175
0.371102
0.270206
0.00654591
0.2704
0.0126637
0.27069
0.0184475
0.271081
0.0239699
0.271579
0.0292857
0.272195
0.0344369
0.272943
0.0394583
0.273837
0.0443768
0.274895
0.0492125
0.276138
0.0539791
0.277587
0.058685
0.279269
0.0633331
0.281211
0.067922
0.283442
0.0724452
0.285995
0.0768921
0.288904
0.0812476
0.292205
0.085492
0.295933
0.0896016
0.300125
0.093548
0.304816
0.0972988
0.310038
0.100818
0.315818
0.104065
0.322175
0.106997
0.329121
0.109571
0.336651
0.111743
0.34475
0.11347
0.353384
0.114716
0.362503
0.115448
0.372037
0.115643
0.115304
0.381908
0.276774
0.00641266
0.277034
0.0124035
0.27742
0.0180614
0.277936
0.0234547
0.278586
0.0286351
0.279381
0.0336418
0.280332
0.038507
0.281454
0.0432551
0.282763
0.0479037
0.284278
0.0524645
0.286019
0.0569434
0.288011
0.0613417
0.290277
0.0656557
0.292845
0.0698775
0.295742
0.073995
0.298997
0.0779923
0.30264
0.0818493
0.306699
0.0855428
0.311201
0.0890458
0.316171
0.0923285
0.32163
0.0953587
0.327592
0.0981022
0.334065
0.100524
0.341047
0.102589
0.348525
0.104265
0.356474
0.105522
0.364855
0.106334
0.373619
0.106684
0.382701
0.106561
0.105974
0.392032
0.2835
0.00624557
0.283825
0.012078
0.284306
0.0175803
0.284945
0.0228166
0.285745
0.0278351
0.286714
0.0326724
0.287863
0.0373578
0.289205
0.0419134
0.290754
0.0463546
0.292527
0.050691
0.294544
0.0549268
0.296824
0.0590615
0.29939
0.0630903
0.302263
0.0670042
0.305467
0.0707906
0.309026
0.0744333
0.312962
0.0779131
0.317297
0.0812079
0.32205
0.0842934
0.327235
0.087143
0.332865
0.0897292
0.338943
0.0920237
0.345468
0.0939988
0.352429
0.0956282
0.359807
0.0968879
0.36757
0.0977581
0.375681
0.0982238
0.384089
0.0982761
0.392737
0.0979122
0.0971464
0.401565
0.290387
0.00604525
0.290776
0.0116882
0.291351
0.0170061
0.292109
0.0220583
0.293054
0.0268898
0.294192
0.0315341
0.295532
0.0360181
0.297084
0.0403613
0.298861
0.0445773
0.300879
0.0486739
0.303152
0.0526538
0.305698
0.0565154
0.308535
0.060253
0.311682
0.0638572
0.315157
0.0673154
0.318978
0.0706122
0.323162
0.0737297
0.327722
0.0766478
0.33267
0.079345
0.338015
0.0817987
0.343758
0.0839861
0.349897
0.0858847
0.356422
0.0874733
0.363318
0.0887327
0.370559
0.0896469
0.378113
0.0902035
0.385942
0.090395
0.393999
0.0902192
0.402232
0.0896791
0.088791
0.410587
0.297439
0.00581251
0.297891
0.011236
0.298555
0.0163414
0.29943
0.0211838
0.300515
0.0258044
0.301816
0.0302338
0.303337
0.0344965
0.305089
0.0386099
0.307081
0.0425855
0.309325
0.0464298
0.311834
0.0501444
0.314622
0.0537269
0.317704
0.0571711
0.321094
0.0604679
0.324804
0.0636052
0.328847
0.0665687
0.333235
0.0693423
0.337974
0.0719085
0.34307
0.0742487
0.348524
0.0763446
0.354333
0.0781776
0.360487
0.0797307
0.366972
0.0809884
0.373767
0.0819374
0.380846
0.0825679
0.388176
0.0828735
0.395719
0.0828521
0.403432
0.0825062
0.411269
0.0818422
0.0808777
0.419182
0.304659
0.00554841
0.305172
0.0107233
0.305924
0.0155896
0.30691
0.0201974
0.30813
0.0245848
0.309584
0.0287793
0.311278
0.0328029
0.313217
0.0366711
0.315408
0.0403938
0.317862
0.0439763
0.320587
0.0474192
0.323594
0.0507198
0.326893
0.053872
0.330494
0.056867
0.334406
0.0596938
0.338635
0.0623396
0.343187
0.0647903
0.348064
0.0670311
0.353266
0.0690466
0.358789
0.0708221
0.364623
0.0723436
0.370755
0.0735983
0.377168
0.0745756
0.383838
0.0752674
0.390737
0.0756683
0.397834
0.0757767
0.405092
0.0755942
0.412472
0.0751264
0.419932
0.074382
0.0733786
0.427431
0.312053
0.00525415
0.312623
0.0101526
0.313459
0.0147542
0.314552
0.0191044
0.315899
0.0232377
0.317499
0.0271789
0.319354
0.0309477
0.321468
0.0345577
0.323844
0.0380174
0.326489
0.041331
0.32941
0.0444987
0.332612
0.0475175
0.336102
0.0503818
0.339886
0.0530834
0.343967
0.0556126
0.348349
0.0579584
0.35303
0.0601087
0.35801
0.0620513
0.363283
0.0637741
0.368839
0.0652657
0.374667
0.0665158
0.38075
0.0675155
0.387067
0.0682583
0.393594
0.0687399
0.400304
0.0689586
0.407165
0.0689159
0.414143
0.0686161
0.421203
0.0680667
0.428307
0.0672778
0.0662663
0.435419
0.319623
0.00493108
0.320249
0.00952658
0.321164
0.0138393
0.322358
0.0179102
0.323825
0.0217703
0.325562
0.0254417
0.327568
0.0289419
0.329843
0.0322827
0.332389
0.0354714
0.335209
0.0385114
0.338305
0.0414027
0.34168
0.0441422
0.345337
0.0467249
0.349277
0.0491435
0.3535
0.0513898
0.358004
0.0534544
0.362785
0.0553274
0.367837
0.0569992
0.373151
0.0584604
0.378714
0.0597026
0.384511
0.0607187
0.390523
0.0615032
0.396729
0.0620525
0.403104
0.0623653
0.40962
0.0624428
0.416247
0.0622885
0.422955
0.0619084
0.42971
0.0613113
0.43648
0.0605076
0.0595134
0.443233
0.327374
0.00458058
0.328052
0.00884792
0.329043
0.012849
0.330332
0.0166205
0.331913
0.0201899
0.333778
0.0235767
0.335923
0.0267963
0.338347
0.0298589
0.341048
0.0327707
0.344025
0.0355344
0.347278
0.0381499
0.350805
0.0406145
0.354607
0.0429236
0.358679
0.0450711
0.363019
0.0470501
0.36762
0.0488529
0.372476
0.0504717
0.377576
0.0518992
0.382908
0.0531284
0.388457
0.0541535
0.394206
0.0549699
0.400134
0.0555749
0.40622
0.0559672
0.412437
0.0561477
0.418761
0.0561194
0.425162
0.0558872
0.431612
0.0554583
0.438082
0.0548417
0.444541
0.054048
0.0530919
0.450963
0.33531
0.00420406
0.336039
0.00811939
0.3371
0.0117876
0.33848
0.0152409
0.340166
0.0185037
0.34215
0.0215929
0.344425
0.0245215
0.346985
0.0272985
0.349826
0.0299291
0.352945
0.0324156
0.356338
0.0347576
0.359999
0.0369528
0.363925
0.0389975
0.36811
0.0408864
0.372546
0.0426141
0.377224
0.0441745
0.382134
0.0455616
0.387264
0.04677
0.392597
0.0477949
0.398118
0.0486326
0.403807
0.0492806
0.409644
0.049738
0.415606
0.0500054
0.421668
0.0500853
0.427806
0.0499817
0.433993
0.0497006
0.440202
0.0492493
0.446406
0.0486369
0.452581
0.0478735
0.0469728
0.4587
0.343437
0.00380281
0.344213
0.00734358
0.345341
0.0106589
0.346805
0.0137771
0.34859
0.0167189
0.350684
0.0194987
0.353078
0.0221277
0.355764
0.0246132
0.358733
0.0269597
0.36198
0.029169
0.365496
0.0312409
0.369276
0.0331733