/*--------------------------------*- C++ -*----------------------------------*\
  =========                 |
  \\      /  F ield         | OpenFOAM: The Open Source CFD Toolbox
   \\    /   O peration     | Website:  https://openfoam.org
    \\  /    A nd           | Version:  7
     \\/     M anipulation  |
\*---------------------------------------------------------------------------*/
FoamFile
{
    version     2.0;
    format      ascii;
    class       volVectorField;
    location    "0.6";
    object      U;
}
// * * * * * * * * * * * * * * * * * * * * * * * * * * * * * * * * * * * * * //

dimensions      [0 1 -1 0 0 0 0];

internalField   nonuniform List<vector> 
2790
(
(9.94381 0.020625 0)
(9.87498 0.0297823 0)
(9.77355 0.0362644 0)
(9.64658 0.0428991 0)
(9.49984 0.0497851 0)
(9.33429 0.0568732 0)
(9.14914 0.0642941 0)
(8.94355 0.0722104 0)
(8.71672 0.0807603 0)
(8.46772 0.0900681 0)
(8.1954 0.100257 0)
(7.89842 0.111454 0)
(7.57534 0.123784 0)
(7.22463 0.137365 0)
(6.84477 0.152303 0)
(6.43434 0.168673 0)
(5.99215 0.1865 0)
(5.51743 0.205731 0)
(5.0101 0.226198 0)
(4.47103 0.247565 0)
(3.90246 0.269263 0)
(3.30839 0.290403 0)
(2.69504 0.309631 0)
(2.07132 0.324824 0)
(1.44925 0.3323 0)
(0.843759 0.324362 0)
(0.289179 0.281492 0)
(-0.212111 0.0882655 0)
(-0.351604 -0.152967 0)
(-0.129734 -0.265343 0)
(9.99832 0.0410156 0)
(9.98072 0.0629685 0)
(9.93408 0.0799594 0)
(9.86129 0.0976399 0)
(9.76671 0.1163 0)
(9.65135 0.13579 0)
(9.51463 0.156368 0)
(9.35576 0.178389 0)
(9.17395 0.202164 0)
(8.96828 0.22797 0)
(8.73762 0.256072 0)
(8.48063 0.286729 0)
(8.19583 0.320178 0)
(7.88165 0.356614 0)
(7.53649 0.396155 0)
(7.15877 0.438801 0)
(6.74714 0.484366 0)
(6.30058 0.532398 0)
(5.8187 0.582075 0)
(5.30201 0.632084 0)
(4.75235 0.680481 0)
(4.17337 0.72453 0)
(3.5711 0.760497 0)
(2.95475 0.783326 0)
(2.33763 0.785909 0)
(1.73825 0.757197 0)
(1.1827 0.677704 0)
(0.695767 0.497797 0)
(0.327205 0.195519 0)
(0.0703508 -0.305764 0)
(9.99542 0.0437343 0)
(9.97483 0.0762532 0)
(9.93016 0.104716 0)
(9.86207 0.134068 0)
(9.77358 0.165027 0)
(9.66584 0.197577 0)
(9.53856 0.232075 0)
(9.39116 0.269026 0)
(9.223 0.308916 0)
(9.03335 0.352196 0)
(8.82125 0.399313 0)
(8.58555 0.450704 0)
(8.32496 0.506781 0)
(8.03805 0.567896 0)
(7.72332 0.634291 0)
(7.37922 0.706021 0)
(7.00428 0.782853 0)
(6.59722 0.864132 0)
(6.15714 0.948597 0)
(5.68379 1.03418 0)
(5.17792 1.11773 0)
(4.64175 1.19477 0)
(4.07949 1.25909 0)
(3.49802 1.30226 0)
(2.90748 1.31278 0)
(2.32129 1.27435 0)
(1.75463 1.16312 0)
(1.21782 0.943901 0)
(0.712578 0.607193 0)
(0.329393 0.127313 0)
(9.99385 0.0502339 0)
(9.97108 0.0945732 0)
(9.92624 0.135479 0)
(9.85943 0.176571 0)
(9.77275 0.219171 0)
(9.66729 0.263695 0)
(9.54301 0.310681 0)
(9.39952 0.3608 0)
(9.23637 0.414718 0)
(9.05301 0.473072 0)
(8.84875 0.536486 0)
(8.62276 0.605578 0)
(8.37407 0.680941 0)
(8.10161 0.763102 0)
(7.80423 0.852464 0)
(7.48073 0.949217 0)
(7.12989 1.05321 0)
(6.75056 1.16376 0)
(6.34173 1.27946 0)
(5.90271 1.39783 0)
(5.43335 1.515 0)
(4.93437 1.62531 0)
(4.40772 1.72079 0)
(3.85697 1.79064 0)
(3.28752 1.82051 0)
(2.70618 1.79164 0)
(2.11973 1.68053 0)
(1.53221 1.46146 0)
(0.92893 1.12958 0)
(0.425352 0.66724 0)
(9.99314 0.0581555 0)
(9.96922 0.112712 0)
(9.9243 0.16455 0)
(9.85865 0.216378 0)
(9.77381 0.269872 0)
(9.67066 0.325813 0)
(9.54924 0.384885 0)
(9.40923 0.447853 0)
(9.25028 0.515491 0)
(9.07193 0.588548 0)
(8.87363 0.667761 0)
(8.65472 0.753859 0)
(8.41445 0.847542 0)
(8.152 0.949446 0)
(7.86651 1.06009 0)
(7.55705 1.17975 0)
(7.2227 1.30839 0)
(6.86248 1.44537 0)
(6.47544 1.58929 0)
(6.06065 1.73757 0)
(5.61732 1.88607 0)
(5.14494 2.02859 0)
(4.64339 2.15635 0)
(4.11318 2.25744 0)
(3.55549 2.3164 0)
(2.97195 2.31418 0)
(2.36386 2.22898 0)
(1.7328 2.03956 0)
(1.05654 1.7411 0)
(0.474043 1.30746 0)
(9.99285 0.0666867 0)
(9.96851 0.130839 0)
(9.92394 0.193096 0)
(9.85973 0.25554 0)
(9.77712 0.319868 0)
(9.67677 0.387081 0)
(9.55871 0.457993 0)
(9.42272 0.533455 0)
(9.26846 0.614339 0)
(9.09557 0.701503 0)
(8.90354 0.795791 0)
(8.69182 0.898032 0)
(8.45974 1.00903 0)
(8.20663 1.1295 0)
(7.93173 1.26007 0)
(7.63427 1.40111 0)
(7.31342 1.55268 0)
(6.96827 1.71426 0)
(6.59782 1.88456 0)
(6.20089 2.06112 0)
(5.77615 2.23992 0)
(5.32203 2.41479 0)
(4.83673 2.57691 0)
(4.31831 2.7143 0)
(3.76474 2.8115 0)
(3.174 2.84977 0)
(2.54387 2.80837 0)
(1.87551 2.66713 0)
(1.14181 2.41932 0)
(0.503051 2.02406 0)
(9.9928 0.0754278 0)
(9.96855 0.148833 0)
(9.92476 0.221 0)
(9.86231 0.293652 0)
(9.78229 0.36842 0)
(9.68519 0.446457 0)
(9.57107 0.528722 0)
(9.43972 0.616168 0)
(9.29088 0.709763 0)
(9.1242 0.810463 0)
(8.93926 0.919206 0)
(8.73552 1.03691 0)
(8.51239 1.16446 0)
(8.26923 1.30268 0)
(8.00531 1.45225 0)
(7.71988 1.61368 0)
(7.41205 1.78712 0)
(7.08084 1.97225 0)
(6.72504 2.16799 0)
(6.34314 2.3722 0)
(5.93318 2.58124 0)
(5.49267 2.78946 0)
(5.01838 2.98864 0)
(4.50643 3.16737 0)
(3.95231 3.31079 0)
(3.35133 3.40058 0)
(2.69877 3.41605 0)
(1.99643 3.33578 0)
(1.21285 3.149 0)
(0.526246 2.79752 0)
(9.99289 0.0841441 0)
(9.9691 0.166504 0)
(9.92647 0.248097 0)
(9.86609 0.330501 0)
(9.78902 0.415284 0)
(9.69564 0.503705 0)
(9.58598 0.59685 0)
(9.4599 0.69577 0)
(9.31717 0.801519 0)
(9.1575 0.915144 0)
(8.9805 1.03767 0)
(8.78568 1.17011 0)
(8.57248 1.31343 0)
(8.34027 1.46856 0)
(8.08833 1.63629 0)
(7.81582 1.81724 0)
(7.52177 2.01176 0)
(7.205 2.21974 0)
(6.864 2.44045 0)
(6.49681 2.67222 0)
(6.10085 2.91206 0)
(5.67268 3.15518 0)
(5.2078 3.39434 0)
(4.70059 3.6193 0)
(4.14442 3.81613 0)
(3.53225 3.96697 0)
(2.85699 4.05045 0)
(2.12094 4.04214 0)
(1.28804 3.92494 0)
(0.551932 3.62101 0)
(9.99309 0.0926853 0)
(9.97002 0.183681 0)
(9.92888 0.274239 0)
(9.8709 0.365918 0)
(9.79711 0.460254 0)
(9.70786 0.558575 0)
(9.60317 0.662076 0)
(9.48293 0.771898 0)
(9.34698 0.889179 0)
(9.19506 1.01505 0)
(9.02683 1.15062 0)
(8.84184 1.29699 0)
(8.63959 1.45524 0)
(8.41944 1.62639 0)
(8.18066 1.81139 0)
(7.92236 2.01101 0)
(7.64344 2.22582 0)
(7.3425 2.45605 0)
(7.01772 2.7014 0)
(6.6667 2.96082 0)
(6.28619 3.2322 0)
(5.87184 3.51186 0)
(5.41793 3.79401 0)
(4.91716 4.06992 0)
(4.3607 4.32713 0)
(3.73888 4.54845 0)
(3.04142 4.71153 0)
(2.26986 4.78771 0)
(1.38229 4.75108 0)
(0.586737 4.5006 0)
(9.99336 0.100947 0)
(9.97122 0.200221 0)
(9.93185 0.299286 0)
(9.87655 0.399743 0)
(9.80638 0.503126 0)
(9.72165 0.610819 0)
(9.62239 0.724101 0)
(9.50853 0.844201 0)
(9.37995 0.972331 0)
(9.23646 1.1097 0)
(9.07777 1.25751 0)
(8.90349 1.41694 0)
(8.71316 1.58919 0)
(8.50618 1.77539 0)
(8.28182 1.97665 0)
(8.03915 2.19396 0)
(7.777 2.42816 0)
(7.49379 2.67987 0)
(7.18747 2.94934 0)
(6.85522 3.2363 0)
(6.49325 3.53968 0)
(6.0964 3.85725 0)
(5.65778 4.18498 0)
(5.16839 4.51629 0)
(4.61695 4.8408 0)
(3.99038 5.14278 0)
(3.27351 5.39939 0)
(2.46435 5.57731 0)
(1.51206 5.63922 0)
(0.638528 5.45462 0)
(9.99368 0.108854 0)
(9.97263 0.216006 0)
(9.93527 0.323104 0)
(9.88294 0.431823 0)
(9.81668 0.543715 0)
(9.73682 0.66021 0)
(9.64339 0.78266 0)
(9.53638 0.912366 0)
(9.41572 1.05061 0)
(9.28128 1.19868 0)
(9.13283 1.35785 0)
(8.97007 1.5294 0)
(8.79258 1.71461 0)
(8.59982 1.91478 0)
(8.39111 2.13116 0)
(8.16555 2.36498 0)
(7.92193 2.61741 0)
(7.65863 2.88952 0)
(7.37345 3.18219 0)
(7.06337 3.49604 0)
(6.7242 3.83123 0)
(6.35023 4.18721 0)
(5.93361 4.56222 0)
(5.46377 4.95246 0)
(4.92676 5.35077 0)
(4.30516 5.74443 0)
(3.57654 6.11202 0)
(2.73059 6.41694 0)
(1.70062 6.60861 0)
(0.719796 6.51638 0)
(9.99404 0.116347 0)
(9.97421 0.230938 0)
(9.93906 0.345577 0)
(9.88993 0.46202 0)
(9.82786 0.581855 0)
(9.75317 0.706549 0)
(9.66595 0.837514 0)
(9.56621 0.976116 0)
(9.45395 1.1237 0)
(9.32911 1.28161 0)
(9.19153 1.45121 0)
(9.041 1.63384 0)
(8.87717 1.8309 0)
(8.69962 2.0438 0)
(8.50774 2.27399 0)
(8.3007 2.52294 0)
(8.07739 2.79215 0)
(7.83625 3.08316 0)
(7.57512 3.39752 0)
(7.29099 3.73682 0)
(6.97964 4.10259 0)
(6.63517 4.49617 0)
(6.24926 4.91847 0)
(5.81027 5.36931 0)
(5.30188 5.84625 0)
(4.7019 6.34226 0)
(3.97823 6.84155 0)
(3.10538 7.3097 0)
(1.98654 7.68577 0)
(0.854336 7.74431 0)
(9.99444 0.123381 0)
(9.97593 0.244936 0)
(9.94315 0.366602 0)
(9.89743 0.490215 0)
(9.83978 0.617399 0)
(9.77054 0.749659 0)
(9.68983 0.888456 0)
(9.59772 1.03521 0)
(9.49428 1.19131 0)
(9.37951 1.35816 0)
(9.25334 1.53717 0)
(9.11565 1.72979 0)
(8.96623 1.93748 0)
(8.80474 2.16178 0)
(8.63074 2.4043 0)
(8.44354 2.66674 0)
(8.2422 2.95093 0)
(8.02538 3.25887 0)
(7.79118 3.59277 0)
(7.53688 3.95515 0)
(7.25864 4.34893 0)
(6.95095 4.77745 0)
(6.60586 5.24456 0)
(6.21174 5.7544 0)
(5.75128 6.31092 0)
(5.19879 6.91634 0)
(4.51211 7.56775 0)
(3.64359 8.24641 0)
(2.44074 8.90069 0)
(1.09386 9.24897 0)
(9.99486 0.12992 0)
(9.97775 0.257935 0)
(9.94749 0.386093 0)
(9.90535 0.516302 0)
(9.85231 0.650226 0)
(9.78875 0.789399 0)
(9.71482 0.93532 0)
(9.63064 1.08945 0)
(9.53635 1.25321 0)
(9.43203 1.42807 0)
(9.31772 1.61546 0)
(9.1934 1.8169 0)
(9.05897 2.03392 0)
(8.91428 2.26817 0)
(8.75904 2.52138 0)
(8.5928 2.79547 0)
(8.4149 3.09252 0)
(8.22432 3.41494 0)
(8.01964 3.76552 0)
(7.79875 4.14762 0)
(7.55864 4.56537 0)
(7.29491 5.02397 0)
(7.00107 5.53012 0)
(6.66735 6.09249 0)
(6.27837 6.72239 0)
(5.80949 7.43452 0)
(5.21463 8.24782 0)
(4.42647 9.18323 0)
(3.20521 10.2612 0)
(1.56466 11.2726 0)
(9.9953 0.135935 0)
(9.97966 0.269882 0)
(9.95203 0.403975 0)
(9.9136 0.540186 0)
(9.86533 0.68021 0)
(9.80763 0.825607 0)
(9.74068 0.977903 0)
(9.66467 1.13859 0)
(9.5798 1.30912 0)
(9.48624 1.49098 0)
(9.38413 1.68564 0)
(9.27357 1.89465 0)
(9.15461 2.11962 0)
(9.02728 2.36223 0)
(8.89149 2.62435 0)
(8.74709 2.908 0)
(8.59375 3.2155 0)
(8.43095 3.54953 0)
(8.25787 3.9133 0)
(8.07329 4.31079 0)
(7.87545 4.74703 0)
(7.66176 5.2286 0)
(7.42838 5.76439 0)
(7.16957 6.36671 0)
(6.87618 7.05331 0)
(6.53338 7.8511 0)
(6.11007 8.80425 0)
(5.55897 9.99412 0)
(4.59672 11.6264 0)
(2.62462 14.4391 0)
(-0.445284 0.532043 0)
(-1.27953 0.632343 0)
(-2.30754 0.626968 0)
(-3.35573 0.604379 0)
(-4.41544 0.574627 0)
(-5.47165 0.541196 0)
(-6.51286 0.505471 0)
(-7.52954 0.468154 0)
(-8.51342 0.429622 0)
(-9.45692 0.39005 0)
(-10.3526 0.349474 0)
(-11.193 0.307829 0)
(-11.9698 0.264991 0)
(-12.6744 0.220806 0)
(-13.2968 0.175117 0)
(-13.8264 0.127782 0)
(-14.252 0.0786854 0)
(-14.5615 0.0276813 0)
(-14.7423 -0.0255686 0)
(-14.7802 -0.0821457 0)
(-14.661 -0.144454 0)
(-14.3712 -0.212629 0)
(-13.8943 -0.288536 0)
(-13.21 -0.375995 0)
(-12.2887 -0.481239 0)
(-11.0804 -0.614467 0)
(-9.49664 -0.796862 0)
(-7.38745 -1.07826 0)
(-4.50094 -1.53921 0)
(0.571611 -2.17261 0)
(-0.618634 1.27393 0)
(-1.49064 1.40548 0)
(-2.5319 1.43006 0)
(-3.57102 1.42273 0)
(-4.61391 1.39357 0)
(-5.64824 1.34934 0)
(-6.66411 1.2941 0)
(-7.65297 1.23052 0)
(-8.60724 1.1603 0)
(-9.51986 1.08449 0)
(-10.3839 1.00355 0)
(-11.192 0.91756 0)
(-11.9364 0.826278 0)
(-12.6084 0.729305 0)
(-13.1983 0.626196 0)
(-13.6955 0.51658 0)
(-14.0888 0.400271 0)
(-14.3665 0.2773 0)
(-14.5165 0.147689 0)
(-14.5258 0.0109321 0)
(-14.3845 -0.13326 0)
(-14.0857 -0.282122 0)
(-13.6163 -0.437584 0)
(-12.9604 -0.605133 0)
(-12.0949 -0.79389 0)
(-10.9839 -1.01806 0)
(-9.56896 -1.30701 0)
(-7.75002 -1.72936 0)
(-5.36766 -2.37788 0)
(-2.45894 -3.11349 0)
(-0.640018 2.23365 0)
(-1.49369 2.36427 0)
(-2.50984 2.38252 0)
(-3.5005 2.35998 0)
(-4.48589 2.30462 0)
(-5.45701 2.22499 0)
(-6.40718 2.12703 0)
(-7.33014 2.01486 0)
(-8.22008 1.89124 0)
(-9.0713 1.75779 0)
(-9.87791 1.6152 0)
(-10.6335 1.4635 0)
(-11.3308 1.30226 0)
(-11.9616 1.13084 0)
(-12.5166 0.948588 0)
(-12.9852 0.755176 0)
(-13.3563 0.550759 0)
(-13.6184 0.336146 0)
(-13.7596 0.112751 0)
(-13.767 -0.117454 0)
(-13.6332 -0.353657 0)
(-13.3528 -0.597451 0)
(-12.916 -0.851145 0)
(-12.312 -1.12169 0)
(-11.525 -1.42069 0)
(-10.5323 -1.76495 0)
(-9.30237 -2.18224 0)
(-7.7822 -2.7227 0)
(-5.89503 -3.44231 0)
(-3.92577 -4.26217 0)
(-0.603172 3.19683 0)
(-1.40053 3.30162 0)
(-2.35909 3.29052 0)
(-3.27602 3.23798 0)
(-4.18401 3.14909 0)
(-5.07573 3.03266 0)
(-5.94767 2.89511 0)
(-6.79589 2.74114 0)
(-7.6163 2.5739 0)
(-8.40437 2.39513 0)
(-9.15491 2.20542 0)
(-9.86177 2.00449 0)
(-10.5177 1.79148 0)
(-11.114 1.56518 0)
(-11.6407 1.32439 0)
(-12.0868 1.06813 0)
(-12.4403 0.795982 0)
(-12.6892 0.50825 0)
(-12.8212 0.206104 0)
(-12.8238 -0.108406 0)
(-12.6925 -0.431876 0)
(-12.4253 -0.761628 0)
(-12.0167 -1.10089 0)
(-11.4608 -1.45852 0)
(-10.7483 -1.849 0)
(-9.86721 -2.29211 0)
(-8.80556 -2.81391 0)
(-7.54264 -3.4468 0)
(-6.05119 -4.21769 0)
(-4.6336 -5.05483 0)
(-0.541797 4.08758 0)
(-1.25794 4.16227 0)
(-2.13211 4.11796 0)
(-2.95639 4.03388 0)
(-3.77416 3.91292 0)
(-4.5777 3.76361 0)
(-5.3658 3.59195 0)
(-6.13609 3.40235 0)
(-6.88552 3.19755 0)
(-7.61014 2.97877 0)
(-8.30489 2.74591 0)
(-8.96337 2.49791 0)
(-9.57778 2.23311 0)
(-10.1388 1.94966 0)
(-10.6359 1.64591 0)
(-11.057 1.32087 0)
(-11.3897 0.974628 0)
(-11.6214 0.608812 0)
(-11.7399 0.226861 0)
(-11.733 -0.166126 0)
(-11.6005 -0.565583 0)
(-11.3431 -0.969024 0)
(-10.9592 -1.3793 0)
(-10.4479 -1.8062 0)
(-9.80549 -2.26565 0)
(-9.02814 -2.77804 0)
(-8.11719 -3.36542 0)
(-7.07428 -4.04578 0)
(-5.90102 -4.82512 0)
(-4.85299 -5.61741 0)
(-0.467853 4.87377 0)
(-1.08544 4.92516 0)
(-1.85593 4.85239 0)
(-2.57389 4.74095 0)
(-3.29176 4.59297 0)
(-4.00003 4.41696 0)
(-4.69912 4.21825 0)
(-5.38745 4.00062 0)
(-6.06249 3.76613 0)
(-6.72046 3.51523 0)
(-7.35618 3.24706 0)
(-7.96296 2.9598 0)
(-8.5326 2.65113 0)
(-9.05531 2.3186 0)
(-9.51988 1.96017 0)
(-9.91388 1.57459 0)
(-10.2241 1.16195 0)
(-10.4374 0.724353 0)
(-10.5407 0.26668 0)
(-10.5221 -0.203573 0)
(-10.3866 -0.678132 0)
(-10.1373 -1.15141 0)
(-9.77704 -1.62621 0)
(-9.30901 -2.11358 0)
(-8.73377 -2.63062 0)
(-8.05284 -3.19682 0)
(-7.27578 -3.82874 0)
(-6.41937 -4.53197 0)
(-5.5012 -5.29546 0)
(-4.72045 -6.01847 0)
(-0.386804 5.53881 0)
(-0.893043 5.57654 0)
(-1.54626 5.48276 0)
(-2.14777 5.35082 0)
(-2.7577 5.183 0)
(-3.36395 4.98792 0)
(-3.96838 4.77008 0)
(-4.5697 4.53243 0)
(-5.16554 4.27607 0)
(-5.75212 4.00048 0)
(-6.32413 3.70387 0)
(-6.8747 3.38353 0)
(-7.39536 3.0363 0)
(-7.87606 2.65907 0)
(-8.30521 2.2493 0)
(-8.66991 1.80556 0)
(-8.95627 1.32818 0)
(-9.14999 0.820428 0)
(-9.23696 0.289784 0)
(-9.20528 -0.252368 0)
(-9.06638 -0.794405 0)
(-8.82529 -1.32814 0)
(-8.48922 -1.85627 0)
(-8.06506 -2.39165 0)
(-7.55599 -2.95276 0)
(-6.96603 -3.55756 0)
(-6.30865 -4.21646 0)
(-5.61035 -4.92414 0)
(-4.89586 -5.65617 0)
(-4.32061 -6.30377 0)
(-0.301899 6.07185 0)
(-0.686897 6.10621 0)
(-1.21295 5.99969 0)
(-1.69007 5.8555 0)
(-2.18512 5.67636 0)
(-2.68298 5.47087 0)
(-3.18696 5.24247 0)
(-3.69572 4.99315 0)
(-4.20691 4.72291 0)
(-4.71665 4.43021 0)
(-5.21955 4.11231 0)
(-5.70874 3.76565 0)
(-6.17577 3.38626 0)
(-6.61055 2.97038 0)
(-7.00145 2.51496 0)
(-7.33536 2.01831 0)
(-7.59765 1.48084 0)
(-7.7723 0.906708 0)
(-7.84304 0.306276 0)
(-7.79767 -0.304254 0)
(-7.65559 -0.90875 0)
(-7.42324 -1.49516 0)
(-7.1126 -2.06658 0)
(-6.73355 -2.63887 0)
(-6.29034 -3.23274 0)
(-5.78703 -3.86443 0)
(-5.23747 -4.5379 0)
(-4.67405 -5.23757 0)
(-4.12119 -5.92896 0)
(-3.71251 -6.50245 0)
(-0.215282 6.46511 0)
(-0.470971 6.50672 0)
(-0.862657 6.39596 0)
(-1.20887 6.24852 0)
(-1.58319 6.06728 0)
(-1.9669 5.86063 0)
(-2.36504 5.63064 0)
(-2.77591 5.37821 0)
(-3.19706 5.1022 0)
(-3.62443 4.80007 0)
(-4.05265 4.46831 0)
(-4.47507 4.10249 0)
(-4.88355 3.69792 0)
(-5.26839 3.25011 0)
(-5.61832 2.75532 0)
(-5.92039 2.21138 0)
(-6.15928 1.61852 0)
(-6.3163 0.981551 0)
(-6.37125 0.314153 0)
(-6.31162 -0.361049 0)
(-6.16784 -1.02236 0)
(-5.94616 -1.65281 0)
(-5.66315 -2.25686 0)
(-5.33072 -2.85509 0)
(-4.95289 -3.47154 0)
(-4.53231 -4.12094 0)
(-4.08041 -4.80057 0)
(-3.63346 -5.48483 0)
(-3.20807 -6.13098 0)
(-2.93991 -6.63368 0)
(-0.128618 6.71313 0)
(-0.248054 6.77272 0)
(-0.500285 6.66614 0)
(-0.710185 6.52472 0)
(-0.959075 6.35098 0)
(-1.22382 6.15279 0)
(-1.51169 5.9304 0)
(-1.8202 5.68351 0)
(-2.14666 5.4098 0)
(-2.48659 5.10582 0)
(-2.83469 4.76764 0)
(-3.18474 4.39009 0)
(-3.52917 3.96781 0)
(-3.85909 3.49557 0)
(-4.16409 2.9688 0)
(-4.43201 2.38441 0)
(-4.6474 1.74199 0)
(-4.78818 1.04634 0)
(-4.82809 0.31429 0)
(-4.75536 -0.422792 0)
(-4.61423 -1.13498 0)
(-4.4083 -1.80009 0)
(-4.15712 -2.42603 0)
(-3.87325 -3.03992 0)
(-3.55964 -3.67021 0)
(-3.21733 -4.33038 0)
(-2.85382 -5.01076 0)
(-2.50863 -5.6762 0)
(-2.18402 -6.27606 0)
(-2.03612 -6.71116 0)
(-0.0437888 6.81296 0)
(-0.0206636 6.90069 0)
(-0.129972 6.80703 0)
(-0.198857 6.68093 0)
(-0.318953 6.52466 0)
(-0.46122 6.34465 0)
(-0.635849 6.13882 0)
(-0.839014 5.90554 0)
(-1.06758 5.64156 0)
(-1.31608 5.34341 0)
(-1.57916 5.00606 0)
(-1.85125 4.62398 0)
(-2.12541 4.1914 0)
(-2.39379 3.70244 0)
(-2.64747 3.15135 0)
(-2.87624 2.53355 0)
(-3.06604 1.8476 0)
(-3.19089 1.09838 0)
(-3.21413 0.306065 0)
(-3.12838 -0.488944 0)
(-3.00083 -1.24343 0)
(-2.82169 -1.93285 0)
(-2.61044 -2.57068 0)
(-2.37847 -3.19177 0)
(-2.12733 -3.8296 0)
(-1.85772 -4.49651 0)
(-1.57354 -5.17502 0)
(-1.31703 -5.82094 0)
(-1.07456 -6.37565 0)
(-1.02642 -6.74553 0)
(0.0394276 6.76381 0)
(0.20679 6.88502 0)
(0.246592 6.81503 0)
(0.318554 6.71359 0)
(0.330037 6.5861 0)
(0.311625 6.43526 0)
(0.251975 6.25651 0)
(0.156337 6.04678 0)
(0.0287981 5.80172 0)
(-0.127497 5.51298 0)
(-0.302575 5.18276 0)
(-0.4922 4.80255 0)
(-0.690021 4.36635 0)
(-0.889228 3.86808 0)
(-1.08262 3.3011 0)
(-1.26317 2.65901 0)
(-1.42076 1.93899 0)
(-1.52228 1.14557 0)
(-1.512 0.299254 0)
(-1.42551 -0.54933 0)
(-1.33079 -1.33736 0)
(-1.19645 -2.0431 0)
(-1.03779 -2.68612 0)
(-0.863313 -3.30934 0)
(-0.673451 -3.95122 0)
(-0.469952 -4.62294 0)
(-0.256035 -5.29936 0)
(-0.0738687 -5.92773 0)
(0.0968439 -6.4383 0)
(0.0703112 -6.74469 0)
(0.126322 6.56263 0)
(0.437579 6.72496 0)
(0.630131 6.68814 0)
(0.840077 6.62047 0)
(0.983234 6.53283 0)
(1.08507 6.42097 0)
(1.13729 6.27762 0)
(1.14662 6.09825 0)
(1.11887 5.87865 0)
(1.05837 5.61068 0)
(0.973246 5.29432 0)
(0.869533 4.92322 0)
(0.753214 4.49147 0)
(0.630378 3.99337 0)
(0.507224 3.42262 0)
(0.389043 2.77238 0)
(0.27759 2.03767 0)
(0.208083 1.21598 0)
(0.269285 0.314464 0)
(0.336385 -0.584755 0)
(0.381159 -1.40185 0)
(0.45278 -2.12256 0)
(0.545979 -2.77143 0)
(0.656968 -3.39806 0)
(0.786003 -4.04381 0)
(0.929932 -4.71702 0)
(1.08126 -5.38519 0)
(1.20392 -5.99216 0)
(1.31375 -6.46678 0)
(1.23836 -6.71998 0)
(0.224932 6.2018 0)
(0.67724 6.42428 0)
(1.02151 6.42546 0)
(1.36783 6.40292 0)
(1.64026 6.36876 0)
(1.85578 6.30687 0)
(2.01322 6.20718 0)
(2.1217 6.06448 0)
(2.1889 5.87485 0)
(2.22049 5.63129 0)
(2.22365 5.33227 0)
(2.20523 4.973 0)
(2.17137 4.54812 0)
(2.12794 4.05227 0)
(2.08079 3.47974 0)
(2.03511 2.82438 0)
(1.99315 2.08025 0)
(1.98165 1.24617 0)
(2.0382 0.344678 0)
(2.08163 -0.567204 0)
(2.08619 -1.40667 0)
(2.09282 -2.14564 0)
(2.11613 -2.8076 0)
(2.16205 -3.4442 0)
(2.23414 -4.09854 0)
(2.32804 -4.77711 0)
(2.43135 -5.44319 0)
(2.50894 -6.03421 0)
(2.57129 -6.47574 0)
(2.45624 -6.68334 0)
(0.343966 5.67515 0)
(0.932676 6.00926 0)
(1.41948 6.03792 0)
(1.90636 6.07208 0)
(2.30298 6.10512 0)
(2.62147 6.10323 0)
(2.87347 6.05429 0)
(3.07202 5.95364 0)
(3.22647 5.79809 0)
(3.34368 5.58234 0)
(3.4304 5.30411 0)
(3.49347 4.9597 0)
(3.53899 4.54448 0)
(3.57259 4.05351 0)
(3.59963 3.48153 0)
(3.62473 2.82295 0)
(3.65019 2.07186 0)
(3.686 1.23026 0)
(3.74246 0.324937 0)
(3.76837 -0.576159 0)
(3.73804 -1.40547 0)
(3.6884 -2.14272 0)
(3.6484 -2.81212 0)
(3.63667 -3.46178 0)
(3.66197 -4.12997 0)
(3.71802 -4.81713 0)
(3.7861 -5.48106 0)
(3.82918 -6.05537 0)
(3.85348 -6.46578 0)
(3.70275 -6.63389 0)
(9.99576 0.141502 0)
(9.98167 0.280937 0)
(9.9568 0.420511 0)
(9.92227 0.562243 0)
(9.87902 0.707854 0)
(9.82747 0.858923 0)
(9.76785 1.01699 0)
(9.70042 1.18356 0)
(9.62546 1.36011 0)
(9.54322 1.54813 0)
(9.45396 1.74912 0)
(9.35791 1.96462 0)
(9.25531 2.19627 0)
(9.14634 2.4458 0)
(9.03121 2.71512 0)
(8.91007 3.00632 0)
(8.78301 3.32183 0)
(8.65007 3.66449 0)
(8.51121 4.03772 0)
(8.3663 4.44577 0)
(8.21513 4.89412 0)
(8.05744 5.38994 0)
(7.89304 5.94304 0)
(7.72205 6.56715 0)
(7.54563 7.28248 0)
(7.36877 8.12025 0)
(7.20522 9.13233 0)
(7.14479 10.4088 0)
(7.58924 12.0889 0)
(7.78585 14.7354 0)
(9.99625 0.14663 0)
(9.98379 0.291107 0)
(9.96181 0.435683 0)
(9.93137 0.582414 0)
(9.89334 0.733039 0)
(9.84816 0.889145 0)
(9.79613 1.05228 0)
(9.73757 1.22395 0)
(9.67282 1.40564 0)
(9.60225 1.59883 0)
(9.52622 1.805 0)
(9.44512 2.02571 0)
(9.35934 2.26258 0)
(9.2693 2.51733 0)
(9.17548 2.79184 0)
(9.07835 3.08823 0)
(8.97846 3.40889 0)
(8.87647 3.75665 0)
(8.77312 4.13489 0)
(8.66944 4.54778 0)
(8.5668 5.00059 0)
(8.46733 5.50011 0)
(8.3744 6.05532 0)
(8.29383 6.67825 0)
(8.23622 7.38528 0)
(8.22277 8.19847 0)
(8.29114 9.14582 0)
(8.49443 10.2571 0)
(9.0968 11.4717 0)
(9.52674 12.4924 0)
(9.99676 0.151231 0)
(9.98599 0.300224 0)
(9.96702 0.449264 0)
(9.94081 0.600427 0)
(9.90818 0.755462 0)
(9.86958 0.915952 0)
(9.82537 1.08344 0)
(9.77592 1.25942 0)
(9.72165 1.44535 0)
(9.66302 1.64269 0)
(9.60051 1.8529 0)
(9.53464 2.0775 0)
(9.466 2.31805 0)
(9.39523 2.57623 0)
(9.32304 2.85386 0)
(9.25028 3.15293 0)
(9.17793 3.47573 0)
(9.10721 3.82487 0)
(9.03963 4.20347 0)
(8.9772 4.61521 0)
(8.92265 5.06464 0)
(8.87993 5.55727 0)
(8.85483 6.09986 0)
(8.85619 6.70047 0)
(8.89751 7.36799 0)
(8.99938 8.1103 0)
(9.19045 8.92813 0)
(9.47573 9.8089 0)
(9.97763 10.6998 0)
(10.561 11.3908 0)
(9.99729 0.155249 0)
(9.98826 0.308177 0)
(9.97239 0.461081 0)
(9.95052 0.616046 0)
(9.92342 0.774814 0)
(9.89156 0.938955 0)
(9.85534 1.10999 0)
(9.81517 1.2894 0)
(9.77156 1.47859 0)
(9.72505 1.67899 0)
(9.67623 1.89201 0)
(9.62576 2.11908 0)
(9.57439 2.3617 0)
(9.52295 2.62144 0)
(9.47243 2.89997 0)
(9.42397 3.19913 0)
(9.37895 3.52095 0)
(9.33905 3.86771 0)
(9.30641 4.24202 0)
(9.28375 4.64686 0)
(9.27472 5.08564 0)
(9.28421 5.56219 0)
(9.31892 6.08059 0)
(9.38799 6.64478 0)
(9.5035 7.25749 0)
(9.68065 7.91842 0)
(9.93986 8.62081 0)
(10.286 9.35104 0)
(10.783 10.1016 0)
(11.4804 10.7666 0)
(9.99782 0.158635 0)
(9.99057 0.31487 0)
(9.97786 0.470995 0)
(9.96041 0.629085 0)
(9.93894 0.790867 0)
(9.91392 0.957885 0)
(9.88578 1.13163 0)
(9.85499 1.31353 0)
(9.82213 1.50496 0)
(9.7878 1.70727 0)
(9.75271 1.9218 0)
(9.71762 2.14988 0)
(9.68343 2.3929 0)
(9.65116 2.65227 0)
(9.622 2.92949 0)
(9.59734 3.22614 0)
(9.57886 3.54392 0)
(9.56862 3.88468 0)
(9.56912 4.2504 0)
(9.58354 4.64322 0)
(9.61591 5.06531 0)
(9.67138 5.51884 0)
(9.75651 6.00558 0)
(9.87957 6.52648 0)
(10.0507 7.08088 0)
(10.2817 7.66563 0)
(10.5884 8.27387 0)
(10.9803 8.89314 0)
(11.4802 9.51574 0)
(12.1638 10.072 0)
(9.99836 0.161346 0)
(9.99291 0.320215 0)
(9.98339 0.478874 0)
(9.97042 0.639372 0)
(9.95462 0.803408 0)
(9.93647 0.972491 0)
(9.91644 1.14806 0)
(9.89505 1.3315 0)
(9.87291 1.5241 0)
(9.85071 1.72715 0)
(9.82922 1.94187 0)
(9.80932 2.16949 0)
(9.79201 2.41124 0)
(9.77846 2.66836 0)
(9.77001 2.94209 0)
(9.76824 3.23375 0)
(9.77503 3.54464 0)
(9.79263 3.87611 0)
(9.82376 4.2295 0)
(9.87172 4.60608 0)
(9.94055 5.00691 0)
(10.0352 5.43272 0)
(10.1616 5.88357 0)
(10.3267 6.35847 0)
(10.5389 6.85485 0)
(10.8071 7.36796 0)
(11.1418 7.8901 0)
(11.5502 8.4079 0)
(12.0338 8.90793 0)
(12.6654 9.35173 0)
(9.9989 0.163339 0)
(9.99526 0.32413 0)
(9.98894 0.484598 0)
(9.98044 0.646752 0)
(9.97031 0.81225 0)
(9.95901 0.982549 0)
(9.94705 1.15904 0)
(9.93497 1.34302 0)
(9.92343 1.53572 0)
(9.91317 1.73831 0)
(9.90501 1.95191 0)
(9.89992 2.17761 0)
(9.89898 2.41646 0)
(9.90344 2.66949 0)
(9.91475 2.9377 0)
(9.9346 3.22207 0)
(9.96495 3.52352 0)
(10.0081 3.8429 0)
(10.0668 4.18089 0)
(10.1443 4.53801 0)
(10.2443 4.91437 0)
(10.3713 5.30961 0)
(10.5303 5.72255 0)
(10.7269 6.15094 0)
(10.9674 6.59107 0)
(11.258 7.03727 0)
(11.6045 7.48157 0)
(12.0112 7.91234 0)
(12.4732 8.31744 0)
(13.0573 8.6783 0)
(9.99944 0.164579 0)
(9.9976 0.326545 0)
(9.99446 0.488064 0)
(9.9904 0.651091 0)
(9.98588 0.81723 0)
(9.98136 0.987878 0)
(9.97734 1.16435 0)
(9.9744 1.34788 0)
(9.97323 1.53959 0)
(9.97458 1.74054 0)
(9.97934 1.95173 0)
(9.9885 2.17409 0)
(10.0032 2.40848 0)
(10.0247 2.65572 0)
(10.0546 2.91654 0)
(10.0945 3.1916 0)
(10.1463 3.48142 0)
(10.2125 3.78639 0)
(10.2954 4.10664 0)
(10.3982 4.44202 0)
(10.5241 4.79194 0)
(10.6768 5.15521 0)
(10.8606 5.52987 0)
(11.0795 5.91297 0)
(11.338 6.3003 0)
(11.6398 6.6862 0)
(11.9882 7.0635 0)
(12.3853 7.4232 0)
(12.8246 7.75581 0)
(13.3653 8.05108 0)
(9.99998 0.165035 0)
(9.99991 0.327401 0)
(9.9999 0.489188 0)
(10.0002 0.652281 0)
(10.0012 0.818221 0)
(10.0033 0.988334 0)
(10.007 1.16386 0)
(10.013 1.34593 0)
(10.0218 1.53557 0)
(10.0344 1.73373 0)
(10.0515 1.94126 0)
(10.0742 2.15893 0)
(10.1036 2.38742 0)
(10.141 2.62732 0)
(10.188 2.8791 0)
(10.2461 3.14311 0)
(10.3172 3.41953 0)
(10.4035 3.70831 0)
(10.5073 4.00916 0)
(10.6311 4.3214 0)
(10.7778 4.64391 0)
(10.9504 4.97501 0)
(11.152 5.31229 0)
(11.3856 5.65253 0)
(11.654 5.99157 0)
(11.9596 6.32424 0)
(12.3035 6.64446 0)
(12.6865 6.94527 0)
(13.1019 7.21922 0)
(13.6015 7.45989 0)
(10.0005 0.164685 0)
(10.0022 0.326652 0)
(10.0052 0.487902 0)
(10.0098 0.650241 0)
(10.0161 0.815132 0)
(10.0247 0.983822 0)
(10.0359 1.15746 0)
(10.0504 1.33709 0)
(10.0688 1.52363 0)
(10.092 1.71789 0)
(10.1207 1.92058 0)
(10.1561 2.13231 0)
(10.1992 2.35359 0)
(10.2512 2.58477 0)
(10.3137 2.8261 0)
(10.388 3.07765 0)
(10.4761 3.33928 0)
(10.5796 3.61063 0)
(10.7007 3.89104 0)
(10.8415 4.17947 0)
(11.0044 4.47446 0)
(11.1915 4.77406 0)
(11.4052 5.0757 0)
(11.6474 5.37619 0)
(11.9198 5.67167 0)
(12.2235 5.95762 0)
(12.5586 6.229 0)
(12.9247 6.48036 0)
(13.3156 6.70605 0)
(13.7772 6.90188 0)
(10.001 0.163511 0)
(10.0043 0.324265 0)
(10.0104 0.484163 0)
(10.019 0.644917 0)
(10.0305 0.807907 0)
(10.0452 0.974293 0)
(10.0636 1.14514 0)
(10.0862 1.32136 0)
(10.1137 1.50379 0)
(10.1468 1.6931 0)
(10.1865 1.88986 0)
(10.2335 2.09453 0)
(10.2891 2.30743 0)
(10.3543 2.52873 0)
(10.4306 2.75846 0)
(10.5191 2.99646 0)
(10.6216 3.24233 0)
(10.7396 3.49546 0)
(10.8748 3.75494 0)
(11.0289 4.0195 0)
(11.2036 4.2875 0)
(11.4008 4.55689 0)
(11.6217 4.82513 0)
(11.8677 5.08923 0)
(12.1395 5.34576 0)
(12.4373 5.59087 0)
(12.7607 5.82046 0)
(13.1085 6.03034 0)
(13.4754 6.21629 0)
(13.902 6.37554 0)
(10.0015 0.161502 0)
(10.0064 0.320222 0)
(10.0153 0.477946 0)
(10.0279 0.636285 0)
(10.0443 0.796529 0)
(10.0649 0.959746 0)
(10.09 1.1269 0)
(10.1202 1.29881 0)
(10.1562 1.47618 0)
(10.1986 1.65957 0)
(10.2482 1.84942 0)
(10.3059 2.04603 0)
(10.3727 2.24956 0)
(10.4496 2.46003 0)
(10.5378 2.67726 0)
(10.6385 2.90092 0)
(10.7531 3.13042 0)
(10.8828 3.36497 0)
(11.0289 3.60348 0)
(11.1929 3.84459 0)
(11.376 4.08659 0)
(11.5792 4.32745 0)
(11.8035 4.56479 0)
(12.0495 4.79592 0)
(12.3172 5.01786 0)
(12.6065 5.22742 0)
(12.9164 5.42133 0)
(13.2455 5.59637 0)
(13.5889 5.74944 0)
(13.9835 5.87867 0)
(10.0019 0.158657 0)
(10.0084 0.314519 0)
(10.02 0.469251 0)
(10.0363 0.624354 0)
(10.0574 0.781022 0)
(10.0834 0.940229 0)
(10.1148 1.10284 0)
(10.1522 1.26957 0)
(10.1959 1.441 0)
(10.2468 1.61759 0)
(10.3054 1.79965 0)
(10.3726 1.98735 0)
(10.4493 2.1807 0)
(10.5364 2.37958 0)
(10.6349 2.58368 0)
(10.7457 2.79249 0)
(10.87 3.00534 0)
(11.0089 3.22128 0)
(11.1633 3.43918 0)
(11.3341 3.65761 0)
(11.5223 3.87492 0)
(11.7284 4.08917 0)
(11.953 4.29822 0)
(12.196 4.4997 0)
(12.4573 4.69109 0)
(12.7362 4.8698 0)
(13.0315 5.03323 0)
(13.3419 5.17894 0)
(13.663 5.30466 0)
(14.0281 5.40913 0)
(10.0024 0.15498 0)
(10.0103 0.307166 0)
(10.0244 0.458096 0)
(10.0442 0.609158 0)
(10.0696 0.761445 0)
(10.1007 0.915834 0)
(10.138 1.07309 0)
(10.1818 1.23383 0)
(10.2327 1.39853 0)
(10.2911 1.56754 0)
(10.3578 1.74105 0)
(10.4334 1.91912 0)
(10.5187 2.10165 0)
(10.6144 2.2884 0)
(10.7214 2.47894 0)
(10.8405 2.67269 0)
(10.9725 2.86886 0)
(11.1181 3.06648 0)
(11.2782 3.26438 0)
(11.4533 3.46117 0)
(11.644 3.65529 0)
(11.8504 3.84498 0)
(12.0727 4.02833 0)
(12.3107 4.20331 0)
(12.5637 4.36783 0)
(12.8311 4.5198 0)
(13.1114 4.65719 0)
(13.4034 4.77817 0)
(13.7032 4.88107 0)
(14.0411 4.96507 0)
(10.0028 0.150481 0)
(10.012 0.298186 0)
(10.0285 0.444523 0)
(10.0515 0.59076 0)
(10.0809 0.737891 0)
(10.1167 0.886697 0)
(10.1593 1.03784 0)
(10.209 1.19186 0)
(10.2663 1.34911 0)
(10.3315 1.50985 0)
(10.4052 1.67418 0)
(10.4881 1.84205 0)
(10.5806 2.01329 0)
(10.6835 2.18754 0)
(10.7974 2.36433 0)
(10.9229 2.54299 0)
(11.0606 2.72271 0)
(11.211 2.90251 0)
(11.3746 3.08124 0)
(11.5518 3.25761 0)
(11.7427 3.43016 0)
(11.9474 3.59734 0)
(12.1655 3.75749 0)
(12.3968 3.9089 0)
(12.6405 4.04985 0)
(12.8956 4.17869 0)
(13.1609 4.29385 0)
(13.435 4.39395 0)
(13.7148 4.47778 0)
(14.0276 4.54484 0)
(10.0032 0.145178 0)
(10.0137 0.287617 0)
(10.0322 0.42859 0)
(10.0582 0.569249 0)
(10.0913 0.710486 0)
(10.1314 0.852989 0)
(10.1787 0.997331 0)
(10.2337 1.14394 0)
(10.2965 1.29312 0)
(10.3677 1.44501 0)
(10.4475 1.59964 0)
(10.5364 1.75689 0)
(10.635 1.9165 0)
(10.7437 2.07807 0)
(10.863 2.24107 0)
(10.9932 2.40481 0)
(11.1349 2.56849 0)
(11.2883 2.73114 0)
(11.4536 2.89169 0)
(11.631 3.04893 0)
(11.8204 3.20158 0)
(12.0216 3.34827 0)
(12.2343 3.48759 0)
(12.4578 3.61811 0)
(12.6913 3.73847 0)
(12.9339 3.84733 0)
(13.1844 3.94352 0)
(13.4414 4.026 0)
(13.7023 4.09391 0)
(13.992 4.14696 0)
(10.0035 0.139095 0)
(10.0151 0.275505 0)
(10.0357 0.410374 0)
(10.0643 0.544735 0)
(10.1007 0.679382 0)
(10.1446 0.814911 0)
(10.1962 0.951812 0)
(10.2558 1.09043 0)
(10.3235 1.23098 0)
(10.3997 1.37354 0)
(10.4846 1.51807 0)
(10.5787 1.66438 0)
(10.6821 1.81218 0)
(10.7953 1.96103 0)
(10.9186 2.11037 0)
(11.0521 2.25952 0)
(11.1963 2.4077 0)
(11.3511 2.554 0)
(11.5165 2.69743 0)
(11.6927 2.83691 0)
(11.8792 2.9713 0)
(12.0758 3.09943 0)
(12.2819 3.22013 0)
(12.4969 3.33222 0)
(12.72 3.43459 0)
(12.9501 3.52624 0)
(13.1861 3.60625 0)
(13.4269 3.67388 0)
(13.6701 3.72852 0)
(13.9385 3.77003 0)
(10.0038 0.132258 0)
(10.0164 0.261908 0)
(10.0387 0.389964 0)
(10.0698 0.517345 0)
(10.1091 0.64475 0)
(10.1563 0.772691 0)
(10.2117 0.901576 0)
(10.2753 1.03168 0)
(10.3472 1.16314 0)
(10.4276 1.29598 0)
(10.5168 1.43011 0)
(10.6149 1.5653 0)
(10.7221 1.70122 0)
(10.8387 1.83742 0)
(10.9647 1.97334 0)
(11.1003 2.10835 0)
(11.2456 2.24167 0)
(11.4005 2.37249 0)
(11.5649 2.49991 0)