/*--------------------------------*- C++ -*----------------------------------*\
  =========                 |
  \\      /  F ield         | OpenFOAM: The Open Source CFD Toolbox
   \\    /   O peration     | Website:  https://openfoam.org
    \\  /    A nd           | Version:  7
     \\/     M anipulation  |
\*---------------------------------------------------------------------------*/
FoamFile
{
    version     2.0;
    format      ascii;
    class       surfaceVectorField;
    location    "0.6";
    object      Uf;
}
// * * * * * * * * * * * * * * * * * * * * * * * * * * * * * * * * * * * * * //

dimensions      [0 1 -1 0 0 0 0];

internalField   nonuniform List<vector> 
5457
(
(9.92045 0.0252583 0)
(9.97107 0.038957 0)
(9.8228 0.0330621 0)
(9.92785 0.0489765 0)
(9.70734 0.0396214 0)
(9.85381 0.0593155 0)
(9.57187 0.0463832 0)
(9.75394 0.0712718 0)
(9.41635 0.0533715 0)
(9.63328 0.0837999 0)
(9.24094 0.060628 0)
(9.49282 0.0968078 0)
(9.04537 0.0682996 0)
(9.33189 0.110545 0)
(8.829 0.0765365 0)
(9.14965 0.125257 0)
(8.59095 0.0854698 0)
(8.94533 0.141144 0)
(8.33012 0.0952236 0)
(8.718 0.158387 0)
(8.04527 0.105923 0)
(8.46651 0.177162 0)
(7.73499 0.117693 0)
(8.18952 0.197644 0)
(7.39779 0.130656 0)
(7.88559 0.219989 0)
(7.03213 0.144923 0)
(7.55314 0.244326 0)
(6.63652 0.160586 0)
(7.19063 0.270733 0)
(6.20963 0.177693 0)
(6.79656 0.299205 0)
(5.75046 0.19623 0)
(6.36964 0.329612 0)
(5.25857 0.216087 0)
(5.90901 0.361646 0)
(4.73433 0.237009 0)
(5.4144 0.394749 0)
(4.17931 0.258543 0)
(4.88652 0.428038 0)
(3.59666 0.279959 0)
(4.32741 0.460212 0)
(2.99163 0.300132 0)
(3.74088 0.489458 0)
(2.37206 0.317318 0)
(3.13307 0.513336 0)
(1.74913 0.328607 0)
(2.51303 0.528606 0)
(1.13841 0.328283 0)
(1.89344 0.530791 0)
(0.562243 0.302671 0)
(1.291 0.512862 0)
(0.056566 0.183724 0)
(0.73594 0.461009 0)
(-0.254273 -0.0337923 0)
(0.241828 0.290236 0)
(-0.278431 -0.209827 0)
(-0.0121995 0.0231026 0)
(-0.0296917 -0.272706 0)
(9.99598 0.0521233 0)
(9.99687 0.0409273 0)
(9.95757 0.0715655 0)
(9.97777 0.0682398 0)
(9.89596 0.0889053 0)
(9.93212 0.0909668 0)
(9.81301 0.107082 0)
(9.86168 0.114914 0)
(9.70854 0.126162 0)
(9.77015 0.14009 0)
(9.58246 0.146202 0)
(9.6586 0.166391 0)
(9.43446 0.16751 0)
(9.5266 0.194198 0)
(9.26395 0.190419 0)
(9.37346 0.223969 0)
(9.07006 0.215221 0)
(9.19847 0.256103 0)
(8.85173 0.242189 0)
(9.00082 0.290971 0)
(8.60769 0.271584 0)
(8.77943 0.328937 0)
(8.33655 0.303654 0)
(8.53309 0.370358 0)
(8.03676 0.338614 0)
(8.2604 0.415567 0)
(7.70674 0.376621 0)
(7.95985 0.464844 0)
(7.34487 0.417733 0)
(7.6299 0.518374 0)
(6.94968 0.461856 0)
(7.26899 0.576187 0)
(6.51998 0.508669 0)
(6.87571 0.638073 0)
(6.05505 0.557533 0)
(6.4489 0.703469 0)
(5.55495 0.607378 0)
(5.98792 0.771323 0)
(5.02088 0.656572 0)
(5.4929 0.839918 0)
(4.45564 0.702769 0)
(4.96514 0.906676 0)
(3.86419 0.742728 0)
(4.40756 0.967928 0)
(3.25435 0.772048 0)
(3.8253 1.01862 0)
(2.63775 0.784633 0)
(3.22638 1.05184 0)
(2.03134 0.771381 0)
(2.62256 1.05783 0)
(1.45992 0.716975 0)
(2.02977 1.0215 0)
(0.960026 0.586676 0)
(1.46867 0.91675 0)
(0.52307 0.344852 0)
(0.956791 0.698231 0)
(0.164003 -0.0581178 0)
(0.519892 0.36648 0)
(0.199872 -0.112075 0)
(9.9886 0.0601881 0)
(9.99464 0.0465083 0)
(9.95314 0.0906547 0)
(9.97296 0.086028 0)
(9.89504 0.119567 0)
(9.9282 0.120812 0)
(9.81694 0.149732 0)
(9.86075 0.156005 0)
(9.71919 0.181497 0)
(9.77316 0.19276 0)
(9.60168 0.215032 0)
(9.66656 0.231243 0)
(9.46418 0.250771 0)
(9.54079 0.27192 0)
(9.30624 0.289209 0)
(9.39534 0.3154 0)
(9.1272 0.330815 0)
(9.22969 0.362262 0)
(8.92616 0.376036 0)
(9.04318 0.413051 0)
(8.70207 0.425315 0)
(8.835 0.468308 0)
(8.4537 0.479077 0)
(8.60416 0.528567 0)
(8.17968 0.537704 0)
(8.34951 0.594334 0)
(7.87855 0.60149 0)
(8.06983 0.666056 0)
(7.54876 0.670584 0)
(7.76377 0.744062 0)
(7.1888 0.744896 0)
(7.42997 0.828479 0)
(6.79729 0.823978 0)
(7.06709 0.919118 0)
(6.37313 0.906869 0)
(6.67389 1.01531 0)
(5.91577 0.991898 0)
(6.24943 1.11572 0)
(5.42547 1.07645 0)
(5.79325 1.21804 0)
(4.90377 1.15671 0)
(5.30564 1.31875 0)
(4.35399 1.22731 0)
(4.78806 1.41268 0)
(3.78187 1.28093 0)
(4.2436 1.49265 0)
(3.19625 1.30758 0)
(3.67749 1.54878 0)
(2.60961 1.29334 0)
(3.0975 1.56769 0)
(2.03725 1.21807 0)
(2.51373 1.53098 0)
(1.49179 1.0522 0)
(1.93718 1.41402 0)
(0.968369 0.773535 0)
(1.37501 1.18696 0)
(0.473274 0.364386 0)
(0.820754 0.839942 0)
(0.377372 0.351468 0)
(9.98473 0.0726685 0)
(9.99349 0.0539864 0)
(9.94919 0.11527 0)
(9.97015 0.103851 0)
(9.89212 0.15627 0)
(9.92527 0.150131 0)
(9.81531 0.198125 0)
(9.85904 0.196419 0)
(9.71946 0.241699 0)
(9.77328 0.244405 0)
(9.60461 0.287468 0)
(9.66897 0.294631 0)
(9.47059 0.33604 0)
(9.54612 0.347673 0)
(9.31711 0.388081 0)
(9.40438 0.404247 0)
(9.14372 0.444244 0)
(9.24332 0.46507 0)
(8.94976 0.505158 0)
(9.06247 0.530832 0)
(8.73446 0.571445 0)
(8.86119 0.602212 0)
(8.49691 0.64371 0)
(8.63874 0.679883 0)
(8.23609 0.722513 0)
(8.39426 0.764491 0)
(7.9509 0.808317 0)
(8.1268 0.85662 0)
(7.64014 0.901419 0)
(7.83537 0.956728 0)
(7.3026 1.00183 0)
(7.51889 1.06506 0)
(6.9371 1.10915 0)
(7.1763 1.18149 0)
(6.54255 1.2223 0)
(6.80652 1.30539 0)
(6.11812 1.33935 0)
(6.40858 1.43532 0)
(5.66341 1.45712 0)
(5.98168 1.56872 0)
(5.17876 1.57081 0)
(5.52534 1.70156 0)
(4.66558 1.67362 0)
(5.03965 1.82783 0)
(4.12679 1.75613 0)
(4.52555 1.93906 0)
(3.56708 1.80575 0)
(3.98507 2.02375 0)
(2.99277 1.8059 0)
(3.4215 2.06682 0)
(2.4105 1.73542 0)
(2.83906 2.04928 0)
(1.82408 1.56969 0)
(2.2418 1.94864 0)
(1.23028 1.29354 0)
(1.6325 1.7414 0)
(0.623081 0.895646 0)
(0.992733 1.42061 0)
(0.449698 0.961737 0)
(9.98295 0.0857598 0)
(9.99299 0.0623367 0)
(9.94702 0.138941 0)
(9.96886 0.121873 0)
(9.89091 0.190774 0)
(9.92412 0.178955 0)
(9.81556 0.243445 0)
(9.85919 0.236062 0)
(9.72168 0.298177 0)
(9.77547 0.294989 0)
(9.60939 0.355702 0)
(9.67372 0.356604 0)
(9.47855 0.416745 0)
(9.55397 0.421627 0)
(9.32893 0.482076 0)
(9.41597 0.490866 0)
(9.16014 0.552456 0)
(9.25937 0.565149 0)
(8.97167 0.628628 0)
(9.08375 0.645281 0)
(8.76289 0.711325 0)
(8.88859 0.732056 0)
(8.53311 0.80126 0)
(8.67327 0.826251 0)
(8.28153 0.899103 0)
(8.4371 0.92862 0)
(8.00731 1.00543 0)
(8.17931 1.03985 0)
(7.70956 1.12063 0)
(7.89912 1.16049 0)
(7.38735 1.24484 0)
(7.59566 1.29089 0)
(7.03973 1.3777 0)
(7.26806 1.43104 0)
(6.66573 1.51819 0)
(6.91538 1.58036 0)
(6.26443 1.66432 0)
(6.53663 1.73749 0)
(5.835 1.81271 0)
(6.13077 1.8999 0)
(5.37681 1.95818 0)
(5.69674 2.06346 0)
(4.88961 2.09323 0)
(5.23348 2.22196 0)
(4.37367 2.2075 0)
(4.74006 2.36653 0)
(3.8299 2.28727 0)
(4.21574 2.48518 0)
(3.25965 2.31528 0)
(3.66012 2.56243 0)
(2.66406 2.27107 0)
(3.07298 2.57944 0)
(2.04275 2.13314 0)
(2.45387 2.51507 0)
(1.39245 1.88855 0)
(1.80415 2.3486 0)
(0.709311 1.52169 0)
(1.09917 2.0739 0)
(0.488547 1.65646 0)
(9.98222 0.0991462 0)
(9.99282 0.0710437 0)
(9.94625 0.16234 0)
(9.96853 0.139912 0)
(9.89132 0.224691 0)
(9.92435 0.207176 0)
(9.81785 0.288088 0)
(9.86102 0.274717 0)
(9.72641 0.353876 0)
(9.77971 0.34426 0)
(9.61717 0.422961 0)
(9.68098 0.416893 0)
(9.49003 0.496175 0)
(9.56489 0.493492 0)
(9.34477 0.57438 0)
(9.43122 0.574958 0)
(9.18106 0.658442 0)
(9.27967 0.662214 0)
(8.99845 0.74921 0)
(9.10989 0.756169 0)
(8.79642 0.847523 0)
(8.9214 0.857711 0)
(8.57434 0.954192 0)
(8.71367 0.967714 0)
(8.33154 1.06998 0)
(8.48607 1.08702 0)
(8.06731 1.19556 0)
(8.23793 1.2164 0)
(7.78089 1.33143 0)
(7.96852 1.3565 0)
(7.47148 1.4778 0)
(7.67707 1.50776 0)
(7.1382 1.63443 0)
(7.36274 1.67028 0)
(6.78012 1.80043 0)
(7.02456 1.84363 0)
(6.39615 1.9739 0)
(6.66143 2.02662 0)
(5.98505 2.15159 0)
(6.27202 2.21694 0)
(5.54539 2.3284 0)
(5.85467 2.41074 0)
(5.07551 2.49682 0)
(5.40735 2.60208 0)
(4.57355 2.64643 0)
(4.92756 2.78243 0)
(4.0375 2.76348 0)
(4.41237 2.94007 0)
(3.46517 2.83087 0)
(3.85852 3.05985 0)
(2.85419 2.82883 0)
(3.26266 3.1233 0)
(2.20191 2.73691 0)
(2.62132 3.10973 0)
(1.50592 2.54175 0)
(1.93597 2.99846 0)
(0.766652 2.21933 0)
(1.17733 2.78087 0)
(0.514649 2.40735 0)
(9.98209 0.112569 0)
(9.99285 0.0798163 0)
(9.94653 0.185348 0)
(9.96883 0.157746 0)
(9.89301 0.25776 0)
(9.92562 0.234667 0)
(9.82177 0.331483 0)
(9.8642 0.312199 0)
(9.73322 0.407905 0)
(9.78565 0.391973 0)
(9.62755 0.488081 0)
(9.69042 0.475211 0)
(9.5047 0.572968 0)
(9.57852 0.562932 0)
(9.36448 0.663525 0)
(9.44981 0.656134 0)
(9.20659 0.760715 0)
(9.30403 0.755828 0)
(9.03064 0.865484 0)
(9.14085 0.863015 0)
(8.83615 0.978762 0)
(8.95988 0.978676 0)
(8.62254 1.10145 0)
(8.7606 1.10378 0)
(8.38921 1.2344 0)
(8.54244 1.23924 0)
(8.13547 1.37836 0)
(8.30475 1.38594 0)
(7.86059 1.53393 0)
(8.04682 1.54462 0)
(7.56373 1.70144 0)
(7.76785 1.71582 0)
(7.24399 1.88079 0)
(7.46691 1.8998 0)
(6.90026 2.07129 0)
(7.14292 2.09634 0)
(6.5312 2.27131 0)
(6.79452 2.30452 0)
(6.13509 2.47797 0)
(6.41997 2.52243 0)
(5.70969 2.68659 0)
(6.01702 2.74674 0)
(5.25215 2.89024 0)
(5.58267 2.97222 0)
(4.75889 3.07907 0)
(5.11309 3.19112 0)
(4.22562 3.23994 0)
(4.60351 3.3926 0)
(3.64754 3.35622 0)
(4.04836 3.56227 0)
(3.01983 3.40841 0)
(3.44179 3.68204 0)
(2.33848 3.37543 0)
(2.77788 3.73089 0)
(1.60214 3.24127 0)
(2.05869 3.68599 0)
(0.815079 2.97116 0)
(1.25044 3.53354 0)
(0.539089 3.20567 0)
(9.98232 0.125816 0)
(9.99299 0.0884744 0)
(9.94756 0.207788 0)
(9.96956 0.175178 0)
(9.89575 0.289791 0)
(9.92768 0.261284 0)
(9.82706 0.373399 0)
(9.8685 0.348336 0)
(9.74183 0.460022 0)
(9.79306 0.4379 0)
(9.64023 0.550834 0)
(9.70175 0.531282 0)
(9.52225 0.646901 0)
(9.59457 0.629621 0)
(9.38773 0.749277 0)
(9.47141 0.734012 0)
(9.2364 0.85901 0)
(9.33208 0.845548 0)
(9.06793 0.977139 0)
(9.17628 0.965319 0)
(8.88188 1.10468 0)
(9.00366 1.09439 0)
(8.67771 1.24263 0)
(8.81376 1.23383 0)
(8.45483 1.39192 0)
(8.60604 1.38464 0)
(8.21258 1.55342 0)
(8.37986 1.54781 0)
(7.95016 1.72785 0)
(8.1345 1.7242 0)
(7.66669 1.91566 0)
(7.86909 1.9145 0)
(7.36109 2.11699 0)
(7.5826 2.11918 0)
(7.03203 2.33142 0)
(7.27375 2.33828 0)
(6.67777 2.55772 0)
(6.94086 2.57128 0)
(6.29606 2.79358 0)
(6.58176 2.81681 0)
(5.88387 3.03507 0)
(6.19352 3.07232 0)
(5.43722 3.27619 0)
(5.77226 3.33355 0)
(4.95101 3.50816 0)
(5.31286 3.59397 0)
(4.419 3.71889 0)
(4.80887 3.84406 0)
(3.83413 3.89245 0)
(4.25256 4.07058 0)
(3.18935 4.00921 0)
(3.63557 4.25598 0)
(2.4792 4.04624 0)
(2.9492 4.37832 0)
(1.70264 3.98284 0)
(2.1954 4.41108 0)
(0.866782 3.77116 0)
(1.33516 4.33287 0)
(0.569335 4.05463 0)
(9.9828 0.138727 0)
(9.99323 0.096897 0)
(9.94917 0.229501 0)
(9.97062 0.192047 0)
(9.89934 0.320627 0)
(9.93036 0.28688 0)
(9.83353 0.41365 0)
(9.87373 0.382961 0)
(9.75201 0.510002 0)
(9.80175 0.481828 0)
(9.65495 0.610944 0)
(9.71476 0.584847 0)
(9.54237 0.717643 0)
(9.61278 0.693254 0)
(9.41416 0.831239 0)
(9.49573 0.808234 0)
(9.2701 0.952864 0)
(9.36346 0.930961 0)
(9.1099 1.08364 0)
(9.21576 1.0626 0)
(8.93315 1.22468 0)
(9.0523 1.20432 0)
(8.73938 1.37706 0)
(8.87267 1.35725 0)
(8.52803 1.54184 0)
(8.67638 1.52253 0)
(8.2984 1.71999 0)
(8.46281 1.70124 0)
(8.04969 1.91239 0)
(8.23124 1.8944 0)
(7.78091 2.1197 0)
(7.98076 2.10289 0)
(7.49081 2.34231 0)
(7.71022 2.32742 0)
(7.17781 2.58019 0)
(7.41814 2.5684 0)
(6.83977 2.83266 0)
(7.1026 2.82581 0)
(6.47389 3.09813 0)
(6.76096 3.09899 0)
(6.07636 3.3737 0)
(6.38972 3.38632 0)
(5.64212 3.65462 0)
(5.98412 3.68483 0)
(5.16462 3.93361 0)
(5.53785 3.9896 0)
(4.63568 4.20006 0)
(5.04278 4.2929 0)
(4.04583 4.43911 0)
(4.48882 4.58323 0)
(3.38526 4.63096 0)
(3.86463 4.84398 0)
(2.64589 4.75007 0)
(3.15747 5.05238 0)
(1.82526 4.76917 0)
(2.36711 5.17731 0)
(0.931826 4.62434 0)
(1.44717 5.18727 0)
(0.612633 4.9673 0)
(9.98346 0.151178 0)
(9.99352 0.104997 0)
(9.95122 0.250346 0)
(9.97192 0.208219 0)
(9.90365 0.350115 0)
(9.93356 0.311316 0)
(9.84101 0.452052 0)
(9.87975 0.415917 0)
(9.76355 0.557616 0)
(9.81153 0.523565 0)
(9.67146 0.668137 0)
(9.72924 0.63567 0)
(9.56479 0.784869 0)
(9.63289 0.753553 0)
(9.44345 0.909031 0)
(9.52245 0.878474 0)
(9.3073 1.04184 0)
(9.39783 1.01169 0)
(9.15609 1.18449 0)
(9.25887 1.15443 0)
(8.98948 1.33818 0)
(9.1053 1.30794 0)
(8.80704 1.5041 0)
(8.93678 1.47347 0)
(8.60823 1.6834 0)
(8.75287 1.65223 0)
(8.39241 1.87722 0)
(8.553 1.84545 0)
(8.15874 2.0866 0)
(8.33647 2.05431 0)
(7.90618 2.31246 0)
(8.10235 2.27991 0)
(7.63335 2.55552 0)
(7.84946 2.52327 0)
(7.33845 2.81621 0)
(7.57621 2.78522 0)
(7.01904 3.09453 0)
(7.28046 3.06633 0)
(6.67182 3.3898 0)
(6.95929 3.36676 0)
(6.29232 3.70036 0)
(6.60872 3.68608 0)
(5.87449 4.02307 0)
(6.22331 4.02285 0)
(5.41035 4.35262 0)
(5.79569 4.37415 0)
(4.8897 4.68049 0)
(5.31608 4.73472 0)
(4.30012 4.99359 0)
(4.77186 5.09563 0)
(3.62784 5.27261 0)
(4.14777 5.4424 0)
(2.85992 5.48941 0)
(3.42503 5.75247 0)
(1.98912 5.60864 0)
(2.59747 5.99039 0)
(1.0221 5.54582 0)
(1.60634 6.11204 0)
(0.679162 5.96838 0)
(9.98425 0.16307 0)
(9.99386 0.112709 0)
(9.95361 0.270195 0)
(9.97342 0.223586 0)
(9.90855 0.378113 0)
(9.93716 0.334466 0)
(9.84936 0.488438 0)
(9.88643 0.447059 0)
(9.7763 0.602659 0)
(9.82227 0.562933 0)
(9.68956 0.722167 0)
(9.745 0.68354 0)
(9.58923 0.848288 0)
(9.65467 0.810264 0)
(9.47528 0.982316 0)
(9.55129 0.944437 0)
(9.34763 1.12553 0)
(9.43484 1.08738 0)
(9.20607 1.27922 0)
(9.30519 1.24039 0)
(9.05034 1.44465 0)
(9.16218 1.4048 0)
(8.88008 1.62311 0)
(9.00553 1.58192 0)
(8.69481 1.81589 0)
(8.83487 1.7731 0)
(8.49394 2.02426 0)
(8.64972 1.97967 0)
(8.27666 2.24946 0)
(8.44943 2.203 0)
(8.04193 2.49271 0)
(8.23313 2.44444 0)
(7.78832 2.75509 0)
(7.99966 2.70532 0)
(7.51395 3.03761 0)
(7.74744 2.98694 0)
(7.21618 3.34099 0)
(7.47429 3.29054 0)
(6.89144 3.66563 0)
(7.17718 3.61721 0)
(6.53476 4.01135 0)
(6.85192 3.96781 0)
(6.13936 4.37696 0)
(6.4927 4.34271 0)
(5.69602 4.75967 0)
(6.09144 4.74147 0)
(5.19248 5.154 0)
(5.63702 5.16202 0)
(4.61287 5.54995 0)
(5.11432 5.59937 0)
(3.93787 5.93042 0)
(4.50353 6.04324 0)
(3.14617 6.2663 0)
(3.77738 6.47423 0)
(2.21972 6.51392 0)
(2.91798 6.85544 0)
(1.15573 6.56194 0)
(1.84358 7.12954 0)
(0.787066 7.10035 0)
(9.98515 0.174327 0)
(9.99424 0.119982 0)
(9.9563 0.288942 0)
(9.97507 0.238058 0)
(9.91395 0.404494 0)
(9.94111 0.356219 0)
(9.85845 0.522654 0)
(9.89368 0.476258 0)
(9.79007 0.644947 0)
(9.83382 0.599779 0)
(9.70903 0.772814 0)
(9.76186 0.728268 0)
(9.61544 0.907644 0)
(9.67789 0.863165 0)
(9.50933 1.05079 0)
(9.58197 1.00586 0)
(9.39068 1.2036 0)
(9.47412 1.15773 0)
(9.25936 1.36742 0)
(9.35431 1.32014 0)
(9.11519 1.54361 0)
(9.22244 1.49447 0)
(8.95788 1.73355 0)
(9.07833 1.68212 0)
(8.78706 1.93862 0)
(8.9217 1.88454 0)
(8.60221 2.16028 0)
(8.75218 2.10319 0)
(8.40261 2.39996 0)
(8.56924 2.33959 0)
(8.18729 2.65916 0)
(8.37212 2.59535 0)
(7.95492 2.93939 0)
(8.1598 2.87212 0)
(7.70364 3.24222 0)
(7.93082 3.17169 0)
(7.43085 3.5692 0)
(7.68315 3.49595 0)
(7.13295 3.92189 0)
(7.41393 3.84695 0)
(6.80488 4.30173 0)
(7.11914 4.22694 0)
(6.43954 4.70984 0)
(6.79306 4.63827 0)
(6.02696 5.14658 0)
(6.42756 5.08331 0)
(5.55322 5.61063 0)
(6.01101 5.56403 0)
(4.99903 6.09722 0)
(5.52658 6.08103 0)
(4.33824 6.59489 0)
(4.95034 6.63144 0)
(3.53698 7.07842 0)
(4.24517 7.20471 0)
(2.55625 7.49998 0)
(3.37448 7.77116 0)
(1.36564 7.71539 0)
(2.21364 8.26812 0)
(0.974098 8.43792 0)
(9.98613 0.184885 0)
(9.99465 0.126776 0)
(9.9592 0.306496 0)
(9.97684 0.251562 0)
(9.91976 0.429147 0)
(9.94532 0.37648 0)
(9.86817 0.554567 0)
(9.90139 0.503401 0)
(9.80473 0.68432 0)
(9.84604 0.633965 0)
(9.72967 0.819887 0)
(9.77965 0.769693 0)
(9.64315 0.962708 0)
(9.70232 0.912066 0)
(9.54528 1.11419 0)
(9.61418 1.06252 0)
(9.43607 1.27573 0)
(9.51531 1.22248 0)
(9.3155 1.44874 0)
(9.40577 1.39335 0)
(9.18346 1.63463 0)
(9.28553 1.57659 0)
(9.03978 1.83487 0)
(9.15453 1.77364 0)
(8.8842 2.05097 0)
(9.0126 1.98604 0)
(8.71633 2.28449 0)
(8.85951 2.21536 0)
(8.53559 2.53709 0)
(8.69489 2.46328 0)
(8.34117 2.81054 0)
(8.51817 2.73161 0)
(8.13194 3.10674 0)
(8.32855 3.02232 0)
(7.90625 3.42781 0)
(8.12485 3.33762 0)
(7.6618 3.77613 0)
(7.90541 3.68002 0)
(7.39531 4.1544 0)
(7.66781 4.05247 0)
(7.1021 4.56575 0)
(7.40864 4.45854 0)
(6.77542 5.0138 0)
(7.12293 4.90254 0)
(6.40553 5.50252 0)
(6.80347 5.38979 0)
(5.97805 6.03598 0)
(6.43954 5.92678 0)
(5.4716 6.61724 0)
(6.01483 6.52119 0)
(4.85384 7.24594 0)
(5.50414 7.18133 0)
(4.07564 7.91114 0)
(4.86337 7.91416 0)
(3.06371 8.57746 0)
(4.03503 8.71603 0)
(1.72048 9.07691 0)
(2.82297 9.55266 0)
(1.32926 10.123 0)
(9.98717 0.194692 0)
(9.99508 0.133058 0)
(9.96229 0.322779 0)
(9.97871 0.264039 0)
(9.92591 0.451975 0)
(9.94976 0.395171 0)
(9.87841 0.584064 0)
(9.90947 0.528392 0)
(9.82011 0.720644 0)
(9.85882 0.66538 0)
(9.75128 0.863231 0)
(9.79819 0.80768 0)
(9.67212 1.0133 0)
(9.72775 0.956808 0)
(9.58279 1.17231 0)
(9.64766 1.11423 0)
(9.4834 1.34169 0)
(9.55808 1.28141 0)
(9.37398 1.52289 0)
(9.45914 1.4598 0)
(9.25456 1.71738 0)
(9.35093 1.65086 0)
(9.12507 1.9267 0)
(9.23348 1.85612 0)
(8.9854 2.15244 0)
(9.10679 2.07716 0)
(8.8353 2.39629 0)
(8.97078 2.31565 0)
(8.67442 2.66006 0)
(8.82527 2.57338 0)
(8.5022 2.94577 0)
(8.66995 2.85233 0)
(8.31778 3.25566 0)
(8.50432 3.15471 0)
(8.11995 3.59233 0)
(8.32763 3.48306 0)
(7.90692 3.95885 0)
(8.13875 3.84043 0)
(7.67612 4.35899 0)
(7.93602 4.23047 0)
(7.4238 4.79741 0)
(7.71705 4.65783 0)
(7.14451 5.28007 0)
(7.47833 5.12848 0)
(6.83008 5.81467 0)
(7.21473 5.65031 0)
(6.46799 6.4112 0)
(6.91846 6.23405 0)
(6.03826 7.08271 0)
(6.57728 6.89467 0)
(5.50751 7.84603 0)
(6.17143 7.65377 0)
(4.81651 8.72111 0)
(5.66235 8.54412 0)
(3.8522 9.72867 0)
(4.99272 9.61643 0)
(2.38353 10.7729 0)
(3.90096 10.9572 0)
(2.09464 12.4575 0)
(9.98826 0.203709 0)
(9.99553 0.138806 0)
(9.96553 0.33773 0)
(9.98065 0.275443 0)
(9.93232 0.472895 0)
(9.95437 0.412228 0)
(9.88906 0.611035 0)
(9.91785 0.551155 0)
(9.83608 0.753778 0)
(9.87205 0.69393 0)
(9.77367 0.902665 0)
(9.81736 0.842121 0)
(9.70209 1.0592 0)
(9.75401 0.997264 0)
(9.62157 1.22487 0)
(9.68221 1.16085 0)
(9.53226 1.40113 0)
(9.6022 1.33436 0)
(9.43433 1.58947 0)
(9.5142 1.51926 0)
(9.32789 1.7914 0)
(9.41839 1.71706 0)
(9.21303 2.00848 0)
(9.31495 1.92929 0)
(9.08976 2.24238 0)
(9.20401 2.15758 0)
(8.95808 2.49486 0)
(9.08569 2.40364 0)
(8.81785 2.76787 0)
(8.96004 2.66934 0)
(8.66881 3.06359 0)
(8.82705 2.95678 0)
(8.51055 3.38451 0)
(8.6866 3.26831 0)
(8.34238 3.73359 0)
(8.53845 3.60671 0)
(8.16326 4.11442 0)
(8.38216 3.97531 0)
(7.97165 4.53151 0)
(8.21704 4.37824 0)
(7.76533 4.99069 0)
(8.0421 4.8208 0)
(7.54099 5.4997 0)
(7.85588 5.30996 0)
(7.29369 6.06915 0)
(7.65634 5.8552 0)
(7.01575 6.71411 0)
(7.44062 6.4699 0)
(6.69455 7.45697 0)
(7.20461 7.17383 0)
(6.30761 8.33337 0)
(6.94323 7.99819 0)
(5.8101 9.40629 0)
(6.64736 8.99769 0)
(5.09395 10.82 0)
(6.33698 10.2851 0)
(3.80474 13.0496 0)
(6.06487 12.19 0)
(5.15675 16.184 0)
(-0.803772 0.581594 0)
(-0.531959 0.787246 0)
(-1.78088 0.629688 0)
(-1.38508 0.934416 0)
(-2.81278 0.615808 0)
(-2.41972 0.963503 0)
(-3.86814 0.589681 0)
(-3.46337 0.962138 0)
(-4.92763 0.558112 0)
(-4.51467 0.943091 0)
(-5.97775 0.523547 0)
(-5.55995 0.912668 0)
(-7.00791 0.487036 0)
(-6.58849 0.874174 0)
(-8.00922 0.449118 0)
(-7.59125 0.829626 0)
(-8.97376 0.410072 0)
(-8.56033 0.780294 0)
(-9.89409 0.370004 0)
(-9.48839 0.726936 0)
(-10.7628 0.3289 0)
(-10.3682 0.669921 0)
(-11.572 0.286666 0)
(-11.1925 0.609329 0)
(-12.3133 0.243162 0)
(-11.9531 0.54504 0)
(-12.9775 0.198235 0)
(-12.6414 0.47682 0)
(-13.5545 0.151732 0)
(-13.2475 0.404406 0)
(-14.0332 0.103527 0)
(-13.761 0.327599 0)
(-14.4019 0.0534881 0)
(-14.1704 0.246337 0)
(-14.6483 0.00137454 0)
(-14.464 0.160764 0)
(-14.7598 -0.0535191 0)
(-14.6294 0.0710303 0)
(-14.7212 -0.112928 0)
(-14.653 -0.0240509 0)
(-14.5197 -0.178134 0)
(-14.5227 -0.122328 0)
(-14.1385 -0.250129 0)
(-14.2284 -0.225998 0)
(-13.5602 -0.331743 0)
(-13.7553 -0.334827 0)
(-12.7597 -0.427988 0)
(-13.0852 -0.452434 0)
(-11.7001 -0.547057 0)
(-12.1918 -0.584788 0)
(-10.3274 -0.704575 0)
(-11.0322 -0.739701 0)
(-8.55474 -0.935877 0)
(-9.5328 -0.932623 0)
(-6.18275 -1.30598 0)
(-7.56874 -1.21848 0)
(-2.7477 -1.85213 0)
(-4.9343 -1.72291 0)
(-0.943665 -2.29959 0)
(-0.994331 1.33892 0)
(-0.629326 1.76113 0)
(-2.00547 1.41763 0)
(-1.49216 1.90137 0)
(-3.03655 1.42644 0)
(-2.52087 1.92624 0)
(-4.07809 1.40833 0)
(-3.53576 1.91168 0)
(-5.1174 1.37172 0)
(-4.5499 1.86821 0)
(-6.14335 1.32205 0)
(-5.55262 1.80434 0)
(-7.14654 1.26269 0)
(-6.53565 1.72547 0)
(-8.11886 1.19583 0)
(-7.49156 1.63523 0)
(-9.05295 1.12285 0)
(-8.41366 1.53595 0)
(-9.94183 1.0445 0)
(-9.29558 1.42903 0)
(-10.7784 0.961071 0)
(-10.1309 1.3151 0)
(-11.5552 0.872464 0)
(-10.9127 1.19423 0)
(-12.2639 0.778371 0)
(-11.6336 1.06611 0)
(-12.8955 0.678366 0)
(-12.285 0.930213 0)
(-13.4399 0.572043 0)
(-12.8574 0.785989 0)
(-13.8863 0.45912 0)
(-13.3403 0.633043 0)
(-14.2229 0.339521 0)
(-13.7225 0.471299 0)
(-14.438 0.213269 0)
(-13.9924 0.301062 0)
(-14.5192 0.0801277 0)
(-14.1381 0.122787 0)
(-14.4569 -0.0603025 0)
(-14.1464 -0.062806 0)
(-14.2393 -0.206801 0)
(-14.0089 -0.254472 0)
(-13.8572 -0.358924 0)
(-13.7192 -0.452558 0)
(-13.2968 -0.520357 0)
(-13.2661 -0.659258 0)
(-12.5392 -0.698384 0)
(-12.6362 -0.880667 0)
(-11.5569 -0.904634 0)
(-11.81 -1.1269 0)
(-10.3086 -1.16081 0)
(-10.7581 -1.41235 0)
(-8.72974 -1.51566 0)
(-9.43566 -1.76329 0)
(-6.74576 -2.04974 0)
(-7.76611 -2.23765 0)
(-4.39506 -2.74129 0)
(-5.63135 -2.90194 0)
(-3.19236 -3.67652 0)
(-1.00334 2.29818 0)
(-0.621595 2.74384 0)
(-1.99934 2.37329 0)
(-1.44711 2.85385 0)
(-2.99216 2.37138 0)
(-2.43446 2.85326 0)
(-3.98107 2.33263 0)
(-3.38826 2.81323 0)
(-4.95959 2.26528 0)
(-4.33495 2.73923 0)
(-5.92073 2.17659 0)
(-5.26637 2.63967 0)
(-6.85785 2.07161 0)
(-6.17742 2.52069 0)
(-7.76481 1.95379 0)
(-7.06302 2.38669 0)
(-8.63584 1.82531 0)
(-7.91819 2.2406 0)
(-9.46515 1.68734 0)
(-8.73783 2.08408 0)
(-10.2466 1.54026 0)
(-9.51641 1.91777 0)
(-10.9734 1.38385 0)
(-10.2476 1.74151 0)
(-11.6379 1.21757 0)
(-10.9242 1.55463 0)
(-12.2313 1.0408 0)
(-11.5378 1.35619 0)
(-12.7438 0.853037 0)
(-12.0786 1.14523 0)
(-13.1647 0.654189 0)
(-12.536 0.921079 0)
(-13.4825 0.444735 0)
(-12.8983 0.683608 0)
(-13.6853 0.225784 0)
(-13.1538 0.433391 0)
(-13.7618 -0.000975879 0)
(-13.2904 0.17153 0)
(-13.7023 -0.234144 0)
(-13.2954 -0.0998406 0)
(-13.498 -0.474097 0)
(-13.1629 -0.378497 0)
(-13.1412 -0.722782 0)
(-12.889 -0.664145 0)
(-12.6229 -0.984803 0)
(-12.4663 -0.959282 0)
(-11.931 -1.26941 0)
(-11.8864 -1.27179 0)
(-11.0471 -1.59076 0)
(-11.1367 -1.61467 0)
(-9.94449 -1.9711 0)
(-10.1997 -2.0065 0)
(-8.59058 -2.44924 0)
(-9.05396 -2.47562 0)
(-6.98197 -3.0782 0)
(-7.66242 -3.06399 0)
(-5.17662 -3.84734 0)
(-5.97311 -3.80744 0)
(-4.27969 -4.65723 0)
(-0.943165 3.2486 0)
(-0.572485 3.66761 0)
(-1.87972 3.29613 0)
(-1.32923 3.74948 0)
(-2.80518 3.26456 0)
(-2.2456 3.71738 0)
(-3.71943 3.19406 0)
(-3.1162 3.64672 0)
(-4.61939 3.09157 0)
(-3.97909 3.54032 0)
(-5.50154 2.9647 0)
(-4.82672 3.40636 0)
(-6.36196 2.81904 0)
(-5.65673 3.25083 0)
(-7.1966 2.65852 0)
(-6.46599 3.07822 0)
(-8.00111 2.48558 0)
(-7.25091 2.89142 0)
(-8.77064 2.30141 0)
(-8.00726 2.6919 0)
(-9.49953 2.10616 0)
(-8.7299 2.4799 0)
(-10.1811 1.89926 0)
(-9.41257 2.25473 0)
(-10.8074 1.67968 0)
(-10.0477 2.01513 0)
(-11.3694 1.44622 0)
(-10.6264 1.75957 0)
(-11.8565 1.19779 0)
(-11.1383 1.48662 0)
(-12.2572 0.933683 0)
(-11.5719 1.19533 0)
(-12.5595 0.653836 0)
(-11.915 0.885585 0)
(-12.7512 0.358983 0)
(-12.1553 0.558434 0)
(-12.8213 0.0507281 0)
(-12.2806 0.216228 0)
(-12.7613 -0.268208 0)
(-12.2784 -0.137171 0)
(-12.5648 -0.594782 0)
(-12.1465 -0.497832 0)
(-12.2284 -0.92923 0)
(-11.8842 -0.863615 0)
(-11.748 -1.27757 0)
(-11.4879 -1.2374 0)
(-11.1172 -1.65143 0)
(-10.9544 -1.62834 0)
(-10.3257 -2.0679 0)
(-10.2769 -2.05146 0)
(-9.35963 -2.54989 0)
(-9.44768 -2.52707 0)
(-8.2102 -3.12657 0)
(-8.46137 -3.08036 0)
(-6.90038 -3.82764 0)
(-7.30846 -3.73684 0)
(-5.49546 -4.63126 0)
(-5.97611 -4.5121 0)
(-4.74329 -5.3408 0)
(-0.850256 4.12448 0)
(-0.504825 4.50039 0)
(-1.69661 4.14038 0)
(-1.17169 4.55886 0)
(-2.53203 4.07642 0)
(-1.99402 4.49743 0)
(-3.35583 3.97412 0)
(-2.76514 4.39776 0)
(-4.1665 3.83915 0)
(-3.53296 4.26192 0)
(-4.96256 3.6788 0)
(-4.28887 4.09823 0)
(-5.74196 3.49828 0)
(-5.03246 3.91222 0)
(-6.50199 3.30117 0)
(-5.76177 3.70793 0)
(-7.23913 3.08947 0)
(-6.474 3.48775 0)
(-7.94889 2.86373 0)
(-7.1653 3.25251 0)
(-8.62554 2.62339 0)
(-7.83053 3.00174 0)
(-9.26204 2.36709 0)
(-8.46317 2.73401 0)
(-9.84989 2.09308 0)
(-9.05519 2.44732 0)
(-10.3792 1.7996 0)
(-9.59708 2.13952 0)
(-10.8388 1.48533 0)
(-10.0779 1.80875 0)
(-11.2165 1.14982 0)
(-10.4854 1.45384 0)
(-11.4998 0.793906 0)
(-10.8069 1.07484 0)
(-11.6763 0.420119 0)
(-11.0294 0.673589 0)
(-11.7357 0.0327157 0)
(-11.1403 0.254107 0)
(-11.671 -0.363467 0)
(-11.1275 -0.177412 0)
(-11.4788 -0.764893 0)
(-10.9935 -0.614582 0)
(-11.1592 -1.17171 0)
(-10.7402 -1.05308 0)
(-10.7131 -1.5902 0)
(-10.3681 -1.49569 0)
(-10.1391 -2.03318 0)
(-9.87847 -1.95278 0)
(-9.43349 -2.51878 0)
(-9.26963 -2.44085 0)
(-8.59278 -3.06822 0)
(-8.54049 -2.98009 0)
(-7.62341 -3.70154 0)
(-7.69648 -3.59038 0)
(-6.55912 -4.43079 0)
(-6.74683 -4.28357 0)
(-5.47213 -5.21653 0)
(-5.70111 -5.05729 0)
(-4.78672 -5.82247 0)
(-0.736379 4.89916 0)
(-0.427329 5.22162 0)
(-1.47339 4.88921 0)
(-0.98924 5.26366 0)
(-2.20296 4.79733 0)
(-1.7011 5.17865 0)
(-2.92447 4.66784 0)
(-2.36083 5.05552 0)
(-3.63732 4.50602 0)
(-3.02473 4.89646 0)
(-4.34121 4.31879 0)
(-3.68199 4.70999 0)
(-5.03503 4.11073 0)
(-4.33375 4.50098 0)
(-5.71676 3.88478 0)
(-4.97857 4.27278 0)
(-6.38325 3.64218 0)
(-5.61402 4.02692 0)
(-7.03001 3.38274 0)
(-6.23629 3.76337 0)
(-7.65115 3.10515 0)
(-6.84015 3.48077 0)
(-8.23925 2.80731 0)
(-7.41883 3.17685 0)
(-8.78536 2.48685 0)
(-7.96398 2.84883 0)
(-9.27908 2.14153 0)
(-8.46568 2.49394 0)
(-9.70871 1.76968 0)
(-8.91254 2.10987 0)
(-10.0615 1.37073 0)
(-9.2919 1.69528 0)
(-10.3243 0.945764 0)
(-9.59021 1.2504 0)
(-10.4843 0.498251 0)
(-9.79371 0.777982 0)
(-10.5315 0.0343633 0)
(-9.88885 0.284182 0)
(-10.4603 -0.438017 0)
(-9.86369 -0.221707 0)
(-10.2703 -0.911943 0)
(-9.72647 -0.729973 0)
(-9.96597 -1.38597 0)
(-9.4813 -1.2335 0)
(-9.5526 -1.86698 0)
(-9.13313 -1.73499 0)
(-9.03314 -2.36901 0)
(-8.68704 -2.2464 0)
(-8.40844 -2.91034 0)
(-8.14488 -2.78561 0)
(-7.68191 -3.509 0)
(-7.50944 -3.37158 0)
(-6.86889 -4.17615 0)
(-6.79222 -4.01813 0)
(-6.00861 -4.90915 0)
(-6.01486 -4.72549 0)
(-5.17402 -5.65265 0)
(-5.19853 -5.47589 0)
(-4.52053 -6.16469 0)
(-0.608048 5.55745 0)
(-0.344351 5.81717 0)
(-1.22302 5.53021 0)
(-0.78997 5.85177 0)
(-1.83557 5.41758 0)
(-1.3796 5.7506 0)
(-2.4455 5.26791 0)
(-1.91892 5.61158 0)
(-3.05303 5.08663 0)
(-2.47141 5.43725 0)
(-3.65855 4.8803 0)
(-3.02347 5.23625 0)
(-4.26143 4.65268 0)
(-3.57767 5.01257 0)
(-4.85994 4.40578 0)
(-4.13271 4.76867 0)
(-5.45101 4.13992 0)
(-4.68623 4.50508 0)
(-6.03008 3.85395 0)
(-5.23438 4.22076 0)
(-6.59109 3.54562 0)
(-5.77184 3.91343 0)
(-7.12643 3.21199 0)
(-6.29172 3.57995 0)
(-7.62687 2.84994 0)
(-6.78556 3.21676 0)
(-8.08166 2.45663 0)
(-7.2433 2.82042 0)
(-8.47866 2.03008 0)
(-7.65333 2.38812 0)
(-8.80459 1.56972 0)
(-8.00263 1.91833 0)
(-9.04553 1.07734 0)
(-8.27696 1.41139 0)
(-9.18816 0.558277 0)
(-8.46114 0.871031 0)
(-9.2223 0.0219478 0)
(-8.54 0.305929 0)
(-9.14403 -0.520147 0)
(-8.50148 -0.270388 0)
(-8.95584 -1.05808 0)
(-8.36098 -0.844252 0)
(-8.66683 -1.58905 0)
(-8.12426 -1.40486 0)
(-8.28664 -2.12076 0)
(-7.80091 -1.95509 0)
(-7.82144 -2.66885 0)
(-7.3993 -2.50935 0)
(-7.27457 -3.25155 0)
(-6.92317 -3.08741 0)
(-6.6529 -3.88307 0)
(-6.37653 -3.70657 0)
(-5.97607 -4.56607 0)
(-5.77306 -4.37422 0)
(-5.28597 -5.28578 0)
(-5.1422 -5.07999 0)
(-4.65155 -5.9761 0)
(-4.50853 -5.7941 0)
(-4.01656 -6.40596 0)
(-0.469756 6.08882 0)
(-0.25859 6.27727 0)
(-0.953649 6.05358 0)
(-0.578934 6.31451 0)
(-1.44072 5.92846 0)
(-1.0378 6.20539 0)
(-1.9315 5.767 0)
(-1.44947 6.05901 0)
(-2.42697 5.57484 0)
(-1.88416 5.87828 0)
(-2.92804 5.35804 0)
(-2.32494 5.67174 0)
(-3.43431 5.1193 0)
(-2.776 5.44219 0)
(-3.94411 4.85964 0)
(-3.23582 5.19106 0)
(-4.45431 4.57831 0)
(-3.70199 4.91781 0)
(-4.96027 4.27316 0)
(-4.17054 4.62039 0)
(-5.45588 3.94105 0)
(-4.6361 4.29566 0)
(-5.93352 3.57822 0)
(-5.09191 3.93961 0)
(-6.38396 3.18081 0)
(-5.52966 3.54794 0)
(-6.79641 2.74539 0)
(-5.93947 3.11649 0)
(-7.15848 2.2696 0)
(-6.30989 2.6419 0)
(-7.45648 1.75278 0)
(-6.62787 2.12226 0)
(-7.67573 1.1972 0)
(-6.87846 1.55789 0)
(-7.80169 0.61008 0)
(-7.0443 0.953207 0)
(-7.82329 0.00465894 0)
(-7.10715 0.319685 0)
(-7.73803 -0.60289 0)
(-7.05464 -0.323415 0)
(-7.55158 -1.19845 0)
(-6.91171 -0.957472 0)
(-7.27833 -1.77746 0)
(-6.6847 -1.56688 0)
(-6.93233 -2.34931 0)
(-6.38788 -2.15538 0)
(-6.52186 -2.93226 0)
(-6.03213 -2.74137 0)
(-6.05073 -3.54481 0)
(-5.62161 -3.34742 0)
(-5.52621 -4.19714 0)
(-5.15967 -3.98921 0)
(-4.96891 -4.88356 0)
(-4.65894 -4.66743 0)
(-4.42102 -5.57914 0)
(-4.15375 -5.36144 0)
(-3.94613 -6.21228 0)
(-3.66463 -6.03228 0)
(-3.32621 -6.57054 0)
(-0.324509 6.48567 0)
(-0.17195 6.5951 0)
(-0.670721 6.452 0)
(-0.359512 6.6456 0)
(-1.02568 6.32312 0)
(-0.681471 6.53681 0)
(-1.39106 6.15898 0)
(-0.959529 6.39211 0)
(-1.76857 5.96519 0)
(-1.27113 6.21432 0)
(-2.15965 5.74701 0)
(-1.59536 6.01163 0)
(-2.56394 5.50594 0)
(-1.93836 5.78526 0)
(-2.9797 5.24186 0)
(-2.29806 5.53553 0)
(-3.4036 4.95294 0)
(-2.67186 5.26074 0)
(-3.83088 4.63617 0)
(-3.05551 4.95789 0)
(-4.25559 4.28758 0)
(-3.44367 4.6232 0)
(-4.67034 3.90262 0)
(-3.82991 4.25192 0)
(-5.06627 3.47669 0)
(-4.20636 3.83903 0)
(-5.43291 3.00567 0)
(-4.56374 3.37968 0)
(-5.75801 2.4866 0)
(-4.89121 2.86976 0)
(-6.02752 1.91849 0)
(-5.1762 2.3067 0)
(-6.22594 1.30384 0)
(-5.40334 1.69046 0)
(-6.33715 0.65184 0)
(-5.55224 1.02576 0)
(-6.34706 -0.0194136 0)
(-5.59967 0.325995 0)
(-6.25588 -0.687753 0)
(-5.53349 -0.38012 0)
(-6.07208 -1.33382 0)
(-5.39103 -1.06909 0)
(-5.81603 -1.95123 0)
(-5.17723 -1.71869 0)
(-5.5058 -2.5524 0)
(-4.91013 -2.33497 0)
(-5.15065 -3.15963 0)
(-4.60199 -2.94212 0)
(-4.75326 -3.79236 0)
(-4.25627 -3.56673 0)
(-4.31918 -4.45669 0)
(-3.87482 -4.22311 0)
(-3.86772 -5.13861 0)
(-3.46712 -4.90496 0)
(-3.43911 -5.80404 0)