/*--------------------------------*- C++ -*----------------------------------*\
  =========                 |
  \\      /  F ield         | OpenFOAM: The Open Source CFD Toolbox
   \\    /   O peration     | Website:  https://openfoam.org
    \\  /    A nd           | Version:  7
     \\/     M anipulation  |
\*---------------------------------------------------------------------------*/
FoamFile
{
    version     2.0;
    format      ascii;
    class       volVectorField;
    location    "6.08";
    object      U;
}
// * * * * * * * * * * * * * * * * * * * * * * * * * * * * * * * * * * * * * //

dimensions      [0 1 -1 0 0 0 0];

internalField   nonuniform List<vector> 
12013
(
(0.100771 -0.000208765 0)
(0.103812 -0.000368927 0)
(0.108508 -0.000510501 0)
(0.114417 -0.000637367 0)
(0.121411 -0.000754343 0)
(0.129369 -0.000864753 0)
(0.138199 -0.000971059 0)
(0.147835 -0.00107511 0)
(0.158227 -0.00117805 0)
(0.169334 -0.00128037 0)
(0.181119 -0.00138185 0)
(0.193539 -0.00148163 0)
(0.206546 -0.00157839 0)
(0.22008 -0.00167042 0)
(0.234068 -0.00175591 0)
(0.248429 -0.00183308 0)
(0.263071 -0.00190038 0)
(0.277897 -0.00195657 0)
(0.292808 -0.0020008 0)
(0.307705 -0.00203261 0)
(0.322493 -0.00205193 0)
(0.337084 -0.00205904 0)
(0.351398 -0.00205446 0)
(0.365364 -0.00203895 0)
(0.37892 -0.00201339 0)
(0.392017 -0.00197877 0)
(0.404612 -0.00193611 0)
(0.416674 -0.00188641 0)
(0.428181 -0.0018307 0)
(0.439115 -0.00176991 0)
(0.44947 -0.00170493 0)
(0.459243 -0.00163658 0)
(0.468436 -0.00156561 0)
(0.477057 -0.0014927 0)
(0.485117 -0.00141843 0)
(0.492631 -0.00134336 0)
(0.499616 -0.00126797 0)
(0.50609 -0.00119265 0)
(0.512075 -0.00111776 0)
(0.517592 -0.00104363 0)
(0.522664 -0.000970525 0)
(0.527315 -0.000898651 0)
(0.531568 -0.000828186 0)
(0.535449 -0.000759284 0)
(0.538981 -0.000692064 0)
(0.542189 -0.000626603 0)
(0.545097 -0.000562938 0)
(0.547728 -0.000501077 0)
(0.550106 -0.000440996 0)
(0.552253 -0.000382639 0)
(0.554193 -0.000325908 0)
(0.555945 -0.000270662 0)
(0.557532 -0.000216714 0)
(0.558973 -0.000163828 0)
(0.560287 -0.000111718 0)
(0.561492 -6.00372e-05 0)
(0.562607 -8.38128e-06 0)
(0.563645 4.37305e-05 0)
(0.564624 9.68733e-05 0)
(0.565556 0.000151754 0)
(0.566453 0.000209235 0)
(0.567325 0.00027036 0)
(0.568181 0.000336395 0)
(0.569027 0.000408888 0)
(0.569864 0.000489755 0)
(0.570692 0.000581395 0)
(0.571506 0.000686855 0)
(0.572294 0.000810074 0)
(0.573036 0.000956257 0)
(0.573705 0.00113245 0)
(0.574256 0.00134847 0)
(0.574626 0.00161845 0)
(0.574721 0.00196353 0)
(0.574401 0.00241673 0)
(0.573451 0.00303221 0)
(0.571534 0.0039036 0)
(0.568094 0.0052027 0)
(0.562149 0.00727098 0)
(0.55194 0.0109161 0)
(0.534388 0.0190059 0)
(0.516536 0.0509696 0)
(0.100705 -0.000636335 0)
(0.10373 -0.00112958 0)
(0.108404 -0.00156337 0)
(0.114294 -0.00195149 0)
(0.121272 -0.00230913 0)
(0.129217 -0.00264646 0)
(0.138034 -0.00297105 0)
(0.147659 -0.00328857 0)
(0.158042 -0.00360258 0)
(0.169143 -0.00391454 0)
(0.180924 -0.00422382 0)
(0.193343 -0.00452784 0)
(0.206353 -0.00482251 0)
(0.219892 -0.00510271 0)
(0.233891 -0.00536291 0)
(0.248265 -0.00559775 0)
(0.262924 -0.00580251 0)
(0.277769 -0.00597343 0)
(0.292702 -0.00610797 0)
(0.307622 -0.00620476 0)
(0.322435 -0.00626362 0)
(0.337052 -0.00628534 0)
(0.351391 -0.00627157 0)
(0.365382 -0.00622457 0)
(0.378963 -0.00614703 0)
(0.392084 -0.00604193 0)
(0.404702 -0.00591235 0)
(0.416785 -0.00576138 0)
(0.428311 -0.00559203 0)
(0.439264 -0.00540718 0)
(0.449635 -0.00520951 0)
(0.459422 -0.00500151 0)
(0.468628 -0.00478543 0)
(0.477261 -0.00456333 0)
(0.485331 -0.00433704 0)
(0.492853 -0.00410819 0)
(0.499844 -0.00387821 0)
(0.506323 -0.00364836 0)
(0.51231 -0.00341975 0)
(0.517828 -0.00319331 0)
(0.5229 -0.00296986 0)
(0.527549 -0.00275006 0)
(0.5318 -0.00253449 0)
(0.535675 -0.0023236 0)
(0.539201 -0.00211773 0)
(0.5424 -0.00191711 0)
(0.545297 -0.00172187 0)
(0.547916 -0.00153205 0)
(0.550279 -0.00134759 0)
(0.55241 -0.0011683 0)
(0.55433 -0.000993879 0)
(0.556062 -0.000823887 0)
(0.557625 -0.000657761 0)
(0.559039 -0.000494784 0)
(0.560324 -0.000334077 0)
(0.561498 -0.000174576 0)
(0.562577 -1.50415e-05 0)
(0.563578 0.000145997 0)
(0.564515 0.000310253 0)
(0.565402 0.000479868 0)
(0.566251 0.000657464 0)
(0.567072 0.000846203 0)
(0.567874 0.00104992 0)
(0.568661 0.00127328 0)
(0.569438 0.00152207 0)
(0.570203 0.00180347 0)
(0.570953 0.00212657 0)
(0.571677 0.00250305 0)
(0.572359 0.00294825 0)
(0.572975 0.00348272 0)
(0.573486 0.00413478 0)
(0.573841 0.00494459 0)
(0.573964 0.00597103 0)
(0.573749 0.00730368 0)
(0.573043 0.00908432 0)
(0.571631 0.0115468 0)
(0.56921 0.0150931 0)
(0.565351 0.0204442 0)
(0.559509 0.0289682 0)
(0.551595 0.0433252 0)
(0.54933 0.0684108 0)
(0.100631 -0.00107889 0)
(0.103615 -0.00193589 0)
(0.10824 -0.00268364 0)
(0.11409 -0.00335231 0)
(0.121034 -0.00396839 0)
(0.128949 -0.00454935 0)
(0.13774 -0.00510835 0)
(0.147344 -0.00565522 0)
(0.157709 -0.00619617 0)
(0.168797 -0.00673375 0)
(0.180571 -0.00726689 0)
(0.19299 -0.00779118 0)
(0.206006 -0.00829956 0)
(0.219559 -0.00878316 0)
(0.233579 -0.00923244 0)
(0.247982 -0.00963807 0)
(0.262675 -0.00999189 0)
(0.277562 -0.0102874 0)
(0.29254 -0.0105201 0)
(0.307509 -0.0106877 0)
(0.322374 -0.0107898 0)
(0.337043 -0.0108279 0)
(0.351435 -0.0108046 0)
(0.365478 -0.010724 0)
(0.37911 -0.0105906 0)
(0.392279 -0.0104097 0)
(0.404943 -0.0101865 0)
(0.41707 -0.0099263 0)
(0.428636 -0.00963441 0)
(0.439626 -0.00931575 0)
(0.45003 -0.00897494 0)
(0.459847 -0.00861628 0)
(0.46908 -0.00824367 0)
(0.477735 -0.00786063 0)
(0.485825 -0.00747032 0)
(0.493363 -0.00707554 0)
(0.500367 -0.00667877 0)
(0.506856 -0.00628219 0)
(0.51285 -0.00588768 0)
(0.518372 -0.00549684 0)
(0.523445 -0.00511107 0)
(0.528092 -0.00473153 0)
(0.532337 -0.00435921 0)
(0.536204 -0.00399483 0)
(0.539718 -0.00363899 0)
(0.542903 -0.00329207 0)
(0.545782 -0.00295431 0)
(0.548379 -0.00262576 0)
(0.550718 -0.00230628 0)
(0.55282 -0.00199553 0)
(0.554709 -0.00169298 0)
(0.556404 -0.00139788 0)
(0.557927 -0.00110924 0)
(0.559297 -0.000825837 0)
(0.560533 -0.000546133 0)
(0.561654 -0.000268283 0)
(0.562674 9.82833e-06 0)
(0.563612 0.000290686 0)
(0.56448 0.000577226 0)
(0.565293 0.000873098 0)
(0.566063 0.00118274 0)
(0.566801 0.00151147 0)
(0.567513 0.00186573 0)
(0.568208 0.00225332 0)
(0.568888 0.00268382 0)
(0.569555 0.00316905 0)
(0.570206 0.00372385 0)
(0.570836 0.00436709 0)
(0.571431 0.00512319 0)
(0.571974 0.00602433 0)
(0.57244 0.0071139 0)
(0.572795 0.00845172 0)
(0.572992 0.0101224 0)
(0.572976 0.0122484 0)
(0.57268 0.0150119 0)
(0.572041 0.0186896 0)
(0.571025 0.0237088 0)
(0.569707 0.0307354 0)
(0.568452 0.0408126 0)
(0.568357 0.0554859 0)
(0.573235 0.0760575 0)
(0.100554 -0.00153132 0)
(0.103481 -0.00278455 0)
(0.108034 -0.00386962 0)
(0.113825 -0.00484045 0)
(0.120716 -0.00573465 0)
(0.128585 -0.00657773 0)
(0.137338 -0.00738896 0)
(0.146909 -0.00818278 0)
(0.157249 -0.00896832 0)
(0.16832 -0.00974938 0)
(0.180085 -0.0105244 0)
(0.192506 -0.0112872 0)
(0.205536 -0.0120272 0)
(0.219116 -0.0127316 0)
(0.233174 -0.0133864 0)
(0.247626 -0.013978 0)
(0.262381 -0.0144942 0)
(0.277337 -0.0149256 0)
(0.292392 -0.0152655 0)
(0.307443 -0.0155106 0)
(0.322393 -0.0156602 0)
(0.337149 -0.0157163 0)
(0.351628 -0.0156831 0)
(0.365756 -0.0155663 0)
(0.37947 -0.0153727 0)
(0.392717 -0.0151098 0)
(0.405455 -0.0147852 0)
(0.41765 -0.0144069 0)
(0.429279 -0.0139825 0)
(0.440326 -0.0135191 0)
(0.450783 -0.0130234 0)
(0.460646 -0.0125018 0)
(0.469919 -0.0119599 0)
(0.47861 -0.0114029 0)
(0.48673 -0.0108353 0)
(0.494293 -0.0102611 0)
(0.501317 -0.0096841 0)
(0.507821 -0.00910725 0)
(0.513826 -0.00853333 0)
(0.519354 -0.0079647 0)
(0.524429 -0.00740335 0)
(0.529073 -0.00685094 0)
(0.533311 -0.00630883 0)
(0.537167 -0.0057781 0)
(0.540665 -0.00525959 0)
(0.54383 -0.00475385 0)
(0.546685 -0.00426119 0)
(0.549253 -0.00378163 0)
(0.551559 -0.00331496 0)
(0.553623 -0.00286067 0)
(0.555468 -0.00241798 0)
(0.557116 -0.00198579 0)
(0.558586 -0.00156265 0)
(0.559898 -0.00114676 0)
(0.56107 -0.000735897 0)
(0.562121 -0.000327385 0)
(0.563066 8.17773e-05 0)
(0.563923 0.000495059 0)
(0.564705 0.000916687 0)
(0.565426 0.00135186 0)
(0.566098 0.0018068 0)
(0.566732 0.00228895 0)
(0.567337 0.00280725 0)
(0.567921 0.00337243 0)
(0.568488 0.00399753 0)
(0.569043 0.0046985 0)
(0.569585 0.00549507 0)
(0.570114 0.00641194 0)
(0.570623 0.0074804 0)
(0.571105 0.00874071 0)
(0.571551 0.0102454 0)
(0.571946 0.0120643 0)
(0.572281 0.0142908 0)
(0.572549 0.0170521 0)
(0.572761 0.020522 0)
(0.572969 0.0249375 0)
(0.573298 0.0306164 0)
(0.574025 0.0379662 0)
(0.575684 0.0474593 0)
(0.579205 0.0594872 0)
(0.58619 0.073769 0)
(0.100475 -0.00199307 0)
(0.103338 -0.0036732 0)
(0.107805 -0.00512015 0)
(0.113518 -0.00641634 0)
(0.120341 -0.00761008 0)
(0.128151 -0.0087354 0)
(0.136854 -0.00981838 0)
(0.146383 -0.0108785 0)
(0.156691 -0.0119282 0)
(0.167742 -0.0129726 0)
(0.179502 -0.0140101 0)
(0.191933 -0.0150319 0)
(0.20499 -0.0160243 0)
(0.218615 -0.0169698 0)
(0.232737 -0.0178493 0)
(0.24727 -0.0186444 0)
(0.26212 -0.0193387 0)
(0.277185 -0.0199192 0)
(0.292359 -0.0203769 0)
(0.307536 -0.0207071 0)
(0.322615 -0.0209091 0)
(0.337501 -0.0209855 0)
(0.352109 -0.0209418 0)
(0.366362 -0.0207859 0)
(0.380195 -0.0205268 0)
(0.393555 -0.0201747 0)
(0.406398 -0.0197401 0)
(0.418691 -0.0192334 0)
(0.430409 -0.0186649 0)
(0.441536 -0.0180442 0)
(0.452064 -0.0173805 0)
(0.461991 -0.016682 0)
(0.47132 -0.0159565 0)
(0.480058 -0.0152107 0)
(0.488218 -0.0144509 0)
(0.495814 -0.0136823 0)
(0.502864 -0.0129097 0)
(0.509388 -0.0121375 0)
(0.515406 -0.011369 0)
(0.520941 -0.0106076 0)
(0.526017 -0.00985571 0)
(0.530656 -0.00911561 0)
(0.534884 -0.00838909 0)
(0.538725 -0.00767757 0)
(0.542202 -0.0069821 0)
(0.545341 -0.0063034 0)
(0.548164 -0.00564181 0)
(0.550696 -0.00499735 0)
(0.552959 -0.0043697 0)
(0.554976 -0.00375819 0)
(0.556768 -0.00316173 0)
(0.558356 -0.00257883 0)
(0.559762 -0.00200755 0)
(0.561003 -0.0014455 0)
(0.562099 -0.000889715 0)
(0.563067 -0.00033672 0)
(0.563924 0.000217366 0)
(0.564686 0.000776982 0)
(0.565368 0.00134765 0)
(0.565983 0.00193607 0)
(0.566545 0.00255017 0)
(0.567065 0.00319934 0)
(0.567553 0.00389472 0)
(0.568017 0.00464958 0)
(0.568466 0.00547979 0)
(0.568906 0.00640452 0)
(0.56934 0.007447 0)
(0.569774 0.00863567 0)
(0.57021 0.0100057 0)
(0.570652 0.0116006 0)
(0.571105 0.0134754 0)
(0.571577 0.0156988 0)
(0.572087 0.0183579 0)
(0.572668 0.0215619 0)
(0.573379 0.0254458 0)
(0.574326 0.0301708 0)
(0.575684 0.0359177 0)
(0.577729 0.042862 0)
(0.580875 0.0511144 0)
(0.585675 0.0605972 0)
(0.592779 0.0708103 0)
(0.100395 -0.00246434 0)
(0.103196 -0.00460032 0)
(0.107566 -0.00643478 0)
(0.113189 -0.00808092 0)
(0.119931 -0.00959743 0)
(0.127671 -0.0110271 0)
(0.136314 -0.0124034 0)
(0.145795 -0.0137514 0)
(0.15607 -0.0150873 0)
(0.167103 -0.0164181 0)
(0.178865 -0.0177416 0)
(0.191321 -0.019047 0)
(0.204427 -0.0203164 0)
(0.218127 -0.0215272 0)
(0.232348 -0.0226547 0)
(0.247006 -0.0236747 0)
(0.262001 -0.024566 0)
(0.277228 -0.0253116 0)
(0.292576 -0.0258997 0)
(0.307935 -0.0263243 0)
(0.323199 -0.0265842 0)
(0.33827 -0.026683 0)
(0.353058 -0.0266279 0)
(0.367483 -0.0264288 0)
(0.381481 -0.0260978 0)
(0.394994 -0.0256477 0)
(0.407978 -0.0250922 0)
(0.4204 -0.0244448 0)
(0.432234 -0.0237185 0)
(0.443466 -0.0229259 0)
(0.454086 -0.0220785 0)
(0.464093 -0.0211869 0)
(0.473491 -0.0202611 0)
(0.482288 -0.0193095 0)
(0.490496 -0.0183401 0)
(0.498131 -0.0173597 0)
(0.505211 -0.0163743 0)
(0.511756 -0.0153892 0)
(0.517787 -0.0144091 0)
(0.523328 -0.0134377 0)
(0.528402 -0.0124783 0)
(0.533033 -0.0115338 0)
(0.537246 -0.0106063 0)
(0.541065 -0.00969765 0)
(0.544514 -0.00880903 0)
(0.547618 -0.00794134 0)
(0.550402 -0.00709499 0)
(0.552887 -0.00626997 0)
(0.555097 -0.00546584 0)
(0.557056 -0.00468169 0)
(0.558783 -0.00391611 0)
(0.560301 -0.00316723 0)
(0.56163 -0.00243258 0)
(0.562788 -0.00170916 0)
(0.563795 -0.000993285 0)
(0.564668 -0.00028072 0)
(0.565425 0.000433239 0)
(0.566081 0.00115399 0)
(0.566652 0.00188831 0)
(0.567152 0.00264424 0)
(0.567594 0.00343122 0)
(0.567992 0.00426027 0)
(0.568356 0.0051443 0)
(0.568697 0.00609847 0)
(0.569026 0.00714062 0)
(0.569352 0.00829185 0)
(0.569684 0.00957717 0)
(0.570033 0.0110263 0)
(0.570409 0.0126748 0)
(0.570826 0.0145649 0)
(0.571303 0.0167472 0)
(0.571864 0.0192817 0)
(0.572548 0.0222381 0)
(0.573407 0.0256964 0)
(0.574523 0.0297436 0)
(0.576007 0.0344672 0)
(0.57802 0.0399406 0)
(0.580768 0.0461984 0)
(0.584511 0.0531944 0)
(0.589525 0.0607442 0)
(0.596039 0.0684568 0)
(0.100314 -0.00294598 0)
(0.103059 -0.00556548 0)
(0.107329 -0.007814 0)
(0.112854 -0.00983594 0)
(0.119508 -0.0117003 0)
(0.12717 -0.0134585 0)
(0.135748 -0.015152 0)
(0.145179 -0.0168123 0)
(0.155422 -0.0184599 0)
(0.166446 -0.0201038 0)
(0.178224 -0.0217416 0)
(0.190728 -0.0233599 0)
(0.203917 -0.0249363 0)
(0.217735 -0.0264421 0)
(0.23211 -0.027846 0)
(0.246953 -0.0291172 0)
(0.26216 -0.0302285 0)
(0.277619 -0.0311584 0)
(0.293213 -0.0318918 0)
(0.308826 -0.032421 0)
(0.324344 -0.0327447 0)
(0.339665 -0.0328676 0)
(0.354693 -0.0327987 0)
(0.369347 -0.0325508 0)
(0.383558 -0.032139 0)
(0.397268 -0.0315796 0)
(0.410432 -0.0308897 0)
(0.423016 -0.0300862 0)
(0.434995 -0.0291854 0)
(0.446354 -0.0282029 0)
(0.457085 -0.0271531 0)
(0.467187 -0.0260492 0)
(0.476665 -0.0249033 0)
(0.485529 -0.023726 0)
(0.493791 -0.022527 0)
(0.501468 -0.0213147 0)
(0.508579 -0.0200965 0)
(0.515144 -0.0188788 0)
(0.521186 -0.0176671 0)
(0.526728 -0.0164663 0)
(0.531795 -0.0152803 0)
(0.53641 -0.0141123 0)
(0.5406 -0.0129652 0)
(0.544388 -0.0118408 0)
(0.5478 -0.0107408 0)
(0.550859 -0.00966611 0)
(0.553591 -0.00861724 0)
(0.556018 -0.0075941 0)
(0.558164 -0.00659608 0)
(0.560051 -0.00562205 0)
(0.561701 -0.0046703 0)
(0.563136 -0.00373851 0)
(0.564375 -0.00282373 0)
(0.565437 -0.0019223 0)
(0.566343 -0.00102982 0)
(0.567108 -0.00014154 0)
(0.567753 0.000748013 0)
(0.568292 0.00164525 0)
(0.568742 0.00255805 0)
(0.569117 0.0034956 0)
(0.569432 0.00446849 0)
(0.569701 0.00548894 0)
(0.569937 0.00657106 0)
(0.570153 0.00773108 0)
(0.570361 0.00898777 0)
(0.570575 0.0103627 0)
(0.570809 0.0118808 0)
(0.571078 0.0135706 0)
(0.5714 0.015465 0)
(0.571796 0.0176011 0)
(0.572294 0.0200207 0)
(0.572929 0.0227698 0)
(0.573746 0.0258973 0)
(0.574806 0.0294524 0)
(0.576185 0.0334799 0)
(0.57798 0.038012 0)
(0.580309 0.0430565 0)
(0.583306 0.0485805 0)
(0.587108 0.0544903 0)
(0.591832 0.0606115 0)
(0.597521 0.0666817 0)
(0.100231 -0.00343959 0)
(0.102931 -0.00656943 0)
(0.107104 -0.00925946 0)
(0.112526 -0.0116843 0)
(0.119088 -0.0139233 0)
(0.12667 -0.0160365 0)
(0.135183 -0.0180741 0)
(0.144566 -0.0200744 0)
(0.154785 -0.0220631 0)
(0.165814 -0.0240519 0)
(0.177636 -0.0260381 0)
(0.190225 -0.0280055 0)
(0.203547 -0.0299261 0)
(0.217545 -0.0317639 0)
(0.232146 -0.0334795 0)
(0.247256 -0.035034 0)
(0.262762 -0.0363931 0)
(0.278544 -0.0375298 0)
(0.294474 -0.0384253 0)
(0.310427 -0.0390701 0)
(0.326281 -0.039463 0)
(0.341926 -0.0396099 0)
(0.357263 -0.0395226 0)
(0.372206 -0.039217 0)
(0.386682 -0.0387121 0)
(0.400633 -0.0380282 0)
(0.414014 -0.0371863 0)
(0.426791 -0.0362073 0)
(0.438939 -0.0351113 0)
(0.450444 -0.0339171 0)
(0.461301 -0.0326425 0)
(0.471509 -0.0313032 0)
(0.481075 -0.029914 0)
(0.490009 -0.0284876 0)
(0.498326 -0.0270357 0)
(0.506044 -0.0255683 0)
(0.513182 -0.0240942 0)
(0.519762 -0.0226211 0)
(0.525808 -0.0211556 0)
(0.531344 -0.0197033 0)
(0.536394 -0.0182687 0)
(0.540985 -0.0168559 0)
(0.54514 -0.0154679 0)
(0.548886 -0.0141071 0)
(0.552248 -0.0127752 0)
(0.55525 -0.0114734 0)
(0.557918 -0.0102022 0)
(0.560273 -0.00896128 0)
(0.562341 -0.00775004 0)
(0.564144 -0.00656705 0)
(0.565703 -0.0054103 0)
(0.56704 -0.00427705 0)
(0.568176 -0.00316386 0)
(0.569129 -0.00206646 0)
(0.56992 -0.000979792 0)
(0.570567 0.000101339 0)
(0.571087 0.00118288 0)
(0.571499 0.00227229 0)
(0.571818 0.00337835 0)
(0.57206 0.00451109 0)
(0.57224 0.00568185 0)
(0.572375 0.00690355 0)
(0.572478 0.00819075 0)
(0.572565 0.00955994 0)
(0.572651 0.0110296 0)
(0.572752 0.0126205 0)
(0.572887 0.0143557 0)
(0.573074 0.0162607 0)
(0.573337 0.0183631 0)
(0.573701 0.0206928 0)
(0.574199 0.0232807 0)
(0.574867 0.0261579 0)
(0.575752 0.0293532 0)
(0.576907 0.0328906 0)
(0.578397 0.0367839 0)
(0.580293 0.0410316 0)
(0.582671 0.0456093 0)
(0.585605 0.0504613 0)
(0.589157 0.0554943 0)
(0.593358 0.0605744 0)
(0.598183 0.0655366 0)
(0.100145 -0.0039475 0)
(0.102811 -0.00761414 0)
(0.106895 -0.0107742 0)
(0.112218 -0.0136302 0)
(0.118688 -0.0162727 0)
(0.126191 -0.01877 0)
(0.134642 -0.0211814 0)
(0.143986 -0.0235537 0)
(0.154197 -0.0259184 0)
(0.165259 -0.0282907 0)
(0.177163 -0.0306677 0)
(0.189893 -0.0330294 0)
(0.203418 -0.035341 0)
(0.217683 -0.0375573 0)
(0.232609 -0.0396284 0)
(0.248091 -0.0415054 0)
(0.264008 -0.0431453 0)
(0.280222 -0.0445143 0)
(0.296595 -0.0455899 0)
(0.312987 -0.0463606 0)
(0.329267 -0.0468257 0)
(0.345317 -0.0469933 0)
(0.361031 -0.0468786 0)
(0.37632 -0.0465017 0)
(0.391111 -0.0458861 0)
(0.405343 -0.0450571 0)
(0.418972 -0.0440404 0)
(0.431964 -0.0428614 0)
(0.444299 -0.0415444 0)
(0.455963 -0.040112 0)
(0.466953 -0.0385853 0)
(0.47727 -0.0369834 0)
(0.486923 -0.0353235 0)
(0.495925 -0.0336209 0)
(0.504291 -0.0318891 0)
(0.512042 -0.0301399 0)
(0.519199 -0.0283838 0)
(0.525785 -0.0266295 0)
(0.531824 -0.0248847 0)
(0.537342 -0.0231559 0)
(0.542364 -0.0214484 0)
(0.546916 -0.0197666 0)
(0.551024 -0.0181142 0)
(0.554715 -0.0164938 0)
(0.558013 -0.0149073 0)
(0.560944 -0.013356 0)
(0.563533 -0.0118403 0)
(0.565803 -0.0103601 0)
(0.567779 -0.00891429 0)
(0.569483 -0.00750142 0)
(0.570937 -0.0061191 0)
(0.572164 -0.00476422 0)
(0.573183 -0.00343287 0)
(0.574015 -0.0021203 0)
(0.574679 -0.00082102 0)
(0.575196 0.000470698 0)
(0.575582 0.00176119 0)
(0.575857 0.00305866 0)
(0.576036 0.00437256 0)
(0.576137 0.00571339 0)
(0.576176 0.00709282 0)
(0.57617 0.00852385 0)
(0.576136 0.0100209 0)
(0.57609 0.0115997 0)
(0.57605 0.0132775 0)
(0.576034 0.0150731 0)
(0.576064 0.0170065 0)
(0.57616 0.0190986 0)
(0.576348 0.021371 0)
(0.576656 0.0238453 0)
(0.577115 0.0265417 0)
(0.577761 0.0294781 0)
(0.578633 0.0326673 0)
(0.579776 0.0361152 0)
(0.581237 0.0398172 0)
(0.583061 0.043755 0)
(0.585291 0.0478929 0)
(0.587964 0.0521754 0)
(0.591096 0.0565264 0)
(0.594681 0.0608519 0)
(0.598675 0.0650514 0)
(0.100054 -0.00447253 0)
(0.102701 -0.00870273 0)
(0.106706 -0.0123625 0)
(0.111934 -0.0156796 0)
(0.118318 -0.0187564 0)
(0.125749 -0.0216698 0)
(0.134147 -0.0244891 0)
(0.143469 -0.0272708 0)
(0.153698 -0.030054 0)
(0.164833 -0.0328577 0)
(0.176878 -0.035679 0)
(0.189828 -0.0384928 0)
(0.203655 -0.0412551 0)
(0.218303 -0.0439081 0)
(0.233681 -0.0463886 0)
(0.249671 -0.0486348 0)
(0.26613 -0.0505929 0)
(0.282905 -0.0522217 0)
(0.299837 -0.0534942 0)
(0.316773 -0.054398 0)
(0.33357 -0.0549335 0)
(0.3501 -0.0551124 0)
(0.366254 -0.0549546 0)
(0.381938 -0.0544856 0)
(0.39708 -0.0537348 0)
(0.41162 -0.0527332 0)
(0.425515 -0.0515122 0)
(0.438734 -0.0501023 0)
(0.45126 -0.0485324 0)
(0.463082 -0.0468296 0)
(0.4742 -0.0450187 0)
(0.484618 -0.043122 0)
(0.494349 -0.0411597 0)
(0.503406 -0.0391495 0)
(0.51181 -0.0371071 0)
(0.51958 -0.035046 0)
(0.526741 -0.0329782 0)
(0.533316 -0.0309138 0)
(0.539333 -0.0288615 0)
(0.544817 -0.0268285 0)
(0.549795 -0.024821 0)
(0.554294 -0.0228438 0)
(0.55834 -0.020901 0)
(0.56196 -0.0189955 0)
(0.56518 -0.0171294 0)
(0.568026 -0.015304 0)
(0.570522 -0.0135198 0)
(0.572694 -0.0117765 0)
(0.574564 -0.0100731 0)
(0.576157 -0.00840763 0)
(0.577495 -0.00677752 0)
(0.578599 -0.00517931 0)
(0.579491 -0.00360871 0)
(0.580191 -0.00206056 0)
(0.580718 -0.000529433 0)
(0.581096 0.000990932 0)
(0.581341 0.00250747 0)
(0.581471 0.0040289 0)
(0.581504 0.0055649 0)
(0.581459 0.00712606 0)
(0.581352 0.00872388 0)
(0.581202 0.0103709 0)
(0.581025 0.0120806 0)
(0.580842 0.0138676 0)
(0.58067 0.0157469 0)
(0.58053 0.0177345 0)
(0.580443 0.0198466 0)
(0.580432 0.0220993 0)
(0.580522 0.0245078 0)
(0.58074 0.027086 0)
(0.581115 0.0298452 0)
(0.581677 0.0327929 0)
(0.582457 0.035931 0)
(0.583489 0.0392547 0)
(0.584802 0.0427503 0)
(0.586425 0.0463937 0)
(0.588376 0.0501498 0)
(0.590668 0.0539718 0)
(0.593296 0.0578033 0)
(0.59624 0.0615811 0)
(0.599454 0.065245 0)
(0.0999568 -0.00501791 0)
(0.102599 -0.00983946 0)
(0.106539 -0.0140303 0)
(0.111682 -0.0178405 0)
(0.117988 -0.021385 0)
(0.125358 -0.02475 0)
(0.133721 -0.0280166 0)
(0.143045 -0.0312528 0)
(0.153332 -0.034507 0)
(0.164602 -0.0378035 0)
(0.176874 -0.0411384 0)
(0.190154 -0.044479 0)
(0.204417 -0.0477677 0)
(0.219596 -0.05093 0)
(0.235585 -0.0538844 0)
(0.25224 -0.0565529 0)
(0.269393 -0.0588691 0)
(0.286864 -0.0607834 0)
(0.304474 -0.062265 0)
(0.322052 -0.0633017 0)
(0.339444 -0.0638974 0)
(0.356515 -0.0640688 0)
(0.373152 -0.0638425 0)
(0.389261 -0.0632512 0)
(0.404771 -0.0623315 0)
(0.419625 -0.0611213 0)
(0.433784 -0.0596584 0)
(0.447223 -0.0579793 0)
(0.459926 -0.0561182 0)
(0.471889 -0.0541069 0)
(0.483116 -0.0519741 0)
(0.493615 -0.0497458 0)
(0.5034 -0.0474449 0)
(0.512491 -0.0450919 0)
(0.520908 -0.0427044 0)
(0.528675 -0.0402981 0)
(0.535818 -0.0378861 0)
(0.542363 -0.0354798 0)
(0.548337 -0.033089 0)
(0.553767 -0.0307218 0)
(0.558683 -0.0283848 0)
(0.563111 -0.0260835 0)
(0.567078 -0.0238222 0)
(0.570613 -0.0216041 0)
(0.57374 -0.0194315 0)
(0.576487 -0.0173056 0)
(0.578879 -0.0152271 0)
(0.58094 -0.0131955 0)
(0.582694 -0.0112095 0)
(0.584166 -0.00926726 0)
(0.585378 -0.00736577 0)
(0.586352 -0.00550137 0)
(0.587109 -0.00366944 0)
(0.587671 -0.00186452 0)
(0.588058 -8.15375e-05 0)
(0.588293 0.00168593 0)
(0.588391 0.00344574 0)
(0.588374 0.00520688 0)
(0.588259 0.0069789 0)
(0.588064 0.00877201 0)
(0.587809 0.0105971 0)
(0.587512 0.0124658 0)
(0.587191 0.0143903 0)
(0.586865 0.0163831 0)
(0.586556 0.018457 0)
(0.586282 0.0206248 0)
(0.586065 0.0228985 0)
(0.585928 0.0252897 0)
(0.585894 0.0278079 0)
(0.585987 0.030461 0)
(0.586231 0.0332532 0)
(0.58665 0.0361852 0)
(0.587269 0.0392527 0)
(0.588108 0.0424455 0)
(0.589187 0.0457472 0)
(0.590517 0.0491344 0)
(0.592107 0.0525772 0)
(0.593954 0.0560397 0)
(0.596045 0.059482 0)
(0.598357 0.062863 0)
(0.600849 0.0661471 0)
(0.0998514 -0.00558727 0)
(0.102504 -0.0110298 0)
(0.106396 -0.015785 0)
(0.111465 -0.0201226 0)
(0.117706 -0.0241715 0)
(0.125032 -0.0280288 0)
(0.133384 -0.0317894 0)
(0.14275 -0.0355361 0)
(0.153157 -0.0393291 0)
(0.164649 -0.0431986 0)
(0.177267 -0.0471375 0)
(0.191027 -0.051101 0)
(0.205898 -0.0550116 0)
(0.221795 -0.0587706 0)
(0.23858 -0.0622727 0)
(0.256074 -0.0654197 0)
(0.274074 -0.068131 0)
(0.292372 -0.0703492 0)
(0.310762 -0.0720418 0)
(0.32906 -0.0731993 0)
(0.347101 -0.0738317 0)
(0.364745 -0.0739638 0)
(0.381878 -0.0736311 0)
(0.398412 -0.0728754 0)
(0.414277 -0.0717422 0)
(0.429424 -0.0702775 0)
(0.443821 -0.0685266 0)
(0.457446 -0.0665325 0)
(0.470293 -0.0643351 0)
(0.482361 -0.0619712 0)
(0.49366 -0.0594738 0)
(0.504203 -0.0568723 0)
(0.514007 -0.0541928 0)
(0.523097 -0.0514582 0)
(0.531495 -0.0486884 0)
(0.539228 -0.0459005 0)
(0.546324 -0.0431093 0)
(0.55281 -0.0403274 0)
(0.558717 -0.0375653 0)
(0.564072 -0.0348318 0)
(0.568904 -0.0321343 0)
(0.573242 -0.0294785 0)
(0.577114 -0.0268691 0)
(0.580547 -0.0243094 0)
(0.583569 -0.021802 0)
(0.586205 -0.019348 0)
(0.588482 -0.016948 0)
(0.590424 -0.0146015 0)
(0.592055 -0.0123072 0)
(0.5934 -0.0100629 0)
(0.594482 -0.00786559 0)
(0.595322 -0.00571144 0)
(0.595943 -0.00359576 0)
(0.596365 -0.00151308 0)
(0.596614 0.000542101 0)
(0.596705 0.00257589 0)
(0.596659 0.00459669 0)
(0.596496 0.00661339 0)
(0.596234 0.00863514 0)
(0.595893 0.0106715 0)
(0.595492 0.0127324 0)
(0.595049 0.0148283 0)
(0.594583 0.0169695 0)
(0.594114 0.0191666 0)
(0.593662 0.0214297 0)
(0.593246 0.0237684 0)
(0.592888 0.0261913 0)
(0.592607 0.0287057 0)
(0.592424 0.0313169 0)
(0.592359 0.0340281 0)
(0.592433 0.0368392 0)
(0.592663 0.0397469 0)
(0.593065 0.0427439 0)
(0.593654 0.0458189 0)
(0.594438 0.0489561 0)
(0.595423 0.0521355 0)
(0.596607 0.055334 0)
(0.597983 0.0585254 0)
(0.599535 0.0616826 0)
(0.601243 0.0647793 0)
(0.603072 0.067795 0)
(0.0997358 -0.00618462 0)
(0.102416 -0.0122805 0)
(0.106278 -0.017636 0)
(0.111286 -0.0225387 0)
(0.11748 -0.0271332 0)
(0.124786 -0.0315302 0)
(0.133164 -0.0358423 0)
(0.14263 -0.0401714 0)
(0.153245 -0.0445926 0)
(0.165086 -0.0491413 0)
(0.178214 -0.053803 0)
(0.19265 -0.058512 0)
(0.208342 -0.0631605 0)
(0.22517 -0.0676163 0)
(0.24295 -0.0717436 0)
(0.261456 -0.0754209 0)
(0.280444 -0.0785538 0)
(0.299672 -0.0810795 0)
(0.318913 -0.0829677 0)
(0.337969 -0.0842159 0)
(0.35667 -0.084844 0)
(0.374878 -0.0848883 0)
(0.392483 -0.0843961 0)
(0.409403 -0.0834206 0)
(0.425577 -0.0820176 0)
(0.440965 -0.0802425 0)
(0.455542 -0.0781487 0)
(0.469297 -0.0757863 0)
(0.48223 -0.0732014 0)
(0.494347 -0.0704356 0)
(0.505663 -0.0675263 0)
(0.516197 -0.0645066 0)
(0.525972 -0.0614054 0)
(0.535014 -0.058248 0)
(0.54335 -0.0550563 0)
(0.55101 -0.051849 0)
(0.558023 -0.0486422 0)
(0.564419 -0.0454494 0)
(0.570229 -0.042282 0)
(0.575482 -0.0391495 0)
(0.580208 -0.0360594 0)
(0.584436 -0.0330181 0)
(0.588195 -0.0300304 0)
(0.591513 -0.0270997 0)
(0.594417 -0.0242285 0)
(0.596933 -0.0214181 0)
(0.599087 -0.0186691 0)
(0.600904 -0.0159807 0)
(0.60241 -0.0133518 0)
(0.603626 -0.0107799 0)
(0.604577 -0.00826208 0)
(0.605286 -0.00579445 0)
(0.605774 -0.00337241 0)
(0.60606 -0.000991027 0)
(0.606175 0.00135602 0)
(0.60613 0.0036752 0)
(0.605946 0.00597458 0)
(0.605645 0.00826255 0)
(0.605245 0.0105476 0)
(0.604766 0.0128385 0)
(0.604225 0.0151439 0)
(0.603643 0.0174728 0)
(0.603037 0.0198339 0)
(0.602428 0.0222355 0)
(0.601833 0.0246853 0)
(0.601272 0.0271901 0)
(0.600764 0.0297556 0)
(0.600326 0.032386 0)
(0.599976 0.0350834 0)
(0.59973 0.0378481 0)
(0.599605 0.0406777 0)
(0.599613 0.0435671 0)
(0.599764 0.0465086 0)
(0.600067 0.0494914 0)
(0.600526 0.0525024 0)
(0.60114 0.055526 0)
(0.601906 0.058545 0)
(0.602812 0.0615414 0)
(0.603846 0.0644973 0)
(0.604989 0.067396 0)
(0.606216 0.0702269 0)
(0.0996076 -0.00681446 0)
(0.102333 -0.0135996 0)
(0.106184 -0.0195947 0)
(0.111151 -0.0251046 0)
(0.117319 -0.0302923 0)
(0.12464 -0.0352866 0)
(0.133098 -0.0402238 0)
(0.14275 -0.0452308 0)
(0.1537 -0.0504004 0)
(0.166063 -0.0557701 0)
(0.179917 -0.061308 0)
(0.195269 -0.0669134 0)
(0.212028 -0.0724336 0)
(0.230015 -0.0776916 0)
(0.248983 -0.0825151 0)
(0.268649 -0.0867592 0)
(0.288725 -0.0903188 0)
(0.308938 -0.0931317 0)
(0.329047 -0.0951757 0)
(0.348846 -0.0964609 0)
(0.368168 -0.0970224 0)
(0.386882 -0.0969117 0)
(0.404888 -0.0961907 0)
(0.422115 -0.0949261 0)
(0.438515 -0.0931854 0)
(0.454059 -0.0910343 0)
(0.468733 -0.0885349 0)
(0.482535 -0.0857447 0)
(0.495473 -0.0827158 0)
(0.507563 -0.0794949 0)
(0.518825 -0.0761235 0)
(0.529284 -0.0726381 0)
(0.538968 -0.0690703 0)
(0.547905 -0.0654476 0)
(0.556128 -0.0617936 0)
(0.563668 -0.0581286 0)
(0.570556 -0.0544694 0)
(0.576824 -0.0508306 0)
(0.582503 -0.0472241 0)
(0.587626 -0.0436597 0)
(0.592221 -0.0401456 0)
(0.596319 -0.0366881 0)
(0.599948 -0.0332921 0)
(0.603136 -0.0299613 0)
(0.605911 -0.0266979 0)
(0.6083 -0.0235034 0)
(0.610327 -0.0203782 0)
(0.612018 -0.0173217 0)
(0.613398 -0.0143323 0)
(0.614489 -0.011408 0)
(0.615315 -0.00854557 0)
(0.615899 -0.00574124 0)
(0.616262 -0.00299051 0)
(0.616425 -0.000289348 0)
(0.616416 0.00236884 0)
(0.616246 0.00499132 0)
(0.615939 0.0075859 0)
(0.615513 0.0101602 0)
(0.614988 0.0127217 0)
(0.614383 0.0152782 0)
(0.613716 0.0178372 0)
(0.613005 0.0204061 0)
(0.61227 0.0229918 0)
(0.611527 0.0256008 0)
(0.610795 0.0282386 0)
(0.610091 0.0309098 0)
(0.609431 0.033618 0)
(0.608831 0.036365 0)
(0.608306 0.0391513 0)
(0.607869 0.0419755 0)
(0.607531 0.0448343 0)
(0.607301 0.0477224 0)
(0.607187 0.0506329 0)
(0.607192 0.0535569 0)
(0.607318 0.0564841 0)
(0.607561 0.0594032 0)
(0.607917 0.0623023 0)
(0.608377 0.0651692 0)
(0.608928 0.0679925 0)
(0.609555 0.0707622 0)
(0.61024 0.0734734 0)
(0.0994643 -0.00748194 0)
(0.102254 -0.0149972 0)
(0.106118 -0.0216757 0)
(0.111066 -0.027841 0)
(0.117239 -0.0336787 0)
(0.124623 -0.0393432 0)
(0.133239 -0.0450036 0)
(0.143198 -0.0508186 0)
(0.154662 -0.0568995 0)
(0.167779 -0.0632767 0)
(0.182629 -0.0698829 0)
(0.199176 -0.0765605 0)
(0.217259 -0.0830938 0)
(0.236618 -0.0892502 0)
(0.256927 -0.0948193 0)
(0.277846 -0.0996369 0)
(0.299047 -0.103596 0)
(0.320234 -0.106643 0)
(0.341162 -0.108772 0)
(0.361627 -0.110014 0)
(0.381473 -0.110424 0)
(0.400584 -0.110071 0)
(0.418875 -0.109036 0)
(0.436291 -0.1074 0)
(0.452799 -0.105244 0)
(0.468384 -0.102643 0)
(0.483043 -0.0996691 0)
(0.496787 -0.0963868 0)
(0.509632 -0.0928541 0)
(0.521602 -0.0891225 0)
(0.532724 -0.0852372 0)
(0.543029 -0.0812379 0)
(0.552549 -0.0771585 0)
(0.561317 -0.0730283 0)
(0.569367 -0.0688724 0)
(0.576733 -0.064712 0)
(0.583448 -0.0605649 0)
(0.589547 -0.0564462 0)
(0.59506 -0.0523682 0)
(0.600021 -0.048341 0)
(0.604459 -0.0443728 0)
(0.608404 -0.04047 0)
(0.611886 -0.0366376 0)
(0.614932 -0.0328791 0)
(0.61757 -0.0291969 0)
(0.619825 -0.0255923 0)
(0.621723 -0.0220655 0)
(0.623289 -0.0186159 0)
(0.624546 -0.0152422 0)
(0.625519 -0.0119422 0)
(0.62623 -0.00871285 0)
(0.626701 -0.00555072 0)
(0.626952 -0.0024516 0)
(0.627012 0.000589301 0)
(0.626893 0.00357767 0)
(0.626616 0.00652121 0)
(0.626202 0.00942715 0)
(0.62567 0.0123023 0)
(0.625038 0.0151532 0)
(0.624325 0.0179866 0)
(0.623548 0.0208088 0)
(0.622726 0.0236257 0)
(0.621875 0.0264429 0)
(0.621013 0.029265 0)
(0.620155 0.032096 0)
(0.619316 0.0349391 0)
(0.618512 0.037796 0)
(0.617755 0.0406676 0)
(0.617057 0.0435533 0)
(0.616428 0.0464512 0)
(0.615878 0.049358 0)
(0.615413 0.0522692 0)
(0.615037 0.0551793 0)
(0.614751 0.0580814 0)
(0.614557 0.0609683 0)
(0.61445 0.0638321 0)
(0.614425 0.066665 0)
(0.614474 0.0694592 0)
(0.614588 0.072208 0)
(0.614756 0.0749055 0)
(0.614964 0.0775506 0)
(0.0993027 -0.00819308 0)
(0.10218 -0.0164855 0)
(0.106082 -0.0238974 0)
(0.111038 -0.0307751 0)
(0.117258 -0.0373338 0)
(0.124773 -0.0437651 0)
(0.133661 -0.050283 0)
(0.144104 -0.0570855 0)
(0.156321 -0.0642966 0)
(0.170486 -0.0719194 0)
(0.186644 -0.0798211 0)