/*--------------------------------*- C++ -*----------------------------------*\
  =========                 |
  \\      /  F ield         | OpenFOAM: The Open Source CFD Toolbox
   \\    /   O peration     | Website:  https://openfoam.org
    \\  /    A nd           | Version:  7
     \\/     M anipulation  |
\*---------------------------------------------------------------------------*/
FoamFile
{
    version     2.0;
    format      ascii;
    class       surfaceScalarField;
    location    "0.19";
    object      phi;
}
// * * * * * * * * * * * * * * * * * * * * * * * * * * * * * * * * * * * * * //

dimensions      [1 0 -1 0 0 0 0];

internalField   nonuniform List<scalar> 
23692
(
1.16074e-05
2.75638e-08
1.15646e-05
4.28273e-08
1.15269e-05
3.76127e-08
1.15019e-05
2.50872e-08
1.14849e-05
1.69693e-08
1.14703e-05
1.45477e-08
1.14552e-05
1.50995e-08
1.14388e-05
1.64197e-08
1.14213e-05
1.75687e-08
1.14029e-05
1.83486e-08
1.13841e-05
1.88243e-08
1.1365e-05
1.90998e-08
1.13457e-05
1.92555e-08
1.13264e-05
1.93404e-08
1.1307e-05
1.93845e-08
1.12876e-05
1.9406e-08
1.12682e-05
1.94172e-08
1.12487e-05
1.94258e-08
1.12293e-05
1.94382e-08
1.12099e-05
1.94593e-08
1.11904e-05
1.94927e-08
1.11708e-05
1.95418e-08
1.11512e-05
1.9609e-08
1.11315e-05
1.96963e-08
1.11117e-05
1.98036e-08
1.10918e-05
1.99299e-08
1.10717e-05
2.00739e-08
1.10515e-05
2.0233e-08
1.10311e-05
2.04045e-08
1.10105e-05
2.05854e-08
1.09897e-05
2.07725e-08
1.09687e-05
2.0963e-08
1.09476e-05
2.11547e-08
1.09262e-05
2.13455e-08
1.09047e-05
2.15336e-08
1.0883e-05
2.17175e-08
1.08611e-05
2.1897e-08
1.0839e-05
2.20715e-08
1.08168e-05
2.22417e-08
1.07944e-05
2.24078e-08
1.07718e-05
2.25703e-08
1.07491e-05
2.273e-08
1.07262e-05
2.28884e-08
1.07031e-05
2.30466e-08
1.06799e-05
2.3207e-08
1.06565e-05
2.33722e-08
1.0633e-05
2.35451e-08
1.06093e-05
2.37292e-08
1.05853e-05
2.39287e-08
1.05612e-05
2.41483e-08
1.05368e-05
2.43935e-08
1.05121e-05
2.46712e-08
1.04871e-05
2.49894e-08
1.04618e-05
2.53571e-08
1.0436e-05
2.57855e-08
1.04097e-05
2.62875e-08
1.03828e-05
2.68796e-08
1.03552e-05
2.75812e-08
1.03268e-05
2.84169e-08
1.02974e-05
2.94173e-08
1.02668e-05
3.06207e-08
1.02347e-05
3.20765e-08
1.02009e-05
3.38474e-08
1.01648e-05
3.60152e-08
1.01262e-05
3.8687e-08
1.00842e-05
4.20055e-08
1.0038e-05
4.61625e-08
9.98657e-06
5.14213e-08
9.92842e-06
5.81477e-08
9.86156e-06
6.68598e-08
9.78326e-06
7.83045e-08
9.68968e-06
9.35796e-08
9.57535e-06
1.14328e-07
9.43229e-06
1.43052e-07
9.24867e-06
1.83622e-07
9.00659e-06
2.42083e-07
8.67868e-06
3.27904e-07
8.22269e-06
4.55991e-07
7.57148e-06
6.51215e-07
6.61213e-06
9.59347e-07
1.50128e-06
5.11085e-06
1.24217e-05
5.57743e-08
1.23768e-05
8.77049e-08
1.23369e-05
7.7583e-08
1.23098e-05
5.21093e-08
1.22914e-05
3.54584e-08
1.22755e-05
3.03956e-08
1.22592e-05
3.14268e-08
1.22415e-05
3.40625e-08
1.22227e-05
3.63752e-08
1.22031e-05
3.795e-08
1.2183e-05
3.89129e-08
1.21627e-05
3.94715e-08
1.21421e-05
3.97872e-08
1.21215e-05
3.99593e-08
1.21009e-05
4.00492e-08
1.20802e-05
4.0094e-08
1.20595e-05
4.01175e-08
1.20388e-05
4.01371e-08
1.2018e-05
4.01646e-08
1.19973e-05
4.021e-08
1.19765e-05
4.02814e-08
1.19556e-05
4.03847e-08
1.19347e-05
4.05259e-08
1.19137e-05
4.07079e-08
1.18926e-05
4.09308e-08
1.18713e-05
4.1193e-08
1.18499e-05
4.14912e-08
1.18283e-05
4.18207e-08
1.18065e-05
4.2175e-08
1.17846e-05
4.25481e-08
1.17624e-05
4.2934e-08
1.174e-05
4.33266e-08
1.17175e-05
4.37216e-08
1.16947e-05
4.41147e-08
1.16717e-05
4.45018e-08
1.16486e-05
4.48803e-08
1.16252e-05
4.52489e-08
1.16017e-05
4.56077e-08
1.1578e-05
4.59571e-08
1.15541e-05
4.62979e-08
1.153e-05
4.66311e-08
1.15058e-05
4.69585e-08
1.14814e-05
4.72823e-08
1.14568e-05
4.76059e-08
1.14321e-05
4.79335e-08
1.14072e-05
4.82704e-08
1.13821e-05
4.86228e-08
1.13569e-05
4.8998e-08
1.13314e-05
4.9404e-08
1.13057e-05
4.98505e-08
1.12797e-05
5.03491e-08
1.12535e-05
5.09136e-08
1.12269e-05
5.15598e-08
1.12e-05
5.23065e-08
1.11726e-05
5.3176e-08
1.11447e-05
5.41951e-08
1.11161e-05
5.53962e-08
1.10869e-05
5.68189e-08
1.10568e-05
5.85125e-08
1.10257e-05
6.05383e-08
1.09933e-05
6.29733e-08
1.09595e-05
6.59151e-08
1.09239e-05
6.94887e-08
1.0886e-05
7.38551e-08
1.08455e-05
7.92242e-08
1.08016e-05
8.58737e-08
1.07536e-05
9.41742e-08
1.07004e-05
1.04628e-07
1.06406e-05
1.17925e-07
1.05724e-05
1.35028e-07
1.04935e-05
1.57299e-07
1.04003e-05
1.86697e-07
1.02886e-05
2.26073e-07
1.0152e-05
2.79623e-07
9.9821e-06
3.53543e-07
9.76726e-06
4.56924e-07
9.49245e-06
6.02714e-07
9.14013e-06
8.0831e-07
8.69613e-06
1.09521e-06
8.17522e-06
1.48025e-06
1.91404e-06
7.76247e-06
1.32944e-05
8.33249e-08
1.32487e-05
1.33446e-07
1.32068e-05
1.19423e-07
1.31775e-05
8.14416e-08
1.31569e-05
5.60818e-08
1.31392e-05
4.80455e-08
1.31214e-05
4.9299e-08
1.31023e-05
5.31007e-08
1.30822e-05
5.65042e-08
1.30613e-05
5.8842e-08
1.30399e-05
6.02789e-08
1.30183e-05
6.11152e-08
1.29965e-05
6.15884e-08
1.29746e-05
6.1848e-08
1.29527e-05
6.19844e-08
1.29307e-05
6.20542e-08
1.29087e-05
6.20937e-08
1.28867e-05
6.21279e-08
1.28647e-05
6.2176e-08
1.28427e-05
6.22521e-08
1.28206e-05
6.2369e-08
1.27985e-05
6.25356e-08
1.27762e-05
6.27599e-08
1.27539e-05
6.30463e-08
1.27314e-05
6.33957e-08
1.27088e-05
6.38048e-08
1.2686e-05
6.42682e-08
1.26631e-05
6.47787e-08
1.26399e-05
6.5327e-08
1.26166e-05
6.59037e-08
1.2593e-05
6.64991e-08
1.25692e-05
6.71043e-08
1.25452e-05
6.77122e-08
1.2521e-05
6.83167e-08
1.24966e-05
6.89117e-08
1.2472e-05
6.9493e-08
1.24472e-05
7.00586e-08
1.24222e-05
7.06084e-08
1.2397e-05
7.11433e-08
1.23716e-05
7.1664e-08
1.23461e-05
7.21725e-08
1.23204e-05
7.26713e-08
1.22945e-05
7.3164e-08
1.22684e-05
7.36557e-08
1.22422e-05
7.41524e-08
1.22158e-05
7.46623e-08
1.21893e-05
7.51952e-08
1.21625e-05
7.57613e-08
1.21355e-05
7.63732e-08
1.21083e-05
7.70457e-08
1.20809e-05
7.77961e-08
1.20531e-05
7.86448e-08
1.20251e-05
7.9616e-08
1.19967e-05
8.07379e-08
1.19678e-05
8.20439e-08
1.19384e-05
8.35738e-08
1.19084e-05
8.5376e-08
1.18777e-05
8.75097e-08
1.18462e-05
9.00476e-08
1.18137e-05
9.30802e-08
1.17799e-05
9.67205e-08
1.17447e-05
1.01111e-07
1.17078e-05
1.06433e-07
1.16687e-05
1.12917e-07
1.16271e-05
1.20864e-07
1.15823e-05
1.30662e-07
1.15336e-05
1.42828e-07
1.14802e-05
1.58048e-07
1.14209e-05
1.77246e-07
1.13542e-05
2.01683e-07
1.12784e-05
2.33092e-07
1.11913e-05
2.73881e-07
1.10899e-05
3.27413e-07
1.09712e-05
3.98379e-07
1.08314e-05
4.93249e-07
1.06677e-05
6.20674e-07
1.0479e-05
7.91392e-07
1.02706e-05
1.01669e-06
1.00626e-05
1.30326e-06
9.90588e-06
1.63697e-06
1.93814e-06
9.88178e-06
1.42295e-05
1.08906e-07
1.41845e-05
1.78491e-07
1.41414e-05
1.62563e-07
1.41094e-05
1.13408e-07
1.4086e-05
7.94712e-08
1.4066e-05
6.80393e-08
1.40462e-05
6.90626e-08
1.40256e-05
7.37211e-08
1.40041e-05
7.80412e-08
1.39819e-05
8.10537e-08
1.39592e-05
8.29212e-08
1.39363e-05
8.40138e-08
1.39133e-05
8.4635e-08
1.38902e-05
8.49773e-08
1.3867e-05
8.51602e-08
1.38438e-05
8.5257e-08
1.38206e-05
8.53172e-08
1.37973e-05
8.53737e-08
1.3774e-05
8.5451e-08
1.37507e-05
8.55685e-08
1.37273e-05
8.57423e-08
1.37039e-05
8.59845e-08
1.36803e-05
8.63048e-08
1.36567e-05
8.6709e-08
1.36329e-05
8.71975e-08
1.36089e-05
8.77659e-08
1.35848e-05
8.84066e-08
1.35604e-05
8.91099e-08
1.35359e-05
8.9863e-08
1.35112e-05
9.06529e-08
1.34862e-05
9.14672e-08
1.3461e-05
9.22933e-08
1.34356e-05
9.3122e-08
1.341e-05
9.39445e-08
1.33841e-05
9.47533e-08
1.33581e-05
9.55424e-08
1.33318e-05
9.63094e-08
1.33054e-05
9.70536e-08
1.32787e-05
9.77759e-08
1.32519e-05
9.84779e-08
1.32249e-05
9.91617e-08
1.31978e-05
9.9831e-08
1.31704e-05
1.00491e-07
1.3143e-05
1.01147e-07
1.31153e-05
1.01808e-07
1.30875e-05
1.02486e-07
1.30595e-05
1.03192e-07
1.30313e-05
1.0394e-07
1.30029e-05
1.04748e-07
1.29743e-05
1.05634e-07
1.29455e-05
1.06621e-07
1.29164e-05
1.07737e-07
1.2887e-05
1.09013e-07
1.28573e-05
1.10486e-07
1.28271e-05
1.122e-07
1.27965e-05
1.14207e-07
1.27653e-05
1.1657e-07
1.27334e-05
1.19365e-07
1.27008e-05
1.22686e-07
1.26672e-05
1.26649e-07
1.26325e-05
1.31398e-07
1.25965e-05
1.37112e-07
1.2559e-05
1.44017e-07
1.25195e-05
1.52399e-07
1.24777e-05
1.62621e-07
1.24332e-05
1.75153e-07
1.23855e-05
1.90598e-07
1.23338e-05
2.09747e-07
1.22774e-05
2.33632e-07
1.22154e-05
2.6362e-07
1.2147e-05
3.01517e-07
1.20712e-05
3.49719e-07
1.19872e-05
4.11388e-07
1.18949e-05
4.90634e-07
1.17955e-05
5.92639e-07
1.16927e-05
7.23506e-07
1.15947e-05
8.89394e-07
1.15173e-05
1.09407e-06
1.14871e-05
1.33344e-06
1.15398e-05
1.58426e-06
1.78623e-06
1.16918e-05
1.52312e-05
1.31335e-07
1.51884e-05
2.2132e-07
1.51446e-05
2.06322e-07
1.51098e-05
1.48173e-07
1.50832e-05
1.06147e-07
1.50603e-05
9.08673e-08
1.50384e-05
9.10491e-08
1.5016e-05
9.61064e-08
1.49929e-05
1.01069e-07
1.49694e-05
1.04609e-07
1.49455e-05
1.06831e-07
1.49214e-05
1.08141e-07
1.48971e-05
1.0889e-07
1.48728e-05
1.09306e-07
1.48484e-05
1.09533e-07
1.4824e-05
1.09661e-07
1.47996e-05
1.09749e-07
1.47751e-05
1.09837e-07
1.47506e-05
1.09956e-07
1.4726e-05
1.1013e-07
1.47014e-05
1.10376e-07
1.46767e-05
1.10711e-07
1.46518e-05
1.11144e-07
1.46268e-05
1.11682e-07
1.46017e-05
1.12325e-07
1.45764e-05
1.13067e-07
1.45509e-05
1.13898e-07
1.45252e-05
1.14806e-07
1.44993e-05
1.15774e-07
1.44732e-05
1.16786e-07
1.44468e-05
1.17827e-07
1.44202e-05
1.1888e-07
1.43934e-05
1.19934e-07
1.43664e-05
1.20978e-07
1.43391e-05
1.22003e-07
1.43117e-05
1.23001e-07
1.4284e-05
1.2397e-07
1.42562e-05
1.24907e-07
1.42281e-05
1.25814e-07
1.41999e-05
1.26693e-07
1.41715e-05
1.27547e-07
1.4143e-05
1.2838e-07
1.41143e-05
1.29197e-07
1.40854e-05
1.30008e-07
1.40564e-05
1.30822e-07
1.40272e-05
1.31653e-07
1.39979e-05
1.32515e-07
1.39684e-05
1.33426e-07
1.39387e-05
1.34407e-07
1.39089e-05
1.3548e-07
1.38788e-05
1.36674e-07
1.38486e-05
1.38021e-07
1.3818e-05
1.3956e-07
1.37872e-05
1.41335e-07
1.3756e-05
1.43399e-07
1.37244e-05
1.45814e-07
1.36923e-05
1.48656e-07
1.36596e-05
1.52014e-07
1.36263e-05
1.56e-07
1.35922e-05
1.60747e-07
1.35572e-05
1.66422e-07
1.35211e-05
1.73229e-07
1.34837e-05
1.81424e-07
1.34447e-05
1.91322e-07
1.3404e-05
2.0332e-07
1.33613e-05
2.17917e-07
1.33161e-05
2.35742e-07
1.32683e-05
2.57591e-07
1.32174e-05
2.84471e-07
1.31634e-05
3.17658e-07
1.31062e-05
3.58759e-07
1.30461e-05
4.09776e-07
1.29843e-05
4.73167e-07
1.29231e-05
5.51837e-07
1.28668e-05
6.4901e-07
1.28225e-05
7.67786e-07
1.28018e-05
9.101e-07
1.28212e-05
1.07462e-06
1.29016e-05
1.25307e-06
1.3061e-05
1.42488e-06
1.55226e-06
1.32949e-05
1.63036e-05
1.49805e-07
1.62642e-05
2.60697e-07
1.62206e-05
2.49974e-07
1.61831e-05
1.85656e-07
1.61528e-05
1.36394e-07
1.61268e-05
1.16874e-07
1.61024e-05
1.15521e-07
1.60781e-05
1.20414e-07
1.60535e-05
1.25663e-07
1.60285e-05
1.29528e-07
1.60034e-05
1.31997e-07
1.59781e-05
1.33467e-07
1.59526e-05
1.34314e-07
1.59271e-05
1.34791e-07
1.59016e-05
1.35058e-07
1.58761e-05
1.35219e-07
1.58505e-05
1.35343e-07
1.58248e-05
1.35477e-07
1.57991e-05
1.35654e-07
1.57734e-05
1.35902e-07
1.57475e-05
1.36241e-07
1.57215e-05
1.36688e-07
1.56954e-05
1.37254e-07
1.56691e-05
1.37946e-07
1.56427e-05
1.38761e-07
1.56161e-05
1.39693e-07
1.55892e-05
1.40728e-07
1.55622e-05
1.41852e-07
1.55349e-05
1.43044e-07
1.55074e-05
1.44286e-07
1.54797e-05
1.45558e-07
1.54517e-05
1.46841e-07
1.54235e-05
1.48122e-07
1.53951e-05
1.49388e-07
1.53665e-05
1.50627e-07
1.53377e-05
1.51831e-07
1.53086e-05
1.52996e-07
1.52794e-05
1.5412e-07
1.525e-05
1.55204e-07
1.52205e-05
1.5625e-07
1.51908e-05
1.57261e-07
1.51609e-05
1.58243e-07
1.51309e-05
1.59203e-07
1.51008e-05
1.60149e-07
1.50705e-05
1.61095e-07
1.50401e-05
1.62054e-07
1.50096e-05
1.63044e-07
1.49789e-05
1.64085e-07
1.49481e-05
1.652e-07
1.49172e-05
1.66417e-07
1.48861e-05
1.67767e-07
1.48548e-05
1.69288e-07
1.48233e-05
1.71022e-07
1.47916e-05
1.73021e-07
1.47597e-05
1.75343e-07
1.47275e-05
1.78058e-07
1.46949e-05
1.81249e-07
1.46619e-05
1.85016e-07
1.46284e-05
1.8948e-07
1.45943e-05
1.94785e-07
1.45597e-05
2.01108e-07
1.45242e-05
2.08665e-07
1.44879e-05
2.17718e-07
1.44507e-05
2.28586e-07
1.44123e-05
2.41662e-07
1.43728e-05
2.57423e-07
1.43321e-05
2.76456e-07
1.42902e-05
2.99471e-07
1.42474e-05
3.27333e-07
1.42039e-05
3.61073e-07
1.41608e-05
4.0191e-07
1.41193e-05
4.51243e-07
1.40819e-05
5.10614e-07
1.40521e-05
5.81594e-07
1.40356e-05
6.65543e-07
1.40402e-05
7.63153e-07
1.40767e-05
8.7362e-07
1.4158e-05
9.93333e-07
1.4297e-05
1.11407e-06
1.45008e-05
1.22111e-06
1.29311e-06
1.47599e-05
1.74511e-05
1.64015e-07
1.7416e-05
2.95832e-07
1.73732e-05
2.9283e-07
1.73333e-05
2.25513e-07
1.72995e-05
1.70194e-07
1.72702e-05
1.46195e-07
1.72431e-05
1.42629e-07
1.72167e-05
1.46753e-07
1.71905e-05
1.51881e-07
1.71642e-05
1.55831e-07
1.71378e-05
1.5841e-07
1.71113e-05
1.59967e-07
1.70847e-05
1.60872e-07
1.70581e-05
1.6139e-07
1.70315e-05
1.61692e-07
1.70048e-05
1.61889e-07
1.69781e-05
1.6206e-07
1.69513e-05
1.62254e-07
1.69245e-05
1.62509e-07
1.68975e-05
1.62853e-07
1.68705e-05
1.63308e-07
1.68433e-05
1.63892e-07
1.68159e-05
1.64613e-07
1.67884e-05
1.65479e-07
1.67606e-05
1.66486e-07
1.67327e-05
1.67625e-07
1.67046e-05
1.68878e-07
1.66762e-05
1.70228e-07
1.66476e-05
1.71653e-07
1.66187e-05
1.73129e-07
1.65896e-05
1.74634e-07
1.65603e-05
1.76148e-07
1.65308e-05
1.77653e-07
1.65011e-05
1.79135e-07
1.64711e-05
1.80582e-07
1.64409e-05
1.81983e-07
1.64106e-05
1.83334e-07
1.63801e-05
1.84633e-07
1.63494e-05
1.85879e-07
1.63186e-05
1.87074e-07
1.62876e-05
1.88223e-07
1.62565e-05
1.89332e-07
1.62253e-05
1.90408e-07
1.6194e-05
1.91461e-07
1.61626e-05
1.92505e-07
1.61311e-05
1.93555e-07
1.60995e-05
1.94631e-07
1.60678e-05
1.95754e-07
1.60361e-05
1.9695e-07
1.60043e-05
1.98248e-07
1.59724e-05
1.99682e-07
1.59403e-05
2.01292e-07
1.59082e-05
2.03125e-07
1.5876e-05
2.05234e-07
1.58437e-05
2.07682e-07
1.58112e-05
2.10542e-07
1.57786e-05
2.13901e-07
1.57457e-05
2.17861e-07
1.57126e-05
2.22545e-07
1.56793e-05
2.28099e-07
1.56457e-05
2.34696e-07
1.56119e-05
2.42545e-07
1.55777e-05
2.51893e-07
1.55432e-05
2.63036e-07
1.55086e-05
2.76323e-07
1.54738e-05
2.92168e-07
1.54392e-05
3.11053e-07
1.54052e-05
3.33539e-07
1.53722e-05
3.60265e-07
1.53414e-05
3.91938e-07
1.5314e-05
4.29314e-07
1.5292e-05
4.73153e-07
1.52785e-05
5.24133e-07
1.52774e-05
5.8271e-07
1.52941e-05
6.48893e-07
1.53353e-05
7.21905e-07
1.54092e-05
7.99698e-07
1.55242e-05
8.78333e-07
1.56869e-05
9.51352e-07
1.58986e-05
1.0095e-06
1.0416e-06
1.61501e-05
1.86786e-05
1.74151e-07
1.8648e-05
3.26428e-07
1.86065e-05
3.34315e-07
1.85648e-05
2.6719e-07
1.85278e-05
2.07237e-07
1.84952e-05
1.78741e-07
1.84655e-05
1.72394e-07
1.84371e-05
1.75173e-07
1.84092e-05
1.79761e-07
1.83815e-05
1.83532e-07
1.83538e-05
1.86068e-07
1.83262e-05
1.87623e-07
1.82985e-05
1.88538e-07
1.82708e-05
1.89073e-07
1.82431e-05
1.89401e-07
1.82154e-05
1.89639e-07
1.81875e-05
1.89868e-07
1.81597e-05
1.90139e-07
1.81317e-05
1.90491e-07
1.81036e-05
1.90955e-07
1.80753e-05
1.91552e-07
1.80469e-05
1.92297e-07
1.80183e-05
1.93199e-07
1.79896e-05
1.94262e-07
1.79606e-05
1.9548e-07
1.79313e-05
1.96841e-07
1.79019e-05
1.98325e-07
1.78722e-05
1.99911e-07
1.78423e-05
2.01573e-07
1.78121e-05
2.03285e-07
1.77817e-05
2.05023e-07
1.77511e-05
2.06763e-07
1.77203e-05
2.08485e-07
1.76893e-05
2.10174e-07
1.7658e-05
2.11815e-07
1.76266e-05
2.13399e-07
1.7595e-05
2.14919e-07
1.75633e-05
2.16372e-07
1.75314e-05
2.17757e-07
1.74994e-05
2.19077e-07
1.74673e-05
2.20335e-07
1.74351e-05
2.21538e-07
1.74028e-05
2.22694e-07
1.73704e-05
2.23814e-07
1.7338e-05
2.24911e-07
1.73056e-05
2.26002e-07
1.72731e-05
2.27105e-07
1.72406e-05
2.28244e-07
1.72081e-05
2.29445e-07
1.71756e-05
2.30738e-07
1.71431e-05
2.32157e-07
1.71107e-05
2.33744e-07
1.70783e-05
2.35545e-07
1.70459e-05
2.37614e-07
1.70136e-05
2.40014e-07
1.69813e-05
2.42817e-07
1.69491e-05
2.46106e-07
1.6917e-05
2.49981e-07
1.68849e-05
2.54557e-07
1.68531e-05
2.59968e-07
1.68214e-05
2.66374e-07
1.679e-05
2.73957e-07
1.67589e-05
2.8293e-07
1.67284e-05
2.93539e-07
1.66987e-05
3.06061e-07
1.66701e-05
3.2081e-07
1.6643e-05
3.38132e-07
1.66181e-05
3.584e-07
1.65964e-05
3.81998e-07
1.6579e-05
4.09299e-07
1.65677e-05
4.40629e-07
1.65647e-05
4.76201e-07
1.65728e-05
5.1604e-07
1.65956e-05
5.59859e-07
1.66376e-05
6.06909e-07
1.67037e-05
6.5579e-07
1.67992e-05
7.04245e-07
1.69285e-05
7.48975e-07
1.70943e-05
7.85571e-07
1.7295e-05
8.08745e-07
8.131e-07
1.75235e-05
1.99912e-05
1.8075e-07
1.9965e-05
3.52605e-07
1.99253e-05
3.73999e-07
1.98825e-05
3.10025e-07
1.98427e-05
2.47e-07
1.98072e-05
2.1423e-07
1.97749e-05
2.04713e-07
1.97444e-05
2.05656e-07
1.97149e-05
2.09311e-07
1.96858e-05
2.1264e-07
1.96569e-05
2.14968e-07
1.96281e-05
2.16425e-07
1.95993e-05
2.17295e-07
1.95706e-05
2.17819e-07
1.95418e-05
2.18163e-07
1.9513e-05
2.18444e-07
1.94841e-05
2.18741e-07
1.94552e-05
2.19107e-07
1.94261e-05
2.1958e-07
1.93968e-05
2.20187e-07
1.93674e-05
2.20951e-07
1.93378e-05
2.21883e-07
1.93081e-05
2.22989e-07
1.9278e-05
2.2427e-07
1.92478e-05
2.25718e-07
1.92173e-05
2.27315e-07
1.91866e-05
2.2904e-07
1.91557e-05
2.30868e-07
1.91245e-05
2.32769e-07
1.9093e-05
2.34715e-07
1.90614e-05
2.36679e-07
1.90295e-05
2.38635e-07
1.89974e-05
2.40562e-07
1.89652e-05
2.42442e-07
1.89327e-05
2.44259e-07
1.89001e-05
2.46004e-07
1.88673e-05
2.47668e-07
1.88345e-05
2.49248e-07
1.88015e-05
2.50741e-07
1.87684e-05
2.5215e-07
1.87353e-05
2.53479e-07
1.87021e-05
2.54734e-07
1.86688e-05
2.55922e-07
1.86356e-05
2.57055e-07
1.86024e-05
2.58144e-07
1.85692e-05
2.59206e-07
1.8536e-05
2.6026e-07
1.85029e-05
2.61329e-07
1.84699e-05
2.62436e-07
1.84371e-05
2.63612e-07
1.84043e-05
2.64891e-07
1.83718e-05
2.6631e-07
1.83394e-05
2.67914e-07
1.83072e-05
2.69755e-07
1.82754e-05
2.71888e-07
1.82438e-05
2.74382e-07
1.82126e-05
2.77311e-07
1.81818e-05
2.80762e-07
1.81515e-05
2.84835e-07
1.81219e-05
2.89644e-07
1.80929e-05
2.95319e-07
1.80649e-05
3.02003e-07
1.80379e-05
3.09861e-07
1.80124e-05
3.19066e-07
1.79887e-05
3.29811e-07
1.79672e-05
3.42291e-07
1.79486e-05
3.56705e-07
1.79338e-05
3.73234e-07
1.79237e-05
3.92027e-07
1.79199e-05
4.13173e-07
1.79238e-05
4.36658e-07
1.79377e-05
4.62318e-07
1.7964e-05
4.89776e-07
1.80055e-05
5.18368e-07
1.80653e-05
5.47069e-07
1.81467e-05
5.74422e-07
1.82524e-05
5.98502e-07
1.83845e-05
6.16935e-07
1.8543e-05
6.2703e-07
1.87257e-05
6.26061e-07
6.11745e-07
1.8927e-05
2.13947e-05
1.84521e-07
2.13726e-05
3.74764e-07
2.1335e-05
4.11618e-07
2.12916e-05
3.53354e-07
2.12498e-05
2.8885e-07
2.12118e-05
2.52258e-07
2.11771e-05
2.39385e-07
2.11446e-05
2.38123e-07
2.11134e-05
2.40509e-07
2.10829e-05
2.43149e-07
2.10528e-05
2.45108e-07
2.10228e-05
2.46366e-07
2.0993e-05
2.47133e-07
2.09632e-05
2.47615e-07
2.09334e-05
2.47965e-07
2.09036e-05
2.48289e-07
2.08736e-05
2.48665e-07
2.08436e-05
2.49142e-07
2.08134e-05
2.49756e-07
2.07831e-05
2.50531e-07
2.07525e-05
2.51486e-07
2.07218e-05
2.52628e-07
2.06908e-05
2.53961e-07
2.06596e-05
2.55479e-07
2.06282e-05
2.5717e-07
2.05965e-05
2.59015e-07
2.05645e-05
2.60987e-07
2.05323e-05
2.63057e-07
2.04999e-05
2.65194e-07
2.04672e-05
2.67367e-07
2.04344e-05
2.69545e-07
2.04013e-05
2.71702e-07
2.03681e-05
2.73815e-07
2.03346e-05
2.75863e-07
2.03011e-05
2.7783e-07
2.02674e-05
2.79706e-07
2.02335e-05
2.81481e-07
2.01996e-05
2.83151e-07
2.01657e-05
2.84712e-07
2.01317e-05
2.86165e-07
2.00976e-05
2.87514e-07
2.00636e-05
2.88764e-07
2.00296e-05
2.89922e-07
1.99956e-05
2.90997e-07
1.99618e-05
2.92001e-07
1.9928e-05
2.92947e-07
1.98944e-05
2.93855e-07
1.9861e-05
2.94742e-07
1.98278e-05
2.95634e-07
1.97949e-05
2.96554e-07
1.97622e-05
2.97535e-07
1.97299e-05
2.98609e-07
1.9698e-05
2.99816e-07
1.96666e-05
3.01198e-07
1.96357e-05
3.02806e-07
1.96054e-05
3.04693e-07
1.95758e-05
3.06922e-07
1.9547e-05
3.0956e-07
1.95191e-05
3.12685e-07
1.94924e-05
3.16381e-07
1.9467e-05
3.20738e-07
1.94431e-05
3.25856e-07
1.94211e-05
3.31834e-07
1.94014e-05
3.38775e-07
1.93845e-05
3.46774e-07
1.93708e-05
3.55916e-07
1.93613e-05
3.66259e-07
1.93567e-05
3.77825e-07
1.93581e-05
3.90576e-07
1.93669e-05
4.04393e-07
1.93845e-05
4.19046e-07
1.94127e-05
4.34162e-07
1.94533e-05
4.49186e-07
1.95083e-05
4.63357e-07
1.95797e-05
4.75679e-07
1.96692e-05
4.84927e-07
1.9778e-05
4.89689e-07
1.99065e-05
4.88453e-07
2.00537e-05
4.79765e-07
2.02173e-05
4.62447e-07
4.35841e-07
2.03932e-05
2.28957e-05
1.86209e-07
2.2877e-05
3.93466e-07
2.28416e-05
4.47059e-07
2.27983e-05
3.96587e-07
2.2755e-05
3.32135e-07
2.2715e-05
2.92348e-07
2.26782e-05
2.76138e-07
2.26439e-05
2.72445e-07
2.26111e-05
2.73301e-07
2.25792e-05
2.7504e-07
2.25478e-05
2.76479e-07
2.25168e-05
2.7744e-07
2.24858e-05
2.78045e-07
2.2455e-05
2.78454e-07
2.24242e-05
2.78796e-07
2.23933e-05
2.79165e-07
2.23623e-05
2.79629e-07
2.23312e-05
2.80233e-07
2.23e-05
2.81007e-07
2.22685e-05
2.81971e-07
2.22369e-05
2.83136e-07
2.2205e-05
2.8451e-07
2.21729e-05
2.86086e-07
2.21405e-05
2.87854e-07
2.21079e-05
2.89799e-07
2.2075e-05
2.91896e-07
2.20419e-05
2.94115e-07
2.20085e-05
2.96424e-07
2.19749e-05
2.98788e-07
2.19411e-05
3.01172e-07
2.19071e-05
3.03547e-07
2.18729e-05
3.05883e-07
2.18386e-05
3.08154e-07
2.18041e-05
3.1034e-07
2.17695e-05
3.12423e-07
2.17348e-05
3.14392e-07
2.17001e-05
3.16236e-07
2.16653e-05
3.17948e-07
2.16304e-05
3.19524e-07
2.15956e-05
3.20963e-07
2.15609e-05
3.22268e-07
2.15262e-05
3.23442e-07
2.14916e-05
3.24491e-07
2.14572e-05
3.25421e-07
2.1423e-05
3.26242e-07
2.13889e-05
3.26966e-07
2.13552e-05
3.27606e-07
2.13218e-05
3.28179e-07
2.12887e-05
3.28704e-07
2.1256e-05
3.29203e-07
2.12239e-05
3.29698e-07
2.11923e-05
3.30218e-07
2.11613e-05
3.30791e-07
2.1131e-05
3.31452e-07
2.11016e-05
3.32235e-07
2.10731e-05
3.33181e-07
2.10457e-05
3.34332e-07
2.10195e-05
3.35732e-07
2.09948e-05
3.37432e-07
2.09717e-05
3.39478e-07
2.09505e-05
3.41922e-07
2.09315e-05
3.44809e-07
2.09152e-05
3.4818e-07
2.09019e-05
3.52064e-07
2.08922e-05
3.56472e-07
2.08867e-05
3.61391e-07
2.08862e-05
3.66771e-07
2.08915e-05
3.72515e-07
2.09036e-05
3.78463e-07
2.09237e-05
3.84377e-07
2.09528e-05
3.89922e-07
2.09923e-05
3.94654e-07
2.10435e-05
3.98003e-07
2.11076e-05
3.99273e-07
2.11856e-05
3.97651e-07
2.12783e-05
3.92239e-07
2.13858e-05
3.82119e-07
2.15078e-05
3.66449e-07
2.1643e-05
3.44595e-07
2.17892e-05
3.16267e-07
2.81635e-07
2.19434e-05
2.4501e-05
1.86486e-07
2.44851e-05
4.09332e-07
2.44518e-05
4.80342e-07
2.44091e-05
4.39253e-07
2.4365e-05
3.7625e-07
2.43234e-05
3.34013e-07
2.42848e-05
3.14661e-07
2.42488e-05
3.08449e-07
2.42145e-05
3.07601e-07
2.41813e-05
3.08273e-07
2.41487e-05
3.09063e-07
2.41165e-05
3.09639e-07
2.40846e-05
3.10026e-07
2.40527e-05
3.10331e-07
2.40208e-05
3.10652e-07
2.39889e-05
3.11064e-07
2.39569e-05
3.11624e-07
2.39248e-05
3.12368e-07
2.38925e-05
3.13318e-07
2.386e-05
3.14486e-07
2.38272e-05
3.1588e-07
2.37942e-05
3.17498e-07
2.3761e-05
3.19328e-07
2.37275e-05
3.21355e-07
2.36937e-05
3.23556e-07
2.36597e-05
3.25903e-07
2.36255e-05
3.28363e-07
2.3591e-05
3.30898e-07
2.35563e-05
3.33471e-07
2.35214e-05
3.36046e-07
2.34864e-05
3.38591e-07
2.34512e-05
3.41075e-07
2.34159e-05
3.4347e-07
2.33805e-05
3.45755e-07
2.3345e-05
3.47911e-07
2.33094e-05
3.49924e-07
2.32739e-05
3.51782e-07
2.32384e-05
3.53477e-07
2.32029e-05
3.55003e-07
2.31675e-05
3.56357e-07
2.31322e-05
3.57539e-07
2.30971e-05
3.5855e-07
2.30622e-05
3.59392e-07
2.30275e-05
3.60071e-07
2.29932e-05
3.60592e-07
2.29592e-05
3.60962e-07
2.29256e-05
3.61191e-07
2.28925e-05
3.61292e-07
2.28599e-05
3.61276e-07
2.2828e-05
3.61157e-07
2.27967e-05
3.60952e-07
2.27663e-05
3.60678e-07
2.27367e-05
3.60354e-07
2.27081e-05
3.59997e-07
2.26808e-05
3.5963e-07
2.26547e-05
3.59273e-07
2.263e-05
3.58946e-07
2.26071e-05
3.58668e-07
2.25861e-05
3.58458e-07
2.25672e-05
3.58329e-07
2.25509e-05
3.58288e-07
2.25373e-05
3.58335e-07
2.25271e-05
3.58454e-07
2.25205e-05
3.58616e-07
2.25182e-05
3.58764e-07
2.25208e-05
3.58816e-07
2.25289e-05
3.58648e-07
2.25433e-05
3.58094e-07
2.25649e-05
3.56933e-07
2.25944e-05
3.54883e-07
2.26327e-05
3.51592e-07
2.26807e-05
3.46639e-07
2.27392e-05
3.39529e-07
2.28087e-05
3.29711e-07
2.28898e-05
3.16596e-07
2.29824e-05
2.99597e-07
2.30864e-05
2.78196e-07
2.32008e-05
2.5202e-07
2.33244e-05
2.20944e-07
2.34555e-05
1.85169e-07
1.45274e-07
2.35919e-05
2.6218e-05
1.85918e-07
2.62043e-05
4.22979e-07
2.61731e-05
5.11589e-07
2.61313e-05
4.81013e-07
2.60869e-05
4.20673e-07
2.60442e-05
3.76784e-07
2.60042e-05
3.5462e-07
2.59667e-05
3.45931e-07
2.5931e-05
3.43297e-07
2.58965e-05
3.42786e-07
2.58627e-05
3.42827e-07
2.58294e-05
3.42942e-07
2.57964e-05
3.43062e-07
2.57635e-05
3.43234e-07
2.57306e-05
3.43521e-07
2.56977e-05
3.43975e-07
2.56647e-05
3.44636e-07
2.56315e-05
3.45529e-07
2.55982e-05
3.46667e-07
2.55646e-05
3.48052e-07
2.55308e-05
3.49683e-07
2.54968e-05
3.51552e-07
2.54625e-05
3.53641e-07
2.54279e-05
3.55926e-07
2.53931e-05
3.58378e-07
2.5358e-05
3.60965e-07
2.53227e-05
3.63649e-07
2.52872e-05
3.66389e-07
2.52515e-05
3.69147e-07
2.52157e-05
3.71883e-07
2.51797e-05
3.74563e-07
2.51436e-05
3.77155e-07
2.51075e-05
3.7963e-07
2.50713e-05
3.81965e-07
2.5035e-05
3.84139e-07
2.49988e-05
3.86136e-07
2.49627e-05
3.87943e-07
2.49266e-05
3.89548e-07
2.48907e-05
3.90944e-07
2.48549e-05
3.92124e-07
2.48193e-05
3.93087e-07
2.47841e-05
3.9383e-07
2.47491e-05
3.94352e-07
2.47145e-05
3.94653e-07
2.46804e-05
3.94735e-07
2.46467e-05
3.946e-07
2.46137e-05
3.94253e-07
2.45813e-05
3.93699e-07
2.45496e-05
3.92942e-07
2.45188e-05
3.91989e-07
2.44889e-05
3.90844e-07
2.446e-05
3.89513e-07
2.44324e-05
3.88002e-07
2.44061e-05
3.86315e-07
2.43812e-05
3.84455e-07
2.43581e-05
3.82422e-07
2.43368e-05
3.80214e-07
2.43177e-05
3.77826e-07
2.43009e-05
3.75245e-07
2.42867e-05
3.72453e-07
2.42756e-05
3.69422e-07
2.42678e-05
3.66111e-07
2.42638e-05
3.62464e-07
2.4264e-05
3.58406e-07
2.4269e-05
3.53839e-07
2.42791e-05
3.48638e-07
2.42951e-05
3.42644e-07
2.43176e-05
3.35665e-07
2.4347e-05
3.27471e-07
2.43841e-05
3.17787e-07
2.44294e-05
3.06303e-07
2.44834e-05
2.92668e-07
2.45464e-05
2.76505e-07
2.46187e-05
2.57422e-07
2.47003e-05
2.35038e-07
2.47908e-05
2.09021e-07
2.48899e-05
1.79139e-07
2.49966e-05
1.45328e-07
2.51098e-05
1.07766e-07
2.5228e-05
6.69049e-08
2.35615e-08
2.53497e-05
2.80548e-05
1.84952e-07
2.80428e-05
4.34982e-07
2.80134e-05
5.4099e-07
2.79728e-05
5.21652e-07
2.79284e-05
4.6498e-07
2.7885e-05
4.20229e-07
2.78439e-05
3.95681e-07
2.78052e-05
3.84666e-07
2.77683e-05
3.80246e-07
2.77326e-05
3.78494e-07
2.76977e-05
3.77717e-07
2.76633e-05
3.77316e-07
2.76292e-05
3.77129e-07
2.75953e-05
3.77145e-07
2.75615e-05
3.77387e-07
2.75275e-05
3.77879e-07
2.74935e-05
3.78644e-07
2.74594e-05
3.79691e-07
2.7425e-05
3.81021e-07
2.73904e-05
3.82628e-07
2.73556e-05
3.84499e-07
2.73206e-05
3.86618e-07
2.72852e-05
3.8896e-07
2.72497e-05
3.91492e-07
2.72139e-05
3.94181e-07
2.71778e-05
3.96988e-07
2.71416e-05
3.99871e-07
2.71052e-05
4.02788e-07
2.70687e-05
4.05695e-07
2.7032e-05
4.08553e-07
2.69952e-05
4.11324e-07
2.69584e-05
4.13974e-07
2.69216e-05
4.16474e-07
2.68847e-05
4.18798e-07
2.6848e-05
4.20924e-07
2.68113e-05
4.22832e-07
2.67747e-05
4.24508e-07
2.67383e-05
4.25936e-07
2.67021e-05
4.27107e-07
2.66662e-05
4.28011e-07
2.66307e-05
4.28642e-07
2.65955e-05
4.28994e-07
2.65608e-05
4.29061e-07
2.65266e-05
4.2884e-07
2.6493e-05
4.28325e-07
2.64601e-05
4.27515e-07
2.6428e-05
4.26405e-07
2.63967e-05
4.24994e-07
2.63663e-05
4.23277e-07
2.63371e-05
4.2125e-07
2.6309e-05
4.18908e-07
2.62823e-05
4.16243e-07
2.6257e-05
4.13246e-07
2.62334e-05
4.09907e-07
2.62117e-05
4.06211e-07
2.6192e-05
4.0214e-07
2.61745e-05
3.9767e-07
2.61596e-05
3.92772e-07
2.61474e-05
3.87411e-07
2.61383e-05
3.81542e-07
2.61326e-05
3.7511e-07
2.61307e-05
3.68047e-07
2.61329e-05
3.6027e-07
2.61396e-05
3.51681e-07
2.61513e-05
3.4216e-07
2.61683e-05
3.31569e-07
2.61912e-05
3.19746e-07
2.62204e-05
3.06504e-07
2.62562e-05
2.91636e-07
2.62991e-05
2.74913e-07
2.63493e-05
2.56088e-07
2.64071e-05
2.34903e-07
2.64725e-05
2.11099e-07
2.65455e-05
1.8443e-07
2.66258e-05
1.54683e-07
2.67132e-05
1.21712e-07
2.68068e-05
8.54768e-08
2.6906e-05
4.61165e-08
2.70098e-05
3.99082e-09
2.7117e-05
-4.0282e-08
-8.58334e-08
2.72264e-05
3.00199e-05
1.83929e-07
3.0009e-05
4.45852e-07
2.99812e-05
5.68777e-07
2.99418e-05
5.61057e-07
2.9898e-05
5.08838e-07
2.98542e-05
4.63965e-07
2.98124e-05
4.37519e-07
2.97727e-05
4.24412e-07
2.97346e-05
4.1828e-07
2.96978e-05
4.15284e-07
2.96619e-05
4.13659e-07
2.96265e-05
4.12706e-07
2.95914e-05
4.12186e-07
2.95566e-05
4.12026e-07
2.95217e-05
4.12212e-07
2.94869e-05
4.12739e-07
2.94519e-05
4.13606e-07
2.94168e-05
4.14806e-07
2.93815e-05
4.16328e-07
2.9346e-05
4.18154e-07
2.93102e-05
4.2026e-07
2.92742e-05
4.22619e-07
2.9238e-05
4.25198e-07
2.92015e-05
4.27959e-07
2.91648e-05
4.3086e-07
2.91279e-05
4.33857e-07
2.90909e-05
4.36905e-07
2.90537e-05
4.39958e-07
2.90165e-05
4.4297e-07
2.89791e-05
4.459e-07
2.89417e-05
4.48707e-07
2.89043e-05
4.51356e-07
2.8867e-05
4.53814e-07
2.88297e-05
4.56055e-07
2.87926e-05
4.58053e-07
2.87557e-05
4.59786e-07
2.87189e-05
4.61236e-07
2.86825e-05
4.62386e-07
2.86464e-05
4.63221e-07
2.86106e-05
4.63729e-07
2.85754e-05
4.63899e-07
2.85407e-05
4.6372e-07
2.85065e-05
4.63183e-07
2.84731e-05
4.62277e-07
2.84404e-05
4.60992e-07
2.84086e-05
4.59319e-07
2.83778e-05
4.57245e-07
2.8348e-05
4.54761e-07
2.83194e-05
4.51851e-07
2.82922e-05
4.48502e-07
2.82664e-05
4.44696e-07
2.82422e-05
4.40414e-07
2.82198e-05
4.35633e-07
2.81994e-05
4.30329e-07
2.81812e-05
4.2447e-07
2.81653e-05
4.18024e-07
2.8152e-05
4.1095e-07
2.81416e-05
4.03203e-07
2.81342e-05
3.94728e-07
2.81303e-05
3.85463e-07
2.81301e-05
3.75339e-07
2.81339e-05
3.64271e-07
2.8142e-05
3.52168e-07
2.81547e-05
3.38923e-07
2.81725e-05
3.24416e-07
2.81955e-05
3.08516e-07
2.82242e-05
2.91077e-07
2.82588e-05
2.71944e-07
2.82994e-05
2.50949e-07
2.83464e-05
2.27923e-07
2.83998e-05
2.02692e-07
2.84596e-05
1.75088e-07
2.85258e-05
1.44955e-07
2.8598e-05
1.12163e-07
2.86761e-05
7.66251e-08
2.87595e-05
3.83331e-08
2.88476e-05
-2.60968e-09
2.89396e-05
-4.59476e-08
2.90349e-05
-9.12382e-08
2.91324e-05
-1.37825e-07
-1.8483e-07
2.92314e-05
3.21224e-05
1.83098e-07
3.21122e-05
4.56021e-07
3.20858e-05
5.95198e-07
3.20476e-05
5.9919e-07
3.20045e-05
5.51997e-07
3.19608e-05
5.07664e-07
3.19185e-05
4.79821e-07
3.1878e-05
4.64914e-07
3.18391e-05
4.57208e-07
3.18013e-05
4.53017e-07
3.17644e-05
4.50548e-07
3.17281e-05
4.49032e-07
3.16921e-05
4.48163e-07
3.16563e-05
4.47818e-07
3.16206e-05
4.47939e-07
3.15849e-05
4.48494e-07
3.1549e-05
4.49458e-07