/*--------------------------------*- C++ -*----------------------------------*\
  =========                 |
  \\      /  F ield         | OpenFOAM: The Open Source CFD Toolbox
   \\    /   O peration     | Website:  https://openfoam.org
    \\  /    A nd           | Version:  7
     \\/     M anipulation  |
\*---------------------------------------------------------------------------*/
FoamFile
{
    version     2.0;
    format      ascii;
    class       surfaceScalarField;
    location    "7.75";
    object      phi;
}
// * * * * * * * * * * * * * * * * * * * * * * * * * * * * * * * * * * * * * //

dimensions      [1 0 -1 0 0 0 0];

internalField   nonuniform List<scalar> 
23692
(
1.19357e-05
-3.01272e-07
1.24499e-05
-5.13919e-07
1.31412e-05
-6.91042e-07
1.39817e-05
-8.40031e-07
1.49511e-05
-9.68891e-07
1.60351e-05
-1.08338e-06
1.72237e-05
-1.1878e-06
1.85098e-05
-1.28535e-06
1.98889e-05
-1.37811e-06
2.13569e-05
-1.46699e-06
2.29098e-05
-1.55186e-06
2.45426e-05
-1.63172e-06
2.62487e-05
-1.70494e-06
2.80195e-05
-1.76962e-06
2.98447e-05
-1.82388e-06
3.17121e-05
-1.86612e-06
3.36086e-05
-1.89522e-06
3.55205e-05
-1.9106e-06
3.74341e-05
-1.91222e-06
3.9336e-05
-1.90055e-06
4.12138e-05
-1.87645e-06
4.30562e-05
-1.84107e-06
4.48533e-05
-1.79575e-06
4.65966e-05
-1.74193e-06
4.82791e-05
-1.68105e-06
4.98949e-05
-1.61452e-06
5.14399e-05
-1.54364e-06
5.29109e-05
-1.46961e-06
5.43057e-05
-1.39351e-06
5.56233e-05
-1.31627e-06
5.68633e-05
-1.23871e-06
5.80261e-05
-1.1615e-06
5.91126e-05
-1.08521e-06
6.01242e-05
-1.01032e-06
6.10626e-05
-9.37196e-07
6.193e-05
-8.66141e-07
6.27286e-05
-7.97381e-07
6.34608e-05
-7.31084e-07
6.41294e-05
-6.6737e-07
6.47368e-05
-6.06314e-07
6.52859e-05
-5.47958e-07
6.57793e-05
-4.92311e-07
6.62197e-05
-4.39361e-07
6.66098e-05
-3.89071e-07
6.69522e-05
-3.4139e-07
6.72495e-05
-2.9625e-07
6.7504e-05
-2.53569e-07
6.77182e-05
-2.13255e-07
6.78943e-05
-1.75203e-07
6.80345e-05
-1.39301e-07
6.81408e-05
-1.05423e-07
6.8215e-05
-7.34339e-08
6.8259e-05
-4.31863e-08
6.82743e-05
-1.45204e-08
6.82623e-05
1.27175e-08
6.82243e-05
3.86717e-08
6.81615e-05
6.35036e-08
6.80747e-05
8.74068e-08
6.79647e-05
1.106e-07
6.78319e-05
1.33324e-07
6.76766e-05
1.55849e-07
6.74986e-05
1.78479e-07
6.72976e-05
2.01563e-07
6.70725e-05
2.25504e-07
6.68222e-05
2.50774e-07
6.65446e-05
2.77943e-07
6.62373e-05
3.07706e-07
6.58967e-05
3.40932e-07
6.55183e-05
3.78737e-07
6.5096e-05
4.22596e-07
6.46217e-05
4.74523e-07
6.40846e-05
5.37357e-07
6.34696e-05
6.15272e-07
6.27552e-05
7.14658e-07
6.19096e-05
8.4576e-07
6.0884e-05
1.02581e-06
5.95989e-05
1.28529e-06
5.79177e-05
1.68137e-06
5.5585e-05
2.33281e-06
5.20478e-05
3.5374e-06
6.60118e-06
4.54468e-05
1.2761e-05
-6.13923e-07
1.33072e-05
-1.05999e-06
1.4044e-05
-1.42749e-06
1.49405e-05
-1.73605e-06
1.59753e-05
-2.00311e-06
1.7133e-05
-2.24037e-06
1.84027e-05
-2.45676e-06
1.97772e-05
-2.65899e-06
2.12515e-05
-2.85134e-06
2.28213e-05
-3.03576e-06
2.44825e-05
-3.21198e-06
2.62299e-05
-3.3779e-06
2.80564e-05
-3.53015e-06
2.99528e-05
-3.66474e-06
3.1908e-05
-3.77776e-06
3.39091e-05
-3.86586e-06
3.5942e-05
-3.92669e-06
3.79918e-05
-3.95901e-06
4.00438e-05
-3.96275e-06
4.20835e-05
-3.93886e-06
4.40976e-05
-3.88911e-06
4.60739e-05
-3.81592e-06
4.80017e-05
-3.72207e-06
4.98718e-05
-3.61054e-06
5.16765e-05
-3.48434e-06
5.34099e-05
-3.34639e-06
5.50671e-05
-3.19941e-06
5.66448e-05
-3.0459e-06
5.81408e-05
-2.88808e-06
5.95538e-05
-2.7279e-06
6.08836e-05
-2.56705e-06
6.21304e-05
-2.40693e-06
6.32953e-05
-2.24874e-06
6.43797e-05
-2.09344e-06
6.53857e-05
-1.94181e-06
6.63153e-05
-1.79447e-06
6.71711e-05
-1.65189e-06
6.79557e-05
-1.51443e-06
6.86719e-05
-1.38231e-06
6.93225e-05
-1.2557e-06
6.99105e-05
-1.13469e-06
7.04386e-05
-1.01929e-06
7.09099e-05
-9.0948e-07
7.13271e-05
-8.05174e-07
7.16931e-05
-7.06266e-07
7.20105e-05
-6.12615e-07
7.2282e-05
-5.24051e-07
7.25101e-05
-4.4038e-07
7.26973e-05
-3.61387e-07
7.28457e-05
-2.86834e-07
7.29577e-05
-2.16462e-07
7.30351e-05
-1.4999e-07
7.30799e-05
-8.71128e-08
7.30937e-05
-2.75006e-08
7.3078e-05
2.91626e-08
7.30342e-05
8.31765e-08
7.29636e-05
1.3488e-07
7.2867e-05
1.84672e-07
7.27452e-05
2.33e-07
7.25988e-05
2.80359e-07
7.24279e-05
3.27299e-07
7.22325e-05
3.74439e-07
7.20121e-05
4.22484e-07
7.17659e-05
4.72246e-07
7.14924e-05
5.24675e-07
7.11899e-05
5.80904e-07
7.08557e-05
6.42306e-07
7.04864e-05
7.10584e-07
7.00776e-05
7.87901e-07
6.96234e-05
8.77069e-07
6.91164e-05
9.81856e-07
6.85466e-05
1.10746e-06
6.79008e-05
1.26126e-06
6.71616e-05
1.45413e-06
6.6305e-05
1.70256e-06
6.52987e-05
2.03236e-06
6.40991e-05
2.48505e-06
6.26517e-05
3.12897e-06
6.09034e-05
4.08126e-06
5.88933e-05
5.54767e-06
7.81058e-06
5.76841e-05
1.36395e-05
-9.34607e-07
1.42157e-05
-1.63594e-06
1.49964e-05
-2.20782e-06
1.59491e-05
-2.68827e-06
1.70506e-05
-3.10399e-06
1.82842e-05
-3.47325e-06
1.96384e-05
-3.8101e-06
2.11054e-05
-4.12504e-06
2.26799e-05
-4.4248e-06
2.43578e-05
-4.71247e-06
2.61346e-05
-4.98766e-06
2.80051e-05
-5.24709e-06
2.99617e-05
-5.48544e-06
3.19948e-05
-5.69644e-06
3.40924e-05
-5.87389e-06
3.62405e-05
-6.01251e-06
3.84239e-05
-6.10855e-06
4.06264e-05
-6.16004e-06
4.2832e-05
-6.16681e-06
4.5025e-05
-6.13034e-06
4.71909e-05
-6.05342e-06
4.93163e-05
-5.9398e-06
5.13897e-05
-5.79386e-06
5.3401e-05
-5.62027e-06
5.5342e-05
-5.42374e-06
5.7206e-05
-5.20885e-06
5.8988e-05
-4.97986e-06
6.06843e-05
-4.74067e-06
6.22925e-05
-4.49477e-06
6.38113e-05
-4.2452e-06
6.52404e-05
-3.99458e-06
6.65801e-05
-3.74513e-06
6.78315e-05
-3.49869e-06
6.89962e-05
-3.25677e-06
7.00764e-05
-3.02058e-06
7.10745e-05
-2.79109e-06
7.1993e-05
-2.56902e-06
7.28348e-05
-2.35491e-06
7.3603e-05
-2.14914e-06
7.43005e-05
-1.95195e-06
7.49306e-05
-1.76347e-06
7.54963e-05
-1.58372e-06
7.60006e-05
-1.41265e-06
7.64468e-05
-1.25014e-06
7.68377e-05
-1.09602e-06
7.71763e-05
-9.50062e-07
7.74654e-05
-8.12001e-07
7.77076e-05
-6.81531e-07
7.79055e-05
-5.58314e-07
7.80617e-05
-4.41979e-07
7.81783e-05
-3.32122e-07
7.82576e-05
-2.28306e-07
7.83014e-05
-1.30056e-07
7.83116e-05
-3.68625e-08
7.82899e-05
5.17595e-08
7.82376e-05
1.36275e-07
7.8156e-05
2.17217e-07
7.80462e-05
2.95203e-07
7.7909e-05
3.70918e-07
7.77449e-05
4.45114e-07
7.75542e-05
5.18626e-07
7.73368e-05
5.92384e-07
7.70924e-05
6.67443e-07
7.68201e-05
7.45009e-07
7.65188e-05
8.26478e-07
7.61867e-05
9.13497e-07
7.58214e-05
1.00804e-06
7.54199e-05
1.11251e-06
7.49782e-05
1.22991e-06
7.44916e-05
1.36404e-06
7.39539e-05
1.51986e-06
7.33577e-05
1.70392e-06
7.26942e-05
1.92512e-06
7.19528e-05
2.19574e-06
7.11226e-05
2.53297e-06
7.01942e-05
2.96101e-06
6.91657e-05
3.51379e-06
6.80572e-05
4.23765e-06
6.69466e-05
5.192e-06
6.60582e-05
6.43624e-06
7.95626e-06
6.59127e-05
1.45767e-05
-1.26139e-06
1.51802e-05
-2.2392e-06
1.60035e-05
-3.03074e-06
1.70124e-05
-3.69657e-06
1.81816e-05
-4.27258e-06
1.94933e-05
-4.78418e-06
2.09352e-05
-5.25101e-06
2.24989e-05
-5.68778e-06
2.41792e-05
-6.10397e-06
2.59719e-05
-6.50397e-06
2.78728e-05
-6.88726e-06
2.98764e-05
-7.24925e-06
3.19748e-05
-7.58247e-06
3.41579e-05
-7.87804e-06
3.64127e-05
-8.12716e-06
3.87241e-05
-8.32231e-06
4.10753e-05
-8.45813e-06
4.34486e-05
-8.53178e-06
4.58264e-05
-8.54298e-06
4.81915e-05
-8.49377e-06
5.05278e-05
-8.38803e-06
5.28207e-05
-8.23104e-06
5.50575e-05
-8.02892e-06
5.72271e-05
-7.78823e-06
5.93206e-05
-7.51558e-06
6.13308e-05
-7.21734e-06
6.32521e-05
-6.8995e-06
6.50806e-05
-6.5675e-06
6.68136e-05
-6.2262e-06
6.84499e-05
-5.87983e-06
6.9989e-05
-5.53205e-06
7.14314e-05
-5.18594e-06
7.27783e-05
-4.84404e-06
7.40315e-05
-4.50846e-06
7.51933e-05
-4.18088e-06
7.62664e-05
-3.86261e-06
7.72535e-05
-3.55466e-06
7.81578e-05
-3.25777e-06
7.89825e-05
-2.97246e-06
7.9731e-05
-2.69904e-06
8.04066e-05
-2.4377e-06
8.10127e-05
-2.18845e-06
8.15526e-05
-1.95122e-06
8.20296e-05
-1.72584e-06
8.24469e-05
-1.51206e-06
8.28076e-05
-1.30956e-06
8.31147e-05
-1.11796e-06
8.33712e-05
-9.36841e-07
8.35797e-05
-7.6573e-07
8.37429e-05
-6.0411e-07
8.38632e-05
-4.5142e-07
8.3943e-05
-3.07054e-07
8.39843e-05
-1.7036e-07
8.3989e-05
-4.06398e-08
8.39588e-05
8.27633e-08
8.38955e-05
2.0049e-07
8.38002e-05
3.13287e-07
8.36742e-05
4.21996e-07
8.35183e-05
5.27543e-07
8.33332e-05
6.30936e-07
8.31192e-05
7.33283e-07
8.28764e-05
8.35811e-07
8.26046e-05
9.39895e-07
8.2303e-05
1.04709e-06
8.19709e-05
1.15917e-06
8.16066e-05
1.2782e-06
8.12085e-05
1.40661e-06
8.07742e-05
1.54727e-06
8.03008e-05
1.7037e-06
7.97851e-05
1.88017e-06
7.92232e-05
2.08205e-06
7.86114e-05
2.31607e-06
7.7946e-05
2.59077e-06
7.7225e-05
2.91702e-06
7.64497e-05
3.3085e-06
7.5629e-05
3.78203e-06
7.47859e-05
4.35714e-06
7.39697e-05
5.05402e-06
7.32742e-05
5.88768e-06
7.28565e-05
6.85412e-06
7.89788e-06
7.29151e-05
1.55779e-05
-1.59337e-06
1.62067e-05
-2.86779e-06
1.70715e-05
-3.8951e-06
1.81363e-05
-4.76079e-06
1.93743e-05
-5.5099e-06
2.07663e-05
-6.17531e-06
2.22992e-05
-6.78286e-06
2.39644e-05
-7.35192e-06
2.57567e-05
-7.8951e-06
2.76723e-05
-8.41826e-06
2.97073e-05
-8.92081e-06
3.18561e-05
-9.39665e-06
3.4111e-05
-9.8358e-06
3.64609e-05
-1.02263e-05
3.88917e-05
-1.05564e-05
4.13869e-05
-1.08158e-05
4.39278e-05
-1.09973e-05
4.64947e-05
-1.1097e-05
4.90679e-05
-1.11144e-05
5.16282e-05
-1.10523e-05
5.41577e-05
-1.09157e-05
5.66402e-05
-1.07118e-05
5.90616e-05
-1.04485e-05
6.14098e-05
-1.01346e-05
6.36749e-05
-9.77887e-06
6.5849e-05
-9.38966e-06
6.79261e-05
-8.97487e-06
6.99021e-05
-8.54166e-06
7.1774e-05
-8.0964e-06
7.35406e-05
-7.64465e-06
7.52014e-05
-7.19116e-06
7.67571e-05
-6.73996e-06
7.82092e-05
-6.29438e-06
7.95595e-05
-5.85713e-06
8.08106e-05
-5.43039e-06
8.19655e-05
-5.01586e-06
8.30273e-05
-4.61484e-06
8.39993e-05
-4.22828e-06
8.48852e-05
-3.85683e-06
8.56886e-05
-3.50089e-06
8.6413e-05
-3.16068e-06
8.70622e-05
-2.83621e-06
8.76398e-05
-2.52738e-06
8.81493e-05
-2.23393e-06
8.85941e-05
-1.95555e-06
8.89776e-05
-1.6918e-06
8.93031e-05
-1.44219e-06
8.95737e-05
-1.20617e-06
8.97922e-05
-9.83105e-07
8.99616e-05
-7.72329e-07
9.00844e-05
-5.73111e-07
9.01631e-05
-3.84668e-07
9.02e-05
-2.06159e-07
9.0197e-05
-3.66958e-08
9.01562e-05
1.24545e-07
9.00792e-05
2.78404e-07
8.99675e-05
4.25853e-07
8.98224e-05
5.67962e-07
8.96448e-05
7.05889e-07
8.94356e-05
8.40884e-07
8.91953e-05
9.74309e-07
8.89241e-05
1.10765e-06
8.86221e-05
1.24256e-06
8.82889e-05
1.38085e-06
8.79241e-05
1.5246e-06
8.75267e-05
1.67612e-06
8.70957e-05
1.8381e-06
8.66298e-05
2.01362e-06
8.61276e-05
2.20628e-06
8.55879e-05
2.4203e-06
8.50097e-05
2.66066e-06
8.43929e-05
2.93322e-06
8.37392e-05
3.2448e-06
8.30533e-05
3.6032e-06
8.23452e-05
4.01691e-06
8.1633e-05
4.49449e-06
8.09474e-05
5.043e-06
8.03363e-05
5.66531e-06
7.98688e-05
6.35539e-06
7.9632e-05
7.09117e-06
7.82334e-06
7.97068e-05
1.66484e-05
-1.93054e-06
1.73014e-05
-3.52055e-06
1.8207e-05
-4.80025e-06
1.93279e-05
-5.88109e-06
2.0636e-05
-6.81721e-06
2.21108e-05
-7.64917e-06
2.37385e-05
-8.40955e-06
2.55108e-05
-9.12299e-06
2.74227e-05
-9.8057e-06
2.94711e-05
-1.04653e-05
3.16528e-05
-1.1101e-05
3.39627e-05
-1.1705e-05
3.63928e-05
-1.22642e-05
3.89312e-05
-1.27631e-05
4.15625e-05
-1.31859e-05
4.4268e-05
-1.35194e-05
4.70264e-05
-1.37539e-05
4.98156e-05
-1.38843e-05
5.26131e-05
-1.391e-05
5.53971e-05
-1.38344e-05
5.81475e-05
-1.36642e-05
6.08462e-05
-1.34085e-05
6.34773e-05
-1.30777e-05
6.60275e-05
-1.26829e-05
6.8486e-05
-1.22354e-05
7.08442e-05
-1.17459e-05
7.30956e-05
-1.12244e-05
7.52358e-05
-1.06799e-05
7.72619e-05
-1.01206e-05
7.91725e-05
-9.55338e-06
8.09674e-05
-8.98426e-06
8.26475e-05
-8.41826e-06
8.42145e-05
-7.85954e-06
8.56706e-05
-7.31148e-06
8.70188e-05
-6.77679e-06
8.82622e-05
-6.25757e-06
8.94045e-05
-5.7554e-06
9.04493e-05
-5.27144e-06
9.14006e-05
-4.8065e-06
9.22623e-05
-4.36104e-06
9.30385e-05
-3.93529e-06
9.37331e-05
-3.52927e-06
9.43501e-05
-3.1428e-06
9.48932e-05
-2.77558e-06
9.53662e-05
-2.42716e-06
9.57728e-05
-2.097e-06
9.61164e-05
-1.78448e-06
9.64005e-05
-1.48888e-06
9.66281e-05
-1.20942e-06
9.68022e-05
-9.45267e-07
9.69258e-05
-6.95503e-07
9.70015e-05
-4.59157e-07
9.70316e-05
-2.35191e-07
9.70185e-05
-2.25318e-08
9.69643e-05
1.79774e-07
9.68708e-05
3.72848e-07
9.67398e-05
5.57868e-07
9.65725e-05
7.36127e-07
9.63702e-05
9.09001e-07
9.6134e-05
1.07796e-06
9.58645e-05
1.24458e-06
9.55623e-05
1.41055e-06
9.52278e-05
1.57773e-06
9.48612e-05
1.74812e-06
9.44625e-05
1.92392e-06
9.40316e-05
2.10758e-06
9.35684e-05
2.30179e-06
9.3073e-05
2.50953e-06
9.25456e-05
2.73413e-06
9.19871e-05
2.97927e-06
9.13992e-05
3.24898e-06
9.07852e-05
3.54759e-06
9.01508e-05
3.87958e-06
8.9505e-05
4.24929e-06
8.88618e-05
4.66039e-06
8.82417e-05
5.11497e-06
8.76727e-05
5.6122e-06
8.71918e-05
6.14648e-06
8.68425e-05
6.70501e-06
8.66686e-05
7.26522e-06
7.79276e-06
8.66995e-05
1.77937e-05
-2.27367e-06
1.84706e-05
-4.19715e-06
1.94171e-05
-5.74632e-06
2.05949e-05
-7.05824e-06
2.19749e-05
-8.19635e-06
2.35356e-05
-9.2089e-06
2.52631e-05
-1.01359e-05
2.71493e-05
-1.10079e-05
2.91903e-05
-1.18453e-05
3.13844e-05
-1.26578e-05
3.37295e-05
-1.34445e-05
3.62213e-05
-1.41951e-05
3.88516e-05
-1.48927e-05
4.16074e-05
-1.55171e-05
4.44711e-05
-1.60478e-05
4.74211e-05
-1.64674e-05
5.04329e-05
-1.67637e-05
5.34805e-05
-1.69299e-05
5.65379e-05
-1.69654e-05
5.95802e-05
-1.68747e-05
6.25845e-05
-1.66664e-05
6.55302e-05
-1.63521e-05
6.83998e-05
-1.59452e-05
7.11786e-05
-1.54596e-05
7.38546e-05
-1.49094e-05
7.64187e-05
-1.43079e-05
7.88641e-05
-1.36677e-05
8.11862e-05
-1.3e-05
8.33822e-05
-1.23146e-05
8.54508e-05
-1.162e-05
8.73923e-05
-1.09237e-05
8.92077e-05
-1.02317e-05
9.08992e-05
-9.54906e-06
9.24694e-05
-8.87983e-06
9.39218e-05
-8.22727e-06
9.52599e-05
-7.59387e-06
9.64879e-05
-6.98154e-06
9.76099e-05
-6.39163e-06
9.86302e-05
-5.82504e-06
9.95532e-05
-5.28233e-06
0.000100383
-4.76373e-06
0.000101125
-4.2692e-06
0.000101782
-3.79852e-06
0.00010236
-3.35128e-06
0.000102861
-2.92691e-06
0.00010329
-2.52473e-06
0.000103651
-2.14396e-06
0.000103947
-1.78374e-06
0.000104182
-1.4431e-06
0.000104359
-1.12101e-06
0.000104482
-8.16391e-07
0.000104552
-5.28056e-07
0.000104572
-2.54767e-07
0.000104546
4.75479e-09
0.000104476
2.51444e-07
0.000104363
4.86937e-07
0.000104209
7.12514e-07
0.000104016
9.29686e-07
0.000103786
1.14002e-06
0.00010352
1.34517e-06
0.000103219
1.54688e-06
0.000102883
1.747e-06
0.000102514
1.94747e-06
0.000102112
2.15039e-06
0.000101679
2.35797e-06
0.000101215
2.57258e-06
0.00010072
2.79673e-06
0.000100197
3.03306e-06
9.96475e-05
3.28433e-06
9.90738e-05
3.55339e-06
9.84802e-05
3.84301e-06
9.78724e-05
4.15584e-06
9.72583e-05
4.49407e-06
9.66488e-05
4.85911e-06
9.60585e-05
5.25108e-06
9.55056e-05
5.66815e-06
9.50124e-05
6.1057e-06
9.46038e-05
6.55545e-06
9.43044e-05
7.00465e-06
9.41341e-05
7.43578e-06
7.82753e-06
9.40996e-05
1.90195e-05
-2.6241e-06
1.97209e-05
-4.89816e-06
2.07094e-05
-6.7343e-06
2.19457e-05
-8.2939e-06
2.34003e-05
-9.65e-06
2.50511e-05
-1.08587e-05
2.68845e-05
-1.19681e-05
2.88937e-05
-1.30156e-05
3.10765e-05
-1.40267e-05
3.34335e-05
-1.50132e-05
3.59645e-05
-1.59738e-05
3.86663e-05
-1.68951e-05
4.15304e-05
-1.77549e-05
4.45418e-05
-1.85265e-05
4.76798e-05
-1.91837e-05
5.09184e-05
-1.97039e-05
5.42282e-05
-2.00714e-05
5.75785e-05
-2.0278e-05
6.09387e-05
-2.03234e-05
6.42799e-05
-2.02137e-05
6.75758e-05
-1.99601e-05
7.08034e-05
-1.95775e-05
7.3943e-05
-1.90826e-05
7.69787e-05
-1.8493e-05
7.98976e-05
-1.78261e-05
8.26902e-05
-1.70983e-05
8.53496e-05
-1.63249e-05
8.78711e-05
-1.55193e-05
9.02523e-05
-1.46936e-05
9.24924e-05
-1.3858e-05
9.45919e-05
-1.30211e-05
9.65526e-05
-1.21903e-05
9.83771e-05
-1.13715e-05
0.000100069
-1.05695e-05
0.000101632
-9.78795e-06
0.00010307
-9.02991e-06
0.000104387
-8.29747e-06
0.00010559
-7.5922e-06
0.000106682
-6.91509e-06
0.000107668
-6.26672e-06
0.000108553
-5.64732e-06
0.000109343
-5.05678e-06
0.000110041
-4.49479e-06
0.000110652
-3.96081e-06
0.000111181
-3.45413e-06
0.000111632
-2.97391e-06
0.000112009
-2.51921e-06
0.000112315
-2.08897e-06
0.000112556
-1.68204e-06
0.000112733
-1.2972e-06
0.000112851
-9.33167e-07
0.000112913
-5.88557e-07
0.000112922
-2.61932e-07
0.00011288
4.80935e-08
0.000112789
3.4285e-07
0.000112654
6.23981e-07
0.000112474
8.93099e-07
0.000112253
1.15189e-06
0.000111992
1.40208e-06
0.000111692
1.64546e-06
0.000111356
1.88389e-06
0.000110985
2.11928e-06
0.00011058
2.35363e-06
0.000110142
2.58898e-06
0.000109673
2.82744e-06
0.000109175
3.07116e-06
0.00010865
3.3223e-06
0.000108101
3.58302e-06
0.00010753
3.85536e-06
0.000106943
4.14121e-06
0.000106344
4.44216e-06
0.000105741
4.7593e-06
0.000105143
5.09303e-06
0.000104559
5.44276e-06
0.000104004
5.80655e-06
0.000103492
6.18078e-06
0.000103038
6.55978e-06
0.000102659
6.93561e-06
0.000102365
7.29808e-06
0.000102166
7.63516e-06
7.93443e-06
0.00010206
2.03318e-05
-2.98361e-06
2.1059e-05
-5.62502e-06
2.20914e-05
-7.76617e-06
2.3389e-05
-9.59074e-06
2.4922e-05
-1.1182e-05
2.66687e-05
-1.26042e-05
2.86164e-05
-1.39144e-05
3.07605e-05
-1.51583e-05
3.31025e-05
-1.6367e-05
3.56461e-05
-1.7555e-05
3.83941e-05
-1.87199e-05
4.13443e-05
-1.98433e-05
4.44872e-05
-2.08957e-05
4.78046e-05
-2.18418e-05
5.12705e-05
-2.26474e-05
5.48527e-05
-2.32838e-05
5.85151e-05
-2.37315e-05
6.22206e-05
-2.39811e-05
6.59329e-05
-2.40333e-05
6.96183e-05
-2.38967e-05
7.3247e-05
-2.35864e-05
7.67932e-05
-2.31212e-05
8.02354e-05
-2.25224e-05
8.35565e-05
-2.18117e-05
8.67433e-05
-2.10105e-05
8.9786e-05
-2.01386e-05
9.26778e-05
-1.92143e-05
9.54146e-05
-1.82538e-05
9.79946e-05
-1.72712e-05
0.000100418
-1.62786e-05
0.000102685
-1.52861e-05
0.000104799
-1.43021e-05
0.000106763
-1.33336e-05
0.000108582
-1.23859e-05
0.00011026
-1.14633e-05
0.000111801
-1.05692e-05
0.000113212
-9.70593e-06
0.000114497
-8.87517e-06
0.000115662
-8.07801e-06
0.000116712
-7.31502e-06
0.000117653
-6.58635e-06
0.00011849
-5.89184e-06
0.000119228
-5.23101e-06
0.000119872
-4.60319e-06
0.000120427
-4.00751e-06
0.000120898
-3.44293e-06
0.000121289
-2.90831e-06
0.000121604
-2.4024e-06
0.000121847
-1.92385e-06
0.000122023
-1.47123e-06
0.000122134
-1.04306e-06
0.000122185
-6.37754e-07
0.000122178
-2.53697e-07
0.000122117
1.10696e-07
0.000122004
4.57014e-07
0.000121842
7.87052e-07
0.000121633
1.10265e-06
0.000121381
1.40566e-06
0.000121086
1.69794e-06
0.000120751
1.98136e-06
0.000120378
2.25784e-06
0.000119969
2.5293e-06
0.000119526
2.79769e-06
0.000119051
3.06492e-06
0.000118546
3.3329e-06
0.000118014
3.60348e-06
0.000117459
3.87839e-06
0.000116883
4.15922e-06
0.000116292
4.44733e-06
0.00011569
4.74373e-06
0.000115084
5.04901e-06
0.00011448
5.36313e-06
0.000113889
5.68534e-06
0.000113318
6.01395e-06
0.000112779
6.34619e-06
0.000112282
6.67809e-06
0.000111838
7.00442e-06
0.000111455
7.31881e-06
0.000111139
7.61395e-06
0.000110893
7.88219e-06
8.11666e-06
0.000110711
2.17365e-05
-3.35435e-06
2.24919e-05
-6.37999e-06
2.35712e-05
-8.84488e-06
2.49339e-05
-1.09527e-05
2.65507e-05
-1.27978e-05
2.84009e-05
-1.44532e-05
3.04742e-05
-1.59864e-05
3.27703e-05
-1.74528e-05
3.52955e-05
-1.88904e-05
3.80589e-05
-2.03166e-05
4.10668e-05
-2.17257e-05
4.43176e-05
-2.3092e-05
4.77991e-05
-2.43749e-05
5.14873e-05
-2.55278e-05
5.53482e-05
-2.65059e-05
5.93404e-05
-2.72735e-05
6.34189e-05
-2.78075e-05
6.75386e-05
-2.80983e-05
7.16565e-05
-2.81487e-05
7.57339e-05
-2.79715e-05
7.97371e-05
-2.7587e-05
8.3638e-05
-2.70195e-05
8.74137e-05
-2.62955e-05
9.10465e-05
-2.54419e-05
9.45231e-05
-2.44845e-05
9.78342e-05
-2.34471e-05
0.000100974
-2.23513e-05
0.000103939
-2.1216e-05
0.000106728
-2.00577e-05
0.000109342
-1.88903e-05
0.000111784
-1.77254e-05
0.000114056
-1.65725e-05
0.000116164
-1.54393e-05
0.000118113
-1.43321e-05
0.000119908
-1.32556e-05
0.000121554
-1.22132e-05
0.000123058
-1.12077e-05
0.000124426
-1.02409e-05
0.000125664
-9.31365e-06
0.000126778
-8.42666e-06
0.000127773
-7.57995e-06
0.000128657
-6.77318e-06
0.000129433
-6.00574e-06
0.000130109
-5.27676e-06
0.000130689
-4.58516e-06
0.000131177
-3.92971e-06
0.00013158
-3.30903e-06
0.000131901
-2.72167e-06
0.000132145
-2.16605e-06
0.000132316
-1.64054e-06
0.000132418
-1.14344e-06
0.000132454
-6.72985e-07
0.000132429
-2.27377e-07
0.000132346
1.95198e-07
0.000132208
5.96551e-07
0.000132018
9.78677e-07
0.000131778
1.34359e-06
0.000131492
1.69326e-06
0.000131161
2.02964e-06
0.000130789
2.35466e-06
0.000130378
2.67024e-06
0.00012993
2.97824e-06
0.000129448
3.2805e-06
0.000128935
3.57876e-06
0.000128394
3.87468e-06
0.000127829
4.16976e-06
0.000127242
4.46531e-06
0.00012664
4.76241e-06
0.000126026
5.06181e-06
0.000125407
5.36388e-06
0.000124788
5.66848e-06
0.000124176
5.97495e-06
0.00012358
6.28195e-06
0.000123007
6.58743e-06
0.000122465
6.88862e-06
0.000121962
7.18199e-06
0.000121503
7.46338e-06
0.000121095
7.72818e-06
0.000120737
7.97157e-06
0.000120431
8.18899e-06
8.37694e-06
0.000120171
2.32402e-05
-3.73872e-06
2.40268e-05
-7.16618e-06
2.5157e-05
-9.97445e-06
2.65902e-05
-1.2385e-05
2.82981e-05
-1.45045e-05
3.02623e-05
-1.64161e-05
3.24772e-05
-1.81997e-05
3.4949e-05
-1.99228e-05
3.76919e-05
-2.16315e-05
4.07218e-05
-2.33444e-05
4.40486e-05
-2.50503e-05
4.76698e-05
-2.67109e-05
5.15673e-05
-2.82699e-05
5.5707e-05
-2.9665e-05
6.00429e-05
-3.08392e-05
6.45212e-05
-3.17492e-05
6.90857e-05
-3.23693e-05
7.36817e-05
-3.26916e-05
7.82593e-05
-3.27235e-05
8.27748e-05
-3.24842e-05
8.71912e-05
-3.20006e-05
9.14788e-05
-3.13042e-05
9.56141e-05
-3.0428e-05
9.95797e-05
-2.94046e-05
0.000103363
-2.82649e-05
0.000106956
-2.7037e-05
0.000110353
-2.57459e-05
0.000113553
-2.44135e-05
0.000116557
-2.30586e-05
0.000119366
-2.16969e-05
0.000121985
-2.03413e-05
0.000124417
-1.90026e-05
0.00012667
-1.76893e-05
0.000128749
-1.6408e-05
0.000130659
-1.51639e-05
0.000132409
-1.39608e-05
0.000134006
-1.28014e-05
0.000135455
-1.16875e-05
0.000136763
-1.062e-05
0.000137938
-9.59954e-06
0.000138987
-8.62587e-06
0.000139914
-7.69851e-06
0.000140727
-6.81662e-06
0.000141432
-5.97912e-06
0.000142033
-5.18469e-06
0.000142537
-4.43186e-06
0.000142949
-3.71901e-06
0.000143274
-3.04444e-06
0.000143516
-2.40635e-06
0.00014368
-1.80288e-06
0.000143771
-1.23214e-06
0.000143792
-6.9216e-07
0.000143747
-1.80986e-07
0.00014364
3.03452e-07
0.000143475
7.63189e-07
0.000143255
1.20041e-06
0.000142982
1.61727e-06
0.000142661
2.01583e-06
0.000142294
2.3981e-06
0.000141884
2.76601e-06
0.000141434
3.12145e-06
0.000140947
3.46621e-06
0.000140426
3.80197e-06
0.000139876
4.1303e-06
0.000139299
4.45257e-06
0.000138699
4.76999e-06
0.000138082
5.0835e-06
0.000137451
5.39379e-06
0.000136813
5.70117e-06
0.000136172
6.00559e-06
0.000135534
6.30658e-06
0.000134907
6.60319e-06
0.000134295
6.89399e-06
0.000133706
7.17707e-06
0.000133145
7.45006e-06
0.000132617
7.71025e-06
0.000132127
7.95467e-06
0.000131675
8.18025e-06
0.000131263
8.38409e-06
0.000130889
8.56368e-06
8.71754e-06
0.000130549
2.48497e-05
-4.13938e-06
2.56715e-05
-7.98752e-06
2.68578e-05
-1.11601e-05
2.83685e-05
-1.38947e-05
3.01772e-05
-1.63119e-05
3.22702e-05
-1.85076e-05
3.46494e-05
-2.05772e-05
3.73313e-05
-2.26028e-05
4.03411e-05
-2.46392e-05
4.37027e-05
-2.67038e-05
4.74285e-05
-2.87738e-05
5.15111e-05
-3.0791e-05
5.59207e-05
-3.26769e-05
6.06078e-05
-3.43493e-05
6.55091e-05
-3.57377e-05
7.05552e-05
-3.67924e-05
7.56768e-05
-3.7488e-05
8.08095e-05
-3.78213e-05
8.58966e-05
-3.78075e-05
9.08901e-05
-3.74747e-05
9.57513e-05
-3.68588e-05
0.00010045
-3.59997e-05
0.000104963
-3.49381e-05
0.000109274
-3.3713e-05
0.000113373
-3.23608e-05
0.000117253
-3.0914e-05
0.000120912
-2.94013e-05
0.000124349
-2.78474e-05
0.000127566
-2.62734e-05
0.000130569
-2.46966e-05
0.000133362
-2.31314e-05
0.000135952
-2.15894e-05
0.000138345
-2.00797e-05
0.000140549
-1.86095e-05
0.000142572
-1.71842e-05
0.000144422
-1.58077e-05
0.000146106
-1.44826e-05
0.000147632
-1.32108e-05
0.000149007
-1.19931e-05
0.00015024
-1.08297e-05
0.000151337
-9.72036e-06
0.000152305
-8.66425e-06
0.000153151
-7.66029e-06
0.000153881
-6.70713e-06
0.000154502
-5.80317e-06
0.000155019
-4.94666e-06
0.000155438
-4.13574e-06
0.000155764
-3.36844e-06
0.000156002
-2.64271e-06
0.000156158
-1.95647e-06
0.000156235
-1.3076e-06
0.000156238
-6.93961e-07
0.000156173
-1.13442e-07
0.000156041
4.36282e-07
0.000155849
9.57498e-07
0.000155598
1.45257e-06
0.000155293
1.92374e-06
0.000154937
2.37313e-06
0.000154534
2.80277e-06
0.000154087
3.21461e-06
0.000153599
3.61046e-06
0.000153074
3.99202e-06
0.000152517
4.36084e-06
0.00015193
4.71829e-06
0.000151318
5.06555e-06
0.000150685
5.40358e-06
0.000150036
5.73306e-06
0.000149377
6.05441e-06
0.000148711
6.36774e-06
0.000148044
6.67282e-06
0.000147383
6.96908e-06
0.000146731
7.25562e-06
0.000146094
7.53121e-06
0.000145478
7.79433e-06
0.000144885
8.04326e-06
0.00014432
8.27613e-06
0.000143784
8.49103e-06
0.000143279
8.68616e-06
0.000142803
8.85996e-06
0.000142356
9.01127e-06
9.13982e-06
0.000141934
2.65721e-05
-4.55928e-06
2.7434e-05
-8.84891e-06
2.86831e-05
-1.24084e-05
3.02806e-05
-1.54911e-05
3.22037e-05
-1.82337e-05
3.44466e-05
-2.07489e-05
3.70232e-05
-2.3152e-05
3.99651e-05
-2.55427e-05
4.33116e-05
-2.79834e-05
4.70946e-05
-3.04844e-05
5.13247e-05
-3.30012e-05
5.59823e-05
-3.54458e-05
6.10178e-05
-3.77096e-05
6.6359e-05
-3.96875e-05
7.19208e-05
-4.12964e-05
7.76156e-05
-4.24841e-05
8.33605e-05
-4.32297e-05
8.9082e-05
-4.35396e-05
9.47183e-05
-4.34405e-05
0.000100219
-4.29722e-05
0.000105546
-4.21819e-05
0.000110668
-4.11193e-05
0.000115567
-3.98333e-05
0.000120228
-3.83702e-05
0.000124642
-3.67717e-05
0.000128806
-3.5075e-05
0.000132721
-3.33124e-05
0.000136388
-3.15113e-05
0.000139812
-2.96947e-05
0.000143
-2.78815e-05
0.000145959
-2.60873e-05
0.000148697
-2.43243e-05
0.000151223
-2.26022e-05
0.000153544
-2.09284e-05
0.000155672
-1.93084e-05
0.000157613
-1.77461e-05
0.000159377
-1.62441e-05
0.000160973
-1.4804e-05
0.000162409
-1.34264e-05
0.000163694
-1.21113e-05
0.000164834
-1.08579e-05
0.000165837
-9.66541e-06
0.000166712
-8.53224e-06
0.000167464
-7.45674e-06
0.0001681
-6.43702e-06
0.000168627
-5.47103e-06
0.00016905
-4.5566e-06
0.000169375
-3.69149e-06
0.000169608
-2.8734e-06
0.000169754
-2.1e-06
0.000169817
-1.36894e-06
0.000169803
-6.77886e-07
0.000169716
-2.46474e-08
0.000169561
5.93357e-07
0.000169341
1.17878e-06
0.000169061
1.73409e-06
0.000168725
2.26156e-06
0.000168336
2.76338e-06
0.000167899
3.24159e-06
0.000167417
3.69812e-06
0.000166894
4.13474e-06
0.000166334
4.55306e-06
0.000165742
4.95451e-06
0.000165121
5.34034e-06
0.000164476
5.71158e-06
0.000163812
6.06903e-06
0.000163132
6.41327e-06
0.000162443
6.7446e-06
0.000161749
7.06308e-06
0.000161054
7.3685e-06
0.000160364
7.66041e-06
0.000159682
7.93814e-06
0.000159013
8.20083e-06
0.00015836
8.44748e-06
0.000157727
8.677e-06
0.000157116
8.88831e-06
0.000156527
9.08038e-06
0.000155962
9.25236e-06
0.000155419
9.40361e-06
0.000154897
9.53385e-06
9.64353e-06
0.000154393
2.84153e-05
-5.00177e-06
2.93233e-05
-9.75641e-06
3.06438e-05
-1.37281e-05
3.23405e-05
-1.71866e-05
3.43973e-05
-2.0289e-05
3.68207e-05
-2.31706e-05
3.96433e-05
-2.59726e-05
4.29173e-05
-2.88144e-05
4.66981e-05
-3.17617e-05
5.10221e-05
-3.48057e-05
5.58889e-05
-3.78653e-05
6.12557e-05
-4.08096e-05
6.7043e-05
-4.34937e-05
7.31485e-05
-4.57898e-05
7.94621e-05
-4.76067e-05
8.58774e-05
-4.88959e-05
9.22993e-05
-4.96482e-05
9.86479e-05
-4.98846e-05
0.000104858
-4.96475e-05
0.000110881
-4.89913e-05
0.000116679
-4.79762e-05
0.000122226
-4.66627e-05
0.000127505
-4.51087e-05
0.000132506
-4.33674e-05
0.000137224
-4.14865e-05
0.00014166
-3.95072e-05
0.000145816
-3.74652e-05
0.000149699
-3.53904e-05
0.000153315
-3.33074e-05
0.000156674
-3.12366e-05
0.000159784
-2.91941e-05
0.000162656
-2.71929e-05
0.0001653
-2.52429e-05
0.000167726
-2.33515e-05
0.000169945
-2.15241e-05
0.000171967
-1.97646e-05
0.000173801
-1.80752e-05
0.000175457
-1.64572e-05
0.000176945
-1.49109e-05
0.000178272
-1.34359e-05
0.000179449
-1.20312e-05
0.000180481
-1.06954e-05
0.000181378
-9.42664e-06
0.000182147
-8.2229e-06
0.000182795
-7.08194e-06
0.000183328
-6.00137e-06
0.000183752
-4.9787e-06
0.000184074
-4.0114e-06
0.0001843
-3.09689e-06
0.000184435
-2.23261e-06
0.000184484
-1.41598e-06
0.000184453
-6.4449e-07
0.000184346
8.43684e-08
0.000184168
7.73335e-07
0.000183924
1.42523e-06
0.000183617
2.04265e-06
0.000183252
2.62797e-06
0.000182834
3.18341e-06
0.000182366
3.71104e-06
0.000181853
4.21277e-06
0.000181299
4.69035e-06
0.000180708
5.14532e-06
0.000180085
5.57908e-06
0.000179433
5.99278e-06
0.000178759
6.38742e-06
0.000178065
6.76374e-06
0.000177357
7.12231e-06
0.00017664
7.46346e-06
0.000175916
7.78733e-06
0.000175192
8.09389e-06
0.00017447
8.38293e-06
0.000173755
8.6541e-06
0.00017305
8.90698e-06
0.000172357
9.14109e-06
0.000171679
9.35593e-06
0.000171017
9.55107e-06
0.000170372
9.72618e-06
0.000169744
9.88108e-06
0.000169132
1.00158e-05
0.000168536
1.01306e-05
1.02263e-05
0.000167954
3.03874e-05
-5.4707e-06
3.13491e-05
-1.07175e-05
3.27523e-05
-1.51303e-05
3.45654e-05
-1.89985e-05
3.67835e-05
-2.25055e-05
3.94329e-05
-2.58181e-05
4.25727e-05
-2.91102e-05
4.62814e-05
-3.25206e-05
5.06288e-05
-3.61064e-05
5.5646e-05
-3.982e-05
6.13071e-05
-4.35233e-05
6.75312e-05
-4.70304e-05
7.41983e-05
-5.01574e-05
8.11713e-05
-5.27592e-05
8.83142e-05
-5.47459e-05
9.55043e-05
-5.60823e-05
0.000102638
-5.6778e-05
0.000109632
-5.6875e-05
0.000116423
-5.64347e-05
0.000122965
-5.55287e-05
0.000129224
-5.42312e-05
0.000135179
-5.26143e-05
0.000140819
-5.07449e-05
0.000146139
-4.86832e-05
0.000151139
-4.6482e-05
0.000155822
-4.41867e-05
0.000160196
-4.18356e-05
0.00016427
-3.94608e-05
0.000168055
-3.70883e-05
0.000171562
-3.47393e-05
0.000174802
-3.24304e-05
0.000177787
-3.01749e-05
0.000180531
-2.79826e-05
0.000183043
-2.58608e-05
0.000185337
-2.38146e-05
0.000187424
-2.18476e-05
0.000189314
-1.99615e-05
0.000191017
-1.81573e-05
0.000192544
-1.64348e-05
0.000193904
-1.47931e-05
0.000195107
-1.32307e-05
0.000196161
-1.17459e-05
0.000197073
-1.03362e-05
0.000197852
-8.99942e-06
0.000198506
-7.73275e-06
0.000199041
-6.53349e-06
0.000199464
-5.39881e-06
0.000199781
-4.32585e-06
0.000199998
-3.31176e-06
0.000200122
-2.35371e-06
0.000200157
-1.44892e-06
0.000200109
-5.94662e-07
0.000199984
2.11929e-07
0.000199786
9.73784e-07
0.000199519
1.6938e-06
0.000199189
2.37467e-06
0.0001988
3.01888e-06
0.000198357
3.6287e-06
0.000197863
4.20624e-06
0.000197324
4.75343e-06
0.000196744
5.27201e-06
0.000196128
5.76354e-06
0.000195479
6.2294e-06
0.000194802
6.67076e-06
0.000194102