/*--------------------------------*- C++ -*----------------------------------*\
  =========                 |
  \\      /  F ield         | OpenFOAM: The Open Source CFD Toolbox
   \\    /   O peration     | Website:  https://openfoam.org
    \\  /    A nd           | Version:  7
     \\/     M anipulation  |
\*---------------------------------------------------------------------------*/
FoamFile
{
    version     2.0;
    format      ascii;
    class       volScalarField;
    location    "8.24";
    object      T;
}
// * * * * * * * * * * * * * * * * * * * * * * * * * * * * * * * * * * * * * //

dimensions      [0 0 0 1 0 0 0];

internalField   nonuniform List<scalar> 
12013
(
300.132
300.4
300.674
300.952
301.232
301.511
301.789
302.063
302.333
302.598
302.856
303.107
303.351
303.586
303.814
304.034
304.246
304.45
304.646
304.834
305.016
305.191
305.359
305.521
305.677
305.827
305.973
306.113
306.249
306.382
306.51
306.636
306.76
306.881
307.001
307.12
307.239
307.359
307.48
307.604
307.732
307.864
308.003
308.149
308.305
308.471
308.651
308.845
309.058
309.29
309.546
309.829
310.142
310.488
310.873
311.301
311.777
312.306
312.895
313.55
314.279
315.088
315.988
316.987
318.095
319.324
320.687
322.197
323.87
325.724
327.78
330.061
332.595
335.415
338.562
342.09
346.067
350.59
355.806
361.959
369.511
300.132
300.4
300.674
300.952
301.232
301.512
301.79
302.064
302.335
302.599
302.857
303.109
303.352
303.588
303.816
304.036
304.248
304.452
304.648
304.837
305.019
305.193
305.361
305.523
305.679
305.83
305.975
306.116
306.252
306.384
306.513
306.639
306.762
306.884
307.003
307.122
307.242
307.361
307.483
307.607
307.734
307.867
308.005
308.151
308.307
308.473
308.652
308.847
309.059
309.291
309.547
309.829
310.142
310.488
310.872
311.299
311.774
312.303
312.891
313.545
314.272
315.08
315.977
316.973
318.079
319.304
320.662
322.167
323.833
325.679
327.723
329.99
332.505
335.3
338.413
341.891
345.794
350.198
355.205
360.938
367.51
300.132
300.4
300.675
300.953
301.234
301.514
301.792
302.067
302.337
302.602
302.861
303.112
303.356
303.592
303.82
304.041
304.253
304.457
304.653
304.842
305.024
305.199
305.367
305.529
305.685
305.836
305.981
306.122
306.258
306.391
306.519
306.645
306.768
306.89
307.009
307.128
307.247
307.367
307.488
307.612
307.74
307.872
308.01
308.156
308.311
308.477
308.656
308.85
309.062
309.294
309.549
309.83
310.142
310.487
310.87
311.296
311.769
312.296
312.881
313.533
314.256
315.061
315.954
316.944
318.043
319.26
320.608
322.1
323.752
325.578
327.599
329.835
332.31
335.052
338.092
341.47
345.227
349.411
354.07
359.232
364.86
300.132
300.401
300.676
300.955
301.236
301.516
301.795
302.071
302.342
302.607
302.866
303.118
303.363
303.599
303.828
304.048
304.261
304.465
304.662
304.851
305.033
305.208
305.377
305.539
305.695
305.846
305.991
306.132
306.268
306.401
306.53
306.655
306.779
306.9
307.019
307.138
307.257
307.377
307.498
307.622
307.749
307.881
308.019
308.164
308.319
308.484
308.663
308.856
309.067
309.298
309.552
309.832
310.142
310.485
310.867
311.29
311.761
312.284
312.866
313.513
314.231
315.029
315.915
316.896
317.984
319.188
320.52
321.992
323.619
325.415
327.398
329.585
331.997
334.657
337.589
340.82
344.373
348.273
352.527
357.117
361.971
300.133
300.402
300.678
300.958
301.239
301.521
301.8
302.076
302.348
302.614
302.874
303.127
303.372
303.609
303.838
304.059
304.272
304.477
304.675
304.864
305.047
305.222
305.391
305.553
305.71
305.861
306.006
306.147
306.283
306.416
306.545
306.67
306.794
306.915
307.034
307.153
307.272
307.391
307.512
307.635
307.762
307.893
308.031
308.176
308.33
308.495
308.672
308.865
309.074
309.304
309.556
309.835
310.143
310.484
310.862
311.282
311.749
312.267
312.844
313.484
314.195
314.984
315.858
316.826
317.898
319.083
320.392
321.836
323.429
325.182
327.111
329.231
331.559
334.111
336.903
339.95
343.264
346.848
350.691
354.758
358.985
300.133
300.404
300.68
300.961
301.244
301.526
301.807
302.084
302.357
302.624
302.885
303.139
303.385
303.623
303.853
304.075
304.289
304.494
304.692
304.882
305.065
305.241
305.41
305.573
305.73
305.881
306.027
306.168
306.304
306.437
306.566
306.691
306.814
306.935
307.055
307.173
307.292
307.411
307.531
307.654
307.78
307.911
308.048
308.192
308.345
308.509
308.685
308.876
309.085
309.312
309.563
309.839
310.144
310.481
310.856
311.271
311.733
312.245
312.814
313.445
314.146
314.922
315.781
316.732
317.783
318.943
320.221
321.628
323.175
324.873
326.734
328.77
330.993
333.414
336.042
338.883
341.938
345.201
348.652
352.256
355.961
300.134
300.406
300.684
300.966
301.25
301.534
301.816
302.095
302.369
302.638
302.9
303.155
303.402
303.642
303.873
304.096
304.31
304.517
304.715
304.906
305.09
305.266
305.436
305.599
305.757
305.908
306.054
306.195
306.332
306.465
306.593
306.719
306.842
306.963
307.082
307.2
307.318
307.437
307.557
307.679
307.805
307.935
308.071
308.214
308.366
308.528
308.703
308.892
309.099
309.324
309.571
309.844
310.145
310.479
310.848
311.257
311.712
312.216
312.775
313.395
314.082
314.842
315.683
316.611
317.635
318.763
320.003
321.364
322.855
324.486
326.265
328.201
330.303
332.576
335.023
337.646
340.439
343.39
346.478
349.673
352.936
300.135
300.408
300.688
300.972
301.258
301.544
301.828
302.109
302.385
302.655
302.919
303.176
303.425
303.665
303.898
304.122
304.338
304.546
304.745
304.937
305.122
305.299
305.47
305.633
305.791
305.943
306.09
306.231
306.368
306.5
306.629
306.755
306.878
306.998
307.117
307.235
307.353
307.471
307.59
307.712
307.837
307.966
308.101
308.243
308.393
308.554
308.726
308.913
309.117
309.339
309.583
309.852
310.148
310.476
310.839
311.241
311.687
312.18
312.728
313.333
314.003
314.744
315.561
316.462
317.453
318.542
319.736
321.042
322.467
324.02
325.705
327.53
329.498
331.611
333.871
336.272
338.807
341.462
344.22
347.053
349.934
300.136
300.411
300.693
300.98
301.268
301.556
301.843
302.126
302.404
302.677
302.943
303.202
303.453
303.696
303.93
304.156
304.373
304.583
304.784
304.977
305.162
305.341
305.512
305.677
305.835
305.987
306.134
306.276
306.413
306.546
306.675
306.801
306.923
307.044
307.162
307.28
307.397
307.514
307.633
307.753
307.877
308.005
308.139
308.279
308.427
308.586
308.756
308.941
309.141
309.359
309.599
309.863
310.153
310.474
310.829
311.222
311.657
312.138
312.671
313.259
313.909
314.626
315.416
316.284
317.237
318.28
319.42
320.663
322.014
323.479
325.061
326.765
328.591
330.54
332.609
334.792
337.08
339.461
341.918
344.431
346.977
300.137
300.415
300.7
300.989
301.281
301.572
301.861
302.147
302.429
302.704
302.973
303.235
303.488
303.733
303.97
304.198
304.417
304.628
304.831
305.026
305.213
305.392
305.565
305.73
305.89
306.043
306.19
306.333
306.47
306.603
306.732
306.858
306.98
307.1
307.218
307.335
307.452
307.568
307.686
307.806
307.928
308.055
308.186
308.325
308.471
308.627
308.794
308.975
309.172
309.386
309.62
309.878
310.162
310.474
310.82
311.202
311.624
312.09
312.606
313.174
313.8
314.49
315.247
316.077
316.986
317.978
319.058
320.231
321.5
322.87
324.343
325.92
327.6
329.383
331.264
333.237
335.293
337.421
339.606
341.833
344.085
300.139
300.42
300.708
301.001
301.296
301.591
301.884
302.174
302.458
302.738
303.01
303.275
303.531
303.779
304.019
304.249
304.471
304.685
304.889
305.086
305.275
305.456
305.63
305.797
305.957
306.111
306.259
306.402
306.54
306.673
306.802
306.928
307.05
307.17
307.288
307.404
307.52
307.635
307.752
307.87
307.991
308.116
308.246
308.382
308.525
308.678
308.842
309.019
309.211
309.42
309.648
309.899
310.174
310.478
310.812
311.181
311.589
312.038
312.533
313.078
313.677
314.335
315.056
315.844
316.704
317.639
318.654
319.751
320.934
322.204
323.563
325.011
326.546
328.165
329.865
331.638
333.478
335.373
337.313
339.286
341.277
300.141
300.426
300.719
301.016
301.315
301.614
301.911
302.206
302.495
302.778
303.055
303.323
303.584
303.835
304.078
304.312
304.537
304.753
304.961
305.16
305.351
305.534
305.71
305.878
306.04
306.195
306.344
306.487
306.626
306.759
306.889
307.014
307.136
307.256
307.373
307.488
307.603
307.718
307.833
307.95
308.069
308.191
308.319
308.452
308.593
308.742
308.902
309.074
309.261
309.463
309.685
309.927
310.193
310.486
310.808
311.162
311.553
311.982
312.455
312.974
313.543
314.167
314.847
315.589
316.396
317.27
318.215
319.233
320.325
321.494
322.737
324.056
325.448
326.91
328.437
330.024
331.663
333.347
335.066
336.81
338.569
300.143
300.433
300.731
301.033
301.337
301.642
301.945
302.244
302.539
302.827
303.109
303.382
303.647
303.903
304.15
304.388
304.617
304.836
305.047
305.249
305.443
305.628
305.806
305.976
306.14
306.296
306.446
306.591
306.73
306.864
306.993
307.119
307.241
307.359
307.476
307.591
307.704
307.818
307.931
308.046
308.163
308.284
308.408
308.539
308.676
308.821
308.976
309.143
309.323
309.519
309.732
309.966
310.221
310.501
310.809
311.148
311.519
311.927
312.375
312.866
313.402
313.988
314.625
315.318
316.068
316.879
317.751
318.688
319.688
320.754
321.884
323.077
324.331
325.642
327.007
328.42
329.876
331.367
332.887
334.427
335.979
300.146
300.442
300.745
301.054
301.364
301.675
301.985
302.291
302.591
302.886
303.174
303.453
303.723
303.985
304.237
304.479
304.713
304.936
305.151
305.356
305.553
305.742
305.922
306.095
306.26
306.418
306.57
306.715
306.855
306.989
307.119
307.245
307.366
307.485
307.6
307.714
307.827
307.939
308.05
308.163
308.278
308.396
308.517
308.644
308.777
308.918
309.068
309.229
309.402
309.59
309.794
310.017
310.261
310.528
310.82
311.141
311.492
311.877
312.297
312.757
313.259
313.804
314.396
315.037
315.73
316.475
317.274
318.128
319.037
320.002
321.021
322.093
323.215
324.385
325.599
326.853
328.141
329.458
330.798
332.155
333.522
300.149
300.452
300.763
301.078
301.397
301.715
302.032
302.346
302.654
302.956
303.251
303.537
303.814
304.082
304.34
304.588
304.827
305.056
305.275
305.485
305.686
305.877
306.061
306.236
306.404
306.564
306.717
306.864
307.005
307.14
307.27
307.395
307.517
307.635
307.75
307.862
307.973
308.084
308.194
308.304
308.416
308.531
308.649
308.772
308.9
309.036
309.18
309.334
309.5
309.68
309.874
310.086
310.317
310.569
310.844
311.146
311.475
311.835
312.227
312.655
313.119
313.623
314.169
314.757
315.391
316.07
316.795
317.569
318.389
319.256
320.169
321.126
322.125
323.163
324.238
325.345
326.481
327.64
328.819
330.012
331.215
300.153
300.464
300.784
301.108
301.435
301.763
302.089
302.411
302.729
303.04
303.343
303.637
303.922
304.197
304.463
304.718
304.963
305.198
305.423
305.638
305.843
306.039
306.226
306.405
306.575
306.738
306.893
307.041
307.183
307.319
307.449
307.575
307.696
307.813
307.927
308.039
308.148
308.257
308.364
308.472
308.582
308.693
308.807
308.926
309.049
309.179
309.317
309.464
309.622
309.792
309.976
310.176
310.393
310.629
310.887
311.168
311.474
311.808
312.171
312.565
312.992
313.454
313.952
314.488
315.062
315.676
316.331
317.025
317.759
318.533
319.346
320.195
321.079
321.996
322.944
323.918
324.916
325.933
326.968
328.014
329.069
300.158
300.479
300.808
301.143
301.481
301.819
302.156
302.489
302.817
303.138
303.451
303.755
304.05
304.334
304.608
304.872
305.124
305.366
305.597
305.818
306.029
306.23
306.422
306.604
306.778
306.943
307.1
307.25
307.394
307.531
307.662
307.787
307.908
308.025
308.138
308.248
308.356
308.462
308.567
308.673
308.779
308.886
308.996
309.11
309.228
309.352
309.483
309.622
309.771
309.932
310.104
310.291
310.494
310.714
310.953
311.214
311.496
311.803
312.136
312.497
312.886
313.305
313.757
314.24
314.757
315.308
315.894
316.513
317.166
317.852
318.571
319.32
320.099
320.905
321.736
322.59
323.464
324.355
325.259
326.175
327.099
300.164
300.496
300.837
301.184
301.534
301.885
302.234
302.58
302.921
303.254
303.579
303.895
304.2
304.495
304.78
305.053
305.314
305.564
305.804
306.032
306.249
306.455
306.652
306.839
307.016
307.185
307.345
307.497
307.642
307.78
307.911
308.037
308.158
308.274
308.386
308.494
308.6
308.704
308.807
308.909
309.011
309.115
309.22
309.329
309.442
309.559
309.683
309.814
309.954
310.103
310.264
310.438
310.626
310.829
311.05
311.289
311.547
311.828
312.13
312.457
312.809
313.188
313.593
314.026
314.488
314.979
315.499
316.047
316.625
317.23
317.862
318.52
319.202
319.907
320.634
321.379
322.141
322.918
323.708
324.507
325.314
300.17
300.516
300.871
301.232
301.597
301.963
302.327
302.688
303.043
303.39
303.729
304.058
304.377
304.685
304.981
305.265
305.537
305.797
306.045
306.282
306.506
306.719
306.922
307.114
307.295
307.468
307.631
307.785
307.932
308.071
308.203
308.329
308.45
308.565
308.676
308.783
308.887
308.988
309.088
309.187
309.285
309.384
309.485
309.588
309.695
309.805
309.922
310.044
310.174
310.313
310.462
310.622
310.795
310.982
311.183
311.4
311.635
311.889
312.162
312.457
312.772
313.111
313.472
313.858
314.267
314.702
315.16
315.643
316.15
316.68
317.233
317.808
318.403
319.018
319.65
320.299
320.961
321.637
322.324
323.019
323.721
300.178
300.539
300.911
301.289
301.671
302.054
302.435
302.813
303.185
303.55
303.905
304.25
304.584
304.907
305.217
305.514
305.798
306.07
306.328
306.574
306.807
307.027
307.236
307.434
307.621
307.797
307.963
308.121
308.269
308.41
308.543
308.669
308.789
308.903
309.013
309.118
309.22
309.319
309.415
309.511
309.605
309.7
309.795
309.893
309.993
310.096
310.205
310.318
310.439
310.567
310.703
310.85
311.008
311.177
311.36
311.556
311.768
311.996
312.241
312.503
312.784
313.085
313.405
313.746
314.107
314.488
314.89
315.313
315.756
316.218
316.7
317.199
317.716
318.25
318.798
319.36
319.935
320.52
321.115
321.719
322.329
300.187
300.567
300.957
301.355
301.757
302.16
302.562
302.96
303.352
303.736
304.111
304.475
304.827
305.166
305.492
305.804
306.102
306.387
306.657
306.913
307.155
307.385
307.601
307.805
307.997
308.178
308.348
308.509
308.659
308.801
308.935
309.062
309.181
309.295
309.403
309.506
309.605
309.701
309.795
309.886
309.976
310.066
310.156
310.247
310.341
310.437
310.537
310.642
310.753
310.87
310.994
311.127
311.27
311.423
311.587
311.763
311.952
312.155
312.373
312.606
312.855
313.12
313.401
313.7
314.016
314.35
314.701
315.069
315.453
315.855
316.272
316.705
317.152
317.613
318.087
318.572
319.069
319.575
320.089
320.611
321.139
300.198
300.599
301.012
301.432
301.858
302.285
302.71
303.132
303.547
303.954
304.351
304.736
305.108
305.467
305.811
306.141
306.455
306.754
307.037
307.305
307.558
307.797
308.022
308.233
308.431
308.617
308.791
308.954
309.108
309.251
309.386
309.512
309.631
309.744
309.85
309.952
310.048
310.141
310.231
310.318
310.404
310.488
310.573
310.658
310.745
310.833
310.925
311.021
311.122
311.228
311.34
311.46
311.588
311.725
311.871
312.028
312.196
312.376
312.568
312.773
312.991
313.224
313.47
313.731
314.006
314.296
314.6
314.919
315.252
315.599
315.959
316.332
316.718
317.115
317.523
317.941
318.369
318.805
319.249
319.699
320.155
300.21
300.637
301.075
301.523
301.975
302.429
302.883
303.331
303.774
304.207
304.629
305.039
305.435
305.816
306.181
306.53
306.862
307.177
307.475
307.756
308.021
308.27
308.504
308.723
308.927
309.119
309.297
309.464
309.619
309.764
309.9
310.026
310.145
310.256
310.361
310.459
310.553
310.643
310.728
310.811
310.892
310.972
311.05
311.129
311.209
311.29
311.374
311.461
311.551
311.647
311.747
311.854
311.968
312.09
312.22
312.358
312.506
312.664
312.832
313.012
313.202
313.405
313.619
313.845
314.084
314.335
314.598
314.873
315.16
315.458
315.768
316.089
316.42
316.761
317.112
317.471
317.838
318.213
318.594
318.982
319.375
300.224
300.68
301.149
301.628
302.112
302.598
303.083
303.564
304.037
304.5
304.952
305.39
305.813
306.219
306.608
306.978
307.33
307.663
307.977
308.273
308.551
308.811
309.054
309.281
309.492
309.689
309.872
310.042
310.199
310.346
310.482
310.608
310.726
310.836
310.938
311.034
311.125
311.211
311.292
311.371
311.446
311.52
311.593
311.665
311.738
311.812
311.887
311.965
312.046
312.131
312.221
312.315
312.416
312.523
312.637
312.758
312.888
313.025
313.172
313.328
313.494
313.669
313.854
314.05
314.256
314.472
314.698
314.935
315.181
315.437
315.703
315.978
316.262
316.554
316.855
317.162
317.477
317.798
318.126
318.458
318.796
300.241
300.731
301.236
301.75
302.271
302.794
303.316
303.833
304.342
304.84
305.325
305.795
306.248
306.682
307.097
307.491
307.865
308.217
308.549
308.86
309.152
309.424
309.677
309.912
310.131
310.333
310.52
310.693
310.853
311
311.137
311.263
311.379
311.487
311.587
311.68
311.767
311.849
311.926
311.999
312.07
312.138
312.205
312.27
312.336
312.402
312.47
312.539
312.611
312.685
312.764
312.847
312.935
313.029
313.128
313.233
313.346
313.465
313.592
313.727
313.87
314.021
314.181
314.349
314.526
314.712
314.906
315.109
315.32
315.539
315.767
316.002
316.245
316.495
316.751
317.015
317.284
317.559
317.839
318.124
318.413
300.261
300.791
301.336
301.892
302.455
303.021
303.585
304.144
304.694
305.232
305.756
306.261
306.748
307.213
307.656
308.077
308.474
308.847
309.198
309.525
309.831
310.115
310.378
310.622
310.847
311.055
311.246
311.422
311.583
311.731
311.867
311.992
312.107
312.212
312.309
312.399
312.482
312.56
312.632
312.7
312.765
312.828
312.888
312.947
313.006
313.064
313.124
313.185
313.247
313.313
313.381
313.453
313.53
313.61
313.696
313.787
313.884
313.987
314.097
314.213
314.336
314.466
314.603
314.747
314.899
315.057
315.224
315.397
315.578
315.765
315.959
316.16
316.368
316.581
316.801
317.026
317.256
317.491
317.731
317.974
318.222
300.283
300.86
301.452
302.057
302.669
303.284
303.898
304.505
305.101
305.684
306.249
306.795
307.319
307.818
308.293
308.741
309.163
309.559
309.929
310.273
310.593
310.889
311.163
311.414
311.646
311.858
312.053
312.23
312.393
312.541
312.676
312.799
312.912
313.014
313.108
313.193
313.272
313.345
313.412
313.475
313.534
313.59
313.644
313.697
313.749
313.8
313.852
313.905
313.959
314.015
314.074
314.136
314.201
314.271
314.344
314.423
314.506
314.594
314.688
314.787
314.893
315.004
315.121
315.245
315.374
315.51
315.652
315.8
315.955
316.115
316.281
316.452
316.629
316.812
316.999
317.191
317.388
317.589
317.794
318.002
318.214
300.31
300.939
301.587
302.248
302.917
303.589
304.258
304.92
305.569
306.202
306.815
307.405
307.969
308.505
309.013
309.491
309.94
310.358
310.748
311.109
311.443
311.751
312.033
312.292
312.529
312.745
312.942
313.121
313.283
313.43
313.564
313.684
313.793
313.892
313.981
314.063
314.136
314.204
314.266
314.323
314.376
314.427
314.474
314.52
314.565
314.61
314.654
314.699
314.745
314.793
314.844
314.896
314.952
315.011
315.074
315.141
315.212
315.287
315.367
315.452
315.542
315.637
315.737
315.843
315.954
316.07
316.191
316.318
316.45
316.587
316.729
316.875
317.027
317.183
317.343
317.507
317.675
317.847
318.023
318.201
318.383
300.34
301.032
301.744
302.47
303.204
303.941
304.674
305.398
306.106
306.795
307.46
308.098
308.706
309.282
309.825
310.334
310.809
311.25
311.659
312.036
312.383
312.701
312.992
313.257
313.497
313.716
313.913
314.092
314.253
314.398
314.528
314.645
314.75
314.845
314.929
315.005
315.074
315.136
315.192
315.243
315.291
315.335
315.376
315.416
315.454
315.492
315.53
315.568
315.607
315.647
315.69
315.734
315.781
315.831
315.885
315.941
316.002
316.066
316.134
316.207
316.284
316.365
316.451
316.542
316.637
316.736
316.84
316.949
317.062
317.179
317.301
317.427
317.556
317.69
317.827
317.968
318.112
318.26
318.41
318.563
318.719
300.376
301.14
301.926
302.727
303.536
304.347
305.153
305.946
306.721
307.471
308.193
308.883
309.537
310.154
310.733
311.273
311.775
312.238
312.665
313.057
313.415
313.741
314.037
314.306
314.549
314.768
314.964
315.141
315.299
315.44
315.566
315.679
315.779
315.868
315.947
316.017
316.08
316.136
316.186
316.232
316.273
316.312
316.347
316.381
316.414
316.445
316.477
316.509
316.541
316.575
316.611
316.649
316.688
316.731
316.776
316.825
316.876
316.931
316.99
317.052
317.118
317.188
317.262
317.34
317.422
317.508
317.597
317.691
317.788
317.89
317.994
318.103
318.214
318.329
318.448
318.569
318.693
318.82
318.949
319.081
319.215
300.417
301.265
302.136
303.023
303.919
304.815
305.702
306.573
307.421
308.239
309.022
309.767
310.47
311.129
311.743
312.313
312.839
313.323
313.765
314.169
314.535
314.867
315.166
315.436
315.678
315.895
316.088
316.261
316.414
316.551
316.671
316.778
316.872
316.955
317.028
317.092
317.149
317.199
317.244
317.284
317.32
317.353
317.383
317.412
317.439
317.466
317.492
317.519
317.547
317.576
317.606
317.638
317.672
317.708
317.747
317.789
317.833
317.881
317.932
317.986
318.044
318.105
318.169
318.237
318.308
318.383
318.461
318.542
318.627
318.715
318.806
318.9
318.997
319.097
319.199
319.304
319.412
319.521
319.633
319.747
319.863
300.465
301.409
302.379
303.366
304.36
305.352
306.331
307.289
308.216
309.107
309.955
310.756
311.508
312.208
312.857
313.454
314.002
314.501
314.955
315.366
315.737
316.071
316.37
316.637
316.876
317.088
317.276
317.442
317.589
317.719
317.833
317.933
318.02
318.097
318.163
318.222
318.273
318.318
318.358
318.393
318.424
318.453
318.479
318.503
318.527
318.55
318.572
318.596
318.619
318.644
318.671
318.699
318.729
318.761
318.795
318.832
318.872
318.914
318.96
319.008
319.059
319.113
319.17
319.23
319.293
319.359
319.428
319.5
319.575
319.652
319.732
319.815
319.9
319.987
320.077
320.169
320.263
320.358
320.456
320.555
320.656
300.52
301.577
302.66
303.761
304.867
305.967
307.048
308.101
309.114
310.082
310.997
311.855
312.653
313.392
314.07
314.69
315.254
315.765
316.225
316.639
317.009
317.34
317.635
317.896
318.128
318.332
318.512
318.671
318.81
318.932
319.038
319.131
319.212
319.282
319.343
319.396
319.442
319.483
319.518
319.55
319.578
319.603
319.627
319.649
319.67
319.691
319.712
319.733
319.755
319.778
319.803
319.829
319.857
319.887
319.919
319.953
319.989
320.029
320.07
320.114
320.161
320.21
320.262
320.317
320.374
320.434
320.496
320.561
320.628
320.697
320.769
320.842
320.918
320.996
321.075
321.156
321.239
321.324
321.41
321.497
321.585
300.584
301.769
302.984
304.214
305.447
306.668
307.862
309.017
310.122
311.168
312.149
313.061
313.903
314.673
315.375
316.011
316.584
317.098
317.558
317.968
318.333
318.656
318.941
319.193
319.415
319.609
319.78
319.929
320.059
320.173
320.272
320.357
320.432
320.497
320.553
320.602
320.645
320.683
320.716
320.746
320.772
320.797
320.82
320.842
320.863
320.884
320.905
320.927
320.949
320.973
320.997
321.024
321.052
321.081
321.113
321.146
321.182
321.22
321.26
321.302
321.347
321.393
321.442
321.493
321.547
321.602
321.66
321.719
321.781
321.844
321.909
321.976
322.044
322.114
322.185
322.258
322.332
322.408
322.484
322.561
322.639
300.658
301.991
303.355
304.734
306.11
307.464
308.78
310.044
311.242
312.365
313.408
314.368
315.244
316.039
316.754
317.396
317.969
318.478
318.93
319.33
319.682
319.993
320.265
320.504
320.713
320.896
321.056
321.195
321.316
321.422
321.514
321.594
321.664
321.726
321.779
321.826
321.868
321.905
321.939
321.969
321.997
322.024
322.049
322.073
322.097
322.121
322.144
322.169
322.194
322.22
322.248
322.276
322.306
322.338
322.371
322.406
322.443
322.481
322.521
322.564
322.608
322.653
322.701
322.75
322.802
322.854
322.909
322.965
323.022
323.081
323.141
323.203
323.266
323.329
323.394
323.46
323.527
323.595
323.663
323.733
323.802
300.742
302.246
303.781
305.327
306.861
308.361
309.808
311.182
312.472
313.667
314.762
315.758
316.657
317.463
318.18
318.815
319.376
319.871
320.306
320.688
321.023
321.316
321.572
321.797
321.992
322.163
322.313
322.443
322.557
322.657
322.745
322.822
322.89
322.951
323.004
323.053
323.096
323.136
323.173
323.207
323.24
323.271
323.301
323.33
323.359
323.388
323.417
323.447
323.477
323.508
323.54
323.573
323.607
323.642
323.679
323.717
323.756
323.797
323.839
323.882
323.927
323.974
324.021
324.07
324.12
324.172
324.224
324.278
324.332
324.388
324.445
324.502
324.56
324.619
324.679
324.739
324.8
324.861
324.923
324.985
325.048
300.839
302.537
304.266
305.999
307.708
309.365
310.945
312.428
313.802
315.057
316.186
317.197
318.097
318.894
319.596
320.213
320.754
321.227
321.641
322.002
322.316
322.591
322.831
323.041
323.224
323.384
323.525
323.649
323.758
323.855
323.942
324.019
324.088
324.151
324.208
324.261
324.31
324.355
324.398
324.439
324.479
324.517
324.554
324.591
324.627
324.664
324.7
324.737
324.774
324.811
324.849
324.888
324.928
324.968
325.009
325.051
325.094
325.138
325.183
325.228
325.275
325.322
325.37
325.419
325.469
325.52
325.571
325.623
325.675
325.728
325.782
325.836
325.89
325.945
326
326.055
326.111
326.166
326.222
326.278
326.334
300.948
302.868
304.815
306.756
308.654
310.475
312.188
313.76
315.185
316.465
317.605
318.613
319.5
320.276
320.955
321.546
322.059
322.506
322.894
323.231
323.525
323.781
324.005
324.201
324.373
324.526
324.66
324.781
324.888
324.985
325.073
325.153
325.227
325.295
325.358
325.418
325.474
325.528
325.58
325.629
325.678
325.725
325.772
325.817
325.863
325.907
325.952
325.997
326.042
326.086
326.131
326.176
326.222
326.267
326.313
326.359
326.406
326.453
326.501
326.549
326.597
326.645
326.694
326.744
326.793
326.843
326.893
326.943
326.993
327.044
327.094
327.145
327.195
327.246
327.296
327.347
327.397
327.447
327.497
327.547
327.597
301.071
303.24
305.432
307.601
309.7
311.658
313.456
315.082
316.536
317.825
318.957
319.946
320.806
321.552
322.197
322.755
323.236
323.652
324.013
324.326
324.599
324.837
325.046
325.23
325.394
325.54
325.672
325.791
325.899
325.998
326.09
326.175
326.255
326.33
326.401
326.469
326.535
326.597
326.658
326.718
326.776
326.832
326.888
326.943
326.997
327.05
327.103
327.155
327.207
327.259
327.31
327.361
327.412
327.462
327.512
327.562
327.612
327.662
327.712
327.761
327.811
327.86
327.909
327.958
328.007
328.055
328.104
328.152
328.2
328.248
328.295
328.342
328.389
328.435
328.481
328.527
328.572
328.617
328.661
328.705
328.749
301.205
303.646
306.107
308.497
310.739
312.796
314.654
316.31
317.768
319.042
320.147
321.102
321.924
322.629
323.235
323.755
324.202
324.587
324.921
325.21
325.463
325.686
325.882
326.057
326.214
326.356
326.486
326.604
326.714
326.817
326.912
327.003
327.089
327.171
327.25
327.325
327.398
327.47
327.539
327.606
327.672
327.736
327.8
327.862
327.923
327.983
328.042
328.101
328.158
328.215
328.271
328.326
328.381
328.435
328.488
328.541
328.593
328.644
328.695
328.746
328.796
328.845
328.894
328.942
328.99
329.037
329.084
329.13
329.175
329.22
329.265
329.308
329.352
329.394
329.436
329.478
329.518
329.559
329.598
329.637
329.675
301.329
304.034
306.719
309.257
311.594
313.706
315.585
317.237
318.674
319.917
320.984
321.899
322.68
323.346
323.916
324.403
324.821
325.181
325.492
325.764
326.002
326.212
326.399
326.567
326.719
326.858
326.986
327.104
327.215
327.319
327.417
327.511
327.6
327.686
327.769
327.849
327.927
328.003
328.077
328.149
328.219
328.288
328.356
328.422
328.487
328.551
328.613
328.675
328.736
328.795
328.854
328.912
328.968
329.024
329.079
329.133
329.187
329.239
329.291
329.342
329.392
329.441
329.489
329.537
329.584
329.63
329.676
329.72
329.764
329.807
329.849
329.891
329.932
329.972
330.011
330.05
330.088
330.125
330.162
330.197
330.233
379.637
387.568
394.25
400.088
405.279
409.931
414.105
417.835
421.134
424.004
426.432
428.396
429.861
430.777
431.08
430.675
429.436
427.163
423.528
417.871
408.546
402.241
397.415
393.468
390.111
387.182
384.581
382.239
380.107
378.15
376.339
374.653
373.074
371.588
370.183
368.85
367.58
366.366
365.201
364.082
363.002
361.958
360.946
359.963
359.007
358.074
357.162
356.271
355.397
354.539
353.696
352.866
352.048
351.242
350.446
349.66
348.882
348.112
347.35
346.595
345.847
345.105
344.37
343.641
342.918
342.201
341.489
340.783
340.084
339.39
338.702
338.02
337.344
336.674
336.011
335.354
334.704
334.061
333.425
332.796
332.175
331.562
330.956
330.359
329.77
329.191
328.62
328.059
327.507
326.965
326.433
325.911
325.4
324.9
324.411
323.933
323.466
323.011
322.567
322.134
321.714
321.305
320.907
320.521
320.147
319.784
319.433
319.093
318.764
318.446
318.139
317.842
317.555
317.278
317.011
316.754
316.505
316.266
316.034
315.811
315.596
315.389
315.188
314.994
314.807
314.626
314.451
314.281
314.117
313.958
313.803
313.652
313.506
313.364
313.225
313.089
312.956
312.827
312.7
312.575
312.453
312.333
312.215
312.098
311.984
311.87
311.759
311.648
311.539
311.431
311.324
311.218
311.113
311.009
310.905
310.803
310.701
310.6
310.501
310.402
310.306
374.903
381.79
388.001
393.592
398.64
403.204
407.322
411.016
414.295
417.155
419.584
421.557
423.041
423.987
424.335
423.999
422.867
420.782
417.528
412.836
406.661
401.324
396.874
393.108
389.852
386.987
384.428
382.117
380.007
378.067
376.269
374.594
373.023
371.544
370.145
368.817
367.551
366.34
365.179
364.062
362.984
361.942
360.932
359.95
358.995
358.063
357.153
356.262
355.389
354.532
353.689
352.86
352.043
351.237
350.441
349.655
348.878
348.108
347.346
346.592
345.844
345.102
344.367
343.638
342.915
342.198
341.487
340.781
340.081
339.387
338.699
338.017
337.341
336.672
336.009
335.352
334.702
334.059
333.423
332.794
332.173
331.56
330.954
330.357
329.769
329.189
328.618
328.057
327.505
326.963
326.431
325.91
325.399
324.899
324.409
323.931
323.464
323.009
322.565
322.133
321.712
321.303
320.906
320.52
320.146
319.783
319.432
319.092
318.763
318.445
318.138
317.841
317.554
317.278
317.011
316.753
316.505
316.265
316.034
315.811
315.596
315.388
315.188
314.994
314.807
314.626
314.451
314.281
314.117
313.958
313.803
313.652
313.506
313.364
313.225
313.089
312.957
312.827
312.7
312.575
312.453
312.333
312.215
312.099
311.984
311.871
311.759
311.649
311.539
311.431
311.324
311.218
311.113
311.009
310.906
310.803
310.701
310.601
310.501
310.402
310.306
370.826
376.713
382.29
387.475
392.256
396.639
400.634
404.244
407.469
410.299
412.718
414.702
416.216
417.218
417.651
417.446
416.516
414.758
412.067
408.397
403.964
399.663
395.783
392.344
389.289
386.556
384.09
381.844
379.784
377.882
376.114
374.462
372.911
371.448
370.062
368.745
367.488
366.285
365.13
364.019
362.946
361.908
360.901
359.923
358.971
358.042
357.133
356.244
355.373
354.517
353.676
352.848
352.032
351.227
350.432
349.647
348.87
348.101
347.339
346.585
345.838
345.097
344.362
343.633
342.91
342.193
341.482
340.776
340.077
339.383
338.695