/*--------------------------------*- C++ -*----------------------------------*\
  =========                 |
  \\      /  F ield         | OpenFOAM: The Open Source CFD Toolbox
   \\    /   O peration     | Website:  https://openfoam.org
    \\  /    A nd           | Version:  7
     \\/     M anipulation  |
\*---------------------------------------------------------------------------*/
FoamFile
{
    version     2.0;
    format      ascii;
    class       volVectorField;
    location    "4.73";
    object      U;
}
// * * * * * * * * * * * * * * * * * * * * * * * * * * * * * * * * * * * * * //

dimensions      [0 1 -1 0 0 0 0];

internalField   nonuniform List<vector> 
12013
(
(0.100586 -0.000162233 0)
(0.102969 -0.00029803 0)
(0.106799 -0.000423413 0)
(0.111737 -0.000539198 0)
(0.117687 -0.000648213 0)
(0.124555 -0.000751838 0)
(0.132251 -0.000850613 0)
(0.140696 -0.000944635 0)
(0.149813 -0.00103364 0)
(0.159525 -0.00111714 0)
(0.169754 -0.00119452 0)
(0.18042 -0.00126516 0)
(0.191443 -0.00132846 0)
(0.20274 -0.00138393 0)
(0.214233 -0.00143125 0)
(0.225843 -0.0014702 0)
(0.237497 -0.00150079 0)
(0.249124 -0.00152313 0)
(0.260662 -0.00153752 0)
(0.272051 -0.00154435 0)
(0.283242 -0.00154411 0)
(0.29419 -0.00153738 0)
(0.304859 -0.00152475 0)
(0.315217 -0.00150687 0)
(0.325241 -0.00148438 0)
(0.334913 -0.0014579 0)
(0.344219 -0.00142807 0)
(0.353152 -0.00139546 0)
(0.361709 -0.00136059 0)
(0.369889 -0.001324 0)
(0.377697 -0.00128616 0)
(0.385139 -0.00124746 0)
(0.392224 -0.00120828 0)
(0.398963 -0.00116899 0)
(0.405368 -0.00112987 0)
(0.411453 -0.00109115 0)
(0.417233 -0.00105307 0)
(0.422723 -0.00101584 0)
(0.42794 -0.0009796 0)
(0.4329 -0.000944453 0)
(0.437619 -0.00091049 0)
(0.442114 -0.000877801 0)
(0.446402 -0.000846442 0)
(0.450498 -0.000816418 0)
(0.454418 -0.000787697 0)
(0.458179 -0.000760238 0)
(0.461795 -0.000733988 0)
(0.465281 -0.000708873 0)
(0.46865 -0.000684785 0)
(0.471917 -0.000661573 0)
(0.475094 -0.000639053 0)
(0.478194 -0.000617007 0)
(0.481227 -0.000595185 0)
(0.484205 -0.000573299 0)
(0.487138 -0.000551009 0)
(0.490035 -0.000527918 0)
(0.492904 -0.00050356 0)
(0.495753 -0.000477389 0)
(0.498586 -0.000448768 0)
(0.50141 -0.00041695 0)
(0.504228 -0.000381053 0)
(0.507042 -0.000340032 0)
(0.509851 -0.000292635 0)
(0.512655 -0.000237348 0)
(0.515448 -0.000172319 0)
(0.518223 -9.52627e-05 0)
(0.520968 -3.27849e-06 0)
(0.523665 0.000107517 0)
(0.52629 0.000242245 0)
(0.528809 0.000407791 0)
(0.531173 0.000613753 0)
(0.533316 0.000873977 0)
(0.535139 0.00120923 0)
(0.5365 0.00165202 0)
(0.537184 0.00225575 0)
(0.536851 0.00311291 0)
(0.534946 0.00439324 0)
(0.530494 0.00643427 0)
(0.521748 0.0100352 0)
(0.505671 0.0180188 0)
(0.489004 0.0490703 0)
(0.100541 -0.000495187 0)
(0.102917 -0.000913178 0)
(0.106734 -0.00129756 0)
(0.111662 -0.00165199 0)
(0.117605 -0.00198551 0)
(0.124467 -0.00230232 0)
(0.132159 -0.00260412 0)
(0.1406 -0.00289123 0)
(0.149715 -0.00316288 0)
(0.159427 -0.0034176 0)
(0.169656 -0.00365357 0)
(0.180324 -0.00386888 0)
(0.191348 -0.00406176 0)
(0.202649 -0.00423076 0)
(0.214146 -0.00437485 0)
(0.22576 -0.00449346 0)
(0.237418 -0.00458657 0)
(0.24905 -0.00465458 0)
(0.260592 -0.00469837 0)
(0.271986 -0.00471915 0)
(0.283181 -0.00471843 0)
(0.294134 -0.00469793 0)
(0.304805 -0.00465949 0)
(0.315167 -0.00460506 0)
(0.325193 -0.00453659 0)
(0.334866 -0.00445597 0)
(0.344174 -0.0043651 0)
(0.353107 -0.00426572 0)
(0.361663 -0.0041595 0)
(0.369843 -0.00404798 0)
(0.377649 -0.00393257 0)
(0.385088 -0.00381455 0)
(0.39217 -0.00369507 0)
(0.398904 -0.00357514 0)
(0.405304 -0.00345568 0)
(0.411383 -0.00333746 0)
(0.417156 -0.00322118 0)
(0.422639 -0.00310737 0)
(0.427847 -0.00299651 0)
(0.432797 -0.00288897 0)
(0.437505 -0.00278507 0)
(0.441988 -0.00268504 0)
(0.446262 -0.00258896 0)
(0.450343 -0.00249684 0)
(0.454248 -0.00240866 0)
(0.45799 -0.00232433 0)
(0.461587 -0.00224369 0)
(0.465051 -0.00216647 0)
(0.468397 -0.0020923 0)
(0.471639 -0.00202071 0)
(0.474789 -0.00195116 0)
(0.477858 -0.00188301 0)
(0.48086 -0.00181549 0)
(0.483804 -0.00174772 0)
(0.4867 -0.00167865 0)
(0.489557 -0.00160706 0)
(0.492383 -0.0015315 0)
(0.495185 -0.00145032 0)
(0.49797 -0.00136158 0)
(0.500742 -0.001263 0)
(0.503505 -0.00115191 0)
(0.506261 -0.00102512 0)
(0.50901 -0.000878848 0)
(0.51175 -0.000708483 0)
(0.514478 -0.000508422 0)
(0.517186 -0.000271741 0)
(0.519863 1.03625e-05 0)
(0.522494 0.000349415 0)
(0.525057 0.000760414 0)
(0.52752 0.00126344 0)
(0.529844 0.0018862 0)
(0.531971 0.00266807 0)
(0.533822 0.00366696 0)
(0.535288 0.00497114 0)
(0.536217 0.00672058 0)
(0.53639 0.00914643 0)
(0.535505 0.0126462 0)
(0.533138 0.0179325 0)
(0.528745 0.0263551 0)
(0.522253 0.0405235 0)
(0.521178 0.0651201 0)
(0.100496 -0.000841999 0)
(0.102847 -0.00156721 0)
(0.106638 -0.0022297 0)
(0.111546 -0.0028403 0)
(0.117473 -0.00341476 0)
(0.124322 -0.00396037 0)
(0.132004 -0.00448008 0)
(0.140439 -0.00497449 0)
(0.14955 -0.00544228 0)
(0.15926 -0.00588092 0)
(0.169489 -0.00628728 0)
(0.180159 -0.00665807 0)
(0.191188 -0.00699024 0)
(0.202495 -0.00728129 0)
(0.213998 -0.00752944 0)
(0.225621 -0.00773372 0)
(0.237287 -0.00789407 0)
(0.248928 -0.0080112 0)
(0.260478 -0.00808661 0)
(0.271881 -0.00812238 0)
(0.283083 -0.00812111 0)
(0.294043 -0.00808576 0)
(0.304721 -0.00801953 0)
(0.315087 -0.00792572 0)
(0.325117 -0.00780771 0)
(0.334793 -0.00766879 0)
(0.344102 -0.00751216 0)
(0.353036 -0.00734088 0)
(0.361591 -0.00715778 0)
(0.369768 -0.00696552 0)
(0.377571 -0.00676653 0)
(0.385005 -0.00656302 0)
(0.39208 -0.00635693 0)
(0.398806 -0.00615004 0)
(0.405196 -0.0059439 0)
(0.411264 -0.00573986 0)
(0.417025 -0.00553906 0)
(0.422493 -0.00534245 0)
(0.427685 -0.00515085 0)
(0.432616 -0.00496493 0)
(0.437304 -0.00478519 0)
(0.441765 -0.00461193 0)
(0.446015 -0.00444534 0)
(0.450069 -0.0042855 0)
(0.453944 -0.00413237 0)
(0.457655 -0.00398577 0)
(0.461217 -0.00384537 0)
(0.464644 -0.00371066 0)
(0.467949 -0.003581 0)
(0.471147 -0.00345563 0)
(0.474249 -0.0033336 0)
(0.477267 -0.00321382 0)
(0.480214 -0.00309497 0)
(0.483098 -0.00297549 0)
(0.48593 -0.00285358 0)
(0.488719 -0.00272713 0)
(0.491472 -0.0025937 0)
(0.494197 -0.00245045 0)
(0.496899 -0.0022941 0)
(0.499584 -0.00212081 0)
(0.502255 -0.00192605 0)
(0.504914 -0.00170447 0)
(0.507563 -0.0014497 0)
(0.510199 -0.00115407 0)
(0.512821 -0.000808279 0)
(0.515421 -0.000400887 0)
(0.517992 8.25877e-05 0)
(0.52052 0.000660703 0)
(0.522988 0.00135724 0)
(0.525374 0.00220355 0)
(0.527647 0.003242 0)
(0.529769 0.00453112 0)
(0.531691 0.00615386 0)
(0.533354 0.0082307 0)
(0.53469 0.0109409 0)
(0.535632 0.0145572 0)
(0.536148 0.019501 0)
(0.53631 0.0264286 0)
(0.536476 0.0363675 0)
(0.537737 0.0508276 0)
(0.543841 0.071003 0)
(0.10045 -0.00120008 0)
(0.10277 -0.0022593 0)
(0.106521 -0.0032203 0)
(0.1114 -0.00410658 0)
(0.117303 -0.00494015 0)
(0.124133 -0.00573171 0)
(0.131801 -0.0064857 0)
(0.140227 -0.00720299 0)
(0.149332 -0.00788171 0)
(0.15904 -0.00851817 0)
(0.169272 -0.00910783 0)
(0.179947 -0.00964589 0)
(0.190983 -0.0101279 0)
(0.2023 -0.0105503 0)
(0.213815 -0.0109104 0)
(0.225451 -0.0112068 0)
(0.237131 -0.0114394 0)
(0.248786 -0.0116092 0)
(0.260351 -0.0117185 0)
(0.271766 -0.0117702 0)
(0.282982 -0.0117681 0)
(0.293952 -0.0117166 0)
(0.304641 -0.0116202 0)
(0.315015 -0.0114837 0)
(0.325052 -0.0113121 0)
(0.334733 -0.0111102 0)
(0.344045 -0.0108825 0)
(0.35298 -0.0106336 0)
(0.361534 -0.0103675 0)
(0.369708 -0.010088 0)
(0.377505 -0.00979874 0)
(0.384931 -0.00950284 0)
(0.391997 -0.00920316 0)
(0.398712 -0.00890226 0)
(0.405088 -0.00860236 0)
(0.41114 -0.00830538 0)
(0.416882 -0.00801301 0)
(0.42233 -0.00772664 0)
(0.427498 -0.00744742 0)
(0.432405 -0.00717625 0)
(0.437065 -0.00691381 0)
(0.441494 -0.0066606 0)
(0.44571 -0.00641693 0)
(0.449728 -0.00618289 0)
(0.453563 -0.00595837 0)
(0.45723 -0.00574302 0)
(0.460745 -0.00553633 0)
(0.464121 -0.00533761 0)
(0.467372 -0.00514595 0)
(0.470511 -0.00496023 0)
(0.473549 -0.00477909 0)
(0.4765 -0.0046009 0)
(0.479374 -0.00442372 0)
(0.482181 -0.00424531 0)
(0.48493 -0.00406307 0)
(0.48763 -0.00387399 0)
(0.49029 -0.00367459 0)
(0.492916 -0.00346088 0)
(0.495514 -0.00322817 0)
(0.498089 -0.00297105 0)
(0.500646 -0.00268315 0)
(0.503186 -0.00235701 0)
(0.505712 -0.0019838 0)
(0.508223 -0.00155297 0)
(0.510717 -0.00105184 0)
(0.513192 -0.000464951 0)
(0.515642 0.000227025 0)
(0.518058 0.00104829 0)
(0.520431 0.00202922 0)
(0.522747 0.00320892 0)
(0.524991 0.00463857 0)
(0.527147 0.00638614 0)
(0.529201 0.00854313 0)
(0.531143 0.0112341 0)
(0.532981 0.0146295 0)
(0.534765 0.0189623 0)
(0.536618 0.0245445 0)
(0.538815 0.0317769 0)
(0.541884 0.041123 0)
(0.546752 0.0529606 0)
(0.555006 0.0669721 0)
(0.100405 -0.00157016 0)
(0.10269 -0.00298939 0)
(0.106395 -0.00427065 0)
(0.111235 -0.00545363 0)
(0.117108 -0.00656607 0)
(0.123915 -0.00762227 0)
(0.131566 -0.00862834 0)
(0.139981 -0.00958547 0)
(0.149081 -0.0104912 0)
(0.158789 -0.0113406 0)
(0.169026 -0.0121276 0)
(0.17971 -0.0128457 0)
(0.190761 -0.0134891 0)
(0.202094 -0.0140527 0)
(0.213628 -0.0145332 0)
(0.225285 -0.0149287 0)
(0.236987 -0.0152389 0)
(0.248664 -0.0154652 0)
(0.26025 -0.0156107 0)
(0.271687 -0.0156792 0)
(0.282922 -0.0156759 0)
(0.29391 -0.0156065 0)
(0.304613 -0.0154772 0)
(0.315001 -0.0152945 0)
(0.325048 -0.0150648 0)
(0.334737 -0.0147945 0)
(0.344054 -0.01449 0)
(0.352991 -0.0141569 0)
(0.361544 -0.0138009 0)
(0.369714 -0.0134271 0)
(0.377505 -0.0130401 0)
(0.384922 -0.0126443 0)
(0.391976 -0.0122433 0)
(0.398675 -0.0118405 0)
(0.405034 -0.0114389 0)
(0.411065 -0.0110412 0)
(0.416784 -0.0106494 0)
(0.422205 -0.0102654 0)
(0.427344 -0.00989076 0)
(0.432218 -0.00952661 0)
(0.436842 -0.00917389 0)
(0.441233 -0.00883325 0)
(0.445407 -0.00850502 0)
(0.449378 -0.00818927 0)
(0.453163 -0.0078858 0)
(0.456777 -0.00759417 0)
(0.460234 -0.00731372 0)
(0.463548 -0.00704352 0)
(0.466733 -0.00678233 0)
(0.4698 -0.00652864 0)
(0.472763 -0.0062806 0)
(0.475633 -0.006036 0)
(0.47842 -0.00579232 0)
(0.481135 -0.00554659 0)
(0.483787 -0.00529542 0)
(0.486385 -0.00503488 0)
(0.488937 -0.00476047 0)
(0.491449 -0.00446696 0)
(0.493928 -0.00414835 0)
(0.49638 -0.00379769 0)
(0.498808 -0.00340692 0)
(0.501217 -0.00296663 0)
(0.503608 -0.00246581 0)
(0.505984 -0.00189145 0)
(0.508346 -0.00122808 0)
(0.510692 -0.0004571 0)
(0.51302 0.000444258 0)
(0.51533 0.00150374 0)
(0.517619 0.0027553 0)
(0.519885 0.0042412 0)
(0.522129 0.00601456 0)
(0.524355 0.0081424 0)
(0.526577 0.0107094 0)
(0.528827 0.013822 0)
(0.53116 0.017612 0)
(0.533679 0.022237 0)
(0.536558 0.0278737 0)
(0.540071 0.0346932 0)
(0.544628 0.042802 0)
(0.550785 0.0521172 0)
(0.559186 0.0621263 0)
(0.10036 -0.00195327 0)
(0.102612 -0.00375805 0)
(0.106266 -0.00538265 0)
(0.111064 -0.00688491 0)
(0.116902 -0.00829776 0)
(0.123682 -0.00963909 0)
(0.131316 -0.0109168 0)
(0.13972 -0.0121325 0)
(0.148818 -0.013283 0)
(0.15853 -0.014362 0)
(0.168778 -0.0153618 0)
(0.17948 -0.0162742 0)
(0.190552 -0.0170916 0)
(0.201911 -0.0178077 0)
(0.213475 -0.018418 0)
(0.225163 -0.0189201 0)
(0.236898 -0.0193137 0)
(0.248608 -0.0196007 0)
(0.260226 -0.0197847 0)
(0.271693 -0.0198709 0)
(0.282956 -0.0198657 0)
(0.29397 -0.0197765 0)
(0.304696 -0.0196111 0)
(0.315103 -0.0193777 0)
(0.325166 -0.0190847 0)
(0.334867 -0.0187401 0)
(0.344192 -0.0183519 0)
(0.353133 -0.0179275 0)
(0.361687 -0.017474 0)
(0.369853 -0.0169977 0)
(0.377637 -0.0165046 0)
(0.385043 -0.0160001 0)
(0.392082 -0.0154891 0)
(0.398764 -0.0149756 0)
(0.405101 -0.0144636 0)
(0.411107 -0.0139561 0)
(0.416796 -0.013456 0)
(0.422185 -0.0129656 0)
(0.427289 -0.0124868 0)
(0.432123 -0.012021 0)
(0.436704 -0.0115693 0)
(0.441047 -0.0111326 0)
(0.44517 -0.0107112 0)
(0.449087 -0.0103051 0)
(0.452813 -0.00991422 0)
(0.456364 -0.00953786 0)
(0.459753 -0.00917519 0)
(0.462994 -0.00882498 0)
(0.466102 -0.00848563 0)
(0.469087 -0.00815518 0)
(0.471963 -0.00783132 0)
(0.47474 -0.0075113 0)
(0.47743 -0.00719195 0)
(0.480042 -0.00686962 0)
(0.482586 -0.00654007 0)
(0.48507 -0.00619848 0)
(0.487503 -0.0058393 0)
(0.489891 -0.0054562 0)
(0.492241 -0.00504192 0)
(0.49456 -0.00458815 0)
(0.496853 -0.00408534 0)
(0.499123 -0.00352248 0)
(0.501376 -0.00288679 0)
(0.503615 -0.00216344 0)
(0.505843 -0.00133501 0)
(0.508063 -0.000381016 0)
(0.510278 0.000723021 0)
(0.512492 0.0020059 0)
(0.514712 0.00350178 0)
(0.516946 0.00525149 0)
(0.519208 0.00730375 0)
(0.521519 0.0097164 0)
(0.523911 0.0125571 0)
(0.526438 0.0159031 0)
(0.529174 0.0198385 0)
(0.532233 0.024448 0)
(0.535769 0.0298022 0)
(0.539991 0.0359327 0)
(0.545156 0.0427912 0)
(0.551543 0.0501904 0)
(0.559378 0.0577347 0)
(0.100315 -0.00235073 0)
(0.102538 -0.00456659 0)
(0.106142 -0.00655905 0)
(0.110895 -0.00840472 0)
(0.116696 -0.0101414 0)
(0.123451 -0.0117904 0)
(0.131068 -0.0133614 0)
(0.139465 -0.0148563 0)
(0.148566 -0.0162714 0)
(0.15829 -0.0175987 0)
(0.168558 -0.0188287 0)
(0.179287 -0.0199512 0)
(0.190393 -0.0209568 0)
(0.201792 -0.0218376 0)
(0.213399 -0.022588 0)
(0.225133 -0.0232052 0)
(0.236914 -0.0236886 0)
(0.248671 -0.0240406 0)
(0.260335 -0.0242656 0)
(0.271845 -0.0243702 0)
(0.283148 -0.0243621 0)
(0.294198 -0.0242505 0)
(0.304956 -0.0240451 0)
(0.315391 -0.0237561 0)
(0.325476 -0.0233936 0)
(0.335194 -0.0229677 0)
(0.344531 -0.0224881 0)
(0.35348 -0.021964 0)
(0.362035 -0.0214039 0)
(0.370199 -0.0208159 0)
(0.377975 -0.0202072 0)
(0.385369 -0.0195843 0)
(0.392391 -0.0189532 0)
(0.399051 -0.0183191 0)
(0.405362 -0.0176865 0)
(0.411338 -0.0170593 0)
(0.416994 -0.0164409 0)
(0.422344 -0.015834 0)
(0.427405 -0.0152411 0)
(0.432192 -0.0146637 0)
(0.436722 -0.0141033 0)
(0.44101 -0.0135607 0)
(0.445073 -0.0130364 0)
(0.448926 -0.0125305 0)
(0.452584 -0.0120426 0)
(0.456062 -0.0115719 0)
(0.459373 -0.0111174 0)
(0.462532 -0.0106775 0)
(0.465552 -0.0102502 0)
(0.468445 -0.00983318 0)
(0.471224 -0.00942364 0)
(0.473898 -0.00901828 0)
(0.47648 -0.00861328 0)
(0.478979 -0.00820426 0)
(0.481405 -0.00778621 0)
(0.483766 -0.00735341 0)
(0.486071 -0.0068994 0)
(0.488327 -0.00641683 0)
(0.490542 -0.0058974 0)
(0.492723 -0.00533165 0)
(0.494875 -0.00470888 0)
(0.497005 -0.00401688 0)
(0.499118 -0.00324173 0)
(0.50122 -0.00236749 0)
(0.503318 -0.00137591 0)
(0.505418 -0.000245971 0)
(0.507527 0.0010466 0)
(0.509656 0.00252924 0)
(0.511817 0.0042333 0)
(0.514027 0.00619439 0)
(0.516309 0.00845249 0)
(0.518693 0.0110516 0)
(0.521222 0.0140384 0)
(0.523952 0.0174598 0)
(0.526958 0.0213582 0)
(0.530335 0.0257635 0)
(0.534199 0.0306815 0)
(0.538685 0.0360771 0)
(0.543929 0.0418549 0)
(0.55005 0.0478391 0)
(0.557091 0.0537651 0)
(0.100269 -0.00276431 0)
(0.10247 -0.00541723 0)
(0.106027 -0.00780355 0)
(0.110736 -0.0100184 0)
(0.116503 -0.0121045 0)
(0.123234 -0.0140858 0)
(0.130839 -0.015974 0)
(0.139237 -0.0177713 0)
(0.148349 -0.0194729 0)
(0.158095 -0.0210694 0)
(0.168396 -0.022549 0)
(0.179167 -0.0238994 0)
(0.190324 -0.0251091 0)
(0.201779 -0.0261684 0)
(0.213447 -0.0270706 0)
(0.225244 -0.0278119 0)
(0.237091 -0.0283921 0)
(0.248912 -0.0288137 0)
(0.260638 -0.0290822 0)
(0.272207 -0.0292055 0)
(0.283565 -0.029193 0)
(0.294665 -0.0290558 0)
(0.305467 -0.0288056 0)
(0.315939 -0.0284548 0)
(0.326055 -0.0280155 0)
(0.335797 -0.0275 0)
(0.345152 -0.02692 0)
(0.354111 -0.0262863 0)
(0.362671 -0.0256095 0)
(0.370834 -0.0248991 0)
(0.378601 -0.0241638 0)
(0.385982 -0.0234113 0)
(0.392984 -0.0226489 0)
(0.399619 -0.0218827 0)
(0.4059 -0.021118 0)
(0.411841 -0.0203597 0)
(0.417456 -0.0196115 0)
(0.422761 -0.0188769 0)
(0.427772 -0.0181586 0)
(0.432504 -0.0174585 0)
(0.436975 -0.0167782 0)
(0.441199 -0.0161188 0)
(0.445194 -0.0154808 0)
(0.448973 -0.0148641 0)
(0.452553 -0.0142684 0)
(0.455948 -0.0136926 0)
(0.459171 -0.0131354 0)
(0.462238 -0.012595 0)
(0.46516 -0.012069 0)
(0.467951 -0.0115547 0)
(0.470622 -0.0110487 0)
(0.473184 -0.0105472 0)
(0.475648 -0.0100458 0)
(0.478025 -0.00953932 0)
(0.480324 -0.00902212 0)
(0.482554 -0.00848769 0)
(0.484724 -0.00792877 0)
(0.486842 -0.00733719 0)
(0.488916 -0.0067038 0)
(0.490954 -0.00601836 0)
(0.492963 -0.00526936 0)
(0.49495 -0.00444396 0)
(0.496924 -0.00352772 0)
(0.498892 -0.00250455 0)
(0.500863 -0.00135641 0)
(0.502847 -6.31332e-05 0)
(0.504856 0.00139763 0)
(0.506903 0.00305001 0)
(0.509006 0.00492035 0)
(0.511187 0.0070368 0)
(0.513472 0.00942859 0)
(0.515897 0.0121249 0)
(0.518502 0.0151526 0)
(0.521339 0.0185334 0)
(0.524471 0.0222795 0)
(0.527966 0.0263872 0)
(0.531899 0.0308303 0)
(0.536347 0.0355516 0)
(0.541369 0.0404563 0)
(0.547001 0.0454092 0)
(0.553216 0.0502439 0)
(0.100221 -0.00319626 0)
(0.102409 -0.00631307 0)
(0.105924 -0.00912102 0)
(0.110594 -0.0117328 0)
(0.116332 -0.0141958 0)
(0.123046 -0.0165367 0)
(0.130647 -0.0187687 0)
(0.139054 -0.0208941 0)
(0.148189 -0.022907 0)
(0.157973 -0.0247961 0)
(0.168323 -0.0265473 0)
(0.179156 -0.0281456 0)
(0.190383 -0.0295772 0)
(0.201916 -0.0308304 0)
(0.213668 -0.0318972 0)
(0.225552 -0.032773 0)
(0.237487 -0.0334573 0)
(0.249394 -0.0339534 0)
(0.261203 -0.0342677 0)
(0.272851 -0.0344095 0)
(0.284282 -0.0343903 0)
(0.295447 -0.0342232 0)
(0.306307 -0.0339223 0)
(0.316828 -0.0335022 0)
(0.326985 -0.0329775 0)
(0.33676 -0.0323626 0)
(0.346138 -0.0316713 0)
(0.355112 -0.0309168 0)
(0.36368 -0.0301113 0)
(0.371842 -0.029266 0)
(0.379601 -0.0283914 0)
(0.386966 -0.0274965 0)
(0.393946 -0.0265897 0)
(0.400553 -0.0256783 0)
(0.406798 -0.0247685 0)
(0.412698 -0.023866 0)
(0.418266 -0.0229752 0)
(0.423518 -0.0221 0)
(0.428471 -0.0212435 0)
(0.433141 -0.0204081 0)
(0.437543 -0.0195955 0)
(0.441694 -0.0188069 0)
(0.44561 -0.0180428 0)
(0.449306 -0.0173032 0)
(0.452797 -0.0165875 0)
(0.456099 -0.0158945 0)
(0.459224 -0.0152227 0)
(0.462188 -0.0145699 0)
(0.465002 -0.0139334 0)
(0.46768 -0.01331 0)
(0.470233 -0.0126959 0)
(0.472673 -0.0120866 0)
(0.47501 -0.0114773 0)
(0.477256 -0.0108622 0)
(0.47942 -0.0102349 0)
(0.481512 -0.00958838 0)
(0.48354 -0.00891475 0)
(0.485514 -0.00820522 0)
(0.487443 -0.00745008 0)
(0.489334 -0.00663864 0)
(0.491198 -0.00575908 0)
(0.493042 -0.00479845 0)
(0.494876 -0.00374257 0)
(0.49671 -0.00257596 0)
(0.498555 -0.00128187 0)
(0.500424 0.000157911 0)
(0.502331 0.00176249 0)
(0.504292 0.00355156 0)
(0.506328 0.00554532 0)
(0.508462 0.00776376 0)
(0.51072 0.0102255 0)
(0.513136 0.0129466 0)
(0.515745 0.0159382 0)
(0.51859 0.0192042 0)
(0.521714 0.0227384 0)
(0.525163 0.0265205 0)
(0.52898 0.0305135 0)
(0.533199 0.0346601 0)
(0.537839 0.0388827 0)
(0.542897 0.043086 0)
(0.548325 0.0471681 0)
(0.100171 -0.00364924 0)
(0.102355 -0.00725814 0)
(0.105838 -0.0105176 0)
(0.110474 -0.0135561 0)
(0.11619 -0.0164264 0)
(0.122896 -0.0191569 0)
(0.130504 -0.0217622 0)
(0.138935 -0.0242445 0)
(0.14811 -0.0265966 0)
(0.15795 -0.0288049 0)
(0.168373 -0.0308525 0)
(0.17929 -0.0327214 0)
(0.190614 -0.0343951 0)
(0.202253 -0.0358597 0)
(0.214117 -0.0371054 0)
(0.226116 -0.0381268 0)
(0.238166 -0.0389233 0)
(0.250186 -0.0394986 0)
(0.262104 -0.0398605 0)
(0.273854 -0.0400201 0)
(0.285378 -0.0399908 0)
(0.296627 -0.0397883 0)
(0.30756 -0.0394291 0)
(0.318144 -0.0389305 0)
(0.328354 -0.0383097 0)
(0.33817 -0.0375835 0)
(0.347578 -0.0367683 0)
(0.356573 -0.0358794 0)
(0.365151 -0.0349312 0)
(0.373312 -0.0339367 0)
(0.381063 -0.0329079 0)
(0.388411 -0.0318557 0)
(0.395365 -0.0307895 0)
(0.401937 -0.0297179 0)
(0.408142 -0.0286481 0)
(0.413994 -0.0275865 0)
(0.419507 -0.0265383 0)
(0.424699 -0.0255079 0)
(0.429585 -0.0244989 0)
(0.434181 -0.0235139 0)
(0.438505 -0.0225549 0)
(0.442572 -0.0216232 0)
(0.446399 -0.0207192 0)
(0.45 -0.019843 0)
(0.453392 -0.0189938 0)
(0.456589 -0.0181703 0)
(0.459605 -0.0173707 0)
(0.462455 -0.0165924 0)
(0.46515 -0.0158325 0)
(0.467704 -0.0150872 0)
(0.47013 -0.0143524 0)
(0.472437 -0.013623 0)
(0.474639 -0.0128938 0)
(0.476745 -0.0121584 0)
(0.478766 -0.0114101 0)
(0.480712 -0.0106412 0)
(0.482592 -0.00984349 0)
(0.484417 -0.00900783 0)
(0.486196 -0.00812426 0)
(0.487937 -0.00718202 0)
(0.489652 -0.00616946 0)
(0.491351 -0.0050741 0)
(0.493044 -0.00388261 0)
(0.494742 -0.0025809 0)
(0.496459 -0.00115419 0)
(0.498209 0.000412856 0)
(0.500007 0.00213554 0)
(0.501871 0.0040287 0)
(0.50382 0.00610633 0)
(0.505878 0.00838081 0)
(0.508069 0.0108619 0)
(0.51042 0.0135553 0)
(0.512961 0.0164616 0)
(0.515719 0.0195739 0)
(0.518726 0.022877 0)
(0.522006 0.0263452 0)
(0.525581 0.0299416 0)
(0.52946 0.0336179 0)
(0.533641 0.0373159 0)
(0.538105 0.040971 0)
(0.542804 0.0445214 0)
(0.100117 -0.00412629 0)
(0.102306 -0.00825752 0)
(0.105768 -0.0120007 0)
(0.11038 -0.0154986 0)
(0.116085 -0.0188093 0)
(0.122796 -0.0219627 0)
(0.130426 -0.0249743 0)
(0.138899 -0.0278461 0)
(0.148136 -0.0305691 0)
(0.158057 -0.0331269 0)
(0.168578 -0.0354991 0)
(0.179611 -0.0376646 0)
(0.191064 -0.0396034 0)
(0.202843 -0.041299 0)
(0.214853 -0.0427396 0)
(0.227002 -0.0439188 0)
(0.2392 -0.0448358 0)
(0.251364 -0.0454951 0)
(0.26342 -0.0459059 0)
(0.275298 -0.0460811 0)
(0.286939 -0.0460369 0)
(0.298293 -0.0457915 0)
(0.309318 -0.0453644 0)
(0.31998 -0.0447757 0)
(0.330254 -0.0440457 0)
(0.34012 -0.043194 0)
(0.349566 -0.0422396 0)
(0.358585 -0.0412004 0)
(0.367175 -0.0400927 0)
(0.375337 -0.038932 0)
(0.383077 -0.037732 0)
(0.390403 -0.0365051 0)
(0.397327 -0.0352623 0)
(0.40386 -0.0340132 0)
(0.410016 -0.0327662 0)
(0.415811 -0.0315285 0)
(0.421261 -0.0303061 0)
(0.426382 -0.029104 0)
(0.43119 -0.027926 0)
(0.435703 -0.0267753 0)
(0.439937 -0.025654 0)
(0.443909 -0.0245635 0)
(0.447634 -0.0235043 0)
(0.451129 -0.0224763 0)
(0.45441 -0.0214787 0)
(0.45749 -0.0205099 0)
(0.460385 -0.019568 0)
(0.463108 -0.01865 0)
(0.465674 -0.0177526 0)
(0.468093 -0.0168717 0)
(0.47038 -0.0160027 0)
(0.472546 -0.0151404 0)
(0.474602 -0.0142788 0)
(0.47656 -0.0134114 0)
(0.478429 -0.012531 0)
(0.480222 -0.0116298 0)
(0.481948 -0.0106992 0)
(0.483617 -0.00973006 0)
(0.485241 -0.00871255 0)
(0.486829 -0.00763619 0)
(0.488391 -0.00648995 0)
(0.489941 -0.00526225 0)
(0.491488 -0.00394114 0)
(0.493046 -0.00251437 0)
(0.494629 -0.00096961 0)
(0.49625 0.000705316 0)
(0.497926 0.00252177 0)
(0.499674 0.00448995 0)
(0.501512 0.00661839 0)
(0.50346 0.0089133 0)
(0.50554 0.0113777 0)
(0.50777 0.0140107 0)
(0.510174 0.0168062 0)
(0.51277 0.0197526 0)
(0.515574 0.0228316 0)
(0.5186 0.0260183 0)
(0.521853 0.0292809 0)
(0.525331 0.0325819 0)
(0.529023 0.0358795 0)
(0.532906 0.0391308 0)
(0.536937 0.0422987 0)
(0.100058 -0.00463088 0)
(0.102264 -0.00931736 0)
(0.105717 -0.0135796 0)
(0.110316 -0.0175727 0)
(0.116023 -0.0213605 0)
(0.122755 -0.024974 0)
(0.130428 -0.0284292 0)
(0.138965 -0.0317275 0)
(0.14829 -0.0348575 0)
(0.158322 -0.0377994 0)
(0.168977 -0.040529 0)
(0.180164 -0.0430208 0)
(0.191786 -0.0452509 0)
(0.203746 -0.0471996 0)
(0.215943 -0.0488529 0)
(0.228282 -0.050203 0)
(0.240667 -0.0512492 0)
(0.253013 -0.0519966 0)
(0.265239 -0.0524561 0)
(0.277276 -0.0526433 0)
(0.289061 -0.0525771 0)
(0.300543 -0.0522787 0)
(0.311679 -0.0517712 0)
(0.322435 -0.0510781 0)
(0.332785 -0.0502227 0)
(0.34271 -0.0492281 0)
(0.352199 -0.0481161 0)
(0.361245 -0.0469072 0)
(0.369847 -0.0456206 0)
(0.378007 -0.0442737 0)
(0.385733 -0.0428823 0)
(0.393033 -0.0414605 0)
(0.399918 -0.0400209 0)
(0.406403 -0.0385745 0)
(0.412502 -0.0371307 0)
(0.418231 -0.0356975 0)
(0.423605 -0.0342818 0)
(0.428643 -0.032889 0)
(0.433362 -0.0315237 0)
(0.437778 -0.0301891 0)
(0.441909 -0.0288877 0)
(0.445772 -0.0276209 0)
(0.449383 -0.0263893 0)
(0.452759 -0.0251927 0)
(0.455914 -0.0240302 0)
(0.458865 -0.0229001 0)
(0.461626 -0.0218 0)
(0.464211 -0.0207267 0)
(0.466633 -0.0196768 0)
(0.468907 -0.0186457 0)
(0.471044 -0.0176285 0)
(0.473057 -0.0166197 0)
(0.474958 -0.015613 0)
(0.476758 -0.0146017 0)
(0.478468 -0.0135785 0)
(0.4801 -0.0125352 0)
(0.481665 -0.0114636 0)
(0.483172 -0.0103545 0)
(0.484635 -0.00919866 0)
(0.486063 -0.0079861 0)
(0.487468 -0.00670675 0)
(0.488862 -0.00535033 0)
(0.490258 -0.00390648 0)
(0.491667 -0.00236507 0)
(0.493105 -0.000716344 0)
(0.494584 0.00104886 0)
(0.496121 0.00293828 0)
(0.49773 0.00495815 0)
(0.499428 0.0071127 0)
(0.501231 0.00940368 0)
(0.503155 0.0118298 0)
(0.505216 0.0143862 0)
(0.507426 0.017064 0)
(0.509798 0.0198502 0)
(0.512339 0.0227273 0)
(0.515054 0.0256737 0)
(0.51794 0.0286642 0)
(0.520991 0.0316709 0)
(0.524191 0.0346646 0)
(0.527518 0.0376172 0)
(0.530939 0.0405065 0)
(0.0999942 -0.00516692 0)
(0.102228 -0.0104451 0)
(0.105686 -0.0152651 0)
(0.110287 -0.0197933 0)
(0.116012 -0.024099 0)
(0.122785 -0.0282146 0)
(0.130524 -0.0321559 0)
(0.139154 -0.035923 0)
(0.148601 -0.0395018 0)
(0.158783 -0.0428682 0)
(0.169615 -0.045993 0)
(0.181001 -0.0488453 0)
(0.192841 -0.0513968 0)
(0.205031 -0.0536236 0)
(0.217466 -0.055509 0)
(0.230042 -0.0570439 0)
(0.24266 -0.0582274 0)
(0.255229 -0.0590658 0)
(0.267664 -0.0595723 0)
(0.279892 -0.059765 0)
(0.291849 -0.0596665 0)
(0.303482 -0.0593018 0)
(0.314748 -0.0586977 0)
(0.325612 -0.0578817 0)
(0.336048 -0.0568809 0)
(0.346039 -0.055722 0)
(0.355575 -0.05443 0)
(0.364648 -0.0530285 0)
(0.37326 -0.0515395 0)
(0.381415 -0.0499828 0)
(0.389119 -0.0483765 0)
(0.396384 -0.0467364 0)
(0.403222 -0.0450769 0)
(0.409648 -0.0434101 0)
(0.415676 -0.0417468 0)
(0.421325 -0.0400961 0)
(0.426611 -0.0384653 0)
(0.431552 -0.0368608 0)
(0.436166 -0.0352873 0)
(0.440471 -0.0337485 0)
(0.444484 -0.0322471 0)
(0.448223 -0.0307846 0)
(0.451704 -0.0293616 0)
(0.454945 -0.027978 0)
(0.457961 -0.0266325 0)
(0.460768 -0.0253233 0)
(0.46338 -0.0240478 0)
(0.465813 -0.0228028 0)
(0.46808 -0.0215842 0)
(0.470195 -0.0203876 0)
(0.472171 -0.0192075 0)
(0.47402 -0.0180384 0)
(0.475755 -0.0168737 0)
(0.477388 -0.0157067 0)
(0.47893 -0.0145298 0)
(0.480392 -0.0133354 0)
(0.481788 -0.0121151 0)
(0.483127 -0.0108604 0)
(0.484421 -0.00956255 0)
(0.485683 -0.00821251 0)
(0.486923 -0.00680131 0)
(0.488154 -0.00532008 0)
(0.489388 -0.00376024 0)
(0.490638 -0.00211371 0)
(0.491917 -0.000373127 0)
(0.493238 0.00146806 0)
(0.494616 0.00341455 0)
(0.496062 0.00546956 0)
(0.49759 0.00763432 0)
(0.499214 0.00990775 0)
(0.500944 0.0122862 0)
(0.502792 0.0147631 0)
(0.504765 0.0173292 0)
(0.506869 0.0199721 0)
(0.509108 0.0226768 0)
(0.511478 0.0254258 0)
(0.513977 0.0282002 0)
(0.516593 0.0309798 0)
(0.519313 0.0337446 0)
(0.522117 0.036476 0)
(0.52498 0.0391612 0)
(0.0999228 -0.00573895 0)
(0.102198 -0.0116497 0)
(0.105677 -0.0170706 0)
(0.110295 -0.0221784 0)
(0.116059 -0.0270484 0)
(0.122898 -0.0317137 0)
(0.130733 -0.0361899 0)
(0.139492 -0.0404751 0)
(0.149102 -0.0445514 0)
(0.159482 -0.0483894 0)
(0.170543 -0.0519533 0)
(0.182185 -0.0552061 0)
(0.194302 -0.0581131 0)
(0.206782 -0.0606459 0)
(0.219512 -0.0627845 0)
(0.232382 -0.0645182 0)
(0.245284 -0.0658461 0)
(0.258122 -0.0667763 0)
(0.270806 -0.0673245 0)
(0.28326 -0.0675126 0)
(0.295418 -0.0673672 0)
(0.307225 -0.066918 0)
(0.318637 -0.0661963 0)
(0.329621 -0.065234 0)
(0.340151 -0.0640628 0)
(0.350212 -0.0627131 0)
(0.359792 -0.061214 0)
(0.36889 -0.0595925 0)
(0.377506 -0.0578733 0)
(0.385645 -0.0560791 0)
(0.393318 -0.0542302 0)
(0.400536 -0.0523446 0)
(0.407312 -0.0504383 0)
(0.413663 -0.048525 0)
(0.419606 -0.0466166 0)
(0.425159 -0.044723 0)
(0.430339 -0.0428527 0)
(0.435166 -0.0410124 0)
(0.439657 -0.0392075 0)
(0.443833 -0.0374419 0)
(0.44771 -0.0357184 0)
(0.451308 -0.0340388 0)
(0.454642 -0.0324036 0)
(0.457731 -0.0308125 0)
(0.460591 -0.0292644 0)
(0.463238 -0.0277571 0)
(0.465687 -0.0262881 0)
(0.467953 -0.0248536 0)
(0.470051 -0.0234496 0)
(0.471994 -0.0220713 0)
(0.473796 -0.0207133 0)
(0.475469 -0.0193696 0)
(0.477027 -0.0180339 0)
(0.478482 -0.0166992 0)
(0.479846 -0.0153584 0)
(0.481131 -0.0140039 0)
(0.482348 -0.0126279 0)
(0.48351 -0.0112224 0)
(0.484629 -0.00977932 0)
(0.485715 -0.00829078 0)
(0.486781 -0.00674895 0)
(0.487839 -0.00514639 0)
(0.4889 -0.00347617 0)
(0.489978 -0.00173209 0)
(0.491083 9.12792e-05 0)
(0.492228 0.00199836 0)
(0.493424 0.00399163 0)
(0.494683 0.00607223 0)
(0.496015 0.00823958 0)
(0.497429 0.0104911 0)
(0.498935 0.0128223 0)
(0.500537 0.0152265 0)
(0.502241 0.0176951 0)
(0.504049 0.0202175 0)
(0.50596 0.0227816 0)
(0.507971 0.0253743 0)
(0.510075 0.0279814 0)
(0.512263 0.0305888 0)
(0.514523 0.0331829 0)
(0.516838 0.0357515 0)
(0.519189 0.0382878 0)
(0.0998428 -0.0063522 0)
(0.102173 -0.0129418 0)
(0.105692 -0.0190121 0)
(0.110346 -0.0247501 0)
(0.116172 -0.0302371 0)
(0.123107 -0.0355072 0)
(0.131075 -0.0405751 0)
(0.140008 -0.0454362 0)
(0.149834 -0.0500675 0)
(0.160471 -0.0544325 0)
(0.171826 -0.0584875 0)
(0.183794 -0.0621867 0)
(0.196259 -0.0654883 0)
(0.209099 -0.0683578 0)
(0.222192 -0.0707713 0)
(0.235417 -0.0727168 0)
(0.24866 -0.0741938 0)
(0.261815 -0.0752126 0)
(0.27479 -0.0757926 0)
(0.287503 -0.0759604 0)
(0.299888 -0.0757476 0)
(0.311888 -0.0751893 0)
(0.323459 -0.0743225 0)
(0.33457 -0.0731844 0)
(0.345197 -0.0718115 0)
(0.355324 -0.0702389 0)
(0.364944 -0.0684999 0)
(0.374057 -0.0666251 0)
(0.382664 -0.0646429 0)
(0.390774 -0.0625785 0)
(0.398399 -0.060455 0)
(0.405551 -0.0582925 0)
(0.412248 -0.0561086 0)
(0.418505 -0.0539187 0)
(0.424342 -0.051736 0)
(0.429778 -0.0495713 0)
(0.434831 -0.047434 0)
(0.439523 -0.0453312 0)
(0.443872 -0.043269 0)
(0.447897 -0.0412514 0)
(0.451619 -0.0392817 0)
(0.455055 -0.0373614 0)
(0.458223 -0.0354913 0)
(0.461142 -0.033671 0)
(0.463828 -0.0318991 0)
(0.466297 -0.0301736 0)
(0.468566 -0.0284915 0)
(0.47065 -0.0268491 0)
(0.472563 -0.025242 0)
(0.47432 -0.0236654 0)
(0.475934 -0.0221138 0)
(0.47742 -0.0205812 0)
(0.478789 -0.0190613 0)
(0.480056 -0.0175473 0)
(0.481231 -0.0160324 0)
(0.482328 -0.0145093 0)
(0.483358 -0.0129707 0)
(0.484333 -0.0114094 0)
(0.485266 -0.00981804 0)
(0.486167 -0.00818972 0)
(0.487048 -0.0065178 0)
(0.487922 -0.00479613 0)
(0.488798 -0.00301925 0)
(0.489689 -0.00118242 0)
(0.490604 0.000718516 0)
(0.491554 0.00268594 0)
(0.49255 0.00472117 0)
(0.4936 0.00682417 0)
(0.494711 0.00899348 0)
(0.495892 0.0112261 0)
(0.497147 0.0135175 0)
(0.498481 0.0158618 0)
(0.499895 0.0182517 0)
(0.50139 0.0206789 0)
(0.502962 0.023134 0)
(0.50461 0.0256074 0)
(0.506324 0.028089 0)
(0.508099 0.030569 0)
(0.509922 0.0330382 0)
(0.511783 0.0354888 0)
(0.513665 0.0379175 0)
(0.0997523 -0.00701284 0)
(0.102154 -0.0143344 0)
(0.105732 -0.0211093 0)
(0.110447 -0.0275353 0)