/*--------------------------------*- C++ -*----------------------------------*\
  =========                 |
  \\      /  F ield         | OpenFOAM: The Open Source CFD Toolbox
   \\    /   O peration     | Website:  https://openfoam.org
    \\  /    A nd           | Version:  7
     \\/     M anipulation  |
\*---------------------------------------------------------------------------*/
FoamFile
{
    version     2.0;
    format      ascii;
    class       volScalarField;
    location    "6.73";
    object      T;
}
// * * * * * * * * * * * * * * * * * * * * * * * * * * * * * * * * * * * * * //

dimensions      [0 0 0 1 0 0 0];

internalField   nonuniform List<scalar> 
12013
(
300.111
300.336
300.567
300.802
301.038
301.275
301.51
301.744
301.974
302.2
302.421
302.637
302.848
303.052
303.249
303.441
303.626
303.804
303.976
304.142
304.303
304.457
304.606
304.75
304.89
305.024
305.155
305.282
305.405
305.526
305.644
305.76
305.874
305.987
306.1
306.214
306.328
306.444
306.563
306.686
306.814
306.948
307.09
307.24
307.402
307.576
307.765
307.971
308.196
308.443
308.716
309.017
309.35
309.719
310.129
310.583
311.087
311.646
312.267
312.956
313.719
314.566
315.503
316.541
317.689
318.959
320.363
321.914
323.629
325.525
327.621
329.942
332.514
335.371
338.554
342.115
346.122
350.673
355.913
362.085
369.653
300.111
300.337
300.568
300.802
301.039
301.275
301.511
301.745
301.975
302.201
302.423
302.639
302.849
303.053
303.251
303.442
303.627
303.806
303.978
304.144
304.305
304.459
304.609
304.753
304.892
305.027
305.157
305.284
305.408
305.528
305.646
305.762
305.876
305.99
306.103
306.216
306.33
306.446
306.566
306.688
306.816
306.95
307.092
307.242
307.404
307.578
307.766
307.972
308.197
308.444
308.716
309.017
309.35
309.718
310.127
310.581
311.084
311.642
312.262
312.95
313.712
314.556
315.492
316.527
317.672
318.938
320.337
321.883
323.591
325.478
327.563
329.869
332.423
335.255
338.403
341.914
345.847
350.278
355.309
361.061
367.648
300.111
300.337
300.568
300.803
301.04
301.277
301.513
301.747
301.977
302.204
302.425
302.642
302.852
303.057
303.255
303.446
303.631
303.81
303.983
304.149
304.309
304.464
304.614
304.758
304.897
305.032
305.163
305.29
305.413
305.533
305.651
305.767
305.882
305.995
306.108
306.221
306.335
306.451
306.57
306.693
306.821
306.955
307.096
307.246
307.407
307.581
307.769
307.974
308.199
308.446
308.717
309.017
309.349
309.717
310.124
310.576
311.078
311.634
312.252
312.936
313.695
314.536
315.466
316.496
317.634
318.892
320.281
321.815
323.507
325.375
327.436
329.711
332.224
335.003
338.078
341.488
345.275
349.486
354.168
359.349
364.991
300.111
300.338
300.569
300.805
301.042
301.279
301.516
301.75
301.981
302.208
302.43
302.647
302.858
303.062
303.261
303.453
303.638
303.817
303.99
304.157
304.317
304.472
304.622
304.766
304.905
305.04
305.171
305.298
305.422
305.542
305.66
305.776
305.89
306.004
306.116
306.23
306.344
306.46
306.578
306.701
306.828
306.962
307.103
307.253
307.413
307.587
307.774
307.979
308.202
308.448
308.719
309.017
309.348
309.713
310.119
310.569
311.067
311.621
312.234
312.914
313.667
314.502
315.424
316.445
317.572
318.816
320.189
321.703
323.37
325.207
327.23
329.456
331.906
334.602
337.569
340.831
344.414
348.339
352.615
357.223
362.091
300.112
300.338
300.571
300.807
301.044
301.283
301.52
301.755
301.986
302.214
302.437
302.654
302.865
303.071
303.27
303.462
303.648
303.828
304.001
304.168
304.329
304.484
304.634
304.778
304.918
305.053
305.184
305.311
305.435
305.555
305.673
305.789
305.903
306.016
306.129
306.242
306.356
306.472
306.59
306.713
306.84
306.973
307.113
307.263
307.423
307.595
307.782
307.985
308.208
308.452
308.721
309.018
309.346
309.709
310.111
310.558
311.052
311.601
312.209
312.882
313.627
314.452
315.364
316.371
317.482
318.707
320.056
321.541
323.174
324.967
326.936
329.095
331.46
334.047
336.872
339.951
343.293
346.902
350.766
354.851
359.091
300.112
300.34
300.573
300.81
301.048
301.287
301.525
301.761
301.994
302.222
302.446
302.664
302.876
303.082
303.282
303.475
303.662
303.842
304.016
304.183
304.344
304.5
304.65
304.795
304.935
305.07
305.202
305.329
305.453
305.573
305.691
305.807
305.921
306.034
306.147
306.26
306.373
306.489
306.607
306.729
306.855
306.988
307.128
307.276
307.435
307.607
307.792
307.994
308.215
308.457
308.724
309.018
309.343
309.703
310.101
310.543
311.032
311.574
312.174
312.838
313.573
314.385
315.281
316.27
317.36
318.559
319.877
321.325
322.912
324.649
326.549
328.623
330.882
333.338
335.998
338.87
341.953
345.24
348.711
352.332
356.05
300.113
300.341
300.576
300.813
301.053
301.294
301.533
301.77
302.004
302.233
302.458
302.677
302.891
303.098
303.299
303.493
303.68
303.861
304.035
304.203
304.365
304.522
304.672
304.818
304.958
305.094
305.225
305.352
305.476
305.597
305.715
305.831
305.945
306.058
306.17
306.283
306.396
306.511
306.629
306.75
306.876
307.008
307.147
307.294
307.452
307.622
307.806
308.006
308.225
308.465
308.729
309.019
309.341
309.696
310.089
310.524
311.006
311.539
312.129
312.782
313.503
314.298
315.175
316.141
317.204
318.37
319.649
321.05
322.58
324.25
326.067
328.041
330.178
332.484
334.964
337.616
340.435
343.409
346.517
349.728
353.004
300.113
300.343
300.579
300.818
301.06
301.302
301.543
301.781
302.017
302.248
302.474
302.695
302.91
303.118
303.32
303.515
303.704
303.885
304.061
304.23
304.393
304.55
304.701
304.847
304.988
305.124
305.255
305.383
305.507
305.628
305.746
305.862
305.976
306.089
306.201
306.313
306.426
306.541
306.658
306.778
306.903
307.034
307.172
307.318
307.474
307.642
307.824
308.022
308.238
308.475
308.735
309.021
309.338
309.687
310.074
310.501
310.974
311.496
312.074
312.712
313.415
314.191
315.044
315.982
317.011
318.138
319.37
320.714
322.178
323.769
325.491
327.352
329.354
331.5
333.79
336.22
338.78
341.458
344.234
347.084
349.977
300.114
300.346
300.584
300.825
301.068
301.312
301.555
301.795
302.033
302.266
302.494
302.717
302.933
303.143
303.347
303.543
303.733
303.917
304.093
304.263
304.427
304.585
304.737
304.884
305.025
305.162
305.294
305.422
305.546
305.667
305.785
305.901
306.015
306.128
306.24
306.351
306.464
306.578
306.694
306.814
306.938
307.067
307.204
307.348
307.503
307.669
307.848
308.043
308.255
308.488
308.744
309.025
309.335
309.678
310.056
310.474
310.935
311.445
312.007
312.627
313.31
314.061
314.886
315.79
316.78
317.86
319.038
320.319
321.707
323.209
324.827
326.565
328.425
330.405
332.503
334.713
337.026
339.429
341.905
344.433
346.992
300.115
300.349
300.589
300.833
301.079
301.325
301.57
301.813
302.053
302.289
302.519
302.744
302.963
303.175
303.38
303.579
303.77
303.955
304.133
304.305
304.47
304.629
304.782
304.93
305.072
305.209
305.342
305.47
305.595
305.716
305.835
305.95
306.064
306.177
306.288
306.399
306.511
306.625
306.74
306.858
306.981
307.109
307.244
307.386
307.539
307.702
307.878
308.07
308.278
308.506
308.756
309.031
309.334
309.668
310.036
310.443
310.891
311.385
311.93
312.529
313.187
313.91
314.702
315.567
316.512
317.54
318.657
319.866
321.172
322.577
324.084
325.695
327.407
329.22
331.13
333.129
335.208
337.357
339.56
341.803
344.067
300.117
300.353
300.596
300.843
301.091
301.341
301.589
301.835
302.078
302.316
302.55
302.777
302.999
303.214
303.421
303.622
303.816
304.003
304.183
304.356
304.523
304.683
304.838
304.986
305.13
305.268
305.401
305.53
305.655
305.777
305.895
306.011
306.125
306.237
306.348
306.459
306.57
306.682
306.797
306.914
307.035
307.161
307.294
307.434
307.584
307.744
307.916
308.104
308.307
308.53
308.774
309.041
309.335
309.659
310.016
310.409
310.842
311.318
311.842
312.417
313.048
313.738
314.492
315.314
316.209
317.179
318.229
319.361
320.579
321.883
323.275
324.755
326.321
327.969
329.696
331.495
333.357
335.272
337.23
339.218
341.221
300.118
300.358
300.604
300.854
301.107
301.36
301.612
301.862
302.108
302.35
302.587
302.818
303.043
303.261
303.472
303.675
303.872
304.061
304.243
304.419
304.587
304.749
304.905
305.056
305.2
305.339
305.474
305.603
305.729
305.851
305.97
306.085
306.199
306.311
306.421
306.532
306.642
306.753
306.866
306.982
307.101
307.226
307.356
307.493
307.64
307.796
307.965
308.147
308.345
308.561
308.797
309.056
309.341
309.653
309.997
310.374
310.79
311.246
311.746
312.294
312.893
313.548
314.261
315.036
315.876
316.784
317.762
318.814
319.94
321.14
322.416
323.765
325.187
326.676
328.229
329.84
331.501
333.204
334.94
336.699
338.471
300.12
300.364
300.614
300.869
301.126
301.383
301.64
301.894
302.145
302.391
302.632
302.868
303.096
303.318
303.532
303.739
303.939
304.131
304.316
304.494
304.665
304.83
304.988
305.139
305.285
305.426
305.561
305.692
305.818
305.941
306.06
306.176
306.289
306.401
306.511
306.62
306.729
306.84
306.951
307.065
307.183
307.304
307.432
307.566
307.709
307.861
308.025
308.202
308.393
308.602
308.83
309.079
309.352
309.652
309.98
310.341
310.737
311.17
311.645
312.163
312.728
313.344
314.012
314.736
315.519
316.361
317.266
318.234
319.267
320.363
321.523
322.745
324.027
325.365
326.754
328.191
329.667
331.178
332.714
334.269
335.833
300.122
300.371
300.626
300.886
301.148
301.411
301.673
301.932
302.189
302.44
302.687
302.927
303.16
303.386
303.605
303.816
304.02
304.216
304.404
304.585
304.759
304.926
305.087
305.24
305.388
305.53
305.667
305.799
305.926
306.049
306.168
306.284
306.398
306.509
306.618
306.727
306.835
306.944
307.054
307.166
307.281
307.4
307.525
307.656
307.794
307.942
308.1
308.27
308.455
308.655
308.874
309.112
309.373
309.658
309.971
310.313
310.687
311.096
311.542
312.028
312.557
313.131
313.753
314.424
315.146
315.922
316.751
317.636
318.575
319.569
320.617
321.716
322.865
324.06
325.297
326.573
327.881
329.216
330.573
331.944
333.324
300.125
300.38
300.641
300.907
301.175
301.444
301.712
301.978
302.241
302.499
302.751
302.997
303.236
303.468
303.692
303.908
304.116
304.317
304.509
304.694
304.872
305.042
305.205
305.361
305.511
305.655
305.794
305.927
306.055
306.179
306.299
306.415
306.528
306.639
306.748
306.855
306.963
307.07
307.178
307.288
307.4
307.517
307.638
307.764
307.898
308.041
308.193
308.356
308.533
308.724
308.932
309.159
309.406
309.676
309.971
310.293
310.644
311.027
311.443
311.896
312.387
312.918
313.491
314.107
314.769
315.477
316.231
317.033
317.881
318.776
319.715
320.698
321.722
322.784
323.881
325.009
326.164
327.342
328.537
329.744
330.959
300.129
300.39
300.658
300.931
301.207
301.483
301.759
302.033
302.303
302.569
302.828
303.081
303.327
303.565
303.795
304.018
304.231
304.437
304.634
304.824
305.005
305.179
305.346
305.505
305.658
305.804
305.945
306.079
306.209
306.333
306.454
306.57
306.683
306.794
306.902
307.009
307.115
307.22
307.326
307.434
307.544
307.657
307.774
307.896
308.025
308.162
308.307
308.463
308.631
308.813
309.01
309.224
309.457
309.71
309.986
310.286
310.613
310.969
311.355
311.772
312.224
312.711
313.235
313.797
314.398
315.039
315.72
316.441
317.202
318.002
318.839
319.713
320.62
321.56
322.528
323.522
324.538
325.573
326.623
327.684
328.752
300.133
300.402
300.678
300.96
301.244
301.53
301.815
302.098
302.377
302.651
302.919
303.18
303.434
303.68
303.918
304.147
304.368
304.579
304.783
304.977
305.164
305.342
305.513
305.676
305.832
305.981
306.123
306.26
306.391
306.517
306.638
306.754
306.868
306.978
307.085
307.191
307.295
307.399
307.503
307.608
307.715
307.824
307.937
308.055
308.178
308.309
308.447
308.596
308.755
308.926
309.111
309.311
309.529
309.765
310.021
310.3
310.602
310.929
311.284
311.666
312.078
312.522
312.997
313.505
314.047
314.623
315.233
315.877
316.555
317.265
318.007
318.779
319.58
320.407
321.258
322.13
323.022
323.929
324.849
325.779
326.715
300.137
300.416
300.702
300.994
301.289
301.585
301.881
302.174
302.464
302.748
303.026
303.297
303.561
303.816
304.062
304.3
304.528
304.747
304.957
305.159
305.351
305.534
305.71
305.877
306.036
306.189
306.334
306.473
306.605
306.732
306.854
306.972
307.085
307.195
307.302
307.406
307.509
307.611
307.713
307.815
307.918
308.024
308.133
308.245
308.363
308.487
308.618
308.758
308.907
309.067
309.24
309.427
309.629
309.847
310.084
310.34
310.617
310.916
311.239
311.586
311.959
312.359
312.787
313.243
313.728
314.242
314.785
315.356
315.956
316.583
317.237
317.916
318.619
319.344
320.089
320.852
321.631
322.424
323.228
324.041
324.86
300.143
300.433
300.731
301.034
301.341
301.65
301.958
302.264
302.565
302.862
303.152
303.435
303.71
303.975
304.232
304.479
304.717
304.945
305.163
305.371
305.57
305.76
305.941
306.113
306.277
306.433
306.581
306.722
306.857
306.986
307.109
307.227
307.34
307.45
307.556
307.659
307.761
307.861
307.96
308.059
308.159
308.26
308.364
308.472
308.584
308.701
308.824
308.955
309.094
309.244
309.404
309.576
309.762
309.963
310.179
310.413
310.665
310.936
311.228
311.541
311.877
312.235
312.617
313.024
313.454
313.91
314.39
314.893
315.421
315.972
316.545
317.139
317.753
318.386
319.036
319.701
320.38
321.071
321.771
322.48
323.195
300.149
300.452
300.764
301.081
301.403
301.726
302.048
302.369
302.685
302.996
303.3
303.596
303.884
304.162
304.431
304.69
304.938
305.176
305.403
305.62
305.827
306.024
306.211
306.388
306.557
306.717
306.869
307.013
307.15
307.281
307.405
307.524
307.638
307.747
307.853
307.955
308.055
308.152
308.249
308.345
308.441
308.539
308.638
308.74
308.845
308.955
309.071
309.193
309.322
309.46
309.608
309.766
309.936
310.119
310.316
310.527
310.755
310.999
311.261
311.541
311.84
312.159
312.499
312.858
313.239
313.639
314.061
314.503
314.965
315.446
315.946
316.464
316.998
317.549
318.113
318.691
319.281
319.881
320.49
321.106
321.728
300.157
300.475
300.802
301.136
301.474
301.814
302.154
302.491
302.825
303.152
303.472
303.784
304.087
304.381
304.663
304.935
305.196
305.445
305.683
305.91
306.126
306.33
306.524
306.708
306.883
307.047
307.203
307.351
307.491
307.623
307.749
307.869
307.983
308.092
308.197
308.298
308.396
308.492
308.585
308.678
308.771
308.864
308.958
309.055
309.154
309.257
309.364
309.477
309.597
309.723
309.858
310.003
310.157
310.323
310.5
310.69
310.894
311.113
311.346
311.595
311.861
312.143
312.442
312.758
313.092
313.443
313.811
314.197
314.599
315.018
315.452
315.902
316.365
316.842
317.331
317.831
318.342
318.861
319.389
319.923
320.463
300.165
300.502
300.848
301.201
301.558
301.918
302.278
302.635
302.988
303.334
303.674
304.004
304.325
304.635
304.934
305.221
305.495
305.758
306.008
306.246
306.471
306.685
306.887
307.078
307.259
307.429
307.59
307.741
307.884
308.018
308.146
308.267
308.381
308.49
308.594
308.694
308.79
308.884
308.975
309.064
309.153
309.242
309.331
309.422
309.514
309.61
309.71
309.814
309.923
310.039
310.162
310.292
310.432
310.581
310.74
310.91
311.091
311.285
311.492
311.712
311.946
312.194
312.456
312.733
313.024
313.331
313.651
313.986
314.335
314.698
315.074
315.462
315.863
316.274
316.697
317.129
317.57
318.018
318.474
318.936
319.404
300.176
300.533
300.901
301.276
301.656
302.039
302.422
302.802
303.177
303.547
303.908
304.26
304.601
304.93
305.247
305.551
305.842
306.119
306.383
306.633
306.87
307.094
307.305
307.504
307.691
307.867
308.033
308.188
308.334
308.471
308.601
308.722
308.837
308.946
309.05
309.148
309.243
309.334
309.422
309.508
309.593
309.677
309.761
309.846
309.933
310.022
310.113
310.209
310.308
310.413
310.524
310.642
310.767
310.9
311.042
311.193
311.354
311.525
311.707
311.9
312.105
312.322
312.551
312.792
313.045
313.311
313.589
313.879
314.18
314.494
314.818
315.153
315.498
315.852
316.216
316.588
316.968
317.355
317.748
318.146
318.55
300.188
300.569
300.962
301.363
301.77
302.18
302.589
302.996
303.398
303.793
304.18
304.556
304.92
305.271
305.609
305.933
306.242
306.536
306.814
307.078
307.327
307.562
307.783
307.991
308.185
308.367
308.538
308.698
308.847
308.987
309.118
309.241
309.357
309.465
309.568
309.665
309.758
309.847
309.932
310.015
310.096
310.175
310.255
310.334
310.414
310.496
310.58
310.667
310.757
310.852
310.952
311.057
311.168
311.287
311.412
311.546
311.687
311.838
311.997
312.167
312.345
312.534
312.733
312.942
313.162
313.392
313.632
313.882
314.142
314.411
314.69
314.978
315.275
315.58
315.892
316.212
316.539
316.871
317.209
317.553
317.9
300.202
300.612
301.034
301.465
301.903
302.343
302.784
303.222
303.654
304.079
304.494
304.898
305.289
305.665
306.026
306.371
306.7
307.012
307.308
307.587
307.849
308.096
308.327
308.544
308.746
308.935
309.111
309.276
309.429
309.571
309.704
309.828
309.944
310.053
310.154
310.25
310.341
310.427
310.51
310.589
310.666
310.741
310.815
310.889
310.963
311.038
311.115
311.194
311.275
311.36
311.449
311.543
311.642
311.746
311.857
311.974
312.099
312.23
312.37
312.517
312.673
312.836
313.009
313.19
313.379
313.578
313.784
314
314.223
314.455
314.695
314.942
315.197
315.458
315.727
316.001
316.281
316.567
316.857
317.152
317.451
300.218
300.661
301.117
301.584
302.057
302.533
303.009
303.483
303.95
304.409
304.857
305.292
305.713
306.117
306.504
306.873
307.224
307.556
307.869
308.164
308.441
308.701
308.943
309.169
309.38
309.575
309.757
309.926
310.083
310.228
310.362
310.487
310.604
310.712
310.813
310.907
310.996
311.079
311.159
311.234
311.307
311.378
311.447
311.516
311.584
311.652
311.722
311.793
311.866
311.942
312.022
312.105
312.192
312.284
312.381
312.484
312.593
312.707
312.829
312.957
313.091
313.233
313.382
313.539
313.702
313.873
314.051
314.236
314.428
314.627
314.833
315.045
315.264
315.488
315.718
315.953
316.194
316.439
316.688
316.941
317.198
300.237
300.718
301.214
301.721
302.235
302.753
303.271
303.785
304.293
304.79
305.275
305.745
306.199
306.634
307.049
307.445
307.819
308.173
308.506
308.818
309.11
309.382
309.636
309.872
310.09
310.293
310.48
310.653
310.813
310.961
311.097
311.223
311.339
311.446
311.546
311.638
311.725
311.806
311.882
311.954
312.023
312.09
312.154
312.217
312.28
312.342
312.405
312.469
312.535
312.602
312.672
312.746
312.822
312.903
312.988
313.078
313.173
313.273
313.378
313.489
313.606
313.728
313.857
313.992
314.133
314.28
314.433
314.592
314.758
314.929
315.105
315.287
315.475
315.667
315.864
316.066
316.272
316.483
316.697
316.914
317.135
300.259
300.785
301.327
301.88
302.442
303.008
303.573
304.134
304.687
305.228
305.755
306.264
306.754
307.223
307.67
308.093
308.493
308.869
309.222
309.552
309.86
310.145
310.41
310.656
310.882
311.091
311.284
311.461
311.623
311.773
311.91
312.036
312.152
312.258
312.356
312.447
312.531
312.609
312.682
312.751
312.816
312.878
312.938
312.996
313.053
313.11
313.166
313.224
313.282
313.342
313.404
313.469
313.536
313.607
313.681
313.76
313.842
313.929
314.021
314.117
314.218
314.324
314.435
314.552
314.674
314.8
314.932
315.07
315.212
315.359
315.511
315.667
315.828
315.993
316.163
316.336
316.513
316.694
316.878
317.065
317.255
300.284
300.862
301.457
302.065
302.682
303.303
303.922
304.536
305.14
305.731
306.303
306.856
307.386
307.891
308.371
308.825
309.251
309.651
310.025
310.372
310.695
310.994
311.27
311.524
311.758
311.973
312.169
312.35
312.514
312.665
312.803
312.928
313.043
313.148
313.245
313.333
313.414
313.489
313.559
313.624
313.685
313.743
313.799
313.852
313.905
313.956
314.007
314.058
314.111
314.164
314.219
314.276
314.335
314.397
314.462
314.531
314.603
314.679
314.758
314.842
314.93
315.022
315.119
315.219
315.325
315.435
315.549
315.667
315.79
315.917
316.048
316.183
316.321
316.464
316.61
316.759
316.912
317.067
317.226
317.387
317.55
300.314
300.952
301.608
302.279
302.959
303.643
304.324
304.999
305.66
306.305
306.929
307.529
308.102
308.646
309.161
309.646
310.1
310.523
310.917
311.282
311.619
311.93
312.216
312.478
312.718
312.937
313.138
313.32
313.486
313.637
313.774
313.899
314.013
314.116
314.21
314.296
314.374
314.446
314.513
314.574
314.632
314.686
314.737
314.787
314.834
314.881
314.927
314.974
315.021
315.068
315.117
315.168
315.22
315.275
315.332
315.392
315.456
315.522
315.592
315.665
315.742
315.823
315.907
315.995
316.087
316.182
316.281
316.384
316.491
316.601
316.715
316.832
316.952
317.075
317.202
317.331
317.463
317.597
317.734
317.873
318.015
300.348
301.055
301.784
302.527
303.28
304.035
304.787
305.529
306.254
306.959
307.639
308.289
308.909
309.494
310.045
310.561
311.042
311.489
311.902
312.283
312.633
312.954
313.248
313.517
313.761
313.984
314.186
314.369
314.535
314.685
314.821
314.944
315.056
315.157
315.248
315.331
315.407
315.476
315.539
315.598
315.652
315.703
315.751
315.797
315.841
315.884
315.926
315.968
316.011
316.054
316.098
316.144
316.191
316.24
316.291
316.344
316.401
316.46
316.522
316.587
316.655
316.726
316.8
316.878
316.959
317.043
317.13
317.22
317.314
317.41
317.509
317.612
317.717
317.824
317.934
318.047
318.162
318.279
318.398
318.519
318.641
300.388
301.176
301.986
302.813
303.649
304.486
305.317
306.134
306.931
307.702
308.441
309.146
309.813
310.44
311.027
311.573
312.08
312.548
312.978
313.373
313.734
314.063
314.363
314.635
314.882
315.105
315.307
315.49
315.655
315.803
315.937
316.058
316.167
316.265
316.354
316.434
316.507
316.573
316.634
316.69
316.742
316.79
316.836
316.879
316.92
316.961
317.001
317.04
317.08
317.12
317.16
317.202
317.246
317.29
317.337
317.386
317.437
317.491
317.547
317.606
317.667
317.731
317.798
317.867
317.939
318.014
318.092
318.172
318.255
318.341
318.428
318.519
318.611
318.706
318.803
318.902
319.003
319.105
319.21
319.315
319.423
300.434
301.315
302.22
303.143
304.073
305.003
305.923
306.824
307.699
308.54
309.342
310.103
310.818
311.486
312.107
312.682
313.211
313.697
314.141
314.546
314.914
315.248
315.55
315.823
316.07
316.293
316.493
316.673
316.835
316.981
317.112
317.23
317.336
317.432
317.518
317.596
317.667
317.731
317.79
317.844
317.894
317.941
317.986
318.028
318.068
318.107
318.146
318.184
318.222
318.261
318.3
318.34
318.382
318.424
318.469
318.515
318.563
318.613
318.665
318.719
318.776
318.835
318.896
318.96
319.026
319.094
319.164
319.237
319.312
319.389
319.468
319.548
319.631
319.716
319.802
319.89
319.979
320.07
320.162
320.255
320.35
300.487
301.475
302.49
303.522
304.561
305.595
306.613
307.606
308.563
309.479
310.347
311.162
311.924
312.631
313.282
313.881
314.428
314.926
315.379
315.789
316.16
316.495
316.796
317.067
317.311
317.53
317.727
317.904
318.062
318.204
318.332
318.447
318.551
318.644
318.728
318.805
318.874
318.938
318.996
319.05
319.1
319.148
319.192
319.235
319.276
319.316
319.355
319.394
319.433
319.472
319.511
319.552
319.593
319.636
319.679
319.725
319.772
319.82
319.871
319.923
319.977
320.033
320.091
320.15
320.212
320.275
320.341
320.408
320.476
320.547
320.619
320.692
320.768
320.844
320.922
321.001
321.081
321.162
321.244
321.327
321.411
300.548
301.659
302.8
303.957
305.117
306.267
307.394
308.485
309.531
310.522
311.454
312.323
313.126
313.865
314.541
315.156
315.714
316.219
316.674
317.083
317.452
317.783
318.08
318.346
318.584
318.798
318.99
319.161
319.316
319.454
319.579
319.691
319.793
319.885
319.968
320.045
320.115
320.179
320.239
320.294
320.347
320.396
320.443
320.488
320.532
320.575
320.617
320.659
320.7
320.742
320.784
320.827
320.87
320.915
320.96
321.006
321.054
321.103
321.154
321.205
321.259
321.313
321.369
321.427
321.486
321.546
321.608
321.671
321.736
321.801
321.868
321.936
322.005
322.075
322.146
322.218
322.29
322.364
322.437
322.512
322.587
300.618
301.871
303.154
304.453
305.75
307.028
308.272
309.467
310.602
311.667
312.658
313.572
314.409
315.171
315.863
316.486
317.045
317.547
317.997
318.4
318.76
319.082
319.371
319.629
319.86
320.067
320.253
320.42
320.57
320.706
320.829
320.94
321.041
321.134
321.219
321.297
321.369
321.437
321.5
321.56
321.616
321.67
321.722
321.772
321.821
321.869
321.916
321.962
322.009
322.055
322.102
322.149
322.196
322.244
322.292
322.341
322.391
322.442
322.494
322.547
322.601
322.656
322.711
322.768
322.826
322.884
322.944
323.004
323.066
323.128
323.191
323.254
323.318
323.383
323.448
323.514
323.58
323.646
323.713
323.78
323.848
300.698
302.113
303.558
305.016
306.464
307.881
309.249
310.549
311.769
312.904
313.944
314.889
315.743
316.512
317.203
317.821
318.373
318.865
319.305
319.696
320.045
320.357
320.635
320.884
321.107
321.308
321.489
321.652
321.799
321.933
322.056
322.168
322.27
322.366
322.454
322.536
322.613
322.686
322.755
322.821
322.883
322.944
323.003
323.06
323.115
323.17
323.224
323.277
323.329
323.382
323.434
323.487
323.539
323.591
323.644
323.697
323.75
323.804
323.858
323.913
323.968
324.023
324.079
324.136
324.193
324.251
324.308
324.367
324.425
324.485
324.544
324.604
324.663
324.723
324.784
324.844
324.904
324.965
325.025
325.086
325.146
300.788
302.386
304.015
305.65
307.263
308.828
310.323
311.721
313.009
314.184
315.248
316.206
317.064
317.829
318.511
319.117
319.654
320.132
320.555
320.932
321.267
321.566
321.834
322.073
322.289
322.483
322.659
322.819
322.965
323.1
323.223
323.338
323.444
323.543
323.637
323.725
323.809
323.888
323.964
324.038
324.108
324.177
324.243
324.308
324.371
324.434
324.495
324.555
324.615
324.674
324.732
324.791
324.848
324.906
324.963
325.019
325.076
325.133
325.189
325.246
325.302
325.358
325.415
325.471
325.528
325.584
325.64
325.696
325.753
325.809
325.865
325.921
325.977
326.032
326.088
326.143
326.198
326.252
326.307
326.361
326.414
300.889
302.693
304.526
306.355
308.147
309.853
311.443
312.905
314.235
315.435
316.509
317.465
318.314
319.065
319.728
320.314
320.831
321.288
321.692
322.051
322.371
322.656
322.912
323.142
323.35
323.539
323.711
323.87
324.016
324.151
324.277
324.395
324.506
324.61
324.71
324.805
324.895
324.982
325.066
325.147
325.226
325.302
325.376
325.449
325.52
325.589
325.657
325.724
325.79
325.855
325.919
325.982
326.045
326.106
326.167
326.227
326.286
326.345
326.403
326.461
326.518
326.575
326.631
326.687
326.742
326.797
326.852
326.906
326.959
327.012
327.065
327.117
327.169
327.22
327.271
327.321
327.37
327.42
327.468
327.516
327.564
300.997
303.021
305.076
307.109
309.044
310.849
312.508
314.012
315.363
316.567
317.633
318.573
319.4
320.126
320.763
321.322
321.814
322.247
322.63
322.97
323.273
323.545
323.789
324.01
324.211
324.395
324.565
324.722
324.867
325.004
325.132
325.253
325.368
325.478
325.582
325.683
325.779
325.872
325.962
326.05
326.134
326.217
326.297
326.376
326.453
326.528
326.601
326.673
326.743
326.813
326.881
326.947
327.013
327.077
327.14
327.202
327.263
327.323
327.382
327.441
327.498
327.554
327.61
327.665
327.719
327.772
327.825
327.877
327.928
327.978
328.027
328.076
328.124
328.171
328.218
328.263
328.308
328.353
328.396
328.439
328.481
301.093
303.319
305.577
307.745
309.775
311.642
313.334
314.851
316.198
317.386
318.43
319.344
320.143
320.841
321.45
321.984
322.453
322.865
323.23
323.554
323.843
324.103
324.338
324.552
324.747
324.927
325.093
325.248
325.394
325.53
325.659
325.782
325.899
326.01
326.118
326.221
326.321
326.417
326.511
326.601
326.689
326.775
326.859
326.94
327.02
327.098
327.174
327.248
327.321
327.392
327.462
327.53
327.597
327.663
327.727
327.79
327.852
327.913
327.972
328.031
328.088
328.144
328.199
328.253
328.307
328.359
328.41
328.46
328.509
328.558
328.605
328.652
328.697
328.742
328.786
328.829
328.871
328.912
328.953
328.992
329.031
379.788
387.722
394.402
400.233
405.415
410.056
414.217
417.932
421.216
424.069
426.48
428.427
429.875
430.775
431.061
430.643
429.39
427.107
423.461
417.795
408.463
402.151
397.318
393.365
390.002
387.068
384.461
382.115
379.978
378.016
376.201
374.511
372.927
371.437
370.028
368.69
367.414
366.194
365.024
363.897
362.81
361.757
360.736
359.743
358.776
357.831
356.907
356.001
355.111
354.237
353.376
352.527
351.689
350.862
350.043
349.232
348.428
347.632
346.841
346.057
345.278
344.504
343.734
342.97
342.21
341.455
340.705
339.959
339.217
338.48
337.749
337.022
336.3
335.584
334.873
334.168
333.47
332.778
332.093
331.415
330.745
330.083
329.429
328.784
328.148
327.522
326.905
326.299
325.704
325.12
324.547
323.986
323.437
322.901
322.377
321.865
321.367
320.882
320.409
319.95
319.505
319.072
318.653
318.247
317.854
317.474
317.107
316.753
316.41
316.08
315.762
315.455
315.16
314.876
314.602
314.338
314.085
313.841
313.607
313.381
313.164
312.955
312.754
312.56
312.373
312.194
312.02
311.853
311.692
311.536
311.385
311.239
311.098
310.961
310.828
310.699
310.573
310.451
310.332
310.216
310.103
309.992
309.884
309.778
309.674
309.572
309.472
309.374
309.277
309.182
309.088
308.996
308.904
308.814
308.725
308.637
308.55
308.464
308.379
308.295
308.214
375.05
381.94
388.15
393.736
398.776
403.328
407.433
411.113
414.376
417.22
419.631
421.587
423.053
423.984
424.315
423.965
422.82
420.724
417.46
412.759
406.576
401.232
396.776
393.003
389.742
386.871
384.308
381.991
379.878
377.933
376.131
374.451
372.876
371.393
369.99
368.656
367.385
366.169
365.001
363.877
362.792
361.741
360.722
359.73
358.764
357.821
356.897
355.992
355.104
354.23
353.37
352.521
351.684
350.857
350.038
349.227
348.424
347.628
346.838
346.053
345.274
344.501
343.732
342.967
342.208
341.453
340.702
339.956
339.215
338.478
337.746
337.019
336.298
335.582
334.871
334.166
333.468
332.776
332.091
331.413
330.743
330.081
329.427
328.782
328.146
327.52
326.903
326.297
325.702
325.118
324.545
323.984
323.435
322.899
322.375
321.863
321.365
320.88
320.408
319.949
319.503
319.071
318.652
318.246
317.853
317.473
317.106
316.751
316.409
316.079
315.761
315.454
315.159
314.875
314.601
314.338
314.084
313.841
313.606
313.38
313.163
312.954
312.753
312.56
312.373
312.193
312.02
311.853
311.692
311.536
311.385
311.239
311.098
310.961
310.828
310.699
310.573
310.451
310.332
310.216
310.103
309.992
309.884
309.778
309.674
309.573
309.473
309.374
309.277
309.182
309.088
308.996
308.905
308.815
308.725
308.637
308.55
308.464
308.379
308.296
308.214
370.965
376.857
382.433
387.615
392.388
396.761
400.743
404.339
407.548
410.361
412.763
414.729
416.226
417.211
417.629
417.409
416.465
414.696
411.994
408.316
403.876
399.568
395.682
392.236
389.176
386.438
383.966
381.716
379.652
377.746
375.974
374.318
372.763
371.296
369.906
368.583
367.321
366.113
364.952
363.834
362.753
361.707
360.692
359.703
358.74
357.799
356.878
355.975
355.088
354.215
353.356
352.509
351.673
350.847
350.029
349.219
348.417
347.621
346.831
346.047
345.268
344.495
343.726
342.962
342.203
341.448
340.697
339.952
339.21