/*--------------------------------*- C++ -*----------------------------------*\
  =========                 |
  \\      /  F ield         | OpenFOAM: The Open Source CFD Toolbox
   \\    /   O peration     | Website:  https://openfoam.org
    \\  /    A nd           | Version:  7
     \\/     M anipulation  |
\*---------------------------------------------------------------------------*/
FoamFile
{
    version     2.0;
    format      ascii;
    class       volScalarField;
    location    "2";
    object      p;
}
// * * * * * * * * * * * * * * * * * * * * * * * * * * * * * * * * * * * * * //

dimensions      [0 2 -2 0 0 0 0];

internalField   nonuniform List<scalar> 
2790
(
148.536
148.443
148.71
149.282
150.062
151.019
152.152
153.459
154.936
156.577
158.376
160.327
162.421
164.646
166.986
169.421
171.925
174.463
176.994
179.468
181.825
184.002
185.931
187.55
188.809
189.682
190.118
190.173
190.224
190.437
148.333
148.351
148.643
149.211
149.988
150.942
152.07
153.371
154.84
156.473
158.263
160.204
162.287
164.501
166.83
169.255
171.75
174.283
176.813
179.29
181.657
183.851
185.805
187.452
188.736
189.609
190.005
190.06
190.192
190.477
148.134
148.222
148.533
149.091
149.855
150.796
151.909
153.192
154.64
156.248
158.01
159.92
161.968
164.143
166.431
168.813
171.264
173.755
176.246
178.692
181.041
183.233
185.204
186.893
188.243
189.218
189.81
190.165
190.48
190.779
147.909
148.028
148.352
148.901
149.65
150.575
151.668
152.927
154.346
155.921
157.645
159.51
161.509
163.629
165.857
168.175
170.559
172.981
175.408
177.797
180.103
182.274
184.255
185.994
187.447
188.598
189.465
190.136
190.688
191.207
147.648
147.781
148.113
148.655
149.387
150.292
151.359
152.587
153.969
155.5
157.174
158.984
160.919
162.97
165.122
167.357
169.655
171.989
174.33
176.642
178.887
181.021
183.002
184.791
186.361
187.702
188.832
189.794
190.604
191.351
147.347
147.486
147.82
148.352
149.065
149.943
150.979
152.168
153.506
154.986
156.601
158.344
160.205
162.172
164.233
166.371
168.566
170.794
173.031
175.245
177.407
179.483
181.444
183.264
184.926
186.427
187.772
188.977
189.997
190.914
147.005
147.144
147.476
147.994
148.684
149.532
150.531
151.677
152.963
154.383
155.93
157.596
159.371
161.244
163.201
165.227
167.302
169.407
171.52
173.615
175.669
177.659
179.566
181.375
183.08
184.679
186.173
187.551
188.715
189.761
146.62
146.757
147.082
147.584
148.248
149.062
150.02
151.115
152.343
153.696
155.167
156.747
158.425
160.191
162.032
163.931
165.871
167.835
169.802
171.753
173.67
175.536
177.342
179.083
180.761
182.379
183.933
185.404
186.653
187.804
146.194
146.327
146.641
147.124
147.759
148.535
149.446
150.487
151.651
152.93
154.317
155.801
157.374
159.022
160.733
162.491
164.28
166.083
167.882
169.66
171.403
173.1
174.747
176.346
177.907
179.441
180.948
182.417
183.688
184.926
145.727
145.855
146.156
146.616
147.219
147.954
148.816
149.797
150.891
152.09
153.385
154.766
156.224
157.744
159.314
160.917
162.539
164.161
165.766
167.339
168.867
170.34
171.757
173.124
174.456
175.773
177.092
178.429
179.629
180.932
145.222
145.343
145.629
146.064
146.633
147.323
148.131
149.048
150.067
151.18
152.378
153.649
154.983
156.366
157.784
159.22
160.657
162.078
163.464
164.799
166.066
167.255
168.362
169.389
170.351
171.279
172.208
173.205
174.166
175.483
144.679
144.794
145.062
145.471
146.002
146.646
147.396
148.245
149.186
150.209
151.303
152.458
153.662
154.899
156.154
157.411
158.65
159.851
160.993
162.054
163.016
163.858
164.565
165.13
165.555
165.864
166.105
166.411
166.79
167.963
144.102
144.209
144.459
144.839
145.331
145.925
146.616
147.394
148.252
149.18
150.167
151.201
152.268
153.353
154.438
155.505
156.532
157.496
158.372
159.131
159.744
160.178
160.4
160.374
160.07
159.471
158.594
157.599
156.648
157.15
143.493
143.591
143.822
144.171
144.622
145.166
145.794
146.499
147.272
148.102
148.978
149.887
150.813
151.74
152.649
153.519
154.324
155.039
155.63
156.063
156.293
156.271
155.932
155.2
153.977
152.147
149.582
146.276
142.322
140.279
142.853
142.943
143.153
143.471
143.88
144.371
144.935
145.565
146.251
146.981
147.744
148.524
149.306
150.072
150.801
151.468
152.046
152.503
152.8
152.892
152.719
152.21
151.266
149.752
147.474
144.142
139.298
132.277
121.802
109.553
3.75304
3.70034
3.5376
3.30911
3.05652
2.79851
2.54208
2.29136
2.0499
1.82105
1.60864
1.41735
1.25137
1.11262
1.00169
0.921775
0.876943
0.863743
0.874251
0.904458
0.949591
0.997625
1.03409
1.0468
1.02791
0.972741
0.875748
0.72673
0.512771
0.222607
3.62197
3.56171
3.41181
3.20271
2.96784
2.72415
2.4794
2.23831
2.00455
1.78162
1.57371
1.38627
1.22407
1.08898
0.980811
0.90328
0.858886
0.842944
0.857588
0.895164
0.947485
1.00191
1.04319
1.05893
1.0406
0.984301
0.886758
0.739169
0.525131
0.227005
3.50138
3.43263
3.29035
3.09637
2.87752
2.64757
2.41431
2.18286
1.95678
1.7395
1.53545
1.35143
1.19313
1.06061
0.947108
0.870647
0.843496
0.844706
0.860361
0.896421
0.949904
1.0057
1.04855
1.06639
1.05142
0.998269
0.897939
0.743293
0.5224
0.219701
3.40998
3.33219
3.19391
3.00988
2.80317
2.58429
2.36087
2.1383
1.91962
1.70808
1.50669
1.32288
1.16834
1.05122
0.96148
0.878993
0.828572
0.82868
0.855223
0.897302
0.95315
1.00903
1.05086
1.0674
1.05119
0.996253
0.891832
0.731322
0.50561
0.202239
3.38186
3.29508
3.15954
2.98068
2.7806
2.56778
2.34998
2.13316
1.91993
1.71545
1.52271
1.34677
1.1931
1.06486
0.965508
0.896023
0.854473
0.847353
0.867611
0.906034
0.955972
1.0054
1.04156
1.05389
1.03452
0.975015
0.865798
0.702428
0.476626
0.178415
3.43618
3.33848
3.2
3.01918
2.81744
2.60369
2.38555
2.16856
1.95679
1.75392
1.56423
1.39075
1.23613
1.10423
1.00072
0.927039
0.883108
0.86927
0.880734
0.910424
0.950597
0.990496
1.01861
1.02491
1.00053
0.934648
0.822008
0.658876
0.437824
0.156195
3.57064
3.4584
3.30643
3.11375
2.9008
2.67799
2.453
2.23099
2.01614
1.81077
1.61662
1.43881
1.2824
1.14922
1.042
0.962481
0.911426
0.888085
0.888509
0.906694
0.935057
0.963885
0.982747
0.98191
0.951828
0.882006
0.767926
0.606184
0.392638
0.135451
3.7546
3.61839
3.44276
3.22897
2.99764
2.76088
2.52628
2.29725
2.07567
1.86532
1.66937
1.49018
1.33072
1.19358
1.08092
0.994195
0.934068
0.899659
0.887769
0.893226
0.909069
0.926585
0.936241
0.928463
0.893409
0.821716
0.708403
0.549219
0.345149
0.116157
3.93185
3.76366
3.55996
3.32505
3.07985
2.83055
2.5856
2.35017
2.12604
1.91391
1.71596
1.53457
1.37192
1.23022
1.11138
1.01676
0.946905
0.901074
0.876723
0.869491
0.873237
0.880208
0.881649
0.868163
0.829678
0.758525
0.647832
0.49216
0.298642
0.0982612
4.05165
3.86664
3.64193
3.39021
3.13043
2.87415
2.62513
2.38628
2.15996
1.94707
1.74857
1.56588
1.40063
1.25467
1.1298
1.02735
0.947936
0.891105
0.854952
0.835941
0.828811
0.826709
0.821542
0.804177
0.765072
0.696657
0.589902
0.438339
0.25534
0.0819048
4.1178
3.91289
3.67144
3.40524
3.13599
2.8757
2.62752
2.39183
2.16892
1.95913
1.76286
1.5808
1.41421
1.26487
1.13463
1.02498
0.936727
0.869818
0.823037
0.793699
0.777434
0.768206
0.758504
0.739604
0.702676
0.639219
0.537589
0.390332
0.216719
0.0673341
4.0821
3.84513
3.59196
3.32699
3.06786
2.82067
2.58621
2.3629
2.15012
1.94834
1.75782
1.5788
1.41241
1.26074
1.12604
1.0101
0.91402
0.838225
0.782262
0.744351
0.720997
0.706878
0.695015
0.677191
0.645018
0.588586
0.493292
0.3502
0.18391
0.0548263
3.85165
3.59651
3.36755
3.14087
2.92003
2.70733
2.50251
2.30205
2.10594
1.91679
1.73554
1.56189
1.39699
1.24382
1.10552
0.984262
0.881434
0.797994
0.734354
0.689721
0.661454
0.644828
0.633317
0.619206
0.594163
0.54666
0.458955
0.319693
0.157955
0.0446982
3.35179
3.09483
2.96796
2.84773
2.70205
2.54607
2.38735
2.21902
2.04345
1.86986
1.7008
1.5343
1.37138
1.21689
1.07552
0.949832
0.841255
0.751257
0.681301
0.631721
0.600702
0.583962
0.575277
0.567357
0.551617
0.514897
0.436197
0.300511
0.140065
0.0373367
2.44105
2.20139
2.35939
2.48081
2.44535
2.35903
2.26124
2.13091
1.97303
1.81469
1.66023
1.50207
1.34008
1.18332
1.03898
0.909645
0.79611
0.700267
0.62498
0.571972
0.54024
0.525747
0.522303
0.522863
0.518515
0.494551
0.426606
0.294723
0.132001
0.0331635
142.174
142.255
142.443
142.728
143.093
143.529
144.027
144.579
145.175
145.802
146.448
147.097
147.731
148.331
148.875
149.335
149.679
149.872
149.867
149.608
149.023
148.016
146.454
144.143
140.783
135.88
128.512
116.758
94.5752
34.6397
141.446
141.518
141.684
141.934
142.253
142.632
143.061
143.533
144.035
144.556
145.081
145.594
146.076
146.507
146.861
147.109
147.216
147.141
146.832
146.224
145.233
143.745
141.603
138.575
134.304
128.206
119.248
105.7
86.2061
57.8456
140.677
140.738
140.881
141.095
141.367
141.686
142.045
142.434
142.841
143.253
143.655
144.03
144.359
144.619
144.783
144.819
144.691
144.353
143.749
142.809
141.442
139.526
136.898
133.33
128.495
121.941
113.083
101.289
87.1305
70.6661
139.866
139.917
140.036
140.213
140.436
140.696
140.983
141.287
141.598
141.9
142.179
142.416
142.592
142.682
142.658
142.488
142.132
141.543
140.664
139.421
137.724
135.455
132.464
128.555
123.481
116.954
108.681
98.3353
85.8647
70.8401
139.016
139.056
139.151
139.291
139.465
139.663
139.878
140.098
140.311
140.504
140.66
140.761
140.786
140.71
140.505
140.137
139.566
138.745
137.616
136.109
134.139
131.6
128.363
124.272
119.15
112.799
105.02
95.5757
84.3017
71.4076
138.128
138.159
138.229
138.331
138.455
138.593
138.735
138.87
138.988
139.072
139.107
139.075
138.954
138.718
138.341
137.787
137.018
135.988
134.641
132.914
130.73
127.998
124.614
120.458
115.403
109.315
102.073
93.5799
83.8296
73.2357
137.207
137.227
137.272
137.337
137.412
137.489
137.559
137.611
137.634
137.612
137.53
137.369
137.108
136.722
136.183
135.458
134.511
133.298
131.769
129.866
127.524
124.669
121.219
117.088
112.189
106.445
99.8019
92.2508
83.8363
74.8933
136.254
136.264
136.285
136.312
136.338
136.355
136.354
136.326
136.256
136.132
135.938
135.654
135.261
134.734
134.047
133.17
132.066
130.698
129.021
126.985
124.536
121.617
118.167
114.127
109.445
104.081
98.0209
91.2871
83.9294
76.2185
135.274
135.273
135.27
135.26
135.239
135.198
135.129
135.021
134.863
134.641
134.34
133.941
133.425
132.77
131.95
130.938
129.701
128.205
126.413
124.283
121.773
118.839
115.439
111.535
107.098
102.114
96.5896
90.5589
84.0756
77.3658
134.271
134.26
134.233
134.188
134.12
134.022
133.887
133.704
133.462
133.147
132.746
132.24
131.613
130.842
129.905
128.776
127.428
125.832
123.955
121.766
119.232
116.321
113.006
109.264
105.084
100.466
95.4279
90.0096
84.2635
78.3736
133.248
133.227
133.178
133.098
132.986
132.834
132.636
132.381
132.06
131.659
131.165
130.563
129.834
128.961
127.922
126.696
125.26
123.587
121.654
119.435
116.906
114.047
110.839
107.274
103.35
99.0758
94.4758
89.5887
84.4624
79.2443
132.211
132.182
132.111
131.998
131.843
131.64
131.383
131.061
130.666
130.185
129.607
128.917
128.099
127.137
126.013
124.708
123.202
121.476
119.509
117.284
114.784
111.996
108.912
105.528
101.851
97.8945
93.6844
89.2563
84.6521
79.9902
131.166
131.128
131.036
130.893
130.697
130.447
130.134
129.75
129.287
128.734
128.08
127.312
126.417
125.379
124.184
122.817
121.26
119.499
117.519
115.308
112.854
110.151
107.196
103.992
100.548
96.8819
93.0168
88.9855
84.8235
80.6265
130.118
130.071
129.961
129.788
129.555
129.26
128.896
128.456
127.931
127.313
126.592
125.756
124.794
123.694
122.443
121.027
119.436
117.657
115.68
113.497
111.102
108.491
105.668
102.637
99.411
96.0064
92.446
88.7579
84.9723
81.1666
129.073
129.019
128.89
128.691
128.424
128.088
127.677
127.185
126.605
125.93
125.15
124.256
123.239
122.087
120.792
119.343
117.731
115.948
113.986
111.842
109.513
106.999
104.305
101.439
98.4127
95.2434
91.9513
88.5606
85.0965
81.6224
128.038
127.977
127.832
127.607
127.309
126.936
126.483
125.945
125.317
124.591
123.761
122.818
121.755
120.564
119.236
117.765
116.144
114.367
112.431
110.333
108.074
105.657
103.088
100.376
97.5324
94.5735
91.5172
88.3845
85.1964
82.0046
127.019
126.951
126.791
126.545
126.218
125.812
125.321
124.743
124.072
123.303
122.431
121.448
120.348
119.127
117.777
116.294
114.673
112.911
111.007
108.96
106.774
104.452
102.001
99.4308
96.7529
93.9814
91.1324
88.2237
85.2729
82.3227
126.024
125.95
125.777
125.51
125.158
124.722
124.199
123.586
122.878
122.073
121.165
120.15
119.023
117.779
116.415
114.928
113.315
111.575
109.707
107.715
105.6
103.369
101.029
98.5893
96.0604
93.4554
90.7883
88.0742
85.3282
82.5854
125.058
124.98
124.794
124.51
124.136
123.674
123.123
122.479
121.741
120.905
119.969
118.928
117.78
116.523
115.152
113.667
112.068
110.353
108.525
106.587
104.543
102.398
100.161
97.8393
95.444
92.9864
90.4786
87.9338
85.3646
82.8002
124.131
124.048
123.852
123.552
123.159
122.675
122.099
121.43
120.666
119.806
118.847
117.787
116.625
115.359
113.987
112.51
110.928
109.242
107.455
105.571
103.593
101.529
99.3857
97.1712
94.895
92.5674
90.1991
87.8012
85.3848
82.974
123.249
123.162
122.957
122.644
122.234
121.731
121.134
120.444
119.66
118.78
117.804
116.73
115.559
114.289
112.921
111.456
109.894
108.238
106.491
104.658
102.744
100.754
98.6958
96.5772
94.4066
92.1932
89.9465
87.6761
85.3916
83.1129
122.421
122.33
122.117
121.793
121.368
120.849
120.236
119.528
118.727
117.832
116.843
115.76
114.584
113.315
111.954
110.502
108.962
107.337
105.629
103.845
101.989
100.066
98.0849
96.0514
93.9739
91.8604
89.7193
87.5591
85.388
83.2227
121.653
121.559
121.34
121.005
120.569
120.036
119.409
118.688
117.874
116.967
115.969
114.881
113.703
112.438
111.085
109.649
108.131
106.535
104.865
103.126
101.322
99.4609
97.5476
95.5892
93.5929
91.566
89.5161
87.4505
85.3766
83.3083
120.955
120.859
120.633
120.29
119.843
119.3
118.661
117.929
117.105
116.191
115.187
114.096
112.919
111.659
110.317
108.896
107.4
105.832
104.196
102.498
100.742
98.9345
97.0809
95.1878
93.2618
91.3094
89.3375
87.3526
85.3613
83.3752
120.336
120.237
120.006
119.655
119.199
118.647
117.999
117.259
116.427
115.506
114.499
113.408
112.233
110.979
109.648
108.243
106.767
105.225
103.62
101.958
100.244
98.4832
96.6811
94.844
92.9777
91.0884
89.1823
87.2652
85.343
83.4256
119.803
119.701
119.465
119.106
118.644
118.084
117.43
116.683
115.846
114.922
113.913
112.822
111.651
110.404
109.083
107.692
106.235
104.716
103.138
101.508
99.8295
98.1083
96.3497
94.5595
92.7431
90.9063
89.0548
87.1938
85.3289
83.4684
119.368
119.263
119.019
118.653
118.183
117.617
116.957
116.205
115.365
114.438
113.429
112.339
111.173
109.932
108.621
107.243
105.802
104.301
102.747
101.143
99.4935
97.8047
96.0814
94.329
92.5527
90.7579
88.9497
87.1332
85.3133
83.4969
119.042
118.93
118.677
118.305
117.83
117.26
116.596
115.84
114.997
114.069
113.06
111.972
110.809
109.575
108.272
106.904
105.476
103.991
102.455
100.871
99.2455
97.5822
95.8865
94.1636
92.4185
90.6562
88.8817
87.0999
85.3154
83.5343
118.839
118.704
118.434
118.056
117.579
117.006
116.339
115.582
114.738
113.81
112.802
111.716
110.556
109.326
108.029
106.669
105.25
103.777
102.253
100.684
99.0737
97.4276
95.7504
94.047
92.3225
90.5816
88.8291
87.0695
85.3073
83.5474
118.821
118.622
118.323
117.939
117.459
116.883
116.213
115.454
114.609
113.681
112.674
111.59
110.433
109.206
107.914
106.559
105.147
103.681
102.166
100.606
99.0067
97.3717
95.7064
94.0155
92.3039
90.5762
88.8372
87.0914
85.3429
83.5961
-49.724
-29.6393
-9.9783
37.6852
30.6018
19.2955
53.4202
41.5559
30.6314
54.7122
44.3993
36.4777
58.9627
50.7595
44.0864
63.287
56.4429
50.6092
66.4923
60.656
55.6443
69.0233
64.0293
59.7445
71.1544
66.8429
63.1493
72.9514
69.1859
65.9677
74.4606
71.1381
68.3054
75.7311
72.7723
70.2548
76.8027
74.1455
71.888
77.7073
75.3024
73.2615
78.4706
76.2789
74.4201
79.1143
77.1038
75.3994
79.6561
77.8006
76.2277
80.1108
78.3887
76.9284
80.491
78.8839
77.5202
80.8076
79.2998
78.0192
81.0696
79.6476
78.4384
81.2856
79.9374
78.7895
81.4619
80.1771
79.0816
81.6063
80.3755
79.3243
81.7213
80.5358
79.5218
81.8184
80.6703
79.6865
81.8886
80.7704
79.8115
81.9607
80.8654
79.9238
81.9942
80.9152
79.9877
82.0639
80.9991
80.0781
-0.299212
-0.0737135
1.28164
2.16356
2.23317
2.17245
2.14524
2.05978
1.90414
1.75722
1.62134
1.47285
1.30806
1.14623
0.998651
0.866477
0.748433
0.646721
0.566412
0.511163
0.48071
0.470879
0.475063
0.486167
0.495377
0.486463
0.431646
0.304745
0.135769
0.032471
5.78899
2.51119
3.04889
2.78575
1.99461
1.80228
2.03271
2.0696
1.85562
1.70247
1.59221
1.45723
1.28008
1.10801
0.957377
0.823955
0.701528
0.592714
0.506629
0.449784
0.4223
0.419258
0.433376
0.457207
0.482504
0.491752
0.453513
0.334058
0.154459
0.0358593
16.5422
8.05323
5.02828
3.17116
2.51394
2.52427
2.64368
2.20647
1.68844
1.56272
1.56815
1.48065
1.26601
1.07313
0.91996
0.788376
0.66141
0.542529
0.44854
0.390207
0.367419
0.373681
0.400787
0.440128
0.483048
0.513354
0.495651
0.388513
0.197267
0.0461318
25.8752
16.0952
10.3185
6.66882
4.61352
3.49345
2.80798
2.27326
1.99432
1.89796
1.83828
1.56539
1.20876
0.995989
0.870976
0.764022
0.636765
0.502808
0.397601
0.338389
0.322847
0.340094
0.380711
0.436186
0.498165
0.550869
0.558464
0.474784
0.277497
0.0675474
34.8501
25.1771
17.9053
12.597
8.87138
6.31359
4.5844
3.44454
2.7201
2.2407
1.91471
1.61335
1.35439
1.15113
0.988999
0.824857
0.640228
0.463821
0.342818
0.290681
0.291091
0.322797
0.378889
0.455528
0.543893
0.623357
0.653099
0.58977
0.397594
0.101548
42.6769
33.8057
25.9495
19.526
14.5813
10.8784
8.14356
6.13533
4.65786
3.57576
2.79407
2.20756
1.7504
1.38598
1.10531
0.881091
0.685503
0.51577
0.395603
0.338269
0.328024
0.350609
0.407644
0.500852
0.614062
0.71545
0.765339
0.730136
0.558517
0.155936
49.0506
41.2795
33.5327
26.6568
21.0143
16.4978
12.9067
10.0678
7.84169
6.11498
4.78315
3.74134
2.91034
2.24881
1.73325
1.33035
1.0055
0.7442
0.554669
0.445051
0.407762
0.431589
0.50957
0.630346
0.765604
0.877942
0.929815
0.879556
0.676422
0.180478
54.2419
47.5296
40.2901
33.466
27.5658
22.5788
18.3845
14.8886
12.01
9.66348
7.75963
6.21094
4.94676
3.91906
3.09037
2.42237
1.88071
1.44689
1.11849
0.895219
0.768057
0.723697
0.750518
0.834302
0.949431
1.05786
1.11038
1.04292
0.781631
0.11485
58.478
52.6682
46.0903
39.6145
33.7789
28.6325
24.1133
20.1835
16.8099
13.944
11.5254
9.49098
7.78365
6.3564
5.16919
4.18518
3.37259
2.70992
2.18598
1.79247
1.51738
1.34605
1.26369
1.25213
1.28312
1.31572
1.29605
1.15279
0.790649
-0.0795416
61.9348
56.8659
50.9611
44.9676
39.3938
34.3154
29.7038
25.5542
21.8677
18.6285
15.8047
13.3569
11.2448
9.4308
7.8806
6.56258
5.44863
4.51659
3.75068
3.13799
2.66446
2.31397
2.06848
1.90545
1.79339
1.68902
1.53531
1.25545
0.742034
-0.302553
64.7733
60.3075
55.0192
49.5375
44.3189
39.445
34.9027
30.7035
26.8685
23.404
20.3005
17.5388
15.0952
12.9446
11.0621
9.42314
8.00487
6.78726
5.75383
4.88999
4.18053
3.60816
3.15271
2.78908
2.48411
2.19362
1.85967
1.40511
0.728008
-0.425504
67.1243
63.151
58.4008
53.4052
48.5667
43.9627
39.5858
35.4531
31.5944
28.0288
24.7616
21.7883
19.0991
16.6807
14.5179
12.594
10.8922
9.39655
8.09223
6.96507
5.99995
5.17948
4.48295
3.88462
3.35138
2.8403
2.29626
1.64905
0.815212
-0.399212
69.0856
65.5185
61.2288
56.6711
52.2003
47.8858
43.7211
39.7231
35.9238
32.3481
29.0096
25.9137
23.0604
20.4458
18.0627
15.9019
13.9527
12.2035
10.6427
9.25776
8.03493
6.95782
6.00655
5.1564
4.37606
3.62601
2.85725
2.01114
1.02629
-0.234255
70.7309
67.5024
63.6048
59.4324
55.3
51.2688
47.331
43.5012
39.8098
36.2835
32.94
29.7901
26.8402
24.0927
21.5471
19.1998
17.0453
15.0766
13.2851
11.661
10.1925
8.86505
7.66064
6.55673
5.52521
4.53147
3.53436
2.48788
1.35014
0.0323161
72.117
69.1731
65.6098
61.773
57.9444
54.1777
50.4636
46.8131
43.254
39.8121
36.5066
33.351
30.3552
27.526
24.867
22.3791
20.0609
17.909
15.918
14.0806
12.3874
10.8262
9.3813
8.03312
6.75742
5.52507
4.30285
3.05609
1.75741
0.356072
73.2882
70.5851
67.3075
63.7622
60.2028
56.6772
53.1742
49.7014
46.2833
42.944
39.7022
36.5725
33.5667
30.6938
27.9604
25.3703
22.9252
20.6243
18.4652
16.4428
14.5502
12.7773
11.1111
9.53527
8.02936
6.56953
5.1295
3.68342
2.21323
0.696363
74.2794
71.7809
68.7485
65.456
62.1339
58.8249
55.5163
52.2128
48.9353
45.7057
42.5415
39.4574
36.4656
33.5764
30.7979
28.1361
25.5945
23.1747
20.8763
18.6963
16.6299
14.6692
12.8039
11.0202
9.30155
7.62851
5.98025
4.33703
2.68567
1.02272
75.1188
72.7947
69.973
66.8999
63.7861
60.6701
57.538
54.3919
51.2495
48.13
45.0497
42.0224
39.0601
36.1735
33.3716
30.6614
28.048
25.5344
23.1218
20.8091
18.593
16.468
14.4255
12.4547
10.5419
8.67111
6.82553
4.9891
3.15029
1.31701
75.829
73.654
71.0136
68.1309
65.1995
62.2543
59.2808
56.2788
53.263
50.2501
47.2549
44.2899
41.3667
38.4956
35.6859
32.9452
30.2794
27.6926
25.1872
22.7635
20.4197
18.1518
15.9533
13.8152
11.7265
9.6737
7.64259
5.61902
3.59112
1.57211
76.4292
74.3815
71.8972
69.1795
66.4072
63.6126
60.7805
57.9088
55.0095
52.0974
49.1852
46.2843
43.4052
40.558
37.7516
34.9939
32.291
29.6479
27.0677
24.5518
22.0995
19.7082
17.3728
15.0862
12.839
10.6197
8.4156
6.21327
3.9995
1.78874
76.9349
74.9959
72.6458
70.0709
67.4371
64.7743
62.0673
59.3122
56.5188
53.6999
50.8665
48.0287
45.196
42.3777
39.5823
36.8174
34.0894
31.4037
28.7637
26.1717
23.6278
21.1304
18.6757
16.2579
13.8687
11.4982
9.13425
6.76368
4.37168
1.97148
77.3596
75.5132
73.2783
70.8263
68.3125
65.7645
63.1672
60.5154
57.8171
55.0829
52.3227
49.5451
46.7586
43.9716
41.1921
38.4273
35.6835
32.966
30.2788
27.6244
25.0036
22.4157
19.8577
17.3246
14.8092
12.3024
9.79252
7.26615
4.7071
2.12615
77.7143
75.9463
73.8097
71.4631
69.0523
66.6036
64.1017
61.5405
58.9262
56.268
53.5743
50.8527
48.1106
45.3554
42.5945
39.8346
37.0818
34.3413
31.6171
28.912
26.2273
23.5627
20.9158
18.2823
15.6558
13.0275
10.3861
7.71788
5.00558
2.25705
78.0095
76.3075
74.2541
71.997
69.6741
67.3103
64.8903
62.4075
59.8664
57.2752
54.6409
51.97
49.269
46.5446
43.8033
41.0514
38.2946
35.5377
32.785
30.0392
27.3018
24.5728
21.8503
19.1305
16.4073
13.6722
10.9142
8.11907
5.26905
2.3686
78.2512
76.604
74.6201
72.4382
70.1891
67.8967
65.5461
63.1299
60.6515
58.118
55.5354
52.9093
50.2453
47.5493
44.8273
42.0848
39.3273
36.5593
33.7848
31.0065
28.2262
25.4439
22.658
19.865
17.059
14.2318
11.3723
8.46619
5.49526
2.46078
78.451
76.8484
74.9217
72.8015
70.6132
68.3797
66.0866
63.7257
61.2998
58.8148
56.276
53.6883
51.0564
48.3857
45.6813
42.9486
40.1924
37.417
34.6262
31.8227
29.008
26.1825
23.3445
20.4908
17.6156
14.7107
11.7651
8.76431
5.68984
2.53902
78.6054
77.0381
75.1565
73.0854
70.9453
68.7589
66.5116
64.1951
61.8113
59.3655
56.8623
54.3058
51.7005
49.0509
46.3619
43.638
40.884
38.1039
35.301
32.4782
29.6368
26.7772
23.8978
20.9954
18.0643
15.0964
12.0804
9.00188
5.84237
2.59611
78.7369
77.1955
75.3484
73.3145
71.2109
69.06
66.8475
64.5647
62.213
59.7971
57.3212
54.789
52.2043
49.5713
46.8944
44.1779
41.4261
38.6429
35.8315
32.9944
30.1331
27.2478
24.337
21.3974
18.4234
15.4067
12.3361
9.19681
5.97006
2.64548
78.8177
77.2926
75.4681
73.4595
71.3806
69.2534
67.0641
64.8039
62.4738
60.078
57.6205
55.1046
52.5338
49.9121
47.2435
44.5322
41.7822
38.9971
36.1802
33.3337
30.4592
27.5567
24.6248
21.66
18.6569
15.607
12.4987
9.31708
6.04318
2.66437
78.9074
77.3836
75.5715
73.5781
71.5131
69.3987
67.2218
64.9736
62.6547
60.2694
57.8211
55.3133
52.7493
50.1328
47.4677
44.7583
42.0082
39.2211
36.4002
33.5477
30.6651
27.7525
24.8084
21.8295
18.81
15.7415
12.6121
9.40585
6.1011
2.67258
)
;

boundaryField
{
    inlet
    {
        type            zeroGradient;
    }
    outlet
    {
        type            fixedValue;
        value           uniform 0;
    }
    flap
    {
        type            zeroGradient;
    }
    upperWall
    {
        type            zeroGradient;
    }
    lowerWall
    {
        type            zeroGradient;
    }
    frontAndBack
    {
        type            empty;
    }
}


// ************************************************************************* //
