/*--------------------------------*- C++ -*----------------------------------*\
  =========                 |
  \\      /  F ield         | OpenFOAM: The Open Source CFD Toolbox
   \\    /   O peration     | Website:  https://openfoam.org
    \\  /    A nd           | Version:  7
     \\/     M anipulation  |
\*---------------------------------------------------------------------------*/
FoamFile
{
    version     2.0;
    format      ascii;
    class       surfaceScalarField;
    location    "2";
    object      phi;
}
// * * * * * * * * * * * * * * * * * * * * * * * * * * * * * * * * * * * * * //

dimensions      [0 3 -1 0 0 0 0];

internalField   nonuniform List<scalar> 
5457
(
0.198418
0.00158247
0.19648
0.00193755
0.194192
0.00228834
0.191508
0.00268392
0.188426
0.00308162
0.184949
0.00347726
0.18107
0.00387915
0.176775
0.00429467
0.172046
0.00472895
0.16686
0.00518602
0.161191
0.00566935
0.155009
0.00618191
0.148283
0.00672585
0.140981
0.00730221
0.13307
0.00791033
0.124523
0.0085472
0.115317
0.00920654
0.105439
0.00987769
0.0948945
0.0105444
0.0837109
0.0111837
0.0719463
0.0117645
0.0596984
0.012248
0.0471103
0.0125881
0.0343712
0.0127392
0.0216777
0.0126935
0.00903053
0.0126472
-0.00291483
0.0119454
-0.00846688
0.00555205
-0.00803738
-0.000429507
-0.00803738
0.199928
0.00165441
0.199175
0.00269017
0.197964
0.00349955
0.196331
0.00431745
0.19427
0.0051421
0.19178
0.00596786
0.188852
0.00680674
0.185474
0.00767223
0.181629
0.00857464
0.177293
0.00952227
0.17244
0.0105224
0.16704
0.0115812
0.161062
0.0127036
0.154473
0.0138921
0.147237
0.0151463
0.139323
0.0164612
0.130704
0.0178252
0.121363
0.0192184
0.111298
0.0206097
0.100528
0.0219537
0.0891036
0.0231889
0.0771163
0.0242352
0.064711
0.0249933
0.0521046
0.0253456
0.0396459
0.0251522
0.0280976
0.0241955
0.0185855
0.0214574
0.00878792
0.0153497
0.00117975
0.00717866
-0.00685762
0.19978
0.00187395
0.199086
0.0033842
0.197945
0.00464075
0.196408
0.00585442
0.194482
0.00706866
0.192162
0.00828741
0.189444
0.00952476
0.186318
0.0107984
0.182769
0.0121233
0.17878
0.0135119
0.174327
0.0149753
0.169385
0.0165231
0.163925
0.018163
0.157917
0.0199001
0.151328
0.0217354
0.144126
0.0236637
0.13628
0.0256713
0.127765
0.0277329
0.118568
0.0298069
0.10869
0.0318318
0.0981581
0.0337208
0.0870361
0.0353572
0.07544
0.0365895
0.0635637
0.0372218
0.0517229
0.036993
0.0403885
0.0355299
0.0297306
0.0321153
0.0191605
0.0259197
0.00959228
0.0167469
0.00273466
0.199703
0.00217098
0.199007
0.0040797
0.197887
0.00576155
0.196375
0.00736568
0.194487
0.00895722
0.19222
0.0105539
0.189572
0.012173
0.186535
0.013835
0.1831
0.0155584
0.179253
0.0173592
0.174977
0.0192511
0.170254
0.0212465
0.165061
0.0233555
0.159376
0.0255851
0.153174
0.0279378
0.146428
0.0304095
0.139113
0.0329862
0.131205
0.0356406
0.122686
0.0383263
0.113545
0.0409728
0.103788
0.0434775
0.093446
0.0456995
0.0825853
0.0474502
0.0713233
0.0484839
0.0598322
0.0484841
0.0483091
0.047053
0.0368042
0.0436203
0.0251827
0.0375411
0.0133324
0.0285972
0.0160671
0.199667
0.00250367
0.198964
0.00478316
0.197862
0.00686315
0.19638
0.00884774
0.194531
0.0108064
0.192316
0.0127691
0.189731
0.0147575
0.186772
0.0167943
0.18343
0.0189009
0.179693
0.0210957
0.175549
0.0233949
0.170983
0.0258125
0.165979
0.0283601
0.160518
0.0310461
0.154582
0.033874
0.14815
0.0368406
0.141204
0.0399325
0.133722
0.0431224
0.125685
0.0463633
0.117076
0.049582
0.107883
0.0526708
0.0981044
0.055478
0.0877551
0.0577995
0.0768698
0.0593691
0.0655008
0.0598531
0.0537011
0.0588527
0.0414481
0.0558732
0.0285833
0.0504059
0.0148499
0.0423306
0.030917
0.199653
0.00285098
0.198948
0.00548742
0.19787
0.00794139
0.196426
0.0102923
0.194625
0.0126069
0.192471
0.0149232
0.189961
0.0172678
0.187089
0.0196659
0.183849
0.022141
0.180231
0.0247138
0.176224
0.0274023
0.171814
0.0302221
0.166988
0.0331858
0.161732
0.0363029
0.156028
0.0395777
0.149861
0.0430078
0.143212
0.0465812
0.136062
0.050272
0.12839
0.0540356
0.120171
0.0578015
0.111377
0.0614647
0.101979
0.0648762
0.0919451
0.0678328
0.0812453
0.0700689
0.0698466
0.0712519
0.0577104
0.0709889
0.0447554
0.0688282
0.0308453
0.064316
0.0158711
0.0573048
0.0467881
0.19965
0.00320103
0.198954
0.00618362
0.197904
0.00899133
0.196504
0.0116924
0.194761
0.0143497
0.192678
0.0170058
0.190254
0.0196921
0.187484
0.0224363
0.184361
0.0252639
0.180877
0.0281977
0.177022
0.0312573
0.172784
0.0344596
0.168151
0.0378189
0.163109
0.0413454
0.157642
0.0450448
0.151733
0.0489161
0.145365
0.0529492
0.138515
0.0571218
0.131157
0.0613939
0.123257
0.0657021
0.11477
0.0699509
0.105643
0.0740032
0.0958065
0.0776696
0.0851772
0.0806982
0.0736606
0.0827685
0.0611552
0.0834943
0.0475504
0.0824331
0.0327553
0.0791111
0.0167811
0.073279
0.0635692
0.199655
0.0035465
0.198974
0.00686396
0.197958
0.0100074
0.196609
0.0130416
0.194932
0.0160262
0.192931
0.019007
0.190604
0.0220189
0.187948
0.0250924
0.184957
0.0282548
0.181624
0.0315308
0.17794
0.0349417
0.173893
0.0385061
0.169473
0.0422396
0.164664
0.0461539
0.159452
0.0502567
0.153819
0.0545492
0.147743
0.0590251
0.141198
0.0636669
0.13415
0.0684423
0.126553
0.0732986
0.118348
0.0781555
0.109457
0.0828951
0.0997751
0.0873511
0.0891775
0.0912959
0.077517
0.0944289
0.064641
0.0963702
0.0504128
0.0966613
0.0347651
0.0947588
0.0177883
0.0902558
0.0813575
0.199664
0.00388245
0.199006
0.007522
0.198029
0.010984
0.196738
0.0143335
0.195135
0.0176288
0.193224
0.0209175
0.191006
0.0242376
0.188476
0.0276219
0.185631
0.0310998
0.182464
0.0346976
0.178968
0.0384384
0.175132
0.0423423
0.170944
0.0464267
0.166393
0.0507056
0.161461
0.0551889
0.156128
0.0598817
0.150371
0.0647823
0.144157
0.0698804
0.137446
0.0751541
0.130179
0.080565
0.122282
0.0860526
0.113652
0.0915252
0.104155
0.0968481
0.0936227
0.101828
0.0818556
0.106196
0.0686427
0.109583
0.0537974
0.111507
0.0372339
0.111322
0.0190822
0.108407
0.10044
0.199677
0.00420535
0.199047
0.00815249
0.198115
0.0119157
0.196886
0.0155622
0.195365
0.0191504
0.193553
0.0227288
0.191453
0.0263383
0.189061
0.0300137
0.186374
0.0337862
0.183388
0.0376837
0.180096
0.0417309
0.176488
0.0459499
0.172555
0.0503598
0.168284
0.0549772
0.163657
0.0598151
0.158656
0.0648832
0.153252
0.070186
0.14741
0.0757221
0.141082
0.0814822
0.134202
0.0874457
0.126678
0.0935764
0.118388
0.099815
0.109168
0.106068
0.0988062
0.11219
0.0870421
0.11796
0.0735825
0.123043
0.058144
0.126945
0.0405498
0.128917
0.0209007
0.128057
0.12134
0.199693
0.00451256
0.199094
0.00875113
0.198212
0.0127977
0.197052
0.0167224
0.195618
0.0205844
0.193913
0.0244335
0.191939
0.0283122
0.189695
0.0322576
0.187179
0.0363024
0.184387
0.040476
0.181313
0.0448046
0.177951
0.049312
0.174291
0.0540195
0.170322
0.0589461
0.166029
0.0641089
0.16139
0.0695221
0.156378
0.0751977
0.150956
0.0811443
0.145071
0.0873669
0.138652
0.0938652
0.131597
0.100631
0.123769
0.107643
0.114977
0.11486
0.104967
0.122201
0.0934067
0.12952
0.0798898
0.13656
0.0639638
0.142871
0.0452339
0.147647
0.0236121
0.149678
0.144953
0.199711
0.00480201
0.199147
0.00931442
0.198319
0.0136257
0.197232
0.0178092
0.195892
0.0219252
0.1943
0.0260247
0.192461
0.0301517
0.190374
0.0343449
0.188038
0.0386385
0.18545
0.043063
0.182609
0.0476463
0.179507
0.0524135
0.176139
0.057388
0.172493
0.0625916
0.168557
0.0680449
0.164312
0.0737673
0.159732
0.079778
0.15478
0.0860963
0.149405
0.0927419
0.143534
0.0997357
0.137066
0.1071
0.129854
0.114855
0.121693
0.12302
0.112295
0.131598
0.101258
0.140557
0.088036
0.149782
0.0719197
0.158987
0.0520877
0.167478
0.0278886
0.173877
0.172841
0.19973
0.00507209
0.199205
0.00983948
0.198434
0.0143961
0.197425
0.0188185
0.196182
0.023168
0.19471
0.0274968
0.193012
0.0318502
0.191089
0.0362681
0.188941
0.0407858
0.186569
0.0454351
0.183971
0.0502447
0.181143
0.0552413
0.178081
0.0604501
0.174778
0.0658951
0.171222
0.0716002
0.1674
0.0775897
0.163288
0.0838895
0.158856
0.0905285
0.154058
0.0975404
0.148827
0.104966
0.14307
0.112856
0.13665
0.121276
0.129365
0.130306
0.120918
0.140045
0.110865
0.15061
0.0985323
0.162114
0.0828993
0.17462
0.0624419
0.187936
0.0351336
0.201186
0.207975
0.199751
0.00532153
0.199266
0.010324
0.198556
0.015106
0.197628
0.0197466
0.196487
0.0243086
0.195139
0.028845
0.193587
0.0334022
0.191834
0.0380209
0.189883
0.0427374
0.187734
0.0475841
0.185388
0.0525907
0.182844
0.0577849
0.180101
0.0631931
0.177155
0.0688412
0.174
0.0747557
0.170625
0.0809646
0.167015
0.0874994
0.163147
0.0943968
0.158986
0.101701
0.154481
0.109471
0.149558
0.117779
0.144106
0.126728
0.137958
0.136454
0.130855
0.147149
0.122382
0.159083
0.111847
0.17265
0.0980177
0.188449
0.0785527
0.207401
0.0486874
0.231051
0.256662
0.199772
0.00554939
0.19933
0.0107662
0.198683
0.0157529
0.197839
0.0205908
0.196804
0.0253438
0.195583
0.0300657
0.194182
0.0348035
0.192604
0.0395986
0.190853
0.0444878
0.188934
0.0495041
0.186847
0.0546774
0.184596
0.0600361
0.182181
0.0656073
0.179604
0.0714181
0.176864
0.0774965
0.173955
0.083873
0.170872
0.0905824
0.167603
0.0976662
0.164128
0.105176
0.160419
0.11318
0.156432
0.121766
0.152102
0.131058
0.147328
0.141227
0.141955
0.152522
0.135718
0.165319
0.128151
0.180217
0.118313
0.198287
0.103956
0.221759
0.0777547
0.257252
0.334417
0.00637963
-0.00637963
0.012155
-0.00577535
0.0171222
-0.00496724
0.021416
-0.00429382
0.02517
-0.00375398
0.02848
-0.00331002
0.0314182
-0.00293817
0.0340381
-0.00261993
0.0363723
-0.00233414
0.0384304
-0.00205807
0.0402097
-0.0017793
0.041717
-0.00150736
0.0429736
-0.00125655
0.0439863
-0.00101274
0.0447272
-0.000740915
0.0451939
-0.000466715
0.0454425
-0.00024861
0.0455221
-7.95483e-05
0.0454538
6.83243e-05
0.0453107
0.000143048
0.0452268
8.38783e-05
0.0452894
-6.25851e-05
0.0455292
-0.000239736
0.0459191
-0.000389968
0.0464074
-0.000488244
0.0469732
-0.000565854
0.0476595
-0.000686298
0.0485665
-0.00090697
0.0498125
-0.00124596
-0.00162586
0.0050685
-0.0114481
0.0100183
-0.0107251
0.0143878
-0.00933677
0.0182056
-0.00811165
0.0215751
-0.00712343
0.0245767
-0.00631167
0.0272694
-0.00563089
0.029697
-0.00504745
0.0318879
-0.00452513
0.0338496
-0.00401974
0.0355708
-0.00350051
0.0370488
-0.00298538
0.0383115
-0.00251919
0.0393928
-0.00209411
0.0402598
-0.0016079
0.0409178
-0.00112465
0.0414099
-0.000740713
0.041521
-0.00019064
0.0411425
0.00044675
0.0401816
0.00110397
0.0387271
0.0015384
0.0369236
0.00174087
0.0349673
0.00171662
0.03309
0.00148728
0.0315364
0.00106536
0.0305241
0.00044648
0.0300436
-0.000205771
0.0301798
-0.00104321
0.0311671
-0.00223329
-0.00362859
0.00374797
-0.0151961
0.00736655
-0.0143437
0.0105517
-0.0125219
0.0133282
-0.0108882
0.0157533
-0.0095485
0.017875
-0.00843342
0.0197326
-0.00748847
0.0213563
-0.00667111
0.0227713
-0.00594018
0.0239857
-0.00523415
0.0249743
-0.0044891
0.0256983
-0.0037094
0.0261877
-0.00300855
0.0265582
-0.00246469
0.026601
-0.00165061
0.0257929
-0.000316592
0.023944
0.00110821
0.0216317
0.00212168
0.0192477
0.00283076
0.0169107
0.00344095
0.0146205
0.00382852
0.0124653
0.00389609
0.0105625
0.00361942
0.0090496
0.00300022
0.00805574
0.00205922
0.0076747
0.000827524
0.00811314
-0.000644217
0.00941238
-0.00234245
0.0116143
-0.00443521
-0.00622397
0.00241018
-0.0176063
0.00454111
-0.0164746
0.00633155
-0.0143123
0.0078408
-0.0123974
0.00908568
-0.0107934
0.010079
-0.00942679
0.0108339
-0.00824334
0.0113562
-0.00719343
0.0116684
-0.0062523
0.0117985
-0.00536428
0.0117348
-0.00442537
0.0113556
-0.00333025
0.0103309
-0.00198383
0.00832852
-0.000462317
0.00572783
0.000950076
0.00347605
0.00193519
0.00167939
0.00290487
-5.13076e-05
0.00385238
-0.00178494
0.00456439
-0.00338774
0.00504374
-0.00478266
0.00522344
-0.00590531
0.00501874
-0.00668861
0.00440272
-0.00708019
0.0033918
-0.00706192
0.00204094
-0.00665312
0.000418733
-0.00579807
-0.00149927
-0.00449088
-0.00364963
-0.00311466
-0.00581143
-0.00742016
0.000932167
-0.0185384
0.00147435
-0.0170168
0.00174575
-0.0145837
0.00183901
-0.0124907
0.0017192
-0.0106736
0.00138759
-0.00909518
0.000827259
-0.00768301
5.14595e-06
-0.00637131
-0.00113105
-0.0051161
-0.00261892
-0.00387641
-0.0044345
-0.0026098
-0.00651425
-0.0012505
-0.00862916
0.000131081
-0.0103981
0.0013066
-0.0118176
0.00236957
-0.0132721
0.0033897
-0.014683
0.00431577
-0.0159491
0.00511847
-0.0170695
0.00568485
-0.0179881
0.00596233
-0.0186554
0.00589069
-0.0190511
0.00541451
-0.0191696
0.00452116
-0.0190217
0.00324393
-0.0186401
0.00165931
-0.0180361
-0.000185271
-0.0172849
-0.0022504
-0.016472
-0.00446255
-0.0157402
-0.00654322
-0.00816706
-0.000675542
-0.0178629
-0.00176609
-0.0159263
-0.00304707
-0.0133027
-0.00447915
-0.0110586
-0.00606224
-0.00909049
-0.00779646
-0.00736095
-0.00966964
-0.00580983
-0.0116563
-0.00438461
-0.0137182
-0.00305424
-0.0158279
-0.00176676
-0.0179432
-0.00049441
-0.0198796
0.000685816
-0.0214995
0.00175104
-0.02295
0.00275707
-0.0243097
0.00372926
-0.025549
0.00462897
-0.0266443
0.00541114
-0.0275484
0.00602255
-0.0282486
0.00638508
-0.0287272
0.00644085
-0.0289751
0.0061386
-0.0290031
0.00544249
-0.0288346
0.00435274
-0.028502
0.00291131
-0.0280269
0.00118421
-0.0274256
-0.000786584
-0.0267875
-0.00288847
-0.0262489
-0.00500119
-0.0258225
-0.00696958
-0.00853453
-0.00232934
-0.0155336
-0.00503494
-0.0132207
-0.00779207
-0.0105456
-0.0105674
-0.00828325
-0.0133134
-0.0063445
-0.0159959
-0.00467844
-0.0185891
-0.00321669
-0.0210885
-0.00188515
-0.0234825
-0.000660211
-0.0256907
0.00044136
-0.0276138
0.00142875
-0.029286
0.00235802
-0.0308085
0.00327352
-0.0322023
0.00415091
-0.0334426
0.00496949
-0.0345079
0.0056943
-0.0353795
0.00628276
-0.0360393
0.00668231
-0.0364848
0.00683061
-0.0367182
0.00667429
-0.0367497
0.00617009
-0.0366004
0.0052932
-0.0362989
0.0040512
-0.0358765
0.00248888
-0.035361
0.000668751
-0.0348154
-0.00133216
-0.0343245
-0.0033794
-0.033973
-0.00535267
-0.0337659
-0.00717671
-0.00861683
-0.0039416
-0.011592
-0.00809184
-0.00907042
-0.0120804
-0.00655707
-0.0158515
-0.00451209
-0.0193688
-0.00282719
-0.0226141
-0.00143316
-0.0255912
-0.000239634
-0.0282453
0.000768987
-0.0305553
0.00164979
-0.0325783
0.00246434
-0.034404
0.00325447
-0.0360712
0.00402523
-0.0375675
0.0047698
-0.0388862
0.00546957
-0.0400157
0.00609901
-0.0409454
0.00662403
-0.0416664
0.00700378
-0.0421742
0.00719011
-0.0424738
0.00713021
-0.0425761
0.00677654
-0.0424983
0.00609226
-0.0422651
0.00506008
-0.0419075
0.00369355
-0.0414604
0.00204177
-0.0409662
0.000174577
-0.0405022
-0.00179614
-0.0401422
-0.00373947
-0.0399437
-0.00555109
-0.0399181
-0.00720233
-0.00847897
-0.00542046
-0.0061715
-0.0108732
-0.00361769
-0.0158541
-0.00157614
-0.0203371
-2.91024e-05
-0.0242312
0.00106694
-0.0276018
0.00193737
-0.0305031
0.00266165
-0.0330384
0.00330431
-0.0353091
0.00392049
-0.0373587
0.00451395
-0.0391998
0.0050956
-0.0408401
0.00566548
-0.042281
0.0062107
-0.0435211
0.00670969
-0.0445568
0.00713475
-0.0453852
0.00745234
-0.0460049
0.00762355
-0.0464191
0.00760429
-0.046637
0.00734815
-0.0466735
0.00681297
-0.0465489
0.00596773
-0.0462904
0.00480151
-0.0459306
0.00333382
-0.0455086
0.00161969
-0.0450723
-0.000261638
-0.0446984
-0.00217009
-0.0444581
-0.00397974
-0.0443965
-0.00561273
-0.044527
-0.00707186
-0.00818192
-0.00698224
0.000810739
-0.0133115
0.00271157
-0.0187297
0.00384203
-0.0233053
0.00454648
-0.0272231
0.00498478
-0.0306177
0.00533196
-0.0335859
0.00562985
-0.036202
0.00592044
-0.0385101
0.00622862
-0.0405521
0.00655589
-0.042355
0.00689855
-0.0439358
0.00724623
-0.0453042
0.00757908
-0.0464647
0.00787026
-0.0474192
0.00808923
-0.0481695
0.00820259
-0.0487194
0.00817347
-0.0490764
0.00796131
-0.0492526
0.0075244
-0.0492651
0.00682541
-0.0491359
0.00583856
-0.048893
0.00455856
-0.0485692
0.00301007
-0.0482035
0.00125402
-0.0478484
-0.000616742
-0.0475743
-0.00244423
-0.0474491
-0.00410494
-0.0475154
-0.00554639
-0.0477857
-0.00680156
-0.00775293
-0.00763214
0.00844288
-0.014422
0.00950141
-0.0201736
0.00959367
-0.0250238
0.00939664
-0.0291326
0.00909362
-0.0326148
0.00881413
-0.0355954
0.00861042
-0.0381765
0.00850163
-0.0404269
0.00847897
-0.0423939
0.00852287
-0.0441114
0.00861604
-0.0456035
0.00873834
-0.0468854
0.00886102
-0.0479649
0.00894979
-0.0488462
0.00897048
-0.0495337
0.00889006
-0.0500343
0.00867414
-0.0503585
0.0082855
-0.0505204
0.00768627
-0.0505383
0.00684333
-0.0504353
0.00573556
-0.050239
0.00436229
-0.0499809
0.00275197
-0.0496975
0.000970608
-0.0494436
-0.000870635
-0.0492793
-0.00260857
-0.0492686
-0.00411559
-0.0494585
-0.0053565
-0.0498615
-0.00639865
-0.00719454
-0.00816235
0.0166052
-0.0155156
0.0168546
-0.0215682
0.0156463
-0.0264872
0.0143156
-0.0305264
0.0131328
-0.0338789
0.0121666
-0.0367018
0.0114333
-0.0391222
0.010922
-0.0412223
0.0105791
-0.0430497
0.0103503
-0.0446382
0.0102045
-0.0460155
0.0101157
-0.0471996
0.010045
-0.0481975
0.00994777
-0.0490125
0.00978546
-0.0496494
0.00952691
-0.0501169
0.00914168
-0.0504275
0.00859613
-0.0505969
0.00785564
-0.0506444
0.00689085
-0.0505937
0.00568482
-0.0504718
0.00424041
-0.0503079
0.00258812
-0.0501347
0.000797356
-0.0499982
-0.00100713
-0.0499521
-0.00265469
-0.0500576
-0.00401006
-0.0503699
-0.00504419
-0.0509061
-0.00586252
-0.00649859
-0.00922588
0.0258311
-0.0172089
0.0248377
-0.0232805
0.0217179
-0.0278917
0.0189269
-0.0315518
0.0167929
-0.034531
0.0151458
-0.037006
0.0139083
-0.0391316
0.0130476
-0.0409949
0.0124425
-0.0426247
0.0119801
-0.0440446
0.0116244
-0.0452847
0.0113558
-0.0463641
0.0111244
-0.0472847
0.0108684
-0.0480437
0.0105444
-0.0486439
0.0101271
-0.0490952
0.00959304
-0.0494117
0.00891261
-0.0496098
0.00805372
-0.0497095
0.00699057
-0.049735
0.00571035
-0.0497134
0.00421879
-0.0496718
0.00254648
-0.049636
0.000761639
-0.0496379
-0.00100531
-0.0497208
-0.0025718
-0.0499463
-0.00378448
-0.0503824
-0.00460814
-0.0510589
-0.00518597
-0.00565119
-0.0111738
0.0370049
-0.020068
0.0337319
-0.0256816
0.0273315
-0.0293741
0.0226194
-0.0322651
0.0196839
-0.0346166
0.0174973
-0.0365379
0.0158296
-0.0382294
0.0147391
-0.039783
0.0139961
-0.0411685
0.0133656
-0.0423831
0.012839
-0.0434659
0.0124386
-0.0444412
0.0120997
-0.0452974
0.0117246
-0.0460181
0.0112651
-0.0466016
0.0107106
-0.0470593
0.0100507
-0.0474062
0.00925948
-0.0476579
0.00830538
-0.0478337
0.00716638
-0.0479587
0.00583541
-0.0480615
0.00432152
-0.0481688
0.00265382
-0.0483003
0.000893147
-0.0484685
-0.000837189
-0.0486993
-0.00234091
-0.0490534
-0.00343045
-0.0496164
-0.00404516
-0.0504451
-0.00435724
-0.00463311
-0.0148256
0.0518305
-0.0250316
0.0439378
-0.0293223
0.0316222
-0.030927
0.0242241
-0.0325874
0.0213443
-0.0341098
0.0190197
-0.0352549
0.0169747
-0.036357
0.0158412
-0.0375643
0.0152034
-0.0386776
0.0144789
-0.0396443
0.0138057
-0.0405436
0.0133378
-0.0414222
0.0129783
-0.0422381
0.0125405
-0.0429478
0.0119748
-0.0435438
0.0113066
-0.0440414
0.0105483
-0.0444561
0.00967417
-0.0447984
0.00864766
-0.0450834
0.00745141
-0.0453366
0.00608861
-0.0455895
0.00457443
-0.0458721
0.00293639
-0.0462022
0.00122329
-0.0465736
-0.000465822
-0.0469842
-0.00193029
-0.0474842
-0.00293046
-0.0481797
-0.00334962
-0.0491734
-0.00336351
-0.00340884
0.207447
0.00576232
0.207034
0.0111792
0.206431
0.016356
0.205646
0.0213759
0.204685
0.0263039
0.203557
0.0311942
0.202266
0.0360943
0.200819
0.0410459
0.199221
0.046086
0.197477
0.0512475
0.195594
0.0565607
0.193576
0.0620538
0.19143
0.067754
0.189159
0.0736885
0.18677
0.0798859
0.184266
0.0863772
0.18165
0.0931982
0.178924
0.100392
0.176089
0.108011
0.173143
0.116126
0.170082
0.124827
0.166902
0.134238
0.163598
0.144531
0.160174
0.155947
0.156654
0.168839
0.153135
0.183736
0.149991
0.201431
0.148915
0.222835
0.160759
0.245407
0.258371
0.236805
0.21249
0.00595492
0.212117
0.0115524
0.211573
0.0169001
0.210866
0.0220826
0.210005
0.0271653
0.208996
0.0322029
0.207848
0.0372428
0.206567
0.0423268
0.205161
0.0474917
0.203639
0.05277
0.202008
0.0581915
0.200278
0.0637838
0.198458
0.0695736
0.19656
0.0755871
0.194594
0.0818519
0.192573
0.0883978
0.190513
0.0952587
0.18843
0.102475
0.186345
0.110095
0.184289
0.118183
0.182301
0.126816
0.180442
0.136097
0.178812
0.146161
0.177583
0.157175
0.17708
0.169342
0.177959
0.182857
0.181644
0.197746
0.190751
0.213728
0.206292
0.229866
0.245211
0.219453
0.217657
0.00612504
0.217328
0.0118817
0.216849
0.0173793
0.216228
0.022703
0.215475
0.0279187
0.214597
0.0330808
0.213603
0.0382365
0.212503
0.0434273
0.211305
0.0486892
0.210021
0.0540541
0.208662
0.0595507
0.20724
0.0652054
0.205771
0.0710432
0.204269
0.0770886
0.202755
0.0833667
0.201248
0.0899041
0.199776
0.0967304
0.198372
0.103879
0.197077
0.111391
0.195947
0.119313
0.19506
0.127702
0.19453
0.136627
0.194528
0.146163
0.195316
0.156387
0.197306
0.167352
0.201108
0.179054
0.207491
0.191363
0.217108
0.204112
0.229659
0.217315
0.228394
0.246475
0.222951
0.00627069
0.222669
0.0121634
0.222261
0.017788
0.221734
0.0232301
0.221097
0.0285553
0.22036
0.0338176
0.219533
0.0390638
0.218626
0.0443343
0.217651
0.0496642
0.216621
0.0550842
0.21555
0.0606214
0.214455
0.0663003
0.213355
0.0721436
0.21227
0.078173
0.211227
0.0844097
0.210256
0.0908756
0.209392
0.0975937
0.208683
0.104589
0.208186
0.111888
0.207977
0.119521
0.20816
0.127519
0.208874
0.135913
0.210312
0.144725
0.212737
0.153961
0.216495
0.163595
0.222003
0.173547
0.229704
0.183662
0.240164
0.193652
0.25429
0.203189
0.210017
0.272667
0.228374
0.00639
0.228144
0.0123938
0.22781
0.0181212
0.227383
0.0236573
0.226871
0.0290671
0.226285
0.0344042
0.225635
0.039714
0.224933
0.0450361
0.224193
0.0504041
0.223431
0.0558468
0.222663
0.0613894
0.221909
0.067054
0.221192
0.0728603
0.220539
0.0788262
0.21998
0.0849684
0.219553
0.0913026
0.219303
0.0978439
0.219285
0.104607
0.219568
0.111605
0.22024
0.118849
0.221414
0.126345
0.223235
0.134093
0.225885
0.142074
0.229596
0.15025
0.234646
0.158545
0.24136
0.166833
0.250113
0.174908
0.261348
0.182418
0.27553
0.189006
0.193591
0.291956
0.233929
0.0064813
0.233753
0.0125697
0.2335
0.018374
0.233179
0.0239784
0.232799
0.0294471
0.232371
0.0348322
0.231907
0.0401782
0.231421
0.0455229
0.230926
0.0508982
0.230442
0.056331
0.229988
0.0618439
0.229585
0.0674562
0.229262
0.0731841
0.229047
0.0790412
0.228976
0.0850389
0.229092
0.0911864
0.229446
0.0974905
0.230098
0.103955
0.231122
0.110581
0.232609
0.117361
0.234672
0.124283
0.237444
0.13132
0.24109
0.138429
0.2458
0.14554
0.251794
0.152552
0.25931
0.159316
0.268589
0.165629
0.279805
0.171201
0.293049
0.175762
0.178802
0.307838
0.23962
0.00654309
0.239501
0.0126882
0.239333
0.0185424
0.239123
0.0241884
0.238881
0.0296889
0.238618
0.0350947
0.238348
0.0404486
0.238084
0.0457866
0.237844
0.0511386
0.237646
0.0565291
0.237512
0.061978
0.237467
0.0675013
0.237539
0.0731115
0.237763
0.0788177
0.238176
0.0846259
0.238823
0.0905387
0.239759
0.0965551
0.241044
0.102669
0.242754
0.10887
0.244976
0.115139
0.247813
0.121447
0.251382
0.12775
0.25582
0.133991
0.261273
0.140087
0.267898
0.145927
0.275843
0.151372
0.285224
0.156248
0.296086
0.160339
0.308415
0.163434
0.165266
0.321951
0.245448
0.00657409
0.245389
0.0127469
0.245309
0.018623
0.245214
0.0242829
0.245116
0.0297876
0.245024
0.0351862
0.244953
0.0405196
0.244918
0.0458217
0.244937
0.05112
0.245029
0.0564366
0.245219
0.0617884
0.245532
0.0671882
0.245999
0.0726446
0.246654
0.0781623
0.247538
0.0837421
0.248696
0.0893807
0.250181
0.09507
0.252054
0.100796
0.254385
0.10654
0.257253
0.112271
0.260746
0.117953
0.264963
0.123534
0.270007
0.128947
0.275984
0.134109
0.282993
0.138918
0.291114
0.143251
0.300392
0.146969
0.310816
0.149916
0.322316
0.151933
0.152891
0.334692
0.251418
0.0065733
0.251421
0.0127438
0.251431
0.0186129
0.251456
0.0242585
0.251504
0.0297395
0.251587
0.0351029
0.251719
0.0403874
0.251916
0.0456247
0.252196
0.0508399
0.25258
0.0560524
0.253093
0.0612762
0.25376
0.0665208
0.254613
0.0717912
0.255688
0.077088
0.257022
0.0824074
0.258662
0.0877408
0.260658
0.0930747
0.263065
0.0983895
0.265945
0.103659
0.269368
0.108849
0.273405
0.113916
0.278133
0.118806
0.283626
0.123454
0.289953
0.127783
0.297169
0.131702
0.305309
0.135112
0.314372
0.137906
0.324314
0.139974
0.335035
0.141212
0.141562
0.346365
0.257532
0.00653995
0.257598
0.0126775
0.257701
0.0185102
0.257847
0.0241129
0.258044
0.0295421
0.258305
0.0348424
0.258642
0.0400502
0.259072
0.0451948
0.259613
0.0502988
0.260286
0.0553788
0.261116
0.0604463
0.26213
0.0655075
0.263357
0.070564
0.264832
0.0756131
0.266592
0.080647
0.26868
0.0856533
0.27114
0.0906142
0.274023
0.0955064
0.277382
0.1003
0.281272
0.104959
0.285749
0.109438
0.290869
0.113686
0.29668
0.117643
0.303222
0.12124
0.310519
0.124405
0.318573
0.127058
0.327356
0.129123
0.336805
0.130525
0.346815
0.131202
0.131131
0.357246
0.263794
0.00647358
0.263924
0.0125472
0.264121
0.0183138
0.264389
0.023845
0.264736
0.0291944
0.265174
0.0344041
0.265716
0.0395082
0.266378
0.0445333
0.267177
0.0494997
0.268135
0.0544213
0.269274
0.059307
0.270621
0.0641603
0.272205
0.0689801
0.274058
0.0737605
0.276214
0.078491
0.27871
0.0831564
0.281588
0.0877365
0.284889
0.0922059
0.288655
0.0965337
0.29293
0.100684
0.297755
0.104614
0.303165
0.108276
0.30919
0.111618
0.315845
0.114585
0.323133
0.117117
0.331035
0.119156
0.339507
0.12065
0.348481
0.121552
0.357859
0.121824
0.121469
0.367521
0.270207
0.00637401
0.270401
0.0123524
0.270692
0.0180234
0.271082
0.0234547
0.27158
0.0286968
0.272195
0.0337893
0.272939
0.0387637
0.273828
0.0436441
0.27488
0.0484484
0.276112
0.0531883
0.277549
0.0578701
0.279215
0.0624951
0.281135
0.0670599
0.283339
0.0715564
0.285857
0.0759723
0.288723
0.0802907
0.29197
0.0844902
0.29563
0.0885453
0.299738
0.0924257
0.304324
0.0960975
0.309416
0.0995223
0.315033
0.102659
0.321188
0.105464
0.327881
0.107892
0.335098
0.109899
0.342809
0.111445
0.350964
0.112495
0.359495
0.113021
0.368312
0.113007
0.112463
0.377318
0.276773
0.00624132
0.277032
0.0120936
0.277416
0.0176395
0.277928
0.0229428
0.278574
0.0280509
0.279363
0.0330006
0.280306
0.0378207
0.281417
0.0425331
0.282712
0.0471533
0.284209
0.0516909
0.285929
0.0561501
0.287894
0.0605304
0.290127
0.0648267
0.292654
0.0690295
0.295501
0.0731255
0.298694
0.0770971
0.302261
0.0809233
0.306227
0.0845792
0.310616
0.0880371
0.315448
0.091266
0.320737
0.094233
0.326492
0.0969034
0.332713
0.0992424
0.339389
0.101216
0.346496
0.102792
0.353997
0.103944
0.361842
0.104651
0.369965
0.104898
0.378289
0.104682
0.104021
0.386731
0.283498
0.00607591
0.28382
0.0117713
0.284296
0.0171634
0.284928
0.0223115
0.285719
0.0272598
0.286677
0.0320423
0.287813
0.0366852
0.289138
0.0412082
0.290666
0.0456246
0.292415
0.0499422
0.294402
0.0541635
0.296645
0.0582866
0.299167
0.0623054
0.301987
0.0662096
0.305127
0.0699855
0.308608
0.0736162
0.31245
0.0770814
0.31667
0.0803584
0.321285
0.0834222
0.326305
0.0862462
0.331735
0.0888028
0.337574
0.0910643
0.343813
0.0930037
0.350433
0.0945962
0.357405
0.0958205
0.364689
0.0966596
0.372237
0.0971027
0.379989
0.097146
0.387879
0.0967929
0.0960636
0.395836
0.290384
0.00587839
0.290768
0.011387
0.291334
0.0165971
0.292082
0.0215637
0.293015
0.0263275
0.294137
0.0309199
0.295458
0.0353645
0.296987
0.0396788
0.298738
0.0438742
0.300723
0.047957
0.302958
0.0519284
0.305459
0.0557856
0.308242
0.0595217
0.311325
0.0631266
0.314724
0.0665869
0.318454
0.0698865
0.322528
0.0730071
0.326958
0.0759284
0.331751
0.0786289
0.336911
0.0810864
0.342435
0.0832787
0.348315
0.0851842
0.354536
0.0867833
0.361073
0.0880589
0.367896
0.0889976
0.374965
0.0895902
0.382234
0.0898334
0.389651
0.0897294
0.397158
0.0892864
0.0885254
0.404696
0.297435
0.00564964
0.297879
0.0109423
0.298533
0.0159433
0.299394
0.0207031
0.300462
0.0252593
0.301742
0.0296401
0.303239
0.0338671
0.304962
0.0379556
0.306921
0.0419154
0.309127
0.0457514
0.311591
0.049464
0.314327
0.0530497
0.317347
0.0565017
0.320664
0.0598101
0.324288
0.0629624
0.32823
0.0659441
0.332498
0.068739
0.337097
0.0713297
0.342028
0.0736983
0.347287
0.0758268
0.352868
0.077698
0.358756
0.0792961
0.364932
0.0806073
0.37137
0.0816208
0.378038
0.0823293
0.384899
0.0827295
0.39191
0.0828228
0.399024
0.0826155
0.406192
0.0821183
0.0813519
0.413365
0.304654
0.0053907
0.305157
0.0104393
0.305895
0.0152052
0.306864
0.0197343
0.308062
0.0240609
0.309492
0.0282106
0.311156
0.0322025
0.313062
0.0360502
0.315215
0.0397621
0.317624
0.0433419
0.320299
0.0467895
0.323247
0.0501013
0.326479
0.0532705
0.33
0.0562881
0.33382
0.0591429
0.337942
0.061822
0.34237
0.0643117
0.347102
0.0665974
0.352135
0.0686649
0.357462
0.0705001
0.36307
0.0720902
0.368942
0.0734242
0.375056
0.0744933
0.381385
0.0752914
0.387899
0.0758158
0.394561
0.0760672
0.401333
0.0760504
0.408175
0.0757738
0.415044
0.0752495
0.0744968
0.421899
0.312046
0.0051028
0.312605
0.00988042
0.313424
0.0143864
0.314496
0.0186623
0.315818
0.022739
0.317389
0.0266395
0.31921
0.0303808
0.321286
0.0339749
0.323619
0.0374287
0.326216
0.0407453
0.329081
0.0439243
0.33222
0.0469619
0.335639
0.0498521
0.33934
0.0525868
0.343327
0.0551561
0.3476
0.0575492
0.352157
0.0597547
0.356993
0.061761
0.362101
0.0635569
0.367469
0.065132
0.373082
0.0664773
0.378921
0.0675857
0.384962
0.0684522
0.391179
0.0690744
0.397542
0.0694528
0.404018
0.0695911
0.410572
0.0694957
0.41717
0.0691764
0.423774
0.0686454
0.0679207
0.43035
0.319615
0.00478724
0.320227
0.00926825
0.321123
0.0134909
0.322293
0.0174924
0.323731
0.0213004
0.325435
0.0249354
0.327404
0.0284125
0.329637
0.0317418
0.332136
0.0349295
0.334903
0.037978
0.337941
0.0408866
0.341251
0.043652
0.344834
0.0462687
0.348691
0.0487297
0.352821
0.0510268
0.357219
0.0531511
0.36188
0.0550934
0.366797
0.0568447
0.371957
0.0583967
0.377347
0.0597422
0.382949
0.0608751
0.388743
0.0617915
0.394706
0.0624894
0.400811
0.062969
0.407031
0.0632331
0.413335
0.063287
0.419692
0.0631382
0.426072
0.0627969
0.432442
0.062275
0.0615886
0.438774
0.327365
0.0044454
0.328028
0.00860547
0.328996
0.0125227
0.330258
0.0162301
0.331807
0.0197522
0.333635
0.0231071
0.33574
0.0263078
0.338118
0.0293632
0.340769
0.0322784
0.343692
0.0350555
0.346885
0.0376937
0.350347
0.0401901
0.354075
0.04254
0.358067
0.0447376
0.362318
0.0467763
0.36682
0.0486488
0.371566
0.0503481
0.376543
0.0518676
0.381738
0.0532013
0.387136
0.0543445
0.392717
0.0552938
0.398461
0.0560475
0.404345
0.0566058
0.410343
0.0569707
0.41643
0.0571466
0.422577
0.0571394
0.428758
0.0569574
0.434944
0.0566104
0.44111
0.0561096