/*--------------------------------*- C++ -*----------------------------------*\
  =========                 |
  \\      /  F ield         | OpenFOAM: The Open Source CFD Toolbox
   \\    /   O peration     | Website:  https://openfoam.org
    \\  /    A nd           | Version:  7
     \\/     M anipulation  |
\*---------------------------------------------------------------------------*/
FoamFile
{
    version     2.0;
    format      ascii;
    class       volVectorField;
    location    "2";
    object      U;
}
// * * * * * * * * * * * * * * * * * * * * * * * * * * * * * * * * * * * * * //

dimensions      [0 1 -1 0 0 0 0];

internalField   nonuniform List<vector> 
2790
(
(9.94399 0.0205244 0)
(9.87571 0.0295902 0)
(9.77519 0.0359933 0)
(9.6494 0.0425614 0)
(9.50403 0.0493921 0)
(9.33998 0.0564366 0)
(9.15643 0.0638258 0)
(8.95247 0.0717233 0)
(8.72727 0.0802688 0)
(8.47985 0.089589 0)
(8.20899 0.0998109 0)
(7.91332 0.111065 0)
(7.5913 0.123481 0)
(7.24135 0.137187 0)
(6.86184 0.152296 0)
(6.45126 0.168894 0)
(6.0083 0.187021 0)
(5.53206 0.206642 0)
(5.02232 0.227611 0)
(4.47978 0.249628 0)
(3.90648 0.272189 0)
(3.30616 0.294531 0)
(2.68464 0.315616 0)
(2.05001 0.334271 0)
(1.41125 0.350563 0)
(0.797564 0.372773 0)
(0.110393 0.324691 0)
(-0.469065 -0.114617 0)
(-0.453566 -0.29651 0)
(-0.230893 -0.423342 0)
(9.9985 0.0407069 0)
(9.98145 0.0623905 0)
(9.93572 0.0791517 0)
(9.86412 0.0966402 0)
(9.77091 0.115143 0)
(9.65706 0.134512 0)
(9.52194 0.155003 0)
(9.3647 0.176976 0)
(9.18452 0.200745 0)
(8.98043 0.226592 0)
(8.75124 0.254791 0)
(8.49554 0.28561 0)
(8.21181 0.319302 0)
(7.89837 0.356077 0)
(7.55353 0.396074 0)
(7.17563 0.439316 0)
(6.76318 0.485641 0)
(6.31501 0.534629 0)
(5.83057 0.585495 0)
(5.31018 0.636975 0)
(4.75544 0.687209 0)
(4.16971 0.733632 0)
(3.55862 0.772916 0)
(2.93092 0.801027 0)
(2.29939 0.813644 0)
(1.69246 0.807081 0)
(1.10675 0.746953 0)
(0.658555 0.547601 0)
(0.185796 0.223987 0)
(-0.00806944 -0.453616 0)
(9.99559 0.0432136 0)
(9.97555 0.0752847 0)
(9.93178 0.103365 0)
(9.86486 0.132397 0)
(9.77772 0.163092 0)
(9.67146 0.195439 0)
(9.54576 0.22979 0)
(9.39998 0.266658 0)
(9.23346 0.306534 0)
(9.04541 0.349878 0)
(8.83481 0.39715 0)
(8.60049 0.448806 0)
(8.34108 0.505281 0)
(8.05508 0.566954 0)
(7.74091 0.634102 0)
(7.39693 0.706818 0)
(7.02155 0.784917 0)
(6.61336 0.867793 0)
(6.17132 0.954248 0)
(5.695 1.04229 0)
(5.18498 1.12889 0)
(4.64332 1.20976 0)
(4.07417 1.27909 0)
(3.48479 1.32922 0)
(2.88632 1.34992 0)
(2.29899 1.32619 0)
(1.73143 1.22046 0)
(1.21588 0.97273 0)
(0.700877 0.569978 0)
(0.357717 -0.156672 0)
(9.99402 0.0495085 0)
(9.9718 0.0932245 0)
(9.92786 0.133599 0)
(9.86221 0.174245 0)
(9.77687 0.216479 0)
(9.67289 0.260717 0)
(9.5502 0.307496 0)
(9.40834 0.357491 0)
(9.24683 0.411377 0)
(9.0651 0.469802 0)
(8.86241 0.533407 0)
(8.63787 0.602836 0)
(8.39048 0.67871 0)
(8.11911 0.761594 0)
(7.82254 0.851939 0)
(7.49951 0.949988 0)
(7.14871 1.05565 0)
(6.76888 1.16833 0)
(6.35891 1.28667 0)
(5.91801 1.4083 0)
(5.44594 1.52947 0)
(4.94342 1.64464 0)
(4.41261 1.74605 0)
(3.85774 1.82307 0)
(3.28534 1.86115 0)
(2.70597 1.84004 0)
(2.12528 1.72566 0)
(1.55395 1.47752 0)
(0.957736 1.0834 0)
(0.509278 0.502089 0)
(9.99331 0.0572256 0)
(9.96993 0.110982 0)
(9.92591 0.162139 0)
(9.86142 0.213394 0)
(9.77792 0.266416 0)
(9.67626 0.321986 0)
(9.55642 0.380787 0)
(9.41806 0.443586 0)
(9.26077 0.511167 0)
(9.08409 0.584293 0)
(8.88742 0.663721 0)
(8.67005 0.750205 0)
(8.43121 0.844481 0)
(8.17003 0.947232 0)
(7.88561 1.05902 0)
(7.57697 1.18021 0)
(7.24313 1.31081 0)
(6.88304 1.45028 0)
(6.49571 1.5973 0)
(6.08015 1.74936 0)
(5.63558 1.90241 0)
(5.16156 2.05026 0)
(4.65825 2.18406 0)
(4.12673 2.29156 0)
(3.56897 2.35631 0)
(2.98851 2.35699 0)
(2.38651 2.26456 0)
(1.76612 2.04722 0)
(1.08982 1.69098 0)
(0.536538 1.15378 0)
(9.99302 0.0655534 0)
(9.96922 0.128731 0)
(9.92554 0.190157 0)
(9.86249 0.251901 0)
(9.78122 0.315651 0)
(9.68235 0.382407 0)
(9.56588 0.452979 0)
(9.43155 0.528222 0)
(9.27899 0.609016 0)
(9.10781 0.696235 0)
(8.91747 0.790742 0)
(8.70739 0.893396 0)
(8.47688 1.00503 0)
(8.22522 1.12643 0)
(7.95165 1.25826 0)
(7.65535 1.40097 0)
(7.33546 1.55468 0)
(6.99105 1.71897 0)
(6.62108 1.89263 0)
(6.2244 2.07325 0)
(5.79969 2.25683 0)
(5.34548 2.43712 0)
(4.86019 2.60505 0)
(4.34223 2.748 0)
(3.78998 2.84924 0)
(3.20222 2.88782 0)
(2.57628 2.83778 0)
(1.91324 2.67111 0)
(1.17261 2.37349 0)
(0.549878 1.89393 0)
(9.99297 0.0740925 0)
(9.96925 0.146349 0)
(9.92635 0.217535 0)
(9.86504 0.289361 0)
(9.78636 0.363443 0)
(9.69075 0.440933 0)
(9.57821 0.522786 0)
(9.44854 0.609956 0)
(9.30143 0.703419 0)
(9.13651 0.804145 0)
(8.95332 0.913095 0)
(8.75133 1.03122 0)
(8.5299 1.15943 0)
(8.28839 1.29861 0)
(8.02605 1.4495 0)
(7.74211 1.61266 0)
(7.43568 1.78834 0)
(7.10576 1.97628 0)
(6.75115 2.17548 0)
(6.37036 2.38384 0)
(5.96147 2.5977 0)
(5.52204 2.81127 0)
(5.04898 3.01596 0)
(4.53852 3.19969 0)
(3.98625 3.34632 0)
(3.38757 3.43552 0)
(2.73698 3.44279 0)
(2.03604 3.34093 0)
(1.24163 3.11298 0)
(0.563441 2.69258 0)
(9.99306 0.0826087 0)
(9.9698 0.163647 0)
(9.92804 0.244111 0)
(9.8688 0.325561 0)
(9.79305 0.409549 0)
(9.70116 0.497331 0)
(9.59309 0.589986 0)
(9.4687 0.688566 0)
(9.32773 0.794132 0)
(9.16986 0.907742 0)
(8.99468 1.03044 0)
(8.8017 1.16328 0)
(8.59035 1.30725 0)
(8.35998 1.46334 0)
(8.10986 1.63238 0)
(7.83917 1.81508 0)
(7.54693 2.01185 0)
(7.23196 2.22265 0)
(6.89278 2.44681 0)
(6.52744 2.6827 0)
(6.13338 2.92729 0)
(5.70719 3.17562 0)
(5.24437 3.42012 0)
(4.73925 3.64986 0)
(4.18504 3.8498 0)
(3.57441 4.00037 0)
(2.89926 4.07731 0)
(2.16193 4.05174 0)
(1.31602 3.90103 0)
(0.583159 3.53951 0)
(9.99326 0.090952 0)
(9.97071 0.180455 0)
(9.93043 0.269737 0)
(9.87357 0.360335 0)
(9.8011 0.453765 0)
(9.71333 0.551354 0)
(9.61023 0.654282 0)
(9.49169 0.763693 0)
(9.35751 0.880728 0)
(9.20743 1.00653 0)
(9.04109 1.14222 0)
(8.85804 1.28895 0)
(8.65777 1.44781 0)
(8.43964 1.61988 0)
(8.20293 1.80614 0)
(7.94676 2.00746 0)
(7.67003 2.22446 0)
(7.37137 2.45743 0)
(7.04897 2.70614 0)
(6.70045 2.96957 0)
(6.32254 3.24557 0)
(5.91089 3.53034 0)
(5.45967 3.81776 0)
(4.96141 4.09857 0)
(4.40692 4.35934 0)
(3.78602 4.58149 0)
(3.0873 4.7404 0)
(2.31254 4.80374 0)
(1.41057 4.74036 0)
(0.614263 4.44122 0)
(9.99352 0.0990191 0)
(9.97189 0.196632 0)
(9.93338 0.294275 0)
(9.87919 0.393523 0)
(9.81032 0.495891 0)
(9.72705 0.602753 0)
(9.62937 0.715378 0)
(9.51721 0.834988 0)
(9.39042 0.962801 0)
(9.2488 1.10003 0)
(9.09206 1.2479 0)
(8.91981 1.40762 0)
(8.73158 1.5804 0)
(8.5268 1.76744 0)
(8.30473 1.96988 0)
(8.06448 2.18877 0)
(7.80488 2.42504 0)
(7.5244 2.67935 0)
(7.22098 2.95202 0)
(6.89182 3.24282 0)
(6.53309 3.55067 0)
(6.13958 3.87325 0)
(5.70423 4.20632 0)
(5.21777 4.54287 0)
(4.66841 4.8718 0)
(4.04244 5.17623 0)
(3.32341 5.43151 0)
(2.50961 5.60115 0)
(1.54182 5.6427 0)
(0.664032 5.4173 0)
(9.99384 0.106734 0)
(9.97329 0.21206 0)
(9.93677 0.317592 0)
(9.88553 0.424976 0)
(9.82055 0.535741 0)
(9.74213 0.651307 0)
(9.65028 0.773009 0)
(9.54496 0.902143 0)
(9.4261 1.03999 0)
(9.29356 1.18784 0)
(9.1471 1.34699 0)
(8.98644 1.51873 0)
(8.81116 1.70438 0)
(8.62075 1.90526 0)
(8.41454 2.12269 0)
(8.19166 2.35794 0)
(7.95094 2.61226 0)
(7.69077 2.88676 0)
(7.40898 3.18241 0)
(7.10254 3.49987 0)
(6.76725 3.83934 0)
(6.39727 4.20025 0)
(5.98457 4.58072 0)
(5.51822 4.9767 0)
(4.98368 5.38054 0)
(4.36276 5.77866 0)
(3.6316 6.14818 0)
(2.78 6.44973 0)
(1.73346 6.62766 0)
(0.74485 6.50236 0)
(9.9942 0.11404 0)
(9.97486 0.226642 0)
(9.94053 0.339573 0)
(9.89246 0.454558 0)
(9.83165 0.573154 0)
(9.75838 0.696819 0)
(9.67271 0.826944 0)
(9.57465 0.964884 0)
(9.46419 1.11198 0)
(9.34125 1.26959 0)
(9.2057 1.43906 0)
(9.05732 1.62177 0)
(8.8958 1.81914 0)
(8.72073 2.03261 0)
(8.53152 2.26368 0)
(8.32741 2.51385 0)
(8.10729 2.7847 0)
(7.86966 3.07784 0)
(7.61239 3.39489 0)
(7.33246 3.73751 0)
(7.02562 4.10731 0)
(6.68587 4.50569 0)
(6.30468 4.93357 0)
(5.87001 5.39069 0)
(5.3649 5.87439 0)
(4.76627 6.37713 0)
(4.04038 6.88204 0)
(3.1614 7.35238 0)
(2.02488 7.72229 0)
(0.880842 7.75645 0)
(9.99459 0.120891 0)
(9.97656 0.240298 0)
(9.94458 0.360118 0)
(9.8999 0.48215 0)
(9.84347 0.607986 0)
(9.77562 0.739117 0)
(9.69644 0.876977 0)
(9.60599 1.02297 0)
(9.50432 1.17849 0)
(9.39146 1.34493 0)
(9.26733 1.52371 0)
(9.13184 1.71628 0)
(8.98478 1.92413 0)
(8.82588 2.14882 0)
(8.6547 2.392 0)
(8.47062 2.65542 0)
(8.27275 2.94096 0)
(8.05978 3.25069 0)
(7.82986 3.58691 0)
(7.58031 3.95224 0)
(7.30725 4.3497 0)
(7.00511 4.78279 0)
(6.66573 5.25547 0)
(6.27712 5.77204 0)
(5.82133 6.3365 0)
(5.27169 6.951 0)
(4.58416 7.61212 0)
(3.71003 8.29952 0)
(2.48857 8.95724 0)
(1.1248 9.2929 0)
(9.99501 0.127252 0)
(9.97836 0.252966 0)
(9.94888 0.379143 0)
(9.90774 0.507652 0)
(9.85589 0.640119 0)
(9.79368 0.778062 0)
(9.72123 0.92295 0)
(9.63868 1.07622 0)
(9.54614 1.23931 0)
(9.44371 1.41365 0)
(9.33144 1.60068 0)
(9.20932 1.80192 0)
(9.07731 2.01893 0)
(8.93527 2.25336 0)
(8.78296 2.507 0)
(8.62 2.78176 0)
(8.44577 3.07982 0)
(8.25935 3.40363 0)
(8.05935 3.75607 0)
(7.84373 4.14063 0)
(7.6095 4.56158 0)
(7.35222 5.02433 0)
(7.06531 5.53583 0)
(6.73868 6.10508 0)
(6.35645 6.7438 0)
(5.89301 7.46712 0)
(5.30033 8.2943 0)
(4.50918 9.24605 0)
(3.26981 10.3407 0)
(1.60589 11.3597 0)
(9.99544 0.133096 0)
(9.98025 0.264593 0)
(9.95336 0.396576 0)
(9.9159 0.530971 0)
(9.86878 0.669432 0)
(9.81238 0.8135 0)
(9.74688 0.964668 0)
(9.67245 1.1244 0)
(9.58929 1.29415 0)
(9.49758 1.47537 0)
(9.39748 1.66955 0)
(9.28911 1.87821 0)
(9.17257 2.10297 0)
(9.04792 2.34555 0)
(8.91513 2.60781 0)
(8.77411 2.89181 0)
(8.62462 3.19991 0)
(8.4662 3.53486 0)
(8.29814 3.89996 0)
(8.11931 4.29929 0)
(7.92802 4.73806 0)
(7.72173 5.22311 0)
(7.49662 5.76367 0)
(7.24685 6.37253 0)
(6.96298 7.06817 0)
(6.62956 7.87844 0)
(6.2139 8.84888 0)
(5.66671 10.0628 0)
(4.6928 11.729 0)
(2.68998 14.5958 0)
(0.207584 -0.233836 0)
(0.462152 -0.198959 0)
(0.728351 -0.163027 0)
(0.966209 -0.134734 0)
(1.17012 -0.112888 0)
(1.34661 -0.0955416 0)
(1.5021 -0.0814558 0)
(1.64053 -0.069784 0)
(1.76408 -0.0597842 0)
(1.87377 -0.0508141 0)
(1.96974 -0.0425282 0)
(2.05189 -0.0349827 0)
(2.12077 -0.028281 0)
(2.17738 -0.0222044 0)
(2.22145 -0.0163467 0)
(2.25178 -0.0106097 0)
(2.26925 -0.00394824 0)
(2.2769 0.00410627 0)
(2.27664 0.00886018 0)
(2.27043 0.0083226 0)
(2.2635 0.00262285 0)
(2.26185 -0.00687736 0)
(2.26895 -0.0176839 0)
(2.28501 -0.0270523 0)
(2.30762 -0.0327356 0)
(2.33425 -0.0339676 0)
(2.36532 -0.0321353 0)
(2.40377 -0.0300641 0)
(2.45509 -0.0285165 0)
(2.54214 -0.0261487 0)
(0.14278 -0.453926 0)
(0.378386 -0.408513 0)
(0.608503 -0.344376 0)
(0.817024 -0.290224 0)
(0.998608 -0.247417 0)
(1.15796 -0.21301 0)
(1.29991 -0.184813 0)
(1.42753 -0.161209 0)
(1.54269 -0.140621 0)
(1.64641 -0.121478 0)
(1.73872 -0.102917 0)
(1.81891 -0.0855281 0)
(1.88697 -0.0700755 0)
(1.94504 -0.0550126 0)
(1.99444 -0.0376563 0)
(2.03267 -0.0233201 0)
(2.0606 -0.0165468 0)
(2.0803 -0.012919 0)
(2.07518 -0.0074336 0)
(2.04139 -0.00209444 0)
(1.97951 0.00165432 0)
(1.89535 0.0042638 0)
(1.79803 0.00657095 0)
(1.69868 0.00862955 0)
(1.60992 0.00901971 0)
(1.54414 0.00515916 0)
(1.51145 -0.00180269 0)
(1.50063 -0.0111267 0)
(1.52197 -0.0264894 0)
(1.61756 -0.0476247 0)
(0.09461 -0.678951 0)
(0.280831 -0.627146 0)
(0.445897 -0.5373 0)
(0.598368 -0.458117 0)
(0.729713 -0.394147 0)
(0.843631 -0.341944 0)
(0.943062 -0.298697 0)
(1.0299 -0.262268 0)
(1.10548 -0.230583 0)
(1.1709 -0.201111 0)
(1.22674 -0.171675 0)
(1.27093 -0.143182 0)
(1.30014 -0.120093 0)
(1.31839 -0.105012 0)
(1.33327 -0.0901671 0)
(1.32947 -0.0641441 0)
(1.25549 -0.0290451 0)
(1.1396 0.00519322 0)
(1.02299 0.0412343 0)
(0.906826 0.0713652 0)
(0.789736 0.0900635 0)
(0.676485 0.096829 0)
(0.572555 0.0924672 0)
(0.485154 0.0781898 0)
(0.421045 0.0553462 0)
(0.389311 0.0244072 0)
(0.383885 -0.00564955 0)
(0.433191 -0.0379022 0)
(0.514045 -0.0871635 0)
(0.670127 -0.133429 0)
(0.0537547 -0.827059 0)
(0.179363 -0.761616 0)
(0.267865 -0.649784 0)
(0.354911 -0.552357 0)
(0.424323 -0.4727 0)
(0.480741 -0.406765 0)
(0.524838 -0.351387 0)
(0.556945 -0.304159 0)
(0.577207 -0.263324 0)
(0.586711 -0.226712 0)
(0.589081 -0.19148 0)
(0.583319 -0.154688 0)
(0.554462 -0.113392 0)
(0.482341 -0.0644193 0)
(0.344613 -0.00897331 0)
(0.217515 0.0464065 0)
(0.132699 0.0882815 0)
(0.0427152 0.114568 0)
(-0.0445106 0.131485 0)
(-0.127866 0.143582 0)
(-0.204447 0.147389 0)
(-0.269184 0.140741 0)
(-0.318458 0.1234 0)
(-0.348997 0.0961781 0)
(-0.357166 0.0607073 0)
(-0.341481 0.0191499 0)
(-0.31712 -0.0293918 0)
(-0.254946 -0.0827838 0)
(-0.187493 -0.136102 0)
(-0.115174 -0.177182 0)
(0.0131971 -0.90629 0)
(0.0691694 -0.822475 0)
(0.075038 -0.693476 0)
(0.0900564 -0.584285 0)
(0.0889074 -0.493202 0)
(0.0784616 -0.416576 0)
(0.0571372 -0.35073 0)
(0.0233637 -0.292062 0)
(-0.0253337 -0.238485 0)
(-0.0914284 -0.187433 0)
(-0.174794 -0.135221 0)
(-0.271189 -0.0797905 0)
(-0.381087 -0.0225805 0)
(-0.484723 0.0285797 0)
(-0.553903 0.0651358 0)
(-0.627959 0.0949694 0)
(-0.698887 0.12536 0)
(-0.76586 0.152278 0)
(-0.826063 0.169178 0)
(-0.877388 0.176542 0)
(-0.917562 0.173348 0)
(-0.944723 0.158327 0)
(-0.958078 0.131729 0)
(-0.957321 0.0951209 0)
(-0.942586 0.0511829 0)
(-0.917252 0.00234123 0)
(-0.884003 -0.0525242 0)
(-0.841165 -0.108521 0)
(-0.803678 -0.158561 0)
(-0.780231 -0.193688 0)
(-0.0301739 -0.907047 0)
(-0.0511386 -0.801004 0)
(-0.126667 -0.661201 0)
(-0.189564 -0.54477 0)
(-0.264846 -0.445816 0)
(-0.34704 -0.361562 0)
(-0.436905 -0.288206 0)
(-0.533511 -0.222918 0)
(-0.635104 -0.163845 0)
(-0.73962 -0.109 0)
(-0.844986 -0.0568856 0)
(-0.95099 -0.00755836 0)
(-1.03914 0.0360537 0)
(-1.11247 0.0748295 0)
(-1.18278 0.110163 0)
(-1.24801 0.140607 0)
(-1.30644 0.165844 0)
(-1.3564 0.185093 0)
(-1.39655 0.195433 0)
(-1.42595 0.195648 0)
(-1.44403 0.184806 0)
(-1.4509 0.16238 0)
(-1.44733 0.129096 0)
(-1.43434 0.086924 0)
(-1.41329 0.0385102 0)
(-1.38778 -0.0142757 0)
(-1.35361 -0.0700829 0)
(-1.3235 -0.124351 0)
(-1.30216 -0.172179 0)
(-1.29338 -0.206516 0)
(-0.0800909 -0.825492 0)
(-0.177941 -0.702137 0)
(-0.328176 -0.560799 0)
(-0.4631 -0.443854 0)
(-0.600708 -0.345466 0)
(-0.735929 -0.262567 0)
(-0.867479 -0.19168 0)
(-0.994464 -0.129439 0)
(-1.11645 -0.0734662 0)
(-1.23358 -0.0228423 0)
(-1.33817 0.0215387 0)
(-1.42497 0.0597435 0)
(-1.50441 0.0943666 0)
(-1.57744 0.126097 0)
(-1.64336 0.154762 0)
(-1.70103 0.17906 0)
(-1.7494 0.197662 0)
(-1.78754 0.209319 0)
(-1.81496 0.212268 0)
(-1.83166 0.205347 0)
(-1.838 0.187843 0)
(-1.83482 0.159646 0)
(-1.8233 0.12167 0)
(-1.80469 0.0758447 0)
(-1.7807 0.0245407 0)
(-1.75447 -0.0300821 0)
(-1.72641 -0.0844315 0)
(-1.7057 -0.135065 0)
(-1.69489 -0.179463 0)
(-1.69294 -0.211466 0)
(-0.132387 -0.667076 0)
(-0.299261 -0.535381 0)
(-0.514891 -0.401173 0)
(-0.705879 -0.293926 0)
(-0.886954 -0.207207 0)
(-1.05491 -0.135003 0)
(-1.20956 -0.0737303 0)
(-1.35164 -0.0208183 0)
(-1.47539 0.0226565 0)
(-1.58191 0.0590449 0)
(-1.67723 0.0913428 0)
(-1.76454 0.12143 0)
(-1.84359 0.14929 0)
(-1.91398 0.17418 0)
(-1.97517 0.195495 0)
(-2.02659 0.21226 0)
(-2.06771 0.223324 0)
(-2.09819 0.227432 0)
(-2.11808 0.22324 0)
(-2.12777 0.209763 0)
(-2.12802 0.186463 0)
(-2.11991 0.15344 0)
(-2.10476 0.111718 0)
(-2.0841 0.0632684 0)
(-2.06008 0.0106031 0)
(-2.03571 -0.0435885 0)
(-2.01397 -0.0952592 0)
(-2.00118 -0.141691 0)
(-1.99849 -0.181866 0)
(-2.00078 -0.210443 0)
(-0.185007 -0.443196 0)
(-0.41222 -0.318943 0)
(-0.682687 -0.203582 0)
(-0.915575 -0.11161 0)
(-1.12416 -0.0381295 0)
(-1.30395 0.0146871 0)
(-1.45937 0.054718 0)
(-1.59278 0.0859098 0)
(-1.71238 0.113394 0)
(-1.82007 0.138591 0)
(-1.91711 0.161935 0)
(-2.00401 0.183458 0)
(-2.08095 0.202919 0)
(-2.1479 0.21967 0)
(-2.20471 0.232933 0)
(-2.25118 0.241769 0)
(-2.28717 0.245135 0)
(-2.31275 0.241899 0)
(-2.32821 0.230947 0)
(-2.33418 0.211441 0)
(-2.33158 0.182977 0)
(-2.3216 0.145806 0)
(-2.30567 0.101068 0)
(-2.28557 0.0508332 0)
(-2.26377 -0.00217872 0)
(-2.24248 -0.054736 0)
(-2.22681 -0.102908 0)
(-2.22117 -0.144731 0)
(-2.22537 -0.180194 0)
(-2.23098 -0.204968 0)
(-0.244889 -0.156374 0)
(-0.522447 -0.0181911 0)
(-0.820242 0.0632037 0)
(-1.06458 0.110157 0)
(-1.27237 0.137751 0)
(-1.45322 0.158864 0)
(-1.61097 0.176232 0)
(-1.74957 0.1917 0)
(-1.87198 0.20602 0)
(-1.98026 0.21944 0)
(-2.07607 0.232156 0)
(-2.16044 0.243971 0)
(-2.23402 0.254339 0)
(-2.29711 0.262471 0)
(-2.34985 0.267479 0)
(-2.39229 0.26842 0)
(-2.42456 0.264307 0)
(-2.44693 0.254116 0)
(-2.45991 0.236881 0)
(-2.46422 0.211882 0)
(-2.46088 0.178838 0)
(-2.45114 0.138125 0)
(-2.43648 0.0909882 0)
(-2.41874 0.0395991 0)
(-2.40028 -0.0131127 0)
(-2.38332 -0.0633718 0)
(-2.37357 -0.107562 0)
(-2.37467 -0.144492 0)
(-2.38517 -0.174993 0)
(-2.39375 -0.196029 0)
(-0.267645 0.251636 0)
(-0.567913 0.299373 0)
(-0.884682 0.315037 0)
(-1.14391 0.317927 0)
(-1.36438 0.314046 0)
(-1.55166 0.308292 0)
(-1.71153 0.30305 0)
(-1.84944 0.299705 0)
(-1.96945 0.298447 0)
(-2.07432 0.298738 0)
(-2.16604 0.300055 0)
(-2.24602 0.301749 0)
(-2.31519 0.302908 0)
(-2.37407 0.302474 0)
(-2.42293 0.299414 0)
(-2.46194 0.292768 0)
(-2.49139 0.281601 0)
(-2.5117 0.264973 0)
(-2.52348 0.24202 0)
(-2.52756 0.212121 0)
(-2.525 0.175094 0)
(-2.51707 0.131412 0)
(-2.50525 0.0823911 0)
(-2.49128 0.0303035 0)
(-2.47717 -0.0216121 0)
(-2.4656 -0.0692274 0)
(-2.4618 -0.109254 0)
(-2.46949 -0.141102 0)
(-2.48607 -0.166491 0)
(-2.49756 -0.183939 0)
(-0.28058 0.613796 0)
(-0.60861 0.631266 0)
(-0.948849 0.590595 0)
(-1.21629 0.541954 0)
(-1.43638 0.496349 0)
(-1.61835 0.457719 0)
(-1.77077 0.426962 0)
(-1.90062 0.403845 0)
(-2.01283 0.386768 0)
(-2.11044 0.373862 0)
(-2.19541 0.363874 0)
(-2.26928 0.355737 0)
(-2.33315 0.348123 0)
(-2.38757 0.339596 0)
(-2.43273 0.328946 0)
(-2.46881 0.315222 0)
(-2.49616 0.297566 0)
(-2.5153 0.275121 0)
(-2.52691 0.247097 0)
(-2.5319 0.212949 0)
(-2.53136 0.172577 0)
(-2.52661 0.126518 0)
(-2.51908 0.0761169 0)
(-2.51028 0.0237245 0)
(-2.50174 -0.0271053 0)
(-2.49616 -0.0720402 0)
(-2.49848 -0.107949 0)
(-2.5128 -0.134609 0)
(-2.53552 -0.154731 0)
(-2.55004 -0.168647 0)
(-0.315432 1.03741 0)
(-0.681433 0.999524 0)
(-1.037 0.876586 0)
(-1.29487 0.761597 0)
(-1.4971 0.669498 0)
(-1.65987 0.596727 0)
(-1.79401 0.540395 0)
(-1.90783 0.498635 0)
(-2.0069 0.467297 0)
(-2.0937 0.44236 0)
(-2.16952 0.421974 0)
(-2.23579 0.404972 0)
(-2.29369 0.389588 0)
(-2.34361 0.373838 0)
(-2.38546 0.356313 0)
(-2.41924 0.336161 0)
(-2.44526 0.312689 0)
(-2.46414 0.285131 0)
(-2.4766 0.252746 0)
(-2.48359 0.215053 0)
(-2.48623 0.172027 0)
(-2.48591 0.124238 0)
(-2.48403 0.0730042 0)
(-2.48181 0.0206631 0)
(-2.48018 -0.0290448 0)
(-2.48129 -0.0715683 0)
(-2.49007 -0.103589 0)
(-2.51118 -0.125026 0)
(-2.54034 -0.139632 0)
(-2.55815 -0.149879 0)
(-0.386028 1.52717 0)
(-0.812123 1.40481 0)
(-1.17288 1.15689 0)
(-1.39155 0.955297 0)
(-1.55102 0.81761 0)
(-1.67868 0.714298 0)
(-1.78299 0.635038 0)
(-1.87236 0.578418 0)
(-1.95328 0.536808 0)
(-2.02636 0.502223 0)
(-2.0909 0.472975 0)
(-2.14818 0.448721 0)
(-2.19971 0.427231 0)
(-2.24554 0.405539 0)
(-2.28487 0.382025 0)
(-2.31729 0.356179 0)
(-2.34308 0.327632 0)
(-2.36288 0.295724 0)
(-2.37744 0.259723 0)
(-2.38763 0.219203 0)
(-2.39462 0.174214 0)
(-2.39989 0.125345 0)
(-2.40492 0.073824 0)
(-2.4107 0.0218268 0)
(-2.41757 -0.0269189 0)
(-2.42652 -0.0675142 0)
(-2.4424 -0.0960767 0)
(-2.47067 -0.112316 0)
(-2.50671 -0.120943 0)
(-2.52817 -0.127036 0)
(-0.542279 2.33507 0)
(-1.04176 1.97551 0)
(-1.39521 1.43768 0)
(-1.51853 1.08063 0)
(-1.5953 0.916219 0)
(-1.6723 0.799826 0)
(-1.73579 0.702983 0)
(-1.79152 0.637395 0)
(-1.85012 0.592886 0)
(-1.90789 0.551808 0)
(-1.95919 0.515262 0)
(-2.00576 0.48597 0)
(-2.0506 0.461001 0)
(-2.0932 0.435147 0)
(-2.13129 0.406645 0)
(-2.16376 0.375865 0)
(-2.19091 0.343052 0)
(-2.21347 0.307602 0)
(-2.23202 0.268671 0)
(-2.24717 0.225898 0)
(-2.26002 0.179519 0)
(-2.27219 0.130219 0)
(-2.28541 0.079122 0)
(-2.30063 0.02804 0)
(-2.31777 -0.0197538 0)
(-2.33634 -0.0590238 0)
(-2.36055 -0.0848667 0)
(-2.39665 -0.0961155 0)
(-2.44015 -0.0980586 0)
(-2.46577 -0.0991483 0)
(9.9959 0.138495 0)
(9.98223 0.275335 0)
(9.95807 0.412672 0)
(9.92447 0.552472 0)
(9.88232 0.696416 0)
(9.83201 0.846056 0)
(9.77378 1.0029 0)
(9.70787 1.16842 0)
(9.63456 1.34408 0)
(9.55412 1.53134 0)
(9.46682 1.73169 0)
(9.37293 1.94668 0)
(9.2727 2.17792 0)
(9.16641 2.42717 0)
(9.05429 2.69632 0)
(8.93657 2.9875 0)
(8.81344 3.30316 0)
(8.68505 3.64619 0)
(8.55146 4.02008 0)
(8.41269 4.4292 0)
(8.26868 4.87919 0)
(8.11932 5.37748 0)
(7.9646 5.93423 0)
(7.80482 6.56379 0)
(7.64127 7.28719 0)
(7.47905 8.13704 0)
(7.33169 9.16729 0)
(7.28992 10.4716 0)
(7.75438 12.1949 0)
(7.95012 14.9141 0)
(9.99638 0.143459 0)
(9.98432 0.285199 0)
(9.96302 0.427413 0)
(9.93345 0.572101 0)
(9.89646 0.720956 0)
(9.85246 0.875536 0)
(9.80175 1.03735 0)
(9.74463 1.20787 0)
(9.68146 1.38856 0)
(9.6126 1.58086 0)
(9.53846 1.78626 0)
(9.45943 2.00628 0)
(9.37597 2.24252 0)
(9.28854 2.49671 0)
(9.19767 2.77074 0)
(9.10394 3.0667 0)
(9.008 3.38701 0)
(8.9106 3.73451 0)
(8.81266 4.11265 0)
(8.71536 4.52568 0)
(8.62031 4.97898 0)
(8.52991 5.47958 0)
(8.44788 6.03675 0)
(8.38052 6.66306 0)
(8.33907 7.37565 0)
(8.34571 8.19785 0)
(8.43951 9.15962 0)
(8.67662 10.2939 0)
(9.32625 11.5443 0)
(9.82127 12.6222 0)
(9.99688 0.1479 0)
(9.98649 0.29402 0)
(9.96815 0.440578 0)
(9.94276 0.589591 0)
(9.9111 0.742755 0)
(9.87361 0.901624 0)
(9.83063 1.06769 0)
(9.78253 1.24242 0)
(9.72973 1.42724 0)
(9.67272 1.62357 0)
(9.61199 1.83286 0)
(9.54809 2.05659 0)
(9.48165 2.2963 0)
(9.41336 2.55365 0)
(9.34401 2.83044 0)
(9.27454 3.12866 0)
(9.20603 3.45056 0)
(9.13982 3.79878 0)
(9.0776 4.17643 0)
(9.02158 4.58724 0)
(8.97479 5.0358 0)
(8.94151 5.52776 0)
(8.92804 6.07005 0)
(8.9439 6.67103 0)
(9.00361 7.34003 0)
(9.12931 8.08556 0)
(9.35199 8.90923 0)
(9.68094 9.79945 0)
(10.2452 10.7041 0)
(10.9303 11.4114 0)
(9.9974 0.151766 0)
(9.98872 0.301691 0)
(9.97343 0.451999 0)
(9.95232 0.60471 0)
(9.92612 0.761513 0)
(9.89528 0.923944 0)
(9.86018 1.09347 0)
(9.82126 1.27153 0)
(9.77901 1.45951 0)
(9.73399 1.65878 0)
(9.6868 1.87073 0)
(9.63815 2.09676 0)
(9.58881 2.33832 0)
(9.53969 2.59695 0)
(9.49181 2.8743 0)
(9.44642 3.17217 0)
(9.40501 3.49255 0)
(9.36938 3.83769 0)
(9.34185 4.21016 0)
(9.32537 4.61291 0)
(9.32387 5.04934 0)
(9.34266 5.52324 0)
(9.38895 6.03872 0)
(9.47265 6.59967 0)
(9.60692 7.20881 0)
(9.80852 7.86566 0)
(10.1001 8.56297 0)
(10.4901 9.28588 0)
(11.0448 10.0241 0)
(11.8337 10.6645 0)
(9.99792 0.155011 0)
(9.99099 0.30812 0)
(9.9788 0.461542 0)
(9.96205 0.617283 0)
(9.94139 0.777012 0)
(9.91728 0.942237 0)
(9.89016 1.11439 0)
(9.86049 1.29486 0)
(9.82885 1.48498 0)
(9.79586 1.68605 0)
(9.76223 1.89937 0)
(9.72877 2.12624 0)
(9.6964 2.368 0)
(9.66619 2.62601 0)
(9.6394 2.90172 0)
(9.6175 3.19666 0)
(9.60227 3.51247 0)
(9.59587 3.85092 0)
(9.60101 4.21392 0)
(9.62105 4.6035 0)
(9.66031 5.02174 0)
(9.72429 5.47064 0)
(9.82005 5.95178 0)
(9.95652 6.46581 0)
(10.1447 7.0116 0)
(10.3975 7.58523 0)
(10.7323 8.17852 0)
(11.1603 8.77676 0)
(11.7045 9.3684 0)
(12.4528 9.8787 0)
(9.99845 0.157589 0)
(9.99329 0.31322 0)
(9.98423 0.469079 0)
(9.97187 0.627143 0)
(9.95678 0.789047 0)
(9.93944 0.95626 0)
(9.9203 1.13017 0)
(9.89989 1.31209 0)
(9.87881 1.5033 0)
(9.85776 1.705 0)
(9.83754 1.9184 0)
(9.81903 2.14467 0)
(9.80328 2.38497 0)
(9.79149 2.64049 0)
(9.78505 2.91243 0)
(9.78562 3.202 0)
(9.79516 3.51044 0)
(9.81602 3.83899 0)
(9.85107 4.18886 0)
(9.90377 4.56116 0)
(9.9784 4.95678 0)
(10.0802 5.37618 0)
(10.2154 5.81907 0)
(10.3915 6.28398 0)
(10.6174 6.76763 0)
(10.9025 7.26425 0)
(11.2582 7.7646 0)
(11.6921 8.25317 0)
(12.2049 8.71332 0)
(12.8759 9.10366 0)
(9.99898 0.159464 0)
(9.99559 0.316916 0)
(9.98967 0.474498 0)
(9.98169 0.634141 0)
(9.97217 0.797438 0)
(9.96156 0.965805 0)
(9.95035 1.14057 0)
(9.93909 1.32297 0)
(9.92843 1.5142 0)
(9.91911 1.71537 0)
(9.91199 1.92755 0)
(9.90802 2.15177 0)
(9.90833 2.38903 0)
(9.91418 2.64028 0)
(9.92708 2.90646 0)
(9.94875 3.18844 0)
(9.98123 3.48704 0)
(10.0269 3.80298 0)
(10.0886 4.13681 0)
(10.1697 4.48881 0)
(10.274 4.85889 0)
(10.4062 5.24633 0)
(10.5716 5.64955 0)
(10.776 6.06574 0)
(11.0259 6.49041 0)
(11.3274 6.91688 0)
(11.6868 7.33584 0)
(12.108 7.73391 0)
(12.5849 8.09663 0)
(13.1861 8.40361 0)
(9.99951 0.1606 0)
(9.99787 0.319141 0)
(9.99507 0.4777 0)
(9.99144 0.638153 0)
(9.98742 0.802034 0)
(9.98345 0.970698 0)
(9.98003 1.1454 0)
(9.97774 1.3273 0)
(9.97724 1.51748 0)
(9.97932 1.71696 0)
(9.98485 1.92666 0)
(9.99483 2.14746 0)
(10.0104 2.38015 0)
(10.0329 2.62548 0)
(10.0639 2.8841 0)
(10.105 3.15655 0)
(10.1583 3.44325 0)
(10.226 3.74443 0)
(10.3109 4.06007 0)
(10.4158 4.38979 0)
(10.5444 4.73273 0)
(10.7002 5.08736 0)
(10.8875 5.45129 0)
(11.1105 5.82101 0)
(11.3736 6.19164 0)
(11.6803 6.55664 0)
(12.0336 6.90778 0)
(12.4348 7.23479 0)
(12.8764 7.52665 0)
(13.416 7.77214 0)
(10 0.16097 0)
(10.0001 0.319839 0)
(10.0004 0.478606 0)
(10.001 0.639076 0)
(10.0024 0.802717 0)
(10.0049 0.97081 0)
(10.0091 1.14453 0)
(10.0155 1.32494 0)
(10.0248 1.51303 0)
(10.0378 1.70969 0)
(10.0554 1.91569 0)
(10.0786 2.13176 0)
(10.1085 2.3585 0)
(10.1465 2.59642 0)
(10.194 2.84591 0)
(10.2527 3.10722 0)
(10.3244 3.38038 0)
(10.4114 3.66523 0)
(10.5158 3.96127 0)
(10.6404 4.26762 0)
(10.7878 4.5829 0)
(10.9612 4.90509 0)
(11.1634 5.23141 0)
(11.3975 5.55817 0)
(11.6659 5.88063 0)
(11.9705 6.19298 0)
(12.3121 6.48838 0)
(12.6905 6.75907 0)
(13.0979 6.99677 0)
(13.5828 7.19472 0)
(10.0005 0.160552 0)
(10.0023 0.318968 0)
(10.0056 0.477156 0)
(10.0103 0.636837 0)
(10.0169 0.799402 0)
(10.0257 0.966054 0)
(10.0372 1.13787 0)
(10.052 1.31584 0)
(10.0707 1.50082 0)
(10.094 1.69357 0)
(10.123 1.89474 0)
(10.1585 2.10488 0)
(10.2017 2.32441 0)
(10.2538 2.55363 0)
(10.3163 2.79269 0)
(10.3905 3.04155 0)
(10.4783 3.29997 0)
(10.5815 3.56743 0)
(10.7021 3.8431 0)
(10.8422 4.12576 0)
(11.0039 4.41372 0)
(11.1895 4.70473 0)
(11.4011 4.99593 0)
(11.6402 5.28375 0)
(11.9084 5.56393 0)
(12.2061 5.83151 0)
(12.533 6.081 0)
(12.8876 6.30656 0)
(13.263 6.5022 0)
(13.7006 6.6638 0)
(10.001 0.159331 0)
(10.0044 0.316499 0)
(10.0106 0.473309 0)
(10.0194 0.631389 0)
(10.031 0.792044 0)
(10.0458 0.956391 0)
(10.0642 1.12542 0)
(10.0869 1.3 0)
(10.1144 1.48089 0)
(10.1475 1.66872 0)
(10.187 1.86401 0)
(10.2339 2.06714 0)
(10.2892 2.27838 0)
(10.354 2.49781 0)
(10.4296 2.72539 0)
(10.5174 2.96085 0)
(10.6189 3.2037 0)
(10.7355 3.4532 0)
(10.869 3.70828 0)
(11.0209 3.96753 0)
(11.1929 4.22911 0)
(11.3864 4.49075 0)
(11.6027 4.7497 0)
(11.8427 5.00271 0)
(12.1068 5.24608 0)
(12.3946 5.47576 0)
(12.7052 5.68743 0)
(13.0366 5.87678 0)
(13.3827 6.03961 0)
(13.7799 6.17343 0)
(10.0015 0.157299 0)
(10.0065 0.312418 0)
(10.0153 0.467048 0)
(10.028 0.622715 0)
(10.0444 0.780634 0)
(10.0649 0.94183 0)
(10.0899 1.1072 0)
(10.12 1.2775 0)
(10.1558 1.45339 0)
(10.1978 1.63537 0)
(10.247 1.82383 0)
(10.3042 2.01901 0)
(10.3703 2.22102 0)
(10.4463 2.42979 0)
(10.5334 2.64509 0)
(10.6327 2.86649 0)
(10.7455 3.09333 0)
(10.8729 3.3247 0)
(11.0163 3.5594 0)
(11.1768 3.79595 0)
(11.3555 4.0325 0)
(11.5534 4.26688 0)
(11.771 4.49657 0)
(12.0086 4.71873 0)
(12.2661 4.93027 0)
(12.5425 5.12792 0)
(12.8365 5.3084 0)
(13.146 5.46857 0)
(13.4657 5.60553 0)
(13.828 5.71779 0)
(10.0019 0.154455 0)
(10.0084 0.306723 0)
(10.0199 0.458375 0)
(10.0361 0.610827 0)
(10.057 0.7652 0)
(10.0829 0.922424 0)
(10.114 1.08329 0)
(10.151 1.24848 0)
(10.1944 1.41852 0)
(10.2446 1.5938 0)
(10.3026 1.7746 0)
(10.3689 1.96102 0)
(10.4446 2.15305 0)
(10.5303 2.35049 0)
(10.6271 2.55296 0)
(10.736 2.75992 0)
(10.8579 2.9706 0)
(10.9937 3.18399 0)
(11.1444 3.39886 0)
(11.3107 3.61373 0)
(11.4933 3.82683 0)
(11.6927 4.03618 0)
(11.909 4.23956 0)
(12.1421 4.43454 0)
(12.3912 4.61861 0)
(12.6554 4.7892 0)
(12.9331 4.94384 0)
(13.2223 5.08029 0)
(13.5185 5.19656 0)
(13.8507 5.2918 0)
(10.0024 0.150805 0)
(10.0102 0.299428 0)
(10.0241 0.447313 0)
(10.0437 0.595765 0)
(10.0688 0.745805 0)
(10.0997 0.89827 0)
(10.1365 1.05386 0)
(10.1798 1.21314 0)
(10.23 1.37655 0)
(10.2876 1.54439 0)
(10.3534 1.7168 0)
(10.4278 1.89381 0)
(10.5117 2.07527 0)
(10.6057 2.26089 0)
(10.7106 2.45021 0)
(10.8272 2.64259 0)
(10.9562 2.8372 0)
(11.0982 3.03303 0)
(11.2539 3.22884 0)
(11.4237 3.42323 0)
(11.6079 3.61459 0)
(11.8067 3.80114 0)
(12.0198 3.98097 0)
(12.2467 4.15208 0)
(12.4867 4.31245 0)
(12.7385 4.46011 0)
(13.0006 4.59322 0)
(13.2711 4.71018 0)
(13.5463 4.80968 0)
(13.8525 4.89128 0)
(10.0027 0.146361 0)
(10.0119 0.290558 0)
(10.0281 0.433906 0)
(10.0508 0.577594 0)
(10.0798 0.722546 0)
(10.1151 0.869505 0)
(10.1571 1.01908 0)
(10.2061 1.17174 0)
(10.2625 1.32784 0)
(10.3267 1.48756 0)
(10.3992 1.65099 0)
(10.4807 1.81805 0)
(10.5715 1.98851 0)
(10.6724 2.16201 0)
(10.7839 2.33803 0)
(10.9065 2.51588 0)
(11.0408 2.69474 0)
(11.1871 2.87359 0)
(11.3459 3.05127 0)
(11.5172 3.22649 0)
(11.7012 3.39781 0)
(11.8977 3.56369 0)
(12.1062 3.72252 0)
(12.3261 3.87269 0)
(12.5565 4.01259 0)
(12.7961 4.14072 0)
(13.0435 4.25574 0)
(13.297 4.35654 0)
(13.5534 4.44226 0)
(13.8369 4.51272 0)
(10.0031 0.141141 0)
(10.0134 0.280151 0)
(10.0317 0.418215 0)
(10.0573 0.556405 0)
(10.0898 0.695549 0)
(10.1292 0.8363 0)
(10.1759 0.979176 0)
(10.2299 1.12457 0)
(10.2918 1.27273 0)
(10.3617 1.4238 0)
(10.4401 1.57775 0)
(10.5275 1.73445 0)
(10.6241 1.89361 0)
(10.7306 2.05484 0)
(10.8472 2.21757 0)
(10.9743 2.38111 0)
(11.1123 2.54466 0)
(11.2613 2.70725 0)
(11.4215 2.86782 0)
(11.5929 3.02521 0)
(11.7753 3.17815 0)
(11.9682 3.32535 0)
(12.1712 3.46549 0)
(12.3836 3.59725 0)
(12.6043 3.7194 0)
(12.8321 3.83082 0)
(13.0658 3.93053 0)
(13.3038 4.01778 0)
(13.5435 4.09201 0)
(13.8071 4.15322 0)
(10.0034 0.13517 0)
(10.0148 0.268256 0)
(10.035 0.400315 0)
(10.0632 0.532307 0)
(10.0988 0.664964 0)
(10.142 0.798853 0)
(10.1927 0.934412 0)
(10.2513 1.07195 0)
(10.3178 1.21166 0)
(10.3927 1.35359 0)
(10.4761 1.49767 0)
(10.5683 1.64373 0)
(10.6697 1.79143 0)
(10.7805 1.94035 0)
(10.9009 2.08993 0)
(11.0313 2.2395 0)
(11.1716 2.38829 0)
(11.322 2.53541 0)
(11.4824 2.67992 0)