/*--------------------------------*- C++ -*----------------------------------*\
  =========                 |
  \\      /  F ield         | OpenFOAM: The Open Source CFD Toolbox
   \\    /   O peration     | Website:  https://openfoam.org
    \\  /    A nd           | Version:  7
     \\/     M anipulation  |
\*---------------------------------------------------------------------------*/
FoamFile
{
    version     2.0;
    format      ascii;
    class       surfaceVectorField;
    location    "2";
    object      Uf;
}
// * * * * * * * * * * * * * * * * * * * * * * * * * * * * * * * * * * * * * //

dimensions      [0 1 -1 0 0 0 0];

internalField   nonuniform List<vector> 
5457
(
(9.92088 0.0251115 0)
(9.97124 0.0387484 0)
(9.824 0.03283 0)
(9.92858 0.0485903 0)
(9.70958 0.0393166 0)
(9.85545 0.0587759 0)
(9.57539 0.0460176 0)
(9.75676 0.0706037 0)
(9.4213 0.0529564 0)
(9.63747 0.0830266 0)
(9.24744 0.0601753 0)
(9.49852 0.0959526 0)
(9.05348 0.0678218 0)
(9.33918 0.109632 0)
(8.83875 0.0760471 0)
(9.15859 0.124311 0)
(8.6023 0.0849846 0)
(8.9559 0.140192 0)
(8.343 0.094761 0)
(8.73014 0.157461 0)
(8.05953 0.105505 0)
(8.48011 0.176301 0)
(7.75044 0.117347 0)
(8.20443 0.19689 0)
(7.41415 0.130416 0)
(7.90155 0.219396 0)
(7.04904 0.144832 0)
(7.56986 0.243958 0)
(6.65352 0.160694 0)
(7.20769 0.270668 0)
(6.22616 0.178066 0)
(6.81345 0.299534 0)
(5.76583 0.196949 0)
(6.38574 0.330445 0)
(5.27195 0.217252 0)
(5.92354 0.36311 0)
(4.74473 0.238751 0)
(5.42645 0.396996 0)
(4.18554 0.261043 0)
(4.89498 0.431248 0)
(3.59732 0.283493 0)
(4.33096 0.464621 0)
(2.98492 0.305199 0)
(3.73794 0.495414 0)
(2.35552 0.325055 0)
(3.12163 0.521487 0)
(1.71856 0.342514 0)
(2.49047 0.540513 0)
(1.08389 0.361801 0)
(1.85532 0.551601 0)
(0.451527 0.348445 0)
(1.24501 0.562884 0)
(-0.145742 0.102412 0)
(0.608569 0.544509 0)
(-0.423344 -0.20665 0)
(0.094745 0.259203 0)
(-0.401869 -0.360684 0)
(-0.133885 -0.020537 0)
(-0.119481 -0.393606 0)
(9.9964 0.0516783 0)
(9.99705 0.0405099 0)
(9.95877 0.0708712 0)
(9.9785 0.0674649 0)
(9.89821 0.0880004 0)
(9.93375 0.0898856 0)
(9.81653 0.106002 0)
(9.86449 0.113576 0)
(9.71351 0.124943 0)
(9.77432 0.138541 0)
(9.58898 0.14488 0)
(9.66426 0.164679 0)
(9.4426 0.166121 0)
(9.53385 0.192371 0)
(9.27372 0.189003 0)
(9.38234 0.222076 0)
(9.08144 0.213823 0)
(9.20899 0.2542 0)
(8.86463 0.24086 0)
(9.01292 0.289122 0)
(8.62198 0.270385 0)
(8.79302 0.327216 0)
(8.35201 0.302658 0)
(8.54802 0.368854 0)
(8.05312 0.33791 0)
(8.27644 0.414388 0)
(7.72363 0.376315 0)
(7.97672 0.464119 0)
(7.36183 0.417953 0)
(7.64722 0.518262 0)
(6.96613 0.462755 0)
(7.28628 0.576876 0)
(6.5352 0.510428 0)
(6.89236 0.639789 0)
(6.06816 0.560366 0)
(6.46419 0.706482 0)
(5.5649 0.611542 0)
(6.00094 0.77595 0)
(5.0264 0.662392 0)
(5.50259 0.846548 0)
(4.45518 0.710698 0)
(4.97021 0.915809 0)
(3.85581 0.753509 0)
(4.40651 0.980283 0)
(3.23555 0.78714 0)
(3.8164 1.0354 0)
(2.60523 0.807411 0)
(3.20786 1.07539 0)
(1.98229 0.810323 0)
(2.59285 1.093 0)
(1.40488 0.776658 0)
(1.99572 1.07686 0)
(0.929276 0.646086 0)
(1.41909 0.9781 0)
(0.439396 0.383861 0)
(0.937219 0.716614 0)
(0.0589876 -0.118863 0)
(0.443337 0.34325 0)
(0.174824 -0.335831 0)
(9.98902 0.0594407 0)
(9.99481 0.0458854 0)
(9.95432 0.0894928 0)
(9.97367 0.0848698 0)
(9.89726 0.118055 0)
(9.92982 0.119197 0)
(9.82041 0.147928 0)
(9.86353 0.154007 0)
(9.72409 0.179459 0)
(9.7773 0.190448 0)
(9.60811 0.21282 0)
(9.67218 0.228685 0)
(9.47221 0.248445 0)
(9.54798 0.269186 0)
(9.3159 0.286834 0)
(9.40416 0.312563 0)
(9.13847 0.328465 0)
(9.24015 0.359401 0)
(8.93899 0.373797 0)
(9.05525 0.410258 0)
(8.71634 0.423287 0)
(8.84861 0.46569 0)
(8.46924 0.477381 0)
(8.61918 0.52625 0)
(8.19627 0.536486 0)
(8.36578 0.592474 0)
(7.89587 0.600929 0)
(8.08709 0.664841 0)
(7.56642 0.670895 0)
(7.78173 0.743719 0)
(7.20629 0.746335 0)
(7.44822 0.829286 0)
(6.81399 0.82685 0)
(7.08513 0.921406 0)
(6.38826 0.911537 0)
(6.69112 1.01948 0)
(5.9284 0.998793 0)
(6.26511 1.12223 0)
(5.4345 1.08611 0)
(5.8065 1.22745 0)
(4.90791 1.16981 0)
(5.31546 1.33175 0)
(4.35181 1.24484 0)
(4.79337 1.43015 0)
(3.772 1.30446 0)
(4.24339 1.5158 0)
(3.17818 1.3397 0)
(3.67127 1.57929 0)
(2.58614 1.33792 0)
(3.08583 1.60755 0)
(2.01943 1.2727 0)
(2.50248 1.58132 0)
(1.48653 1.09512 0)
(1.92835 1.46392 0)
(0.958027 0.768947 0)
(1.38491 1.21009 0)
(0.479614 0.202311 0)
(0.829307 0.800759 0)
(0.433498 0.133921 0)
(9.98515 0.0716277 0)
(9.99367 0.0531585 0)
(9.95037 0.113653 0)
(9.97086 0.102312 0)
(9.89433 0.154165 0)
(9.92688 0.147985 0)
(9.81877 0.195614 0)
(9.86181 0.193763 0)
(9.72434 0.238862 0)
(9.7774 0.24133 0)
(9.61102 0.284386 0)
(9.67458 0.291228 0)
(9.4786 0.332792 0)
(9.55331 0.344032 0)
(9.32677 0.384756 0)
(9.4132 0.40046 0)
(9.15501 0.440939 0)
(9.2538 0.461239 0)
(8.96265 0.501984 0)
(9.0746 0.527071 0)
(8.74886 0.568536 0)
(8.87491 0.598655 0)
(8.51269 0.641226 0)
(8.65396 0.676689 0)
(8.25306 0.720647 0)
(8.41084 0.761852 0)
(7.96881 0.807306 0)
(8.14457 0.854769 0)
(7.65869 0.901549 0)
(7.85407 0.955948 0)
(7.3214 1.00345 0)
(7.53824 1.06569 0)
(6.95566 1.11266 0)
(7.19592 1.18395 0)
(6.56027 1.22821 0)
(6.82596 1.31017 0)
(6.1343 1.34821 0)
(6.42731 1.44298 0)
(5.67725 1.46961 0)
(5.99908 1.57993 0)
(5.18941 1.58775 0)
(5.54076 1.71707 0)
(4.6723 1.69596 0)
(5.05249 1.84848 0)
(4.12927 1.78502 0)
(4.53543 1.96572 0)
(3.56616 1.84234 0)
(3.99224 2.05713 0)
(2.99161 1.85047 0)
(3.42715 2.1069 0)
(2.41545 1.78217 0)
(2.84724 2.09417 0)
(1.84021 1.60011 0)
(2.25589 1.98836 0)
(1.25914 1.2781 0)
(1.66003 1.75264 0)
(0.666621 0.789269 0)
(1.02378 1.36738 0)
(0.522908 0.786836 0)
(9.98337 0.0844252 0)
(9.99316 0.0613047 0)
(9.94819 0.136866 0)
(9.96957 0.119953 0)
(9.89311 0.188073 0)
(9.92572 0.176279 0)
(9.81901 0.240222 0)
(9.86195 0.23275 0)
(9.72655 0.294533 0)
(9.77957 0.291153 0)
(9.61579 0.351738 0)
(9.6793 0.352354 0)
(9.48657 0.412562 0)
(9.56115 0.417072 0)
(9.3386 0.477781 0)
(9.4248 0.486118 0)
(9.17148 0.548167 0)
(9.26988 0.560328 0)
(8.98466 0.624482 0)
(9.09595 0.640523 0)
(8.77747 0.70748 0)
(8.90244 0.727515 0)
(8.54917 0.797906 0)
(8.68872 0.822111 0)
(8.29894 0.89647 0)
(8.45404 0.925101 0)
(8.02589 1.00379 0)
(8.19763 1.03722 0)
(7.72908 1.12034 0)
(7.91863 1.15907 0)
(7.40752 1.24629 0)
(7.61616 1.29107 0)
(7.06021 1.38138 0)
(7.28929 1.43327 0)
(6.68612 1.52467 0)
(6.93705 1.5852 0)
(6.28427 1.67424 0)
(6.55839 1.74557 0)
(5.85381 1.8268 0)
(6.15228 1.91191 0)
(5.39415 1.97722 0)
(5.71764 2.08014 0)
(4.90522 2.11796 0)
(5.25352 2.24401 0)
(4.38775 2.23845 0)
(4.75922 2.39447 0)
(3.84349 2.32432 0)
(4.23448 2.51898 0)
(3.27504 2.35665 0)
(3.67947 2.60095 0)
(2.68505 2.31022 0)
(3.09536 2.61934 0)
(2.07241 2.15459 0)
(2.48139 2.54689 0)
(1.42916 1.86697 0)
(1.83968 2.35325 0)
(0.742494 1.41917 0)
(1.13121 2.02405 0)
(0.543208 1.51406 0)
(9.98263 0.0975195 0)
(9.99299 0.0698089 0)
(9.94742 0.159811 0)
(9.96924 0.137615 0)
(9.89351 0.221398 0)
(9.92594 0.203974 0)
(9.82128 0.284157 0)
(9.86376 0.270751 0)
(9.73126 0.349428 0)
(9.78379 0.339662 0)
(9.62355 0.418115 0)
(9.68655 0.411794 0)
(9.49804 0.49105 0)
(9.57205 0.488017 0)
(9.35446 0.569102 0)
(9.44004 0.569236 0)
(9.19246 0.653147 0)
(9.29021 0.656383 0)
(9.01155 0.744053 0)
(9.12216 0.750378 0)
(8.81118 0.842682 0)
(8.9354 0.852134 0)
(8.5907 0.949882 0)
(8.72936 0.962553 0)
(8.34942 1.06646 0)
(8.50339 1.08251 0)
(8.08658 1.19313 0)
(8.25681 1.21284 0)
(7.8014 1.33047 0)
(7.98885 1.35423 0)
(7.49304 1.47874 0)
(7.69873 1.5072 0)
(7.1606 1.63781 0)
(7.38557 1.67191 0)
(6.80312 1.80684 0)
(7.0484 1.84803 0)
(6.4195 1.98402 0)
(6.68612 2.03443 0)
(6.00853 2.16614 0)
(6.29738 2.22886 0)
(5.56883 2.34805 0)
(5.88058 2.42745 0)
(5.09893 2.52209 0)
(5.43376 2.62416 0)
(4.59726 2.67737 0)
(4.95458 2.81012 0)
(4.06227 2.79922 0)
(4.44038 2.97297 0)
(3.49233 2.86876 0)
(3.88811 3.09629 0)
(2.88552 2.8625 0)
(3.2949 3.15948 0)
(2.23777 2.75345 0)
(2.65663 3.13742 0)
(1.54226 2.52052 0)
(1.97464 3.00266 0)
(0.793555 2.13084 0)
(1.20712 2.74005 0)
(0.556659 2.2913 0)
(9.9825 0.110652 0)
(9.99301 0.0783804 0)
(9.94769 0.182367 0)
(9.96953 0.155074 0)
(9.89519 0.253877 0)
(9.9272 0.230941 0)
(9.82518 0.326845 0)
(9.86692 0.307583 0)
(9.73805 0.402651 0)
(9.78971 0.386616 0)
(9.63392 0.482349 0)
(9.69595 0.469262 0)
(9.5127 0.566891 0)
(9.58565 0.556533 0)
(9.37418 0.657245 0)
(9.45862 0.649427 0)
(9.21803 0.754384 0)
(9.31458 0.748964 0)
(9.04384 0.859271 0)
(9.15318 0.856157 0)
(8.85109 0.972861 0)
(8.974 0.972011 0)
(8.63921 1.09609 0)
(8.77651 1.09752 0)
(8.40756 1.22985 0)
(8.56013 1.23364 0)
(8.15543 1.37496 0)
(8.32418 1.3813 0)
(7.88208 1.53206 0)
(8.06796 1.5413 0)
(7.58666 1.70155 0)
(7.79064 1.71425 0)
(7.26826 1.88344 0)
(7.4913 1.90048 0)
(6.92577 2.07707 0)
(7.16886 2.09983 0)
(6.55786 2.28091 0)
(6.82196 2.31147 0)
(6.16283 2.49205 0)
(6.4489 2.53351 0)
(5.73852 2.70576 0)
(6.04743 2.7626 0)
(5.28217 2.91484 0)
(5.61462 2.99333 0)
(4.79033 3.10892 0)
(5.14667 3.21763 0)
(4.25886 3.27388 0)
(4.63889 3.42396 0)
(3.68303 3.39145 0)
(4.08564 3.59675 0)
(3.05776 3.4392 0)
(3.48099 3.71606 0)
(2.37752 3.39125 0)
(2.81812 3.75757 0)
(1.63776 3.22559 0)
(2.09898 3.69338 0)
(0.839056 2.90027 0)
(1.27883 3.50385 0)
(0.5733 3.1131 0)
(9.98273 0.123612 0)
(9.99316 0.0868394 0)
(9.94871 0.20436 0)
(9.97025 0.172136 0)
(9.89791 0.285322 0)
(9.92924 0.25704 0)
(9.83045 0.368056 0)
(9.87119 0.343074 0)
(9.74662 0.453964 0)
(9.79708 0.431788 0)
(9.64656 0.544212 0)
(9.70724 0.524484 0)
(9.53022 0.639865 0)
(9.60166 0.622293 0)
(9.39741 0.74198 0)
(9.48019 0.726308 0)
(9.24787 0.851616 0)
(9.34262 0.837631 0)
(9.08121 0.969826 0)
(9.18864 0.95736 0)
(8.89699 1.09765 0)
(9.01788 1.08659 0)
(8.69466 1.23613 0)
(8.82987 1.2264 0)
(8.47363 1.38623 0)
(8.62406 1.37785 0)
(8.2332 1.54887 0)
(8.39981 1.54195 0)
(7.97261 1.72483 0)
(8.1564 1.71963 0)
(7.69095 1.91464 0)
(7.89296 1.91166 0)
(7.38715 2.11851 0)
(7.60848 2.11855 0)
(7.0599 2.33607 0)
(7.30166 2.34044 0)
(6.70748 2.56617 0)
(6.97087 2.57684 0)
(6.32765 2.80646 0)
(6.61394 2.82644 0)
(5.91742 3.05294 0)
(6.22796 3.08662 0)
(5.47283 3.29933 0)
(5.80904 3.353 0)
(4.98876 3.53636 0)
(5.35202 3.6187 0)
(4.45887 3.75102 0)
(4.85033 3.87361 0)
(3.87585 3.92599 0)
(4.29598 4.10346 0)
(3.23205 4.0393 0)
(3.68022 4.28912 0)
(2.52064 4.06438 0)
(2.99328 4.40614 0)
(1.73826 3.97549 0)
(2.23723 4.42391 0)
(0.889416 3.71811 0)
(1.3633 4.31561 0)
(0.598711 3.98423 0)
(9.9832 0.136238 0)
(9.99339 0.0950655 0)
(9.9503 0.22563 0)
(9.9713 0.188639 0)
(9.90147 0.315578 0)
(9.9319 0.282123 0)
(9.83688 0.407608 0)
(9.87638 0.377059 0)
(9.75675 0.503143 0)
(9.80571 0.474966 0)
(9.66122 0.603433 0)
(9.72019 0.577203 0)
(9.55029 0.709642 0)
(9.6198 0.684996 0)
(9.42381 0.82291 0)
(9.50445 0.799527 0)
(9.28156 0.944379 0)
(9.37397 0.921973 0)
(9.12322 1.07519 0)
(9.22812 1.05351 0)
(8.94839 1.21646 0)
(9.06657 1.19532 0)
(8.75658 1.36933 0)
(8.88893 1.34858 0)
(8.54722 1.53487 0)
(8.69468 1.51443 0)
(8.31964 1.71412 0)
(8.48322 1.69402 0)
(8.07303 1.908 0)
(8.25383 1.8884 0)
(7.80641 2.11725 0)
(8.00562 2.09853 0)
(7.51855 2.34234 0)
(7.73746 2.32519 0)
(7.20787 2.58327 0)
(7.44788 2.56885 0)
(6.87229 2.83943 0)
(7.13498 2.82954 0)
(6.50897 3.10922 0)
(6.79613 3.10663 0)
(6.11411 3.38965 0)
(6.42782 3.39851 0)
(5.68261 3.67576 0)
(6.02523 3.70207 0)
(5.20776 3.95984 0)
(5.58195 4.01214 0)
(4.68113 4.23051 0)
(5.08959 4.3205 0)
(4.09278 4.47174 0)
(4.53766 4.61481 0)
(3.43213 4.66189 0)
(3.91423 4.87719 0)
(2.68987 4.77245 0)
(3.20536 5.08284 0)
(1.86169 4.77167 0)
(2.41108 5.19719 0)
(0.95411 4.589 0)
(1.47619 5.18353 0)
(0.639147 4.91872 0)
(9.98385 0.148409 0)
(9.99368 0.102972 0)
(9.95233 0.246037 0)
(9.97259 0.20445 0)
(9.90575 0.344492 0)
(9.93507 0.306054 0)
(9.84431 0.445319 0)
(9.88236 0.409383 0)
(9.76823 0.54996 0)
(9.81544 0.515959 0)
(9.67766 0.659738 0)
(9.73459 0.627186 0)
(9.57263 0.775898 0)
(9.63983 0.744366 0)
(9.45304 0.899658 0)
(9.53108 0.868757 0)
(9.31872 1.03224 0)
(9.40826 1.00161 0)
(9.16942 1.17485 0)
(9.27118 1.14418 0)
(9.00479 1.32871 0)
(9.11958 1.29771 0)
(8.82441 1.49504 0)
(8.95312 1.46348 0)
(8.62776 1.67504 0)
(8.77137 1.64273 0)
(8.41418 1.86987 0)
(8.57377 1.83672 0)
(8.18287 2.08063 0)
(8.35964 2.04669 0)
(7.93279 2.30832 0)
(8.12807 2.27381 0)
(7.66261 2.55371 0)
(7.87791 2.51914 0)
(7.37052 2.81732 0)
(7.60759 2.78359 0)
(7.05411 3.09916 0)
(7.31498 3.06779 0)
(6.71008 3.39859 0)
(6.99718 3.37196 0)
(6.33389 3.71389 0)
(6.65017 3.69565 0)
(5.9194 4.04178 0)
(6.26842 4.03739 0)
(5.4584 4.37661 0)
(5.8444 4.39409 0)
(4.94031 4.7093 0)
(5.36799 4.76014 0)
(4.3521 5.02584 0)
(4.82604 5.12602 0)
(3.67912 5.3054 0)
(4.2026 5.47623 0)
(2.9072 5.51735 0)
(3.4775 5.78658 0)
(2.02749 5.62218 0)
(2.64481 6.0186 0)
(1.04504 5.52865 0)
(1.63764 6.12306 0)
(0.704441 5.94227 0)
(9.98464 0.160026 0)
(9.99402 0.110494 0)
(9.95471 0.265456 0)
(9.97407 0.219463 0)
(9.91061 0.371926 0)
(9.93865 0.328707 0)
(9.8526 0.481021 0)
(9.88899 0.439904 0)
(9.7809 0.594215 0)
(9.8261 0.554595 0)
(9.69567 0.712885 0)
(9.75026 0.674223 0)
(9.59697 0.838348 0)
(9.6615 0.800153 0)
(9.48477 0.971891 0)
(9.55981 0.93371 0)
(9.35896 1.1148 0)
(9.44514 1.07621 0)
(9.21934 1.26837 0)
(9.3174 1.22896 0)
(9.06566 1.43388 0)
(9.1764 1.3933 0)
(8.89756 1.61266 0)
(9.02188 1.57056 0)
(8.71457 1.80602 0)
(8.85348 1.7621 0)
(8.51612 2.01527 0)
(8.67074 1.96932 0)
(8.30144 2.24172 0)
(8.47303 2.19361 0)
(8.06949 2.48662 0)
(8.25954 2.43638 0)
(7.8189 2.75115 0)
(8.02912 2.69903 0)
(7.54779 3.03635 0)
(7.78022 2.98292 0)
(7.25356 3.34304 0)
(7.51068 3.28935 0)
(6.93258 3.67163 0)
(7.2175 3.6195 0)
(6.57986 4.02195 0)
(6.89643 3.97425 0)
(6.18845 4.39276 0)
(6.54157 4.35403 0)
(5.74886 4.78108 0)
(6.14463 4.75831 0)
(5.24834 5.18103 0)
(5.69411 5.18488 0)
(4.67033 5.58198 0)
(5.17429 5.62837 0)
(3.99449 5.96563 0)
(4.56451 6.07783 0)
(3.19819 6.30076 0)
(3.83599 6.51254 0)
(2.26169 6.53976 0)
(2.9707 6.89302 0)
(1.18061 6.56426 0)
(1.87917 7.15691 0)
(0.812846 7.0986 0)
(9.98553 0.171013 0)
(9.9944 0.117582 0)
(9.95736 0.283782 0)
(9.97571 0.233589 0)
(9.91596 0.397753 0)
(9.94255 0.349974 0)
(9.86162 0.514565 0)
(9.89618 0.468494 0)
(9.79458 0.635726 0)
(9.83756 0.590721 0)
(9.71502 0.762659 0)
(9.767 0.718132 0)
(9.62304 0.896738 0)
(9.68458 0.852141 0)
(9.51868 1.03931 0)
(9.59032 0.994128 0)
(9.40188 1.19173 0)
(9.48426 1.14546 0)
(9.27252 1.35533 0)
(9.36635 1.30751 0)
(9.13044 1.5315 0)
(9.23652 1.48166 0)
(8.97536 1.72163 0)
(9.09458 1.66934 0)
(8.80694 1.92715 0)
(8.94029 1.87199 0)
(8.62466 2.14953 0)
(8.7733 2.09112 0)
(8.42786 2.39026 0)
(8.59311 2.32829 0)
(8.21561 2.65089 0)
(8.39901 2.58515 0)
(7.98659 2.93302 0)
(8.19002 2.86343 0)
(7.73899 3.23826 0)
(7.96472 3.16496 0)
(7.47024 3.56825 0)
(7.72113 3.49172 0)
(7.17671 3.92462 0)
(7.45638 3.84587 0)
(6.85328 4.30888 0)
(7.16644 4.22972 0)
(6.49268 4.72219 0)
(6.84549 4.64574 0)
(6.08465 5.16486 0)
(6.4852 5.09638 0)
(5.61475 5.63543 0)
(6.07357 5.58362 0)
(5.06291 6.12877 0)
(5.59312 6.10799 0)
(4.4018 6.6326 0)
(5.01898 6.6663 0)
(3.59598 7.12002 0)
(4.31227 7.24717 0)
(2.60438 7.53955 0)
(3.43572 7.8189 0)
(1.39443 7.73957 0)
(2.25672 8.314 0)
(1.00282 8.46436 0)
(9.9865 0.181308 0)
(9.9948 0.124195 0)
(9.96024 0.300924 0)
(9.97746 0.246757 0)
(9.92172 0.421864 0)
(9.94673 0.369763 0)
(9.87126 0.54582 0)
(9.90382 0.495043 0)
(9.80912 0.674335 0)
(9.84968 0.624204 0)
(9.73552 0.808871 0)
(9.78465 0.758753 0)
(9.65059 0.950847 0)
(9.70884 0.900142 0)
(9.55444 1.10166 0)
(9.62233 1.04979 0)
(9.44707 1.26271 0)
(9.52523 1.20912 0)
(9.32847 1.43539 0)
(9.41758 1.37953 0)
(9.19855 1.62115 0)
(9.29939 1.56247 0)
(9.05716 1.82144 0)
(9.17058 1.7594 0)
(8.90405 2.03782 0)
(9.03105 1.97187 0)
(8.73888 2.27186 0)
(8.88057 2.20148 0)
(8.56111 2.52529 0)
(8.71883 2.44994 0)
(8.36999 2.7999 0)
(8.54531 2.71911 0)
(8.16441 3.09767 0)
(8.35926 3.011 0)
(7.9428 3.42081 0)
(8.15957 3.32789 0)
(7.70288 3.77176 0)
(7.94461 3.67238 0)
(7.44136 4.15335 0)
(7.71202 4.04755 0)
(7.15352 4.56883 0)
(7.45837 4.45708 0)
(6.83249 5.02195 0)
(7.17866 4.90545 0)
(6.46823 5.51684 0)
(6.86552 5.39819 0)
(6.04589 6.05764 0)
(6.5079 5.94202 0)
(5.54323 6.64743 0)
(6.08889 6.54485 0)
(4.92662 7.28551 0)
(5.58235 7.21517 0)
(4.14497 7.95993 0)
(4.94224 7.95978 0)
(3.1221 8.63231 0)
(4.1096 8.77397 0)
(1.75668 9.12707 0)
(2.87919 9.61975 0)
(1.36534 10.1849 0)
(9.98753 0.19086 0)
(9.99522 0.130303 0)
(9.9633 0.316808 0)
(9.97931 0.258909 0)
(9.92781 0.444166 0)
(9.95112 0.387996 0)
(9.8814 0.574677 0)
(9.91182 0.519458 0)
(9.82437 0.709915 0)
(9.86234 0.654936 0)
(9.75696 0.851372 0)
(9.80303 0.795957 0)
(9.67936 1.0005 0)
(9.73406 0.944004 0)
(9.59172 1.15874 0)
(9.65556 1.10053 0)
(9.49414 1.32752 0)
(9.56771 1.26697 0)
(9.38669 1.50828 0)
(9.47065 1.44478 0)
(9.26939 1.7025 0)
(9.36446 1.63542 0)
(9.14221 1.91172 0)
(9.24922 1.84041 0)
(9.00506 2.13755 0)
(9.12494 2.06135 0)
(8.85776 2.3817 0)
(8.99159 2.29991 0)
(8.69998 2.64602 0)
(8.84905 2.55791 0)
(8.53124 2.93257 0)
(8.69706 2.83738 0)
(8.35074 3.24366 0)
(8.5352 3.14057 0)
(8.15733 3.58196 0)
(8.36278 3.47008 0)
(7.94928 3.95065 0)
(8.17875 3.82904 0)
(7.72405 4.35362 0)
(7.98152 4.22125 0)
(7.47791 4.79572 0)
(7.76876 4.6515 0)
(7.20531 5.28314 0)
(7.53697 5.12597 0)
(6.89789 5.82386 0)
(7.28096 5.65289 0)
(6.54273 6.42826 0)
(6.99277 6.2434 0)
(6.11912 7.10978 0)
(6.65971 6.91303 0)
(5.59234 7.88565 0)
(6.26128 7.68407 0)
(4.90088 8.77586 0)
(5.75712 8.59015 0)
(3.92764 9.79989 0)
(5.08794 9.68271 0)
(2.43437 10.8563 0)
(3.98131 11.0478 0)
(2.14794 12.5692 0)
(9.98861 0.19963 0)
(9.99567 0.135882 0)
(9.9665 0.331373 0)
(9.98122 0.269999 0)
(9.93415 0.464577 0)
(9.95567 0.404612 0)
(9.89194 0.601029 0)
(9.9201 0.541666 0)
(9.84018 0.742327 0)
(9.87542 0.682827 0)
(9.77915 0.889987 0)
(9.82201 0.82964 0)
(9.70908 1.04549 0)
(9.76008 0.983607 0)
(9.6302 1.21029 0)
(9.68982 1.1462 0)
(9.54267 1.38584 0)
(9.6115 1.31887 0)
(9.44668 1.57362 0)
(9.52532 1.50308 0)
(9.34234 1.77512 0)
(9.4315 1.70031 0)
(9.22978 1.99193 0)
(9.33023 1.91211 0)
(9.10907 2.22571 0)
(9.2217 2.1401 0)
(8.98022 2.47824 0)
(9.10605 2.386 0)
(8.84318 2.7515 0)
(8.9834 2.6517 0)
(8.69776 3.0477 0)
(8.85382 2.9393 0)
(8.54361 3.36939 0)
(8.71726 3.25122 0)
(8.38014 3.71959 0)
(8.57357 3.59027 0)
(8.2064 4.10201 0)
(8.42242 3.95987 0)
(8.02094 4.5213 0)
(8.26324 4.36428 0)
(7.82159 4.98349 0)
(8.09515 4.80896 0)
(7.60508 5.49662 0)
(7.91679 5.30112 0)
(7.36642 6.07174 0)
(7.72621 5.85063 0)
(7.09773 6.72451 0)
(7.52059 6.47141 0)
(6.78592 7.47814 0)
(7.29575 7.18402 0)
(6.40754 8.36946 0)
(7.04632 8.02089 0)
(5.91567 9.46308 0)
(6.7623 9.03857 0)
(5.19778 10.9058 0)
(6.46306 10.353 0)
(3.88774 13.1795 0)
(6.19483 12.3006 0)
(5.27063 16.377 0)
(0.318982 -0.216606 0)
(0.175182 -0.312423 0)
(0.607749 -0.181208 0)
(0.420269 -0.27615 0)
(0.856111 -0.14905 0)
(0.668427 -0.2319 0)
(1.0708 -0.123942 0)
(0.891616 -0.195726 0)
(1.2585 -0.104318 0)
(1.08437 -0.167077 0)
(1.424 -0.0885828 0)
(1.25229 -0.143839 0)
(1.57091 -0.0756896 0)
(1.401 -0.124664 0)
(1.70191 -0.0648438 0)
(1.53403 -0.108536 0)
(1.81861 -0.0553528 0)
(1.65339 -0.0944131 0)
(1.92152 -0.0467207 0)
(1.76009 -0.0812802 0)
(2.01048 -0.0388005 0)
(1.85423 -0.0686108 0)
(2.08585 -0.0316719 0)
(1.9354 -0.0567519 0)
(2.14868 -0.025279 0)
(2.00387 -0.0461917 0)
(2.19932 -0.0193105 0)
(2.06121 -0.0363497 0)
(2.23636 -0.0135124 0)
(2.10795 -0.0259651 0)
(2.2597 -0.00731875 0)
(2.14223 -0.0159696 0)
(2.27213 3.08883e-05 0)
(2.16493 -0.00830579 0)
(2.2761 0.00645482 0)
(2.1786 -0.00259485 0)
(2.27269 0.0085946 0)
(2.17591 0.00217609 0)
(2.26554 0.00550678 0)
(2.15591 0.00444838 0)
(2.26134 -0.00207049 0)
(2.12151 0.00254677 0)
(2.26447 -0.0122161 0)
(2.0786 -0.00185537 0)
(2.27646 -0.0223121 0)
(2.03349 -0.00693926 0)
(2.29596 -0.02986 0)
(1.99185 -0.0110212 0)
(2.32037 -0.0333442 0)
(1.95877 -0.0134727 0)
(2.34866 -0.0330624 0)
(1.93919 -0.0152456 0)
(2.38298 -0.0311121 0)
(1.93839 -0.0180539 0)
(2.42833 -0.0292996 0)
(1.9522 -0.0232954 0)
(2.49062 -0.0273468 0)
(1.98853 -0.0312466 0)
(2.07985 -0.0398108 0)
(0.253425 -0.431491 0)
(0.118695 -0.560637 0)
(0.500913 -0.376828 0)
(0.329609 -0.512824 0)
(0.719389 -0.317623 0)
(0.5272 -0.435896 0)
(0.910281 -0.269076 0)
(0.707696 -0.369756 0)
(1.07875 -0.230419 0)
(0.86416 -0.31704 0)
(1.22884 -0.19908 0)
(1.0008 -0.274277 0)
(1.36347 -0.173152 0)
(1.12149 -0.238914 0)
(1.48485 -0.151038 0)
(1.22871 -0.209101 0)
(1.5944 -0.131164 0)
(1.32409 -0.183035 0)
(1.69248 -0.112308 0)
(1.40866 -0.158753 0)
(1.77854 -0.0943263 0)
(1.48273 -0.134982 0)
(1.85244 -0.0778941 0)
(1.54492 -0.112399 0)
(1.91557 -0.0626341 0)
(1.59355 -0.0926069 0)
(1.96964 -0.0464382 0)
(1.63172 -0.0751628 0)
(2.01299 -0.0305738 0)
(1.66386 -0.0563484 0)
(2.04589 -0.0199739 0)
(1.68107 -0.038482 0)
(2.07049 -0.0147545 0)
(1.65805 -0.0247464 0)
(2.07605 -0.0102091 0)
(1.60995 -0.00621865 0)
(2.05713 -0.00479592 0)
(1.54909 0.0142287 0)
(2.00908 -0.000242458 0)
(1.47411 0.0343303 0)
(1.93635 0.00294347 0)
(1.38462 0.0467098 0)
(1.84618 0.00540359 0)
(1.28592 0.0516091 0)
(1.74836 0.00758795 0)
(1.18529 0.0496884 0)
(1.6545 0.0088223 0)
(1.09192 0.0420332 0)
(1.57682 0.00711251 0)
(1.01548 0.029398 0)
(1.5262 0.00171983 0)
(0.966723 0.0120293 0)
(1.50218 -0.00640897 0)
(0.947668 -0.00541306 0)
(1.50899 -0.0187162 0)
(0.966909 -0.0267948 0)
(1.55836 -0.0369308 0)
(1.01801 -0.0560071 0)
(1.14385 -0.0888495 0)
(0.187399 -0.653358 0)
(0.0741823 -0.744182 0)
(0.368327 -0.58276 0)
(0.230097 -0.685847 0)
(0.527583 -0.498182 0)
(0.356881 -0.584596 0)
(0.666409 -0.426514 0)
(0.476639 -0.496319 0)
(0.787663 -0.368357 0)
(0.577018 -0.424973 0)
(0.893751 -0.320579 0)
(0.662186 -0.366479 0)
(0.98663 -0.2807 0)
(0.73395 -0.31773 0)
(1.06781 -0.246615 0)
(0.79342 -0.276365 0)
(1.13857 -0.216023 0)
(0.841341 -0.240272 0)
(1.19929 -0.186569 0)
(0.878808 -0.206714 0)
(1.24871 -0.157599 0)
(0.907908 -0.173102 0)
(1.28492 -0.131775 0)
(0.927123 -0.139658 0)
(1.30938 -0.112643 0)
(0.9273 -0.110596 0)
(1.32791 -0.0976784 0)
(0.900366 -0.0884636 0)
(1.33005 -0.0773111 0)
(0.838941 -0.0578453 0)
(1.28965 -0.0468043 0)
(0.773491 -0.0108328 0)
(1.1972 -0.0121305 0)
(0.694095 0.0370241 0)
(1.08158 0.0229984 0)
(0.591156 0.0692087 0)
(0.962383 0.0561197 0)
(0.489239 0.0901579 0)
(0.845534 0.0806027 0)
(0.38948 0.107004 0)
(0.731027 0.0934059 0)
(0.292644 0.116244 0)
(0.623267 0.0946742 0)
(0.20365 0.115502 0)
(0.528127 0.0854138 0)
(0.127048 0.104766 0)
(0.45248 0.0669045 0)
(0.0680785 0.0847915 0)
(0.402787 0.0400615 0)
(0.0319394 0.0568227 0)
(0.383735 0.0095584 0)
(0.0239149 0.0222956 0)
(0.405657 -0.0215832 0)
(0.0333829 -0.0169469 0)
(0.470619 -0.0622385 0)
(0.0891225 -0.0601656 0)
(0.580715 -0.11002 0)
(0.163276 -0.111227 0)
(0.277477 -0.1524 0)
(0.120509 -0.794729 0)
(0.0334759 -0.862213 0)
(0.227055 -0.706369 0)
(0.124266 -0.787738 0)
(0.316578 -0.601653 0)
(0.171452 -0.668185 0)
(0.39204 -0.513005 0)
(0.222484 -0.565116 0)
(0.454284 -0.440126 0)
(0.256615 -0.480378 0)
(0.503952 -0.379407 0)
(0.279601 -0.409646 0)
(0.541696 -0.328055 0)
(0.290987 -0.349758 0)
(0.567812 -0.283985 0)
(0.290154 -0.298003 0)
(0.583418 -0.245237 0)
(0.275937 -0.252897 0)
(0.589924 -0.209306 0)
(0.247642 -0.211853 0)
(0.586738 -0.173304 0)
(0.207143 -0.170645 0)
(0.56778 -0.134287 0)
(0.156065 -0.125383 0)
(0.516545 -0.0891983 0)
(0.0866874 -0.0729268 0)
(0.416426 -0.0370276 0)
(-0.00119124 -0.0165937 0)
(0.286391 0.0183857 0)
(-0.104645 0.0332951 0)
(0.173802 0.0670938 0)
(-0.205222 0.0662163 0)
(0.0839697 0.101268 0)
(-0.283094 0.0970483 0)
(-0.00256538 0.122926 0)
(-0.361572 0.125664 0)
(-0.0892472 0.137461 0)
(-0.435287 0.145373 0)
(-0.169387 0.145463 0)
(-0.502627 0.156846 0)
(-0.239133 0.144105 0)
(-0.561005 0.158598 0)
(-0.295265 0.132174 0)
(-0.606953 0.148783 0)
(-0.334431 0.109952 0)
(-0.638268 0.127439 0)
(-0.35401 0.0786547 0)
(-0.653159 0.0958583 0)
(-0.353096 0.0401769 0)
(-0.649876 0.0563183 0)
(-0.332656 -0.0048309 0)
(-0.629367 0.0112817 0)
(-0.289903 -0.0557688 0)
(-0.600561 -0.0394402 0)
(-0.224544 -0.109124 0)
(-0.548055 -0.0937404 0)
(-0.155733 -0.156396 0)
(-0.495586 -0.145741 0)
(-0.447702 -0.18169 0)
(0.0466084 -0.864884 0)
(-0.00848839 -0.907863 0)
(0.0737177 -0.758746 0)
(0.00901538 -0.813663 0)
(0.0872877 -0.639533 0)
(-0.0258143 -0.680855 0)
(0.0919505 -0.539288 0)
(-0.0497539 -0.569367 0)
(0.0859601 -0.455347 0)
(-0.0879691 -0.475046 0)
(0.0693795 -0.384047 0)
(-0.134289 -0.395236 0)
(0.041363 -0.321747 0)
(-0.189884 -0.325984 0)
(0.000257297 -0.265594 0)
(-0.255074 -0.263945 0)
(-0.0565525 -0.213264 0)
(-0.330219 -0.20694 0)
(-0.130946 -0.161639 0)
(-0.415524 -0.153092 0)
(-0.221725 -0.107837 0)
(-0.50989 -0.100635 0)
(-0.325712 -0.0515273 0)
(-0.61109 -0.0470811 0)
(-0.431458 0.0026939 0)
(-0.710113 0.00481863 0)
(-0.519903 0.0466393 0)
(-0.798595 0.0468969 0)
(-0.590878 0.0798743 0)
(-0.868341 0.0830408 0)
(-0.663604 0.109983 0)
(-0.937986 0.115985 0)
(-0.734149 0.138658 0)
(-1.00266 0.144185 0)
(-0.797453 0.160627 0)
(-1.06113 0.166963 0)
(-0.853476 0.172816 0)
(-1.11131 0.181059 0)
(-0.899405 0.174964 0)
(-1.15167 0.185411 0)
(-0.932768 0.165927 0)
(-1.1808 0.178857 0)
(-0.952556 0.145187 0)
(-1.19781 0.160516 0)
(-0.958478 0.113644 0)
(-1.20271 0.130867 0)
(-0.951085 0.0734145 0)
(-1.19583 0.0916792 0)
(-0.932003 0.0270539 0)
(-1.17794 0.0457876 0)
(-0.901803 -0.0247637 0)
(-1.15252 -0.00499167 0)
(-0.864247 -0.0801882 0)
(-1.11881 -0.0591994 0)
(-0.823601 -0.133242 0)
(-1.08233 -0.11462 0)
(-0.787012 -0.175915 0)
(-1.05292 -0.164093 0)
(-1.03681 -0.199978 0)
(-0.0337771 -0.854659 0)
(-0.0551324 -0.874781 0)
(-0.0883044 -0.731937 0)
(-0.11454 -0.761518 0)
(-0.152354 -0.603681 0)
(-0.227421 -0.621052 0)
(-0.223958 -0.495884 0)
(-0.326332 -0.504088 0)
(-0.303112 -0.404192 0)
(-0.432777 -0.404588 0)
(-0.389823 -0.325322 0)
(-0.541485 -0.319874 0)
(-0.483482 -0.255952 0)
(-0.652192 -0.246506 0)
(-0.582817 -0.193735 0)
(-0.763988 -0.181642 0)
(-0.685911 -0.13675 0)
(-0.875778 -0.12354 0)
(-0.791393 -0.083254 0)
(-0.986602 -0.0697752 0)
(-0.897162 -0.0325167 0)
(-1.09158 -0.0190647 0)
(-0.993978 0.0139871 0)
(-1.18798 0.0258209 0)
(-1.07498 0.0552099 0)
(-1.27177 0.0643693 0)
(-1.1475 0.0922853 0)
(-1.34495 0.0989579 0)
(-1.21548 0.125203 0)
(-1.41307 0.130691 0)
(-1.27745 0.153075 0)
(-1.47452 0.15839 0)
(-1.33222 0.175354 0)
(-1.52792 0.18078 0)
(-1.37742 0.190201 0)
(-1.57197 0.196454 0)
(-1.41243 0.195539 0)
(-1.60576 0.203361 0)
(-1.43636 0.190292 0)
(-1.6288 0.200292 0)
(-1.44875 0.173727 0)
(-1.64101 0.186385 0)
(-1.45015 0.145937 0)
(-1.64286 0.161346 0)
(-1.44173 0.108262 0)
(-1.63532 0.125992 0)
(-1.4251 0.0630064 0)
(-1.61951 0.0822788 0)
(-1.40135 0.0124327 0)
(-1.597 0.0326774 0)
(-1.37128 -0.0418458 0)
(-1.57113 -0.0211926 0)
(-1.33938 -0.0968928 0)
(-1.54001 -0.0759848 0)
(-1.31244 -0.147979 0)
(-1.5146 -0.128455 0)
(-1.29113 -0.189143 0)
(-1.49853 -0.174785 0)
(-1.49316 -0.208976 0)
(-0.116467 -0.764552 0)
(-0.106239 -0.760708 0)
(-0.251747 -0.632313 0)
(-0.238601 -0.632149 0)
(-0.389604 -0.503025 0)
(-0.421533 -0.492332 0)
(-0.528371 -0.395248 0)
(-0.584489 -0.377578 0)
(-0.665671 -0.304512 0)
(-0.743831 -0.282373 0)
(-0.799796 -0.227547 0)
(-0.895421 -0.203304 0)
(-0.929453 -0.160932 0)
(-1.03852 -0.136482 0)
(-1.05443 -0.101787 0)
(-1.17305 -0.0780961 0)
(-1.17413 -0.0484567 0)
(-1.29592 -0.0267047 0)
(-1.28453 -0.000916959 0)
(-1.40775 0.0174308 0)
(-1.38069 0.0404128 0)
(-1.5077 0.0550933 0)
(-1.4643 0.0768482 0)
(-1.59475 0.088779 0)
(-1.54042 0.110042 0)
(-1.674 0.120337 0)
(-1.61012 0.140258 0)
(-1.74571 0.148986 0)
(-1.67213 0.166766 0)
(-1.80926 0.174154 0)
(-1.72539 0.18825 0)
(-1.86381 0.194842 0)
(-1.76898 0.203421 0)
(-1.90855 0.2099 0)
(-1.80196 0.210776 0)
(-1.94286 0.217976 0)
(-1.82424 0.208849 0)
(-1.96652 0.217551 0)
(-1.83591 0.1967 0)
(-1.97971 0.207552 0)
(-1.83749 0.173913 0)
(-1.98301 0.18734 0)
(-1.83002 0.140885 0)
(-1.97736 0.15692 0)
(-1.81494 0.0990311 0)
(-1.96403 0.117264 0)
(-1.79382 0.0504993 0)
(-1.9444 0.0703403 0)
(-1.76805 -0.00244431 0)
(-1.92039 0.0184537 0)
(-1.74077 -0.0569321 0)
(-1.89509 -0.0358917 0)
(-1.71623 -0.109446 0)
(-1.87019 -0.0888991 0)
(-1.69865 -0.156999 0)
(-1.85344 -0.137483 0)
(-1.6883 -0.195273 0)
(-1.84669 -0.179979 0)
(-1.84686 -0.210991 0)
(-0.19708 -0.602016 0)
(-0.158697 -0.567681 0)
(-0.404592 -0.469079 0)
(-0.355741 -0.433705 0)
(-0.604019 -0.34819 0)
(-0.598789 -0.306123 0)
(-0.792577 -0.251085 0)
(-0.810727 -0.205676 0)
(-0.968442 -0.171537 0)
(-1.00556 -0.125829 0)
(-1.13071 -0.104733 0)
(-1.17943 -0.0622789 0)
(-1.27956 -0.0475905 0)
(-1.33447 -0.0101675 0)
(-1.41227 0.000659342 0)
(-1.47221 0.0318569 0)
(-1.52777 0.0406333 0)
(-1.59388 0.0667319 0)
(-1.62892 0.0750009 0)
(-1.70099 0.0973252 0)
(-1.7202 0.106207 0)
(-1.79717 0.125494 0)
(-1.80356 0.135194 0)
(-1.88427 0.151549 0)
(-1.87838 0.161587 0)
(-1.96227 0.175341 0)
(-1.94431 0.18471 0)
(-2.03094 0.196316 0)
(-2.00078 0.203777 0)
(-2.08994 0.213738 0)
(-2.04727 0.217726 0)
(-2.13888 0.226654 0)
(-2.08332 0.225354 0)
(-2.17744 0.233988 0)
(-2.10871 0.225361 0)
(-2.20547 0.23454 0)
(-2.12369 0.216582 0)
(-2.22314 0.227093 0)
(-2.1288 0.198252 0)
(-2.23098 0.210731 0)
(-2.12491 0.170149 0)
(-2.2298 0.184978 0)
(-2.11326 0.132828 0)
(-2.22076 0.150009 0)
(-2.09537 0.0877825 0)
(-2.20522 0.106911 0)
(-2.07302 0.0372504 0)
(-2.18484 0.057704 0)
(-2.04831 -0.0161689 0)
(-2.16193 0.00481732 0)
(-2.02511 -0.0691151 0)
(-2.1391 -0.0483924 0)
(-2.00711 -0.118198 0)
(-2.12039 -0.0983713 0)
(-1.99719 -0.161538 0)
(-2.11117 -0.142579 0)
(-1.99591 -0.195984 0)
(-2.11193 -0.180622 0)
(-2.11588 -0.207616 0)
(-0.271023 -0.381812 0)
(-0.214948 -0.30223 0)
(-0.54366 -0.261952 0)
(-0.467334 -0.172981 0)
(-0.792706 -0.158146 0)
(-0.751464 -0.0735838 0)
(-1.01686 -0.0753089 0)
(-0.990079 -0.00132659 0)
(-1.21156 -0.0120368 0)
(-1.19827 0.0474859 0)
(-1.38009 0.0344633 0)
(-1.37859 0.0841895 0)
(-1.52515 0.0701275 0)
(-1.53517 0.112932 0)
(-1.65192 0.0994876 0)
(-1.67118 0.136888 0)
(-1.76545 0.125842 0)
(-1.79218 0.158579 0)
(-1.86793 0.150124 0)
(-1.90017 0.178271 0)
(-1.95999 0.172568 0)