/*--------------------------------*- C++ -*----------------------------------*\
  =========                 |
  \\      /  F ield         | OpenFOAM: The Open Source CFD Toolbox
   \\    /   O peration     | Website:  https://openfoam.org
    \\  /    A nd           | Version:  7
     \\/     M anipulation  |
\*---------------------------------------------------------------------------*/
FoamFile
{
    version     2.0;
    format      ascii;
    class       surfaceScalarField;
    location    "0.03";
    object      phi;
}
// * * * * * * * * * * * * * * * * * * * * * * * * * * * * * * * * * * * * * //

dimensions      [1 0 -1 0 0 0 0];

internalField   nonuniform List<scalar> 
23692
(
1.14947e-05
1.40446e-07
1.14611e-05
3.37531e-08
1.147e-05
-8.63506e-09
1.14711e-05
-9.60906e-10
1.14623e-05
9.00109e-09
1.14483e-05
1.41734e-08
1.14318e-05
1.66584e-08
1.14141e-05
1.77714e-08
1.13959e-05
1.8435e-08
1.13773e-05
1.87133e-08
1.13586e-05
1.89039e-08
1.13397e-05
1.89726e-08
1.13208e-05
1.90316e-08
1.1302e-05
1.8998e-08
1.12831e-05
1.8975e-08
1.12643e-05
1.89557e-08
1.12455e-05
1.89043e-08
1.12268e-05
1.88504e-08
1.12081e-05
1.88521e-08
1.11894e-05
1.88051e-08
1.11707e-05
1.88216e-08
1.1152e-05
1.88253e-08
1.11332e-05
1.8884e-08
1.11144e-05
1.89421e-08
1.10955e-05
1.90105e-08
1.10765e-05
1.91313e-08
1.10574e-05
1.9212e-08
1.10381e-05
1.93534e-08
1.10188e-05
1.94452e-08
1.09993e-05
1.95554e-08
1.09798e-05
1.96845e-08
1.09601e-05
1.97342e-08
1.09404e-05
1.98201e-08
1.09206e-05
1.99161e-08
1.09007e-05
1.9931e-08
1.08809e-05
1.99339e-08
1.0861e-05
1.99519e-08
1.08412e-05
1.99388e-08
1.08213e-05
1.98973e-08
1.08016e-05
1.98345e-08
1.07819e-05
1.97448e-08
1.07624e-05
1.96374e-08
1.07429e-05
1.9499e-08
1.07237e-05
1.9334e-08
1.07046e-05
1.91468e-08
1.06857e-05
1.89427e-08
1.06671e-05
1.87142e-08
1.06487e-05
1.8449e-08
1.06306e-05
1.81546e-08
1.06128e-05
1.78456e-08
1.05954e-05
1.75209e-08
1.05783e-05
1.71712e-08
1.05615e-05
1.6792e-08
1.05452e-05
1.63864e-08
1.05293e-05
1.59613e-08
1.05139e-05
1.55202e-08
1.04988e-05
1.50599e-08
1.04843e-05
1.4576e-08
1.04703e-05
1.40742e-08
1.04568e-05
1.35694e-08
1.04438e-05
1.30762e-08
1.04312e-05
1.26012e-08
1.04191e-05
1.21429e-08
1.04074e-05
1.17346e-08
1.03961e-05
1.1385e-08
1.0385e-05
1.11407e-08
1.0374e-05
1.10803e-08
1.03627e-05
1.13054e-08
1.03508e-05
1.19399e-08
1.03376e-05
1.3225e-08
1.03222e-05
1.54803e-08
1.03031e-05
1.91808e-08
1.0278e-05
2.51287e-08
1.02433e-05
3.47035e-08
1.0193e-05
5.03301e-08
1.01166e-05
7.64403e-08
9.99521e-06
1.21439e-07
9.79314e-06
2.02109e-07
9.43588e-06
3.57296e-07
8.7633e-06
6.72615e-07
1.4279e-06
7.33543e-06
1.23093e-05
2.8129e-07
1.22695e-05
7.37091e-08
1.22752e-05
-1.40932e-08
1.22746e-05
-2.03182e-10
1.22645e-05
1.9325e-08
1.22492e-05
2.96636e-08
1.22314e-05
3.46141e-08
1.22124e-05
3.69094e-08
1.21928e-05
3.82627e-08
1.21728e-05
3.88456e-08
1.21526e-05
3.92408e-08
1.21324e-05
3.93876e-08
1.2112e-05
3.94975e-08
1.20918e-05
3.94332e-08
1.20715e-05
3.93787e-08
1.20513e-05
3.93205e-08
1.20311e-05
3.92062e-08
1.2011e-05
3.90885e-08
1.19909e-05
3.90668e-08
1.19709e-05
3.89634e-08
1.19509e-05
3.89749e-08
1.19309e-05
3.89722e-08
1.19108e-05
3.90751e-08
1.18907e-05
3.91822e-08
1.18705e-05
3.93196e-08
1.18502e-05
3.95498e-08
1.18298e-05
3.97194e-08
1.18093e-05
3.99939e-08
1.17886e-05
4.0184e-08
1.17679e-05
4.04096e-08
1.1747e-05
4.06565e-08
1.17261e-05
4.0767e-08
1.17051e-05
4.09383e-08
1.1684e-05
4.11136e-08
1.16629e-05
4.1144e-08
1.16417e-05
4.1147e-08
1.16206e-05
4.11658e-08
1.15995e-05
4.11263e-08
1.15785e-05
4.10284e-08
1.15575e-05
4.08799e-08
1.15367e-05
4.06658e-08
1.1516e-05
4.04332e-08
1.14954e-05
4.01292e-08
1.14751e-05
3.97674e-08
1.14549e-05
3.93572e-08
1.1435e-05
3.89087e-08
1.14154e-05
3.84082e-08
1.13961e-05
3.78347e-08
1.13771e-05
3.71993e-08
1.13585e-05
3.65256e-08
1.13403e-05
3.58155e-08
1.13225e-05
3.50547e-08
1.13051e-05
3.42343e-08
1.12882e-05
3.33575e-08
1.12718e-05
3.24366e-08
1.12559e-05
3.14789e-08
1.12405e-05
3.04792e-08
1.12257e-05
2.94306e-08
1.12115e-05
2.83428e-08
1.11979e-05
2.72437e-08
1.11849e-05
2.61617e-08
1.11724e-05
2.51094e-08
1.11605e-05
2.40932e-08
1.11491e-05
2.3183e-08
1.11382e-05
2.23743e-08
1.11276e-05
2.17665e-08
1.11172e-05
2.15148e-08
1.11068e-05
2.18061e-08
1.10959e-05
2.2917e-08
1.10839e-05
2.52738e-08
1.107e-05
2.9369e-08
1.10532e-05
3.60194e-08
1.10317e-05
4.66435e-08
1.1003e-05
6.35277e-08
1.0963e-05
9.03498e-08
1.09062e-05
1.33296e-07
1.08248e-05
2.02863e-07
1.07101e-05
3.16841e-07
1.0556e-05
5.11468e-07
1.03896e-05
8.39004e-07
1.32345e-06
1.04941e-05
1.31964e-05
4.07039e-07
1.31506e-05
1.19798e-07
1.31473e-05
-1.05774e-08
1.31426e-05
4.68607e-09
1.31303e-05
3.18626e-08
1.31137e-05
4.63923e-08
1.30948e-05
5.36896e-08
1.30748e-05
5.71369e-08
1.30541e-05
5.91381e-08
1.30331e-05
6.00111e-08
1.30119e-05
6.06182e-08
1.29906e-05
6.08334e-08
1.29693e-05
6.09767e-08
1.2948e-05
6.08969e-08
1.29267e-05
6.08174e-08
1.29055e-05
6.07093e-08
1.28843e-05
6.05543e-08
1.28631e-05
6.0383e-08
1.2842e-05
6.03481e-08
1.28209e-05
6.0203e-08
1.27998e-05
6.0222e-08
1.27787e-05
6.02426e-08
1.27575e-05
6.03801e-08
1.27362e-05
6.05577e-08
1.27149e-05
6.07737e-08
1.26935e-05
6.11181e-08
1.26719e-05
6.13826e-08
1.26503e-05
6.17735e-08
1.26285e-05
6.20908e-08
1.26066e-05
6.24148e-08
1.25846e-05
6.27616e-08
1.25625e-05
6.296e-08
1.25404e-05
6.31937e-08
1.25182e-05
6.34231e-08
1.24959e-05
6.34829e-08
1.24737e-05
6.34816e-08
1.24515e-05
6.34805e-08
1.24293e-05
6.34001e-08
1.24072e-05
6.32262e-08
1.23852e-05
6.29746e-08
1.23633e-05
6.26454e-08
1.23416e-05
6.22479e-08
1.232e-05
6.17519e-08
1.22987e-05
6.11668e-08
1.22777e-05
6.05065e-08
1.22569e-05
5.97772e-08
1.22364e-05
5.89618e-08
1.22163e-05
5.80411e-08
1.21965e-05
5.70285e-08
1.21772e-05
5.59486e-08
1.21583e-05
5.48016e-08
1.21398e-05
5.35704e-08
1.21219e-05
5.22471e-08
1.21045e-05
5.08369e-08
1.20876e-05
4.93529e-08
1.20714e-05
4.78007e-08
1.20557e-05
4.61717e-08
1.20408e-05
4.44606e-08
1.20265e-05
4.26847e-08
1.20129e-05
4.08837e-08
1.2e-05
3.91021e-08
1.19878e-05
3.73563e-08
1.19764e-05
3.56004e-08
1.19655e-05
3.40772e-08
1.19554e-05
3.26133e-08
1.19458e-05
3.14017e-08
1.19367e-05
3.06961e-08
1.19278e-05
3.07405e-08
1.19189e-05
3.18163e-08
1.19096e-05
3.46816e-08
1.18992e-05
3.97481e-08
1.18874e-05
4.78752e-08
1.18734e-05
6.07482e-08
1.18561e-05
8.08712e-08
1.18347e-05
1.11733e-07
1.18096e-05
1.5852e-07
1.1783e-05
2.29418e-07
1.17658e-05
3.34078e-07
1.17894e-05
4.87938e-07
1.19252e-05
7.03223e-07
9.43033e-07
1.23057e-05
1.41524e-05
5.09944e-07
1.40983e-05
1.74151e-07
1.40842e-05
3.75912e-09
1.40734e-05
1.57414e-08
1.40586e-05
4.68304e-08
1.40405e-05
6.46934e-08
1.40205e-05
7.3948e-08
1.39993e-05
7.84833e-08
1.39776e-05
8.10539e-08
1.39556e-05
8.22209e-08
1.39334e-05
8.30249e-08
1.39111e-05
8.33005e-08
1.38888e-05
8.34613e-08
1.38664e-05
8.33869e-08
1.38441e-05
8.32847e-08
1.38219e-05
8.31243e-08
1.37997e-05
8.29541e-08
1.37775e-05
8.27472e-08
1.37553e-05
8.2704e-08
1.37331e-05
8.25436e-08
1.37109e-05
8.25849e-08
1.36886e-05
8.26546e-08
1.36663e-05
8.2827e-08
1.36439e-05
8.30931e-08
1.36214e-05
8.34012e-08
1.35988e-05
8.38619e-08
1.35761e-05
8.42282e-08
1.35532e-05
8.47276e-08
1.35303e-05
8.51862e-08
1.35072e-05
8.55996e-08
1.34841e-05
8.60363e-08
1.34608e-05
8.63333e-08
1.34375e-05
8.66143e-08
1.34142e-05
8.68785e-08
1.33908e-05
8.69696e-08
1.33674e-05
8.69598e-08
1.33441e-05
8.6923e-08
1.33208e-05
8.6784e-08
1.32976e-05
8.65156e-08
1.32745e-05
8.61424e-08
1.32516e-05
8.56709e-08
1.32289e-05
8.5088e-08
1.32063e-05
8.43719e-08
1.31841e-05
8.35352e-08
1.31621e-05
8.25913e-08
1.31404e-05
8.15381e-08
1.31191e-05
8.03595e-08
1.30982e-05
7.90452e-08
1.30777e-05
7.76093e-08
1.30576e-05
7.60695e-08
1.30381e-05
7.44224e-08
1.30191e-05
7.26513e-08
1.30006e-05
7.07504e-08
1.29828e-05
6.87278e-08
1.29657e-05
6.65938e-08
1.29492e-05
6.43461e-08
1.29335e-05
6.19733e-08
1.29185e-05
5.94756e-08
1.29044e-05
5.68788e-08
1.28911e-05
5.42276e-08
1.28787e-05
5.15978e-08
1.2867e-05
4.91098e-08
1.28563e-05
4.63422e-08
1.28466e-05
4.38553e-08
1.28378e-05
4.1481e-08
1.28299e-05
3.93534e-08
1.28229e-05
3.776e-08
1.28166e-05
3.71027e-08
1.2811e-05
3.74086e-08
1.28061e-05
3.96221e-08
1.28017e-05
4.42754e-08
1.27976e-05
5.20012e-08
1.27941e-05
6.42583e-08
1.27919e-05
8.3126e-08
1.27927e-05
1.11018e-07
1.28003e-05
1.50976e-07
1.28231e-05
2.06614e-07
1.28761e-05
2.81149e-07
1.29874e-05
3.76679e-07
1.3201e-05
4.89641e-07
5.9262e-07
1.35515e-05
1.51725e-05
5.91293e-07
1.51124e-05
2.34498e-07
1.50886e-05
2.78404e-08
1.50718e-05
3.28222e-08
1.5054e-05
6.47797e-08
1.50341e-05
8.48826e-08
1.50126e-05
9.56312e-08
1.49903e-05
1.01026e-07
1.49675e-05
1.04066e-07
1.49444e-05
1.05499e-07
1.49211e-05
1.06462e-07
1.48978e-05
1.06783e-07
1.48745e-05
1.06957e-07
1.48512e-05
1.06895e-07
1.48279e-05
1.0677e-07
1.48047e-05
1.06567e-07
1.47814e-05
1.06406e-07
1.47581e-05
1.06182e-07
1.47348e-05
1.06139e-07
1.47116e-05
1.05996e-07
1.46882e-05
1.0608e-07
1.46648e-05
1.06215e-07
1.46414e-05
1.06438e-07
1.46178e-05
1.06809e-07
1.45941e-05
1.07223e-07
1.45703e-05
1.07798e-07
1.45464e-05
1.08279e-07
1.45224e-05
1.08886e-07
1.44982e-05
1.09481e-07
1.4474e-05
1.09984e-07
1.44496e-05
1.10501e-07
1.44252e-05
1.10893e-07
1.44007e-05
1.11214e-07
1.43762e-05
1.11493e-07
1.43517e-05
1.11604e-07
1.43272e-05
1.11578e-07
1.43028e-05
1.11483e-07
1.42784e-05
1.11259e-07
1.42542e-05
1.10874e-07
1.42301e-05
1.10356e-07
1.42061e-05
1.0971e-07
1.41824e-05
1.08913e-07
1.41589e-05
1.07945e-07
1.41357e-05
1.0682e-07
1.41129e-05
1.05548e-07
1.40904e-05
1.04123e-07
1.40683e-05
1.02533e-07
1.40467e-05
1.00774e-07
1.40255e-05
9.88554e-08
1.40049e-05
9.67878e-08
1.39848e-05
9.45643e-08
1.39654e-05
9.21714e-08
1.39466e-05
8.96057e-08
1.39285e-05
8.6875e-08
1.39112e-05
8.39834e-08
1.38947e-05
8.09214e-08
1.38791e-05
7.76775e-08
1.38644e-05
7.42578e-08
1.38507e-05
7.06904e-08
1.38379e-05
6.70138e-08
1.38263e-05
6.32716e-08
1.3816e-05
5.94871e-08
1.38068e-05
5.55854e-08
1.37987e-05
5.20349e-08
1.37918e-05
4.84373e-08
1.37863e-05
4.49197e-08
1.37824e-05
4.17623e-08
1.37799e-05
3.96015e-08
1.3779e-05
3.84602e-08
1.37797e-05
3.89716e-08
1.37826e-05
4.14061e-08
1.3788e-05
4.66291e-08
1.37968e-05
5.54946e-08
1.38108e-05
6.91807e-08
1.38331e-05
8.88424e-08
1.38685e-05
1.15594e-07
1.39252e-05
1.49971e-07
1.40151e-05
1.91263e-07
1.41552e-05
2.36629e-07
1.43646e-05
2.80259e-07
3.11707e-07
1.46456e-05
1.62615e-05
6.52147e-07
1.61969e-05
2.99387e-07
1.61645e-05
6.05158e-08
1.6142e-05
5.55441e-08
1.61208e-05
8.62422e-08
1.60988e-05
1.07131e-07
1.60758e-05
1.18809e-07
1.60523e-05
1.24793e-07
1.60284e-05
1.28187e-07
1.60042e-05
1.29842e-07
1.598e-05
1.30902e-07
1.59557e-05
1.31261e-07
1.59315e-05
1.31443e-07
1.59072e-05
1.31393e-07
1.58829e-05
1.31245e-07
1.58586e-05
1.31021e-07
1.58343e-05
1.30887e-07
1.581e-05
1.30669e-07
1.57857e-05
1.30636e-07
1.57613e-05
1.30554e-07
1.57369e-05
1.30698e-07
1.57123e-05
1.30913e-07
1.56877e-05
1.31213e-07
1.5663e-05
1.31702e-07
1.56381e-05
1.32236e-07
1.56132e-05
1.32922e-07
1.55881e-05
1.33534e-07
1.55629e-05
1.34246e-07
1.55375e-05
1.34965e-07
1.55121e-05
1.35559e-07
1.54866e-05
1.36143e-07
1.5461e-05
1.3662e-07
1.54354e-05
1.36973e-07
1.54097e-05
1.37243e-07
1.53841e-05
1.37354e-07
1.53585e-05
1.373e-07
1.5333e-05
1.37123e-07
1.53076e-05
1.36784e-07
1.52823e-05
1.36256e-07
1.52572e-05
1.35561e-07
1.52324e-05
1.347e-07
1.52077e-05
1.33649e-07
1.51834e-05
1.32389e-07
1.51594e-05
1.30929e-07
1.51358e-05
1.29279e-07
1.51126e-05
1.27429e-07
1.50898e-05
1.25371e-07
1.50676e-05
1.23104e-07
1.50459e-05
1.20632e-07
1.50248e-05
1.17955e-07
1.50044e-05
1.15065e-07
1.49847e-05
1.11952e-07
1.49658e-05
1.08614e-07
1.49477e-05
1.05057e-07
1.49305e-05
1.01276e-07
1.49143e-05
9.72543e-08
1.4899e-05
9.29831e-08
1.48849e-05
8.84709e-08
1.48719e-05
8.37413e-08
1.48602e-05
7.8821e-08
1.48498e-05
7.37346e-08
1.48409e-05
6.85006e-08
1.48334e-05
6.31565e-08
1.48276e-05
5.78381e-08
1.48237e-05
5.24796e-08
1.48215e-05
4.71857e-08
1.48211e-05
4.21885e-08
1.4823e-05
3.77854e-08
1.48273e-05
3.4167e-08
1.48347e-05
3.16454e-08
1.48457e-05
3.05233e-08
1.48611e-05
3.1238e-08
1.48824e-05
3.42185e-08
1.49118e-05
3.98639e-08
1.49523e-05
4.83723e-08
1.50085e-05
5.95257e-08
1.50861e-05
7.23368e-08
1.51928e-05
8.46751e-08
1.53362e-05
9.32253e-08
1.55216e-05
9.49605e-08
9.03609e-08
1.5743e-05
1.74235e-05
6.94315e-07
1.73562e-05
3.66997e-07
1.73164e-05
1.00612e-07
1.72883e-05
8.38703e-08
1.72637e-05
1.11066e-07
1.72395e-05
1.31567e-07
1.72151e-05
1.43525e-07
1.71903e-05
1.4982e-07
1.71653e-05
1.53429e-07
1.71401e-05
1.55231e-07
1.71149e-05
1.56325e-07
1.70897e-05
1.56714e-07
1.70645e-05
1.56894e-07
1.70392e-05
1.56846e-07
1.7014e-05
1.56687e-07
1.69888e-05
1.56469e-07
1.69635e-05
1.5637e-07
1.69382e-05
1.56187e-07
1.69128e-05
1.56185e-07
1.68873e-05
1.56199e-07
1.68618e-05
1.56421e-07
1.68362e-05
1.56738e-07
1.68104e-05
1.57146e-07
1.67845e-05
1.5776e-07
1.67585e-05
1.58426e-07
1.67324e-05
1.59223e-07
1.67061e-05
1.5998e-07
1.66797e-05
1.60796e-07
1.66532e-05
1.61617e-07
1.66266e-05
1.62303e-07
1.65999e-05
1.62943e-07
1.65732e-05
1.63481e-07
1.65465e-05
1.63853e-07
1.65198e-05
1.64095e-07
1.64931e-05
1.64177e-07
1.64665e-05
1.64073e-07
1.64399e-05
1.6379e-07
1.64135e-05
1.63303e-07
1.63873e-05
1.62595e-07
1.63613e-05
1.61681e-07
1.63356e-05
1.60559e-07
1.63101e-05
1.59207e-07
1.6285e-05
1.57606e-07
1.62603e-05
1.55761e-07
1.6236e-05
1.53675e-07
1.62122e-05
1.51341e-07
1.6189e-05
1.4875e-07
1.61663e-05
1.459e-07
1.61442e-05
1.42789e-07
1.61229e-05
1.3941e-07
1.61023e-05
1.35752e-07
1.60825e-05
1.31809e-07
1.60636e-05
1.27578e-07
1.60457e-05
1.23056e-07
1.60289e-05
1.1823e-07
1.60131e-05
1.13082e-07
1.59986e-05
1.07603e-07
1.59853e-05
1.018e-07
1.59735e-05
9.56876e-08
1.59631e-05
8.92795e-08
1.59543e-05
8.25874e-08
1.59473e-05
7.56258e-08
1.59421e-05
6.84258e-08
1.5939e-05
6.10176e-08
1.5938e-05
5.34827e-08
1.59395e-05
4.58479e-08
1.59435e-05
3.82605e-08
1.59504e-05
3.08632e-08
1.59609e-05
2.37949e-08
1.59754e-05
1.7202e-08
1.59948e-05
1.12203e-08
1.60201e-05
5.96618e-09
1.60529e-05
1.48115e-09
1.60952e-05
-2.35365e-09
1.61495e-05
-5.92571e-09
1.62192e-05
-1.00608e-08
1.63078e-05
-1.61896e-08
1.64189e-05
-2.641e-08
1.65551e-05
-4.29535e-08
1.6716e-05
-6.58114e-08
-8.86225e-08
1.6895e-05
1.86629e-05
7.2049e-07
1.85947e-05
4.35528e-07
1.85489e-05
1.46624e-07
1.8516e-05
1.17126e-07
1.84881e-05
1.39223e-07
1.84617e-05
1.58256e-07
1.84356e-05
1.69837e-07
1.84095e-05
1.7616e-07
1.83834e-05
1.79806e-07
1.83573e-05
1.81655e-07
1.83311e-05
1.82724e-07
1.83049e-05
1.83129e-07
1.82788e-05
1.8329e-07
1.82526e-05
1.83233e-07
1.82264e-05
1.8308e-07
1.82002e-05
1.82892e-07
1.8174e-05
1.82835e-07
1.81477e-05
1.82718e-07
1.81213e-05
1.82776e-07
1.80948e-05
1.82914e-07
1.80682e-05
1.83234e-07
1.80414e-05
1.83675e-07
1.80145e-05
1.84222e-07
1.79875e-05
1.84969e-07
1.79603e-05
1.85773e-07
1.7933e-05
1.86686e-07
1.79056e-05
1.87592e-07
1.78781e-05
1.88511e-07
1.78504e-05
1.89417e-07
1.78227e-05
1.90187e-07
1.77949e-05
1.90872e-07
1.77671e-05
1.91443e-07
1.77393e-05
1.91816e-07
1.77116e-05
1.92007e-07
1.76839e-05
1.92024e-07
1.76563e-05
1.91832e-07
1.76288e-05
1.91407e-07
1.76015e-05
1.90732e-07
1.75744e-05
1.89801e-07
1.75476e-05
1.88622e-07
1.75211e-05
1.87191e-07
1.74949e-05
1.85486e-07
1.74692e-05
1.8349e-07
1.74439e-05
1.81199e-07
1.7419e-05
1.78613e-07
1.73948e-05
1.75724e-07
1.73711e-05
1.72522e-07
1.73481e-05
1.69001e-07
1.73259e-05
1.65153e-07
1.73044e-05
1.60968e-07
1.72839e-05
1.56431e-07
1.72642e-05
1.51535e-07
1.72456e-05
1.46273e-07
1.72282e-05
1.40631e-07
1.72119e-05
1.34591e-07
1.71969e-05
1.28131e-07
1.71834e-05
1.21243e-07
1.71714e-05
1.13928e-07
1.71609e-05
1.06187e-07
1.71523e-05
9.80208e-08
1.71455e-05
8.94254e-08
1.71408e-05
8.04033e-08
1.71384e-05
7.09677e-08
1.71383e-05
6.1136e-08
1.7141e-05
5.09381e-08
1.71465e-05
4.03951e-08
1.71553e-05
2.95561e-08
1.71677e-05
1.84726e-08
1.71844e-05
7.17832e-09
1.7206e-05
-4.31812e-09
1.72334e-05
-1.60512e-08
1.72675e-05
-2.8124e-08
1.73098e-05
-4.07555e-08
1.73619e-05
-5.43372e-08
1.74255e-05
-6.9499e-08
1.75027e-05
-8.71873e-08
1.75953e-05
-1.08698e-07
1.77045e-05
-1.35554e-07
1.78303e-05
-1.68739e-07
1.79707e-05
-2.06121e-07
-2.38422e-07
1.81205e-05
1.9985e-05
7.33585e-07
1.99175e-05
5.03355e-07
1.98675e-05
1.96993e-07
1.98304e-05
1.54568e-07
1.97993e-05
1.70581e-07
1.97707e-05
1.87178e-07
1.9743e-05
1.97811e-07
1.97156e-05
2.03852e-07
1.96883e-05
2.07326e-07
1.96611e-05
2.09114e-07
1.9634e-05
2.10103e-07
1.96069e-05
2.10495e-07
1.95798e-05
2.10615e-07
1.95528e-05
2.10546e-07
1.95257e-05
2.10418e-07
1.94985e-05
2.10278e-07
1.94713e-05
2.10268e-07
1.9444e-05
2.10251e-07
1.94166e-05
2.10406e-07
1.93891e-05
2.10681e-07
1.93614e-05
2.11121e-07
1.93335e-05
2.11712e-07
1.93056e-05
2.12423e-07
1.92774e-05
2.13308e-07
1.92491e-05
2.14254e-07
1.92207e-05
2.15292e-07
1.91921e-05
2.16341e-07
1.91635e-05
2.17357e-07
1.91348e-05
2.18328e-07
1.91059e-05
2.19169e-07
1.90771e-05
2.19886e-07
1.90483e-05
2.20456e-07
1.90194e-05
2.20799e-07
1.89907e-05
2.20914e-07
1.89621e-05
2.20822e-07
1.89336e-05
2.2049e-07
1.89052e-05
2.19878e-07
1.88771e-05
2.18971e-07
1.88493e-05
2.17771e-07
1.88218e-05
2.16281e-07
1.87946e-05
2.14489e-07
1.87679e-05
2.12373e-07
1.87416e-05
2.09916e-07
1.87158e-05
2.07108e-07
1.86906e-05
2.03944e-07
1.8666e-05
2.00416e-07
1.86422e-05
1.96511e-07
1.86191e-05
1.92219e-07
1.85968e-05
1.87526e-07
1.85755e-05
1.82415e-07
1.85552e-05
1.76872e-07
1.85359e-05
1.70884e-07
1.85179e-05
1.64435e-07
1.85011e-05
1.57506e-07
1.84857e-05
1.5007e-07
1.84718e-05
1.42106e-07
1.84596e-05
1.33601e-07
1.84491e-05
1.24545e-07
1.84404e-05
1.14925e-07
1.84338e-05
1.04725e-07
1.84294e-05
9.39245e-08
1.84274e-05
8.25112e-08
1.8428e-05
7.04854e-08
1.84313e-05
5.78272e-08
1.84378e-05
4.45266e-08
1.84477e-05
3.05724e-08
1.84614e-05
1.5936e-08
1.84794e-05
5.89668e-10
1.85022e-05
-1.55249e-08
1.85304e-05
-3.2503e-08
1.8565e-05
-5.04923e-08
1.86066e-05
-6.9718e-08
1.86565e-05
-9.05075e-08
1.87155e-05
-1.13326e-07
1.87849e-05
-1.38802e-07
1.88655e-05
-1.67744e-07
1.8958e-05
-2.01111e-07
1.90623e-05
-2.39799e-07
1.91775e-05
-2.83844e-07
1.93013e-05
-3.29863e-07
-3.67226e-07
1.94301e-05
2.1396e-05
7.36508e-07
2.13306e-05
5.69081e-07
2.12777e-05
2.50252e-07
2.12371e-05
1.95491e-07
2.12032e-05
2.0484e-07
2.11724e-05
2.18267e-07
2.1143e-05
2.27489e-07
2.11143e-05
2.329e-07
2.10859e-05
2.36003e-07
2.10577e-05
2.37617e-07
2.10296e-05
2.38473e-07
2.10016e-05
2.38802e-07
2.09736e-05
2.38864e-07
2.09456e-05
2.38788e-07
2.09176e-05
2.38701e-07
2.08895e-05
2.38617e-07
2.08613e-05
2.38667e-07
2.0833e-05
2.38783e-07
2.08046e-05
2.39065e-07
2.07761e-05
2.39487e-07
2.07473e-05
2.40073e-07
2.07184e-05
2.40836e-07
2.06893e-05
2.41724e-07
2.06601e-05
2.4275e-07
2.06307e-05
2.43843e-07
2.06012e-05
2.4501e-07
2.05716e-05
2.46184e-07
2.05419e-05
2.47283e-07
2.05121e-05
2.48299e-07
2.04823e-05
2.49185e-07
2.04524e-05
2.49907e-07
2.04226e-05
2.50437e-07
2.03929e-05
2.50712e-07
2.03632e-05
2.50722e-07
2.03338e-05
2.50478e-07
2.03045e-05
2.49953e-07
2.02754e-05
2.49107e-07
2.02466e-05
2.47923e-07
2.02181e-05
2.46403e-07
2.019e-05
2.44544e-07
2.01623e-05
2.42329e-07
2.01351e-05
2.39733e-07
2.01084e-05
2.36737e-07
2.00823e-05
2.3333e-07
2.00569e-05
2.29503e-07
2.00322e-05
2.25243e-07
2.00083e-05
2.20534e-07
1.99853e-05
2.1536e-07
1.99633e-05
2.097e-07
1.99423e-05
2.03535e-07
1.99224e-05
1.96845e-07
1.99038e-05
1.89611e-07
1.98865e-05
1.81811e-07
1.98707e-05
1.73416e-07
1.98565e-05
1.64398e-07
1.9844e-05
1.5473e-07
1.98333e-05
1.44389e-07
1.98246e-05
1.3335e-07
1.98181e-05
1.21585e-07
1.98138e-05
1.0906e-07
1.98121e-05
9.57395e-08
1.98132e-05
8.15764e-08
1.98171e-05
6.66145e-08
1.98243e-05
5.07285e-08
1.9835e-05
3.39197e-08
1.98495e-05
1.61603e-08
1.98682e-05
-2.6812e-09
1.98915e-05
-2.26581e-08
1.992e-05
-4.38896e-08
1.99541e-05
-6.65317e-08
1.99945e-05
-9.07912e-08
2.00418e-05
-1.16941e-07
2.00967e-05
-1.45326e-07
2.01598e-05
-1.76376e-07
2.02317e-05
-2.10603e-07
2.03126e-05
-2.48595e-07
2.04025e-05
-2.90951e-07
2.05008e-05
-3.38067e-07
2.06064e-05
-3.89346e-07
2.07173e-05
-4.40703e-07
-4.80891e-07
2.0831e-05
2.29022e-05
7.32046e-07
2.28402e-05
6.31576e-07
2.27857e-05
3.05125e-07
2.27424e-05
2.39152e-07
2.27059e-05
2.41599e-07
2.26731e-05
2.51443e-07
2.26421e-05
2.58843e-07
2.2612e-05
2.63296e-07
2.25825e-05
2.65851e-07
2.25532e-05
2.67179e-07
2.25241e-05
2.67837e-07
2.24952e-05
2.68047e-07
2.24663e-05
2.68044e-07
2.24374e-05
2.67968e-07
2.24085e-05
2.67921e-07
2.23794e-05
2.67906e-07
2.23503e-05
2.6804e-07
2.23211e-05
2.68308e-07
2.22917e-05
2.68737e-07
2.22621e-05
2.69319e-07
2.22323e-05
2.70075e-07
2.22024e-05
2.71021e-07
2.21722e-05
2.72088e-07
2.2142e-05
2.73258e-07
2.21115e-05
2.74496e-07
2.2081e-05
2.75785e-07
2.20503e-05
2.77059e-07
2.20196e-05
2.78222e-07
2.19888e-05
2.79262e-07
2.19581e-05
2.80153e-07
2.19273e-05
2.80844e-07
2.18967e-05
2.81292e-07
2.18661e-05
2.81459e-07
2.18357e-05
2.81329e-07
2.18054e-05
2.80896e-07
2.17754e-05
2.80132e-07
2.17457e-05
2.79001e-07
2.17163e-05
2.77487e-07
2.16873e-05
2.75587e-07
2.16587e-05
2.73292e-07
2.16306e-05
2.70578e-07
2.16031e-05
2.67419e-07
2.15762e-05
2.63798e-07
2.155e-05
2.597e-07
2.15245e-05
2.5511e-07
2.14999e-05
2.50011e-07
2.14762e-05
2.44381e-07
2.14535e-05
2.38196e-07
2.14319e-05
2.31432e-07
2.14115e-05
2.24063e-07
2.13924e-05
2.16066e-07
2.13747e-05
2.07413e-07
2.13586e-05
1.98076e-07
2.13441e-05
1.88021e-07
2.13314e-05
1.77216e-07
2.13206e-05
1.65626e-07
2.13119e-05
1.53219e-07
2.13054e-05
1.39959e-07
2.13013e-05
1.25804e-07
2.12998e-05
1.10704e-07
2.1301e-05
9.46097e-08
2.13053e-05
7.74231e-08
2.13127e-05
5.93191e-08
2.13237e-05
3.98272e-08
2.13383e-05
1.93806e-08
2.13571e-05
-2.51081e-09
2.13803e-05
-2.5815e-08
2.14084e-05
-5.06492e-08
2.14417e-05
-7.71542e-08
2.14808e-05
-1.05498e-07
2.15259e-05
-1.35882e-07
2.15776e-05
-1.68549e-07
2.16362e-05
-2.03782e-07
2.17018e-05
-2.41906e-07
2.17745e-05
-2.83278e-07
2.18543e-05
-3.28265e-07
2.19406e-05
-3.77187e-07
2.20327e-05
-4.30106e-07
2.21295e-05
-4.8607e-07
2.22295e-05
-5.40652e-07
-5.82352e-07
2.23311e-05
2.45111e-05
7.22647e-07
2.4453e-05
6.90114e-07
2.43979e-05
3.60561e-07
2.43527e-05
2.84741e-07
2.43142e-05
2.80474e-07
2.42795e-05
2.86554e-07
2.42469e-05
2.9178e-07
2.42155e-05
2.95025e-07
2.41848e-05
2.96878e-07
2.41545e-05
2.97804e-07
2.41245e-05
2.98188e-07
2.40946e-05
2.98237e-07
2.40648e-05
2.98167e-07
2.4035e-05
2.98087e-07
2.40051e-05
2.98074e-07
2.39752e-05
2.98144e-07
2.39451e-05
2.98385e-07
2.39149e-05
2.98813e-07
2.38845e-05
2.99403e-07
2.38539e-05
3.0016e-07
2.38232e-05
3.01102e-07
2.37922e-05
3.02231e-07
2.37611e-05
3.0347e-07
2.37298e-05
3.04784e-07
2.36984e-05
3.06157e-07
2.36669e-05
3.07549e-07
2.36353e-05
3.08891e-07
2.36036e-05
3.10094e-07
2.3572e-05
3.11137e-07
2.35403e-05
3.11997e-07
2.35088e-05
3.12613e-07
2.34773e-05
3.12941e-07
2.3446e-05
3.12956e-07
2.34149e-05
3.12639e-07
2.3384e-05
3.11969e-07
2.33534e-05
3.10912e-07
2.33232e-05
3.09434e-07
2.32933e-05
3.07521e-07
2.32639e-05
3.05167e-07
2.32351e-05
3.02352e-07
2.32068e-05
2.9905e-07
2.31791e-05
2.95234e-07
2.31522e-05
2.90886e-07
2.31261e-05
2.85987e-07
2.31008e-05
2.80516e-07
2.30765e-05
2.74449e-07
2.30533e-05
2.67761e-07
2.30312e-05
2.60424e-07
2.30104e-05
2.5241e-07
2.29909e-05
2.4369e-07
2.29729e-05
2.34235e-07
2.29564e-05
2.24011e-07
2.29416e-05
2.1298e-07
2.29287e-05
2.01102e-07
2.29177e-05
1.88335e-07
2.29088e-05
1.74635e-07
2.29022e-05
1.59956e-07
2.2898e-05
1.44247e-07
2.28965e-05
1.27449e-07
2.28978e-05
1.09501e-07
2.29022e-05
9.02906e-08
2.29099e-05
6.993e-08
2.29211e-05
4.82026e-08
2.29359e-05
2.51038e-08
2.29548e-05
5.62457e-10
2.2978e-05
-2.55701e-08
2.30056e-05
-5.33776e-08
2.30381e-05
-8.29805e-08
2.30755e-05
-1.14522e-07
2.31183e-05
-1.48164e-07
2.31666e-05
-1.84088e-07
2.32206e-05
-2.22498e-07
2.32805e-05
-2.63607e-07
2.33464e-05
-3.07638e-07
2.3418e-05
-3.54806e-07
2.34951e-05
-4.053e-07
2.35772e-05
-4.59222e-07
2.36636e-05
-5.16405e-07
2.37533e-05
-5.75663e-07
2.38451e-05
-6.32376e-07
-6.74926e-07
2.39377e-05
2.62303e-05
7.10258e-07
2.61764e-05
7.44475e-07
2.61217e-05
4.15653e-07
2.60754e-05
3.31513e-07
2.60351e-05
3.21099e-07
2.59987e-05
3.23339e-07
2.59647e-05
3.26183e-07
2.5932e-05
3.28059e-07
2.59002e-05
3.29072e-07
2.58689e-05
3.29475e-07
2.58379e-05
3.29518e-07
2.58071e-05
3.29384e-07
2.57764e-05
3.29231e-07
2.57457e-05
3.29133e-07
2.57149e-05
3.29156e-07
2.5684e-05
3.29326e-07
2.5653e-05
3.29691e-07
2.56219e-05
3.30274e-07
2.55905e-05
3.31038e-07
2.5559e-05
3.31985e-07
2.55272e-05
3.33118e-07
2.54953e-05
3.34418e-07
2.54633e-05
3.35816e-07
2.5431e-05
3.3727e-07
2.53987e-05
3.38758e-07
2.53663e-05
3.40221e-07
2.53338e-05
3.41595e-07
2.53013e-05
3.42809e-07
2.52689e-05
3.43827e-07
2.52365e-05
3.44616e-07
2.52042e-05
3.45115e-07
2.51721e-05
3.45279e-07
2.51402e-05
3.45088e-07
2.51085e-05
3.44522e-07
2.50772e-05
3.43545e-07
2.50462e-05
3.4212e-07
2.50156e-05
3.4022e-07
2.49855e-05
3.3783e-07
2.49559e-05
3.34936e-07
2.49269e-05
3.31513e-07
2.48986e-05
3.27532e-07
2.48711e-05
3.22966e-07
2.48443e-05
3.1779e-07
2.48185e-05
3.11982e-07
2.47937e-05
3.05515e-07
2.47699e-05
2.98359e-07
2.47474e-05
2.90485e-07
2.47261e-05
2.8186e-07
2.47062e-05
2.72451e-07
2.46878e-05
2.62224e-07
2.46711e-05
2.51137e-07
2.46561e-05
2.3915e-07
2.4643e-05
2.26216e-07
2.46319e-05
2.12291e-07
2.46231e-05
1.97327e-07
2.46166e-05
1.81279e-07
2.46125e-05
1.64098e-07
2.46112e-05
1.45728e-07
2.46127e-05
1.26109e-07
2.46171e-05
1.05169e-07
2.46247e-05
8.28e-08
2.46356e-05
5.91319e-08
2.46502e-05
3.37311e-08
2.46685e-05
6.97839e-09
2.46908e-05
-2.16193e-08
2.47173e-05
-5.20194e-08
2.47484e-05
-8.43308e-08
2.47842e-05
-1.18655e-07
2.48248e-05
-1.55103e-07
2.48706e-05
-1.9379e-07
2.49214e-05
-2.34832e-07
2.49774e-05
-2.78353e-07
2.50383e-05
-3.2447e-07
2.51041e-05
-3.73299e-07
2.51743e-05
-4.24942e-07
2.52485e-05
-4.79468e-07
2.53263e-05
-5.36865e-07
2.54068e-05
-5.96863e-07
2.54894e-05
-6.58187e-07
2.55733e-05
-7.16156e-07
-7.59118e-07
2.56576e-05
2.80682e-05
6.96419e-07
2.80184e-05
7.94806e-07
2.79649e-05
4.69602e-07
2.79179e-05
3.7889e-07
2.78764e-05
3.63044e-07
2.78387e-05
3.61492e-07
2.78033e-05
3.61937e-07
2.77694e-05
3.62331e-07
2.77365e-05
3.6238e-07
2.77042e-05
3.62159e-07
2.76723e-05
3.61825e-07
2.76405e-05
3.61478e-07
2.76089e-05
3.61214e-07
2.75773e-05
3.61093e-07
2.75456e-05
3.61158e-07
2.75139e-05
3.61437e-07
2.7482e-05
3.61935e-07
2.74499e-05
3.62666e-07
2.74176e-05
3.6361e-07
2.73852e-05
3.64753e-07
2.73525e-05
3.66069e-07
2.73197e-05
3.67522e-07
2.72867e-05
3.69063e-07
2.72537e-05
3.70644e-07
2.72205e-05
3.72217e-07
2.71873e-05
3.73715e-07
2.7154e-05
3.7508e-07
2.71208e-05
3.76262e-07
2.70877e-05
3.77211e-07
2.70547e-05
3.77876e-07
2.70219e-05
3.78202e-07
2.69892e-05
3.78149e-07
2.69568e-05
3.77693e-07
2.69248e-05
3.76807e-07
2.68931e-05
3.75451e-07
2.68619e-05
3.73586e-07
2.68311e-05
3.71191e-07
2.68009e-05
3.68246e-07
2.67713e-05
3.64729e-07
2.67424e-05
3.60607e-07
2.67143e-05
3.55847e-07
2.6687e-05
3.50417e-07
2.66607e-05
3.4429e-07
2.66355e-05
3.37436e-07
2.66113e-05
3.29824e-07
2.65884e-05
3.21424e-07
2.65669e-05
3.12202e-07
2.65468e-05
3.02124e-07
2.65283e-05
2.91157e-07
2.65114e-05
2.79262e-07
2.64963e-05
2.66395e-07
2.64831e-05
2.52509e-07
2.64719e-05
2.37553e-07
2.64629e-05
2.21469e-07
2.64561e-05
2.04199e-07
2.64519e-05
1.85684e-07
2.64503e-05
1.65857e-07
2.64515e-05
1.4465e-07
2.64557e-05
1.21999e-07
2.64632e-05
9.77779e-08
2.64741e-05
7.21058e-08
2.64886e-05
4.47463e-08
2.65067e-05
1.57571e-08
2.65288e-05
-1.49854e-08
2.65548e-05
-4.757e-08
2.6585e-05
-8.2062e-08
2.66193e-05
-1.18547e-07
2.66579e-05
-1.57112e-07
2.67007e-05
-1.97853e-07
2.67479e-05
-2.40861e-07
2.67994e-05
-2.86222e-07
2.68552e-05
-3.34014e-07
2.69151e-05
-3.84298e-07
2.6979e-05
-4.37112e-07
2.70466e-05
-4.9246e-07
2.71176e-05
-5.50308e-07
2.71913e-05
-6.10539e-07
2.72674e-05
-6.72781e-07
2.73449e-05
-7.35688e-07
2.74234e-05
-7.94528e-07
-8.37634e-07
2.7502e-05
3.00334e-05
6.82427e-07
2.99874e-05
8.41353e-07
2.99357e-05
5.21834e-07
2.98886e-05
4.2639e-07
2.98463e-05
4.05796e-07
2.98075e-05
4.00747e-07
2.9771e-05
3.98885e-07
2.9736e-05
3.97718e-07
2.97021e-05
3.96715e-07
2.96689e-05
3.95822e-07
2.9636e-05
3.95083e-07
2.96034e-05
3.94484e-07
2.95709e-05
3.94092e-07
2.95384e-05
3.93946e-07
2.95059e-05
3.94057e-07
2.94732e-05
3.94443e-07
2.94405e-05
3.95074e-07
2.94075e-05
3.95953e-07
2.93744e-05
3.97073e-07
2.93411e-05
3.98399e-07
2.93076e-05
3.99875e-07
2.9274e-05
4.0146e-07
2.92402e-05
4.03119e-07
2.92064e-05
4.04796e-07
2.91725e-05
4.0642e-07
2.91385e-05
4.07917e-07
2.91047e-05
4.09239e-07
2.90709e-05
4.1034e-07
2.90372e-05
4.11163e-07
2.90037e-05
4.11645e-07
2.89704e-05
4.11734e-07
2.89374e-05
4.11397e-07
2.89048e-05
4.10606e-07
2.88725e-05
4.09325e-07
2.88407e-05
4.07508e-07
2.88094e-05
4.0512e-07
2.87786e-05
4.02137e-07
2.87486e-05
3.98534e-07
2.87193e-05
3.9428e-07
2.86907e-05
3.89339e-07
2.86631e-05
3.83678e-07
2.86365e-05
3.77266e-07
2.86109e-05
3.70073e-07
2.85865e-05
3.6207e-07
2.85633e-05
3.53222e-07
2.85414e-05
3.4349e-07
2.85209e-05
3.32832e-07
2.8502e-05
3.21202e-07
2.84848e-05
3.08551e-07
2.84694e-05
2.94828e-07
2.8456e-05
2.79981e-07
2.84447e-05
2.63958e-07
2.84357e-05
2.46709e-07
2.84292e-05
2.28185e-07
2.84252e-05
2.08339e-07
2.84239e-05
1.87122e-07
2.84254e-05
1.64481e-07
2.84299e-05
1.40354e-07
2.84373e-05
1.14678e-07
2.84479e-05
8.73686e-08
2.84617e-05
5.84084e-08
2.8479e-05
2.76577e-08
2.84997e-05
-4.89515e-09
2.85242e-05
-3.93644e-08
2.85526e-05
-7.58097e-08
2.8585e-05
-1.1429e-07
2.86214e-05
-1.54854e-07
2.86619e-05
-1.97542e-07
2.87066e-05
-2.42385e-07
2.87553e-05
-2.89409e-07
2.88078e-05
-3.38629e-07
2.88639e-05
-3.90057e-07
2.89234e-05
-4.4369e-07
2.89859e-05
-4.99515e-07
2.90511e-05
-5.57502e-07
2.91185e-05
-6.17586e-07
2.91877e-05
-6.79633e-07
2.92582e-05
-7.43261e-07
2.93298e-05
-8.0712e-07
2.94018e-05
-8.66475e-07
-9.09653e-07
2.94739e-05
3.21353e-05
6.69292e-07
3.20928e-05
8.84403e-07
3.20431e-05
5.72097e-07
3.19965e-05
4.73492e-07
3.19538e-05
4.48913e-07
3.19142e-05
4.4085e-07
3.18768e-05
4.36796e-07
3.18409e-05
4.34056e-07
3.18061e-05
4.31987e-07
3.17719e-05
4.30411e-07
3.17382e-05
4.29224e-07