/*--------------------------------*- C++ -*----------------------------------*\
  =========                 |
  \\      /  F ield         | OpenFOAM: The Open Source CFD Toolbox
   \\    /   O peration     | Website:  https://openfoam.org
    \\  /    A nd           | Version:  7
     \\/     M anipulation  |
\*---------------------------------------------------------------------------*/
FoamFile
{
    version     2.0;
    format      ascii;
    class       surfaceScalarField;
    location    "7";
    object      phi;
}
// * * * * * * * * * * * * * * * * * * * * * * * * * * * * * * * * * * * * * //

dimensions      [1 0 -1 0 0 0 0];

internalField   nonuniform List<scalar> 
23692
(
1.19208e-05
-2.86251e-07
1.24116e-05
-4.90616e-07
1.30732e-05
-6.61235e-07
1.38783e-05
-8.04578e-07
1.4807e-05
-9.28147e-07
1.58451e-05
-1.03731e-06
1.6982e-05
-1.13609e-06
1.82105e-05
-1.22754e-06
1.95253e-05
-1.31372e-06
2.09221e-05
-1.39571e-06
2.2397e-05
-1.47367e-06
2.39453e-05
-1.54696e-06
2.5561e-05
-1.61439e-06
2.72369e-05
-1.67442e-06
2.89638e-05
-1.72547e-06
3.07315e-05
-1.76612e-06
3.25284e-05
-1.79531e-06
3.43424e-05
-1.8124e-06
3.61612e-05
-1.81721e-06
3.79729e-05
-1.81001e-06
3.9766e-05
-1.79141e-06
4.153e-05
-1.76231e-06
4.32556e-05
-1.72383e-06
4.49345e-05
-1.67718e-06
4.65598e-05
-1.62362e-06
4.8126e-05
-1.56439e-06
4.96284e-05
-1.50067e-06
5.10637e-05
-1.43358e-06
5.24295e-05
-1.3641e-06
5.37243e-05
-1.29313e-06
5.49475e-05
-1.22145e-06
5.60989e-05
-1.14973e-06
5.71791e-05
-1.07852e-06
5.81891e-05
-1.00831e-06
5.91302e-05
-9.39475e-07
6.00042e-05
-8.72333e-07
6.08129e-05
-8.0713e-07
6.15585e-05
-7.44054e-07
6.22433e-05
-6.83246e-07
6.28697e-05
-6.24805e-07
6.34399e-05
-5.68792e-07
6.39566e-05
-5.15241e-07
6.44222e-05
-4.64158e-07
6.48391e-05
-4.15528e-07
6.52098e-05
-3.69316e-07
6.55365e-05
-3.25474e-07
6.58217e-05
-2.83936e-07
6.60676e-05
-2.44626e-07
6.62762e-05
-2.07453e-07
6.64496e-05
-1.72319e-07
6.65898e-05
-1.39112e-07
6.66985e-05
-1.0771e-07
6.67774e-05
-7.79766e-08
6.68281e-05
-4.97666e-08
6.68518e-05
-2.29195e-08
6.68499e-05
2.73107e-09
6.68233e-05
2.7342e-08
6.67728e-05
5.10902e-08
6.66993e-05
7.41797e-08
6.66029e-05
9.6848e-08
6.64841e-05
1.19362e-07
6.63424e-05
1.42023e-07
6.61776e-05
1.65177e-07
6.59887e-05
1.89224e-07
6.57743e-05
2.14635e-07
6.55325e-05
2.41977e-07
6.52607e-05
2.71941e-07
6.49554e-05
3.05393e-07
6.46119e-05
3.43445e-07
6.42243e-05
3.87566e-07
6.37845e-05
4.39759e-07
6.32815e-05
5.02858e-07
6.27004e-05
5.81021e-07
6.20196e-05
6.8062e-07
6.12075e-05
8.1187e-07
6.02153e-05
9.91957e-07
5.89637e-05
1.25128e-06
5.73166e-05
1.64684e-06
5.50193e-05
2.29702e-06
5.15206e-05
3.49845e-06
6.54733e-06
4.4973e-05
1.27457e-05
-5.83538e-07
1.32674e-05
-1.01207e-06
1.39726e-05
-1.36606e-06
1.48315e-05
-1.66293e-06
1.5823e-05
-1.91901e-06
1.69317e-05
-2.14522e-06
1.81465e-05
-2.34992e-06
1.94594e-05
-2.53947e-06
2.0865e-05
-2.71816e-06
2.23588e-05
-2.88824e-06
2.39365e-05
-3.05005e-06
2.55932e-05
-3.20229e-06
2.73227e-05
-3.34244e-06
2.91171e-05
-3.46731e-06
3.09668e-05
-3.57359e-06
3.28607e-05
-3.65834e-06
3.47864e-05
-3.7193e-06
3.67308e-05
-3.75514e-06
3.86808e-05
-3.76548e-06
4.06234e-05
-3.75084e-06
4.25464e-05
-3.71252e-06
4.44383e-05
-3.65239e-06
4.6289e-05
-3.57274e-06
4.80898e-05
-3.47611e-06
4.98331e-05
-3.36511e-06
5.15129e-05
-3.24233e-06
5.31243e-05
-3.11023e-06
5.46637e-05
-2.97111e-06
5.61285e-05
-2.82705e-06
5.75171e-05
-2.67989e-06
5.88288e-05
-2.53126e-06
6.00634e-05
-2.38252e-06
6.12215e-05
-2.23487e-06
6.23042e-05
-2.08927e-06
6.33131e-05
-1.94654e-06
6.42498e-05
-1.80731e-06
6.51165e-05
-1.6721e-06
6.59154e-05
-1.54131e-06
6.6649e-05
-1.41521e-06
6.73199e-05
-1.29402e-06
6.79305e-05
-1.17786e-06
6.84836e-05
-1.0668e-06
6.89818e-05
-9.60843e-07
6.94278e-05
-8.59967e-07
6.9824e-05
-7.64096e-07
7.0173e-05
-6.73124e-07
7.04773e-05
-5.86918e-07
7.07393e-05
-5.05316e-07
7.09612e-05
-4.28132e-07
7.11453e-05
-3.55159e-07
7.12935e-05
-2.86164e-07
7.14077e-05
-2.20894e-07
7.14898e-05
-1.59069e-07
7.15414e-05
-1.00386e-07
7.15639e-05
-4.45122e-08
7.15586e-05
8.89042e-09
7.15265e-05
6.01496e-08
7.14687e-05
1.09629e-07
7.13858e-05
1.57751e-07
7.12782e-05
2.05002e-07
7.11462e-05
2.51925e-07
7.09895e-05
2.99133e-07
7.08077e-05
3.47326e-07
7.06e-05
3.97311e-07
7.03648e-05
4.50034e-07
7.01004e-05
5.06621e-07
6.9804e-05
5.6844e-07
6.94723e-05
6.37187e-07
6.91007e-05
7.15012e-07
6.86835e-05
8.0472e-07
6.82132e-05
9.10061e-07
6.76797e-05
1.03621e-06
6.707e-05
1.19054e-06
6.63666e-05
1.38386e-06
6.55456e-05
1.63262e-06
6.45747e-05
1.96256e-06
6.34107e-05
2.41507e-06
6.1999e-05
3.05825e-06
6.02868e-05
4.00885e-06
5.83132e-05
5.47174e-06
7.72638e-06
5.71339e-05
1.36244e-05
-8.88862e-07
1.4175e-05
-1.56243e-06
1.49226e-05
-2.11324e-06
1.58357e-05
-2.57544e-06
1.68914e-05
-2.97404e-06
1.80731e-05
-3.32608e-06
1.93688e-05
-3.64468e-06
2.07703e-05
-3.93981e-06
2.22715e-05
-4.2182e-06
2.3868e-05
-4.4834e-06
2.55553e-05
-4.73596e-06
2.73284e-05
-4.97386e-06
2.91806e-05
-5.19312e-06
3.11037e-05
-5.38874e-06
3.30873e-05
-5.55549e-06
3.51194e-05
-5.68871e-06
3.71868e-05
-5.78484e-06
3.92752e-05
-5.84174e-06
4.13704e-05
-5.85877e-06
4.34582e-05
-5.83675e-06
4.55253e-05
-5.77767e-06
4.75593e-05
-5.68447e-06
4.95493e-05
-5.56075e-06
5.14856e-05
-5.41045e-06
5.33602e-05
-5.23769e-06
5.51664e-05
-5.04651e-06
5.68989e-05
-4.84077e-06
5.85538e-05
-4.62407e-06
6.01284e-05
-4.39965e-06
6.16209e-05
-4.1704e-06
6.30304e-05
-3.93884e-06
6.4357e-05
-3.70713e-06
6.56012e-05
-3.47712e-06
6.67641e-05
-3.25032e-06
6.78474e-05
-3.02798e-06
6.88531e-05
-2.81112e-06
6.97834e-05
-2.60052e-06
7.06406e-05
-2.39679e-06
7.14276e-05
-2.20038e-06
7.21469e-05
-2.0116e-06
7.28014e-05
-1.83064e-06
7.33939e-05
-1.65762e-06
7.39272e-05
-1.49254e-06
7.44042e-05
-1.33534e-06
7.48275e-05
-1.18592e-06
7.52e-05
-1.04411e-06
7.55242e-05
-9.09688e-07
7.58027e-05
-7.82407e-07
7.60379e-05
-6.61976e-07
7.6232e-05
-5.48068e-07
7.63874e-05
-4.40321e-07
7.6506e-05
-3.3834e-07
7.65897e-05
-2.41692e-07
7.66403e-05
-1.49903e-07
7.66592e-05
-6.24593e-08
7.66478e-05
2.11532e-08
7.66074e-05
1.0144e-07
7.65388e-05
1.78965e-07
7.64428e-05
2.54382e-07
7.632e-05
3.2843e-07
7.61706e-05
4.01932e-07
7.59944e-05
4.75812e-07
7.5791e-05
5.51114e-07
7.55596e-05
6.29037e-07
7.52989e-05
7.1097e-07
7.50072e-05
7.98552e-07
7.46821e-05
8.93746e-07
7.43204e-05
9.98948e-07
7.39183e-05
1.11714e-06
7.34709e-05
1.25212e-06
7.2972e-05
1.4088e-06
7.24144e-05
1.59373e-06
7.1789e-05
1.81577e-06
7.10855e-05
2.08715e-06
7.02929e-05
2.425e-06
6.94017e-05
2.85344e-06
6.84102e-05
3.40628e-06
6.73384e-05
4.12972e-06
6.6264e-05
5.08296e-06
6.54103e-05
6.3251e-06
7.84118e-06
6.52952e-05
1.45621e-05
-1.20055e-06
1.51394e-05
-2.13943e-06
1.59283e-05
-2.90173e-06
1.68956e-05
-3.54219e-06
1.80168e-05
-4.09442e-06
1.92737e-05
-4.58209e-06
2.06536e-05
-5.02354e-06
2.21477e-05
-5.43272e-06
2.37498e-05
-5.81905e-06
2.54554e-05
-6.18756e-06
2.726e-05
-6.53906e-06
2.91584e-05
-6.8707e-06
3.1144e-05
-7.17694e-06
3.32077e-05
-7.45068e-06
3.53385e-05
-7.68453e-06
3.75236e-05
-7.87186e-06
3.97482e-05
-8.0076e-06
4.19971e-05
-8.08866e-06
4.42545e-05
-8.11411e-06
4.65048e-05
-8.08503e-06
4.87334e-05
-8.0042e-06
5.09268e-05
-7.87573e-06
5.30728e-05
-7.70464e-06
5.51609e-05
-7.49648e-06
5.71823e-05
-7.25698e-06
5.91298e-05
-6.99181e-06
6.09975e-05
-6.70638e-06
6.27813e-05
-6.40569e-06
6.4478e-05
-6.09428e-06
6.60859e-05
-5.77617e-06
6.7604e-05
-5.45488e-06
6.90324e-05
-5.13342e-06
7.03717e-05
-4.81432e-06
7.16231e-05
-4.49972e-06
7.27885e-05
-4.19133e-06
7.38699e-05
-3.89055e-06
7.48699e-05
-3.59848e-06
7.5791e-05
-3.31595e-06
7.66361e-05
-3.04357e-06
7.74081e-05
-2.78177e-06
7.81101e-05
-2.53082e-06
7.87451e-05
-2.29085e-06
7.93162e-05
-2.06187e-06
7.98263e-05
-1.8438e-06
8.02785e-05
-1.63647e-06
8.06757e-05
-1.43965e-06
8.10206e-05
-1.25304e-06
8.13159e-05
-1.07628e-06
8.15644e-05
-9.08964e-07
8.17683e-05
-7.50642e-07
8.19301e-05
-6.00809e-07
8.20519e-05
-4.58918e-07
8.21358e-05
-3.2437e-07
8.21835e-05
-1.96517e-07
8.21967e-05
-7.46527e-08
8.21769e-05
4.19151e-08
8.21254e-05
1.53872e-07
8.20431e-05
2.61996e-07
8.19311e-05
3.67176e-07
8.17898e-05
4.70404e-07
8.16195e-05
5.72774e-07
8.14204e-05
6.75502e-07
8.1192e-05
7.79949e-07
8.09337e-05
8.87661e-07
8.06446e-05
1.0004e-06
8.03231e-05
1.12023e-06
7.99675e-05
1.24955e-06
7.95753e-05
1.39124e-06
7.91437e-05
1.54877e-06
7.86694e-05
1.72643e-06
7.81485e-05
1.92954e-06
7.75773e-05
2.1648e-06
7.69522e-05
2.44073e-06
7.6271e-05
2.76814e-06
7.55351e-05
3.16066e-06
7.47532e-05
3.63505e-06
7.39484e-05
4.21076e-06
7.31699e-05
4.90792e-06
7.25111e-05
5.74145e-06
7.21285e-05
6.70729e-06
7.74966e-06
7.22197e-05
1.55639e-05
-1.51785e-06
1.61661e-05
-2.74139e-06
1.69955e-05
-3.73063e-06
1.80172e-05
-4.56325e-06
1.92049e-05
-5.28132e-06
2.05393e-05
-5.9155e-06
2.20068e-05
-6.48985e-06
2.3598e-05
-7.0227e-06
2.53069e-05
-7.52654e-06
2.71289e-05
-8.00806e-06
2.90598e-05
-8.46839e-06
3.10946e-05
-8.90377e-06
3.32263e-05
-9.30681e-06
3.54455e-05
-9.66801e-06
3.77404e-05
-9.97744e-06
4.00967e-05
-1.02261e-05
4.24984e-05
-1.04072e-05
4.49284e-05
-1.05165e-05
4.73691e-05
-1.05527e-05
4.98034e-05
-1.05171e-05
5.22148e-05
-1.04134e-05
5.45883e-05
-1.0247e-05
5.69105e-05
-1.00246e-05
5.91699e-05
-9.75354e-06
6.13566e-05
-9.44137e-06
6.34626e-05
-9.09558e-06
6.54818e-05
-8.72329e-06
6.74095e-05
-8.3311e-06
6.92425e-05
-7.92495e-06
7.09787e-05
-7.51013e-06
7.26173e-05
-7.09123e-06
7.41583e-05
-6.67219e-06
7.56025e-05
-6.25631e-06
7.69513e-05
-5.84636e-06
7.82068e-05
-5.44459e-06
7.93711e-05
-5.05279e-06
8.04472e-05
-4.67238e-06
8.14377e-05
-4.30443e-06
8.23459e-05
-3.94974e-06
8.3175e-05
-3.60884e-06
8.39282e-05
-3.28207e-06
8.46088e-05
-2.96957e-06
8.52202e-05
-2.67137e-06
8.57656e-05
-2.38734e-06
8.62481e-05
-2.11725e-06
8.6671e-05
-1.86079e-06
8.70371e-05
-1.61756e-06
8.73496e-05
-1.3871e-06
8.7611e-05
-1.16886e-06
8.78241e-05
-9.62264e-07
8.79913e-05
-7.66649e-07
8.8115e-05
-5.81308e-07
8.81974e-05
-4.0547e-07
8.82404e-05
-2.38302e-07
8.82457e-05
-7.89045e-08
8.82151e-05
7.35948e-08
8.81499e-05
2.20062e-07
8.80512e-05
3.61496e-07
8.79202e-05
4.99024e-07
8.77574e-05
6.33875e-07
8.75635e-05
7.67392e-07
8.73385e-05
9.01048e-07
8.70824e-05
1.03647e-06
8.6795e-05
1.17549e-06
8.64756e-05
1.32013e-06
8.61234e-05
1.47272e-06
8.57372e-05
1.63592e-06
8.53158e-05
1.81279e-06
8.48577e-05
2.00692e-06
8.43616e-05
2.22252e-06
8.38265e-05
2.46453e-06
8.32524e-05
2.73878e-06
8.26409e-05
3.05206e-06
8.19967e-05
3.41213e-06
8.13296e-05
3.82745e-06
8.06578e-05
4.30653e-06
8.00119e-05
4.85641e-06
7.94396e-05
5.4799e-06
7.90097e-05
6.17097e-06
7.88091e-05
6.90752e-06
7.64017e-06
7.89182e-05
1.66351e-05
-1.84085e-06
1.72614e-05
-3.36737e-06
1.81308e-05
-4.59955e-06
1.92073e-05
-5.63897e-06
2.0463e-05
-6.53616e-06
2.18774e-05
-7.32886e-06
2.34361e-05
-8.04738e-06
2.51297e-05
-8.71496e-06
2.69522e-05
-9.34756e-06
2.88996e-05
-9.9538e-06
3.09681e-05
-1.05352e-05
3.3153e-05
-1.10868e-05
3.54474e-05
-1.15992e-05
3.78412e-05
-1.20599e-05
4.03217e-05
-1.24558e-05
4.28728e-05
-1.27751e-05
4.54767e-05
-1.30089e-05
4.81139e-05
-1.31515e-05
5.07647e-05
-1.32011e-05
5.34094e-05
-1.31595e-05
5.60297e-05
-1.30313e-05
5.86086e-05
-1.28235e-05
6.11312e-05
-1.25448e-05
6.35846e-05
-1.22045e-05
6.59579e-05
-1.18123e-05
6.82425e-05
-1.13777e-05
7.04316e-05
-1.09099e-05
7.25202e-05
-1.04172e-05
7.45048e-05
-9.90712e-06
7.63834e-05
-9.38633e-06
7.81552e-05
-8.86062e-06
7.98204e-05
-8.33493e-06
8.13798e-05
-7.8134e-06
8.28353e-05
-7.29947e-06
8.4189e-05
-6.79595e-06
8.54436e-05
-6.30507e-06
8.6602e-05
-5.82857e-06
8.76676e-05
-5.36778e-06
8.86437e-05
-4.92365e-06
8.95339e-05
-4.49684e-06
9.03416e-05
-4.08775e-06
9.10707e-05
-3.69654e-06
9.17245e-05
-3.3232e-06
9.23067e-05
-2.96758e-06
9.28207e-05
-2.62936e-06
9.32699e-05
-2.30815e-06
9.36575e-05
-2.00343e-06
9.39868e-05
-1.71461e-06
9.42606e-05
-1.44101e-06
9.44818e-05
-1.1819e-06
9.46531e-05
-9.36463e-07
9.47771e-05
-7.03812e-07
9.48559e-05
-4.83001e-07
9.48919e-05
-2.73008e-07
9.4887e-05
-7.27471e-08
9.48428e-05
1.18834e-07
9.47612e-05
3.02784e-07
9.46433e-05
4.8033e-07
9.44903e-05
6.52823e-07
9.43033e-05
8.21707e-07
9.40828e-05
9.88535e-07
9.38295e-05
1.15499e-06
9.35436e-05
1.32289e-06
9.32253e-05
1.49425e-06
9.28746e-05
1.67124e-06
9.24913e-05
1.85628e-06
9.20753e-05
2.05206e-06
9.16267e-05
2.26155e-06
9.11456e-05
2.48805e-06
9.06329e-05
2.73523e-06
9.00903e-05
3.00708e-06
8.95211e-05
3.30791e-06
8.89308e-05
3.64218e-06
8.83285e-05
4.0142e-06
8.77281e-05
4.42761e-06
8.71498e-05
4.88448e-06
8.66219e-05
5.38396e-06
8.61811e-05
5.92044e-06
8.58705e-05
6.48112e-06
8.57343e-05
7.04342e-06
7.57299e-06
8.58011e-05
1.77813e-05
-2.1703e-06
1.84315e-05
-4.0172e-06
1.93412e-05
-5.50878e-06
2.04733e-05
-6.7703e-06
2.17989e-05
-7.86084e-06
2.32965e-05
-8.82529e-06
2.49511e-05
-9.70071e-06
2.67534e-05
-1.05158e-05
2.86981e-05
-1.12907e-05
3.07821e-05
-1.2036e-05
3.30027e-05
-1.27539e-05
3.53557e-05
-1.34379e-05
3.78344e-05
-1.40758e-05
4.04281e-05
-1.46514e-05
4.31223e-05
-1.51477e-05
4.58989e-05
-1.55494e-05
4.87373e-05
-1.58448e-05
5.16149e-05
-1.60266e-05
5.45088e-05
-1.60925e-05
5.73967e-05
-1.60448e-05
6.02574e-05
-1.58894e-05
6.30717e-05
-1.56353e-05
6.58229e-05
-1.52933e-05
6.84965e-05
-1.48754e-05
7.10806e-05
-1.43938e-05
7.35659e-05
-1.38603e-05
7.5945e-05
-1.32864e-05
7.82127e-05
-1.26822e-05
8.03653e-05
-1.20572e-05
8.24011e-05
-1.14195e-05
8.43193e-05
-1.07762e-05
8.61202e-05
-1.01333e-05
8.78053e-05
-9.4959e-06
8.93765e-05
-8.86813e-06
9.08364e-05
-8.25337e-06
9.21881e-05
-7.6543e-06
9.34349e-05
-7.073e-06
9.45806e-05
-6.51105e-06
9.56289e-05
-5.96956e-06
9.65836e-05
-5.44929e-06
9.74488e-05
-4.95069e-06
9.82284e-05
-4.47393e-06
9.89264e-05
-4.01896e-06
9.95464e-05
-3.58556e-06
0.000100092
-3.17334e-06
0.000100568
-2.78178e-06
0.000100977
-2.41025e-06
0.000101322
-2.058e-06
0.000101607
-1.72423e-06
0.000101835
-1.40802e-06
0.000102008
-1.10839e-06
0.00010213
-8.24273e-07
0.000102203
-5.54546e-07
0.00010223
-2.97996e-07
0.000102212
-5.33741e-08
0.000102151
1.80551e-07
0.00010205
4.0503e-07
0.00010191
6.21517e-07
0.000101732
8.31555e-07
0.000101518
1.03677e-06
0.000101268
1.23888e-06
0.000100984
1.4397e-06
0.000100667
1.64118e-06
0.000100316
1.84538e-06
9.99331e-05
2.0545e-06
9.95188e-05
2.27088e-06
9.90741e-05
2.49703e-06
9.86002e-05
2.73557e-06
9.80991e-05
2.98925e-06
9.75735e-05
3.26087e-06
9.70273e-05
3.55322e-06
9.64662e-05
3.8689e-06
9.58982e-05
4.21008e-06
9.5334e-05
4.57817e-06
9.47881e-05
4.97327e-06
9.42787e-05
5.39352e-06
9.38281e-05
5.8343e-06
9.34608e-05
6.28732e-06
9.32017e-05
6.73983e-06
9.30705e-05
7.17432e-06
7.56948e-06
9.30736e-05
1.9008e-05
-2.50751e-06
1.96827e-05
-4.69153e-06
2.06339e-05
-6.45942e-06
2.18234e-05
-7.95897e-06
2.32217e-05
-9.2581e-06
2.48064e-05
-1.04089e-05
2.65627e-05
-1.14556e-05
2.84819e-05
-1.24334e-05
3.05598e-05
-1.33669e-05
3.27953e-05
-1.42696e-05
3.51872e-05
-1.51437e-05
3.77325e-05
-1.59811e-05
4.04245e-05
-1.67655e-05
4.32514e-05
-1.74759e-05
4.61965e-05
-1.80903e-05
4.92383e-05
-1.85887e-05
5.23521e-05
-1.89561e-05
5.55114e-05
-1.91833e-05
5.86892e-05
-1.92676e-05
6.18592e-05
-1.9212e-05
6.49971e-05
-1.90246e-05
6.80812e-05
-1.87166e-05
7.10926e-05
-1.83019e-05
7.40153e-05
-1.77953e-05
7.68365e-05
-1.72121e-05
7.95459e-05
-1.65669e-05
8.21359e-05
-1.58736e-05
8.46013e-05
-1.51447e-05
8.69385e-05
-1.43916e-05
8.91459e-05
-1.3624e-05
9.12231e-05
-1.28506e-05
9.31709e-05
-1.20784e-05
9.49912e-05
-1.13134e-05
9.66865e-05
-1.05606e-05
9.82598e-05
-9.82396e-06
9.97146e-05
-9.10653e-06
0.000101055
-8.41076e-06
0.000102285
-7.73845e-06
0.000103409
-7.09088e-06
0.000104431
-6.46889e-06
0.000105356
-5.87293e-06
0.000106187
-5.30317e-06
0.00010693
-4.75952e-06
0.000107588
-4.24165e-06
0.000108166
-3.74906e-06
0.000108668
-3.28112e-06
0.000109097
-2.83704e-06
0.000109457
-2.41594e-06
0.000109751
-2.01682e-06
0.000109984
-1.6386e-06
0.000110157
-1.28013e-06
0.000110275
-9.40162e-07
0.000110339
-6.17369e-07
0.000110353
-3.1035e-07
0.000110319
-1.77632e-08
0.000110239
2.61805e-07
0.000110115
5.29888e-07
0.00010995
7.88116e-07
0.000109744
1.03819e-06
0.0001095
1.28186e-06
0.000109219
1.52096e-06
0.000108902
1.75739e-06
0.00010855
1.9931e-06
0.000108166
2.23013e-06
0.000107751
2.47056e-06
0.000107305
2.71653e-06
0.000106832
2.97019e-06
0.000106335
3.23367e-06
0.000105815
3.509e-06
0.000105278
3.79806e-06
0.000104729
4.1024e-06
0.000104174
4.42311e-06
0.000103624
4.76058e-06
0.000103087
5.11419e-06
0.000102578
5.48201e-06
0.000102111
5.86038e-06
0.000101702
6.24364e-06
0.000101365
6.62385e-06
0.000101113
6.99079e-06
0.000100955
7.33243e-06
7.63635e-06
0.000100888
2.03211e-05
-2.8542e-06
2.10218e-05
-5.39182e-06
2.20165e-05
-7.45351e-06
2.32661e-05
-9.20769e-06
2.47408e-05
-1.07317e-05
2.64181e-05
-1.20848e-05
2.82836e-05
-1.33196e-05
3.03302e-05
-1.44783e-05
3.25562e-05
-1.55911e-05
3.49633e-05
-1.66746e-05
3.75529e-05
-1.77311e-05
4.03233e-05
-1.87493e-05
4.32677e-05
-1.97075e-05
4.63722e-05
-2.05779e-05
4.96164e-05
-2.13318e-05
5.29738e-05
-2.19434e-05
5.6414e-05
-2.23936e-05
5.9905e-05
-2.26714e-05
6.34143e-05
-2.2774e-05
6.69112e-05
-2.2706e-05
7.03677e-05
-2.24781e-05
7.37591e-05
-2.2105e-05
7.70643e-05
-2.16041e-05
8.02661e-05
-2.09941e-05
8.33506e-05
-2.02936e-05
8.63073e-05
-1.95205e-05
8.91286e-05
-1.86917e-05
9.18092e-05
-1.78222e-05
9.43461e-05
-1.69255e-05
9.67382e-05
-1.60131e-05
9.89857e-05
-1.5095e-05
0.00010109
-1.41797e-05
0.000103054
-1.32741e-05
0.00010488
-1.23838e-05
0.000106572
-1.15134e-05
0.000108135
-1.06664e-05
0.000109572
-9.8456e-06
0.00011089
-9.05296e-06
0.000112091
-8.28987e-06
0.000113182
-7.55723e-06
0.000114168
-6.8555e-06
0.000115052
-6.18479e-06
0.00011584
-5.54491e-06
0.000116536
-4.93544e-06
0.000117145
-4.35575e-06
0.000117671
-3.80503e-06
0.000118119
-3.28235e-06
0.000118492
-2.78664e-06
0.000118794
-2.31674e-06
0.000119028
-1.87138e-06
0.000119199
-1.44922e-06
0.00011931
-1.04883e-06
0.000119363
-6.68701e-07
0.000119361
-3.07258e-07
0.000119308
3.69688e-08
0.000119206
3.65558e-07
0.000119057
6.80295e-07
0.000118863
9.82975e-07
0.000118627
1.27542e-06
0.000118351
1.55947e-06
0.000118035
1.837e-06
0.000117684
2.10992e-06
0.000117297
2.38013e-06
0.000116879
2.64955e-06
0.00011643
2.92005e-06
0.000115953
3.19346e-06
0.000115452
3.4715e-06
0.00011493
3.75575e-06
0.000114392
4.04754e-06
0.000113842
4.34788e-06
0.000113287
4.65732e-06
0.000112734
4.97584e-06
0.000112192
5.30265e-06
0.00011167
5.63606e-06
0.000111179
5.97329e-06
0.000110729
6.31034e-06
0.00011033
6.642e-06
0.000109991
6.96186e-06
0.000109719
7.26261e-06
0.000109515
7.53657e-06
7.77686e-06
0.000109374
2.17268e-05
-3.2124e-06
2.24557e-05
-6.12033e-06
2.34968e-05
-8.49397e-06
2.48104e-05
-1.05203e-05
2.63666e-05
-1.22867e-05
2.81435e-05
-1.38603e-05
3.01282e-05
-1.53027e-05
3.23167e-05
-1.66649e-05
3.47113e-05
-1.79837e-05
3.73179e-05
-1.92791e-05
4.01415e-05
-2.05523e-05
4.31819e-05
-2.17872e-05
4.6431e-05
-2.2954e-05
4.98712e-05
-2.40154e-05
5.34757e-05
-2.49335e-05
5.72109e-05
-2.56756e-05
6.10385e-05
-2.62182e-05
6.49188e-05
-2.65487e-05
6.88132e-05
-2.66652e-05
7.26856e-05
-2.65752e-05
7.6504e-05
-2.62932e-05
8.02408e-05
-2.58385e-05
8.38731e-05
-2.52331e-05
8.73826e-05
-2.45002e-05
9.0755e-05
-2.36627e-05
9.39798e-05
-2.27421e-05
9.70499e-05
-2.17584e-05
9.99605e-05
-2.07296e-05
0.000102709
-1.96712e-05
0.000105296
-1.85968e-05
0.000107723
-1.75179e-05
0.00010999
-1.64441e-05
0.000112103
-1.53833e-05
0.000114064
-1.4342e-05
0.000115879
-1.3325e-05
0.000117552
-1.23365e-05
0.000119089
-1.13794e-05
0.000120495
-1.04558e-05
0.000121775
-9.56725e-06
0.000122935
-8.71459e-06
0.000123981
-7.89825e-06
0.000124917
-7.11826e-06
0.000125749
-6.37431e-06
0.000126482
-5.66583e-06
0.000127121
-4.99201e-06
0.000127671
-4.3519e-06
0.000128135
-3.74435e-06
0.000128519
-3.16812e-06
0.000128826
-2.62184e-06
0.000129061
-2.10406e-06
0.000129227
-1.61326e-06
0.000129328
-1.14782e-06
0.000129367
-7.06067e-07
0.000129348
-2.86283e-07
0.000129273
1.13233e-07
0.000129146
4.94214e-07
0.000128969
8.58587e-07
0.000128745
1.2083e-06
0.000128477
1.54527e-06
0.000128166
1.87139e-06
0.000127816
2.18853e-06
0.000127428
2.49854e-06
0.000127006
2.80322e-06
0.000126552
3.1043e-06
0.000126069
3.4034e-06
0.000125561
3.70201e-06
0.000125031
4.00143e-06
0.000124485
4.30272e-06
0.000123926
4.60661e-06
0.00012336
4.91345e-06
0.000122795
5.2231e-06
0.000122236
5.53488e-06
0.000121691
5.84743e-06
0.000121168
6.1587e-06
0.000120675
6.4659e-06
0.00012022
6.76548e-06
0.000119808
7.05327e-06
0.000119445
7.32463e-06
0.000119133
7.57474e-06
0.00011887
7.79899e-06
7.99387e-06
0.000118652
2.32314e-05
-3.5844e-06
2.39916e-05
-6.88005e-06
2.50831e-05
-9.58473e-06
2.64657e-05
-1.19019e-05
2.81102e-05
-1.39299e-05
2.99961e-05
-1.57447e-05
3.21139e-05
-1.74186e-05
3.44643e-05
-1.90133e-05
3.70562e-05
-2.05735e-05
3.99016e-05
-2.21221e-05
4.30096e-05
-2.36577e-05
4.63807e-05
-2.51556e-05
5.00034e-05
-2.65739e-05
5.3853e-05
-2.7862e-05
5.78932e-05
-2.89705e-05
6.20794e-05
-2.98587e-05
6.63634e-05
-3.04988e-05
7.06962e-05
-3.08781e-05
7.50317e-05
-3.09974e-05
7.93286e-05
-3.08686e-05
8.35508e-05
-3.05119e-05
8.76684e-05
-2.99526e-05
9.16574e-05
-2.92185e-05
9.54989e-05
-2.83382e-05
9.91792e-05
-2.73393e-05
0.000102688
-2.62476e-05
0.00010602
-2.50865e-05
0.000109171
-2.38767e-05
0.00011214
-2.26365e-05
0.000114927
-2.13811e-05
0.000117537
-2.01236e-05
0.000119971
-1.88747e-05
0.000122234
-1.76433e-05
0.000124332
-1.64364e-05
0.00012627
-1.52594e-05
0.000128053
-1.41168e-05
0.000129689
-1.30117e-05
0.000131183
-1.19462e-05
0.00013254
-1.09219e-05
0.000133769
-9.93958e-06
0.000134873
-8.99963e-06
0.00013586
-8.10189e-06
0.000136734
-7.24589e-06
0.000137502
-6.43089e-06
0.000138169
-5.65589e-06
0.000138739
-4.9197e-06
0.000139219
-4.22099e-06
0.000139611
-3.5583e-06
0.000139922
-2.93005e-06
0.000140155
-2.33461e-06
0.000140314
-1.77024e-06
0.000140404
-1.23517e-06
0.000140427
-7.27572e-07
0.000140388
-2.45576e-07
0.000140291
2.12732e-07
0.000140137
6.49258e-07
0.000139931
1.06607e-06
0.000139676
1.46521e-06
0.000139374
1.84866e-06
0.000139028
2.2183e-06
0.000138642
2.57598e-06
0.000138218
2.92346e-06
0.00013776
3.2624e-06
0.000137271
3.59431e-06
0.000136754
3.92058e-06
0.000136214
4.24238e-06
0.000135656
4.56064e-06
0.000135083
4.87601e-06
0.000134501
5.18881e-06
0.000133916
5.49897e-06
0.000133333
5.80599e-06
0.000132759
6.10892e-06
0.0001322
6.4063e-06
0.000131662
6.69622e-06
0.000131152
6.97629e-06
0.000130673
7.24377e-06
0.000130231
7.49568e-06
0.000129826
7.72892e-06
0.00012946
7.94057e-06
0.00012913
8.12807e-06
8.28993e-06
0.000128834
2.48419e-05
-3.97274e-06
2.56371e-05
-7.6748e-06
2.6784e-05
-1.07308e-05
2.82423e-05
-1.33591e-05
2.9984e-05
-1.56703e-05
3.19919e-05
-1.7751e-05
3.4262e-05
-1.96867e-05
3.68031e-05
-2.15523e-05
3.96334e-05
-2.34014e-05
4.27727e-05
-2.52588e-05
4.6234e-05
-2.71163e-05
5.00164e-05
-2.8935e-05
5.41006e-05
-3.06549e-05
5.84497e-05
-3.22079e-05
6.30132e-05
-3.35307e-05
6.77322e-05
-3.45743e-05
7.25457e-05
-3.53088e-05
7.73947e-05
-3.57234e-05
8.22254e-05
-3.58244e-05
8.69913e-05
-3.56308e-05
9.16536e-05
-3.51704e-05
9.6181e-05
-3.44761e-05
0.000100549
-3.35828e-05
0.00010474
-3.25252e-05
0.000108741
-3.13362e-05
0.000112543
-3.00461e-05
0.000116143
-2.8682e-05
0.000119537
-2.72676e-05
0.000122728
-2.58233e-05
0.000125717
-2.43664e-05
0.000128509
-2.29113e-05
0.000131108
-2.14699e-05
0.00013352
-2.00517e-05
0.000135752
-1.86643e-05
0.000137809
-1.73136e-05
0.0001397
-1.60041e-05
0.000141431
-1.47391e-05
0.000143009
-1.35207e-05
0.000144441
-1.23504e-05
0.000145734
-1.1229e-05
0.000146894
-1.01565e-05
0.000147928
-9.13263e-06
0.000148843
-8.15677e-06
0.000149643
-7.2279e-06
0.000150335
-6.3448e-06
0.000150924
-5.50604e-06
0.000151416
-4.71005e-06
0.000151815
-3.95515e-06
0.000152128
-3.23955e-06
0.000152357
-2.56139e-06
0.000152508
-1.91876e-06
0.000152585
-1.3097e-06
0.000152592
-7.32234e-07
0.000152532
-1.84381e-07
0.000152411
3.36e-07
0.000152231
8.30994e-07
0.000151996
1.30279e-06
0.00015171
1.7535e-06
0.000151375
2.18511e-06
0.000150995
2.5995e-06
0.000150574
2.99846e-06
0.000150115
3.38364e-06
0.000149622
3.75656e-06
0.000149098
4.11857e-06
0.000148549
4.47081e-06
0.000147978
4.81422e-06
0.00014739
5.14947e-06
0.000146789
5.47696e-06
0.000146182
5.79678e-06
0.000145572
6.10867e-06
0.000144966
6.41206e-06
0.000144369
6.70602e-06
0.000143786
6.98931e-06
0.000143222
7.2604e-06
0.000142681
7.51752e-06
0.000142166
7.7588e-06
0.000141679
7.9823e-06
0.000141221
8.18619e-06
0.000140793
8.36888e-06
0.000140391
8.52917e-06
8.66677e-06
0.000140014
2.65654e-05
-4.38025e-06
2.74004e-05
-8.50927e-06
2.8609e-05
-1.19385e-05
3.01516e-05
-1.49005e-05
3.20027e-05
-1.75199e-05
3.41507e-05
-1.98972e-05
3.66007e-05
-2.21346e-05
3.93739e-05
-2.43232e-05
4.25011e-05
-2.65259e-05
4.6011e-05
-2.87659e-05
4.99185e-05
-3.10207e-05
5.42154e-05
-3.32287e-05
5.8868e-05
-3.53042e-05
6.38208e-05
-3.71571e-05
6.90034e-05
-3.87096e-05
7.43395e-05
-3.99066e-05
7.97538e-05
-4.07192e-05
8.51772e-05
-4.11428e-05
9.05492e-05
-4.11924e-05
9.58197e-05
-4.08972e-05
0.000100948
-4.02949e-05
0.000105904
-3.94276e-05
0.000110664
-3.83383e-05
0.000115211
-3.70685e-05
0.000119536
-3.56567e-05
0.000123632
-3.41379e-05
0.000127497
-3.25429e-05
0.000131132
-3.08981e-05
0.000134539
-2.92264e-05
0.000137724
-2.75466e-05
0.000140691
-2.58744e-05
0.000143448
-2.42226e-05
0.000146002
-2.26014e-05
0.00014836
-2.10186e-05
0.000150531
-1.94805e-05
0.000152522
-1.79916e-05
0.000154342
-1.65551e-05
0.000155999
-1.51732e-05
0.000157499
-1.38471e-05
0.000158851
-1.25773e-05
0.000160062
-1.13638e-05
0.000161139
-1.0206e-05
0.000162088
-9.10283e-06
0.000162917
-8.05318e-06
0.000163631
-7.05549e-06
0.000164236
-6.10809e-06
0.000164739
-5.20915e-06
0.000165143
-4.35671e-06
0.000165455
-3.54877e-06
0.00016568
-2.78325e-06
0.000165822
-2.05804e-06
0.000165886
-1.37102e-06
0.000165876
-7.2006e-07
0.000165797
-1.03069e-07
0.000165653
4.82303e-07
0.000165448
1.03834e-06
0.000165185
1.56734e-06
0.000164869
2.07143e-06
0.000164503
2.55262e-06
0.000164092
3.01275e-06
0.000163638
3.45355e-06
0.000163146
3.8766e-06
0.000162621
4.28329e-06
0.000162066
4.67484e-06
0.000161485
5.05223e-06
0.000160884
5.41627e-06
0.000160267
5.76748e-06
0.000159638
6.10616e-06
0.000159003
6.43234e-06
0.000158366
6.74579e-06
0.000157733
7.04604e-06
0.000157107
7.33241e-06
0.000156492
7.60401e-06
0.000155893
7.85981e-06
0.000155311
8.09871e-06
0.000154751
8.31959e-06
0.000154211
8.5214e-06
0.000153694
8.70326e-06
0.000153198
8.86449e-06
0.000152723
9.00478e-06
9.12455e-06
0.000152265
2.84096e-05
-4.8101e-06
2.92902e-05
-9.38923e-06
3.05686e-05
-1.3216e-05
3.22069e-05
-1.65375e-05
3.41842e-05
-1.94955e-05
3.64982e-05
-2.22091e-05
3.91684e-05
-2.48026e-05
4.22339e-05
-2.7386e-05
4.57407e-05
-3.00299e-05
4.97255e-05
-3.27476e-05
5.41988e-05
-3.54906e-05
5.91363e-05
-3.81626e-05
6.44803e-05
-4.06445e-05
7.01486e-05
-4.28216e-05
7.60468e-05
-4.46038e-05
8.2079e-05
-4.59347e-05
8.8156e-05
-4.6792e-05
9.41999e-05
-4.71823e-05
0.000100146
-4.7134e-05
0.000105942
-4.66892e-05
0.00011155
-4.58978e-05
0.000116939
-4.48124e-05
0.00012209
-4.34847e-05
0.00012699
-4.19634e-05
0.000131631
-4.02931e-05
0.000136011
-3.8513e-05
0.00014013
-3.66575e-05
0.000143992
-3.47558e-05
0.000147603
-3.28326e-05
0.000150969
-3.09083e-05
0.000154099
-2.89996e-05
0.000157001
-2.71199e-05
0.000159684
-2.52797e-05
0.000162157
-2.34872e-05
0.000164429
-2.17486e-05
0.00016651
-2.00685e-05
0.000168409
-1.84497e-05
0.000170135
-1.68944e-05
0.000171695
-1.54034e-05
0.000173099
-1.39769e-05
0.000174353
-1.26146e-05
0.000175467
-1.13156e-05
0.000176446
-1.00786e-05
0.000177299
-8.90196e-06
0.000178031
-7.78394e-06
0.000178649
-6.72252e-06
0.000179159
-5.7156e-06
0.000179566
-4.76097e-06
0.000179877
-3.85635e-06
0.000180096
-2.99946e-06
0.000180229
-2.18798e-06
0.000180281
-1.41959e-06
0.000180255
-6.9201e-07
0.000180158
-3.12638e-09
0.000179993
6.49618e-07
0.000179765
1.26884e-06
0.000179477
1.85685e-06
0.000179135
2.41578e-06
0.000178742
2.94764e-06
0.000178302
3.45427e-06
0.00017782
3.93736e-06
0.0001773
4.39842e-06
0.000176746
4.83878e-06
0.000176162
5.25959e-06
0.000175554
5.66177e-06
0.000174925
6.04607e-06
0.00017428
6.413e-06
0.000173625
6.76288e-06
0.000172962
7.09584e-06
0.000172296
7.4118e-06
0.000171632
7.71053e-06
0.000170973
7.99168e-06
0.000170323
8.25478e-06
0.000169684
8.49932e-06
0.000169058
8.72479e-06
0.000168447
8.93073e-06
0.000167851
9.11677e-06
0.000167272
9.2827e-06
0.000166708
9.4285e-06
0.000166158
9.55442e-06
9.66131e-06
0.000165621
3.0383e-05
-5.26597e-06
3.13162e-05
-1.03218e-05
3.26748e-05
-1.45736e-05
3.44242e-05
-1.82855e-05
3.65514e-05
-2.16209e-05
3.90692e-05
-2.47248e-05
4.20189e-05
-2.77498e-05
4.54628e-05
-3.0827e-05
4.94637e-05
-3.40277e-05
5.40599e-05
-3.73404e-05
5.9246e-05
-4.06732e-05
6.49685e-05
-4.38813e-05
7.11346e-05
-4.68065e-05
7.76287e-05
-4.93115e-05
8.43295e-05
-5.13003e-05
9.11224e-05
-5.2723e-05
9.79067e-05
-5.35716e-05
0.000104599
-5.387e-05
0.000111133
-5.36636e-05
0.00011746
-5.30106e-05
0.000123542
-5.19748e-05
0.000129354
-5.06199e-05
0.000134882
-4.9007e-05
0.000140115
-4.71922e-05
0.000145053
-4.52253e-05
0.000149695
-4.31501e-05
0.000154047
-4.1004e-05
0.000158114
-3.88187e-05
0.000161907
-3.66203e-05
0.000165434
-3.44304e-05
0.000168706
-3.22665e-05
0.000171733
-3.01421e-05
0.000174527
-2.80681e-05
0.000177097
-2.60527e-05
0.000179455
-2.41018e-05
0.000181611
-2.22197e-05
0.000183575
-2.04091e-05
0.000185357
-1.86716e-05
0.000186966
-1.70078e-05
0.00018841
-1.54174e-05
0.0001897
-1.38998e-05
0.000190842
-1.24535e-05
0.000191845
-1.1077e-05
0.000192715
-9.76827e-06
0.00019346
-8.52516e-06
0.000194087
-7.34533e-06
0.000194601
-6.22637e-06
0.00019501
-5.16579e-06
0.000195318
-4.16105e-06
0.000195531
-3.20963e-06
0.000195656
-2.309e-06
0.000195696
-1.4567e-06
0.000195657
-6.50304e-07
0.000195544
1.1269e-07
0.000195362
8.34897e-07
0.000195114
1.51894e-06
0.000194806
2.16726e-06
0.000194442
2.78205e-06
0.000194027
3.36534e-06
0.000193564
3.91898e-06
0.000193059
4.44466e-06
0.000192515
4.94387e-06
0.000191937
5.41795e-06
0.00019133
5.86802e-06
0.000190698