/*--------------------------------*- C++ -*----------------------------------*\
  =========                 |
  \\      /  F ield         | OpenFOAM: The Open Source CFD Toolbox
   \\    /   O peration     | Website:  https://openfoam.org
    \\  /    A nd           | Version:  7
     \\/     M anipulation  |
\*---------------------------------------------------------------------------*/
FoamFile
{
    version     2.0;
    format      ascii;
    class       volScalarField;
    location    "7";
    object      T;
}
// * * * * * * * * * * * * * * * * * * * * * * * * * * * * * * * * * * * * * //

dimensions      [0 0 0 1 0 0 0];

internalField   nonuniform List<scalar> 
12013
(
300.115
300.349
300.589
300.832
301.077
301.322
301.566
301.808
302.047
302.281
302.51
302.733
302.951
303.162
303.366
303.564
303.755
303.939
304.117
304.289
304.454
304.614
304.768
304.916
305.06
305.198
305.333
305.463
305.59
305.713
305.834
305.953
306.069
306.185
306.299
306.414
306.53
306.647
306.766
306.889
307.017
307.15
307.291
307.44
307.599
307.771
307.956
308.158
308.379
308.621
308.888
309.183
309.509
309.871
310.271
310.716
311.211
311.76
312.369
313.046
313.797
314.631
315.554
316.578
317.712
318.967
320.355
321.891
323.59
325.47
327.551
329.856
332.412
335.255
338.423
341.969
345.963
350.502
355.73
361.893
369.451
300.115
300.349
300.589
300.832
301.077
301.323
301.567
301.809
302.048
302.282
302.511
302.735
302.952
303.163
303.368
303.566
303.757
303.941
304.119
304.291
304.456
304.616
304.77
304.918
305.062
305.201
305.335
305.466
305.592
305.716
305.837
305.955
306.072
306.187
306.302
306.417
306.532
306.649
306.769
306.892
307.019
307.152
307.293
307.442
307.601
307.772
307.958
308.159
308.38
308.622
308.889
309.183
309.509
309.87
310.27
310.715
311.208
311.756
312.365
313.04
313.79
314.622
315.543
316.564
317.695
318.946
320.33
321.86
323.552
325.423
327.493
329.784
332.322
335.138
338.272
341.769
345.689
350.108
355.127
360.869
367.448
300.115
300.35
300.59
300.833
301.079
301.324
301.569
301.811
302.05
302.284
302.514
302.738
302.956
303.167
303.372
303.57
303.761
303.946
304.124
304.296
304.461
304.621
304.775
304.924
305.067
305.206
305.341
305.471
305.598
305.721
305.842
305.961
306.077
306.193
306.307
306.422
306.537
306.654
306.774
306.897
307.024
307.157
307.297
307.446
307.605
307.776
307.961
308.162
308.382
308.624
308.89
309.184
309.508
309.868
310.267
310.71
311.202
311.748
312.354
313.027
313.774
314.601
315.518
316.534
317.658
318.901
320.274
321.793
323.469
325.321
327.367
329.626
332.124
334.888
337.949
341.345
345.118
349.317
353.988
359.159
364.793
300.116
300.35
300.591
300.835
301.081
301.327
301.572
301.814
302.054
302.289
302.519
302.743
302.961
303.173
303.378
303.576
303.768
303.953
304.131
304.303
304.469
304.629
304.783
304.932
305.076
305.215
305.35
305.48
305.607
305.731
305.851
305.97
306.086
306.202
306.316
306.431
306.546
306.663
306.782
306.905
307.032
307.165
307.305
307.453
307.611
307.782
307.966
308.167
308.386
308.627
308.892
309.184
309.508
309.866
310.263
310.703
311.193
311.735
312.338
313.006
313.747
314.568
315.478
316.484
317.597
318.826
320.184
321.682
323.334
325.155
327.162
329.373
331.808
334.489
337.441
340.69
344.26
348.173
352.438
357.037
361.897
300.116
300.351
300.592
300.837
301.083
301.33
301.576
301.819
302.059
302.295
302.526
302.751
302.969
303.182
303.387
303.586
303.778
303.964
304.143
304.315
304.481
304.641
304.796
304.945
305.089
305.228
305.363
305.493
305.62
305.744
305.865
305.983
306.1
306.215
306.33
306.444
306.559
306.676
306.795
306.917
307.044
307.176
307.316
307.463
307.621
307.791
307.975
308.174
308.392
308.632
308.895
309.185
309.507
309.862
310.256
310.694
311.179
311.717
312.313
312.975
313.708
314.52
315.418
316.411
317.508
318.718
320.052
321.522
323.139
324.917
326.871
329.014
331.364
333.936
336.748
339.813
343.143
346.74
350.593
354.669
358.901
300.116
300.352
300.594
300.84
301.087
301.335
301.582
301.826
302.067
302.304
302.535
302.761
302.981
303.194
303.4
303.6
303.793
303.979
304.158
304.331
304.498
304.658
304.813
304.963
305.107
305.246
305.381
305.512
305.639
305.763
305.884
306.002
306.119
306.234
306.348
306.462
306.577
306.694
306.812
306.934
307.06
307.192
307.331
307.478
307.635
307.804
307.986
308.184
308.401
308.638
308.899
309.187
309.505
309.858
310.248
310.68
311.16
311.691
312.28
312.933
313.656
314.455
315.338
316.313
317.388
318.573
319.876
321.308
322.88
324.602
326.487
328.546
330.79
333.231
335.878
338.736
341.807
345.082
348.543
352.155
355.866
300.117
300.354
300.597
300.844
301.093
301.342
301.59
301.835
302.078
302.315
302.548
302.775
302.996
303.21
303.417
303.618
303.812
303.998
304.179
304.352
304.519
304.681
304.836
304.986
305.131
305.27
305.406
305.537
305.664
305.788
305.909
306.027
306.144
306.259
306.373
306.487
306.601
306.717
306.836
306.957
307.082
307.214
307.351
307.497
307.653
307.82
308.001
308.198
308.412
308.647
308.905
309.19
309.504
309.852
310.237
310.663
311.135
311.659
312.238
312.879
313.588
314.371
315.235
316.187
317.235
318.387
319.651
321.037
322.552
324.207
326.009
327.968
330.09
332.383
334.849
337.488
340.295
343.258
346.356
349.558
352.826
300.118
300.356
300.601
300.849
301.099
301.35
301.6
301.847
302.091
302.33
302.565
302.793
303.015
303.231
303.439
303.641
303.836
304.024
304.205
304.38
304.548
304.71
304.866
305.016
305.161
305.301
305.437
305.568
305.696
305.82
305.941
306.059
306.176
306.291
306.405
306.518
306.633
306.748
306.866
306.986
307.111
307.241
307.378
307.523
307.677
307.842
308.021
308.215
308.427
308.659
308.914
309.194
309.504
309.846
310.224
310.642
311.106
311.618
312.185
312.812
313.503
314.266
315.106
316.031
317.046
318.158
319.376
320.706
322.155
323.731
325.438
327.284
329.273
331.405
333.682
336.099
338.647
341.315
344.081
346.922
349.808
300.118
300.359
300.605
300.856
301.108
301.361
301.613
301.862
302.108
302.349
302.585
302.816
303.04
303.257
303.467
303.671
303.867
304.056
304.239
304.414
304.583
304.746
304.903
305.054
305.2
305.341
305.477
305.609
305.737
305.861
305.982
306.1
306.217
306.331
306.445
306.558
306.672
306.787
306.904
307.024
307.147
307.276
307.412
307.555
307.707
307.871
308.047
308.238
308.447
308.675
308.925
309.2
309.504
309.839
310.209
310.618
311.07
311.57
312.122
312.731
313.402
314.141
314.953
315.844
316.82
317.886
319.05
320.316
321.69
323.177
324.781
326.505
328.351
330.318
332.403
334.601
336.902
339.294
341.76
344.28
346.832
300.12
300.362
300.611
300.864
301.119
301.374
301.628
301.88
302.129
302.373
302.611
302.844
303.07
303.29
303.502
303.707
303.905
304.096
304.28
304.457
304.628
304.792
304.95
305.102
305.249
305.39
305.527
305.659
305.787
305.912
306.033
306.152
306.268
306.382
306.496
306.609
306.722
306.836
306.952
307.071
307.193
307.321
307.454
307.595
307.746
307.907
308.08
308.268
308.472
308.696
308.94
309.21
309.506
309.833
310.193
310.591
311.03
311.515
312.049
312.637
313.284
313.995
314.774
315.626
316.557
317.572
318.675
319.87
321.162
322.553
324.046
325.643
327.342
329.142
331.039
333.026
335.095
337.233
339.427
341.661
343.918
300.121
300.367
300.618
300.874
301.132
301.391
301.648
301.903
302.155
302.402
302.643
302.879
303.108
303.33
303.545
303.753
303.953
304.146
304.332
304.511
304.683
304.848
305.008
305.161
305.309
305.451
305.589
305.721
305.85
305.975
306.096
306.215
306.331
306.445
306.558
306.671
306.783
306.896
307.011
307.129
307.25
307.376
307.507
307.646
307.794
307.952
308.121
308.305
308.505
308.723
308.961
309.223
309.511
309.828
310.177
310.562
310.986
311.453
311.966
312.531
313.15
313.829
314.571
315.38
316.262
317.219
318.255
319.374
320.578
321.869
323.247
324.714
326.266
327.902
329.617
331.404
333.255
335.161
337.109
339.088
341.084
300.123
300.372
300.627
300.886
301.148
301.411
301.672
301.931
302.186
302.437
302.682
302.921
303.154
303.379
303.597
303.808
304.011
304.206
304.395
304.576
304.75
304.917
305.078
305.233
305.382
305.526
305.664
305.797
305.927
306.052
306.174
306.292
306.408
306.522
306.635
306.747
306.858
306.971
307.084
307.2
307.32
307.444
307.573
307.709
307.854
308.008
308.173
308.352
308.547
308.758
308.99
309.243
309.521
309.827
310.163
310.533
310.939
311.386
311.877
312.414
313.003
313.646
314.347
315.11
315.937
316.833
317.798
318.837
319.949
321.137
322.399
323.736
325.145
326.622
328.163
329.763
331.413
333.107
334.834
336.585
338.348
300.125
300.378
300.637
300.901
301.168
301.435
301.701
301.964
302.224
302.479
302.729
302.972
303.209
303.438
303.66
303.874
304.081
304.279
304.47
304.654
304.831
305.001
305.164
305.32
305.471
305.616
305.755
305.89
306.02
306.145
306.267
306.386
306.502
306.616
306.728
306.839
306.95
307.061
307.173
307.288
307.405
307.527
307.653
307.786
307.927
308.077
308.238
308.412
308.6
308.804
309.027
309.271
309.538
309.832
310.153
310.506
310.893
311.318
311.783
312.291
312.846
313.451
314.108
314.82
315.59
316.421
317.313
318.269
319.288
320.372
321.52
322.73
323.999
325.326
326.704
328.129
329.596
331.097
332.624
334.17
335.727
300.127
300.385
300.65
300.919
301.191
301.463
301.735
302.004
302.27
302.53
302.785
303.034
303.275
303.509
303.736
303.954
304.164
304.367
304.562
304.749
304.928
305.101
305.266
305.425
305.578
305.724
305.865
306.001
306.132
306.258
306.38
306.499
306.615
306.729
306.84
306.951
307.06
307.17
307.281
307.393
307.509
307.627
307.751
307.881
308.018
308.163
308.319
308.486
308.667
308.864
309.078
309.311
309.566
309.845
310.151
310.485
310.851
311.252
311.689
312.166
312.685
313.248
313.859
314.519
315.23
315.994
316.811
317.684
318.611
319.593
320.629
321.716
322.854
324.037
325.264
326.529
327.827
329.154
330.501
331.865
333.237
300.13
300.394
300.665
300.941
301.219
301.498
301.776
302.052
302.324
302.591
302.853
303.107
303.355
303.594
303.826
304.049
304.265
304.472
304.671
304.862
305.045
305.221
305.389
305.551
305.706
305.854
305.997
306.134
306.266
306.393
306.516
306.635
306.751
306.864
306.975
307.084
307.193
307.301
307.41
307.521
307.633
307.749
307.87
307.996
308.128
308.268
308.418
308.579
308.752
308.94
309.144
309.365
309.607
309.871
310.159
310.474
310.818
311.192
311.6
312.044
312.525
313.046
313.609
314.215
314.866
315.563
316.306
317.096
317.933
318.816
319.745
320.716
321.729
322.781
323.867
324.985
326.131
327.299
328.486
329.685
330.892
300.133
300.405
300.683
300.966
301.252
301.539
301.825
302.109
302.389
302.663
302.932
303.194
303.449
303.695
303.933
304.163
304.384
304.597
304.801
304.996
305.184
305.364
305.536
305.7
305.858
306.009
306.153
306.292
306.425
306.553
306.677
306.796
306.912
307.025
307.136
307.244
307.351
307.458
307.565
307.673
307.783
307.896
308.013
308.134
308.262
308.397
308.54
308.694
308.858
309.037
309.229
309.439
309.666
309.914
310.184
310.478
310.798
311.146
311.523
311.933
312.375
312.853
313.367
313.92
314.511
315.141
315.811
316.522
317.272
318.061
318.887
319.75
320.648
321.577
322.535
323.52
324.527
325.553
326.595
327.648
328.708
300.138
300.417
300.704
300.996
301.291
301.587
301.883
302.176
302.465
302.749
303.027
303.297
303.56
303.814
304.06
304.297
304.525
304.744
304.954
305.156
305.348
305.533
305.709
305.877
306.038
306.192
306.339
306.479
306.614
306.744
306.868
306.988
307.104
307.216
307.326
307.434
307.54
307.645
307.75
307.855
307.962
308.072
308.184
308.301
308.423
308.552
308.689
308.834
308.99
309.158
309.34
309.536
309.749
309.979
310.23
310.503
310.798
311.118
311.465
311.84
312.244
312.678
313.144
313.643
314.176
314.742
315.342
315.976
316.644
317.344
318.076
318.838
319.629
320.446
321.288
322.151
323.034
323.933
324.845
325.767
326.696
300.142
300.432
300.729
301.031
301.337
301.644
301.951
302.255
302.555
302.85
303.138
303.419
303.691
303.955
304.21
304.456
304.692
304.919
305.136
305.344
305.542
305.732
305.913
306.086
306.251
306.408
306.557
306.7
306.837
306.968
307.093
307.213
307.33
307.442
307.551
307.657
307.762
307.865
307.968
308.071
308.174
308.28
308.388
308.5
308.617
308.739
308.869
309.006
309.153
309.31
309.479
309.662
309.86
310.073
310.304
310.555
310.825
311.118
311.434
311.774
312.14
312.532
312.951
313.399
313.875
314.379
314.913
315.475
316.065
316.683
317.328
317.997
318.691
319.407
320.143
320.898
321.668
322.453
323.249
324.054
324.866
300.148
300.449
300.758
301.073
301.392
301.712
302.031
302.348
302.661
302.968
303.268
303.561
303.845
304.121
304.386
304.642
304.888
305.123
305.349
305.564
305.77
305.966
306.153
306.331
306.5
306.66
306.813
306.959
307.098
307.23
307.357
307.478
307.594
307.706
307.815
307.92
308.023
308.124
308.224
308.324
308.425
308.526
308.63
308.737
308.848
308.964
309.085
309.214
309.351
309.498
309.655
309.824
310.005
310.201
310.413
310.641
310.888
311.153
311.438
311.745
312.073
312.424
312.799
313.197
313.62
314.067
314.538
315.034
315.553
316.095
316.659
317.245
317.85
318.475
319.116
319.773
320.444
321.127
321.82
322.521
323.229
300.155
300.469
300.792
301.122
301.455
301.79
302.125
302.457
302.785
303.107
303.422
303.728
304.026
304.314
304.593
304.86
305.117
305.363
305.598
305.822
306.036
306.239
306.433
306.616
306.79
306.955
307.112
307.261
307.402
307.536
307.664
307.786
307.902
308.014
308.122
308.226
308.328
308.427
308.525
308.621
308.718
308.816
308.915
309.016
309.121
309.23
309.344
309.464
309.591
309.727
309.871
310.026
310.193
310.371
310.564
310.77
310.993
311.231
311.487
311.761
312.054
312.367
312.699
313.051
313.424
313.817
314.231
314.665
315.119
315.592
316.084
316.594
317.12
317.663
318.22
318.79
319.372
319.964
320.566
321.175
321.79
300.163
300.493
300.833
301.179
301.53
301.882
302.235
302.584
302.929
303.269
303.601
303.924
304.237
304.541
304.833
305.115
305.384
305.642
305.888
306.123
306.346
306.557
306.758
306.948
307.127
307.298
307.458
307.61
307.754
307.891
308.02
308.143
308.26
308.372
308.479
308.582
308.681
308.778
308.873
308.967
309.06
309.153
309.248
309.344
309.442
309.544
309.65
309.761
309.879
310.003
310.135
310.277
310.428
310.59
310.763
310.949
311.148
311.361
311.59
311.833
312.093
312.368
312.661
312.971
313.298
313.642
314.004
314.382
314.777
315.188
315.615
316.057
316.513
316.982
317.464
317.957
318.461
318.973
319.494
320.021
320.555
300.172
300.521
300.88
301.246
301.617
301.99
302.363
302.733
303.099
303.458
303.809
304.151
304.484
304.804
305.114
305.411
305.695
305.966
306.225
306.471
306.704
306.925
307.133
307.331
307.517
307.692
307.858
308.014
308.161
308.299
308.43
308.554
308.672
308.783
308.889
308.991
309.089
309.184
309.276
309.367
309.456
309.545
309.634
309.724
309.816
309.911
310.01
310.112
310.22
310.333
310.453
310.581
310.718
310.863
311.018
311.185
311.362
311.551
311.753
311.968
312.197
312.439
312.696
312.966
313.252
313.551
313.866
314.194
314.536
314.892
315.261
315.643
316.036
316.441
316.857
317.282
317.716
318.158
318.608
319.064
319.525
300.182
300.553
300.934
301.324
301.718
302.115
302.512
302.906
303.295
303.678
304.052
304.416
304.769
305.11
305.438
305.753
306.054
306.341
306.613
306.872
307.116
307.348
307.566
307.771
307.964
308.145
308.316
308.476
308.626
308.767
308.9
309.025
309.143
309.254
309.36
309.46
309.556
309.649
309.738
309.825
309.91
309.995
310.079
310.164
310.25
310.337
310.428
310.522
310.62
310.723
310.831
310.946
311.069
311.198
311.337
311.484
311.641
311.808
311.986
312.175
312.375
312.587
312.81
313.046
313.294
313.554
313.826
314.109
314.405
314.712
315.03
315.358
315.697
316.045
316.403
316.769
317.142
317.523
317.91
318.302
318.7
300.195
300.591
300.998
301.415
301.836
302.261
302.686
303.107
303.524
303.933
304.334
304.723
305.1
305.464
305.814
306.148
306.468
306.771
307.06
307.332
307.59
307.832
308.06
308.274
308.474
308.662
308.838
309.002
309.156
309.3
309.434
309.56
309.679
309.79
309.895
309.994
310.088
310.178
310.264
310.348
310.429
310.509
310.588
310.667
310.746
310.827
310.91
310.996
311.084
311.177
311.275
311.378
311.486
311.602
311.724
311.854
311.992
312.139
312.295
312.46
312.634
312.818
313.012
313.217
313.431
313.655
313.89
314.135
314.389
314.653
314.926
315.209
315.499
315.798
316.105
316.419
316.74
317.066
317.399
317.736
318.078
300.209
300.635
301.073
301.52
301.974
302.431
302.887
303.341
303.789
304.23
304.66
305.078
305.482
305.871
306.245
306.602
306.942
307.265
307.57
307.858
308.129
308.383
308.622
308.845
309.054
309.248
309.43
309.599
309.756
309.902
310.038
310.165
310.284
310.395
310.499
310.596
310.688
310.775
310.859
310.939
311.016
311.091
311.165
311.238
311.312
311.386
311.461
311.539
311.619
311.702
311.789
311.88
311.976
312.078
312.186
312.3
312.421
312.549
312.685
312.828
312.98
313.139
313.307
313.484
313.669
313.862
314.064
314.274
314.493
314.719
314.954
315.196
315.445
315.701
315.964
316.233
316.508
316.788
317.073
317.362
317.656
300.226
300.686
301.159
301.643
302.133
302.627
303.121
303.612
304.096
304.572
305.036
305.486
305.921
306.339
306.74
307.121
307.484
307.827
308.15
308.455
308.741
309.008
309.258
309.491
309.707
309.909
310.096
310.269
310.43
310.578
310.716
310.844
310.963
311.073
311.175
311.271
311.361
311.445
311.525
311.602
311.675
311.745
311.814
311.882
311.949
312.017
312.085
312.155
312.226
312.3
312.378
312.458
312.543
312.633
312.727
312.827
312.932
313.044
313.161
313.286
313.417
313.555
313.7
313.852
314.011
314.177
314.351
314.531
314.718
314.913
315.113
315.321
315.534
315.753
315.978
316.208
316.444
316.684
316.928
317.176
317.428
300.246
300.745
301.26
301.785
302.319
302.855
303.392
303.925
304.451
304.966
305.468
305.955
306.424
306.874
307.304
307.712
308.099
308.464
308.807
309.129
309.43
309.711
309.972
310.215
310.44
310.648
310.84
311.018
311.181
311.332
311.471
311.6
311.718
311.827
311.928
312.022
312.109
312.191
312.267
312.34
312.408
312.474
312.538
312.601
312.662
312.723
312.785
312.847
312.911
312.976
313.044
313.115
313.19
313.268
313.35
313.437
313.529
313.625
313.727
313.835
313.948
314.067
314.192
314.323
314.46
314.602
314.751
314.906
315.067
315.233
315.405
315.583
315.765
315.953
316.146
316.343
316.544
316.75
316.959
317.171
317.387
300.268
300.814
301.376
301.951
302.533
303.12
303.705
304.287
304.859
305.419
305.965
306.492
306.998
307.483
307.944
308.382
308.795
309.183
309.547
309.887
310.203
310.497
310.77
311.022
311.255
311.469
311.666
311.847
312.014
312.166
312.306
312.434
312.552
312.66
312.759
312.85
312.935
313.013
313.086
313.154
313.219
313.28
313.339
313.396
313.452
313.507
313.562
313.617
313.674
313.732
313.792
313.854
313.919
313.987
314.058
314.134
314.213
314.297
314.385
314.478
314.576
314.678
314.786
314.898
315.016
315.139
315.267
315.4
315.538
315.681
315.828
315.98
316.137
316.298
316.463
316.631
316.804
316.98
317.16
317.342
317.527
300.295
300.894
301.511
302.142
302.782
303.425
304.067
304.703
305.328
305.939
306.532
307.103
307.651
308.174
308.669
309.137
309.577
309.989
310.374
310.732
311.064
311.371
311.654
311.915
312.155
312.375
312.576
312.76
312.928
313.081
313.221
313.349
313.465
313.571
313.668
313.756
313.837
313.912
313.981
314.046
314.106
314.163
314.217
314.269
314.319
314.369
314.418
314.467
314.517
314.568
314.62
314.675
314.731
314.791
314.853
314.918
314.987
315.06
315.136
315.217
315.301
315.39
315.482
315.58
315.681
315.787
315.897
316.012
316.13
316.253
316.38
316.511
316.645
316.783
316.925
317.07
317.218
317.37
317.524
317.68
317.84
300.325
300.987
301.668
302.364
303.069
303.777
304.483
305.181
305.866
306.533
307.178
307.798
308.39
308.953
309.484
309.984
310.452
310.888
311.293
311.668
312.015
312.334
312.627
312.895
313.14
313.364
313.569
313.754
313.923
314.076
314.215
314.341
314.455
314.558
314.652
314.738
314.816
314.887
314.952
315.012
315.068
315.121
315.17
315.218
315.263
315.308
315.352
315.396
315.44
315.485
315.531
315.578
315.628
315.68
315.734
315.791
315.851
315.914
315.981
316.051
316.124
316.201
316.282
316.366
316.454
316.546
316.641
316.74
316.843
316.949
317.059
317.171
317.288
317.407
317.529
317.654
317.782
317.913
318.045
318.18
318.317
300.361
301.095
301.849
302.62
303.4
304.183
304.961
305.729
306.48
307.209
307.912
308.584
309.223
309.827
310.395
310.927
311.422
311.881
312.306
312.697
313.056
313.385
313.686
313.96
314.209
314.436
314.641
314.827
314.995
315.147
315.283
315.407
315.518
315.619
315.709
315.791
315.866
315.933
315.995
316.051
316.103
316.152
316.197
316.241
316.282
316.322
316.362
316.401
316.441
316.481
316.522
316.564
316.608
316.653
316.701
316.752
316.805
316.86
316.919
316.98
317.044
317.112
317.183
317.257
317.334
317.414
317.497
317.584
317.673
317.766
317.861
317.959
318.06
318.164
318.27
318.379
318.49
318.603
318.718
318.835
318.953
300.402
301.219
302.059
302.916
303.782
304.649
305.51
306.355
307.18
307.976
308.74
309.467
310.155
310.802
311.406
311.968
312.489
312.969
313.411
313.815
314.185
314.521
314.827
315.104
315.355
315.582
315.786
315.971
316.136
316.286
316.419
316.54
316.648
316.745
316.832
316.91
316.981
317.045
317.103
317.156
317.205
317.251
317.293
317.333
317.371
317.408
317.445
317.481
317.517
317.553
317.59
317.629
317.669
317.71
317.753
317.798
317.846
317.896
317.948
318.003
318.061
318.121
318.184
318.25
318.318
318.389
318.463
318.54
318.619
318.7
318.784
318.871
318.959
319.05
319.143
319.238
319.335
319.434
319.534
319.636
319.74
300.449
301.363
302.301
303.257
304.222
305.184
306.136
307.068
307.972
308.841
309.669
310.453
311.19
311.878
312.517
313.107
313.65
314.148
314.603
315.016
315.392
315.732
316.04
316.317
316.567
316.791
316.993
317.174
317.337
317.482
317.612
317.728
317.833
317.926
318.01
318.085
318.153
318.214
318.269
318.32
318.367
318.41
318.45
318.489
318.525
318.56
318.595
318.629
318.664
318.698
318.733
318.77
318.807
318.846
318.886
318.928
318.973
319.019
319.067
319.118
319.17
319.225
319.283
319.343
319.405
319.469
319.535
319.604
319.675
319.748
319.823
319.9
319.979
320.06
320.143
320.227
320.312
320.399
320.488
320.578
320.668
300.504
301.529
302.58
303.65
304.725
305.796
306.849
307.875
308.864
309.809
310.704
311.544
312.328
313.054
313.723
314.337
314.897
315.406
315.869
316.287
316.664
317.003
317.309
317.583
317.829
318.049
318.246
318.422
318.579
318.72
318.846
318.958
319.059
319.149
319.23
319.303
319.368
319.428
319.482
319.532
319.578
319.621
319.661
319.699
319.735
319.771
319.805
319.84
319.874
319.909
319.944
319.98
320.017
320.055
320.095
320.136
320.179
320.223
320.27
320.318
320.368
320.42
320.474
320.529
320.587
320.647
320.708
320.771
320.836
320.903
320.971
321.041
321.112
321.185
321.259
321.334
321.411
321.489
321.567
321.647
321.727
300.568
301.72
302.901
304.099
305.3
306.49
307.655
308.782
309.861
310.883
311.843
312.736
313.561
314.32
315.012
315.641
316.211
316.726
317.189
317.605
317.978
318.313
318.612
318.88
319.119
319.332
319.523
319.693
319.845
319.98
320.102
320.211
320.308
320.396
320.476
320.547
320.613
320.672
320.727
320.778
320.825
320.869
320.911
320.952
320.99
321.028
321.065
321.102
321.139
321.176
321.213
321.251
321.29
321.33
321.37
321.412
321.456
321.5
321.546
321.594
321.643
321.694
321.746
321.8
321.855
321.911
321.969
322.028
322.089
322.151
322.214
322.279
322.344
322.41
322.478
322.546
322.615
322.685
322.756
322.827
322.899
300.64
301.939
303.268
304.612
305.954
307.276
308.56
309.794
310.963
312.06
313.079
314.017
314.875
315.656
316.362
316.997
317.567
318.077
318.533
318.941
319.304
319.629
319.918
320.176
320.406
320.611
320.795
320.959
321.106
321.237
321.356
321.463
321.559
321.647
321.726
321.799
321.866
321.929
321.986
322.04
322.091
322.14
322.186
322.231
322.274
322.316
322.358
322.4
322.441
322.482
322.524
322.566
322.608
322.651
322.695
322.74
322.785
322.832
322.879
322.928
322.977
323.028
323.08
323.133
323.186
323.241
323.297
323.354
323.412
323.47
323.529
323.589
323.65
323.711
323.773
323.836
323.899
323.962
324.026
324.09
324.154
300.723
302.188
303.686
305.194
306.691
308.156
309.567
310.907
312.163
313.33
314.396
315.364
316.237
317.023
317.727
318.355
318.915
319.414
319.857
320.252
320.602
320.914
321.191
321.439
321.659
321.857
322.033
322.192
322.335
322.464
322.582
322.688
322.786
322.875
322.957
323.034
323.105
323.172
323.235
323.295
323.352
323.406
323.459
323.51
323.561
323.61
323.658
323.706
323.753
323.8
323.848
323.895
323.942
323.99
324.038
324.087
324.135
324.185
324.235
324.285
324.336
324.388
324.44
324.493
324.546
324.6
324.654
324.709
324.765
324.82
324.876
324.933
324.989
325.046
325.104
325.161
325.218
325.276
325.334
325.391
325.449
300.816
302.472
304.158
305.849
307.516
309.132
310.673
312.111
313.434
314.639
315.728
316.707
317.582
318.362
319.054
319.668
320.212
320.693
321.119
321.496
321.83
322.128
322.392
322.629
322.84
323.03
323.201
323.356
323.497
323.625
323.743
323.851
323.952
324.045
324.132
324.214
324.292
324.365
324.435
324.503
324.567
324.63
324.691
324.75
324.808
324.864
324.92
324.975
325.03
325.084
325.137
325.191
325.244
325.296
325.349
325.401
325.454
325.506
325.559
325.611
325.664
325.716
325.769
325.822
325.875
325.928
325.981
326.034
326.087
326.14
326.193
326.246
326.299
326.352
326.404
326.457
326.509
326.561
326.613
326.665
326.716
300.921
302.789
304.686
306.577
308.428
310.186
311.822
313.324
314.688
315.916
317.013
317.988
318.852
319.614
320.286
320.877
321.397
321.855
322.26
322.617
322.934
323.216
323.468
323.693
323.896
324.08
324.246
324.399
324.538
324.667
324.787
324.899
325.003
325.102
325.195
325.283
325.368
325.449
325.526
325.602
325.674
325.745
325.814
325.881
325.946
326.011
326.074
326.136
326.197
326.257
326.316
326.375
326.433
326.49
326.547
326.602
326.658
326.713
326.767
326.821
326.875
326.928
326.981
327.034
327.086
327.138
327.189
327.24
327.291
327.342
327.391
327.441
327.49
327.539
327.587
327.635
327.682
327.729
327.775
327.821
327.867
301.033
303.129
305.256
307.355
309.35
311.208
312.913
314.456
315.839
317.069
318.156
319.112
319.951
320.685
321.328
321.89
322.383
322.816
323.197
323.534
323.833
324.1
324.339
324.554
324.749
324.927
325.09
325.241
325.38
325.51
325.632
325.746
325.855
325.958
326.056
326.151
326.241
326.328
326.413
326.494
326.574
326.651
326.726
326.799
326.871
326.941
327.01
327.077
327.143
327.208
327.272
327.334
327.395
327.456
327.515
327.573
327.631
327.687
327.743
327.798
327.852
327.905
327.958
328.01
328.061
328.112
328.161
328.211
328.259
328.307
328.354
328.4
328.446
328.491
328.535
328.579
328.622
328.664
328.705
328.746
328.787
301.132
303.44
305.774
308.01
310.102
312.022
313.759
315.312
316.69
317.902
318.965
319.893
320.701
321.406
322.019
322.554
323.022
323.432
323.794
324.114
324.398
324.653
324.882
325.089
325.278
325.451
325.611
325.76
325.898
326.028
326.151
326.267
326.377
326.483
326.584
326.681
326.775
326.866
326.954
327.039
327.122
327.202
327.281
327.358
327.432
327.506
327.577
327.647
327.716
327.783
327.849
327.913
327.976
328.038
328.099
328.158
328.217
328.274
328.33
328.386
328.44
328.493
328.545
328.597
328.647
328.697
328.745
328.793
328.84
328.886
328.931
328.975
329.019
329.061
329.103
329.144
329.184
329.224
329.262
329.3
329.338
379.58
387.509
394.187
400.017
405.198
409.84
414.002
417.719
421.005
423.862
426.277
428.228
429.68
430.585
430.876
430.462
429.214
426.935
423.293
417.631
408.302
401.993
397.163
393.212
389.852
386.92
384.316
381.971
379.837
377.877
376.063
374.374
372.793
371.304
369.897
368.56
367.287
366.069
364.901
363.776
362.691
361.642
360.624
359.634
358.67
357.729
356.808
355.907
355.022
354.152
353.296
352.453
351.621
350.799
349.987
349.183
348.387
347.597
346.815
346.038
345.268
344.503
343.743
342.988
342.238
341.493
340.752
340.017
339.286
338.561
337.84
337.125
336.414
335.71
335.011
334.318
333.632
332.952
332.279
331.613
330.955
330.304
329.662
329.028
328.403
327.788
327.183
326.587
326.002
325.428
324.865
324.313
323.773
323.245
322.729
322.226
321.735
321.257
320.792
320.339
319.9
319.474
319.06
318.659
318.271
317.896
317.533
317.183
316.844
316.517
316.202
315.899
315.606
315.324
315.052
314.791
314.539
314.297
314.064
313.839
313.623
313.414
313.214
313.02
312.834
312.654
312.48
312.312
312.15
311.993
311.841
311.694
311.551
311.412
311.277
311.146
311.019
310.894
310.773
310.654
310.539
310.425
310.314
310.205
310.098
309.993
309.89
309.788
309.688
309.589
309.492
309.396
309.301
309.208
309.115
309.024
308.934
308.844
308.756
308.669
308.585
374.844
381.729
387.936
393.52
398.559
403.112
407.218
410.9
414.166
417.013
419.428
421.388
422.859
423.794
424.13
423.785
422.644
420.553
417.292
412.595
406.416
401.075
396.622
392.852
389.593
386.724
384.163
381.848
379.736
377.793
375.993
374.315
372.742
371.26
369.859
368.527
367.258
366.044
364.878
363.756
362.674
361.626
360.609
359.621
358.658
357.718
356.799
355.898
355.014
354.145
353.29
352.447
351.616
350.794
349.982
349.179
348.383
347.594
346.811
346.035
345.265
344.5
343.74
342.985
342.235
341.49
340.75
340.014
339.284
338.558
337.838
337.122
336.412
335.708
335.009
334.316
333.63
332.95
332.277
331.611
330.952
330.302
329.66
329.026
328.401
327.786
327.18
326.585
326
325.426
324.863
324.311
323.771
323.243
322.727
322.224
321.733
321.255
320.79
320.338
319.899
319.472
319.059
318.658
318.27
317.895
317.532
317.181
316.843
316.516
316.201
315.898
315.605
315.323
315.052
314.79
314.539
314.296
314.063
313.839
313.622
313.414
313.213
313.02
312.833
312.653
312.48
312.312
312.15
311.993
311.841
311.694
311.551
311.412
311.278
311.147
311.019
310.895
310.773
310.655
310.539
310.425
310.314
310.205
310.098
309.993
309.89
309.788
309.688
309.59
309.493
309.397
309.302
309.208
309.116
309.024
308.934
308.844
308.756
308.669
308.585
370.761
376.648
382.221
387.4
392.172
396.545
400.528
404.126
407.338
410.155
412.561
414.531
416.033
417.022
417.444
417.229
416.291
414.525
411.828
408.153
403.717
399.412
395.528
392.085
389.028
386.292
383.822
381.574
379.512
377.607
375.837
374.183
372.629
371.163
369.775
368.455
367.194
365.988
364.829
363.713
362.635
361.592
360.579
359.594
358.634
357.697
356.779
355.881
354.998
354.131
353.277
352.435
351.605
350.784
349.973
349.17
348.375
347.586
346.805
346.029
345.259
344.494
343.734
342.98
342.23
341.485
340.745
340.01
339.28
338.554
337.834
337.118
336.408
335.704