/*--------------------------------*- C++ -*----------------------------------*\
  =========                 |
  \\      /  F ield         | OpenFOAM: The Open Source CFD Toolbox
   \\    /   O peration     | Website:  https://openfoam.org
    \\  /    A nd           | Version:  7
     \\/     M anipulation  |
\*---------------------------------------------------------------------------*/
FoamFile
{
    version     2.0;
    format      ascii;
    class       volVectorField;
    location    "7";
    object      U;
}
// * * * * * * * * * * * * * * * * * * * * * * * * * * * * * * * * * * * * * //

dimensions      [0 1 -1 0 0 0 0];

internalField   nonuniform List<vector> 
12013
(
(0.100858 -0.000231287 0)
(0.104221 -0.000405725 0)
(0.109375 -0.000558417 0)
(0.115828 -0.000693995 0)
(0.12343 -0.000817771 0)
(0.132043 -0.00093358 0)
(0.141562 -0.00104443 0)
(0.151912 -0.00115271 0)
(0.163043 -0.00126006 0)
(0.174916 -0.00136735 0)
(0.187499 -0.00147458 0)
(0.200755 -0.00158096 0)
(0.21464 -0.00168502 0)
(0.229098 -0.00178483 0)
(0.244056 -0.00187826 0)
(0.259431 -0.00196321 0)
(0.275127 -0.00203779 0)
(0.291039 -0.0021005 0)
(0.307059 -0.00215031 0)
(0.323082 -0.00218664 0)
(0.339002 -0.00220937 0)
(0.354723 -0.00221877 0)
(0.370156 -0.00221543 0)
(0.385225 -0.00220016 0)
(0.399862 -0.00217396 0)
(0.41401 -0.0021379 0)
(0.427625 -0.0020931 0)
(0.440672 -0.00204067 0)
(0.453125 -0.00198168 0)
(0.464966 -0.00191716 0)
(0.476186 -0.00184804 0)
(0.48678 -0.00177517 0)
(0.496752 -0.00169935 0)
(0.506109 -0.00162127 0)
(0.514859 -0.00154152 0)
(0.523019 -0.00146067 0)
(0.530604 -0.00137919 0)
(0.537632 -0.00129747 0)
(0.544126 -0.00121587 0)
(0.550106 -0.00113471 0)
(0.555594 -0.00105424 0)
(0.560616 -0.00097466 0)
(0.565193 -0.000896149 0)
(0.569351 -0.000818869 0)
(0.573113 -0.000742925 0)
(0.576504 -0.000668385 0)
(0.579549 -0.000595302 0)
(0.58227 -0.000523701 0)
(0.584692 -0.00045357 0)
(0.586838 -0.000384859 0)
(0.588731 -0.000317484 0)
(0.590392 -0.00025133 0)
(0.591845 -0.000186231 0)
(0.593109 -0.000121968 0)
(0.594206 -5.82653e-05 0)
(0.595154 5.19316e-06 0)
(0.595972 6.87681e-05 0)
(0.596679 0.00013287 0)
(0.59729 0.00019804 0)
(0.597823 0.000264954 0)
(0.598291 0.000334441 0)
(0.598707 0.000407506 0)
(0.599082 0.000485385 0)
(0.599425 0.000569597 0)
(0.59974 0.000662036 0)
(0.60003 0.000765086 0)
(0.600292 0.000881791 0)
(0.600519 0.0010161 0)
(0.600694 0.00117325 0)
(0.600791 0.00136033 0)
(0.60077 0.00158724 0)
(0.600571 0.00186824 0)
(0.600103 0.00222466 0)
(0.599227 0.00268982 0)
(0.597734 0.00331833 0)
(0.595285 0.00420461 0)
(0.591325 0.00552196 0)
(0.584872 0.0076148 0)
(0.574159 0.0112975 0)
(0.556076 0.0194742 0)
(0.537903 0.0521779 0)
(0.100782 -0.000704744 0)
(0.104128 -0.00124195 0)
(0.109255 -0.00170968 0)
(0.115686 -0.0021243 0)
(0.123268 -0.00250259 0)
(0.131864 -0.00285626 0)
(0.141366 -0.00319456 0)
(0.151702 -0.00352484 0)
(0.162821 -0.00385218 0)
(0.174685 -0.00417918 0)
(0.187262 -0.00450588 0)
(0.200516 -0.00482988 0)
(0.214403 -0.00514671 0)
(0.228868 -0.00545054 0)
(0.243839 -0.00573486 0)
(0.259231 -0.0059933 0)
(0.274949 -0.00622016 0)
(0.290887 -0.00641092 0)
(0.306937 -0.00656242 0)
(0.322991 -0.00667295 0)
(0.338946 -0.00674217 0)
(0.354702 -0.0067709 0)
(0.370171 -0.00676092 0)
(0.385275 -0.00671473 0)
(0.399946 -0.00663533 0)
(0.414128 -0.00652595 0)
(0.427775 -0.00638999 0)
(0.440852 -0.00623081 0)
(0.453333 -0.00605165 0)
(0.4652 -0.00585557 0)
(0.476444 -0.00564544 0)
(0.487061 -0.00542385 0)
(0.497053 -0.00519314 0)
(0.506427 -0.00495544 0)
(0.515193 -0.0047126 0)
(0.523367 -0.00446625 0)
(0.530963 -0.00421784 0)
(0.538002 -0.00396862 0)
(0.544504 -0.00371965 0)
(0.55049 -0.00347187 0)
(0.555983 -0.00322605 0)
(0.561007 -0.00298285 0)
(0.565585 -0.00274281 0)
(0.569742 -0.00250638 0)
(0.573502 -0.00227389 0)
(0.576889 -0.00204559 0)
(0.579927 -0.00182163 0)
(0.582641 -0.00160208 0)
(0.585053 -0.00138689 0)
(0.587187 -0.00117593 0)
(0.589065 -0.000968943 0)
(0.590711 -0.000765573 0)
(0.592144 -0.000565304 0)
(0.593388 -0.000367462 0)
(0.59446 -0.000171202 0)
(0.595382 2.4428e-05 0)
(0.596171 0.000220486 0)
(0.596845 0.000418214 0)
(0.597422 0.000619251 0)
(0.597916 0.000825658 0)
(0.598342 0.00103995 0)
(0.598713 0.00126516 0)
(0.599039 0.00150505 0)
(0.59933 0.00176418 0)
(0.599591 0.00204827 0)
(0.599824 0.00236445 0)
(0.600029 0.00272178 0)
(0.600198 0.00313198 0)
(0.600319 0.00361044 0)
(0.600369 0.00417784 0)
(0.600314 0.00486272 0)
(0.600105 0.00570556 0)
(0.59967 0.00676575 0)
(0.598904 0.00813361 0)
(0.597659 0.00995208 0)
(0.59572 0.0124569 0)
(0.592786 0.0160535 0)
(0.588429 0.0214696 0)
(0.582106 0.0300875 0)
(0.573722 0.0446063 0)
(0.571161 0.0700856 0)
(0.100697 -0.00119414 0)
(0.103994 -0.00212778 0)
(0.109064 -0.00293401 0)
(0.115446 -0.00364829 0)
(0.122987 -0.00429988 0)
(0.131546 -0.00490894 0)
(0.141015 -0.00549152 0)
(0.151322 -0.00606036 0)
(0.162417 -0.0066243 0)
(0.174263 -0.00718791 0)
(0.186829 -0.00775131 0)
(0.20008 -0.00831036 0)
(0.213974 -0.00885737 0)
(0.228456 -0.00938222 0)
(0.243454 -0.00987365 0)
(0.258884 -0.0103206 0)
(0.274649 -0.0107131 0)
(0.290643 -0.0110433 0)
(0.306756 -0.0113058 0)
(0.322878 -0.0114976 0)
(0.338904 -0.0116179 0)
(0.354734 -0.0116683 0)
(0.370277 -0.0116517 0)
(0.385454 -0.0115726 0)
(0.400197 -0.0114361 0)
(0.414447 -0.0112478 0)
(0.42816 -0.0110136 0)
(0.441298 -0.0107392 0)
(0.453837 -0.0104303 0)
(0.465757 -0.0100922 0)
(0.47705 -0.0097298 0)
(0.487711 -0.00934762 0)
(0.497744 -0.00894969 0)
(0.507153 -0.00853965 0)
(0.515952 -0.00812071 0)
(0.524153 -0.00769572 0)
(0.531773 -0.00726715 0)
(0.538833 -0.00683712 0)
(0.545351 -0.0064075 0)
(0.55135 -0.00597987 0)
(0.556854 -0.00555557 0)
(0.561884 -0.00513573 0)
(0.566466 -0.00472128 0)
(0.570623 -0.00431295 0)
(0.57438 -0.00391133 0)
(0.577761 -0.00351684 0)
(0.580789 -0.00312972 0)
(0.58349 -0.00275005 0)
(0.585886 -0.00237777 0)
(0.588 -0.00201264 0)
(0.589855 -0.0016542 0)
(0.591473 -0.00130181 0)
(0.592876 -0.000954577 0)
(0.594084 -0.000611335 0)
(0.595117 -0.00027063 0)
(0.595995 6.91646e-05 0)
(0.596736 0.000409843 0)
(0.597357 0.000753582 0)
(0.597875 0.0011032 0)
(0.598307 0.0014622 0)
(0.598666 0.00183482 0)
(0.598964 0.00222621 0)
(0.599214 0.00264264 0)
(0.599424 0.00309176 0)
(0.5996 0.00358303 0)
(0.599747 0.00412818 0)
(0.599865 0.00474202 0)
(0.599951 0.00544343 0)
(0.599996 0.00625694 0)
(0.599985 0.00721495 0)
(0.599896 0.00836117 0)
(0.599698 0.00975595 0)
(0.599348 0.0114846 0)
(0.598792 0.0136708 0)
(0.597968 0.0164984 0)
(0.596814 0.0202466 0)
(0.595301 0.0253468 0)
(0.593509 0.0324713 0)
(0.591809 0.0426751 0)
(0.591314 0.0575288 0)
(0.595888 0.0784134 0)
(0.100607 -0.00169338 0)
(0.103837 -0.00305901 0)
(0.108823 -0.00422896 0)
(0.115133 -0.005266 0)
(0.12261 -0.00621172 0)
(0.131112 -0.00709552 0)
(0.140531 -0.00794095 0)
(0.150796 -0.00876671 0)
(0.161856 -0.00958582 0)
(0.173676 -0.0104051 0)
(0.186228 -0.0112248 0)
(0.19948 -0.0120389 0)
(0.213391 -0.0128362 0)
(0.227906 -0.0136019 0)
(0.242955 -0.0143194 0)
(0.258452 -0.0149724 0)
(0.2743 -0.0155463 0)
(0.290389 -0.0160295 0)
(0.306609 -0.0164138 0)
(0.322845 -0.0166948 0)
(0.338989 -0.0168716 0)
(0.35494 -0.0169462 0)
(0.370604 -0.0169231 0)
(0.385899 -0.0168086 0)
(0.400756 -0.0166103 0)
(0.415116 -0.0163365 0)
(0.428931 -0.0159957 0)
(0.442166 -0.0155965 0)
(0.454794 -0.015147 0)
(0.466797 -0.014655 0)
(0.478165 -0.0141276 0)
(0.488894 -0.0135715 0)
(0.498987 -0.0129925 0)
(0.508451 -0.012396 0)
(0.517297 -0.0117865 0)
(0.52554 -0.0111683 0)
(0.533196 -0.0105449 0)
(0.540286 -0.00991933 0)
(0.546829 -0.00929437 0)
(0.552848 -0.00867229 0)
(0.558366 -0.00805499 0)
(0.563406 -0.0074441 0)
(0.567993 -0.00684095 0)
(0.572151 -0.0062466 0)
(0.575905 -0.00566185 0)
(0.579277 -0.00508728 0)
(0.582293 -0.00452323 0)
(0.584977 -0.00396981 0)
(0.587351 -0.0034269 0)
(0.589439 -0.0028941 0)
(0.591264 -0.00237074 0)
(0.592846 -0.00185587 0)
(0.594209 -0.00134819 0)
(0.595371 -0.000846024 0)
(0.596353 -0.000347241 0)
(0.597175 0.00015047 0)
(0.597855 0.00064966 0)
(0.59841 0.0011535 0)
(0.598856 0.00166602 0)
(0.599211 0.00219219 0)
(0.599487 0.00273798 0)
(0.599698 0.00331058 0)
(0.599857 0.00391867 0)
(0.599972 0.00457279 0)
(0.600052 0.00528581 0)
(0.600102 0.00607355 0)
(0.600128 0.00695567 0)
(0.600129 0.00795689 0)
(0.600104 0.00910862 0)
(0.600048 0.0104514 0)
(0.599954 0.0120381 0)
(0.599813 0.0139392 0)
(0.599615 0.0162489 0)
(0.59936 0.0190958 0)
(0.59906 0.0226553 0)
(0.598771 0.0271668 0)
(0.598623 0.0329511 0)
(0.598897 0.0404196 0)
(0.600135 0.0500497 0)
(0.603274 0.0622399 0)
(0.609933 0.0767309 0)
(0.100515 -0.00220154 0)
(0.103671 -0.00403249 0)
(0.108553 -0.00559257 0)
(0.11477 -0.00697707 0)
(0.122164 -0.0082395 0)
(0.130591 -0.00941908 0)
(0.139946 -0.0105477 0)
(0.150155 -0.0116506 0)
(0.161171 -0.0127456 0)
(0.172963 -0.013842 0)
(0.185504 -0.0149404 0)
(0.198766 -0.0160329 0)
(0.212711 -0.0171042 0)
(0.227285 -0.0181343 0)
(0.24242 -0.0191006 0)
(0.258028 -0.0199808 0)
(0.274008 -0.0207549 0)
(0.290247 -0.0214071 0)
(0.306631 -0.0219261 0)
(0.32304 -0.022306 0)
(0.339363 -0.0225453 0)
(0.355493 -0.0226469 0)
(0.371333 -0.0226169 0)
(0.3868 -0.022464 0)
(0.401821 -0.0221984 0)
(0.416335 -0.0218313 0)
(0.430295 -0.0213742 0)
(0.443664 -0.0208388 0)
(0.456415 -0.0202361 0)
(0.468529 -0.0195764 0)
(0.479998 -0.0188696 0)
(0.490818 -0.0181243 0)
(0.500991 -0.0173486 0)
(0.510526 -0.0165494 0)
(0.519434 -0.0157332 0)
(0.52773 -0.0149052 0)
(0.535431 -0.0140704 0)
(0.542558 -0.0132329 0)
(0.549132 -0.0123961 0)
(0.555174 -0.0115632 0)
(0.560709 -0.0107366 0)
(0.565761 -0.00991856 0)
(0.570353 -0.00911073 0)
(0.57451 -0.00831451 0)
(0.578257 -0.00753092 0)
(0.581619 -0.00676072 0)
(0.584618 -0.00600432 0)
(0.587279 -0.00526183 0)
(0.589626 -0.00453303 0)
(0.591681 -0.00381737 0)
(0.593467 -0.00311396 0)
(0.595006 -0.0024215 0)
(0.596319 -0.00173826 0)
(0.597427 -0.001062 0)
(0.598349 -0.000389905 0)
(0.599105 0.000281 0)
(0.599713 0.000954013 0)
(0.600191 0.00163333 0)
(0.600556 0.00232424 0)
(0.600824 0.00303311 0)
(0.601009 0.00376753 0)
(0.601126 0.00453656 0)
(0.601186 0.00535104 0)
(0.601201 0.00622396 0)
(0.601182 0.00717098 0)
(0.601137 0.00821107 0)
(0.601075 0.00936737 0)
(0.601001 0.0106683 0)
(0.600923 0.0121492 0)
(0.600846 0.0138538 0)
(0.600779 0.0158373 0)
(0.600733 0.0181693 0)
(0.60073 0.0209377 0)
(0.600806 0.0242525 0)
(0.601025 0.0282502 0)
(0.601495 0.0330937 0)
(0.602396 0.0389653 0)
(0.604007 0.0460422 0)
(0.606746 0.0544361 0)
(0.611169 0.0640698 0)
(0.617932 0.0744483 0)
(0.100422 -0.00271859 0)
(0.103504 -0.00504603 0)
(0.108272 -0.00702364 0)
(0.114379 -0.00878169 0)
(0.121674 -0.0103852 0)
(0.130014 -0.0118837 0)
(0.139291 -0.0133179 0)
(0.149436 -0.0147207 0)
(0.160405 -0.0161152 0)
(0.17217 -0.0175139 0)
(0.18471 -0.0189177 0)
(0.198002 -0.0203166 0)
(0.212011 -0.021691 0)
(0.226687 -0.0230145 0)
(0.241959 -0.0242576 0)
(0.257738 -0.025391 0)
(0.273917 -0.0263884 0)
(0.29038 -0.0272291 0)
(0.307003 -0.0278982 0)
(0.323661 -0.028388 0)
(0.340236 -0.0286966 0)
(0.356614 -0.028828 0)
(0.372697 -0.0287901 0)
(0.388395 -0.0285942 0)
(0.403634 -0.0282537 0)
(0.418352 -0.0277832 0)
(0.4325 -0.0271977 0)
(0.44604 -0.0265122 0)
(0.458946 -0.0257408 0)
(0.4712 -0.0248971 0)
(0.482793 -0.0239934 0)
(0.493722 -0.0230411 0)
(0.503992 -0.0220502 0)
(0.51361 -0.0210298 0)
(0.52259 -0.0199879 0)
(0.530946 -0.0189314 0)
(0.538698 -0.0178663 0)
(0.545866 -0.0167979 0)
(0.552471 -0.0157306 0)
(0.558537 -0.0146683 0)
(0.564088 -0.0136141 0)
(0.569148 -0.0125707 0)
(0.573742 -0.0115401 0)
(0.577894 -0.0105242 0)
(0.58163 -0.00952424 0)
(0.584973 -0.00854098 0)
(0.587949 -0.00757495 0)
(0.590581 -0.00662623 0)
(0.592892 -0.00569452 0)
(0.594906 -0.0047791 0)
(0.596645 -0.00387881 0)
(0.598131 -0.00299198 0)
(0.599386 -0.00211643 0)
(0.60043 -0.00124936 0)
(0.601282 -0.000387339 0)
(0.601963 0.000473277 0)
(0.602492 0.00133652 0)
(0.602885 0.00220765 0)
(0.60316 0.0030931 0)
(0.603334 0.00400052 0)
(0.603422 0.00493894 0)
(0.603439 0.00591897 0)
(0.603398 0.00695315 0)
(0.603313 0.0080563 0)
(0.603197 0.00924596 0)
(0.603062 0.010543 0)
(0.60292 0.0119722 0)
(0.602784 0.0135634 0)
(0.602668 0.0153519 0)
(0.602589 0.0173805 0)
(0.602569 0.0196998 0)
(0.602634 0.0223702 0)
(0.602827 0.0254622 0)
(0.603204 0.0290565 0)
(0.603848 0.0332408 0)
(0.604876 0.0381033 0)
(0.606449 0.0437183 0)
(0.60878 0.0501202 0)
(0.612127 0.0572628 0)
(0.61677 0.0649606 0)
(0.622936 0.0728232 0)
(0.100327 -0.00324529 0)
(0.103343 -0.00609869 0)
(0.107993 -0.00852205 0)
(0.113981 -0.0106809 0)
(0.121167 -0.0126518 0)
(0.129409 -0.0144943 0)
(0.138601 -0.0162593 0)
(0.148679 -0.0179878 0)
(0.159602 -0.0197095 0)
(0.17135 -0.0214403 0)
(0.18391 -0.0231821 0)
(0.197265 -0.0249222 0)
(0.211386 -0.0266357 0)
(0.226224 -0.0282889 0)
(0.241708 -0.0298438 0)
(0.257741 -0.0312626 0)
(0.274211 -0.0325116 0)
(0.290991 -0.0335638 0)
(0.307946 -0.0344008 0)
(0.324944 -0.0350125 0)
(0.341856 -0.035397 0)
(0.358564 -0.0355594 0)
(0.37496 -0.0355103 0)
(0.390954 -0.0352641 0)
(0.406467 -0.0348381 0)
(0.421436 -0.0342507 0)
(0.435813 -0.033521 0)
(0.449558 -0.0326677 0)
(0.462647 -0.0317087 0)
(0.475063 -0.0306608 0)
(0.486797 -0.0295394 0)
(0.49785 -0.0283586 0)
(0.508225 -0.027131 0)
(0.517934 -0.0258675 0)
(0.526989 -0.024578 0)
(0.535407 -0.0232711 0)
(0.543209 -0.0219541 0)
(0.550415 -0.0206335 0)
(0.557049 -0.0193145 0)
(0.563134 -0.0180019 0)
(0.568695 -0.0166994 0)
(0.573757 -0.0154102 0)
(0.578345 -0.0141369 0)
(0.582484 -0.0128815 0)
(0.5862 -0.0116454 0)
(0.589517 -0.0104297 0)
(0.592459 -0.00923482 0)
(0.595052 -0.00806089 0)
(0.597318 -0.00690747 0)
(0.599281 -0.00577363 0)
(0.600963 -0.00465792 0)
(0.602387 -0.00355832 0)
(0.603573 -0.00247221 0)
(0.604543 -0.00139625 0)
(0.605316 -0.000326503 0)
(0.605914 0.000741343 0)
(0.606354 0.00181208 0)
(0.606655 0.00289193 0)
(0.606835 0.00398836 0)
(0.60691 0.00511009 0)
(0.606896 0.00626723 0)
(0.606811 0.00747152 0)
(0.606668 0.00873662 0)
(0.606484 0.0100784 0)
(0.606274 0.0115151 0)
(0.606054 0.0130682 0)
(0.60584 0.0147622 0)
(0.605651 0.0166256 0)
(0.605507 0.018691 0)
(0.605433 0.0209958 0)
(0.60546 0.0235818 0)
(0.605624 0.0264953 0)
(0.605975 0.0297854 0)
(0.606576 0.0335017 0)
(0.607506 0.0376891 0)
(0.608865 0.0423802 0)
(0.610774 0.0475825 0)
(0.613368 0.0532628 0)
(0.616786 0.0593263 0)
(0.621143 0.0655979 0)
(0.626483 0.0718145 0)
(0.10023 -0.00378335 0)
(0.103191 -0.00719093 0)
(0.107726 -0.010089 0)
(0.113591 -0.012677 0)
(0.120663 -0.0150433 0)
(0.128802 -0.0172575 0)
(0.137908 -0.0193812 0)
(0.14792 -0.0214653 0)
(0.158808 -0.0235467 0)
(0.170561 -0.0256463 0)
(0.183177 -0.0277665 0)
(0.196648 -0.0298917 0)
(0.210951 -0.0319902 0)
(0.226038 -0.034019 0)
(0.241833 -0.0359293 0)
(0.258231 -0.037673 0)
(0.275106 -0.039207 0)
(0.292317 -0.0404974 0)
(0.309716 -0.0415212 0)
(0.327157 -0.0422664 0)
(0.3445 -0.0427313 0)
(0.36162 -0.0429231 0)
(0.378402 -0.0428556 0)
(0.394753 -0.0425474 0)
(0.410591 -0.0420202 0)
(0.425853 -0.0412974 0)
(0.44049 -0.0404026 0)
(0.454466 -0.039359 0)
(0.467756 -0.0381885 0)
(0.480346 -0.0369119 0)
(0.49223 -0.0355478 0)
(0.50341 -0.0341132 0)
(0.513891 -0.0326232 0)
(0.523687 -0.0310914 0)
(0.532813 -0.0295292 0)
(0.541288 -0.0279471 0)
(0.549132 -0.0263537 0)
(0.556368 -0.0247565 0)
(0.56302 -0.0231621 0)
(0.569114 -0.0215757 0)
(0.574674 -0.0200019 0)
(0.579727 -0.0184444 0)
(0.584298 -0.016906 0)
(0.588413 -0.0153891 0)
(0.592097 -0.0138954 0)
(0.595376 -0.0124259 0)
(0.598275 -0.0109812 0)
(0.600817 -0.00956127 0)
(0.603027 -0.00816558 0)
(0.604929 -0.00679297 0)
(0.606544 -0.00544173 0)
(0.607895 -0.0041095 0)
(0.609003 -0.0027932 0)
(0.60989 -0.001489 0)
(0.610576 -0.000192704 0)
(0.611083 0.00110059 0)
(0.611428 0.00239658 0)
(0.611631 0.00370234 0)
(0.611709 0.00502612 0)
(0.611681 0.00637738 0)
(0.611564 0.00776691 0)
(0.611375 0.00920708 0)
(0.611131 0.0107119 0)
(0.610849 0.0122975 0)
(0.610549 0.0139817 0)
(0.610248 0.0157849 0)
(0.609966 0.0177298 0)
(0.609727 0.0198416 0)
(0.609555 0.0221479 0)
(0.60948 0.0246781 0)
(0.609535 0.0274633 0)
(0.609762 0.0305344 0)
(0.610209 0.0339202 0)
(0.610933 0.0376446 0)
(0.611999 0.0417213 0)
(0.613482 0.0461486 0)
(0.61546 0.0509014 0)
(0.618008 0.0559235 0)
(0.621187 0.0611207 0)
(0.625029 0.0663584 0)
(0.629508 0.071471 0)
(0.100129 -0.00433526 0)
(0.103051 -0.00832452 0)
(0.107478 -0.0117271 0)
(0.113222 -0.0147738 0)
(0.120179 -0.0175654 0)
(0.128218 -0.0201815 0)
(0.137241 -0.0226957 0)
(0.147198 -0.0251703 0)
(0.158072 -0.0276514 0)
(0.169866 -0.0301653 0)
(0.182594 -0.0327156 0)
(0.196259 -0.0352822 0)
(0.210844 -0.0378243 0)
(0.226298 -0.0402865 0)
(0.242534 -0.0426062 0)
(0.259434 -0.0447217 0)
(0.276852 -0.046579 0)
(0.294625 -0.0481359 0)
(0.312589 -0.0493648 0)
(0.33058 -0.0502521 0)
(0.348448 -0.0507975 0)
(0.366057 -0.0510112 0)
(0.383288 -0.0509117 0)
(0.400044 -0.0505229 0)
(0.416244 -0.0498723 0)
(0.431825 -0.0489889 0)
(0.44674 -0.0479018 0)
(0.460955 -0.0466393 0)
(0.47445 -0.0452281 0)
(0.487213 -0.0436929 0)
(0.499241 -0.0420561 0)
(0.510538 -0.0403379 0)
(0.521114 -0.0385563 0)
(0.530985 -0.0367269 0)
(0.540167 -0.0348636 0)
(0.548682 -0.0329782 0)
(0.556552 -0.0310809 0)
(0.563802 -0.0291804 0)
(0.570458 -0.0272842 0)
(0.576544 -0.0253984 0)
(0.582089 -0.023528 0)
(0.587117 -0.0216773 0)
(0.591657 -0.0198496 0)
(0.595733 -0.0180474 0)
(0.599373 -0.0162726 0)
(0.602601 -0.0145263 0)
(0.605443 -0.012809 0)
(0.607924 -0.0111207 0)
(0.610067 -0.00946058 0)
(0.611896 -0.00782742 0)
(0.613435 -0.00621921 0)
(0.614704 -0.00463325 0)
(0.615727 -0.00306606 0)
(0.616525 -0.00151338 0)
(0.617117 2.90818e-05 0)
(0.617528 0.00156665 0)
(0.617773 0.00310599 0)
(0.617874 0.00465483 0)
(0.617849 0.00622192 0)
(0.617717 0.00781709 0)
(0.617496 0.00945139 0)
(0.617204 0.0111372 0)
(0.616861 0.0128882 0)
(0.616485 0.0147197 0)
(0.616096 0.0166483 0)
(0.615716 0.0186922 0)
(0.615367 0.0208709 0)
(0.615075 0.0232049 0)
(0.614866 0.0257155 0)
(0.614771 0.0284238 0)
(0.614824 0.0313498 0)
(0.615064 0.0345109 0)
(0.615532 0.0379197 0)
(0.616276 0.0415818 0)
(0.617343 0.045492 0)
(0.618781 0.0496316 0)
(0.620637 0.0539641 0)
(0.622943 0.0584336 0)
(0.625719 0.0629632 0)
(0.628958 0.0674582 0)
(0.632613 0.0718179 0)
(0.100023 -0.00490407 0)
(0.10292 -0.0095026 0)
(0.107253 -0.0134407 0)
(0.112881 -0.016977 0)
(0.119729 -0.0202258 0)
(0.127673 -0.0232772 0)
(0.136626 -0.0262186 0)
(0.146549 -0.0291259 0)
(0.157445 -0.0320564 0)
(0.169339 -0.0350434 0)
(0.182262 -0.0380906 0)
(0.196231 -0.0411714 0)
(0.211232 -0.0442319 0)
(0.227204 -0.0471995 0)
(0.244045 -0.0499931 0)
(0.261608 -0.0525342 0)
(0.27972 -0.0547554 0)
(0.298195 -0.0566057 0)
(0.316843 -0.0580534 0)
(0.335484 -0.0590847 0)
(0.353954 -0.0597023 0)
(0.372112 -0.0599214 0)
(0.389834 -0.059767 0)
(0.407022 -0.05927 0)
(0.423597 -0.0584649 0)
(0.4395 -0.0573876 0)
(0.454688 -0.0560736 0)
(0.469132 -0.0545568 0)
(0.482814 -0.0528693 0)
(0.495729 -0.0510402 0)
(0.507877 -0.0490958 0)
(0.519268 -0.0470599 0)
(0.529913 -0.0449531 0)
(0.539832 -0.0427936 0)
(0.549045 -0.0405973 0)
(0.557575 -0.0383777 0)
(0.565447 -0.0361465 0)
(0.572688 -0.0339135 0)
(0.579323 -0.031687 0)
(0.585382 -0.0294739 0)
(0.59089 -0.02728 0)
(0.595876 -0.0251097 0)
(0.600366 -0.0229667 0)
(0.604388 -0.0208539 0)
(0.607968 -0.018773 0)
(0.611133 -0.0167254 0)
(0.613906 -0.0147114 0)
(0.616314 -0.012731 0)
(0.618381 -0.0107833 0)
(0.62013 -0.00886669 0)
(0.621584 -0.00697904 0)
(0.622766 -0.00511738 0)
(0.623698 -0.003278 0)
(0.624402 -0.00145636 0)
(0.6249 0.000352188 0)
(0.625212 0.00215328 0)
(0.625358 0.00395417 0)
(0.625358 0.00576302 0)
(0.625231 0.00758877 0)
(0.624997 0.00944125 0)
(0.624675 0.0113313 0)
(0.624284 0.0132706 0)
(0.623845 0.0152721 0)
(0.623379 0.0173495 0)
(0.622905 0.0195173 0)
(0.622447 0.0217907 0)
(0.622029 0.0241853 0)
(0.621676 0.0267165 0)
(0.621416 0.029399 0)
(0.621276 0.0322462 0)
(0.62129 0.0352687 0)
(0.621489 0.0384734 0)
(0.621907 0.0418618 0)
(0.622579 0.0454285 0)
(0.623537 0.049159 0)
(0.624809 0.0530288 0)
(0.626416 0.0570021 0)
(0.628369 0.0610314 0)
(0.630666 0.0650599 0)
(0.633284 0.069024 0)
(0.636178 0.0728635 0)
(0.0999094 -0.00549332 0)
(0.1028 -0.0107295 0)
(0.107054 -0.0152354 0)
(0.112575 -0.0192942 0)
(0.119324 -0.0230348 0)
(0.127187 -0.0265595 0)
(0.136089 -0.0299714 0)
(0.146013 -0.0333636 0)
(0.156988 -0.0368077 0)
(0.169067 -0.0403445 0)
(0.182304 -0.0439765 0)
(0.196727 -0.0476657 0)
(0.212317 -0.0513385 0)
(0.228996 -0.0548982 0)
(0.246627 -0.0582394 0)
(0.265029 -0.0612628 0)
(0.283992 -0.0638859 0)
(0.303297 -0.0660497 0)
(0.32273 -0.0677199 0)
(0.342095 -0.0688854 0)
(0.361218 -0.0695543 0)
(0.379952 -0.0697498 0)
(0.398174 -0.0695056 0)
(0.415789 -0.0688614 0)
(0.432723 -0.0678606 0)
(0.448923 -0.0665469 0)
(0.464351 -0.064963 0)
(0.478985 -0.0631495 0)
(0.492816 -0.0611438 0)
(0.505841 -0.0589799 0)
(0.518068 -0.0566884 0)
(0.52951 -0.0542963 0)
(0.540185 -0.0518273 0)
(0.550113 -0.0493021 0)
(0.559319 -0.0467384 0)
(0.567829 -0.0441514 0)
(0.57567 -0.0415542 0)
(0.582869 -0.0389576 0)
(0.589456 -0.0363708 0)
(0.59546 -0.0338013 0)
(0.600908 -0.0312554 0)
(0.605829 -0.028738 0)
(0.610251 -0.0262528 0)
(0.614201 -0.0238029 0)
(0.617706 -0.0213903 0)
(0.620793 -0.019016 0)
(0.623487 -0.0166806 0)
(0.625812 -0.0143838 0)
(0.627794 -0.0121245 0)
(0.629456 -0.00990109 0)
(0.630822 -0.00771113 0)
(0.631914 -0.00555153 0)
(0.632755 -0.00341845 0)
(0.633364 -0.00130732 0)
(0.633769 0.000787055 0)
(0.633986 0.00287062 0)
(0.634036 0.00495081 0)
(0.63394 0.00703589 0)
(0.633717 0.00913469 0)
(0.633388 0.0112567 0)
(0.632973 0.0134119 0)
(0.632491 0.0156113 0)
(0.631964 0.0178661 0)
(0.631413 0.020188 0)
(0.630859 0.0225891 0)
(0.630325 0.0250811 0)
(0.629835 0.0276755 0)
(0.629413 0.0303828 0)
(0.629085 0.0332121 0)
(0.628877 0.0361702 0)
(0.628815 0.0392607 0)
(0.628926 0.0424835 0)
(0.629234 0.0458336 0)
(0.629764 0.0493002 0)
(0.630534 0.0528659 0)
(0.631559 0.0565069 0)
(0.632846 0.0601926 0)
(0.634393 0.0638866 0)
(0.636188 0.0675486 0)
(0.638206 0.0711375 0)
(0.640407 0.0746176 0)
(0.0997866 -0.00610693 0)
(0.102688 -0.0120109 0)
(0.106881 -0.017119 0)
(0.112309 -0.0217356 0)
(0.118973 -0.0260062 0)
(0.126775 -0.0300478 0)
(0.135659 -0.0339836 0)
(0.145638 -0.0379282 0)
(0.156777 -0.0419705 0)
(0.169164 -0.0461592 0)
(0.182876 -0.050491 0)
(0.197948 -0.0549082 0)
(0.214341 -0.0593077 0)
(0.23194 -0.0635587 0)
(0.250561 -0.0675249 0)
(0.269974 -0.0710831 0)
(0.289924 -0.0741361 0)
(0.31016 -0.076619 0)
(0.330444 -0.078499 0)
(0.350567 -0.0797714 0)
(0.37035 -0.0804541 0)
(0.389645 -0.0805813 0)
(0.408336 -0.080198 0)
(0.426335 -0.0793553 0)
(0.443575 -0.0781063 0)
(0.460012 -0.0765041 0)
(0.475619 -0.0745994 0)
(0.490381 -0.0724397 0)
(0.504297 -0.0700682 0)
(0.517371 -0.0675239 0)
(0.529616 -0.0648416 0)
(0.541052 -0.0620517 0)
(0.5517 -0.0591808 0)
(0.561586 -0.0562518 0)
(0.570737 -0.0532845 0)
(0.579182 -0.0502954 0)
(0.58695 -0.0472989 0)
(0.594071 -0.0443068 0)
(0.600575 -0.0413289 0)
(0.606493 -0.0383733 0)
(0.611853 -0.0354466 0)
(0.616685 -0.0325541 0)
(0.621016 -0.0296996 0)
(0.624876 -0.0268862 0)
(0.628291 -0.0241158 0)
(0.631287 -0.0213897 0)
(0.63389 -0.0187081 0)
(0.636125 -0.0160705 0)
(0.638017 -0.013476 0)
(0.639589 -0.0109225 0)
(0.640864 -0.00840772 0)
(0.641867 -0.00592835 0)
(0.642618 -0.00348055 0)
(0.643138 -0.00105981 0)
(0.643455 0.00133945 0)
(0.643584 0.00372343 0)
(0.643547 0.00609957 0)
(0.643364 0.00847592 0)
(0.643056 0.0108608 0)
(0.642644 0.0132631 0)
(0.642146 0.0156918 0)
(0.641585 0.0181564 0)
(0.64098 0.0206663 0)
(0.640353 0.0232312 0)
(0.639725 0.0258601 0)
(0.639119 0.0285617 0)
(0.638556 0.0313437 0)
(0.638059 0.0342123 0)
(0.637651 0.0371721 0)
(0.637353 0.0402251 0)
(0.637188 0.0433705 0)
(0.637174 0.046604 0)
(0.63733 0.0499175 0)
(0.637671 0.0532988 0)
(0.638207 0.0567315 0)
(0.638943 0.0601949 0)
(0.639878 0.0636652 0)
(0.641006 0.067116 0)
(0.64231 0.0705199 0)
(0.643769 0.0738505 0)
(0.645349 0.0770876 0)
(0.0996519 -0.00674921 0)
(0.102583 -0.0133539 0)
(0.106736 -0.0191008 0)
(0.112087 -0.024314 0)
(0.118685 -0.0291583 0)
(0.126457 -0.0337696 0)
(0.135372 -0.0382972 0)
(0.145487 -0.0428834 0)
(0.156912 -0.0476379 0)
(0.169777 -0.0526144 0)
(0.184178 -0.0577945 0)
(0.200137 -0.063087 0)
(0.217577 -0.0683443 0)
(0.236321 -0.0733911 0)
(0.256122 -0.0780538 0)
(0.276688 -0.0821847 0)
(0.297722 -0.0856754 0)
(0.31894 -0.0884604 0)
(0.340087 -0.0905143 0)
(0.360948 -0.0918446 0)
(0.381345 -0.0924834 0)
(0.401139 -0.0924799 0)
(0.420224 -0.0918932 0)
(0.438522 -0.0907873 0)
(0.45598 -0.089227 0)
(0.472565 -0.0872754 0)
(0.488261 -0.0849915 0)
(0.503064 -0.0824301 0)
(0.516979 -0.0796404 0)
(0.530021 -0.0766663 0)
(0.542208 -0.0735465 0)
(0.553566 -0.070315 0)
(0.564121 -0.0670007 0)
(0.573902 -0.0636289 0)
(0.58294 -0.0602209 0)
(0.591266 -0.0567947 0)
(0.598913 -0.0533655 0)
(0.605912 -0.049946 0)
(0.612294 -0.0465464 0)
(0.618091 -0.0431754 0)
(0.623332 -0.0398397 0)
(0.628047 -0.0365447 0)
(0.632266 -0.0332943 0)
(0.636015 -0.0300917 0)
(0.639323 -0.0269386 0)
(0.642215 -0.0238362 0)
(0.644717 -0.0207845 0)
(0.646855 -0.017783 0)
(0.648653 -0.0148305 0)
(0.650133 -0.0119251 0)
(0.65132 -0.00906407 0)
(0.652236 -0.00624431 0)
(0.652904 -0.00346204 0)
(0.653343 -0.000712997 0)
(0.653581 0.00200872 0)
(0.653632 0.00470953 0)
(0.65352 0.0073967 0)
(0.653265 0.0100778 0)
(0.652886 0.0127603 0)
(0.652405 0.0154522 0)
(0.65184 0.0181612 0)
(0.651213 0.0208953 0)
(0.650544 0.0236619 0)
(0.649853 0.0264685 0)
(0.649161 0.0293216 0)
(0.648488 0.0322269 0)
(0.647854 0.0351891 0)
(0.64728 0.0382111 0)
(0.646784 0.0412941 0)
(0.646384 0.0444373 0)
(0.646098 0.0476373 0)
(0.645939 0.050888 0)
(0.64592 0.0541807 0)
(0.646049 0.057504 0)
(0.64633 0.0608437 0)
(0.646765 0.0641838 0)
(0.647348 0.0675065 0)
(0.648071 0.0707936 0)
(0.648918 0.0740267 0)
(0.649872 0.0771895 0)
(0.650906 0.0802713 0)
(0.0995029 -0.007425 0)
(0.102484 -0.014767 0)
(0.10662 -0.021193 0)
(0.111913 -0.0270466 0)
(0.118474 -0.0325159 0)
(0.126259 -0.0377633 0)
(0.135279 -0.0429729 0)
(0.145646 -0.0483223 0)
(0.15753 -0.0539431 0)
(0.171098 -0.0598857 0)
(0.186452 -0.0660994 0)
(0.203572 -0.0724385 0)
(0.222311 -0.078693 0)
(0.24241 -0.0846318 0)
(0.26354 -0.0900421 0)
(0.28535 -0.094756 0)
(0.3075 -0.0986614 0)
(0.329684 -0.101701 0)
(0.351641 -0.103865 0)
(0.373159 -0.105179 0)
(0.394072 -0.105695 0)
(0.414253 -0.10548 0)
(0.433613 -0.104611 0)
(0.452089 -0.103165 0)
(0.469645 -0.101221 0)
(0.486261 -0.0988509 0)
(0.501933 -0.0961237 0)
(0.516667 -0.0931006 0)
(0.530479 -0.0898369 0)
(0.543392 -0.0863812 0)
(0.555431 -0.0827759 0)
(0.566626 -0.0790578 0)
(0.57701 -0.0752585 0)
(0.586615 -0.0714049 0)
(0.595475 -0.0675196 0)
(0.603624 -0.0636219 0)
(0.611097 -0.0597276 0)
(0.617925 -0.0558499 0)
(0.624142 -0.0519995 0)
(0.62978 -0.0481852 0)
(0.634868 -0.0444137 0)
(0.639438 -0.0406906 0)
(0.643519 -0.0370197 0)
(0.647137 -0.0334039 0)
(0.650321 -0.0298449 0)
(0.653096 -0.0263435 0)
(0.655489 -0.0228999 0)
(0.657523 -0.0195133 0)
(0.659223 -0.0161823 0)
(0.660613 -0.0129049 0)
(0.661714 -0.00967846 0)
(0.662549 -0.00649981 0)
(0.663141 -0.00336533 0)
(0.663509 -0.000271332 0)
(0.663679 0.00278816 0)
(0.663667 0.00581997 0)
(0.663495 0.00883103 0)
(0.663183 0.0118281 0)
(0.66275 0.0148178 0)
(0.662217 0.0178068 0)
(0.661602 0.0208018 0)
(0.660926 0.0238088 0)
(0.660207 0.0268339 0)
(0.659466 0.029882 0)
(0.658721 0.0329578 0)
(0.657991 0.0360646 0)
(0.657292 0.0392046 0)
(0.656643 0.0423786 0)
(0.65606 0.0455859 0)
(0.655555 0.0488239 0)
(0.655143 0.0520882 0)
(0.654833 0.0553725 0)
(0.654633 0.058669 0)
(0.654547 0.0619678 0)
(0.654577 0.065258 0)
(0.654721 0.0685276 0)
(0.654973 0.0717641 0)
(0.655324 0.0749552 0)
(0.655762 0.0780893 0)
(0.656272 0.0811564 0)
(0.656834 0.0841517 0)
(0.0993364 -0.0081398 0)
(0.10239 -0.0162608 0)
(0.106533 -0.023411 0)
(0.111796 -0.0299559 0)
(0.118357 -0.0361137 0)
(0.12622 -0.0420845 0)
(0.135451 -0.0480995 0)
(0.146236 -0.0543791 0)
(0.158809 -0.0610728 0)
(0.173366 -0.0682087 0)
(0.189976 -0.0756754 0)
(0.208544 -0.0832446 0)
(0.228814 -0.0906255 0)
(0.250425 -0.0975256 0)
(0.272965 -0.103698 0)
(0.29603 -0.108964 0)
(0.319249 -0.113222 0)
(0.342309 -0.116433 0)
(0.364956 -0.118612 0)
(0.386991 -0.11981 0)
(0.408268 -0.120103 0)
(0.428681 -0.11958 0)
(0.44816 -0.118336 0)
(0.466663 -0.116464 0)
(0.484169 -0.114055 0)
(0.500675 -0.111192 0)
(0.516189 -0.107953 0)
(0.53073 -0.104406 0)
(0.544323 -0.100611 0)
(0.556998 -0.0966211 0)
(0.568789 -0.0924821 0)
(0.57973 -0.0882333 0)
(0.589857 -0.0839082 0)
(0.599209 -0.0795351 0)
(0.607821 -0.0751379 0)
(0.615729 -0.0707362 0)
(0.622969 -0.0663465 0)
(0.629575 -0.0619823 0)
(0.635581 -0.0576544 0)
(0.641019 -0.0533715 0)
(0.645921 -0.0491404 0)
(0.650315 -0.0449662 0)
(0.654232 -0.0408527 0)
(0.657698 -0.0368026 0)
(0.660741 -0.0328173 0)
(0.663387 -0.0288976 0)
(0.66566 -0.0250432 0)
(0.667585 -0.0212532 0)
(0.669186 -0.0175261 0)
(0.670484 -0.0138599 0)
(0.671503 -0.0102519 0)
(0.672265 -0.00669927 0)
(0.672789 -0.0031984 0)
(0.673101 0.000254407 0)
(0.673215 0.00366473 0)
(0.673154 0.00703934 0)
(0.672938 0.0103846 0)
(0.672585 0.0137065 0)
(0.672116 0.0170106 0)
(0.671548 0.0203026 0)
(0.670901 0.0235877 0)
(0.670194 0.0268708 0)
(0.669443 0.0301559 0)
(0.668667 0.0334467 0)
(0.667883 0.0367459 0)
(0.667106 0.0400552 0)
(0.666353 0.0433753 0)
(0.665638 0.0467056 0)
(0.664973 0.0500444 0)
(0.66437 0.0533885 0)
(0.663837 0.0567336 0)
(0.663383 0.0600741 0)
(0.663011 0.0634034 0)
(0.662725 0.0667139 0)
(0.662523 0.0699976 0)
(0.662403 0.073246 0)
(0.66236 0.0764507 0)
(0.662385 0.0796039 0)
(0.662469 0.0826983 0)
(0.6626 0.0857283 0)
(0.662765 0.088693 0)
(0.0991492 -0.00890009 0)
(0.1023 -0.0178483 0)
(0.106482 -0.0257748 0)
(0.111747 -0.0330728 0)
(0.118361 -0.0400015 0)
(0.126392 -0.0468151 0)
(0.135987 -0.0538074 0)
(0.147417 -0.061246 0)
(0.160978 -0.0692817 0)
(0.176857 -0.0778859 0)
(0.195046 -0.0868453 0)
(0.215319 -0.0958182 0)
(0.237291 -0.10442 0)
(0.260488 -0.112302 0)
(0.284427 -0.119197 0)