/*--------------------------------*- C++ -*----------------------------------*\
  =========                 |
  \\      /  F ield         | OpenFOAM: The Open Source CFD Toolbox
   \\    /   O peration     | Website:  https://openfoam.org
    \\  /    A nd           | Version:  7
     \\/     M anipulation  |
\*---------------------------------------------------------------------------*/
FoamFile
{
    version     2.0;
    format      ascii;
    class       volScalarField;
    location    "4.2";
    object      p;
}
// * * * * * * * * * * * * * * * * * * * * * * * * * * * * * * * * * * * * * //

dimensions      [0 2 -2 0 0 0 0];

internalField   nonuniform List<scalar> 
2790
(
147.179
147.086
147.353
147.924
148.704
149.662
150.794
152.101
153.577
155.218
157.017
158.968
161.062
163.287
165.627
168.063
170.567
173.106
175.638
178.112
180.47
182.648
184.579
186.199
187.459
188.333
188.769
188.825
188.876
189.088
146.976
146.994
147.286
147.854
148.63
149.584
150.712
152.013
153.482
155.115
156.905
158.845
160.928
163.142
165.471
167.897
170.393
172.926
175.456
177.934
180.303
182.498
184.452
186.101
187.385
188.26
188.657
188.711
188.844
189.129
146.777
146.865
147.176
147.734
148.497
149.439
150.551
151.834
153.282
154.89
156.652
158.561
160.609
162.784
165.072
167.455
169.907
172.397
174.889
177.337
179.686
181.879
183.852
185.541
186.892
187.868
188.461
188.817
189.132
189.431
146.552
146.671
146.995
147.544
148.292
149.217
150.311
151.569
152.988
154.562
156.286
158.151
160.15
162.27
164.499
166.816
169.201
171.624
174.051
176.441
178.749
180.92
182.902
184.642
186.096
187.248
188.116
188.787
189.34
189.859
146.291
146.424
146.756
147.298
148.03
148.934
150.001
151.228
152.61
154.142
155.816
157.625
159.561
161.611
163.763
165.998
168.297
170.632
172.973
175.286
177.531
179.666
181.649
183.439
185.01
186.352
187.483
188.445
189.256
190.003
145.991
146.129
146.463
146.995
147.707
148.585
149.621
150.81
152.148
153.627
155.242
156.985
158.846
160.813
162.875
165.012
167.207
169.437
171.673
173.889
176.051
178.129
180.091
181.912
183.575
185.076
186.423
187.628
188.648
189.567
145.648
145.787
146.119
146.637
147.327
148.175
149.174
150.319
151.605
153.025
154.572
156.237
158.012
159.885
161.842
163.868
165.944
168.049
170.162
172.258
174.313
176.304
178.212
180.022
181.728
183.329
184.823
186.202
187.366
188.413
145.263
145.401
145.725
146.227
146.891
147.704
148.662
149.757
150.985
152.338
153.808
155.388
157.066
158.832
160.672
162.571
164.512
166.476
168.444
170.396
172.313
174.181
175.988
177.73
179.408
181.027
182.582
184.054
185.304
186.455
144.837
144.971
145.284
145.767
146.402
147.177
148.089
149.129
150.293
151.572
152.958
154.442
156.014
157.663
159.373
161.132
162.921
164.724
166.524
168.302
170.046
171.744
173.392
174.992
176.554
178.088
179.597
181.067
182.339
183.577
144.371
144.499
144.799
145.26
145.862
146.597
147.458
148.439
149.532
150.731
152.026
153.407
154.864
156.384
157.954
159.558
161.179
162.801
164.407
165.981
167.509
168.983
170.401
171.769
173.101
174.42
175.74
177.078
178.278
179.583
143.865
143.987
144.272
144.708
145.276
145.966
146.773
147.69
148.709
149.822
151.019
152.29
153.624
155.006
156.424
157.86
159.297
160.718
162.105
163.439
164.707
165.897
167.004
168.031
168.995
169.924
170.854
171.853
172.815
174.133
143.323
143.438
143.706
144.114
144.645
145.289
146.039
146.888
147.828
148.85
149.944
151.099
152.302
153.539
154.794
156.05
157.289
158.49
159.632
160.694
161.655
162.497
163.205
163.771
164.197
164.506
164.749
165.057
165.438
166.612
142.746
142.853
143.103
143.482
143.974
144.568
145.258
146.037
146.894
147.822
148.808
149.842
150.908
151.993
153.078
154.144
155.171
156.135
157.01
157.769
158.382
158.816
159.038
159.013
158.709
158.111
157.236
156.243
155.295
155.8
142.137
142.236
142.466
142.815
143.266
143.809
144.437
145.142
145.914
146.744
147.619
148.527
149.453
150.38
151.288
152.157
152.962
153.676
154.267
154.699
154.929
154.906
154.567
153.835
152.612
150.782
148.218
144.916
140.967
138.931
141.498
141.588
141.798
142.115
142.524
143.014
143.578
144.208
144.893
145.623
146.385
147.165
147.946
148.712
149.44
150.106
150.684
151.14
151.436
151.527
151.353
150.843
149.898
148.382
146.103
142.77
137.926
130.909
120.445
108.22
1.49977
1.47992
1.40916
1.31029
1.20575
1.10609
1.0145
0.931304
0.855822
0.786962
0.723427
0.663933
0.607367
0.552882
0.499955
0.448415
0.398433
0.350438
0.304964
0.262458
0.223167
0.187187
0.154475
0.126017
0.101779
0.081138
0.0629645
0.0459512
0.0287133
0.0100624
1.44803
1.42484
1.35831
1.26744
1.17135
1.07903
0.993419
0.914994
0.843276
0.777331
0.716015
0.658174
0.60279
0.549093
0.496627
0.445299
0.395372
0.34738
0.301937
0.259502
0.220262
0.184317
0.15219
0.12401
0.10015
0.0800795
0.0625185
0.0461483
0.0294609
0.0121539
1.39311
1.36498
1.30092
1.21741
1.13016
1.04592
0.967077
0.894191
0.826922
0.764483
0.705879
0.650088
0.596202
0.543536
0.491714
0.440729
0.390959
0.343072
0.297803
0.255659
0.216771
0.181143
0.149161
0.121339
0.0980497
0.0786925
0.0618524
0.0460503
0.029649
0.0113644
1.34293
1.30996
1.24746
1.17002
1.09064
1.01373
0.941158
0.873461
0.810414
0.751349
0.695397
0.641653
0.589306
0.537755
0.486701
0.43621
0.38674
0.339061
0.294028
0.252233
0.213762
0.178411
0.146363
0.118435
0.0953871
0.0767778
0.0608375
0.0461919
0.030664
0.0112142
1.31237
1.27477
1.21395
1.14074
1.06673
0.994578
0.925976
0.861487
0.800996
0.743941
0.689545
0.636986
0.585536
0.534669
0.484154
0.434104
0.385001
0.337621
0.292838
0.251323
0.213322
0.17887
0.147997
0.120974
0.0980015
0.0783994
0.0610424
0.0447238
0.0288432
0.0103808
1.31365
1.27034
1.21049
1.13824
1.06552
0.993967
0.925719
0.861382
0.800935
0.743863
0.689421
0.636821
0.585375
0.534607
0.484319
0.434637
0.386003
0.339101
0.294685
0.253377
0.215522
0.181283
0.150831
0.124134
0.101226
0.0812302
0.063287
0.0463117
0.0288523
0.00928051
1.35533
1.30444
1.2404
1.16387
1.08638
1.01064
0.938765
0.871406
0.808458
0.749341
0.693272
0.639457
0.587211
0.53605
0.485744
0.43638
0.388334
0.342171
0.298483
0.25774
0.220241
0.186189
0.15574
0.128526
0.104698
0.0831246
0.0639286
0.0455825
0.0270374
0.00885831
1.43974
1.37657
1.29953
1.21046
1.12185
1.03722
0.958299
0.885393
0.81816
0.755816
0.697377
0.641926
0.588694
0.537102
0.486789
0.437777
0.390408
0.345173
0.30252
0.262724
0.225906
0.192164
0.161753
0.134207
0.108972
0.0863414
0.0654432
0.0448934
0.0247024
0.00773782
1.5587
1.47236
1.37237
1.26274
1.15812
1.06213
0.975226
0.896414
0.824619
0.759043
0.698433
0.641666
0.587834
0.53619
0.486144
0.437674
0.391182
0.347191
0.30604
0.267707
0.231932
0.198519
0.167207
0.138781
0.112762
0.0890448
0.0665382
0.0438691
0.0223481
0.00677682
1.68598
1.56486
1.43867
1.30969
1.18708
1.07723
0.980926
0.89693
0.822786
0.755897
0.694465
0.637254
0.583365
0.532008
0.482635
0.435035
0.389683
0.347351
0.308356
0.272218
0.238007
0.205042
0.173354
0.143744
0.116483
0.0914606
0.0673035
0.0426243
0.0200391
0.00592481
1.78232
1.63216
1.47674
1.32587
1.19145
1.07456
0.974013
0.887622
0.81269
0.746028
0.685098
0.628527
0.575599
0.525448
0.477123
0.430331
0.385946
0.345329
0.308944
0.275722
0.243819
0.211848
0.179756
0.148702
0.119863
0.093432
0.0677788
0.0414098
0.0180294
0.0052034
1.83471
1.64588
1.46497
1.29733
1.15586
1.03886
0.941239
0.858763
0.788153
0.725511
0.667517
0.613074
0.562356
0.514672
0.468347
0.422652
0.379156
0.340501
0.307668
0.278671
0.250055
0.21937
0.186532
0.153472
0.122573
0.0946639
0.0678614
0.0403056
0.0164085
0.00463345
1.776
1.52859
1.34076
1.18612
1.06159
0.961991
0.879203
0.8085
0.748414
0.694683
0.642401
0.591176
0.543586
0.499721
0.456431
0.411802
0.368507
0.331702
0.303651
0.280879
0.257089
0.228104
0.193952
0.157938
0.124254
0.0948281
0.067465
0.0394128
0.0152621
0.0042356
1.45445
1.16374
1.04725
0.968982
0.895558
0.838431
0.787281
0.736844
0.693472
0.654494
0.610721
0.562598
0.518483
0.480526
0.442213
0.398523
0.353778
0.31799
0.296254
0.282689
0.265931
0.239004
0.202491
0.161982
0.124402
0.0934412
0.066465
0.03887
0.0146791
0.00402945
0.696503
0.368346
0.497973
0.641546
0.658201
0.677516
0.678525
0.648658
0.622389
0.606751
0.576485
0.529571
0.48772
0.458463
0.42823
0.3845
0.334266
0.296894
0.283427
0.284059
0.277781
0.253232
0.212639
0.165333
0.12222
0.0897444
0.0646757
0.0389251
0.014766
0.00402912
140.819
140.899
141.088
141.372
141.737
142.173
142.67
143.222
143.817
144.444
145.089
145.737
146.371
146.971
147.513
147.972
148.316
148.508
148.501
148.241
147.655
146.646
145.081
142.768
139.405
134.498
127.126
115.373
93.2061
33.3888
140.092
140.163
140.329
140.579
140.898
141.276
141.705
142.176
142.677
143.198
143.722
144.234
144.716
145.146
145.499
145.746
145.852
145.776
145.465
144.855
143.862
142.372
140.227
137.194
132.916
126.809
117.839
104.274
84.7485
56.2974
139.322
139.383
139.526
139.74
140.011
140.331
140.689
141.077
141.483
141.895
142.296
142.671
142.999
143.258
143.421
143.456
143.327
142.987
142.382
141.439
140.069
138.149
135.517
131.941
127.096
120.528
111.647
99.8138
85.5828
68.973
138.511
138.563
138.681
138.858
139.081
139.34
139.627
139.931
140.241
140.542
140.82
141.057
141.232
141.321
141.296
141.125
140.767
140.177
139.295
138.049
136.349
134.075
131.078
127.16
122.074
115.528
107.226
96.8349
84.2945
69.1666
137.662
137.702
137.797
137.936
138.11
138.308
138.522
138.742
138.955
139.147
139.302
139.402
139.426
139.349
139.143
138.774
138.201
137.378
136.247
134.737
132.763
130.218
126.974
122.874
117.737
111.366
103.559
94.0743
82.7446
69.7773
136.775
136.805
136.875
136.977
137.101
137.238
137.38
137.515
137.631
137.715
137.75
137.717
137.594
137.358
136.979
136.424
135.653
134.621
133.272
131.541
129.353
126.615
123.223
119.058
113.989
107.881
100.614
92.0873
82.292
71.6411
135.854
135.874
135.919
135.983
136.058
136.134
136.204
136.256
136.278
136.256
136.173
136.011
135.749
135.362
134.821
134.096
133.147
131.931
130.399
128.493
126.147
123.286
119.829
115.688
110.776
105.015
98.3509
90.7718
82.3218
73.3365
134.902
134.911
134.932
134.959
134.984
135.001
135
134.971
134.901
134.776
134.581
134.297
133.903
133.375
132.687
131.808
130.702
129.332
127.652
125.613
123.16
120.236
116.779
112.731
108.037
102.658
96.5811
89.8255
82.4416
74.7012
133.922
133.921
133.918
133.908
133.886
133.845
133.775
133.667
133.509
133.286
132.984
132.585
132.068
131.412
130.591
129.577
128.338
126.84
125.045
122.913
120.399
117.46
114.054
110.143
105.696
100.701
95.1636
89.117
82.6153
75.8859
132.919
132.908
132.881
132.836
132.767
132.67
132.534
132.351
132.108
131.793
131.391
130.885
130.256
129.485
128.546
127.416
126.067
124.469
122.59
120.398
117.861
114.946
111.626
107.878
103.691
99.0646
94.0172
88.5879
82.8299
76.9279
131.897
131.876
131.827
131.747
131.634
131.482
131.284
131.029
130.707
130.306
129.811
129.208
128.479
127.605
126.565
125.338
123.9
122.226
120.291
118.07
115.539
112.676
109.465
105.896
101.966
97.6869
93.0806
88.1869
83.0537
77.8293
130.861
130.831
130.76
130.647
130.492
130.289
130.031
129.709
129.314
128.833
128.254
127.564
126.745
125.782
124.658
123.351
121.845
120.117
118.149
115.923
113.421
110.631
107.544
104.158
100.477
96.518
92.3046
87.8734
83.2663
78.6025
129.816
129.778
129.686
129.543
129.347
129.096
128.783
128.399
127.936
127.383
126.728
125.96
125.064
124.026
122.831
121.462
119.905
118.144
116.163
113.951
111.496
108.792
105.835
102.63
99.1852
95.5176
91.6518
87.6201
83.4585
79.2629
128.769
128.722
128.611
128.439
128.206
127.911
127.546
127.106
126.581
125.963
125.241
124.406
123.443
122.343
121.091
119.676
118.084
116.305
114.328
112.144
109.748
107.138
104.314
101.284
98.0578
94.6539
91.0947
87.4086
83.6257
79.8239
127.725
127.67
127.542
127.342
127.075
126.739
126.328
125.836
125.256
124.581
123.801
122.907
121.889
120.738
119.443
117.994
116.382
114.599
112.638
110.494
108.165
105.651
102.958
100.093
97.0691
93.9019
90.6126
87.2256
83.7662
80.2977
126.69
126.629
126.484
126.26
125.961
125.588
125.135
124.598
123.969
123.243
122.413
121.471
120.408
119.217
117.889
116.418
114.798
113.021
111.086
108.989
106.731
104.316
101.748
99.0383
96.1977
93.2421
90.19
87.0622
83.88
80.6952
125.672
125.604
125.445
125.198
124.871
124.465
123.975
123.397
122.726
121.957
121.084
120.102
119.003
117.782
116.432
114.95
113.329
111.569
109.666
107.621
105.436
103.116
100.668
98.1006
95.4264
92.6592
89.8153
86.9125
83.9686
81.0263
124.677
124.604
124.431
124.164
123.812
123.376
122.853
122.24
121.533
120.728
119.82
118.805
117.679
116.436
115.073
113.587
111.975
110.236
108.37
106.379
104.267
102.039
99.702
97.2658
94.7413
92.1413
89.48
86.7725
84.0341
81.2997
123.713
123.634
123.449
123.165
122.791
122.329
121.778
121.135
120.397
119.562
118.626
117.586
116.439
115.181
113.812
112.329
110.73
109.017
107.192
105.256
103.214
101.073
98.839
96.5218
94.1314
91.6793
89.1779
86.6401
84.0789
81.5232
122.787
122.703
122.508
122.208
121.815
121.331
120.755
120.087
119.323
118.464
117.505
116.446
115.285
114.02
112.65
111.174
109.594
107.91
106.125
104.243
102.269
100.208
98.0688
95.8589
93.5881
91.2664
88.9047
86.5143
84.106
81.7041
121.905
121.818
121.614
121.301
120.891
120.388
119.792
119.102
118.318
117.439
116.463
115.391
114.221
112.952
111.586
110.122
108.562
106.908
105.164
103.334
101.423
99.437
97.3832
95.2696
93.1045
90.8973
88.6575
86.3946
84.1183
81.8485
121.078
120.987
120.774
120.45
120.026
119.507
118.894
118.187
117.386
116.492
115.504
114.423
113.248
111.98
110.62
109.17
107.632
106.009
104.305
102.524
100.671
98.7529
96.776
94.7477
92.6759
90.5687
88.4346
86.2819
84.119
81.9626
120.311
120.217
119.998
119.663
119.227
118.695
118.068
117.348
116.534
115.629
114.632
113.545
112.368
111.104
109.753
108.319
106.803
105.21
103.543
101.807
100.008
98.1505
96.2419
94.2887
92.2982
90.2778
88.2348
86.1768
84.1109
82.0513
119.614
119.517
119.292
118.949
118.503
117.96
117.322
116.59
115.767
114.853
113.851
112.761
111.585
110.327
108.986
107.568
106.074
104.509
102.877
101.182
99.4299
97.6265
95.7778
93.89
91.9698
90.0238
88.0588
86.0814
84.098
82.1205
118.995
118.896
118.665
118.314
117.859
117.307
116.66
115.92
115.089
114.17
113.164
112.074
110.901
109.648
108.319
106.916
105.443
103.903
102.302
100.644
98.9338
97.1773
95.3801
93.5483
91.6878
89.8049
87.9056
85.9958
84.0815
82.1723
118.463
118.361
118.124
117.767
117.304
116.745
116.091
115.345
114.509
113.586
112.579
111.489
110.32
109.075
107.756
106.367
104.913
103.396
101.822
100.195
98.5208
96.804
95.0503
93.2654
91.4548
89.6243
87.7794
85.9257
84.0684
82.216
118.028
117.923
117.679
117.313
116.844
116.279
115.619
114.868
114.029
113.103
112.095
111.007
109.842
108.604
107.294
105.919
104.48
102.983
101.432
99.831
98.186
96.5016
94.7832
93.0361
91.2655
89.4768
87.6752
85.8658
84.0534
82.245
117.702
117.591
117.338
116.966
116.492
115.922
115.259
114.504
113.662
112.735
111.727
110.641
109.48
108.247
106.946
105.58
104.155
102.673
101.14
99.5606
97.9388
96.2799
94.5891
92.8714
91.1319
89.3757
87.6077
85.8328
84.0556
82.2823
117.5
117.365
117.095
116.717
116.241
115.669
115.002
114.246
113.403
112.476
111.469
110.385
109.227
107.999
106.704
105.346
103.93
102.46
100.939
99.3737
97.7676
96.1259
94.4535
92.7553
91.0364
89.3015
87.5554
85.8026
84.0477
82.2954
117.481
117.283
116.984
116.6
116.121
115.545
114.876
114.118
113.274
112.347
111.341
110.259
109.103
107.879
106.589
105.237
103.827
102.364
100.853
99.2964
97.7006
96.07
94.4094
92.7236
91.0175
89.2958
87.5632
85.824
84.0827
82.3434
-50.5697
-30.3594
-11.0406
35.9704
28.6224
16.7835
51.5201
39.4803
28.3343
52.9172
42.5147
34.4968
57.2437
48.9723
42.2328
61.6234
54.7275
48.8483
64.8865
59.0144
53.9734
67.4726
62.4544
58.1509
69.6523
65.3248
61.6199
71.4918
67.7165
64.4922
73.0382
69.7103
66.8752
74.3407
71.3799
68.8626
75.4398
72.7831
70.5277
76.3678
73.9653
71.9279
77.1511
74.963
73.1086
77.8114
75.8056
74.1061
78.3671
76.517
74.9494
78.8331
77.1169
75.6621
79.2226
77.6216
76.2635
79.5464
78.0449
76.77
79.8141
78.3984
77.1949
80.0343
78.6925
77.5502
80.2137
78.9353
77.8451
80.3603
79.1357
78.0897
80.4765
79.2973
78.2884
80.5743
79.4324
78.4535
80.6449
79.5328
78.5787
80.7168
79.6275
78.6906
80.7503
79.6772
78.7543
80.8192
79.7602
78.8438
-2.32652
-2.18394
-0.737054
0.367789
0.424277
0.493513
0.550656
0.527811
0.52276
0.561558
0.555841
0.49652
0.446066
0.427598
0.413198
0.369332
0.307518
0.264561
0.263243
0.287314
0.297094
0.274367
0.22623
0.168225
0.116808
0.0826274
0.0618688
0.0401845
0.0157974
0.00424498
3.05641
0.00816689
1.33017
0.954124
-0.237298
-0.109983
0.436362
0.497277
0.479804
0.564214
0.549306
0.436321
0.365449
0.383334
0.41667
0.372605
0.282828
0.220202
0.231172
0.291346
0.325542
0.303038
0.241826
0.167699
0.104437
0.0688654
0.057064
0.0437823
0.0184083
0.00466757
14.1012
5.68741
2.85716
0.575396
0.140395
1.19494
1.41326
0.369093
-0.0789652
0.21491
0.560591
0.442779
0.332877
0.390651
0.458275
0.377489
0.222521
0.116734
0.152311
0.292442
0.381297
0.352943
0.267948
0.169553
0.0886986
0.0502447
0.0524261
0.0538099
0.0251572
0.00525173
23.7754
13.9191
8.07909
4.32947
2.50349
1.81828
0.773992
0.0886257
0.233106
1.36343
1.40855
0.346326
-0.0827553
0.0239825
0.376648
0.442433
0.209095
0.0384114
0.126063
0.351525
0.475897
0.412141
0.285386
0.152162
0.0462864
0.00332647
0.0315979
0.067428
0.0372553
0.00544269
32.9115
23.1657
15.8575
10.5598
6.90333
4.41728
2.58386
1.53481
1.16852
1.23291
0.74798
0.172241
-0.0208492
0.552767
1.131
0.750225
0.0941662
-0.316015
-0.317025
0.216656
0.604289
0.511944
0.323459
0.149609
0.0184252
-0.0253834
0.0470729
0.12951
0.0754394
0.00519298
40.8624
31.9467
24.0656
17.6365
12.7087
9.05481
6.37304
4.47504
3.18632
2.30169
1.52429
0.910126
0.585578
0.690833
0.717945
0.503543
0.0088969
-0.366141
-0.122191
0.818877
1.053
0.571651
0.289525
0.0767363
-0.0858036
-0.158498
-0.0771124
0.127852
0.129969
0.000273544
47.3478
39.5492
31.7794
24.8932
19.267
14.8003
11.2715
8.5131
6.40778
4.82613
3.58976
2.59958
1.89323
1.48959
1.19184
0.851892
0.37084
0.0301518
0.153551
0.598839
0.746508
0.576476
0.34336
0.118143
-0.0738495
-0.144822
0.0671794
0.370902
0.296635
-0.00712679
52.6304
45.9034
38.65
31.8229
25.9398
20.9913
16.8479
13.4205
10.6401
8.4129
6.6081
5.13542
3.98615
3.14252
2.4924
1.89263
1.30022
0.875263
0.773563
0.897149
0.939057
0.767136
0.485678
0.220196
0.018915
-0.0523524
0.0671622
0.229759
0.29825
-0.0637815
56.9398
51.1253
44.5434
38.0715
32.2536
27.1403
22.6677
18.8005
15.5085
12.7367
10.4076
8.45863
6.85854
5.57156
4.5179
3.60519
2.80781
2.19467
1.83376
1.66613
1.5022
1.21689
0.86484
0.544748
0.305293
0.185888
0.202006
0.264327
0.227447
-0.3006
60.4564
55.3898
49.4882
43.504
37.9498
32.9031
28.3353
24.242
20.6244
17.4637
14.7219
12.3592
10.3432
8.63842
7.19202
5.94798
4.88136
4.01121
3.35871
2.88047
2.46091
2.01377
1.55459
1.1403
0.80902
0.583232
0.459524
0.363237
0.14441
-0.518105
63.3444
58.8851
53.6051
48.1367
42.9395
38.0966
33.5951
29.4467
25.6719
22.2762
19.2471
16.5641
14.2049
12.1442
10.3484
8.78174
7.4213
6.264
5.30814
4.52033
3.83086
3.18092
2.56351
2.00516
1.53033
1.14901
0.845795
0.554003
0.152964
-0.598866
65.7361
61.7721
57.0336
52.0539
47.2378
42.664
38.3252
34.2387
30.434
26.9296
23.729
20.8266
18.2121
15.8709
13.7833
11.9267
10.2829
8.84156
7.59221
6.50902
5.54796
4.66779
3.85324
3.1122
2.45589
1.88452
1.37717
0.878557
0.301684
-0.529201
67.731
64.1749
59.899
55.3588
50.9108
46.6254
42.4963
38.5406
34.79
31.269
27.9903
24.958
22.1712
19.6244
17.3078
15.2085
13.3138
11.6132
10.0946
8.73829
7.51503
6.39564
5.36358
4.4162
3.55452
2.77228
2.04798
1.3386
0.585064
-0.335176
69.4041
66.1875
62.3048
58.1508
54.041
50.0377
46.1332
42.3421
38.6949
35.2179
31.928
28.8352
25.9447
23.2577
20.7716
18.4803
16.3765
14.452
12.6965
11.0955
9.62902
8.27622
7.02194
5.85845
4.7805
3.77842
2.83266
1.91106
0.97524
-0.0551289
70.813
67.8814
64.3335
60.5154
56.709
52.9689
49.2857
45.6709
42.152
38.7546
35.4973
32.3931
29.4508
26.676
24.0707
21.6342
19.3632
17.2527
15.2953
13.4809
11.7956
10.2245
8.75474
7.37681
6.08247
4.86084
3.69507
2.56154
1.43573
0.269644
72.0028
69.312
66.05
62.5232
58.9855
55.485
52.0109
48.571
45.1896
41.8906
38.6924
35.6091
32.6517
29.8281
27.1438
24.6012
22.2003
19.9392
17.8134
15.8162
13.9383
12.1689
10.4975
8.91478
7.41153
5.97693
4.5967
3.25319
1.93007
0.602885
73.0091
70.5227
67.5056
64.2313
60.9301
57.6448
54.3632
51.0901
47.8463
44.6534
41.5289
38.487
35.5391
32.695
29.9617
27.344
24.8445
22.4633
20.1989
18.0471
16.0019
14.0557
12.2001
10.4266
8.72646
7.08931
5.50289
3.95326
2.42802
0.918564
73.8604
71.5481
68.7413
65.6859
62.5921
59.4985
56.3917
53.2737
50.1623
47.0765
44.0326
41.0437
38.1217
35.2766
32.5166
29.8479
27.2747
24.7991
22.4213
20.1397
17.9504
15.8483
13.8269
11.8789
9.99598
8.1688
6.38635
4.63656
2.90817
1.20209
74.58
72.4162
69.7903
66.9247
64.0123
61.0883
58.1385
55.1627
52.1754
49.1937
46.2319
43.3024
40.4163
37.5837
34.8131
32.1117
29.4846
26.9353
24.4657
22.0755
19.7629
17.5244
15.3552
13.249
11.1985
9.19481
7.22779
5.28601
3.3577
1.44846
75.1874
73.1503
70.68
67.9786
65.2245
62.4499
59.6399
56.7926
53.92
51.0367
48.1554
45.2874
42.4429
39.6316
36.8621
34.1417
31.4764
28.8704
26.3266
23.8461
21.4284
19.0714
16.7714
14.5232
12.3202
10.154
8.01493
5.89142
3.77046
1.65915
75.6985
73.7695
71.4328
68.8735
66.2569
63.613
60.9268
58.1945
55.426
52.6339
49.8293
47.0222
44.2218
41.4373
38.6768
35.9478
33.2563
30.6072
28.0041
25.449
22.9422
20.4828
18.0679
15.6932
13.3526
11.0383
8.74047
6.4473
4.14442
1.83851
76.1271
74.29
72.0678
69.6308
67.1333
64.6033
62.0255
59.3952
56.72
54.011
51.2778
48.5289
45.7729
43.0179
40.2717
37.5414
34.8331
32.152
29.5019
26.8854
24.3037
21.7563
19.2413
16.7549
14.2914
11.8433
9.40072
6.95148
4.48004
1.99166
76.4843
74.7251
72.6006
70.2683
67.8731
65.4413
62.9578
60.4168
57.8243
55.1898
52.5216
49.8271
47.1137
44.389
41.66
38.9335
36.2154
33.5109
30.8239
28.1575
25.5132
22.8911
20.2896
17.7054
15.1333
12.5658
9.99309
7.40251
4.77774
2.12217
76.7811
75.0873
73.0454
70.802
68.494
66.1462
63.7437
61.2799
58.7595
56.1906
53.5804
50.9352
48.2617
45.5664
42.8558
40.1363
37.4135
34.6923
31.9768
29.2701
26.574
23.8889
21.2136
18.545
15.8782
13.2058
10.5179
7.8015
5.03982
2.23391
77.0236
75.3842
73.4112
71.2423
69.0074
66.7303
64.3964
61.9982
59.5395
57.0272
54.4675
51.866
49.2283
46.5603
43.868
41.1571
38.4329
35.7001
32.9628
30.224
27.4856
24.7483
22.0109
19.2707
16.5227
13.7597
10.9717
8.14561
5.26431
2.32651
77.2236
75.6283
73.712
71.6044
69.4297
67.2109
64.9336
62.59
60.1829
57.7182
55.2014
52.6372
50.0306
47.387
44.7115
42.0096
39.2861
36.5456
33.7919
31.028
28.2557
25.4759
22.6874
19.8876
17.0717
14.2324
11.3597
8.44026
5.45689
2.40518
77.3779
75.8175
73.946
71.887
69.76
67.5876
65.3556
63.0557
60.69
58.2637
55.7817
53.2481
50.6673
48.044
45.3831
42.6895
39.9678
37.2221
34.4563
31.6731
28.8745
26.061
23.2319
20.3843
17.5135
14.6123
11.6704
8.6746
5.60767
2.4629
77.5087
75.974
74.1366
72.1144
70.0236
67.8863
65.6886
63.4219
61.0877
58.6908
56.2354
53.7254
51.1646
48.5573
45.908
43.2212
40.5014
37.7524
34.9778
32.1804
29.362
26.5232
23.6631
20.779
17.866
14.9169
11.9214
8.86585
5.73302
2.5123
77.5892
76.0706
74.2555
72.2584
70.1919
68.0781
65.9033
63.6588
61.3458
58.9687
56.5313
54.0371
51.4898
48.8934
46.2521
43.5702
40.8518
38.1008
35.3206
32.5139
29.6824
26.8266
23.9457
21.0369
18.0953
15.1136
12.0811
8.98412
5.80518
2.53206
77.6779
76.1604
74.3576
72.3755
70.3227
68.2215
66.0588
63.8261
61.5241
59.157
56.7286
54.2423
51.7015
49.11
46.472
43.7917
41.073
38.3199
35.5355
32.7227
29.8831
27.0172
24.1242
21.2013
18.2436
15.2434
12.1901
9.06881
5.85962
2.53857
)
;

boundaryField
{
    inlet
    {
        type            zeroGradient;
    }
    outlet
    {
        type            fixedValue;
        value           uniform 0;
    }
    flap
    {
        type            zeroGradient;
    }
    upperWall
    {
        type            zeroGradient;
    }
    lowerWall
    {
        type            zeroGradient;
    }
    frontAndBack
    {
        type            empty;
    }
}


// ************************************************************************* //
