/*--------------------------------*- C++ -*----------------------------------*\
  =========                 |
  \\      /  F ield         | OpenFOAM: The Open Source CFD Toolbox
   \\    /   O peration     | Website:  https://openfoam.org
    \\  /    A nd           | Version:  7
     \\/     M anipulation  |
\*---------------------------------------------------------------------------*/
FoamFile
{
    version     2.0;
    format      ascii;
    class       surfaceScalarField;
    location    "4.2";
    object      phi;
}
// * * * * * * * * * * * * * * * * * * * * * * * * * * * * * * * * * * * * * //

dimensions      [0 3 -1 0 0 0 0];

internalField   nonuniform List<scalar> 
5457
(
0.198418
0.00158236
0.19648
0.00193734
0.194192
0.00228804
0.191509
0.00268352
0.188428
0.00308112
0.184951
0.00347667
0.181072
0.00387846
0.176779
0.00429388
0.172051
0.00472807
0.166865
0.00518505
0.161197
0.00566831
0.155016
0.00618082
0.148292
0.00672473
0.140991
0.00730108
0.133081
0.00790923
0.124535
0.00854616
0.11533
0.0092056
0.105453
0.00987689
0.0949088
0.0105438
0.0837256
0.0111833
0.0719611
0.0117644
0.0597129
0.0122482
0.0471242
0.0125887
0.034384
0.0127403
0.0216888
0.0126952
0.00903847
0.0126503
-0.0029157
0.0119542
-0.00847205
0.00555636
-0.00804303
-0.000429029
-0.00804303
0.199928
0.00165419
0.199176
0.00268975
0.197965
0.00349893
0.196332
0.00431664
0.194272
0.0051411
0.191782
0.00596666
0.188855
0.00680534
0.185478
0.00767063
0.181633
0.00857284
0.177298
0.00952029
0.172446
0.0105202
0.167048
0.011579
0.161072
0.0127012
0.154483
0.0138898
0.147248
0.015144
0.139335
0.016459
0.130718
0.0178232
0.121378
0.0192168
0.111313
0.0206084
0.100544
0.0219529
0.0891192
0.0231887
0.0771317
0.0242357
0.0647258
0.0249946
0.0521182
0.0253478
0.0396577
0.0251557
0.0281072
0.0242008
0.0185965
0.0214649
0.00879856
0.0153543
0.00118418
0.00718536
-0.00685885
0.199781
0.00187362
0.199087
0.00338356
0.197946
0.00463982
0.196409
0.00585321
0.194483
0.00706717
0.192164
0.00828563
0.189447
0.00952268
0.186322
0.010796
0.182774
0.0121206
0.178785
0.013509
0.174333
0.0149722
0.169392
0.0165198
0.163934
0.0181596
0.157927
0.0198967
0.151339
0.021732
0.144137
0.0236605
0.136292
0.0256684
0.127779
0.0277304
0.118582
0.029805
0.108704
0.0318306
0.0981726
0.0337204
0.0870504
0.0353579
0.0754537
0.0365913
0.0635765
0.0372251
0.0517344
0.0369978
0.0403989
0.0355363
0.0297404
0.0321234
0.019167
0.0259276
0.00959823
0.0167541
0.00273938
0.199703
0.00217054
0.199008
0.00407885
0.197887
0.00576031
0.196376
0.00736407
0.194488
0.00895523
0.192222
0.0105516
0.189575
0.0121703
0.186539
0.0138319
0.183105
0.015555
0.179258
0.0173554
0.174983
0.0192471
0.170261
0.0212423
0.16507
0.0233511
0.159386
0.0255807
0.153184
0.0279335
0.146439
0.0304054
0.139125
0.0329826
0.131218
0.0356374
0.122699
0.038324
0.113558
0.0409713
0.103802
0.0434772
0.0934591
0.0457004
0.0825979
0.0474526
0.071335
0.0484879
0.0598429
0.0484899
0.0483186
0.0470606
0.0368123
0.0436297
0.0251888
0.0375512
0.013336
0.0286069
0.0160754
0.199667
0.00250311
0.198964
0.00478209
0.197863
0.0068616
0.196381
0.00884571
0.194533
0.0108039
0.192318
0.0127661
0.189734
0.014754
0.186776
0.0167904
0.183434
0.0188965
0.179699
0.021091
0.175556
0.0233898
0.170991
0.0258072
0.165987
0.0283547
0.160527
0.0310407
0.154592
0.0338688
0.148162
0.0368357
0.141216
0.0399281
0.133735
0.0431187
0.125698
0.0463606
0.117089
0.0495804
0.107896
0.0526705
0.0981168
0.0554793
0.0877668
0.0578025
0.0768808
0.059374
0.0655106
0.05986
0.0537096
0.0588616
0.0414553
0.055884
0.0285886
0.0504178
0.0148528
0.0423427
0.0309282
0.199653
0.0028503
0.198949
0.00548613
0.197871
0.00793951
0.196427
0.0102898
0.194627
0.0126039
0.192473
0.0149196
0.189964
0.0172636
0.187093
0.0196611
0.183854
0.0221357
0.180237
0.0247081
0.17623
0.0273962
0.171822
0.0302157
0.166997
0.0331793
0.161741
0.0362964
0.156039
0.0395715
0.149872
0.0430021
0.143224
0.0465761
0.136075
0.0502679
0.128403
0.0540326
0.120184
0.0577999
0.11139
0.0614647
0.101991
0.064878
0.0919568
0.0678366
0.0812559
0.0700748
0.069856
0.07126
0.0577184
0.0709992
0.0447619
0.0688405
0.03085
0.0643297
0.0158736
0.0573191
0.0468018
0.19965
0.00320024
0.198954
0.0061821
0.197904
0.00898912
0.196505
0.0116895
0.194763
0.0143461
0.192681
0.0170015
0.190257
0.0196871
0.187488
0.0224307
0.184366
0.0252577
0.180883
0.0281909
0.177029
0.03125
0.172793
0.0344521
0.168161
0.0378112
0.163119
0.0413378
0.157653
0.0450375
0.151746
0.0489094
0.145379
0.0529434
0.138529
0.0571171
0.131171
0.0613907
0.123271
0.0657005
0.114784
0.0699512
0.105656
0.0740057
0.0958187
0.0776744
0.0851881
0.0807054
0.0736701
0.0827781
0.0611631
0.0835062
0.0475565
0.0824471
0.0327596
0.0791267
0.0167834
0.0732953
0.0635851
0.199655
0.00354558
0.198975
0.0068622
0.197959
0.0100049
0.19661
0.0130382
0.194934
0.0160221
0.192934
0.019002
0.190608
0.0220131
0.187952
0.0250858
0.184963
0.0282476
0.181631
0.0315229
0.177947
0.0349333
0.173902
0.0384973
0.169483
0.0422306
0.164675
0.0461451
0.159465
0.0502482
0.153833
0.0545415
0.147758
0.0590184
0.141213
0.0636616
0.134165
0.0684387
0.126569
0.073297
0.118364
0.0781562
0.109471
0.0828983
0.0997885
0.087357
0.0891893
0.0913046
0.0775271
0.0944403
0.0646492
0.0963841
0.050419
0.0966773
0.0347693
0.0947764
0.0177904
0.0902742
0.0813755
0.199664
0.0038814
0.199006
0.00751999
0.19803
0.0109811
0.196739
0.0143296
0.195137
0.0176241
0.193227
0.0209118
0.191009
0.0242309
0.188481
0.0276144
0.185637
0.0310915
0.182471
0.0346885
0.178976
0.0384286
0.175141
0.0423321
0.170955
0.0464163
0.166405
0.0506953
0.161474
0.0551791
0.156143
0.0598726
0.150387
0.0647744
0.144174
0.0698742
0.137463
0.0751499
0.130197
0.0805633
0.1223
0.0860536
0.113669
0.0915292
0.10417
0.0968553
0.0936362
0.101839
0.0818669
0.10621
0.0686516
0.109599
0.0538039
0.111525
0.037238
0.111342
0.0190842
0.108428
0.10046
0.199677
0.00420418
0.199047
0.00815023
0.198116
0.0119124
0.196887
0.0155579
0.195367
0.019145
0.193556
0.0227224
0.191456
0.0263307
0.189065
0.0300051
0.18638
0.0337766
0.183396
0.0376732
0.180104
0.0417197
0.176498
0.0459381
0.172567
0.0503478
0.168297
0.0549652
0.163672
0.0598037
0.158672
0.0648726
0.15327
0.0701768
0.147429
0.0757148
0.141102
0.0814773
0.134222
0.0874436
0.126698
0.0935776
0.118407
0.0998198
0.109186
0.106077
0.098822
0.112203
0.0870552
0.117976
0.0735926
0.123062
0.058151
0.126967
0.0405539
0.128939
0.0209025
0.128079
0.121362
0.199693
0.00451125
0.199095
0.00874861
0.198213
0.012794
0.197053
0.0167176
0.19562
0.0205783
0.193916
0.0244262
0.191943
0.0283037
0.1897
0.0322479
0.187185
0.0362916
0.184394
0.0404641
0.181322
0.0447918
0.177962
0.0492985
0.174304
0.0540056
0.170337
0.0589323
0.166045
0.0640955
0.161408
0.0695097
0.156398
0.0751868
0.150977
0.0811355
0.145094
0.0873608
0.138675
0.0938624
0.131621
0.100632
0.123792
0.107649
0.114998
0.11487
0.104986
0.122216
0.0934223
0.12954
0.0799015
0.136583
0.0639713
0.142897
0.0452376
0.147673
0.0236133
0.149704
0.144975
0.199711
0.00480056
0.199148
0.00931162
0.19832
0.0136216
0.197234
0.0178038
0.195894
0.0219185
0.194303
0.0260166
0.192465
0.0301422
0.190379
0.0343341
0.188044
0.0386263
0.185458
0.0430496
0.182619
0.0476317
0.179519
0.0523981
0.176152
0.0573722
0.172509
0.0625757
0.168575
0.0680293
0.164332
0.0737527
0.159754
0.079765
0.154804
0.0860856
0.149431
0.0927343
0.143561
0.0997318
0.137093
0.1071
0.12988
0.114861
0.121718
0.123032
0.112318
0.131616
0.101277
0.14058
0.0880498
0.14981
0.0719277
0.159019
0.0520905
0.16751
0.0278883
0.173906
0.172864
0.19973
0.00507049
0.199205
0.0098364
0.198435
0.0143916
0.197427
0.0188125
0.196185
0.0231605
0.194713
0.0274878
0.193016
0.0318396
0.191094
0.0362559
0.188948
0.0407721
0.186578
0.0454199
0.183981
0.0502283
0.181156
0.0552239
0.178096
0.060432
0.174795
0.0658768
0.171242
0.0715821
0.167422
0.0775725
0.163313
0.083874
0.158883
0.0905154
0.154087
0.0975306
0.148858
0.10496
0.143102
0.112856
0.136682
0.121282
0.129395
0.130318
0.120946
0.140066
0.110888
0.150638
0.0985491
0.162149
0.0829078
0.17466
0.0624422
0.187976
0.0351294
0.201219
0.207993
0.199751
0.00531979
0.199266
0.0103207
0.198557
0.015101
0.197629
0.01974
0.19649
0.0243004
0.195142
0.0288351
0.193591
0.0333905
0.19184
0.0380074
0.18989
0.0427221
0.187743
0.0475672
0.185399
0.0525723
0.182857
0.0577652
0.180117
0.0631725
0.177174
0.0688201
0.174021
0.0747347
0.170649
0.0809445
0.167042
0.0874809
0.163177
0.0943807
0.159019
0.101689
0.154517
0.109463
0.149595
0.117777
0.144144
0.126733
0.137995
0.136467
0.13089
0.147171
0.122412
0.159116
0.111868
0.172693
0.0980267
0.188501
0.0785474
0.207455
0.0486726
0.231093
0.256666
0.199772
0.00554749
0.19933
0.0107626
0.198684
0.0157475
0.19784
0.0205836
0.196806
0.0253348
0.195586
0.0300548
0.194186
0.0347906
0.19261
0.0395837
0.190861
0.0444709
0.188943
0.0494852
0.186858
0.0546568
0.18461
0.060014
0.182198
0.065584
0.179624
0.0713941
0.176887
0.0774723
0.173982
0.0838494
0.170902
0.0905602
0.167637
0.0976464
0.164165
0.10516
0.16046
0.113169
0.156475
0.121761
0.152147
0.131061
0.147374
0.14124
0.141999
0.152547
0.135757
0.165357
0.128179
0.180271
0.118324
0.198356
0.10394
0.22184
0.0777095
0.257324
0.334375
0.00393741
-0.00393741
0.00770302
-0.00376561
0.0108522
-0.00314922
0.0133922
-0.00253996
0.015425
-0.00203276
0.0170536
-0.00162866
0.0183663
-0.00131266
0.0194366
-0.0010703
0.020325
-0.000888446
0.0210802
-0.000755171
0.0217401
-0.000659884
0.0223331
-0.000592964
0.0228782
-0.000545175
0.0233856
-0.00050741
0.0238567
-0.000471044
0.0242857
-0.00042897
0.0246627
-0.000377038
0.0249776
-0.000314956
0.0252229
-0.000245276
0.025393
-0.000170081
0.0254815
-8.84895e-05
0.025485
-3.4845e-06
0.0253873
9.76833e-05
0.0251973
0.000190027
0.0249388
0.000258517
0.0246553
0.000283498
0.024393
0.00026222
0.024189
0.000203991
0.0240694
0.000119621
1.36572e-05
0.00353524
-0.00747266
0.00697296
-0.00720332
0.00990372
-0.00607999
0.0123317
-0.00496794
0.0143511
-0.00405217
0.016051
-0.00332852
0.0175036
-0.00276531
0.018767
-0.0023337
0.0198874
-0.0020088
0.0209013
-0.0017691
0.0218374
-0.001596
0.0227175
-0.00147302
0.023557
-0.00138468
0.0243655
-0.00131596
0.0251471
-0.0012526
0.0259006
-0.00118244
0.0266213
-0.00109783
0.0273041
-0.000997755
0.0279461
-0.000887243
0.0285479
-0.000771896
0.0291093
-0.000649855
0.0296165
-0.000510714
0.030059
-0.000344791
0.0304256
-0.000176604
0.0307229
-3.87125e-05
0.0309757
3.06773e-05
0.0312154
2.24596e-05
0.0314679
-4.84707e-05
0.0317448
-0.000157286
-0.000224375
0.00289445
-0.0103671
0.00561606
-0.00992493
0.00789164
-0.00835556
0.00976064
-0.00683695
0.0113154
-0.00560691
0.0126295
-0.00464266
0.0137593
-0.00389507
0.0147474
-0.00332181
0.0156272
-0.0028886
0.0164252
-0.00256714
0.0171626
-0.00233338
0.0178557
-0.00216608
0.0185164
-0.00204545
0.0191528
-0.00195237
0.0197688
-0.00186851
0.0203639
-0.00177763
0.0209348
-0.00166865
0.0214763
-0.00153924
0.0219859
-0.00139688
0.0224668
-0.00125283
0.0229259
-0.00110894
0.0233667
-0.000951494
0.0237862
-0.000764334
0.0241705
-0.000560887
0.0245105
-0.000378692
0.0247921
-0.000250927
0.0250158
-0.000201244
0.0251915
-0.000224215
0.025351
-0.000316735
-0.000359364
0.00220091
-0.012568
0.00408678
-0.0118108
0.00557551
-0.00984429
0.00676099
-0.00802243
0.0077303
-0.00657622
0.00853902
-0.00545138
0.00922421
-0.00458026
0.00981198
-0.00390957
0.0103226
-0.00339927
0.0107728
-0.00301728
0.0111759
-0.00273647
0.0115428
-0.00253299
0.011882
-0.00238471
0.0122003
-0.00227062
0.0125022
-0.00217041
0.0127898
-0.00206523
0.0130615
-0.00194033
0.0133116
-0.00178938
0.0135334
-0.00161871
0.0137264
-0.00144579
0.0139005
-0.00128306
0.0140699
-0.00112083
0.0142356
-0.000930106
0.014379
-0.000704275
0.0144672
-0.000466904
0.0144566
-0.000240279
0.0143248
-6.94534e-05
0.0140888
1.17506e-05
0.0137797
-7.62377e-06
-0.000199636
0.00140634
-0.0139744
0.00237169
-0.0127762
0.00300661
-0.0104792
0.00343637
-0.00845219
0.0037406
-0.00688045
0.00395458
-0.00566536
0.00409789
-0.00472357
0.00418363
-0.00399531
0.00422302
-0.00343866
0.00422527
-0.00301953
0.00419792
-0.00270912
0.00414739
-0.00248246
0.00407935
-0.00231666
0.00399891
-0.00219018
0.00391142
-0.00208292
0.0038222
-0.00197601
0.00373438
-0.00185251
0.00364492
-0.00169992
0.00353996
-0.00151376
0.00339379
-0.00129962
0.00318322
-0.00107248
0.0029044
-0.000842018
0.00258767
-0.000613372
0.00227807
-0.00039467
0.00201287
-0.000201705
0.00182044
-4.78546e-05
0.00169562
5.53727e-05
0.00159985
0.00010752
0.00148947
0.000102752
-0.000100382
0.000495609
-0.01447
0.000481889
-0.0127624
0.000199928
-0.0101972
-0.000143935
-0.00810833
-0.000561414
-0.00646297
-0.0010151
-0.00521168
-0.00149063
-0.00424804
-0.00197491
-0.00351103
-0.00245982
-0.00295375
-0.00293989
-0.00253946
-0.00341131
-0.0022377
-0.00387103
-0.00202274
-0.00431668
-0.00187101
-0.00474628
-0.00176058
-0.00515706
-0.00167214
-0.00554396
-0.00158911
-0.00589966
-0.00149681
-0.00621696
-0.00138262
-0.00649303
-0.00123769
-0.00673261
-0.00106004
-0.00694893
-0.000856167
-0.00715388
-0.000637066
-0.0073522
-0.000415053
-0.00754363
-0.000203234
-0.00771192
-3.34212e-05
-0.00785613
9.63592e-05
-0.00798346
0.000182702
-0.00810189
0.000225945
-0.00817443
0.000175297
2.90736e-06
-0.000519469
-0.0139505
-0.00153568
-0.0117462
-0.00269324
-0.00903969
-0.00388699
-0.00691458
-0.00506067
-0.00528929
-0.00618995
-0.0040824
-0.00724953
-0.00318846
-0.00822973
-0.00253083
-0.00912613
-0.00205734
-0.00993897
-0.00172663
-0.0106727
-0.00150393
-0.0113345
-0.00136097
-0.0119323
-0.00127321
-0.012474
-0.00121891
-0.0129655
-0.00118061
-0.013409
-0.00114556
-0.0138031
-0.00110278
-0.0141452
-0.00104051
-0.0144362
-0.000946716
-0.0146831
-0.000813116
-0.0148997
-0.00063956
-0.0151015
-0.000435237
-0.0152971
-0.000219444
-0.0154861
-1.4265e-05
-0.015656
0.000136521
-0.0158076
0.000247954
-0.0159484
0.000323466
-0.0160709
0.000348459
-0.0161739
0.000278308
0.000132779
-0.00161093
-0.0123396
-0.00364989
-0.00970726
-0.00569957
-0.00699
-0.00768137
-0.00493278
-0.00952108
-0.00344958
-0.0111835
-0.00241996
-0.0126525
-0.00171953
-0.013936
-0.00124732
-0.0150518
-0.000941515
-0.016022
-0.000756408
-0.0168691
-0.00065685
-0.0176132
-0.000616892
-0.0182709
-0.000615517
-0.0188568
-0.000632994
-0.0193827
-0.000654654
-0.0198548
-0.000673533
-0.0202736
-0.000683921
-0.0206382
-0.000675925
-0.0209505
-0.000634464
-0.0212188
-0.000544765
-0.0214569
-0.000401512
-0.0216775
-0.000214573
-0.0218849
-1.21064e-05
-0.0220739
0.000174744
-0.0222516
0.000314272
-0.0224211
0.000417438
-0.0225809
0.000483268
-0.0227294
0.000496959
-0.0228779
0.000426836
0.000310693
-0.00284076
-0.00949881
-0.005983
-0.00656503
-0.00891762
-0.00405537
-0.0115748
-0.00227558
-0.0139074
-0.00111697
-0.0159305
-0.000396919
-0.0176629
1.28937e-05
-0.0191143
0.000204052
-0.0203175
0.000261713
-0.0213266
0.000252727
-0.0221899
0.000206471
-0.022944
0.00013718
-0.0236142
5.46748e-05
-0.0242165
-3.07476e-05
-0.0247601
-0.000111036
-0.0252498
-0.000183769
-0.0256864
-0.000247357
-0.0260676
-0.000294684
-0.0263949
-0.000307233
-0.0266774
-0.000262218
-0.0269305
-0.00014847
-0.0271656
2.0588e-05
-0.0273862
0.000208456
-0.0275941
0.000382697
-0.0277979
0.000518042
-0.0279901
0.000609609
-0.0281675
0.000660669
-0.0283328
0.000662286
-0.0285025
0.000596517
0.000508353
-0.00439285
-0.00510597
-0.00907196
-0.00188592
-0.0132067
7.93393e-05
-0.0165578
0.0010755
-0.0192033
0.00152853
-0.0212722
0.00167201
-0.0229031
0.0016438
-0.0242215
0.00152246
-0.0253195
0.00135978
-0.0262492
0.00118239
-0.0270487
0.00100594
-0.0277447
0.000833241
-0.0283569
0.000666819
-0.0289034
0.000515783
-0.0294019
0.00038746
-0.0298622
0.00027652
-0.0302824
0.000172847
-0.0306554
7.83486e-05
-0.0309783
1.55935e-05
-0.0312576
1.71683e-05
-0.0315077
0.00010158
-0.0317435
0.000256419
-0.0319791
0.000444039
-0.0322153
0.000618912
-0.0324435
0.000746185
-0.0326536
0.000819705
-0.0328426
0.000849684
-0.0330185
0.000838246
-0.0332018
0.000779754
0.000716563
-0.00645099
0.00134503
-0.0120936
0.00375674
-0.0164865
0.00447221
-0.0198969
0.00448589
-0.0225935
0.00422509
-0.0247387
0.00381724
-0.0264594
0.00336453
-0.0278543
0.00291727
-0.0289971
0.00250258
-0.029954
0.00213929
-0.0307766
0.00182863
-0.0314969
0.00155347
-0.0321323
0.00130222
-0.0326984
0.0010819
-0.033212
0.000901079
-0.0336839
0.000748357
-0.0341103
0.000599332
-0.0344789
0.000446957
-0.0347848
0.000321431
-0.0350422
0.000274606
-0.0352792
0.000338511
-0.0355208
0.000498066
-0.0357767
0.000699975
-0.0360389
0.000881065
-0.0362908
0.00099814
-0.0365177
0.00104654
-0.0367167
0.00104871
-0.036901
0.00102255
-0.0370935
0.000972204
0.000931515
-0.00776398
0.00910901
-0.014142
0.0101347
-0.0190641
0.0093944
-0.0228369
0.00825861
-0.0257051
0.00709336
-0.0279043
0.00601636
-0.029626
0.00508624
-0.0310019
0.00429323
-0.0321164
0.00361704
-0.0330434
0.00306634
-0.0338469
0.00263204
-0.03456
0.00226663
-0.0351916
0.00193385
-0.0357525
0.0016428
-0.0362652
0.00141378
-0.0367465
0.00122966
-0.037189
0.00104175
-0.0375677
0.000825675
-0.0378691
0.000622803
-0.0381119
0.000517426
-0.0383376
0.000564213
-0.0385821
0.000742601
-0.0388564
0.00097431
-0.0391464
0.00117103
-0.0394251
0.00127682
-0.0396696
0.00129104
-0.0398769
0.00125605
-0.0400662
0.00121187
-0.0402638
0.00116978
0.00114956
-0.00931399
0.018423
-0.0169554
0.0177762
-0.0223364
0.0147754
-0.0261385
0.0120607
-0.0289184
0.00987326
-0.0309748
0.00807276
-0.0325531
0.00666456
-0.0338142
0.00555438
-0.0348272
0.00463
-0.0356637
0.00390289
-0.0364072
0.0033755
-0.0370929
0.00295235
-0.0377067
0.00254759
-0.0382449
0.00218104
-0.03874
0.00190889
-0.0392229
0.00171255
-0.0396814
0.00150029
-0.0400691
0.00121329
-0.0403547
0.000908416
-0.0405634
0.000726167
-0.0407608
0.000761582
-0.0410005
0.000982286
-0.0412945
0.00126833
-0.0416181
0.00149466
-0.0419292
0.0015879
-0.0421928
0.00155465
-0.0424048
0.00146809
-0.0425938
0.00140078
-0.0427921
0.00136815
0.00136762
-0.0122244
0.0306474
-0.0214127
0.0269645
-0.0267323
0.020095
-0.0299818
0.0153102
-0.0323555
0.012247
-0.0340268
0.00974409
-0.0352768
0.00791458
-0.0363249
0.0066024
-0.037173
0.00547809
-0.0378538
0.00458373
-0.038494
0.00401567
-0.0391421
0.00360045
-0.0397319
0.0031374
-0.0402259
0.00267507
-0.040678
0.00236094
-0.0411526
0.00218712
-0.0416339
0.00198163
-0.0420367
0.00161605
-0.0422958
0.00116756
-0.0424445
0.000874895
-0.0425908
0.000907883
-0.0428182
0.00120962
-0.0431369
0.00158709
-0.0435045
0.00186222
-0.0438567
0.00194014
-0.0441411
0.00183908
-0.0443513
0.00167826
-0.0445312
0.00158068
-0.0447259
0.00156284
0.00158284
-0.0173329
0.0479802
-0.028418
0.0380496
-0.0329326
0.0246097
-0.034398
0.0167755
-0.0360319
0.0138809
-0.0370258
0.0107379
-0.0377005
0.00858932
-0.038492
0.00739386
-0.0391852
0.00617133
-0.0396323
0.00503082
-0.040098
0.00448142
-0.0407086
0.00421106
-0.0412852
0.003714
-0.0417124
0.00310218
-0.0420845
0.00273313
-0.042544
0.00264659
-0.0430731
0.0025107
-0.0435149
0.00205791
-0.04374
0.00139258
-0.043788
0.000922978
-0.043849
0.000968804
-0.0440558
0.00141643
-0.0444093
0.00194065
-0.0448366
0.00228952
-0.0452428
0.00234629
-0.0455503
0.00214663
-0.0457479
0.00187578
-0.0459049
0.00173771
-0.0460919
0.00174983
0.00179396
0.207447
0.00576026
0.207034
0.0111752
0.206432
0.0163501
0.205647
0.0213681
0.204688
0.0262941
0.20356
0.0311823
0.202271
0.0360801
0.200825
0.0410295
0.199229
0.0460673
0.197487
0.0512266
0.195606
0.0565377
0.193592
0.0620288
0.191448
0.0677275
0.189181
0.073661
0.186796
0.0798579
0.184296
0.0863494
0.181684
0.0931716
0.178963
0.100367
0.176133
0.10799
0.173191
0.11611
0.170135
0.124818
0.166958
0.134238
0.163657
0.144541
0.160233
0.155971
0.156709
0.168881
0.15318
0.183801
0.150011
0.201525
0.148884
0.222967
0.160601
0.245607
0.258746
0.23623
0.21249
0.0059527
0.212118
0.0115481
0.211574
0.0168937
0.210868
0.0220741
0.210007
0.0271546
0.209
0.0321898
0.207853
0.0372273
0.206573
0.0423088
0.20517
0.047471
0.20365
0.0527467
0.202022
0.0581657
0.200295
0.0637558
0.198478
0.0695436
0.196584
0.0755557
0.194622
0.0818196
0.192606
0.0883653
0.190551
0.0952269
0.188473
0.102445
0.186395
0.110069
0.184345
0.11816
0.182363
0.1268
0.18051
0.13609
0.178886
0.146166
0.177661
0.157196
0.177159
0.169384
0.178033
0.182926
0.181702
0.197856
0.190769
0.213899
0.206245
0.230131
0.245625
0.219367
0.217658
0.00612265
0.217329
0.0118771
0.21685
0.0173724
0.21623
0.0226938
0.215478
0.0279071
0.214601
0.0330666
0.213609
0.0382196
0.21251
0.0434075
0.211314
0.0486665
0.210033
0.0540284
0.208676
0.0595221
0.207258
0.065174
0.205792
0.0710094
0.204295
0.0770528
0.202785
0.0833295
0.201284
0.0898662
0.199819
0.0966925
0.198421
0.103843
0.197133
0.111356
0.196011
0.119282
0.195133
0.127678
0.194613
0.136611
0.19462
0.146159
0.195417
0.156398
0.197417
0.167384
0.201229
0.179114
0.207623
0.191462
0.217259
0.204263
0.229855
0.217535
0.2287
0.24678
0.222951
0.00626812
0.22267
0.0121584
0.222262
0.0177806
0.221735
0.0232202
0.2211
0.0285427
0.220364
0.0338022
0.219538
0.0390453
0.218633
0.0443127
0.21766
0.0496393
0.216633
0.0550559
0.215565
0.0605897
0.214474
0.0662654
0.213378
0.0721057
0.212298
0.0781324
0.21126
0.084367
0.210295
0.0908315
0.209439
0.0975488
0.208737
0.104544
0.208249
0.111845
0.20805
0.119481
0.208244
0.127484
0.208971
0.135885
0.210423
0.144706
0.212865
0.153956
0.216642
0.163607
0.222175
0.173582
0.229911
0.183726
0.240421
0.193753
0.254623
0.203334
0.210216
0.273107
0.228374
0.00638726
0.228144
0.0123885
0.227812
0.0181132
0.227385
0.0236466
0.226874
0.0290536
0.226289
0.0343875
0.22564
0.039694
0.22494
0.0450125
0.224203
0.0503768
0.223443
0.0558157
0.222678
0.0613545
0.221928
0.0670153
0.221216
0.0728179
0.220568
0.0787805
0.220015
0.0849197
0.219595
0.0912516
0.219353
0.0977912
0.219344
0.104553
0.219637
0.111551
0.220321
0.118797
0.221509
0.126296
0.223345
0.134049
0.226014
0.142037
0.229748
0.150223
0.234825
0.15853
0.241574
0.166833
0.250373
0.174927
0.261668
0.182458
0.275932
0.189071
0.19368
0.292467
0.233929
0.00647837
0.233754
0.012564
0.233502
0.0183655
0.233181
0.023967
0.232802
0.0294325
0.232376
0.0348142
0.231913
0.0401565
0.231428
0.0454973
0.230937
0.0508685
0.230455
0.056297
0.230004
0.0618056
0.229606
0.0674135
0.229287
0.073137
0.229077
0.07899
0.229013
0.0849838
0.229137
0.0911279
0.229499
0.0974291
0.230161
0.103892
0.231196
0.110516
0.232697
0.117296
0.234775
0.124218
0.237567
0.131257
0.241234
0.138369
0.245971
0.145486
0.251997
0.152504
0.259553
0.159276
0.268883
0.165597
0.280163
0.171177
0.293489
0.175745
0.178786
0.308384
0.23962
0.00653998
0.239502
0.0126821
0.239334
0.0185334
0.239125
0.0241762
0.238884
0.0296733
0.238622
0.0350754
0.238354
0.0404253
0.238092
0.0457591
0.237854
0.0511065
0.237659
0.0564921
0.237528
0.0619361
0.237487
0.0674543
0.237565
0.0730594
0.237794
0.0787606
0.238214
0.0845641
0.23887
0.0904724
0.239814
0.0964846
0.241111
0.102595
0.242833
0.108793
0.24507
0.115059
0.247923
0.121365
0.251513
0.127668
0.255975
0.133908
0.261457
0.140003
0.268117
0.145844
0.276103
0.151289
0.285536
0.156164
0.296461
0.160252
0.308866
0.16334
0.16516
0.322492
0.245448
0.00657081
0.24539
0.0127405
0.24531
0.0186133
0.245216
0.0242699
0.245119
0.029771
0.245028
0.0351657
0.244959
0.0404947
0.244926
0.0457921
0.244947
0.0510854
0.245042
0.0563967
0.245235
0.0617429
0.245553
0.067137
0.246025
0.0725875
0.246686
0.0780993
0.247577
0.0836733
0.248743
0.0893062
0.250238
0.0949899
0.252122
0.100711
0.254466
0.106449
0.257349
0.112176
0.26086
0.117854
0.265098
0.12343
0.270167
0.128839
0.276174
0.133997
0.283218
0.1388
0.29138
0.143127
0.300707
0.146837
0.311188
0.149772
0.322755
0.151773
0.152709
0.335205
0.251418
0.00656985
0.251422
0.012737
0.251432
0.0186027
0.251457
0.0242448
0.251506
0.0297219
0.251591
0.0350811
0.251725
0.0403609
0.251924
0.0455932
0.252206
0.0508029
0.252593
0.0560095
0.253109
0.0612272
0.253781
0.0664653
0.254639
0.0717291
0.255719
0.077019
0.257061
0.0823315
0.25871
0.087658
0.260715
0.0929849
0.263133
0.0982928
0.266027
0.103555
0.269465
0.108738
0.27352
0.113798
0.278269
0.118681
0.283787
0.123321
0.290142
0.127641
0.297392
0.131551
0.305569
0.134949
0.314677
0.137729
0.324669
0.13978
0.335445
0.140996
0.141319
0.346835
0.257532
0.00653634
0.257599
0.0126704
0.257702
0.0184996
0.257848
0.0240985
0.258047
0.0295236
0.258308
0.0348194
0.258647
0.0400222
0.259079
0.0451613
0.259622
0.0502594
0.260299
0.0553331
0.261132
0.0603937
0.26215
0.0654478
0.263382
0.0704969
0.264863
0.0755383
0.26663
0.0805642
0.268726
0.0855623
0.271196
0.0905149
0.27409
0.0953986
0.277461
0.100184
0.281366
0.104833
0.285861
0.109303
0.291001
0.113541
0.296835
0.117487
0.303404
0.121072
0.310731
0.124223
0.318819
0.126861
0.327641
0.128908
0.337131
0.13029
0.347186
0.130941
0.130842
0.357664
0.263794
0.00646983
0.263925
0.0125398
0.264122
0.0183027
0.26439
0.02383
0.264739
0.029175
0.265178
0.03438
0.265721
0.0394788
0.266385
0.0444981
0.267186
0.0494581
0.268146
0.0543729
0.269289
0.0592512
0.27064
0.0640967
0.272229
0.0689083
0.274087
0.0736801
0.276249
0.0784016
0.278754
0.0830577
0.281641
0.0876282
0.284952
0.0920875
0.28873
0.096405
0.29302
0.100544
0.29786
0.104462
0.303289
0.108112
0.309335
0.111442
0.316014
0.114393
0.323328
0.116909
0.331259
0.118931
0.339763
0.120404
0.348771
0.121282
0.358183
0.121529
0.121144
0.367881
0.270207
0.00637013
0.270402
0.0123448
0.270693
0.0180119
0.271083
0.023439
0.271582
0.0286766
0.272198
0.0337641
0.272944
0.0387329
0.273834
0.0436073
0.274888
0.0484048
0.276123
0.0531374
0.277563
0.0578113
0.279232
0.0624279
0.281156
0.0669838
0.283365
0.0714709
0.28589
0.0758769
0.288763
0.0801849
0.292018
0.0843736
0.295688
0.0884174
0.299807
0.092286
0.304406
0.0959451
0.309511
0.0993567
0.315144
0.102479
0.321318
0.105268
0.328031
0.10768
0.33527
0.109669
0.343005
0.111196
0.351185
0.112224
0.359742
0.112726
0.368586
0.112685
0.112113
0.377617
0.276774
0.00623734
0.277033
0.0120857
0.277417
0.0176277
0.277929
0.0229267
0.278576
0.0280301
0.279365
0.0329746
0.280309
0.0377889
0.281422
0.0424949
0.282719
0.047108
0.284218
0.0516378
0.285941
0.0560887
0.287909
0.06046
0.290146
0.0647467
0.292677
0.0689395
0.295529
0.0730247
0.298729
0.0769851
0.302303
0.0807995
0.306278
0.084443
0.310676
0.0878878
0.315518
0.0911029
0.32082
0.0940552
0.326589
0.0967101
0.332825
0.0990324
0.339517
0.100988
0.346641
0.102545
0.354161
0.103676
0.362024
0.10436
0.370166
0.104584
0.378508
0.104342
0.103654
0.386968
0.283498
0.00607184
0.283821
0.0117633
0.284297
0.0171513
0.284929
0.022295
0.28572
0.0272385
0.286679
0.0320155
0.287816
0.0366525
0.289142
0.0411688
0.290672
0.0455778
0.292422
0.0498873
0.294411
0.0540999
0.296658
0.0582136
0.299182
0.0622223
0.302006
0.0661158
0.30515
0.0698804
0.308636
0.0734991
0.312484
0.0769517
0.316712
0.0802154
0.321334
0.0832652
0.326363
0.0860745
0.331802
0.0886155
0.337652
0.0908603
0.343902
0.0927822
0.350534
0.0943561
0.357519
0.0955606
0.364816
0.0963787
0.372377
0.0967995
0.380142
0.0968192
0.388043
0.0964414
0.0956864
0.39601
0.290384
0.00587427
0.290768
0.0113789
0.291335
0.0165848
0.292083
0.0215469
0.293016
0.0263058
0.294138
0.0308926
0.29546
0.0353311
0.29699
0.0396385
0.298741
0.0438264
0.300728
0.0479008
0.302965
0.0518632
0.305468
0.0557106
0.308254
0.0594363
0.311339
0.06303
0.314741
0.0664785
0.318475
0.0697656
0.322553
0.0728729
0.326988
0.0757804
0.331787
0.0784663
0.336954
0.0809084
0.342485
0.0830844
0.348372
0.0849729
0.3546
0.0865541
0.361145
0.0878108
0.367976
0.0887296
0.375054
0.0893014
0.38233
0.0895228
0.389753
0.0893962
0.397265
0.0889298
0.0881449
0.404806
0.297435
0.0056455
0.297879
0.0109341
0.298533
0.0159309
0.299394
0.0206862
0.300462
0.0252374
0.301742
0.0296126
0.30324
0.0338333
0.304964
0.0379148
0.306923
0.0418669
0.30913
0.0456945
0.311595
0.0493978
0.314332
0.0529736
0.317354
0.0564148
0.320672
0.0597118
0.324298
0.062852
0.328243
0.0658208
0.332514
0.0686022
0.337116
0.0711786
0.34205
0.0735322
0.347313
0.075645
0.352898
0.0774998
0.35879
0.0790807
0.36497
0.0803739
0.371412
0.0813687
0.378084
0.0820576
0.384948
0.0824376
0.391961
0.08251
0.399076
0.0822813
0.406243
0.0817623
0.0809737
0.413415
0.304654
0.00538658
0.305157
0.0104311
0.305895
0.0151929
0.306864
0.0197175
0.308062
0.0240391
0.309492
0.0281831
0.311156
0.0321688
0.313062
0.0360094
0.315215
0.0397135
0.317625
0.0432848
0.320299
0.0467231
0.323248
0.0500248
0.32648
0.0531832
0.330002
0.0561892
0.333823
0.0590317
0.337946
0.0616978
0.342374
0.0641738
0.347107
0.0664452
0.352142
0.0684976
0.35747
0.0703171
0.363079
0.0718909
0.368951
0.0732079
0.375066
0.0742593
0.381396
0.0750391
0.387909
0.0755446
0.39457
0.0757767
0.401339
0.0757401
0.408177
0.0754435
0.415041
0.0748989
0.0741259
0.421888
0.312046
0.00509874
0.312605
0.00987239
0.313423
0.0143742
0.314495
0.0186457
0.315817
0.0227174
0.317388
0.0266123
0.319209
0.0303474
0.321284
0.0339345
0.323617
0.0373806
0.326213
0.0406887
0.329078
0.0438584
0.332217
0.046886
0.335634
0.0497654
0.339335
0.0524885
0.343321
0.0550456
0.347593
0.0574258
0.352149
0.0596178
0.356985
0.0616098
0.362091
0.0633909
0.367458
0.0649505
0.373069
0.0662798
0.378905
0.0673716
0.384944
0.068221
0.391157
0.0688257
0.397516
0.0691862
0.403986
0.0693061
0.410534
0.0691922
0.417123
0.0688543
0.423717
0.0683046
0.0675613
0.430282
0.319615
0.00478328
0.320227
0.00926042
0.321122
0.013479
0.322292
0.0174762
0.32373
0.0212793
0.325433
0.0249089
0.327401
0.0283798
0.329633
0.0317023
0.332131
0.0348824
0.334897
0.0379226
0.337934
0.040822
0.341242
0.0435775
0.344824
0.0461836
0.348679
0.0486333
0.352806
0.0509185
0.357202
0.0530301
0.361861
0.0549592
0.366774
0.0566967
0.37193
0.0582343
0.377316
0.0595647
0.382914
0.0606823
0.388703
0.0615828
0.394659
0.0622644
0.400757
0.0627274
0.406969
0.0629746
0.413264
0.0630114
0.419611
0.0628455
0.425978
0.062487
0.432335
0.061948
0.0612448
0.438651
0.327365
0.00444159
0.328027
0.00859792
0.328995
0.0125112
0.330257
0.0162144
0.331804
0.0197319
0.333632
0.0230815
0.335735
0.0262762
0.338113
0.029325
0.340762
0.0322329
0.343683
0.0350019
0.346874
0.0376313
0.350333
0.0401181
0.354059
0.0424578
0.358048
0.0446445
0.362295
0.0466716
0.366793
0.0485319
0.371533
0.0502185
0.376505
0.0517247