/*--------------------------------*- C++ -*----------------------------------*\
  =========                 |
  \\      /  F ield         | OpenFOAM: The Open Source CFD Toolbox
   \\    /   O peration     | Website:  https://openfoam.org
    \\  /    A nd           | Version:  7
     \\/     M anipulation  |
\*---------------------------------------------------------------------------*/
FoamFile
{
    version     2.0;
    format      ascii;
    class       volVectorField;
    location    "4.2";
    object      U;
}
// * * * * * * * * * * * * * * * * * * * * * * * * * * * * * * * * * * * * * //

dimensions      [0 1 -1 0 0 0 0];

internalField   nonuniform List<vector> 
2790
(
(9.94399 0.0205231 0)
(9.87572 0.0295876 0)
(9.77521 0.0359894 0)
(9.64944 0.0425561 0)
(9.50409 0.0493853 0)
(9.34007 0.0564281 0)
(9.15655 0.0638156 0)
(8.95263 0.0717113 0)
(8.72747 0.0802549 0)
(8.48009 0.0895731 0)
(8.20929 0.099793 0)
(7.91367 0.111045 0)
(7.59171 0.12346 0)
(7.24181 0.137165 0)
(6.86236 0.152273 0)
(6.45183 0.16887 0)
(6.00892 0.186998 0)
(5.53273 0.20662 0)
(5.02302 0.227592 0)
(4.48051 0.249613 0)
(3.90722 0.272178 0)
(3.3069 0.294528 0)
(2.68536 0.315623 0)
(2.05069 0.334292 0)
(1.41187 0.35061 0)
(0.798101 0.372887 0)
(0.110807 0.325099 0)
(-0.469562 -0.114843 0)
(-0.453767 -0.297171 0)
(-0.231163 -0.423866 0)
(9.9985 0.0407029 0)
(9.98145 0.0623826 0)
(9.93575 0.0791399 0)
(9.86416 0.0966244 0)
(9.77098 0.115123 0)
(9.65715 0.134487 0)
(9.52206 0.154974 0)
(9.36486 0.176942 0)
(9.18473 0.200706 0)
(8.98068 0.226548 0)
(8.75154 0.254742 0)
(8.49591 0.285558 0)
(8.21223 0.319247 0)
(7.89885 0.356021 0)
(7.55408 0.396018 0)
(7.17624 0.439261 0)
(6.76383 0.485591 0)
(6.31572 0.534586 0)
(5.83131 0.585462 0)
(5.31095 0.636955 0)
(4.75623 0.687206 0)
(4.17049 0.73365 0)
(3.55938 0.772958 0)
(2.93164 0.801101 0)
(2.30004 0.81376 0)
(1.69303 0.807267 0)
(1.10723 0.747279 0)
(0.658944 0.547962 0)
(0.186535 0.224664 0)
(-0.00820049 -0.45371 0)
(9.99559 0.0432068 0)
(9.97556 0.0752714 0)
(9.9318 0.103346 0)
(9.8649 0.13237 0)
(9.77778 0.163058 0)
(9.67155 0.195397 0)
(9.54588 0.229741 0)
(9.40014 0.2666 0)
(9.23366 0.306467 0)
(9.04565 0.349803 0)
(8.8351 0.397068 0)
(8.60083 0.448717 0)
(8.34147 0.505186 0)
(8.05553 0.566857 0)
(7.74141 0.634004 0)
(7.39748 0.706723 0)
(7.02215 0.784829 0)
(6.61401 0.867716 0)
(6.172 0.954187 0)
(5.69571 1.04225 0)
(5.18571 1.12888 0)
(4.64404 1.20979 0)
(4.07488 1.27916 0)
(3.48546 1.32934 0)
(2.88693 1.3501 0)
(2.29955 1.32645 0)
(1.73192 1.22081 0)
(1.21631 0.973052 0)
(0.701186 0.570201 0)
(0.358067 -0.156481 0)
(9.99403 0.049499 0)
(9.97181 0.0932059 0)
(9.92788 0.133571 0)
(9.86225 0.174208 0)
(9.77693 0.216432 0)
(9.67298 0.260659 0)
(9.55032 0.307428 0)
(9.4085 0.357412 0)
(9.24703 0.411287 0)
(9.06534 0.4697 0)
(8.8627 0.533296 0)
(8.63821 0.602715 0)
(8.39087 0.678583 0)
(8.11954 0.761463 0)
(7.82303 0.851808 0)
(7.50005 0.949861 0)
(7.14929 1.05553 0)
(6.76949 1.16822 0)
(6.35955 1.28659 0)
(5.91866 1.40825 0)
(5.4466 1.52946 0)
(4.94408 1.64468 0)
(4.41325 1.74614 0)
(3.85836 1.82323 0)
(3.2859 1.86138 0)
(2.70648 1.84036 0)
(2.12572 1.72605 0)
(1.55431 1.47793 0)
(0.957985 1.08377 0)
(0.509437 0.502405 0)
(9.99331 0.0572134 0)
(9.96994 0.110958 0)
(9.92593 0.162103 0)
(9.86146 0.213347 0)
(9.77799 0.266355 0)
(9.67635 0.321912 0)
(9.55654 0.380699 0)
(9.41822 0.443484 0)
(9.26098 0.511051 0)
(9.08434 0.584163 0)
(8.88771 0.663579 0)
(8.6704 0.750052 0)
(8.43161 0.844322 0)
(8.17048 0.947068 0)
(7.8861 1.05886 0)
(7.57751 1.18005 0)
(7.2437 1.31066 0)
(6.88365 1.45016 0)
(6.49634 1.5972 0)
(6.08079 1.7493 0)
(5.63623 1.90239 0)
(5.1622 2.0503 0)
(4.65886 2.18417 0)
(4.1273 2.29175 0)
(3.56949 2.35658 0)
(2.98897 2.35736 0)
(2.3869 2.26502 0)
(1.76645 2.04772 0)
(1.09003 1.6915 0)
(0.536667 1.15425 0)
(9.99302 0.0655384 0)
(9.96923 0.128701 0)
(9.92556 0.190113 0)
(9.86253 0.251842 0)
(9.78129 0.315577 0)
(9.68244 0.382317 0)
(9.56601 0.452872 0)
(9.43171 0.528097 0)
(9.27921 0.608874 0)
(9.10807 0.696076 0)
(8.91778 0.790569 0)
(8.70775 0.893211 0)
(8.4773 1.00484 0)
(8.22569 1.12624 0)
(7.95217 1.25807 0)
(7.65592 1.40079 0)
(7.33607 1.55451 0)
(6.99168 1.71883 0)
(6.62174 1.89252 0)
(6.22507 2.07319 0)
(5.80035 2.25682 0)
(5.34612 2.43718 0)
(4.86079 2.60519 0)
(4.34279 2.74822 0)
(3.79049 2.84957 0)
(3.20266 2.88824 0)
(2.57665 2.8383 0)
(1.91353 2.67171 0)
(1.17279 2.37412 0)
(0.549985 1.89453 0)
(9.99297 0.0740746 0)
(9.96926 0.146313 0)
(9.92637 0.217483 0)
(9.86508 0.289291 0)
(9.78642 0.363354 0)
(9.69085 0.440825 0)
(9.57835 0.522657 0)
(9.44872 0.609806 0)
(9.30165 0.703248 0)
(9.13678 0.803955 0)
(8.95365 0.912888 0)
(8.75171 1.03099 0)
(8.53035 1.1592 0)
(8.28889 1.29838 0)
(8.02661 1.44927 0)
(7.74271 1.61245 0)
(7.43633 1.78815 0)
(7.10644 1.97612 0)
(6.75186 2.17537 0)
(6.37107 2.38378 0)
(5.96217 2.5977 0)
(5.52272 2.81135 0)
(5.04962 3.01613 0)
(4.5391 3.19996 0)
(3.98676 3.3467 0)
(3.38801 3.43602 0)
(2.73734 3.44339 0)
(2.03631 3.34161 0)
(1.24179 3.11372 0)
(0.563534 2.69331 0)
(9.99306 0.0825878 0)
(9.96981 0.163606 0)
(9.92807 0.244049 0)
(9.86885 0.325479 0)
(9.79313 0.409445 0)
(9.70126 0.497204 0)
(9.59323 0.589835 0)
(9.46888 0.68839 0)
(9.32796 0.793932 0)
(9.17014 0.907519 0)
(8.99503 1.0302 0)
(8.80211 1.16302 0)
(8.59082 1.30698 0)
(8.36052 1.46306 0)
(8.11046 1.63212 0)
(7.83983 1.81483 0)
(7.54764 2.01162 0)
(7.23271 2.22247 0)
(6.89355 2.44669 0)
(6.52823 2.68264 0)
(6.13416 2.92731 0)
(5.70794 3.17573 0)
(5.24507 3.42034 0)
(4.73989 3.65019 0)
(4.1856 3.85026 0)
(3.57487 4.00094 0)
(2.89962 4.078 0)
(2.16219 4.05251 0)
(1.31617 3.90186 0)
(0.583243 3.54034 0)
(9.99326 0.090928 0)
(9.97072 0.180408 0)
(9.93046 0.269667 0)
(9.87362 0.360241 0)
(9.80118 0.453645 0)
(9.71344 0.551207 0)
(9.61038 0.654108 0)
(9.49188 0.76349 0)
(9.35776 0.880497 0)
(9.20773 1.00627 0)
(9.04145 1.14194 0)
(8.85848 1.28865 0)
(8.65828 1.44749 0)
(8.44022 1.61956 0)
(8.20358 1.80583 0)
(7.94748 2.00716 0)
(7.67081 2.2242 0)
(7.3722 2.45722 0)
(7.04984 2.706 0)
(6.70133 2.96951 0)
(6.32343 3.2456 0)
(5.91174 3.53048 0)
(5.46047 3.81803 0)
(4.96213 4.09897 0)
(4.40754 4.35988 0)
(3.78653 4.58216 0)
(3.08769 4.74118 0)
(2.31281 4.80461 0)
(1.41071 4.74128 0)
(0.614338 4.44215 0)
(9.99352 0.0989919 0)
(9.97191 0.196579 0)
(9.9334 0.294195 0)
(9.87924 0.393416 0)
(9.8104 0.495754 0)
(9.72716 0.602586 0)
(9.62953 0.715178 0)
(9.51741 0.834756 0)
(9.39068 0.962535 0)
(9.24912 1.09974 0)
(9.09245 1.24757 0)
(8.92028 1.40727 0)
(8.73213 1.58004 0)
(8.52742 1.76707 0)
(8.30544 1.96951 0)
(8.06527 2.18843 0)
(7.80575 2.42474 0)
(7.52533 2.6791 0)
(7.22196 2.95185 0)
(6.89283 3.24275 0)
(6.53411 3.55072 0)
(6.14057 3.87343 0)
(5.70517 4.20665 0)
(5.21862 4.54336 0)
(4.66914 4.87244 0)
(4.04302 5.17702 0)
(3.32384 5.43242 0)
(2.50989 5.60214 0)
(1.54195 5.64374 0)
(0.664095 5.41832 0)
(9.99384 0.106704 0)
(9.9733 0.212 0)
(9.9368 0.317502 0)
(9.88558 0.424855 0)
(9.82063 0.535588 0)
(9.74225 0.651118 0)
(9.65044 0.772784 0)
(9.54517 0.901879 0)
(9.42637 1.03969 0)
(9.2939 1.1875 0)
(9.14752 1.34662 0)
(8.98694 1.51833 0)
(8.81174 1.70396 0)
(8.62143 1.90483 0)
(8.41532 2.12226 0)
(8.19253 2.35754 0)
(7.9519 2.6119 0)
(7.69181 2.88647 0)
(7.41009 3.1822 0)
(7.10369 3.49978 0)
(6.76842 3.83939 0)
(6.39843 4.20046 0)
(5.98568 4.58111 0)
(5.51923 4.97728 0)
(4.98455 5.38131 0)
(4.36345 5.7796 0)
(3.63208 6.14925 0)
(2.78028 6.45087 0)
(1.73357 6.6288 0)
(0.744886 6.50345 0)
(9.9942 0.114006 0)
(9.97487 0.226575 0)
(9.94055 0.339473 0)
(9.89252 0.454423 0)
(9.83173 0.572982 0)
(9.7585 0.696607 0)
(9.67288 0.82669 0)
(9.57487 0.964587 0)
(9.46447 1.11164 0)
(9.34161 1.2692 0)
(9.20615 1.43863 0)
(9.05786 1.62131 0)
(8.89643 1.81866 0)
(8.72146 2.03212 0)
(8.53237 2.26318 0)
(8.32836 2.51338 0)
(8.10836 2.78428 0)
(7.87083 3.07748 0)
(7.61364 3.39463 0)
(7.33378 3.73739 0)
(7.02698 4.10735 0)
(6.68724 4.50592 0)
(6.306 4.93402 0)
(5.87123 5.39138 0)
(5.36596 5.87532 0)
(4.7671 6.37827 0)
(4.04094 6.88334 0)
(3.16167 7.35373 0)
(2.02491 7.72357 0)
(0.880814 7.75756 0)
(9.99459 0.120853 0)
(9.97657 0.240225 0)
(9.94461 0.360008 0)
(9.89995 0.482001 0)
(9.84356 0.607795 0)
(9.77575 0.738881 0)
(9.69661 0.876694 0)
(9.60622 1.02264 0)
(9.50463 1.17811 0)
(9.39184 1.3445 0)
(9.2678 1.52323 0)
(9.13241 1.71576 0)
(8.98546 1.92357 0)
(8.82667 2.14825 0)
(8.65561 2.39143 0)
(8.47166 2.65487 0)
(8.27392 2.94045 0)
(8.06108 3.25025 0)
(7.83128 3.58658 0)
(7.58182 3.95206 0)
(7.30883 4.34972 0)
(7.00672 4.78303 0)
(6.66732 5.25598 0)
(6.27861 5.77284 0)
(5.82264 6.33762 0)
(5.27271 6.9524 0)
(4.5848 7.61373 0)
(3.71025 8.30117 0)
(2.48843 8.95868 0)
(1.12461 9.29389 0)
(9.99501 0.127211 0)
(9.97838 0.252885 0)
(9.94891 0.379022 0)
(9.90779 0.507487 0)
(9.85598 0.639908 0)
(9.79381 0.777801 0)
(9.72142 0.922636 0)
(9.63892 1.07585 0)
(9.54646 1.23888 0)
(9.44411 1.41316 0)
(9.33194 1.60014 0)
(9.20993 1.80133 0)
(9.07803 2.0183 0)
(8.93612 2.25271 0)
(8.78396 2.50633 0)
(8.62114 2.78111 0)
(8.44707 3.07921 0)
(8.2608 3.40309 0)
(8.06094 3.75566 0)
(7.84546 4.14038 0)
(7.61133 4.56154 0)
(7.35412 5.02456 0)
(7.06722 5.53638 0)
(6.74052 6.106 0)
(6.3581 6.74513 0)
(5.89432 7.46886 0)
(5.30111 8.29637 0)
(4.50928 9.24821 0)
(3.26924 10.3424 0)
(1.60528 11.3602 0)
(9.99545 0.133051 0)
(9.98026 0.264505 0)
(9.95339 0.396443 0)
(9.91595 0.53079 0)
(9.86887 0.6692 0)
(9.81252 0.813213 0)
(9.74707 0.964321 0)
(9.6727 1.12399 0)
(9.58962 1.29367 0)
(9.498 1.47483 0)
(9.398 1.66894 0)
(9.28975 1.87754 0)
(9.17334 2.10226 0)
(9.04883 2.3448 0)
(8.9162 2.60704 0)
(8.77535 2.89105 0)
(8.62603 3.19919 0)
(8.4678 3.53421 0)
(8.29992 3.89942 0)
(8.12127 4.29892 0)
(7.93013 4.73793 0)
(7.72396 5.22329 0)
(7.49893 5.76422 0)
(7.24913 6.37355 0)
(6.9651 7.06973 0)
(6.6313 7.8806 0)
(6.21495 8.85162 0)
(5.66662 10.0659 0)
(4.69116 11.7316 0)
(2.68817 14.5942 0)
(0.124487 -0.126554 0)
(0.29089 -0.115016 0)
(0.462697 -0.0918372 0)
(0.608986 -0.070385 0)
(0.725321 -0.0530949 0)
(0.816838 -0.03968 0)
(0.88961 -0.0294397 0)
(0.948378 -0.0217482 0)
(0.99665 -0.0160755 0)
(1.03714 -0.0119703 0)
(1.07202 -0.00905325 0)
(1.10295 -0.00700276 0)
(1.13112 -0.00553695 0)
(1.15727 -0.0044037 0)
(1.18168 -0.00338452 0)
(1.20423 -0.00231302 0)
(1.22448 -0.00109996 0)
(1.24189 0.000257272 0)
(1.25599 0.00170871 0)
(1.26644 0.00322887 0)
(1.27296 0.0048579 0)
(1.27524 0.00659473 0)
(1.27306 0.00804956 0)
(1.26586 0.00929604 0)
(1.25427 0.0100035 0)
(1.24008 0.00984848 0)
(1.22581 0.00879365 0)
(1.21373 0.00701183 0)
(1.20534 0.00473044 0)
(1.20194 0.00153431 0)
(0.103281 -0.288115 0)
(0.263746 -0.271156 0)
(0.421594 -0.222911 0)
(0.558397 -0.176821 0)
(0.670972 -0.139512 0)
(0.763913 -0.110553 0)
(0.842183 -0.0884325 0)
(0.909506 -0.0717747 0)
(0.968587 -0.0594198 0)
(1.0215 -0.050391 0)
(1.06986 -0.043876 0)
(1.11495 -0.0391914 0)
(1.15769 -0.0357414 0)
(1.19872 -0.0329937 0)
(1.23837 -0.0304846 0)
(1.27673 -0.0278539 0)
(1.31363 -0.0249007 0)
(1.3488 -0.0216166 0)
(1.38197 -0.0181362 0)
(1.41304 -0.014581 0)
(1.44211 -0.0109072 0)
(1.46903 -0.00697303 0)
(1.49295 -0.0029659 0)
(1.51332 0.000828515 0)
(1.52989 0.00368888 0)
(1.54314 0.00511628 0)
(1.55503 0.00507096 0)
(1.56699 0.00383388 0)
(1.57996 0.00178665 0)
(1.59685 -0.000462041 0)
(0.0797044 -0.450816 0)
(0.214826 -0.424788 0)
(0.337482 -0.351686 0)
(0.443368 -0.282151 0)
(0.529756 -0.226183 0)
(0.601422 -0.182741 0)
(0.66221 -0.149424 0)
(0.714804 -0.12412 0)
(0.761157 -0.105101 0)
(0.802779 -0.0909546 0)
(0.840868 -0.080517 0)
(0.876366 -0.0728154 0)
(0.909987 -0.0670049 0)
(0.942237 -0.0623338 0)
(0.973424 -0.0581421 0)
(1.00366 -0.0539031 0)
(1.03285 -0.0493022 0)
(1.06077 -0.0443108 0)
(1.08712 -0.0391589 0)
(1.11183 -0.0341165 0)
(1.13514 -0.0291334 0)
(1.15755 -0.02371 0)
(1.1793 -0.0173543 0)
(1.19985 -0.0108166 0)
(1.21818 -0.005732 0)
(1.23378 -0.00336309 0)
(1.24611 -0.00388271 0)
(1.25596 -0.00663328 0)
(1.26369 -0.0103515 0)
(1.27256 -0.0118452 0)
(0.0574055 -0.57521 0)
(0.160372 -0.534191 0)
(0.240436 -0.438744 0)
(0.309963 -0.350955 0)
(0.363966 -0.281712 0)
(0.408447 -0.228407 0)
(0.445763 -0.187646 0)
(0.477478 -0.156638 0)
(0.504772 -0.13323 0)
(0.528596 -0.115715 0)
(0.549716 -0.102705 0)
(0.568745 -0.0930409 0)
(0.586175 -0.0857172 0)
(0.602395 -0.0798464 0)
(0.617716 -0.0746439 0)
(0.632359 -0.0694585 0)
(0.646381 -0.0638588 0)
(0.659625 -0.057744 0)
(0.67163 -0.05139 0)
(0.681973 -0.0452859 0)
(0.690741 -0.0397583 0)
(0.699012 -0.0346733 0)
(0.707823 -0.0293681 0)
(0.716628 -0.02352 0)
(0.72307 -0.0174161 0)
(0.725008 -0.0115788 0)
(0.721255 -0.00675524 0)
(0.711706 -0.0037734 0)
(0.698542 -0.00382905 0)
(0.678791 -0.00480952 0)
(0.0345362 -0.663658 0)
(0.0995407 -0.602416 0)
(0.131662 -0.487557 0)
(0.162163 -0.38705 0)
(0.179748 -0.309477 0)
(0.193044 -0.250233 0)
(0.202231 -0.204959 0)
(0.208105 -0.170395 0)
(0.211258 -0.144165 0)
(0.212235 -0.124421 0)
(0.211462 -0.109669 0)
(0.209277 -0.0986673 0)
(0.205994 -0.0903447 0)
(0.201936 -0.0837518 0)
(0.197443 -0.0780403 0)
(0.192877 -0.0724709 0)
(0.18846 -0.0664777 0)
(0.184289 -0.0597809 0)
(0.179663 -0.0524816 0)
(0.173748 -0.0449617 0)
(0.164715 -0.037469 0)
(0.153147 -0.0298192 0)
(0.13819 -0.0216002 0)
(0.12277 -0.0132545 0)
(0.107987 -0.00604066 0)
(0.0948032 -0.000766196 0)
(0.0869991 0.00267229 0)
(0.0828898 0.00389068 0)
(0.0800361 0.00305628 0)
(0.0676505 -0.00515629 0)
(0.010112 -0.710268 0)
(0.031991 -0.624713 0)
(0.0137201 -0.493535 0)
(0.00286967 -0.385189 0)
(-0.0184745 -0.302628 0)
(-0.0396509 -0.240836 0)
(-0.0625715 -0.193894 0)
(-0.0862727 -0.15832 0)
(-0.110394 -0.131533 0)
(-0.134541 -0.111526 0)
(-0.158458 -0.096699 0)
(-0.181959 -0.0857559 0)
(-0.204858 -0.0775772 0)
(-0.226992 -0.0711763 0)
(-0.248209 -0.0657286 0)
(-0.268289 -0.0605703 0)
(-0.286908 -0.0551874 0)
(-0.303708 -0.0492337 0)
(-0.318469 -0.0425925 0)
(-0.331249 -0.0354374 0)
(-0.342454 -0.0281607 0)
(-0.352489 -0.0211685 0)
(-0.3619 -0.0148001 0)
(-0.371297 -0.00910037 0)
(-0.380871 -0.00449051 0)
(-0.389506 -0.00135782 0)
(-0.39592 0.00117833 0)
(-0.401652 0.00307962 0)
(-0.407711 0.00318462 0)
(-0.414401 -0.000373439 0)
(-0.0179831 -0.70818 0)
(-0.0440494 -0.594911 0)
(-0.111194 -0.454721 0)
(-0.166098 -0.346696 0)
(-0.225602 -0.264937 0)
(-0.282733 -0.204494 0)
(-0.337159 -0.1596 0)
(-0.387968 -0.126375 0)
(-0.434791 -0.102072 0)
(-0.477476 -0.084595 0)
(-0.516105 -0.072236 0)
(-0.550972 -0.0636301 0)
(-0.582454 -0.0576318 0)
(-0.610951 -0.0532631 0)
(-0.636812 -0.0497541 0)
(-0.660229 -0.0465388 0)
(-0.681183 -0.0431701 0)
(-0.699545 -0.039266 0)
(-0.715266 -0.0345325 0)
(-0.728563 -0.0288568 0)
(-0.739953 -0.0223703 0)
(-0.750108 -0.0154069 0)
(-0.759712 -0.00851198 0)
(-0.769368 -0.00236758 0)
(-0.778539 0.00248573 0)
(-0.786485 0.00556739 0)
(-0.79385 0.00725549 0)
(-0.800626 0.00733637 0)
(-0.807093 0.00488899 0)
(-0.811579 0.000618531 0)
(-0.0522344 -0.652449 0)
(-0.127207 -0.518345 0)
(-0.240953 -0.377983 0)
(-0.338203 -0.272536 0)
(-0.433481 -0.195915 0)
(-0.520625 -0.142125 0)
(-0.598538 -0.104622 0)
(-0.66698 -0.0785299 0)
(-0.72658 -0.0606743 0)
(-0.778439 -0.0489315 0)
(-0.823636 -0.0415379 0)
(-0.863225 -0.0371314 0)
(-0.898123 -0.0346302 0)
(-0.929116 -0.0331593 0)
(-0.956867 -0.032092 0)
(-0.981811 -0.0310621 0)
(-1.00408 -0.029794 0)
(-1.02361 -0.0279701 0)
(-1.04042 -0.0252123 0)
(-1.05476 -0.0212162 0)
(-1.06723 -0.0159633 0)
(-1.07852 -0.00984908 0)
(-1.08913 -0.00362577 0)
(-1.09915 0.00172689 0)
(-1.10799 0.00582569 0)
(-1.11669 0.00871117 0)
(-1.12502 0.0104975 0)
(-1.13324 0.010776 0)
(-1.14106 0.00875537 0)
(-1.14577 0.00548877 0)
(-0.0934076 -0.539581 0)
(-0.220185 -0.392867 0)
(-0.383537 -0.261822 0)
(-0.518936 -0.169869 0)
(-0.641964 -0.105932 0)
(-0.74997 -0.0634728 0)
(-0.8433 -0.0368347 0)
(-0.923041 -0.0211746 0)
(-0.988493 -0.0130705 0)
(-1.04311 -0.00928903 0)
(-1.08944 -0.00812542 0)
(-1.12952 -0.00857136 0)
(-1.16488 -0.00991541 0)
(-1.19664 -0.0115832 0)
(-1.22529 -0.013186 0)
(-1.25111 -0.0144945 0)
(-1.27427 -0.015397 0)
(-1.29466 -0.0156621 0)
(-1.31223 -0.0148187 0)
(-1.32728 -0.0123762 0)
(-1.34048 -0.00822088 0)
(-1.35263 -0.00283573 0)
(-1.36411 0.00284069 0)
(-1.3745 0.00775247 0)
(-1.38478 0.0113501 0)
(-1.39463 0.0137059 0)
(-1.40403 0.0148947 0)
(-1.41328 0.0146795 0)
(-1.42168 0.0126092 0)
(-1.42619 0.00986535 0)
(-0.148022 -0.366283 0)
(-0.340048 -0.220833 0)
(-0.571537 -0.104461 0)
(-0.757101 -0.0264014 0)
(-0.903186 0.0131054 0)
(-1.01834 0.0316679 0)
(-1.10895 0.0381497 0)
(-1.18088 0.037697 0)
(-1.24072 0.0341457 0)
(-1.29097 0.0293356 0)
(-1.33387 0.0241437 0)
(-1.37101 0.0188877 0)
(-1.40351 0.0137712 0)
(-1.43224 0.00908021 0)
(-1.45827 0.00506265 0)
(-1.4823 0.00171745 0)
(-1.50436 -0.00113064 0)
(-1.52414 -0.00339564 0)
(-1.54139 -0.00450496 0)
(-1.55628 -0.0037145 0)
(-1.56941 -0.000720638 0)
(-1.58148 0.00398946 0)
(-1.59314 0.009284 0)
(-1.60497 0.0140217 0)
(-1.61656 0.0173663 0)
(-1.62744 0.019223 0)
(-1.63763 0.0198283 0)
(-1.6475 0.0191874 0)
(-1.65621 0.0171576 0)
(-1.66059 0.014867 0)
(-0.228673 -0.121434 0)
(-0.483133 0.05321 0)
(-0.73505 0.115068 0)
(-0.920918 0.12969 0)
(-1.07044 0.12862 0)
(-1.18934 0.119098 0)
(-1.28445 0.106005 0)
(-1.36117 0.0918996 0)
(-1.42373 0.0780997 0)
(-1.47562 0.0655117 0)
(-1.51975 0.054495 0)
(-1.55806 0.044772 0)
(-1.5917 0.0360939 0)
(-1.62154 0.028625 0)
(-1.64847 0.0225403 0)
(-1.6732 0.0175131 0)
(-1.69576 0.0129464 0)
(-1.71557 0.00870294 0)
(-1.73217 0.00553899 0)
(-1.74593 0.00464909 0)
(-1.75806 0.00666466 0)
(-1.76998 0.0110572 0)
(-1.78252 0.0163817 0)
(-1.79559 0.0210375 0)
(-1.80844 0.0239671 0)
(-1.82032 0.0250946 0)
(-1.83119 0.0249315 0)
(-1.84154 0.0238352 0)
(-1.8505 0.0219066 0)
(-1.85482 0.0200569 0)
(-0.286182 0.274975 0)
(-0.567959 0.334733 0)
(-0.85161 0.324642 0)
(-1.06132 0.292215 0)
(-1.223 0.253656 0)
(-1.34686 0.215214 0)
(-1.44307 0.180467 0)
(-1.5192 0.150294 0)
(-1.58042 0.124504 0)
(-1.63077 0.103258 0)
(-1.6737 0.0862247 0)
(-1.7114 0.0720564 0)
(-1.74474 0.0596359 0)
(-1.77427 0.0490088 0)
(-1.80106 0.0405514 0)
(-1.82611 0.0337492 0)
(-1.84942 0.027375 0)
(-1.86989 0.0208641 0)
(-1.88652 0.015248 0)
(-1.89965 0.0124873 0)
(-1.91107 0.0137314 0)
(-1.92283 0.0182672 0)
(-1.93602 0.0240279 0)
(-1.95036 0.0288085 0)
(-1.96461 0.0312754 0)
(-1.97757 0.0314529 0)
(-1.98908 0.0302964 0)
(-1.99976 0.0286566 0)
(-2.00884 0.0268201 0)
(-2.01311 0.0253566 0)
(-0.339665 0.676042 0)
(-0.682179 0.672239 0)
(-1.00744 0.569422 0)
(-1.22715 0.467061 0)
(-1.38661 0.381193 0)
(-1.50409 0.309002 0)
(-1.59295 0.251086 0)
(-1.6626 0.205247 0)
(-1.71825 0.167997 0)
(-1.7637 0.138567 0)
(-1.80301 0.116399 0)
(-1.83872 0.0986703 0)
(-1.8709 0.0827992 0)
(-1.89927 0.0689331 0)
(-1.92502 0.0582375 0)
(-1.94986 0.0501192 0)
(-1.97385 0.0422807 0)
(-1.99498 0.0333172 0)
(-2.01123 0.0246527 0)
(-2.02288 0.019573 0)
(-2.03264 0.0201622 0)
(-2.04364 0.0253988 0)
(-2.05737 0.0321858 0)
(-2.07322 0.0374241 0)
(-2.08919 0.039396 0)
(-2.10339 0.0383253 0)
(-2.11543 0.0358587 0)
(-2.12618 0.0335532 0)
(-2.1352 0.031821 0)
(-2.13939 0.0307176 0)
(-0.448365 1.17907 0)
(-0.87861 1.07175 0)
(-1.23389 0.830238 0)
(-1.43368 0.632371 0)
(-1.56857 0.496824 0)
(-1.66563 0.389696 0)
(-1.73663 0.310661 0)
(-1.79313 0.253442 0)
(-1.83921 0.206761 0)
(-1.8764 0.169135 0)
(-1.90954 0.142694 0)
(-1.94218 0.122932 0)
(-1.97281 0.104267 0)
(-1.99913 0.0871684 0)
(-2.02258 0.0747089 0)
(-2.04646 0.0664771 0)
(-2.07124 0.0581442 0)
(-2.09341 0.0466143 0)
(-2.10904 0.0338873 0)
(-2.11811 0.0256119 0)
(-2.12495 0.0256636 0)
(-2.13449 0.0324184 0)
(-2.14881 0.041049 0)
(-2.16662 0.0471578 0)
(-2.18481 0.0485434 0)
(-2.20046 0.0457568 0)
(-2.21283 0.0414807 0)
(-2.22325 0.0383254 0)
(-2.23195 0.036767 0)
(-2.23602 0.0360262 0)
(-0.666276 2.13076 0)
(-1.19733 1.7154 0)
(-1.57198 1.1211 0)
(-1.69711 0.726833 0)
(-1.76947 0.574955 0)
(-1.83038 0.452637 0)
(-1.87033 0.360821 0)
(-1.90767 0.29709 0)
(-1.94341 0.239144 0)
(-1.96996 0.189858 0)
(-1.99332 0.162413 0)
(-2.02167 0.146673 0)
(-2.05107 0.127691 0)
(-2.07465 0.106477 0)
(-2.09411 0.0911112 0)
(-2.11618 0.083256 0)
(-2.1426 0.0748964 0)
(-2.16715 0.0598558 0)
(-2.18229 0.0410171 0)
(-2.18726 0.0280929 0)
(-2.18925 0.0281659 0)
(-2.1964 0.0382203 0)
(-2.21148 0.0502551 0)
(-2.23202 0.0580221 0)
(-2.25319 0.0588215 0)
(-2.2706 0.0537221 0)
(-2.28294 0.0469169 0)
(-2.2924 0.0426737 0)
(-2.30042 0.0415285 0)
(-2.30434 0.0412389 0)
(9.9959 0.138446 0)
(9.98225 0.275239 0)
(9.9581 0.412527 0)
(9.92453 0.552275 0)
(9.88241 0.696163 0)
(9.83215 0.845741 0)
(9.77397 1.00252 0)
(9.70813 1.16797 0)
(9.6349 1.34355 0)
(9.55455 1.53073 0)
(9.46736 1.73101 0)
(9.3736 1.94593 0)
(9.27352 2.17711 0)
(9.16738 2.42631 0)
(9.05544 2.69543 0)
(8.93791 2.9866 0)
(8.81499 3.30229 0)
(8.68681 3.64538 0)
(8.55345 4.01939 0)
(8.41491 4.42869 0)
(8.27111 4.87892 0)
(8.12196 5.37754 0)
(7.96739 5.93474 0)
(7.80768 6.56485 0)
(7.64406 7.28897 0)
(7.48153 8.13969 0)
(7.33338 9.17099 0)
(7.28981 10.4765 0)
(7.74932 12.201 0)
(7.93376 14.9204 0)
(9.99638 0.143406 0)
(9.98434 0.285095 0)
(9.96305 0.427256 0)
(9.93351 0.571886 0)
(9.89656 0.720679 0)
(9.85261 0.875191 0)
(9.80195 1.03693 0)
(9.7449 1.20737 0)
(9.68181 1.38797 0)
(9.61306 1.58019 0)
(9.53903 1.7855 0)
(9.46014 2.00543 0)
(9.37683 2.2416 0)
(9.28957 2.49573 0)
(9.1989 2.76971 0)
(9.10538 3.06564 0)
(9.00967 3.38596 0)
(8.91253 3.73352 0)
(8.81486 4.11176 0)
(8.71785 4.52495 0)
(8.6231 4.97851 0)
(8.53299 5.47945 0)
(8.45124 6.0371 0)
(8.38411 6.66405 0)
(8.3428 7.37751 0)
(8.3494 8.20089 0)
(8.4428 9.16431 0)
(8.67896 10.301 0)
(9.32678 11.5555 0)
(9.81821 12.6425 0)
(9.99688 0.147844 0)
(9.9865 0.293907 0)
(9.96819 0.440407 0)
(9.94282 0.589358 0)
(9.9112 0.742454 0)
(9.87376 0.901248 0)
(9.83083 1.06723 0)
(9.7828 1.24187 0)
(9.7301 1.4266 0)
(9.67319 1.62283 0)
(9.61258 1.83202 0)
(9.54882 2.05565 0)
(9.48254 2.29527 0)
(9.41444 2.55253 0)
(9.34531 2.82925 0)
(9.27607 3.12742 0)
(9.20783 3.44932 0)
(9.14191 3.79756 0)
(9.08001 4.17529 0)
(9.02435 4.58624 0)
(8.97795 5.03503 0)
(8.94508 5.52733 0)
(8.93204 6.0701 0)
(8.94835 6.67175 0)
(9.00852 7.34169 0)
(9.1347 8.08856 0)
(9.35789 8.91418 0)
(9.68757 9.80736 0)
(10.2535 10.7166 0)
(10.9412 11.4316 0)
(9.9974 0.151706 0)
(9.98873 0.30157 0)
(9.97346 0.451815 0)
(9.95238 0.604459 0)
(9.92622 0.761187 0)
(9.89543 0.923535 0)
(9.86039 1.09297 0)
(9.82154 1.27093 0)
(9.77938 1.4588 0)
(9.73446 1.65796 0)
(9.68741 1.86979 0)
(9.63891 2.0957 0)
(9.58974 2.33715 0)
(9.54081 2.59568 0)
(9.49317 2.87294 0)
(9.44804 3.17074 0)
(9.40692 3.49107 0)
(9.37163 3.8362 0)
(9.34447 4.20871 0)
(9.32841 4.61157 0)
(9.32738 5.04818 0)
(9.34669 5.52238 0)
(9.39359 6.03828 0)
(9.47798 6.59985 0)
(9.61305 7.20984 0)
(9.81565 7.8679 0)
(10.1085 8.56691 0)
(10.5003 9.29217 0)
(11.0578 10.0335 0)
(11.8509 10.6778 0)
(9.99792 0.154946 0)
(9.99101 0.30799 0)
(9.97884 0.461344 0)
(9.96211 0.617012 0)
(9.94149 0.77666 0)
(9.91743 0.941793 0)
(9.89037 1.11385 0)
(9.86078 1.29421 0)
(9.82922 1.4842 0)
(9.79634 1.68514 0)
(9.76285 1.89833 0)
(9.72954 2.12507 0)
(9.69735 2.36669 0)
(9.66736 2.62457 0)
(9.64081 2.90016 0)
(9.61918 3.195 0)
(9.60427 3.51072 0)
(9.59825 3.84912 0)
(9.6038 4.21212 0)
(9.62432 4.60174 0)
(9.66413 5.0201 0)
(9.72875 5.4692 0)
(9.82527 5.95065 0)
(9.96262 6.46515 0)
(10.1519 7.01159 0)
(10.4061 7.5861 0)
(10.7426 8.18054 0)
(11.1729 8.7802 0)
(11.7201 9.37351 0)
(12.4729 9.88558 0)
(9.99845 0.15752 0)
(9.9933 0.313082 0)
(9.98427 0.468867 0)
(9.97193 0.626851 0)
(9.95688 0.788668 0)
(9.93959 0.955782 0)
(9.92051 1.12958 0)
(9.90017 1.31138 0)
(9.87919 1.50245 0)
(9.85825 1.70402 0)
(9.83816 1.91726 0)
(9.81981 2.14337 0)
(9.80425 2.38351 0)
(9.79268 2.63888 0)
(9.78649 2.91066 0)
(9.78736 3.20009 0)
(9.79724 3.5084 0)
(9.81849 3.83684 0)
(9.85399 4.18664 0)
(9.90723 4.55891 0)
(9.98248 4.95455 0)
(10.085 5.37404 0)
(10.221 5.81709 0)
(10.3982 6.28226 0)
(10.6253 6.76629 0)
(10.912 7.26338 0)
(11.2695 7.76432 0)
(11.7058 8.25354 0)
(12.2217 8.71435 0)
(12.8972 9.10523 0)
(9.99898 0.15939 0)
(9.9956 0.316768 0)
(9.9897 0.474272 0)
(9.98175 0.63383 0)
(9.97227 0.797032 0)
(9.96171 0.965291 0)
(9.95055 1.13993 0)
(9.93937 1.3222 0)
(9.9288 1.51328 0)
(9.9196 1.71429 0)
(9.91261 1.9263 0)
(9.9088 2.15034 0)
(9.90929 2.38741 0)
(9.91537 2.63847 0)
(9.92853 2.90446 0)
(9.95051 3.18625 0)
(9.98334 3.48468 0)
(10.0294 3.80045 0)
(10.0916 4.13413 0)
(10.1732 4.48602 0)
(10.2782 4.85601 0)
(10.4112 5.2434 0)
(10.5775 5.64661 0)
(10.783 6.06283 0)
(11.0342 6.48757 0)
(11.3373 6.91414 0)
(11.6987 7.33318 0)
(12.1222 7.73127 0)
(12.6019 8.09386 0)
(13.207 8.40043 0)
(9.99951 0.160522 0)
(9.99788 0.318984 0)
(9.9951 0.47746 0)
(9.99149 0.637821 0)
(9.98751 0.801601 0)
(9.98359 0.970149 0)
(9.98023 1.14472 0)
(9.97801 1.32647 0)
(9.9776 1.5165 0)
(9.97979 1.71579 0)
(9.98545 1.9253 0)
(9.9956 2.14589 0)
(10.0114 2.37837 0)
(10.0341 2.62348 0)
(10.0653 2.88186 0)
(10.1067 3.15408 0)
(10.1604 3.44055 0)
(10.2285 3.7415 0)
(10.3139 4.05692 0)
(10.4194 4.38642 0)
(10.5486 4.72915 0)
(10.7053 5.08358 0)
(10.8935 5.44732 0)
(11.1176 5.81685 0)
(11.3819 6.18727 0)
(11.6902 6.55201 0)
(12.0453 6.9028 0)
(12.4487 7.22933 0)
(12.8928 7.52046 0)
(13.4355 7.76488 0)
(10 0.160887 0)
(10.0001 0.319673 0)
(10.0004 0.478352 0)
(10.0011 0.638725 0)
(10.0025 0.802256 0)
(10.005 0.970225 0)
(10.0093 1.1438 0)
(10.0157 1.32406 0)
(10.0251 1.51197 0)
(10.0383 1.70843 0)
(10.056 1.91422 0)
(10.0793 2.13006 0)
(10.1095 2.35655 0)
(10.1476 2.59422 0)
(10.1954 2.84344 0)
(10.2544 3.10446 0)
(10.3265 3.37733 0)
(10.4138 3.66188 0)
(10.5188 3.95761 0)
(10.6439 4.26365 0)
(10.792 4.5786 0)
(10.9661 4.90045 0)
(11.1693 5.22641 0)
(11.4044 5.55276 0)
(11.674 5.87476 0)
(11.98 6.18655 0)
(12.3233 6.48127 0)
(12.7035 6.75109 0)
(13.113 6.98766 0)
(13.6005 7.18415 0)
(10.0005 0.160465 0)
(10.0023 0.318794 0)
(10.0056 0.476889 0)
(10.0104 0.636467 0)
(10.017 0.798916 0)
(10.0259 0.965435 0)
(10.0374 1.1371 0)
(10.0522 1.3149 0)
(10.071 1.49969 0)
(10.0945 1.69222 0)
(10.1235 1.89316 0)
(10.1592 2.10304 0)
(10.2026 2.3223 0)
(10.2549 2.55123 0)
(10.3176 2.78997 0)
(10.3921 3.0385 0)
(10.4803 3.29657 0)
(10.5839 3.56366 0)
(10.7049 3.83895 0)
(10.8455 4.1212 0)
(11.0079 4.40872 0)
(11.1942 4.69926 0)
(11.4066 4.98993 0)
(11.6468 5.27717 0)
(11.916 5.55667 0)
(12.215 5.82346 0)
(12.5432 6.07201 0)
(12.8994 6.29643 0)
(13.2764 6.49069 0)
(13.7161 6.65061 0)
(10.001 0.15924 0)
(10.0044 0.316318 0)
(10.0106 0.47303 0)
(10.0194 0.631001 0)
(10.0311 0.791534 0)
(10.0459 0.955739 0)
(10.0644 1.12461 0)
(10.0871 1.29901 0)
(10.1147 1.47969 0)
(10.1479 1.66729 0)
(10.1875 1.86233 0)
(10.2346 2.06518 0)
(10.29 2.27611 0)
(10.355 2.49521 0)
(10.4308 2.72244 0)
(10.5189 2.95752 0)
(10.6207 3.19997 0)
(10.7377 3.44904 0)
(10.8716 3.70365 0)
(11.024 3.9624 0)
(11.1965 4.22344 0)
(11.3907 4.48449 0)
(11.6077 4.74278 0)
(11.8486 4.99505 0)
(12.1136 5.23758 0)
(12.4026 5.46629 0)
(12.7143 5.67685 0)
(13.047 5.86489 0)
(13.3943 6.02619 0)
(13.793 6.15824 0)
(10.0015 0.157205 0)
(10.0065 0.31223 0)
(10.0154 0.466758 0)
(10.028 0.622311 0)
(10.0444 0.780101 0)
(10.065 0.941148 0)
(10.0901 1.10634 0)
(10.1202 1.27645 0)
(10.156 1.45212 0)
(10.1982 1.63386 0)
(10.2475 1.82204 0)
(10.3048 2.01692 0)
(10.371 2.2186 0)
(10.4472 2.42701 0)
(10.5345 2.64192 0)
(10.634 2.8629 0)
(10.7471 3.08928 0)
(10.8748 3.32016 0)
(11.0186 3.55433 0)
(11.1796 3.7903 0)
(11.3588 4.02622 0)
(11.5572 4.25991 0)
(11.7755 4.48883 0)
(12.0138 4.71013 0)
(12.272 4.92071 0)
(12.5493 5.11728 0)
(12.8442 5.29652 0)
(13.1546 5.45529 0)
(13.4754 5.59066 0)
(13.8387 5.70113 0)
(10.0019 0.154358 0)
(10.0084 0.306529 0)
(10.0199 0.458075 0)
(10.0361 0.610409 0)
(10.0571 0.764647 0)
(10.083 0.921716 0)
(10.1142 1.08241 0)
(10.1512 1.24739 0)
(10.1946 1.41719 0)
(10.2449 1.59222 0)
(10.303 1.77272 0)
(10.3694 1.95883 0)
(10.4452 2.1505 0)
(10.5311 2.34755 0)
(10.6281 2.5496 0)
(10.7371 2.7561 0)
(10.8592 2.96627 0)
(10.9953 3.17912 0)
(11.1463 3.39341 0)
(11.313 3.60763 0)
(11.4961 3.82003 0)
(11.696 4.02861 0)
(11.9128 4.23113 0)
(12.1464 4.42517 0)
(12.3961 4.60819 0)
(12.661 4.77762 0)
(12.9394 4.93097 0)
(13.2292 5.06597 0)
(13.5261 5.18063 0)
(13.859 5.27411 0)
(10.0024 0.150706 0)
(10.0102 0.299229 0)
(10.0241 0.447005 0)
(10.0438 0.595335 0)
(10.0689 0.745236 0)
(10.0997 0.897541 0)
(10.1366 1.05295 0)
(10.1799 1.21202 0)
(10.2301 1.37519 0)
(10.2879 1.54275 0)
(10.3537 1.71485 0)
(10.4282 1.89152 0)
(10.5122 2.0726 0)
(10.6063 2.25781 0)
(10.7114 2.44668 0)
(10.8281 2.63857 0)
(10.9573 2.83264 0)
(11.0995 3.02788 0)
(11.2555 3.22306 0)
(11.4256 3.41675 0)
(11.6101 3.60735 0)
(11.8092 3.79307 0)
(12.0227 3.97199 0)
(12.2501 4.14211 0)
(12.4905 4.30138 0)
(12.7427 4.44783 0)
(13.0053 4.57962 0)
(13.2763 4.69514 0)
(13.5519 4.79305 0)
(13.8585 4.87295 0)
(10.0027 0.14626 0)
(10.0119 0.290355 0)
(10.0281 0.433593 0)
(10.0508 0.577156 0)
(10.0798 0.721965 0)
(10.1152 0.868759 0)
(10.1572 1.01814 0)
(10.2062 1.17059 0)
(10.2626 1.32643 0)
(10.3269 1.48587 0)
(10.3994 1.64898 0)
(10.4809 1.81568 0)
(10.5719 1.98575 0)
(10.6728 2.15882 0)
(10.7844 2.33436 0)
(10.9071 2.5117 0)
(11.0415 2.68999 0)
(11.1881 2.86822 0)
(11.347 3.04524 0)
(11.5186 3.21972 0)
(11.7028 3.39025 0)
(11.8995 3.55526 0)
(12.1083 3.71315 0)
(12.3285 3.86229 0)
(12.5591 4.00107 0)
(12.799 4.12798 0)
(13.0467 4.24169 0)
(13.3004 4.34107 0)
(13.557 4.42526 0)
(13.8407 4.49408 0)
(10.0031 0.14104 0)
(10.0134 0.279946 0)
(10.0317 0.417898 0)
(10.0573 0.555962 0)
(10.0898 0.694961 0)
(10.1293 0.835544 0)
(10.1759 0.978226 0)
(10.23 1.12339 0)
(10.2918 1.2713 0)
(10.3618 1.42208 0)
(10.4402 1.5757 0)
(10.5276 1.73203 0)
(10.6243 1.8908 0)
(10.7308 2.05157 0)
(10.8475 2.21381 0)
(10.9747 2.37682 0)
(11.1128 2.53978 0)
(11.2619 2.70173 0)
(11.4222 2.86161 0)
(11.5937 3.01825 0)
(11.7762 3.17037 0)
(11.9693 3.31669 0)
(12.1725 3.45587 0)
(12.3849 3.58659 0)
(12.6058 3.70763 0)
(12.8337 3.81784 0)
(13.0675 3.91627 0)
(13.3055 4.00214 0)
(13.5453 4.07491 0)
(13.8088 4.13458 0)
(10.0034 0.135069 0)
(10.0148 0.268051 0)
(10.035 0.399997 0)
(10.0631 0.531863 0)