/*--------------------------------*- C++ -*----------------------------------*\
  =========                 |
  \\      /  F ield         | OpenFOAM: The Open Source CFD Toolbox
   \\    /   O peration     | Website:  https://openfoam.org
    \\  /    A nd           | Version:  7
     \\/     M anipulation  |
\*---------------------------------------------------------------------------*/
FoamFile
{
    version     2.0;
    format      ascii;
    class       surfaceVectorField;
    location    "4.2";
    object      Uf;
}
// * * * * * * * * * * * * * * * * * * * * * * * * * * * * * * * * * * * * * //

dimensions      [0 1 -1 0 0 0 0];

internalField   nonuniform List<vector> 
5457
(
(9.92088 0.0251095 0)
(9.97125 0.0387457 0)
(9.82401 0.0328268 0)
(9.92859 0.0485851 0)
(9.70961 0.039312 0)
(9.85548 0.058768 0)
(9.57544 0.0460115 0)
(9.7568 0.0705932 0)
(9.42138 0.0529488 0)
(9.63753 0.0830132 0)
(9.24755 0.060166 0)
(9.49861 0.0959362 0)
(9.05362 0.0678106 0)
(9.33931 0.109612 0)
(8.83893 0.0760341 0)
(9.15875 0.124288 0)
(8.60253 0.0849696 0)
(8.9561 0.140166 0)
(8.34327 0.0947441 0)
(8.73039 0.157432 0)
(8.05986 0.105486 0)
(8.48042 0.176268 0)
(7.75082 0.117327 0)
(8.20479 0.196855 0)
(7.41458 0.130394 0)
(7.90197 0.219359 0)
(7.04953 0.144809 0)
(7.57033 0.243921 0)
(6.65407 0.160671 0)
(7.20822 0.27063 0)
(6.22676 0.178042 0)
(6.81403 0.299498 0)
(5.76648 0.196926 0)
(6.38638 0.330411 0)
(5.27263 0.217231 0)
(5.92422 0.363081 0)
(4.74544 0.238734 0)
(5.42717 0.396973 0)
(4.18628 0.26103 0)
(4.89573 0.431234 0)
(3.59806 0.283487 0)
(4.33172 0.464617 0)
(2.98565 0.305201 0)
(3.7387 0.495424 0)
(2.35621 0.325069 0)
(3.12237 0.521513 0)
(1.7192 0.342549 0)
(2.49117 0.54056 0)
(1.08444 0.361882 0)
(1.85595 0.551677 0)
(0.451923 0.348707 0)
(1.24557 0.563023 0)
(-0.145785 0.102499 0)
(0.60902 0.544911 0)
(-0.423603 -0.207096 0)
(0.0946912 0.259404 0)
(-0.402151 -0.361275 0)
(-0.133616 -0.0205141 0)
(-0.119682 -0.393882 0)
(9.99641 0.0516723 0)
(9.99705 0.0405045 0)
(9.95879 0.0708614 0)
(9.97851 0.0674543 0)
(9.89824 0.0879866 0)
(9.93377 0.0898697 0)
(9.81659 0.105984 0)
(9.86453 0.113555 0)
(9.71359 0.124921 0)
(9.77438 0.138514 0)
(9.58909 0.144853 0)
(9.66435 0.164646 0)
(9.44274 0.166089 0)
(9.53397 0.192331 0)
(9.27391 0.188966 0)
(9.3825 0.222029 0)
(9.08167 0.213781 0)
(9.20919 0.254147 0)
(8.86491 0.240814 0)
(9.01317 0.289062 0)
(8.62231 0.270334 0)
(8.79332 0.32715 0)
(8.3524 0.302604 0)
(8.54837 0.368783 0)
(8.05358 0.337854 0)
(8.27685 0.414312 0)
(7.72414 0.376258 0)
(7.97719 0.464041 0)
(7.3624 0.417898 0)
(7.64774 0.518183 0)
(6.96676 0.462703 0)
(7.28686 0.5768 0)
(6.53588 0.510382 0)
(6.89299 0.639719 0)
(6.06889 0.560328 0)
(6.46486 0.70642 0)
(5.56566 0.611516 0)
(6.00166 0.775902 0)
(5.02718 0.662381 0)
(5.50333 0.846517 0)
(4.45596 0.710705 0)
(4.97097 0.915801 0)
(3.85659 0.753539 0)
(4.40727 0.980303 0)
(3.23629 0.787198 0)
(3.81713 1.03546 0)
(2.60591 0.807506 0)
(3.20855 1.07549 0)
(1.98288 0.810474 0)
(2.59348 1.09316 0)
(1.40536 0.776914 0)
(1.99629 1.0771 0)
(0.929825 0.646429 0)
(1.41958 0.978441 0)
(0.439928 0.384382 0)
(0.937628 0.71683 0)
(0.0592089 -0.118576 0)
(0.44386 0.34357 0)
(0.174933 -0.335891 0)
(9.98903 0.0594307 0)
(9.99481 0.0458773 0)
(9.95434 0.0894762 0)
(9.97368 0.0848539 0)
(9.89729 0.118031 0)
(9.92984 0.119173 0)
(9.82047 0.147898 0)
(9.86357 0.153976 0)
(9.72416 0.179421 0)
(9.77736 0.190407 0)
(9.60821 0.212774 0)
(9.67227 0.228636 0)
(9.47235 0.248391 0)
(9.5481 0.269128 0)
(9.31608 0.286772 0)
(9.40432 0.312495 0)
(9.13869 0.328394 0)
(9.24035 0.359323 0)
(8.93925 0.373718 0)
(9.05549 0.41017 0)
(8.71665 0.423201 0)
(8.8489 0.465593 0)
(8.46961 0.477289 0)
(8.61952 0.526145 0)
(8.19669 0.53639 0)
(8.36617 0.592363 0)
(7.89635 0.600832 0)
(8.08754 0.664727 0)
(7.56695 0.670798 0)
(7.78222 0.743605 0)
(7.20687 0.746243 0)
(7.44876 0.829174 0)
(6.81461 0.826768 0)
(7.08572 0.921302 0)
(6.38893 0.911468 0)
(6.69175 1.01939 0)
(5.9291 0.998744 0)
(6.26578 1.12215 0)
(5.43521 1.08608 0)
(5.80719 1.22741 0)
(4.90863 1.16982 0)
(5.31615 1.33173 0)
(4.35252 1.24489 0)
(4.79406 1.43018 0)
(3.77269 1.30455 0)
(4.24407 1.51587 0)
(3.17882 1.33985 0)
(3.67191 1.57943 0)
(2.58672 1.33814 0)
(3.08642 1.60776 0)
(2.01994 1.273 0)
(2.50301 1.58161 0)
(1.48702 1.09545 0)
(1.92882 1.46429 0)
(0.958351 0.769219 0)
(1.38531 1.21046 0)
(0.479912 0.202518 0)
(0.829585 0.801104 0)
(0.433752 0.134153 0)
(9.98515 0.0716136 0)
(9.99367 0.0531476 0)
(9.95039 0.11363 0)
(9.97087 0.10229 0)
(9.89437 0.154133 0)
(9.92691 0.147953 0)
(9.81882 0.195573 0)
(9.86185 0.193721 0)
(9.72442 0.23881 0)
(9.77746 0.241277 0)
(9.61112 0.284323 0)
(9.67467 0.291162 0)
(9.47874 0.332718 0)
(9.55343 0.343954 0)
(9.32695 0.384671 0)
(9.41336 0.400369 0)
(9.15523 0.440842 0)
(9.254 0.461135 0)
(8.96292 0.501878 0)
(9.07484 0.526956 0)
(8.74917 0.56842 0)
(8.8752 0.598529 0)
(8.51305 0.641102 0)
(8.6543 0.676553 0)
(8.25348 0.720518 0)
(8.41124 0.761709 0)
(7.96928 0.807175 0)
(8.14501 0.854622 0)
(7.6592 0.90142 0)
(7.85457 0.955801 0)
(7.32196 1.00333 0)
(7.53878 1.06555 0)
(6.95625 1.11255 0)
(7.1965 1.18382 0)
(6.5609 1.22811 0)
(6.82657 1.31006 0)
(6.13495 1.34815 0)
(6.42795 1.44289 0)
(5.67792 1.46958 0)
(5.99973 1.57988 0)
(5.19008 1.58775 0)
(5.54142 1.71706 0)
(4.67295 1.69602 0)
(5.05314 1.84852 0)
(4.12989 1.78514 0)
(4.53605 1.96582 0)
(3.56675 1.84253 0)
(3.99283 2.0573 0)
(2.99214 1.85074 0)
(3.4277 2.10716 0)
(2.41593 1.78252 0)
(2.84773 2.09451 0)
(1.84061 1.60051 0)
(2.25631 1.98879 0)
(1.25944 1.27849 0)
(1.66038 1.75311 0)
(0.6668 0.789615 0)
(1.02401 1.36785 0)
(0.523052 0.787243 0)
(9.98337 0.084407 0)
(9.99316 0.0612911 0)
(9.94821 0.136836 0)
(9.96958 0.119927 0)
(9.89314 0.188031 0)
(9.92575 0.176239 0)
(9.81906 0.240168 0)
(9.86199 0.232697 0)
(9.72663 0.294466 0)
(9.77964 0.291086 0)
(9.6159 0.351657 0)
(9.6794 0.352272 0)
(9.48671 0.412467 0)
(9.56128 0.416974 0)
(9.33879 0.477671 0)
(9.42497 0.486004 0)
(9.17171 0.548044 0)
(9.27009 0.560198 0)
(8.98493 0.624346 0)
(9.0962 0.640378 0)
(8.77779 0.707332 0)
(8.90275 0.727357 0)
(8.54954 0.79775 0)
(8.68907 0.821943 0)
(8.29936 0.896309 0)
(8.45445 0.924925 0)
(8.02636 1.00363 0)
(8.19809 1.03704 0)
(7.7296 1.12018 0)
(7.91914 1.15889 0)
(7.40808 1.24614 0)
(7.61671 1.2909 0)
(7.0608 1.38124 0)
(7.28988 1.43312 0)
(6.68674 1.52456 0)
(6.93767 1.58507 0)
(6.28491 1.67416 0)
(6.55904 1.74547 0)
(5.85445 1.82676 0)
(6.15293 1.91185 0)
(5.39478 1.97723 0)
(5.71829 2.08013 0)
(4.90584 2.11804 0)
(5.25416 2.24407 0)
(4.38834 2.2386 0)
(4.75983 2.39459 0)
(3.84404 2.32455 0)
(4.23505 2.51919 0)
(3.27553 2.35698 0)
(3.67999 2.60125 0)
(2.68548 2.31064 0)
(3.09582 2.61974 0)
(2.07276 2.15507 0)
(2.48178 2.54738 0)
(1.42943 1.86748 0)
(1.83999 2.3538 0)
(0.74264 1.41967 0)
(1.13141 2.02463 0)
(0.543326 1.51461 0)
(9.98264 0.0974972 0)
(9.99299 0.0697924 0)
(9.94744 0.159774 0)
(9.96925 0.137583 0)
(9.89354 0.221346 0)
(9.92597 0.203926 0)
(9.82134 0.28409 0)
(9.86381 0.270687 0)
(9.73134 0.349346 0)
(9.78386 0.339581 0)
(9.62367 0.418016 0)
(9.68665 0.411694 0)
(9.49819 0.490934 0)
(9.57218 0.487899 0)
(9.35465 0.568968 0)
(9.44021 0.569099 0)
(9.19269 0.652996 0)
(9.29043 0.656226 0)
(9.01184 0.743887 0)
(9.12242 0.750204 0)
(8.81152 0.842503 0)
(8.93572 0.851944 0)
(8.59109 0.949692 0)
(8.72973 0.962351 0)
(8.34986 1.06626 0)
(8.50382 1.0823 0)
(8.08707 1.19294 0)
(8.25729 1.21262 0)
(7.80194 1.33028 0)
(7.98939 1.35402 0)
(7.49362 1.47857 0)
(7.69932 1.507 0)
(7.16122 1.63765 0)
(7.3862 1.67173 0)
(6.80377 1.80671 0)
(7.04906 1.84788 0)
(6.42016 1.98394 0)
(6.6868 2.03432 0)
(6.00919 2.1661 0)
(6.29807 2.2288 0)
(5.56948 2.34808 0)
(5.88126 2.42745 0)
(5.09955 2.52219 0)
(5.43442 2.62423 0)
(4.59784 2.67756 0)
(4.95521 2.81028 0)
(4.0628 2.7995 0)
(4.44095 2.97322 0)
(3.4928 2.86914 0)
(3.88862 3.09664 0)
(2.88592 2.86297 0)
(3.29533 3.15994 0)
(2.23809 2.75401 0)
(2.65699 3.13798 0)
(1.5425 2.52114 0)
(1.97492 3.0033 0)
(0.793679 2.13146 0)
(1.20729 2.74073 0)
(0.556759 2.29197 0)
(9.9825 0.110626 0)
(9.99302 0.078361 0)
(9.9477 0.182323 0)
(9.96954 0.155036 0)
(9.89522 0.253816 0)
(9.92722 0.230885 0)
(9.82524 0.326765 0)
(9.86697 0.307507 0)
(9.73813 0.402552 0)
(9.78978 0.38652 0)
(9.63403 0.48223 0)
(9.69605 0.469145 0)
(9.51285 0.566752 0)
(9.58579 0.556393 0)
(9.37438 0.657085 0)
(9.4588 0.649264 0)
(9.21828 0.754204 0)
(9.3148 0.748779 0)
(9.04414 0.859072 0)
(9.15346 0.855951 0)
(8.85145 0.972647 0)
(8.97434 0.971787 0)
(8.63963 1.09586 0)
(8.77691 1.09728 0)
(8.40803 1.22962 0)
(8.56058 1.2334 0)
(8.15596 1.37472 0)
(8.3247 1.38105 0)
(7.88266 1.53183 0)
(8.06854 1.54105 0)
(7.58729 1.70135 0)
(7.79127 1.71401 0)
(7.26893 1.88326 0)
(7.49198 1.90027 0)
(6.92647 2.07694 0)
(7.16958 2.09966 0)
(6.55856 2.28082 0)
(6.8227 2.31135 0)
(6.16353 2.49202 0)
(6.44965 2.53345 0)
(5.73921 2.7058 0)
(6.04817 2.76261 0)
(5.28282 2.91497 0)
(5.61533 2.99343 0)
(4.79093 3.10915 0)
(5.14734 3.21783 0)
(4.25941 3.27421 0)
(4.6395 3.42427 0)
(3.6835 3.39189 0)
(4.08618 3.59717 0)
(3.05815 3.43975 0)
(3.48144 3.71659 0)
(2.37783 3.39189 0)
(2.81848 3.75821 0)
(1.63798 3.2263 0)
(2.09925 3.69411 0)
(0.839168 2.901 0)
(1.27898 3.50464 0)
(0.573389 3.11389 0)
(9.98273 0.123581 0)
(9.99316 0.086817 0)
(9.94873 0.204308 0)
(9.97027 0.172092 0)
(9.89794 0.285251 0)
(9.92926 0.256974 0)
(9.83051 0.367963 0)
(9.87123 0.342986 0)
(9.74671 0.453849 0)
(9.79715 0.431676 0)
(9.64668 0.544073 0)
(9.70735 0.524347 0)
(9.53038 0.639702 0)
(9.6018 0.62213 0)
(9.39762 0.741792 0)
(9.48038 0.726119 0)
(9.24813 0.851404 0)
(9.34286 0.837415 0)
(9.08153 0.969593 0)
(9.18894 0.95712 0)
(8.89736 1.0974 0)
(9.01824 1.08633 0)
(8.6951 1.23586 0)
(8.83029 1.22612 0)
(8.47413 1.38596 0)
(8.62455 1.37755 0)
(8.23377 1.5486 0)
(8.40037 1.54165 0)
(7.97324 1.72457 0)
(8.15702 1.71934 0)
(7.69163 1.9144 0)
(7.89365 1.91139 0)
(7.38789 2.11831 0)
(7.60922 2.11831 0)
(7.06066 2.33592 0)
(7.30245 2.34024 0)
(6.70826 2.56607 0)
(6.9717 2.57671 0)
(6.32843 2.80644 0)
(6.61478 2.82638 0)
(5.91819 3.053 0)
(6.22879 3.08665 0)
(5.47356 3.2995 0)
(5.80984 3.35313 0)
(4.98942 3.53664 0)
(5.35277 3.61895 0)
(4.45947 3.75142 0)
(4.85101 3.87398 0)
(3.87636 3.9265 0)
(4.29657 4.10396 0)
(3.23246 4.03993 0)
(3.6807 4.28974 0)
(2.52095 4.0651 0)
(2.99365 4.40687 0)
(1.73846 3.97629 0)
(2.2375 4.42473 0)
(0.88952 3.71894 0)
(1.36344 4.31649 0)
(0.59879 3.98512 0)
(9.98321 0.136203 0)
(9.99339 0.0950399 0)
(9.95032 0.225571 0)
(9.97131 0.188588 0)
(9.90151 0.315495 0)
(9.93193 0.282048 0)
(9.83694 0.407501 0)
(9.87643 0.376958 0)
(9.75684 0.503009 0)
(9.80579 0.474838 0)
(9.66135 0.603272 0)
(9.7203 0.577046 0)
(9.55046 0.709453 0)
(9.61995 0.684809 0)
(9.42403 0.822692 0)
(9.50465 0.799309 0)
(9.28184 0.944134 0)
(9.37422 0.921724 0)
(9.12356 1.07492 0)
(9.22843 1.05324 0)
(8.94879 1.21617 0)
(9.06695 1.19502 0)
(8.75705 1.36902 0)
(8.88938 1.34825 0)
(8.54777 1.53455 0)
(8.6952 1.51409 0)
(8.32026 1.71381 0)
(8.48382 1.69367 0)
(8.07371 1.9077 0)
(8.25451 1.88806 0)
(7.80716 2.11698 0)
(8.00637 2.09822 0)
(7.51936 2.3421 0)
(7.73828 2.32491 0)
(7.20872 2.58309 0)
(7.44876 2.56862 0)
(6.87316 2.83933 0)
(7.1359 2.82938 0)
(6.50985 3.10921 0)
(6.79708 3.10657 0)
(6.11498 3.38975 0)
(6.42877 3.39855 0)
(5.68343 3.67597 0)
(6.02616 3.70224 0)
(5.20852 3.96018 0)
(5.58282 4.01244 0)
(4.68181 4.23099 0)
(5.09037 4.32094 0)
(4.09335 4.47235 0)
(4.53834 4.61539 0)
(3.43258 4.66262 0)
(3.91478 4.87791 0)
(2.69019 4.77328 0)
(3.20576 5.08368 0)
(1.8619 4.77257 0)
(2.41135 5.19812 0)
(0.954209 4.58993 0)
(1.47633 5.18452 0)
(0.639216 4.9197 0)
(9.98386 0.148368 0)
(9.99368 0.102943 0)
(9.95235 0.24597 0)
(9.9726 0.204394 0)
(9.90578 0.344398 0)
(9.9351 0.305969 0)
(9.84437 0.445197 0)
(9.88241 0.409269 0)
(9.76833 0.549808 0)
(9.81552 0.515814 0)
(9.6778 0.659555 0)
(9.73471 0.627008 0)
(9.57281 0.775682 0)
(9.63998 0.744153 0)
(9.45327 0.899409 0)
(9.53129 0.868509 0)
(9.31901 1.03196 0)
(9.40853 1.00133 0)
(9.16978 1.17454 0)
(9.27151 1.14386 0)
(9.00522 1.32838 0)
(9.11999 1.29736 0)
(8.82492 1.49469 0)
(8.95361 1.4631 0)
(8.62835 1.67467 0)
(8.77194 1.64234 0)
(8.41485 1.8695 0)
(8.57443 1.83632 0)
(8.18362 2.08028 0)
(8.36038 2.0463 0)
(7.93362 2.308 0)
(8.1289 2.27344 0)
(7.6635 2.55344 0)
(7.87882 2.51881 0)
(7.37147 2.81711 0)
(7.60857 2.78332 0)
(7.05511 3.09904 0)
(7.31602 3.06761 0)
(6.71109 3.39857 0)
(6.99826 3.37188 0)
(6.33489 3.714 0)
(6.65126 3.69569 0)
(5.92036 4.04203 0)
(6.2695 4.03758 0)
(5.4593 4.37702 0)
(5.84542 4.39445 0)
(4.9411 4.70987 0)
(5.36892 4.76068 0)
(4.35276 5.02655 0)
(4.82685 5.12673 0)
(3.67963 5.30625 0)
(4.20323 5.47709 0)
(2.90755 5.5183 0)
(3.47796 5.78756 0)
(2.02769 5.62319 0)
(2.64509 6.01966 0)
(1.04512 5.52968 0)
(1.63776 6.12415 0)
(0.704491 5.94334 0)
(9.98465 0.159981 0)
(9.99402 0.110462 0)
(9.95473 0.265381 0)
(9.97409 0.2194 0)
(9.91065 0.37182 0)
(9.93868 0.328612 0)
(9.85266 0.480883 0)
(9.88905 0.439776 0)
(9.781 0.594043 0)
(9.82618 0.554433 0)
(9.69581 0.712678 0)
(9.75038 0.674023 0)
(9.59716 0.838103 0)
(9.66166 0.799913 0)
(9.48501 0.971608 0)
(9.56002 0.933429 0)
(9.35927 1.11448 0)
(9.44542 1.07589 0)
(9.21972 1.26801 0)
(9.31775 1.2286 0)
(9.06612 1.4335 0)
(9.17683 1.3929 0)
(8.8981 1.61225 0)
(9.0224 1.57013 0)
(8.71521 1.8056 0)
(8.85409 1.76165 0)
(8.51685 2.01485 0)
(8.67145 1.96886 0)
(8.30226 2.24131 0)
(8.47384 2.19316 0)
(8.0704 2.48624 0)
(8.26045 2.43595 0)
(7.8199 2.75083 0)
(8.03013 2.69864 0)
(7.54887 3.0361 0)
(7.78132 2.98259 0)
(7.25469 3.34289 0)
(7.51186 3.28912 0)
(6.93375 3.67161 0)
(7.21873 3.61939 0)
(6.58103 4.02208 0)
(6.8977 3.97429 0)
(6.18958 4.39306 0)
(6.54283 4.35425 0)
(5.74992 4.78157 0)
(6.14584 4.75873 0)
(5.24928 5.18171 0)
(5.69523 5.18551 0)
(4.67111 5.58283 0)
(5.17525 5.62922 0)
(3.99507 5.96664 0)
(4.56528 6.07886 0)
(3.19856 6.30187 0)
(3.83651 6.51371 0)
(2.26188 6.5409 0)
(2.97098 6.89426 0)
(1.18067 6.56538 0)
(1.87924 7.15813 0)
(0.81285 7.09973 0)
(9.98553 0.170963 0)
(9.9944 0.117546 0)
(9.95738 0.283698 0)
(9.97572 0.233519 0)
(9.916 0.397635 0)
(9.94258 0.349869 0)
(9.86169 0.514411 0)
(9.89623 0.468351 0)
(9.79468 0.635533 0)
(9.83764 0.59054 0)
(9.71517 0.762426 0)
(9.76713 0.717908 0)
(9.62324 0.896463 0)
(9.68475 0.851872 0)
(9.51893 1.03899 0)
(9.59055 0.993813 0)
(9.4022 1.19136 0)
(9.48455 1.1451 0)
(9.27292 1.35493 0)
(9.36672 1.3071 0)
(9.13093 1.53106 0)
(9.23697 1.48121 0)
(8.97595 1.72116 0)
(9.09513 1.66885 0)
(8.80762 1.92666 0)
(8.94095 1.87147 0)
(8.62545 2.14903 0)
(8.77407 2.09058 0)
(8.42876 2.38978 0)
(8.59399 2.32776 0)
(8.21661 2.65045 0)
(8.40001 2.58464 0)
(7.9877 2.93263 0)
(8.19114 2.86296 0)
(7.7402 3.23795 0)
(7.96595 3.16456 0)
(7.47153 3.56806 0)
(7.72246 3.49143 0)
(7.17806 3.92458 0)
(7.4578 3.84572 0)
(6.85464 4.30902 0)
(7.16791 4.22975 0)
(6.49402 4.72253 0)
(6.84698 4.64598 0)
(6.08592 5.16543 0)
(6.48666 5.09686 0)
(5.6159 5.63624 0)
(6.07492 5.58437 0)
(5.06386 6.1298 0)
(5.5943 6.109 0)
(4.40249 6.63382 0)
(5.01991 6.66756 0)
(3.59639 7.12135 0)
(4.31287 7.24861 0)
(2.60452 7.54086 0)
(3.43596 7.82038 0)
(1.39441 7.74077 0)
(2.25667 8.31536 0)
(1.00271 8.46547 0)
(9.9865 0.181252 0)
(9.9948 0.124156 0)
(9.96026 0.300832 0)
(9.97747 0.24668 0)
(9.92176 0.421733 0)
(9.94676 0.369647 0)
(9.87133 0.54565 0)
(9.90387 0.494885 0)
(9.80923 0.674122 0)
(9.84977 0.624003 0)
(9.73567 0.808611 0)
(9.78478 0.758505 0)
(9.6508 0.950539 0)
(9.70902 0.899843 0)
(9.55471 1.1013 0)
(9.62257 1.04944 0)
(9.44741 1.2623 0)
(9.52554 1.20871 0)
(9.3289 1.43494 0)
(9.41797 1.37907 0)
(9.19907 1.62065 0)
(9.29987 1.56196 0)
(9.05778 1.82091 0)
(9.17117 1.75885 0)
(8.90479 2.03725 0)
(9.03175 1.97128 0)
(8.73973 2.27129 0)
(8.8814 2.20087 0)
(8.56209 2.52472 0)
(8.71979 2.44933 0)
(8.3711 2.79937 0)
(8.5464 2.71851 0)
(8.16565 3.0972 0)
(8.36049 3.01044 0)
(7.94416 3.42043 0)
(8.16094 3.3274 0)
(7.70434 3.77151 0)
(7.94611 3.67201 0)
(7.44291 4.15327 0)
(7.71364 4.04734 0)
(7.15512 4.56896 0)
(7.46008 4.45706 0)
(6.83409 5.02233 0)
(7.18042 4.90568 0)
(6.46977 5.5175 0)
(6.86727 5.39872 0)
(6.04729 6.05861 0)
(6.50957 5.94288 0)
(5.5444 6.64868 0)
(6.09037 6.54607 0)
(4.92745 7.28702 0)
(5.58352 7.21672 0)
(4.14539 7.96156 0)
(4.94296 7.96159 0)
(3.12211 8.63385 0)
(4.10976 8.77584 0)
(1.75647 9.12829 0)
(2.87884 9.62133 0)
(1.36495 10.1858 0)
(9.98754 0.190799 0)
(9.99523 0.13026 0)
(9.96332 0.316707 0)
(9.97932 0.258824 0)
(9.92785 0.444022 0)
(9.95115 0.387868 0)
(9.88147 0.574489 0)
(9.91187 0.519286 0)
(9.82448 0.709679 0)
(9.86243 0.654714 0)
(9.75711 0.851084 0)
(9.80316 0.795683 0)
(9.67957 1.00016 0)
(9.73424 0.943674 0)
(9.592 1.15834 0)
(9.65581 1.10014 0)
(9.4945 1.32706 0)
(9.56804 1.26652 0)
(9.38713 1.50777 0)
(9.47106 1.44427 0)
(9.26994 1.70194 0)
(9.36497 1.63485 0)
(9.14287 1.91111 0)
(9.24984 1.83979 0)
(9.00585 2.13691 0)
(9.12569 2.06067 0)
(8.85868 2.38103 0)
(8.99248 2.2992 0)
(8.70105 2.64536 0)
(8.85008 2.5572 0)
(8.53245 2.93194 0)
(8.69825 2.83667 0)
(8.35211 3.24309 0)
(8.53655 3.1399 0)
(8.15885 3.58148 0)
(8.3643 3.46949 0)
(7.95094 3.95032 0)
(8.18043 3.82857 0)
(7.72583 4.35347 0)
(7.98336 4.22094 0)
(7.47977 4.79582 0)
(7.77073 4.65141 0)
(7.20722 5.28353 0)
(7.53904 5.12617 0)
(6.89977 5.8246 0)
(7.28307 5.65345 0)
(6.54448 6.42939 0)
(6.99483 6.24437 0)
(6.1206 7.11132 0)
(6.6616 6.91447 0)
(5.59339 7.88756 0)
(6.26281 7.68601 0)
(4.90133 8.77797 0)
(5.75803 8.59252 0)
(3.92737 9.80184 0)
(5.08795 9.68525 0)
(2.43363 10.8574 0)
(3.9802 11.0498 0)
(2.14673 12.5694 0)
(9.98861 0.199563 0)
(9.99567 0.135836 0)
(9.96652 0.331262 0)
(9.98124 0.269907 0)
(9.9342 0.46442 0)
(9.9557 0.404473 0)
(9.89202 0.600822 0)
(9.92016 0.541477 0)
(9.8403 0.742067 0)
(9.87552 0.682584 0)
(9.77931 0.88967 0)
(9.82215 0.82934 0)
(9.7093 1.04511 0)
(9.76027 0.983243 0)
(9.63049 1.20985 0)
(9.69008 1.14577 0)
(9.54305 1.38533 0)
(9.61183 1.31837 0)
(9.44715 1.57304 0)
(9.52574 1.5025 0)
(9.34292 1.77449 0)
(9.43203 1.69967 0)
(9.23048 1.99124 0)
(9.33089 1.91141 0)
(9.10991 2.22498 0)
(9.22249 2.13934 0)
(8.98121 2.47748 0)
(9.10699 2.38519 0)
(8.84433 2.75074 0)
(8.98451 2.65087 0)
(8.69909 3.04696 0)
(8.8551 2.93848 0)
(8.54512 3.3687 0)
(8.71874 3.25042 0)
(8.38183 3.719 0)
(8.57525 3.58954 0)
(8.20827 4.10156 0)
(8.4243 3.95926 0)
(8.02298 4.52105 0)
(8.26533 4.36384 0)
(7.82377 4.98351 0)
(8.09742 4.80876 0)
(7.60735 5.49699 0)
(7.91922 5.30125 0)
(7.36872 6.07253 0)
(7.72876 5.85117 0)
(7.09994 6.7258 0)
(7.52316 6.47245 0)
(6.78787 7.48001 0)
(7.2982 7.18569 0)
(6.40897 8.37192 0)
(7.04843 8.02329 0)
(5.91621 9.466 0)
(6.76366 9.04174 0)
(5.19699 10.9087 0)
(6.46297 10.3568 0)
(3.88547 13.18 0)
(6.19151 12.304 0)
(5.26169 16.375 0)
(0.196871 -0.120854 0)
(0.113884 -0.192823 0)
(0.385151 -0.103565 0)
(0.277318 -0.180054 0)
(0.542612 -0.0812393 0)
(0.442145 -0.147024 0)
(0.66961 -0.0618433 0)
(0.583692 -0.11578 0)
(0.771248 -0.0464676 0)
(0.698146 -0.0904716 0)
(0.852681 -0.034621 0)
(0.790376 -0.0707745 0)
(0.918314 -0.0256399 0)
(0.865897 -0.0556952 0)
(0.971829 -0.0189457 0)
(0.928942 -0.0443394 0)
(1.01625 -0.0140474 0)
(0.982618 -0.0359365 0)
(1.05401 -0.0105292 0)
(1.02932 -0.0298242 0)
(1.087 -0.00804026 0)
(1.07094 -0.0254455 0)
(1.11665 -0.00627861 0)
(1.10895 -0.022325 0)
(1.14391 -0.0049771 0)
(1.14441 -0.020041 0)
(1.16928 -0.0039002 0)
(1.17799 -0.0182122 0)
(1.19283 -0.00285517 0)
(1.21003 -0.0165076 0)
(1.21428 -0.00171374 0)
(1.24048 -0.0146781 0)
(1.23313 -0.000429453 0)
(1.26905 -0.0125964 0)
(1.24888 0.00097432 0)
(1.29534 -0.0102738 0)
(1.26115 0.00245971 0)
(1.31898 -0.0078119 0)
(1.26965 0.00403365 0)
(1.33974 -0.00528905 0)
(1.27407 0.00571594 0)
(1.35753 -0.00268678 0)
(1.27425 0.00731345 0)
(1.37213 -0.0001033 0)
(1.26936 0.00866535 0)
(1.383 0.00282748 0)
(1.25986 0.00964552 0)
(1.38959 0.00537051 0)
(1.24694 0.00992689 0)
(1.39208 0.00713358 0)
(1.23276 0.00932737 0)
(1.39161 0.00763816 0)
(1.21965 0.00791339 0)
(1.39042 0.006898 0)
(1.20945 0.00588477 0)
(1.39036 0.00523948 0)
(1.20347 0.00315147 0)
(1.39265 0.00299988 0)
(1.3994 0.000334409 0)
(0.176762 -0.279737 0)
(0.0914929 -0.36595 0)
(0.348648 -0.247322 0)
(0.239286 -0.344429 0)
(0.495186 -0.200141 0)
(0.379538 -0.28385 0)
(0.616585 -0.158389 0)
(0.500882 -0.226455 0)
(0.717556 -0.125206 0)
(0.600364 -0.180349 0)
(0.802548 -0.0996251 0)
(0.682668 -0.144643 0)
(0.875181 -0.0802031 0)
(0.752196 -0.11733 0)
(0.938351 -0.065671 0)
(0.812155 -0.0966784 0)
(0.994369 -0.0549593 0)
(0.864872 -0.0812535 0)
(1.04507 -0.0471724 0)
(0.912137 -0.0698677 0)
(1.09187 -0.0415617 0)
(0.955365 -0.0615429 0)
(1.13587 -0.037487 0)
(0.995657 -0.055459 0)
(1.17785 -0.034384 0)
(1.03384 -0.0509016 0)
(1.21828 -0.0317541 0)
(1.07048 -0.047233 0)
(1.25735 -0.029185 0)
(1.1059 -0.043897 0)
(1.29503 -0.026395 0)
(1.14019 -0.0404596 0)
(1.33107 -0.0232783 0)
(1.17324 -0.0366772 0)
(1.36521 -0.0198972 0)
(1.20478 -0.0325466 0)
(1.39731 -0.0163799 0)
(1.23455 -0.0282581 0)
(1.4274 -0.0127661 0)
(1.26243 -0.0240038 0)
(1.45546 -0.00896363 0)
(1.28862 -0.0197313 0)
(1.48083 -0.00499341 0)
(1.31329 -0.0151404 0)
(1.50295 -0.00109137 0)
(1.33612 -0.00998011 0)
(1.52128 0.00224161 0)
(1.35659 -0.00499114 0)
(1.53614 0.00439405 0)
(1.37404 -0.00106824 0)
(1.54878 0.00509389 0)
(1.38846 0.000826526 0)
(1.56077 0.00445981 0)
(1.40057 0.000590827 0)
(1.5734 0.0028225 0)
(1.41147 -0.00124496 0)
(1.58724 0.000675742 0)
(1.42182 -0.00394445 0)
(1.43471 -0.00549403 0)
(0.144723 -0.437957 0)
(0.0685549 -0.507697 0)
(0.280803 -0.388674 0)
(0.187599 -0.474563 0)
(0.394582 -0.317334 0)
(0.288959 -0.390088 0)
(0.488032 -0.254502 0)
(0.376665 -0.311651 0)
(0.565769 -0.204722 0)
(0.446861 -0.249545 0)
(0.631476 -0.166282 0)
(0.504935 -0.201749 0)
(0.687964 -0.136923 0)
(0.553986 -0.165265 0)
(0.737369 -0.114724 0)
(0.596141 -0.137613 0)
(0.781359 -0.0981126 0)
(0.632965 -0.11684 0)
(0.821261 -0.0857982 0)
(0.665688 -0.101385 0)
(0.85813 -0.0767122 0)
(0.695292 -0.0899764 0)
(0.892783 -0.0699449 0)
(0.722556 -0.0815527 0)
(0.925822 -0.0646972 0)
(0.748081 -0.075192 0)
(0.957642 -0.060263 0)
(0.772316 -0.0700754 0)
(0.988438 -0.056048 0)
(0.79557 -0.0654813 0)
(1.0182 -0.0516302 0)
(0.818009 -0.0608252 0)
(1.04674 -0.0468363 0)
(0.839618 -0.0557477 0)
(1.07381 -0.0417656 0)
(0.860197 -0.0502098 0)
(1.09929 -0.0366678 0)
(0.879377 -0.0444898 0)
(1.12334 -0.0316547 0)
(0.896899 -0.0389595 0)
(1.1463 -0.0264541 0)
(0.91294 -0.0336703 0)
(1.16833 -0.0205701 0)
(0.928281 -0.0282076 0)
(1.18931 -0.0141245 0)
(0.943563 -0.0221239 0)
(1.20853 -0.0083047 0)
(0.958241 -0.0158517 0)
(1.22552 -0.0045617 0)
(0.970627 -0.0104497 0)
(1.2396 -0.00361979 0)
(0.979396 -0.00676061 0)
(1.25079 -0.00524156 0)
(0.983681 -0.00529395 0)
(1.25958 -0.00847015 0)
(0.983833 -0.00575893 0)
(1.26755 -0.0110894 0)
(0.981114 -0.00794317 0)
(0.975677 -0.00879937 0)
(0.110046 -0.554946 0)
(0.0459708 -0.61548 0)
(0.204339 -0.487038 0)
(0.129956 -0.564737 0)
(0.278775 -0.395374 0)
(0.186049 -0.45959 0)
(0.338049 -0.316748 0)
(0.236063 -0.365689 0)
(0.386515 -0.255378 0)
(0.271857 -0.292686 0)
(0.426951 -0.208271 0)
(0.300745 -0.236893 0)
(0.461211 -0.172328 0)
(0.323997 -0.194337 0)
(0.490599 -0.145074 0)
(0.342791 -0.161962 0)
(0.516132 -0.124577 0)
(0.358015 -0.137496 0)
(0.538639 -0.109288 0)
(0.370416 -0.119162 0)
(0.558794 -0.0979308 0)
(0.380589 -0.10552 0)
(0.577139 -0.0894228 0)
(0.389011 -0.0953665 0)
(0.594102 -0.0828169 0)
(0.396084 -0.0876633 0)
(0.610014 -0.0772762 0)
(0.402166 -0.081498 0)
(0.625109 -0.0720822 0)
(0.407579 -0.0760615 0)
(0.639489 -0.0666921 0)
(0.412618 -0.0706658 0)
(0.653073 -0.0608379 0)
(0.417421 -0.0648243 0)
(0.66558 -0.0546049 0)
(0.421957 -0.0583691 0)
(0.676672 -0.0483744 0)
(0.425647 -0.051555 0)
(0.68632 -0.0425551 0)
(0.427861 -0.04496 0)
(0.695026 -0.0372462 0)
(0.427728 -0.0389572 0)
(0.703493 -0.0320524 0)
(0.42608 -0.0332277 0)
(0.711782 -0.026479 0)
(0.423007 -0.0269223 0)
(0.718951 -0.0205045 0)
(0.419699 -0.019904 0)
(0.723361 -0.0145323 0)
(0.415529 -0.0128839 0)
(0.722829 -0.00919584 0)
(0.409906 -0.00647373 0)
(0.71624 -0.00528214 0)
(0.404127 -0.00182706 0)
(0.704441 -0.00380089 0)
(0.397298 0.000301812 0)
(0.688986 -0.00431343 0)
(0.389289 -0.000191191 0)
(0.373221 -0.00488829 0)
(0.0703171 -0.633403 0)
(0.0223241 -0.684351 0)
(0.118585 -0.545673 0)
(0.0657659 -0.610895 0)
(0.150331 -0.437904 0)
(0.0726912 -0.489232 0)
(0.171819 -0.348727 0)
(0.0825165 -0.385279 0)
(0.18703 -0.280209 0)
(0.080637 -0.306226 0)
(0.197729 -0.227867 0)
(0.0766965 -0.246192 0)
(0.204895 -0.187883 0)
(0.0698298 -0.200417 0)
(0.209181 -0.157437 0)
(0.0609161 -0.165514 0)
(0.211151 -0.134411 0)
(0.0504324 -0.139089 0)
(0.211264 -0.117133 0)
(0.0388473 -0.119251 0)
(0.209896 -0.104234 0)
(0.0265024 -0.104465 0)
(0.20737 -0.0945557 0)
(0.0136593 -0.0934643 0)
(0.203967 -0.0870876 0)
(0.000567616 -0.0851619 0)
(0.199946 -0.0809302 0)
(-0.0125278 -0.0786109 0)
(0.195571 -0.0752888 0)
(-0.0253832 -0.0729953 0)
(0.19111 -0.0695101 0)
(-0.0377058 -0.0676132 0)
(0.186719 -0.0631693 0)
(-0.0492241 -0.0618901 0)
(0.182246 -0.0561749 0)
(-0.0597097 -0.055451 0)
(0.176998 -0.0487666 0)
(-0.0694031 -0.0482123 0)
(0.16969 -0.0412602 0)
(-0.0787506 -0.0404145 0)
(0.159161 -0.0336898 0)
(-0.0888694 -0.0325635 0)
(0.14522 -0.0257588 0)
(-0.0996712 -0.0249621 0)
(0.129384 -0.0174772 0)
(-0.111855 -0.0177543 0)
(0.113903 -0.00969069 0)
(-0.124263 -0.0111541 0)
(0.100643 -0.00343494 0)
(-0.136442 -0.00556591 0)
(0.0910222 0.0009325 0)
(-0.147351 -0.00128932 0)
(0.0847809 0.0032742 0)
(-0.154461 0.00145664 0)
(0.0799924 0.00347847 0)
(-0.159381 0.00276163 0)
(0.0744736 -0.00100093 0)
(-0.163837 0.00257684 0)
(-0.173375 -0.00245796 0)
(0.0247804 -0.668001 0)
(-0.00393559 -0.708622 0)
(0.0240945 -0.559908 0)
(-0.00602919 -0.610239 0)
(0.00999638 -0.440009 0)
(-0.0487369 -0.476068 0)
(-0.00719674 -0.344402 0)
(-0.0816142 -0.369605 0)
(-0.0280707 -0.272101 0)
(-0.122038 -0.287646 0)
(-0.0507549 -0.217646 0)
(-0.161192 -0.226476 0)
(-0.0745315 -0.17632 0)
(-0.199865 -0.180241 0)
(-0.0987455 -0.145087 0)
(-0.23712 -0.145452 0)
(-0.122991 -0.121649 0)
(-0.272592 -0.119475 0)
(-0.146994 -0.104201 0)
(-0.306008 -0.100292 0)
(-0.170566 -0.0912928 0)
(-0.337282 -0.0862868 0)
(-0.193552 -0.0817154 0)
(-0.366465 -0.0761558 0)
(-0.215834 -0.074415 0)
(-0.393656 -0.0687797 0)
(-0.237314 -0.068485 0)
(-0.418971 -0.0631915 0)
(-0.257853 -0.0631803 0)
(-0.442511 -0.0585998 0)
(-0.277198 -0.057911 0)
(-0.464259 -0.0543745 0)
(-0.294983 -0.0522461 0)
(-0.484046 -0.0500068 0)
(-0.310848 -0.0459528 0)
(-0.501627 -0.0451007 0)
(-0.324652 -0.0390577 0)
(-0.516867 -0.0394195 0)
(-0.336631 -0.0318425 0)
(-0.529906 -0.0329642 0)
(-0.347446 -0.0247064 0)
(-0.541203 -0.0259955 0)
(-0.357694 -0.0180224 0)
(-0.551299 -0.0188862 0)
(-0.36761 -0.0119843 0)
(-0.560806 -0.0120139 0)
(-0.377182 -0.00682298 0)
(-0.570332 -0.00574376 0)
(-0.385596 -0.00294288 0)
(-0.579705 -0.000922233 0)
(-0.392807 -0.000104898 0)
(-0.587996 0.00259616 0)
(-0.399173 0.00211762 0)
(-0.594885 0.00480619 0)
(-0.405094 0.0031315 0)
(-0.601139 0.00580336 0)
(-0.408722 0.00142685 0)
(-0.607402 0.00439614 0)
(-0.61299 7.11896e-05 0)
(-0.0259734 -0.652222 0)
(-0.0351088 -0.683183 0)
(-0.0767839 -0.525654 0)
(-0.0856284 -0.561649 0)
(-0.134662 -0.401354 0)
(-0.176073 -0.422027 0)
(-0.19435 -0.306305 0)
(-0.252151 -0.31519 0)
(-0.253034 -0.235077 0)
(-0.329542 -0.235409 0)
(-0.309498 -0.182315 0)
(-0.401679 -0.177403 0)
(-0.362476 -0.143186 0)
(-0.467849 -0.135284 0)
(-0.411486 -0.114369 0)
(-0.527474 -0.104845 0)
(-0.456306 -0.0934379 0)
(-0.580685 -0.0832169 0)
(-0.496948 -0.0784893 0)
(-0.627957 -0.0681904 0)
(-0.533636 -0.0679845 0)
(-0.669871 -0.0579925 0)
(-0.566725 -0.0606668 0)
(-0.707098 -0.0512403 0)
(-0.596615 -0.0554736 0)
(-0.740289 -0.046804 0)
(-0.623698 -0.0515296 0)
(-0.770033 -0.0437496 0)
(-0.648275 -0.0481657 0)
(-0.79684 -0.0413741 0)
(-0.670452 -0.0448745 0)
(-0.82102 -0.0391978 0)
(-0.690154 -0.0412414 0)
(-0.842631 -0.0368426 0)
(-0.70726 -0.0369275 0)
(-0.86158 -0.0339411 0)
(-0.721808 -0.0317285 0)
(-0.877842 -0.0301523 0)
(-0.734154 -0.0256523 0)
(-0.891664 -0.0252856 0)
(-0.744985 -0.0189302 0)
(-0.903591 -0.0194188 0)
(-0.755076 -0.0120007 0)
(-0.914313 -0.0129029 0)
(-0.764857 -0.0054765 0)
(-0.924419 -0.00635189 0)
(-0.774305 3.00759e-05 0)
(-0.934259 -0.000403154 0)
(-0.782802 0.00400815 0)
(-0.943265 0.0037672 0)
(-0.790382 0.00640135 0)
(-0.951588 0.0066805 0)
(-0.79742 0.00729544 0)
(-0.959434 0.00850916 0)
(-0.803546 0.0061273 0)
(-0.966931 0.00895014 0)
(-0.808696 0.00277928 0)
(-0.974074 0.00697948 0)
(-0.978674 0.00325122 0)
(-0.0805463 -0.586198 0)
(-0.072821 -0.604293 0)
(-0.182494 -0.449003 0)
(-0.173696 -0.464155 0)
(-0.284979 -0.32589 0)
(-0.312245 -0.326335 0)
(-0.384068 -0.234684 0)
(-0.428569 -0.224853 0)
(-0.476054 -0.169341 0)
(-0.537723 -0.15353 0)
(-0.559176 -0.123597 0)
(-0.635297 -0.105161 0)
(-0.632623 -0.0917319 0)
(-0.720919 -0.0729582 0)
(-0.696798 -0.0697088 0)
(-0.795011 -0.0516728 0)
(-0.75259 -0.0548731 0)
(-0.857536 -0.0380831 0)
(-0.801101 -0.0452789 0)
(-0.910776 -0.0298731 0)
(-0.843455 -0.039361 0)
(-0.95654 -0.0253285 0)
(-0.880659 -0.0358958 0)
(-0.996375 -0.0232259 0)
(-0.913544 -0.0339036 0)
(-1.0315 -0.0226268 0)
(-0.94284 -0.0326321 0)
(-1.06288 -0.0227197 0)
(-0.969137 -0.0315832 0)
(-1.09108 -0.0229421 0)
(-0.992739 -0.0304356 0)
(-1.11646 -0.0230463 0)
(-1.01368 -0.0288929 0)
(-1.13917 -0.022849 0)
(-1.03191 -0.0266077 0)
(-1.15913 -0.0220485 0)
(-1.04752 -0.0232381 0)
(-1.17632 -0.0202073 0)
(-1.06094 -0.0186211 0)
(-1.19102 -0.0169406 0)
(-1.07284 -0.0129427 0)
(-1.20385 -0.012191 0)
(-1.08388 -0.00677461 0)
(-1.21557 -0.00636114 0)
(-1.09424 -0.00098142 0)
(-1.22662 -0.000350426 0)
(-1.10369 0.0037518 0)
(-1.23683 0.00493857 0)
(-1.11258 0.00725119 0)
(-1.24638 0.00867212 0)
(-1.12106 0.00959366 0)
(-1.25566 0.0112468 0)
(-1.12905 0.0106351 0)
(-1.26453 0.0127129 0)
(-1.13647 0.00977774 0)
(-1.27326 0.0127643 0)
(-1.1439 0.00714159 0)
(-1.28137 0.0107043 0)
(-1.28598 0.00760761 0)
(-0.142038 -0.467101 0)
(-0.120715 -0.465175 0)