/*--------------------------------*- C++ -*----------------------------------*\
  =========                 |
  \\      /  F ield         | OpenFOAM: The Open Source CFD Toolbox
   \\    /   O peration     | Website:  https://openfoam.org
    \\  /    A nd           | Version:  7
     \\/     M anipulation  |
\*---------------------------------------------------------------------------*/
FoamFile
{
    version     2.0;
    format      ascii;
    class       volScalarField;
    location    "5.33";
    object      T;
}
// * * * * * * * * * * * * * * * * * * * * * * * * * * * * * * * * * * * * * //

dimensions      [0 0 0 1 0 0 0];

internalField   nonuniform List<scalar> 
12013
(
300.079
300.239
300.403
300.57
300.738
300.907
301.076
301.244
301.41
301.573
301.734
301.891
302.045
302.195
302.341
302.483
302.621
302.755
302.885
303.012
303.135
303.255
303.372
303.486
303.598
303.708
303.816
303.924
304.03
304.137
304.244
304.352
304.462
304.575
304.691
304.811
304.937
305.068
305.208
305.356
305.514
305.684
305.867
306.065
306.28
306.514
306.769
307.048
307.354
307.689
308.056
308.459
308.901
309.386
309.918
310.502
311.142
311.844
312.614
313.457
314.38
315.391
316.496
317.705
319.028
320.473
322.054
323.783
325.674
327.744
330.012
332.5
335.236
338.249
341.582
345.283
349.421
354.091
359.438
365.702
373.343
300.079
300.239
300.403
300.57
300.739
300.908
301.077
301.245
301.411
301.574
301.735
301.892
302.046
302.196
302.342
302.484
302.622
302.756
302.887
303.013
303.137
303.257
303.373
303.488
303.6
303.71
303.818
303.925
304.032
304.139
304.246
304.354
304.464
304.577
304.692
304.813
304.938
305.07
305.209
305.357
305.515
305.685
305.868
306.066
306.281
306.515
306.77
307.049
307.354
307.688
308.055
308.458
308.899
309.384
309.915
310.499
311.138
311.84
312.608
313.45
314.371
315.38
316.483
317.69
319.009
320.451
322.027
323.75
325.634
327.695
329.951
332.425
335.141
338.129
341.426
345.078
349.141
353.691
358.826
364.668
371.327
300.079
300.239
300.404
300.571
300.74
300.909
301.078
301.246
301.412
301.576
301.737
301.894
302.048
302.199
302.345
302.487
302.625
302.76
302.89
303.017
303.14
303.26
303.377
303.491
303.603
303.713
303.822
303.929
304.036
304.142
304.25
304.358
304.468
304.58
304.696
304.816
304.941
305.073
305.212
305.36
305.518
305.687
305.87
306.068
306.282
306.516
306.771
307.049
307.354
307.688
308.054
308.455
308.896
309.379
309.91
310.492
311.129
311.829
312.595
313.434
314.352
315.356
316.455
317.656
318.968
320.401
321.967
323.677
325.545
327.587
329.819
332.261
334.936
337.87
341.093
344.642
348.557
352.885
357.67
362.939
368.651
300.079
300.24
300.404
300.572
300.741
300.911
301.08
301.249
301.415
301.579
301.74
301.898
302.053
302.203
302.35
302.492
302.63
302.765
302.896
303.023
303.146
303.266
303.383
303.498
303.61
303.72
303.828
303.936
304.042
304.149
304.256
304.364
304.474
304.586
304.702
304.822
304.947
305.079
305.217
305.365
305.522
305.692
305.874
306.071
306.285
306.518
306.772
307.05
307.354
307.687
308.052
308.452
308.891
309.372
309.901
310.48
311.115
311.811
312.573
313.407
314.32
315.317
316.408
317.599
318.9
320.319
321.868
323.558
325.401
327.411
329.603
331.996
334.606
337.457
340.569
343.968
347.678
351.717
356.094
360.788
365.725
300.079
300.24
300.406
300.574
300.743
300.913
301.083
301.252
301.419
301.584
301.746
301.904
302.059
302.209
302.356
302.499
302.638
302.773
302.904
303.031
303.155
303.275
303.392
303.507
303.619
303.729
303.838
303.945
304.052
304.158
304.265
304.373
304.483
304.595
304.711
304.83
304.955
305.086
305.225
305.372
305.529
305.698
305.88
306.076
306.289
306.522
306.775
307.051
307.354
307.685
308.048
308.447
308.883
309.362
309.887
310.463
311.094
311.784
312.541
313.368
314.272
315.26
316.339
317.517
318.801
320.201
321.725
323.386
325.193
327.158
329.296
331.619
334.143
336.882
339.852
343.065
346.532
350.252
354.214
358.382
362.69
300.08
300.241
300.407
300.576
300.746
300.917
301.088
301.257
301.425
301.59
301.753
301.912
302.067
302.218
302.366
302.509
302.648
302.784
302.915
303.043
303.166
303.287
303.405
303.519
303.632
303.742
303.85
303.958
304.064
304.171
304.278
304.386
304.495
304.607
304.723
304.842
304.967
305.097
305.236
305.382
305.539
305.707
305.887
306.083
306.295
306.526
306.778
307.053
307.354
307.683
308.044
308.439
308.873
309.348
309.869
310.439
311.064
311.748
312.496
313.314
314.208
315.183
316.246
317.405
318.667
320.04
321.533
323.154
324.914
326.823
328.89
331.126
333.543
336.148
338.95
341.954
345.158
348.553
352.12
355.823
359.608
300.08
300.243
300.409
300.579
300.75
300.922
301.094
301.264
301.433
301.599
301.762
301.922
302.078
302.23
302.378
302.522
302.662
302.798
302.93
303.058
303.182
303.303
303.421
303.536
303.649
303.759
303.868
303.975
304.082
304.188
304.295
304.403
304.512
304.624
304.739
304.858
304.982
305.112
305.25
305.395
305.551
305.718
305.898
306.092
306.303
306.533
306.783
307.056
307.354
307.681
308.038
308.43
308.859
309.33
309.845
310.409
311.026
311.701
312.439
313.244
314.123
315.081
316.125
317.26
318.493
319.833
321.285
322.858
324.56
326.399
328.382
330.516
332.807
335.261
337.879
340.66
343.598
346.678
349.88
353.171
356.512
300.081
300.244
300.412
300.583
300.755
300.928
301.101
301.273
301.443
301.61
301.774
301.935
302.092
302.246
302.395
302.54
302.68
302.817
302.949
303.078
303.203
303.324
303.442
303.558
303.67
303.781
303.89
303.997
304.104
304.21
304.317
304.424
304.534
304.645
304.76
304.878
305.002
305.131
305.268
305.413
305.567
305.733
305.912
306.105
306.314
306.541
306.789
307.059
307.354
307.678
308.031
308.418
308.842
309.306
309.814
310.37
310.978
311.642
312.366
313.156
314.017
314.954
315.972
317.078
318.277
319.576
320.98
322.495
324.129
325.886
327.772
329.79
331.944
334.235
336.661
339.216
341.892
344.674
347.542
350.47
353.429
300.081
300.246
300.415
300.588
300.762
300.936
301.11
301.284
301.455
301.624
301.79
301.952
302.111
302.265
302.415
302.561
302.703
302.841
302.974
303.103
303.229
303.351
303.469
303.585
303.698
303.809
303.918
304.025
304.132
304.238
304.345
304.452
304.561
304.672
304.786
304.904
305.027
305.155
305.291
305.435
305.588
305.752
305.929
306.12
306.327
306.552
306.797
307.064
307.355
307.674
308.023
308.404
308.821
309.278
309.777
310.323
310.918
311.568
312.277
313.048
313.887
314.799
315.787
316.858
318.016
319.267
320.614
322.064
323.62
325.285
327.064
328.957
330.966
333.087
335.318
337.652
340.078
342.582
345.147
347.753
350.377
300.082
300.249
300.42
300.594
300.77
300.946
301.122
301.297
301.471
301.641
301.809
301.973
302.133
302.289
302.441
302.588
302.731
302.87
303.004
303.135
303.261
303.384
303.503
303.619
303.733
303.844
303.953
304.061
304.167
304.273
304.38
304.487
304.595
304.705
304.819
304.936
305.058
305.185
305.32
305.462
305.614
305.777
305.951
306.14
306.344
306.566
306.807
307.07
307.357
307.67
308.013
308.387
308.797
309.244
309.732
310.266
310.847
311.48
312.17
312.919
313.732
314.614
315.567
316.598
317.709
318.905
320.189
321.565
323.035
324.602
326.266
328.029
329.887
331.838
333.877
335.997
338.187
340.435
342.727
345.046
347.376
300.083
300.252
300.425
300.601
300.779
300.958
301.137
301.314
301.49
301.663
301.833
301.999
302.161
302.319
302.473
302.622
302.766
302.907
303.042
303.174
303.301
303.425
303.545
303.662
303.776
303.887
303.996
304.104
304.211
304.317
304.423
304.529
304.637
304.747
304.86
304.976
305.097
305.223
305.356
305.497
305.646
305.807
305.979
306.165
306.365
306.583
306.82
307.079
307.36
307.667
308.002
308.368
308.768
309.204
309.68
310.199
310.764
311.378
312.045
312.768
313.552
314.399
315.313
316.298
317.356
318.491
319.706
321.002
322.381
323.843
325.389
327.018
328.726
330.509
332.363
334.279
336.249
338.263
340.308
342.371
344.44
300.084
300.256
300.431
300.61
300.791
300.973
301.155
301.335
301.513
301.689
301.862
302.03
302.195
302.356
302.511
302.663
302.809
302.951
303.088
303.221
303.35
303.474
303.595
303.713
303.828
303.94
304.049
304.157
304.264
304.37
304.475
304.582
304.689
304.798
304.909
305.025
305.144
305.269
305.4
305.539
305.686
305.844
306.013
306.195
306.392
306.606
306.838
307.09
307.365
307.665
307.991
308.348
308.736
309.16
309.621
310.123
310.668
311.26
311.901
312.596
313.346
314.154
315.025
315.959
316.96
318.03
319.17
320.382
321.665
323.021
324.446
325.941
327.501
329.122
330.799
332.525
334.292
336.092
337.914
339.749
341.586
300.086
300.26
300.439
300.622
300.806
300.991
301.176
301.36
301.542
301.721
301.897
302.069
302.236
302.4
302.558
302.712
302.861
303.005
303.144
303.279
303.409
303.535
303.657
303.775
303.891
304.003
304.113
304.222
304.328
304.434
304.539
304.645
304.751
304.86
304.97
305.084
305.202
305.325
305.454
305.59
305.735
305.889
306.055
306.233
306.426
306.634
306.86
307.106
307.373
307.664
307.981
308.326
308.702
309.111
309.555
310.038
310.561
311.128
311.741
312.403
313.116
313.883
314.705
315.586
316.526
317.526
318.588
319.713
320.899
322.146
323.453
324.816
326.233
327.699
329.21
330.759
332.34
333.945
335.567
337.197
338.828
300.088
300.266
300.449
300.635
300.824
301.013
301.202
301.39
301.576
301.759
301.939
302.115
302.286
302.453
302.615
302.771
302.923
303.069
303.211
303.348
303.48
303.607
303.731
303.851
303.967
304.08
304.191
304.299
304.406
304.511
304.616
304.721
304.827
304.934
305.043
305.156
305.272
305.393
305.519
305.653
305.794
305.945
306.107
306.281
306.468
306.671
306.89
307.128
307.387
307.668
307.973
308.306
308.667
309.059
309.485
309.946
310.445
310.985
311.567
312.193
312.866
313.588
314.359
315.182
316.058
316.987
317.97
319.006
320.095
321.235
322.425
323.662
324.942
326.262
327.618
329.003
330.414
331.843
333.285
334.733
336.18
300.09
300.273
300.46
300.651
300.844
301.039
301.233
301.426
301.617
301.805
301.989
302.17
302.345
302.516
302.682
302.842
302.997
303.147
303.291
303.43
303.565
303.694
303.819
303.941
304.058
304.172
304.283
304.392
304.499
304.604
304.709
304.813
304.918
305.024
305.132
305.242
305.356
305.474
305.598
305.729
305.867
306.014
306.171
306.339
306.521
306.716
306.928
307.158
307.406
307.676
307.97
308.288
308.633
309.007
309.412
309.85
310.323
310.832
311.381
311.969
312.6
313.274
313.993
314.757
315.567
316.423
317.326
318.274
319.267
320.303
321.381
322.496
323.648
324.832
326.044
327.28
328.536
329.806
331.086
332.37
333.653
300.092
300.28
300.474
300.67
300.87
301.07
301.27
301.469
301.666
301.859
302.049
302.235
302.416
302.592
302.762
302.927
303.086
303.239
303.387
303.529
303.666
303.798
303.925
304.048
304.166
304.282
304.393
304.503
304.61
304.715
304.819
304.923
305.026
305.131
305.237
305.346
305.457
305.573
305.694
305.821
305.955
306.097
306.249
306.412
306.586
306.774
306.978
307.198
307.436
307.693
307.973
308.275
308.603
308.957
309.34
309.753
310.197
310.675
311.188
311.737
312.324
312.949
313.613
314.317
315.061
315.845
316.669
317.531
318.431
319.367
320.338
321.34
322.371
323.429
324.509
325.609
326.724
327.851
328.986
330.123
331.261
300.096
300.29
300.49
300.693
300.899
301.106
301.314
301.52
301.723
301.924
302.121
302.313
302.5
302.681
302.857
303.027
303.191
303.348
303.5
303.646
303.786
303.92
304.05
304.175
304.295
304.411
304.524
304.634
304.741
304.846
304.95
305.053
305.156
305.259
305.363
305.469
305.579
305.691
305.809
305.932
306.061
306.198
306.344
306.501
306.668
306.848
307.042
307.251
307.477
307.722
307.986
308.272
308.581
308.914
309.273
309.659
310.075
310.52
310.996
311.504
312.046
312.621
313.231
313.875
314.554
315.267
316.013
316.793
317.604
318.445
319.315
320.211
321.131
322.072
323.033
324.008
324.997
325.995
326.999
328.006
329.013
300.099
300.301
300.509
300.72
300.934
301.15
301.365
301.58
301.792
302
302.205
302.405
302.599
302.787
302.969
303.145
303.314
303.477
303.633
303.783
303.927
304.065
304.198
304.325
304.447
304.565
304.679
304.79
304.897
305.002
305.106
305.208
305.309
305.411
305.513
305.617
305.723
305.833
305.946
306.065
306.189
306.321
306.461
306.61
306.769
306.94
307.124
307.323
307.536
307.767
308.015
308.283
308.572
308.883
309.217
309.576
309.961
310.372
310.811
311.278
311.775
312.301
312.856
313.441
314.056
314.701
315.373
316.074
316.801
317.553
318.329
319.127
319.945
320.781
321.631
322.495
323.37
324.252
325.139
326.03
326.92
300.104
300.314
300.531
300.752
300.976
301.201
301.426
301.651
301.872
302.09
302.304
302.513
302.716
302.912
303.102
303.285
303.46
303.629
303.791
303.946
304.094
304.236
304.372
304.502
304.627
304.746
304.862
304.973
305.081
305.186
305.289
305.39
305.491
305.59
305.691
305.792
305.895
306.001
306.111
306.224
306.344
306.469
306.603
306.744
306.895
307.057
307.23
307.416
307.616
307.832
308.064
308.314
308.582
308.87
309.179
309.51
309.864
310.241
310.643
311.069
311.521
311.998
312.501
313.03
313.583
314.162
314.765
315.391
316.04
316.71
317.399
318.107
318.831
319.57
320.322
321.085
321.857
322.636
323.419
324.205
324.992
300.109
300.33
300.557
300.789
301.025
301.261
301.498
301.734
301.967
302.196
302.421
302.64
302.853
303.058
303.257
303.448
303.632
303.808
303.976
304.137
304.29
304.437
304.576
304.71
304.837
304.959
305.076
305.189
305.297
305.403
305.505
305.605
305.704
305.802
305.9
305.999
306.099
306.201
306.306
306.415
306.529
306.648
306.774
306.908
307.05
307.201
307.363
307.537
307.724
307.924
308.139
308.37
308.618
308.883
309.166
309.469
309.792
310.136
310.501
310.887
311.296
311.726
312.179
312.653
313.149
313.666
314.203
314.76
315.336
315.93
316.54
317.166
317.806
318.458
319.121
319.793
320.473
321.159
321.849
322.542
323.236
300.115
300.348
300.588
300.833
301.082
301.332
301.583
301.832
302.078
302.321
302.558
302.789
303.013
303.23
303.439
303.64
303.833
304.017
304.192
304.36
304.519
304.671
304.815
304.953
305.083
305.208
305.327
305.441
305.55
305.656
305.758
305.858
305.955
306.052
306.147
306.243
306.339
306.438
306.538
306.642
306.75
306.862
306.981
307.106
307.239
307.38
307.531
307.692
307.865
308.05
308.248
308.46
308.686
308.929
309.187
309.463
309.756
310.067
310.396
310.744
311.111
311.497
311.901
312.325
312.766
313.226
313.703
314.196
314.706
315.23
315.769
316.32
316.883
317.457
318.04
318.632
319.23
319.833
320.44
321.05
321.662
300.122
300.37
300.625
300.885
301.149
301.415
301.682
301.947
302.209
302.466
302.718
302.964
303.201
303.431
303.652
303.864
304.067
304.261
304.445
304.62
304.787
304.945
305.094
305.236
305.371
305.498
305.62
305.735
305.846
305.952
306.054
306.153
306.249
306.343
306.436
306.529
306.622
306.716
306.812
306.91
307.012
307.118
307.229
307.346
307.469
307.6
307.739
307.888
308.047
308.216
308.397
308.59
308.796
309.016
309.251
309.5
309.764
310.043
310.339
310.65
310.978
311.322
311.682
312.058
312.45
312.856
313.278
313.713
314.163
314.624
315.098
315.583
316.078
316.581
317.093
317.612
318.137
318.667
319.2
319.737
320.275
300.13
300.395
300.667
300.946
301.228
301.513
301.798
302.081
302.361
302.637
302.906
303.167
303.421
303.666
303.901
304.126
304.34
304.545
304.739
304.924
305.098
305.263
305.418
305.565
305.704
305.835
305.959
306.077
306.189
306.295
306.397
306.496
306.59
306.683
306.774
306.863
306.953
307.043
307.134
307.227
307.322
307.421
307.525
307.633
307.747
307.868
307.995
308.131
308.276
308.431
308.595
308.77
308.957
309.155
309.366
309.59
309.826
310.077
310.34
310.618
310.909
311.215
311.534
311.866
312.212
312.571
312.942
313.325
313.72
314.125
314.541
314.966
315.4
315.841
316.29
316.744
317.204
317.669
318.137
318.608
319.081
300.14
300.424
300.717
301.016
301.32
301.627
301.933
302.238
302.539
302.835
303.124
303.405
303.677
303.938
304.189
304.429
304.658
304.875
305.081
305.275
305.458
305.631
305.794
305.947
306.09
306.225
306.352
306.472
306.586
306.693
306.795
306.893
306.986
307.077
307.165
307.252
307.338
307.423
307.51
307.597
307.686
307.779
307.874
307.974
308.079
308.19
308.306
308.43
308.562
308.702
308.85
309.008
309.176
309.354
309.543
309.743
309.954
310.177
310.412
310.658
310.916
311.186
311.468
311.761
312.065
312.381
312.707
313.043
313.389
313.744
314.108
314.481
314.86
315.246
315.639
316.037
316.439
316.846
317.256
317.669
318.084
300.151
300.459
300.775
301.099
301.428
301.76
302.092
302.422
302.747
303.067
303.379
303.682
303.974
304.255
304.525
304.782
305.026
305.257
305.475
305.681
305.875
306.056
306.226
306.386
306.535
306.674
306.805
306.927
307.042
307.151
307.253
307.35
307.443
307.532
307.618
307.701
307.783
307.865
307.946
308.028
308.111
308.197
308.285
308.377
308.473
308.574
308.68
308.792
308.911
309.037
309.171
309.313
309.463
309.622
309.791
309.969
310.157
310.355
310.562
310.78
311.008
311.246
311.494
311.752
312.02
312.297
312.583
312.877
313.18
313.491
313.81
314.135
314.467
314.805
315.148
315.496
315.848
316.204
316.563
316.925
317.288
300.164
300.499
300.844
301.197
301.555
301.916
302.277
302.636
302.99
303.337
303.675
304.003
304.319
304.623
304.913
305.189
305.45
305.697
305.93
306.148
306.353
306.545
306.723
306.89
307.045
307.189
307.324
307.449
307.566
307.675
307.778
307.874
307.966
308.053
308.137
308.217
308.296
308.373
308.45
308.526
308.604
308.683
308.764
308.848
308.936
309.027
309.123
309.225
309.332
309.445
309.565
309.692
309.826
309.969
310.119
310.277
310.443
310.618
310.802
310.995
311.196
311.405
311.624
311.85
312.085
312.328
312.579
312.837
313.102
313.374
313.653
313.937
314.227
314.522
314.822
315.126
315.434
315.746
316.06
316.377
316.695
300.18
300.546
300.924
301.31
301.702
302.097
302.492
302.885
303.271
303.65
304.019
304.375
304.719
305.047
305.361
305.658
305.939
306.203
306.452
306.684
306.901
307.103
307.291
307.465
307.626
307.776
307.914
308.043
308.162
308.272
308.375
308.471
308.562
308.647
308.728
308.806
308.881
308.955
309.027
309.099
309.17
309.243
309.318
309.395
309.474
309.557
309.644
309.735
309.832
309.933
310.041
310.154
310.274
310.401
310.534
310.675
310.822
310.977
311.14
311.31
311.487
311.672
311.864
312.063
312.27
312.483
312.703
312.929
313.161
313.399
313.643
313.892
314.146
314.404
314.666
314.932
315.202
315.474
315.749
316.026
316.306
300.198
300.602
301.017
301.443
301.874
302.309
302.744
303.175
303.599
304.014
304.417
304.806
305.18
305.537
305.876
306.197
306.499
306.783
307.048
307.296
307.526
307.739
307.936
308.118
308.286
308.441
308.584
308.715
308.836
308.948
309.051
309.147
309.237
309.32
309.399
309.474
309.546
309.616
309.683
309.75
309.817
309.884
309.953
310.023
310.095
310.17
310.249
310.331
310.418
310.509
310.605
310.707
310.814
310.927
311.046
311.171
311.302
311.439
311.583
311.734
311.89
312.053
312.223
312.398
312.58
312.768
312.961
313.159
313.363
313.572
313.786
314.004
314.227
314.453
314.683
314.916
315.152
315.391
315.632
315.875
316.119
300.22
300.666
301.127
301.597
302.075
302.556
303.036
303.512
303.979
304.435
304.877
305.303
305.71
306.099
306.466
306.813
307.139
307.443
307.727
307.99
308.233
308.458
308.665
308.856
309.031
309.191
309.337
309.472
309.595
309.707
309.811
309.906
309.995
310.077
310.154
310.226
310.295
310.361
310.425
310.487
310.549
310.612
310.674
310.739
310.804
310.873
310.944
311.019
311.097
311.179
311.266
311.357
311.453
311.554
311.66
311.772
311.889
312.011
312.139
312.273
312.412
312.557
312.707
312.862
313.023
313.188
313.359
313.534
313.713
313.897
314.086
314.277
314.473
314.672
314.874
315.078
315.286
315.495
315.707
315.92
316.135
300.244
300.742
301.254
301.778
302.31
302.844
303.376
303.903
304.419
304.922
305.408
305.874
306.319
306.742
307.141
307.515
307.865
308.191
308.494
308.773
309.031
309.267
309.484
309.683
309.864
310.029
310.179
310.316
310.441
310.555
310.658
310.753
310.841
310.921
310.996
311.066
311.132
311.195
311.255
311.314
311.372
311.43
311.488
311.547
311.608
311.671
311.736
311.804
311.875
311.95
312.028
312.111
312.198
312.289
312.385
312.485
312.59
312.7
312.815
312.934
313.058
313.187
313.321
313.46
313.602
313.749
313.901
314.056
314.215
314.378
314.544
314.714
314.887
315.062
315.24
315.421
315.603
315.788
315.974
316.162
316.351
300.274
300.83
301.404
301.989
302.583
303.179
303.771
304.356
304.928
305.483
306.018
306.529
307.016
307.475
307.907
308.311
308.686
309.035
309.356
309.652
309.923
310.17
310.397
310.602
310.789
310.959
311.112
311.251
311.377
311.492
311.595
311.69
311.776
311.855
311.928
311.996
312.06
312.12
312.178
312.234
312.289
312.344
312.398
312.453
312.51
312.568
312.629
312.692
312.757
312.826
312.898
312.974
313.053
313.137
313.224
313.315
313.411
313.511
313.615
313.723
313.835
313.951
314.071
314.196
314.324
314.455
314.591
314.73
314.871
315.017
315.165
315.315
315.469
315.624
315.782
315.942
316.104
316.267
316.432
316.598
316.765
300.308
300.934
301.578
302.236
302.901
303.568
304.229
304.88
305.514
306.128
306.716
307.277
307.807
308.306
308.772
309.206
309.607
309.977
310.317
310.628
310.911
311.169
311.403
311.615
311.807
311.98
312.136
312.277
312.404
312.519
312.622
312.716
312.802
312.88
312.952
313.018
313.08
313.139
313.195
313.249
313.302
313.355
313.407
313.46
313.514
313.569
313.626
313.686
313.748
313.813
313.88
313.951
314.025
314.103
314.184
314.268
314.356
314.448
314.544
314.643
314.745
314.851
314.961
315.074
315.19
315.309
315.431
315.556
315.684
315.814
315.947
316.082
316.219
316.358
316.499
316.641
316.785
316.93
317.076
317.223
317.371
300.348
301.054
301.781
302.522
303.271
304.019
304.759
305.484
306.188
306.866
307.513
308.125
308.702
309.24
309.741
310.204
310.63
311.021
311.377
311.701
311.995
312.262
312.502
312.719
312.914
313.09
313.247
313.389
313.517
313.631
313.735
313.829
313.914
313.992
314.063
314.129
314.191
314.25
314.305
314.359
314.412
314.463
314.515
314.567
314.621
314.675
314.731
314.789
314.849
314.912
314.977
315.045
315.116
315.189
315.266
315.346
315.429
315.515
315.604
315.696
315.792
315.89
315.991
316.095
316.201
316.31
316.422
316.535
316.651
316.769
316.889
317.011
317.134
317.259
317.385
317.513
317.641
317.771
317.901
318.032
318.163
300.394
301.195
302.018
302.856
303.699
304.54
305.369
306.177
306.958
307.705
308.413
309.08
309.703
310.282
310.815
311.306
311.754
312.161
312.531
312.866
313.168
313.44
313.685
313.905
314.102
314.278
314.437
314.579
314.707
314.822
314.926
315.021
315.106
315.185
315.257
315.325
315.388
315.448
315.505
315.56
315.614
315.668
315.721
315.775
315.829
315.885
315.942
316
316.061
316.123
316.188
316.255
316.324
316.396
316.471
316.548
316.627
316.71
316.795
316.882
316.972
317.064
317.158
317.255
317.354
317.455
317.558
317.662
317.768
317.876
317.985
318.096
318.208
318.32
318.434
318.549
318.664
318.78
318.896
319.013
319.129
300.448
301.358
302.293
303.242
304.195
305.141
306.068
306.968
307.831
308.651
309.423
310.144
310.811
311.426
311.989
312.502
312.967
313.388
313.768
314.109
314.415
314.69
314.936
315.157
315.354
315.531
315.69
315.833
315.962
316.078
316.184
316.28
316.368
316.449
316.524
316.595
316.661
316.725
316.786
316.845
316.903
316.961
317.018
317.075
317.133
317.192
317.252
317.313
317.376
317.44
317.506
317.574
317.644
317.716
317.79
317.866
317.944
318.024
318.106
318.19
318.276
318.364
318.454
318.545
318.637
318.732
318.827
318.924
319.022
319.121
319.221
319.321
319.423
319.525
319.628
319.731
319.835
319.938
320.042
320.146
320.25
300.511
301.548
302.611
303.688
304.765
305.828
306.864
307.862
308.812
309.706
310.539
311.31
312.017
312.661
313.246
313.775
314.252
314.68
315.063
315.406
315.712
315.986
316.231
316.451
316.648
316.825
316.985
317.129
317.259
317.378
317.487
317.587
317.679
317.765
317.846
317.922
317.995
318.064
318.132
318.198
318.262
318.326
318.39
318.453
318.517
318.581
318.646
318.711
318.778
318.846
318.915
318.986
319.057
319.131
319.206
319.282
319.359
319.439
319.519
319.601
319.684
319.768
319.854
319.94
320.028
320.116
320.205
320.295
320.386
320.477
320.568
320.66
320.753
320.845
320.938
321.031
321.124
321.216
321.309
321.401
321.494
300.583
301.766
302.976
304.198
305.415
306.608
307.761
308.861
309.897
310.861
311.75
312.563
313.298
313.961
314.556
315.09
315.567
315.994
316.375
316.715
317.019
317.291
317.535
317.753
317.95
318.128
318.289
318.436
318.571
318.694
318.808
318.914
319.013
319.107
319.195
319.28
319.361
319.439
319.515
319.59
319.663
319.735
319.807
319.878
319.949
320.02
320.091
320.162
320.234
320.306
320.379
320.453
320.528
320.603
320.68
320.757
320.834
320.913
320.992
321.072
321.153
321.234
321.316
321.398
321.481
321.564
321.648
321.731
321.815
321.899
321.983
322.066
322.15
322.234
322.317
322.4
322.483
322.566
322.648
322.729
322.81
300.665
302.015
303.393
304.779
306.149
307.481
308.756
309.96
311.071
312.088
313.011
313.844
314.591
315.26
315.857
316.389
316.862
317.283
317.659
317.994
318.294
318.562
318.804
319.022
319.219
319.399
319.563
319.714
319.854
319.984
320.105
320.219
320.327
320.43
320.528
320.622
320.713
320.801
320.887
320.972
321.054
321.135
321.216
321.295
321.374
321.452
321.53
321.607
321.684
321.762
321.839
321.916
321.994
322.071
322.149
322.227
322.305
322.383
322.461
322.539
322.617
322.696
322.774
322.852
322.93
323.008
323.086
323.163
323.24
323.317
323.393
323.469
323.544
323.619
323.694
323.768
323.841
323.914
323.986
324.057
324.128
300.758
302.295
303.862
305.428
306.965
308.441
309.82
311.092
312.252
313.301
314.243
315.085
315.833
316.498
317.088
317.61
318.073
318.485
318.852
319.179
319.472
319.737
319.975
320.192
320.391
320.573
320.741
320.897
321.043
321.18
321.309
321.432
321.549
321.661
321.769
321.873
321.974
322.072
322.167
322.261
322.352
322.442
322.531
322.618
322.704
322.789
322.872
322.955
323.037
323.118
323.199
323.279
323.359
323.438
323.517
323.595
323.673
323.75
323.826
323.902
323.978
324.053
324.127
324.201
324.275
324.347
324.419
324.49
324.561
324.631
324.7
324.768
324.836
324.903
324.969
325.034
325.098
325.162
325.224
325.286
325.347
300.856
302.595
304.366
306.128
307.81
309.386
310.837
312.158
313.347
314.409
315.352
316.187
316.924
317.574
318.148
318.654
319.102
319.5
319.854
320.171
320.457
320.715
320.951
321.166
321.364
321.547
321.718
321.879
322.029
322.172
322.308
322.438
322.563
322.682
322.798
322.91
323.019
323.125
323.228
323.329
323.428
323.524
323.619
323.712
323.803
323.893
323.981
324.068
324.153
324.238
324.321
324.403
324.484
324.564
324.642
324.72
324.797
324.873
324.948
325.022
325.094
325.166
325.237
325.307
325.376
325.444
325.511
325.576
325.641
325.705
325.768
325.83
325.89
325.95
326.009
326.067
326.124
326.179
326.234
326.288
326.341
300.942
302.865
304.829
306.721
308.5
310.14
311.63
312.968
314.16
315.214
316.143
316.959
317.676
318.305
318.858
319.346
319.777
320.16
320.502
320.809
321.087
321.339
321.569
321.781
321.978
322.161
322.333
322.494
322.647
322.793
322.932
323.066
323.194
323.318
323.438
323.554
323.667
323.777
323.885
323.99
324.092
324.192
324.29
324.386
324.481
324.573
324.664
324.753
324.84
324.926
325.01
325.093
325.175
325.255
325.333
325.411
325.487
325.562
325.635
325.707
325.778
325.848
325.917
325.984
326.05
326.114
326.178
326.24
326.301
326.361
326.42
326.478
326.534
326.59
326.644
326.697
326.749
326.8
326.85
326.899
326.947
383.533
391.494
398.184
404.011
409.176
413.79
417.914
421.585
424.817
427.612
429.961
431.841
433.22
434.049
434.264
433.775
432.453
430.103
426.394
420.668
411.279
404.911
400.025
396.02
392.607
389.624
386.97
384.576
382.394
380.386
378.525
376.789
375.16
373.624
372.169
370.783
369.46
368.191
366.971
365.793
364.653
363.546
362.469
361.419
360.392
359.387
358.4
357.429
356.473
355.53
354.599
353.678
352.767
351.863
350.966
350.076
349.192
348.313
347.439
346.569
345.704
344.842
343.985
343.131
342.281
341.436
340.594
339.756
338.923
338.094
337.271
336.452
335.638
334.831
334.029
333.234
332.446
331.665
330.892
330.128
329.372
328.626
327.891
327.165
326.451
325.749
325.058
324.381
323.717
323.066
322.429
321.807
321.2
320.608
320.032
319.471
318.926
318.397
317.885
317.389
316.908
316.445
315.997
315.566
315.15
314.75
314.366
313.997
313.643
313.303
312.978
312.667
312.37
312.086
311.815
311.556
311.309
311.073
310.849
310.636
310.432
310.238
310.054
309.878
309.71
309.551
309.399
309.253
309.115
308.982
308.855
308.734
308.617
308.505
308.397
308.293
308.192
308.095
308
307.908
307.818
307.73
307.644
307.559
307.475
307.393
307.311
307.23
307.149
307.069
306.988
306.907
306.826
306.745
306.663
306.581
306.498
306.414
306.329
306.244
306.159
378.783
385.704
391.927
397.511
402.535
407.062
411.131
414.767
417.978
420.764
423.113
425.002
426.399
427.257
427.517
427.095
425.88
423.717
420.389
415.628
409.389
403.99
399.481
395.656
392.345
389.426
386.815
384.452
382.292
380.301
378.454
376.729
375.109
373.58
372.13
370.75
369.431
368.166
366.948
365.773
364.635
363.53
362.455
361.407
360.381
359.377
358.391
357.421
356.466
355.524
354.593
353.673
352.762
351.858
350.962
350.072
349.188
348.31
347.436
346.566
345.701
344.84
343.982
343.129
342.279
341.433
340.592
339.754
338.921
338.092
337.268
336.449
335.636
334.828
334.027
333.232
332.443
331.663
330.89
330.125
329.37
328.624
327.888
327.163
326.449
325.746
325.056
324.379
323.714
323.064
322.427
321.805
321.198
320.606
320.03
319.469
318.924
318.395
317.883
317.387
316.907
316.443
315.995
315.564
315.148
314.749
314.364
313.995
313.641
313.302
312.977
312.666
312.369
312.085
311.814
311.555
311.308
311.073
310.849
310.635
310.432
310.238
310.053
309.878
309.71
309.551
309.398
309.253
309.115
308.982
308.855
308.734
308.617
308.505
308.397
308.293
308.192
308.095
308
307.908
307.818
307.73
307.644
307.559
307.476
307.393
307.312
307.23
307.15
307.069
306.989
306.908
306.827
306.746
306.664
306.581
306.498
306.414
306.33
306.244
306.159
374.678
380.603
386.196
391.378
396.14
400.489
404.437
407.99
411.149
413.905
416.244
418.143
419.569
420.482
420.826
420.534
419.52
417.682
414.917
411.177
406.68
402.317
398.378
394.882
391.773
388.987
386.468
384.172
382.062
380.111
378.294
376.593
374.993
373.48
372.044
370.676
369.366
368.109
366.899
365.73
364.597
363.497
362.426
361.38
360.358
359.356
358.372
357.404
356.451
355.511
354.581
353.662
352.752
351.849
350.954
350.065
349.181
348.303
347.43
346.561
345.696
344.834
343.977
343.124
342.275
341.429
340.587
339.75
338.917
338.088
337.264
336.445
335.632