/*--------------------------------*- C++ -*----------------------------------*\
  =========                 |
  \\      /  F ield         | OpenFOAM: The Open Source CFD Toolbox
   \\    /   O peration     | Website:  https://openfoam.org
    \\  /    A nd           | Version:  7
     \\/     M anipulation  |
\*---------------------------------------------------------------------------*/
FoamFile
{
    version     2.0;
    format      ascii;
    class       volScalarField;
    location    "0.5";
    object      p;
}
// * * * * * * * * * * * * * * * * * * * * * * * * * * * * * * * * * * * * * //

dimensions      [0 2 -2 0 0 0 0];

internalField   nonuniform List<scalar> 
2790
(
89.533
89.4413
89.7106
90.2847
91.0687
92.0309
93.1689
94.4821
95.9661
97.6153
99.4239
101.385
103.49
105.727
108.081
110.532
113.053
115.612
118.168
120.672
123.069
125.296
127.291
128.996
130.366
131.38
132.055
132.448
132.66
132.822
89.33
89.3486
89.6429
90.2141
90.9943
91.9533
93.0869
94.394
95.8707
97.5116
99.3109
101.262
103.356
105.582
107.925
110.366
112.879
115.433
117.987
120.495
122.902
125.147
127.166
128.902
130.307
131.358
132.068
132.506
132.789
132.993
89.1307
89.2193
89.5327
90.0936
90.8608
91.807
92.9257
94.2147
95.6701
97.2866
99.0582
100.978
103.038
105.226
107.529
109.928
112.399
114.912
117.431
119.911
122.303
124.55
126.596
128.386
129.879
131.055
131.926
132.549
132.997
133.339
88.905
89.0244
89.3503
89.9026
90.6551
91.585
92.684
93.949
95.3758
96.959
98.6925
100.569
102.58
104.715
106.96
109.296
111.702
114.15
116.608
119.036
121.391
123.625
125.69
127.541
129.144
130.484
131.567
132.422
133.074
133.577
88.6432
88.7766
89.1109
89.6557
90.3917
91.3005
92.3739
93.6077
94.9976
96.5379
98.2223
100.043
101.993
104.059
106.228
108.485
110.807
113.171
115.547
117.903
120.202
122.405
124.475
126.377
128.086
129.585
130.872
131.95
132.795
133.46
88.341
88.4801
88.8167
89.3515
90.0676
90.9504
91.9922
93.1883
94.5337
96.0227
97.6486
99.4036
101.279
103.263
105.344
107.505
109.727
111.988
114.264
116.527
118.747
120.896
122.945
124.87
126.652
128.275
129.727
130.988
131.994
132.802
87.9969
88.1369
88.4704
88.9921
89.6853
90.538
91.5431
92.6953
93.9893
95.4189
96.9771
98.6559
100.446
102.337
104.315
106.365
108.471
110.612
112.767
114.913
117.029
119.092
121.083
122.987
124.79
126.48
128.037
129.428
130.551
131.48
87.6104
87.7484
88.0747
88.58
89.2472
90.0658
91.0291
92.1318
93.3677
94.7304
96.2124
97.8055
99.5
101.285
103.147
105.073
107.046
109.047
111.059
113.064
115.042
116.98
118.865
120.689
122.447
124.129
125.717
127.172
128.365
129.397
87.1821
87.3162
87.6319
88.1176
88.7559
89.5366
90.4537
91.5013
92.673
93.9618
95.3598
96.8582
98.447
100.115
101.849
103.635
105.458
107.3
109.145
110.977
112.782
114.547
116.267
117.94
119.565
121.144
122.664
124.1
125.305
126.423
86.7132
86.8421
87.1444
87.6077
88.214
88.9534
89.8201
90.8079
91.9098
93.1184
94.4251
95.8207
97.2945
98.8349
100.429
102.061
103.716
105.378
107.03
108.657
110.245
111.784
113.268
114.7
116.085
117.435
118.754
120.046
121.175
122.357
86.2054
86.3278
86.6148
87.0531
87.6246
88.3197
89.1322
90.0558
91.083
92.2057
93.4147
94.7001
96.0506
97.4537
98.8954
100.36
101.832
103.293
104.725
106.112
107.437
108.689
109.858
110.943
111.952
112.903
113.825
114.772
115.66
116.853
85.6604
85.7757
86.0455
86.4566
86.991
87.6388
88.394
89.2496
90.1978
91.2296
92.3354
93.5042
94.724
95.9813
97.2608
98.5458
99.8182
101.058
102.245
103.358
104.375
105.275
106.041
106.659
107.126
107.455
107.687
107.941
108.245
109.287
85.0805
85.188
85.4393
85.8213
86.3164
86.9147
87.6097
88.3942
89.2596
90.1965
91.1943
92.2413
93.3243
94.4285
95.5372
96.6317
97.6914
98.6933
99.6119
100.419
101.085
101.574
101.851
101.876
101.611
101.031
100.146
99.1006
98.0691
98.4262
84.468
84.5671
84.7989
85.1503
85.6043
86.1511
86.7837
87.4944
88.2743
89.113
89.9992
90.9202
91.8616
92.8071
93.7383
94.6342
95.4708
96.221
96.8533
97.3311
97.6107
97.6396
97.3528
96.6683
95.4835
93.6747
91.1049
87.7499
83.7022
81.4723
83.8254
83.9159
84.1271
84.4467
84.8583
85.3519
85.9203
86.5554
87.2474
87.9856
88.7576
89.5496
90.3462
91.1293
91.8785
92.5703
93.1772
93.6672
94.0019
94.1348
94.0078
93.546
92.6498
91.1812
88.9416
85.6346
80.7911
73.7222
63.1223
50.536
-39.3804
-40.3836
-42.2644
-45.1409
-49.0277
-53.8959
-59.6788
-66.2748
-73.5473
-81.3231
-89.3889
-97.4891
-105.324
-112.551
-118.797
-123.669
-126.782
-127.767
-126.289
-122.158
-115.222
-105.556
-93.3713
-78.9901
-62.7733
-45.0898
-26.6473
-9.27159
4.27358
12.8602
-39.3294
-40.4616
-42.4149
-45.3593
-49.3102
-54.2412
-60.0869
-66.7462
-74.0834
-81.9259
-90.061
-98.2324
-106.139
-113.436
-119.746
-124.675
-127.832
-128.856
-127.441
-123.313
-116.401
-106.786
-94.685
-80.4266
-64.4011
-47.0683
-29.2562
-12.653
0.636396
8.66604
-40.248
-41.576
-43.6671
-46.7262
-50.7592
-55.7467
-61.6302
-68.3158
-75.6742
-83.5386
-91.7009
-99.9076
-107.858
-115.205
-121.566
-126.54
-129.73
-130.77
-129.341
-125.204
-118.28
-108.678
-96.626
-82.4596
-66.6003
-49.6007
-32.3799
-16.457
-3.44122
4.75411
-42.2126
-43.6478
-45.8134
-48.9483
-53.0335
-58.0528
-63.9534
-70.6491
-78.0187
-85.902
-94.0963
-102.351
-110.364
-117.786
-124.226
-129.272
-132.518
-133.587
-132.153
-127.991
-121.047
-111.454
-99.4528
-85.3841
-69.6925
-52.9896
-36.2117
-20.6843
-7.6617
1.44332
-45.007
-46.4476
-48.6136
-51.7742
-55.8768
-60.9042
-66.8055
-73.5004
-80.8746
-88.775
-97.0038
-105.313
-113.401
-120.912
-127.446
-132.578
-135.889
-136.985
-135.535
-131.335
-124.357
-114.764
-102.811
-88.8363
-73.2964
-56.8259
-40.3287
-24.9395
-11.6334
-1.19329
-48.3165
-49.7052
-51.8294
-54.9778
-59.0682
-64.0845
-69.9761
-76.6673
-84.0499
-91.977
-100.256
-108.64
-116.826
-124.453
-131.109
-136.351
-139.738
-140.856
-139.373
-135.107
-128.072
-118.464
-106.543
-92.6437
-77.2128
-60.8759
-44.479
-28.9884
-15.1599
-3.26097
-51.8086
-53.1204
-55.1876
-58.3038
-62.3655
-67.362
-73.2426
-79.9351
-87.3362
-95.3038
-103.649
-112.126
-120.43
-128.194
-134.992
-140.361
-143.831
-144.964
-143.431
-139.074
-131.965
-122.329
-110.432
-96.5897
-81.2232
-64.9224
-48.4666
-32.6823
-18.1627
-4.86177
-55.1622
-56.3919
-58.4054
-61.4877
-65.5212
-70.503
-76.3819
-83.0888
-90.5236
-98.5479
-106.975
-115.563
-124.002
-131.919
-138.878
-144.392
-147.952
-149.089
-147.487
-143.017
-135.817
-126.146
-114.267
-100.468
-85.1275
-68.7812
-52.1465
-35.9399
-20.6427
-6.0823
-58.0889
-59.247
-61.2235
-64.2853
-68.3058
-73.2907
-79.1869
-85.9269
-93.4132
-101.51
-110.033
-118.742
-127.326
-135.408
-142.538
-148.208
-151.862
-152.994
-151.312
-146.713
-139.416
-129.71
-117.849
-104.086
-88.7481
-72.3046
-55.4177
-38.7351
-22.6488
-7.00596
-60.3533
-61.4609
-63.4258
-66.4914
-70.5253
-75.5404
-81.4788
-88.2736
-95.828
-104.008
-112.632
-121.464
-130.193
-138.436
-145.738
-151.568
-155.322
-156.446
-154.686
-149.954
-142.563
-132.833
-120.994
-107.272
-91.9376
-75.3932
-58.2289
-41.0809
-24.246
-7.69936
-61.7893
-62.8701
-64.8526
-67.9534
-72.0344
-77.1125
-83.1209
-89.991
-97.6255
-105.892
-114.61
-123.551
-132.408
-140.797
-148.256
-154.239
-158.095
-159.219
-157.393
-152.54
-145.081
-135.358
-123.57
-109.91
-94.5949
-77.99
-60.5784
-42.9746
-25.4762
-8.19695
-62.3145
-63.3832
-65.4229
-68.5922
-72.7609
-77.9368
-84.0398
-90.9957
-98.7064
-107.043
-115.838
-124.859
-133.805
-142.295
-149.868
-155.969
-159.916
-161.062
-159.206
-154.289
-146.818
-137.167
-125.508
-111.961
-96.6889
-80.0248
-62.4037
-44.4008
-26.3449
-8.55456
-61.894
-62.9942
-65.1165
-68.3876
-72.6928
-78.0085
-84.2341
-91.2874
-99.0715
-107.464
-116.3
-125.348
-134.321
-142.847
-150.466
-156.627
-160.644
-161.838
-160.005
-155.12
-147.725
-138.207
-126.73
-113.329
-98.1269
-81.4118
-63.6208
-45.3335
-26.8868
-8.81195
-60.5611
-61.7745
-63.9817
-67.387
-71.8916
-77.3935
-83.7649
-90.9188
-98.7611
-107.174
-115.999
-125.014
-133.942
-142.423
-150.009
-156.155
-160.178
-161.41
-159.632
-154.881
-147.675
-138.378
-127.116
-113.897
-98.803
-82.0996
-64.2328
-45.7928
-27.1334
-8.99332
-58.3697
-59.9405
-62.1021
-65.6952
-70.4996
-76.2377
-82.7661
-90.0094
-97.8815
-106.271
-115.027
-123.94
-132.742
-141.086
-148.535
-154.552
-158.482
-159.699
-158.029
-153.525
-146.63
-137.651
-126.669
-113.671
-98.7258
-82.101
-64.2589
-45.8047
-27.1132
-9.11196
83.1425
83.2239
83.4136
83.6999
84.0672
84.5056
85.0075
85.5641
86.1654
86.7997
87.4538
88.1131
88.7604
89.3764
89.9385
90.4204
90.791
91.0133
91.042
90.8205
90.276
89.3118
87.7932
85.5244
82.2034
77.3299
69.9734
58.1842
35.8285
-25.1911
82.4114
82.4832
82.6502
82.9016
83.2226
83.6034
84.036
84.5112
85.0183
85.5451
86.0775
86.5997
87.0935
87.5379
87.9081
88.1753
88.305
88.2556
87.9755
87.3996
86.4432
84.9923
82.8878
79.8973
75.6631
69.6011
60.6811
47.1751
27.8195
-0.051637
81.6377
81.6995
81.843
82.0582
82.3314
82.6528
83.0141
83.4058
83.8166
84.2335
84.6419
85.0249
85.3632
85.6342
85.8115
85.864
85.7543
85.4372
84.8566
83.9418
82.6013
80.714
78.1152
74.5759
69.7728
63.2585
54.4639
42.7994
28.962
13.2557
80.8228
80.8743
80.9937
81.1718
81.396
81.6568
81.9455
82.2523
82.5654
82.8714
83.1549
83.3983
83.5811
83.6797
83.6664
83.5083
83.1662
82.5927
81.7296
80.5042
78.8248
76.5737
73.599
69.7054
64.6482
58.1428
49.9099
39.6458
27.3318
12.538
79.9684
80.0094
80.1042
80.2445
80.419
80.6185
80.834
81.0553
81.2705
81.4655
81.6247
81.7296
81.7593
81.6892
81.4908
81.1304
80.5681
79.7559
78.6361
77.1378
75.1744
72.6392
69.4019
65.3065
60.1724
53.8017
45.9959
36.5109
25.1685
12.1329
79.0768
79.1073
79.1772
79.2795
79.404
79.5418
79.684
79.8201
79.9379
80.0232
80.0599
80.0294
79.9102
79.6775
79.3026
78.7519
77.9858
76.9576
75.6121
73.8835
71.6935
68.95
65.5458
61.3592
56.257
50.0995
42.7567
34.1158
24.1489
13.2343
78.1508
78.1707
78.2157
78.2799
78.3546
78.4311
78.5007
78.5526
78.5746
78.5525
78.4701
78.3086
78.0468
77.66
77.1198
76.3936
75.4434
74.2252
72.688
70.7727
68.4118
65.5285
62.0377
57.8483
52.8672
47.0069
40.2018
32.4236
23.6934
14.3126
77.1936
77.2029
77.2233
77.2497
77.2751
77.2913
77.2894
77.259
77.1878
77.0618
76.8648
76.5786
76.1821
75.6515
74.9595
74.075
72.9625
71.5819
69.8876
67.8285
65.3481
62.3847
58.8739
54.7505
49.954
44.4349
38.165
31.147
23.4061
15.1855
76.2087
76.2077
76.2038
76.1932
76.1702
76.1275
76.0562
75.9461
75.7852
75.5597
75.2541
74.8506
74.329
73.6665
72.8375
71.8133
70.5616
69.0467
67.2291
65.066
62.5116
59.5186
56.0397
52.0309
47.4551
42.2872
36.5198
30.1694
23.2679
16.0221
75.2005
75.1893
75.1618
75.1151
75.0453
74.9455
74.8074
74.6209
74.3746
74.0552
73.6479
73.1356
72.4994
71.7181
70.7682
69.6236
68.2557
66.6338
64.7245
62.4932
59.904
56.9218
53.5138
49.6516
45.3149
40.4945
35.1959
29.4434
23.272
16.8533
74.1733
74.1524
74.102
74.0207
73.9057
73.7514
73.5496
73.2908
72.9641
72.5571
72.0557
71.4441
70.7048
69.8185
68.7639
67.5182
66.0567
64.3533
62.3812
60.1127
57.5211
54.5814
51.272
47.5765
43.4863
39.0024
34.1377
28.9193
23.3813
17.6637
73.1323
73.1021
73.0298
72.9153
72.7575
72.5515
72.2897
71.9631
71.5617
71.074
70.4869
69.786
68.9555
67.9781
66.8352
65.5071
63.973
62.2118
60.2019
57.9227
55.3548
52.4814
49.2896
45.7718
41.9272
37.7631
33.296
28.5531
23.5657
18.4482
72.0829
72.0438
71.9508
71.805
71.6069
71.3524
71.0346
70.6454
70.1755
69.6144
68.9503
68.1705
67.2608
66.2061
64.9907
63.5978
62.0106
60.2122
58.1864
55.9181
53.394
50.6041
47.5418
44.2058
40.6002
36.736
32.6312
28.3113
23.8049
19.2054
71.0308
70.9834
70.8711
70.696
70.4603
70.1609
69.7916
69.3451
68.813
68.1862
67.4542
66.6057
65.6286
64.5101
63.2369
61.7955
60.1726
58.3552
56.3315
54.0912
51.6262
48.9313
46.0048
42.8495
39.4727
35.8872
32.1111
28.1678
24.0828
19.9326
69.9822
69.9271
69.7968
69.5947
69.3244
68.9839
68.5677
68.0695
67.4819
66.7971
66.006
65.0991
64.066
62.8962
61.5789
60.1036
58.4601
56.6389
54.6321
52.4331
50.0379
47.445
44.6562
41.6769
38.5163
35.1879
31.709
28.1008
24.3859
20.627
68.9436
68.8814
68.7347
68.5079
68.2061
67.8283
67.37
66.8257
66.1894
65.4542
64.6127
63.657
62.5786
61.3691
60.0202
58.5238
56.8725
55.0602
53.0817
50.9339
48.6155
46.128
43.4754
40.6648
37.7065
34.6137
31.4028
28.0927
24.7033
21.2861
67.9217
67.853
67.6915
67.4423
67.1122
66.7011
66.2056
65.6209
64.9422
64.1641
63.2805
62.2851
61.1713
59.9326
58.5628
57.0563
55.4081
53.6146
51.6731
49.5831
47.3455
44.9638
42.4434
39.7926
37.0219
34.144
31.174
28.1288
25.0258
21.9073
66.9235
66.8491
66.6742
66.4051
66.0498
65.6094
65.0812
64.4617
63.747
62.9329
62.015
60.9882
59.8478
58.5892
57.2079
55.7005
54.0641
52.2969
50.3987
48.3705
46.2151
43.9373
41.5435
39.0423
36.4442
33.7612
31.0071
28.1969
25.3458
22.4889
65.9562
65.8767
65.69
65.4033
65.026
64.5601
64.0038
63.3546
62.6098
61.7664
60.8211
59.7706
58.6115
57.3408
55.9559
54.455
52.8369
51.1017
49.2506
47.2862
45.2123
43.0347
40.7604
38.398
35.9576
33.4505
30.8893
28.2871
25.6575
23.0291
65.0272
64.9432
64.7462
64.4443
64.0478
63.5601
62.98
62.3061
61.5366
60.6697
59.7035
58.6358
57.4647
56.1886
54.8065
53.3178
51.723
50.0234
48.2215
46.3208
44.3262
42.2437
40.0808
37.8459
35.5487
33.1995
30.8098
28.3912
25.9557
23.527
64.1442
64.0562
63.8503
63.5352
63.1225
62.6162
62.0163
61.3221
60.5329
59.6479
58.6662
57.587
56.4096
55.1335
53.759
52.2868
50.7185
49.0565
47.3041
45.4657
43.5467
41.5534
39.4932
37.3744
35.206
32.9977
30.7597
28.5026
26.2367
23.9817
63.3148
63.2234
63.0098
62.6835
62.257
61.7353
61.1192
60.4087
59.6041
58.7056
57.7132
56.6273
55.448
54.1761
52.8129
51.36
49.82
48.196
46.4922
44.7133
42.8651
40.9541
38.9876
36.9734
34.9201
32.8365
30.732
28.6159
26.4975
24.3932
62.547
62.4528
62.2325
61.8966
61.4586
60.9242
60.295
59.5718
58.7555
57.8473
56.8482
55.7592
54.5816
53.3169
51.9673
50.5352
49.024
47.4373
45.7798
44.0567
42.2738
40.4376
38.5552
36.6343
34.6826
32.7085
30.7204
28.7267
26.7356
24.7608
61.8491
61.7523
61.5262
61.1821
60.7344
60.1897
59.5502
58.8172
57.9925
57.0778
56.075
54.9859
53.8124
52.557
51.2222
49.8114
48.3283
46.7772
45.1628
43.4908
41.7669
39.9976
38.1899
36.3508
34.4879
32.6087
30.721
28.8323
26.9501
25.0859
61.2296
61.1303
60.8989
60.5475
60.0916
59.5386
58.891
58.1506
57.3198
56.4011
55.3969
54.3096
53.1417
51.8964
50.5767
49.1865
47.7298
46.2113
44.6361
43.0097
41.338
39.6273
37.8844
36.116
34.3292
32.5309
30.7284
28.9285
27.138
25.3665
60.6975
60.5956
60.3587
60.0004
59.5378
58.9783
58.3246
57.579
56.7444
55.8236
54.8196
53.7354
52.5741
51.339
50.0338
48.6626
47.2299
45.7404
44.1995
42.6126
40.9858
39.3252
37.6372
35.9284
34.2053
32.4747
30.7431
29.0168
27.3022
25.6074
60.2628
60.1574
59.9133
59.5476
59.0786
58.5135
57.855
57.1054
56.2681
55.3464
54.3436
53.2631
52.1081
50.8826
49.5904
48.236
46.8238
45.3591
43.8469
42.2931
40.7033
39.0837
37.4404
35.7798
34.1082
32.4319
30.7569
29.0893
27.4347
25.8002
59.937
59.8257
59.5729
59.2007
58.7272
58.1583
57.4961
56.7437
55.9047
54.9828
53.9815
52.9044
51.7551
50.5376
49.2562
47.9154
46.5199
45.0749
43.5856
42.0577
40.4969
38.9092
37.3007
35.6774
34.0454
32.4107
30.7792
29.1565
27.5481
25.9603
59.735
59.6002
59.3302
58.9525
58.477
57.9058
57.2415
56.4878
55.6486
54.7274
53.7279
52.6539
51.5093
50.2981
49.0247
47.6938
46.3102
44.879
43.4056
41.8955
40.3546
38.7886
37.2036
35.6054
33.9999
32.393
30.7903
29.1973
27.6191
26.0612
59.7168
59.5178
59.2198
58.8357
58.3575
57.7832
57.1163
56.361
55.5211
54.6003
53.6021
52.5303
51.3888
50.1819
48.9138
47.5893
46.2132
44.7907
43.3271
41.8278
40.2987
38.7455
37.1741
35.5902
33.9997
32.4083
30.8215
29.2445
27.6825
26.1402
-112.304
-92.478
-70.9592
-19.0291
-24.3078
-32.1356
-2.76748
-13.562
-23.1241
-3.31258
-13.433
-21.1407
-0.462169
-8.79266
-15.6271
2.92541
-4.21906
-10.4022
5.39693
-0.857169
-6.31777
7.39251
1.92623
-2.83852
9.19086
4.39781
0.233941
10.8278
6.59894
2.94195
12.3178
8.56727
5.33923
13.6834
10.3425
7.47897
14.9411
11.9533
9.40108
16.1018
13.42
11.1352
17.1734
14.7579
12.7041
18.1616
15.9787
14.125
19.0706
17.0912
15.4113
19.9039
18.1024
16.5735
20.6641
19.0182
17.6205
21.354
19.8438
18.5599
21.9756
20.5833
19.3979
22.5316
21.2414
20.1407
23.0233
21.8208
20.7928
23.4543
22.3265
21.36
23.8233
22.7581
21.8432
24.1378
23.1241
22.2511
24.3879
23.4152
22.5762
24.5933
23.6515
22.8369
24.723
23.8028
23.0062
24.8258
23.9227
23.1354
-55.4881
-58.0347
-59.6821
-63.5599
-68.7615
-74.7475
-81.4112
-88.7071
-96.5589
-104.863
-113.48
-122.211
-130.798
-138.906
-146.113
-151.9
-155.663
-156.813
-155.318
-151.149
-144.657
-136.063
-125.403
-112.654
-97.8969
-81.4206
-63.7108
-45.3876
-26.8486
-9.17773
-43.4124
-51.024
-55.8396
-61.2053
-67.013
-73.2103
-79.9233
-87.1787
-94.9191
-103.049
-111.435
-119.889
-128.164
-135.936
-142.806
-148.288
-151.847
-152.974
-151.661
-147.867
-141.814
-133.624
-123.292
-110.802
-96.2692
-80.0185
-62.5626
-44.5312
-26.339
-9.1937
-36.5046
-46.9722
-53.1619
-59.0602
-65.2891
-71.7502
-78.5035
-85.6356
-93.1554
-101
-109.049
-117.127
-124.994
-132.345
-138.806
-143.94
-147.285
-148.425
-147.294
-143.859
-138.21
-130.38
-120.34
-108.1
-93.8273
-77.89
-60.8222
-43.252
-25.6003
-9.16115
-31.7683
-42.7364
-50.5048
-57.2342
-63.7648
-70.3147
-77.0459
-84.0492
-91.3301
-98.8395
-106.481
-114.101
-121.482
-128.342
-134.342
-139.099
-142.228
-143.38
-142.42
-139.263
-133.909
-126.337
-116.52
-104.518
-90.5555
-75.0386
-58.5083
-41.5747
-24.6514
-9.07989
-25.3161
-36.2829
-45.5546
-53.7002
-61.144
-68.1824
-75.0916
-82.0642
-89.173
-96.3998
-103.665
-110.835
-117.719
-124.07
-129.593
-133.96
-136.864
-137.989
-137.109
-134.075
-128.852
-121.411
-111.759
-100.014
-86.4488
-71.4888
-55.6607
-39.5386
-23.5174
-8.94712
-18.9966
-29.2616
-39.1695
-48.3221
-56.6685
-64.4137
-71.7962
-78.9992
-86.1271
-93.2085
-100.204
-107.012
-113.472
-119.371
-124.454
-128.446
-131.098
-132.083
-131.104
-128.015
-122.79
-115.419
-105.953
-94.5592
-81.5354
-67.3001
-52.347
-37.2008
-22.23
-8.75702
-13.647
-22.79
-32.5185
-41.9632
-50.7449
-58.9576
-66.7647
-74.2781
-81.5641
-88.6487
-95.5105
-102.074
-108.211
-113.74
-118.442
-122.074
-124.398
-125.091
-123.87
-120.66
-115.44
-108.219
-99.0776
-88.2091
-75.9141
-62.585
-48.6694
-34.6366
-20.8266
-8.50187
-9.06925
-17.0571
-26.1338
-35.3095
-44.0417
-52.3355
-60.289
-67.9475
-75.3237
-82.4127
-89.1824
-95.5628
-101.44
-106.655
-111.014
-114.286
-116.218
-116.548
-115.109
-111.871
-106.801
-99.9092
-91.2952
-81.1562
-69.7771
-57.5129
-44.761
-31.9354
-19.3484
-8.17507
-5.11479
-12.0634
-20.2832
-28.8446
-37.1636
-45.1895
-52.9742
-60.5172
-67.7878
-74.748
-81.3457
-87.503
-93.1084
-98.0151
-102.041
-104.968
-106.54
-106.595
-105.084
-101.98
-97.2346
-90.8582
-82.9547
-73.7111
-63.3847
-52.2884
-40.7694
-29.1903
-17.8371
-7.77532
-1.69837
-7.75409
-15.0803
-22.8675
-30.5566
-38.0708
-45.4352
-52.6237
-59.579
-66.2388
-72.5337
-78.3761
-83.6538
-88.2268
-91.9267
-94.556
-95.8862
-95.8331
-94.4045
-91.5707
-87.2816
-81.5502
-74.4728
-66.2164
-57.0056
-47.1108
-36.8322
-26.4851
-16.3302
-7.30945
1.27682
-4.02531
-10.513
-17.4975
-24.4707
-31.3481
-38.1414
-44.8147
-51.2991
-57.5197
-63.3969
-68.8388
-73.7347
-77.9539
-81.3456
-83.7403
-84.9539
-84.9357
-83.699
-81.2198
-77.4592
-72.431
-66.2188
-58.9655
-50.8627
-42.1408
-33.0572
-23.8847
-14.8587
-6.79251
3.8958
-0.772533
-6.51321
-12.7399
-18.9996
-25.2093
-31.3752
-37.4601
-43.3936
-49.0979
-54.4917
-59.4842
-63.9714
-67.8351
-70.9448
-73.1611
-74.343
-74.4403
-73.4534
-71.3647
-68.1496
-63.8224
-58.4529
-52.1605
-45.1061
-37.4844
-29.5147
-21.4318
-13.4456
-6.24481
6.22076
2.08733
-3.00297
-8.54686
-14.1425
-19.7121
-25.2595
-30.7505
-36.1186
-41.2893
-46.1848
-50.7207
-54.8026
-58.327
-61.1833
-63.2588
-64.4463
-64.6892
-63.9672
-62.2663
-59.5739
-55.9051
-51.3174
-45.9091
-39.8141
-33.1959
-26.2406
-19.149
-12.1067
-5.68763
8.29689
4.61725
0.08835
-4.85429
-9.85393
-14.8388
-19.8124
-24.7444
-29.5749
-34.2354
-38.6549
-42.7573
-46.4595
-49.6724
-52.3032
-54.2604
-55.4608
-55.8444
-55.3737
-54.0333
-51.8189
-48.746
-44.8615
-40.2458
-35.0098
-29.2904
-23.2448
-17.0443
-10.8513
-5.1395
10.1579
6.86497
2.81956
-1.59908
-6.07357
-10.5383
-14.9967
-19.4232
-23.7645
-27.9594
-31.9445
-35.6528
-39.0121
-41.9462
-44.3773
-46.2301
-47.4372
-47.9399
-47.6916
-46.6733
-44.8838
-42.3381
-39.0745
-35.1584
-30.6817
-25.7586
-20.5216
-15.1164
-9.68444
-4.61418
11.8294
8.86702
5.23793
1.27388
-2.74221
-6.75056
-10.7549
-14.7336
-18.6405
-22.4213
-26.0204
-29.379
-32.435
-35.1231
-37.3778
-39.1357
-40.3405
-40.9375
-40.8786
-40.1408
-38.7226
-36.6373
-33.9161
-30.6124
-26.8018
-22.5796
-18.0577
-13.3595
-8.60781
-4.12047
13.3312
10.6519
7.3814
3.81082
0.192882
-3.418
-7.02583
-10.6129
-14.1389
-17.5566
-20.817
-23.8694
-26.6598
-29.1325
-31.2314
-32.9027
-34.0979
-34.7679
-34.8669
-34.3694
-33.2721
-31.5855
-29.3352
-26.5646
-23.3359
-19.7286
-15.8367
-11.7654
-7.62085
-3.66301
14.6791
12.2426
9.28084
6.0503
2.77709
-0.489264
-3.75296
-6.99955
-10.1943
-13.2959
-16.2616
-19.0474
-21.6066
-23.8912
-25.8529
-27.4453
-28.6261
-29.352
-29.5815
-29.2879
-28.4658
-27.123
-25.2799
-22.9717
-20.2496
-17.1801
-13.8422
-10.3253
-6.72158
-3.24364
15.886
13.6578
10.9617
8.02457
5.04905
2.08031
-0.885964
-3.83808
-6.74609
-9.57389
-12.2844
-14.839
-17.1976
-19.3184
-21.1595
-22.6806
-23.8444
-24.6131
-24.9501
-24.8286
-24.2413
-23.1935
-21.7012
-19.7928
-17.5107
-14.9102
-12.058
-9.0302
-5.90703
-2.86244
16.963
14.9133
12.4456
9.76095
7.04179
4.32928
1.61908
-1.07939
-3.74025
-6.33201
-8.82221
-11.1774
-13.3623
-15.3408
-17.0763
-18.5334
-19.6792
-20.4809
-20.9063
-20.9293
-20.5414
-19.7457
-18.5545
-16.9909
-15.0896
-12.8968
-10.4691
-7.87144
-5.17367
-2.51855
17.9194
16.0224
13.7504
11.2825
8.7834
6.29066
3.80005
1.31914
-1.12968
-3.51879
-5.81978
-8.00332
-10.0387
-11.8941
-13.5376
-14.9378
-16.0654
-16.8926
-17.3906
-17.5344
-17.3152
-16.734
-15.8003
-14.5325
-12.9595
-11.1199
-9.06168
-6.8407
-4.51785
-2.21068
18.7635
16.9967
14.8919
12.6094
10.2982
7.99309
5.68987
3.3946
1.12679
-1.08927
-3.22854
-5.26525
-7.17239
-8.92193
-10.4856
-11.8357
-12.946
-13.7927
-14.3498
-14.5942
-14.5168
-14.1174
-13.4027
-12.3878
-11.0964
-9.56118
-7.82301
-5.93006
-3.93572
-1.93724
19.5019
17.8457
15.8828
13.7577
11.6061
9.4602
7.31585
5.17796
3.06363
0.994359
-1.00766
-2.9196
-4.71755
-6.37668
-7.87183
-9.17831
-10.2727
-11.1336
-11.7384
-12.0664
-12.1078
-11.8613
-11.3319
-10.5315
-9.48015
-8.20537
-6.74237
-5.13295
-3.42415
-1.69692
20.1417
18.5786
16.7352
14.7426
12.7255
10.7134
8.70253
6.69686
4.71147
2.76558
0.879008
-0.927884
-2.63375
-4.21637
-5.65325
-6.92217
-8.00201
-8.87344
-9.51668
-9.9132
-10.0532
-9.93422
-9.55998
-8.94021
-8.09155
-7.0377
-5.80912
-4.44243
-2.97934
-1.48788
20.686
19.2002
17.4561
15.5738
13.6682
11.7671
9.867
7.97094
6.09246
4.24888
2.45808
0.738423
-0.890843
-2.40968
-3.79772
-5.03486
-6.10184
-6.981
-7.6548
-8.10689
-8.32749
-8.31358
-8.06764
-7.59768
-6.91787
-6.04872
-5.01694
-3.85492
-2.59996
-1.30974
21.143
19.72
18.057
16.2644
14.4497
12.6389
10.8288
9.02176
7.23014
5.4697
3.75677
2.10811
0.541273
-0.925445
-2.27341
-3.48417
-4.54005
-5.42471
-6.12248
-6.6188
-6.9042
-6.97524
-6.83351
-6.4857
-5.94404
-5.22657
-4.357
-3.36437
-2.28239
-1.16057
21.5081
20.1348
18.5355
16.8137
15.0705
13.3309
11.5916
9.85473
8.13148
6.43649
4.78491
3.19222
1.67467
0.249204
-1.06689
-2.25649
-3.3031
-4.19148
-4.90729
-5.43746
-5.77302
-5.91024
-5.8501
-5.59828
-5.16562
-4.56828
-3.82772
-2.97038
-2.02711
-1.04092
21.7967
20.4599
18.9083
17.2393
15.5495
13.8628
12.1761
10.4913
8.81875
7.17234
5.56626
4.01509
2.53412
1.13929
-0.153105
-1.32688
-2.36645
-3.25736
-3.9865
-4.542
-4.91536
-5.10257
-5.1041
-4.92491
-4.5748
-4.06862
-3.42624
-2.67226
-1.83549
-0.953533
21.9871
20.6738
19.1538
17.5207
15.8669
14.2157
12.5644
10.9145
9.27615
7.66244
6.08704
4.56394
3.10777
1.73383
0.457748
-0.704897
-1.73892
-2.62992
-3.3655
-3.93552
-4.33211
-4.5512
-4.5929
-4.46168
-4.16669
-3.72189
-3.14619
-2.4632
-1.70108
-0.895865
22.1186
20.8085
19.3037
17.6898
16.0544
14.4207
12.7865
11.1535
9.53158
7.93347
6.37262
4.86274
3.41818
2.05389
0.78514
-0.373006
-1.40615
-2.30114
-3.04504
-3.6263
-4.03757
-4.27526
-4.3395
-4.23458
-3.9693
-3.55722
-3.0167
-2.37089
-1.64763
-0.880894
)
;

boundaryField
{
    inlet
    {
        type            zeroGradient;
    }
    outlet
    {
        type            fixedValue;
        value           uniform 0;
    }
    flap
    {
        type            zeroGradient;
    }
    upperWall
    {
        type            zeroGradient;
    }
    lowerWall
    {
        type            zeroGradient;
    }
    frontAndBack
    {
        type            empty;
    }
}


// ************************************************************************* //
