/*--------------------------------*- C++ -*----------------------------------*\
  =========                 |
  \\      /  F ield         | OpenFOAM: The Open Source CFD Toolbox
   \\    /   O peration     | Website:  https://openfoam.org
    \\  /    A nd           | Version:  7
     \\/     M anipulation  |
\*---------------------------------------------------------------------------*/
FoamFile
{
    version     2.0;
    format      ascii;
    class       surfaceScalarField;
    location    "0.5";
    object      phi;
}
// * * * * * * * * * * * * * * * * * * * * * * * * * * * * * * * * * * * * * //

dimensions      [0 3 -1 0 0 0 0];

internalField   nonuniform List<scalar> 
5457
(
0.198416
0.00158365
0.196477
0.00193899
0.194188
0.00228926
0.191504
0.00268362
0.188425
0.00307948
0.184952
0.00347268
0.181081
0.00387153
0.176797
0.00428339
0.172084
0.00471333
0.166919
0.00516525
0.161276
0.0056425
0.155129
0.00614779
0.148445
0.00668303
0.141197
0.00724889
0.133352
0.0078443
0.124887
0.00846573
0.11578
0.00910631
0.106026
0.00975463
0.0956322
0.0103934
0.084634
0.0109982
0.0730989
0.0115351
0.0611393
0.0119595
0.048927
0.0122124
0.0367127
0.0122143
0.0248594
0.0118533
0.0139018
0.0109576
0.00464141
0.00926041
-0.00168527
0.00632668
-0.00338537
0.0017001
-0.00338537
0.199927
0.00165677
0.199173
0.00269303
0.197961
0.00350132
0.196328
0.00431673
0.19427
0.00513765
0.191784
0.00595842
0.188864
0.00679114
0.185498
0.0076492
0.181669
0.00854279
0.177354
0.00947999
0.172529
0.0104677
0.167165
0.0115118
0.161232
0.0126164
0.154697
0.0137836
0.147529
0.0150118
0.1397
0.016295
0.131186
0.0176204
0.121974
0.0189665
0.112068
0.0203
0.101493
0.0215729
0.0903092
0.0227188
0.0786196
0.0236492
0.0665839
0.024248
0.0544333
0.0243649
0.0424836
0.0238029
0.0311399
0.0223013
0.0208724
0.0195279
0.0120532
0.0151459
0.00470172
0.0090516
0.00131635
0.199779
0.00187749
0.199084
0.00338853
0.197942
0.00464352
0.196405
0.00585359
0.19448
0.00706244
0.192164
0.00827401
0.189453
0.0095025
0.186337
0.0107655
0.182802
0.0120778
0.17883
0.0134516
0.1744
0.0148975
0.169488
0.0164244
0.164065
0.0180392
0.158103
0.019746
0.15157
0.0215444
0.144437
0.0234277
0.136677
0.0253805
0.128268
0.0273751
0.119201
0.0293675
0.109481
0.0312929
0.0991392
0.0330606
0.0882402
0.0345482
0.0768915
0.0355968
0.0652507
0.0360056
0.053525
0.0355286
0.0419496
0.0338767
0.0307326
0.030745
0.019983
0.0258955
0.00968399
0.0193506
0.0110003
0.199702
0.0021757
0.199005
0.0040855
0.197883
0.00576535
0.196372
0.00736483
0.194485
0.00894939
0.192222
0.0105369
0.18958
0.0121447
0.186552
0.0137932
0.183129
0.0155009
0.179297
0.0172832
0.175041
0.0191535
0.170342
0.0211234
0.16518
0.0232019
0.159531
0.0253949
0.153372
0.0277034
0.146678
0.0301213
0.139426
0.0326327
0.131593
0.0352078
0.123163
0.0377979
0.114126
0.0403301
0.104486
0.0427003
0.0942665
0.0447676
0.0835144
0.0463489
0.0723039
0.0472161
0.0607321
0.0471004
0.0489021
0.0457067
0.036894
0.0427531
0.0247405
0.0380489
0.0123944
0.0316967
0.0233948
0.199666
0.00250957
0.198961
0.00479043
0.197859
0.00686799
0.196377
0.00884689
0.194529
0.0107971
0.192317
0.0127486
0.189738
0.0147234
0.186787
0.0167442
0.183456
0.0188322
0.179734
0.0210056
0.175607
0.0232798
0.171062
0.0256684
0.166082
0.0281819
0.16065
0.0308274
0.154746
0.033607
0.148352
0.0365154
0.141447
0.0395374
0.134012
0.0426435
0.126025
0.045785
0.117467
0.0488877
0.108322
0.0518452
0.0985782
0.0545115
0.0882309
0.0566961
0.0772846
0.0581624
0.0657516
0.0586334
0.0536472
0.0578111
0.0409831
0.0554172
0.0277708
0.0512611
0.0140241
0.0454434
0.0374189
0.199652
0.00285803
0.198946
0.00549613
0.197867
0.00794724
0.196422
0.0102915
0.194623
0.0125962
0.192472
0.0148994
0.189967
0.0172283
0.187103
0.019608
0.183874
0.0220621
0.180268
0.0246108
0.176276
0.0272718
0.171885
0.03006
0.167079
0.0329873
0.161845
0.0360618
0.156165
0.0392867
0.150023
0.0426579
0.143399
0.0461616
0.136272
0.0497705
0.128617
0.0534392
0.120408
0.0570974
0.111609
0.0606439
0.102182
0.0639385
0.0920822
0.0667959
0.0812614
0.0689832
0.069671
0.0702238
0.0572682
0.0702139
0.0440265
0.0686589
0.0299619
0.0653257
0.0151572
0.0602482
0.0525761
0.199649
0.00320922
0.198951
0.00619373
0.1979
0.00899816
0.1965
0.0116916
0.194759
0.0143375
0.192679
0.0169789
0.19026
0.0196475
0.187497
0.0223711
0.184384
0.0251754
0.180912
0.0280829
0.17707
0.031113
0.172848
0.0342821
0.168232
0.0376036
0.163207
0.041087
0.157757
0.0447369
0.151863
0.0485511
0.145506
0.0525185
0.138661
0.0566157
0.131298
0.0608028
0.123377
0.0650181
0.11485
0.0691708
0.105654
0.0731342
0.0957128
0.0767374
0.0849363
0.0797597
0.0732297
0.0819304
0.0605071
0.0829365
0.0467157
0.0824503
0.0318801
0.0801613
0.016143
0.0759853
0.068719
0.199653
0.00355577
0.198972
0.00687541
0.197955
0.0100152
0.196606
0.0130407
0.19493
0.0160127
0.192932
0.018977
0.19061
0.0219693
0.187961
0.0250203
0.184979
0.0281574
0.181657
0.0314053
0.177985
0.0347851
0.173952
0.0383151
0.169545
0.0420104
0.16475
0.0458823
0.159549
0.0499375
0.153924
0.0541768
0.147849
0.0585931
0.141296
0.0631689
0.134226
0.0678725
0.12659
0.0726538
0.118324
0.0774376
0.109342
0.0821163
0.0995384
0.0865406
0.0887879
0.0905103
0.0769524
0.093766
0.0639027
0.0959862
0.0495543
0.0967987
0.0339273
0.0957883
0.0172094
0.0927031
0.0859285
0.199663
0.00389277
0.199004
0.00753472
0.198026
0.0109926
0.196735
0.0143325
0.195133
0.0176138
0.193226
0.0208844
0.191012
0.0241831
0.188489
0.0275431
0.185653
0.0309939
0.182496
0.034562
0.179011
0.0382705
0.175186
0.0421395
0.171011
0.046186
0.166469
0.0504238
0.161544
0.0548626
0.156214
0.0595071
0.150451
0.0643557
0.144221
0.0693987
0.137479
0.0746151
0.130163
0.0799698
0.122193
0.0854072
0.113465
0.0908448
0.103843
0.0961625
0.0931633
0.10119
0.0812401
0.105689
0.0678872
0.109339
0.0529631
0.111723
0.0364505
0.112301
0.0185564
0.110597
0.104485
0.199676
0.00421666
0.199044
0.00816637
0.198112
0.011925
0.196884
0.015561
0.195364
0.0191338
0.193555
0.0226926
0.19146
0.0262789
0.189074
0.0299282
0.186396
0.0336721
0.18342
0.0375385
0.180138
0.0415526
0.176541
0.0457363
0.172618
0.0501091
0.168354
0.0546873
0.163732
0.0594844
0.15873
0.0645099
0.153316
0.0697689
0.147454
0.0752611
0.14109
0.0809787
0.134156
0.0869041
0.126557
0.093006
0.11817
0.0992325
0.10883
0.105502
0.098333
0.111687
0.0864319
0.11759
0.0728576
0.122913
0.0573648
0.127216
0.0398324
0.129833
0.0204251
0.130004
0.12491
0.199692
0.00452479
0.199092
0.00876605
0.19821
0.0128075
0.19705
0.0167208
0.195618
0.0205661
0.193916
0.024394
0.191947
0.0282479
0.18971
0.0321655
0.187202
0.0361801
0.184419
0.0403214
0.181356
0.0446161
0.178004
0.0490883
0.174353
0.0537596
0.170391
0.0586494
0.1661
0.063775
0.161459
0.0691516
0.156436
0.0747917
0.150991
0.0807054
0.145071
0.0868995
0.138598
0.0933765
0.131472
0.100132
0.123552
0.107153
0.11465
0.114403
0.104519
0.121818
0.0928405
0.129269
0.0792279
0.136526
0.0632611
0.143182
0.0445911
0.148503
0.0231859
0.15141
0.148096
0.19971
0.00481507
0.199146
0.00933023
0.198317
0.0136359
0.197231
0.0178069
0.195892
0.0219049
0.194305
0.0259816
0.19247
0.0300822
0.19039
0.034246
0.188062
0.0385078
0.185485
0.042899
0.182653
0.0474476
0.179562
0.0521797
0.176202
0.057119
0.172564
0.062288
0.168631
0.067708
0.164383
0.0733994
0.159792
0.0793826
0.154819
0.0856783
0.14941
0.0923082
0.143491
0.0992959
0.136957
0.106667
0.129663
0.114447
0.121405
0.122661
0.111902
0.131321
0.100763
0.140408
0.0874602
0.149829
0.0713103
0.159332
0.0515296
0.168284
0.0275151
0.175424
0.175611
0.199729
0.00508588
0.199203
0.00985601
0.198433
0.0144064
0.197425
0.0188152
0.196184
0.0231454
0.194716
0.0274498
0.193023
0.031775
0.191107
0.0361618
0.188969
0.0406463
0.186607
0.045261
0.184019
0.0500353
0.181202
0.0549968
0.178149
0.0601713
0.174854
0.0655838
0.171302
0.0712592
0.167479
0.0772229
0.163359
0.0835023
0.15891
0.090128
0.154082
0.0971356
0.14881
0.104568
0.142996
0.11248
0.136505
0.120938
0.129137
0.130029
0.1206
0.139857
0.110461
0.150548
0.0980606
0.162229
0.0823997
0.174993
0.0619841
0.1887
0.0348259
0.202582
0.210437
0.19975
0.00533595
0.199265
0.0103411
0.198555
0.0151161
0.197628
0.0197421
0.19649
0.0242833
0.195146
0.0287937
0.193601
0.0333209
0.191856
0.0379068
0.189913
0.0425885
0.187775
0.0473993
0.185441
0.0523698
0.182909
0.0575286
0.180177
0.0629031
0.177241
0.0685204
0.174092
0.0744082
0.170719
0.0805959
0.167104
0.0871166
0.163224
0.0940086
0.159041
0.101319
0.154502
0.109107
0.149534
0.117449
0.144024
0.126448
0.137807
0.136246
0.130629
0.147035
0.122085
0.159092
0.111494
0.17282
0.0976453
0.188842
0.0782217
0.208123
0.0484825
0.232321
0.25892
0.199772
0.00556431
0.199329
0.0107836
0.198683
0.0157626
0.19784
0.0205846
0.196808
0.0253154
0.195592
0.0300095
0.194198
0.0347155
0.192629
0.039476
0.190888
0.0443286
0.18898
0.0493074
0.186906
0.0544436
0.184669
0.0597664
0.182268
0.0653042
0.179703
0.0710853
0.176972
0.0771392
0.174069
0.0834981
0.170988
0.0901985
0.167712
0.0972837
0.164224
0.104808
0.160491
0.112839
0.15647
0.12147
0.152095
0.130823
0.147267
0.141073
0.141834
0.152469
0.135539
0.165386
0.127928
0.180431
0.118085
0.198685
0.103793
0.222416
0.0777539
0.25836
0.336673
-0.0143017
0.0143017
-0.0323604
0.0180587
-0.0517779
0.0194175
-0.0718716
0.0200937
-0.092248
0.0203764
-0.112637
0.0203889
-0.13282
0.0201832
-0.152603
0.019783
-0.171799
0.0191961
-0.190219
0.0184192
-0.207659
0.0174409
-0.223903
0.0162436
-0.238709
0.014806
-0.251815
0.0131064
-0.262941
0.0111254
-0.271792
0.00885154
-0.278076
0.00628338
-0.281514
0.00343787
-0.281767
0.000253717
-0.278679
-0.00308817
-0.271997
-0.00668201
-0.261602
-0.0103951
-0.247365
-0.0142369
-0.229099
-0.0182663
-0.206504
-0.0225953
-0.179015
-0.0274888
-0.145119
-0.0338959
-0.100325
-0.0447942
-0.0346342
-0.0656904
-0.100137
-0.0183892
0.0326909
-0.0373115
0.036981
-0.0568289
0.0389349
-0.0767589
0.0400237
-0.0968457
0.0404632
-0.116861
0.0404043
-0.136604
0.0399263
-0.15589
0.0390688
-0.174538
0.037844
-0.192362
0.0362435
-0.209164
0.0342423
-0.224723
0.0318031
-0.238799
0.0288816
-0.251125
0.0254324
-0.261416
0.0214165
-0.269374
0.0168105
-0.274704
0.0116134
-0.27711
0.0058431
-0.276387
-0.000468885
-0.272295
-0.00718033
-0.264758
-0.0142192
-0.253657
-0.0214956
-0.238876
-0.029018
-0.220259
-0.0368831
-0.197566
-0.0452884
-0.170316
-0.0547393
-0.13741
-0.0668013
-0.0969987
-0.0852058
-0.047784
-0.114905
-0.158151
-0.0188798
0.0515708
-0.0377216
0.0558228
-0.0566604
0.0578737
-0.075705
0.0590683
-0.0947327
0.0594909
-0.113598
0.0592694
-0.132152
0.0584806
-0.150248
0.0571646
-0.167733
0.0553291
-0.184443
0.0529537
-0.200196
0.049995
-0.214784
0.0463914
-0.227974
0.0420715
-0.239504
0.0369622
-0.249088
0.0310011
-0.256428
0.0241497
-0.261221
0.0164067
-0.263186
0.0078078
-0.262102
-0.00155251
-0.257775
-0.0115074
-0.250104
-0.0218904
-0.239016
-0.0325838
-0.224433
-0.0436008
-0.20625
-0.0550663
-0.184302
-0.0672357
-0.158298
-0.0807441
-0.127772
-0.0973264
-0.0925052
-0.120473
-0.0534541
-0.153956
-0.197584
-0.0179364
0.0695072
-0.0358236
0.0737099
-0.0536227
0.0756729
-0.0713606
0.0768061
-0.0889869
0.0771172
-0.106427
0.0767099
-0.12359
0.0756428
-0.140367
0.0739416
-0.156635
0.0715971
-0.172248
0.0685667
-0.187032
0.064779
-0.20078
0.0601399
-0.213252
0.0545433
-0.224172
0.0478823
-0.233237
0.0400657
-0.240124
0.0310372
-0.244515
0.0207978
-0.246126
0.00941815
-0.244737
-0.00294069
-0.240202
-0.0160429
-0.232473
-0.0296188
-0.221526
-0.043531
-0.207324
-0.0578029
-0.189804
-0.0725862
-0.168876
-0.0881645
-0.144443
-0.105176
-0.116581
-0.125189
-0.0859879
-0.151066
-0.0543735
-0.185571
-0.226927
-0.0162952
0.0858024
-0.0325879
0.0900026
-0.0487773
0.0918623
-0.0648771
0.0929058
-0.0808684
0.0931086
-0.0967202
0.0925617
-0.112378
0.0913003
-0.127763
0.0893265
-0.142769
0.0866034
-0.157259
0.0830566
-0.171058
0.0785779
-0.183952
0.0730343
-0.195688
0.0662791
-0.205974
0.058168
-0.214487
0.0485788
-0.220887
0.037437
-0.224841
0.0247521
-0.226067
0.0106445
-0.224371
-0.00463678
-0.21966
-0.0207536
-0.211949
-0.0373305
-0.201267
-0.0542132
-0.187617
-0.0714527
-0.170967
-0.0892362
-0.151284
-0.107848
-0.128639
-0.127821
-0.103481
-0.150347
-0.0770167
-0.177531
-0.0512749
-0.211313
-0.248506
-0.014195
0.0999973
-0.0284703
0.104278
-0.0426976
0.10609
-0.0568866
0.107095
-0.0710361
0.107258
-0.085138
0.106664
-0.0991589
0.105321
-0.113037
0.103204
-0.126675
0.100242
-0.13994
0.0963216
-0.152656
0.0912933
-0.164602
0.0849806
-0.175516
0.0771929
-0.185093
0.067745
-0.192995
0.0564806
-0.198862
0.0433038
-0.202345
0.0282354
-0.203162
0.0114621
-0.201155
-0.00664388
-0.196295
-0.0256143
-0.188674
-0.0449511
-0.178384
-0.064503
-0.165459
-0.0843784
-0.149879
-0.104816
-0.131648
-0.126079
-0.110948
-0.14852
-0.0884533
-0.172842
-0.0656273
-0.200357
-0.0446027
-0.232337
-0.264545
-0.0117644
0.111762
-0.0237252
0.116239
-0.0357235
0.118088
-0.0477724
0.119144
-0.0598839
0.11937
-0.0720643
0.118844
-0.0842921
0.117549
-0.0965142
0.115426
-0.10864
0.112368
-0.120539
0.10822
-0.132035
0.102789
-0.142907
0.0958526
-0.152887
0.0871731
-0.161663
0.0765208
-0.168883
0.0637007
-0.17417
0.0485906
-0.177153
0.0312185
-0.177545
0.011854
-0.175231
-0.00895816
-0.170257
-0.0305883
-0.16281
-0.0523974
-0.153044
-0.0742694
-0.14101
-0.0964128
-0.126684
-0.119141
-0.110084
-0.14268
-0.0914476
-0.167156
-0.0715643
-0.192725
-0.051979
-0.219942
-0.0348118
-0.249504
-0.276567
-0.0090948
0.120857
-0.0185197
0.125664
-0.0280776
0.127646
-0.0377899
0.128856
-0.0476806
0.12926
-0.0577671
0.128931
-0.0680349
0.127817
-0.0784371
0.125829
-0.0888881
0.122819
-0.0992606
0.118593
-0.109384
0.112912
-0.119041
0.10551
-0.127969
0.0961009
-0.135853
0.0844043
-0.142332
0.0701796
-0.147009
0.0532683
-0.149487
0.0336961
-0.14944
0.0118068
-0.146833
-0.0115642
-0.141791
-0.0356308
-0.134611
-0.0595778
-0.125498
-0.0833818
-0.114506
-0.107405
-0.101588
-0.132059
-0.0867527
-0.157515
-0.0702555
-0.183653
-0.052935
-0.210045
-0.0362779
-0.236599
-0.0223455
-0.263437
-0.285429
-0.00625353
0.12711
-0.0129773
0.132387
-0.0199256
0.134594
-0.027135
0.136065
-0.0346415
0.136767
-0.0424734
0.136762
-0.050621
0.135964
-0.059041
0.134249
-0.067652
0.13143
-0.0763325
0.127273
-0.0849197
0.121499
-0.0932117
0.113802
-0.100956
0.103845
-0.107844
0.0912925
-0.113513
0.0758488
-0.117556
0.0573106
-0.119541
0.0356814
-0.119095
0.0113609
-0.11624
-0.0144189
-0.111204
-0.0406667
-0.104406
-0.0663758
-0.096082
-0.0917062
-0.0862607
-0.117226
-0.074859
-0.143461
-0.0618731
-0.170501
-0.047546
-0.19798
-0.0327291
-0.224862
-0.0187781
-0.25055
-0.00759956
-0.274615
-0.292152
-0.00329877
0.130409
-0.00720137
0.13629
-0.0114088
0.138802
-0.01598
0.140637
-0.0209662
0.141753
-0.0264073
0.142204
-0.0322961
0.141853
-0.0385895
0.140542
-0.0452084
0.138049
-0.0520372
0.134102
-0.0589212
0.128383
-0.0656823
0.120563
-0.0720921
0.110255
-0.0778627
0.0970631
-0.0826421
0.0806282
-0.086026
0.0606946
-0.0875821
0.0372375
-0.0867462
0.010525
-0.0837309
-0.0174343
-0.0788333
-0.0455642
-0.0725825
-0.0726266
-0.0651957
-0.0990931
-0.0566534
-0.125768
-0.0468331
-0.153282
-0.0357158
-0.181618
-0.0235571
-0.210139
-0.0111459
-0.237274
0.00024515
-0.261941
0.00893515
-0.283305
-0.297126
-0.000331705
0.130741
-0.00128591
0.137244
-0.0026654
0.140181
-0.00449067
0.142462
-0.00685487
0.144117
-0.0098046
0.145153
-0.0133329
0.145381
-0.0173901
0.144599
-0.0218957
0.142555
-0.0267353
0.138942
-0.0317503
0.133398
-0.0367999
0.125613
-0.0416853
0.11514
-0.0461535
0.101531
-0.0498789
0.0843536
-0.0525044
0.06332
-0.0535793
0.0383124
-0.0526029
0.00954855
-0.0495425
-0.0204946
-0.0450186
-0.0500881
-0.0395495
-0.0780957
-0.0332689
-0.105374
-0.0261062
-0.132931
-0.0179031
-0.161485
-0.00858221
-0.190939
0.00144144
-0.220163
0.0114245
-0.247257
0.0203766
-0.270893
0.0270956
-0.290024
-0.300736
0.00270401
0.128037
0.00469248
0.135256
0.00617219
0.138701
0.00713972
0.141494
0.00744605
0.143811
0.00703723
0.145562
0.00592806
0.146491
0.004182
0.146345
0.00188009
0.144857
-0.000886514
0.141708
-0.00390512
0.136417
-0.00707489
0.128783
-0.0102327
0.118298
-0.0131855
0.104484
-0.0156818
0.08685
-0.0173636
0.0650018
-0.0178254
0.0387742
-0.0166531
0.00837626
-0.0138446
-0.0233032
-0.0101013
-0.0538314
-0.00567619
-0.0825208
-0.000730332
-0.110319
0.00494844
-0.13861
0.0115302
-0.168066
0.0189593
-0.198368
0.0268528
-0.228056
0.0347133
-0.255117
0.0416933
-0.277873
0.046696
-0.295027
-0.303113
0.00580317
0.122233
0.0107118
0.130347
0.0150475
0.134366
0.0188126
0.137729
0.0217593
0.140864
0.0238374
0.143484
0.0250957
0.145232
0.0256255
0.145816
0.025536
0.144946
0.0249467
0.142297
0.0239631
0.137401
0.0227648
0.129981
0.0214887
0.119574
0.0202841
0.105689
0.0193263
0.0878078
0.0189329
0.0653953
0.0195271
0.03818
0.0208172
0.00708618
0.0228538
-0.0253398
0.0253241
-0.0563017
0.0282396
-0.0854363
0.031679
-0.113759
0.035818
-0.142749
0.040831
-0.173079
0.0466084
-0.204145
0.0527783
-0.234226
0.0588093
-0.261148
0.0639653
-0.283029
0.0673505
-0.298412
-0.30429
0.00921768
0.113016
0.0167166
0.122848
0.0239275
0.127155
0.0304955
0.131161
0.035992
0.135368
0.040433
0.139043
0.0439402
0.141725
0.0466427
0.143113
0.0486726
0.142916
0.0501601
0.14081
0.0512097
0.136351
0.0519807
0.12921
0.0526096
0.118945
0.0532301
0.105068
0.0539948
0.0870431
0.0550883
0.0643018
0.0565119
0.0367564
0.0577718
0.00582622
0.0589795
-0.0265475
0.0601462
-0.0574684
0.0615499
-0.0868401
0.0635099
-0.115719
0.0662783
-0.145517
0.0699482
-0.176749
0.0743294
-0.208527
0.0789915
-0.238888
0.083377
-0.265534
0.0868416
-0.286494
0.0886809
-0.300252
-0.30426
0.0134833
0.0995324
0.0223554
0.113976
0.032837
0.116673
0.0422223
0.121776
0.0500843
0.127506
0.0566838
0.132443
0.0622461
0.136163
0.0669443
0.138415
0.0709342
0.138927
0.074358
0.137386
0.0773217
0.133387
0.0799625
0.126569
0.0824039
0.116504
0.0847558
0.102716
0.0871027
0.0846961
0.0894129
0.0619917
0.0914381
0.0347312
0.0927475
0.00451679
0.0933217
-0.0271216
0.0933933
-0.05754
0.0935205
-0.0869673
0.0942596
-0.116458
0.0959453
-0.147203
0.0985806
-0.179385
0.101842
-0.211788
0.105208
-0.242254
0.108107
-0.268432
0.109986
-0.288373
0.110324
-0.300589
-0.303002
0.207446
0.00577763
0.207033
0.0111966
0.206431
0.0163648
0.205648
0.0213676
0.204692
0.0262717
0.203569
0.0311323
0.202286
0.0359986
0.200848
0.0409134
0.199262
0.0459149
0.197532
0.0510372
0.195664
0.0563117
0.193663
0.0617679
0.191533
0.0674342
0.189278
0.0733396
0.186904
0.079514
0.184411
0.0859903
0.181804
0.0928062
0.179081
0.100006
0.176242
0.107647
0.173283
0.115798
0.170201
0.124552
0.166989
0.134035
0.163645
0.144417
0.160173
0.155941
0.156603
0.168956
0.153048
0.183986
0.149912
0.201821
0.148977
0.223351
0.161392
0.245945
0.258396
0.239669
0.21249
0.00597045
0.212117
0.0115695
0.211574
0.0169076
0.21087
0.0220715
0.210013
0.0271286
0.209011
0.0321344
0.207872
0.0371382
0.206602
0.0421831
0.20521
0.0473071
0.203703
0.052544
0.20209
0.0579248
0.200379
0.0634786
0.19858
0.0692334
0.196702
0.0752173
0.194757
0.0814595
0.192755
0.0879917
0.190712
0.0948499
0.188642
0.102076
0.186566
0.109723
0.184511
0.117852
0.182517
0.126547
0.180643
0.135909
0.178987
0.146073
0.177723
0.157205
0.177174
0.169504
0.178006
0.183154
0.181662
0.198165
0.190798
0.214216
0.206401
0.230341
0.245536
0.219262
0.217657
0.00614063
0.217329
0.0118983
0.216851
0.0173851
0.216234
0.0226886
0.215486
0.0278766
0.214616
0.0330046
0.213632
0.0381218
0.212544
0.0432709
0.211362
0.0484892
0.210096
0.05381
0.208758
0.0592633
0.207359
0.0648771
0.205915
0.070678
0.20444
0.0766923
0.202952
0.0829468
0.201474
0.0894703
0.200029
0.0962944
0.19865
0.103455
0.197378
0.110995
0.196266
0.118964
0.195392
0.127421
0.194867
0.136435
0.194857
0.146083
0.195623
0.15644
0.197567
0.16756
0.20129
0.179432
0.20753
0.191925
0.216871
0.204875
0.228861
0.218351
0.229859
0.244538
0.222951
0.00628613
0.22267
0.0121791
0.222264
0.0177916
0.221741
0.0232116
0.221111
0.0285069
0.220383
0.0337327
0.219567
0.0389375
0.218674
0.0441633
0.217717
0.0494465
0.216708
0.0548192
0.215661
0.0603099
0.214594
0.0659448
0.213523
0.0717482
0.212472
0.0777436
0.211465
0.0839543
0.210531
0.0904042
0.209707
0.0971186
0.209037
0.104125
0.208579
0.111453
0.208409
0.119134
0.208627
0.127203
0.209369
0.135692
0.210825
0.144627
0.213251
0.154015
0.216978
0.163832
0.222404
0.174006
0.229937
0.184392
0.240083
0.194729
0.253696
0.204738
0.21221
0.271345
0.228374
0.00640509
0.228145
0.0124081
0.227815
0.0181219
0.227393
0.0236339
0.226888
0.0290115
0.226312
0.0343092
0.225674
0.0395747
0.224989
0.0448486
0.224269
0.0501663
0.223531
0.0555579
0.222791
0.0610501
0.222069
0.0666666
0.221388
0.0724288
0.220775
0.0783565
0.220261
0.0844684
0.219883
0.0907825
0.219685
0.0973164
0.219723
0.104087
0.220065
0.11111
0.220799
0.118401
0.222034
0.125968
0.223914
0.133812
0.226618
0.141922
0.23037
0.150263
0.235437
0.158765
0.242132
0.167311
0.25081
0.175714
0.261896
0.183643
0.27585
0.190784
0.196099
0.291961
0.23393
0.0064958
0.233756
0.0125822
0.233506
0.0183712
0.233191
0.0239494
0.232819
0.0293831
0.232402
0.0347259
0.231953
0.0400241
0.231485
0.0453169
0.231013
0.0506378
0.230556
0.056015
0.230133
0.0614728
0.229768
0.0670318
0.229487
0.0727102
0.22932
0.0785233
0.229304
0.0844847
0.22948
0.0906058
0.229901
0.0968958
0.230626
0.103361
0.231731
0.110006
0.233306
0.116826
0.235461
0.123812
0.238332
0.130942
0.242077
0.138177
0.246887
0.145453
0.252974
0.152677
0.260574
0.159711
0.269922
0.166366
0.281193
0.172372
0.294485
0.177493
0.181253
0.309331
0.23962
0.00655674
0.239504
0.0126985
0.23934
0.0185355
0.239136
0.0241529
0.238904
0.0296156
0.238654
0.0349758
0.2384
0.0402782
0.238157
0.0455602
0.237941
0.0508531
0.237774
0.0561828
0.237675
0.0615709
0.237672
0.0670348
0.237794
0.0725887
0.238074
0.0782436
0.238551
0.0840075
0.239271
0.0898852
0.240289
0.0958781
0.241667
0.101983
0.243481
0.108192
0.245819
0.114489
0.248783
0.120848
0.252493
0.127232
0.257085
0.133585
0.262706
0.139832
0.269514
0.14587
0.277659
0.151566
0.287263
0.156761
0.298382
0.161254
0.311022
0.164852
0.167309
0.324966
0.245449
0.00658665
0.245393
0.0127545
0.245317
0.0186112
0.24523
0.02424
0.245142
0.029704
0.245064
0.0350535
0.245011
0.0403313
0.244999
0.0455728
0.245045
0.0508068
0.245171
0.0560569
0.2454
0.0613414
0.24576
0.0666746
0.246282
0.0720666
0.247002
0.0775241
0.24796
0.0830496
0.249203
0.0886418
0.250786
0.0942951
0.252771
0.0999983
0.255229
0.105734
0.258241
0.111476
0.261899
0.117191
0.266301
0.122829
0.271556
0.12833
0.277772
0.133616
0.285054
0.138588
0.293489
0.143131
0.303136
0.147114
0.314
0.15039
0.326043
0.152809
0.154248
0.339105
0.251419
0.00658451
0.251426
0.0127482
0.251441
0.0185957
0.251474
0.0242075
0.251533
0.0296446
0.251631
0.0349551
0.251783
0.0401797
0.252004
0.0453515
0.252314
0.0504968
0.252735
0.0556364
0.253291
0.0607856
0.25401
0.0659554
0.254924
0.0711521
0.25607
0.0763781
0.257489
0.0816312
0.259226
0.0869048
0.261333
0.0921873
0.26387
0.0974615
0.266901
0.102703
0.270496
0.107881
0.274732
0.112955
0.279688
0.117873
0.285445
0.122574
0.292076
0.126984
0.299648
0.131016
0.308203
0.134575
0.317759
0.137558
0.328291
0.139858
0.339727
0.141373
0.142042
0.351933
0.257534
0.00654956
0.257604
0.0126784
0.257712
0.0184871
0.257867
0.0240531
0.258076
0.029435
0.258353
0.0346785
0.258711
0.0398219
0.259166
0.0448957
0.25974
0.0499238
0.260452
0.054924
0.261329
0.059909
0.262398
0.0648862
0.263691
0.0698587
0.265244
0.074825
0.267096
0.079779
0.269291
0.0847098
0.271877
0.0896014
0.274906
0.0944323
0.278435
0.0991748
0.282522
0.103794
0.287229
0.108248
0.292614
0.112488
0.298735
0.116454
0.305637
0.120081
0.313356
0.123297
0.321906
0.126026
0.331274
0.12819
0.341416
0.129716
0.352253
0.130536
0.130624
0.363671
0.263796
0.00648135
0.26393
0.012544
0.264133
0.0182842
0.26441
0.0237758
0.264771
0.0290744
0.265226
0.0342234
0.26579
0.0392583
0.266478
0.0442072
0.26731
0.0490914
0.268309
0.0539259
0.269497
0.0587206
0.270903
0.0634802
0.272557
0.0682046
0.274493
0.0728892
0.276747
0.0775247
0.27936
0.0820973
0.282373
0.0865879
0.285833
0.0909729
0.289785
0.0952226
0.294277
0.0993022
0.299354
0.103171
0.305059
0.106783
0.311427
0.110085
0.318484
0.113024
0.326241
0.115541
0.33469
0.117576
0.343805
0.119076
0.353531
0.11999
0.36379
0.120277
0.11993
0.374484
0.270209
0.00637972
0.270408
0.012345
0.270705
0.0179869
0.271105
0.0233755
0.271616
0.0285635
0.272248
0.0335912
0.273015
0.0384917
0.273932
0.0432904
0.275017
0.0480061
0.276292
0.0526514
0.277779
0.0572334
0.279505
0.0617545
0.281497
0.066212
0.283788
0.0705989
0.286409
0.0749037
0.289395
0.0791106
0.292784
0.0831993
0.296612
0.087145
0.300916
0.0909186
0.305731
0.0944867
0.31109
0.0978118
0.31702
0.100853
0.323539
0.103567
0.330656
0.105907
0.338366
0.10783
0.34665
0.109293
0.355469
0.110257
0.364768
0.110691
0.374473
0.110572
0.109906
0.384497
0.276776
0.00624481
0.277039
0.0120815
0.27743
0.0175959
0.277952
0.0228536
0.278612
0.0279041
0.279418
0.032785
0.280383
0.0375267
0.281521
0.0421519
0.28285
0.0466771
0.284389
0.0511125
0.286159
0.0554631
0.288185
0.0597291
0.290491
0.063906
0.293105
0.067985
0.296055
0.0719535
0.299371
0.0757946
0.303082
0.0794878
0.307219
0.0830089
0.311807
0.0863303
0.316872
0.0894216
0.322434
0.0922498
0.328507
0.0947799
0.335097
0.0969764
0.3422
0.098804
0.349802
0.100229
0.357872
0.101222
0.36637
0.101758
0.375241
0.10182
0.384415
0.101397
0.100502
0.393819
0.2835
0.00607703
0.283827
0.0117546
0.284311
0.0171125
0.284952
0.0222122
0.285757
0.0270997
0.286732
0.0318097
0.287889
0.0363697
0.28924
0.0408004
0.290802
0.0451155
0.292591
0.0493236
0.294626
0.0534277
0.296929
0.0574264
0.299521
0.0613139
0.302425
0.0650804
0.305666
0.0687127
0.309267
0.072194
0.31325
0.0755044
0.317638
0.0786213
0.322448
0.0815198
0.327697
0.0841731
0.333394
0.0865531
0.339542
0.0886312
0.346139
0.0903796
0.353171
0.0917717
0.360616
0.092784
0.368442
0.0933969
0.376604
0.093596
0.385051
0.0933735
0.39372
0.0927281
0.0916761
0.402546
0.290386
0.00587708
0.290775
0.0113655
0.291349
0.016539
0.292106
0.0214546
0.293051
0.0261548
0.29419
0.0306712
0.295531
0.0350289
0.297085
0.0392461
0.298866
0.0433346
0.300888
0.0473012
0.303169
0.0511474
0.305724
0.0548706
0.308574
0.0584642
0.311736
0.0619183
0.315229
0.0652195
0.319071
0.068352
0.323279
0.0712972
0.327865
0.0740348
0.332842
0.076543
0.338216
0.078799
0.343989
0.0807798
0.350158
0.0824631
0.35671
0.0838276
0.363627
0.0848546
0.370882
0.0855284
0.378442
0.0858376
0.386262
0.0857756
0.394294
0.0853413
0.402483
0.0845393
0.0833878
0.410771
0.297437
0.00564588
0.297886
0.0109161
0.298547
0.0158784
0.299417
0.020585
0.300496
0.0250749
0.301791
0.029377
0.303306
0.0335136
0.305051
0.0375008
0.307037
0.0413488
0.309275
0.0450626
0.31178
0.0486429
0.314564
0.0520862
0.317643
0.0553857
0.32103
0.0585315
0.324738
0.0615111
0.32878
0.0643096
0.333167
0.0669107
0.337905
0.0692966
0.342999
0.0714489
0.348449
0.0733488
0.354251
0.0749784
0.360393
0.0763206
0.36686
0.0773603
0.37363
0.0780851
0.380673
0.0784856
0.387954
0.0785566
0.395432
0.0782971
0.403063
0.0777107
0.410796
0.0768057
0.075601
0.418583
0.304656
0.00538458
0.305164
0.0104088
0.305908
0.0151341
0.306885
0.0196082
0.308093
0.0238666
0.309535
0.0279352
0.311214
0.0318342
0.313138
0.0355774
0.315313
0.0391735
0.317749
0.0426264
0.320457
0.0459358
0.323445
0.0490982
0.326724
0.0521066
0.330304
0.0549517
0.334193
0.0576221
0.338397
0.0601047
0.342923
0.0623851
0.347771
0.0644485
0.35294
0.0662798
0.358425
0.0678642
0.364215
0.0691881
0.370296
0.0702393
0.376649
0.0710078
0.383248
0.0714861
0.390063
0.07167
0.397061
0.0715587
0.404203
0.0711551
0.411448
0.070466
0.418752
0.0695018
0.0682813
0.426072
0.312048
0.00509446
0.312611
0.00984601
0.313435
0.0143101
0.314514
0.0185297
0.315844
0.0225369
0.317424
0.0263549
0.319257
0.0300015
0.321345
0.0334889
0.323694
0.0368243
0.32631
0.0400107
0.329198
0.0430473
0.332366
0.0459304
0.335819
0.0486536
0.339562
0.0512084
0.3436
0.0535847
0.347933
0.0557711
0.352563
0.0577557
0.357485
0.0595264
0.362693
0.0610711
0.368179
0.062379
0.373927
0.06344
0.37992
0.0642461
0.386136
0.0647914
0.39255
0.0650725
0.399131
0.0650887
0.405848
0.0648426
0.412663
0.0643397
0.41954
0.0635888
0.426441
0.0626013
0.0613953
0.433327
0.319617
0.00477693
0.320233
0.00923056
0.321132
0.0134104
0.322307
0.017355
0.323751
0.0210931
0.32546
0.0246453
0.327435
0.0280271
0.329675
0.031249
0.332182
0.0343171
0.334959
0.0372337
0.338008
0.0399978
0.341333
0.0426058
0.344935
0.0450519
0.348815
0.0473286
0.352972
0.0494273
0.357405
0.0513385
0.362108
0.0530526
0.367074
0.0545598
0.372294
0.0558514
0.377754
0.0569193
0.383437
0.057757
0.389323
0.0583597
0.39539
0.0587247
0.401611
0.0588515
0.407957
0.0587424
0.414398
0.0584019
0.4209
0.0578373
0.427431
0.0570584
0.433955
0.056077
0.0549102
0.44044
0.327367
0.00443343
0.328032
0.00856531
0.329003
0.0124395
0.330268
0.0160903
0.331818
0.019543
0.333647
0.0228157
0.335753
0.0259219
0.338131
0.0288706
0.340781
0.0316669
0.343702
0.0343124
0.346894
0.0368063
0.350355
0.0391451
0.354083
0.0413237
0.358075
0.043336
0.362328
0.0451746
0.366835
0.0468319
0.371587
0.0483003
0.376574
0.0495727
0.381783
0.0506426
0.387198
0.0515047
0.3928
0.0521551
0.398568
0.0525917
0.404478
0.0528141
0.410505
0.0528242
0.416622
0.0526259
0.422798
0.0522254
0.429005
0.0516306
0.435212
0.0508517
0.441388
0.0499005
0.0487926
0.447506
0.335302
0.0040654
0.336014
0.00785308
0.337052
0.0114016
0.338401
0.0147411
0.34005
0.0178939
0.341991
0.0208752
0.344216
0.0236968
0.34672
0.0263663
0.349499
0.0288878
0.352549
0.0312627
0.355865
0.03349
0.359443
0.0355668
0.363278
0.0374888
0.367364
0.0392507
0.371691
0.0408469
0.376252
0.0422714
0.381034
0.0435184
0.386024
0.0445828
0.391206
0.0454603
0.396563
0.0461477
0.402075
0.0466434
0.407719
0.046947
0.413473
0.04706
0.419312
0.0469859
0.425208
0.0467295
0.431136
0.0462978
0.437067
0.0456991
0.442975
0.0449435
0.448834
0.044042
0.043009
0.454618
0.343427
0.00367416
0.344184
0.00709648
0.345284
0.0103008
0.346712
0.0133132
0.348453
0.0161528
0.350496
0.0188324
0.352831
0.0213619
0.35545
0.0237476
0.358345
0.0259928
0.361509
0.0280986
0.364935
0.0300641
0.368615
0.0318868
0.37254
0.0335632
0.376702
0.0350893