/*--------------------------------*- C++ -*----------------------------------*\
  =========                 |
  \\      /  F ield         | OpenFOAM: The Open Source CFD Toolbox
   \\    /   O peration     | Website:  https://openfoam.org
    \\  /    A nd           | Version:  7
     \\/     M anipulation  |
\*---------------------------------------------------------------------------*/
FoamFile
{
    version     2.0;
    format      ascii;
    class       surfaceVectorField;
    location    "0.5";
    object      Uf;
}
// * * * * * * * * * * * * * * * * * * * * * * * * * * * * * * * * * * * * * //

dimensions      [0 1 -1 0 0 0 0];

internalField   nonuniform List<vector> 
5457
(
(9.92082 0.025128 0)
(9.97122 0.0387773 0)
(9.82387 0.0328452 0)
(9.92848 0.0486266 0)
(9.7094 0.0393202 0)
(9.85529 0.0587995 0)
(9.57522 0.0459997 0)
(9.75657 0.0705959 0)
(9.42125 0.0529068 0)
(9.63734 0.082969 0)
(9.24762 0.0600829 0)
(9.49856 0.0958261 0)
(9.05404 0.0676742 0)
(9.33952 0.109416 0)
(8.83987 0.0758305 0)
(9.1594 0.123984 0)
(8.6042 0.0846819 0)
(8.95738 0.139729 0)
(8.34594 0.0943514 0)
(8.73254 0.156831 0)
(8.06382 0.104962 0)
(8.48371 0.175466 0)
(7.75643 0.116637 0)
(8.20956 0.195803 0)
(7.42227 0.129494 0)
(7.90861 0.217999 0)
(7.05983 0.143642 0)
(7.57933 0.242177 0)
(6.66762 0.159161 0)
(7.22015 0.268408 0)
(6.24433 0.176091 0)
(6.82961 0.296679 0)
(5.78901 0.194402 0)
(6.40647 0.326847 0)
(5.30128 0.213955 0)
(5.94988 0.358586 0)
(4.78161 0.234452 0)
(5.45967 0.391312 0)
(4.2317 0.255366 0)
(4.93665 0.424096 0)
(3.65494 0.275827 0)
(4.383 0.455561 0)
(3.05697 0.294442 0)
(3.80276 0.483748 0)
(2.44635 0.308958 0)
(3.2024 0.505922 0)
(1.83563 0.315578 0)
(2.59148 0.518244 0)
(1.24297 0.30759 0)
(1.98348 0.51509 0)
(0.695091 0.273279 0)
(1.39691 0.487687 0)
(0.232071 0.192624 0)
(0.857438 0.42212 0)
(-0.0842633 0.0421317 0)
(0.41017 0.295367 0)
(-0.169268 -0.118748 0)
(0.0888132 0.0812909 0)
(0.0248033 -0.165788 0)
(9.99634 0.051727 0)
(9.99702 0.0405675 0)
(9.95864 0.0709156 0)
(9.9784 0.0675366 0)
(9.89804 0.0880111 0)
(9.93359 0.089931 0)
(9.81638 0.105952 0)
(9.8643 0.113557 0)
(9.71348 0.124803 0)
(9.77417 0.138421 0)
(9.58919 0.144621 0)
(9.66427 0.164418 0)
(9.44321 0.165711 0)
(9.53415 0.191929 0)
(9.27492 0.188407 0)
(9.38308 0.221409 0)
(9.08344 0.212999 0)
(9.21037 0.253256 0)
(8.86771 0.239756 0)
(9.01515 0.287838 0)
(8.62645 0.268938 0)
(8.79637 0.325516 0)
(8.35825 0.300789 0)
(8.55279 0.366643 0)
(8.06158 0.335518 0)
(8.28301 0.411546 0)
(7.73484 0.373273 0)
(7.98553 0.460493 0)
(7.37647 0.414102 0)
(7.65881 0.513658 0)
(6.98501 0.457892 0)
(7.30131 0.571052 0)
(6.5593 0.5043 0)
(6.91164 0.632439 0)
(6.09871 0.552654 0)
(6.48869 0.69722 0)
(5.60338 0.601834 0)
(6.03188 0.764292 0)
(5.07464 0.65013 0)
(5.5414 0.831864 0)
(4.51546 0.695065 0)
(5.01864 0.897243 0)
(3.93098 0.733175 0)
(4.46659 0.956578 0)
(3.32919 0.759679 0)
(3.89041 1.00453 0)
(2.72166 0.767952 0)
(3.2979 1.03378 0)
(2.12418 0.74862 0)
(2.70001 1.03437 0)
(1.557 0.688371 0)
(2.11093 0.992558 0)
(1.04362 0.569029 0)
(1.5471 0.890148 0)
(0.602661 0.367369 0)
(1.02903 0.7071 0)
(0.235086 0.0580702 0)
(0.562062 0.432805 0)
(0.227185 0.0644641 0)
(9.98896 0.0595218 0)
(9.99478 0.0459721 0)
(9.95419 0.0895663 0)
(9.97358 0.0849785 0)
(9.89708 0.118072 0)
(9.92965 0.119268 0)
(9.82024 0.147842 0)
(9.86333 0.153986 0)
(9.724 0.179224 0)
(9.77713 0.19028 0)
(9.60822 0.212386 0)
(9.67214 0.228315 0)
(9.47265 0.24776 0)
(9.54819 0.268557 0)
(9.31684 0.285839 0)
(9.40476 0.311611 0)
(9.14008 0.327089 0)
(9.2413 0.358053 0)
(8.9415 0.371955 0)
(9.05713 0.408428 0)
(8.72001 0.420875 0)
(8.85144 0.463269 0)
(8.47439 0.474267 0)
(8.62321 0.523106 0)
(8.20325 0.532503 0)
(8.37129 0.588435 0)
(7.90513 0.595865 0)
(8.09443 0.659692 0)
(7.57849 0.664482 0)
(7.7913 0.737185 0)
(7.22186 0.738239 0)
(7.46053 0.821018 0)
(6.83385 0.816653 0)
(7.10078 0.910968 0)
(6.41342 0.898714 0)
(6.71082 1.00632 0)
(5.96005 0.98269 0)
(6.28973 1.10568 0)
(5.47405 1.06588 0)
(5.83704 1.20667 0)
(4.95696 1.14434 0)
(5.35302 1.30567 0)
(4.41201 1.21256 0)
(4.83904 1.39743 0)
(3.84457 1.26308 0)
(4.29791 1.47467 0)
(3.26254 1.28604 0)
(3.73428 1.52769 0)
(2.67625 1.26867 0)
(3.15473 1.54391 0)
(2.09748 1.19522 0)
(2.56753 1.50774 0)
(1.53663 1.04858 0)
(1.98123 1.40146 0)
(0.999151 0.816655 0)
(1.4052 1.20896 0)
(0.4842 0.492688 0)
(0.829895 0.925255 0)
(0.362732 0.538708 0)
(9.98509 0.0717421 0)
(9.99364 0.0532742 0)
(9.95024 0.113759 0)
(9.97077 0.102457 0)
(9.89415 0.154196 0)
(9.92672 0.148082 0)
(9.81859 0.195508 0)
(9.86161 0.193741 0)
(9.72424 0.238557 0)
(9.77723 0.241119 0)
(9.6111 0.283817 0)
(9.67453 0.290758 0)
(9.47899 0.331892 0)
(9.55349 0.343231 0)
(9.3276 0.383449 0)
(9.41373 0.39925 0)
(9.15644 0.439134 0)
(9.25484 0.459532 0)
(8.96487 0.499575 0)
(9.07629 0.524764 0)
(8.75207 0.565387 0)
(8.87744 0.595619 0)
(8.51712 0.637168 0)
(8.65751 0.672766 0)
(8.25898 0.715465 0)
(8.41563 0.756841 0)
(7.97654 0.800727 0)
(8.15082 0.848415 0)
(7.66859 0.893225 0)
(7.86207 0.947927 0)
(7.33391 0.992946 0)
(7.54828 1.05559 0)
(6.9713 1.09943 0)
(7.20835 1.17127 0)
(6.57966 1.21158 0)
(6.84118 1.29426 0)
(6.15814 1.32738 0)
(6.44574 1.42309 0)
(5.70628 1.44359 0)
(6.02116 1.55515 0)
(5.2243 1.55538 0)
(5.56685 1.68638 0)
(4.71333 1.65593 0)
(5.0827 1.81079 0)
(4.17572 1.73603 0)
(4.56927 1.9201 0)
(3.6152 1.78381 0)
(4.02798 2.00334 0)
(3.0366 1.78467 0)
(3.46121 2.04678 0)
(2.4451 1.72209 0)
(2.87214 2.03426 0)
(1.8447 1.58035 0)
(2.26387 1.94883 0)
(1.23703 1.35198 0)
(1.64134 1.77635 0)
(0.619721 1.02994 0)
(0.98782 1.51559 0)
(0.430192 1.14569 0)
(9.98331 0.0845725 0)
(9.99314 0.0614492 0)
(9.94806 0.137004 0)
(9.96948 0.120136 0)
(9.89293 0.188116 0)
(9.92556 0.176404 0)
(9.81883 0.240094 0)
(9.86175 0.232728 0)
(9.72644 0.294156 0)
(9.7794 0.290902 0)
(9.61585 0.351034 0)
(9.67925 0.351789 0)
(9.48692 0.411451 0)
(9.56131 0.41611 0)
(9.33937 0.476172 0)
(9.4253 0.484668 0)
(9.1728 0.545959 0)
(9.27084 0.558292 0)
(8.98668 0.621551 0)
(9.09751 0.637785 0)
(8.78036 0.703676 0)
(8.90475 0.723937 0)
(8.55311 0.793041 0)
(8.69192 0.817523 0)
(8.30411 0.890306 0)
(8.45829 0.919288 0)
(8.03248 0.996028 0)
(8.20306 1.02991 0)
(7.7373 1.11059 0)
(7.9254 1.14993 0)
(7.4176 1.23408 0)
(7.62441 1.27967 0)
(7.07237 1.36611 0)
(7.29913 1.41909 0)
(6.70058 1.50564 0)
(6.94857 1.5676 0)
(6.30123 1.65061 0)
(6.57163 1.7238 0)
(5.87335 1.79765 0)
(6.16715 1.88514 0)
(5.4161 1.94161 0)
(5.73388 2.04754 0)
(4.92891 2.07516 0)
(5.27053 2.20492 0)
(4.41154 2.18841 0)
(4.77579 2.34876 0)
(3.86423 2.26867 0)
(4.24849 2.46779 0)
(3.28758 2.3008 0)
(3.68766 2.54795 0)
(2.68236 2.26827 0)
(3.09273 2.57298 0)
(2.04915 2.15591 0)
(2.46322 2.5261 0)
(1.38854 1.95695 0)
(1.80262 2.39318 0)
(0.701206 1.65874 0)
(1.08932 2.17289 0)
(0.469822 1.83247 0)
(9.98258 0.0976993 0)
(9.99296 0.0699816 0)
(9.94729 0.159979 0)
(9.96914 0.137833 0)
(9.89333 0.221455 0)
(9.92578 0.204124 0)
(9.8211 0.284009 0)
(9.86357 0.27073 0)
(9.73115 0.348986 0)
(9.78362 0.339372 0)
(9.62361 0.417287 0)
(9.68649 0.411139 0)
(9.49836 0.489746 0)
(9.5722 0.486902 0)
(9.35517 0.567221 0)
(9.44051 0.567562 0)
(9.19368 0.650578 0)
(9.29111 0.654043 0)
(9.01342 0.740665 0)
(9.12361 0.74725 0)
(8.81382 0.838318 0)
(8.93752 0.848076 0)
(8.59424 0.944347 0)
(8.73227 0.957392 0)
(8.35397 1.05951 0)
(8.50719 1.07604 0)
(8.09225 1.18447 0)
(8.26156 1.20478 0)
(7.80827 1.31971 0)
(7.99462 1.34427 0)
(7.50114 1.46542 0)
(7.70551 1.49493 0)
(7.16993 1.62134 0)
(7.39331 1.65685 0)
(6.81358 1.78657 0)
(7.05695 1.8296 0)
(6.43087 1.95921 0)
(6.69519 2.01198 0)
(6.02039 2.13604 0)
(6.30654 2.20171 0)
(5.58045 2.31207 0)
(5.88914 2.39503 0)
(5.1091 2.48009 0)
(5.44068 2.58623 0)
(4.60411 2.63026 0)
(4.95839 2.76716 0)
(4.06307 2.74992 0)
(4.43903 2.9269 0)
(3.48355 2.82388 0)
(3.87909 3.05162 0)
(2.86341 2.83551 0)
(3.27527 3.12499 0)
(2.20133 2.769 0)
(2.62458 3.1297 0)
(1.4981 2.6159 0)
(1.93044 3.0498 0)
(0.757859 2.35502 0)
(1.16693 2.88078 0)
(0.498132 2.57475 0)
(9.98244 0.110864 0)
(9.99299 0.0785807 0)
(9.94756 0.182566 0)
(9.96944 0.155328 0)
(9.89501 0.253947 0)
(9.92704 0.231117 0)
(9.82501 0.326678 0)
(9.86673 0.307562 0)
(9.73794 0.402145 0)
(9.78955 0.386289 0)
(9.63397 0.481402 0)
(9.6959 0.46852 0)
(9.51301 0.565403 0)
(9.5858 0.555272 0)
(9.37485 0.655108 0)
(9.45907 0.647541 0)
(9.21919 0.75148 0)
(9.31544 0.74634 0)
(9.04558 0.855468 0)
(9.15455 0.852673 0)
(8.85352 0.968003 0)
(8.97598 0.967524 0)
(8.64242 1.08999 0)
(8.77918 1.09186 0)
(8.4116 1.22227 0)
(8.56355 1.22662 0)
(8.16034 1.36562 0)
(8.32838 1.37267 0)
(7.88783 1.52061 0)
(8.0729 1.53076 0)
(7.59317 1.68757 0)
(7.79623 1.70146 0)
(7.27532 1.86643 0)
(7.49736 1.88502 0)
(6.93306 2.05648 0)
(7.17507 2.08123 0)
(6.56488 2.25614 0)
(6.82785 2.28922 0)
(6.16885 2.46259 0)
(6.45378 2.50714 0)
(5.7425 2.67136 0)
(6.05038 2.73179 0)
(5.28271 2.87581 0)
(5.61443 2.95818 0)
(4.78564 3.06672 0)
(5.14184 3.17901 0)
(4.24681 3.23195 0)
(4.62766 3.38414 0)
(3.66149 3.35648 0)
(4.06625 3.56033 0)
(3.02535 3.42324 0)
(3.45201 3.69123 0)
(2.33579 3.41464 0)
(2.77972 3.75836 0)
(1.594 3.31863 0)
(2.05307 3.74241 0)
(0.807149 3.10335 0)
(1.24164 3.63326 0)
(0.52507 3.3653 0)
(9.98267 0.123854 0)
(9.99313 0.0870665 0)
(9.94859 0.204588 0)
(9.97017 0.172423 0)
(9.89774 0.285404 0)
(9.92909 0.257239 0)
(9.83028 0.367871 0)
(9.87101 0.343052 0)
(9.74652 0.453396 0)
(9.79693 0.431423 0)
(9.64662 0.543151 0)
(9.7072 0.523657 0)
(9.53052 0.638201 0)
(9.60182 0.620892 0)
(9.39807 0.739602 0)
(9.48064 0.724221 0)
(9.24897 0.848405 0)
(9.34346 0.834743 0)
(9.08285 0.965651 0)
(9.18996 0.953549 0)
(8.89924 1.09236 0)
(9.01976 1.08172 0)
(8.69759 1.22954 0)
(8.83236 1.22031 0)
(8.47725 1.37815 0)
(8.62719 1.37037 0)
(8.23749 1.53904 0)
(8.40357 1.53287 0)
(7.97746 1.71295 0)
(8.16069 1.70871 0)
(7.69618 1.90037 0)
(7.89764 1.89861 0)
(7.39245 2.10145 0)
(7.61325 2.10305 0)
(7.06479 2.3158 0)
(7.30613 2.32213 0)
(6.71131 2.54228 0)
(6.97444 2.55539 0)
(6.32952 2.77868 0)
(6.61582 2.80157 0)
(5.91618 3.02129 0)
(6.22714 3.05827 0)
(5.46708 3.26443 0)
(5.80428 3.32149 0)
(4.97692 3.4999 0)
(5.34192 3.58513 0)
(4.4394 3.71644 0)
(4.83348 3.84028 0)
(3.84762 3.89947 0)
(4.27121 4.07465 0)
(3.19514 4.03118 0)
(3.64709 4.27203 0)
(2.47772 4.09131 0)
(2.95307 4.41241 0)
(1.69637 4.06242 0)
(2.19237 4.47197 0)
(0.860472 3.89967 0)
(1.32924 4.43263 0)
(0.55784 4.20808 0)
(9.98315 0.13651 0)
(9.99337 0.0953182 0)
(9.95018 0.225886 0)
(9.97122 0.188958 0)
(9.90131 0.315669 0)
(9.93176 0.282343 0)
(9.83673 0.407402 0)
(9.87622 0.377034 0)
(9.75667 0.502513 0)
(9.80559 0.474562 0)
(9.6613 0.60226 0)
(9.72018 0.576291 0)
(9.55061 0.70781 0)
(9.61998 0.683457 0)
(9.42447 0.820305 0)
(9.50492 0.797245 0)
(9.28264 0.940882 0)
(9.37481 0.918833 0)
(9.1248 1.07067 0)
(9.22942 1.0494 0)
(8.95053 1.21079 0)
(9.06839 1.1901 0)
(8.75931 1.36234 0)
(8.89131 1.34212 0)
(8.55053 1.52639 0)
(8.69762 1.50658 0)
(8.32346 1.70394 0)
(8.48667 1.6846 0)
(8.07721 1.89589 0)
(8.25768 1.87723 0)
(7.81069 2.10295 0)
(8.00965 2.08541 0)
(7.52256 2.32556 0)
(7.74135 2.30988 0)
(7.21107 2.56375 0)
(7.45117 2.55114 0)
(6.87394 2.81695 0)
(7.13703 2.80925 0)
(6.50814 3.08371 0)
(6.79614 3.08368 0)
(6.10966 3.36135 0)
(6.42477 3.37302 0)
(5.67323 3.64545 0)
(6.01797 3.67455 0)
(5.19214 3.92924 0)
(5.56923 3.98374 0)
(4.65816 4.20282 0)
(5.07028 4.2934 0)
(4.06201 4.45234 0)
(4.51106 4.59278 0)
(3.39436 4.65943 0)
(3.88042 4.86633 0)
(2.64816 4.80056 0)
(3.16614 5.0927 0)
(1.82253 4.85119 0)
(2.36885 5.24288 0)
(0.927822 4.7504 0)
(1.44528 5.28824 0)
(0.603792 5.11683 0)
(9.98381 0.148709 0)
(9.99366 0.103249 0)
(9.95222 0.246318 0)
(9.97252 0.204798 0)
(9.9056 0.344591 0)
(9.93494 0.306292 0)
(9.84418 0.44509 0)
(9.88222 0.409351 0)
(9.76818 0.549268 0)
(9.81534 0.515513 0)
(9.67777 0.658454 0)
(9.73461 0.626187 0)
(9.57298 0.773901 0)
(9.64005 0.742689 0)
(9.45372 0.896833 0)
(9.53159 0.866285 0)
(9.31981 1.02847 0)
(9.40914 0.998228 0)
(9.17099 1.17002 0)
(9.2725 1.13977 0)
(9.00688 1.32269 0)
(9.12141 1.29217 0)
(8.82704 1.4877 0)
(8.95547 1.45667 0)
(8.63089 1.66624 0)
(8.77423 1.63455 0)
(8.41771 1.85945 0)
(8.57708 1.82704 0)
(8.18662 2.06843 0)
(8.36324 2.03538 0)
(7.93648 2.29416 0)
(8.13175 2.26073 0)
(7.66582 2.53744 0)
(7.88132 2.50417 0)
(7.3727 2.7988 0)
(7.61025 2.76665 0)
(7.05452 3.07835 0)
(7.31627 3.04884 0)
(6.7078 3.37559 0)
(6.9963 3.35107 0)
(6.32786 3.6891 0)
(6.64619 3.67312 0)
(5.90848 4.01607 0)
(6.26029 4.01383 0)
(5.4415 4.35162 0)
(5.83106 4.37064 0)
(4.91665 4.68784 0)
(5.34855 4.73878 0)
(4.3216 5.01244 0)
(4.80007 5.10995 0)
(3.64288 5.30718 0)
(4.17044 5.47048 0)
(2.86824 5.54546 0)
(3.44111 5.79891 0)
(1.99162 5.69415 0)
(2.60628 6.0614 0)
(1.02126 5.67159 0)
(1.60994 6.2162 0)
(0.673383 6.11709 0)
(9.98459 0.160352 0)
(9.994 0.110794 0)
(9.95461 0.265759 0)
(9.974 0.219837 0)
(9.91048 0.372028 0)
(9.93853 0.328959 0)
(9.85249 0.480765 0)
(9.88888 0.43986 0)
(9.78088 0.593455 0)
(9.82604 0.554102 0)
(9.69582 0.711487 0)
(9.75032 0.673133 0)
(9.59737 0.836186 0)
(9.66177 0.798336 0)
(9.4855 0.968849 0)
(9.56038 0.931044 0)
(9.3601 1.11077 0)
(9.44609 1.07258 0)
(9.22095 1.26323 0)
(9.3188 1.22427 0)
(9.06778 1.42754 0)
(9.17829 1.38743 0)
(8.90018 1.60501 0)
(9.02429 1.56343 0)
(8.71765 1.79694 0)
(8.85638 1.75363 0)
(8.51955 2.00467 0)
(8.67406 1.95941 0)
(8.30502 2.2295 0)
(8.47662 2.18219 0)
(8.07293 2.4727 0)
(8.26316 2.4234 0)
(7.82179 2.73548 0)
(8.03244 2.68446 0)
(7.54957 3.01893 0)
(7.78277 2.96678 0)
(7.25353 3.32396 0)
(7.51188 3.27176 0)
(6.92991 3.65116 0)
(7.2166 3.60065 0)
(6.57359 4.00059 0)
(6.8926 3.95457 0)
(6.17759 4.3714 0)
(6.53388 4.33418 0)
(5.73252 4.76122 0)
(6.13219 4.7394 0)
(5.22597 5.16509 0)
(5.67623 5.16863 0)
(4.64202 5.57369 0)
(5.15069 5.61746 0)
(3.96139 5.97076 0)
(4.53562 6.07633 0)
(3.16305 6.32839 0)
(3.80369 6.52673 0)
(2.22955 6.60467 0)
(2.93667 6.93302 0)
(1.1593 6.69051 0)
(1.85488 7.23969 0)
(0.785281 7.25254 0)
(9.98549 0.171362 0)
(9.99438 0.117902 0)
(9.95728 0.284103 0)
(9.97565 0.233986 0)
(9.91586 0.397854 0)
(9.94246 0.350236 0)
(9.86155 0.514277 0)
(9.89609 0.468433 0)
(9.79461 0.634894 0)
(9.83754 0.590174 0)
(9.71523 0.761141 0)
(9.76713 0.716943 0)
(9.62351 0.894407 0)
(9.68492 0.850175 0)
(9.51949 1.03605 0)
(9.59098 0.991263 0)
(9.40311 1.18743 0)
(9.48531 1.14159 0)
(9.27423 1.3499 0)
(9.36787 1.30253 0)
(9.13266 1.52485 0)
(9.23854 1.47549 0)
(8.97809 1.71367 0)
(9.09714 1.66189 0)
(8.81011 1.91782 0)
(8.94336 1.86321 0)
(8.62818 2.13877 0)
(8.7768 2.08097 0)
(8.43153 2.37805 0)
(8.5969 2.31676 0)
(8.21914 2.63723 0)
(8.40287 2.57226 0)
(7.9896 2.91796 0)
(8.19363 2.84923 0)
(7.74095 3.22191 0)
(7.96766 3.14959 0)
(7.47052 3.55084 0)
(7.72284 3.47539 0)
(7.17455 3.90653 0)
(7.45622 3.82891 0)
(6.84784 4.29067 0)
(7.16366 4.21262 0)
(6.48313 4.70476 0)
(6.8393 4.62923 0)
(6.07026 5.14956 0)
(6.47485 5.08148 0)
(5.59511 5.62429 0)
(6.05849 5.57184 0)
(5.03816 6.12482 0)
(5.57313 6.10151 0)
(4.37301 6.64049 0)
(4.99451 6.66841 0)
(3.56552 7.14713 0)
(4.28502 7.26289 0)
(2.57648 7.59826 0)
(3.40698 7.85651 0)
(1.37576 7.8511 0)
(2.23641 8.38795 0)
(0.978375 8.60001 0)
(9.98646 0.181676 0)
(9.99478 0.124533 0)
(9.96017 0.301258 0)
(9.97741 0.247172 0)
(9.92164 0.421958 0)
(9.94665 0.370027 0)
(9.87123 0.545493 0)
(9.90376 0.494957 0)
(9.80921 0.673423 0)
(9.84971 0.623595 0)
(9.7358 0.807225 0)
(9.78484 0.757457 0)
(9.65115 0.948337 0)
(9.70928 0.898018 0)
(9.55536 1.09817 0)
(9.62311 1.04672 0)
(9.44843 1.25814 0)
(9.52642 1.20498 0)
(9.33033 1.42965 0)
(9.41926 1.37425 0)
(9.20095 1.61416 0)
(9.30161 1.55596 0)
(9.06009 1.81317 0)
(9.17337 1.75161 0)
(8.90747 2.02821 0)
(9.0344 1.96278 0)
(8.74268 2.26093 0)
(8.88441 2.19108 0)
(8.56512 2.51306 0)
(8.72304 2.43828 0)
(8.37395 2.78645 0)
(8.54969 2.70625 0)
(8.16796 3.08315 0)
(8.36352 2.9971 0)
(7.94548 3.40543 0)
(8.16333 3.31316 0)
(7.70411 3.75584 0)
(7.9474 3.65714 0)
(7.44049 4.13736 0)
(7.71326 4.03222 0)
(7.14982 4.55341 0)
(7.45742 4.44221 0)
(6.82525 5.00796 0)
(7.17484 4.89179 0)
(6.45684 5.50548 0)
(6.85818 5.38672 0)
(6.03002 6.05061 0)
(6.49658 5.93403 0)
(5.52304 6.64716 0)
(6.07345 6.54213 0)
(4.90303 7.29573 0)
(5.56317 7.2203 0)
(4.11998 7.98661 0)
(4.92089 7.97677 0)
(3.0992 8.68589 0)
(4.08716 8.80963 0)
(1.7413 9.22615 0)
(2.86417 9.68652 0)
(1.3444 10.3055 0)
(9.9875 0.191244 0)
(9.99521 0.130656 0)
(9.96324 0.31715 0)
(9.97926 0.259336 0)
(9.92776 0.444245 0)
(9.95106 0.388256 0)
(9.88141 0.574302 0)
(9.9118 0.519339 0)
(9.82452 0.708912 0)
(9.86242 0.654254 0)
(9.75732 0.849586 0)
(9.8033 0.794541 0)
(9.68003 0.997801 0)
(9.7346 0.941708 0)
(9.59278 1.15501 0)
(9.65647 1.09723 0)
(9.49567 1.32266 0)
(9.56908 1.26256 0)
(9.38876 1.50221 0)
(9.47254 1.43917 0)
(9.27204 1.69517 0)
(9.36695 1.62855 0)
(9.14545 1.9031 0)
(9.25234 1.83225 0)
(9.00886 2.12764 0)
(9.12869 2.05189 0)
(8.86203 2.37054 0)
(8.99593 2.28919 0)
(8.70458 2.6337 0)
(8.85388 2.54602 0)
(8.53593 2.91924 0)
(8.70221 2.82446 0)
(8.35522 3.22954 0)
(8.54044 3.12682 0)
(8.16119 3.56735 0)
(8.36778 3.45582 0)
(7.95203 3.93597 0)
(8.1831 3.81464 0)
(7.72512 4.33939 0)
(7.98475 4.20721 0)
(7.47668 4.78263 0)
(7.77029 4.63844 0)
(7.20118 5.27203 0)
(7.53624 5.11467 0)
(6.89034 5.81581 0)
(7.2774 5.64427 0)
(6.53146 6.42468 0)
(6.98595 6.23857 0)
(6.10425 7.1126 0)
(6.64952 6.91342 0)
(5.5747 7.89777 0)
(6.24805 7.69167 0)
(4.88226 8.80213 0)
(5.74235 8.60804 0)
(3.91109 9.84928 0)
(5.07306 9.71644 0)
(2.42412 10.9459 0)
(3.97462 11.1085 0)
(2.13285 12.6798 0)
(9.98858 0.200026 0)
(9.99565 0.136248 0)
(9.96646 0.331716 0)
(9.98119 0.270434 0)
(9.93413 0.464633 0)
(9.95564 0.40486 0)
(9.89201 0.600595 0)
(9.92013 0.541504 0)
(9.8404 0.741222 0)
(9.87558 0.68206 0)
(9.77961 0.888048 0)
(9.82238 0.82809 0)
(9.70989 1.04258 0)
(9.76074 0.981121 0)
(9.63143 1.20629 0)
(9.69089 1.14265 0)
(9.54442 1.38066 0)
(9.61306 1.31415 0)
(9.44901 1.56719 0)
(9.52747 1.49711 0)
(9.34532 1.7674 0)
(9.43431 1.69304 0)
(9.23343 1.98292 0)
(9.33375 1.90352 0)
(9.11338 2.21543 0)
(9.22595 2.13021 0)
(8.98514 2.46678 0)
(9.11103 2.37488 0)
(8.84858 2.73899 0)
(8.98904 2.63947 0)
(8.70347 3.03435 0)
(8.85999 2.92617 0)
(8.54938 3.35548 0)
(8.72378 3.23744 0)
(8.38562 3.70551 0)
(8.58018 3.57621 0)
(8.21119 4.08824 0)
(8.4288 3.94599 0)
(8.02455 4.50843 0)
(8.26898 4.35115 0)
(7.82349 4.97224 0)
(8.09978 4.79725 0)
(7.60474 5.48784 0)
(7.9198 5.29164 0)
(7.36337 6.0664 0)
(7.72711 5.84425 0)
(7.09168 6.72376 0)
(7.51896 6.46912 0)
(6.77695 7.48346 0)
(7.29139 7.18695 0)
(6.3964 8.38297 0)
(7.03948 8.03041 0)
(5.90424 9.48846 0)
(6.75449 9.05673 0)
(5.18963 10.9508 0)
(6.45689 10.3837 0)
(3.88769 13.2646 0)
(6.20524 12.3536 0)
(5.29743 16.4875 0)
(-0.715085 0.523679 0)
(-0.470119 0.700381 0)
(-1.61802 0.587511 0)
(-1.26114 0.863481 0)
(-2.58889 0.584177 0)
(-2.23378 0.906526 0)
(-3.59358 0.565388 0)
(-3.22573 0.915938 0)
(-4.6124 0.540171 0)
(-4.2349 0.906889 0)
(-5.63185 0.51144 0)
(-5.24791 0.88601 0)
(-6.64101 0.480249 0)
(-6.25387 0.856358 0)
(-7.63016 0.44704 0)
(-7.24307 0.819554 0)
(-8.58996 0.411977 0)
(-8.20632 0.776457 0)
(-9.51093 0.375065 0)
(-9.13444 0.727437 0)
(-10.383 0.336212 0)
(-10.0178 0.672532 0)
(-11.1952 0.295283 0)
(-10.8458 0.611569 0)
(-11.9355 0.252139 0)
(-11.607 0.544279 0)
(-12.5908 0.20668 0)
(-12.2886 0.47042 0)
(-13.147 0.1589 0)
(-12.8767 0.389888 0)
(-13.5896 0.10887 0)
(-13.3568 0.302873 0)
(-13.9038 0.0567315 0)
(-13.7142 0.20992 0)
(-14.0757 0.00244267 0)
(-13.9338 0.112142 0)
(-14.0884 -0.0551896 0)
(-14.001 0.00808074 0)
(-13.934 -0.115937 0)
(-13.9029 -0.0960332 0)
(-13.5999 -0.178359 0)
(-13.6338 -0.202884 0)
(-13.0801 -0.242751 0)
(-13.1855 -0.308169 0)
(-12.3683 -0.310568 0)
(-12.553 -0.412091 0)
(-11.4549 -0.384939 0)
(-11.7303 -0.516239 0)
(-10.3252 -0.47279 0)
(-10.7048 -0.6235 0)
(-8.95074 -0.591914 0)
(-9.44652 -0.740619 0)
(-7.25595 -0.784871 0)
(-7.9085 -0.891672 0)
(-5.01623 -1.12721 0)
(-6.05246 -1.15054 0)
(-1.73171 -1.75817 0)
(-3.77781 -1.6474 0)
(0.809924 -2.45196 0)
(-0.919462 1.22613 0)
(-0.579395 1.60094 0)
(-1.86558 1.32565 0)
(-1.39141 1.76825 0)
(-2.84145 1.35196 0)
(-2.36434 1.81772 0)
(-3.83794 1.34916 0)
(-3.33429 1.82441 0)
(-4.84228 1.32688 0)
(-4.31303 1.80089 0)
(-5.84305 1.29048 0)
(-5.29004 1.75579 0)
(-6.83021 1.24284 0)
(-6.25659 1.69404 0)
(-7.7945 1.18553 0)
(-7.20435 1.61851 0)
(-8.72689 1.11931 0)
(-8.12515 1.53074 0)
(-9.61811 1.04437 0)
(-9.01057 1.43138 0)
(-10.4582 0.960502 0)
(-9.8515 1.3204 0)
(-11.2361 0.8673 0)
(-10.6378 1.19738 0)
(-11.9399 0.764313 0)
(-11.3583 1.06171 0)
(-12.5562 0.651235 0)
(-12.0001 0.912829 0)
(-13.0708 0.528095 0)
(-12.5494 0.750533 0)
(-13.4687 0.395406 0)
(-12.9915 0.575204 0)
(-13.7352 0.254193 0)
(-13.3113 0.387991 0)
(-13.8555 0.105723 0)
(-13.494 0.190601 0)
(-13.8194 -0.0490149 0)
(-13.5249 -0.0149337 0)
(-13.6147 -0.206391 0)
(-13.3935 -0.223288 0)
(-13.2379 -0.362055 0)
(-13.0964 -0.431734 0)
(-12.6829 -0.515137 0)
(-12.6271 -0.63725 0)
(-11.9438 -0.666874 0)
(-11.9815 -0.839938 0)
(-11.013 -0.820678 0)
(-11.1543 -1.04238 0)
(-9.87831 -0.985302 0)
(-10.1356 -1.2497 0)
(-8.51578 -1.1873 0)
(-8.90426 -1.47482 0)
(-6.87051 -1.49404 0)
(-7.43307 -1.75729 0)
(-4.84993 -2.01655 0)
(-5.71277 -2.1885 0)
(-2.3892 -2.82789 0)
(-3.69819 -2.88162 0)
(-0.629142 -3.87247 0)
(-0.943991 2.12609 0)
(-0.582257 2.52552 0)
(-1.88608 2.2294 0)
(-1.36844 2.66918 0)
(-2.83302 2.25419 0)
(-2.30913 2.70189 0)
(-3.78525 2.24032 0)
(-3.2271 2.69253 0)
(-4.73663 2.19663 0)
(-4.14676 2.64774 0)
(-5.67989 2.12992 0)
(-5.06027 2.57559 0)
(-6.6076 2.04441 0)
(-5.96203 2.48129 0)
(-7.51239 1.9426 0)
(-6.84598 2.36816 0)
(-8.38664 1.82577 0)
(-7.70557 2.23799 0)
(-9.22215 1.69423 0)
(-8.53358 2.09132 0)
(-10.0098 1.54768 0)
(-9.32171 1.92784 0)
(-10.7392 1.38545 0)
(-10.0604 1.74663 0)
(-11.3987 1.20685 0)
(-10.7383 1.54657 0)
(-11.9752 1.01145 0)
(-11.3428 1.32666 0)
(-12.4544 0.799457 0)
(-11.8595 1.08642 0)
(-12.8214 0.571963 0)
(-12.2731 0.826331 0)
(-13.061 0.331071 0)
(-12.568 0.548129 0)
(-13.1593 0.0799381 0)
(-12.7288 0.254689 0)
(-13.1051 -0.177044 0)
(-12.7399 -0.0494465 0)
(-12.8887 -0.435575 0)
(-12.5943 -0.357848 0)
(-12.5052 -0.692153 0)
(-12.289 -0.664651 0)
(-11.9508 -0.945084 0)
(-11.8191 -0.965966 0)
(-11.2216 -1.19593 0)
(-11.1823 -1.26204 0)
(-10.3125 -1.4493 0)
(-10.375 -1.55627 0)
(-9.21512 -1.71614 0)
(-9.39006 -1.85532 0)
(-7.91488 -2.02597 0)
(-8.21571 -2.17545 0)
(-6.38862 -2.44515 0)
(-6.84372 -2.56029 0)
(-4.62526 -3.06807 0)
(-5.29368 -3.09434 0)
(-2.67271 -3.93651 0)
(-3.58021 -3.86096 0)
(-1.36738 -4.83803 0)
(-0.896822 3.02558 0)
(-0.541674 3.4039 0)
(-1.79118 3.10906 0)
(-1.26928 3.52446 0)
(-2.68114 3.11309 0)
(-2.14866 3.53286 0)
(-3.56803 3.07657 0)
(-2.99291 3.50108 0)
(-4.44934 3.00639 0)
(-3.83711 3.43223 0)
(-5.32137 2.90923 0)
(-4.67439 3.33347 0)
(-6.17948 2.78945 0)
(-5.50191 3.20946 0)
(-7.01833 2.64962 0)
(-6.31556 3.06319 0)
(-7.83173 2.49085 0)
(-7.11024 2.89601 0)
(-8.61238 2.31311 0)
(-7.87959 2.70793 0)
(-9.35158 2.11551 0)
(-8.61573 2.49791 0)
(-10.039 1.89674 0)
(-9.30905 2.26426 0)
(-10.6626 1.65541 0)
(-9.94801 2.00505 0)
(-11.2086 1.3905 0)
(-10.5192 1.71861 0)
(-11.6618 1.10181 0)
(-11.0073 1.40409 0)
(-12.0062 0.790388 0)
(-11.3962 1.062 0)
(-12.2258 0.458844 0)
(-11.6691 0.694829 0)
(-12.3063 0.111544 0)
(-11.8098 0.307218 0)
(-12.2369 -0.244983 0)
(-11.802 -0.0936593 0)
(-12.0101 -0.602611 0)
(-11.643 -0.498889 0)
(-11.6237 -0.955103 0)
(-11.3321 -0.899307 0)
(-11.0763 -1.30073 0)
(-10.8668 -1.2905 0)
(-10.3662 -1.64172 0)
(-10.2465 -1.67313 0)
(-9.49022 -1.98385 0)
(-9.46928 -2.05141 0)
(-8.44378 -2.33944 0)
(-8.53071 -2.43283 0)
(-7.22217 -2.73792 0)
(-7.42657 -2.83372 0)
(-5.82905 -3.23811 0)
(-6.16321 -3.29324 0)
(-4.2994 -3.91318 0)
(-4.78078 -3.88012 0)
(-2.71867 -4.77299 0)
(-3.33957 -4.65379 0)
(-1.67525 -5.55653 0)
(-0.814758 3.86235 0)
(-0.480787 4.20191 0)
(-1.62939 3.92058 0)
(-1.127 4.3035 0)
(-2.43887 3.89974 0)
(-1.92103 4.28868 0)
(-3.24385 3.83935 0)
(-2.67408 4.23496 0)
(-4.04342 3.74441 0)
(-3.43025 4.14396 0)
(-4.83601 3.62072 0)
(-4.18189 4.02232 0)
(-5.61889 3.47188 0)
(-4.92817 3.8738 0)
(-6.38813 3.29975 0)
(-5.66622 3.70054 0)
(-7.13845 3.10465 0)
(-6.39182 3.503 0)
(-7.86294 2.88562 0)
(-7.0991 3.28018 0)
(-8.55289 2.64078 0)
(-7.78027 3.03001 0)
(-9.19761 2.36786 0)
(-8.42551 2.74973 0)
(-9.7844 2.06466 0)
(-9.02286 2.43646 0)
(-10.2987 1.72965 0)
(-9.55818 2.08779 0)
(-10.7243 1.36262 0)
(-10.0155 1.70243 0)
(-11.0443 0.965389 0)
(-10.3774 1.28098 0)
(-11.242 0.542372 0)
(-10.6265 0.826938 0)
(-11.3034 0.100808 0)
(-10.7452 0.347222 0)
(-11.2186 -0.349708 0)
(-10.717 -0.147678 0)
(-10.983 -0.798746 0)
(-10.5454 -0.645379 0)
(-10.5974 -1.23879 0)
(-10.2316 -1.13346 0)
(-10.0633 -1.66798 0)
(-9.77584 -1.60718 0)
(-9.38084 -2.08922 0)
(-9.17982 -2.06823 0)
(-8.54834 -2.50878 0)
(-8.44245 -2.52197 0)
(-7.56418 -2.93817 0)
(-7.56138 -2.97598 0)
(-6.43196 -3.40219 0)
(-6.53783 -3.44382 0)
(-5.17406 -3.94745 0)
(-5.38787 -3.95505 0)
(-3.85084 -4.62807 0)
(-4.1641 -4.55985 0)
(-2.56374 -5.4293 0)
(-2.95646 -5.29935 0)
(-1.66982 -6.08492 0)
(-0.709749 4.60828 0)
(-0.40853 4.89706 0)
(-1.42351 4.64576 0)
(-0.956453 4.98608 0)
(-2.13488 4.60324 0)
(-1.6469 4.9529 0)
(-2.84433 4.52241 0)
(-2.29492 4.88174 0)
(-3.5518 4.40723 0)
(-2.95218 4.7737 0)
(-4.2569 4.26266 0)
(-3.60916 4.63513 0)
(-4.95795 4.09124 0)
(-4.26656 4.4687 0)
(-5.65184 3.89379 0)
(-4.92218 4.27546 0)
(-6.33377 3.66951 0)
(-5.57232 4.05466 0)
(-6.99702 3.41631 0)
(-6.21135 3.80406 0)
(-7.63279 3.13121 0)
(-6.83157 3.52033 0)
(-8.23011 2.81088 0)
(-7.42303 3.19951 0)
(-8.7758 2.45224 0)
(-7.97351 2.83766 0)
(-9.25465 2.05314 0)
(-8.46848 2.43153 0)
(-9.64973 1.61313 0)
(-8.89132 1.97934 0)
(-9.94308 1.13446 0)
(-9.22377 1.48173 0)
(-10.1172 0.623194 0)
(-9.44687 0.943312 0)
(-10.1581 0.089607 0)
(-9.54181 0.373891 0)
(-10.0578 -0.452663 0)
(-9.49169 -0.211603 0)
(-9.81474 -0.989225 0)
(-9.30862 -0.79653 0)
(-9.43371 -1.51081 0)
(-8.99473 -1.36484 0)
(-8.91921 -2.01633 0)
(-8.55406 -1.91223 0)
(-8.27293 -2.51003 0)
(-7.99003 -2.44237 0)
(-7.49394 -2.99865 0)
(-7.30204 -2.96228 0)
(-6.58238 -3.4915 0)
(-6.48854 -3.47905 0)
(-5.54741 -4.00573 0)
(-5.55409 -4.00151 0)
(-4.42266 -4.57302 0)
(-4.52034 -4.54681 0)
(-3.28136 -5.23025 0)
(-3.44572 -5.14614 0)
(-2.23013 -5.94367 0)
(-2.43474 -5.82661 0)
(-1.42637 -6.47763 0)
(-0.58822 5.24571 0)
(-0.329402 5.47319 0)
(-1.18626 5.27006 0)
(-0.765892 5.55799 0)
(-1.78617 5.21196 0)
(-1.33899 5.51305 0)
(-2.38862 5.11657 0)
(-1.87078 5.43097 0)
(-2.99419 4.98745 0)
(-2.41936 5.31275 0)
(-3.60322 4.82879 0)
(-2.97273 5.16444 0)
(-4.2146 4.64193 0)
(-3.53301 4.98751 0)
(-4.82571 4.42641 0)
(-4.0983 4.78178 0)
(-5.43202 4.18011 0)
(-4.66523 4.54515 0)
(-6.02696 3.89958 0)
(-5.22839 4.27398 0)
(-6.60175 3.58057 0)
(-5.78022 3.96361 0)
(-7.14535 3.21854 0)
(-6.31091 3.60884 0)
(-7.64436 2.80938 0)
(-6.80828 3.20454 0)
(-8.08315 2.35022 0)
(-7.25775 2.74652 0)
(-8.44415 1.84031 0)
(-7.6424 2.23237 0)
(-8.70849 1.28254 0)
(-7.94308 1.66263 0)
(-8.85765 0.685285 0)
(-8.1388 1.04298 0)
(-8.87725 0.063211 0)
(-8.20844 0.386675 0)
(-8.76153 -0.565129 0)
(-8.13494 -0.285312 0)
(-8.51283 -1.18141 0)
(-7.94211 -0.951209 0)
(-8.14051 -1.77511 0)
(-7.63176 -1.59093 0)
(-7.6522 -2.34682 0)
(-7.21199 -2.20176 0)
(-7.05048 -2.90297 0)
(-6.68754 -2.79071 0)
(-6.33422 -3.45082 0)
(-6.05744 -3.36714 0)
(-5.50418 -3.99655 0)
(-5.3199 -3.93714 0)
(-4.57238 -4.54801 0)
(-4.48095 -4.50361 0)
(-3.57822 -5.12098 0)
(-3.56511 -5.06986 0)
(-2.59895 -5.73702 0)
(-2.63179 -5.64918 0)
(-1.74059 -6.34897 0)
(-1.78671 -6.25714 0)
(-0.997232 -6.772 0)
(-0.45474 5.76176 0)
(-0.246312 5.91858 0)
(-0.925987 5.78152 0)
(-0.560799 6.00864 0)
(-1.40388 5.71511 0)
(-1.00614 5.95927 0)
(-1.8895 5.61241 0)
(-1.41241 5.87369 0)
(-2.38403 5.4768 0)
(-1.84366 5.75295 0)
(-2.88835 5.31166 0)
(-2.28494 5.60275 0)
(-3.40175 5.11697 0)
(-2.7399 5.42317 0)
(-3.92186 4.89095 0)
(-3.20672 5.21272 0)
(-4.44441 4.63004 0)
(-3.68227 4.96788 0)
(-4.96303 4.32939 0)
(-4.16136 4.68363 0)
(-5.46918 3.98343 0)
(-4.63673 4.35396 0)
(-5.95207 3.58638 0)
(-5.09899 3.97245 0)
(-6.39846 3.13301 0)
(-5.53646 3.53273 0)
(-6.79263 2.61955 0)
(-5.93494 3.02947 0)
(-7.11658 2.04479 0)
(-6.27767 2.45942 0)
(-7.35046 1.41198 0)
(-6.54474 1.82268 0)
(-7.47434 0.732091 0)
(-6.71237 1.12575 0)
(-7.47198 0.0252468 0)
(-6.75568 0.385135 0)
(-7.34167 -0.683661 0)
(-6.65833 -0.368312 0)
(-7.08955 -1.37158 0)
(-6.45889 -1.10802 0)
(-6.73054 -2.0273 0)
(-6.15693 -1.80894 0)
(-6.27491 -2.65451 0)
(-5.76448 -2.4719 0)
(-5.72531 -3.26293 0)
(-5.28675 -3.10888 0)
(-5.0794 -3.86042 0)
(-4.72152 -3.73223 0)
(-4.33763 -4.44947 0)
(-4.06608 -4.34651 0)
(-3.51277 -5.02792 0)
(-3.32639 -4.94809 0)
(-2.64675 -5.59593 0)
(-2.5291 -5.5255 0)
(-1.81389 -6.16141 0)
(-1.73069 -6.07702 0)
(-1.11727 -6.66843 0)
(-1.02812 -6.60654 0)
(-0.420531 -6.98901 0)
(-0.312676 6.14695 0)
(-0.161494 6.22482 0)
(-0.648866 6.17093 0)
(-0.34533 6.33014 0)
(-0.99628 6.10389 0)
(-0.655273 6.28366 0)
(-1.35675 6.00173 0)
(-0.928369 6.20231 0)
(-1.73208 5.86764 0)
(-1.235 6.08704 0)
(-2.12367 5.70401 0)
(-1.55667 5.94309 0)
(-2.53105 5.50941 0)
(-1.89894 5.76886 0)
(-2.95205 5.28064 0)
(-2.25973 5.56154 0)
(-3.3826 5.01273 0)
(-2.63611 5.31618 0)
(-3.81662 4.69949 0)
(-3.02309 5.02645 0)
(-4.24599 4.33406 0)
(-3.41376 4.68509 0)
(-4.66058 3.90943 0)
(-3.79948 4.28464 0)
(-5.04779 3.41905 0)
(-4.16954 3.81741 0)
(-5.3922 2.85801 0)
(-4.51075 3.27671 0)
(-5.67566 2.22431 0)
(-4.80726 2.6581 0)
(-5.87778 1.52124 0)
(-5.03904 1.961 0)
(-5.97705 0.762419 0)
(-5.17853 1.19208 0)
(-5.95475 -0.024899 0)
(-5.19447 0.37059 0)
(-5.81202 -0.807774 0)
(-5.07309 -0.459234 0)
(-5.56022 -1.55782 0)
(-4.87342 -1.26462 0)
(-5.22032 -2.26399 0)
(-4.58741 -2.01535 0)
(-4.8041 -2.93521 0)
(-4.22993 -2.71868 0)
(-4.31304 -3.58564 0)
(-3.80573 -3.39316 0)
(-3.74295 -4.22379 0)
(-3.31058 -4.05447 0)
(-3.09366 -4.8477 0)
(-2.74089 -4.70484 0)
(-2.3773 -5.44496 0)
(-2.10128 -5.33409 0)
(-1.63645 -6.00196 0)