/*--------------------------------*- C++ -*----------------------------------*\
  =========                 |
  \\      /  F ield         | OpenFOAM: The Open Source CFD Toolbox
   \\    /   O peration     | Website:  https://openfoam.org
    \\  /    A nd           | Version:  7
     \\/     M anipulation  |
\*---------------------------------------------------------------------------*/
FoamFile
{
    version     2.0;
    format      ascii;
    class       volVectorField;
    location    "1.77";
    object      U;
}
// * * * * * * * * * * * * * * * * * * * * * * * * * * * * * * * * * * * * * //

dimensions      [0 1 -1 0 0 0 0];

internalField   nonuniform List<vector> 
12013
(
(0.100278 -7.85016e-05 0)
(0.101438 -0.000147879 0)
(0.10335 -0.000213621 0)
(0.105851 -0.000274874 0)
(0.108891 -0.000332319 0)
(0.112413 -0.000386148 0)
(0.116362 -0.000436384 0)
(0.120687 -0.000483084 0)
(0.125339 -0.000526354 0)
(0.130274 -0.000566365 0)
(0.135451 -0.000603359 0)
(0.140834 -0.000637638 0)
(0.146392 -0.000669546 0)
(0.152098 -0.00069945 0)
(0.157929 -0.000727723 0)
(0.163868 -0.000754724 0)
(0.1699 -0.000780785 0)
(0.176012 -0.000806204 0)
(0.182197 -0.000831235 0)
(0.188448 -0.000856086 0)
(0.194759 -0.000880919 0)
(0.201127 -0.000905853 0)
(0.207548 -0.000930965 0)
(0.214021 -0.000956296 0)
(0.220542 -0.000981854 0)
(0.227111 -0.00100762 0)
(0.233724 -0.00103356 0)
(0.240379 -0.00105961 0)
(0.247073 -0.00108569 0)
(0.253804 -0.00111173 0)
(0.260569 -0.00113762 0)
(0.267363 -0.00116326 0)
(0.274182 -0.00118857 0)
(0.281023 -0.00121341 0)
(0.287882 -0.00123768 0)
(0.294753 -0.00126126 0)
(0.301631 -0.00128404 0)
(0.308512 -0.00130588 0)
(0.315391 -0.00132668 0)
(0.322262 -0.0013463 0)
(0.329121 -0.0013646 0)
(0.335961 -0.00138146 0)
(0.342778 -0.00139673 0)
(0.349566 -0.00141025 0)
(0.35632 -0.00142187 0)
(0.363036 -0.00143141 0)
(0.369707 -0.00143871 0)
(0.376328 -0.00144356 0)
(0.382895 -0.00144575 0)
(0.389402 -0.00144505 0)
(0.395845 -0.00144121 0)
(0.402218 -0.00143395 0)
(0.408517 -0.00142296 0)
(0.414735 -0.0014079 0)
(0.420869 -0.00138837 0)
(0.426911 -0.00136395 0)
(0.432858 -0.00133412 0)
(0.438703 -0.00129834 0)
(0.444439 -0.00125594 0)
(0.450059 -0.00120615 0)
(0.455556 -0.00114809 0)
(0.460921 -0.00108071 0)
(0.466143 -0.00100273 0)
(0.471211 -0.00091263 0)
(0.476111 -0.000808548 0)
(0.480825 -0.00068816 0)
(0.485333 -0.000548551 0)
(0.489608 -0.000385992 0)
(0.493619 -0.000195662 0)
(0.497323 2.88855e-05 0)
(0.500665 0.000297368 0)
(0.503569 0.000624152 0)
(0.505929 0.00103036 0)
(0.507591 0.00154879 0)
(0.508327 0.00223318 0)
(0.507785 0.00317626 0)
(0.505394 0.0045477 0)
(0.500161 0.00668371 0)
(0.49032 0.0103777 0)
(0.472862 0.018391 0)
(0.454097 0.0482587 0)
(0.100258 -0.00023973 0)
(0.101414 -0.000453296 0)
(0.103319 -0.000655013 0)
(0.105814 -0.000842748 0)
(0.108848 -0.00101875 0)
(0.112365 -0.00118361 0)
(0.116308 -0.0013374 0)
(0.120627 -0.00148031 0)
(0.125273 -0.00161267 0)
(0.130201 -0.00173503 0)
(0.13537 -0.00184812 0)
(0.140746 -0.00195288 0)
(0.146296 -0.00205037 0)
(0.151993 -0.00214171 0)
(0.157815 -0.00222805 0)
(0.163745 -0.00231048 0)
(0.169766 -0.00239002 0)
(0.175868 -0.00246759 0)
(0.182041 -0.00254395 0)
(0.188279 -0.00261976 0)
(0.194578 -0.00269549 0)
(0.200932 -0.00277152 0)
(0.20734 -0.00284808 0)
(0.213797 -0.00292529 0)
(0.220303 -0.00300318 0)
(0.226856 -0.0030817 0)
(0.233452 -0.00316071 0)
(0.240089 -0.00324005 0)
(0.246765 -0.00331947 0)
(0.253477 -0.00339873 0)
(0.260222 -0.00347754 0)
(0.266995 -0.00355559 0)
(0.273793 -0.00363256 0)
(0.280612 -0.00370811 0)
(0.287447 -0.0037819 0)
(0.294293 -0.00385357 0)
(0.301146 -0.00392277 0)
(0.308001 -0.00398912 0)
(0.314852 -0.00405225 0)
(0.321695 -0.00411176 0)
(0.328524 -0.00416725 0)
(0.335333 -0.00421831 0)
(0.342118 -0.00426449 0)
(0.348873 -0.00430534 0)
(0.355592 -0.00434038 0)
(0.362271 -0.00436908 0)
(0.368904 -0.00439089 0)
(0.375486 -0.00440522 0)
(0.382012 -0.00441143 0)
(0.388477 -0.0044088 0)
(0.394876 -0.00439657 0)
(0.401203 -0.00437389 0)
(0.407453 -0.00433981 0)
(0.413622 -0.00429328 0)
(0.419704 -0.00423311 0)
(0.425693 -0.00415799 0)
(0.431584 -0.00406638 0)
(0.437371 -0.00395656 0)
(0.443048 -0.00382654 0)
(0.448607 -0.00367398 0)
(0.454041 -0.00349618 0)
(0.459342 -0.00328993 0)
(0.464499 -0.00305139 0)
(0.469501 -0.00277594 0)
(0.474335 -0.00245792 0)
(0.478984 -0.00209033 0)
(0.48343 -0.00166438 0)
(0.487647 -0.00116882 0)
(0.491606 -0.000589155 0)
(0.495269 9.39563e-05 0)
(0.498585 0.00090833 0)
(0.501491 0.0018942 0)
(0.503899 0.00311017 0)
(0.505689 0.00464514 0)
(0.506697 0.0066397 0)
(0.506694 0.00932542 0)
(0.505361 0.013099 0)
(0.502255 0.0186685 0)
(0.49681 0.0273667 0)
(0.488934 0.0417346 0)
(0.485856 0.0660989 0)
(0.100238 -0.000407848 0)
(0.101382 -0.00077793 0)
(0.103272 -0.00112536 0)
(0.105755 -0.00144857 0)
(0.108777 -0.00175149 0)
(0.112281 -0.00203514 0)
(0.116212 -0.00229968 0)
(0.120518 -0.00254546 0)
(0.125151 -0.00277306 0)
(0.130065 -0.00298339 0)
(0.13522 -0.00317777 0)
(0.14058 -0.00335777 0)
(0.146113 -0.00352524 0)
(0.151793 -0.00368212 0)
(0.157596 -0.00383035 0)
(0.163506 -0.00397185 0)
(0.169506 -0.00410837 0)
(0.175586 -0.00424146 0)
(0.181737 -0.00437247 0)
(0.187951 -0.00450249 0)
(0.194224 -0.00463238 0)
(0.200552 -0.00476275 0)
(0.206932 -0.00489401 0)
(0.213361 -0.00502637 0)
(0.219837 -0.00515988 0)
(0.226358 -0.00529444 0)
(0.232921 -0.00542982 0)
(0.239524 -0.00556573 0)
(0.246164 -0.00570177 0)
(0.252839 -0.00583749 0)
(0.259545 -0.0059724 0)
(0.266278 -0.00610597 0)
(0.273034 -0.00623764 0)
(0.27981 -0.00636683 0)
(0.286599 -0.00649294 0)
(0.293399 -0.00661537 0)
(0.300204 -0.00673349 0)
(0.307008 -0.00684666 0)
(0.313807 -0.00695422 0)
(0.320595 -0.0070555 0)
(0.327368 -0.0071498 0)
(0.334119 -0.0072364 0)
(0.340843 -0.00731455 0)
(0.347535 -0.00738344 0)
(0.354189 -0.00744224 0)
(0.3608 -0.00749006 0)
(0.367363 -0.00752593 0)
(0.373872 -0.00754885 0)
(0.380323 -0.00755768 0)
(0.386709 -0.00755123 0)
(0.393027 -0.00752816 0)
(0.39927 -0.00748701 0)
(0.405433 -0.00742616 0)
(0.411512 -0.00734382 0)
(0.4175 -0.00723796 0)
(0.423394 -0.00710632 0)
(0.429186 -0.0069463 0)
(0.434871 -0.00675498 0)
(0.440442 -0.00652897 0)
(0.445894 -0.00626435 0)
(0.451219 -0.00595657 0)
(0.456408 -0.00560024 0)
(0.461452 -0.00518897 0)
(0.466341 -0.00471507 0)
(0.471063 -0.0041692 0)
(0.475603 -0.00353987 0)
(0.479944 -0.00281271 0)
(0.484066 -0.00196955 0)
(0.487943 -0.000986997 0)
(0.491546 0.000165593 0)
(0.494833 0.00153056 0)
(0.49776 0.00316723 0)
(0.500269 0.0051594 0)
(0.502293 0.00762844 0)
(0.503752 0.0107547 0)
(0.50457 0.0148117 0)
(0.504699 0.0202212 0)
(0.504194 0.0276379 0)
(0.503382 0.0380802 0)
(0.503315 0.0530173 0)
(0.507647 0.0734606 0)
(0.100218 -0.000581681 0)
(0.101346 -0.0011213 0)
(0.103215 -0.00162462 0)
(0.105678 -0.00209305 0)
(0.108681 -0.00253186 0)
(0.112167 -0.00294259 0)
(0.116079 -0.00332553 0)
(0.120365 -0.00368121 0)
(0.124977 -0.00401048 0)
(0.12987 -0.00431468 0)
(0.135002 -0.00459571 0)
(0.140338 -0.00485588 0)
(0.145846 -0.00509785 0)
(0.1515 -0.00532442 0)
(0.157275 -0.00553845 0)
(0.163156 -0.00574267 0)
(0.169125 -0.00593964 0)
(0.175173 -0.00613161 0)
(0.181289 -0.00632052 0)
(0.187468 -0.00650795 0)
(0.193704 -0.00669514 0)
(0.199993 -0.00688299 0)
(0.206332 -0.00707208 0)
(0.212718 -0.00726271 0)
(0.21915 -0.00745495 0)
(0.225624 -0.00764865 0)
(0.232139 -0.0078435 0)
(0.238692 -0.00803904 0)
(0.245281 -0.00823471 0)
(0.251902 -0.00842984 0)
(0.258552 -0.00862373 0)
(0.265226 -0.00881559 0)
(0.271923 -0.00900463 0)
(0.278635 -0.00918998 0)
(0.285361 -0.00937079 0)
(0.292093 -0.00954616 0)
(0.298829 -0.00971519 0)
(0.305561 -0.00987694 0)
(0.312286 -0.0100305 0)
(0.318997 -0.0101747 0)
(0.32569 -0.0103088 0)
(0.332359 -0.0104316 0)
(0.338998 -0.010542 0)
(0.345602 -0.0106388 0)
(0.352165 -0.0107209 0)
(0.358683 -0.0107869 0)
(0.365148 -0.0108355 0)
(0.371558 -0.0108651 0)
(0.377905 -0.0108742 0)
(0.384184 -0.010861 0)
(0.390391 -0.0108235 0)
(0.39652 -0.0107598 0)
(0.402566 -0.0106675 0)
(0.408524 -0.0105439 0)
(0.414389 -0.0103862 0)
(0.420154 -0.0101913 0)
(0.425815 -0.00995531 0)
(0.431367 -0.0096742 0)
(0.436802 -0.00934319 0)
(0.442114 -0.00895679 0)
(0.447298 -0.00850862 0)
(0.452345 -0.00799124 0)
(0.457248 -0.00739583 0)
(0.461997 -0.00671186 0)
(0.466582 -0.00592668 0)
(0.470991 -0.00502481 0)
(0.475211 -0.00398718 0)
(0.479227 -0.00278994 0)
(0.48302 -0.00140284 0)
(0.48657 0.000212747 0)
(0.489852 0.00210762 0)
(0.492844 0.00435026 0)
(0.495523 0.00703304 0)
(0.497873 0.0102816 0)
(0.499893 0.0142679 0)
(0.501621 0.0192266 0)
(0.503171 0.0254723 0)
(0.504804 0.0334085 0)
(0.507032 0.0435022 0)
(0.510758 0.0561274 0)
(0.517548 0.0709137 0)
(0.100199 -0.000761553 0)
(0.101307 -0.00148323 0)
(0.10315 -0.00215306 0)
(0.105588 -0.00277701 0)
(0.108566 -0.00336122 0)
(0.112026 -0.00390776 0)
(0.115913 -0.00441714 0)
(0.120173 -0.00489007 0)
(0.124757 -0.00532771 0)
(0.12962 -0.00573188 0)
(0.134723 -0.0061051 0)
(0.140027 -0.00645047 0)
(0.145501 -0.00677152 0)
(0.151119 -0.00707201 0)
(0.156858 -0.00735572 0)
(0.162699 -0.00762631 0)
(0.168628 -0.00788716 0)
(0.174632 -0.00814129 0)
(0.180704 -0.00839128 0)
(0.186836 -0.00863922 0)
(0.193023 -0.00888676 0)
(0.199261 -0.00913509 0)
(0.205546 -0.00938499 0)
(0.211877 -0.00963686 0)
(0.218251 -0.00989078 0)
(0.224666 -0.0101465 0)
(0.231119 -0.0104037 0)
(0.237607 -0.0106618 0)
(0.244129 -0.0109198 0)
(0.25068 -0.0111771 0)
(0.257258 -0.0114326 0)
(0.263859 -0.0116852 0)
(0.270478 -0.011934 0)
(0.277111 -0.0121777 0)
(0.283754 -0.0124152 0)
(0.290402 -0.0126454 0)
(0.29705 -0.0128669 0)
(0.303692 -0.0130786 0)
(0.310323 -0.0132791 0)
(0.316938 -0.0134672 0)
(0.323532 -0.0136414 0)
(0.330098 -0.0138004 0)
(0.336631 -0.0139428 0)
(0.343126 -0.0140669 0)
(0.349577 -0.0141711 0)
(0.355979 -0.0142537 0)
(0.362326 -0.0143129 0)
(0.368612 -0.0143466 0)
(0.374833 -0.0143529 0)
(0.380983 -0.0143292 0)
(0.387057 -0.0142732 0)
(0.393049 -0.014182 0)
(0.398955 -0.0140526 0)
(0.404768 -0.0138817 0)
(0.410486 -0.0136655 0)
(0.4161 -0.0133997 0)
(0.421608 -0.0130798 0)
(0.427003 -0.0127002 0)
(0.43228 -0.012255 0)
(0.437433 -0.0117372 0)
(0.442457 -0.0111387 0)
(0.447344 -0.0104502 0)
(0.452089 -0.00966087 0)
(0.456684 -0.00875769 0)
(0.461121 -0.00772532 0)
(0.465393 -0.00654529 0)
(0.46949 -0.00519517 0)
(0.473404 -0.00364743 0)
(0.477124 -0.00186799 0)
(0.480643 0.000185365 0)
(0.48395 0.00256472 0)
(0.487045 0.00533712 0)
(0.489937 0.00858808 0)
(0.492648 0.0124254 0)
(0.495229 0.0169825 0)
(0.497774 0.0224197 0)
(0.500449 0.0289173 0)
(0.503521 0.0366518 0)
(0.507394 0.0457373 0)
(0.512616 0.0560973 0)
(0.519835 0.0672078 0)
(0.10018 -0.000947798 0)
(0.101269 -0.00186364 0)
(0.10308 -0.002711 0)
(0.105488 -0.00350121 0)
(0.108435 -0.00424085 0)
(0.111864 -0.00493244 0)
(0.115718 -0.00557673 0)
(0.119945 -0.00617463 0)
(0.124494 -0.00672766 0)
(0.129322 -0.00723813 0)
(0.134386 -0.00770927 0)
(0.13965 -0.00814502 0)
(0.145082 -0.00854985 0)
(0.150656 -0.00892852 0)
(0.156349 -0.00928585 0)
(0.162142 -0.00962645 0)
(0.16802 -0.00995462 0)
(0.173972 -0.0102742 0)
(0.179988 -0.0105883 0)
(0.186062 -0.0108998 0)
(0.192189 -0.0112107 0)
(0.198364 -0.0115224 0)
(0.204585 -0.011836 0)
(0.210848 -0.0121519 0)
(0.217152 -0.0124704 0)
(0.223494 -0.012791 0)
(0.229872 -0.0131133 0)
(0.236282 -0.0134364 0)
(0.242723 -0.0137595 0)
(0.249191 -0.0140814 0)
(0.255683 -0.0144009 0)
(0.262194 -0.0147166 0)
(0.268721 -0.0150272 0)
(0.27526 -0.0153312 0)
(0.281805 -0.0156272 0)
(0.288352 -0.0159136 0)
(0.294896 -0.0161889 0)
(0.301431 -0.0164514 0)
(0.307952 -0.0166997 0)
(0.314454 -0.0169318 0)
(0.320931 -0.0171463 0)
(0.327377 -0.0173412 0)
(0.333787 -0.0175147 0)
(0.340155 -0.0176648 0)
(0.346476 -0.0177895 0)
(0.352744 -0.0178866 0)
(0.358954 -0.0179537 0)
(0.3651 -0.0179884 0)
(0.371177 -0.017988 0)
(0.377179 -0.0179496 0)
(0.383101 -0.0178701 0)
(0.388939 -0.017746 0)
(0.394686 -0.0175736 0)
(0.400339 -0.0173486 0)
(0.405892 -0.0170666 0)
(0.41134 -0.0167223 0)
(0.416678 -0.0163101 0)
(0.421902 -0.0158235 0)
(0.427007 -0.0152553 0)
(0.431988 -0.0145971 0)
(0.43684 -0.0138396 0)
(0.441558 -0.0129718 0)
(0.446138 -0.0119813 0)
(0.450575 -0.0108533 0)
(0.454863 -0.00957068 0)
(0.459 -0.00811328 0)
(0.46298 -0.00645702 0)
(0.466802 -0.00457318 0)
(0.470464 -0.0024273 0)
(0.47397 2.19766e-05 0)
(0.477323 0.00282161 0)
(0.48054 0.00602866 0)
(0.48365 0.00971152 0)
(0.486697 0.0139488 0)
(0.489754 0.0188269 0)
(0.492927 0.0244328 0)
(0.496367 0.0308414 0)
(0.50028 0.03809 0)
(0.50492 0.0461374 0)
(0.510571 0.0548036 0)
(0.517464 0.0636939 0)
(0.10016 -0.00114076 0)
(0.10123 -0.00226259 0)
(0.103009 -0.00329888 0)
(0.105381 -0.00426646 0)
(0.108292 -0.00517203 0)
(0.111684 -0.00601838 0)
(0.1155 -0.00680646 0)
(0.119687 -0.00753743 0)
(0.124194 -0.00821315 0)
(0.128978 -0.00883653 0)
(0.133997 -0.00941151 0)
(0.139213 -0.00994296 0)
(0.144595 -0.0104364 0)
(0.150116 -0.0108976 0)
(0.155754 -0.0113325 0)
(0.161489 -0.0117467 0)
(0.167307 -0.0121456 0)
(0.173196 -0.0125338 0)
(0.179147 -0.0129152 0)
(0.185153 -0.0132932 0)
(0.191209 -0.0136702 0)
(0.197311 -0.0140482 0)
(0.203455 -0.0144282 0)
(0.209639 -0.014811 0)
(0.215861 -0.0151966 0)
(0.222118 -0.0155847 0)
(0.228408 -0.0159747 0)
(0.234728 -0.0163655 0)
(0.241076 -0.016756 0)
(0.247447 -0.0171449 0)
(0.253839 -0.0175305 0)
(0.260248 -0.0179113 0)
(0.26667 -0.0182856 0)
(0.2731 -0.0186516 0)
(0.279533 -0.0190075 0)
(0.285965 -0.0193513 0)
(0.29239 -0.0196813 0)
(0.298804 -0.0199954 0)
(0.305201 -0.0202916 0)
(0.311575 -0.0205678 0)
(0.31792 -0.020822 0)
(0.324232 -0.021052 0)
(0.330504 -0.0212554 0)
(0.33673 -0.0214298 0)
(0.342906 -0.0215727 0)
(0.349026 -0.0216816 0)
(0.355083 -0.0217535 0)
(0.361074 -0.0217854 0)
(0.366992 -0.0217741 0)
(0.372831 -0.0217162 0)
(0.378588 -0.0216078 0)
(0.384257 -0.0214448 0)
(0.389833 -0.0212229 0)
(0.395312 -0.020937 0)
(0.400688 -0.0205818 0)
(0.405958 -0.0201514 0)
(0.411117 -0.019639 0)
(0.41616 -0.0190373 0)
(0.421085 -0.018338 0)
(0.425887 -0.0175319 0)
(0.430562 -0.0166084 0)
(0.435108 -0.0155555 0)
(0.439522 -0.0143598 0)
(0.443802 -0.0130057 0)
(0.447945 -0.0114752 0)
(0.451953 -0.00974795 0)
(0.455826 -0.00780005 0)
(0.459567 -0.00560408 0)
(0.463183 -0.00312833 0)
(0.466684 -0.000336485 0)
(0.470089 0.00280951 0)
(0.47342 0.00635183 0)
(0.476717 0.0103377 0)
(0.480033 0.0148153 0)
(0.483437 0.0198289 0)
(0.487023 0.025411 0)
(0.490904 0.0315709 0)
(0.495214 0.0382784 0)
(0.500092 0.0454436 0)
(0.50566 0.0528964 0)
(0.511972 0.0603771 0)
(0.100141 -0.00134087 0)
(0.101193 -0.00268036 0)
(0.102936 -0.00391724 0)
(0.105271 -0.00507359 0)
(0.108141 -0.00615601 0)
(0.11149 -0.00716724 0)
(0.115262 -0.00810841 0)
(0.119402 -0.00898087 0)
(0.123861 -0.00978691 0)
(0.128594 -0.01053 0)
(0.133559 -0.0112149 0)
(0.13872 -0.0118475 0)
(0.144043 -0.0124344 0)
(0.149503 -0.0129825 0)
(0.155077 -0.013499 0)
(0.160745 -0.0139905 0)
(0.166493 -0.0144635 0)
(0.17231 -0.0149234 0)
(0.178185 -0.0153751 0)
(0.184113 -0.0158224 0)
(0.190088 -0.0162684 0)
(0.196105 -0.0167152 0)
(0.202162 -0.0171644 0)
(0.208256 -0.0176166 0)
(0.214385 -0.0180719 0)
(0.220546 -0.01853 0)
(0.226736 -0.01899 0)
(0.232954 -0.0194509 0)
(0.239195 -0.0199111 0)
(0.245458 -0.020369 0)
(0.251739 -0.0208228 0)
(0.258033 -0.0212705 0)
(0.264336 -0.0217101 0)
(0.270644 -0.0221394 0)
(0.276953 -0.0225563 0)
(0.283257 -0.0229585 0)
(0.289552 -0.0233438 0)
(0.295831 -0.0237096 0)
(0.30209 -0.0240537 0)
(0.308322 -0.0243736 0)
(0.314523 -0.0246667 0)
(0.320687 -0.0249304 0)
(0.326808 -0.025162 0)
(0.33288 -0.0253585 0)
(0.338898 -0.0255171 0)
(0.344856 -0.0256346 0)
(0.35075 -0.0257076 0)
(0.356572 -0.0257325 0)
(0.362319 -0.0257057 0)
(0.367985 -0.025623 0)
(0.373566 -0.02548 0)
(0.379055 -0.0252721 0)
(0.38445 -0.024994 0)
(0.389745 -0.0246403 0)
(0.394936 -0.0242047 0)
(0.40002 -0.0236807 0)
(0.404992 -0.0230608 0)
(0.40985 -0.0223368 0)
(0.41459 -0.0214999 0)
(0.419211 -0.0205399 0)
(0.423709 -0.0194458 0)
(0.428083 -0.0182051 0)
(0.432333 -0.016804 0)
(0.43646 -0.0152269 0)
(0.440465 -0.0134564 0)
(0.444351 -0.0114729 0)
(0.448123 -0.00925475 0)
(0.451791 -0.00677774 0)
(0.455365 -0.00401524 0)
(0.458862 -0.000938644 0)
(0.462307 0.00247961 0)
(0.465723 0.0062658 0)
(0.469153 0.010447 0)
(0.472645 0.0150458 0)
(0.476257 0.0200757 0)
(0.480059 0.0255352 0)
(0.484125 0.0314006 0)
(0.488531 0.0376182 0)
(0.493341 0.044097 0)
(0.498596 0.0507056 0)
(0.504277 0.0572827 0)
(0.10012 -0.00154865 0)
(0.101156 -0.00311736 0)
(0.102864 -0.00456678 0)
(0.105157 -0.00592355 0)
(0.107983 -0.00719406 0)
(0.111284 -0.00838065 0)
(0.115006 -0.00948451 0)
(0.119094 -0.0105072 0)
(0.123498 -0.0114514 0)
(0.128173 -0.0123212 0)
(0.133077 -0.0131224 0)
(0.138173 -0.0138617 0)
(0.14343 -0.0145469 0)
(0.14882 -0.0151864 0)
(0.15432 -0.0157883 0)
(0.159912 -0.0163607 0)
(0.165581 -0.016911 0)
(0.171315 -0.0174458 0)
(0.177104 -0.0179706 0)
(0.182943 -0.01849 0)
(0.188826 -0.0190076 0)
(0.194749 -0.0195259 0)
(0.200708 -0.0200467 0)
(0.2067 -0.0205707 0)
(0.212725 -0.0210981 0)
(0.218778 -0.0216285 0)
(0.224857 -0.0221609 0)
(0.230961 -0.0226939 0)
(0.237086 -0.0232258 0)
(0.243228 -0.0237547 0)
(0.249385 -0.0242783 0)
(0.255552 -0.0247945 0)
(0.261725 -0.0253008 0)
(0.2679 -0.0257946 0)
(0.274072 -0.0262734 0)
(0.280237 -0.0267345 0)
(0.286388 -0.0271752 0)
(0.292521 -0.0275927 0)
(0.298629 -0.0279843 0)
(0.304709 -0.0283469 0)
(0.310754 -0.0286777 0)
(0.316758 -0.0289735 0)
(0.322715 -0.0292311 0)
(0.328621 -0.0294472 0)
(0.33447 -0.0296183 0)
(0.340256 -0.0297408 0)
(0.345974 -0.0298108 0)
(0.351618 -0.0298243 0)
(0.357184 -0.0297769 0)
(0.362667 -0.029664 0)
(0.368062 -0.0294806 0)
(0.373364 -0.0292214 0)
(0.37857 -0.0288808 0)
(0.383674 -0.0284525 0)
(0.388675 -0.0279298 0)
(0.393567 -0.0273055 0)
(0.39835 -0.0265717 0)
(0.403019 -0.0257197 0)
(0.407574 -0.02474 0)
(0.412012 -0.0236225 0)
(0.416334 -0.0223559 0)
(0.42054 -0.0209278 0)
(0.424631 -0.0193248 0)
(0.42861 -0.0175322 0)
(0.432481 -0.015534 0)
(0.436251 -0.0133131 0)
(0.439928 -0.0108509 0)
(0.443523 -0.0081279 0)
(0.447052 -0.00512396 0)
(0.450532 -0.00181881 0)
(0.453993 0.00180524 0)
(0.457452 0.00576009 0)
(0.460948 0.0100562 0)
(0.464522 0.0146978 0)
(0.468215 0.0196793 0)
(0.472073 0.024982 0)
(0.47614 0.0305701 0)
(0.480452 0.0363886 0)
(0.485032 0.0423617 0)
(0.48988 0.0483965 0)
(0.494958 0.0543957 0)
(0.100099 -0.00176467 0)
(0.101119 -0.0035741 0)
(0.102793 -0.00524825 0)
(0.105042 -0.00681732 0)
(0.107819 -0.00828739 0)
(0.111069 -0.00966012 0)
(0.114735 -0.0109366 0)
(0.118764 -0.0121185 0)
(0.123106 -0.0132089 0)
(0.127715 -0.0142126 0)
(0.13255 -0.0151362 0)
(0.137574 -0.0159878 0)
(0.142755 -0.0167764 0)
(0.148065 -0.0175115 0)
(0.153483 -0.0182029 0)
(0.158989 -0.0188597 0)
(0.164568 -0.0194906 0)
(0.170209 -0.0201031 0)
(0.175903 -0.0207037 0)
(0.181643 -0.0212978 0)
(0.187423 -0.0218895 0)
(0.193239 -0.0224817 0)
(0.199089 -0.0230764 0)
(0.204969 -0.0236746 0)
(0.210878 -0.0242763 0)
(0.216812 -0.0248812 0)
(0.222769 -0.0254879 0)
(0.228747 -0.026095 0)
(0.234743 -0.0267004 0)
(0.240754 -0.0273018 0)
(0.246775 -0.0278969 0)
(0.252804 -0.0284828 0)
(0.258835 -0.0290567 0)
(0.264865 -0.0296158 0)
(0.270889 -0.030157 0)
(0.276901 -0.0306772 0)
(0.282897 -0.0311733 0)
(0.288872 -0.0316421 0)
(0.294819 -0.0320803 0)
(0.300734 -0.0324845 0)
(0.306611 -0.0328512 0)
(0.312444 -0.033177 0)
(0.318228 -0.0334582 0)
(0.323958 -0.0336908 0)
(0.329627 -0.0338711 0)
(0.33523 -0.0339947 0)
(0.340763 -0.0340575 0)
(0.34622 -0.0340547 0)
(0.351597 -0.0339815 0)
(0.356888 -0.0338328 0)
(0.36209 -0.0336032 0)
(0.367198 -0.0332867 0)
(0.372208 -0.0328773 0)
(0.377118 -0.0323683 0)
(0.381923 -0.0317524 0)
(0.386622 -0.0310222 0)
(0.391212 -0.0301693 0)
(0.395693 -0.0291849 0)
(0.400062 -0.0280597 0)
(0.404321 -0.0267833 0)
(0.40847 -0.025345 0)
(0.41251 -0.0237331 0)
(0.416446 -0.0219351 0)
(0.420282 -0.0199381 0)
(0.424024 -0.0177284 0)
(0.42768 -0.0152918 0)
(0.431261 -0.012614 0)
(0.43478 -0.00968079 0)
(0.438252 -0.00647865 0)
(0.441694 -0.0029954 0)
(0.445137 0.000780017 0)
(0.448591 0.00484802 0)
(0.452088 0.00920597 0)
(0.455656 0.0138466 0)
(0.459326 0.0187548 0)
(0.463123 0.0239055 0)
(0.467069 0.0292621 0)
(0.471176 0.034777 0)
(0.475447 0.0403927 0)
(0.479866 0.0460456 0)
(0.484393 0.0516778 0)
(0.100077 -0.0019895 0)
(0.101083 -0.00405119 0)
(0.102722 -0.00596246 0)
(0.104925 -0.00775588 0)
(0.107651 -0.00943717 0)
(0.110845 -0.011007 0)
(0.11445 -0.0124661 0)
(0.118414 -0.0138163 0)
(0.122686 -0.0150611 0)
(0.127222 -0.0162059 0)
(0.13198 -0.0172585 0)
(0.136922 -0.0182279 0)
(0.142018 -0.0191247 0)
(0.147239 -0.0199598 0)
(0.152564 -0.0207443 0)
(0.157973 -0.0214889 0)
(0.163452 -0.0222033 0)
(0.16899 -0.0228964 0)
(0.174576 -0.0235755 0)
(0.180205 -0.0242467 0)
(0.185871 -0.0249148 0)
(0.19157 -0.0255831 0)
(0.197299 -0.0262539 0)
(0.203056 -0.0269282 0)
(0.208837 -0.0276063 0)
(0.21464 -0.0282874 0)
(0.220463 -0.0289703 0)
(0.226304 -0.0296531 0)
(0.232159 -0.0303336 0)
(0.238026 -0.0310091 0)
(0.2439 -0.0316766 0)
(0.249778 -0.0323332 0)
(0.255656 -0.0329756 0)
(0.261529 -0.0336005 0)
(0.267392 -0.0342043 0)
(0.273241 -0.0347835 0)
(0.279071 -0.0353345 0)
(0.284876 -0.0358537 0)
(0.29065 -0.0363372 0)
(0.296389 -0.0367814 0)
(0.302087 -0.0371821 0)
(0.307739 -0.0375354 0)
(0.313339 -0.0378372 0)
(0.318881 -0.0380831 0)
(0.32436 -0.0382688 0)
(0.329772 -0.0383894 0)
(0.335111 -0.0384403 0)
(0.340373 -0.0384163 0)
(0.345552 -0.0383122 0)
(0.350645 -0.0381223 0)
(0.355647 -0.0378408 0)
(0.360555 -0.0374614 0)
(0.365366 -0.0369776 0)
(0.370077 -0.0363823 0)
(0.374685 -0.0356683 0)
(0.379188 -0.0348276 0)
(0.383586 -0.0338521 0)
(0.387878 -0.0327331 0)
(0.392064 -0.0314614 0)
(0.396145 -0.0300273 0)
(0.400124 -0.0284208 0)
(0.404003 -0.0266314 0)
(0.407787 -0.0246484 0)
(0.411483 -0.0224608 0)
(0.415097 -0.0200577 0)
(0.418638 -0.0174286 0)
(0.422118 -0.0145632 0)
(0.425549 -0.0114525 0)
(0.428946 -0.00808916 0)
(0.432326 -0.00446771 0)
(0.435705 -0.000584086 0)
(0.439111 0.00355865 0)
(0.442549 0.00794741 0)
(0.446044 0.0125688 0)
(0.449614 0.0174042 0)
(0.45327 0.0224279 0)
(0.45702 0.0276079 0)
(0.460866 0.032906 0)
(0.4648 0.03828 0)
(0.4688 0.0436868 0)
(0.472833 0.0490927 0)
(0.100053 -0.00222369 0)
(0.101047 -0.00454923 0)
(0.102651 -0.00671016 0)
(0.104807 -0.00874014 0)
(0.107478 -0.0106444 0)
(0.110611 -0.0124224 0)
(0.11415 -0.0140743 0)
(0.118042 -0.015602 0)
(0.122238 -0.0170092 0)
(0.126692 -0.0183024 0)
(0.131364 -0.0194901 0)
(0.136215 -0.0205829 0)
(0.141216 -0.0215926 0)
(0.146337 -0.0225318 0)
(0.151558 -0.0234131 0)
(0.15686 -0.0242486 0)
(0.162227 -0.0250495 0)
(0.167649 -0.0258256 0)
(0.173117 -0.0265856 0)
(0.178623 -0.0273361 0)
(0.184163 -0.0280827 0)
(0.189732 -0.0288291 0)
(0.195328 -0.0295778 0)
(0.200948 -0.0303302 0)
(0.206589 -0.0310863 0)
(0.212249 -0.0318453 0)
(0.217926 -0.0326059 0)
(0.223617 -0.0333659 0)
(0.229319 -0.0341226 0)
(0.235029 -0.0348732 0)
(0.240744 -0.0356142 0)
(0.246459 -0.0363421 0)
(0.252171 -0.0370534 0)
(0.257874 -0.037744 0)
(0.263566 -0.0384102 0)
(0.269239 -0.0390479 0)
(0.27489 -0.039653 0)
(0.280514 -0.0402214 0)
(0.286104 -0.0407487 0)
(0.291656 -0.0412308 0)
(0.297164 -0.0416631 0)
(0.302624 -0.0420412 0)
(0.308028 -0.0423604 0)
(0.313374 -0.042616 0)
(0.318654 -0.042803 0)
(0.323866 -0.0429164 0)
(0.329002 -0.0429509 0)
(0.33406 -0.0429009 0)
(0.339036 -0.0427607 0)
(0.343924 -0.0425245 0)
(0.348721 -0.0421859 0)
(0.353425 -0.0417384 0)
(0.358033 -0.0411753 0)
(0.362542 -0.0404894 0)
(0.366951 -0.0396733 0)
(0.371258 -0.0387194 0)
(0.375464 -0.0376195 0)
(0.379568 -0.0363653 0)
(0.383573 -0.0349484 0)
(0.387479 -0.03336 0)
(0.39129 -0.0315912 0)
(0.39501 -0.029633 0)
(0.398644 -0.0274768 0)
(0.4022 -0.0251139 0)
(0.405684 -0.0225364 0)
(0.409106 -0.0197371 0)
(0.412477 -0.0167099 0)
(0.415808 -0.0134501 0)
(0.419112 -0.00995521 0)
(0.422403 -0.0062249 0)
(0.425691 -0.00226116 0)
(0.429005 0.00193188 0)
(0.432337 0.0063372 0)
(0.435705 0.010938 0)
(0.439119 0.0157149 0)
(0.442583 0.020645 0)
(0.446098 0.0257017 0)
(0.449658 0.0308555 0)
(0.453251 0.0360758 0)
(0.45686 0.0413334 0)
(0.460455 0.0466088 0)
(0.100028 -0.00246773 0)
(0.101011 -0.00506885 0)
(0.102581 -0.00749205 0)
(0.104688 -0.00977086 0)
(0.107301 -0.0119099 0)
(0.110369 -0.013907 0)
(0.113835 -0.0157619 0)
(0.117649 -0.0174761 0)
(0.12176 -0.0190539 0)
(0.126124 -0.0205024 0)
(0.130699 -0.0218314 0)
(0.13545 -0.0230527 0)
(0.140344 -0.0241799 0)
(0.145354 -0.025227 0)
(0.15046 -0.0262084 0)
(0.155641 -0.0271377 0)
(0.160885 -0.0280276 0)
(0.166179 -0.0288891 0)
(0.171514 -0.0297319 0)
(0.176885 -0.0305637 0)
(0.182285 -0.0313905 0)
(0.187712 -0.0322167 0)
(0.193161 -0.0330451 0)
(0.198631 -0.0338769 0)
(0.204119 -0.0347125 0)
(0.209623 -0.0355508 0)
(0.21514 -0.0363903 0)
(0.220668 -0.0372285 0)
(0.226204 -0.0380624 0)
(0.231745 -0.0388887 0)
(0.237287 -0.0397037 0)
(0.242826 -0.0405032 0)
(0.248359 -0.0412833 0)
(0.253881 -0.0420396 0)
(0.259387 -0.0427675 0)
(0.264873 -0.0434628 0)
(0.270333 -0.0441207 0)
(0.275763 -0.0447366 0)
(0.281157 -0.0453058 0)
(0.286511 -0.0458234 0)
(0.291818 -0.0462846 0)
(0.297074 -0.0466843 0)
(0.302274 -0.0470176 0)
(0.307413 -0.0472791 0)
(0.312485 -0.0474635 0)
(0.317487 -0.0475652 0)
(0.322414 -0.0475787 0)
(0.327261 -0.047498 0)
(0.332026 -0.0473171 0)
(0.336703 -0.0470298 0)
(0.341292 -0.0466296 0)
(0.345787 -0.0461098 0)
(0.350189 -0.0454636 0)
(0.354494 -0.0446838 0)
(0.358703 -0.0437634 0)
(0.362814 -0.0426948 0)
(0.366828 -0.0414704 0)
(0.370746 -0.0400827 0)
(0.37457 -0.038524 0)
(0.378302 -0.0367867 0)
(0.381947 -0.0348633 0)
(0.385509 -0.0327467 0)
(0.388994 -0.0304302 0)
(0.392408 -0.0279078 0)
(0.395759 -0.0251741 0)
(0.399056 -0.0222253 0)
(0.402307 -0.0190585 0)
(0.405523 -0.0156728 0)
(0.408715 -0.0120693 0)
(0.411892 -0.00825137 0)
(0.415062 -0.00422449 0)
(0.418243 6.52912e-06 0)
(0.421437 0.0044271 0)
(0.424643 0.00901652 0)
(0.427869 0.0137565 0)
(0.431115 0.0186275 0)
(0.434378 0.0236083 0)
(0.43765 0.0286764 0)
(0.440919 0.0338093 0)
(0.444169 0.038987 0)
(0.447377 0.0441988 0)
(0.100001 -0.00272209 0)
(0.100974 -0.0056106 0)
(0.10251 -0.00830867 0)
(0.104566 -0.0108485 0)
(0.107117 -0.0132339 0)
(0.110115 -0.0154612 0)
(0.113504 -0.0175288 0)
(0.117231 -0.0194383 0)
(0.121249 -0.0211945 0)
(0.125513 -0.0228051 0)
(0.129982 -0.024281 0)
(0.13462 -0.0256358 0)
(0.139396 -0.0268846 0)
(0.144283 -0.0280432 0)
(0.14926 -0.0291276 0)
(0.154308 -0.0301533 0)
(0.159414 -0.0311343 0)
(0.164566 -0.0320831 0)
(0.169756 -0.0330104 0)
(0.174976 -0.033925 0)
(0.180223 -0.0348336 0)
(0.185493 -0.0357409 0)
(0.190782 -0.03665 0)
(0.196088 -0.0375626 0)
(0.201409 -0.0384786 0)
(0.206742 -0.0393973 0)
(0.212085 -0.0403165 0)
(0.217436 -0.0412336 0)
(0.222792 -0.0421452 0)
(0.22815 -0.0430476 0)
(0.233505 -0.0439366 0)
(0.238855 -0.0448076 0)
(0.244196 -0.0456561 0)
(0.249522 -0.0464772 0)
(0.25483 -0.047266 0)
(0.260115 -0.0480174 0)
(0.265372 -0.0487264 0)
(0.270596 -0.0493879 0)
(0.275783 -0.0499965 0)
(0.280926 -0.0505471 0)
(0.286021 -0.0510341 0)
(0.291063 -0.0514523 0)
(0.296048 -0.0517959 0)
(0.30097 -0.0520595 0)
(0.305825 -0.0522372 0)
(0.310609 -0.0523232 0)
(0.315318 -0.0523114 0)
(0.319948 -0.0521957 0)
(0.324495 -0.0519698 0)
(0.328957 -0.0516274 0)
(0.333332 -0.0511619 0)
(0.337616 -0.0505665 0)
(0.341809 -0.0498346 0)
(0.345909 -0.0489593 0)
(0.349916 -0.0479336 0)
(0.35383 -0.0467507 0)
(0.357653 -0.0454037 0)
(0.361385 -0.0438857 0)
(0.36503 -0.0421903 0)
(0.36859 -0.0403112 0)
(0.372069 -0.0382424 0)
(0.375473 -0.0359786 0)
(0.378807 -0.0335151 0)
(0.382077 -0.0308483 0)
(0.385289 -0.0279753 0)
(0.388452 -0.0248946 0)
(0.391573 -0.0216064 0)
(0.394661 -0.0181122 0)
(0.397722 -0.0144157 0)
(0.400765 -0.0105224 0)
(0.403796 -0.00643959 0)
(0.406817 -0.00217488 0)
(0.409851 0.0022642 0)
(0.412874 0.00685539 0)
(0.415895 0.0115811 0)
(0.418914 0.0164245 0)
(0.421924 0.0213689 0)
(0.424917 0.026397 0)
(0.427885 0.0314921 0)
(0.430812 0.0366399 0)
(0.433683 0.0418353 0)
(0.0999727 -0.00298712 0)
(0.100935 -0.00617494 0)
(0.102438 -0.00916034 0)
(0.10444 -0.0119733 0)
(0.106927 -0.0146164 0)
(0.10985 -0.0170842 0)
(0.113153 -0.0193741 0)
(0.116787 -0.0214875 0)
(0.120703 -0.0234292 0)
(0.124856 -0.0252081 0)
(0.129207 -0.0268364 0)
(0.13372 -0.028329 0)
(0.138365 -0.0297029 0)
(0.143115 -0.0309759 0)
(0.14795 -0.0321659 0)
(0.152851 -0.0332899 0)
(0.157804 -0.0343637 0)
(0.162799 -0.0354012 0)
(0.167828 -0.0364144 0)
(0.172883 -0.0374129 0)
(0.177962 -0.0384041 0)
(0.183059 -0.0393935 0)
(0.188172 -0.0403843 0)
(0.193299 -0.0413783 0)
(0.198437 -0.0423756 0)
(0.203585 -0.043375 0)
(0.208739 -0.0443743 0)
(0.213899 -0.0453706 0)
(0.219059 -0.04636 0)
(0.224219 -0.0473384 0)
(0.229374 -0.048301 0)
(0.23452 -0.0492429 0)
(0.239654 -0.0501588 0)
(0.244771 -0.0510436 0)
(0.249867 -0.0518917 0)
(0.254938 -0.0526977 0)
(0.259978 -0.0534557 0)
(0.264983 -0.0541604 0)
(0.269949 -0.0548058 0)
(0.27487 -0.0553863 0)
(0.279741 -0.055896 0)
(0.284559 -0.0563291 0)
(0.289318 -0.0566795 0)
(0.294014 -0.0569414 0)
(0.298643 -0.0571085 0)
(0.3032 -0.0571747 0)
(0.307684 -0.0571338 0)
(0.312089 -0.0569794 0)
(0.316414 -0.0567051 0)
(0.320655 -0.0563045 0)
(0.324812 -0.055771 0)
(0.328881 -0.0550981 0)
(0.332862 -0.0542792 0)
(0.336756 -0.053308 0)
(0.34056 -0.0521779 0)
(0.344278 -0.0508828 0)
(0.347909 -0.0494165 0)
(0.351456 -0.0477734 0)
(0.354922 -0.0459479 0)
(0.358309 -0.0439353 0)
(0.361623 -0.041731 0)
(0.364867 -0.0393316 0)
(0.368047 -0.0367342 0)
(0.371168 -0.033937 0)
(0.374237 -0.0309393 0)
(0.377259 -0.0277417 0)
(0.38024 -0.0243463 0)
(0.383187 -0.0207563 0)
(0.386105 -0.016977 0)
(0.389 -0.0130149 0)
(0.391875 -0.00887825 0)
(0.394732 -0.00457587 0)
(0.39758 -0.000113806 0)
(0.400416 0.00449343 0)
(0.403228 0.00922581 0)
(0.40602 0.0140687 0)
(0.408787 0.0190084 0)
(0.411521 0.0240316 0)
(0.414214 0.0291253 0)
(0.416855 0.034279 0)
(0.419431 0.0394911 0)
(0.0999421 -0.00326311 0)
(0.100895 -0.00676215 0)
(0.102365 -0.0100471 0)