<?xml version="1.0"?>
<VTKFile type="UnstructuredGrid"  version="0.1"  >
<UnstructuredGrid>
<Piece  NumberOfPoints="220" NumberOfCells="380">
<Points>
<DataArray  type="Float64"  NumberOfComponents="3"  format="ascii">1 0 0  1.1 0 0  1.2 0 0  1.3 0 0  1.4 0 0  1.5 0 0  1.6 0 0  1.7 0 0  1.8 0 0  1.9 0 0  2 0 0  1 0.05263157894736842 0  1.1 0.05263157894736842 0  1.2 0.05263157894736842 0  1.3 0.05263157894736842 0  1.4 0.05263157894736842 0  1.5 0.05263157894736842 0  1.6 0.05263157894736842 0  1.7 0.05263157894736842 0  1.8 0.05263157894736842 0  1.9 0.05263157894736842 0  2 0.05263157894736842 0  1 0.1052631578947368 0  1.1 0.1052631578947368 0  1.2 0.1052631578947368 0  1.3 0.1052631578947368 0  1.4 0.1052631578947368 0  1.5 0.1052631578947368 0  1.6 0.1052631578947368 0  1.7 0.1052631578947368 0  1.8 0.1052631578947368 0  1.9 0.1052631578947368 0  2 0.1052631578947368 0  1 0.1578947368421053 0  1.1 0.1578947368421053 0  1.2 0.1578947368421053 0  1.3 0.1578947368421053 0  1.4 0.1578947368421053 0  1.5 0.1578947368421053 0  1.6 0.1578947368421053 0  1.7 0.1578947368421053 0  1.8 0.1578947368421053 0  1.9 0.1578947368421053 0  2 0.1578947368421053 0  1 0.2105263157894737 0  1.1 0.2105263157894737 0  1.2 0.2105263157894737 0  1.3 0.2105263157894737 0  1.4 0.2105263157894737 0  1.5 0.2105263157894737 0  1.6 0.2105263157894737 0  1.7 0.2105263157894737 0  1.8 0.2105263157894737 0  1.9 0.2105263157894737 0  2 0.2105263157894737 0  1 0.2631578947368421 0  1.1 0.2631578947368421 0  1.2 0.2631578947368421 0  1.3 0.2631578947368421 0  1.4 0.2631578947368421 0  1.5 0.2631578947368421 0  1.6 0.2631578947368421 0  1.7 0.2631578947368421 0  1.8 0.2631578947368421 0  1.9 0.2631578947368421 0  2 0.2631578947368421 0  1 0.3157894736842105 0  1.1 0.3157894736842105 0  1.2 0.3157894736842105 0  1.3 0.3157894736842105 0  1.4 0.3157894736842105 0  1.5 0.3157894736842105 0  1.6 0.3157894736842105 0  1.7 0.3157894736842105 0  1.8 0.3157894736842105 0  1.9 0.3157894736842105 0  2 0.3157894736842105 0  1 0.3684210526315789 0  1.1 0.3684210526315789 0  1.2 0.3684210526315789 0  1.3 0.3684210526315789 0  1.4 0.3684210526315789 0  1.5 0.3684210526315789 0  1.6 0.3684210526315789 0  1.7 0.3684210526315789 0  1.8 0.3684210526315789 0  1.9 0.3684210526315789 0  2 0.3684210526315789 0  1 0.4210526315789473 0  1.1 0.4210526315789473 0  1.2 0.4210526315789473 0  1.3 0.4210526315789473 0  1.4 0.4210526315789473 0  1.5 0.4210526315789473 0  1.6 0.4210526315789473 0  1.7 0.4210526315789473 0  1.8 0.4210526315789473 0  1.9 0.4210526315789473 0  2 0.4210526315789473 0  1 0.4736842105263158 0  1.1 0.4736842105263158 0  1.2 0.4736842105263158 0  1.3 0.4736842105263158 0  1.4 0.4736842105263158 0  1.5 0.4736842105263158 0  1.6 0.4736842105263158 0  1.7 0.4736842105263158 0  1.8 0.4736842105263158 0  1.9 0.4736842105263158 0  2 0.4736842105263158 0  1 0.5263157894736842 0  1.1 0.5263157894736842 0  1.2 0.5263157894736842 0  1.3 0.5263157894736842 0  1.4 0.5263157894736842 0  1.5 0.5263157894736842 0  1.6 0.5263157894736842 0  1.7 0.5263157894736842 0  1.8 0.5263157894736842 0  1.9 0.5263157894736842 0  2 0.5263157894736842 0  1 0.5789473684210527 0  1.1 0.5789473684210527 0  1.2 0.5789473684210527 0  1.3 0.5789473684210527 0  1.4 0.5789473684210527 0  1.5 0.5789473684210527 0  1.6 0.5789473684210527 0  1.7 0.5789473684210527 0  1.8 0.5789473684210527 0  1.9 0.5789473684210527 0  2 0.5789473684210527 0  1 0.631578947368421 0  1.1 0.631578947368421 0  1.2 0.631578947368421 0  1.3 0.631578947368421 0  1.4 0.631578947368421 0  1.5 0.631578947368421 0  1.6 0.631578947368421 0  1.7 0.631578947368421 0  1.8 0.631578947368421 0  1.9 0.631578947368421 0  2 0.631578947368421 0  1 0.6842105263157895 0  1.1 0.6842105263157895 0  1.2 0.6842105263157895 0  1.3 0.6842105263157895 0  1.4 0.6842105263157895 0  1.5 0.6842105263157895 0  1.6 0.6842105263157895 0  1.7 0.6842105263157895 0  1.8 0.6842105263157895 0  1.9 0.6842105263157895 0  2 0.6842105263157895 0  1 0.7368421052631579 0  1.1 0.7368421052631579 0  1.2 0.7368421052631579 0  1.3 0.7368421052631579 0  1.4 0.7368421052631579 0  1.5 0.7368421052631579 0  1.6 0.7368421052631579 0  1.7 0.7368421052631579 0  1.8 0.7368421052631579 0  1.9 0.7368421052631579 0  2 0.7368421052631579 0  1 0.7894736842105263 0  1.1 0.7894736842105263 0  1.2 0.7894736842105263 0  1.3 0.7894736842105263 0  1.4 0.7894736842105263 0  1.5 0.7894736842105263 0  1.6 0.7894736842105263 0  1.7 0.7894736842105263 0  1.8 0.7894736842105263 0  1.9 0.7894736842105263 0  2 0.7894736842105263 0  1 0.8421052631578947 0  1.1 0.8421052631578947 0  1.2 0.8421052631578947 0  1.3 0.8421052631578947 0  1.4 0.8421052631578947 0  1.5 0.8421052631578947 0  1.6 0.8421052631578947 0  1.7 0.8421052631578947 0  1.8 0.8421052631578947 0  1.9 0.8421052631578947 0  2 0.8421052631578947 0  1 0.8947368421052632 0  1.1 0.8947368421052632 0  1.2 0.8947368421052632 0  1.3 0.8947368421052632 0  1.4 0.8947368421052632 0  1.5 0.8947368421052632 0  1.6 0.8947368421052632 0  1.7 0.8947368421052632 0  1.8 0.8947368421052632 0  1.9 0.8947368421052632 0  2 0.8947368421052632 0  1 0.9473684210526315 0  1.1 0.9473684210526315 0  1.2 0.9473684210526315 0  1.3 0.9473684210526315 0  1.4 0.9473684210526315 0  1.5 0.9473684210526315 0  1.6 0.9473684210526315 0  1.7 0.9473684210526315 0  1.8 0.9473684210526315 0  1.9 0.9473684210526315 0  2 0.9473684210526315 0  1 1 0  1.1 1 0  1.2 1 0  1.3 1 0  1.4 1 0  1.5 1 0  1.6 1 0  1.7 1 0  1.8 1 0  1.9 1 0  2 1 0  </DataArray>
</Points>
<Cells>
<DataArray  type="UInt32"  Name="connectivity"  format="ascii">0 1 12  0 11 12  1 2 13  1 12 13  2 3 14  2 13 14  3 4 15  3 14 15  4 5 16  4 15 16  5 6 17  5 16 17  6 7 18  6 17 18  7 8 19  7 18 19  8 9 20  8 19 20  9 10 21  9 20 21  11 12 23  11 22 23  12 13 24  12 23 24  13 14 25  13 24 25  14 15 26  14 25 26  15 16 27  15 26 27  16 17 28  16 27 28  17 18 29  17 28 29  18 19 30  18 29 30  19 20 31  19 30 31  20 21 32  20 31 32  22 23 34  22 33 34  23 24 35  23 34 35  24 25 36  24 35 36  25 26 37  25 36 37  26 27 38  26 37 38  27 28 39  27 38 39  28 29 40  28 39 40  29 30 41  29 40 41  30 31 42  30 41 42  31 32 43  31 42 43  33 34 45  33 44 45  34 35 46  34 45 46  35 36 47  35 46 47  36 37 48  36 47 48  37 38 49  37 48 49  38 39 50  38 49 50  39 40 51  39 50 51  40 41 52  40 51 52  41 42 53  41 52 53  42 43 54  42 53 54  44 45 56  44 55 56  45 46 57  45 56 57  46 47 58  46 57 58  47 48 59  47 58 59  48 49 60  48 59 60  49 50 61  49 60 61  50 51 62  50 61 62  51 52 63  51 62 63  52 53 64  52 63 64  53 54 65  53 64 65  55 56 67  55 66 67  56 57 68  56 67 68  57 58 69  57 68 69  58 59 70  58 69 70  59 60 71  59 70 71  60 61 72  60 71 72  61 62 73  61 72 73  62 63 74  62 73 74  63 64 75  63 74 75  64 65 76  64 75 76  66 67 78  66 77 78  67 68 79  67 78 79  68 69 80  68 79 80  69 70 81  69 80 81  70 71 82  70 81 82  71 72 83  71 82 83  72 73 84  72 83 84  73 74 85  73 84 85  74 75 86  74 85 86  75 76 87  75 86 87  77 78 89  77 88 89  78 79 90  78 89 90  79 80 91  79 90 91  80 81 92  80 91 92  81 82 93  81 92 93  82 83 94  82 93 94  83 84 95  83 94 95  84 85 96  84 95 96  85 86 97  85 96 97  86 87 98  86 97 98  88 89 100  88 99 100  89 90 101  89 100 101  90 91 102  90 101 102  91 92 103  91 102 103  92 93 104  92 103 104  93 94 105  93 104 105  94 95 106  94 105 106  95 96 107  95 106 107  96 97 108  96 107 108  97 98 109  97 108 109  99 100 111  99 110 111  100 101 112  100 111 112  101 102 113  101 112 113  102 103 114  102 113 114  103 104 115  103 114 115  104 105 116  104 115 116  105 106 117  105 116 117  106 107 118  106 117 118  107 108 119  107 118 119  108 109 120  108 119 120  110 111 122  110 121 122  111 112 123  111 122 123  112 113 124  112 123 124  113 114 125  113 124 125  114 115 126  114 125 126  115 116 127  115 126 127  116 117 128  116 127 128  117 118 129  117 128 129  118 119 130  118 129 130  119 120 131  119 130 131  121 122 133  121 132 133  122 123 134  122 133 134  123 124 135  123 134 135  124 125 136  124 135 136  125 126 137  125 136 137  126 127 138  126 137 138  127 128 139  127 138 139  128 129 140  128 139 140  129 130 141  129 140 141  130 131 142  130 141 142  132 133 144  132 143 144  133 134 145  133 144 145  134 135 146  134 145 146  135 136 147  135 146 147  136 137 148  136 147 148  137 138 149  137 148 149  138 139 150  138 149 150  139 140 151  139 150 151  140 141 152  140 151 152  141 142 153  141 152 153  143 144 155  143 154 155  144 145 156  144 155 156  145 146 157  145 156 157  146 147 158  146 157 158  147 148 159  147 158 159  148 149 160  148 159 160  149 150 161  149 160 161  150 151 162  150 161 162  151 152 163  151 162 163  152 153 164  152 163 164  154 155 166  154 165 166  155 156 167  155 166 167  156 157 168  156 167 168  157 158 169  157 168 169  158 159 170  158 169 170  159 160 171  159 170 171  160 161 172  160 171 172  161 162 173  161 172 173  162 163 174  162 173 174  163 164 175  163 174 175  165 166 177  165 176 177  166 167 178  166 177 178  167 168 179  167 178 179  168 169 180  168 179 180  169 170 181  169 180 181  170 171 182  170 181 182  171 172 183  171 182 183  172 173 184  172 183 184  173 174 185  173 184 185  174 175 186  174 185 186  176 177 188  176 187 188  177 178 189  177 188 189  178 179 190  178 189 190  179 180 191  179 190 191  180 181 192  180 191 192  181 182 193  181 192 193  182 183 194  182 193 194  183 184 195  183 194 195  184 185 196  184 195 196  185 186 197  185 196 197  187 188 199  187 198 199  188 189 200  188 199 200  189 190 201  189 200 201  190 191 202  190 201 202  191 192 203  191 202 203  192 193 204  192 203 204  193 194 205  193 204 205  194 195 206  194 205 206  195 196 207  195 206 207  196 197 208  196 207 208  198 199 210  198 209 210  199 200 211  199 210 211  200 201 212  200 211 212  201 202 213  201 212 213  202 203 214  202 213 214  203 204 215  203 214 215  204 205 216  204 215 216  205 206 217  205 216 217  206 207 218  206 217 218  207 208 219  207 218 219  </DataArray>
<DataArray  type="UInt32"  Name="offsets"  format="ascii">3 6 9 12 15 18 21 24 27 30 33 36 39 42 45 48 51 54 57 60 63 66 69 72 75 78 81 84 87 90 93 96 99 102 105 108 111 114 117 120 123 126 129 132 135 138 141 144 147 150 153 156 159 162 165 168 171 174 177 180 183 186 189 192 195 198 201 204 207 210 213 216 219 222 225 228 231 234 237 240 243 246 249 252 255 258 261 264 267 270 273 276 279 282 285 288 291 294 297 300 303 306 309 312 315 318 321 324 327 330 333 336 339 342 345 348 351 354 357 360 363 366 369 372 375 378 381 384 387 390 393 396 399 402 405 408 411 414 417 420 423 426 429 432 435 438 441 444 447 450 453 456 459 462 465 468 471 474 477 480 483 486 489 492 495 498 501 504 507 510 513 516 519 522 525 528 531 534 537 540 543 546 549 552 555 558 561 564 567 570 573 576 579 582 585 588 591 594 597 600 603 606 609 612 615 618 621 624 627 630 633 636 639 642 645 648 651 654 657 660 663 666 669 672 675 678 681 684 687 690 693 696 699 702 705 708 711 714 717 720 723 726 729 732 735 738 741 744 747 750 753 756 759 762 765 768 771 774 777 780 783 786 789 792 795 798 801 804 807 810 813 816 819 822 825 828 831 834 837 840 843 846 849 852 855 858 861 864 867 870 873 876 879 882 885 888 891 894 897 900 903 906 909 912 915 918 921 924 927 930 933 936 939 942 945 948 951 954 957 960 963 966 969 972 975 978 981 984 987 990 993 996 999 1002 1005 1008 1011 1014 1017 1020 1023 1026 1029 1032 1035 1038 1041 1044 1047 1050 1053 1056 1059 1062 1065 1068 1071 1074 1077 1080 1083 1086 1089 1092 1095 1098 1101 1104 1107 1110 1113 1116 1119 1122 1125 1128 1131 1134 1137 1140 </DataArray>
<DataArray  type="UInt8"  Name="types"  format="ascii">5 5 5 5 5 5 5 5 5 5 5 5 5 5 5 5 5 5 5 5 5 5 5 5 5 5 5 5 5 5 5 5 5 5 5 5 5 5 5 5 5 5 5 5 5 5 5 5 5 5 5 5 5 5 5 5 5 5 5 5 5 5 5 5 5 5 5 5 5 5 5 5 5 5 5 5 5 5 5 5 5 5 5 5 5 5 5 5 5 5 5 5 5 5 5 5 5 5 5 5 5 5 5 5 5 5 5 5 5 5 5 5 5 5 5 5 5 5 5 5 5 5 5 5 5 5 5 5 5 5 5 5 5 5 5 5 5 5 5 5 5 5 5 5 5 5 5 5 5 5 5 5 5 5 5 5 5 5 5 5 5 5 5 5 5 5 5 5 5 5 5 5 5 5 5 5 5 5 5 5 5 5 5 5 5 5 5 5 5 5 5 5 5 5 5 5 5 5 5 5 5 5 5 5 5 5 5 5 5 5 5 5 5 5 5 5 5 5 5 5 5 5 5 5 5 5 5 5 5 5 5 5 5 5 5 5 5 5 5 5 5 5 5 5 5 5 5 5 5 5 5 5 5 5 5 5 5 5 5 5 5 5 5 5 5 5 5 5 5 5 5 5 5 5 5 5 5 5 5 5 5 5 5 5 5 5 5 5 5 5 5 5 5 5 5 5 5 5 5 5 5 5 5 5 5 5 5 5 5 5 5 5 5 5 5 5 5 5 5 5 5 5 5 5 5 5 5 5 5 5 5 5 5 5 5 5 5 5 5 5 5 5 5 5 5 5 5 5 5 5 5 5 5 5 5 5 5 5 5 5 5 5 5 5 5 5 5 5 5 5 5 5 5 5 5 5 5 5 5 5 </DataArray>
</Cells>
<PointData  Scalars="reference"> 
<DataArray  type="Float64"  Name="reference"  format="ascii">2.0000000000000000e+00  2.2100000000000000e+00  2.4399999999999999e+00  2.6900000000000004e+00  2.9600000000000000e+00  3.2500000000000000e+00  3.5600000000000005e+00  3.8899999999999997e+00  4.2400000000000002e+00  4.6099999999999994e+00  5.0000000000000000e+00  2.0083102493074794e+00  2.2183102493074793e+00  2.4483102493074793e+00  2.6983102493074798e+00  2.9683102493074793e+00  3.2583102493074794e+00  3.5683102493074799e+00  3.8983102493074790e+00  4.2483102493074796e+00  4.6183102493074788e+00  5.0083102493074794e+00  2.0332409972299170e+00  2.2432409972299170e+00  2.4732409972299170e+00  2.7232409972299174e+00  2.9932409972299170e+00  3.2832409972299170e+00  3.5932409972299175e+00  3.9232409972299167e+00  4.2732409972299168e+00  4.6432409972299160e+00  5.0332409972299166e+00  2.0747922437673130e+00  2.2847922437673129e+00  2.5147922437673129e+00  2.7647922437673134e+00  3.0347922437673129e+00  3.3247922437673130e+00  3.6347922437673135e+00  3.9647922437673127e+00  4.3147922437673136e+00  4.6847922437673128e+00  5.0747922437673134e+00  2.1329639889196677e+00  2.3429639889196676e+00  2.5729639889196676e+00  2.8229639889196680e+00  3.0929639889196676e+00  3.3829639889196677e+00  3.6929639889196682e+00  4.0229639889196669e+00  4.3729639889196674e+00  4.7429639889196666e+00  5.1329639889196672e+00  2.2077562326869806e+00  2.4177562326869806e+00  2.6477562326869806e+00  2.8977562326869810e+00  3.1677562326869806e+00  3.4577562326869806e+00  3.7677562326869811e+00  4.0977562326869803e+00  4.4477562326869808e+00  4.8177562326869801e+00  5.2077562326869806e+00  2.2991689750692519e+00  2.5091689750692519e+00  2.7391689750692518e+00  2.9891689750692523e+00  3.2591689750692519e+00  3.5491689750692519e+00  3.8591689750692524e+00  4.1891689750692516e+00  4.5391689750692521e+00  4.9091689750692513e+00  5.2991689750692519e+00  2.4072022160664819e+00  2.6172022160664818e+00  2.8472022160664818e+00  3.0972022160664823e+00  3.3672022160664818e+00  3.6572022160664819e+00  3.9672022160664824e+00  4.2972022160664816e+00  4.6472022160664821e+00  5.0172022160664813e+00  5.4072022160664819e+00  2.5318559556786702e+00  2.7418559556786701e+00  2.9718559556786701e+00  3.2218559556786706e+00  3.4918559556786701e+00  3.7818559556786702e+00  4.0918559556786711e+00  4.4218559556786703e+00  4.7718559556786708e+00  5.1418559556786700e+00  5.5318559556786706e+00  2.6731301939058172e+00  2.8831301939058172e+00  3.1131301939058171e+00  3.3631301939058176e+00  3.6331301939058172e+00  3.9231301939058172e+00  4.2331301939058177e+00  4.5631301939058169e+00  4.9131301939058174e+00  5.2831301939058166e+00  5.6731301939058172e+00  2.8310249307479225e+00  3.0410249307479225e+00  3.2710249307479224e+00  3.5210249307479229e+00  3.7910249307479225e+00  4.0810249307479225e+00  4.3910249307479230e+00  4.7210249307479222e+00  5.0710249307479227e+00  5.4410249307479219e+00  5.8310249307479225e+00  3.0055401662049865e+00  3.2155401662049865e+00  3.4455401662049860e+00  3.6955401662049869e+00  3.9655401662049865e+00  4.2555401662049865e+00  4.5655401662049870e+00  4.8955401662049862e+00  5.2455401662049868e+00  5.6155401662049860e+00  6.0055401662049865e+00  3.1966759002770084e+00  3.4066759002770084e+00  3.6366759002770079e+00  3.8866759002770088e+00  4.1566759002770084e+00  4.4466759002770084e+00  4.7566759002770089e+00  5.0866759002770081e+00  5.4366759002770086e+00  5.8066759002770079e+00  6.1966759002770084e+00  3.4044321329639891e+00  3.6144321329639890e+00  3.8444321329639890e+00  4.0944321329639894e+00  4.3644321329639890e+00  4.6544321329639891e+00  4.9644321329639896e+00  5.2944321329639887e+00  5.6444321329639893e+00  6.0144321329639885e+00  6.4044321329639891e+00  3.6288088642659275e+00  3.8388088642659275e+00  4.0688088642659279e+00  4.3188088642659279e+00  4.5888088642659275e+00  4.8788088642659275e+00  5.1888088642659280e+00  5.5188088642659272e+00  5.8688088642659277e+00  6.2388088642659270e+00  6.6288088642659275e+00  3.8698060941828256e+00  4.0798060941828256e+00  4.3098060941828251e+00  4.5598060941828260e+00  4.8298060941828256e+00  5.1198060941828256e+00  5.4298060941828261e+00  5.7598060941828253e+00  6.1098060941828258e+00  6.4798060941828250e+00  6.8698060941828256e+00  4.1274238227146807e+00  4.3374238227146815e+00  4.5674238227146811e+00  4.8174238227146819e+00  5.0874238227146815e+00  5.3774238227146807e+00  5.6874238227146812e+00  6.0174238227146812e+00  6.3674238227146809e+00  6.7374238227146801e+00  7.1274238227146807e+00  4.4016620498614962e+00  4.6116620498614953e+00  4.8416620498614957e+00  5.0916620498614957e+00  5.3616620498614953e+00  5.6516620498614962e+00  5.9616620498614967e+00  6.2916620498614950e+00  6.6416620498614964e+00  7.0116620498614957e+00  7.4016620498614962e+00  4.6925207756232687e+00  4.9025207756232678e+00  5.1325207756232682e+00  5.3825207756232682e+00  5.6525207756232678e+00  5.9425207756232687e+00  6.2525207756232692e+00  6.5825207756232675e+00  6.9325207756232690e+00  7.3025207756232682e+00  7.6925207756232687e+00  5.0000000000000000e+00  5.2100000000000000e+00  5.4399999999999995e+00  5.6900000000000004e+00  5.9600000000000000e+00  6.2500000000000000e+00  6.5600000000000005e+00  6.8899999999999997e+00  7.2400000000000002e+00  7.6099999999999994e+00  8.0000000000000000e+00  </DataArray> 
</PointData> 
</Piece>
</UnstructuredGrid>
</VTKFile>