# vtk DataFile Version 2.0

ASCII

DATASET UNSTRUCTURED_GRID

POINTS 15 float 

2.2222223333333332e-02  -2.5000000000000000e-01  3.3333333333333333e-02
9.5555553333333343e-01  -2.5000000000000000e-01  3.3333333333333333e-02
8.8888879999999990e-02  -2.5000000000000000e-01  3.3333333333333333e-02
1.5555553333333333e-01  -2.5000000000000000e-01  3.3333333333333333e-02
2.2222223333333332e-01  -2.5000000000000000e-01  3.3333333333333333e-02
2.8888889999999995e-01  -2.5000000000000000e-01  3.3333333333333333e-02
3.5555553333333334e-01  -2.5000000000000000e-01  3.3333333333333333e-02
4.2222223333333336e-01  -2.5000000000000000e-01  3.3333333333333333e-02
4.8888890000000002e-01  -2.5000000000000000e-01  3.3333333333333333e-02
5.5555553333333341e-01  -2.5000000000000000e-01  3.3333333333333333e-02
6.2222223333333326e-01  -2.5000000000000000e-01  3.3333333333333333e-02
6.8888889999999992e-01  -2.5000000000000000e-01  3.3333333333333333e-02
7.5555553333333325e-01  -2.5000000000000000e-01  3.3333333333333333e-02
8.2222223333333344e-01  -2.5000000000000000e-01  3.3333333333333333e-02
8.8888889999999998e-01  -2.5000000000000000e-01  3.3333333333333333e-02

CELLS 0 0


CELL_TYPES 0


POINT_DATA 15

VECTORS VertexNormals float

0.0000000000000000e+00 0.0000000000000000e+00 0.0000000000000000e+00 
0.0000000000000000e+00 0.0000000000000000e+00 0.0000000000000000e+00 
0.0000000000000000e+00 0.0000000000000000e+00 0.0000000000000000e+00 
0.0000000000000000e+00 0.0000000000000000e+00 0.0000000000000000e+00 
0.0000000000000000e+00 0.0000000000000000e+00 0.0000000000000000e+00 
0.0000000000000000e+00 0.0000000000000000e+00 0.0000000000000000e+00 
0.0000000000000000e+00 0.0000000000000000e+00 0.0000000000000000e+00 
0.0000000000000000e+00 0.0000000000000000e+00 0.0000000000000000e+00 
0.0000000000000000e+00 0.0000000000000000e+00 0.0000000000000000e+00 
0.0000000000000000e+00 0.0000000000000000e+00 0.0000000000000000e+00 
0.0000000000000000e+00 0.0000000000000000e+00 0.0000000000000000e+00 
0.0000000000000000e+00 0.0000000000000000e+00 0.0000000000000000e+00 
0.0000000000000000e+00 0.0000000000000000e+00 0.0000000000000000e+00 
0.0000000000000000e+00 0.0000000000000000e+00 0.0000000000000000e+00 
0.0000000000000000e+00 0.0000000000000000e+00 0.0000000000000000e+00 

SCALARS Sink-Temperature-0 float
LOOKUP_TABLE default
4.2031145789431753e+02
3.1281338607335840e+02
3.7618884695677696e+02
3.5581148733335482e+02
3.4466535446083714e+02
3.3569702134564739e+02
3.2956673476415028e+02
3.2446700868992872e+02
3.2118603569865542e+02
3.1868974328860588e+02
3.1701682857980381e+02
3.1585983366685099e+02
3.1489200262019136e+02
3.1415565011268706e+02
3.1346943938785176e+02

SCALARS Heat-Flux float
LOOKUP_TABLE default
2.9999940000119968e+05
2.8137492336099967e-10
-3.6948222259525210e-11
-8.2422957348171622e-11
-2.5579538487363607e-11
5.6843418860808015e-12
8.5265128291212022e-12
-2.8421709430404007e-11
6.2527760746888816e-11
1.9895196601282805e-11
-8.1001871876651421e-11
2.8421709430404007e-11
5.6843418860808015e-12
5.6843418860808015e-11
2.5579538487363607e-11

