# vtk DataFile Version 2.0

ASCII

DATASET UNSTRUCTURED_GRID

POINTS 15 float 

2.2222223333333332e-02  -2.5000000000000000e-01  3.3333333333333333e-02
9.5555553333333343e-01  -2.5000000000000000e-01  3.3333333333333333e-02
8.8888879999999990e-02  -2.5000000000000000e-01  3.3333333333333333e-02
1.5555553333333333e-01  -2.5000000000000000e-01  3.3333333333333333e-02
2.2222223333333332e-01  -2.5000000000000000e-01  3.3333333333333333e-02
2.8888889999999995e-01  -2.5000000000000000e-01  3.3333333333333333e-02
3.5555553333333334e-01  -2.5000000000000000e-01  3.3333333333333333e-02
4.2222223333333336e-01  -2.5000000000000000e-01  3.3333333333333333e-02
4.8888890000000002e-01  -2.5000000000000000e-01  3.3333333333333333e-02
5.5555553333333341e-01  -2.5000000000000000e-01  3.3333333333333333e-02
6.2222223333333326e-01  -2.5000000000000000e-01  3.3333333333333333e-02
6.8888889999999992e-01  -2.5000000000000000e-01  3.3333333333333333e-02
7.5555553333333325e-01  -2.5000000000000000e-01  3.3333333333333333e-02
8.2222223333333344e-01  -2.5000000000000000e-01  3.3333333333333333e-02
8.8888889999999998e-01  -2.5000000000000000e-01  3.3333333333333333e-02

CELLS 0 0


CELL_TYPES 0


POINT_DATA 15

VECTORS VertexNormals float

0.0000000000000000e+00 0.0000000000000000e+00 0.0000000000000000e+00 
0.0000000000000000e+00 0.0000000000000000e+00 0.0000000000000000e+00 
0.0000000000000000e+00 0.0000000000000000e+00 0.0000000000000000e+00 
0.0000000000000000e+00 0.0000000000000000e+00 0.0000000000000000e+00 
0.0000000000000000e+00 0.0000000000000000e+00 0.0000000000000000e+00 
0.0000000000000000e+00 0.0000000000000000e+00 0.0000000000000000e+00 
0.0000000000000000e+00 0.0000000000000000e+00 0.0000000000000000e+00 
0.0000000000000000e+00 0.0000000000000000e+00 0.0000000000000000e+00 
0.0000000000000000e+00 0.0000000000000000e+00 0.0000000000000000e+00 
0.0000000000000000e+00 0.0000000000000000e+00 0.0000000000000000e+00 
0.0000000000000000e+00 0.0000000000000000e+00 0.0000000000000000e+00 
0.0000000000000000e+00 0.0000000000000000e+00 0.0000000000000000e+00 
0.0000000000000000e+00 0.0000000000000000e+00 0.0000000000000000e+00 
0.0000000000000000e+00 0.0000000000000000e+00 0.0000000000000000e+00 
0.0000000000000000e+00 0.0000000000000000e+00 0.0000000000000000e+00 

SCALARS Sink-Temperature-0 float
LOOKUP_TABLE default
4.2113529965118397e+02
3.1048859527205570e+02
3.7631855066562031e+02
3.5536083054847592e+02
3.4358492752095827e+02
3.3397987102845065e+02
3.2740572676531775e+02
3.2201892079049861e+02
3.1864323499170587e+02
3.1614360224428270e+02
3.1450492403863592e+02
3.1338612954860878e+02
3.1245685125057088e+02
3.1175382017611588e+02
3.1110351067577255e+02

SCALARS Heat-Flux float
LOOKUP_TABLE default
2.9999940000119968e+05
1.4779288903810084e-10
1.6200374375330284e-10
1.4210854715202004e-11
-1.4210854715202004e-11
5.6843418860808015e-12
8.5265128291212022e-12
-2.8421709430404007e-11
6.2527760746888816e-11
1.9895196601282805e-11
-8.1001871876651421e-11
2.8421709430404007e-11
5.6843418860808015e-12
1.4210854715202004e-12
-8.5265128291212022e-12

