# vtk DataFile Version 2.0

ASCII

DATASET UNSTRUCTURED_GRID

POINTS 15 float 

2.2222223333333332e-02  -2.5000000000000000e-01  3.3333333333333333e-02
9.5555553333333343e-01  -2.5000000000000000e-01  3.3333333333333333e-02
8.8888879999999990e-02  -2.5000000000000000e-01  3.3333333333333333e-02
1.5555553333333333e-01  -2.5000000000000000e-01  3.3333333333333333e-02
2.2222223333333332e-01  -2.5000000000000000e-01  3.3333333333333333e-02
2.8888889999999995e-01  -2.5000000000000000e-01  3.3333333333333333e-02
3.5555553333333334e-01  -2.5000000000000000e-01  3.3333333333333333e-02
4.2222223333333336e-01  -2.5000000000000000e-01  3.3333333333333333e-02
4.8888890000000002e-01  -2.5000000000000000e-01  3.3333333333333333e-02
5.5555553333333341e-01  -2.5000000000000000e-01  3.3333333333333333e-02
6.2222223333333326e-01  -2.5000000000000000e-01  3.3333333333333333e-02
6.8888889999999992e-01  -2.5000000000000000e-01  3.3333333333333333e-02
7.5555553333333325e-01  -2.5000000000000000e-01  3.3333333333333333e-02
8.2222223333333344e-01  -2.5000000000000000e-01  3.3333333333333333e-02
8.8888889999999998e-01  -2.5000000000000000e-01  3.3333333333333333e-02

CELLS 0 0


CELL_TYPES 0


POINT_DATA 15

VECTORS VertexNormals float

0.0000000000000000e+00 0.0000000000000000e+00 0.0000000000000000e+00 
0.0000000000000000e+00 0.0000000000000000e+00 0.0000000000000000e+00 
0.0000000000000000e+00 0.0000000000000000e+00 0.0000000000000000e+00 
0.0000000000000000e+00 0.0000000000000000e+00 0.0000000000000000e+00 
0.0000000000000000e+00 0.0000000000000000e+00 0.0000000000000000e+00 
0.0000000000000000e+00 0.0000000000000000e+00 0.0000000000000000e+00 
0.0000000000000000e+00 0.0000000000000000e+00 0.0000000000000000e+00 
0.0000000000000000e+00 0.0000000000000000e+00 0.0000000000000000e+00 
0.0000000000000000e+00 0.0000000000000000e+00 0.0000000000000000e+00 
0.0000000000000000e+00 0.0000000000000000e+00 0.0000000000000000e+00 
0.0000000000000000e+00 0.0000000000000000e+00 0.0000000000000000e+00 
0.0000000000000000e+00 0.0000000000000000e+00 0.0000000000000000e+00 
0.0000000000000000e+00 0.0000000000000000e+00 0.0000000000000000e+00 
0.0000000000000000e+00 0.0000000000000000e+00 0.0000000000000000e+00 
0.0000000000000000e+00 0.0000000000000000e+00 0.0000000000000000e+00 

SCALARS Sink-Temperature-0 float
LOOKUP_TABLE default
4.2062756588386981e+02
3.1209654900888455e+02
3.7629124385303828e+02
3.5571890528635134e+02
3.4435576489088226e+02
3.3517228316488229e+02
3.2889700396191114e+02
3.2370622179872277e+02
3.2039705969785990e+02
3.1790234787720982e+02
3.1624259550576721e+02
3.1509919911466631e+02
3.1414422691228049e+02
3.1341809560067799e+02
3.1274194657471475e+02

SCALARS Heat-Flux float
LOOKUP_TABLE default
2.9999940000119968e+05
-2.8421709430404007e-12
1.6200374375330284e-10
1.4210854715202004e-11
-1.4210854715202004e-11
5.6843418860808015e-12
8.5265128291212022e-12
-2.8421709430404007e-11
1.1368683772161603e-10
4.2632564145606011e-11
1.3500311979441904e-10
1.5916157281026244e-10
5.6843418860808015e-12
2.1742607714259066e-10
1.2221335055073723e-10

