# vtk DataFile Version 2.0

ASCII

DATASET UNSTRUCTURED_GRID

POINTS 15 float 

2.2222223333333332e-02  -2.5000000000000000e-01  3.3333333333333333e-02
9.5555553333333343e-01  -2.5000000000000000e-01  3.3333333333333333e-02
8.8888879999999990e-02  -2.5000000000000000e-01  3.3333333333333333e-02
1.5555553333333333e-01  -2.5000000000000000e-01  3.3333333333333333e-02
2.2222223333333332e-01  -2.5000000000000000e-01  3.3333333333333333e-02
2.8888889999999995e-01  -2.5000000000000000e-01  3.3333333333333333e-02
3.5555553333333334e-01  -2.5000000000000000e-01  3.3333333333333333e-02
4.2222223333333336e-01  -2.5000000000000000e-01  3.3333333333333333e-02
4.8888890000000002e-01  -2.5000000000000000e-01  3.3333333333333333e-02
5.5555553333333341e-01  -2.5000000000000000e-01  3.3333333333333333e-02
6.2222223333333326e-01  -2.5000000000000000e-01  3.3333333333333333e-02
6.8888889999999992e-01  -2.5000000000000000e-01  3.3333333333333333e-02
7.5555553333333325e-01  -2.5000000000000000e-01  3.3333333333333333e-02
8.2222223333333344e-01  -2.5000000000000000e-01  3.3333333333333333e-02
8.8888889999999998e-01  -2.5000000000000000e-01  3.3333333333333333e-02

CELLS 0 0


CELL_TYPES 0


POINT_DATA 15

VECTORS VertexNormals float

0.0000000000000000e+00 0.0000000000000000e+00 0.0000000000000000e+00 
0.0000000000000000e+00 0.0000000000000000e+00 0.0000000000000000e+00 
0.0000000000000000e+00 0.0000000000000000e+00 0.0000000000000000e+00 
0.0000000000000000e+00 0.0000000000000000e+00 0.0000000000000000e+00 
0.0000000000000000e+00 0.0000000000000000e+00 0.0000000000000000e+00 
0.0000000000000000e+00 0.0000000000000000e+00 0.0000000000000000e+00 
0.0000000000000000e+00 0.0000000000000000e+00 0.0000000000000000e+00 
0.0000000000000000e+00 0.0000000000000000e+00 0.0000000000000000e+00 
0.0000000000000000e+00 0.0000000000000000e+00 0.0000000000000000e+00 
0.0000000000000000e+00 0.0000000000000000e+00 0.0000000000000000e+00 
0.0000000000000000e+00 0.0000000000000000e+00 0.0000000000000000e+00 
0.0000000000000000e+00 0.0000000000000000e+00 0.0000000000000000e+00 
0.0000000000000000e+00 0.0000000000000000e+00 0.0000000000000000e+00 
0.0000000000000000e+00 0.0000000000000000e+00 0.0000000000000000e+00 
0.0000000000000000e+00 0.0000000000000000e+00 0.0000000000000000e+00 

SCALARS Sink-Temperature-0 float
LOOKUP_TABLE default
4.4437392776223419e+02
2.9999999027787840e+02
3.7226382807692147e+02
3.3485356119619536e+02
3.1822055866492542e+02
3.0911588366513359e+02
3.0476201921509926e+02
3.0216702833565478e+02
3.0099069818963204e+02
3.0038539663030809e+02
3.0014084622781297e+02
3.0004996904795257e+02
3.0001488063994765e+02
3.0000439202577678e+02
3.0000095042634791e+02

SCALARS Heat-Flux float
LOOKUP_TABLE default
2.9999940000119957e+05
1.1084466677857563e-10
-8.2422957348171634e-11
-4.2632564145606011e-11
-1.4210854715202004e-11
5.6843418860808015e-12
8.5265128291212022e-12
-2.8421709430404007e-11
1.1368683772161603e-10
1.8474111129762605e-10
1.2363443602225743e-10
1.1937117960769683e-10
5.6843418860808015e-12
-6.6791017161449417e-11
-4.8316906031686813e-11

