# vtk DataFile Version 2.0

ASCII

DATASET UNSTRUCTURED_GRID

POINTS 15 float 

2.2222223333333332e-02  -2.5000000000000000e-01  3.3333333333333333e-02
9.5555553333333343e-01  -2.5000000000000000e-01  3.3333333333333333e-02
8.8888879999999990e-02  -2.5000000000000000e-01  3.3333333333333333e-02
1.5555553333333333e-01  -2.5000000000000000e-01  3.3333333333333333e-02
2.2222223333333332e-01  -2.5000000000000000e-01  3.3333333333333333e-02
2.8888889999999995e-01  -2.5000000000000000e-01  3.3333333333333333e-02
3.5555553333333334e-01  -2.5000000000000000e-01  3.3333333333333333e-02
4.2222223333333336e-01  -2.5000000000000000e-01  3.3333333333333333e-02
4.8888890000000002e-01  -2.5000000000000000e-01  3.3333333333333333e-02
5.5555553333333341e-01  -2.5000000000000000e-01  3.3333333333333333e-02
6.2222223333333326e-01  -2.5000000000000000e-01  3.3333333333333333e-02
6.8888889999999992e-01  -2.5000000000000000e-01  3.3333333333333333e-02
7.5555553333333325e-01  -2.5000000000000000e-01  3.3333333333333333e-02
8.2222223333333344e-01  -2.5000000000000000e-01  3.3333333333333333e-02
8.8888889999999998e-01  -2.5000000000000000e-01  3.3333333333333333e-02

CELLS 0 0


CELL_TYPES 0


POINT_DATA 15

VECTORS VertexNormals float

0.0000000000000000e+00 0.0000000000000000e+00 0.0000000000000000e+00 
0.0000000000000000e+00 0.0000000000000000e+00 0.0000000000000000e+00 
0.0000000000000000e+00 0.0000000000000000e+00 0.0000000000000000e+00 
0.0000000000000000e+00 0.0000000000000000e+00 0.0000000000000000e+00 
0.0000000000000000e+00 0.0000000000000000e+00 0.0000000000000000e+00 
0.0000000000000000e+00 0.0000000000000000e+00 0.0000000000000000e+00 
0.0000000000000000e+00 0.0000000000000000e+00 0.0000000000000000e+00 
0.0000000000000000e+00 0.0000000000000000e+00 0.0000000000000000e+00 
0.0000000000000000e+00 0.0000000000000000e+00 0.0000000000000000e+00 
0.0000000000000000e+00 0.0000000000000000e+00 0.0000000000000000e+00 
0.0000000000000000e+00 0.0000000000000000e+00 0.0000000000000000e+00 
0.0000000000000000e+00 0.0000000000000000e+00 0.0000000000000000e+00 
0.0000000000000000e+00 0.0000000000000000e+00 0.0000000000000000e+00 
0.0000000000000000e+00 0.0000000000000000e+00 0.0000000000000000e+00 
0.0000000000000000e+00 0.0000000000000000e+00 0.0000000000000000e+00 

SCALARS Sink-Temperature-0 float
LOOKUP_TABLE default
4.2095651302601607e+02
3.0932661117008200e+02
3.7604684586984172e+02
3.5502815836678178e+02
3.4308599803766543e+02
3.3320735957531718e+02
3.2639148418081095e+02
3.2082736938097509e+02
3.1737806299561561e+02
3.1485322892066557e+02
3.1321518053437404e+02
3.1210758920468174e+02
3.1119823307330950e+02
3.1051992462553517e+02
3.0990198623378080e+02

SCALARS Heat-Flux float
LOOKUP_TABLE default
2.9999940000119980e+05
1.2931877790833823e-10
7.1054273576010032e-11
-1.9042545318370685e-10
-5.9685589803848416e-11
5.6843418860808015e-12
8.5265128291212022e-12
-2.8421709430404007e-11
6.2527760746888816e-11
1.9895196601282805e-11
2.1316282072803006e-11
9.0949470177292824e-11
5.6843418860808015e-12
7.1054273576010019e-12
-2.8421709430404007e-12

