/*--------------------------------*- C++ -*----------------------------------*\
  =========                 |
  \\      /  F ield         | OpenFOAM: The Open Source CFD Toolbox
   \\    /   O peration     | Website:  https://openfoam.org
    \\  /    A nd           | Version:  7
     \\/     M anipulation  |
\*---------------------------------------------------------------------------*/
FoamFile
{
    version     2.0;
    format      ascii;
    class       volScalarField;
    location    "9.12";
    object      T;
}
// * * * * * * * * * * * * * * * * * * * * * * * * * * * * * * * * * * * * * //

dimensions      [0 0 0 1 0 0 0];

internalField   nonuniform List<scalar> 
12013
(
300.14
300.425
300.716
301.012
301.309
301.605
301.9
302.19
302.476
302.755
303.027
303.292
303.548
303.795
304.034
304.264
304.486
304.698
304.903
305.099
305.287
305.469
305.643
305.81
305.971
306.126
306.276
306.42
306.56
306.695
306.827
306.955
307.08
307.202
307.323
307.442
307.561
307.681
307.801
307.923
308.048
308.177
308.312
308.454
308.604
308.764
308.936
309.122
309.325
309.548
309.792
310.062
310.361
310.693
311.061
311.472
311.929
312.439
313.007
313.641
314.346
315.132
316.007
316.98
318.062
319.264
320.6
322.082
323.728
325.554
327.583
329.836
332.344
335.138
338.261
341.766
345.721
350.225
355.424
361.562
369.103
300.14
300.425
300.717
301.012
301.309
301.606
301.901
302.191
302.477
302.757
303.029
303.293
303.55
303.797
304.036
304.266
304.488
304.701
304.905
305.101
305.29
305.471
305.645
305.813
305.974
306.129
306.279
306.423
306.563
306.698
306.83
306.957
307.082
307.205
307.326
307.445
307.564
307.683
307.804
307.926
308.051
308.18
308.315
308.456
308.606
308.766
308.938
309.124
309.327
309.549
309.793
310.063
310.361
310.692
311.061
311.471
311.927
312.436
313.003
313.635
314.339
315.124
315.996
316.967
318.046
319.245
320.575
322.052
323.691
325.509
327.526
329.766
332.255
335.024
338.113
341.568
345.45
349.835
354.824
360.543
367.104
300.141
300.426
300.718
301.013
301.311
301.608
301.903
302.194
302.48
302.76
303.032
303.297
303.554
303.802
304.041
304.271
304.493
304.706
304.911
305.107
305.296
305.477
305.652
305.819
305.98
306.135
306.285
306.43
306.569
306.705
306.836
306.964
307.089
307.211
307.332
307.452
307.57
307.689
307.809
307.931
308.056
308.185
308.32
308.461
308.611
308.77
308.942
309.128
309.33
309.551
309.795
310.064
310.362
310.692
311.059
311.467
311.922
312.429
312.994
313.624
314.325
315.105
315.973
316.938
318.011
319.201
320.522
321.987
323.611
325.41
327.403
329.612
332.061
334.778
337.794
341.149
344.885
349.05
353.693
358.842
364.459
300.141
300.426
300.719
301.015
301.313
301.611
301.906
302.198
302.485
302.765
303.038
303.304
303.561
303.809
304.049
304.279
304.501
304.715
304.92
305.116
305.305
305.487
305.662
305.829
305.991
306.146
306.296
306.44
306.58
306.715
306.847
306.975
307.1
307.222
307.343
307.462
307.581
307.7
307.819
307.941
308.066
308.195
308.329
308.47
308.619
308.778
308.949
309.134
309.335
309.556
309.799
310.066
310.363
310.691
311.056
311.463
311.915
312.419
312.98
313.605
314.301
315.075
315.935
316.892
317.953
319.13
320.435
321.88
323.48
325.249
327.204
329.365
331.751
334.386
337.294
340.502
344.036
347.917
352.155
356.731
361.576
300.141
300.428
300.721
301.018
301.317
301.615
301.912
302.204
302.492
302.773
303.047
303.313
303.571
303.82
304.06
304.291
304.514
304.728
304.933
305.13
305.32
305.502
305.676
305.844
306.006
306.161
306.311
306.456
306.596
306.731
306.863
306.991
307.115
307.238
307.358
307.477
307.596
307.715
307.834
307.956
308.08
308.208
308.342
308.482
308.63
308.789
308.959
309.143
309.344
309.563
309.804
310.07
310.364
310.69
311.053
311.455
311.904
312.403
312.959
313.577
314.265
315.03
315.88
316.823
317.869
319.028
320.31
321.727
323.292
325.018
326.921
329.015
331.317
333.844
336.612
339.638
342.932
346.498
350.325
354.38
358.597
300.142
300.429
300.723
301.022
301.322
301.621
301.919
302.213
302.501
302.783
303.059
303.326
303.584
303.834
304.076
304.308
304.531
304.745
304.951
305.149
305.339
305.522
305.697
305.865
306.027
306.183
306.333
306.478
306.618
306.753
306.885
307.012
307.137
307.26
307.38
307.499
307.617
307.735
307.855
307.976
308.099
308.227
308.36
308.5
308.647
308.804
308.973
309.156
309.355
309.573
309.812
310.075
310.366
310.689
311.048
311.446
311.889
312.382
312.93
313.54
314.218
314.971
315.806
316.732
317.757
318.89
320.142
321.522
323.042
324.713
326.548
328.558
330.756
333.152
335.757
338.578
341.614
344.859
348.295
351.887
355.582
300.142
300.431
300.727
301.027
301.328
301.63
301.929
302.224
302.514
302.798
303.074
303.343
303.603
303.854
304.096
304.329
304.554
304.769
304.976
305.175
305.365
305.548
305.724
305.893
306.055
306.211
306.362
306.507
306.647
306.782
306.914
307.042
307.166
307.289
307.409
307.527
307.645
307.763
307.882
308.002
308.125
308.252
308.384
308.523
308.669
308.825
308.993
309.174
309.371
309.586
309.822
310.082
310.37
310.688
311.042
311.434
311.871
312.355
312.894
313.493
314.157
314.894
315.711
316.614
317.612
318.714
319.927
321.262
322.727
324.331
326.084
327.995
330.072
332.322
334.747
337.35
340.124
343.058
346.131
349.314
352.568
300.143
300.434
300.731
301.033
301.337
301.64
301.941
302.238
302.53
302.816
303.094
303.365
303.626
303.879
304.123
304.358
304.583
304.8
305.008
305.207
305.399
305.583
305.759
305.929
306.092
306.248
306.399
306.544
306.685
306.82
306.952
307.08
307.204
307.326
307.446
307.564
307.682
307.799
307.917
308.037
308.159
308.285
308.416
308.553
308.698
308.852
309.018
309.197
309.391
309.603
309.836
310.092
310.375
310.688
311.036
311.421
311.848
312.323
312.85
313.434
314.082
314.8
315.593
316.469
317.435
318.498
319.666
320.946
322.345
323.872
325.532
327.332
329.276
331.367
333.604
335.986
338.503
341.142
343.885
346.707
349.578
300.144
300.437
300.737
301.041
301.347
301.653
301.957
302.257
302.551
302.839
303.12
303.392
303.656
303.911
304.157
304.393
304.62
304.839
305.048
305.249
305.442
305.627
305.804
305.974
306.138
306.295
306.446
306.592
306.733
306.868
307
307.128
307.252
307.374
307.493
307.611
307.728
307.845
307.962
308.081
308.202
308.327
308.456
308.592
308.735
308.887
309.05
309.227
309.418
309.626
309.855
310.106
310.383
310.69
311.029
311.405
311.822
312.285
312.797
313.365
313.993
314.687
315.453
316.297
317.224
318.243
319.357
320.575
321.9
323.34
324.897
326.577
328.38
330.307
332.355
334.518
336.789
339.155
341.598
344.099
346.637
300.146
300.442
300.744
301.052
301.361
301.67
301.976
302.279
302.577
302.868
303.152
303.427
303.693
303.951
304.199
304.437
304.667
304.887
305.098
305.301
305.495
305.681
305.86
306.031
306.196
306.354
306.505
306.652
306.792
306.928
307.06
307.188
307.312
307.433
307.552
307.67
307.786
307.902
308.018
308.136
308.256
308.379
308.507
308.641
308.782
308.931
309.092
309.264
309.452
309.656
309.879
310.125
310.395
310.694
311.024
311.389
311.794
312.242
312.737
313.285
313.89
314.556
315.291
316.097
316.981
317.949
319.004
320.152
321.397
322.742
324.191
325.744
327.402
329.164
331.025
332.979
335.018
337.131
339.303
341.519
343.762
300.147
300.447
300.753
301.064
301.377
301.69
302.001
302.307
302.609
302.904
303.191
303.469
303.739
304
304.251
304.492
304.724
304.946
305.16
305.365
305.561
305.749
305.929
306.101
306.267
306.426
306.578
306.725
306.866
307.003
307.134
307.262
307.386
307.507
307.626
307.742
307.858
307.973
308.088
308.204
308.323
308.444
308.57
308.702
308.84
308.987
309.144
309.312
309.495
309.694
309.912
310.15
310.413
310.702
311.021
311.374
311.764
312.195
312.671
313.196
313.774
314.41
315.108
315.873
316.709
317.62
318.611
319.684
320.843
322.089
323.425
324.85
326.363
327.962
329.643
331.398
333.221
335.102
337.029
338.991
340.972
300.15
300.453
300.764
301.079
301.397
301.715
302.03
302.341
302.647
302.947
303.238
303.521
303.795
304.059
304.314
304.558
304.793
305.019
305.235
305.442
305.641
305.831
306.013
306.187
306.354
306.514
306.668
306.815
306.957
307.093
307.225
307.353
307.477
307.597
307.715
307.831
307.946
308.06
308.174
308.288
308.405
308.525
308.648
308.777
308.912
309.055
309.208
309.373
309.55
309.743
309.954
310.184
310.438
310.716
311.023
311.362
311.736
312.147
312.601
313.1
313.649
314.251
314.91
315.629
316.413
317.264
318.185
319.18
320.249
321.394
322.616
323.913
325.284
326.726
328.235
329.804
331.428
333.097
334.804
336.537
338.286
300.152
300.461
300.777
301.098
301.421
301.744
302.065
302.382
302.694
302.999
303.295
303.583
303.862
304.131
304.39
304.639
304.878
305.107
305.326
305.537
305.738
305.93
306.115
306.291
306.46
306.621
306.776
306.924
307.067
307.204
307.336
307.463
307.587
307.707
307.824
307.939
308.053
308.165
308.278
308.391
308.505
308.623
308.743
308.869
309.001
309.14
309.289
309.448
309.619
309.805
310.008
310.23
310.473
310.74
311.033
311.356
311.711
312.102
312.531
313.002
313.519
314.084
314.7
315.371
316.099
316.887
317.737
318.651
319.63
320.673
321.782
322.954
324.188
325.48
326.828
328.224
329.665
331.142
332.65
334.179
335.721
300.155
300.47
300.792
301.12
301.45
301.78
302.108
302.432
302.75
303.061
303.364
303.658
303.943
304.217
304.481
304.735
304.979
305.212
305.436
305.65
305.855
306.05
306.237
306.416
306.587
306.75
306.906
307.055
307.199
307.336
307.469
307.596
307.72
307.839
307.956
308.07
308.182
308.293
308.404
308.515
308.627
308.741
308.859
308.981
309.109
309.244
309.387
309.541
309.706
309.884
310.078
310.29
310.521
310.775
311.053
311.359
311.694
312.062
312.465
312.906
313.388
313.914
314.486
315.106
315.777
316.501
317.278
318.111
318.999
319.943
320.942
321.994
323.097
324.249
325.446
326.684
327.957
329.261
330.589
331.935
333.293
300.159
300.481
300.811
301.146
301.484
301.822
302.158
302.49
302.816
303.135
303.446
303.747
304.039
304.32
304.59
304.85
305.1
305.339
305.567
305.786
305.995
306.194
306.384
306.566
306.739
306.904
307.062
307.213
307.357
307.495
307.628
307.755
307.878
307.998
308.113
308.226
308.337
308.446
308.555
308.664
308.773
308.885
308.999
309.117
309.241
309.371
309.508
309.655
309.813
309.983
310.167
310.368
310.587
310.826
311.088
311.375
311.689
312.033
312.408
312.818
313.264
313.749
314.275
314.844
315.457
316.116
316.821
317.574
318.374
319.221
320.114
321.053
322.034
323.055
324.113
325.205
326.327
327.473
328.641
329.823
331.016
300.163
300.494
300.833
301.178
301.525
301.873
302.218
302.56
302.895
303.224
303.543
303.853
304.153
304.442
304.72
304.988
305.244
305.489
305.724
305.948
306.161
306.365
306.559
306.744
306.92
307.088
307.247
307.4
307.545
307.684
307.817
307.945
308.068
308.186
308.301
308.412
308.522
308.629
308.735
308.841
308.948
309.056
309.167
309.281
309.399
309.524
309.655
309.795
309.944
310.106
310.28
310.469
310.675
310.899
311.144
311.411
311.703
312.021
312.368
312.745
313.155
313.598
314.078
314.595
315.15
315.745
316.38
317.055
317.771
318.526
319.32
320.151
321.019
321.919
322.851
323.811
324.795
325.8
326.823
327.859
328.905
300.168
300.509
300.859
301.215
301.573
301.932
302.289
302.642
302.989
303.328
303.658
303.978
304.288
304.587
304.874
305.15
305.414
305.667
305.909
306.139
306.358
306.567
306.766
306.955
307.134
307.305
307.467
307.621
307.768
307.907
308.041
308.169
308.291
308.409
308.523
308.633
308.74
308.846
308.949
309.053
309.156
309.26
309.367
309.476
309.589
309.708
309.832
309.965
310.106
310.257
310.421
310.598
310.789
310.998
311.225
311.472
311.74
312.033
312.35
312.695
313.068
313.47
313.904
314.37
314.869
315.402
315.969
316.57
317.206
317.875
318.576
319.309
320.071
320.862
321.678
322.518
323.379
324.258
325.151
326.057
326.971
300.174
300.527
300.89
301.258
301.63
302.003
302.373
302.739
303.099
303.451
303.793
304.126
304.448
304.758
305.056
305.342
305.616
305.877
306.127
306.365
306.591
306.805
307.009
307.203
307.386
307.56
307.725
307.881
308.029
308.17
308.304
308.432
308.554
308.671
308.784
308.892
308.998
309.101
309.202
309.302
309.402
309.502
309.604
309.708
309.816
309.928
310.045
310.17
310.302
310.443
310.595
310.759
310.937
311.129
311.338
311.564
311.809
312.076
312.364
312.676
313.013
313.375
313.764
314.181
314.626
315.1
315.603
316.135
316.695
317.284
317.9
318.542
319.209
319.9
320.612
321.345
322.095
322.86
323.639
324.428
325.225
300.181
300.549
300.926
301.31
301.697
302.085
302.471
302.853
303.228
303.595
303.953
304.3
304.635
304.958
305.269
305.567
305.852
306.124
306.383
306.629
306.863
307.084
307.294
307.493
307.681
307.858
308.026
308.185
308.335
308.477
308.612
308.739
308.861
308.977
309.088
309.195
309.299
309.399
309.497
309.594
309.69
309.786
309.883
309.982
310.083
310.189
310.299
310.415
310.538
310.669
310.809
310.96
311.123
311.298
311.489
311.694
311.917
312.158
312.417
312.697
312.999
313.322
313.669
314.039
314.433
314.852
315.295
315.762
316.253
316.768
317.307
317.867
318.448
319.049
319.668
320.304
320.955
321.619
322.295
322.981
323.675
300.189
300.574
300.968
301.37
301.775
302.182
302.586
302.986
303.379
303.764
304.139
304.503
304.855
305.193
305.519
305.83
306.128
306.412
306.682
306.938
307.18
307.41
307.626
307.831
308.024
308.205
308.377
308.538
308.69
308.833
308.969
309.097
309.218
309.333
309.443
309.548
309.649
309.746
309.841
309.934
310.026
310.117
310.209
310.302
310.397
310.496
310.598
310.705
310.819
310.939
311.068
311.205
311.354
311.513
311.685
311.87
312.071
312.286
312.518
312.768
313.036
313.322
313.629
313.955
314.302
314.669
315.057
315.465
315.893
316.342
316.809
317.295
317.799
318.32
318.856
319.406
319.969
320.544
321.13
321.724
322.325
300.199
300.603
301.018
301.44
301.867
302.295
302.721
303.142
303.556
303.962
304.357
304.74
305.111
305.468
305.81
306.137
306.45
306.747
307.029
307.296
307.548
307.786
308.011
308.222
308.42
308.606
308.781
308.946
309.1
309.244
309.38
309.508
309.629
309.743
309.851
309.954
310.052
310.147
310.238
310.327
310.415
310.501
310.588
310.675
310.763
310.854
310.949
311.047
311.151
311.261
311.377
311.502
311.636
311.779
311.933
312.099
312.277
312.469
312.675
312.896
313.132
313.384
313.653
313.939
314.242
314.562
314.899
315.254
315.626
316.014
316.419
316.839
317.274
317.723
318.185
318.66
319.146
319.642
320.147
320.66
321.179
300.21
300.637
301.076
301.522
301.974
302.427
302.877
303.324
303.763
304.192
304.611
305.017
305.409
305.786
306.148
306.493
306.822
307.135
307.43
307.71
307.973
308.221
308.453
308.672
308.876
309.067
309.246
309.413
309.57
309.716
309.852
309.98
310.1
310.213
310.319
310.42
310.515
310.606
310.694
310.779
310.861
310.943
311.023
311.104
311.186
311.27
311.356
311.446
311.54
311.639
311.744
311.855
311.975
312.103
312.24
312.387
312.545
312.714
312.895
313.089
313.296
313.516
313.751
314
314.263
314.54
314.833
315.139
315.46
315.795
316.143
316.505
316.879
317.265
317.663
318.071
318.489
318.915
319.35
319.791
320.239
300.223
300.677
301.143
301.618
302.098
302.58
303.06
303.535
304.003
304.461
304.906
305.338
305.755
306.156
306.539
306.904
307.252
307.581
307.892
308.185
308.46
308.719
308.96
309.186
309.397
309.593
309.776
309.947
310.105
310.252
310.389
310.517
310.636
310.747
310.852
310.949
311.042
311.129
311.213
311.293
311.371
311.447
311.521
311.596
311.671
311.747
311.825
311.906
311.99
312.078
312.172
312.271
312.377
312.49
312.611
312.74
312.879
313.027
313.185
313.354
313.534
313.726
313.929
314.144
314.372
314.611
314.863
315.127
315.403
315.691
315.99
316.3
316.621
316.952
317.292
317.642
318
318.366
318.739
319.118
319.503
300.239
300.723
301.222
301.73
302.243
302.759
303.273
303.781
304.282
304.771
305.248
305.71
306.154
306.581
306.989
307.377
307.745
308.093
308.42
308.728
309.016
309.285
309.537
309.771
309.988
310.19
310.377
310.55
310.711
310.859
310.996
311.123
311.241
311.351
311.452
311.547
311.636
311.72
311.799
311.874
311.947
312.017
312.085
312.153
312.221
312.29
312.359
312.431
312.506
312.584
312.667
312.754
312.847
312.946
313.051
313.164
313.285
313.413
313.551
313.697
313.853
314.018
314.193
314.379
314.574
314.78
314.996
315.223
315.459
315.705
315.961
316.226
316.501
316.784
317.075
317.374
317.68
317.993
318.312
318.637
318.967
300.256
300.777
301.313
301.859
302.412
302.967
303.519
304.067
304.605
305.131
305.643
306.138
306.614
307.07
307.505
307.918
308.308
308.676
309.021
309.344
309.646
309.927
310.188
310.43
310.654
310.861
311.052
311.228
311.391
311.54
311.677
311.803
311.919
312.026
312.125
312.216
312.301
312.381
312.455
312.525
312.592
312.656
312.719
312.78
312.841
312.902
312.963
313.027
313.092
313.16
313.232
313.308
313.389
313.475
313.566
313.663
313.767
313.878
313.997
314.122
314.256
314.398
314.549
314.708
314.875
315.051
315.236
315.429
315.631
315.842
316.06
316.286
316.52
316.762
317.01
317.265
317.527
317.794
318.067
318.345
318.627
300.277
300.84
301.419
302.01
302.608
303.208
303.805
304.397
304.978
305.546
306.097
306.63
307.141
307.629
308.094
308.533
308.947
309.336
309.701
310.04
310.356
310.649
310.92
311.17
311.4
311.612
311.807
311.985
312.148
312.297
312.434
312.558
312.672
312.776
312.872
312.959
313.04
313.114
313.184
313.249
313.31
313.368
313.424
313.478
313.532
313.585
313.639
313.694
313.75
313.809
313.871
313.936
314.005
314.079
314.157
314.241
314.33
314.425
314.526
314.633
314.748
314.869
314.998
315.133
315.276
315.427
315.584
315.749
315.921
316.1
316.286
316.479
316.679
316.884
317.096
317.313
317.536
317.764
317.997
318.234
318.476
300.301
300.913
301.543
302.185
302.835
303.486
304.136
304.778
305.408
306.023
306.619
307.193
307.742
308.266
308.762
309.23
309.67
310.081
310.465
310.821
311.15
311.455
311.735
311.993
312.229
312.445
312.642
312.821
312.985
313.133
313.268
313.39
313.501
313.602
313.693
313.777
313.852
313.922
313.986
314.045
314.1
314.152
314.201
314.249
314.295
314.341
314.387
314.434
314.482
314.532
314.585
314.64
314.699
314.761
314.827
314.898
314.974
315.054
315.141
315.232
315.33
315.433
315.542
315.658
315.779
315.907
316.042
316.182
316.328
316.481
316.639
316.804
316.973
317.148
317.329
317.514
317.704
317.899
318.097
318.3
318.506
300.329
300.998
301.686
302.388
303.097
303.809
304.517
305.217
305.902
306.57
307.215
307.834
308.425
308.987
309.517
310.015
310.481
310.915
311.318
311.69
312.033
312.349
312.637
312.901
313.142
313.361
313.559
313.739
313.901
314.048
314.18
314.299
314.406
314.503
314.589
314.668
314.738
314.802
314.86
314.913
314.962
315.007
315.05
315.091
315.131
315.17
315.208
315.248
315.288
315.33
315.374
315.42
315.469
315.521
315.577
315.637
315.701
315.769
315.842
315.919
316.002
316.09
316.183
316.281
316.384
316.493
316.608
316.727
316.852
316.982
317.117
317.257
317.401
317.551
317.704
317.862
318.025
318.19
318.36
318.533
318.709
300.362
301.097
301.852
302.623
303.401
304.181
304.957
305.721
306.469
307.194
307.893
308.562
309.198
309.8
310.365
310.894
311.386
311.843
312.264
312.651
313.006
313.331
313.627
313.895
314.139
314.358
314.557
314.735
314.896
315.039
315.168
315.282
315.385
315.476
315.557
315.629
315.694
315.752
315.804
315.851
315.893
315.933
315.969
316.004
316.037
316.069
316.101
316.133
316.167
316.201
316.237
316.275
316.316
316.36
316.406
316.456
316.51
316.568
316.629
316.695
316.765
316.84
316.919
317.002
317.091
317.183
317.281
317.383
317.489
317.6
317.716
317.835
317.959
318.087
318.218
318.353
318.492
318.634
318.779
318.927
319.078
300.399
301.211
302.045
302.894
303.752
304.611
305.462
306.299
307.116
307.905
308.663
309.385
310.068
310.711
311.312
311.871
312.389
312.866
313.304
313.705
314.069
314.401
314.701
314.972
315.216
315.435
315.631
315.806
315.963
316.102
316.225
316.334
316.431
316.516
316.591
316.657
316.716
316.767
316.813
316.854
316.891
316.924
316.955
316.983
317.01
317.037
317.063
317.089
317.116
317.144
317.173
317.205
317.239
317.275
317.314
317.356
317.401
317.45
317.502
317.558
317.618
317.682
317.75
317.821
317.897
317.976
318.06
318.148
318.239
318.335
318.434
318.536
318.643
318.752
318.865
318.981
319.1
319.222
319.347
319.474
319.604
300.443
301.343
302.267
303.208
304.157
305.104
306.041
306.96
307.852
308.711
309.531
310.308
311.04
311.725
312.361
312.949
313.49
313.985
314.437
314.847
315.219
315.554
315.855
316.126
316.367
316.583
316.775
316.945
317.095
317.228
317.345
317.447
317.537
317.616
317.684
317.744
317.796
317.842
317.882
317.917
317.948
317.976
318.001
318.025
318.047
318.068
318.09
318.111
318.133
318.156
318.18
318.207
318.235
318.265
318.298
318.334
318.373
318.415
318.46
318.508
318.56
318.615
318.674
318.736
318.801
318.871
318.943
319.019
319.098
319.181
319.267
319.356
319.448
319.543
319.641
319.741
319.844
319.95
320.057
320.167
320.279
300.494
301.496
302.525
303.57
304.622
305.67
306.703
307.711
308.686
309.619
310.505
311.339
312.119
312.843
313.512
314.125
314.686
315.195
315.656
316.072
316.446
316.781
317.08
317.346
317.582
317.791
317.976
318.139
318.282
318.407
318.516
318.612
318.694
318.766
318.828
318.882
318.928
318.968
319.002
319.033
319.059
319.083
319.104
319.124
319.142
319.16
319.177
319.195
319.214
319.234
319.255
319.277
319.302
319.329
319.358
319.389
319.424
319.461
319.5
319.543
319.589
319.638
319.69
319.745
319.803
319.864
319.928
319.995
320.065
320.137
320.213
320.291
320.372
320.455
320.541
320.628
320.718
320.81
320.904
321
321.097
300.552
301.673
302.821
303.987
305.156
306.317
307.457
308.563
309.625
310.636
311.588
312.479
313.304
314.065
314.761
315.395
315.969
316.486
316.951
317.367
317.737
318.067
318.359
318.618
318.845
319.046
319.221
319.375
319.509
319.625
319.726
319.814
319.889
319.954
320.01
320.058
320.1
320.135
320.166
320.193
320.216
320.237
320.255
320.273
320.289
320.306
320.322
320.338
320.355
320.374
320.393
320.414
320.437
320.462
320.489
320.519
320.55
320.585
320.621
320.661
320.703
320.748
320.795
320.845
320.898
320.953
321.011
321.071
321.134
321.199
321.267
321.337
321.409
321.483
321.559
321.636
321.716
321.797
321.88
321.964
322.049
300.619
301.876
303.163
304.465
305.767
307.054
308.31
309.521
310.675
311.765
312.783
313.725
314.591
315.381
316.097
316.743
317.323
317.841
318.302
318.711
319.073
319.393
319.674
319.921
320.137
320.326
320.491
320.634
320.758
320.866
320.959
321.039
321.108
321.168
321.219
321.263
321.301
321.334
321.363
321.388
321.41
321.43
321.449
321.466
321.483
321.5
321.517
321.534
321.552
321.571
321.592
321.614
321.637
321.662
321.69
321.719
321.75
321.784
321.82
321.858
321.898
321.941
321.986
322.033
322.083
322.134
322.188
322.244
322.302
322.361
322.423
322.487
322.552
322.619
322.687
322.757
322.828
322.901
322.974
323.049
323.125
300.697
302.11
303.554
305.012
306.463
307.888
309.269
310.591
311.839
313.005
314.082
315.069
315.966
316.776
317.501
318.149
318.724
319.234
319.684
320.08
320.428
320.733
320.999
321.231
321.434
321.61
321.762
321.895
322.01
322.11
322.196
322.271
322.335
322.391
322.44
322.482
322.519
322.552
322.581
322.608
322.632
322.654
322.675
322.695
322.715
322.735
322.755
322.776
322.798
322.82
322.844
322.868
322.895
322.923
322.952
322.983
323.017
323.051
323.088
323.127
323.167
323.21
323.254
323.3
323.348
323.398
323.449
323.502
323.557
323.613
323.67
323.729
323.789
323.85
323.913
323.976
324.041
324.107
324.173
324.24
324.308
300.786
302.379
304.002
305.634
307.25
308.826
310.34
311.773
313.112
314.346
315.472
316.491
317.407
318.222
318.943
319.58
320.14
320.631
321.061
321.437
321.765
322.051
322.3
322.517
322.705
322.869
323.011
323.135
323.242
323.336
323.418
323.49
323.553
323.608
323.657
323.701
323.741
323.777
323.81
323.84
323.869
323.896
323.923
323.949
323.974
324
324.026
324.052
324.08
324.107
324.136
324.166
324.197
324.23
324.263
324.298
324.335
324.372
324.412
324.452
324.494
324.538
324.583
324.629
324.677
324.726
324.776
324.827
324.879
324.933
324.987
325.042
325.098
325.156
325.213
325.272
325.331
325.39
325.451
325.511
325.572
300.888
302.685
304.512
306.339
308.136
309.873
311.521
313.062
314.483
315.77
316.924
317.952
318.861
319.663
320.366
320.981
321.517
321.985
322.391
322.744
323.05
323.317
323.548
323.75
323.925
324.078
324.212
324.329
324.433
324.524
324.604
324.676
324.741
324.799
324.852
324.901
324.946
324.988
325.028
325.066
325.102
325.137
325.171
325.205
325.239
325.273
325.307
325.341
325.375
325.41
325.446
325.482
325.52
325.557
325.596
325.636
325.677
325.718
325.761
325.804
325.849
325.894
325.94
325.987
326.035
326.084
326.133
326.183
326.234
326.285
326.337
326.39
326.442
326.496
326.549
326.603
326.657
326.712
326.766
326.821
326.876
301.003
303.033
305.089
307.133
309.125
311.029
312.807
314.429
315.894
317.202
318.361
319.38
320.272
321.05
321.725
322.31
322.817
323.255
323.634
323.962
324.247
324.494
324.709
324.897
325.062
325.207
325.335
325.449
325.55
325.642
325.725
325.8
325.87
325.934
325.994
326.05
326.103
326.154
326.203
326.25
326.296
326.341
326.385
326.428
326.472
326.514
326.557
326.6
326.643
326.686
326.729
326.772
326.815
326.859
326.904
326.948
326.993
327.039
327.085
327.131
327.178
327.225
327.272
327.32
327.368
327.417
327.465
327.514
327.563
327.613
327.662
327.711
327.761
327.81
327.86
327.91
327.959
328.008
328.058
328.107
328.155
301.133
303.426
305.738
308.019
310.212
312.248
314.108
315.781
317.269
318.579
319.725
320.72
321.581
322.323
322.962
323.511
323.983
324.39
324.74
325.044
325.307
325.536
325.736
325.913
326.069
326.209
326.334
326.447
326.55
326.645
326.732
326.813
326.89
326.962
327.03
327.095
327.158
327.219
327.277
327.334
327.39
327.445
327.499
327.552
327.605
327.656
327.708
327.759
327.809
327.86
327.909
327.959
328.008
328.058
328.107
328.155
328.204
328.253
328.301
328.35
328.398
328.447
328.495
328.543
328.591
328.639
328.686
328.733
328.781
328.827
328.874
328.92
328.967
329.012
329.058
329.103
329.148
329.192
329.236
329.279
329.323
301.274
303.855
306.449
308.953
311.289
313.421
315.336
317.032
318.518
319.808
320.922
321.878
322.696
323.395
323.991
324.501
324.938
325.312
325.635
325.915
326.158
326.372
326.56
326.728
326.878
327.014
327.138
327.252
327.357
327.456
327.548
327.635
327.718
327.798
327.874
327.947
328.018
328.087
328.155
328.221
328.285
328.348
328.41
328.471
328.531
328.59
328.648
328.705
328.762
328.818
328.873
328.927
328.981
329.034
329.086
329.138
329.19
329.241
329.291
329.341
329.39
329.439
329.487
329.535
329.582
329.628
329.675
329.72
329.765
329.81
329.854
329.897
329.94
329.982
330.024
330.065
330.105
330.145
330.184
330.223
330.261
301.408
304.273
307.096
309.748
312.178
314.361
316.291
317.977
319.436
320.69
321.761
322.673
323.448
324.106
324.664
325.14
325.547
325.896
326.197
326.459
326.688
326.89
327.069
327.23
327.376
327.51
327.633
327.747
327.853
327.954
328.049
328.14
328.227
328.31
328.391
328.469
328.545
328.619
328.692
328.762
328.832
328.899
328.966
329.031
329.095
329.158
329.22
329.281
329.341
329.4
329.458
329.515
329.571
329.626
329.68
329.734
329.787
329.839
329.89
329.94
329.99
330.039
330.087
330.134
330.181
330.227
330.272
330.316
330.36
330.402
330.444
330.486
330.526
330.566
330.606
330.644
330.682
330.719
330.755
330.791
330.826
379.222
387.15
393.835
399.676
404.874
409.535
413.72
417.462
420.775
423.66
426.104
428.085
429.568
430.503
430.823
430.438
429.217
426.963
423.345
417.705
408.396
402.107
397.297
393.365
390.023
387.109
384.523
382.195
380.077
378.134
376.337
374.665
373.1
371.628
370.238
368.92
367.664
366.465
365.316
364.212
363.147
362.119
361.123
360.157
359.217
358.301
357.407
356.533
355.677
354.838
354.013
353.202
352.404
351.617
350.84
350.074
349.316
348.567
347.825
347.091
346.364
345.644
344.93
344.222
343.52
342.825
342.135
341.451
340.773
340.101
339.435
338.776
338.122
337.474
336.833
336.199
335.571
334.949
334.335
333.728
333.128
332.535
331.95
331.373
330.805
330.244
329.692
329.149
328.615
328.09
327.574
327.068
326.572
326.085
325.609
325.144
324.688
324.244
323.81
323.387
322.974
322.573
322.182
321.803
321.434
321.076
320.729
320.392
320.066
319.75
319.445
319.149
318.863
318.587
318.32
318.062
317.812
317.572
317.339
317.115
316.898
316.688
316.486
316.29
316.1
315.917
315.739
315.567
315.4
315.238
315.081
314.928
314.779
314.634
314.492
314.354
314.219
314.086
313.956
313.829
313.704
313.581
313.46
313.341
313.223
313.107
312.993
312.879
312.767
312.655
312.545
312.436
312.327
312.219
312.112
312.006
311.9
311.795
311.691
311.588
311.488
374.491
381.374
387.586
393.181
398.236
402.808
406.937
410.643
413.936
416.811
419.256
421.246
422.748
423.713
424.079
423.761
422.648
420.582
417.345
412.67
406.512
401.191
396.757
393.006
389.765
386.914
384.37
382.073
379.977
378.051
376.267
374.606
373.05
371.585
370.2
368.887
367.635
366.439
365.293
364.191
363.129
362.103
361.109
360.144
359.205
358.291
357.398
356.525
355.669
354.83
354.006
353.196
352.398
351.612
350.836
350.069
349.312
348.563
347.822
347.088
346.361
345.641
344.927
344.219
343.518
342.822
342.132
341.449
340.771
340.099
339.433
338.773
338.12
337.472
336.831
336.197
335.569
334.947
334.333
333.726
333.126
332.533
331.949
331.372
330.803
330.242
329.69
329.147
328.613
328.088
327.572
327.066
326.57
326.084
325.608
325.142
324.687
324.242
323.808
323.385
322.973
322.572
322.181
321.802
321.433
321.075
320.728
320.391
320.065
319.749
319.444
319.148
318.862
318.586
318.319
318.061
317.812
317.571
317.339
317.114
316.897
316.688
316.485
316.29
316.1
315.917
315.739
315.567
315.4
315.238
315.081
314.928
314.779
314.634
314.492
314.354
314.219
314.086
313.957
313.829
313.704
313.581
313.461
313.341
313.224
313.108
312.993
312.879
312.767
312.656
312.545
312.436
312.327
312.219
312.112
312.006
311.9
311.795
311.692
311.589
311.488
370.417
376.302
381.878
387.067
391.854
396.245
400.249
403.872
407.11
409.955
412.39
414.391
415.923
416.943
417.395
417.209
416.298
414.558
411.885
408.232
403.816
399.531
395.667
392.242
389.203
386.484
384.032
381.8
379.755
377.866
376.112
374.475
372.938
371.489
370.117
368.814
367.572
366.384
365.244
364.148
363.091
362.069
361.078
360.117
359.181
358.269
357.378
356.507
355.653
354.816
353.993
353.184
352.387
351.601
350.826
350.06
349.304
348.555
347.815
347.081
346.355
345.635
344.921
344.214
343.512
342.817
342.128
341.444
340.767
340.095
339.429
338.769
338.116
337.468
336.827
336.193
335.565