/*--------------------------------*- C++ -*----------------------------------*\
  =========                 |
  \\      /  F ield         | OpenFOAM: The Open Source CFD Toolbox
   \\    /   O peration     | Website:  https://openfoam.org
    \\  /    A nd           | Version:  7
     \\/     M anipulation  |
\*---------------------------------------------------------------------------*/
FoamFile
{
    version     2.0;
    format      ascii;
    class       volScalarField;
    location    "1.4";
    object      p;
}
// * * * * * * * * * * * * * * * * * * * * * * * * * * * * * * * * * * * * * //

dimensions      [0 2 -2 0 0 0 0];

internalField   nonuniform List<scalar> 
2790
(
169.991
169.898
170.165
170.735
171.515
172.472
173.603
174.909
176.384
178.023
179.82
181.768
183.857
186.078
188.412
190.841
193.336
195.866
198.386
200.847
203.191
205.353
207.267
208.87
210.113
210.971
211.392
211.44
211.492
211.702
169.788
169.805
170.097
170.665
171.441
172.395
173.522
174.821
176.289
177.92
179.707
181.645
183.724
185.933
188.256
190.675
193.162
195.686
198.205
200.67
203.024
205.203
207.141
208.772
210.039
210.897
211.279
211.334
211.461
211.736
169.589
169.677
169.988
170.545
171.308
172.249
173.361
174.642
176.089
177.695
179.454
181.361
183.405
185.575
187.858
190.233
192.677
195.158
197.638
200.073
202.409
204.586
206.541
208.214
209.547
210.506
211.085
211.432
211.737
212.027
169.364
169.483
169.806
170.355
171.103
172.028
173.12
174.377
175.795
177.368
179.089
180.951
182.946
185.062
187.284
189.595
191.971
194.385
196.801
199.178
201.471
203.628
205.593
207.316
208.753
209.888
210.741
211.4
211.942
212.454
169.104
169.236
169.568
170.11
170.841
171.745
172.811
174.037
175.418
176.947
178.619
180.425
182.357
184.403
186.549
188.778
191.068
193.393
195.723
198.024
200.255
202.375
204.341
206.115
207.668
208.994
210.11
211.06
211.861
212.601
168.803
168.941
169.275
169.807
170.519
171.396
172.431
173.619
174.956
176.433
178.046
179.786
181.643
183.606
185.662
187.793
189.98
192.199
194.425
196.628
198.777
200.84
202.786
204.59
206.236
207.722
209.054
210.247
211.258
212.169
168.46
168.599
168.931
169.449
170.138
170.986
171.984
173.129
174.413
175.831
177.376
179.039
180.811
182.679
184.63
186.649
188.717
190.814
192.916
195
197.041
199.018
200.91
202.704
204.394
205.979
207.459
208.826
209.982
211.022
168.076
168.213
168.537
169.039
169.702
170.516
171.473
172.567
173.794
175.145
176.614
178.191
179.866
181.627
183.462
185.355
187.288
189.243
191.2
193.14
195.044
196.898
198.69
200.417
202.08
203.684
205.226
206.686
207.927
209.071
167.65
167.783
168.097
168.579
169.214
169.989
170.9
171.94
173.102
174.38
175.764
177.246
178.815
180.459
182.165
183.917
185.699
187.494
189.283
191.05
192.781
194.466
196.1
197.685
199.232
200.753
202.249
203.708
204.971
206.202
167.184
167.311
167.612
168.072
168.675
169.409
170.27
171.25
172.343
173.54
174.833
176.212
177.666
179.183
180.748
182.346
183.96
185.574
187.171
188.734
190.25
191.712
193.116
194.471
195.79
197.096
198.404
199.731
200.924
202.22
166.678
166.8
167.085
167.521
168.089
168.779
169.586
170.502
171.52
172.632
173.828
175.097
176.428
177.807
179.22
180.651
182.082
183.495
184.873
186.198
187.455
188.634
189.729
190.745
191.697
192.615
193.535
194.524
195.479
196.788
166.136
166.251
166.519
166.928
167.459
168.102
168.852
169.7
170.64
171.661
172.754
173.907
175.108
176.342
177.593
178.845
180.078
181.272
182.406
183.459
184.412
185.244
185.943
186.499
186.916
187.218
187.454
187.756
188.132
189.296
165.56
165.666
165.916
166.296
166.788
167.382
168.072
168.85
169.707
170.634
171.62
172.652
173.716
174.798
175.88
176.942
177.964
178.922
179.791
180.543
181.148
181.575
181.79
181.758
181.45
180.85
179.975
178.985
178.039
178.536
164.951
165.049
165.279
165.629
166.08
166.623
167.251
167.955
168.728
169.557
170.432
171.339
172.263
173.187
174.093
174.959
175.76
176.469
177.055
177.482
177.706
177.678
177.336
176.602
175.381
173.558
171.007
167.724
163.799
161.77
164.312
164.402
164.611
164.929
165.338
165.828
166.393
167.022
167.708
168.437
169.199
169.978
170.758
171.522
172.248
172.912
173.486
173.939
174.231
174.318
174.142
173.629
172.685
171.174
168.906
165.593
160.782
153.817
143.434
131.298
26.6085
26.4321
26.0327
25.5309
25.004
24.4763
23.9555
23.4495
22.9649
22.5048
22.068
21.6482
21.2413
20.8408
20.4279
19.9817
19.4792
18.8979
18.2176
17.4223
16.5021
15.4536
14.2784
12.9823
11.586
10.0646
8.37366
6.4619
4.26734
1.70639
26.2744
26.0907
25.7476
25.3055
24.8239
24.3296
23.8351
23.3505
22.8839
22.4433
22.036
21.6518
21.2632
20.8617
20.4496
20.0075
19.5104
18.933
18.2545
17.4585
16.5355
15.4837
14.3054
13.0044
11.6085
10.063
8.34809
6.42024
4.19757
1.60766
26.0586
25.8744
25.5714
25.1744
24.7332
24.2721
23.8058
23.3494
22.9139
22.5069
22.1075
21.7107
21.3263
20.9374
20.5272
20.0784
19.5721
18.9838
18.2935
17.4863
16.5532
15.4921
14.3056
12.9996
11.5796
10.0135
8.27822
6.3315
4.10459
1.53145
25.9898
25.8024
25.524
25.1581
24.7496
24.3208
23.8853
23.4564
23.038
22.6288
22.2279
21.8409
21.4568
21.0629
20.6427
20.1782
19.6509
19.0401
18.3278
17.5004
16.5496
15.4727
14.2716
12.9494
11.5029
9.91241
8.15644
6.19919
3.98501
1.43396
26.0949
25.901
25.6331
25.2846
24.8942
24.4828
24.0659
23.6501
23.2365
22.8238
22.4247
22.0331
21.6385
21.2281
20.7861
20.2956
19.7388
19.0975
18.356
17.5019
16.5276
15.4299
14.2088
12.8643
11.391
9.77566
8.00001
6.0361
3.83957
1.34399
26.3396
26.135
25.8613
25.5147
25.1283
24.7221
24.3082
23.8906
23.4759
23.0675
22.6651
22.2631
21.8517
21.4183
20.9482
20.4252
19.8331
19.1557
18.3792
17.4928
16.4895
15.3658
14.12
12.7494
11.2505
9.61357
7.82215
5.85384
3.67641
1.2615
26.6398
26.4204
26.1325
25.7797
25.3922
24.9877
24.5734
24.1583
23.7459
23.3367
22.928
22.5135
22.0831
21.6245
21.1236
20.5654
19.9349
19.218
18.4027
17.4797
16.4432
15.2895
14.0156
12.6178
11.0944
9.43839
7.63436
5.66265
3.50652
1.18528
26.9066
26.6763
26.3828
26.0338
25.65
25.248
24.8389
24.4283
24.0191
23.61
23.1966
22.7713
22.3236
21.8411
21.3101
20.7167
20.0471
19.2892
18.4327
17.4701
16.3967
15.2095
13.9052
12.4798
10.9332
9.26021
7.44564
5.4711
3.33836
1.1146
27.1087
26.8846
26.5953
26.2493
25.8711
25.4757
25.0754
24.6749
24.2747
23.8715
23.459
23.0284
22.5683
22.0661
21.5085
20.8821
20.1748
19.3758
18.477
17.4726
16.3595
15.1358
13.7991
12.346
10.7769
9.0878
7.26346
5.28618
3.17761
1.04904
27.2383
27.0177
26.7303
26.3879
26.0203
25.6421
25.2619
24.882
24.5005
24.1123
23.7094
23.2815
22.8164
22.301
21.7221
21.067
20.3246
19.4859
18.5444
17.4968
16.3416
15.0788
13.7074
12.2258
10.6342
8.92863
7.09399
5.11323
3.02778
0.988587
27.2423
27.0165
26.7396
26.4184
26.0798
25.7352
25.3899
25.0439
24.6932
24.331
23.9478
23.5321
23.0707
22.55
21.9566
21.2782
20.5046
19.6283
18.6448
17.5529
16.3536
15.0488
13.6401
12.128
10.5126
8.78916
6.94229
4.95609
2.8909
0.933373
27.0751
26.8561
26.6116
26.3363
26.0498
25.758
25.4639
25.1655
24.8576
24.5323
24.1792
23.7855
23.3371
22.8197
22.2193
21.5238
20.7237
19.8127
18.7882
17.6513
16.4058
15.0561
13.6063
12.0599
10.4173
8.67527
6.81242
4.81743
2.76806
0.883394
26.7216
26.5244
26.3477
26.1549
25.9481
25.7283
25.4997
25.2605
25.0052
24.726
24.412
24.0496
23.6234
23.1179
22.5184
21.8127
20.9913
20.049
18.9848
17.8026
16.5089
15.111
13.6161
12.0308
10.3581
8.59066
6.70736
4.69883
2.65952
0.838425
26.1385
25.9903
25.9562
25.907
25.8101
25.6755
25.5214
25.3483
25.1513
24.9243
24.6568
24.3337
23.938
23.4528
22.8622
22.1532
21.3163
20.3466
19.2448
18.017
16.6733
15.2238
13.6786
12.0472
10.3361
8.53769
6.62942
4.60103
2.56483
0.798057
25.2168
25.1638
25.4516
25.6549
25.6897
25.6355
25.5564
25.4505
25.3119
25.1394
24.9232
24.6459
24.2882
23.8312
23.2573
22.5521
21.7057
20.7133
19.5762
18.3031
16.9074
15.4025
13.8012
12.1169
10.358
8.52051
6.57865
4.5241
2.48338
0.76167
163.633
163.713
163.902
164.187
164.552
164.987
165.485
166.037
166.633
167.26
167.904
168.552
169.185
169.784
170.325
170.782
171.123
171.313
171.304
171.042
170.455
169.448
167.889
165.587
162.245
157.374
150.063
138.415
116.457
57.1953
162.906
162.977
163.143
163.393
163.712
164.091
164.52
164.992
165.494
166.014
166.538
167.051
167.532
167.962
168.314
168.56
168.665
168.587
168.276
167.666
166.675
165.191
163.056
160.041
155.795
149.741
140.86
127.445
108.17
80.1663
162.136
162.198
162.34
162.555
162.826
163.146
163.505
163.894
164.3
164.712
165.114
165.489
165.817
166.076
166.239
166.274
166.144
165.805
165.2
164.26
162.894
160.984
158.366
154.815
150.011
143.507
134.729
123.062
109.086
92.884
161.326
161.377
161.496
161.673
161.897
162.156
162.443
162.748
163.058
163.361
163.639
163.877
164.052
164.141
164.117
163.946
163.589
163
162.12
160.879
159.185
156.923
153.944
150.056
145.015
138.54
130.345
120.115
107.815
93.0302
160.476
160.517
160.612
160.752
160.926
161.125
161.339
161.559
161.773
161.966
162.122
162.223
162.248
162.172
161.966
161.598
161.027
160.206
159.078
157.573
155.608
153.077
149.853
145.784
140.696
134.394
126.689
117.35
106.225
93.5265
159.589
159.62
159.69
159.792
159.917
160.055
160.197
160.333
160.45
160.535
160.571
160.539
160.417
160.182
159.804
159.251
158.482
157.452
156.107
154.383
152.204
149.481
146.111
141.976
136.953
130.911
123.736
115.334
105.708
95.2703
158.668
158.688
158.734
158.798
158.874
158.951
159.021
159.074
159.097
159.076
158.994
158.834
158.573
158.187
157.648
156.924
155.977
154.765
153.238
151.339
149.002
146.155
142.719
138.607
133.738
128.035
121.449
113.975
105.663
96.8472
157.716
157.726
157.747
157.774
157.8
157.818
157.818
157.789
157.72
157.597
157.403
157.12
156.727
156.201
155.514
154.637
153.534
152.167
150.492
148.459
146.016
143.105
139.667
135.645
130.987
125.658
119.647
112.977
105.702
98.0924
156.736
156.736
156.732
156.723
156.702
156.661
156.592
156.485
156.328
156.107
155.806
155.408
154.892
154.238
153.418
152.406
151.17
149.675
147.885
145.758
143.252
140.325
136.935
133.045
128.629
123.674
118.189
112.209
105.791
99.1606
155.733
155.722
155.696
155.651
155.583
155.486
155.351
155.169
154.927
154.613
154.212
153.708
153.08
152.31
151.373
150.245
148.898
147.302
145.427
143.24
140.709
137.803
134.495
130.765
126.601
122.005
116.998
111.618
105.922
100.092
154.711
154.69
154.641
154.562
154.449
154.298
154.101
153.847
153.526
153.126
152.632
152.03
151.302
150.429
149.391
148.165
146.728
145.056
143.124
140.906
138.379
135.523
132.321
128.764
124.85
120.592
116.014
111.155
106.064
100.889
153.675
153.645
153.574
153.462
153.307
153.105
152.848
152.527
152.132
151.652
151.074
150.384
149.567
148.605
147.481
146.176
144.669
142.943
140.976
138.751
136.252
133.465
130.383
127.003
123.333
119.386
115.189
110.779
106.198
101.565
152.63
152.591
152.5
152.357
152.162
151.911
151.599
151.216
150.753
150.201
149.547
148.78
147.884
146.847
145.651
144.283
142.726
140.964
138.983
136.77
134.315
131.611
128.656
125.452
122.01
118.348
114.489
110.466
106.317
102.135
151.582
151.535
151.425
151.252
151.02
150.725
150.361
149.921
149.397
148.78
148.059
147.223
146.261
145.16
143.908
142.492
140.899
139.119
137.14
134.954
132.555
129.942
127.115
124.081
120.853
117.446
113.885
110.198
106.415
102.614
150.537
150.483
150.355
150.155
149.889
149.553
149.142
148.651
148.071
147.396
146.616
145.722
144.705
143.553
142.256
140.806
139.192
137.405
135.441
133.292
130.958
128.439
125.739
122.867
119.834
116.658
113.359
109.962
106.492
103.012
149.502
149.441
149.296
149.072
148.774
148.401
147.948
147.411
146.783
146.057
145.227
144.284
143.22
142.028
140.699
139.225
137.601
135.821
133.88
131.777
129.511
127.087
124.509
121.787
118.934
115.963
112.895
109.749
106.547
103.342
148.484
148.416
148.256
148.01
147.683
147.277
146.787
146.209
145.538
144.769
143.896
142.912
141.812
140.589
139.237
137.751
136.127
134.36
132.45
130.397
128.203
125.871
123.409
120.827
118.135
115.348
112.482
109.555
106.584
103.612
147.488
147.414
147.241
146.975
146.623
146.187
145.664
145.051
144.344
143.538
142.63
141.613
140.485
139.24
137.873
136.383
134.765
133.019
131.145
129.145
127.021
124.778
122.425
119.97
117.424
114.8
112.112
109.374
106.602
103.832
146.523
146.444
146.259
145.975
145.601
145.139
144.588
143.944
143.206
142.37
141.433
140.391
139.242
137.982
136.608
135.119
133.515
131.794
129.958
128.011
125.955
123.798
121.545
119.206
116.791
114.312
111.779
109.206
106.606
104.009
145.596
145.512
145.317
145.017
144.624
144.14
143.564
142.895
142.131
141.27
140.31
139.249
138.085
136.816
135.441
133.96
132.372
130.679
128.883
126.988
124.999
122.92
120.76
118.526
116.227
113.875
111.478
109.049
106.598
104.15
144.714
144.627
144.422
144.109
143.699
143.196
142.599
141.909
141.124
140.243
139.266
138.191
137.018
135.745
134.373
132.903
131.334
129.671
127.915
126.071
124.143
122.137
120.06
117.921
115.726
113.485
111.208
108.903
106.58
104.261
143.885
143.795
143.582
143.257
142.833
142.314
141.7
140.993
140.191
139.295
138.305
137.221
136.042
134.77
133.404
131.947
130.4
128.766
127.049
125.252
123.382
121.442
119.441
117.385
115.282
113.139
110.965
108.768
106.556
104.347
143.118
143.024
142.805
142.47
142.034
141.501
140.874
140.152
139.337
138.43
137.431
136.341
135.16
133.891
132.534
131.092
129.567
127.962
126.281
124.529
122.71
120.831
118.897
116.915
114.891
112.833
110.749
108.645
106.528
104.413
142.42
142.324
142.098
141.755
141.308
140.765
140.126
139.393
138.568
137.653
136.648
135.555
134.375
133.111
131.764
130.337
128.834
127.256
125.61
123.898
122.126
120.3
118.425
116.507
114.552
112.568
110.56
108.535
106.499
104.464
141.8
141.701
141.47
141.119
140.664
140.111
139.463
138.722
137.89
136.968
135.96
134.866
133.689
132.431
131.094
129.683
128.199
126.647
125.031
123.356
121.625
119.845
118.02
116.158
114.262
112.34
110.397
108.438
106.47
104.502
141.268
141.166
140.929
140.571
140.108
139.549
138.894
138.147
137.309
136.384
135.373
134.28
133.106
131.855
130.529
129.132
127.667
126.137
124.548
122.903
121.208
119.467
117.686
115.869
114.023
112.153
110.263
108.36
106.448
104.537
140.833
140.727
140.483
140.117
139.648
139.082
138.421
137.669
136.828
135.9
134.889
133.797
132.627
131.383
130.066
128.682
127.232
125.722
124.156
122.537
120.871
119.162
117.416
115.637
113.83
112.001
110.154
108.295
106.428
104.559
140.506
140.395
140.142
139.769
139.295
138.724
138.06
137.304
136.46
135.531
134.52
133.43
132.264
131.025
129.717
128.343
126.906
125.412
123.863
122.265
120.622
118.939
117.22
115.471
113.695
111.899
110.085
108.261
106.429
104.595
140.304
140.169
139.899
139.52
139.044
138.471
137.804
137.046
136.201
135.272
134.262
133.174
132.011
130.777
129.475
128.108
126.681
125.197
123.662
122.078
120.45
118.784
117.084
115.353
113.598
111.823
110.032
108.229
106.418
104.606
140.286
140.087
139.788
139.403
138.924
138.347
137.677
136.918
136.072
135.143
134.134
133.048
131.888
130.657
129.36
127.999
126.579
125.103
123.576
122.002
120.385
118.731
117.042
115.325
113.584
111.822
110.045
108.256
106.46
104.662
-26.1212
-6.34241
12.9621
60.3272
53.3833
42.3952
75.9937
64.4084
53.7699
77.2236
67.146
59.4153
81.3305
73.3159
66.8009
85.5254
78.8407
73.1412
88.6157
82.9123
78.009
91.0358
86.1506
81.9514
93.0609
88.8377
85.211
94.7581
91.0631
87.8961
96.1735
92.9056
90.1107
97.3557
94.4374
91.9461
98.3449
95.7154
93.474
99.1728
96.7842
94.7507
99.8656
97.6798
95.8207
100.445
98.431
96.7196
100.928
99.0615
97.476
101.331
99.5905
98.1127
101.666
100.034
98.6485
101.943
100.405
99.0991
102.171
100.714
99.4772
102.358
100.972
99.7939
102.511
101.185
100.058
102.637
101.363
100.278
102.738
101.507
100.459
102.825
101.63
100.611
102.888
101.722
100.727
102.958
101.815
100.837
102.988
101.861
100.897
103.066
101.952
100.995
22.7794
23.3277
24.7157
25.5072
25.6615
25.6373
25.6277
25.5872
25.5013
25.3829
25.223
24.9981
24.686
24.2654
23.7165
23.0231
22.1742
21.1642
19.9951
18.6772
17.2279
15.6634
13.9986
12.2519
10.4323
8.5383
6.55184
4.46527
2.41197
0.726598
29.5769
26.3871
26.4999
26.2282
25.7366
25.6062
25.7327
25.7735
25.7255
25.6593
25.5625
25.3975
25.139
24.7642
24.2498
23.5773
22.734
21.7135
20.5168
19.1553
17.6512
16.0227
14.2831
12.4609
10.5655
8.59424
6.5472
4.42059
2.34811
0.687813
40.0843
31.7602
28.702
27.1078
26.5136
26.3811
26.2538
26.0641
25.946
25.9418
25.9294
25.8354
25.6406
25.3212
24.8494
24.2054
23.3754
22.3515
21.1341
19.7355
18.184
16.4858
14.6593
12.7508
10.7678
8.69607
6.56622
4.39137
2.29974
0.646524
49.0529
39.5004
33.9213
30.4955
28.5252
27.4279
26.8115
26.5525
26.5004
26.476
26.4059
26.3066
26.1646
25.9126
25.4975
24.8938
24.0867
23.0683
21.8398
20.4125
18.8086
17.0361
15.1249
13.1392
11.0422
8.83166
6.58868
4.35579
2.25298
0.596611
57.7614
48.3174
41.2836
36.1903
32.6365
30.247
28.7162
27.8196
27.338
27.1056
27.0235
26.9763
26.8504
26.5923
26.1883
25.614
24.8362
23.8346
22.6063
21.1598
19.5131
17.6803
15.6919
13.5897
11.342
9.00737
6.64728
4.30811
2.22229
0.548851
65.3639
56.6886
49.0777
42.9052
38.1968
34.7238
32.2253
30.4803
29.3046
28.5534
28.1029
27.8269
27.613
27.3621
26.9829
26.4141
25.6319
24.6285
23.3976
21.9388
20.2621
18.3822
16.3236
14.1132
11.7459
9.27649
6.74519
4.27965
2.29544
0.51474
71.53
63.9154
56.4009
49.7869
44.4062
40.1519
36.836
34.3011
32.4103
31.0342
30.0494
29.3409
28.8032
28.3351
27.841
27.2369
26.4548
25.4501
24.2065
22.7265
21.02
19.0986
16.9801
14.686
12.2272
9.64801
7.00706
4.45811
2.36623
0.397015
76.5327
69.9397
62.9003
56.3179
50.6722
45.9527
42.0479
38.8696
36.3332
34.3417
32.7919
31.5812
30.6101
29.7832
29.0117
28.2139
27.316
26.2568
24.9911
23.4944
21.762
19.8023
17.6322
15.2721
12.7413
10.0848
7.37897
4.76529
2.50011
0.300794
80.6001
74.8769
68.4593
62.188
56.5771
51.6749
47.4253
43.7927
40.7399
38.2093
36.1266
34.4098
32.9736
31.7326
30.6044
29.5115
28.3837
27.1594
25.7872
24.2283
22.4575
20.4648
18.2552
15.8455
13.2609
10.5496
7.7919
5.11008
2.68234
0.267774
83.9048
78.8948
73.1111
67.2793
61.8882
57.0122
52.6273
48.73
45.3178
42.3664
39.8308
37.6532
35.7679
34.1048
32.5921
31.1596
29.7413
28.2781
26.7189
25.0218
23.1549
21.0974
18.8407
16.3904
13.7679
11.0182
8.21606
5.46327
2.88448
0.264577
86.6049
82.175
76.9726
71.6106
66.5294
61.8092
57.4405
53.4357
49.8126
46.5701
43.6871
41.128
38.8471
36.7913
34.9028
33.122
31.3905
29.6533
27.8615
25.9734
23.9556
21.7837
19.4438
16.9343
14.2692
11.4841
8.63973
5.81379
3.08875
0.254224
88.8293
84.8733
80.1786
75.2644
70.5205
66.0222
61.7647
57.7656
54.0515
50.6354
47.5125
44.6644
42.0625
39.6698
37.4427
35.3338
33.2941
31.2757
29.2339
27.129
24.9282
22.6063
20.1477
17.5475
14.8147
11.9758
9.07505
6.16543
3.29414
0.236388
90.6749
87.11
82.85
78.3406
73.9263
69.6742
65.579
61.6577
57.9392
54.443
51.1741
48.1261
45.2831
42.6213
40.1099
37.7131
35.392
33.1067
30.8185
28.4919
26.0959
23.6063
21.0068
18.2907
15.4634
12.5432
9.56067
6.54815
3.52753
0.26097
92.2149
88.9764
85.0869
80.9344
76.8258
72.8196
68.9083
65.1057
61.4392
57.9304
54.5895
51.4173
48.4068
45.5439
42.8082
40.1737
37.6109
35.088
32.573
30.0351
27.447
24.7861
22.0364
19.1901
16.2489
13.2246
10.1369
7.00369
3.83343
0.398172
93.5057
90.5423
86.9688
83.1281
79.2957
75.5228
71.799
68.1344
64.5533
61.0771
57.7179
54.4807
51.364
48.3605
45.4574
42.6369
39.877
37.1533
34.4401
31.712
28.9453
26.12
23.2209
20.2394
17.1743
14.0319
10.8241
7.5605
4.24559
0.68966
94.5912
91.8612
88.5586
84.9892
81.4031
77.8454
74.3031
70.7824
67.3045
63.8887
60.5479
57.2888
54.1134
51.0188
47.9976
45.038
42.1241
39.2378
36.3587
33.4664
30.541
27.5649
24.5242
21.4099
18.2185
14.9524
11.6181
8.2213
4.76793
1.1259
95.5062
92.9753
89.9055
86.5723
83.2046
79.8422
76.4705
73.0919
69.7242
66.3849
63.086
59.8351
56.6359
53.4884
50.3888
47.3296
44.2998
41.2859
38.2723
35.2425
32.1802
29.0703
25.8999
22.66
19.3454
15.9559
12.4942
8.96459
5.37525
1.65765
96.2783
93.9178
91.0489
87.9215
84.7465
81.56
78.3456
75.1028
71.8462
68.5911
65.3484
62.1256
58.9273
55.755
52.6076
49.4804
46.366
43.2546
40.1341
36.9917
33.8137
30.5871
27.3003
23.9443
20.5129
17.0032
13.416
9.75397
6.02588
2.22097
96.9301
94.7158
92.0204
89.0723
86.0672
83.0378
79.9668
76.8511
73.7024
70.5338
67.355
64.1729
60.9921
57.8154
54.6427
51.4718
48.2976
45.1131
41.9091
38.6752
35.4003
32.0731
28.683
25.2209
21.6796
18.0547
14.3443
10.5494
6.67606
2.75854
97.4801
95.3911
92.8458
90.0538
87.1979
84.3083
81.3667
78.3682
75.3217
72.2383
69.1265
65.9922
62.84
59.6726
56.4912
53.2947
50.0799
46.8415
43.5727
40.2651
36.9093
33.4954
30.0136
26.4548
22.8109
19.0756
15.2446
11.3158
7.29022
3.231
97.9433
95.9618
93.5461
90.8899
88.1646
85.3985
82.5728
79.6808
76.7293
73.7275
70.6825
67.5994
64.4821
61.3335
58.1549
54.9461
51.7051
48.4279
45.1092
41.7422
38.3188
34.8302
31.267
27.62
23.8803
20.0396
16.0908
12.0279
7.84538
3.61984
98.3328
96.4432
94.1391
91.6005
88.9891
86.3314
83.6085
80.8122
77.9475
75.022
72.0414
69.0099
65.9308
62.8065
59.6386
56.427
53.1705
49.866
46.5093
43.0945
39.6146
36.0614
32.426
28.6987
24.8698
20.929
16.8662
12.6712
8.33133
3.92433
98.6588
96.8473
94.6389
92.2017
89.6888
87.1255
84.4929
81.7815
78.9949
76.1392
73.219
70.2374
67.197
64.1
60.9474
57.7396
54.4755
51.1525
47.7671
44.3141
40.7871
37.1783
33.4789
29.679
25.7676
21.7328
17.5615
13.2391
8.7466
4.15431
98.9313
97.1857
95.0588
92.7081
90.2797
87.7977
85.2433
82.6064
79.8889
77.0957
74.2305
71.2955
68.2927
65.2236
62.089
58.8891
55.6228
52.2879
48.8812
45.3978
41.8318
38.1755
34.4201
30.5551
26.5687
22.4471
18.1746
13.7327
9.09706
4.32554
99.1556
97.4649
95.4063
93.1286
90.7715
88.3585
85.8709
83.2979
80.6402
77.9018
75.0854
72.1927
69.2247
66.1824
63.0664
59.8765
56.6116
53.2696
49.8473
46.3401
42.742
39.0456
35.2419
31.3198
27.2665
23.0668
18.7024
14.1516
9.38621
4.44966
99.3432
97.6972
95.6952
93.4779
91.1799
88.8242
86.3923
83.8729
81.2658
78.5741
75.7999
72.944
70.007
66.9894
63.8912
60.7121
57.4508
54.1051
50.6717
47.1461
43.5224
39.793
35.9486
31.9778
27.8667
23.5987
19.1537
14.5072
9.62798
4.54376
99.4889
97.8784
95.9212
93.7521
91.5013
89.1915
86.8044
84.3282
81.7621
79.1086
76.3689
73.5436
70.6326
67.6361
64.5537
61.3847
58.1276
54.7801
51.3389
47.7994
44.1556
40.3998
36.5224
32.5114
28.3522
24.0271
19.5141
14.7869
9.81202
4.60333
99.6175
98.0332
96.1106
93.9784
91.7637
89.4891
87.1364
84.6937
82.1595
79.5357
76.8233
74.0222
71.1321
68.1528
65.0836
61.9235
58.671
55.3234
51.8774
48.3283
44.6699
40.8945
36.9921
32.9504
28.7541
24.3843
19.8179
15.0264
9.97433
4.65827
99.6955
98.1279
96.2278
94.1207
91.9303
89.679
87.3494
84.9289
82.416
79.8121
77.1179
74.3331
71.4571
68.4893
65.429
62.275
59.0255
55.6778
52.2285
48.6728
45.0044
41.2155
37.2958
33.2327
29.0103
24.6092
20.0048
15.1672
10.0594
4.66614
99.7921
98.2268
96.3403
94.2493
92.0735
89.8359
87.5196
85.1122
82.6117
80.0194
77.3358
74.5605
71.6928
68.7321
65.6773
62.5272
59.2801
55.9331
52.4828
48.9244
45.2516
41.4563
37.5283
33.4549
29.2199
24.8031
20.1793
15.3162
10.1717
4.70159
)
;

boundaryField
{
    inlet
    {
        type            zeroGradient;
    }
    outlet
    {
        type            fixedValue;
        value           uniform 0;
    }
    flap
    {
        type            zeroGradient;
    }
    upperWall
    {
        type            zeroGradient;
    }
    lowerWall
    {
        type            zeroGradient;
    }
    frontAndBack
    {
        type            empty;
    }
}


// ************************************************************************* //
