/*--------------------------------*- C++ -*----------------------------------*\
  =========                 |
  \\      /  F ield         | OpenFOAM: The Open Source CFD Toolbox
   \\    /   O peration     | Website:  https://openfoam.org
    \\  /    A nd           | Version:  7
     \\/     M anipulation  |
\*---------------------------------------------------------------------------*/
FoamFile
{
    version     2.0;
    format      ascii;
    class       surfaceScalarField;
    location    "1.4";
    object      phi;
}
// * * * * * * * * * * * * * * * * * * * * * * * * * * * * * * * * * * * * * //

dimensions      [0 3 -1 0 0 0 0];

internalField   nonuniform List<scalar> 
5457
(
0.198418
0.00158234
0.19648
0.00193749
0.194192
0.00228858
0.191507
0.00268466
0.188424
0.00308305
0.184944
0.00347958
0.181062
0.0038825
0.176763
0.00429918
0.172028
0.00473473
0.166835
0.00519313
0.161157
0.00567783
0.154965
0.00619174
0.148228
0.00673698
0.140914
0.00731453
0.13299
0.00792367
0.124429
0.00856132
0.115208
0.00922111
0.105315
0.00989227
0.0947568
0.0105585
0.0835603
0.0111965
0.0717849
0.0117754
0.0595288
0.0122561
0.0469361
0.0125927
0.0341964
0.0127397
0.0215053
0.012691
0.00885471
0.0126506
-0.00295677
0.0118115
-0.00840151
0.00544474
-0.0079641
-0.000437406
-0.0079641
0.199928
0.00165415
0.199176
0.00269008
0.197964
0.00350007
0.19633
0.00431901
0.194268
0.00514509
0.191775
0.00597265
0.188843
0.00681367
0.185461
0.00768156
0.181609
0.00858658
0.177265
0.00953697
0.172403
0.0105399
0.166993
0.0116016
0.161004
0.0127267
0.154401
0.0139177
0.14715
0.0151741
0.139221
0.0164907
0.130586
0.0178559
0.121229
0.0192493
0.111148
0.0206397
0.100363
0.0219815
0.0889252
0.0232129
0.0769277
0.0242536
0.0645161
0.0250043
0.0519085
0.0253473
0.0394568
0.0251428
0.0279371
0.0241703
0.0183782
0.0213704
0.00852451
0.0152984
0.00103714
0.00704996
-0.00692696
0.199781
0.00187354
0.199087
0.00338406
0.197945
0.00464151
0.196408
0.0058567
0.19448
0.00707303
0.192158
0.00829441
0.189437
0.00953485
0.186306
0.0108119
0.182752
0.0121406
0.178756
0.0135332
0.174295
0.0150007
0.169344
0.0165526
0.163874
0.0181965
0.157855
0.0199373
0.151253
0.0217758
0.144037
0.0237068
0.136177
0.0257162
0.127648
0.0277784
0.118436
0.0298516
0.108543
0.0318737
0.0979989
0.0337575
0.0868664
0.0353861
0.0752635
0.0366072
0.0633857
0.0372251
0.0515505
0.0369779
0.0402291
0.0354918
0.0295621
0.0320374
0.0190404
0.0258201
0.00947917
0.0166112
0.0025522
0.199703
0.00217045
0.199008
0.00407952
0.197887
0.00576257
0.196375
0.00736871
0.194485
0.00896299
0.192216
0.0105631
0.189564
0.0121863
0.186524
0.0138527
0.183083
0.015581
0.17923
0.0173868
0.174947
0.0192839
0.170215
0.0212843
0.165013
0.0233982
0.159318
0.0256323
0.153105
0.027989
0.146348
0.0304639
0.139021
0.0330428
0.131102
0.035698
0.122571
0.0383828
0.113418
0.0410259
0.103651
0.0435244
0.093301
0.0457365
0.082435
0.0474731
0.0711722
0.048488
0.0596861
0.048464
0.0481749
0.0470029
0.0366843
0.043528
0.0250963
0.0374081
0.0132899
0.0284176
0.0158421
0.199667
0.00250303
0.198964
0.00478298
0.197862
0.00686448
0.196379
0.00885157
0.194528
0.0108137
0.192311
0.0127806
0.189723
0.0147739
0.18676
0.0168162
0.183412
0.0189287
0.179669
0.0211296
0.175518
0.0234349
0.170944
0.0258585
0.165931
0.0284117
0.16046
0.0311028
0.154514
0.0339351
0.148073
0.036905
0.141117
0.039999
0.133625
0.0431894
0.125579
0.0464288
0.116962
0.0496434
0.107762
0.0527246
0.0979779
0.0555202
0.0876261
0.0578249
0.076742
0.059372
0.0653791
0.059827
0.0535917
0.0587903
0.0413555
0.0557643
0.028516
0.0502476
0.0148151
0.0421185
0.0306572
0.199653
0.00285024
0.198948
0.00548727
0.19787
0.00794308
0.196424
0.010297
0.194622
0.0126157
0.192466
0.0149371
0.189952
0.0172876
0.187076
0.0196923
0.183831
0.0221744
0.180206
0.0247544
0.176191
0.02745
0.171773
0.0302765
0.166938
0.0332466
0.161671
0.0363692
0.155958
0.0396486
0.149781
0.0430819
0.143123
0.046657
0.135965
0.0503476
0.128285
0.0541086
0.12006
0.0578689
0.111261
0.0615229
0.101861
0.0649207
0.0918277
0.067858
0.0811315
0.0700683
0.0697405
0.071218
0.0576168
0.0709139
0.0446782
0.0687029
0.0307902
0.0641355
0.015843
0.0570657
0.0465002
0.19965
0.00320022
0.198954
0.00618354
0.197903
0.00899345
0.196502
0.0116981
0.194758
0.0143602
0.192673
0.0170223
0.190245
0.0197156
0.187469
0.0224674
0.184341
0.0253032
0.18085
0.0282452
0.176987
0.031313
0.17274
0.0345232
0.168097
0.0378895
0.163044
0.041422
0.157567
0.0451261
0.151648
0.0490004
0.145271
0.0530346
0.138412
0.0572059
0.131047
0.061474
0.123141
0.0657748
0.114652
0.0700122
0.105524
0.0740482
0.0956898
0.0776925
0.0850661
0.080692
0.0735589
0.0827253
0.0610669
0.0834058
0.0474791
0.0822908
0.0327052
0.0789094
0.0167556
0.0730153
0.0632558
0.199655
0.00354563
0.198974
0.00686399
0.197958
0.01001
0.196607
0.0130484
0.194929
0.0160387
0.192925
0.0190264
0.190594
0.0220463
0.187933
0.0251286
0.184936
0.0283004
0.181595
0.0315859
0.177902
0.0350062
0.173846
0.0385794
0.169414
0.0423208
0.164595
0.0462418
0.159371
0.0503495
0.153727
0.0546449
0.14764
0.0591213
0.141085
0.0637607
0.134029
0.0685303
0.126427
0.0733771
0.118219
0.0782199
0.109327
0.0829403
0.0996485
0.0873708
0.0890576
0.0912828
0.077408
0.0943749
0.064547
0.0962669
0.0503376
0.0965002
0.0347125
0.0945344
0.0177613
0.0899665
0.0810171
0.199664
0.00388155
0.199006
0.00752221
0.198029
0.0109872
0.196736
0.0143415
0.195131
0.0176433
0.193217
0.0209399
0.190995
0.0242691
0.18846
0.0276636
0.185608
0.0311522
0.182433
0.0347609
0.178927
0.0385123
0.17508
0.0424263
0.170881
0.0465196
0.166317
0.0508059
0.161372
0.0552947
0.156026
0.0599903
0.150257
0.0648909
0.144032
0.0699857
0.13731
0.075252
0.130036
0.0806511
0.122134
0.0861218
0.113503
0.0915717
0.104008
0.0968651
0.0934829
0.101808
0.0817276
0.10613
0.0685313
0.109463
0.0537077
0.111324
0.0371707
0.111071
0.0190494
0.108088
0.100067
0.199677
0.00420446
0.199046
0.00815293
0.198114
0.0119196
0.196884
0.0155716
0.19536
0.0191671
0.193545
0.0227545
0.19144
0.0263744
0.189043
0.0300612
0.186349
0.0338459
0.183354
0.0377557
0.180051
0.0418151
0.176432
0.0460455
0.172486
0.0504657
0.1682
0.0550915
0.163559
0.0599356
0.158543
0.0650069
0.153124
0.0703095
0.147268
0.0758415
0.140928
0.0815928
0.134036
0.0875423
0.126505
0.0936532
0.118211
0.0998654
0.108992
0.106085
0.0986356
0.112165
0.0868829
0.117883
0.0734414
0.122905
0.0580281
0.126737
0.0404666
0.128633
0.0208569
0.127697
0.120923
0.199693
0.0045117
0.199094
0.00875187
0.198211
0.0128024
0.197049
0.0167333
0.195613
0.0206035
0.193905
0.0244627
0.191926
0.0283532
0.189676
0.0323115
0.187151
0.03637
0.18435
0.0405576
0.181265
0.0449
0.17789
0.0494204
0.174216
0.0541397
0.170231
0.0590761
0.165921
0.0642461
0.161264
0.0696633
0.156235
0.0753389
0.150795
0.081281
0.144894
0.0874939
0.13846
0.0939763
0.131394
0.10072
0.123558
0.107702
0.114762
0.11488
0.104754
0.122173
0.0932036
0.129434
0.079705
0.136403
0.0638077
0.142634
0.0451185
0.147322
0.02355
0.149266
0.144473
0.19971
0.00480121
0.199147
0.00931551
0.198318
0.0136313
0.197229
0.0178218
0.195886
0.021947
0.194291
0.0260578
0.192446
0.0301979
0.190352
0.0344056
0.188007
0.0387146
0.18541
0.043155
0.182556
0.0477539
0.179441
0.052536
0.176056
0.0575241
0.172393
0.0627391
0.168438
0.068201
0.164173
0.0739285
0.159572
0.0799401
0.154599
0.0862542
0.149203
0.0928896
0.143313
0.0998664
0.136827
0.107206
0.129601
0.114928
0.12143
0.12305
0.112029
0.131574
0.100997
0.140465
0.0877911
0.14961
0.0717053
0.15872
0.051923
0.167105
0.0277962
0.173393
0.17227
0.19973
0.00507138
0.199204
0.009841
0.198433
0.0144027
0.197422
0.0188328
0.196176
0.0231926
0.1947
0.027534
0.192996
0.031902
0.191066
0.0363361
0.188909
0.0408711
0.186526
0.0455381
0.183914
0.0503655
0.181071
0.0553792
0.177992
0.0606036
0.174669
0.0660621
0.171092
0.0717778
0.167246
0.0777741
0.16311
0.0840761
0.158653
0.0907118
0.153828
0.0977139
0.148573
0.105122
0.142792
0.112987
0.136349
0.12137
0.129046
0.130353
0.120587
0.140033
0.110531
0.150522
0.0982076
0.161932
0.0826027
0.174325
0.0622013
0.187506
0.0349897
0.200604
0.207259
0.19975
0.00532096
0.199265
0.010326
0.198554
0.0151137
0.197624
0.0197629
0.196481
0.0243363
0.195128
0.0288866
0.19357
0.03346
0.191809
0.0380967
0.189848
0.0428324
0.187687
0.0476991
0.185327
0.0527257
0.182767
0.0579394
0.180005
0.0633656
0.177037
0.0690297
0.173858
0.0749572
0.170457
0.0811752
0.166818
0.0877143
0.16292
0.0946101
0.158728
0.101906
0.154191
0.109659
0.149236
0.117942
0.143753
0.126853
0.137576
0.13653
0.130448
0.14716
0.121959
0.159011
0.111419
0.172473
0.097606
0.188138
0.0781933
0.206919
0.0484476
0.23035
0.255707
0.199772
0.00554897
0.199329
0.0107688
0.198681
0.0157618
0.197835
0.0206092
0.196796
0.0253747
0.195571
0.030112
0.194163
0.0348676
0.192577
0.0396826
0.190817
0.0445932
0.188884
0.0496317
0.186782
0.0548277
0.184513
0.0602085
0.182078
0.0658006
0.179477
0.0716303
0.17671
0.0777246
0.173772
0.0841131
0.170657
0.0908295
0.167353
0.0979145
0.16384
0.105419
0.160092
0.113408
0.156064
0.12197
0.151691
0.131226
0.146877
0.141345
0.141463
0.152574
0.13519
0.165284
0.127595
0.180069
0.117745
0.197988
0.103407
0.221256
0.077312
0.256445
0.333019
0.0107199
-0.0107199
0.0192541
-0.00853422
0.0262892
-0.00703505
0.0322887
-0.00599959
0.0374818
-0.00519307
0.041984
-0.00450222
0.0458764
-0.00389239
0.0492249
-0.00334843
0.0520801
-0.00285527
0.0544748
-0.00239466
0.0564109
-0.00193612
0.0577618
-0.00135086
0.0583031
-0.000541322
0.0578707
0.000432437
0.0565957
0.001275
0.0546347
0.00196098
0.052163
0.00247165
0.0493568
0.00280627
0.0464244
0.00293236
0.0435602
0.00286417
0.0409423
0.00261789
0.0387374
0.00220495
0.0371103
0.00162706
0.0361969
0.000913446
0.0360051
0.000191795
0.0367775
-0.000772406
0.039051
-0.00227355
0.0434272
-0.00437615
0.0502506
-0.00682336
-0.00862617
0.00706009
-0.01778
0.0135696
-0.0150438
0.0190781
-0.0125435
0.0237117
-0.0106332
0.02763
-0.00911135
0.0308933
-0.00776547
0.0335127
-0.00651181
0.0354588
-0.00529458
0.036638
-0.00403443
0.0368337
-0.00259041
0.0357974
-0.000899728
0.0336814
0.00076508
0.0310065
0.00213363
0.0280622
0.0033767
0.0248402
0.00449695
0.0214113
0.00538996
0.0178863
0.00599656
0.0144421
0.00625054
0.0111813
0.00619319
0.00826506
0.00578036
0.00583301
0.00504994
0.00399316
0.0040448
0.00283236
0.00278786
0.00245932
0.00128649
0.00298797
-0.000336854
0.00469362
-0.00247806
0.00773117
-0.0053111
0.0119308
-0.00857574
0.0178177
-0.0127103
-0.014869
0.0038615
-0.0216415
0.00754771
-0.01873
0.0106299
-0.0156258
0.0130555
-0.0130588
0.014827
-0.0108828
0.0159062
-0.00884467
0.0162225
-0.00682812
0.0156768
-0.00474894
0.0141623
-0.00251994
0.0118447
-0.000272796
0.00923928
0.00170573
0.00654797
0.00345639
0.00359198
0.00508962
0.000428583
0.0065401
-0.00281183
0.00773736
-0.00604781
0.00862595
-0.00919381
0.00914255
-0.012174
0.00923072
-0.0148619
0.00888111
-0.017172
0.00809047
-0.0190102
0.00688816
-0.0202863
0.00532086
-0.0209301
0.0034316
-0.0208839
0.00124038
-0.0199465
-0.00127431
-0.0181584
-0.00426618
-0.015682
-0.00778742
-0.0125161
-0.0117416
-0.00935857
-0.0158678
-0.0185335
0.000960662
-0.0226021
0.00182068
-0.01959
0.00225776
-0.0160628
0.00229262
-0.0130937
0.00171995
-0.0103101
0.000517423
-0.00764215
-0.00129831
-0.00501238
-0.00364922
-0.00239804
-0.00622937
6.02224e-05
-0.00876985
0.00226768
-0.011389
0.00432483
-0.0141927
0.00626014
-0.0171152
0.0080121
-0.0200911
0.00951605
-0.0230559
0.0107021
-0.025936
0.011506
-0.028659
0.0118656
-0.0311599
0.0117316
-0.0333643
0.0110855
-0.035203
0.00992917
-0.0366065
0.00829161
-0.0375077
0.00622202
-0.0378511
0.00377503
-0.0375922
0.000981534
-0.0366817
-0.00218485
-0.0351912
-0.00575669
-0.0332927
-0.00968594
-0.0311813
-0.013853
-0.0291411
-0.017908
-0.0210457
-0.00158422
-0.0210179
-0.00337207
-0.0178022
-0.00528022
-0.0141547
-0.00746231
-0.0109116
-0.00990971
-0.00786272
-0.0125951
-0.00495675
-0.0154608
-0.00214665
-0.0182957
0.000436839
-0.0210347
0.0027992
-0.0237858
0.00501875
-0.0265988
0.00713782
-0.0294399
0.00910126
-0.0322728
0.0108451
-0.0350568
0.0123
-0.0377491
0.0133943
-0.0403024
0.0140594
-0.0426693
0.0142326
-0.0448044
0.0138667
-0.046658
0.0129392
-0.0481806
0.0114517
-0.0493216
0.0094326
-0.0500329
0.00693338
-0.0502756
0.00401766
-0.0500258
0.000731802
-0.0493034
-0.0029073
-0.0481982
-0.00686185
-0.0468615
-0.0110227
-0.045479
-0.0152356
-0.0441465
-0.0192405
-0.0224928
-0.00380682
-0.0172111
-0.00769539
-0.0139136
-0.011463
-0.010387
-0.0151793
-0.00719536
-0.0188261
-0.00421591
-0.0223831
-0.00139972
-0.025679
0.00114929
-0.0287593
0.00351708
-0.0317446
0.00578452
-0.0346893
0.00796343
-0.0375736
0.0100222
-0.0403809
0.0119085
-0.0430938
0.0135579
-0.0456923
0.0148986
-0.0481541
0.0158561
-0.0504536
0.0163588
-0.0525635
0.0163425
-0.0544552
0.0157583
-0.0560958
0.0145798
-0.0574497
0.0128056
-0.0584792
0.0104621
-0.0591476
0.00760184
-0.0594262
0.00429626
-0.0593096
0.000615148
-0.0588408
-0.00337609
-0.0581153
-0.00758734
-0.057263
-0.011875
-0.0564256
-0.016073
-0.0556621
-0.0200039
-0.0231764
-0.00556217
-0.0116489
-0.0109965
-0.00847925
-0.0160889
-0.00529459
-0.0208336
-0.00245067
-0.0251678
0.000118291
-0.0290574
0.00248991
-0.0326189
0.00471073
-0.0359749
0.00687308
-0.0391656
0.00897522
-0.0422006
0.0109984
-0.0450843
0.0129058
-0.0478192
0.0146435
-0.0504062
0.0161449
-0.0528435
0.0173359
-0.0551263
0.0181389
-0.057246
0.0184786
-0.0591908
0.0182873
-0.0609442
0.0175118
-0.0624844
0.01612
-0.0637842
0.0141054
-0.0648131
0.011491
-0.0655409
0.00832965
-0.0659453
0.00470061
-0.0660301
0.000699988
-0.0658465
-0.00355972
-0.0654866
-0.00794718
-0.0650593
-0.0123023
-0.0646736
-0.0164588
-0.0643944
-0.0202831
-0.0232985
-0.00682196
-0.00482696
-0.0133781
-0.00192316
-0.0192112
0.000538532
-0.0243958
0.00273391
-0.0290206
0.00474308
-0.0331938
0.00666319
-0.0370308
0.00854767
-0.0405688
0.0104111
-0.0438423
0.0122487
-0.04688
0.0140362
-0.0497058
0.0157316
-0.0523398
0.0172775
-0.0547992
0.0186044
-0.0570978
0.0196344
-0.0592451
0.0202862
-0.061246
0.0204794
-0.0630995
0.0201408
-0.0647982
0.0192104
-0.0663265
0.0176483
-0.0676619
0.0154408
-0.0687766
0.0126057
-0.0696422
0.00919531
-0.0702382
0.00529657
-0.0705699
0.00103164
-0.0706873
-0.00344224
-0.0706789
-0.00795562
-0.0706374
-0.0123437
-0.0706516
-0.0164445
-0.0707948
-0.0201399
-0.0229719
-0.00751462
0.00268766
-0.0145031
0.0050653
-0.020677
0.00671246
-0.0261549
0.00821179
-0.0310517
0.0096399
-0.0354436
0.011055
-0.0393939
0.012498
-0.0429622
0.0139794
-0.0462008
0.0154873
-0.0491554
0.0169908
-0.051866
0.0184422
-0.0543676
0.019779
-0.0566908
0.0209276
-0.0588621
0.0218057
-0.0609024
0.0223265
-0.0628266
0.0224036
-0.0646419
0.0219561
-0.0663466
0.0209151
-0.067929
0.0192307
-0.0693681
0.01688
-0.0706367
0.0138742
-0.0717057
0.0102643
-0.0725527
0.00614358
-0.0731764
0.00165533
-0.0736161
-0.00300255
-0.0739544
-0.00761731
-0.0742778
-0.0120203
-0.0746629
-0.0160595
-0.0751848
-0.0196181
-0.0222692
-0.00767073
0.0103584
-0.0148022
0.0121967
-0.0211849
0.0130952
-0.0268275
0.0138544
-0.0317932
0.0146056
-0.0361705
0.0154324
-0.0400426
0.0163701
-0.043486
0.0174228
-0.0465687
0.01857
-0.0493499
0.0197721
-0.0518817
0.020974
-0.0542104
0.0221078
-0.0563774
0.0230946
-0.0584189
0.0238471
-0.0603648
0.0242724
-0.0622377
0.0242765
-0.0640508
0.0237692
-0.0658065
0.0226708
-0.067495
0.0209193
-0.0690951
0.0184801
-0.0705771
0.0153562
-0.0719087
0.0115959
-0.0730627
0.00729757
-0.0740272
0.00261989
-0.0748201
-0.00220965
-0.075513
-0.00692442
-0.0761954
-0.0113379
-0.0769376
-0.0153173
-0.0778123
-0.0187434
-0.0212291
-0.00768543
0.0180438
-0.0148918
0.0194031
-0.0212503
0.0194538
-0.0267622
0.0193662
-0.0315217
0.0193651
-0.0356456
0.0195564
-0.03924
0.0199645
-0.0423973
0.0205801
-0.0451969
0.0213696
-0.0477071
0.0222822
-0.0499875
0.0232544
-0.0520921
0.0242124
-0.05407
0.0250725
-0.055965
0.0257421
-0.0578143
0.0261217
-0.0596469
0.0261091
-0.0614811
0.0256034
-0.0633225
0.0245122
-0.0651621
0.0227589
-0.0669764
0.0202943
-0.0687301
0.01711
-0.0703834
0.0132492
-0.0719002
0.00881438
-0.0732569
0.00397652
-0.0744447
-0.00102177
-0.0755146
-0.00585451
-0.0765629
-0.0102896
-0.0776626
-0.0142177
-0.0788814
-0.0175246
-0.0198626
-0.00783067
0.0258745
-0.0150264
0.0265988
-0.0211231
0.0255504
-0.0261997
0.0244429
-0.0304599
0.0236253
-0.0340804
0.0231769
-0.0371906
0.0230747
-0.0398944
0.0232839
-0.0422779
0.0237531
-0.0444121
0.0244164
-0.0463592
0.0252015
-0.048177
0.0260302
-0.0499196
0.0268151
-0.0516368
0.0274593
-0.053372
0.0278569
-0.0551599
0.027897
-0.0570238
0.0274673
-0.0589721
0.0264605
-0.0609958
0.0247826
-0.0630672
0.0223657
-0.0651437
0.0191865
-0.0671762
0.0152818
-0.0691176
0.0107557
-0.0709283
0.00578723
-0.0725853
0.000635221
-0.0740882
-0.00435166
-0.0755265
-0.00885132
-0.0769993
-0.0127449
-0.0785704
-0.0159534
-0.0181607
-0.00830236
0.0341768
-0.015518
0.0338144
-0.0210846
0.031117
-0.0253533
0.0287116
-0.0287816
0.0270536
-0.0316365
0.0260318
-0.0340515
0.0254896
-0.0361316
0.0253641
-0.037963
0.0255845
-0.0396112
0.0260646
-0.0411345
0.0267248
-0.0425909
0.0274866
-0.0440377
0.0282619
-0.0455295
0.0289511
-0.0471158
0.0294432
-0.0488374
0.0296186
-0.0507232
0.029353
-0.0527854
0.0285228
-0.0550157
0.0270129
-0.0573821
0.024732
-0.059833
0.0216374
-0.062308
0.0177567
-0.0647456
0.0131934
-0.0670921
0.00813377
-0.0693051
0.00284815
-0.071333
-0.00232367
-0.073217
-0.00696735
-0.0750947
-0.0108671
-0.0770445
-0.0140037
-0.0160974
-0.00946907
0.0436459
-0.0169082
0.0412535
-0.021513
0.0357218
-0.0244081
0.0316068
-0.0265991
0.0292445
-0.0284287
0.0278614
-0.0299438
0.0270048
-0.0312329
0.0266532
-0.0323794
0.0267309
-0.0334308
0.0271161
-0.034433
0.027727
-0.0354419
0.0284955
-0.0365169
0.029337
-0.0377175
0.0301516
-0.0390995
0.0308253
-0.0407118
0.0312309
-0.0425912
0.0312325
-0.0447575
0.0306891
-0.0472069
0.0294623
-0.0499054
0.0274305
-0.052792
0.0245241
-0.0557931
0.0207578
-0.0588266
0.0162268
-0.0618071
0.0111143
-0.0646643
0.00570536
-0.0673284
0.000340368
-0.0697587
-0.00453702
-0.0720877
-0.00853811
-0.0744649
-0.0116265
-0.013632
-0.0122085
0.0558544
-0.0202086
0.0492536
-0.0229569
0.0384701
-0.0234461
0.0320959
-0.023906
0.0297044
-0.0245278
0.0284832
-0.024965
0.027442
-0.0253037
0.0269919
-0.0256466
0.0270738
-0.025997
0.0274664
-0.0263763
0.0281063
-0.0268403
0.0289595
-0.0274514
0.0299481
-0.0282735
0.0309737
-0.0293705
0.0319223
-0.0308009
0.0326612
-0.0326147
0.0330463
-0.0348441
0.0329185
-0.0374966
0.0321148
-0.0405395
0.0304733
-0.0439002
0.0278849
-0.047489
0.0243465
-0.0512034
0.0199412
-0.0549211
0.014832
-0.0585552
0.00933947
-0.0620355
0.00382072
-0.0652177
-0.00135482
-0.0681205
-0.00563534
-0.0709998
-0.00874717
-0.0107112
0.207447
0.0057621
0.207033
0.0111824
0.206429
0.0163662
0.205641
0.0213967
0.204677
0.0263384
0.203544
0.0312456
0.202246
0.0361654
0.20079
0.0411389
0.19918
0.0462027
0.197423
0.0513892
0.195522
0.0567278
0.193485
0.0622461
0.191315
0.0679705
0.189018
0.0739273
0.186598
0.0801442
0.18406
0.0866512
0.181407
0.0934832
0.178639
0.100682
0.175759
0.108299
0.172763
0.116403
0.169649
0.125083
0.166413
0.134462
0.16305
0.144708
0.159564
0.15606
0.15598
0.168868
0.152396
0.183653
0.149184
0.2012
0.148032
0.222407
0.159743
0.244735
0.257436
0.235326
0.21249
0.00595493
0.212116
0.0115563
0.21157
0.0169118
0.210861
0.0221058
0.209996
0.0272037
0.208982
0.0322598
0.207826
0.0373213
0.206535
0.0424295
0.205118
0.0476206
0.20358
0.0529267
0.201931
0.0583768
0.200179
0.0639978
0.198334
0.0698155
0.196406
0.0758554
0.194406
0.082144
0.192347
0.0887102
0.190244
0.0955868
0.188113
0.102813
0.185975
0.110437
0.183859
0.118519
0.181806
0.127137
0.179876
0.136392
0.178168
0.146416
0.176853
0.157374
0.176254
0.169467
0.177024
0.182883
0.180579
0.197646
0.189518
0.213468
0.204852
0.229402
0.244486
0.217801
0.217657
0.00612533
0.217327
0.0118865
0.216846
0.0173926
0.216223
0.022729
0.215465
0.0279612
0.214582
0.0331435
0.21358
0.0383229
0.212469
0.0435403
0.211259
0.0488312
0.209958
0.054227
0.20858
0.0597556
0.207135
0.0654428
0.205637
0.0713127
0.204104
0.0773891
0.202552
0.083696
0.201003
0.0902591
0.199483
0.0971069
0.198024
0.104272
0.196667
0.111794
0.195468
0.119718
0.194504
0.128101
0.193887
0.137009
0.193787
0.146516
0.194466
0.156696
0.196329
0.167603
0.199985
0.179227
0.206194
0.191437
0.2156
0.204061
0.227893
0.217109
0.227999
0.24438
0.222951
0.00627129
0.222668
0.012169
0.222258
0.0178031
0.221728
0.023259
0.221087
0.0286021
0.220344
0.0338865
0.219508
0.0391585
0.21859
0.0444582
0.217601
0.0498201
0.216554
0.0552742
0.215463
0.0608472
0.214343
0.0665627
0.213213
0.0724428
0.212093
0.0785082
0.21101
0.0847794
0.209992
0.0912773
0.209075
0.0980237
0.208305
0.105043
0.207738
0.11236
0.207451
0.120005
0.207544
0.128007
0.208157
0.136396
0.20948
0.145193
0.211774
0.154403
0.21538
0.163997
0.22071
0.173897
0.228203
0.183944
0.238411
0.193852
0.252229
0.203291
0.210003
0.270225
0.228374
0.00639095
0.228142
0.0124004
0.227807
0.0181381
0.227377
0.0236891
0.226861
0.0291185
0.226268
0.0344795
0.225609
0.0398175
0.224896
0.0451714
0.224141
0.0505743
0.223361
0.0560548
0.222571
0.0616372
0.221791
0.0673429
0.221042
0.073191
0.220352
0.0791986
0.21975
0.0853814
0.219273
0.0917545
0.218965
0.098332
0.21888
0.105127
0.219086
0.112153
0.219671
0.11942
0.220746
0.126933
0.222452
0.134689
0.224972
0.142672
0.228534
0.150841
0.23341
0.159121
0.239923
0.167384
0.248442
0.175426
0.259399
0.182895
0.273254
0.189436
0.193965
0.289293
0.233929
0.00648262
0.233752
0.0125773
0.233497
0.0183928
0.233173
0.0240135
0.232788
0.0295032
0.232354
0.0349142
0.23188
0.0402906
0.231382
0.0456698
0.230873
0.0510834
0.23037
0.0565576
0.229893
0.0621145
0.229463
0.0677727
0.229106
0.0735478
0.228852
0.0794526
0.228736
0.0854977
0.228799
0.0916917
0.22909
0.0980405
0.22967
0.104547
0.230612
0.111211
0.232005
0.118027
0.233959
0.124979
0.236608
0.132041
0.240111
0.139169
0.244658
0.146295
0.250463
0.153316
0.257763
0.160084
0.266791
0.166397
0.277719
0.171967
0.290629
0.176526
0.179562
0.305033
0.239619
0.00654481
0.2395
0.0126969
0.239329
0.0185632
0.239116
0.0242267
0.238869
0.0297498
0.2386
0.0351835
0.23832
0.0405702
0.238045
0.0459456
0.237789
0.0513391
0.237572
0.0567747
0.237414
0.062272
0.237341
0.0678462
0.23738
0.0735091
0.237563
0.0792694
0.237928
0.0851323
0.23852
0.0910997
0.239391
0.0971699
0.240601
0.103337
0.242225
0.109588
0.244347
0.115905
0.247069
0.122257
0.250507
0.128603
0.254793
0.134882
0.260074
0.141014
0.266502
0.146888
0.274221
0.152365
0.283346
0.157272
0.293915
0.161397
0.305912
0.164529
0.166403
0.319071
0.245448
0.00657623
0.245388
0.0127566
0.245305
0.0186458
0.245208
0.0243244
0.245104
0.0298534
0.245006
0.0352819
0.244925
0.0406504
0.244878
0.0459927
0.244882
0.0513358
0.244955
0.0567014
0.245121
0.062106
0.245405
0.0675618
0.245838
0.0730768
0.246452
0.0786551
0.247287
0.0842971
0.248388
0.0899986
0.249807
0.0957512
0.251603
0.101541
0.253845
0.107346
0.256609
0.11314
0.259985
0.118882
0.264066
0.124522
0.268955
0.129993
0.274756
0.135213
0.281565
0.14008
0.289458
0.144472
0.298479
0.148251
0.308614
0.151263
0.319791
0.153352
0.154388
0.331806
0.251417
0.00657587
0.251419
0.0127546
0.251428
0.0186377
0.251449
0.0243033
0.251492
0.0298101
0.251569
0.0352053
0.251692
0.0405273
0.251877
0.0458076
0.252142
0.0510709
0.252507
0.0563362
0.252996
0.0616172
0.253635
0.0669229
0.254454
0.0722577
0.255487
0.0776217
0.256773
0.0830107
0.258356
0.0884157
0.260285
0.0938225
0.262614
0.0992112
0.265405
0.104555
0.268725
0.10982
0.272644
0.114963
0.277236
0.11993
0.282574
0.124655
0.288725
0.129062
0.295743
0.133062
0.303659
0.136556
0.312472
0.139438
0.322135
0.1416
0.332548
0.142939
0.143397
0.343539
0.257532
0.00654297
0.257597
0.0126894
0.257698
0.0185371
0.25784
0.0241609
0.258033
0.0296174
0.258287
0.0349513
0.258615
0.0401989
0.259034
0.0453891
0.25956
0.0505444
0.260215
0.055681
0.261023
0.06081
0.262008
0.0659372
0.263202
0.0710639
0.264637
0.0761868
0.26635
0.0812977
0.268382
0.0863839
0.270777
0.0914272
0.273584
0.0964041
0.276855
0.101284
0.280644
0.106032
0.285005
0.110602
0.289993
0.114942
0.295653
0.118994
0.302026
0.12269
0.309132
0.125956
0.316972
0.128716
0.325517
0.130892
0.334704
0.132413
0.344426
0.133216
0.13328
0.354543
0.263794
0.00647703
0.263923
0.0125601
0.264117
0.0183426
0.264382
0.023896
0.264725
0.0292741
0.265157
0.0345192
0.265691
0.0396651
0.266342
0.0447384
0.267127
0.0497591
0.268067
0.0547408
0.269185
0.0596921
0.270506
0.0646162
0.272058
0.0695116
0.273873
0.074372
0.275984
0.0791867
0.278428
0.0839401
0.281244
0.0886116
0.284472
0.0931758
0.288155
0.0976016
0.292334
0.101853
0.297048
0.105887
0.302333
0.109657
0.308216
0.113112
0.314712
0.116194
0.321821
0.118846
0.329524
0.121013
0.337777
0.122639
0.34651
0.12368
0.355626
0.124101
0.123901
0.365005
0.270206
0.00637787
0.2704
0.0123664
0.270689
0.018054
0.271076
0.0235085
0.27157
0.0287806
0.272179
0.03391
0.272916
0.0389282
0.273795
0.0438591
0.274834
0.0487205
0.276051
0.0535237
0.277468
0.0582749
0.279109
0.062975
0.281001
0.0676205
0.28317
0.0722028
0.285647
0.0767094
0.288464
0.0811232
0.291653
0.0854226
0.295247
0.0895818
0.299278
0.0935707
0.303775
0.0973551
0.308766
0.100897
0.314268
0.104155
0.320293
0.107086
0.326841
0.109646
0.333897
0.111791
0.34143
0.11348
0.349389
0.11468
0.357705
0.115364
0.366291
0.115515
0.115145
0.375048
0.276773
0.00624557
0.277031
0.0121085
0.277413
0.0176717
0.277923
0.0229991
0.278565
0.0281383
0.279349
0.0331263
0.280285
0.0379918
0.281387
0.0427568
0.282672
0.0474364
0.284155
0.0520401
0.285858
0.056572
0.287802
0.0610314
0.290009
0.0654128
0.292506
0.0697066
0.295316
0.0738992
0.298466
0.0779728
0.301983
0.0819063
0.30589
0.0856747
0.31021
0.0892502
0.314963
0.0926018
0.320164
0.0956967
0.325818
0.0985005
0.331926
0.100978
0.338475
0.103097
0.345442
0.104824
0.352788
0.106133
0.360464
0.107004
0.368404
0.107424
0.376532
0.107387
0.106913
0.384764
0.283498
0.00608051
0.283819
0.011787
0.284294
0.0171969
0.284923
0.0223699
0.285711
0.0273501
0.286666
0.032172
0.287796
0.0368618
0.289113
0.0414389
0.290633
0.0459167
0.29237
0.0503028
0.294343
0.0545996
0.296569
0.058805
0.299069
0.0629126
0.301864
0.0669122
0.304973
0.0707897
0.308418
0.0745279
0.312218
0.0781067
0.316389
0.0815032
0.320947
0.0846923
0.325902
0.0876474
0.331257
0.090341
0.337013
0.0927453
0.343157
0.0948338
0.349672
0.0965817
0.356528
0.0979678
0.363686
0.0989754
0.371097
0.0995939
0.378701
0.0998195
0.386432
0.0996559
0.0991228
0.394222
0.290384
0.00588329
0.290767
0.0114033
0.291332
0.0166317
0.292079
0.0216236
0.293009
0.0264201
0.294128
0.0310527
0.295445
0.0355451
0.296969
0.0399147
0.298713
0.044173
0.300689
0.0483261
0.302914
0.0523751
0.305402
0.0563171
0.308169
0.060145
0.311233
0.0638485
0.314608
0.0674142
0.318311
0.0708258
0.322352
0.0740649
0.326744
0.0771111
0.331494
0.0799428
0.336603
0.0825379
0.34207
0.0848741
0.347886
0.0869298
0.354034
0.0886856
0.360491
0.0901244
0.367227
0.0912326
0.3742
0.0920016
0.381367
0.0924276
0.388673
0.092513
0.396063
0.0922659
0.0917069
0.403479
0.297434
0.00565478
0.297879
0.0109591
0.298532
0.0159787
0.299391
0.0207642
0.300458
0.0253533
0.301736
0.0297748
0.303231
0.0340501
0.304951
0.0381946
0.306906
0.0422182
0.309106
0.0461256
0.311564
0.0499171
0.314292
0.0535892
0.317302
0.0571349
0.320606
0.0605443
0.324216
0.0638046
0.32814
0.0669013
0.332387
0.069818
0.336961
0.0725373
0.341863
0.0750412
0.347089
0.0773117
0.352632
0.0793314
0.358477
0.0810846
0.364605
0.0825574
0.37099
0.083739
0.377601
0.0846219
0.3844
0.0852028
0.391344
0.0854832
0.398388
0.0854689
0.405484
0.0851706
0.0846083
0.412582
0.304654
0.00539602
0.305157
0.0104564
0.305894
0.0152409
0.306863
0.0197958
0.30806
0.0241554
0.309489
0.0283458
0.311153
0.0323862
0.313058
0.0362901
0.31521
0.0400659
0.317618
0.0437175
0.320291
0.0472445
0.323237
0.0506433
0.326465
0.053907
0.329983
0.0570266
0.333797
0.0599906
0.337912
0.0627862
0.34233
0.0653994
0.347052
0.0678157
0.352073
0.0700205
0.357385
0.0719998
0.362975
0.0737408
0.368828
0.0752322
0.37492
0.076465
0.381226
0.0774332
0.387714
0.0781338
0.394349
0.0785675
0.401094
0.0787386
0.407907
0.0786554
0.414748
0.0783294
0.0777797
0.421577
0.312046
0.00510821
0.312605
0.00989763
0.313424
0.0144221
0.314496
0.0187236
0.315818
0.022833
0.31739
0.0267738
0.319213
0.0305632
0.321291
0.0342129
0.323626
0.0377302
0.326226
0.0411181
0.329094
0.044376
0.332237
0.0475002
0.33566
0.0504847
0.339365
0.053321
0.343356
0.0559993
0.347634
0.0585088
0.352195
0.0608378
0.357036
0.0629746
0.362149
0.0649078
0.367522
0.066627
0.37314
0.068123
0.378983
0.0693885
0.38503
0.0704183
0.391253
0.0712098
0.397624
0.0717634
0.404109
0.0720821
0.410675
0.0721725
0.417287
0.0720436
0.423909
0.0717075
0.0711812
0.430508
0.319615
0.00479266
0.320227
0.0092853
0.321123
0.0135261
0.322294
0.0175526
0.323735
0.0213927
0.325441
0.0250673
0.327413
0.0285913
0.329651
0.0319753
0.332156
0.0352252
0.33493
0.0383436
0.337976
0.0413297
0.341296
0.0441801
0.344892
0.0468895
0.348762
0.0494505
0.352906
0.051855
0.357321
0.0540938
0.362002
0.0561577
0.366939
0.0580376
0.372121
0.0597249
0.377536
0.0612121
0.383166
0.0624932
0.388991
0.063564
0.394987
0.0644221
0.401129
0.0650675
0.40739
0.0655027
0.41374
0.0657325
0.420148
0.0657644
0.426584
0.0656077
0.433017
0.065274
0.0647789
0.439419
0.327365
0.00445074
0.328028
0.00862212
0.328998
0.0125569
0.330262
0.0162886
0.331813
0.0198417
0.333645
0.0232348
0.335756
0.0264809
0.338142
0.0295891
0.340802
0.0325646
0.343737
0.0354093
0.346944
0.0381225
0.350423
0.0407014
0.354171
0.0431411
0.358186
0.0454357
0.362462
0.0475784
0.366994
0.049562
0.371773
0.0513793
0.376787
0.0530233
0.382024
0.0544881
0.387467
0.0557687
0.393099
0.0568613
0.398899
0.0577642
0.404844
0.058477
0.410909
0.0590017
0.41707
0.059342
0.423299
0.0595037
0.429569
0.0594944
0.435853
0.0593235
0.442125
0.0590018
0.0585432
0.448361
0.335301
0.00408377
0.336012
0.00791073
0.337051
0.0115186
0.338402
0.0149367
0.340057
0.0181868
0.342007
0.0212848
0.344246
0.0242419
0.34677
0.0270659
0.349573
0.0297612
0.352653
0.0323295
0.356005
0.03477
0.359626
0.0370804
0.363511
0.0392567
0.367652