/*--------------------------------*- C++ -*----------------------------------*\
  =========                 |
  \\      /  F ield         | OpenFOAM: The Open Source CFD Toolbox
   \\    /   O peration     | Website:  https://openfoam.org
    \\  /    A nd           | Version:  7
     \\/     M anipulation  |
\*---------------------------------------------------------------------------*/
FoamFile
{
    version     2.0;
    format      ascii;
    class       volVectorField;
    location    "1.4";
    object      U;
}
// * * * * * * * * * * * * * * * * * * * * * * * * * * * * * * * * * * * * * //

dimensions      [0 1 -1 0 0 0 0];

internalField   nonuniform List<vector> 
2790
(
(9.94399 0.0205227 0)
(9.87572 0.0295894 0)
(9.7752 0.0359964 0)
(9.64939 0.0425714 0)
(9.50397 0.0494123 0)
(9.33983 0.0564703 0)
(9.15614 0.0638764 0)
(8.95199 0.0717941 0)
(8.72653 0.0803628 0)
(8.47879 0.0897091 0)
(8.20754 0.0999597 0)
(7.91141 0.111244 0)
(7.58887 0.123693 0)
(7.23833 0.137433 0)
(6.85818 0.152575 0)
(6.44691 0.169206 0)
(6.00323 0.187362 0)
(5.52626 0.207006 0)
(5.01579 0.227991 0)
(4.47257 0.250011 0)
(3.89866 0.272559 0)
(3.29784 0.294867 0)
(2.67598 0.315895 0)
(2.04119 0.33447 0)
(1.40237 0.350723 0)
(0.789782 0.373244 0)
(0.094529 0.314627 0)
(-0.459014 -0.115302 0)
(-0.451207 -0.284595 0)
(-0.227984 -0.414771 0)
(9.9985 0.0407019 0)
(9.98145 0.0623885 0)
(9.93573 0.0791612 0)
(9.86411 0.0966701 0)
(9.77084 0.115202 0)
(9.65689 0.134609 0)
(9.52162 0.155147 0)
(9.36417 0.177174 0)
(9.18372 0.201004 0)
(8.97929 0.226918 0)
(8.74968 0.255188 0)
(8.4935 0.286083 0)
(8.2092 0.319849 0)
(7.89513 0.356697 0)
(7.5496 0.396762 0)
(7.17095 0.44006 0)
(6.7577 0.486428 0)
(6.30872 0.535436 0)
(5.82346 0.58629 0)
(5.30228 0.63772 0)
(4.74683 0.687855 0)
(4.1605 0.734123 0)
(3.54896 0.77319 0)
(2.92105 0.801028 0)
(2.28957 0.813325 0)
(1.68325 0.806421 0)
(1.09626 0.743096 0)
(0.652381 0.542719 0)
(0.165592 0.211548 0)
(-0.00673351 -0.45492 0)
(9.99559 0.0432054 0)
(9.97556 0.0752819 0)
(9.93179 0.103382 0)
(9.86484 0.132448 0)
(9.77766 0.163192 0)
(9.67131 0.195603 0)
(9.54548 0.230034 0)
(9.39952 0.266994 0)
(9.23276 0.306974 0)
(9.0444 0.350433 0)
(8.83345 0.397828 0)
(8.5987 0.449613 0)
(8.3388 0.506218 0)
(8.05226 0.56802 0)
(7.73748 0.635289 0)
(7.39285 0.708112 0)
(7.01677 0.786294 0)
(6.60786 0.869218 0)
(6.16507 0.955671 0)
(5.68802 1.04364 0)
(5.17732 1.13009 0)
(4.63506 1.21071 0)
(4.06545 1.27967 0)
(3.47583 1.3293 0)
(2.87738 1.34935 0)
(2.29055 1.32476 0)
(1.72307 1.21704 0)
(1.20876 0.968798 0)
(0.694751 0.565687 0)
(0.35087 -0.167165 0)
(9.99403 0.0494971 0)
(9.97181 0.0932204 0)
(9.92786 0.133622 0)
(9.86219 0.174315 0)
(9.77681 0.216615 0)
(9.67274 0.260939 0)
(9.54991 0.307823 0)
(9.40787 0.357942 0)
(9.24614 0.411966 0)
(9.06412 0.470542 0)
(8.86109 0.53431 0)
(8.63616 0.603907 0)
(8.38833 0.679952 0)
(8.11647 0.763006 0)
(7.81939 0.853512 0)
(7.4958 0.951706 0)
(7.14443 1.05749 0)
(6.764 1.17024 0)
(6.35344 1.28859 0)
(5.91195 1.41016 0)
(5.43933 1.53115 0)
(4.93634 1.646 0)
(4.40517 1.74691 0)
(3.85012 1.82324 0)
(3.27777 1.86039 0)
(2.69885 1.83807 0)
(2.11874 1.72181 0)
(1.54851 1.47232 0)
(0.954199 1.07644 0)
(0.508051 0.493015 0)
(9.99331 0.0572113 0)
(9.96994 0.110978 0)
(9.92591 0.162169 0)
(9.8614 0.213484 0)
(9.77785 0.266591 0)
(9.67609 0.322271 0)
(9.55611 0.381205 0)
(9.41757 0.444159 0)
(9.26005 0.511913 0)
(9.08307 0.585226 0)
(8.88606 0.664851 0)
(8.66831 0.751539 0)
(8.42903 0.846019 0)
(8.16739 0.948968 0)
(7.88248 1.06094 0)
(7.57335 1.1823 0)
(7.239 1.31302 0)
(6.87843 1.45258 0)
(6.49062 1.59961 0)
(6.07462 1.75159 0)
(5.62967 1.90441 0)
(5.15534 2.05188 0)
(4.65181 2.18508 0)
(4.12024 2.29173 0)
(3.56262 2.35532 0)
(2.98261 2.3545 0)
(2.38132 2.26001 0)
(1.76191 2.04051 0)
(1.08727 1.68171 0)
(0.535293 1.14195 0)
(9.99302 0.0655365 0)
(9.96923 0.128726 0)
(9.92554 0.190195 0)
(9.86246 0.252013 0)
(9.78113 0.315867 0)
(9.68216 0.382757 0)
(9.56555 0.453491 0)
(9.43102 0.52892 0)
(9.27822 0.609921 0)
(9.10673 0.697362 0)
(8.91604 0.792102 0)
(8.70555 0.894992 0)
(8.4746 1.00686 0)
(8.22247 1.12848 0)
(7.94841 1.26051 0)
(7.65161 1.40339 0)
(7.33124 1.55723 0)
(6.98638 1.7216 0)
(6.61601 1.89524 0)
(6.21899 2.07574 0)
(5.79401 2.25905 0)
(5.33962 2.43889 0)
(4.85427 2.60611 0)
(4.33639 2.74806 0)
(3.78439 2.84795 0)
(3.19713 2.88477 0)
(2.57191 2.83246 0)
(1.90977 2.66321 0)
(1.17062 2.36268 0)
(0.548783 1.88053 0)
(9.99297 0.0740735 0)
(9.96926 0.146346 0)
(9.92634 0.217584 0)
(9.865 0.289498 0)
(9.78626 0.363703 0)
(9.69054 0.441353 0)
(9.57785 0.523397 0)
(9.44797 0.610786 0)
(9.3006 0.704492 0)
(9.13535 0.805479 0)
(8.95179 0.914698 0)
(8.74936 1.03309 0)
(8.52747 1.16157 0)
(8.28545 1.30099 0)
(8.02259 1.4521 0)
(7.73812 1.61543 0)
(7.43119 1.79123 0)
(7.10081 1.97921 0)
(6.74581 2.17836 0)
(6.3647 2.38654 0)
(5.95559 2.60006 0)
(5.51607 2.81308 0)
(5.04304 3.01696 0)
(4.53277 3.19955 0)
(3.98085 3.34465 0)
(3.38273 3.4319 0)
(2.73292 3.4367 0)
(2.03287 3.332 0)
(1.23987 3.10095 0)
(0.562438 2.67787 0)
(9.99306 0.0825881 0)
(9.9698 0.163646 0)
(9.92804 0.244171 0)
(9.86876 0.325725 0)
(9.79294 0.409857 0)
(9.70092 0.497825 0)
(9.59269 0.590703 0)
(9.46808 0.689538 0)
(9.32682 0.795386 0)
(9.16861 0.909296 0)
(8.99302 1.03231 0)
(8.79958 1.16545 0)
(8.58772 1.30972 0)
(8.3568 1.46607 0)
(8.10611 1.63535 0)
(7.83484 1.81823 0)
(7.54204 2.01509 0)
(7.22655 2.22591 0)
(6.88692 2.44996 0)
(6.52123 2.6856 0)
(6.12694 2.92976 0)
(5.70065 3.17743 0)
(5.2379 3.42099 0)
(4.73303 3.64945 0)
(4.17925 3.84769 0)
(3.56925 3.99611 0)
(2.89496 4.07041 0)
(2.1586 4.0418 0)
(1.31416 3.88782 0)
(0.582129 3.52351 0)
(9.99326 0.0909305 0)
(9.97071 0.180458 0)
(9.93042 0.269812 0)
(9.87352 0.360529 0)
(9.80097 0.454126 0)
(9.71307 0.551928 0)
(9.60979 0.655114 0)
(9.49101 0.764818 0)
(9.35653 0.882176 0)
(9.20607 1.00832 0)
(9.03929 1.14437 0)
(8.85574 1.29145 0)
(8.65491 1.45064 0)
(8.43617 1.62301 0)
(8.19882 1.80952 0)
(7.94199 2.01102 0)
(7.66462 2.22812 0)
(7.36535 2.46107 0)
(7.04241 2.70962 0)
(6.69344 2.97272 0)
(6.31522 3.24819 0)
(5.9034 3.53217 0)
(5.45221 3.8185 0)
(4.95418 4.09785 0)
(4.40014 4.35673 0)
(3.77995 4.57651 0)
(3.0822 4.73257 0)
(2.30858 4.79266 0)
(1.40827 4.72582 0)
(0.613071 4.42378 0)
(9.99352 0.0989972 0)
(9.97189 0.19664 0)
(9.93336 0.294365 0)
(9.87912 0.393751 0)
(9.81017 0.496309 0)
(9.72676 0.603415 0)
(9.62889 0.716332 0)
(9.51647 0.836277 0)
(9.38935 0.964458 0)
(9.24733 1.10208 0)
(9.09011 1.25035 0)
(8.91731 1.41047 0)
(8.72847 1.58363 0)
(8.523 1.77101 0)
(8.30022 1.97373 0)
(8.05922 2.19283 0)
(7.79886 2.42918 0)
(7.51765 2.68345 0)
(7.21355 2.95592 0)
(6.88379 3.24631 0)
(6.5246 3.55352 0)
(6.13079 3.87517 0)
(5.69534 4.20698 0)
(5.20901 4.54187 0)
(4.66007 4.86867 0)
(4.03482 5.17047 0)
(3.31689 5.42261 0)
(2.50447 5.5887 0)
(1.53871 5.62652 0)
(0.662508 5.39802 0)
(9.99384 0.106713 0)
(9.97329 0.212074 0)
(9.93674 0.317702 0)
(9.88545 0.425242 0)
(9.82038 0.536223 0)
(9.74181 0.652064 0)
(9.64975 0.774096 0)
(9.54415 0.903608 0)
(9.42494 1.04187 0)
(9.29196 1.19017 0)
(9.14499 1.34977 0)
(8.98372 1.52197 0)
(8.80776 1.70806 0)
(8.6166 1.90933 0)
(8.40958 2.12708 0)
(8.18584 2.36256 0)
(7.94423 2.61698 0)
(7.68318 2.89144 0)
(7.40054 3.18684 0)
(7.09331 3.50383 0)
(6.75734 3.84256 0)
(6.38685 4.20241 0)
(5.97384 4.58143 0)
(5.50744 4.97551 0)
(4.97317 5.37693 0)
(4.35293 5.77207 0)
(3.62294 6.13804 0)
(2.773 6.43556 0)
(1.72902 6.60928 0)
(0.742741 6.48053 0)
(9.9942 0.114019 0)
(9.97485 0.226664 0)
(9.94049 0.339704 0)
(9.89237 0.454865 0)
(9.83145 0.573704 0)
(9.75802 0.697678 0)
(9.67213 0.828174 0)
(9.57377 0.96654 0)
(9.46293 1.11411 0)
(9.33952 1.27222 0)
(9.20341 1.4422 0)
(9.05438 1.62544 0)
(8.89211 1.82331 0)
(8.7162 2.03723 0)
(8.52608 2.26868 0)
(8.32098 2.51913 0)
(8.09983 2.79012 0)
(7.86114 3.08322 0)
(7.60281 3.40002 0)
(7.32186 3.74213 0)
(7.01409 4.1111 0)
(6.67353 4.50828 0)
(6.29172 4.93452 0)
(5.85671 5.38949 0)
(5.3516 5.87045 0)
(4.75346 6.36975 0)
(4.0287 6.87051 0)
(3.15163 7.33608 0)
(2.01833 7.70091 0)
(0.877724 7.73089 0)
(9.99459 0.120872 0)
(9.97655 0.240331 0)
(9.94454 0.360274 0)
(9.89979 0.482503 0)
(9.84325 0.60861 0)
(9.77523 0.740086 0)
(9.69581 0.878361 0)
(9.60504 1.02483 0)
(9.50296 1.18088 0)
(9.38959 1.34789 0)
(9.26486 1.52726 0)
(9.12866 1.72041 0)
(8.98078 1.92884 0)
(8.82095 2.15406 0)
(8.64875 2.39769 0)
(8.46355 2.66145 0)
(8.26449 2.94719 0)
(8.05027 3.25692 0)
(7.81906 3.5929 0)
(7.56821 3.95771 0)
(7.2939 4.3543 0)
(6.99058 4.78609 0)
(6.65019 5.25698 0)
(6.2608 5.77114 0)
(5.80458 6.33249 0)
(5.25502 6.94301 0)
(4.56835 7.5992 0)
(3.69617 8.28068 0)
(2.47865 8.93177 0)
(1.11986 9.26156 0)
(9.99501 0.127236 0)
(9.97835 0.25301 0)
(9.94883 0.379326 0)
(9.90761 0.508054 0)
(9.85565 0.640822 0)
(9.79325 0.779149 0)
(9.72055 0.924498 0)
(9.63766 1.0783 0)
(9.54468 1.24198 0)
(9.44171 1.41695 0)
(9.32879 1.60465 0)
(9.20591 1.80657 0)
(9.073 2.02424 0)
(8.92994 2.25929 0)
(8.7765 2.51346 0)
(8.61228 2.78866 0)
(8.43669 3.08699 0)
(8.2488 3.41088 0)
(8.04726 3.76315 0)
(7.83004 4.14721 0)
(7.59418 4.56729 0)
(7.3353 5.0287 0)
(7.04687 5.53828 0)
(6.71889 6.10493 0)
(6.33557 6.74018 0)
(5.87152 7.45897 0)
(5.27901 8.28028 0)
(4.48932 9.22455 0)
(3.25421 10.3098 0)
(1.59735 11.3187 0)
(9.99544 0.133083 0)
(9.98023 0.26465 0)
(9.9533 0.396788 0)
(9.91576 0.531426 0)
(9.86852 0.67022 0)
(9.81193 0.814712 0)
(9.74615 0.966389 0)
(9.67136 1.12671 0)
(9.58773 1.29711 0)
(9.49545 1.47905 0)
(9.39466 1.67397 0)
(9.28546 1.8834 0)
(9.16796 2.10893 0)
(9.0422 2.35222 0)
(8.90816 2.61513 0)
(8.76574 2.89968 0)
(8.6147 3.20817 0)
(8.4546 3.5433 0)
(8.28472 3.90832 0)
(8.10396 4.30724 0)
(7.91064 4.7452 0)
(7.70226 5.22893 0)
(7.47505 5.76755 0)
(7.2232 6.3737 0)
(6.93737 7.06564 0)
(6.60225 7.87092 0)
(6.18542 8.83464 0)
(5.63804 10.0393 0)
(4.66695 11.6923 0)
(2.6735 14.5364 0)
(0.330936 -0.452038 0)
(0.74215 -0.345543 0)
(1.13512 -0.273058 0)
(1.47157 -0.224115 0)
(1.75405 -0.188318 0)
(1.99549 -0.160234 0)
(2.2044 -0.137679 0)
(2.38497 -0.119675 0)
(2.5398 -0.105773 0)
(2.67093 -0.0957677 0)
(2.77967 -0.0885092 0)
(2.86428 -0.0794483 0)
(2.91567 -0.0630595 0)
(2.91749 -0.0404177 0)
(2.87248 -0.0157495 0)
(2.78887 0.00701537 0)
(2.67493 0.0255082 0)
(2.53959 0.0390053 0)
(2.39254 0.0468616 0)
(2.24403 0.0491806 0)
(2.10374 0.046721 0)
(1.9807 0.0404805 0)
(1.88384 0.0312832 0)
(1.82216 0.0197117 0)
(1.80403 0.00855152 0)
(1.81422 0.000293355 0)
(1.87963 -0.0222754 0)
(2.05399 -0.061656 0)
(2.30963 -0.117586 0)
(2.81292 -0.164104 0)
(0.167983 -0.740851 0)
(0.519133 -0.590345 0)
(0.814378 -0.475675 0)
(1.07401 -0.393505 0)
(1.29074 -0.330939 0)
(1.47092 -0.278966 0)
(1.61838 -0.234186 0)
(1.7336 -0.195056 0)
(1.81402 -0.159551 0)
(1.85299 -0.12349 0)
(1.836 -0.0804637 0)
(1.74791 -0.03038 0)
(1.62172 0.0195334 0)
(1.48236 0.0636933 0)
(1.32764 0.10072 0)
(1.15871 0.128818 0)
(0.982626 0.147221 0)
(0.805352 0.155965 0)
(0.633384 0.155425 0)
(0.47607 0.146242 0)
(0.340405 0.129799 0)
(0.232439 0.107191 0)
(0.157583 0.0787516 0)
(0.120993 0.0447638 0)
(0.126986 0.00971364 0)
(0.182395 -0.0318757 0)
(0.299353 -0.0950785 0)
(0.488368 -0.169631 0)
(0.723607 -0.254102 0)
(1.10961 -0.299147 0)
(0.065707 -1.00991 0)
(0.29667 -0.85268 0)
(0.448479 -0.701391 0)
(0.594087 -0.582299 0)
(0.701798 -0.485459 0)
(0.775573 -0.399887 0)
(0.813084 -0.319739 0)
(0.810242 -0.240262 0)
(0.761512 -0.15676 0)
(0.659062 -0.0686156 0)
(0.527095 0.0148733 0)
(0.401551 0.0827238 0)
(0.259819 0.137364 0)
(0.103972 0.183372 0)
(-0.0575522 0.219773 0)
(-0.221299 0.244699 0)
(-0.38267 0.257029 0)
(-0.538551 0.255921 0)
(-0.681951 0.24251 0)
(-0.808772 0.217133 0)
(-0.914001 0.181631 0)
(-0.992894 0.138044 0)
(-1.04081 0.08804 0)
(-1.05346 0.0326488 0)
(-1.0304 -0.0274578 0)
(-0.957848 -0.0991478 0)
(-0.847021 -0.183223 0)
(-0.699733 -0.274255 0)
(-0.530702 -0.368255 0)
(-0.367031 -0.424071 0)
(-0.00982119 -1.11103 0)
(0.087906 -0.942904 0)
(0.0942036 -0.760848 0)
(0.117793 -0.613293 0)
(0.103916 -0.484309 0)
(0.0617699 -0.365692 0)
(-0.0133737 -0.253405 0)
(-0.117111 -0.146484 0)
(-0.247521 -0.0434504 0)
(-0.375153 0.0466467 0)
(-0.499522 0.121819 0)
(-0.636085 0.187982 0)
(-0.780239 0.245598 0)
(-0.928929 0.292554 0)
(-1.0786 0.327294 0)
(-1.22599 0.348482 0)
(-1.36734 0.354819 0)
(-1.49946 0.345613 0)
(-1.61838 0.321531 0)
(-1.72073 0.283585 0)
(-1.8029 0.233653 0)
(-1.86127 0.173979 0)
(-1.89232 0.106563 0)
(-1.89328 0.0324902 0)
(-1.86379 -0.0488025 0)
(-1.80054 -0.138949 0)
(-1.71232 -0.236033 0)
(-1.60541 -0.336112 0)
(-1.49595 -0.430282 0)
(-1.41969 -0.4927 0)
(-0.0774001 -1.08043 0)
(-0.111013 -0.903454 0)
(-0.225901 -0.711995 0)
(-0.321422 -0.551178 0)
(-0.43575 -0.406522 0)
(-0.562511 -0.275279 0)
(-0.700273 -0.153765 0)
(-0.847562 -0.0402101 0)
(-0.985096 0.0592616 0)
(-1.11906 0.146172 0)
(-1.25842 0.223779 0)
(-1.4002 0.292143 0)
(-1.5426 0.349674 0)
(-1.68368 0.39458 0)
(-1.82131 0.425176 0)
(-1.95324 0.440117 0)
(-2.0771 0.438359 0)
(-2.19059 0.419468 0)
(-2.29122 0.383983 0)
(-2.37652 0.333175 0)
(-2.44387 0.269051 0)
(-2.49064 0.19414 0)
(-2.51441 0.111001 0)
(-2.51355 0.0214531 0)
(-2.48802 -0.0739968 0)
(-2.43998 -0.174585 0)
(-2.37602 -0.277612 0)
(-2.30294 -0.378979 0)
(-2.23444 -0.471519 0)
(-2.19542 -0.538365 0)
(-0.14285 -0.939546 0)
(-0.282333 -0.76128 0)
(-0.490541 -0.575882 0)
(-0.67285 -0.415441 0)
(-0.855071 -0.271488 0)
(-1.03364 -0.14035 0)
(-1.20776 -0.0199419 0)
(-1.36388 0.0836286 0)
(-1.51348 0.175136 0)
(-1.66157 0.258181 0)
(-1.8073 0.332916 0)
(-1.94971 0.397739 0)
(-2.08794 0.450827 0)
(-2.22105 0.490351 0)
(-2.34796 0.514608 0)
(-2.46746 0.522209 0)
(-2.57823 0.512188 0)
(-2.67888 0.484215 0)
(-2.76784 0.4388 0)
(-2.84335 0.377235 0)
(-2.90347 0.301565 0)
(-2.9462 0.214419 0)
(-2.96982 0.118639 0)
(-2.97347 0.0166361 0)
(-2.95714 -0.0898994 0)
(-2.9254 -0.198461 0)
(-2.88359 -0.305281 0)
(-2.83834 -0.406279 0)
(-2.80032 -0.49654 0)
(-2.78283 -0.562965 0)
(-0.197872 -0.709733 0)
(-0.415929 -0.539329 0)
(-0.691657 -0.372446 0)
(-0.932924 -0.225799 0)
(-1.15854 -0.0922313 0)
(-1.36384 0.0250104 0)
(-1.54624 0.125428 0)
(-1.71789 0.216277 0)
(-1.88102 0.299857 0)
(-2.03631 0.376006 0)
(-2.18405 0.443789 0)
(-2.3244 0.501633 0)
(-2.45744 0.547698 0)
(-2.58312 0.580086 0)
(-2.70128 0.597023 0)
(-2.81159 0.597032 0)
(-2.91353 0.579089 0)
(-3.0064 0.542807 0)
(-3.08922 0.488585 0)
(-3.16072 0.417638 0)
(-3.21935 0.331987 0)
(-3.26344 0.234353 0)
(-3.29172 0.1279 0)
(-3.30374 0.0158074 0)
(-3.29944 -0.098873 0)
(-3.28412 -0.212703 0)
(-3.26265 -0.321499 0)
(-3.24137 -0.421294 0)
(-3.22798 -0.508688 0)
(-3.22545 -0.572008 0)
(-0.239761 -0.420091 0)
(-0.514322 -0.262283 0)
(-0.831803 -0.112853 0)
(-1.1033 0.00984528 0)
(-1.34508 0.110685 0)
(-1.56205 0.199564 0)
(-1.76094 0.282051 0)
(-1.94433 0.35907 0)
(-2.11389 0.430543 0)
(-2.27112 0.495823 0)
(-2.41728 0.55368 0)
(-2.55347 0.602415 0)
(-2.6806 0.640066 0)
(-2.79945 0.664601 0)
(-2.91058 0.674099 0)
(-3.01437 0.666925 0)
(-3.11092 0.641895 0)
(-3.20003 0.59845 0)
(-3.28109 0.536796 0)
(-3.35311 0.457988 0)
(-3.41472 0.363964 0)
(-3.46439 0.257497 0)
(-3.50095 0.142042 0)
(-3.52403 0.0215443 0)
(-3.53351 -0.0997033 0)
(-3.5344 -0.217402 0)
(-3.53198 -0.327285 0)
(-3.53222 -0.425604 0)
(-3.53989 -0.509773 0)
(-3.54905 -0.569013 0)
(-0.260256 -0.0418051 0)
(-0.563675 0.0882247 0)
(-0.897167 0.175417 0)
(-1.18337 0.250967 0)
(-1.44 0.320578 0)
(-1.67016 0.385766 0)
(-1.87721 0.447547 0)
(-2.06403 0.506545 0)
(-2.2333 0.562451 0)
(-2.38742 0.614259 0)
(-2.52847 0.66042 0)
(-2.65832 0.698985 0)
(-2.7786 0.72777 0)
(-2.89072 0.744528 0)
(-2.99588 0.747116 0)
(-3.09498 0.733661 0)
(-3.18858 0.702724 0)
(-3.27682 0.653473 0)
(-3.35934 0.585834 0)
(-3.43528 0.500626 0)
(-3.50333 0.399654 0)
(-3.56196 0.285714 0)
(-3.60994 0.162543 0)
(-3.64669 0.0348095 0)
(-3.6718 -0.0920394 0)
(-3.68914 -0.212817 0)
(-3.70509 -0.323351 0)
(-3.72542 -0.420165 0)
(-3.752 -0.501031 0)
(-3.77114 -0.556125 0)
(-0.258024 0.327895 0)
(-0.572615 0.413808 0)
(-0.917249 0.462637 0)
(-1.21332 0.503549 0)
(-1.47591 0.540567 0)
(-1.70742 0.576942 0)
(-1.91204 0.614145 0)
(-2.09364 0.652341 0)
(-2.25577 0.690733 0)
(-2.40153 0.727836 0)
(-2.53366 0.761686 0)
(-2.65462 0.789994 0)
(-2.76657 0.81028 0)
(-2.87146 0.820018 0)
(-2.97094 0.816772 0)
(-3.06633 0.798359 0)
(-3.15855 0.763007 0)
(-3.24799 0.709529 0)
(-3.33444 0.637501 0)
(-3.41707 0.547444 0)
(-3.49452 0.440988 0)
(-3.56513 0.320924 0)
(-3.62743 0.191202 0)
(-3.68041 0.0570383 0)
(-3.72336 -0.0751261 0)
(-3.75809 -0.198893 0)
(-3.79232 -0.310027 0)
(-3.83211 -0.405517 0)
(-3.87647 -0.483304 0)
(-3.90477 -0.534639 0)
(-0.252555 0.693929 0)
(-0.573678 0.754954 0)
(-0.92155 0.76049 0)
(-1.21355 0.758795 0)
(-1.46768 0.758183 0)
(-1.68755 0.762784 0)
(-1.87877 0.773534 0)
(-2.04618 0.789892 0)
(-2.19399 0.810363 0)
(-2.32583 0.832838 0)
(-2.44485 0.85485 0)
(-2.55386 0.873716 0)
(-2.65543 0.886624 0)
(-2.75187 0.890723 0)
(-2.84523 0.883244 0)
(-2.93717 0.861636 0)
(-3.02889 0.82373 0)
(-3.121 0.767914 0)
(-3.2134 0.693332 0)
(-3.30521 0.600126 0)
(-3.3949 0.489675 0)
(-3.4805 0.364727 0)
(-3.56005 0.229424 0)
(-3.63188 0.0894291 0)
(-3.69495 -0.0480459 0)
(-3.74898 -0.175305 0)
(-3.80196 -0.28729 0)
(-3.86134 -0.381815 0)
(-3.9232 -0.456979 0)
(-3.96041 -0.505119 0)
(-0.254036 1.07416 0)
(-0.581557 1.10081 0)
(-0.923105 1.05322 0)
(-1.19645 1.00213 0)
(-1.42683 0.960725 0)
(-1.62139 0.932638 0)
(-1.7878 0.917101 0)
(-1.93172 0.912392 0)
(-2.05778 0.916081 0)
(-2.16981 0.925272 0)
(-2.27108 0.936942 0)
(-2.36457 0.948021 0)
(-2.45306 0.955367 0)
(-2.53915 0.955807 0)
(-2.62519 0.946214 0)
(-2.71314 0.92364 0)
(-2.80449 0.885465 0)
(-2.90004 0.829582 0)
(-2.99978 0.754611 0)
(-3.10271 0.660202 0)
(-3.207 0.547394 0)
(-3.31032 0.418841 0)
(-3.41015 0.278856 0)
(-3.50405 0.133485 0)
(-3.5901 -0.0094065 0)
(-3.66772 -0.141074 0)
(-3.741 -0.254683 0)
(-3.82088 -0.348833 0)
(-3.90079 -0.422023 0)
(-3.94712 -0.467602 0)
(-0.269326 1.46992 0)
(-0.609928 1.44781 0)
(-0.936926 1.32869 0)
(-1.17428 1.21817 0)
(-1.3629 1.13434 0)
(-1.51727 1.07539 0)
(-1.6471 1.036 0)
(-1.75806 1.01286 0)
(-1.85478 1.00246 0)
(-1.94092 1.00091 0)
(-2.01948 1.00466 0)
(-2.09336 1.01035 0)
(-2.16543 1.01458 0)
(-2.23849 1.01388 0)
(-2.31516 1.00479 0)
(-2.39772 0.983948 0)
(-2.48796 0.948233 0)
(-2.58695 0.894978 0)
(-2.69478 0.822183 0)
(-2.81036 0.728889 0)
(-2.93151 0.615715 0)
(-3.05543 0.485225 0)
(-3.17897 0.341907 0)
(-3.2988 0.192052 0)
(-3.41195 0.0436721 0)
(-3.51782 -0.0938865 0)
(-3.61566 -0.211235 0)
(-3.71774 -0.306011 0)
(-3.81711 -0.37804 0)
(-3.87326 -0.421774 0)
(-0.311601 1.9009 0)
(-0.683453 1.80163 0)
(-0.986495 1.57209 0)
(-1.16081 1.38625 0)
(-1.28302 1.26277 0)
(-1.38082 1.17971 0)
(-1.46258 1.12144 0)
(-1.53135 1.08433 0)
(-1.59133 1.06407 0)
(-1.64555 1.05542 0)
(-1.69625 1.05443 0)
(-1.74597 1.05774 0)
(-1.79759 1.06184 0)
(-1.85409 1.06303 0)
(-1.91837 1.05756 0)
(-1.99307 1.04164 0)
(-2.08039 1.01166 0)
(-2.18183 0.964316 0)
(-2.29781 0.896882 0)
(-2.42727 0.807604 0)
(-2.56774 0.696483 0)
(-2.71592 0.565856 0)
(-2.86788 0.420225 0)
(-3.01891 0.266073 0)
(-3.16412 0.111966 0)
(-3.30153 -0.0322443 0)
(-3.43164 -0.155644 0)
(-3.55862 -0.252345 0)
(-3.67977 -0.324177 0)
(-3.74693 -0.366803 0)
(-0.430171 2.56485 0)
(-0.846843 2.25018 0)
(-1.1123 1.77902 0)
(-1.17117 1.47404 0)
(-1.18837 1.32615 0)
(-1.2136 1.236 0)
(-1.23851 1.16565 0)
(-1.2567 1.12042 0)
(-1.2731 1.09612 0)
(-1.28991 1.08478 0)
(-1.30763 1.08258 0)
(-1.32824 1.08682 0)
(-1.3547 1.09404 0)
(-1.39017 1.1004 0)
(-1.43787 1.10192 0)
(-1.50086 1.09444 0)
(-1.58192 1.07385 0)
(-1.68325 1.03618 0)
(-1.80593 0.977891 0)
(-1.94918 0.896205 0)
(-2.11024 0.790276 0)
(-2.28523 0.662192 0)
(-2.46931 0.516482 0)
(-2.6562 0.359603 0)
(-2.83942 0.200889 0)
(-3.01566 0.0502751 0)
(-3.18845 -0.0823456 0)
(-3.35044 -0.185218 0)
(-3.49658 -0.258501 0)
(-3.57647 -0.300652 0)
(9.9959 0.138487 0)
(9.98222 0.275408 0)
(9.95801 0.412917 0)
(9.92432 0.552986 0)
(9.88203 0.697297 0)
(9.83152 0.847404 0)
(9.773 1.00481 0)
(9.70671 1.17098 0)
(9.63291 1.34737 0)
(9.55187 1.53542 0)
(9.46383 1.73662 0)
(9.36905 1.95248 0)
(9.2678 2.1846 0)
(9.1603 2.43469 0)
(9.04681 2.70462 0)
(8.92755 2.99649 0)
(8.80269 3.31268 0)
(8.67238 3.65604 0)
(8.53669 4.03 0)
(8.39563 4.43887 0)
(8.24915 4.88818 0)
(8.09716 5.38528 0)
(7.93964 5.9402 0)
(7.77692 6.5671 0)
(7.6103 7.2868 0)
(7.44488 8.13152 0)
(7.29417 9.15471 0)
(7.24846 10.4491 0)
(7.70618 12.1583 0)
(7.89803 14.855 0)
(9.99638 0.143456 0)
(9.9843 0.285288 0)
(9.96295 0.427694 0)
(9.93329 0.572679 0)
(9.89615 0.721936 0)
(9.85194 0.877029 0)
(9.80093 1.03946 0)
(9.74341 1.2107 0)
(9.67973 1.3922 0)
(9.61024 1.58539 0)
(9.53531 1.79173 0)
(9.45535 2.01274 0)
(9.37079 2.24999 0)
(9.28207 2.50517 0)
(9.18972 2.78013 0)
(9.0943 3.07694 0)
(8.99644 3.39797 0)
(8.89689 3.74601 0)
(8.79656 4.12444 0)
(8.69662 4.53742 0)
(8.59866 4.99029 0)
(8.50504 5.48994 0)
(8.4195 6.04554 0)
(8.34827 6.66948 0)
(8.30253 7.37869 0)
(8.30434 8.19618 0)
(8.39251 9.15148 0)
(8.62288 10.2769 0)
(9.26333 11.5158 0)
(9.74908 12.5801 0)
(9.99688 0.147904 0)
(9.98647 0.294129 0)
(9.96808 0.440899 0)
(9.94259 0.590237 0)
(9.91078 0.743843 0)
(9.87306 0.903274 0)
(9.82977 1.07002 0)
(9.78126 1.24554 0)
(9.72793 1.43125 0)
(9.67025 1.62857 0)
(9.6087 1.83893 0)
(9.54382 2.06377 0)
(9.47622 2.30463 0)
(9.40656 2.56314 0)
(9.33563 2.84105 0)
(9.26433 3.14032 0)
(9.19373 3.46317 0)
(9.12516 3.81218 0)
(9.06027 4.19038 0)
(9.00126 4.60146 0)
(8.95111 5.04992 0)
(8.91408 5.54132 0)
(8.89638 6.08248 0)
(8.9075 6.68162 0)
(8.9618 7.34791 0)
(9.08127 8.08964 0)
(9.29663 8.90816 0)
(9.61686 9.79164 0)
(10.1705 10.6875 0)
(10.8405 11.3841 0)
(9.99739 0.151777 0)
(9.98869 0.301821 0)
(9.97335 0.452363 0)
(9.95214 0.605431 0)
(9.92578 0.762716 0)
(9.89471 0.92576 0)
(9.85929 1.09603 0)
(9.81994 1.27496 0)
(9.77714 1.46392 0)
(9.73143 1.66429 0)
(9.68341 1.87742 0)
(9.63373 2.10471 0)
(9.58317 2.34759 0)
(9.53261 2.60756 0)
(9.48305 2.88625 0)
(9.43572 3.18541 0)
(9.39207 3.507 0)
(9.35389 3.85321 0)
(9.32344 4.22658 0)
(9.30365 4.62999 0)
(9.2984 5.06676 0)
(9.31293 5.54062 0)
(9.35439 6.05557 0)
(9.43258 6.61543 0)
(9.56052 7.22277 0)
(9.75479 7.87703 0)
(10.0378 8.57079 0)
(10.4175 9.28905 0)
(10.96 10.0212 0)
(11.7319 10.6539 0)
(9.99791 0.15503 0)
(9.99096 0.308273 0)
(9.97872 0.461952 0)
(9.96186 0.618082 0)
(9.94104 0.778335 0)
(9.9167 0.944227 0)
(9.88924 1.11719 0)
(9.85915 1.29861 0)
(9.82694 1.48981 0)
(9.79325 1.69209 0)
(9.75875 1.90673 0)
(9.72424 2.13502 0)
(9.69061 2.37827 0)
(9.65891 2.63782 0)
(9.63036 2.9151 0)
(9.60642 3.2116 0)
(9.58882 3.52892 0)
(9.57971 3.8688 0)
(9.58173 4.2331 0)
(9.5982 4.62379 0)
(9.63337 5.04291 0)
(9.6927 5.49238 0)
(9.78313 5.97374 0)
(9.91349 6.48757 0)
(10.0946 7.03269 0)
(10.3393 7.60509 0)
(10.6646 8.19656 0)
(11.0815 8.79236 0)
(11.6128 9.3809 0)
(12.3437 9.88743 0)
(9.99844 0.157617 0)
(9.99326 0.313398 0)
(9.98414 0.469538 0)
(9.97167 0.628023 0)
(9.95642 0.790496 0)
(9.93885 0.958432 0)
(9.91938 1.13322 0)
(9.89852 1.31618 0)
(9.87688 1.50857 0)
(9.85512 1.7116 0)
(9.83402 1.92646 0)
(9.81444 2.15431 0)
(9.79741 2.39629 0)
(9.78409 2.65358 0)
(9.77585 2.92734 0)
(9.77431 3.21876 0)
(9.78139 3.52905 0)
(9.79942 3.85942 0)
(9.83118 4.21103 0)
(9.88013 4.58497 0)
(9.95044 4.98207 0)
(10.0473 5.40276 0)
(10.1768 5.84672 0)
(10.3464 6.31244 0)
(10.5648 6.79662 0)
(10.8414 7.29348 0)
(11.1871 7.79381 0)
(11.6095 8.28213 0)
(12.1093 8.7419 0)
(12.7632 9.13166 0)
(9.99897 0.159501 0)
(9.99556 0.31712 0)
(9.98958 0.475007 0)
(9.9815 0.635106 0)
(9.97181 0.799016 0)
(9.96096 0.968163 0)
(9.94942 1.14387 0)
(9.93773 1.3274 0)
(9.92651 1.51992 0)
(9.91648 1.72254 0)
(9.90848 1.93633 0)
(9.90344 2.16231 0)
(9.90245 2.40145 0)
(9.90676 2.6547 0)
(9.91783 2.92297 0)
(9.93736 3.20712 0)
(9.96734 3.50794 0)
(10.0101 3.82612 0)
(10.0684 4.16218 0)
(10.1456 4.51639 0)
(10.2455 4.88861 0)
(10.3726 5.27812 0)
(10.5322 5.68332 0)
(10.7298 6.10138 0)
(10.972 6.52784 0)
(11.2648 6.95603 0)
(11.6142 7.3767 0)
(12.0239 7.77655 0)
(12.488 8.14122 0)
(13.0727 8.45031 0)
(9.9995 0.160647 0)
(9.99784 0.319371 0)
(9.99497 0.478261 0)
(9.99124 0.639204 0)
(9.98706 0.803743 0)
(9.98286 0.973245 0)
(9.97912 1.14897 0)
(9.9764 1.33208 0)
(9.97535 1.52366 0)
(9.97673 1.72471 0)
(9.9814 1.93617 0)
(9.99032 2.1589 0)
(10.0046 2.39369 0)
(10.0256 2.64126 0)
(10.0547 2.90226 0)
(10.0937 3.17721 0)
(10.1445 3.46651 0)
(10.2093 3.77038 0)
(10.2908 4.08878 0)
(10.3919 4.4213 0)
(10.5159 4.76708 0)
(10.6666 5.12459 0)
(10.848 5.49143 0)
(11.0643 5.86411 0)
(11.3197 6.23778 0)
(11.6178 6.60594 0)
(11.9612 6.96044 0)
(12.3514 7.29109 0)
(12.7806 7.58697 0)
(13.3047 7.83691 0)
(10 0.161027 0)
(10.0001 0.320097 0)
(10.0003 0.479219 0)
(10.0008 0.640213 0)
(10.002 0.804557 0)
(10.0043 0.973545 0)
(10.0082 1.14836 0)
(10.0142 1.33007 0)
(10.023 1.51966 0)
(10.0353 1.71802 0)
(10.0521 1.92594 0)
(10.0742 2.14412 0)
(10.1029 2.37317 0)
(10.1394 2.61358 0)
(10.1852 2.86574 0)
(10.2418 3.12988 0)
(10.3111 3.40604 0)
(10.3951 3.69403 0)
(10.4963 3.99335 0)
(10.617 4.30312 0)
(10.7601 4.62195 0)
(10.9284 4.94784 0)
(11.1249 5.27801 0)
(11.3524 5.6088 0)
(11.6133 5.93551 0)
(11.9096 6.25238 0)
(12.2418 6.55266 0)
(12.6097 6.82868 0)
(13.0055 7.07226 0)
(13.4762 7.27667 0)
(10.0005 0.16062 0)
(10.0023 0.319253 0)
(10.0055 0.477821 0)
(10.0102 0.638059 0)
(10.0166 0.80137 0)
(10.0252 0.968973 0)
(10.0364 1.14196 0)
(10.0507 1.32131 0)
(10.0689 1.50789 0)
(10.0917 1.70247 0)
(10.1198 1.90571 0)
(10.1544 2.11814 0)
(10.1964 2.34019 0)
(10.2471 2.57215 0)
(10.3079 2.81417 0)
(10.3801 3.06621 0)
(10.4656 3.32801 0)
(10.5661 3.59907 0)
(10.6835 3.87855 0)
(10.8199 4.16524 0)
(10.9774 4.45744 0)
(11.1583 4.75294 0)
(11.3643 5.04889 0)
(11.5973 5.34176 0)
(11.8585 5.62733 0)
(12.1484 5.9007 0)
(12.4664 6.15647 0)
(12.8114 6.38886 0)
(13.1761 6.59199 0)
(13.6009 6.76178 0)
(10.001 0.15941 0)
(10.0044 0.316812 0)
(10.0105 0.474025 0)
(10.0192 0.632693 0)
(10.0307 0.794136 0)
(10.0453 0.959486 0)
(10.0635 1.12974 0)
(10.0858 1.30579 0)
(10.1128 1.48839 0)
(10.1453 1.67817 0)
(10.1841 1.87567 0)
(10.2301 2.08127 0)
(10.2843 2.29522 0)
(10.3478 2.51764 0)
(10.4219 2.74846 0)
(10.5078 2.98742 0)
(10.6071 3.23404 0)
(10.7212 3.48758 0)
(10.8517 3.74698 0)
(11.0002 4.01083 0)
(11.1683 4.27733 0)
(11.3574 4.54421 0)
(11.5686 4.80875 0)
(11.8029 5.06775 0)
(12.0606 5.31756 0)
(12.3413 5.55418 0)
(12.644 5.77337 0)
(12.9667 5.97088 0)
(13.3033 6.1426 0)
(13.689 6.28608 0)
(10.0015 0.157388 0)
(10.0064 0.312757 0)
(10.0153 0.467811 0)
(10.0278 0.624096 0)
(10.0441 0.78284 0)
(10.0644 0.945088 0)
(10.0892 1.11174 0)
(10.119 1.28359 0)
(10.1543 1.46128 0)
(10.1959 1.64533 0)
(10.2444 1.83613 0)
(10.3008 2.03394 0)
(10.3659 2.23886 0)
(10.4408 2.45084 0)
(10.5265 2.66965 0)
(10.6241 2.89486 0)
(10.7349 3.12583 0)
(10.8601 3.36165 0)
(11.0008 3.60115 0)
(11.1583 3.84284 0)
(11.3335 4.08491 0)
(11.5274 4.32522 0)
(11.7405 4.56127 0)
(11.973 4.79028 0)
(12.2248 5.00918 0)
(12.4949 5.21479 0)
(12.782 5.40386 0)
(13.0839 5.57333 0)
(13.3954 5.72037 0)
(13.7478 5.84352 0)
(10.0019 0.154554 0)
(10.0084 0.307086 0)
(10.0198 0.459182 0)
(10.036 0.612278 0)
(10.0568 0.767509 0)
(10.0825 0.925829 0)
(10.1134 1.08805 0)
(10.1502 1.25484 0)
(10.1931 1.42676 0)
(10.243 1.60421 0)
(10.3004 1.78747 0)
(10.366 1.97667 0)
(10.4408 2.17179 0)
(10.5256 2.37264 0)
(10.6212 2.57886 0)
(10.7286 2.78992 0)
(10.8488 3.00505 0)
(10.9826 3.22327 0)
(11.131 3.44336 0)
(11.2947 3.66386 0)
(11.4743 3.88303 0)
(11.6703 4.09892 0)
(11.8828 4.30933 0)
(12.1115 4.51189 0)
(12.3558 4.70412 0)
(12.6147 4.88352 0)
(12.8865 5.04766 0)
(13.1694 5.19435 0)
(13.4587 5.32168 0)
(13.7828 5.42882 0)
(10.0024 0.150913 0)
(10.0102 0.299812 0)
(10.0241 0.448158 0)
(10.0436 0.597276 0)
(10.0686 0.748204 0)
(10.0993 0.901801 0)
(10.136 1.05878 0)
(10.1791 1.21973 0)
(10.229 1.3851 0)
(10.2863 1.55519 0)
(10.3516 1.73017 0)
(10.4255 1.91007 0)
(10.5087 2.09477 0)
(10.6018 2.28399 0)
(10.7058 2.47727 0)
(10.8212 2.67399 0)
(10.9488 2.87333 0)
(11.0892 3.07431 0)
(11.243 3.27571 0)
(11.4107 3.47615 0)
(11.5925 3.67404 0)
(11.7884 3.86763 0)
(11.9984 4.05506 0)
(12.2218 4.23437 0)
(12.4579 4.40356 0)
(12.7055 4.56072 0)
(12.9629 4.70405 0)
(13.2284 4.832 0)
(13.4981 4.94331 0)
(13.798 5.03757 0)
(10.0027 0.146477 0)
(10.0119 0.290961 0)
(10.028 0.434783 0)
(10.0507 0.579154 0)
(10.0796 0.725016 0)
(10.1149 0.873136 0)
(10.1568 1.02414 0)
(10.2056 1.17851 0)
(10.2618 1.33661 0)
(10.3257 1.49867 0)
(10.3979 1.66475 0)
(10.4789 1.8348 0)
(10.5693 2.00862 0)
(10.6696 2.18586 0)
(10.7803 2.36601 0)
(10.9021 2.5484 0)
(11.0353 2.73222 0)
(11.1805 2.91648 0)
(11.3378 3.10005 0)
(11.5075 3.28165 0)
(11.6897 3.45988 0)
(11.8841 3.63321 0)
(12.0902 3.80009 0)
(12.3075 3.95892 0)
(12.535 4.10814 0)
(12.7715 4.24629 0)
(13.0154 4.37208 0)
(13.2653 4.48442 0)
(13.5178 4.58248 0)
(13.7967 4.66613 0)
(10.0031 0.141264 0)
(10.0134 0.280568 0)
(10.0317 0.419115 0)
(10.0572 0.558001 0)
(10.0897 0.698069 0)
(10.1291 0.84 0)
(10.1756 0.984327 0)
(10.2296 1.13146 0)
(10.2913 1.28167 0)
(10.3611 1.43511 0)
(10.4393 1.59177 0)
(10.5264 1.75154 0)
(10.6228 1.91416 0)
(10.7289 2.07922 0)
(10.845 2.24621 0)
(10.9716 2.41444 0)
(11.1089 2.58311 0)
(11.2572 2.75131 0)
(11.4165 2.91799 0)
(11.5868 3.082 0)
(11.768 3.24211 0)
(11.9596 3.39706 0)
(12.1611 3.54555 0)
(12.3718 3.68631 0)
(12.5906 3.81813 0)
(12.8164 3.93992 0)
(13.0479 4.05074 0)
(13.2837 4.14986 0)
(13.5209 4.23677 0)
(13.7818 4.31147 0)
(10.0034 0.135298 0)
(10.0148 0.268682 0)
(10.035 0.40123 0)
(10.0631 0.533922 0)
(10.0988 0.667511 0)
(10.1419 0.802587 0)
(10.1926 0.939607 0)
(10.2512 1.0789 0)
(10.3177 1.22067 0)
(10.3925 1.365 0)
(10.4758 1.51183 0)
(10.568 1.66099 0)
(10.6693 1.8122 0)
(10.78 1.96502 0)
(10.9003 2.11892 0)
(11.0304 2.27326 0)
(11.1705 2.42729 0)
(11.3206 2.58013 0)
(11.4805 2.73088 0)
(11.6502 2.87851 0)
(11.8294 3.02199 0)
(12.0174 3.16025 0)
(12.2137 3.29225 0)
(12.4175 3.41699 0)
(12.6278 3.53354 0)
(12.8436 3.6411 0)
(13.0637 3.73901 0)