/*--------------------------------*- C++ -*----------------------------------*\
  =========                 |
  \\      /  F ield         | OpenFOAM: The Open Source CFD Toolbox
   \\    /   O peration     | Website:  https://openfoam.org
    \\  /    A nd           | Version:  7
     \\/     M anipulation  |
\*---------------------------------------------------------------------------*/
FoamFile
{
    version     2.0;
    format      ascii;
    class       surfaceVectorField;
    location    "1.4";
    object      Uf;
}
// * * * * * * * * * * * * * * * * * * * * * * * * * * * * * * * * * * * * * //

dimensions      [0 1 -1 0 0 0 0];

internalField   nonuniform List<vector> 
5457
(
(9.92088 0.0251102 0)
(9.97125 0.0387451 0)
(9.82401 0.0328312 0)
(9.92859 0.0485889 0)
(9.70958 0.0393232 0)
(9.85546 0.0587821 0)
(9.57535 0.0460327 0)
(9.75675 0.0706233 0)
(9.42119 0.0529834 0)
(9.6374 0.0830653 0)
(9.24721 0.0602176 0)
(9.49836 0.0960164 0)
(9.05309 0.0678825 0)
(9.33888 0.109726 0)
(8.83813 0.0761296 0)
(9.15808 0.124442 0)
(8.60139 0.0850918 0)
(8.95513 0.140364 0)
(8.34174 0.0948957 0)
(8.72904 0.157677 0)
(8.05785 0.105669 0)
(8.47861 0.176564 0)
(7.74826 0.117543 0)
(8.20245 0.197203 0)
(7.41141 0.130645 0)
(7.89903 0.219759 0)
(7.04568 0.145095 0)
(7.56673 0.24437 0)
(6.6495 0.16099 0)
(7.20389 0.271124 0)
(6.22143 0.178392 0)
(6.80893 0.300029 0)
(5.76038 0.197301 0)
(6.38046 0.330968 0)
(5.26577 0.217624 0)
(5.91749 0.363646 0)
(4.73784 0.239133 0)
(5.41963 0.397525 0)
(4.17802 0.26142 0)
(4.88743 0.431744 0)
(3.58924 0.283846 0)
(4.32275 0.465052 0)
(2.97644 0.305507 0)
(3.72917 0.495743 0)
(2.34681 0.325294 0)
(3.11247 0.521678 0)
(1.70982 0.342694 0)
(2.48112 0.540537 0)
(1.07527 0.362118 0)
(1.84597 0.551496 0)
(0.442736 0.343585 0)
(1.23652 0.563038 0)
(-0.147838 0.0970941 0)
(0.595395 0.538406 0)
(-0.420075 -0.20096 0)
(0.0966832 0.254193 0)
(-0.398205 -0.350461 0)
(-0.142808 -0.0209147 0)
(-0.117359 -0.390017 0)
(9.99641 0.0516748 0)
(9.99705 0.0405033 0)
(9.95878 0.0708751 0)
(9.97851 0.0674626 0)
(9.89821 0.0880203 0)
(9.93376 0.089899 0)
(9.81649 0.106047 0)
(9.86448 0.113617 0)
(9.71339 0.125022 0)
(9.77425 0.138622 0)
(9.58873 0.145 0)
(9.6641 0.164811 0)
(9.44217 0.166292 0)
(9.53355 0.192566 0)
(9.27306 0.189231 0)
(9.38185 0.222346 0)
(9.08046 0.214116 0)
(9.20824 0.254554 0)
(8.86327 0.241222 0)
(9.01185 0.289568 0)
(8.62017 0.27082 0)
(8.79156 0.327761 0)
(8.34967 0.303168 0)
(8.5461 0.369503 0)
(8.05019 0.338493 0)
(8.274 0.415141 0)
(7.72003 0.376969 0)
(7.97369 0.464975 0)
(7.35751 0.41867 0)
(7.64354 0.519214 0)
(6.96104 0.463521 0)
(7.2819 0.577912 0)
(6.5293 0.511225 0)
(6.88724 0.64089 0)
(6.06145 0.561167 0)
(6.45829 0.707618 0)
(5.55738 0.612312 0)
(5.99427 0.777081 0)
(5.01813 0.663087 0)
(5.49515 0.84762 0)
(4.44626 0.711265 0)
(4.96208 0.916757 0)
(3.84638 0.75389 0)
(4.39778 0.981027 0)
(3.2258 0.787275 0)
(3.80721 1.03585 0)
(2.59543 0.80725 0)
(3.19844 1.07547 0)
(1.97284 0.809832 0)
(2.58348 1.09259 0)
(1.39685 0.77438 0)
(1.9869 1.07574 0)
(0.918909 0.64171 0)
(1.40967 0.974134 0)
(0.426225 0.375155 0)
(0.930573 0.714221 0)
(0.0518569 -0.125668 0)
(0.430171 0.337096 0)
(0.172068 -0.339227 0)
(9.98903 0.0594353 0)
(9.99481 0.0458755 0)
(9.95433 0.0895 0)
(9.97368 0.0848663 0)
(9.89726 0.118089 0)
(9.92983 0.119217 0)
(9.82038 0.148004 0)
(9.86352 0.154067 0)
(9.72398 0.179592 0)
(9.77723 0.190565 0)
(9.60789 0.213024 0)
(9.67203 0.228878 0)
(9.47183 0.248735 0)
(9.5477 0.269472 0)
(9.31531 0.287223 0)
(9.4037 0.312956 0)
(9.13761 0.328963 0)
(9.23945 0.359915 0)
(8.9378 0.374414 0)
(9.05426 0.410906 0)
(8.71476 0.42403 0)
(8.84727 0.46648 0)
(8.46721 0.478254 0)
(8.61743 0.527189 0)
(8.19371 0.537489 0)
(8.36356 0.593565 0)
(7.89274 0.602057 0)
(8.08437 0.666082 0)
(7.56265 0.672136 0)
(7.77844 0.745103 0)
(7.20185 0.74767 0)
(7.44433 0.830796 0)
(6.80883 0.828251 0)
(7.0806 0.923018 0)
(6.38238 0.912961 0)
(6.68593 1.02115 0)
(5.92178 1.00018 0)
(6.25926 1.12391 0)
(5.42717 1.08738 0)
(5.79999 1.22907 0)
(4.89994 1.17088 0)
(5.30833 1.3332 0)
(4.34332 1.2456 0)
(4.7857 1.43132 0)
(3.76317 1.30478 0)
(4.23531 1.51653 0)
(3.16928 1.33945 0)
(3.66297 1.57943 0)
(2.57753 1.33691 0)
(3.07758 1.6069 0)
(2.01145 1.27026 0)
(2.4947 1.57962 0)
(1.4781 1.09144 0)
(1.92091 1.46037 0)
(0.95202 0.764834 0)
(1.37864 1.20544 0)
(0.473958 0.194882 0)
(0.824475 0.794269 0)
(0.429461 0.124986 0)
(9.98515 0.07162 0)
(9.99367 0.0531455 0)
(9.95038 0.113663 0)
(9.97087 0.102307 0)
(9.89433 0.154211 0)
(9.92689 0.148011 0)
(9.81873 0.195717 0)
(9.86179 0.193843 0)
(9.72423 0.239042 0)
(9.77733 0.241486 0)
(9.61079 0.284661 0)
(9.67442 0.291482 0)
(9.47822 0.333182 0)
(9.55301 0.344405 0)
(9.32619 0.385277 0)
(9.41272 0.400972 0)
(9.15417 0.441604 0)
(9.25309 0.461907 0)
(8.96149 0.502807 0)
(9.0736 0.527909 0)
(8.74733 0.569524 0)
(8.87357 0.599673 0)
(8.51075 0.642384 0)
(8.65223 0.677893 0)
(8.25066 0.721976 0)
(8.40868 0.763244 0)
(7.96591 0.8088 0)
(8.14193 0.856346 0)
(7.65525 0.903196 0)
(7.85093 0.9577 0)
(7.31739 1.00523 0)
(7.53457 1.0676 0)
(6.95106 1.11454 0)
(7.19171 1.18599 0)
(6.55509 1.23012 0)
(6.82122 1.31228 0)
(6.12853 1.3501 0)
(6.42203 1.44511 0)
(5.67092 1.47137 0)
(5.99329 1.58198 0)
(5.18257 1.58926 0)
(5.5345 1.71893 0)
(4.66505 1.69706 0)
(5.04584 1.84998 0)
(4.12175 1.78553 0)
(4.52849 1.96668 0)
(3.55861 1.84204 0)
(3.98518 2.05731 0)
(2.9843 1.8491 0)
(3.42019 2.10603 0)
(2.40875 1.77924 0)
(2.84073 2.09195 0)
(1.83421 1.59557 0)
(2.25003 1.98415 0)
(1.25481 1.27201 0)
(1.65521 1.74643 0)
(0.664495 0.78124 0)
(1.02074 1.3588 0)
(0.521672 0.775818 0)
(9.98337 0.0844158 0)
(9.99317 0.061289 0)
(9.9482 0.136879 0)
(9.96958 0.119949 0)
(9.8931 0.188133 0)
(9.92573 0.176313 0)
(9.81896 0.240355 0)
(9.86193 0.232851 0)
(9.72642 0.294764 0)
(9.77949 0.291348 0)
(9.61555 0.35209 0)
(9.67913 0.352671 0)
(9.48617 0.413058 0)
(9.56083 0.417537 0)
(9.33799 0.478441 0)
(9.4243 0.486753 0)
(9.17061 0.549008 0)
(9.26914 0.561152 0)
(8.98346 0.625514 0)
(9.0949 0.641552 0)
(8.77591 0.708713 0)
(8.90105 0.72876 0)
(8.5472 0.799343 0)
(8.68693 0.823576 0)
(8.29653 0.898109 0)
(8.45182 0.926785 0)
(8.023 1.00563 0)
(8.19493 1.03911 0)
(7.72569 1.12235 0)
(7.91544 1.16116 0)
(7.40364 1.24844 0)
(7.61248 1.29332 0)
(7.05583 1.38363 0)
(7.28512 1.43566 0)
(6.68126 1.52697 0)
(6.9324 1.58767 0)
(6.27896 1.6765 0)
(6.55332 1.74804 0)
(5.84808 1.82891 0)
(6.14681 1.91428 0)
(5.38808 1.97903 0)
(5.71184 2.08227 0)
(4.89889 2.11928 0)
(5.24748 2.24572 0)
(4.3813 2.23904 0)
(4.75304 2.39552 0)
(3.8371 2.3239 0)
(4.22831 2.51911 0)
(3.26895 2.3549 0)
(3.67351 2.59981 0)
(2.67959 2.30669 0)
(3.08987 2.61656 0)
(2.06777 2.14895 0)
(2.47662 2.54192 0)
(1.4258 1.85897 0)
(1.83584 2.34586 0)
(0.740753 1.40861 0)
(1.12895 2.01391 0)
(0.542038 1.50134 0)
(9.98264 0.097509 0)
(9.99299 0.0697909 0)
(9.94742 0.159828 0)
(9.96924 0.137611 0)
(9.89349 0.221474 0)
(9.92594 0.204017 0)
(9.82122 0.284322 0)
(9.86373 0.270876 0)
(9.73112 0.349712 0)
(9.78369 0.3399 0)
(9.62329 0.418547 0)
(9.68635 0.412178 0)
(9.49761 0.491656 0)
(9.5717 0.488578 0)
(9.35381 0.569904 0)
(9.4395 0.570001 0)
(9.19153 0.654164 0)
(9.28941 0.657372 0)
(9.01029 0.745298 0)
(9.12104 0.751609 0)
(8.80954 0.844162 0)
(8.93391 0.853616 0)
(8.58863 0.951596 0)
(8.72746 0.964289 0)
(8.34689 1.0684 0)
(8.50103 1.0845 0)
(8.08357 1.19529 0)
(8.25396 1.21505 0)
(7.7979 1.33281 0)
(7.9855 1.35665 0)
(7.48905 1.48123 0)
(7.69487 1.50979 0)
(7.15615 1.6404 0)
(7.38122 1.67463 0)
(6.79825 1.80946 0)
(7.0436 1.85081 0)
(6.41426 1.98657 0)
(6.68091 2.03718 0)
(6.00298 2.16849 0)
(6.29184 2.23146 0)
(5.56307 2.35004 0)
(5.8748 2.42975 0)
(5.09304 2.5235 0)
(5.42785 2.62596 0)
(4.59139 2.67793 0)
(4.94865 2.81116 0)
(4.05658 2.7986 0)
(4.43458 2.97294 0)
(3.48702 2.86658 0)
(3.88262 3.09482 0)
(2.88084 2.8583 0)
(3.28993 3.15615 0)
(2.23391 2.74682 0)
(2.65242 3.13171 0)
(1.53951 2.51115 0)
(1.97132 2.99423 0)
(0.792151 2.11872 0)
(1.20525 2.72861 0)
(0.55561 2.2772 0)
(9.9825 0.110641 0)
(9.99302 0.0783605 0)
(9.94769 0.18239 0)
(9.96953 0.155072 0)
(9.89517 0.25397 0)
(9.92719 0.230996 0)
(9.82511 0.327044 0)
(9.86688 0.307733 0)
(9.73789 0.402992 0)
(9.7896 0.3869 0)
(9.63363 0.482865 0)
(9.69573 0.469719 0)
(9.51223 0.567614 0)
(9.58527 0.557196 0)
(9.37347 0.658199 0)
(9.45802 0.650328 0)
(9.21703 0.755589 0)
(9.31371 0.750127 0)
(9.04249 0.860741 0)
(9.15198 0.857601 0)
(8.84934 0.974601 0)
(8.97241 0.973745 0)
(8.63701 1.0981 0)
(8.77447 1.09954 0)
(8.40486 1.23211 0)
(8.55759 1.23595 0)
(8.15222 1.37745 0)
(8.32112 1.38386 0)
(7.87835 1.53474 0)
(8.06435 1.54408 0)
(7.58242 1.70438 0)
(7.78648 1.7172 0)
(7.26354 1.88634 0)
(7.48662 1.90354 0)
(6.92062 2.07998 0)
(7.16368 2.10293 0)
(6.55235 2.28369 0)
(6.81636 2.31449 0)
(6.15706 2.49457 0)
(6.44296 2.53631 0)
(5.73259 2.70784 0)
(6.04127 2.76502 0)
(5.27621 2.91624 0)
(5.60836 2.99515 0)
(4.78449 3.10935 0)
(5.14047 3.21858 0)
(4.25331 3.27297 0)
(4.6329 3.4237 0)
(3.67794 3.3888 0)
(4.08005 3.59487 0)
(3.05335 3.43433 0)
(3.47599 3.71212 0)
(2.37395 3.38373 0)
(2.81394 3.75109 0)
(1.63526 3.2151 0)
(2.09574 3.68396 0)
(0.837782 2.88689 0)
(1.27702 3.49125 0)
(0.572284 3.09776 0)
(9.98273 0.123601 0)
(9.99316 0.0868182 0)
(9.94871 0.20439 0)
(9.97026 0.172137 0)
(9.89788 0.285435 0)
(9.92923 0.257107 0)
(9.83036 0.368293 0)
(9.87114 0.343253 0)
(9.74644 0.454367 0)
(9.79695 0.432122 0)
(9.64624 0.544819 0)
(9.707 0.525018 0)
(9.5297 0.640711 0)
(9.60124 0.623067 0)
(9.39665 0.743095 0)
(9.47954 0.727357 0)
(9.24679 0.853022 0)
(9.34168 0.838982 0)
(9.07975 0.971537 0)
(9.18734 0.959033 0)
(8.89509 1.09967 0)
(9.01616 1.08859 0)
(8.69228 1.23845 0)
(8.82766 1.22873 0)
(8.47071 1.38883 0)
(8.62131 1.38049 0)
(8.22973 1.55172 0)
(8.39649 1.54488 0)
(7.96856 1.72788 0)
(8.15247 1.72281 0)
(7.68633 1.91784 0)
(7.88842 1.91502 0)
(7.382 2.12176 0)
(7.60333 2.12201 0)
(7.05426 2.33927 0)
(7.29595 2.34388 0)
(6.70144 2.56919 0)
(6.96467 2.58016 0)
(6.32133 2.80914 0)
(6.60734 2.82947 0)
(5.91094 3.05508 0)
(6.22108 3.08917 0)
(5.46634 3.30067 0)
(5.80203 3.35482 0)
(4.98242 3.53658 0)
(5.34505 3.61952 0)
(4.45288 3.74975 0)
(4.8436 3.87306 0)
(3.8704 3.92279 0)
(4.2897 4.10112 0)
(3.22735 4.0337 0)
(3.6746 4.28452 0)
(2.51688 4.05593 0)
(2.98858 4.3988 0)
(1.73563 3.96389 0)
(2.23359 4.41343 0)
(0.888065 3.70349 0)
(1.36122 4.30178 0)
(0.5976 3.96756 0)
(9.9832 0.136229 0)
(9.99339 0.0950436 0)
(9.95029 0.225669 0)
(9.9713 0.188644 0)
(9.90143 0.315713 0)
(9.93189 0.282206 0)
(9.83678 0.407887 0)
(9.87632 0.37727 0)
(9.75655 0.503612 0)
(9.80557 0.475355 0)
(9.66087 0.604138 0)
(9.71991 0.577821 0)
(9.54973 0.710621 0)
(9.61934 0.685889 0)
(9.42298 0.824198 0)
(9.50374 0.800733 0)
(9.28039 0.946001 0)
(9.37294 0.923525 0)
(9.12164 1.07716 0)
(9.2267 1.05543 0)
(8.94633 1.21879 0)
(9.0647 1.19762 0)
(8.75399 1.37199 0)
(8.88653 1.35125 0)
(8.54405 1.53785 0)
(8.69169 1.51746 0)
(8.31584 1.71738 0)
(8.47959 1.69737 0)
(8.06858 1.91148 0)
(8.24952 1.89202 0)
(7.80131 2.12087 0)
(8.00061 2.10234 0)
(7.51283 2.34598 0)
(7.73174 2.32909 0)
(7.20158 2.58683 0)
(7.4415 2.57272 0)
(6.8655 2.84274 0)
(7.12798 2.83323 0)
(6.5018 3.1121 0)
(6.78862 3.10995 0)
(6.10671 3.39187 0)
(6.41991 3.40124 0)
(5.67514 3.67704 0)
(6.01709 3.70395 0)
(5.20042 3.95984 0)
(5.57377 4.01284 0)
(4.67415 4.22884 0)
(5.0816 4.31965 0)
(4.08638 4.46794 0)
(4.53011 4.61195 0)
(3.42656 4.65547 0)
(3.90739 4.87185 0)
(2.68538 4.76297 0)
(3.19954 5.07451 0)
(1.85853 4.75884 0)
(2.40652 5.18548 0)
(0.952471 4.573 0)
(1.47349 5.16825 0)
(0.637789 4.90045 0)
(9.98385 0.148402 0)
(9.99368 0.10295 0)
(9.95232 0.246087 0)
(9.97259 0.204461 0)
(9.9057 0.344652 0)
(9.93505 0.306154 0)
(9.84419 0.445643 0)
(9.88228 0.40963 0)
(9.76801 0.550502 0)
(9.81527 0.516409 0)
(9.67727 0.660548 0)
(9.73429 0.627895 0)
(9.57201 0.777021 0)
(9.63932 0.745386 0)
(9.45213 0.901133 0)
(9.53031 0.870134 0)
(9.31745 1.03409 0)
(9.40714 1.00338 0)
(9.1677 1.1771 0)
(9.26964 1.14637 0)
(9.00256 1.33137 0)
(9.11755 1.30033 0)
(8.8216 1.49809 0)
(8.95052 1.46652 0)
(8.6243 1.67844 0)
(8.76811 1.64618 0)
(8.41002 1.87358 0)
(8.5698 1.84054 0)
(8.17797 2.08459 0)
(8.3549 2.05082 0)
(7.92714 2.31242 0)
(8.12253 2.27815 0)
(7.65621 2.55784 0)
(7.87155 2.52358 0)
(7.36342 2.82131 0)
(7.60041 2.78798 0)
(7.04638 3.10285 0)
(7.30704 3.07196 0)
(6.70182 3.40175 0)
(6.98855 3.37568 0)
(6.32525 3.71627 0)
(6.64097 3.69868 0)
(5.91056 4.04306 0)
(6.25882 4.03942 0)
(5.44959 4.37643 0)
(5.83459 4.39478 0)
(4.93178 4.70722 0)
(5.35823 4.75905 0)
(4.34415 5.02138 0)
(4.81662 5.12267 0)
(3.67207 5.29805 0)
(4.19387 5.47009 0)
(2.90141 5.50664 0)
(3.46991 5.7771 0)
(2.02333 5.60783 0)
(2.63873 6.00536 0)
(1.04285 5.5109 0)
(1.63387 6.10589 0)
(0.702624 5.92186 0)
(9.98464 0.160023 0)
(9.99402 0.110473 0)
(9.95469 0.265519 0)
(9.97407 0.219482 0)
(9.91055 0.372114 0)
(9.93862 0.328827 0)
(9.85247 0.481395 0)
(9.88891 0.44019 0)
(9.78065 0.594836 0)
(9.82591 0.555111 0)
(9.69524 0.713809 0)
(9.74992 0.675031 0)
(9.5963 0.839626 0)
(9.66094 0.801311 0)
(9.48378 0.973568 0)
(9.55896 0.93527 0)
(9.35757 1.11691 0)
(9.44393 1.07821 0)
(9.21748 1.27093 0)
(9.31574 1.23144 0)
(9.06324 1.4369 0)
(9.1742 1.39626 0)
(8.89449 1.61613 0)
(9.01905 1.57401 0)
(8.71079 1.80989 0)
(8.84993 1.76602 0)
(8.51156 2.0195 0)
(8.6664 1.97367 0)
(8.29604 2.24623 0)
(8.46783 2.19831 0)
(8.06322 2.49129 0)
(8.25341 2.44133 0)
(7.81175 2.75585 0)
(8.02203 2.7041 0)
(7.53977 3.04091 0)
(7.77216 2.98794 0)
(7.24472 3.34723 0)
(7.50167 3.29413 0)
(6.92302 3.67522 0)
(7.20758 3.62378 0)
(6.5697 4.02463 0)
(6.88571 3.97775 0)
(6.17788 4.39418 0)
(6.53019 4.3564 0)
(5.73811 4.78082 0)
(6.13278 4.75914 0)
(5.23771 5.17862 0)
(5.68207 5.18369 0)
(4.66018 5.57686 0)
(5.16239 5.62461 0)
(3.98525 5.95724 0)
(4.55319 6.07086 0)
(3.19038 6.28857 0)
(3.82582 6.50175 0)
(2.25593 6.52345 0)
(2.96231 6.87788 0)
(1.1775 6.54413 0)
(1.87368 7.13719 0)
(0.810233 7.07514 0)
(9.98552 0.171015 0)
(9.99439 0.117562 0)
(9.95734 0.28386 0)
(9.9757 0.233617 0)
(9.9159 0.397973 0)
(9.94252 0.350118 0)
(9.86147 0.514995 0)
(9.89608 0.468823 0)
(9.7943 0.636432 0)
(9.83735 0.591307 0)
(9.71455 0.763706 0)
(9.76663 0.719045 0)
(9.62231 0.898184 0)
(9.68397 0.853447 0)
(9.5176 1.04121 0)
(9.5894 0.995885 0)
(9.40037 1.19411 0)
(9.48294 1.14772 0)
(9.27051 1.35823 0)
(9.36456 1.3103 0)
(9.12781 1.53492 0)
(9.23414 1.48501 0)
(8.97204 1.72555 0)
(9.09152 1.67324 0)
(8.80282 1.93155 0)
(8.93645 1.87642 0)
(8.61966 2.15434 0)
(8.76858 2.09604 0)
(8.42192 2.3954 0)
(8.58741 2.33363 0)
(8.20865 2.65624 0)
(8.39227 2.5908 0)
(7.97859 2.93842 0)
(8.18216 2.86924 0)
(7.72994 3.24351 0)
(7.95571 3.17076 0)
(7.46015 3.57312 0)
(7.71093 3.49728 0)
(7.16565 3.92882 0)
(7.44503 3.85091 0)
(6.84134 4.31207 0)
(7.15399 4.23391 0)
(6.48003 4.72395 0)
(6.83206 4.64869 0)
(6.07152 5.16473 0)
(6.47096 5.09761 0)
(5.60146 5.63284 0)
(6.05875 5.58257 0)
(5.04987 6.12308 0)
(5.57809 6.10401 0)
(4.38956 6.62312 0)
(5.00424 6.65863 0)
(3.58527 7.10608 0)
(4.29853 7.23499 0)
(2.59615 7.52068 0)
(3.4239 7.80144 0)
(1.38981 7.71608 0)
(2.24849 8.29082 0)
(0.99879 8.43638 0)
(9.98649 0.181315 0)
(9.9948 0.124178 0)
(9.96022 0.301019 0)
(9.97745 0.246795 0)
(9.92165 0.422119 0)
(9.94668 0.369932 0)
(9.87109 0.54631 0)
(9.9037 0.49542 0)
(9.80881 0.675134 0)
(9.84945 0.624867 0)
(9.735 0.810049 0)
(9.78424 0.75978 0)
(9.6498 0.952472 0)
(9.70818 0.901607 0)
(9.55328 1.10379 0)
(9.62135 1.05176 0)
(9.44545 1.26538 0)
(9.52382 1.21165 0)
(9.3263 1.43864 0)
(9.41565 1.38266 0)
(9.19572 1.62499 0)
(9.29683 1.56622 0)
(9.05356 1.82587 0)
(9.16728 1.76379 0)
(8.89958 2.04279 0)
(9.02689 1.97688 0)
(8.73343 2.27733 0)
(8.87545 2.20706 0)
(8.55459 2.53115 0)
(8.71262 2.45602 0)
(8.36232 2.80603 0)
(8.53792 2.72557 0)
(8.15552 3.1039 0)
(8.35059 3.01769 0)
(7.93264 3.42692 0)
(8.14953 3.33462 0)
(7.69142 3.77749 0)
(7.93316 3.67891 0)
(7.42863 4.15838 0)
(7.69912 4.05357 0)
(7.13958 4.57278 0)
(7.44404 4.46222 0)
(6.81747 5.02435 0)
(7.16294 4.90927 0)
(6.45231 5.51713 0)
(6.84853 5.40016 0)
(6.02936 6.05517 0)
(6.48985 5.94148 0)
(5.52653 6.6414 0)
(6.07008 6.54102 0)
(4.91038 7.27503 0)
(5.56327 7.20709 0)
(4.13013 7.94401 0)
(4.92368 7.94632 0)
(3.11007 8.61011 0)
(4.09274 8.75389 0)
(1.74948 9.09863 0)
(2.86643 9.59195 0)
(1.3586 10.1499 0)
(9.98752 0.190874 0)
(9.99522 0.130289 0)
(9.96327 0.316923 0)
(9.97929 0.258959 0)
(9.92772 0.444459 0)
(9.95107 0.388193 0)
(9.88122 0.575232 0)
(9.91169 0.519887 0)
(9.82403 0.710812 0)
(9.86208 0.655681 0)
(9.7564 0.852692 0)
(9.80259 0.797106 0)
(9.6785 1.00232 0)
(9.73335 0.945638 0)
(9.59047 1.16112 0)
(9.65451 1.10272 0)
(9.4924 1.33051 0)
(9.56621 1.26979 0)
(9.38436 1.51192 0)
(9.46858 1.44827 0)
(9.26634 1.70682 0)
(9.36172 1.63962 0)
(9.13834 1.9167 0)
(9.24568 1.84533 0)
(9.00023 2.14317 0)
(9.12048 2.06697 0)
(8.85185 2.38789 0)
(8.98607 2.3062 0)
(8.69288 2.6527 0)
(8.84233 2.56481 0)
(8.52283 2.93961 0)
(8.68901 2.84476 0)
(8.34091 3.25087 0)
(8.52569 3.14828 0)
(8.146 3.58912 0)
(8.3517 3.47793 0)
(7.93638 3.95747 0)
(8.16599 3.83676 0)
(7.70954 4.35976 0)
(7.967 4.22851 0)
(7.46179 4.80075 0)
(7.75241 4.65791 0)
(7.18764 5.28653 0)
(7.51878 5.13106 0)
(6.87879 5.82499 0)
(7.26096 5.65605 0)
(6.52242 6.42635 0)
(6.97104 6.24389 0)
(6.09796 7.10387 0)
(6.63647 6.90993 0)
(5.57095 7.87453 0)
(6.23689 7.6762 0)
(4.8803 8.75806 0)
(5.73221 8.57596 0)
(3.90967 9.77368 0)
(5.06368 9.66019 0)
(2.42238 10.8203 0)
(3.96058 11.0143 0)
(2.13543 12.5225 0)
(9.9886 0.199653 0)
(9.99566 0.135872 0)
(9.96646 0.331509 0)
(9.98121 0.270063 0)
(9.93405 0.464912 0)
(9.95561 0.40484 0)
(9.89174 0.601652 0)
(9.91996 0.54215 0)
(9.83982 0.743329 0)
(9.87515 0.68366 0)
(9.77855 0.891456 0)
(9.82154 0.830918 0)
(9.70817 1.04751 0)
(9.75932 0.98542 0)
(9.62887 1.21293 0)
(9.6887 1.14863 0)
(9.54083 1.38917 0)
(9.6099 1.32199 0)
(9.4442 1.57767 0)
(9.52313 1.50695 0)
(9.3391 1.77994 0)
(9.42859 1.70498 0)
(9.22564 1.99751 0)
(9.32647 1.9176 0)
(9.10389 2.23203 0)
(9.21694 2.1464 0)
(8.97386 2.48525 0)
(9.10014 2.39309 0)
(8.8355 2.7591 0)
(8.97618 2.6595 0)
(8.6886 3.05576 0)
(8.84512 2.94772 0)
(8.53284 3.37773 0)
(8.70693 3.26009 0)
(8.36763 3.72799 0)
(8.56144 3.5994 0)
(8.19201 4.11016 0)
(8.40834 3.96899 0)
(8.00458 4.52883 0)
(8.24706 4.37306 0)
(7.80318 4.98995 0)
(8.07672 4.81699 0)
(7.58457 5.50146 0)
(7.896 5.3079 0)
(7.34383 6.07424 0)
(7.70298 5.85551 0)
(7.07314 6.7238 0)
(7.49486 6.4736 0)
(6.75952 7.47309 0)
(7.26751 7.18249 0)
(6.37973 8.35854 0)
(7.01565 8.01427 0)
(5.88723 9.44419 0)
(6.72938 9.02496 0)
(5.17037 10.8757 0)
(6.42812 10.3295 0)
(3.8656 13.1313 0)
(6.15801 12.262 0)
(5.23669 16.3086 0)
(0.535995 -0.399427 0)
(0.24946 -0.524974 0)
(0.962706 -0.309734 0)
(0.630641 -0.408066 0)
(1.31446 -0.248879 0)
(0.97475 -0.328438 0)
(1.61444 -0.20643 0)
(1.27279 -0.273481 0)
(1.87409 -0.174444 0)
(1.5224 -0.231127 0)
(2.0992 -0.149091 0)
(1.73321 -0.195646 0)
(2.29382 -0.128784 0)
(1.91139 -0.165151 0)
(2.46124 -0.112807 0)
(2.05928 -0.138716 0)
(2.60401 -0.10083 0)
(2.17691 -0.115492 0)
(2.72374 -0.0921818 0)
(2.26196 -0.094573 0)
(2.82055 -0.0840329 0)
(2.30783 -0.0746578 0)
(2.88809 -0.0713518 0)
(2.30609 -0.0508599 0)
(2.91515 -0.0518739 0)
(2.26869 -0.0198993 0)
(2.89353 -0.028231 0)
(2.19992 0.0155212 0)
(2.82978 -0.00450306 0)
(2.10006 0.0446818 0)
(2.73173 0.0161513 0)
(1.97379 0.0670989 0)
(2.60815 0.0321761 0)
(1.82878 0.082575 0)
(2.46784 0.0428865 0)
(1.67247 0.09154 0)
(2.32122 0.0480072 0)
(1.51296 0.0933939 0)
(2.17801 0.0479655 0)
(1.36005 0.0890674 0)
(2.04712 0.043638 0)
(1.22207 0.0794862 0)
(1.93687 0.0359368 0)
(1.10657 0.0653669 0)
(1.85552 0.0255666 0)
(1.02071 0.0470959 0)
(1.80984 0.0141983 0)
(0.971576 0.0258156 0)
(1.80025 0.00447178 0)
(0.965509 0.00529244 0)
(1.83887 -0.0108562 0)
(0.998309 -0.0208106 0)
(1.95255 -0.0417304 0)
(1.08949 -0.0598085 0)
(2.17136 -0.0892869 0)
(1.27118 -0.112401 0)
(2.51253 -0.140567 0)
(1.51662 -0.171118 0)
(1.96127 -0.21122 0)
(0.353004 -0.666498 0)
(0.116845 -0.87072 0)
(0.678481 -0.533695 0)
(0.407901 -0.719322 0)
(0.953906 -0.435081 0)
(0.631428 -0.585607 0)
(1.18559 -0.362596 0)
(0.834046 -0.484697 0)
(1.3815 -0.305263 0)
(0.996269 -0.405516 0)
(1.54466 -0.256844 0)
(1.12325 -0.337453 0)
(1.67563 -0.214855 0)
(1.21573 -0.276291 0)
(1.77294 -0.177516 0)
(1.27192 -0.219339 0)
(1.8319 -0.141736 0)
(1.28777 -0.163187 0)
(1.84169 -0.102234 0)
(1.25602 -0.102304 0)
(1.78987 -0.0557211 0)
(1.18155 -0.034694 0)
(1.68407 -0.00572153 0)
(1.07473 0.0288051 0)
(1.55032 0.0413495 0)
(0.940768 0.0784335 0)
(1.40311 0.0819854 0)
(0.793163 0.121198 0)
(1.24201 0.114601 0)
(0.635043 0.157594 0)
(1.07056 0.137909 0)
(0.468704 0.184428 0)
(0.894317 0.151541 0)
(0.299978 0.200338 0)
(0.722104 0.155698 0)
(0.133401 0.203891 0)
(0.559063 0.150888 0)
(-0.0242833 0.197249 0)
(0.413253 0.138119 0)
(-0.166351 0.179753 0)
(0.291651 0.11863 0)
(-0.286798 0.15333 0)
(0.199658 0.093141 0)
(-0.380227 0.11991 0)
(0.141618 0.0619608 0)
(-0.441613 0.0806956 0)
(0.122966 0.0274482 0)
(-0.466235 0.0363585 0)
(0.149398 -0.0108325 0)
(-0.451707 -0.00929525 0)
(0.234681 -0.0630994 0)
(-0.387727 -0.0667652 0)
(0.386559 -0.131909 0)
(-0.273834 -0.139715 0)
(0.596538 -0.211362 0)
(-0.105682 -0.220267 0)
(0.890883 -0.276355 0)
(0.0964527 -0.318751 0)
(0.371289 -0.364083 0)
(0.193075 -0.932232 0)
(0.0279429 -1.05982 0)
(0.377386 -0.77794 0)
(0.192288 -0.895579 0)
(0.531497 -0.642557 0)
(0.271341 -0.729503 0)
(0.652776 -0.534458 0)
(0.35594 -0.595263 0)
(0.741348 -0.443184 0)
(0.402857 -0.484358 0)
(0.795308 -0.360292 0)
(0.418671 -0.38435 0)
(0.811124 -0.280475 0)
(0.399855 -0.289712 0)
(0.783842 -0.19901 0)
(0.346566 -0.196735 0)
(0.708117 -0.113215 0)
(0.256995 -0.101928 0)
(0.592237 -0.02737 0)
(0.141955 -0.0107736 0)
(0.461964 0.0483931 0)
(0.0137866 0.0657739 0)
(0.327398 0.109718 0)
(-0.117267 0.130132 0)
(0.179599 0.160094 0)
(-0.26021 0.187098 0)
(0.0214292 0.201355 0)
(-0.412478 0.23474 0)
(-0.140591 0.232087 0)
(-0.568076 0.271154 0)
(-0.30239 0.250791 0)
(-0.723645 0.295154 0)
(-0.45969 0.256482 0)
(-0.875007 0.305442 0)
(-0.6087 0.249295 0)
(-1.019 0.301104 0)
(-0.743096 0.229973 0)
(-1.15016 0.282858 0)
(-0.858601 0.199594 0)
(-1.26475 0.251591 0)
(-0.950512 0.160098 0)
(-1.35845 0.209143 0)
(-1.01432 0.113341 0)
(-1.42708 0.15774 0)
(-1.0465 0.0606754 0)
(-1.46657 0.0993291 0)
(-1.0442 0.00295464 0)
(-1.47337 0.0350552 0)
(-0.997324 -0.0628745 0)
(-1.4471 -0.0351635 0)
(-0.907918 -0.140683 0)
(-1.37919 -0.114942 0)
(-0.784102 -0.228195 0)
(-1.27967 -0.204857 0)
(-0.625807 -0.320693 0)
(-1.15257 -0.301583 0)
(-0.467929 -0.395829 0)
(-1.01333 -0.397938 0)
(-0.89336 -0.453811 0)
(0.0480331 -1.02797 0)
(-0.0436106 -1.10687 0)
(0.0910341 -0.852964 0)
(-0.0115533 -0.936702 0)
(0.112888 -0.687952 0)
(-0.0658486 -0.749909 0)
(0.114631 -0.549572 0)
(-0.101814 -0.596853 0)
(0.0859973 -0.425709 0)
(-0.165917 -0.45887 0)
(0.0258712 -0.31022 0)
(-0.250371 -0.332094 0)
(-0.0649156 -0.200584 0)
(-0.356823 -0.212671 0)
(-0.182461 -0.0955829 0)
(-0.482337 -0.0993439 0)
(-0.311469 0.00105983 0)
(-0.616308 0.00243592 0)
(-0.438493 0.0837837 0)
(-0.747106 0.0895584 0)
(-0.569448 0.154505 0)
(-0.878969 0.166768 0)
(-0.709635 0.216446 0)
(-1.01814 0.235693 0)
(-0.855759 0.268795 0)
(-1.16142 0.29453 0)
(-1.00456 0.309716 0)
(-1.30631 0.341554 0)
(-1.15279 0.337761 0)
(-1.44996 0.375051 0)
(-1.2968 0.351613 0)
(-1.58962 0.393702 0)
(-1.43295 0.350271 0)
(-1.72222 0.396416 0)
(-1.558 0.333716 0)
(-1.84502 0.382684 0)
(-1.66822 0.302785 0)
(-1.9548 0.353067 0)
(-1.76015 0.258918 0)
(-2.04862 0.308769 0)
(-1.83032 0.204173 0)
(-2.12339 0.251756 0)
(-1.87538 0.140674 0)
(-2.17596 0.184456 0)
(-1.89255 0.0699692 0)
(-2.20337 0.10927 0)
(-1.87961 -0.00767039 0)
(-2.20342 0.0277399 0)
(-1.83409 -0.0933372 0)
(-2.17591 -0.0602893 0)
(-1.75956 -0.186911 0)
(-2.12026 -0.1551 0)
(-1.66463 -0.285475 0)
(-2.04417 -0.2548 0)
(-1.55906 -0.382634 0)
(-1.95417 -0.355814 0)
(-1.45705 -0.461118 0)
(-1.86519 -0.449103 0)
(-1.80755 -0.515324 0)
(-0.0792112 -0.993001 0)
(-0.110125 -1.02929 0)
(-0.168603 -0.808868 0)
(-0.196673 -0.851215 0)
(-0.264011 -0.632547 0)
(-0.358221 -0.660825 0)
(-0.373115 -0.479715 0)
(-0.497136 -0.497386 0)
(-0.495485 -0.341685 0)
(-0.645411 -0.349944 0)
(-0.629755 -0.215248 0)
(-0.798078 -0.215399 0)
(-0.773042 -0.0976662 0)
(-0.954019 -0.0910807 0)
(-0.914786 0.00893142 0)
(-1.10572 0.018097 0)
(-1.05173 0.102197 0)
(-1.24929 0.113224 0)
(-1.18929 0.184511 0)
(-1.39032 0.198207 0)
(-1.32994 0.257552 0)
(-1.53286 0.275238 0)
(-1.47199 0.320565 0)
(-1.67496 0.342661 0)
(-1.61364 0.371859 0)
(-1.81527 0.398671 0)
(-1.75284 0.409695 0)
(-1.95237 0.441477 0)
(-1.88745 0.432557 0)
(-2.08464 0.469401 0)
(-2.01512 0.439248 0)
(-2.21035 0.481069 0)
(-2.13347 0.429026 0)
(-2.32766 0.475494 0)
(-2.24022 0.401938 0)
(-2.43473 0.452328 0)
(-2.3329 0.358883 0)
(-2.52953 0.412105 0)
(-2.40903 0.301496 0)
(-2.60993 0.356116 0)
(-2.46608 0.232043 0)
(-2.67367 0.286399 0)
(-2.50165 0.153068 0)
(-2.71842 0.205544 0)
(-2.51378 0.0667623 0)
(-2.74211 0.116293 0)
(-2.50129 -0.0257015 0)
(-2.74351 0.020682 0)
(-2.46517 -0.12369 0)
(-2.72258 -0.0802248 0)
(-2.40991 -0.225483 0)
(-2.68269 -0.184876 0)
(-2.34307 -0.32769 0)
(-2.62981 -0.289965 0)
(-2.27395 -0.424696 0)
(-2.57064 -0.391324 0)
(-2.20733 -0.504543 0)
(-2.51738 -0.482518 0)
(-2.48912 -0.550758 0)
(-0.190341 -0.851478 0)
(-0.170361 -0.84286 0)
(-0.384769 -0.669689 0)
(-0.349131 -0.665282 0)
(-0.573152 -0.49662 0)
(-0.591099 -0.484928 0)
(-0.758963 -0.344325 0)
(-0.802887 -0.327989 0)
(-0.941303 -0.206702 0)
(-1.00681 -0.187637 0)
(-1.11915 -0.0808653 0)
(-1.19874 -0.0608255 0)
(-1.28395 0.0312245 0)
(-1.377 0.0487633 0)
(-1.43796 0.128836 0)
(-1.54089 0.145702 0)
(-1.58723 0.216162 0)
(-1.69725 0.233976 0)
(-1.73446 0.295102 0)
(-1.84894 0.314502 0)
(-1.87868 0.36494 0)
(-1.99568 0.38646 0)
(-2.01905 0.423966 0)
(-2.13706 0.448355 0)
(-2.15469 0.470353 0)
(-2.27269 0.498398 0)
(-2.28462 0.502334 0)
(-2.40209 0.534745 0)
(-2.40771 0.518363 0)
(-2.52462 0.555673 0)
(-2.52268 0.517258 0)
(-2.63952 0.55975 0)
(-2.62817 0.498369 0)
(-2.74588 0.545984 0)
(-2.72276 0.461779 0)
(-2.84264 0.514033 0)
(-2.80479 0.408385 0)
(-2.92853 0.464358 0)
(-2.87249 0.339852 0)
(-3.00204 0.398219 0)
(-2.92396 0.258513 0)
(-3.06141 0.317657 0)
(-2.95738 0.167101 0)
(-3.10482 0.225361 0)
(-2.97131 0.0682468 0)
(-3.13077 0.124357 0)
(-2.96548 -0.0359951 0)
(-3.1386 0.0173852 0)
(-2.94204 -0.143532 0)
(-3.12829 -0.0931607 0)
(-2.90577 -0.251233 0)
(-3.10476 -0.204422 0)
(-2.86315 -0.355177 0)
(-3.07312 -0.312386 0)
(-2.82128 -0.45087 0)
(-3.03985 -0.412833 0)
(-2.78311 -0.529356 0)
(-3.01415 -0.501664 0)
(-3.00414 -0.567496 0)
(-0.278108 -0.625549 0)
(-0.218816 -0.57047 0)
(-0.549825 -0.456885 0)
(-0.465126 -0.405438 0)
(-0.804446 -0.299999 0)
(-0.76173 -0.247183 0)
(-1.04168 -0.159813 0)
(-1.01811 -0.11171 0)
(-1.25839 -0.034311 0)
(-1.25181 0.00526474 0)
(-1.45287 0.0746194 0)
(-1.46295 0.108201 0)
(-1.63094 0.17031 0)
(-1.65359 0.199872 0)
(-1.79874 0.257568 0)
(-1.83111 0.284732 0)
(-1.95828 0.337477 0)
(-1.99746 0.363036 0)
(-2.11003 0.409492 0)
(-2.15371 0.434365 0)
(-2.25421 0.472365 0)
(-2.30067 0.497657 0)
(-2.39096 0.52439 0)
(-2.43894 0.551325 0)
(-2.52031 0.563698 0)
(-2.56902 0.593498 0)
(-2.64218 0.588453 0)
(-2.69128 0.622226 0)
(-2.75631 0.597027 0)
(-2.80593 0.635671 0)
(-2.8623 0.588168 0)
(-2.91298 0.632281 0)
(-2.95954 0.561165 0)
(-3.01223 0.610957 0)
(-3.04721 0.51602 0)
(-3.10321 0.571231 0)
(-3.12422 0.453536 0)
(-3.18516 0.513411 0)
(-3.18921 0.375324 0)
(-3.25692 0.438639 0)
(-3.24066 0.283753 0)
(-3.31703 0.348898 0)
(-3.27705 0.181763 0)
(-3.36392 0.246937 0)
(-3.29726 0.0725236 0)
(-3.39634 0.136061 0)
(-3.30151 -0.0408475 0)
(-3.41388 0.0197829 0)
(-3.29232 -0.155108 0)
(-3.41648 -0.0982279 0)
(-3.27433 -0.266451 0)
(-3.40926 -0.214117 0)
(-3.25297 -0.3708 0)
(-3.39732 -0.323626 0)
(-3.23368 -0.464469 0)
(-3.3868 -0.422742 0)
(-3.21972 -0.53997 0)
(-3.38394 -0.508665 0)
(-3.38725 -0.570486 0)
(-0.341098 -0.34213 0)
(-0.250009 -0.236386 0)
(-0.668903 -0.188461 0)
(-0.538999 -0.0919567 0)
(-0.960559 -0.052237 0)
(-0.864485 0.0251419 0)
(-1.21979 0.0596625 0)
(-1.14334 0.124621 0)
(-1.45103 0.154593 0)
(-1.39254 0.211099 0)
(-1.65969 0.240315 0)
(-1.6161 0.289553 0)
(-1.85154 0.3201 0)
(-1.81908 0.362671 0)
(-2.02844 0.39438 0)
(-2.00418 0.431302 0)
(-2.19211 0.462793 0)
(-2.1736 0.495445 0)
(-2.344 0.524406 0)
(-2.32927 0.554336 0)
(-2.48529 0.577756 0)
(-2.47288 0.606619 0)
(-2.61699 0.621016 0)
(-2.6059 0.650496 0)
(-2.73996 0.652187 0)
(-2.7296 0.683909 0)
(-2.85489 0.669293 0)
(-2.84508 0.704727 0)
(-2.96226 0.670554 0)
(-2.95323 0.710923 0)
(-3.0623 0.654559 0)
(-3.05468 0.700744 0)
(-3.15498 0.620432 0)
(-3.14975 0.672882 0)
(-3.23991 0.567992 0)
(-3.23842 0.62664 0)
(-3.31633 0.497863 0)
(-3.32022 0.562089 0)
(-3.38309 0.411538 0)
(-3.3942 0.480165 0)
(-3.43883 0.311367 0)
(-3.45902 0.382743 0)
(-3.48211 0.200459 0)
(-3.51317 0.2726 0)
(-3.51191 0.0825131 0)
(-3.55545 0.153311 0)
(-3.52849 -0.038355 0)
(-3.58536 0.0291559 0)
(-3.53437 -0.157849 0)
(-3.60265 -0.0949861 0)
(-3.53394 -0.271687 0)
(-3.61177 -0.214345 0)
(-3.53187 -0.375857 0)
(-3.61853 -0.324717 0)
(-3.53258 -0.467185 0)
(-3.62882 -0.422377 0)
(-3.53974 -0.539039 0)
(-3.64595 -0.505074 0)
(-3.66009 -0.562489 0)
(-0.375731 0.0224329 0)
(-0.25914 0.13162 0)
(-0.725154 0.1313 0)
(-0.568145 0.242199 0)
(-1.03385 0.212741 0)
(-0.907208 0.313378 0)
(-1.30774 0.285357 0)
(-1.19835 0.374321 0)
(-1.55259 0.352783 0)
(-1.45795 0.429041 0)
(-1.77218 0.416288 0)
(-1.68879 0.480403 0)
(-1.9697 0.476694 0)
(-1.89462 0.530281 0)
(-2.14811 0.534164 0)
(-2.07884 0.579125 0)
(-2.31004 0.588045 0)
(-2.24453 0.626441 0)
(-2.45777 0.637064 0)
(-2.39447 0.671026 0)
(-2.5933 0.679472 0)
(-2.53107 0.711141 0)
(-2.71838 0.713205 0)
(-2.65647 0.744678 0)
(-2.83454 0.736049 0)
(-2.77258 0.769313 0)
(-2.9431 0.745807 0)
(-2.88109 0.782659 0)
(-3.04512 0.740469 0)
(-2.98341 0.782426 0)
(-3.14133 0.718377 0)
(-3.08066 0.766585 0)