/*--------------------------------*- C++ -*----------------------------------*\
  =========                 |
  \\      /  F ield         | OpenFOAM: The Open Source CFD Toolbox
   \\    /   O peration     | Website:  https://openfoam.org
    \\  /    A nd           | Version:  7
     \\/     M anipulation  |
\*---------------------------------------------------------------------------*/
FoamFile
{
    version     2.0;
    format      ascii;
    class       surfaceScalarField;
    location    "7.98";
    object      phi;
}
// * * * * * * * * * * * * * * * * * * * * * * * * * * * * * * * * * * * * * //

dimensions      [1 0 -1 0 0 0 0];

internalField   nonuniform List<scalar> 
23692
(
1.19391e-05
-3.04596e-07
1.24578e-05
-5.18541e-07
1.31545e-05
-6.96424e-07
1.40009e-05
-8.45999e-07
1.49769e-05
-9.75481e-07
1.60683e-05
-1.0908e-06
1.72654e-05
-1.1964e-06
1.85617e-05
-1.29556e-06
1.99529e-05
-1.39037e-06
2.14355e-05
-1.48168e-06
2.30058e-05
-1.56926e-06
2.46587e-05
-1.65193e-06
2.63877e-05
-1.72789e-06
2.81839e-05
-1.79504e-06
3.00364e-05
-1.85136e-06
3.19327e-05
-1.89515e-06
3.38591e-05
-1.92522e-06
3.58013e-05
-1.94098e-06
3.77449e-05
-1.9424e-06
3.96762e-05
-1.93002e-06
4.15822e-05
-1.90476e-06
4.34513e-05
-1.86785e-06
4.52732e-05
-1.82073e-06
4.70394e-05
-1.7649e-06
4.87425e-05
-1.70188e-06
5.03768e-05
-1.63313e-06
5.19381e-05
-1.56002e-06
5.34231e-05
-1.48378e-06
5.48298e-05
-1.40553e-06
5.61572e-05
-1.32621e-06
5.7405e-05
-1.24666e-06
5.85737e-05
-1.16757e-06
5.96644e-05
-1.08952e-06
6.06785e-05
-1.01299e-06
6.16179e-05
-9.38336e-07
6.24848e-05
-8.6587e-07
6.32817e-05
-7.95813e-07
6.40111e-05
-7.28329e-07
6.46756e-05
-6.63532e-07
6.52781e-05
-6.01494e-07
6.58213e-05
-5.42248e-07
6.63081e-05
-4.85801e-07
6.67411e-05
-4.32132e-07
6.71232e-05
-3.81201e-07
6.7457e-05
-3.3295e-07
6.77452e-05
-2.87305e-07
6.79901e-05
-2.4418e-07
6.81944e-05
-2.03478e-07
6.83602e-05
-1.65089e-07
6.84899e-05
-1.28895e-07
6.85853e-05
-9.4765e-08
6.86486e-05
-6.25599e-08
6.86813e-05
-3.21277e-08
6.86852e-05
-3.30609e-09
6.86617e-05
2.40492e-08
6.86122e-05
5.00818e-08
6.85378e-05
7.49616e-08
6.84394e-05
9.88875e-08
6.83177e-05
1.2208e-07
6.81734e-05
1.44783e-07
6.80065e-05
1.67268e-07
6.7817e-05
1.89842e-07
6.76045e-05
2.12852e-07
6.73681e-05
2.36705e-07
6.71065e-05
2.61875e-07
6.68178e-05
2.88932e-07
6.64995e-05
3.18573e-07
6.6148e-05
3.51668e-07
6.57588e-05
3.89338e-07
6.5326e-05
4.33057e-07
6.48413e-05
4.84842e-07
6.42938e-05
5.47536e-07
6.36686e-05
6.25316e-07
6.29442e-05
7.24578e-07
6.20887e-05
8.55574e-07
6.10532e-05
1.03555e-06
5.97582e-05
1.295e-06
5.80672e-05
1.69115e-06
5.57244e-05
2.34283e-06
5.21763e-05
3.54814e-06
6.61537e-06
4.5561e-05
1.27643e-05
-6.20616e-07
1.33154e-05
-1.06947e-06
1.40578e-05
-1.43854e-06
1.49606e-05
-1.74832e-06
1.60023e-05
-2.01668e-06
1.71678e-05
-2.25566e-06
1.84467e-05
-2.47451e-06
1.9832e-05
-2.68008e-06
2.13192e-05
-2.87669e-06
2.29047e-05
-3.06618e-06
2.45845e-05
-3.24803e-06
2.63535e-05
-3.41981e-06
2.82045e-05
-3.57776e-06
3.01282e-05
-3.71752e-06
3.21129e-05
-3.83485e-06
3.41452e-05
-3.92619e-06
3.62103e-05
-3.98904e-06
3.82928e-05
-4.02215e-06
4.03772e-05
-4.02548e-06
4.24486e-05
-4.0001e-06
4.44931e-05
-3.94794e-06
4.64982e-05
-3.87157e-06
4.84527e-05
-3.77396e-06
5.03474e-05
-3.65825e-06
5.21744e-05
-3.52759e-06
5.39276e-05
-3.38504e-06
5.56023e-05
-3.23342e-06
5.71952e-05
-3.07531e-06
5.87039e-05
-2.91301e-06
6.01275e-05
-2.74851e-06
6.14656e-05
-2.58353e-06
6.27188e-05
-2.41952e-06
6.38881e-05
-2.25766e-06
6.49753e-05
-2.09895e-06
6.59823e-05
-1.94415e-06
6.69114e-05
-1.79389e-06
6.77654e-05
-1.64862e-06
6.85468e-05
-1.50869e-06
6.92587e-05
-1.37433e-06
6.9904e-05
-1.24569e-06
7.04856e-05
-1.12283e-06
7.10066e-05
-1.00578e-06
7.14699e-05
-8.94476e-07
7.18785e-05
-7.88842e-07
7.22352e-05
-6.88755e-07
7.25429e-05
-5.94061e-07
7.28041e-05
-5.0458e-07
7.30216e-05
-4.20108e-07
7.31977e-05
-3.40418e-07
7.33349e-05
-2.65263e-07
7.34352e-05
-1.94373e-07
7.35009e-05
-1.27457e-07
7.35336e-05
-6.42005e-08
7.35352e-05
-4.2707e-09
7.35073e-05
5.26268e-08
7.34511e-05
1.068e-07
7.3368e-05
1.586e-07
7.3259e-05
2.08437e-07
7.31248e-05
2.56763e-07
7.2966e-05
3.04077e-07
7.27827e-05
3.50933e-07
7.2575e-05
3.97952e-07
7.23423e-05
4.45844e-07
7.2084e-05
4.95423e-07
7.17985e-05
5.47644e-07
7.14841e-05
6.0364e-07
7.11381e-05
6.64789e-07
7.07572e-05
7.32798e-07
7.03369e-05
8.09832e-07
6.98714e-05
8.9871e-07
6.93532e-05
1.0032e-06
6.87723e-05
1.12851e-06
6.81157e-05
1.28203e-06
6.73658e-05
1.47464e-06
6.64986e-05
1.72284e-06
6.54818e-05
2.05246e-06
6.42718e-05
2.50507e-06
6.28139e-05
3.14904e-06
6.10552e-05
4.10161e-06
5.90346e-05
5.56876e-06
7.83354e-06
5.78165e-05
1.36427e-05
-9.44612e-07
1.42239e-05
-1.65041e-06
1.50104e-05
-2.22476e-06
1.59697e-05
-2.70711e-06
1.70784e-05
-3.12486e-06
1.83203e-05
-3.49683e-06
1.96841e-05
-3.83751e-06
2.11626e-05
-4.15767e-06
2.27509e-05
-4.46411e-06
2.44456e-05
-4.75973e-06
2.62424e-05
-5.04377e-06
2.81362e-05
-5.31241e-06
3.01194e-05
-5.55973e-06
3.2182e-05
-5.77887e-06
3.43116e-05
-5.96312e-06
3.64936e-05
-6.10685e-06
3.8712e-05
-6.20608e-06
4.09501e-05
-6.25881e-06
4.31909e-05
-6.26494e-06
4.54184e-05
-6.22614e-06
4.76173e-05
-6.14542e-06
4.97739e-05
-6.02681e-06
5.18764e-05
-5.87496e-06
5.39144e-05
-5.69481e-06
5.58795e-05
-5.4913e-06
5.7765e-05
-5.26919e-06
5.95659e-05
-5.03293e-06
6.12785e-05
-4.78655e-06
6.29005e-05
-4.53363e-06
6.44307e-05
-4.27731e-06
6.58687e-05
-4.02025e-06
6.72152e-05
-3.7647e-06
6.84714e-05
-3.51255e-06
6.9639e-05
-3.2653e-06
7.07203e-05
-3.02417e-06
7.17178e-05
-2.79011e-06
7.26342e-05
-2.56385e-06
7.34726e-05
-2.34591e-06
7.42361e-05
-2.13664e-06
7.49278e-05
-1.93628e-06
7.5551e-05
-1.74494e-06
7.61089e-05
-1.56261e-06
7.66047e-05
-1.38923e-06
7.70416e-05
-1.22466e-06
7.74225e-05
-1.06871e-06
7.77505e-05
-9.21135e-07
7.80285e-05
-7.81653e-07
7.82593e-05
-6.49943e-07
7.84454e-05
-5.25651e-07
7.85893e-05
-4.08388e-07
7.86935e-05
-2.97735e-07
7.876e-05
-1.93236e-07
7.87909e-05
-9.44036e-08
7.87881e-05
-7.28679e-10
7.87532e-05
8.82351e-08
7.86876e-05
1.72988e-07
7.85927e-05
2.54073e-07
7.84696e-05
3.32123e-07
7.8319e-05
4.07829e-07
7.81416e-05
4.8195e-07
7.79377e-05
5.55326e-07
7.77072e-05
6.28893e-07
7.74497e-05
7.03711e-07
7.71645e-05
7.8099e-07
7.68503e-05
8.62131e-07
7.65054e-05
9.48786e-07
7.61276e-05
1.04293e-06
7.57136e-05
1.14698e-06
7.52597e-05
1.26394e-06
7.4761e-05
1.39762e-06
7.42114e-05
1.55297e-06
7.36035e-05
1.73657e-06
7.29283e-05
1.95733e-06
7.21755e-05
2.22752e-06
7.13341e-05
2.56436e-06
7.03946e-05
2.99208e-06
6.93551e-05
3.54464e-06
6.82358e-05
4.2684e-06
6.71146e-05
5.22283e-06
6.6216e-05
6.4674e-06
7.9882e-06
6.60614e-05
1.45798e-05
-1.27457e-06
1.51883e-05
-2.25866e-06
1.60175e-05
-3.05366e-06
1.7033e-05
-3.72215e-06
1.82098e-05
-4.301e-06
1.95301e-05
-4.81638e-06
2.0982e-05
-5.28856e-06
2.25579e-05
-5.73263e-06
2.4253e-05
-6.15817e-06
2.60637e-05
-6.56932e-06
2.79862e-05
-6.96504e-06
3.00151e-05
-7.34001e-06
3.21425e-05
-7.68587e-06
3.43579e-05
-7.99291e-06
3.66479e-05
-8.25163e-06
3.89964e-05
-8.45398e-06
4.13861e-05
-8.5943e-06
4.37985e-05
-8.66969e-06
4.6215e-05
-8.67998e-06
4.86179e-05
-8.62747e-06
5.09904e-05
-8.51638e-06
5.33174e-05
-8.35236e-06
5.5586e-05
-8.14195e-06
5.77847e-05
-7.89204e-06
5.99045e-05
-7.60959e-06
6.19381e-05
-7.30125e-06
6.38799e-05
-6.97324e-06
6.5726e-05
-6.63119e-06
6.74739e-05
-6.28009e-06
6.91224e-05
-5.92431e-06
7.06711e-05
-5.56756e-06
7.21208e-05
-5.21296e-06
7.34728e-05
-4.86312e-06
7.4729e-05
-4.52013e-06
7.58918e-05
-4.18568e-06
7.69641e-05
-3.86108e-06
7.79489e-05
-3.54731e-06
7.88493e-05
-3.24511e-06
7.96689e-05
-2.95496e-06
8.0411e-05
-2.67716e-06
8.10791e-05
-2.41185e-06
8.16767e-05
-2.15904e-06
8.22072e-05
-1.91862e-06
8.2674e-05
-1.6904e-06
8.30805e-05
-1.47409e-06
8.34297e-05
-1.26936e-06
8.37249e-05
-1.07581e-06
8.39689e-05
-8.92994e-07
8.41646e-05
-7.2041e-07
8.43146e-05
-5.57521e-07
8.44215e-05
-4.03746e-07
8.44875e-05
-2.58455e-07
8.45149e-05
-1.2097e-07
8.45055e-05
9.3845e-09
8.44612e-05
1.33232e-07
8.43836e-05
2.51266e-07
8.4274e-05
3.64246e-07
8.41337e-05
4.73031e-07
8.39635e-05
5.78554e-07
8.37642e-05
6.81833e-07
8.3536e-05
7.83982e-07
8.32791e-05
8.86238e-07
8.29933e-05
9.89981e-07
8.26778e-05
1.09677e-06
8.23319e-05
1.20839e-06
8.19541e-05
1.32692e-06
8.15426e-05
1.45477e-06
8.1095e-05
1.59484e-06
8.06085e-05
1.75065e-06
8.00798e-05
1.92649e-06
7.95052e-05
2.12772e-06
7.88809e-05
2.36108e-06
7.82032e-05
2.63514e-06
7.74701e-05
2.96077e-06
7.66829e-05
3.35167e-06
7.58504e-05
3.82467e-06
7.49958e-05
4.39933e-06
7.41684e-05
5.09585e-06
7.3462e-05
5.92927e-06
7.30339e-05
6.8956e-06
7.93947e-06
7.30827e-05
1.55807e-05
-1.60952e-06
1.62144e-05
-2.89218e-06
1.70852e-05
-3.924e-06
1.81567e-05
-4.79319e-06
1.94024e-05
-5.54603e-06
2.08033e-05
-6.21642e-06
2.23466e-05
-6.831e-06
2.40247e-05
-7.40969e-06
2.58329e-05
-7.96522e-06
2.77679e-05
-8.50316e-06
2.98264e-05
-9.02222e-06
3.20031e-05
-9.51532e-06
3.42899e-05
-9.97131e-06
3.66756e-05
-1.03771e-05
3.91455e-05
-1.072e-05
4.1682e-05
-1.09889e-05
4.42656e-05
-1.11764e-05
4.68759e-05
-1.12783e-05
4.9492e-05
-1.12945e-05
5.20941e-05
-1.12279e-05
5.46636e-05
-1.10842e-05
5.71837e-05
-1.08709e-05
5.964e-05
-1.05966e-05
6.20201e-05
-1.02705e-05
6.43139e-05
-9.90177e-06
6.65135e-05
-9.49923e-06
6.86129e-05
-9.07103e-06
7.06079e-05
-8.6246e-06
7.24958e-05
-8.16649e-06
7.42755e-05
-7.70238e-06
7.59466e-05
-7.23714e-06
7.751e-05
-6.77486e-06
7.89672e-05
-6.31888e-06
8.03205e-05
-5.87196e-06
8.15726e-05
-5.43627e-06
8.27264e-05
-5.01349e-06
8.37854e-05
-4.60491e-06
8.47531e-05
-4.21144e-06
8.56332e-05
-3.8337e-06
8.64294e-05
-3.47207e-06
8.71455e-05
-3.12672e-06
8.77854e-05
-2.79764e-06
8.83526e-05
-2.48467e-06
8.88509e-05
-2.18755e-06
8.92839e-05
-1.90591e-06
8.96549e-05
-1.63929e-06
8.99673e-05
-1.38717e-06
9.02243e-05
-1.14896e-06
9.04289e-05
-9.2401e-07
9.0584e-05
-7.11616e-07
9.06922e-05
-5.11021e-07
9.0756e-05
-3.21411e-07
9.07778e-05
-1.41911e-07
9.07596e-05
2.83252e-08
9.07035e-05
1.9011e-07
9.06112e-05
3.44337e-07
9.04841e-05
4.92e-07
9.03236e-05
6.34185e-07
9.01306e-05
7.72061e-07
8.99061e-05
9.06891e-07
8.96506e-05
1.04004e-06
8.93643e-05
1.17302e-06
8.90473e-05
1.30746e-06
8.86992e-05
1.44522e-06
8.83196e-05
1.58836e-06
8.79077e-05
1.73921e-06
8.74623e-05
1.90046e-06
8.69822e-05
2.0752e-06
8.6466e-05
2.26704e-06
8.59125e-05
2.48022e-06
8.53207e-05
2.71972e-06
8.46906e-05
2.9914e-06
8.40238e-05
3.30212e-06
8.3325e-05
3.65965e-06
8.26043e-05
4.07254e-06
8.18797e-05
4.54932e-06
8.1182e-05
5.0971e-06
8.05592e-05
5.71873e-06
8.00804e-05
6.4082e-06
7.98326e-05
7.14345e-06
7.87518e-06
7.9897e-05
1.66509e-05
-1.94943e-06
1.73086e-05
-3.54969e-06
1.82201e-05
-4.83503e-06
1.93477e-05
-5.92029e-06
2.06635e-05
-6.86113e-06
2.21474e-05
-7.69939e-06
2.37861e-05
-8.46872e-06
2.55719e-05
-9.19444e-06
2.75008e-05
-9.89295e-06
2.95705e-05
-1.05715e-05
3.17782e-05
-1.12285e-05
3.4119e-05
-1.18548e-05
3.6585e-05
-1.24357e-05
3.91637e-05
-1.29543e-05
4.1839e-05
-1.33936e-05
4.4591e-05
-1.37393e-05
4.73977e-05
-1.39813e-05
5.02355e-05
-1.41145e-05
5.30811e-05
-1.41383e-05
5.59117e-05
-1.40568e-05
5.87065e-05
-1.38773e-05
6.14468e-05
-1.36094e-05
6.41163e-05
-1.32644e-05
6.67015e-05
-1.28539e-05
6.91913e-05
-1.23899e-05
7.15772e-05
-1.18833e-05
7.38526e-05
-1.13448e-05
7.60133e-05
-1.07836e-05
7.80565e-05
-1.0208e-05
7.99809e-05
-9.62516e-06
8.17867e-05
-9.04123e-06
8.34747e-05
-8.46128e-06
8.5047e-05
-7.88952e-06
8.65059e-05
-7.32934e-06
8.78546e-05
-6.78343e-06
8.90965e-05
-6.25389e-06
9.02354e-05
-5.74226e-06
9.12751e-05
-5.24969e-06
9.22197e-05
-4.77691e-06
9.30734e-05
-4.32435e-06
9.38402e-05
-3.89222e-06
9.45244e-05
-3.48046e-06
9.51299e-05
-3.08887e-06
9.56607e-05
-2.71709e-06
9.61206e-05
-2.36464e-06
9.65134e-05
-2.03094e-06
9.68427e-05
-1.71532e-06
9.71119e-05
-1.41703e-06
9.73242e-05
-1.13526e-06
9.74827e-05
-8.69132e-07
9.75904e-05
-6.17701e-07
9.76499e-05
-3.79957e-07
9.76637e-05
-1.54826e-07
9.76342e-05
5.87193e-08
9.75634e-05
2.61679e-07
9.74533e-05
4.55171e-07
9.73056e-05
6.40423e-07
9.71218e-05
8.18743e-07
9.6903e-05
9.91524e-07
9.66502e-05
1.16025e-06
9.63643e-05
1.3265e-06
9.60458e-05
1.49199e-06
9.56952e-05
1.65857e-06
9.53126e-05
1.82827e-06
9.48981e-05
2.00329e-06
9.44516e-05
2.18609e-06
9.3973e-05
2.37937e-06
9.34624e-05
2.58612e-06
9.292e-05
2.80968e-06
9.23467e-05
3.05375e-06
9.17443e-05
3.32235e-06
9.11161e-05
3.61983e-06
9.04677e-05
3.95068e-06
8.98082e-05
4.31926e-06
8.91516e-05
4.72923e-06
8.85184e-05
5.18271e-06
8.79367e-05
5.67887e-06
8.74435e-05
6.2121e-06
8.70821e-05
6.76963e-06
8.68968e-05
7.32887e-06
7.85549e-06
8.69166e-05
1.77958e-05
-2.29505e-06
1.84772e-05
-4.2308e-06
1.94294e-05
-5.78679e-06
2.06138e-05
-7.10411e-06
2.20015e-05
-8.24804e-06
2.35715e-05
-9.2684e-06
2.53103e-05
-1.02065e-05
2.7211e-05
-1.10939e-05
2.92706e-05
-1.19512e-05
3.14882e-05
-1.27877e-05
3.38625e-05
-1.36013e-05
3.63894e-05
-1.43801e-05
3.90606e-05
-1.51053e-05
4.18626e-05
-1.57546e-05
4.47767e-05
-1.63059e-05
4.77799e-05
-1.67408e-05
5.08466e-05
-1.70461e-05
5.39493e-05
-1.72153e-05
5.70609e-05
-1.72481e-05
6.01555e-05
-1.71495e-05
6.32092e-05
-1.69291e-05
6.6201e-05
-1.65993e-05
6.91128e-05
-1.61743e-05
7.19298e-05
-1.5669e-05
7.46398e-05
-1.5098e-05
7.72338e-05
-1.44754e-05
7.97049e-05
-1.38141e-05
8.20488e-05
-1.31256e-05
8.42628e-05
-1.24201e-05
8.63459e-05
-1.17065e-05
8.82984e-05
-1.0992e-05
9.01217e-05
-1.02829e-05
9.18183e-05
-9.58431e-06
9.33909e-05
-8.9003e-06
9.48432e-05
-8.23409e-06
9.61791e-05
-7.58815e-06
9.74028e-05
-6.96435e-06
9.85187e-05
-6.36398e-06
9.95312e-05
-5.78791e-06
0.000100445
-5.23662e-06
0.000101265
-4.7103e-06
0.000101994
-4.20886e-06
0.000102639
-3.73201e-06
0.000103202
-3.27929e-06
0.000103689
-2.85008e-06
0.000104103
-2.44366e-06
0.000104448
-2.0592e-06
0.000104728
-1.69577e-06
0.000104946
-1.35239e-06
0.000105106
-1.02798e-06
0.000105211
-7.21403e-07
0.000105264
-4.31459e-07
0.000105267
-1.56867e-07
0.000105223
1.03591e-07
0.000105134
3.51109e-07
0.000105003
5.87041e-07
0.000104831
8.12844e-07
0.000104621
1.03004e-06
0.000104373
1.24022e-06
0.000104089
1.44504e-06
0.00010377
1.64627e-06
0.000103416
1.84576e-06
0.00010303
2.04548e-06
0.000102611
2.24753e-06
0.000102161
2.45414e-06
0.00010168
2.66768e-06
0.000101169
2.89066e-06
0.000100629
3.12576e-06
0.000100064
3.37574e-06
9.94742e-05
3.64345e-06
9.8865e-05
3.93169e-06
9.8242e-05
4.2431e-06
9.7613e-05
4.57988e-06
9.69889e-05
4.94346e-06
9.63843e-05
5.33398e-06
9.58176e-05
5.74959e-06
9.53109e-05
6.18569e-06
9.48891e-05
6.634e-06
9.45771e-05
7.08178e-06
9.43945e-05
7.51151e-06
7.90189e-06
9.43482e-05
1.90213e-05
-2.64771e-06
1.97268e-05
-4.93604e-06
2.07207e-05
-6.78019e-06
2.19635e-05
-8.34622e-06
2.34256e-05
-9.70938e-06
2.50859e-05
-1.09276e-05
2.69312e-05
-1.20507e-05
2.89559e-05
-1.31174e-05
3.11593e-05
-1.41532e-05
3.35429e-05
-1.51698e-05
3.61075e-05
-1.61643e-05
3.88502e-05
-1.71211e-05
4.17619e-05
-1.80153e-05
4.48272e-05
-1.8818e-05
4.80237e-05
-1.95005e-05
5.13238e-05
-2.0039e-05
5.46967e-05
-2.0417e-05
5.81098e-05
-2.06265e-05
6.15313e-05
-2.06676e-05
6.49311e-05
-2.05472e-05
6.82819e-05
-2.02779e-05
7.15602e-05
-1.98756e-05
7.4746e-05
-1.93581e-05
7.78231e-05
-1.8744e-05
8.07786e-05
-1.80515e-05
8.3603e-05
-1.72978e-05
8.62895e-05
-1.64986e-05
8.88337e-05
-1.56679e-05
9.12335e-05
-1.4818e-05
9.34882e-05
-1.39592e-05
9.55987e-05
-1.31006e-05
9.7567e-05
-1.22493e-05
9.9396e-05
-1.14115e-05
0.000101089
-1.05918e-05
0.000102651
-9.79405e-06
0.000104086
-9.0211e-06
0.000105398
-8.27505e-06
0.000106593
-7.55739e-06
0.000107676
-6.86906e-06
0.000108652
-6.21056e-06
0.000109525
-5.58205e-06
0.000110301
-4.98337e-06
0.000110985
-4.41412e-06
0.00011158
-3.87371e-06
0.000112093
-3.36136e-06
0.000112527
-2.87619e-06
0.000112886
-2.41717e-06
0.000113175
-1.98321e-06
0.000113397
-1.57311e-06
0.000113556
-1.1856e-06
0.000113655
-8.19338e-07
0.000113697
-4.72924e-07
0.000113686
-1.4488e-07
0.000113625
1.66216e-07
0.000113515
4.61765e-07
0.00011336
7.43362e-07
0.000113161
1.01268e-06
0.00011292
1.27144e-06
0.00011264
1.52139e-06
0.000112321
1.76433e-06
0.000111966
2.00214e-06
0.000111575
2.23675e-06
0.000111151
2.47016e-06
0.000110695
2.70443e-06
0.000110208
2.94169e-06
0.000109692
3.18409e-06
0.000109149
3.43382e-06
0.000108582
3.69303e-06
0.000107995
3.96378e-06
0.00010739
4.24799e-06
0.000106775
4.54723e-06
0.000106156
4.86262e-06
0.000105541
5.19457e-06
0.000104942
5.54248e-06
0.000104372
5.90444e-06
0.000103845
6.27682e-06
0.000103377
6.65396e-06
0.000102983
7.02794e-06
0.000102676
7.38857e-06
0.000102464
7.72381e-06
8.02126e-06
0.000102345
2.03331e-05
-3.00922e-06
2.10642e-05
-5.66677e-06
2.21017e-05
-7.81713e-06
2.34054e-05
-9.64923e-06
2.49459e-05
-1.1249e-05
2.6702e-05
-1.26828e-05
2.86624e-05
-1.40098e-05
3.08237e-05
-1.52774e-05
3.3189e-05
-1.6517e-05
3.57637e-05
-1.77428e-05
3.85513e-05
-1.89502e-05
4.155e-05
-2.01179e-05
4.47496e-05
-2.12131e-05
4.81308e-05
-2.21972e-05
5.16655e-05
-2.30332e-05
5.53195e-05
-2.36909e-05
5.90546e-05
-2.415e-05
6.28317e-05
-2.44015e-05
6.6613e-05
-2.44467e-05
7.03636e-05
-2.42957e-05
7.40529e-05
-2.3965e-05
7.76543e-05
-2.34749e-05
8.11464e-05
-2.28479e-05
8.45117e-05
-2.21071e-05
8.77371e-05
-2.12748e-05
9.0813e-05
-2.03716e-05
9.37329e-05
-1.94164e-05
9.6493e-05
-1.84259e-05
9.90916e-05
-1.74145e-05
0.000101529
-1.63945e-05
0.000103807
-1.53763e-05
0.000105928
-1.43683e-05
0.000107895
-1.33773e-05
0.000109715
-1.2409e-05
0.00011139
-1.14674e-05
0.000112927
-1.05559e-05
0.00011433
-9.6768e-06
0.000115606
-8.83163e-06
0.00011676
-8.02144e-06
0.000117798
-7.24671e-06
0.000118725
-6.50751e-06
0.000119547
-5.80358e-06
0.000120269
-5.13438e-06
0.000120896
-4.49916e-06
0.000121433
-3.89696e-06
0.000121885
-3.32669e-06
0.000122257
-2.78715e-06
0.000122552
-2.277e-06
0.000122775
-1.79486e-06
0.00012293
-1.33923e-06
0.00012302
-9.08574e-07
0.00012305
-5.01284e-07
0.000123022
-1.15706e-07
0.000122939
2.49809e-07
0.000122805
5.96887e-07
0.000122622
9.2737e-07
0.000122392
1.24313e-06
0.000122119
1.54602e-06
0.000121803
1.83794e-06
0.000121447
2.12078e-06
0.000121054
2.39647e-06
0.000120624
2.66695e-06
0.000120161
2.93418e-06
0.000119666
3.2001e-06
0.000119141
3.46662e-06
0.00011859
3.7356e-06
0.000118016
4.0088e-06
0.000117421
4.28782e-06
0.000116811
4.57402e-06
0.000116191
4.86844e-06
0.000115567
5.17165e-06
0.000114946
5.48365e-06
0.000114337
5.80369e-06
0.00011375
6.13009e-06
0.000113195
6.46009e-06
0.000112682
6.78973e-06
0.000112222
7.11378e-06
0.000111824
7.42588e-06
0.000111494
7.71874e-06
0.000111234
7.98469e-06
8.21691e-06
0.000111038
2.17375e-05
-3.3817e-06
2.24963e-05
-6.42525e-06
2.35802e-05
-8.90052e-06
2.49488e-05
-1.1017e-05
2.65729e-05
-1.28721e-05
2.84328e-05
-1.45416e-05
3.05199e-05
-1.60956e-05
3.28355e-05
-1.75915e-05
3.53882e-05
-1.90681e-05
3.81888e-05
-2.05417e-05
4.12448e-05
-2.20042e-05
4.45545e-05
-2.34257e-05
4.81046e-05
-2.47611e-05
5.18692e-05
-2.59596e-05
5.58114e-05
-2.69732e-05
5.98872e-05
-2.77645e-05
6.40492e-05
-2.83097e-05
6.82499e-05
-2.85999e-05
7.24448e-05
-2.86393e-05
7.6594e-05
-2.84425e-05
8.06629e-05
-2.80316e-05
8.46231e-05
-2.74327e-05
8.84517e-05
-2.66741e-05
9.21308e-05
-2.57839e-05
9.56474e-05
-2.4789e-05
9.89925e-05
-2.37143e-05
0.00010216
-2.25819e-05
0.000105148
-2.14113e-05
0.000107955
-2.02193e-05
0.000110583
-1.902e-05
0.000113034
-1.78251e-05
0.000115312
-1.66444e-05
0.000117423
-1.54855e-05
0.00011937
-1.43544e-05
0.000121161
-1.3256e-05
0.000122801
-1.21938e-05
0.000124296
-1.11701e-05
0.000125653
-1.01867e-05
0.000126878
-9.24464e-06
0.000127977
-8.34427e-06
0.000128957
-7.48555e-06
0.000129824
-6.66809e-06
0.000130582
-5.89115e-06
0.000131238
-5.15379e-06
0.000131798
-4.45483e-06
0.000132266
-3.79297e-06
0.000132647
-3.16676e-06
0.000132946
-2.57467e-06
0.000133168
-2.01505e-06
0.000133316
-1.48621e-06
0.000133395
-9.86381e-07
0.000133409
-5.13764e-07
0.000133361
-6.65598e-08
0.000133255
3.57118e-07
0.000133094
7.59179e-07
0.00013288
1.14169e-06
0.000132618
1.50668e-06
0.000132309
1.85613e-06
0.000131955
2.19201e-06
0.000131561
2.51627e-06
0.000131127
2.83085e-06
0.000130657
3.13765e-06
0.000130153
3.4385e-06
0.000129619
3.73517e-06
0.000129057
4.02934e-06
0.00012847
4.32251e-06
0.000127864
4.61602e-06
0.000127241
4.91096e-06
0.000126607
5.20809e-06
0.000125968
5.50779e-06
0.00012533
5.80995e-06
0.0001247
6.11389e-06
0.000124086
6.41831e-06
0.000123495
6.72116e-06
0.000122936
7.01967e-06
0.000122416
7.31033e-06
0.000121941
7.589e-06
0.000121516
7.85106e-06
0.000121143
8.09171e-06
0.000120821
8.30639e-06
8.49163e-06
0.000120547
2.32408e-05
-3.76758e-06
2.40304e-05
-7.21453e-06
2.51648e-05
-1.00343e-05
2.66034e-05
-1.24547e-05
2.83184e-05
-1.45861e-05
3.02929e-05
-1.65149e-05
3.25233e-05
-1.83244e-05
3.50182e-05
-2.00848e-05
3.77947e-05
-2.18428e-05
4.08707e-05
-2.36159e-05
4.42573e-05
-2.53887e-05
4.79513e-05
-2.71176e-05
5.19325e-05
-2.87401e-05
5.61638e-05
-3.01886e-05
6.05956e-05
-3.14026e-05
6.51707e-05
-3.23371e-05
6.98299e-05
-3.29664e-05
7.45164e-05
-3.32838e-05
7.91785e-05
-3.32988e-05
8.37715e-05
-3.30329e-05
8.82579e-05
-3.25155e-05
9.26078e-05
-3.17801e-05
9.67979e-05
-3.08616e-05
0.000100811
-2.97943e-05
0.000104634
-2.86101e-05
0.000108261
-2.73382e-05
0.000111686
-2.60044e-05
0.000114908
-2.46311e-05
0.000117929
-2.32373e-05
0.00012075
-2.18389e-05
0.000123376
-2.04491e-05
0.000125813
-1.90786e-05
0.000128065
-1.77359e-05
0.000130141
-1.64276e-05
0.000132046
-1.51587e-05
0.000133787
-1.39331e-05
0.000135373
-1.27531e-05
0.000136809
-1.16206e-05
0.000138102
-1.05365e-05
0.000139261
-9.50092e-06
0.000140291
-8.51379e-06
0.0001412
-7.57444e-06
0.000141992
-6.68194e-06
0.000142675
-5.83509e-06
0.000143255
-5.03247e-06
0.000143736
-4.27252e-06
0.000144124
-3.55356e-06
0.000144425
-2.87378e-06
0.000144643
-2.23131e-06
0.000144782
-1.62423e-06
0.000144848
-1.05053e-06
0.000144844
-5.08191e-07
0.000144774
4.60802e-09
0.000144642
4.90003e-07
0.000144452
9.50392e-07
0.000144207
1.38794e-06
0.00014391
1.80477e-06
0.000143564
2.20297e-06
0.000143173
2.58456e-06
0.000142738
2.95151e-06
0.000142264
3.30572e-06
0.000141754
3.64901e-06
0.00014121
3.98308e-06
0.000140636
4.30951e-06
0.000140036
4.6297e-06
0.000139415
4.94486e-06
0.000138775
5.25597e-06
0.000138123
5.56371e-06
0.000137463
5.86842e-06
0.000136801
6.17007e-06
0.000136143
6.46818e-06
0.000135496
6.76184e-06
0.000134865
7.04961e-06
0.000134257
7.32959e-06
0.000133677
7.59945e-06
0.000133131
7.85648e-06
0.000132623
8.0977e-06
0.000132154
8.32008e-06
0.000131725
8.52072e-06
0.000131335
8.69711e-06
8.8478e-06
0.000130979
2.48497e-05
-4.16952e-06
2.56741e-05
-8.03854e-06
2.68642e-05
-1.12237e-05
2.83799e-05
-1.39695e-05
3.01958e-05
-1.64008e-05
3.23001e-05
-1.86178e-05
3.46976e-05
-2.07203e-05
3.74081e-05
-2.27936e-05
4.04604e-05
-2.48932e-05
4.38809e-05
-2.70343e-05
4.76823e-05
-2.91879e-05
5.18555e-05
-3.12885e-05
5.63673e-05
-3.32494e-05
6.11635e-05
-3.49824e-05
6.61766e-05
-3.64131e-05
7.1333e-05
-3.74909e-05
7.65603e-05
-3.8191e-05
8.17918e-05
-3.85127e-05
8.69696e-05
-3.84739e-05
9.2045e-05
-3.81056e-05
9.69791e-05
-3.74468e-05
0.000101742
-3.65398e-05
0.00010631
-3.54273e-05
0.000110669
-3.41501e-05
0.000114807
-3.27458e-05
0.00011872
-3.12481e-05
0.000122404
-2.96862e-05
0.000125861
-2.80855e-05
0.000129094
-2.64672e-05
0.000132106
-2.48489e-05
0.000134905
-2.3245e-05
0.000137496
-2.16672e-05
0.000139887
-2.01245e-05
0.000142086
-1.8624e-05
0.000144101
-1.7171e-05
0.000145939
-1.57693e-05
0.00014761
-1.44214e-05
0.000149121
-1.3129e-05
0.000150479
-1.18927e-05
0.000151693
-1.07126e-05
0.000152769
-9.58833e-06
0.000153716
-8.51897e-06
0.000154539
-7.5033e-06
0.000155246
-6.53984e-06
0.000155842
-5.62689e-06
0.000156334
-4.7626e-06
0.000156728
-3.94501e-06
0.000157028
-3.17205e-06
0.00015724
-2.44162e-06
0.000157368
-1.75153e-06
0.000157419
-1.0996e-06
0.000157396
-4.8362e-07
0.000157303
9.86e-08
0.000157145
6.49382e-07
0.000156926
1.17122e-06
0.000156648
1.66652e-06
0.000156317
2.13752e-06
0.000155935
2.58636e-06
0.000155505
3.01512e-06
0.000155032
3.42576e-06
0.000154518
3.82011e-06
0.000153968
4.19991e-06
0.000153385
4.56671e-06
0.000152774
4.92192e-06
0.000152137
5.26673e-06
0.000151481
5.60211e-06
0.000150809
5.92878e-06
0.000150126
6.24717e-06
0.000149437
6.55739e-06
0.000148749
6.85925e-06
0.000148065
7.15218e-06
0.000147392
7.4353e-06
0.000146735
7.70739e-06
0.000146098
7.96695e-06
0.000145485
8.21226e-06
0.0001449
8.44148e-06
0.000144346
8.6527e-06
0.000143822
8.84415e-06
0.000143329
9.01427e-06
0.000142864
9.16191e-06
9.28681e-06
0.000142425
2.65716e-05
-4.59047e-06
2.74357e-05
-8.90218e-06
2.8688e-05
-1.24753e-05
3.02902e-05
-1.55707e-05
3.2221e-05
-1.83304e-05
3.44771e-05
-2.08725e-05
3.70765e-05
-2.3318e-05
4.00556e-05
-2.57707e-05
4.34577e-05
-2.82932e-05
4.7317e-05
-3.08914e-05
5.16434e-05
-3.35118e-05
5.64134e-05
-3.6056e-05
6.15723e-05
-3.84056e-05
6.70417e-05
-4.0449e-05
7.27311e-05
-4.20998e-05
7.85488e-05
-4.33056e-05
8.44088e-05
-4.40481e-05
9.0236e-05
-4.43368e-05
9.59673e-05
-4.42022e-05
0.000101553
-4.36878e-05
0.000106953
-4.2844e-05
0.00011214
-4.17234e-05
0.000117092
-4.03772e-05
0.000121799
-3.88532e-05
0.00012625
-3.71947e-05
0.000130445
-3.54398e-05
0.000134383
-3.36213e-05
0.000138068
-3.17673e-05
0.000141504
-2.99009e-05
0.0001447
-2.80413e-05
0.000147661
-2.62039e-05
0.000150398
-2.44011e-05
0.000152919
-2.26425e-05
0.000155233
-2.09352e-05
0.000157349
-1.92846e-05
0.000159277
-1.76946e-05
0.000161025
-1.61675e-05
0.000162603
-1.47047e-05
0.00016402
-1.33067e-05
0.000165283
-1.19733e-05
0.0001664
-1.07036e-05
0.00016738
-9.49665e-06
0.00016823
-8.3507e-06
0.000168956
-7.264e-06
0.000169566
-6.23452e-06
0.000170065
-5.26011e-06
0.000170461
-4.33849e-06
0.000170758
-3.46734e-06
0.000170962
-2.64425e-06
0.000171079
-1.86683e-06
0.000171114
-1.13266e-06
0.000171071
-4.39357e-07
0.000170956
2.15604e-07
0.000170772
8.34786e-07
0.000170524
1.42083e-06
0.000170215
1.97624e-06
0.000169851
2.50339e-06
0.000169434
3.00446e-06
0.000168969
3.48155e-06
0.000168459
3.93661e-06
0.000167908
4.37143e-06
0.000167322
4.78765e-06
0.000166702
5.18674e-06
0.000166055
5.56994e-06
0.000165384
5.93834e-06
0.000164695
6.29274e-06
0.00016399
6.63373e-06
0.000163276
6.96165e-06
0.000162558
7.27656e-06
0.000161839
7.57828e-06
0.000161126
7.86639e-06
0.000160421
8.14021e-06
0.00015973
8.3989e-06
0.000159056
8.64149e-06
0.000158402
8.8669e-06
0.00015777
9.07405e-06
0.000157161
9.26195e-06
0.000156575
9.42975e-06
0.000156013
9.57683e-06
0.000155472
9.70291e-06
9.80847e-06
0.000154951
2.84142e-05
-5.03379e-06
2.9324e-05
-9.81148e-06
3.06472e-05
-1.37978e-05
3.23485e-05
-1.72709e-05
3.4414e-05
-2.03945e-05
3.68541e-05
-2.3311e-05
3.9707e-05
-2.6169e-05
4.30309e-05
-2.90925e-05
4.68859e-05
-3.21459e-05
5.13095e-05
-3.53125e-05
5.62982e-05
-3.84979e-05
6.18028e-05
-4.15578e-05
6.77361e-05
-4.43361e-05
7.39888e-05
-4.66986e-05
8.04446e-05
-4.85525e-05
8.69932e-05
-4.98512e-05
9.35373e-05
-5.0589e-05
9.99955e-05
-5.07918e-05
0.000106303
-5.05065e-05
0.00011241
-4.97918e-05
0.000118281
-4.87115e-05
0.00012389
-4.73291e-05
0.000129221
-4.57048e-05
0.000134264
-4.38936e-05
0.000139017
-4.19443e-05
0.00014348
-3.98993e-05
0.000147657
-3.77948e-05
0.000151554
-3.56609e-05
0.000155179
-3.35228e-05
0.000158541
-3.14007e-05
0.000161651
-2.93108e-05
0.000164519
-2.72659e-05
0.000167155
-2.52757e-05
0.00016957
-2.33477e-05
0.000171776
-2.1487e-05
0.000173781
-1.96973e-05
0.000175597
-1.79805e-05
0.000177233
-1.63379e-05
0.000178698
-1.47695e-05
0.000180002
-1.32747e-05
0.000181153
-1.18523e-05
0.00018216
-1.05009e-05
0.00018303
-9.21835e-06
0.000183771
-8.00255e-06
0.000184389
-6.85112e-06
0.000184893
-5.76153e-06
0.000185288
-4.73121e-06
0.00018558
-3.75749e-06
0.000185775
-2.83773e-06
0.00018588
-1.96927e-06
0.000185898
-1.14946e-06
0.000185836
-3.75719e-07
0.000185699
3.54781e-07
0.00018549
1.04485e-06
0.000185216
1.69728e-06
0.000184879
2.31468e-06
0.000184484
2.89949e-06
0.000184036
3.45396e-06
0.000183538
3.98021e-06
0.000182996
4.48017e-06
0.000182413
4.95562e-06
0.000181793
5.40815e-06
0.000181142
5.83916e-06
0.000180463
6.24984e-06
0.000179761
6.64121e-06
0.00017904
7.01404e-06
0.000178306
7.3689e-06
0.000177562
7.70617e-06
0.000176813
8.026e-06
0.000176064
8.32837e-06
0.000175318
8.6131e-06
0.000174579
8.87986e-06
0.00017385
9.12824e-06
0.000173134
9.35778e-06
0.000172433
9.56799e-06
0.000171749
9.75848e-06
0.000171083
9.92891e-06
0.000170434
1.00791e-05
0.000169802
1.02091e-05
0.000169186
1.03193e-05
1.04104e-05
0.000168585
3.03857e-05
-5.50334e-06
3.13487e-05
-1.0774e-05
3.27543e-05
-1.52026e-05
3.45724e-05
-1.90879e-05
3.68014e-05
-2.26219e-05
3.94734e-05
-2.59812e-05
4.26551e-05
-2.93487e-05
4.64325e-05
-3.28677e-05
5.08796e-05
-3.65905e-05
5.60258e-05
-4.0456e-05
6.18387e-05
-4.43079e-05
6.82277e-05
-4.79438e-05
7.50632e-05
-5.11685e-05
8.22002e-05
-5.38323e-05
8.94971e-05
-5.5846e-05
9.68278e-05
-5.71785e-05
0.000104087
-5.7845e-05
0.000111192
-5.78933e-05
0.00011808
-5.73902e-05
0.000124703
-5.6412e-05
0.000131032
-5.50367e-05
0.000137046
-5.33393e-05
0.000142734
-5.13893e-05
0.000148093
-4.92483e-05
0.000153122
-4.69704e-05
0.000157828
-4.4602e-05
0.000162219
-4.21818e-05
0.000166303
-3.9742e-05
0.000170093
-3.73091e-05
0.0001736
-3.4904e-05
0.000176836
-3.25436e-05
0.000179814
-3.02406e-05
0.000182546
-2.80048e-05
0.000185045
-2.58434e-05
0.000187323
-2.37613e-05
0.00018939
-2.17617e-05
0.000191259
-1.98462e-05
0.000192939
-1.80155e-05
0.000194442
-1.62692e-05
0.000195776
-1.46062e-05
0.000196951
-1.3025e-05
0.000197977
-1.15234e-05
0.00019886
-1.00991e-05
0.000199609
-8.74942e-06
0.000200232
-7.47162e-06
0.000200736
-6.26281e-06
0.000201127
-5.12004e-06
0.000201412
-4.04034e-06
0.000201597
-3.02076e-06
0.000201688
-2.05837e-06
0.000201691
-1.15031e-06
0.000201611
-2.93768e-07
0.000201453
5.14378e-07
0.000201223
1.27717e-06
0.000200924
1.99755e-06
0.000200562
2.67822e-06
0.000200141
3.32168e-06
0.000199666
3.93027e-06
0.000199142
4.50613e-06
0.000198572
5.05122e-06
0.000197962
5.56732e-06
0.000197315
6.05602e-06
0.000196636
6.51872e-06
0.000195931
6.95664e-06
0.000195202
7.37079e-06
0.000194455