/*--------------------------------*- C++ -*----------------------------------*\
  =========                 |
  \\      /  F ield         | OpenFOAM: The Open Source CFD Toolbox
   \\    /   O peration     | Website:  https://openfoam.org
    \\  /    A nd           | Version:  7
     \\/     M anipulation  |
\*---------------------------------------------------------------------------*/
FoamFile
{
    version     2.0;
    format      ascii;
    class       volScalarField;
    location    "4.92";
    object      T;
}
// * * * * * * * * * * * * * * * * * * * * * * * * * * * * * * * * * * * * * //

dimensions      [0 0 0 1 0 0 0];

internalField   nonuniform List<scalar> 
12013
(
300.065
300.197
300.332
300.47
300.61
300.75
300.891
301.031
301.17
301.308
301.445
301.579
301.711
301.84
301.967
302.091
302.213
302.333
302.449
302.564
302.677
302.787
302.896
303.004
303.111
303.217
303.323
303.429
303.536
303.644
303.754
303.866
303.981
304.101
304.225
304.354
304.49
304.634
304.787
304.949
305.123
305.311
305.512
305.73
305.967
306.223
306.502
306.806
307.137
307.499
307.894
308.325
308.797
309.312
309.875
310.49
311.161
311.895
312.696
313.571
314.525
315.567
316.703
317.942
319.293
320.767
322.375
324.129
326.045
328.138
330.427
332.935
335.688
338.718
342.064
345.778
349.926
354.603
359.955
366.222
373.864
300.065
300.197
300.332
300.47
300.61
300.751
300.891
301.032
301.171
301.309
301.445
301.58
301.712
301.841
301.968
302.093
302.214
302.334
302.451
302.565
302.678
302.789
302.898
303.006
303.112
303.219
303.325
303.431
303.537
303.645
303.755
303.867
303.983
304.102
304.226
304.355
304.492
304.635
304.788
304.95
305.125
305.312
305.513
305.731
305.967
306.224
306.503
306.806
307.137
307.499
307.893
308.324
308.795
309.31
309.872
310.486
311.157
311.89
312.69
313.564
314.517
315.556
316.69
317.926
319.274
320.744
322.347
324.096
326.004
328.089
330.367
332.86
335.594
338.598
341.909
345.572
349.645
354.203
359.343
365.188
371.848
300.065
300.197
300.333
300.471
300.611
300.752
300.892
301.033
301.173
301.311
301.447
301.582
301.714
301.843
301.97
302.095
302.217
302.336
302.454
302.568
302.681
302.792
302.901
303.009
303.116
303.222
303.328
303.434
303.541
303.649
303.759
303.871
303.986
304.105
304.229
304.358
304.494
304.638
304.791
304.953
305.127
305.314
305.515
305.733
305.969
306.225
306.503
306.807
307.137
307.498
307.892
308.322
308.792
309.306
309.867
310.48
311.149
311.88
312.677
313.548
314.497
315.533
316.662
317.892
319.234
320.695
322.288
324.024
325.917
327.981
330.234
332.696
335.389
338.339
341.576
345.136
349.061
353.396
358.186
363.458
369.17
300.065
300.197
300.333
300.472
300.612
300.753
300.894
301.035
301.175
301.313
301.45
301.585
301.717
301.847
301.974
302.099
302.221
302.341
302.458
302.573
302.686
302.797
302.906
303.014
303.121
303.227
303.333
303.439
303.546
303.654
303.764
303.876
303.991
304.11
304.234
304.363
304.499
304.643
304.795
304.957
305.131
305.318
305.519
305.736
305.971
306.227
306.505
306.807
307.137
307.497
307.89
308.318
308.787
309.299
309.858
310.468
311.134
311.862
312.656
313.521
314.465
315.494
316.615
317.837
319.166
320.614
322.19
323.905
325.773
327.806
330.019
332.431
335.06
337.926
341.052
344.463
348.181
352.228
356.609
361.305
366.242
300.065
300.198
300.334
300.473
300.614
300.755
300.897
301.038
301.178
301.317
301.454
301.589
301.722
301.852
301.98
302.105
302.228
302.348
302.465
302.58
302.693
302.804
302.914
303.022
303.129
303.235
303.341
303.447
303.554
303.662
303.772
303.884
303.999
304.118
304.242
304.371
304.507
304.65
304.802
304.964
305.137
305.323
305.524
305.74
305.975
306.23
306.507
306.808
307.137
307.495
307.886
308.313
308.779
309.288
309.844
310.451
311.113
311.836
312.624
313.483
314.419
315.438
316.548
317.755
319.068
320.496
322.048
323.734
325.565
327.554
329.713
332.055
334.597
337.352
340.335
343.559
347.035
350.762
354.728
358.899
363.206
300.066
300.199
300.336
300.475
300.616
300.758
300.9
301.042
301.183
301.323
301.46
301.596
301.729
301.86
301.988
302.114
302.237
302.357
302.475
302.59
302.703
302.815
302.924
303.033
303.14
303.246
303.352
303.459
303.565
303.673
303.783
303.895
304.01
304.129
304.252
304.381
304.517
304.659
304.811
304.972
305.145
305.331
305.53
305.746
305.98
306.234
306.509
306.809
307.136
307.493
307.881
308.306
308.769
309.274
309.826
310.428
311.085
311.8
312.58
313.43
314.355
315.361
316.455
317.644
318.935
320.336
321.856
323.503
325.288
327.219
329.307
331.563
333.997
336.617
339.433
342.447
345.66
349.062
352.634
356.338
360.123
300.066
300.2
300.337
300.478
300.619
300.762
300.905
301.048
301.189
301.33
301.468
301.604
301.738
301.87
301.999
302.125
302.248
302.369
302.487
302.603
302.717
302.829
302.939
303.047
303.154
303.261
303.367
303.473
303.58
303.688
303.798
303.91
304.025
304.143
304.266
304.395
304.53
304.672
304.823
304.984
305.156
305.341
305.54
305.754
305.987
306.239
306.513
306.811
307.136
307.489
307.875
308.296
308.755
309.256
309.802
310.398
311.047
311.754
312.523
313.361
314.271
315.26
316.334
317.5
318.762
320.13
321.61
323.209
324.935
326.796
328.8
330.953
333.262
335.731
338.362
341.154
344.1
347.186
350.392
353.685
357.026
300.066
300.201
300.34
300.481
300.624
300.767
300.911
301.055
301.198
301.339
301.478
301.616
301.75
301.883
302.012
302.139
302.263
302.385
302.504
302.62
302.734
302.846
302.957
303.066
303.173
303.28
303.386
303.493
303.6
303.707
303.817
303.929
304.043
304.162
304.284
304.413
304.547
304.689
304.839
304.999
305.17
305.354
305.552
305.765
305.996
306.246
306.518
306.813
307.135
307.485
307.867
308.284
308.738
309.232
309.772
310.359
310.998
311.694
312.451
313.273
314.166
315.134
316.183
317.319
318.547
319.874
321.305
322.847
324.504
326.284
328.191
330.228
332.399
334.705
337.143
339.709
342.394
345.182
348.053
350.983
353.942
300.067
300.203
300.343
300.485
300.629
300.774
300.919
301.064
301.208
301.351
301.491
301.63
301.766
301.899
302.03
302.158
302.283
302.405
302.525
302.642
302.756
302.869
302.98
303.089
303.197
303.304
303.411
303.517
303.624
303.732
303.841
303.953
304.067
304.185
304.307
304.435
304.569
304.71
304.859
305.019
305.188
305.371
305.567
305.778
306.007
306.255
306.524
306.816
307.134
307.481
307.858
308.269
308.716
309.203
309.734
310.311
310.939
311.621
312.362
313.166
314.037
314.979
315.999
317.1
318.287
319.566
320.941
322.416
323.996
325.684
327.484
329.396
331.421
333.557
335.801
338.145
340.578
343.089
345.658
348.266
350.89
300.068
300.205
300.346
300.49
300.636
300.782
300.929
301.076
301.221
301.365
301.507
301.647
301.785
301.919
302.051
302.18
302.307
302.43
302.551
302.669
302.784
302.897
303.009
303.118
303.227
303.334
303.441
303.547
303.654
303.762
303.871
303.983
304.097
304.214
304.336
304.463
304.596
304.736
304.885
305.043
305.211
305.392
305.586
305.795
306.021
306.266
306.532
306.821
307.134
307.475
307.847
308.251
308.69
309.169
309.689
310.254
310.868
311.533
312.255
313.037
313.882
314.795
315.78
316.841
317.981
319.205
320.516
321.918
323.412
325.001
326.686
328.467
330.342
332.308
334.359
336.489
338.687
340.941
343.237
345.558
347.888
300.068
300.208
300.351
300.496
300.644
300.792
300.941
301.09
301.237
301.383
301.527
301.669
301.808
301.945
302.078
302.209
302.336
302.461
302.583
302.702
302.818
302.932
303.044
303.155
303.263
303.371
303.478
303.585
303.692
303.8
303.909
304.02
304.133
304.251
304.372
304.498
304.63
304.769
304.916
305.072
305.239
305.418
305.609
305.816
306.039
306.281
306.542
306.826
307.135
307.47
307.834
308.23
308.66
309.128
309.635
310.186
310.783
311.43
312.13
312.886
313.701
314.58
315.526
316.541
317.629
318.792
320.033
321.355
322.758
324.243
325.809
327.456
329.18
330.978
332.844
334.771
336.749
338.768
340.817
342.883
344.952
300.07
300.211
300.356
300.504
300.654
300.805
300.956
301.107
301.257
301.405
301.552
301.695
301.837
301.975
302.111
302.243
302.372
302.498
302.622
302.742
302.86
302.975
303.088
303.199
303.308
303.416
303.524
303.631
303.738
303.845
303.954
304.065
304.178
304.295
304.415
304.54
304.671
304.809
304.954
305.109
305.274
305.45
305.639
305.842
306.062
306.299
306.556
306.834
307.136
307.464
307.82
308.207
308.626
309.081
309.574
310.108
310.686
311.311
311.985
312.712
313.495
314.335
315.237
316.202
317.232
318.33
319.497
320.734
322.041
323.419
324.865
326.378
327.954
329.59
331.279
333.015
334.79
336.596
338.423
340.26
342.097
300.071
300.215
300.362
300.513
300.666
300.82
300.974
301.128
301.281
301.432
301.581
301.728
301.872
302.012
302.15
302.285
302.416
302.544
302.669
302.791
302.91
303.026
303.14
303.252
303.362
303.471
303.579
303.686
303.793
303.901
304.01
304.12
304.233
304.348
304.468
304.592
304.721
304.858
305.001
305.154
305.316
305.489
305.675
305.874
306.09
306.322
306.573
306.845
307.14
307.46
307.806
308.181
308.588
309.029
309.505
310.021
310.577
311.177
311.823
312.518
313.263
314.062
314.916
315.826
316.795
317.824
318.913
320.063
321.273
322.542
323.869
325.251
326.684
328.165
329.687
331.247
332.836
334.447
336.073
337.707
339.338
300.072
300.219
300.37
300.524
300.681
300.838
300.996
301.153
301.309
301.464
301.616
301.766
301.913
302.057
302.198
302.335
302.469
302.599
302.726
302.85
302.97
303.088
303.204
303.317
303.428
303.537
303.645
303.753
303.86
303.968
304.076
304.186
304.298
304.413
304.531
304.654
304.782
304.916
305.058
305.208
305.367
305.537
305.719
305.914
306.125
306.351
306.596
306.861
307.147
307.457
307.792
308.155
308.548
308.972
309.43
309.924
310.457
311.029
311.644
312.304
313.009
313.763
314.566
315.419
316.324
317.282
318.291
319.352
320.465
321.627
322.837
324.092
325.389
326.723
328.091
329.488
330.906
332.342
333.789
335.239
336.688
300.074
300.225
300.38
300.538
300.698
300.86
301.022
301.183
301.344
301.502
301.659
301.813
301.963
302.111
302.255
302.395
302.532
302.665
302.794
302.92
303.043
303.162
303.279
303.394
303.506
303.616
303.725
303.833
303.94
304.048
304.156
304.265
304.377
304.491
304.608
304.729
304.855
304.987
305.126
305.273
305.429
305.595
305.773
305.963
306.168
306.388
306.626
306.882
307.159
307.458
307.781
308.13
308.507
308.913
309.351
309.821
310.328
310.871
311.452
312.074
312.737
313.443
314.193
314.987
315.827
316.711
317.641
318.614
319.631
320.689
321.786
322.92
324.088
325.287
326.511
327.758
329.023
330.3
331.584
332.872
334.157
300.076
300.232
300.391
300.554
300.719
300.886
301.053
301.219
301.385
301.548
301.709
301.868
302.023
302.175
302.323
302.467
302.607
302.743
302.876
303.004
303.129
303.251
303.37
303.485
303.599
303.71
303.82
303.928
304.036
304.143
304.251
304.36
304.471
304.583
304.699
304.819
304.943
305.072
305.209
305.352
305.504
305.666
305.839
306.024
306.222
306.435
306.665
306.912
307.178
307.465
307.774
308.108
308.467
308.854
309.269
309.715
310.193
310.704
311.25
311.833
312.452
313.109
313.804
314.538
315.311
316.123
316.974
317.861
318.785
319.743
320.733
321.754
322.802
323.874
324.967
326.078
327.202
328.336
329.476
330.618
331.758
300.079
300.239
300.405
300.573
300.744
300.917
301.089
301.262
301.433
301.603
301.77
301.934
302.094
302.251
302.403
302.552
302.696
302.836
302.972
303.104
303.232
303.356
303.477
303.594
303.709
303.822
303.932
304.041
304.149
304.257
304.364
304.473
304.582
304.694
304.808
304.925
305.047
305.174
305.307
305.447
305.595
305.752
305.92
306.098
306.29
306.495
306.715
306.952
307.206
307.48
307.775
308.092
308.432
308.798
309.19
309.609
310.057
310.536
311.045
311.586
312.16
312.767
313.408
314.082
314.79
315.53
316.304
317.108
317.943
318.806
319.696
320.61
321.547
322.503
323.477
324.464
325.462
326.467
327.478
328.489
329.499
300.082
300.249
300.42
300.596
300.774
300.953
301.133
301.313
301.491
301.667
301.841
302.011
302.178
302.341
302.499
302.653
302.802
302.946
303.086
303.222
303.353
303.48
303.603
303.723
303.84
303.954
304.065
304.175
304.284
304.391
304.499
304.606
304.715
304.825
304.937
305.053
305.172
305.296
305.426
305.562
305.705
305.857
306.018
306.19
306.373
306.57
306.78
307.006
307.248
307.508
307.787
308.086
308.406
308.75
309.117
309.509
309.926
310.371
310.842
311.342
311.871
312.428
313.014
313.629
314.273
314.945
315.644
316.37
317.12
317.894
318.691
319.507
320.342
321.192
322.057
322.932
323.816
324.707
325.601
326.497
327.391
300.086
300.26
300.439
300.623
300.809
300.996
301.185
301.372
301.559
301.743
301.925
302.103
302.277
302.447
302.611
302.771
302.926
303.076
303.221
303.361
303.496
303.626
303.753
303.875
303.994
304.11
304.223
304.333
304.442
304.55
304.657
304.764
304.871
304.98
305.091
305.204
305.32
305.441
305.567
305.698
305.837
305.983
306.137
306.302
306.477
306.664
306.864
307.078
307.307
307.552
307.814
308.095
308.395
308.715
309.056
309.42
309.807
310.217
310.651
311.109
311.593
312.101
312.635
313.192
313.775
314.381
315.01
315.661
316.333
317.024
317.734
318.461
319.202
319.957
320.722
321.497
322.28
323.067
323.858
324.65
325.441
300.09
300.273
300.461
300.654
300.85
301.047
301.245
301.443
301.639
301.833
302.024
302.211
302.394
302.572
302.744
302.911
303.073
303.229
303.379
303.524
303.664
303.798
303.928
304.054
304.175
304.293
304.407
304.519
304.629
304.737
304.844
304.95
305.056
305.164
305.272
305.383
305.496
305.614
305.735
305.862
305.995
306.135
306.283
306.439
306.606
306.783
306.971
307.173
307.388
307.618
307.863
308.124
308.403
308.7
309.016
309.351
309.707
310.082
310.479
310.898
311.337
311.798
312.28
312.784
313.308
313.851
314.415
314.996
315.596
316.211
316.842
317.486
318.143
318.811
319.488
320.173
320.864
321.56
322.258
322.958
323.657
300.095
300.288
300.488
300.691
300.898
301.107
301.317
301.526
301.734
301.939
302.141
302.338
302.531
302.718
302.9
303.075
303.245
303.408
303.565
303.716
303.861
304
304.134
304.263
304.387
304.508
304.624
304.737
304.848
304.956
305.063
305.169
305.274
305.379
305.486
305.594
305.704
305.818
305.935
306.057
306.184
306.318
306.458
306.607
306.764
306.931
307.108
307.297
307.498
307.712
307.939
308.182
308.439
308.713
309.003
309.31
309.635
309.977
310.338
310.717
311.115
311.53
311.964
312.416
312.885
313.371
313.874
314.391
314.924
315.47
316.029
316.599
317.18
317.769
318.367
318.971
319.581
320.194
320.81
321.428
322.046
300.101
300.307
300.519
300.735
300.956
301.178
301.401
301.624
301.845
302.063
302.278
302.488
302.692
302.89
303.082
303.268
303.446
303.617
303.782
303.94
304.091
304.236
304.375
304.508
304.636
304.759
304.878
304.992
305.104
305.213
305.32
305.425
305.529
305.633
305.738
305.843
305.95
306.06
306.172
306.289
306.411
306.537
306.67
306.81
306.958
307.115
307.28
307.456
307.642
307.841
308.051
308.274
308.511
308.761
309.026
309.306
309.601
309.912
310.238
310.58
310.937
311.311
311.699
312.103
312.521
312.954
313.4
313.86
314.331
314.815
315.308
315.812
316.324
316.844
317.371
317.903
318.44
318.98
319.524
320.068
320.613
300.108
300.328
300.555
300.787
301.023
301.261
301.5
301.739
301.976
302.209
302.438
302.662
302.88
303.092
303.296
303.492
303.681
303.863
304.036
304.202
304.36
304.511
304.656
304.793
304.925
305.052
305.173
305.29
305.403
305.513
305.62
305.725
305.828
305.93
306.032
306.135
306.239
306.345
306.453
306.564
306.68
306.8
306.925
307.057
307.195
307.341
307.495
307.658
307.83
308.012
308.206
308.41
308.626
308.855
309.095
309.349
309.616
309.896
310.19
310.497
310.817
311.151
311.497
311.857
312.229
312.613
313.008
313.415
313.832
314.258
314.693
315.137
315.588
316.046
316.509
316.978
317.45
317.926
318.404
318.884
319.365
300.116
300.353
300.597
300.847
301.102
301.359
301.617
301.874
302.129
302.38
302.627
302.867
303.101
303.327
303.545
303.755
303.956
304.148
304.332
304.507
304.673
304.832
304.982
305.126
305.262
305.393
305.517
305.637
305.751
305.862
305.969
306.074
306.176
306.277
306.377
306.477
306.578
306.679
306.783
306.889
306.998
307.112
307.229
307.352
307.481
307.617
307.759
307.91
308.068
308.236
308.412
308.599
308.796
309.003
309.221
309.45
309.69
309.942
310.205
310.48
310.766
311.063
311.372
311.691
312.021
312.36
312.71
313.069
313.437
313.812
314.196
314.586
314.983
315.386
315.793
316.205
316.62
317.039
317.46
317.882
318.305
300.126
300.383
300.648
300.919
301.195
301.473
301.753
302.032
302.308
302.58
302.847
303.106
303.358
303.602
303.836
304.061
304.276
304.481
304.676
304.861
305.037
305.204
305.362
305.512
305.654
305.788
305.916
306.038
306.155
306.267
306.375
306.479
306.581
306.68
306.778
306.876
306.973
307.071
307.17
307.271
307.374
307.481
307.591
307.706
307.826
307.951
308.083
308.221
308.366
308.519
308.68
308.85
309.028
309.216
309.413
309.619
309.835
310.06
310.296
310.541
310.795
311.06
311.333
311.616
311.908
312.209
312.517
312.834
313.158
313.489
313.826
314.169
314.518
314.872
315.23
315.592
315.957
316.324
316.694
317.066
317.439
300.138
300.418
300.706
301.002
301.303
301.608
301.913
302.217
302.518
302.814
303.104
303.386
303.659
303.922
304.175
304.417
304.648
304.867
305.075
305.273
305.459
305.635
305.801
305.958
306.106
306.246
306.378
306.503
306.622
306.735
306.844
306.948
307.049
307.148
307.244
307.339
307.433
307.527
307.621
307.717
307.815
307.915
308.018
308.125
308.236
308.352
308.473
308.6
308.733
308.873
309.019
309.173
309.335
309.504
309.681
309.866
310.06
310.262
310.472
310.69
310.917
311.152
311.395
311.645
311.903
312.168
312.441
312.72
313.005
313.296
313.593
313.895
314.202
314.512
314.827
315.145
315.466
315.789
316.114
316.441
316.769
300.151
300.459
300.776
301.101
301.431
301.765
302.1
302.434
302.764
303.088
303.404
303.712
304.009
304.295
304.569
304.83
305.079
305.315
305.538
305.748
305.946
306.133
306.308
306.473
306.627
306.772
306.909
307.038
307.159
307.275
307.384
307.489
307.59
307.687
307.781
307.874
307.965
308.055
308.146
308.237
308.329
308.423
308.52
308.619
308.722
308.829
308.941
309.057
309.179
309.306
309.439
309.579
309.725
309.878
310.037
310.203
310.377
310.557
310.745
310.94
311.141
311.35
311.565
311.787
312.016
312.25
312.491
312.737
312.988
313.245
313.506
313.771
314.041
314.314
314.591
314.87
315.152
315.437
315.723
316.01
316.299
300.167
300.507
300.857
301.216
301.582
301.951
302.32
302.688
303.051
303.407
303.754
304.091
304.416
304.728
305.025
305.309
305.578
305.832
306.071
306.296
306.508
306.706
306.891
307.064
307.226
307.377
307.519
307.651
307.776
307.893
308.004
308.109
308.21
308.306
308.399
308.489
308.578
308.665
308.751
308.838
308.925
309.014
309.104
309.197
309.292
309.391
309.494
309.601
309.712
309.828
309.95
310.076
310.209
310.347
310.49
310.64
310.796
310.958
311.125
311.299
311.479
311.664
311.856
312.053
312.255
312.463
312.675
312.893
313.115
313.341
313.572
313.806
314.043
314.284
314.527
314.774
315.022
315.272
315.524
315.777
316.031
300.186
300.563
300.953
301.352
301.758
302.168
302.578
302.985
303.386
303.78
304.162
304.532
304.889
305.229
305.554
305.862
306.153
306.428
306.685
306.927
307.152
307.362
307.558
307.741
307.91
308.068
308.215
308.352
308.48
308.599
308.711
308.817
308.918
309.013
309.105
309.193
309.279
309.363
309.446
309.529
309.611
309.695
309.78
309.866
309.955
310.047
310.142
310.24
310.343
310.449
310.56
310.676
310.796
310.921
311.051
311.186
311.327
311.472
311.623
311.778
311.939
312.105
312.275
312.451
312.631
312.815
313.004
313.197
313.393
313.594
313.797
314.004
314.214
314.426
314.641
314.858
315.077
315.298
315.52
315.743
315.967
300.207
300.63
301.065
301.512
301.965
302.422
302.879
303.332
303.778
304.214
304.637
305.045
305.437
305.81
306.165
306.5
306.816
307.112
307.389
307.648
307.888
308.112
308.319
308.511
308.689
308.853
309.006
309.147
309.278
309.4
309.514
309.62
309.721
309.816
309.906
309.993
310.077
310.158
310.238
310.317
310.396
310.475
310.556
310.637
310.72
310.806
310.894
310.986
311.08
311.179
311.281
311.387
311.497
311.611
311.729
311.852
311.979
312.11
312.246
312.386
312.531
312.68
312.833
312.989
313.15
313.315
313.483
313.655
313.83
314.008
314.189
314.372
314.558
314.746
314.936
315.128
315.322
315.517
315.713
315.91
316.108
300.233
300.708
301.198
301.699
302.208
302.721
303.232
303.738
304.235
304.72
305.188
305.639
306.07
306.48
306.867
307.232
307.574
307.894
308.192
308.469
308.725
308.962
309.181
309.383
309.569
309.74
309.898
310.043
310.177
310.302
310.417
310.525
310.625
310.72
310.81
310.895
310.977
311.057
311.135
311.211
311.287
311.363
311.439
311.516
311.595
311.676
311.759
311.845
311.933
312.025
312.119
312.217
312.319
312.424
312.532
312.644
312.761
312.88
313.004
313.131
313.262
313.397
313.535
313.676
313.821
313.969
314.12
314.273
314.43
314.589
314.75
314.914
315.079
315.247
315.416
315.586
315.758
315.931
316.105
316.279
316.454
300.264
300.801
301.354
301.92
302.494
303.071
303.645
304.212
304.768
305.307
305.827
306.325
306.8
307.249
307.672
308.069
308.439
308.783
309.103
309.398
309.67
309.92
310.151
310.362
310.555
310.733
310.896
311.045
311.183
311.309
311.427
311.535
311.636
311.731
311.821
311.905
311.987
312.065
312.141
312.216
312.289
312.363
312.437
312.511
312.587
312.664
312.743
312.824
312.908
312.994
313.083
313.175
313.27
313.367
313.468
313.572
313.679
313.79
313.903
314.02
314.14
314.263
314.388
314.517
314.648
314.782
314.918
315.057
315.198
315.34
315.485
315.632
315.78
315.93
316.08
316.232
316.385
316.539
316.694
316.849
317.004
300.3
300.909
301.537
302.179
302.829
303.481
304.128
304.765
305.386
305.987
306.565
307.115
307.637
308.128
308.588
309.018
309.417
309.786
310.126
310.439
310.727
310.99
311.23
311.45
311.651
311.834
312.002
312.155
312.295
312.424
312.543
312.653
312.755
312.851
312.94
313.025
313.107
313.185
313.26
313.334
313.407
313.48
313.552
313.625
313.699
313.774
313.851
313.93
314.01
314.093
314.178
314.265
314.355
314.447
314.542
314.64
314.74
314.843
314.948
315.057
315.167
315.281
315.396
315.514
315.634
315.756
315.88
316.006
316.134
316.263
316.394
316.526
316.659
316.794
316.929
317.065
317.202
317.339
317.477
317.615
317.753
300.342
301.037
301.753
302.483
303.222
303.96
304.69
305.406
306.102
306.771
307.411
308.018
308.589
309.124
309.623
310.085
310.511
310.904
311.264
311.593
311.894
312.168
312.418
312.645
312.852
313.04
313.211
313.368
313.511
313.642
313.763
313.875
313.978
314.075
314.166
314.253
314.335
314.414
314.491
314.566
314.639
314.712
314.785
314.859
314.932
315.007
315.083
315.161
315.24
315.321
315.403
315.488
315.574
315.663
315.754
315.847
315.942
316.04
316.139
316.241
316.344
316.45
316.557
316.666
316.777
316.89
317.003
317.119
317.235
317.353
317.471
317.591
317.711
317.833
317.954
318.076
318.199
318.321
318.444
318.567
318.69
300.391
301.187
302.006
302.84
303.68
304.517
305.342
306.147
306.925
307.669
308.375
309.04
309.662
310.241
310.775
311.268
311.72
312.132
312.509
312.852
313.163
313.446
313.702
313.935
314.146
314.338
314.513
314.672
314.818
314.952
315.075
315.189
315.295
315.395
315.489
315.578
315.663
315.745
315.825
315.902
315.979
316.054
316.129
316.205
316.28
316.357
316.434
316.512
316.591
316.672
316.754
316.837
316.922
317.009
317.097
317.187
317.279
317.372
317.467
317.563
317.661
317.76
317.861
317.963
318.066
318.17
318.275
318.381
318.488
318.595
318.703
318.812
318.921
319.03
319.139
319.249
319.359
319.468
319.578
319.687
319.796
300.449
301.363
302.301
303.255
304.213
305.163
306.095
306.997
307.863
308.686
309.46
310.183
310.853
311.471
312.038
312.555
313.027
313.455
313.843
314.195
314.513
314.801
315.062
315.297
315.511
315.706
315.883
316.045
316.194
316.331
316.458
316.576
316.686
316.79
316.889
316.983
317.073
317.16
317.244
317.326
317.407
317.487
317.567
317.646
317.725
317.805
317.884
317.965
318.045
318.127
318.21
318.293
318.378
318.464
318.551
318.639
318.728
318.818
318.909
319.001
319.094
319.188
319.283
319.379
319.475
319.571
319.669
319.766
319.864
319.962
320.061
320.159
320.258
320.356
320.454
320.553
320.65
320.748
320.845
320.942
321.038
300.517
301.567
302.645
303.736
304.828
305.905
306.953
307.961
308.919
309.82
310.658
311.434
312.147
312.796
313.385
313.919
314.401
314.836
315.229
315.583
315.903
316.192
316.454
316.692
316.908
317.105
317.285
317.451
317.604
317.745
317.877
318.001
318.118
318.228
318.333
318.434
318.53
318.624
318.715
318.804
318.892
318.978
319.063
319.147
319.231
319.315
319.398
319.482
319.565
319.649
319.733
319.818
319.903
319.989
320.075
320.161
320.248
320.336
320.424
320.512
320.601
320.69
320.78
320.869
320.959
321.048
321.138
321.228
321.317
321.407
321.496
321.585
321.673
321.762
321.849
321.937
322.024
322.11
322.196
322.281
322.365
300.595
301.803
303.04
304.289
305.53
306.746
307.918
309.034
310.084
311.054
311.942
312.753
313.488
314.153
314.752
315.292
315.777
316.213
316.605
316.959
317.278
317.567
317.829
318.067
318.285
318.485
318.668
318.838
318.996
319.144
319.282
319.413
319.537
319.655
319.768
319.876
319.981
320.083
320.182
320.278
320.373
320.466
320.557
320.647
320.737
320.825
320.912
320.999
321.086
321.172
321.258
321.344
321.43
321.515
321.601
321.686
321.771
321.856
321.941
322.025
322.11
322.194
322.278
322.361
322.445
322.528
322.61
322.692
322.773
322.854
322.935
323.014
323.093
323.172
323.249
323.326
323.403
323.478
323.553
323.627
323.7
300.682
302.069
303.486
304.91
306.316
307.682
308.974
310.177
311.286
312.3
313.219
314.049
314.796
315.465
316.065
316.601
317.082
317.513
317.901
318.25
318.565
318.851
319.111
319.349
319.568
319.77
319.957
320.131
320.294
320.447
320.592
320.73
320.861
320.987
321.108
321.224
321.337
321.446
321.553
321.656
321.758
321.857
321.954
322.05
322.144
322.237
322.328
322.418
322.507
322.595
322.683
322.769
322.855
322.94
323.024
323.108
323.191
323.273
323.354
323.435
323.515
323.594
323.673
323.751
323.827
323.904
323.979
324.053
324.127
324.2
324.271
324.342
324.412
324.482
324.55
324.617
324.683
324.749
324.813
324.877
324.939
300.775
302.354
303.968
305.585
307.147
308.625
310
311.264
312.413
313.451
314.382
315.215
315.957
316.619
317.208
317.733
318.202
318.622
319
319.34
319.649
319.929
320.186
320.422
320.64
320.842
321.031
321.208
321.374
321.532
321.682
321.826
321.963
322.094
322.221
322.344
322.462
322.578
322.69
322.799
322.906
323.01
323.111
323.211
323.308
323.404
323.498
323.59
323.681
323.77
323.858
323.945
324.03
324.114
324.197
324.279
324.359
324.439
324.517
324.594
324.67
324.744
324.818
324.89
324.961
325.032
325.101
325.168
325.235
325.301
325.365
325.429
325.491
325.552
325.612
325.671
325.729
325.786
325.842
325.897
325.951
300.855
302.603
304.407
306.163
307.83
309.381
310.805
312.096
313.257
314.294
315.218
316.038
316.765
317.409
317.981
318.49
318.944
319.35
319.716
320.046
320.346
320.62
320.871
321.103
321.318
321.519
321.708
321.885
322.053
322.212
322.364
322.51
322.649
322.784
322.914
323.039
323.161
323.279
323.394
323.506
323.615
323.721
323.825
323.927
324.026
324.123
324.219
324.312
324.404
324.493
324.581
324.668
324.753
324.836
324.918
324.998
325.077
325.154
325.23
325.304
325.377
325.449
325.519
325.588
325.656
325.722
325.787
325.851
325.913
325.974
326.034
326.093
326.15
326.206
326.261
326.315
326.368
326.42
326.47
326.52
326.568
384.052
392.008
398.691
404.508
409.664
414.267
418.38
422.04
425.26
428.045
430.383
432.254
433.623
434.445
434.653
434.158
432.832
430.479
426.767
421.04
411.648
405.278
400.388
396.379
392.961
389.973
387.314
384.914
382.726
380.712
378.844
377.101
375.464
373.919
372.455
371.06
369.727
368.447
367.215
366.025
364.872
363.751
362.66
361.594
360.551
359.529
358.523
357.534
356.559
355.595
354.643
353.699
352.765
351.837
350.916
350.001
349.091
348.185
347.284
346.387
345.493
344.604
343.718
342.835
341.956
341.081
340.21
339.343
338.48
337.621
336.768
335.919
335.076
334.239
333.407
332.583
331.766
330.956
330.155
329.363
328.58
327.807
327.045
326.295
325.556
324.83
324.118
323.419
322.734
322.065
321.41
320.772
320.15
319.545
318.956
318.385
317.831
317.295
316.776
316.276
315.793
315.328
314.88
314.45
314.037
313.642
313.263
312.901
312.555
312.225
311.91
311.61
311.325
311.054
310.796
310.552
310.319
310.099
309.891
309.693
309.505
309.327
309.159
308.999
308.847
308.702
308.565
308.434
308.309
308.19
308.076
307.966
307.861
307.759
307.66
307.565
307.472
307.381
307.292
307.205
307.119
307.034
306.95
306.866
306.782
306.698
306.615
306.531
306.446
306.361
306.274
306.187
306.099
306.01
305.919
305.827
305.734
305.639
305.543
305.447
305.349
379.301
386.217
392.433
398.008
403.023
407.539
411.598
415.222
418.422
421.197
423.535
425.414
426.802
427.652
427.905
427.478
426.258
424.092
420.762
415.999
409.758
404.356
399.844
396.015
392.699
389.775
387.159
384.79
382.624
380.627
378.773
377.04
375.412
373.875
372.417
371.027
369.698
368.422
367.193
366.005
364.854
363.736
362.646
361.582
360.541
359.519
358.515
357.526
356.552
355.589
354.637
353.694
352.76
351.833
350.912
349.997
349.087
348.182
347.281
346.384
345.491
344.601
343.715
342.833
341.954
341.079
340.208
339.341
338.478
337.619
336.766
335.917
335.074
334.237
333.405
332.581
331.764
330.954
330.153
329.361
328.578
327.805
327.043
326.292
325.554
324.828
324.115
323.416
322.732
322.062
321.408
320.77
320.148
319.542
318.954
318.383
317.829
317.293
316.775
316.274
315.791
315.326
314.878
314.449
314.036
313.64
313.262
312.9
312.554
312.224
311.909
311.609
311.324
311.053
310.796
310.551
310.319
310.099
309.89
309.692
309.505
309.327
309.158
308.998
308.847
308.702
308.565
308.434
308.309
308.19
308.076
307.966
307.861
307.759
307.661
307.565
307.472
307.382
307.293
307.205
307.119
307.034
306.95
306.866
306.782
306.699
306.615
306.531
306.446
306.361
306.275
306.188
306.1
306.01
305.92
305.828
305.735
305.64
305.544
305.447
305.35
375.195
381.116
386.701
391.876
396.628
400.966
404.903
408.445
411.592
414.337
416.665
418.554
419.972
420.876
421.213
420.915
419.897
418.055
415.287
411.546
407.047
402.682
398.74
395.24
392.126
389.335
386.812
384.51
382.394
380.436
378.613
376.905
375.297
373.776
372.331
370.953
369.634
368.366
367.144
365.962
364.817
363.703
362.617
361.557
360.518
359.499
358.497
357.511
356.538
355.577
354.626
353.684
352.751
351.825
350.905
349.99
349.081
348.176
347.276
346.379
345.486
344.596
343.711
342.828
341.95
341.075
340.204
339.337
338.474
337.616
336.762
335.913