/*--------------------------------*- C++ -*----------------------------------*\
  =========                 |
  \\      /  F ield         | OpenFOAM: The Open Source CFD Toolbox
   \\    /   O peration     | Website:  https://openfoam.org
    \\  /    A nd           | Version:  7
     \\/     M anipulation  |
\*---------------------------------------------------------------------------*/
FoamFile
{
    version     2.0;
    format      ascii;
    class       surfaceScalarField;
    location    "0.63";
    object      phi;
}
// * * * * * * * * * * * * * * * * * * * * * * * * * * * * * * * * * * * * * //

dimensions      [1 0 -1 0 0 0 0];

internalField   nonuniform List<scalar> 
23692
(
1.16674e-05
-3.23518e-08
1.17207e-05
-5.31132e-08
1.17853e-05
-6.42782e-08
1.18541e-05
-6.83662e-08
1.1924e-05
-6.92213e-08
1.19945e-05
-6.96852e-08
1.20668e-05
-7.12738e-08
1.21424e-05
-7.44182e-08
1.22228e-05
-7.89318e-08
1.23091e-05
-8.44524e-08
1.24018e-05
-9.06984e-08
1.25018e-05
-9.75358e-08
1.26095e-05
-1.04944e-07
1.27256e-05
-1.12957e-07
1.28508e-05
-1.21618e-07
1.29858e-05
-1.30955e-07
1.31313e-05
-1.40979e-07
1.3288e-05
-1.51685e-07
1.34566e-05
-1.63054e-07
1.36378e-05
-1.75059e-07
1.38321e-05
-1.87666e-07
1.40402e-05
-2.00838e-07
1.42626e-05
-2.14535e-07
1.44997e-05
-2.28715e-07
1.47521e-05
-2.43329e-07
1.502e-05
-2.58326e-07
1.53039e-05
-2.73652e-07
1.56039e-05
-2.89249e-07
1.59203e-05
-3.05052e-07
1.62531e-05
-3.20998e-07
1.66025e-05
-3.37014e-07
1.69684e-05
-3.53028e-07
1.73506e-05
-3.68962e-07
1.7749e-05
-3.84736e-07
1.81634e-05
-4.00266e-07
1.85933e-05
-4.1547e-07
1.90382e-05
-4.3026e-07
1.94977e-05
-4.44548e-07
1.99711e-05
-4.58245e-07
2.04577e-05
-4.71264e-07
2.09567e-05
-4.83519e-07
2.14671e-05
-4.94921e-07
2.19881e-05
-5.05383e-07
2.25184e-05
-5.14821e-07
2.30571e-05
-5.23151e-07
2.36028e-05
-5.30293e-07
2.41542e-05
-5.36166e-07
2.47101e-05
-5.4069e-07
2.52688e-05
-5.43787e-07
2.58289e-05
-5.45381e-07
2.63888e-05
-5.45394e-07
2.69467e-05
-5.4375e-07
2.7501e-05
-5.4037e-07
2.80498e-05
-5.35175e-07
2.85911e-05
-5.28082e-07
2.9123e-05
-5.19004e-07
2.96435e-05
-5.07846e-07
3.01502e-05
-4.94507e-07
3.0641e-05
-4.78875e-07
3.11133e-05
-4.60822e-07
3.15647e-05
-4.40202e-07
3.19923e-05
-4.16845e-07
3.23934e-05
-3.90547e-07
3.27646e-05
-3.61066e-07
3.31025e-05
-3.28099e-07
3.34034e-05
-2.91274e-07
3.36628e-05
-2.50114e-07
3.38758e-05
-2.04012e-07
3.40367e-05
-1.52171e-07
3.41388e-05
-9.35371e-08
3.41739e-05
-2.66973e-08
3.41316e-05
5.05023e-08
3.39981e-05
1.4151e-07
3.37545e-05
2.51527e-07
3.33736e-05
3.88718e-07
3.28147e-05
5.66587e-07
3.20139e-05
8.08469e-07
3.08648e-05
1.15672e-06
2.91767e-05
1.69564e-06
2.65653e-05
2.61889e-06
4.5906e-06
2.19822e-05
1.24843e-05
-6.66562e-08
1.25414e-05
-1.09992e-07
1.26106e-05
-1.33203e-07
1.26844e-05
-1.41633e-07
1.27592e-05
-1.43361e-07
1.28347e-05
-1.44263e-07
1.2912e-05
-1.47485e-07
1.29928e-05
-1.53928e-07
1.30787e-05
-1.63211e-07
1.31707e-05
-1.74586e-07
1.32697e-05
-1.87468e-07
1.33763e-05
-2.01574e-07
1.34912e-05
-2.16859e-07
1.3615e-05
-2.3339e-07
1.37484e-05
-2.51253e-07
1.38923e-05
-2.70507e-07
1.40474e-05
-2.91174e-07
1.42143e-05
-3.13242e-07
1.43939e-05
-3.36672e-07
1.45867e-05
-3.61408e-07
1.47936e-05
-3.87379e-07
1.5015e-05
-4.1451e-07
1.52516e-05
-4.42718e-07
1.55038e-05
-4.71913e-07
1.57721e-05
-5.01997e-07
1.6057e-05
-5.32863e-07
1.63586e-05
-5.64398e-07
1.66774e-05
-5.96483e-07
1.70134e-05
-6.28988e-07
1.73669e-05
-6.61775e-07
1.77378e-05
-6.947e-07
1.81261e-05
-7.27611e-07
1.85317e-05
-7.60346e-07
1.89544e-05
-7.9274e-07
1.93938e-05
-8.24623e-07
1.98496e-05
-8.55822e-07
2.03212e-05
-8.86158e-07
2.08081e-05
-9.15449e-07
2.13096e-05
-9.43512e-07
2.18249e-05
-9.70168e-07
2.23532e-05
-9.95235e-07
2.28934e-05
-1.01854e-06
2.34446e-05
-1.03989e-06
2.40055e-05
-1.05912e-06
2.4575e-05
-1.07607e-06
2.51518e-05
-1.09055e-06
2.57344e-05
-1.10241e-06
2.63214e-05
-1.11148e-06
2.69112e-05
-1.11761e-06
2.75022e-05
-1.12063e-06
2.80927e-05
-1.12039e-06
2.86809e-05
-1.11674e-06
2.9265e-05
-1.1095e-06
2.98429e-05
-1.09853e-06
3.04127e-05
-1.08365e-06
3.09722e-05
-1.06468e-06
3.15193e-05
-1.04144e-06
3.20516e-05
-1.01372e-06
3.25667e-05
-9.81292e-07
3.30622e-05
-9.439e-07
3.35352e-05
-9.01252e-07
3.3983e-05
-8.53008e-07
3.44024e-05
-7.98763e-07
3.47903e-05
-7.38033e-07
3.5143e-05
-6.70224e-07
3.54566e-05
-5.94599e-07
3.57266e-05
-5.10232e-07
3.59482e-05
-4.15938e-07
3.61157e-05
-3.10176e-07
3.62222e-05
-1.90916e-07
3.626e-05
-5.54316e-08
3.62191e-05
1.00201e-07
3.60873e-05
2.81909e-07
3.58489e-05
4.98418e-07
3.54833e-05
7.62797e-07
3.49629e-05
1.0952e-06
3.42523e-05
1.52735e-06
3.33074e-05
2.10977e-06
3.20864e-05
2.92481e-06
3.06146e-05
4.09891e-06
5.70881e-06
2.95045e-05
1.33584e-05
-1.03019e-07
1.34196e-05
-1.7098e-07
1.34938e-05
-2.07076e-07
1.3573e-05
-2.20225e-07
1.36532e-05
-2.22866e-07
1.3734e-05
-2.24147e-07
1.38167e-05
-2.28986e-07
1.3903e-05
-2.38817e-07
1.39945e-05
-2.53071e-07
1.40926e-05
-2.70595e-07
1.41979e-05
-2.90476e-07
1.43114e-05
-3.12266e-07
1.44336e-05
-3.35884e-07
1.45652e-05
-3.61422e-07
1.47071e-05
-3.8901e-07
1.48599e-05
-4.18735e-07
1.50246e-05
-4.50627e-07
1.52017e-05
-4.84668e-07
1.53922e-05
-5.20798e-07
1.55967e-05
-5.58928e-07
1.58159e-05
-5.9895e-07
1.60505e-05
-6.40746e-07
1.63009e-05
-6.84187e-07
1.65678e-05
-7.29134e-07
1.68516e-05
-7.75434e-07
1.71526e-05
-8.22921e-07
1.74714e-05
-8.71422e-07
1.78079e-05
-9.20749e-07
1.81626e-05
-9.70702e-07
1.85355e-05
-1.02107e-06
1.89266e-05
-1.07162e-06
1.93358e-05
-1.12213e-06
1.9763e-05
-1.17234e-06
2.0208e-05
-1.222e-06
2.06703e-05
-1.27085e-06
2.11496e-05
-1.31861e-06
2.16453e-05
-1.36502e-06
2.21568e-05
-1.40979e-06
2.26833e-05
-1.45264e-06
2.3224e-05
-1.49329e-06
2.37779e-05
-1.53147e-06
2.4344e-05
-1.56689e-06
2.49213e-05
-1.5993e-06
2.55084e-05
-1.6284e-06
2.61041e-05
-1.65396e-06
2.67069e-05
-1.6757e-06
2.73154e-05
-1.69337e-06
2.7928e-05
-1.70674e-06
2.85431e-05
-1.71554e-06
2.91589e-05
-1.71955e-06
2.97737e-05
-1.71853e-06
3.03855e-05
-1.71223e-06
3.09924e-05
-1.70041e-06
3.15923e-05
-1.68283e-06
3.21831e-05
-1.65924e-06
3.27627e-05
-1.62936e-06
3.33286e-05
-1.59293e-06
3.38786e-05
-1.54962e-06
3.44101e-05
-1.4991e-06
3.49204e-05
-1.44099e-06
3.54069e-05
-1.37487e-06
3.58666e-05
-1.30023e-06
3.62965e-05
-1.21649e-06
3.66931e-05
-1.12293e-06
3.7053e-05
-1.01872e-06
3.73722e-05
-9.02794e-07
3.76465e-05
-7.73848e-07
3.78713e-05
-6.30224e-07
3.8041e-05
-4.69794e-07
3.81498e-05
-2.8979e-07
3.81907e-05
-8.6559e-08
3.81555e-05
1.44814e-07
3.80355e-05
4.11275e-07
3.78206e-05
7.2257e-07
3.75002e-05
1.0923e-06
3.70649e-05
1.53944e-06
3.65109e-05
2.09027e-06
3.58498e-05
2.77983e-06
3.51332e-05
3.65029e-06
3.45096e-05
4.73134e-06
5.94701e-06
3.42804e-05
1.42937e-05
-1.41649e-07
1.43593e-05
-2.36317e-07
1.44389e-05
-2.86294e-07
1.45239e-05
-3.0463e-07
1.46101e-05
-3.08252e-07
1.46968e-05
-3.09816e-07
1.47852e-05
-3.16183e-07
1.48773e-05
-3.29408e-07
1.49748e-05
-3.48763e-07
1.50791e-05
-3.7268e-07
1.5191e-05
-3.99895e-07
1.53115e-05
-4.29768e-07
1.54411e-05
-4.6216e-07
1.55807e-05
-4.97183e-07
1.57311e-05
-5.34996e-07
1.5893e-05
-5.75714e-07
1.60673e-05
-6.19377e-07
1.62548e-05
-6.65955e-07
1.64561e-05
-7.15366e-07
1.66722e-05
-7.67487e-07
1.69036e-05
-8.2217e-07
1.71509e-05
-8.7925e-07
1.74149e-05
-9.38552e-07
1.7696e-05
-9.9988e-07
1.79946e-05
-1.06303e-06
1.83113e-05
-1.12776e-06
1.86462e-05
-1.19384e-06
1.89996e-05
-1.26102e-06
1.93718e-05
-1.32901e-06
1.97628e-05
-1.39752e-06
2.01726e-05
-1.46624e-06
2.0601e-05
-1.53485e-06
2.1048e-05
-1.60302e-06
2.15131e-05
-1.67038e-06
2.19961e-05
-1.73657e-06
2.24964e-05
-1.80124e-06
2.30134e-05
-1.864e-06
2.35465e-05
-1.92448e-06
2.40947e-05
-1.98227e-06
2.46573e-05
-2.03702e-06
2.52331e-05
-2.08833e-06
2.58211e-05
-2.13584e-06
2.64201e-05
-2.17917e-06
2.70287e-05
-2.21795e-06
2.76457e-05
-2.25183e-06
2.82694e-05
-2.28047e-06
2.88984e-05
-2.30351e-06
2.95309e-05
-2.32063e-06
3.01652e-05
-2.3315e-06
3.07996e-05
-2.33579e-06
3.14321e-05
-2.33318e-06
3.20607e-05
-2.32336e-06
3.26835e-05
-2.306e-06
3.32982e-05
-2.28077e-06
3.39027e-05
-2.24736e-06
3.44947e-05
-2.20539e-06
3.50718e-05
-2.1545e-06
3.56317e-05
-2.0943e-06
3.61716e-05
-2.02434e-06
3.66891e-05
-1.94414e-06
3.71812e-05
-1.85315e-06
3.76452e-05
-1.75074e-06
3.80779e-05
-1.63616e-06
3.84762e-05
-1.50854e-06
3.88366e-05
-1.36684e-06
3.91555e-05
-1.20977e-06
3.9429e-05
-1.03577e-06
3.9653e-05
-8.42888e-07
3.98229e-05
-6.28658e-07
3.99338e-05
-3.89962e-07
3.99806e-05
-1.22817e-07
3.9958e-05
1.77738e-07
3.98613e-05
5.18185e-07
3.96868e-05
9.07054e-07
3.94338e-05
1.35518e-06
3.91072e-05
1.87591e-06
3.87225e-05
2.48476e-06
3.83145e-05
3.19756e-06
3.79498e-05
4.02471e-06
3.77361e-05
4.95483e-06
5.91213e-06
3.77809e-05
1.52947e-05
-1.82742e-07
1.53649e-05
-3.06286e-07
1.54503e-05
-3.71289e-07
1.55417e-05
-3.95379e-07
1.56344e-05
-4.00088e-07
1.57274e-05
-4.01801e-07
1.58221e-05
-4.09521e-07
1.59204e-05
-4.26048e-07
1.60241e-05
-4.50548e-07
1.61348e-05
-4.81042e-07
1.62534e-05
-5.15888e-07
1.6381e-05
-5.5422e-07
1.65183e-05
-5.95816e-07
1.6666e-05
-6.40781e-07
1.6825e-05
-6.893e-07
1.69961e-05
-7.41505e-07
1.71801e-05
-7.97441e-07
1.73778e-05
-8.5707e-07
1.759e-05
-9.20282e-07
1.78174e-05
-9.86918e-07
1.80608e-05
-1.05679e-06
1.83207e-05
-1.12968e-06
1.85978e-05
-1.20537e-06
1.88925e-05
-1.28359e-06
1.92054e-05
-1.36409e-06
1.95368e-05
-1.44656e-06
1.98871e-05
-1.5307e-06
2.02563e-05
-1.61616e-06
2.06448e-05
-1.70261e-06
2.10524e-05
-1.78965e-06
2.14793e-05
-1.87689e-06
2.19252e-05
-1.96392e-06
2.23899e-05
-2.05029e-06
2.28731e-05
-2.13556e-06
2.33743e-05
-2.21927e-06
2.38929e-05
-2.30094e-06
2.44283e-05
-2.3801e-06
2.49797e-05
-2.45624e-06
2.55463e-05
-2.52889e-06
2.6127e-05
-2.59756e-06
2.67207e-05
-2.66177e-06
2.73264e-05
-2.72103e-06
2.79426e-05
-2.77488e-06
2.8568e-05
-2.82286e-06
2.92011e-05
-2.86452e-06
2.98404e-05
-2.89941e-06
3.04842e-05
-2.9271e-06
3.11307e-05
-2.94718e-06
3.17782e-05
-2.95923e-06
3.24248e-05
-2.96284e-06
3.30684e-05
-2.95763e-06
3.37071e-05
-2.94319e-06
3.43387e-05
-2.91912e-06
3.4961e-05
-2.88504e-06
3.55718e-05
-2.84052e-06
3.61688e-05
-2.78515e-06
3.67496e-05
-2.71848e-06
3.73116e-05
-2.64002e-06
3.78524e-05
-2.54928e-06
3.83694e-05
-2.44566e-06
3.88598e-05
-2.32854e-06
3.93208e-05
-2.19719e-06
3.97495e-05
-2.05076e-06
4.0143e-05
-1.88829e-06
4.04981e-05
-1.70861e-06
4.08116e-05
-1.51035e-06
4.10803e-05
-1.29183e-06
4.13008e-05
-1.05104e-06
4.14696e-05
-7.85504e-07
4.15836e-05
-4.92195e-07
4.16397e-05
-1.67427e-07
4.16358e-05
1.92996e-07
4.1571e-05
5.94033e-07
4.14474e-05
1.04169e-06
4.12707e-05
1.54272e-06
4.10535e-05
2.104e-06
4.08176e-05
2.73141e-06
4.05984e-05
3.42753e-06
4.04468e-05
4.18711e-06
4.04239e-05
4.98856e-06
5.77789e-06
4.05691e-05
1.63657e-05
-2.26474e-07
1.64409e-05
-3.81177e-07
1.65326e-05
-4.62514e-07
1.66309e-05
-4.93035e-07
1.67307e-05
-4.98976e-07
1.68307e-05
-5.0067e-07
1.69321e-05
-5.09478e-07
1.70369e-05
-5.29105e-07
1.71471e-05
-5.58696e-07
1.72644e-05
-5.95877e-07
1.739e-05
-6.38602e-07
1.75249e-05
-6.85741e-07
1.76699e-05
-7.36948e-07
1.78258e-05
-7.92296e-07
1.79935e-05
-8.51972e-07
1.81737e-05
-9.16121e-07
1.83674e-05
-9.8479e-07
1.85753e-05
-1.05792e-06
1.87982e-05
-1.13539e-06
1.90368e-05
-1.21698e-06
1.92918e-05
-1.30248e-06
1.95639e-05
-1.39161e-06
1.98536e-05
-1.48409e-06
2.01614e-05
-1.5796e-06
2.04878e-05
-1.67782e-06
2.08331e-05
-1.77838e-06
2.11976e-05
-1.88088e-06
2.15815e-05
-1.98492e-06
2.19848e-05
-2.09006e-06
2.24076e-05
-2.19583e-06
2.28498e-05
-2.30175e-06
2.33112e-05
-2.40728e-06
2.37915e-05
-2.51191e-06
2.42903e-05
-2.61508e-06
2.4807e-05
-2.71621e-06
2.53411e-05
-2.81474e-06
2.58918e-05
-2.91006e-06
2.64582e-05
-3.00159e-06
2.70394e-05
-3.08873e-06
2.76343e-05
-3.17088e-06
2.82418e-05
-3.24746e-06
2.88606e-05
-3.31789e-06
2.94893e-05
-3.38159e-06
3.01265e-05
-3.43802e-06
3.07705e-05
-3.48661e-06
3.14198e-05
-3.52685e-06
3.20727e-05
-3.55821e-06
3.27272e-05
-3.58019e-06
3.33815e-05
-3.5923e-06
3.40337e-05
-3.59406e-06
3.46817e-05
-3.585e-06
3.53235e-05
-3.56465e-06
3.59568e-05
-3.53254e-06
3.65794e-05
-3.48823e-06
3.71892e-05
-3.43122e-06
3.77837e-05
-3.36105e-06
3.83606e-05
-3.2772e-06
3.89174e-05
-3.17914e-06
3.94516e-05
-3.06631e-06
3.99608e-05
-2.93808e-06
4.04423e-05
-2.79377e-06
4.08935e-05
-2.63261e-06
4.13118e-05
-2.45372e-06
4.16946e-05
-2.25612e-06
4.20392e-05
-2.03864e-06
4.23429e-05
-1.79994e-06
4.26033e-05
-1.53845e-06
4.28181e-05
-1.25231e-06
4.29851e-05
-9.39359e-07
4.31028e-05
-5.97048e-07
4.31706e-05
-2.22487e-07
4.31887e-05
1.87268e-07
4.31599e-05
6.35201e-07
4.30892e-05
1.12449e-06
4.2986e-05
1.65795e-06
4.28647e-05
2.23732e-06
4.2746e-05
2.86212e-06
4.26574e-05
3.52809e-06
4.26318e-05
4.22477e-06
4.27004e-05
4.93206e-06
5.61591e-06
4.28746e-05
1.75118e-05
-2.73003e-07
1.75921e-05
-4.61276e-07
1.76905e-05
-5.60419e-07
1.77964e-05
-5.98158e-07
1.79039e-05
-6.05529e-07
1.80114e-05
-6.07003e-07
1.812e-05
-6.16544e-07
1.82317e-05
-6.38955e-07
1.83487e-05
-6.73475e-07
1.84728e-05
-7.17368e-07
1.86055e-05
-7.68161e-07
1.87477e-05
-8.24414e-07
1.89005e-05
-8.85609e-07
1.90647e-05
-9.51747e-07
1.92411e-05
-1.023e-06
1.94305e-05
-1.09951e-06
1.96338e-05
-1.18131e-06
1.98517e-05
-1.26833e-06
2.0085e-05
-1.36042e-06
2.03345e-05
-1.45733e-06
2.06008e-05
-1.55878e-06
2.08845e-05
-1.66446e-06
2.11862e-05
-1.77402e-06
2.15063e-05
-1.88709e-06
2.18453e-05
-2.00325e-06
2.22034e-05
-2.12208e-06
2.25809e-05
-2.2431e-06
2.2978e-05
-2.36581e-06
2.33946e-05
-2.4897e-06
2.38308e-05
-2.6142e-06
2.42863e-05
-2.73872e-06
2.4761e-05
-2.86264e-06
2.52544e-05
-2.98533e-06
2.57661e-05
-3.10613e-06
2.62955e-05
-3.22437e-06
2.68418e-05
-3.33934e-06
2.74043e-05
-3.45036e-06
2.7982e-05
-3.55671e-06
2.85739e-05
-3.65769e-06
2.91788e-05
-3.75261e-06
2.97955e-05
-3.84077e-06
3.04227e-05
-3.92149e-06
3.10588e-05
-3.99409e-06
3.17024e-05
-4.05793e-06
3.23517e-05
-4.11237e-06
3.30051e-05
-4.15678e-06
3.36609e-05
-4.19057e-06
3.4317e-05
-4.21316e-06
3.49716e-05
-4.22398e-06
3.56226e-05
-4.22248e-06
3.6268e-05
-4.20813e-06
3.69056e-05
-4.1804e-06
3.75334e-05
-4.13877e-06
3.81489e-05
-4.08273e-06
3.87501e-05
-4.01176e-06
3.93346e-05
-3.92534e-06
3.99e-05
-3.82294e-06
4.0444e-05
-3.70398e-06
4.09643e-05
-3.5679e-06
4.14585e-05
-3.41404e-06
4.19242e-05
-3.24174e-06
4.23591e-05
-3.05024e-06
4.27609e-05
-2.83873e-06
4.31274e-05
-2.60627e-06
4.34565e-05
-2.35183e-06
4.37464e-05
-2.07426e-06
4.39953e-05
-1.77223e-06
4.42021e-05
-1.44427e-06
4.43661e-05
-1.08877e-06
4.44872e-05
-7.03922e-07
4.45666e-05
-2.87907e-07
4.46069e-05
1.60838e-07
4.46123e-05
6.43399e-07
4.45899e-05
1.16048e-06
4.45493e-05
1.71196e-06
4.45038e-05
2.29622e-06
4.44698e-05
2.90952e-06
4.44662e-05
3.54515e-06
4.45119e-05
4.19253e-06
4.46213e-05
4.83631e-06
5.45644e-06
4.47945e-05
1.8738e-05
-3.22465e-07
1.88239e-05
-5.46835e-07
1.89294e-05
-6.6541e-07
1.90432e-05
-7.11263e-07
1.9159e-05
-7.20319e-07
1.92747e-05
-7.21356e-07
1.9391e-05
-7.31195e-07
1.951e-05
-7.55964e-07
1.9634e-05
-7.95139e-07
1.97651e-05
-8.45674e-07
1.99049e-05
-9.04653e-07
2.00546e-05
-9.70272e-07
2.02152e-05
-1.04178e-06
2.03875e-05
-1.11908e-06
2.05725e-05
-1.20227e-06
2.07709e-05
-1.29149e-06
2.09836e-05
-1.38676e-06
2.12113e-05
-1.48798e-06
2.14547e-05
-1.59497e-06
2.17146e-05
-1.70744e-06
2.19915e-05
-1.82507e-06
2.22862e-05
-1.94748e-06
2.2599e-05
-2.07426e-06
2.29304e-05
-2.20498e-06
2.32807e-05
-2.33915e-06
2.36503e-05
-2.47626e-06
2.40394e-05
-2.61576e-06
2.44479e-05
-2.75705e-06
2.48759e-05
-2.89953e-06
2.53233e-05
-3.04253e-06
2.57898e-05
-3.18536e-06
2.62752e-05
-3.32731e-06
2.67789e-05
-3.46763e-06
2.73004e-05
-3.60555e-06
2.7839e-05
-3.74029e-06
2.8394e-05
-3.87103e-06
2.89644e-05
-3.99698e-06
2.95493e-05
-4.11732e-06
3.01474e-05
-4.23123e-06
3.07576e-05
-4.33791e-06
3.13785e-05
-4.43656e-06
3.20088e-05
-4.5264e-06
3.26467e-05
-4.60667e-06
3.32909e-05
-4.67661e-06
3.39394e-05
-4.73552e-06
3.45906e-05
-4.78267e-06
3.52427e-05
-4.81741e-06
3.58935e-05
-4.83907e-06
3.65413e-05
-4.84703e-06
3.71839e-05
-4.84068e-06
3.78193e-05
-4.81942e-06
3.84453e-05
-4.78269e-06
3.90597e-05
-4.72993e-06
3.96604e-05
-4.66059e-06
4.02452e-05
-4.57414e-06
4.08118e-05
-4.47004e-06
4.1358e-05
-4.34774e-06
4.18817e-05
-4.2067e-06
4.23805e-05
-4.04634e-06
4.28525e-05
-3.86608e-06
4.32955e-05
-3.66531e-06
4.37075e-05
-3.44335e-06
4.40867e-05
-3.19951e-06
4.44315e-05
-2.93304e-06
4.47404e-05
-2.64312e-06
4.50122e-05
-2.3289e-06
4.52462e-05
-1.98946e-06
4.54422e-05
-1.62385e-06
4.56007e-05
-1.23114e-06
4.57231e-05
-8.10406e-07
4.58117e-05
-3.60917e-07
4.58703e-05
1.17653e-07
4.59041e-05
6.24903e-07
4.59201e-05
1.15973e-06
4.5927e-05
1.72012e-06
4.59355e-05
2.30278e-06
4.59573e-05
2.90278e-06
4.60043e-05
3.51332e-06
4.60865e-05
4.12556e-06
4.62094e-05
4.72878e-06
5.31152e-06
4.63699e-05
2.005e-05
-3.74967e-07
2.01415e-05
-6.3805e-07
2.02545e-05
-7.77814e-07
2.03768e-05
-8.32775e-07
2.05014e-05
-8.43827e-07
2.06257e-05
-8.44211e-07
2.07501e-05
-8.53856e-07
2.08767e-05
-8.80465e-07
2.1008e-05
-9.23917e-07
2.11462e-05
-9.80925e-07
2.12932e-05
-1.04812e-06
2.14503e-05
-1.12328e-06
2.16186e-05
-1.20537e-06
2.1799e-05
-1.29411e-06
2.19924e-05
-1.38955e-06
2.21995e-05
-1.49175e-06
2.24212e-05
-1.60073e-06
2.26582e-05
-1.71636e-06
2.29111e-05
-1.83841e-06
2.31806e-05
-1.96657e-06
2.34674e-05
-2.10045e-06
2.37719e-05
-2.23963e-06
2.40947e-05
-2.38362e-06
2.44361e-05
-2.53192e-06
2.47964e-05
-2.68397e-06
2.51758e-05
-2.83918e-06
2.55744e-05
-2.9969e-06
2.59923e-05
-3.15646e-06
2.64294e-05
-3.31713e-06
2.68854e-05
-3.47817e-06
2.73601e-05
-3.63878e-06
2.78531e-05
-3.79812e-06
2.83637e-05
-3.95536e-06
2.88915e-05
-4.10961e-06
2.94355e-05
-4.25996e-06
2.9995e-05
-4.40551e-06
3.05688e-05
-4.54534e-06
3.11561e-05
-4.67852e-06
3.17554e-05
-4.80413e-06
3.23655e-05
-4.92126e-06
3.2985e-05
-5.02903e-06
3.36124e-05
-5.12654e-06
3.4246e-05
-5.21294e-06
3.48842e-05
-5.28741e-06
3.55252e-05
-5.34913e-06
3.61672e-05
-5.39734e-06
3.68082e-05
-5.43129e-06
3.74464e-05
-5.45026e-06
3.80797e-05
-5.45358e-06
3.8706e-05
-5.44058e-06
3.93233e-05
-5.41065e-06
3.99295e-05
-5.36318e-06
4.05225e-05
-5.29759e-06
4.11001e-05
-5.21334e-06
4.16602e-05
-5.10988e-06
4.22008e-05
-4.98669e-06
4.27197e-05
-4.84326e-06
4.32149e-05
-4.67909e-06
4.36846e-05
-4.49367e-06
4.41269e-05
-4.28652e-06
4.45401e-05
-4.05712e-06
4.49226e-05
-3.80498e-06
4.5273e-05
-3.52959e-06
4.55904e-05
-3.23044e-06
4.58738e-05
-2.90705e-06
4.61229e-05
-2.55892e-06
4.63378e-05
-2.18564e-06
4.65191e-05
-1.78684e-06
4.66683e-05
-1.3623e-06
4.67877e-05
-9.1196e-07
4.68804e-05
-4.36043e-07
4.69505e-05
6.48373e-08
4.70033e-05
5.89347e-07
4.7045e-05
1.13518e-06
4.70828e-05
1.6994e-06
4.71246e-05
2.2781e-06
4.71781e-05
2.86636e-06
4.72504e-05
3.45824e-06
4.73463e-05
4.04694e-06
4.74673e-05
4.62523e-06
5.18673e-06
4.76097e-05
2.14538e-05
-4.30577e-07
2.15511e-05
-7.35044e-07
2.16717e-05
-8.97841e-07
2.18028e-05
-9.62979e-07
2.19365e-05
-9.76395e-07
2.20697e-05
-9.75928e-07
2.22026e-05
-9.84862e-07
2.23371e-05
-1.01272e-06
2.24758e-05
-1.05998e-06
2.26213e-05
-1.12319e-06
2.27755e-05
-1.19853e-06
2.29398e-05
-1.28331e-06
2.31156e-05
-1.37615e-06
2.33038e-05
-1.47655e-06
2.35052e-05
-1.58442e-06
2.37206e-05
-1.69979e-06
2.39507e-05
-1.82261e-06
2.41962e-05
-1.95272e-06
2.44577e-05
-2.08987e-06
2.4736e-05
-2.23369e-06
2.50314e-05
-2.38374e-06
2.53446e-05
-2.53953e-06
2.56758e-05
-2.70053e-06
2.60255e-05
-2.86615e-06
2.63938e-05
-3.03574e-06
2.67808e-05
-3.20863e-06
2.71867e-05
-3.38409e-06
2.76114e-05
-3.56134e-06
2.80546e-05
-3.73957e-06
2.85162e-05
-3.91791e-06
2.89957e-05
-4.09546e-06
2.94926e-05
-4.2713e-06
3.00062e-05
-4.44444e-06
3.05359e-05
-4.61391e-06
3.10808e-05
-4.7787e-06
3.16398e-05
-4.93777e-06
3.2212e-05
-5.0901e-06
3.27961e-05
-5.23466e-06
3.33908e-05
-5.37043e-06
3.39947e-05
-5.4964e-06
3.46063e-05
-5.61158e-06
3.52241e-05
-5.71499e-06
3.58463e-05
-5.80571e-06
3.64713e-05
-5.88282e-06
3.70972e-05
-5.94544e-06
3.77221e-05
-5.99275e-06
3.83441e-05
-6.02394e-06
3.89613e-05
-6.03825e-06
3.95717e-05
-6.03495e-06
4.01732e-05
-6.01337e-06
4.07637e-05
-5.97286e-06
4.13413e-05
-5.91281e-06
4.19039e-05
-5.83265e-06
4.24496e-05
-5.73184e-06
4.29762e-05
-5.60988e-06
4.3482e-05
-5.46629e-06
4.3965e-05
-5.30063e-06
4.44235e-05
-5.11249e-06
4.48559e-05
-4.90147e-06
4.52608e-05
-4.66722e-06
4.56366e-05
-4.40941e-06
4.59825e-05
-4.12776e-06
4.62975e-05
-3.822e-06
4.65812e-05
-3.49194e-06
4.68333e-05
-3.13745e-06
4.70542e-05
-2.75848e-06
4.72447e-05
-2.35511e-06
4.7406e-05
-1.92756e-06
4.75403e-05
-1.47625e-06
4.76502e-05
-1.00186e-06
4.77394e-05
-5.05368e-07
4.78119e-05
1.19848e-08
4.78723e-05
5.48548e-07
4.79258e-05
1.10114e-06
4.7978e-05
1.66665e-06
4.80344e-05
2.24118e-06
4.80999e-05
2.82031e-06
4.81786e-05
3.39918e-06
4.82725e-05
3.97271e-06
4.83815e-05
4.53608e-06
5.0858e-06
4.85025e-05
2.29557e-05
-4.89318e-07
2.30588e-05
-8.37846e-07
2.31872e-05
-1.02556e-06
2.33271e-05
-1.10198e-06
2.34701e-05
-1.11818e-06
2.36125e-05
-1.1167e-06
2.3754e-05
-1.12441e-06
2.38965e-05
-1.1529e-06
2.40428e-05
-1.20342e-06
2.41955e-05
-1.27246e-06
2.43567e-05
-1.35575e-06
2.45282e-05
-1.45012e-06
2.47111e-05
-1.55376e-06
2.49066e-05
-1.66589e-06
2.51154e-05
-1.78628e-06
2.53383e-05
-1.91485e-06
2.55759e-05
-2.0515e-06
2.5829e-05
-2.19604e-06
2.6098e-05
-2.34814e-06
2.63836e-05
-2.50741e-06
2.66862e-05
-2.67336e-06
2.70063e-05
-2.84544e-06
2.7344e-05
-3.02302e-06
2.76998e-05
-3.20545e-06
2.80737e-05
-3.392e-06
2.84658e-05
-3.58191e-06
2.8876e-05
-3.77435e-06
2.93043e-05
-3.96845e-06
2.97503e-05
-4.16328e-06
3.02136e-05
-4.35788e-06
3.06938e-05
-4.55125e-06
3.11902e-05
-4.74233e-06
3.17021e-05
-4.93005e-06
3.22287e-05
-5.11332e-06
3.27691e-05
-5.291e-06
3.3322e-05
-5.46197e-06
3.38864e-05
-5.62509e-06
3.4461e-05
-5.77923e-06
3.50444e-05
-5.92328e-06
3.56351e-05
-6.05612e-06
3.62315e-05
-6.17669e-06
3.68321e-05
-6.28393e-06
3.7435e-05
-6.37683e-06
3.80385e-05
-6.45442e-06
3.86408e-05
-6.51576e-06
3.92399e-05
-6.55996e-06
3.9834e-05
-6.58619e-06
4.04211e-05
-6.59365e-06
4.09993e-05
-6.58161e-06
4.15665e-05
-6.54935e-06
4.21207e-05
-6.49626e-06
4.26602e-05
-6.42173e-06
4.31829e-05
-6.32522e-06
4.3687e-05
-6.20625e-06
4.41707e-05
-6.06437e-06
4.46323e-05
-5.89919e-06
4.50703e-05
-5.71037e-06
4.54832e-05
-5.49763e-06
4.58697e-05
-5.26073e-06
4.62287e-05
-4.99949e-06
4.65593e-05
-4.71382e-06
4.68609e-05
-4.40366e-06
4.71332e-05
-4.06906e-06
4.73762e-05
-3.71016e-06
4.75904e-05
-3.32721e-06
4.77765e-05
-2.92059e-06
4.79358e-05
-2.49085e-06
4.80703e-05
-2.03872e-06
4.81822e-05
-1.56515e-06
4.82745e-05
-1.07138e-06
4.83505e-05
-5.58871e-07
4.84143e-05
-2.93457e-08
4.84698e-05
5.15298e-07
4.85211e-05
1.07216e-06
4.85721e-05
1.6379e-06
4.86266e-05
2.20889e-06
4.86879e-05
2.78133e-06
4.87582e-05
3.35132e-06
4.88384e-05
3.91508e-06
4.89279e-05
4.46935e-06
5.01232e-06
4.90243e-05
2.45625e-05
-5.51168e-07
2.46714e-05
-9.46382e-07
2.48074e-05
-1.16087e-06
2.49561e-05
-1.24969e-06
2.51083e-05
-1.26911e-06
2.52598e-05
-1.26651e-06
2.541e-05
-1.2725e-06
2.55606e-05
-1.30098e-06
2.57144e-05
-1.35416e-06
2.58742e-05
-1.42857e-06
2.60422e-05
-1.51952e-06
2.62203e-05
-1.62329e-06
2.64099e-05
-1.73763e-06
2.66119e-05
-1.86144e-06
2.68273e-05
-1.99426e-06
2.70567e-05
-2.13591e-06
2.73007e-05
-2.28622e-06
2.756e-05
-2.44492e-06
2.7835e-05
-2.61165e-06
2.81262e-05
-2.78597e-06
2.8434e-05
-2.96732e-06
2.87587e-05
-3.15509e-06
2.91006e-05
-3.34859e-06
2.94598e-05
-3.54707e-06
2.98363e-05
-3.74972e-06
3.02302e-05
-3.95569e-06
3.06413e-05
-4.16405e-06
3.10692e-05
-4.37383e-06
3.15138e-05
-4.584e-06
3.19743e-05
-4.79349e-06
3.24504e-05
-5.00119e-06
3.29412e-05
-5.20593e-06
3.34459e-05
-5.40654e-06
3.39635e-05
-5.60179e-06
3.44931e-05
-5.79048e-06
3.50333e-05
-5.97135e-06
3.55831e-05
-6.14319e-06
3.61409e-05
-6.30475e-06
3.67053e-05
-6.45483e-06
3.72748e-05
-6.59226e-06
3.78477e-05
-6.71586e-06
3.84224e-05
-6.82452e-06
3.89971e-05
-6.91718e-06
3.957e-05
-6.99279e-06
4.01393e-05
-7.05039e-06
4.0703e-05
-7.08905e-06
4.12593e-05
-7.10792e-06
4.18062e-05
-7.10617e-06
4.2342e-05
-7.08309e-06
4.28647e-05
-7.03797e-06
4.33724e-05
-6.97023e-06
4.38633e-05
-6.87929e-06
4.43358e-05
-6.76469e-06
4.47882e-05
-6.62601e-06
4.52189e-05
-6.4629e-06
4.56265e-05
-6.27509e-06
4.60097e-05
-6.06238e-06
4.63674e-05
-5.82465e-06
4.66988e-05
-5.56185e-06
4.70031e-05
-5.27402e-06
4.72798e-05
-4.96131e-06
4.75289e-05
-4.62394e-06
4.77504e-05
-4.26228e-06
4.79449e-05
-3.8768e-06
4.81133e-05
-3.46812e-06
4.82568e-05
-3.03701e-06
4.83772e-05
-2.58443e-06
4.84765e-05
-2.11154e-06
4.85572e-05
-1.61969e-06
4.86223e-05
-1.11047e-06
4.86748e-05
-5.8564e-07
4.87182e-05
-4.70463e-08
4.87556e-05
5.03465e-07
4.87902e-05
1.06307e-06
4.88251e-05
1.62852e-06
4.8863e-05
2.19653e-06
4.89061e-05
2.76387e-06
4.89558e-05
3.3274e-06
4.90125e-05
3.88427e-06
4.90758e-05
4.43219e-06
4.97036e-06
4.91441e-05
2.62815e-05
-6.16045e-07
2.63961e-05
-1.06047e-06
2.65394e-05
-1.30351e-06
2.66966e-05
-1.4058e-06
2.68577e-05
-1.4289e-06
2.70181e-05
-1.42509e-06
2.71767e-05
-1.42891e-06
2.73352e-05
-1.45677e-06
2.74963e-05
-1.51197e-06
2.76628e-05
-1.5912e-06
2.78371e-05
-1.68936e-06
2.80213e-05
-1.8022e-06
2.82167e-05
-1.92697e-06
2.84244e-05
-2.06221e-06
2.86452e-05
-2.2072e-06
2.88797e-05
-2.36162e-06
2.91286e-05
-2.52519e-06
2.93924e-05
-2.69759e-06
2.96713e-05
-2.8784e-06
2.9966e-05
-3.06712e-06
3.02765e-05
-3.26313e-06
3.06032e-05
-3.46574e-06
3.09462e-05
-3.6742e-06
3.13055e-05
-3.88766e-06
3.16811e-05
-4.10525e-06
3.20729e-05
-4.32599e-06
3.24805e-05
-4.54887e-06
3.29036e-05
-4.77282e-06
3.33418e-05
-4.9967e-06
3.37943e-05
-5.21934e-06
3.42606e-05
-5.4395e-06
3.47397e-05
-5.65594e-06
3.52307e-05
-5.86734e-06
3.57326e-05
-6.07241e-06
3.62442e-05
-6.26982e-06
3.67643e-05
-6.45822e-06
3.72914e-05
-6.63631e-06
3.78241e-05
-6.80276e-06
3.8361e-05
-6.95628e-06
3.89003e-05
-7.09563e-06
3.94405e-05
-7.21957e-06
3.99797e-05
-7.32694e-06
4.05163e-05
-7.41662e-06
4.10485e-05
-7.48754e-06
4.15743e-05
-7.5387e-06
4.2092e-05
-7.56917e-06
4.25998e-05
-7.57807e-06
4.30958e-05
-7.56463e-06
4.35782e-05
-7.52811e-06
4.40453e-05
-7.46787e-06
4.44954e-05
-7.38337e-06
4.49269e-05
-7.27413e-06
4.53383e-05
-7.13974e-06
4.57281e-05
-6.9799e-06
4.60951e-05
-6.7944e-06
4.64383e-05
-6.58311e-06
4.67565e-05
-6.34599e-06
4.70492e-05
-6.08312e-06
4.73157e-05
-5.79466e-06
4.75558e-05
-5.4809e-06
4.77695e-05
-5.14223e-06
4.79571e-05
-4.77917e-06
4.81191e-05
-4.39239e-06
4.82565e-05
-3.98267e-06
4.83705e-05
-3.55098e-06
4.84626e-05
-3.09841e-06
4.85349e-05
-2.62626e-06
4.85895e-05
-2.13598e-06
4.8629e-05
-1.62923e-06
4.86561e-05
-1.10781e-06
4.86736e-05
-5.73565e-07
4.86841e-05
-2.80215e-08
4.869e-05
5.26896e-07
4.86944e-05
1.08812e-06
4.86996e-05
1.65272e-06
4.87078e-05
2.21779e-06
4.87206e-05
2.78058e-06
4.87392e-05
3.33849e-06
4.8764e-05
3.8893e-06
4.87948e-05
4.43138e-06
4.96448e-06
4.8831e-05
2.81207e-05
-6.83805e-07
2.82404e-05
-1.1798e-06
2.83907e-05
-1.45305e-06
2.85558e-05
-1.56979e-06
2.87254e-05
-1.597e-06
2.88941e-05
-1.59192e-06
2.90607e-05
-1.59317e-06
2.92266e-05
-1.61979e-06
2.93944e-05
-1.67634e-06
2.95671e-05
-1.75974e-06
2.97471e-05
-1.86455e-06
2.99364e-05
-1.98596e-06
3.01365e-05
-2.1207e-06
3.03486e-05
-2.2669e-06
3.05733e-05
-2.42358e-06
3.08113e-05
-2.59022e-06
3.10631e-05
-2.76644e-06
3.13291e-05
-2.95183e-06
3.16096e-05
-3.14591e-06
3.19049e-05
-3.3481e-06
3.22152e-05
-3.55773e-06
3.25406e-05
-3.77404e-06
3.28811e-05
-3.99618e-06
3.32366e-05
-4.22324e-06
3.3607e-05
-4.45424e-06
3.3992e-05
-4.68811e-06
3.43913e-05
-4.92375e-06
3.48042e-05
-5.15997e-06
3.52302e-05
-5.39554e-06
3.56686e-05
-5.62918e-06
3.61185e-05
-5.85955e-06
3.6579e-05
-6.0853e-06
3.70491e-05
-6.30502e-06
3.75275e-05
-6.51731e-06
3.80131e-05
-6.72074e-06
3.85044e-05
-6.91391e-06
3.9e-05
-7.09539e-06
3.94984e-05
-7.26382e-06
3.99981e-05
-7.41782e-06
4.04974e-05
-7.55609e-06
4.09945e-05
-7.67737e-06
4.14878e-05
-7.78043e-06
4.19756e-05
-7.86413e-06
4.2456e-05
-7.92739e-06
4.29273e-05
-7.9692e-06
4.33876e-05
-7.98864e-06
4.38354e-05
-7.98486e-06
4.42688e-05
-7.9571e-06
4.46863e-05
-7.90469e-06
4.50863e-05
-7.82707e-06
4.54672e-05
-7.72374e-06
4.58278e-05
-7.59434e-06
4.61667e-05
-7.43859e-06
4.64828e-05
-7.2563e-06
4.67752e-05
-7.04743e-06
4.7043e-05
-6.81201e-06
4.72858e-05
-6.5502e-06
4.75031e-05
-6.26228e-06
4.76948e-05
-5.94865e-06
4.78611e-05
-5.60983e-06
4.80022e-05
-5.24649e-06
4.8119e-05
-4.85942e-06
4.82122e-05
-4.44955e-06
4.82832e-05
-4.01796e-06
4.83335e-05
-3.56588e-06
4.83649e-05
-3.0947e-06
4.83793e-05
-2.60593e-06
4.83791e-05
-2.10124e-06
4.83667e-05
-1.58243e-06
4.83443e-05
-1.05133e-06
4.83146e-05
-5.09747e-07
4.82796e-05
4.09541e-08
4.82417e-05
5.98677e-07
4.82033e-05
1.1604e-06
4.81667e-05
1.72331e-06
4.81337e-05
2.2848e-06
4.81059e-05
2.84248e-06
4.80844e-05
3.3942e-06
4.807e-05
3.93817e-06
4.80628e-05
4.47319e-06
4.99936e-06
4.80627e-05
3.00882e-05
-7.54237e-07
3.02128e-05
-1.30395e-06
3.03694e-05
-1.60888e-06
3.05417e-05
-1.74094e-06
3.07189e-05
-1.7726e-06
3.08952e-05
-1.7662e-06
3.1069e-05
-1.76448e-06
3.12415e-05
-1.78926e-06
3.14153e-05
-1.84645e-06
3.15931e-05
-1.93329e-06
3.17777e-05
-2.04403e-06
3.1971e-05
-2.17333e-06
3.21745e-05
-2.31738e-06
3.23892e-05
-2.47386e-06
3.2616e-05
-2.64149e-06
3.28553e-05
-2.81956e-06
3.31076e-05
-3.00753e-06
3.33732e-05
-3.20492e-06
3.36522e-05
-3.41116e-06
3.39449e-05
-3.6256e-06
3.42514e-05
-3.8475e-06
3.45715e-05
-4.07602e-06
3.49052e-05
-4.31022e-06
3.52523e-05
-4.54912e-06
3.56125e-05
-4.79164e-06
3.59854e-05
-5.03661e-06
3.63704e-05
-5.28283e-06
3.6767e-05
-5.52902e-06
3.71743e-05
-5.77385e-06
3.75915e-05
-6.01592e-06
3.80177e-05
-6.25382e-06
3.84518e-05
-6.48607e-06
3.88927e-05
-6.71119e-06
3.9339e-05
-6.92769e-06
3.97895e-05
-7.13406e-06
4.02426e-05
-7.32881e-06
4.0697e-05
-7.51047e-06
4.1151e-05
-7.67759e-06
4.16031e-05
-7.82877e-06
4.20515e-05
-7.96265e-06
4.24946e-05
-8.07794e-06
4.29307e-05
-8.17341e-06
4.33581e-05
-8.2479e-06
4.37751e-05
-8.30034e-06
4.41799e-05
-8.32973e-06
4.45711e-05
-8.33519e-06
4.49468e-05
-8.31591e-06
4.53057e-05
-8.27119e-06
4.56463e-05
-8.20045e-06
4.59672e-05
-8.1032e-06
4.62672e-05
-7.97907e-06
4.65451e-05
-7.82781e-06
4.68001e-05
-7.64927e-06
4.70312e-05
-7.44345e-06
4.7238e-05