/*--------------------------------*- C++ -*----------------------------------*\
  =========                 |
  \\      /  F ield         | OpenFOAM: The Open Source CFD Toolbox
   \\    /   O peration     | Website:  https://openfoam.org
    \\  /    A nd           | Version:  7
     \\/     M anipulation  |
\*---------------------------------------------------------------------------*/
FoamFile
{
    version     2.0;
    format      ascii;
    class       volScalarField;
    location    "4.75";
    object      T;
}
// * * * * * * * * * * * * * * * * * * * * * * * * * * * * * * * * * * * * * //

dimensions      [0 0 0 1 0 0 0];

internalField   nonuniform List<scalar> 
12013
(
300.059
300.179
300.302
300.427
300.555
300.683
300.812
300.94
301.068
301.196
301.322
301.446
301.569
301.69
301.809
301.926
302.042
302.155
302.267
302.377
302.486
302.593
302.7
302.806
302.911
303.016
303.122
303.228
303.336
303.445
303.556
303.671
303.789
303.912
304.039
304.173
304.314
304.463
304.621
304.79
304.971
305.165
305.374
305.599
305.843
306.108
306.396
306.709
307.049
307.42
307.825
308.266
308.747
309.272
309.845
310.47
311.151
311.895
312.706
313.59
314.554
315.604
316.749
317.997
319.356
320.838
322.453
324.214
326.136
328.235
330.53
333.043
335.8
338.833
342.182
345.898
350.047
354.726
360.078
366.344
373.985
300.059
300.179
300.302
300.428
300.555
300.683
300.812
300.941
301.069
301.196
301.322
301.447
301.57
301.691
301.81
301.927
302.043
302.156
302.268
302.378
302.487
302.595
302.701
302.807
302.912
303.017
303.123
303.229
303.337
303.446
303.558
303.672
303.79
303.913
304.041
304.174
304.315
304.464
304.622
304.791
304.972
305.166
305.374
305.6
305.844
306.109
306.396
306.709
307.049
307.42
307.824
308.265
308.745
309.27
309.842
310.466
311.147
311.89
312.7
313.583
314.545
315.594
316.737
317.981
319.338
320.815
322.426
324.181
326.096
328.186
330.469
332.968
335.706
338.713
342.027
345.692
349.766
354.325
359.466
365.31
371.969
300.059
300.179
300.302
300.428
300.556
300.684
300.813
300.942
301.07
301.198
301.324
301.449
301.572
301.693
301.812
301.93
302.045
302.159
302.271
302.381
302.49
302.597
302.704
302.81
302.915
303.02
303.126
303.232
303.34
303.449
303.561
303.675
303.794
303.916
304.044
304.177
304.318
304.467
304.625
304.794
304.974
305.168
305.376
305.602
305.845
306.11
306.397
306.709
307.049
307.419
307.823
308.262
308.742
309.266
309.837
310.46
311.139
311.88
312.687
313.567
314.526
315.571
316.709
317.948
319.297
320.766
322.366
324.109
326.008
328.079
330.337
332.804
335.501
338.454
341.694
345.256
349.182
353.518
358.309
363.58
369.291
300.059
300.179
300.303
300.429
300.557
300.686
300.815
300.944
301.072
301.2
301.327
301.451
301.575
301.696
301.816
301.933
302.049
302.163
302.275
302.385
302.494
302.602
302.709
302.815
302.92
303.025
303.131
303.238
303.345
303.454
303.566
303.68
303.799
303.921
304.049
304.182
304.323
304.471
304.629
304.798
304.978
305.171
305.38
305.604
305.848
306.112
306.398
306.71
307.049
307.418
307.82
308.259
308.737
309.259
309.828
310.448
311.125
311.862
312.665
313.541
314.494
315.532
316.662
317.892
319.23
320.685
322.269
323.991
325.865
327.903
330.123
332.539
335.171
338.041
341.17
344.582
348.303
352.35
356.732
361.427
366.363
300.059
300.18
300.304
300.43
300.558
300.687
300.817
300.947
301.076
301.204
301.33
301.456
301.579
301.701
301.821
301.939
302.055
302.169
302.281
302.392
302.501
302.609
302.716
302.822
302.927
303.033
303.139
303.245
303.353
303.462
303.574
303.688
303.806
303.928
304.056
304.189
304.33
304.478
304.636
304.804
304.983
305.177
305.384
305.609
305.851
306.114
306.4
306.71
307.048
307.416
307.817
308.253
308.73
309.249
309.815
310.431
311.104
311.836
312.634
313.502
314.448
315.476
316.595
317.811
319.132
320.568
322.127
323.82
325.657
327.652
329.816
332.163
334.709
337.467
340.453
343.679
347.156
350.884
354.851
359.02
363.327
300.06
300.181
300.305
300.432
300.561
300.69
300.82
300.95
301.08
301.208
301.336
301.462
301.586
301.708
301.828
301.947
302.063
302.178
302.29
302.401
302.511
302.619
302.726
302.832
302.938
303.043
303.149
303.256
303.363
303.472
303.584
303.698
303.816
303.938
304.066
304.199
304.339
304.487
304.644
304.812
304.991
305.184
305.391
305.614
305.856
306.118
306.403
306.712
307.048
307.413
307.812
308.246
308.719
309.235
309.796
310.408
311.075
311.801
312.591
313.45
314.384
315.399
316.502
317.7
318.999
320.408
321.935
323.59
325.38
327.317
329.411
331.671
334.109
336.733
339.551
342.567
345.782
349.185
352.756
356.459
360.243
300.06
300.182
300.307
300.434
300.563
300.694
300.825
300.955
301.086
301.215
301.343
301.469
301.594
301.717
301.838
301.957
302.074
302.189
302.302
302.413
302.523
302.631
302.739
302.845
302.951
303.057
303.163
303.269
303.377
303.486
303.598
303.712
303.83
303.952
304.079
304.212
304.352
304.499
304.656
304.823
305.002
305.193
305.4
305.622
305.863
306.123
306.406
306.713
307.047
307.41
307.806
308.236
308.705
309.216
309.773
310.378
311.037
311.754
312.534
313.381
314.301
315.299
316.382
317.556
318.827
320.203
321.69
323.296
325.028
326.895
328.904
331.062
333.374
335.847
338.48
341.274
344.222
347.309
350.514
353.807
357.147
300.06
300.183
300.309
300.437
300.567
300.699
300.83
300.962
301.093
301.223
301.352
301.48
301.605
301.729
301.85
301.97
302.088
302.203
302.317
302.429
302.539
302.648
302.756
302.862
302.969
303.075
303.181
303.287
303.395
303.504
303.616
303.73
303.848
303.969
304.096
304.229
304.368
304.515
304.671
304.838
305.015
305.206
305.411
305.632
305.871
306.13
306.41
306.715
307.046
307.406
307.798
308.224
308.688
309.193
309.742
310.34
310.989
311.695
312.462
313.294
314.196
315.174
316.232
317.376
318.613
319.947
321.386
322.934
324.598
326.384
328.295
330.337
332.512
334.821
337.262
339.83
342.516
345.304
348.176
351.105
354.063
300.061
300.184
300.311
300.441
300.572
300.704
300.837
300.97
301.103
301.234
301.364
301.492
301.619
301.744
301.866
301.987
302.105
302.222
302.336
302.449
302.559
302.669
302.777
302.884
302.991
303.097
303.203
303.31
303.418
303.527
303.639
303.753
303.87
303.992
304.118
304.25
304.389
304.535
304.691
304.856
305.033
305.222
305.425
305.645
305.882
306.138
306.416
306.718
307.045
307.401
307.788
308.209
308.667
309.164
309.705
310.292
310.93
311.623
312.373
313.187
314.067
315.019
316.048
317.158
318.353
319.64
321.022
322.504
324.09
325.784
327.589
329.505
331.534
333.674
335.92
338.266
340.701
343.211
345.781
348.388
351.011
300.061
300.186
300.314
300.445
300.578
300.712
300.846
300.981
301.114
301.247
301.379
301.508
301.636
301.762
301.886
302.008
302.127
302.245
302.36
302.473
302.585
302.695
302.804
302.911
303.018
303.125
303.232
303.339
303.446
303.556
303.667
303.781
303.898
304.019
304.145
304.277
304.415
304.56
304.715
304.879
305.054
305.242
305.444
305.661
305.895
306.149
306.424
306.722
307.045
307.396
307.777
308.191
308.641
309.129
309.66
310.235
310.859
311.535
312.267
313.058
313.913
314.836
315.83
316.899
318.048
319.279
320.598
322.006
323.507
325.102
326.792
328.577
330.456
332.425
334.479
336.61
338.81
341.064
343.36
345.681
348.009
300.062
300.189
300.318
300.451
300.585
300.721
300.857
300.993
301.129
301.263
301.397
301.528
301.658
301.785
301.91
302.034
302.154
302.273
302.389
302.504
302.616
302.727
302.837
302.945
303.052
303.159
303.266
303.374
303.482
303.591
303.702
303.816
303.933
304.053
304.179
304.309
304.447
304.591
304.744
304.907
305.081
305.267
305.466
305.681
305.912
306.163
306.433
306.727
307.045
307.39
307.764
308.17
308.61
309.088
309.606
310.167
310.775
311.432
312.142
312.908
313.733
314.621
315.576
316.6
317.696
318.867
320.116
321.444
322.853
324.344
325.915
327.566
329.295
331.096
332.964
334.892
336.872
338.892
340.941
343.006
345.074
300.063
300.191
300.323
300.458
300.595
300.732
300.871
301.009
301.147
301.283
301.419
301.552
301.684
301.813
301.94
302.065
302.187
302.308
302.425
302.541
302.655
302.766
302.877
302.986
303.094
303.202
303.309
303.416
303.524
303.634
303.745
303.858
303.975
304.095
304.22
304.35
304.486
304.629
304.781
304.942
305.114
305.297
305.494
305.706
305.934
306.18
306.446
306.734
307.046
307.383
307.75
308.146
308.576
309.041
309.545
310.09
310.678
311.313
311.998
312.734
313.527
314.377
315.287
316.261
317.3
318.405
319.58
320.824
322.137
323.52
324.972
326.489
328.069
329.708
331.399
333.137
334.914
336.72
338.546
340.383
342.22
300.064
300.195
300.329
300.466
300.605
300.746
300.887
301.028
301.168
301.307
301.445
301.581
301.715
301.847
301.976
302.103
302.228
302.349
302.469
302.586
302.701
302.814
302.926
303.036
303.144
303.253
303.36
303.468
303.576
303.686
303.797
303.91
304.026
304.146
304.269
304.398
304.533
304.675
304.825
304.984
305.154
305.334
305.528
305.736
305.96
306.202
306.462
306.744
307.048
307.378
307.735
308.12
308.537
308.989
309.476
310.002
310.568
311.179
311.835
312.54
313.295
314.103
314.966
315.885
316.863
317.9
318.996
320.153
321.369
322.644
323.976
325.362
326.799
328.282
329.808
331.369
332.959
334.571
336.198
337.83
339.461
300.066
300.199
300.336
300.476
300.619
300.762
300.906
301.051
301.194
301.337
301.478
301.617
301.753
301.888
302.02
302.149
302.276
302.4
302.521
302.64
302.757
302.871
302.984
303.095
303.205
303.314
303.422
303.531
303.639
303.749
303.859
303.972
304.088
304.207
304.33
304.457
304.591
304.731
304.879
305.036
305.202
305.38
305.57
305.774
305.993
306.229
306.483
306.758
307.054
307.374
307.72
308.093
308.496
308.931
309.4
309.905
310.447
311.031
311.656
312.325
313.041
313.804
314.616
315.478
316.392
317.357
318.373
319.442
320.56
321.728
322.943
324.203
325.503
326.841
328.211
329.609
331.03
332.466
333.913
335.363
336.811
300.067
300.204
300.345
300.489
300.635
300.782
300.93
301.078
301.225
301.371
301.516
301.659
301.799
301.937
302.072
302.204
302.334
302.46
302.584
302.705
302.824
302.94
303.054
303.167
303.278
303.388
303.497
303.605
303.714
303.824
303.934
304.047
304.162
304.28
304.402
304.528
304.66
304.798
304.944
305.098
305.261
305.435
305.621
305.82
306.034
306.264
306.511
306.777
307.064
307.373
307.707
308.066
308.454
308.87
309.319
309.801
310.317
310.871
311.463
312.094
312.768
313.483
314.242
315.045
315.893
316.785
317.722
318.702
319.725
320.789
321.891
323.03
324.202
325.403
326.631
327.879
329.145
330.423
331.708
332.996
334.28
300.069
300.21
300.355
300.503
300.654
300.805
300.958
301.11
301.262
301.413
301.562
301.709
301.854
301.995
302.134
302.27
302.403
302.532
302.659
302.783
302.904
303.022
303.138
303.252
303.364
303.475
303.585
303.694
303.804
303.913
304.024
304.136
304.25
304.367
304.488
304.613
304.743
304.879
305.022
305.173
305.333
305.503
305.684
305.877
306.085
306.307
306.546
306.804
307.08
307.378
307.698
308.042
308.412
308.809
309.235
309.692
310.181
310.703
311.259
311.852
312.481
313.147
313.852
314.595
315.376
316.196
317.053
317.948
318.877
319.841
320.837
321.862
322.913
323.989
325.085
326.198
327.323
328.459
329.599
330.741
331.88
300.072
300.217
300.367
300.52
300.676
300.833
300.991
301.149
301.307
301.463
301.617
301.769
301.918
302.065
302.208
302.348
302.485
302.618
302.748
302.875
302.998
303.119
303.237
303.353
303.467
303.579
303.69
303.8
303.91
304.02
304.13
304.242
304.355
304.471
304.591
304.714
304.842
304.975
305.115
305.263
305.419
305.584
305.76
305.948
306.148
306.363
306.593
306.84
307.105
307.39
307.695
308.023
308.374
308.75
309.153
309.583
310.042
310.531
311.051
311.603
312.186
312.803
313.453
314.136
314.852
315.6
316.381
317.192
318.033
318.901
319.796
320.715
321.656
322.616
323.592
324.581
325.581
326.588
327.599
328.61
329.62
300.074
300.226
300.382
300.541
300.703
300.866
301.031
301.195
301.359
301.521
301.682
301.84
301.995
302.147
302.295
302.44
302.582
302.719
302.853
302.983
303.11
303.234
303.355
303.473
303.589
303.702
303.815
303.926
304.036
304.146
304.256
304.367
304.48
304.595
304.713
304.834
304.96
305.091
305.227
305.371
305.522
305.683
305.853
306.034
306.227
306.433
306.653
306.889
307.142
307.413
307.702
308.013
308.344
308.698
309.076
309.479
309.908
310.363
310.845
311.355
311.893
312.46
313.055
313.679
314.331
315.011
315.717
316.449
317.206
317.986
318.787
319.608
320.447
321.301
322.168
323.046
323.932
324.824
325.719
326.615
327.509
300.078
300.236
300.399
300.565
300.734
300.906
301.078
301.25
301.421
301.591
301.758
301.923
302.085
302.244
302.399
302.549
302.696
302.839
302.977
303.112
303.243
303.37
303.494
303.614
303.732
303.848
303.961
304.073
304.184
304.295
304.405
304.516
304.628
304.742
304.858
304.977
305.1
305.228
305.361
305.5
305.647
305.802
305.966
306.14
306.324
306.521
306.732
306.956
307.195
307.451
307.724
308.016
308.327
308.658
309.011
309.385
309.783
310.203
310.648
311.117
311.61
312.128
312.67
313.236
313.827
314.441
315.077
315.735
316.413
317.11
317.825
318.556
319.302
320.06
320.828
321.606
322.39
323.179
323.971
324.764
325.555
300.082
300.248
300.419
300.594
300.772
300.952
301.133
301.314
301.494
301.673
301.849
302.022
302.192
302.358
302.52
302.678
302.831
302.979
303.123
303.263
303.398
303.529
303.657
303.78
303.901
304.019
304.134
304.247
304.359
304.47
304.58
304.691
304.802
304.915
305.029
305.146
305.266
305.391
305.52
305.655
305.797
305.946
306.103
306.269
306.445
306.633
306.832
307.044
307.27
307.51
307.766
308.039
308.329
308.637
308.963
309.31
309.676
310.062
310.469
310.897
311.347
311.817
312.308
312.82
313.352
313.904
314.474
315.063
315.668
316.289
316.925
317.574
318.235
318.907
319.587
320.274
320.968
321.665
322.365
323.065
323.765
300.086
300.262
300.442
300.628
300.816
301.006
301.198
301.389
301.58
301.769
301.955
302.138
302.318
302.493
302.663
302.829
302.989
303.145
303.295
303.44
303.581
303.716
303.848
303.975
304.099
304.219
304.337
304.452
304.565
304.676
304.787
304.897
305.007
305.118
305.231
305.346
305.463
305.584
305.71
305.84
305.976
306.119
306.269
306.427
306.594
306.772
306.959
307.159
307.371
307.595
307.834
308.087
308.356
308.641
308.942
309.26
309.595
309.948
310.319
310.708
311.115
311.54
311.983
312.443
312.92
313.414
313.923
314.448
314.986
315.538
316.102
316.677
317.262
317.856
318.456
319.064
319.675
320.291
320.909
321.527
322.146
300.092
300.278
300.47
300.667
300.868
301.071
301.274
301.478
301.681
301.882
302.081
302.275
302.465
302.651
302.831
303.006
303.175
303.338
303.496
303.648
303.794
303.936
304.072
304.204
304.331
304.454
304.574
304.691
304.805
304.918
305.028
305.138
305.248
305.358
305.469
305.581
305.696
305.813
305.935
306.06
306.19
306.327
306.47
306.62
306.778
306.944
307.121
307.307
307.505
307.714
307.935
308.169
308.417
308.678
308.954
309.245
309.55
309.871
310.207
310.559
310.926
311.308
311.706
312.118
312.544
312.984
313.438
313.904
314.382
314.871
315.37
315.878
316.394
316.918
317.448
317.983
318.523
319.066
319.611
320.157
320.703
300.098
300.298
300.503
300.714
300.929
301.146
301.365
301.583
301.801
302.016
302.228
302.435
302.638
302.836
303.028
303.213
303.392
303.565
303.731
303.891
304.044
304.192
304.334
304.47
304.602
304.729
304.851
304.97
305.086
305.2
305.311
305.421
305.53
305.639
305.748
305.858
305.97
306.084
306.201
306.321
306.446
306.576
306.711
306.853
307.001
307.158
307.323
307.496
307.68
307.873
308.077
308.293
308.52
308.759
309.011
309.275
309.552
309.842
310.146
310.462
310.792
311.134
311.49
311.857
312.237
312.629
313.031
313.444
313.867
314.299
314.74
315.189
315.644
316.106
316.573
317.044
317.52
317.998
318.478
318.96
319.442
300.106
300.32
300.542
300.769
301.001
301.235
301.471
301.706
301.94
302.172
302.4
302.623
302.841
303.053
303.258
303.455
303.646
303.83
304.006
304.174
304.336
304.491
304.639
304.781
304.917
305.048
305.175
305.296
305.414
305.529
305.641
305.751
305.86
305.968
306.075
306.183
306.291
306.402
306.514
306.63
306.749
306.872
307
307.134
307.273
307.42
307.573
307.734
307.904
308.082
308.27
308.467
308.674
308.892
309.121
309.36
309.611
309.872
310.145
310.429
310.724
311.031
311.347
311.675
312.012
312.359
312.716
313.081
313.455
313.837
314.225
314.621
315.022
315.428
315.839
316.255
316.673
317.094
317.517
317.941
318.366
300.114
300.347
300.588
300.834
301.085
301.34
301.595
301.851
302.105
302.355
302.602
302.843
303.078
303.306
303.526
303.739
303.943
304.138
304.326
304.505
304.675
304.838
304.994
305.143
305.284
305.42
305.55
305.675
305.796
305.912
306.025
306.136
306.244
306.351
306.457
306.562
306.668
306.775
306.884
306.994
307.108
307.224
307.345
307.471
307.601
307.738
307.88
308.029
308.185
308.349
308.521
308.702
308.89
309.088
309.295
309.512
309.738
309.973
310.218
310.472
310.736
311.009
311.291
311.582
311.881
312.188
312.504
312.827
313.157
313.493
313.836
314.184
314.537
314.895
315.257
315.622
315.991
316.361
316.734
317.107
317.482
300.125
300.379
300.641
300.911
301.185
301.462
301.742
302.02
302.297
302.57
302.839
303.101
303.355
303.602
303.84
304.069
304.288
304.498
304.698
304.888
305.07
305.242
305.406
305.562
305.71
305.851
305.986
306.115
306.238
306.357
306.471
306.582
306.69
306.796
306.901
307.004
307.108
307.211
307.316
307.422
307.53
307.64
307.754
307.872
307.994
308.121
308.253
308.391
308.535
308.685
308.842
309.007
309.179
309.358
309.545
309.741
309.944
310.155
310.375
310.602
310.837
311.081
311.331
311.59
311.855
312.127
312.406
312.692
312.983
313.28
313.582
313.888
314.2
314.514
314.833
315.154
315.478
315.805
316.132
316.462
316.792
300.137
300.416
300.705
301
301.302
301.607
301.913
302.219
302.523
302.822
303.116
303.402
303.679
303.947
304.205
304.453
304.69
304.915
305.13
305.334
305.527
305.71
305.884
306.048
306.203
306.35
306.49
306.623
306.749
306.87
306.987
307.099
307.207
307.313
307.416
307.518
307.618
307.719
307.82
307.921
308.024
308.129
308.237
308.347
308.461
308.579
308.702
308.829
308.961
309.099
309.243
309.393
309.549
309.712
309.882
310.058
310.241
310.431
310.628
310.831
311.041
311.258
311.481
311.71
311.946
312.187
312.434
312.686
312.944
313.206
313.472
313.742
314.016
314.294
314.574
314.857
315.143
315.43
315.719
316.009
316.3
300.152
300.46
300.779
301.106
301.44
301.777
302.115
302.453
302.788
303.117
303.439
303.753
304.057
304.35
304.631
304.9
305.156
305.4
305.631
305.85
306.056
306.251
306.435
306.608
306.771
306.925
307.071
307.208
307.339
307.462
307.581
307.694
307.803
307.908
308.011
308.111
308.209
308.307
308.404
308.502
308.6
308.7
308.801
308.905
309.012
309.122
309.236
309.354
309.476
309.603
309.734
309.871
310.014
310.162
310.316
310.475
310.64
310.811
310.987
311.17
311.357
311.551
311.75
311.954
312.163
312.378
312.596
312.82
313.048
313.279
313.515
313.753
313.995
314.24
314.487
314.737
314.988
315.242
315.496
315.752
316.008
300.169
300.512
300.867
301.231
301.602
301.976
302.353
302.727
303.098
303.462
303.818
304.163
304.497
304.818
305.125
305.418
305.697
305.961
306.21
306.445
306.667
306.875
307.07
307.253
307.425
307.586
307.738
307.88
308.015
308.142
308.262
308.377
308.487
308.592
308.694
308.793
308.89
308.985
309.079
309.173
309.267
309.362
309.459
309.557
309.657
309.76
309.866
309.975
310.088
310.205
310.327
310.453
310.583
310.718
310.858
311.002
311.151
311.306
311.465
311.629
311.797
311.971
312.148
312.331
312.517
312.708
312.903
313.101
313.304
313.509
313.717
313.929
314.143
314.359
314.578
314.798
315.021
315.244
315.469
315.695
315.921
300.189
300.573
300.97
301.378
301.793
302.211
302.631
303.049
303.461
303.866
304.26
304.642
305.009
305.362
305.699
306.019
306.322
306.608
306.878
307.131
307.368
307.59
307.798
307.992
308.173
308.342
308.5
308.648
308.787
308.917
309.04
309.157
309.268
309.373
309.475
309.573
309.668
309.761
309.853
309.944
310.035
310.126
310.218
310.311
310.406
310.503
310.602
310.704
310.81
310.919
311.031
311.147
311.267
311.391
311.518
311.65
311.786
311.926
312.07
312.218
312.37
312.526
312.686
312.85
313.017
313.188
313.362
313.539
313.719
313.902
314.087
314.275
314.465
314.657
314.851
315.046
315.243
315.441
315.64
315.84
316.04
300.213
300.646
301.093
301.551
302.017
302.488
302.959
303.426
303.887
304.337
304.775
305.198
305.605
305.993
306.362
306.712
307.042
307.353
307.644
307.916
308.171
308.408
308.628
308.833
309.024
309.202
309.367
309.52
309.664
309.798
309.924
310.042
310.154
310.26
310.362
310.46
310.554
310.646
310.736
310.824
310.912
311
311.088
311.178
311.268
311.36
311.454
311.551
311.65
311.752
311.857
311.965
312.076
312.19
312.308
312.429
312.553
312.681
312.813
312.948
313.086
313.227
313.372
313.52
313.67
313.824
313.98
314.139
314.301
314.464
314.63
314.798
314.967
315.138
315.311
315.484
315.659
315.835
316.011
316.189
316.366
300.241
300.731
301.237
301.755
302.282
302.813
303.343
303.868
304.384
304.888
305.375
305.845
306.294
306.722
307.127
307.509
307.869
308.205
308.519
308.812
309.084
309.336
309.57
309.787
309.987
310.173
310.345
310.504
310.652
310.79
310.919
311.039
311.153
311.26
311.362
311.46
311.554
311.645
311.734
311.821
311.907
311.993
312.078
312.165
312.252
312.34
312.43
312.522
312.617
312.713
312.812
312.914
313.018
313.125
313.234
313.347
313.462
313.58
313.701
313.825
313.951
314.081
314.213
314.347
314.484
314.623
314.765
314.908
315.053
315.201
315.35
315.5
315.652
315.805
315.959
316.114
316.27
316.426
316.583
316.741
316.899
300.274
300.832
301.407
301.996
302.594
303.195
303.794
304.386
304.965
305.529
306.072
306.593
307.09
307.561
308.004
308.421
308.811
309.174
309.512
309.825
310.115
310.382
310.629
310.857
311.066
311.26
311.438
311.603
311.756
311.897
312.029
312.152
312.267
312.376
312.479
312.578
312.672
312.763
312.852
312.938
313.024
313.109
313.193
313.278
313.363
313.449
313.537
313.626
313.717
313.81
313.904
314.001
314.099
314.2
314.303
314.409
314.517
314.627
314.74
314.855
314.972
315.091
315.212
315.336
315.461
315.588
315.717
315.847
315.979
316.112
316.247
316.383
316.519
316.657
316.795
316.934
317.073
317.213
317.353
317.493
317.634
300.313
300.951
301.608
302.28
302.96
303.643
304.322
304.99
305.641
306.272
306.877
307.455
308.003
308.519
309.003
309.455
309.876
310.266
310.627
310.959
311.266
311.547
311.806
312.044
312.262
312.463
312.647
312.817
312.974
313.119
313.254
313.379
313.497
313.608
313.713
313.813
313.909
314.001
314.09
314.178
314.264
314.349
314.434
314.518
314.603
314.689
314.775
314.863
314.952
315.042
315.133
315.227
315.322
315.418
315.517
315.617
315.719
315.823
315.929
316.037
316.146
316.257
316.37
316.484
316.6
316.717
316.835
316.954
317.074
317.196
317.318
317.441
317.564
317.688
317.812
317.937
318.062
318.187
318.312
318.437
318.562
300.359
301.091
301.844
302.613
303.391
304.168
304.937
305.692
306.424
307.128
307.801
308.439
309.04
309.603
310.128
310.615
311.065
311.48
311.861
312.211
312.532
312.826
313.094
313.34
313.566
313.772
313.962
314.136
314.297
314.446
314.584
314.713
314.833
314.947
315.055
315.157
315.256
315.351
315.443
315.532
315.62
315.707
315.794
315.88
315.966
316.052
316.139
316.227
316.315
316.404
316.494
316.586
316.678
316.772
316.867
316.964
317.062
317.161
317.261
317.363
317.466
317.57
317.676
317.782
317.889
317.997
318.106
318.216
318.326
318.436
318.548
318.659
318.771
318.882
318.994
319.106
319.218
319.33
319.441
319.552
319.663
300.414
301.255
302.121
303.004
303.893
304.779
305.652
306.502
307.323
308.107
308.851
309.55
310.204
310.813
311.375
311.892
312.368
312.803
313.201
313.564
313.895
314.198
314.474
314.726
314.957
315.168
315.361
315.539
315.704
315.857
315.998
316.131
316.256
316.374
316.485
316.592
316.695
316.794
316.89
316.983
317.075
317.166
317.255
317.344
317.433
317.522
317.61
317.699
317.788
317.877
317.967
318.057
318.149
318.241
318.334
318.427
318.522
318.617
318.713
318.81
318.908
319.006
319.105
319.204
319.304
319.404
319.504
319.605
319.706
319.806
319.907
320.008
320.109
320.21
320.31
320.41
320.51
320.61
320.708
320.807
320.905
300.477
301.448
302.445
303.459
304.476
305.485
306.472
307.428
308.343
309.209
310.023
310.781
311.483
312.131
312.724
313.265
313.758
314.206
314.613
314.983
315.32
315.626
315.906
316.161
316.395
316.609
316.806
316.988
317.157
317.314
317.461
317.598
317.728
317.852
317.969
318.082
318.19
318.295
318.397
318.496
318.593
318.688
318.782
318.875
318.968
319.059
319.15
319.24
319.331
319.421
319.511
319.602
319.693
319.784
319.875
319.966
320.058
320.15
320.242
320.334
320.426
320.519
320.611
320.704
320.797
320.889
320.981
321.074
321.166
321.257
321.349
321.44
321.53
321.62
321.71
321.798
321.887
321.974
322.062
322.148
322.233
300.551
301.67
302.819
303.983
305.145
306.29
307.402
308.467
309.478
310.424
311.298
312.101
312.836
313.506
314.116
314.668
315.169
315.622
316.033
316.405
316.743
317.051
317.332
317.589
317.824
318.041
318.242
318.428
318.601
318.763
318.915
319.059
319.195
319.325
319.449
319.569
319.684
319.795
319.903
320.008
320.111
320.212
320.311
320.408
320.504
320.599
320.693
320.785
320.878
320.969
321.06
321.151
321.241
321.33
321.42
321.509
321.598
321.686
321.774
321.862
321.949
322.036
322.122
322.208
322.294
322.379
322.463
322.547
322.631
322.713
322.795
322.876
322.957
323.037
323.116
323.194
323.271
323.348
323.423
323.498
323.572
300.633
301.921
303.242
304.575
305.897
307.191
308.429
309.593
310.675
311.673
312.586
313.417
314.171
314.852
315.467
316.022
316.522
316.973
317.381
317.751
318.087
318.392
318.672
318.928
319.164
319.383
319.586
319.775
319.952
320.119
320.276
320.426
320.568
320.704
320.835
320.96
321.082
321.199
321.313
321.424
321.533
321.638
321.742
321.843
321.943
322.04
322.136
322.231
322.325
322.417
322.508
322.598
322.687
322.775
322.863
322.949
323.035
323.12
323.203
323.286
323.369
323.45
323.53
323.61
323.688
323.766
323.843
323.919
323.993
324.067
324.14
324.212
324.283
324.353
324.423
324.491
324.558
324.624
324.689
324.753
324.816
300.721
302.189
303.697
305.216
306.699
308.115
309.444
310.677
311.809
312.839
313.772
314.613
315.369
316.047
316.656
317.202
317.693
318.135
318.535
318.896
319.225
319.525
319.801
320.054
320.289
320.507
320.71
320.901
321.08
321.25
321.411
321.565
321.711
321.852
321.987
322.118
322.244
322.366
322.484
322.599
322.711
322.821
322.927
323.031
323.133
323.233
323.33
323.426
323.52
323.613
323.703
323.793
323.881
323.967
324.052
324.136
324.218
324.299
324.379
324.458
324.535
324.611
324.686
324.76
324.832
324.903
324.973
325.042
325.11
325.176
325.241
325.305
325.368
325.43
325.491
325.55
325.609
325.666
325.722
325.777
325.831
300.795
302.421
304.107
305.77
307.363
308.86
310.246
311.514
312.665
313.702
314.632
315.465
316.209
316.873
317.466
317.998
318.474
318.903
319.291
319.642
319.962
320.255
320.524
320.773
321.004
321.219
321.421
321.611
321.79
321.96
322.122
322.277
322.425
322.568
322.705
322.837
322.965
323.089
323.21
323.327
323.44
323.551
323.659
323.764
323.867
323.968
324.066
324.162
324.256
324.349
324.439
324.528
324.614
324.7
324.783
324.865
324.945
325.024
325.101
325.177
325.251
325.323
325.395
325.464
325.533
325.6
325.665
325.73
325.793
325.854
325.915
325.974
326.031
326.088
326.143
326.197
326.25
326.302
326.353
326.402
326.451
384.172
392.125
398.805
404.62
409.772
414.371
418.482
422.137
425.355
428.137
430.472
432.341
433.708
434.529
434.736
434.241
432.914
430.561
426.85
421.123
411.733
405.362
400.473
396.463
393.044
390.056
387.395
384.994
382.804
380.788
378.918
377.173
375.534
373.986
372.519
371.121
369.783
368.5
367.263
366.068
364.91
363.784
362.687
361.615
360.566
359.536
358.523
357.525
356.541
355.569
354.607
353.654
352.709
351.771
350.839
349.913
348.991
348.073
347.16
346.25
345.344
344.442
343.543
342.647
341.755
340.867
339.982
339.102
338.225
337.353
336.486
335.623
334.766
333.915
333.07
332.232
331.401
330.579
329.764
328.959
328.164
327.379
326.605
325.843
325.094
324.357
323.635
322.927
322.234
321.557
320.896
320.252
319.624
319.014
318.422
317.848
317.293
316.755
316.237
315.736
315.255
314.792
314.347
313.921
313.513
313.122
312.749
312.393
312.054
311.731
311.424
311.132
310.855
310.592
310.343
310.107
309.884
309.673
309.473
309.284
309.105
308.936
308.776
308.624
308.479
308.342
308.212
308.088
307.969
307.855
307.746
307.641
307.539
307.441
307.345
307.252
307.161
307.072
306.984
306.896
306.81
306.724
306.639
306.553
306.467
306.381
306.294
306.207
306.118
306.029
305.938
305.846
305.753
305.658
305.562
305.464
305.365
305.264
305.162
305.059
304.955
379.421
386.334
392.547
398.119
403.131
407.644
411.699
415.32
418.517
421.289
423.624
425.501
426.886
427.736
427.987
427.56
426.34
424.174
420.845
416.083
409.842
404.441
399.928
396.099
392.783
389.858
387.24
384.87
382.702
380.704
378.848
377.113
375.482
373.942
372.481
371.088
369.755
368.475
367.241
366.049
364.893
363.769
362.674
361.603
360.555
359.526
358.515
357.518
356.535
355.563
354.602
353.649
352.705
351.767
350.835
349.909
348.988
348.07
347.157
346.248
345.342
344.44
343.541
342.645
341.753
340.865
339.98
339.1
338.223
337.351
336.484
335.621
334.764
333.913
333.068
332.23
331.399
330.576
329.762
328.957
328.161
327.376
326.603
325.841
325.091
324.355
323.633
322.925
322.232
321.555
320.894
320.249
319.622
319.012
318.42
317.846
317.29
316.753
316.235
315.735
315.253
314.79
314.346
313.919
313.511
313.121
312.748
312.392
312.053
311.73
311.423
311.131
310.854
310.591
310.343
310.107
309.884
309.673
309.473
309.284
309.105
308.936
308.775
308.624
308.479
308.342
308.212
308.088
307.969
307.855
307.746
307.641
307.54
307.441
307.346
307.253
307.162
307.072
306.984
306.897
306.811
306.725
306.639
306.554
306.468
306.382
306.295
306.207
306.119
306.029
305.939
305.847
305.754
305.659
305.563
305.465
305.366
305.265
305.163
305.06
304.956
375.314
381.232
386.816
391.987
396.735
401.071
405.004
408.543
411.687
414.429
416.754
418.641
420.056
420.959
421.295
420.997
419.978
418.137
415.369
411.629
407.13
402.766
398.824
395.323
392.209
389.418
386.893
384.59
382.473
380.513
378.687
376.977
375.367
373.843
372.395
371.014
369.691
368.419
367.193
366.007
364.856
363.737
362.645
361.578
360.533
359.507
358.497
357.503
356.521
355.551
354.591
353.64
352.696
351.759
350.828
349.903
348.982
348.065
347.152
346.243
345.337
344.435
343.536
342.641
341.749
340.861
339.977
339.096
338.219
337.347
336.48
335.618
334.761
333.909