/*--------------------------------*- C++ -*----------------------------------*\
  =========                 |
  \\      /  F ield         | OpenFOAM: The Open Source CFD Toolbox
   \\    /   O peration     | Website:  https://openfoam.org
    \\  /    A nd           | Version:  7
     \\/     M anipulation  |
\*---------------------------------------------------------------------------*/
FoamFile
{
    version     2.0;
    format      ascii;
    class       volVectorField;
    location    "9.9";
    object      U;
}
// * * * * * * * * * * * * * * * * * * * * * * * * * * * * * * * * * * * * * //

dimensions      [0 1 -1 0 0 0 0];

internalField   nonuniform List<vector> 
12013
(
(0.100988 -0.000263588 0)
(0.104806 -0.000454132 0)
(0.110551 -0.000617726 0)
(0.117669 -0.000761592 0)
(0.125998 -0.000892675 0)
(0.135396 -0.00101645 0)
(0.145766 -0.00113751 0)
(0.157062 -0.0012596 0)
(0.169266 -0.00138525 0)
(0.182376 -0.00151559 0)
(0.196393 -0.00165017 0)
(0.211306 -0.00178711 0)
(0.227083 -0.00192336 0)
(0.243662 -0.00205515 0)
(0.260952 -0.00217854 0)
(0.278838 -0.00228981 0)
(0.29718 -0.00238589 0)
(0.31583 -0.0024645 0)
(0.334631 -0.00252426 0)
(0.35343 -0.00256466 0)
(0.372081 -0.00258591 0)
(0.39045 -0.00258884 0)
(0.408421 -0.0025747 0)
(0.425891 -0.00254502 0)
(0.442777 -0.00250149 0)
(0.459011 -0.00244585 0)
(0.474541 -0.00237978 0)
(0.489329 -0.00230493 0)
(0.50335 -0.0022228 0)
(0.516589 -0.00213474 0)
(0.52904 -0.002042 0)
(0.540706 -0.00194564 0)
(0.551597 -0.00184662 0)
(0.561725 -0.00174576 0)
(0.57111 -0.00164375 0)
(0.579773 -0.0015412 0)
(0.587739 -0.00143861 0)
(0.595033 -0.00133642 0)
(0.601684 -0.00123496 0)
(0.607719 -0.00113454 0)
(0.613169 -0.0010354 0)
(0.618063 -0.000937738 0)
(0.622431 -0.000841693 0)
(0.626301 -0.000747387 0)
(0.629704 -0.000654907 0)
(0.632669 -0.0005643 0)
(0.635223 -0.000475582 0)
(0.637397 -0.000388741 0)
(0.639217 -0.000303732 0)
(0.640709 -0.00022047 0)
(0.641901 -0.000138824 0)
(0.642818 -5.86077e-05 0)
(0.643485 2.03682e-05 0)
(0.643924 9.82723e-05 0)
(0.644161 0.000175284 0)
(0.644218 0.000251685 0)
(0.644117 0.000327854 0)
(0.64388 0.000404254 0)
(0.643526 0.000481444 0)
(0.643074 0.000560102 0)
(0.642542 0.000641053 0)
(0.641946 0.000725307 0)
(0.641299 0.0008141 0)
(0.640612 0.000908961 0)
(0.639895 0.0010118 0)
(0.639153 0.00112502 0)
(0.638385 0.00125171 0)
(0.637586 0.00139585 0)
(0.636745 0.00156277 0)
(0.635836 0.00175966 0)
(0.634824 0.00199655 0)
(0.633648 0.00228792 0)
(0.632222 0.00265539 0)
(0.630409 0.0031327 0)
(0.627998 0.00377514 0)
(0.624653 0.00467826 0)
(0.619815 0.00601741 0)
(0.612498 0.00814103 0)
(0.600921 0.0118721 0)
(0.581933 0.0201571 0)
(0.563086 0.0537094 0)
(0.100896 -0.000802608 0)
(0.104692 -0.00138955 0)
(0.110402 -0.00189049 0)
(0.117491 -0.00233026 0)
(0.125794 -0.00273069 0)
(0.135167 -0.00310851 0)
(0.145515 -0.0034778 0)
(0.156791 -0.00385003 0)
(0.168978 -0.00423298 0)
(0.182076 -0.00463007 0)
(0.196086 -0.00503998 0)
(0.211 -0.0054569 0)
(0.226786 -0.00587155 0)
(0.243383 -0.00627247 0)
(0.260702 -0.00664765 0)
(0.278624 -0.00698587 0)
(0.297011 -0.00727778 0)
(0.315711 -0.00751655 0)
(0.334567 -0.00769804 0)
(0.353424 -0.00782073 0)
(0.372134 -0.00788532 0)
(0.390563 -0.00789433 0)
(0.408592 -0.00785157 0)
(0.426118 -0.00776167 0)
(0.443057 -0.00762974 0)
(0.459341 -0.00746102 0)
(0.474918 -0.00726065 0)
(0.489748 -0.00703354 0)
(0.503808 -0.00678421 0)
(0.517081 -0.00651681 0)
(0.529563 -0.00623504 0)
(0.541257 -0.00594215 0)
(0.552171 -0.00564102 0)
(0.562321 -0.00533411 0)
(0.571724 -0.00502357 0)
(0.580402 -0.0047112 0)
(0.58838 -0.00439855 0)
(0.595685 -0.00408691 0)
(0.602343 -0.00377737 0)
(0.608385 -0.00347082 0)
(0.613838 -0.003168 0)
(0.618734 -0.00286951 0)
(0.623101 -0.00257582 0)
(0.626969 -0.00228728 0)
(0.630369 -0.00200415 0)
(0.633328 -0.00172659 0)
(0.635875 -0.00145466 0)
(0.63804 -0.00118833 0)
(0.639848 -0.000927459 0)
(0.641328 -0.000671786 0)
(0.642506 -0.000420919 0)
(0.643406 -0.0001743 0)
(0.644054 6.86303e-05 0)
(0.644473 0.00030833 0)
(0.644688 0.000545323 0)
(0.64472 0.000780466 0)
(0.644592 0.00101491 0)
(0.644324 0.00125006 0)
(0.643937 0.00148764 0)
(0.64345 0.00172971 0)
(0.642879 0.00197878 0)
(0.642241 0.00223791 0)
(0.641549 0.00251085 0)
(0.640815 0.00280221 0)
(0.640047 0.00311771 0)
(0.639252 0.00346455 0)
(0.63843 0.0038519 0)
(0.637579 0.00429161 0)
(0.636687 0.00479925 0)
(0.635735 0.00539581 0)
(0.634693 0.00611019 0)
(0.633512 0.00698342 0)
(0.632124 0.00807565 0)
(0.630425 0.00947831 0)
(0.628268 0.011336 0)
(0.625439 0.0138872 0)
(0.621637 0.017542 0)
(0.616433 0.0230368 0)
(0.60928 0.0317721 0)
(0.600077 0.046493 0)
(0.596895 0.072439 0)
(0.10079 -0.0013581 0)
(0.104524 -0.00237896 0)
(0.11016 -0.00324249 0)
(0.117186 -0.00400008 0)
(0.125433 -0.00468979 0)
(0.134755 -0.00534039 0)
(0.145058 -0.00597636 0)
(0.156294 -0.00661761 0)
(0.168448 -0.00727775 0)
(0.181522 -0.0079628 0)
(0.195523 -0.00867054 0)
(0.210443 -0.00939101 0)
(0.226253 -0.0101081 0)
(0.242894 -0.0108019 0)
(0.260275 -0.0114514 0)
(0.278277 -0.0120373 0)
(0.296761 -0.012543 0)
(0.315569 -0.0129569 0)
(0.334543 -0.0132716 0)
(0.353522 -0.0134844 0)
(0.372356 -0.0135967 0)
(0.390908 -0.0136128 0)
(0.409057 -0.0135393 0)
(0.426698 -0.0133842 0)
(0.443746 -0.0131565 0)
(0.460131 -0.0128652 0)
(0.4758 -0.0125192 0)
(0.490716 -0.012127 0)
(0.504852 -0.0116965 0)
(0.518195 -0.0112348 0)
(0.53074 -0.0107484 0)
(0.542488 -0.0102428 0)
(0.55345 -0.00972295 0)
(0.563641 -0.00919321 0)
(0.57308 -0.00865722 0)
(0.581788 -0.0081181 0)
(0.589791 -0.00757851 0)
(0.597116 -0.00704069 0)
(0.60379 -0.00650647 0)
(0.609843 -0.00597742 0)
(0.615304 -0.00545479 0)
(0.620204 -0.00493959 0)
(0.624571 -0.00443264 0)
(0.628437 -0.00393453 0)
(0.631829 -0.00344568 0)
(0.634779 -0.00296638 0)
(0.637314 -0.0024967 0)
(0.639462 -0.00203658 0)
(0.641252 -0.00158577 0)
(0.64271 -0.00114381 0)
(0.643862 -0.00071002 0)
(0.644734 -0.00028345 0)
(0.645349 0.000136843 0)
(0.645734 0.000551667 0)
(0.64591 0.000962012 0)
(0.6459 0.00136939 0)
(0.645726 0.00177579 0)
(0.645408 0.00218364 0)
(0.644967 0.00259585 0)
(0.644422 0.00301595 0)
(0.643788 0.0034482 0)
(0.643083 0.00389775 0)
(0.64232 0.00437089 0)
(0.64151 0.0048753 0)
(0.640665 0.00542049 0)
(0.63979 0.00601831 0)
(0.638888 0.00668372 0)
(0.637961 0.00743583 0)
(0.637001 0.00829949 0)
(0.635996 0.00930753 0)
(0.634928 0.0105043 0)
(0.633766 0.011951 0)
(0.632472 0.0137341 0)
(0.630993 0.0159789 0)
(0.629269 0.0188717 0)
(0.62724 0.0226953 0)
(0.624879 0.0278864 0)
(0.62227 0.0351265 0)
(0.619794 0.0454852 0)
(0.618576 0.0605625 0)
(0.622546 0.0818235 0)
(0.100677 -0.0019221 0)
(0.104325 -0.00341633 0)
(0.109854 -0.00466965 0)
(0.116784 -0.00576966 0)
(0.124946 -0.00677076 0)
(0.134191 -0.00771489 0)
(0.144425 -0.00863801 0)
(0.155601 -0.00956945 0)
(0.167707 -0.0105294 0)
(0.180752 -0.0115268 0)
(0.194745 -0.0125588 0)
(0.209684 -0.0136107 0)
(0.225543 -0.0146589 0)
(0.242265 -0.0156741 0)
(0.25976 -0.0166252 0)
(0.277904 -0.0174834 0)
(0.296552 -0.0182245 0)
(0.315544 -0.0188309 0)
(0.334713 -0.0192919 0)
(0.353893 -0.0196036 0)
(0.372929 -0.019768 0)
(0.391679 -0.0197914 0)
(0.410018 -0.0196838 0)
(0.427839 -0.0194571 0)
(0.445055 -0.0191243 0)
(0.461595 -0.0186988 0)
(0.477407 -0.0181937 0)
(0.492452 -0.0176214 0)
(0.506704 -0.0169935 0)
(0.52015 -0.0163203 0)
(0.532786 -0.0156113 0)
(0.544614 -0.0148747 0)
(0.555646 -0.0141175 0)
(0.565897 -0.0133462 0)
(0.575386 -0.0125659 0)
(0.584137 -0.0117813 0)
(0.592175 -0.0109961 0)
(0.599527 -0.0102136 0)
(0.606223 -0.00943644 0)
(0.612291 -0.00866686 0)
(0.617761 -0.00790666 0)
(0.622665 -0.00715729 0)
(0.627032 -0.00641987 0)
(0.630891 -0.00569527 0)
(0.634274 -0.00498408 0)
(0.637209 -0.00428666 0)
(0.639726 -0.0036031 0)
(0.641852 -0.00293328 0)
(0.643615 -0.00227682 0)
(0.645041 -0.00163306 0)
(0.646159 -0.00100098 0)
(0.646991 -0.000379227 0)
(0.647564 0.000233536 0)
(0.647901 0.000838495 0)
(0.648026 0.00143722 0)
(0.647961 0.00203197 0)
(0.647728 0.00262561 0)
(0.647347 0.00322163 0)
(0.646838 0.00382419 0)
(0.646219 0.00443827 0)
(0.645508 0.00506986 0)
(0.644721 0.00572615 0)
(0.643873 0.00641587 0)
(0.642975 0.00714959 0)
(0.642041 0.00794027 0)
(0.641077 0.00880387 0)
(0.640092 0.00976026 0)
(0.639088 0.0108344 0)
(0.638067 0.0120583 0)
(0.637028 0.0134728 0)
(0.635964 0.0151318 0)
(0.634871 0.0171066 0)
(0.633741 0.0194929 0)
(0.632576 0.022421 0)
(0.631392 0.0260689 0)
(0.630246 0.0306792 0)
(0.629274 0.0365772 0)
(0.628761 0.0441797 0)
(0.629257 0.0539707 0)
(0.631709 0.066357 0)
(0.637754 0.0811009 0)
(0.100559 -0.0024927 0)
(0.104112 -0.00449676 0)
(0.109508 -0.00616816 0)
(0.116316 -0.00763683 0)
(0.124366 -0.00897325 0)
(0.13351 -0.0102335 0)
(0.143653 -0.0114663 0)
(0.154753 -0.0127117 0)
(0.166803 -0.0139972 0)
(0.179817 -0.0153357 0)
(0.193814 -0.0167233 0)
(0.208798 -0.0181406 0)
(0.22475 -0.019555 0)
(0.241612 -0.0209265 0)
(0.259292 -0.0222124 0)
(0.277662 -0.0233729 0)
(0.296568 -0.024375 0)
(0.31584 -0.0251943 0)
(0.335301 -0.0258165 0)
(0.354778 -0.0262364 0)
(0.374106 -0.0264569 0)
(0.393139 -0.026487 0)
(0.411745 -0.0263402 0)
(0.429817 -0.0260331 0)
(0.447263 -0.0255833 0)
(0.464014 -0.0250093 0)
(0.480015 -0.0243286 0)
(0.495229 -0.0235583 0)
(0.509632 -0.0227138 0)
(0.52321 -0.0218092 0)
(0.535961 -0.020857 0)
(0.547889 -0.0198682 0)
(0.559006 -0.0188526 0)
(0.569329 -0.0178183 0)
(0.578879 -0.0167725 0)
(0.587679 -0.0157212 0)
(0.595756 -0.0146695 0)
(0.603139 -0.0136216 0)
(0.609856 -0.0125811 0)
(0.615939 -0.0115509 0)
(0.621417 -0.0105333 0)
(0.626321 -0.00953033 0)
(0.630682 -0.00854334 0)
(0.634532 -0.00757345 0)
(0.637898 -0.0066214 0)
(0.640812 -0.00568763 0)
(0.643302 -0.00477225 0)
(0.645397 -0.00387504 0)
(0.647123 -0.00299547 0)
(0.64851 -0.00213264 0)
(0.649582 -0.0012852 0)
(0.650365 -0.00045136 0)
(0.650884 0.000370585 0)
(0.651164 0.00118226 0)
(0.651227 0.00198591 0)
(0.651095 0.00278462 0)
(0.650791 0.00358218 0)
(0.650336 0.00438313 0)
(0.649747 0.00519284 0)
(0.649046 0.00601771 0)
(0.648248 0.00686537 0)
(0.647371 0.00774488 0)
(0.64643 0.00866712 0)
(0.64544 0.00964514 0)
(0.644414 0.0106947 0)
(0.643363 0.0118349 0)
(0.642298 0.0130892 0)
(0.641229 0.0144864 0)
(0.640165 0.016062 0)
(0.639115 0.0178607 0)
(0.63809 0.0199384 0)
(0.637104 0.0223657 0)
(0.636183 0.0252317 0)
(0.635364 0.0286483 0)
(0.634715 0.0327538 0)
(0.634347 0.0377135 0)
(0.634444 0.0437122 0)
(0.635291 0.0509294 0)
(0.637308 0.0594784 0)
(0.641057 0.0692828 0)
(0.647197 0.079851 0)
(0.10044 -0.00306927 0)
(0.103898 -0.00561652 0)
(0.109146 -0.0077351 0)
(0.11581 -0.00959989 0)
(0.123727 -0.0112975 0)
(0.13275 -0.0128986 0)
(0.142787 -0.0144664 0)
(0.153799 -0.016053 0)
(0.16579 -0.0176948 0)
(0.178784 -0.0194091 0)
(0.192812 -0.0211916 0)
(0.207888 -0.0230167 0)
(0.223999 -0.0248418 0)
(0.241087 -0.0266137 0)
(0.259055 -0.0282759 0)
(0.277764 -0.0297757 0)
(0.297048 -0.0310694 0)
(0.316721 -0.0321253 0)
(0.336592 -0.032925 0)
(0.356476 -0.0334622 0)
(0.376199 -0.0337412 0)
(0.395604 -0.0337745 0)
(0.414559 -0.0335801 0)
(0.432949 -0.0331799 0)
(0.450685 -0.0325972 0)
(0.467695 -0.0318559 0)
(0.483926 -0.030979 0)
(0.499342 -0.0299884 0)
(0.513921 -0.028904 0)
(0.527652 -0.0277439 0)
(0.540533 -0.0265241 0)
(0.552571 -0.0252586 0)
(0.563781 -0.0239597 0)
(0.57418 -0.0226379 0)
(0.583791 -0.0213023 0)
(0.592639 -0.0199602 0)
(0.600753 -0.0186183 0)
(0.608162 -0.0172817 0)
(0.614896 -0.015955 0)
(0.620986 -0.0146416 0)
(0.626465 -0.0133447 0)
(0.631362 -0.0120664 0)
(0.635709 -0.0108085 0)
(0.639538 -0.00957248 0)
(0.642879 -0.00835908 0)
(0.645761 -0.00716881 0)
(0.648215 -0.00600177 0)
(0.650268 -0.00485763 0)
(0.651948 -0.00373569 0)
(0.653283 -0.00263477 0)
(0.654299 -0.00155323 0)
(0.655022 -0.000488855 0)
(0.655477 0.000560478 0)
(0.655688 0.00159687 0)
(0.655678 0.00262334 0)
(0.65547 0.00364384 0)
(0.655086 0.00466308 0)
(0.654546 0.00568661 0)
(0.65387 0.00672095 0)
(0.653078 0.00777377 0)
(0.652187 0.00885411 0)
(0.651215 0.00997261 0)
(0.650179 0.0111419 0)
(0.649095 0.0123767 0)
(0.647979 0.0136949 0)
(0.646846 0.0151173 0)
(0.64571 0.0166692 0)
(0.644589 0.0183804 0)
(0.643498 0.020287 0)
(0.642456 0.0224322 0)
(0.64149 0.0248674 0)
(0.640628 0.0276539 0)
(0.639916 0.0308632 0)
(0.639413 0.0345772 0)
(0.639204 0.038885 0)
(0.639411 0.043876 0)
(0.640198 0.0496254 0)
(0.641779 0.0561682 0)
(0.644415 0.0634577 0)
(0.648389 0.0713073 0)
(0.653928 0.079326 0)
(0.100318 -0.00365227 0)
(0.103692 -0.00677345 0)
(0.108786 -0.00936869 0)
(0.115291 -0.0116581 0)
(0.123061 -0.0137444 0)
(0.131949 -0.0157138 0)
(0.141868 -0.0176453 0)
(0.15279 -0.0196051 0)
(0.16473 -0.0216406 0)
(0.177732 -0.0237745 0)
(0.191839 -0.0260017 0)
(0.207082 -0.0282894 0)
(0.223451 -0.0305821 0)
(0.240887 -0.0328103 0)
(0.25928 -0.0349003 0)
(0.278475 -0.0367838 0)
(0.298284 -0.0384046 0)
(0.318501 -0.0397227 0)
(0.338915 -0.0407156 0)
(0.359325 -0.0413766 0)
(0.379545 -0.0417126 0)
(0.399413 -0.0417405 0)
(0.418789 -0.0414843 0)
(0.437559 -0.0409723 0)
(0.455631 -0.0402347 0)
(0.472936 -0.0393015 0)
(0.489424 -0.038202 0)
(0.505062 -0.0369634 0)
(0.519829 -0.0356107 0)
(0.533718 -0.0341663 0)
(0.546732 -0.0326499 0)
(0.558879 -0.031079 0)
(0.570176 -0.0294684 0)
(0.580644 -0.027831 0)
(0.590308 -0.0261778 0)
(0.599195 -0.024518 0)
(0.607335 -0.0228592 0)
(0.614758 -0.0212079 0)
(0.621496 -0.0195695 0)
(0.627582 -0.0179482 0)
(0.633047 -0.0163474 0)
(0.637925 -0.01477 0)
(0.642246 -0.013218 0)
(0.646042 -0.0116929 0)
(0.649344 -0.0101957 0)
(0.652183 -0.00872693 0)
(0.654587 -0.00728656 0)
(0.656587 -0.00587419 0)
(0.658209 -0.00448891 0)
(0.659481 -0.0031293 0)
(0.66043 -0.00179337 0)
(0.661081 -0.000478552 0)
(0.661462 0.000817709 0)
(0.661595 0.00209809 0)
(0.661503 0.00336644 0)
(0.66121 0.00462757 0)
(0.660738 0.00588706 0)
(0.660106 0.00715139 0)
(0.659337 0.00842807 0)
(0.658448 0.00972583 0)
(0.65746 0.0110548 0)
(0.656391 0.0124267 0)
(0.65526 0.0138553 0)
(0.654084 0.0153565 0)
(0.652882 0.0169486 0)
(0.651673 0.0186532 0)
(0.650475 0.0204951 0)
(0.649311 0.0225031 0)
(0.648203 0.0247101 0)
(0.647179 0.027154 0)
(0.646272 0.0298772 0)
(0.645522 0.0329266 0)
(0.644982 0.036352 0)
(0.644717 0.0402038 0)
(0.64481 0.0445274 0)
(0.645362 0.0493557 0)
(0.646496 0.0546965 0)
(0.64835 0.0605159 0)
(0.651064 0.0667184 0)
(0.654753 0.0731272 0)
(0.659459 0.0794779 0)
(0.100194 -0.0042433 0)
(0.103496 -0.00796695 0)
(0.108439 -0.0110687 0)
(0.11478 -0.0138118 0)
(0.122393 -0.0163163 0)
(0.131139 -0.0186841 0)
(0.140938 -0.0210123 0)
(0.151778 -0.0233842 0)
(0.163693 -0.0258601 0)
(0.17675 -0.0284699 0)
(0.191017 -0.0312069 0)
(0.206537 -0.0340283 0)
(0.223304 -0.0368618 0)
(0.24125 -0.0396163 0)
(0.260244 -0.0421964 0)
(0.280101 -0.0445147 0)
(0.300605 -0.0465005 0)
(0.321519 -0.0481054 0)
(0.342612 -0.0493032 0)
(0.363663 -0.0500885 0)
(0.384476 -0.0504724 0)
(0.404879 -0.0504783 0)
(0.424733 -0.0501379 0)
(0.443921 -0.0494873 0)
(0.462357 -0.0485646 0)
(0.479973 -0.0474076 0)
(0.496725 -0.0460521 0)
(0.512582 -0.0445316 0)
(0.527531 -0.0428765 0)
(0.541568 -0.0411138 0)
(0.5547 -0.0392673 0)
(0.566939 -0.0373579 0)
(0.578306 -0.0354032 0)
(0.588825 -0.0334187 0)
(0.598522 -0.0314171 0)
(0.607428 -0.0294094 0)
(0.615574 -0.0274045 0)
(0.622992 -0.0254101 0)
(0.629716 -0.0234322 0)
(0.635779 -0.0214758 0)
(0.641215 -0.0195449 0)
(0.646056 -0.0176426 0)
(0.650334 -0.0157712 0)
(0.654083 -0.0139324 0)
(0.657333 -0.0121273 0)
(0.660114 -0.0103562 0)
(0.662457 -0.00861929 0)
(0.664391 -0.00691583 0)
(0.665944 -0.00524476 0)
(0.667143 -0.00360437 0)
(0.668015 -0.0019924 0)
(0.668586 -0.000406032 0)
(0.668884 0.00115779 0)
(0.668931 0.00270245 0)
(0.668751 0.00423266 0)
(0.668367 0.00575401 0)
(0.667801 0.00727287 0)
(0.667075 0.00879645 0)
(0.666208 0.010333 0)
(0.665222 0.0118921 0)
(0.664137 0.0134845 0)
(0.662972 0.0151226 0)
(0.661748 0.0168203 0)
(0.660484 0.0185938 0)
(0.659202 0.0204612 0)
(0.657922 0.0224427 0)
(0.656669 0.0245614 0)
(0.655467 0.0268426 0)
(0.654344 0.029314 0)
(0.653333 0.0320057 0)
(0.65247 0.0349487 0)
(0.651798 0.0381745 0)
(0.651368 0.0417122 0)
(0.651241 0.0455859 0)
(0.651484 0.0498095 0)
(0.652172 0.0543809 0)
(0.653386 0.0592749 0)
(0.655201 0.0644344 0)
(0.657679 0.0697643 0)
(0.660852 0.0751285 0)
(0.664691 0.0803603 0)
(0.100064 -0.00484494 0)
(0.103313 -0.00919805 0)
(0.108115 -0.0128364 0)
(0.114291 -0.0160634 0)
(0.121746 -0.0190173 0)
(0.130351 -0.0218171 0)
(0.140038 -0.0245811 0)
(0.150817 -0.0274132 0)
(0.162754 -0.0303901 0)
(0.175946 -0.0335497 0)
(0.190491 -0.0368823 0)
(0.206445 -0.0403303 0)
(0.223797 -0.043797 0)
(0.242458 -0.0471631 0)
(0.262259 -0.0503053 0)
(0.282977 -0.053113 0)
(0.304352 -0.0555002 0)
(0.326115 -0.0574102 0)
(0.348008 -0.0588158 0)
(0.369794 -0.0597152 0)
(0.391266 -0.0601266 0)
(0.41225 -0.0600824 0)
(0.432606 -0.0596242 0)
(0.452223 -0.0587979 0)
(0.471019 -0.057651 0)
(0.488933 -0.0562295 0)
(0.505928 -0.0545772 0)
(0.521981 -0.0527342 0)
(0.537083 -0.0507367 0)
(0.551237 -0.0486165 0)
(0.564454 -0.0464018 0)
(0.576754 -0.0441167 0)
(0.588158 -0.0417821 0)
(0.598695 -0.0394156 0)
(0.608395 -0.037032 0)
(0.617291 -0.0346438 0)
(0.625416 -0.0322614 0)
(0.632803 -0.0298932 0)
(0.639489 -0.0275462 0)
(0.645507 -0.0252259 0)
(0.650892 -0.0229368 0)
(0.655677 -0.0206823 0)
(0.659896 -0.0184649 0)
(0.663581 -0.0162863 0)
(0.666764 -0.0141477 0)
(0.669476 -0.0120494 0)
(0.671746 -0.00999138 0)
(0.673604 -0.00797279 0)
(0.675079 -0.00599231 0)
(0.676197 -0.00404799 0)
(0.676986 -0.00213723 0)
(0.677471 -0.000257288 0)
(0.677683 0.00159545 0)
(0.677641 0.0034254 0)
(0.67737 0.00523807 0)
(0.676894 0.00703967 0)
(0.676234 0.00883715 0)
(0.675413 0.0106383 0)
(0.674451 0.0124518 0)
(0.673371 0.0142876 0)
(0.672192 0.0161568 0)
(0.670937 0.0180716 0)
(0.669626 0.0200458 0)
(0.668281 0.0220945 0)
(0.666925 0.0242346 0)
(0.665583 0.0264842 0)
(0.664279 0.0288628 0)
(0.663041 0.0313911 0)
(0.661898 0.0340904 0)
(0.660885 0.0369819 0)
(0.660037 0.0400858 0)
(0.659396 0.0434195 0)
(0.659006 0.0469958 0)
(0.658915 0.0508199 0)
(0.659173 0.0548866 0)
(0.659831 0.0591767 0)
(0.660933 0.0636533 0)
(0.662514 0.0682595 0)
(0.664593 0.0729177 0)
(0.667162 0.0775325 0)
(0.670174 0.0820022 0)
(0.0999281 -0.00546042 0)
(0.103143 -0.0104692 0)
(0.107818 -0.0146749 0)
(0.113835 -0.0184169 0)
(0.121137 -0.0218538 0)
(0.129608 -0.0251242 0)
(0.139203 -0.0283716 0)
(0.149964 -0.0317259 0)
(0.162 -0.0352842 0)
(0.17545 -0.0390927 0)
(0.19044 -0.0431343 0)
(0.207037 -0.0473278 0)
(0.225209 -0.0515418 0)
(0.244824 -0.0556183 0)
(0.265661 -0.0593992 0)
(0.287438 -0.0627482 0)
(0.309848 -0.065564 0)
(0.332584 -0.0677848 0)
(0.355365 -0.0693859 0)
(0.377939 -0.0703734 0)
(0.400096 -0.0707765 0)
(0.421663 -0.0706399 0)
(0.442507 -0.0700173 0)
(0.462524 -0.0689666 0)
(0.481642 -0.0675458 0)
(0.49981 -0.0658107 0)
(0.516999 -0.0638132 0)
(0.533195 -0.0616006 0)
(0.548398 -0.059215 0)
(0.562618 -0.0566934 0)
(0.575871 -0.0540683 0)
(0.588181 -0.0513672 0)
(0.599577 -0.0486138 0)
(0.61009 -0.045828 0)
(0.619752 -0.0430267 0)
(0.6286 -0.0402237 0)
(0.636668 -0.0374305 0)
(0.643994 -0.0346566 0)
(0.650612 -0.0319096 0)
(0.656559 -0.0291955 0)
(0.66187 -0.0265192 0)
(0.666579 -0.0238842 0)
(0.67072 -0.0212932 0)
(0.674326 -0.018748 0)
(0.677429 -0.0162497 0)
(0.680059 -0.0137985 0)
(0.682247 -0.0113942 0)
(0.684022 -0.00903578 0)
(0.685413 -0.00672171 0)
(0.686447 -0.00444978 0)
(0.687151 -0.00221711 0)
(0.68755 -2.10602e-05 0)
(0.687675 0.00214248 0)
(0.687547 0.0042791 0)
(0.687188 0.00639498 0)
(0.686624 0.0084968 0)
(0.685876 0.0105918 0)
(0.684966 0.0126882 0)
(0.683917 0.0147948 0)
(0.682751 0.0169215 0)
(0.681488 0.019079 0)
(0.680152 0.0212791 0)
(0.678765 0.0235345 0)
(0.67735 0.0258589 0)
(0.675931 0.0282669 0)
(0.674533 0.0307734 0)
(0.673182 0.0333941 0)
(0.671906 0.0361443 0)
(0.670736 0.0390387 0)
(0.669701 0.0420905 0)
(0.668837 0.0453104 0)
(0.668178 0.0487051 0)
(0.66776 0.0522758 0)
(0.667618 0.0560169 0)
(0.667786 0.0599135 0)
(0.668293 0.0639405 0)
(0.669161 0.0680617 0)
(0.6704 0.0722291 0)
(0.672008 0.0763851 0)
(0.67396 0.0804658 0)
(0.676211 0.0844106 0)
(0.0997824 -0.00609344 0)
(0.102985 -0.0117844 0)
(0.107551 -0.016589 0)
(0.113418 -0.0208788 0)
(0.120578 -0.0248359 0)
(0.128936 -0.0286224 0)
(0.138477 -0.0324136 0)
(0.14929 -0.0363727 0)
(0.161542 -0.0406212 0)
(0.175423 -0.0452118 0)
(0.191087 -0.0501104 0)
(0.20859 -0.0551979 0)
(0.227857 -0.0602923 0)
(0.248686 -0.0651852 0)
(0.27078 -0.0696776 0)
(0.293791 -0.0736067 0)
(0.317358 -0.07686 0)
(0.341143 -0.0793761 0)
(0.364845 -0.0811391 0)
(0.388206 -0.0821685 0)
(0.41102 -0.0825091 0)
(0.433125 -0.0822213 0)
(0.454395 -0.0813738 0)
(0.474743 -0.080038 0)
(0.494108 -0.0782839 0)
(0.512452 -0.0761774 0)
(0.529758 -0.0737794 0)
(0.546022 -0.0711442 0)
(0.561252 -0.0683203 0)
(0.575466 -0.0653498 0)
(0.588688 -0.062269 0)
(0.600947 -0.0591089 0)
(0.612276 -0.055896 0)
(0.62271 -0.0526522 0)
(0.632285 -0.0493962 0)
(0.64104 -0.046143 0)
(0.649011 -0.0429053 0)
(0.656237 -0.0396932 0)
(0.662755 -0.036515 0)
(0.668602 -0.0333769 0)
(0.673814 -0.0302841 0)
(0.678425 -0.0272404 0)
(0.682469 -0.0242483 0)
(0.68598 -0.0213096 0)
(0.68899 -0.0184253 0)
(0.691529 -0.0155955 0)
(0.693628 -0.0128198 0)
(0.695315 -0.010097 0)
(0.69662 -0.00742535 0)
(0.69757 -0.00480245 0)
(0.69819 -0.00222529 0)
(0.698511 0.00030918 0)
(0.698555 0.00280558 0)
(0.698346 0.00527019 0)
(0.697908 0.00770969 0)
(0.697265 0.0101311 0)
(0.69644 0.0125418 0)
(0.695455 0.0149499 0)
(0.694333 0.0173642 0)
(0.693095 0.0197942 0)
(0.691764 0.0222498 0)
(0.690363 0.0247417 0)
(0.688915 0.0272813 0)
(0.687444 0.02988 0)
(0.685973 0.0325497 0)
(0.684529 0.0353021 0)
(0.683137 0.0381485 0)
(0.681823 0.0410993 0)
(0.680616 0.0441632 0)
(0.679543 0.0473468 0)
(0.678634 0.0506538 0)
(0.677915 0.0540834 0)
(0.677415 0.0576305 0)
(0.677157 0.0612838 0)
(0.677162 0.0650256 0)
(0.677444 0.0688315 0)
(0.678011 0.0726706 0)
(0.678861 0.0765062 0)
(0.679979 0.0802977 0)
(0.681342 0.0840036 0)
(0.682907 0.0875884 0)
(0.0996244 -0.00674809 0)
(0.102836 -0.0131488 0)
(0.107314 -0.0185854 0)
(0.113047 -0.0234585 0)
(0.120083 -0.0279781 0)
(0.12836 -0.0323372 0)
(0.137907 -0.0367525 0)
(0.148882 -0.0414294 0)
(0.161522 -0.0465168 0)
(0.176073 -0.0520667 0)
(0.192701 -0.0580102 0)
(0.211421 -0.0641675 0)
(0.232076 -0.0702865 0)
(0.254368 -0.0760963 0)
(0.277905 -0.0813547 0)
(0.302269 -0.0858775 0)
(0.327053 -0.0895485 0)
(0.351893 -0.0923161 0)
(0.376481 -0.0941811 0)
(0.400567 -0.095183 0)
(0.423955 -0.095387 0)
(0.446498 -0.0948728 0)
(0.468091 -0.0937261 0)
(0.488661 -0.0920334 0)
(0.508165 -0.0898774 0)
(0.52658 -0.0873348 0)
(0.5439 -0.0844751 0)
(0.560134 -0.0813603 0)
(0.575299 -0.0780446 0)
(0.589422 -0.0745748 0)
(0.602532 -0.0709913 0)
(0.614665 -0.0673281 0)
(0.625858 -0.0636141 0)
(0.636151 -0.0598731 0)
(0.645582 -0.0561253 0)
(0.654192 -0.0523868 0)
(0.66202 -0.0486711 0)
(0.669105 -0.0449889 0)
(0.675487 -0.0413487 0)
(0.681202 -0.0377572 0)
(0.686287 -0.0342195 0)
(0.690777 -0.0307394 0)
(0.694706 -0.0273195 0)
(0.698106 -0.0239614 0)
(0.701011 -0.0206657 0)
(0.703451 -0.0174326 0)
(0.705455 -0.0142613 0)
(0.707052 -0.0111505 0)
(0.708272 -0.0080982 0)
(0.70914 -0.0051019 0)
(0.709682 -0.00215858 0)
(0.709929 0.000735553 0)
(0.709901 0.00358575 0)
(0.709624 0.00639852 0)
(0.709121 0.00918078 0)
(0.708415 0.0119396 0)
(0.70753 0.0146825 0)
(0.706487 0.0174172 0)
(0.70531 0.0201521 0)
(0.704021 0.0228957 0)
(0.702641 0.0256573 0)
(0.701196 0.0284459 0)
(0.699706 0.0312709 0)
(0.698196 0.0341417 0)
(0.69669 0.0370672 0)
(0.695211 0.0400559 0)
(0.693784 0.043115 0)
(0.692435 0.0462508 0)
(0.691186 0.0494672 0)
(0.690062 0.0527661 0)
(0.689087 0.0561464 0)
(0.688281 0.0596033 0)
(0.687663 0.0631285 0)
(0.687249 0.0667092 0)
(0.68705 0.0703287 0)
(0.687072 0.0739662 0)
(0.687314 0.0775973 0)
(0.687767 0.0811957 0)
(0.688416 0.0847336 0)
(0.689238 0.088185 0)
(0.690199 0.0915297 0)
(0.0994512 -0.00742881 0)
(0.102695 -0.0145691 0)
(0.107109 -0.0206729 0)
(0.112727 -0.0261691 0)
(0.119668 -0.0313024 0)
(0.127915 -0.0363078 0)
(0.137563 -0.0414574 0)
(0.148859 -0.0470091 0)
(0.162128 -0.0531379 0)
(0.17766 -0.0598767 0)
(0.195597 -0.067092 0)
(0.215867 -0.0745122 0)
(0.238191 -0.0817939 0)
(0.262145 -0.0885975 0)
(0.287242 -0.0946422 0)
(0.312998 -0.0997338 0)
(0.338973 -0.103766 0)
(0.364797 -0.106708 0)
(0.390167 -0.108586 0)
(0.414851 -0.109468 0)
(0.438676 -0.109442 0)
(0.461516 -0.10861 0)
(0.483287 -0.107078 0)
(0.50394 -0.104947 0)
(0.523447 -0.102314 0)
(0.541803 -0.0992644 0)
(0.559016 -0.0958782 0)
(0.575106 -0.0922236 0)
(0.590099 -0.0883606 0)
(0.604031 -0.0843403 0)
(0.616939 -0.0802065 0)
(0.628863 -0.0759961 0)
(0.639844 -0.0717398 0)
(0.649926 -0.0674633 0)
(0.65915 -0.0631876 0)
(0.667559 -0.0589299 0)
(0.675194 -0.0547041 0)
(0.682095 -0.0505212 0)
(0.688301 -0.0463901 0)
(0.693851 -0.0423173 0)
(0.69878 -0.0383081 0)
(0.703124 -0.0343659 0)
(0.706917 -0.0304932 0)
(0.710192 -0.0266914 0)
(0.71298 -0.0229609 0)
(0.715312 -0.0193016 0)
(0.717217 -0.0157124 0)
(0.718723 -0.0121918 0)
(0.719859 -0.0087376 0)
(0.72065 -0.00534726 0)
(0.721122 -0.00201765 0)
(0.721305 0.00125563 0)
(0.721218 0.00447835 0)
(0.720887 0.00765719 0)
(0.720335 0.0107991 0)
(0.719584 0.0139111 0)
(0.718658 0.0170002 0)
(0.717579 0.0200739 0)
(0.71637 0.0231398 0)
(0.715051 0.0262054 0)
(0.713647 0.0292786 0)
(0.712178 0.0323669 0)
(0.710668 0.0354779 0)
(0.70914 0.0386184 0)
(0.707615 0.0417949 0)
(0.706116 0.0450127 0)
(0.704666 0.0482761 0)
(0.703285 0.0515878 0)
(0.701995 0.0549487 0)
(0.700815 0.0583573 0)
(0.699764 0.0618101 0)
(0.698856 0.0653006 0)
(0.698105 0.0688197 0)
(0.697519 0.0723556 0)
(0.697104 0.0758939 0)
(0.69686 0.0794184 0)
(0.696783 0.0829112 0)
(0.696862 0.0863539 0)
(0.697083 0.0897285 0)
(0.697425 0.0930187 0)
(0.697864 0.0962143 0)
(0.0992592 -0.00814056 0)
(0.10256 -0.0160538 0)
(0.106938 -0.0228636 0)
(0.112467 -0.0290296 0)
(0.119353 -0.0348416 0)
(0.127649 -0.0405944 0)
(0.13754 -0.0466337 0)
(0.149387 -0.0532787 0)
(0.163604 -0.0607181 0)
(0.180494 -0.0689303 0)
(0.200117 -0.0776721 0)
(0.222255 -0.0865443 0)
(0.246467 -0.0950969 0)
(0.272198 -0.102926 0)
(0.298873 -0.109727 0)
(0.325962 -0.115315 0)
(0.353017 -0.119609 0)
(0.379675 -0.122614 0)
(0.405658 -0.124389 0)
(0.430762 -0.125035 0)
(0.45484 -0.124669 0)
(0.477797 -0.123416 0)
(0.499574 -0.121402 0)
(0.520143 -0.118745 0)
(0.539498 -0.115552 0)
(0.557649 -0.111923 0)
(0.574617 -0.107943 0)
(0.590436 -0.103687 0)
(0.605141 -0.0992212 0)
(0.618775 -0.0945995 0)
(0.631382 -0.0898688 0)
(0.643007 -0.0850684 0)
(0.653695 -0.0802305 0)
(0.663492 -0.0753819 0)
(0.672443 -0.0705446 0)
(0.680591 -0.065736 0)
(0.68798 -0.0609705 0)
(0.694649 -0.0562591 0)
(0.700639 -0.0516106 0)
(0.705987 -0.0470315 0)
(0.710731 -0.0425266 0)
(0.714904 -0.0380993 0)
(0.718541 -0.0337517 0)
(0.721674 -0.0294848 0)
(0.724333 -0.0252989 0)
(0.726549 -0.0211932 0)
(0.72835 -0.0171666 0)
(0.729765 -0.0132172 0)
(0.730819 -0.00934279 0)
(0.731539 -0.00554055 0)
(0.73195 -0.00180734 0)
(0.732079 0.00186175 0)
(0.731947 0.00547289 0)
(0.731577 0.00903284 0)
(0.730994 0.0125483 0)
(0.730218 0.0160261 0)
(0.729273 0.0194727 0)
(0.72818 0.0228949 0)
(0.726961 0.0262994 0)
(0.725638 0.0296928 0)
(0.724232 0.0330813 0)
(0.722764 0.0364711 0)
(0.721257 0.0398677 0)
(0.71973 0.043276 0)
(0.718205 0.0467001 0)
(0.716702 0.0501431 0)
(0.715241 0.0536068 0)
(0.713838 0.0570917 0)
(0.712513 0.0605966 0)
(0.711281 0.0641186 0)
(0.710154 0.067653 0)
(0.709145 0.0711931 0)
(0.70826 0.0747306 0)
(0.707506 0.0782556 0)
(0.706884 0.0817569 0)
(0.706392 0.0852225 0)
(0.706023 0.0886399 0)
(0.705769 0.0919968 0)
(0.705615 0.0952818 0)
(0.705547 0.0984854 0)
(0.705546 0.101603 0)
(0.0990448 -0.00888898 0)
(0.102429 -0.0176136 0)
(0.106803 -0.0251738 0)
(0.112278 -0.0320674 0)
(0.119171 -0.038646 0)
(0.127632 -0.0452896 0)
(0.137972 -0.0524396 0)
(0.150684 -0.0604774 0)
(0.166249 -0.0695712 0)
(0.184917 -0.0795859 0)
(0.20659 -0.090111 0)
(0.230845 -0.100589 0)
(0.257065 -0.110462 0)
(0.284573 -0.119283 0)
(0.312732 -0.12675 0)
(0.340999 -0.13271 0)
(0.368937 -0.137127 0)
(0.396214 -0.140048 0)
(0.422586 -0.14158 0)
(0.447885 -0.141855 0)
(0.472001 -0.141025 0)
(0.494867 -0.139237 0)
(0.516454 -0.136638 0)
(0.536757 -0.13336 0)
(0.555788 -0.129525 0)
(0.573574 -0.12524 0)
(0.590152 -0.120599 0)
(0.605565 -0.115682 0)
(0.619858 -0.110558 0)
(0.633081 -0.105286 0)
(0.645284 -0.0999142 0)
(0.656515 -0.0944836 0)
(0.666825 -0.0890277 0)
(0.676261 -0.0835739 0)
(0.68487 -0.0781444 0)
(0.692696 -0.0727569 0)
(0.699783 -0.0674256 0)
(0.706173 -0.0621615 0)
(0.711904 -0.056973 0)
(0.717015 -0.0518662 0)
(0.721541 -0.0468455 0)
(0.725518 -0.0419139 0)
(0.728977 -0.0370731 0)
(0.731951 -0.0323235 0)
(0.73447 -0.0276651 0)
(0.736562 -0.0230968 0)
(0.738255 -0.018617 0)
(0.739576 -0.0142237 0)
(0.740552 -0.00991432 0)
(0.741206 -0.00568602 0)
(0.741565 -0.00153554 0)
(0.741651 0.00254238 0)
(0.741487 0.00655419 0)
(0.741095 0.0105066 0)
(0.740499 0.0144059 0)
(0.739718 0.0182584 0)
(0.738775 0.0220702 0)
(0.737691 0.0258472 0)
(0.736486 0.029595 0)
(0.735181 0.0333193 0)
(0.733797 0.0370249 0)
(0.732353 0.0407164 0)
(0.73087 0.0443979 0)
(0.729366 0.0480726 0)
(0.72786 0.0517428 0)
(0.726369 0.0554098 0)
(0.724911 0.0590741 0)
(0.723501 0.0627347 0)
(0.722152 0.0663894 0)
(0.720877 0.0700348 0)
(0.719686 0.0736662 0)
(0.718586 0.0772777 0)
(0.717583 0.0808625 0)
(0.71668 0.0844129 0)
(0.715875 0.0879207 0)
(0.715166 0.0913775 0)
(0.714547 0.094775 0)
(0.71401 0.0981054 0)
(0.713545 0.101362 0)
(0.713138 0.10454 0)
(0.712778 0.107638 0)
(0.0988037 -0.00968083 0)
(0.102304 -0.0192624 0)
(0.10671 -0.0276266 0)
(0.11218 -0.0353235 0)
(0.11917 -0.0427932 0)
(0.127966 -0.0505351 0)
(0.139043 -0.0591078 0)
(0.153024 -0.0689347 0)
(0.170399 -0.080096 0)
(0.191266 -0.0922579 0)
(0.215282 -0.104785 0)
(0.241789 -0.116949 0)
(0.270003 -0.128112 0)
(0.29916 -0.137814 0)
(0.328603 -0.145792 0)
(0.357802 -0.151949 0)
(0.386358 -0.156308 0)
(0.413983 -0.158974 0)
(0.440478 -0.160098 0)