/*--------------------------------*- C++ -*----------------------------------*\
  =========                 |
  \\      /  F ield         | OpenFOAM: The Open Source CFD Toolbox
   \\    /   O peration     | Website:  https://openfoam.org
    \\  /    A nd           | Version:  7
     \\/     M anipulation  |
\*---------------------------------------------------------------------------*/
FoamFile
{
    version     2.0;
    format      ascii;
    class       surfaceScalarField;
    location    "1";
    object      phi;
}
// * * * * * * * * * * * * * * * * * * * * * * * * * * * * * * * * * * * * * //

dimensions      [1 0 -1 0 0 0 0];

internalField   nonuniform List<scalar> 
23692
(
1.17028e-05
-6.77276e-08
1.18243e-05
-1.21166e-07
1.19884e-05
-1.63509e-07
1.21841e-05
-1.94923e-07
1.2403e-05
-2.17817e-07
1.26387e-05
-2.34311e-07
1.28866e-05
-2.46348e-07
1.31441e-05
-2.55708e-07
1.34101e-05
-2.63856e-07
1.36842e-05
-2.71869e-07
1.39672e-05
-2.80446e-07
1.426e-05
-2.89964e-07
1.45636e-05
-3.00561e-07
1.48791e-05
-3.12227e-07
1.52074e-05
-3.24874e-07
1.55495e-05
-3.3838e-07
1.5906e-05
-3.52623e-07
1.62776e-05
-3.67482e-07
1.66647e-05
-3.82849e-07
1.70677e-05
-3.98622e-07
1.74869e-05
-4.14709e-07
1.79226e-05
-4.31016e-07
1.83748e-05
-4.47456e-07
1.88435e-05
-4.63939e-07
1.93287e-05
-4.80378e-07
1.98303e-05
-4.96686e-07
2.03479e-05
-5.12776e-07
2.08812e-05
-5.28566e-07
2.143e-05
-5.43971e-07
2.19935e-05
-5.5891e-07
2.25714e-05
-5.73304e-07
2.31628e-05
-5.87076e-07
2.37672e-05
-6.00153e-07
2.43837e-05
-6.12463e-07
2.50114e-05
-6.23936e-07
2.56495e-05
-6.34506e-07
2.62969e-05
-6.44107e-07
2.69526e-05
-6.52679e-07
2.76155e-05
-6.60162e-07
2.82844e-05
-6.66499e-07
2.89581e-05
-6.71635e-07
2.96354e-05
-6.75516e-07
3.03148e-05
-6.78092e-07
3.09951e-05
-6.79313e-07
3.16748e-05
-6.79131e-07
3.23526e-05
-6.77497e-07
3.30268e-05
-6.74368e-07
3.36959e-05
-6.69695e-07
3.43584e-05
-6.63433e-07
3.50126e-05
-6.55536e-07
3.56568e-05
-6.45956e-07
3.62893e-05
-6.34645e-07
3.69084e-05
-6.21552e-07
3.75122e-05
-6.0662e-07
3.80988e-05
-5.89793e-07
3.86663e-05
-5.71006e-07
3.92126e-05
-5.50186e-07
3.97358e-05
-5.27252e-07
4.02335e-05
-5.02114e-07
4.07035e-05
-4.74661e-07
4.11434e-05
-4.44765e-07
4.15506e-05
-4.12274e-07
4.19223e-05
-3.77001e-07
4.22556e-05
-3.38715e-07
4.25471e-05
-2.97131e-07
4.27934e-05
-2.51886e-07
4.29901e-05
-2.02515e-07
4.31328e-05
-1.48418e-07
4.32158e-05
-8.88108e-08
4.32327e-05
-2.26619e-08
4.31754e-05
5.16032e-08
4.30333e-05
1.36456e-07
4.27923e-05
2.35518e-07
4.24326e-05
3.54308e-07
4.19258e-05
5.01671e-07
4.12284e-05
6.92448e-07
4.0271e-05
9.52633e-07
3.89363e-05
1.33024e-06
3.70092e-05
1.92294e-06
3.40412e-05
2.96416e-06
5.32854e-06
2.87093e-05
1.25212e-05
-1.39019e-07
1.26509e-05
-2.50505e-07
1.28264e-05
-3.38332e-07
1.30357e-05
-4.03315e-07
1.32697e-05
-4.50677e-07
1.35216e-05
-4.84777e-07
1.37866e-05
-5.09636e-07
1.40617e-05
-5.28943e-07
1.43458e-05
-5.4573e-07
1.46387e-05
-5.62233e-07
1.49409e-05
-5.799e-07
1.52534e-05
-5.99508e-07
1.55774e-05
-6.21348e-07
1.59141e-05
-6.45398e-07
1.62644e-05
-6.71474e-07
1.66293e-05
-6.99327e-07
1.70095e-05
-7.28698e-07
1.74058e-05
-7.59341e-07
1.78185e-05
-7.91029e-07
1.82481e-05
-8.23553e-07
1.8695e-05
-8.56719e-07
1.91593e-05
-8.90336e-07
1.96411e-05
-9.2422e-07
2.01405e-05
-9.5819e-07
2.06573e-05
-9.92063e-07
2.11915e-05
-1.02566e-06
2.17427e-05
-1.0588e-06
2.23106e-05
-1.09131e-06
2.28947e-05
-1.12302e-06
2.34946e-05
-1.15377e-06
2.41095e-05
-1.18338e-06
2.47388e-05
-1.2117e-06
2.53818e-05
-1.23858e-06
2.60375e-05
-1.26387e-06
2.6705e-05
-1.28742e-06
2.73835e-05
-1.3091e-06
2.80717e-05
-1.32878e-06
2.87686e-05
-1.34632e-06
2.94729e-05
-1.36161e-06
3.01835e-05
-1.37453e-06
3.08991e-05
-1.38496e-06
3.16182e-05
-1.39279e-06
3.23395e-05
-1.39792e-06
3.30615e-05
-1.40025e-06
3.37827e-05
-1.39968e-06
3.45015e-05
-1.39611e-06
3.52164e-05
-1.38945e-06
3.59257e-05
-1.37959e-06
3.66277e-05
-1.36646e-06
3.73207e-05
-1.34994e-06
3.80029e-05
-1.32995e-06
3.86724e-05
-1.30639e-06
3.93273e-05
-1.27915e-06
3.99658e-05
-1.24812e-06
4.05858e-05
-1.21319e-06
4.11853e-05
-1.17422e-06
4.17621e-05
-1.13106e-06
4.2314e-05
-1.08356e-06
4.28387e-05
-1.03153e-06
4.33338e-05
-9.74751e-07
4.37968e-05
-9.12967e-07
4.4225e-05
-8.45874e-07
4.46154e-05
-7.73101e-07
4.49651e-05
-6.94194e-07
4.52706e-05
-6.08586e-07
4.55282e-05
-5.15567e-07
4.57338e-05
-4.14228e-07
4.58827e-05
-3.03397e-07
4.59692e-05
-1.81546e-07
4.59871e-05
-4.6642e-08
4.59283e-05
1.04233e-07
4.57833e-05
2.75442e-07
4.55397e-05
4.73304e-07
4.51812e-05
7.07125e-07
4.46862e-05
9.91045e-07
4.40262e-05
1.34718e-06
4.3163e-05
1.81082e-06
4.20492e-05
2.43922e-06
4.06393e-05
3.32842e-06
3.89633e-05
4.63614e-06
6.51073e-06
3.77774e-05
1.33967e-05
-2.13856e-07
1.3535e-05
-3.88382e-07
1.37221e-05
-5.24773e-07
1.39455e-05
-6.25753e-07
1.41954e-05
-6.99286e-07
1.44643e-05
-7.52173e-07
1.47471e-05
-7.90672e-07
1.50408e-05
-8.20513e-07
1.53438e-05
-8.46412e-07
1.56561e-05
-8.71843e-07
1.59782e-05
-8.99063e-07
1.63111e-05
-9.29283e-07
1.66562e-05
-9.62956e-07
1.70146e-05
-1.00005e-06
1.73874e-05
-1.04029e-06
1.77756e-05
-1.08327e-06
1.81799e-05
-1.1286e-06
1.86012e-05
-1.17589e-06
1.90398e-05
-1.22479e-06
1.94962e-05
-1.27498e-06
1.99708e-05
-1.32614e-06
2.04638e-05
-1.37799e-06
2.09753e-05
-1.43025e-06
2.15052e-05
-1.48261e-06
2.20535e-05
-1.53482e-06
2.262e-05
-1.58658e-06
2.32043e-05
-1.63762e-06
2.38062e-05
-1.68767e-06
2.44251e-05
-1.73647e-06
2.50604e-05
-1.78375e-06
2.57115e-05
-1.82927e-06
2.63776e-05
-1.87278e-06
2.70579e-05
-1.91404e-06
2.77515e-05
-1.95282e-06
2.84574e-05
-1.9889e-06
2.91744e-05
-2.02207e-06
2.99016e-05
-2.05213e-06
3.06376e-05
-2.07887e-06
3.13812e-05
-2.10211e-06
3.21312e-05
-2.12167e-06
3.2886e-05
-2.13737e-06
3.36442e-05
-2.14904e-06
3.44044e-05
-2.15652e-06
3.51649e-05
-2.15966e-06
3.59242e-05
-2.15829e-06
3.66807e-05
-2.15229e-06
3.74326e-05
-2.14149e-06
3.81781e-05
-2.12575e-06
3.89155e-05
-2.10493e-06
3.96429e-05
-2.07889e-06
4.03585e-05
-2.04749e-06
4.10603e-05
-2.01056e-06
4.17463e-05
-1.96795e-06
4.24145e-05
-1.9195e-06
4.30627e-05
-1.86503e-06
4.36888e-05
-1.80434e-06
4.42906e-05
-1.73722e-06
4.48658e-05
-1.66343e-06
4.5412e-05
-1.5827e-06
4.59266e-05
-1.4947e-06
4.64072e-05
-1.39906e-06
4.68508e-05
-1.29533e-06
4.72547e-05
-1.18299e-06
4.76157e-05
-1.06137e-06
4.79305e-05
-9.2967e-07
4.81953e-05
-7.86874e-07
4.84063e-05
-6.31705e-07
4.85588e-05
-4.62524e-07
4.86479e-05
-2.77211e-07
4.86677e-05
-7.29774e-08
4.86115e-05
1.53927e-07
4.84718e-05
4.08818e-07
4.82397e-05
6.99157e-07
4.79053e-05
1.03535e-06
4.74585e-05
1.43204e-06
4.68901e-05
1.90993e-06
4.61975e-05
2.49802e-06
4.53959e-05
3.23572e-06
4.4547e-05
4.1726e-06
4.38269e-05
5.35185e-06
6.72186e-06
4.36118e-05
1.43335e-05
-2.92456e-07
1.44805e-05
-5.34955e-07
1.46797e-05
-7.23232e-07
1.49178e-05
-8.62814e-07
1.51842e-05
-9.64353e-07
1.54709e-05
-1.03729e-06
1.57724e-05
-1.09028e-06
1.60854e-05
-1.13125e-06
1.64082e-05
-1.16671e-06
1.67407e-05
-1.20147e-06
1.70834e-05
-1.23865e-06
1.74375e-05
-1.27994e-06
1.78042e-05
-1.32597e-06
1.81849e-05
-1.37671e-06
1.85806e-05
-1.43176e-06
1.89925e-05
-1.4906e-06
1.94213e-05
-1.55265e-06
1.98678e-05
-1.61738e-06
2.03325e-05
-1.68432e-06
2.08159e-05
-1.75299e-06
2.13183e-05
-1.823e-06
2.18399e-05
-1.89392e-06
2.23809e-05
-1.96536e-06
2.29411e-05
-2.03694e-06
2.35204e-05
-2.10826e-06
2.41188e-05
-2.17895e-06
2.47357e-05
-2.24862e-06
2.53708e-05
-2.3169e-06
2.60236e-05
-2.38343e-06
2.66935e-05
-2.44786e-06
2.73796e-05
-2.50982e-06
2.80812e-05
-2.569e-06
2.87974e-05
-2.62506e-06
2.95273e-05
-2.6777e-06
3.02697e-05
-2.7266e-06
3.10235e-05
-2.77147e-06
3.17875e-05
-2.81204e-06
3.25604e-05
-2.84804e-06
3.33408e-05
-2.8792e-06
3.41274e-05
-2.90528e-06
3.49187e-05
-2.92604e-06
3.57131e-05
-2.94126e-06
3.65089e-05
-2.9507e-06
3.73047e-05
-2.95416e-06
3.80986e-05
-2.95143e-06
3.8889e-05
-2.94231e-06
3.96739e-05
-2.92661e-06
4.04517e-05
-2.90412e-06
4.12203e-05
-2.87466e-06
4.19778e-05
-2.83803e-06
4.27223e-05
-2.79404e-06
4.34518e-05
-2.74249e-06
4.4164e-05
-2.68318e-06
4.4857e-05
-2.61588e-06
4.55285e-05
-2.54035e-06
4.61763e-05
-2.45636e-06
4.67981e-05
-2.36362e-06
4.73915e-05
-2.26181e-06
4.79541e-05
-2.1506e-06
4.84833e-05
-2.02957e-06
4.89766e-05
-1.89825e-06
4.94312e-05
-1.75609e-06
4.98442e-05
-1.60242e-06
5.02127e-05
-1.43643e-06
5.05335e-05
-1.25714e-06
5.08031e-05
-1.06334e-06
5.1018e-05
-8.53489e-07
5.11741e-05
-6.25686e-07
5.12674e-05
-3.77485e-07
5.12933e-05
-1.05766e-07
5.12469e-05
1.9337e-07
5.11238e-05
5.25117e-07
5.09199e-05
8.96459e-07
5.06323e-05
1.31646e-06
5.02615e-05
1.79665e-06
4.9814e-05
2.35139e-06
4.93088e-05
2.99754e-06
4.87864e-05
3.75272e-06
4.83241e-05
4.6299e-06
4.80488e-05
5.62252e-06
6.66477e-06
4.81017e-05
1.53358e-05
-3.75046e-07
1.54917e-05
-6.90448e-07
1.57034e-05
-9.34129e-07
1.59568e-05
-1.11507e-06
1.62404e-05
-1.24658e-06
1.65458e-05
-1.34091e-06
1.68669e-05
-1.40931e-06
1.72e-05
-1.46201e-06
1.75435e-05
-1.50746e-06
1.78969e-05
-1.55189e-06
1.8261e-05
-1.59938e-06
1.86368e-05
-1.65212e-06
1.90258e-05
-1.71096e-06
1.94292e-05
-1.77586e-06
1.98484e-05
-1.84632e-06
2.02842e-05
-1.92164e-06
2.07378e-05
-2.0011e-06
2.12098e-05
-2.084e-06
2.17007e-05
-2.1697e-06
2.22111e-05
-2.25761e-06
2.27413e-05
-2.3472e-06
2.32914e-05
-2.43793e-06
2.38615e-05
-2.52928e-06
2.44516e-05
-2.62077e-06
2.50616e-05
-2.71188e-06
2.56912e-05
-2.80213e-06
2.63399e-05
-2.89102e-06
2.70074e-05
-2.97809e-06
2.76931e-05
-3.06285e-06
2.83963e-05
-3.14487e-06
2.91161e-05
-3.22368e-06
2.98518e-05
-3.29885e-06
3.06023e-05
-3.36998e-06
3.13666e-05
-3.43666e-06
3.21435e-05
-3.4985e-06
3.29319e-05
-3.55512e-06
3.37304e-05
-3.60617e-06
3.45377e-05
-3.6513e-06
3.53524e-05
-3.69019e-06
3.61728e-05
-3.72251e-06
3.69975e-05
-3.74796e-06
3.78248e-05
-3.76625e-06
3.86531e-05
-3.7771e-06
3.94806e-05
-3.78024e-06
4.03054e-05
-3.7754e-06
4.11258e-05
-3.76234e-06
4.19399e-05
-3.7408e-06
4.27457e-05
-3.71055e-06
4.35413e-05
-3.67135e-06
4.43245e-05
-3.62295e-06
4.50934e-05
-3.56511e-06
4.58459e-05
-3.4976e-06
4.65798e-05
-3.42015e-06
4.72928e-05
-3.3325e-06
4.79828e-05
-3.23438e-06
4.86475e-05
-3.12549e-06
4.92845e-05
-3.00549e-06
4.98914e-05
-2.87402e-06
5.04659e-05
-2.73067e-06
5.10054e-05
-2.57499e-06
5.15073e-05
-2.40643e-06
5.1969e-05
-2.22436e-06
5.23879e-05
-2.02805e-06
5.27611e-05
-1.81661e-06
5.30858e-05
-1.58897e-06
5.33591e-05
-1.34385e-06
5.35779e-05
-1.07965e-06
5.37393e-05
-7.94429e-07
5.38402e-05
-4.85762e-07
5.38777e-05
-1.50685e-07
5.38496e-05
2.14186e-07
5.37546e-05
6.13016e-07
5.35929e-05
1.05113e-06
5.33677e-05
1.5348e-06
5.30867e-05
2.07103e-06
5.27648e-05
2.66701e-06
5.24274e-05
3.32889e-06
5.2115e-05
4.05943e-06
5.18859e-05
4.85368e-06
5.18122e-05
5.69128e-06
6.52205e-06
5.19504e-05
1.64082e-05
-4.61857e-07
1.65734e-05
-8.55118e-07
1.6798e-05
-1.15789e-06
1.70672e-05
-1.38308e-06
1.73688e-05
-1.54667e-06
1.76936e-05
-1.66384e-06
1.8035e-05
-1.74859e-06
1.83892e-05
-1.81363e-06
1.87541e-05
-1.86946e-06
1.91293e-05
-1.92387e-06
1.95155e-05
-1.98194e-06
1.99137e-05
-2.04644e-06
2.03254e-05
-2.11845e-06
2.07521e-05
-2.19794e-06
2.1195e-05
-2.2843e-06
2.16552e-05
-2.37667e-06
2.21337e-05
-2.47413e-06
2.26312e-05
-2.57582e-06
2.31484e-05
-2.68093e-06
2.36857e-05
-2.78873e-06
2.42434e-05
-2.89854e-06
2.48217e-05
-3.0097e-06
2.54207e-05
-3.12158e-06
2.60402e-05
-3.23354e-06
2.66801e-05
-3.34498e-06
2.73401e-05
-3.45529e-06
2.80198e-05
-3.56386e-06
2.87186e-05
-3.67012e-06
2.9436e-05
-3.77347e-06
3.0171e-05
-3.87337e-06
3.0923e-05
-3.96925e-06
3.1691e-05
-4.0606e-06
3.24739e-05
-4.14689e-06
3.32706e-05
-4.22764e-06
3.40799e-05
-4.30236e-06
3.49005e-05
-4.37061e-06
3.5731e-05
-4.43193e-06
3.657e-05
-4.48591e-06
3.74159e-05
-4.53215e-06
3.82671e-05
-4.57025e-06
3.91221e-05
-4.59984e-06
3.99789e-05
-4.62058e-06
4.0836e-05
-4.63212e-06
4.16915e-05
-4.63413e-06
4.25434e-05
-4.6263e-06
4.33898e-05
-4.60833e-06
4.42289e-05
-4.57991e-06
4.50585e-05
-4.54076e-06
4.58766e-05
-4.4906e-06
4.66811e-05
-4.42915e-06
4.74699e-05
-4.35611e-06
4.82408e-05
-4.27122e-06
4.89916e-05
-4.17419e-06
4.972e-05
-4.0647e-06
5.04239e-05
-3.94245e-06
5.11008e-05
-3.80711e-06
5.17485e-05
-3.65831e-06
5.23647e-05
-3.49567e-06
5.29468e-05
-3.31874e-06
5.34926e-05
-3.12705e-06
5.39996e-05
-2.92002e-06
5.44654e-05
-2.69702e-06
5.48876e-05
-2.4573e-06
5.52636e-05
-2.2e-06
5.55912e-05
-1.92409e-06
5.58681e-05
-1.62834e-06
5.6092e-05
-1.31131e-06
5.62611e-05
-9.7127e-07
5.63737e-05
-6.06161e-07
5.64289e-05
-2.13599e-07
5.64265e-05
2.08822e-07
5.63683e-05
6.63688e-07
5.62579e-05
1.15412e-06
5.61023e-05
1.6833e-06
5.59124e-05
2.25391e-06
5.57053e-05
2.86748e-06
5.55047e-05
3.5232e-06
5.53419e-05
4.2163e-06
5.52542e-05
4.93578e-06
5.52789e-05
5.66143e-06
6.36051e-06
5.54357e-05
1.75557e-05
-5.53115e-07
1.77303e-05
-1.02923e-06
1.79683e-05
-1.39494e-06
1.82538e-05
-1.66738e-06
1.8574e-05
-1.86526e-06
1.8919e-05
-2.00679e-06
1.92817e-05
-2.1089e-06
1.96577e-05
-2.18691e-06
2.00448e-05
-2.25351e-06
2.04425e-05
-2.31813e-06
2.08514e-05
-2.38697e-06
2.12726e-05
-2.46344e-06
2.17076e-05
-2.54888e-06
2.21578e-05
-2.6433e-06
2.26247e-05
-2.74597e-06
2.31094e-05
-2.85584e-06
2.3613e-05
-2.97181e-06
2.41361e-05
-3.09281e-06
2.46794e-05
-3.21787e-06
2.52434e-05
-3.34609e-06
2.58283e-05
-3.47665e-06
2.64344e-05
-3.60874e-06
2.70615e-05
-3.74161e-06
2.77097e-05
-3.87449e-06
2.83787e-05
-4.00666e-06
2.90681e-05
-4.13738e-06
2.97775e-05
-4.26594e-06
3.05063e-05
-4.39163e-06
3.12538e-05
-4.51376e-06
3.20192e-05
-4.63166e-06
3.28015e-05
-4.74468e-06
3.35998e-05
-4.85219e-06
3.4413e-05
-4.95357e-06
3.52398e-05
-5.04824e-06
3.60789e-05
-5.13563e-06
3.6929e-05
-5.21519e-06
3.77886e-05
-5.2864e-06
3.86562e-05
-5.34877e-06
3.95301e-05
-5.40181e-06
4.04088e-05
-5.44507e-06
4.12903e-05
-5.4781e-06
4.21731e-05
-5.5005e-06
4.30551e-05
-5.51186e-06
4.39345e-05
-5.5118e-06
4.48093e-05
-5.49995e-06
4.56775e-05
-5.47596e-06
4.65372e-05
-5.43949e-06
4.73861e-05
-5.39021e-06
4.82221e-05
-5.32779e-06
4.90432e-05
-5.25193e-06
4.98472e-05
-5.1623e-06
5.06317e-05
-5.0586e-06
5.13947e-05
-4.94052e-06
5.21339e-05
-4.80772e-06
5.28469e-05
-4.65989e-06
5.35316e-05
-4.49667e-06
5.41856e-05
-4.3177e-06
5.48068e-05
-4.12259e-06
5.53928e-05
-3.91091e-06
5.59414e-05
-3.68218e-06
5.64504e-05
-3.43589e-06
5.69176e-05
-3.17145e-06
5.7341e-05
-2.88819e-06
5.77187e-05
-2.58535e-06
5.80488e-05
-2.26208e-06
5.83298e-05
-1.91737e-06
5.85605e-05
-1.5501e-06
5.87401e-05
-1.15899e-06
5.88684e-05
-7.42609e-07
5.89461e-05
-2.99431e-07
5.89751e-05
1.71801e-07
5.89589e-05
6.71955e-07
5.89034e-05
1.20196e-06
5.88169e-05
1.76229e-06
5.87111e-05
2.35246e-06
5.86012e-05
2.9704e-06
5.8506e-05
3.6118e-06
5.84468e-05
4.26927e-06
5.84452e-05
4.93153e-06
5.85184e-05
5.58285e-06
6.20357e-06
5.86705e-05
1.87833e-05
-6.4903e-07
1.89677e-05
-1.21303e-06
1.92194e-05
-1.64567e-06
1.95218e-05
-1.96848e-06
1.98613e-05
-2.20296e-06
2.0227e-05
-2.37045e-06
2.06116e-05
-2.49097e-06
2.10102e-05
-2.58257e-06
2.14203e-05
-2.66028e-06
2.18412e-05
-2.73529e-06
2.22733e-05
-2.81502e-06
2.27179e-05
-2.90358e-06
2.31765e-05
-3.00261e-06
2.36506e-05
-3.11217e-06
2.41417e-05
-3.23143e-06
2.4651e-05
-3.35914e-06
2.51794e-05
-3.494e-06
2.57279e-05
-3.63473e-06
2.6297e-05
-3.78015e-06
2.68872e-05
-3.92921e-06
2.74988e-05
-4.08091e-06
2.81319e-05
-4.2343e-06
2.87864e-05
-4.38849e-06
2.94622e-05
-4.54258e-06
3.01591e-05
-4.69571e-06
3.08767e-05
-4.84704e-06
3.16143e-05
-4.99571e-06
3.23714e-05
-5.1409e-06
3.31472e-05
-5.28182e-06
3.39409e-05
-5.41768e-06
3.47513e-05
-5.54771e-06
3.55776e-05
-5.67119e-06
3.64184e-05
-5.7874e-06
3.72725e-05
-5.89565e-06
3.81385e-05
-5.99529e-06
3.90149e-05
-6.08568e-06
3.99003e-05
-6.16622e-06
4.0793e-05
-6.23633e-06
4.16914e-05
-6.29546e-06
4.25935e-05
-6.34307e-06
4.34978e-05
-6.37867e-06
4.44022e-05
-6.40178e-06
4.53048e-05
-6.41194e-06
4.62037e-05
-6.40871e-06
4.70968e-05
-6.39169e-06
4.79821e-05
-6.36047e-06
4.88575e-05
-6.31468e-06
4.97207e-05
-6.25394e-06
5.05698e-05
-6.17791e-06
5.14025e-05
-6.08624e-06
5.22165e-05
-5.97861e-06
5.30098e-05
-5.85468e-06
5.378e-05
-5.71414e-06
5.45249e-05
-5.55665e-06
5.52424e-05
-5.3819e-06
5.59303e-05
-5.18955e-06
5.65863e-05
-4.97925e-06
5.72084e-05
-4.75066e-06
5.77944e-05
-4.50339e-06
5.83425e-05
-4.23705e-06
5.88506e-05
-3.9512e-06
5.93171e-05
-3.64538e-06
5.97402e-05
-3.31908e-06
6.01186e-05
-2.97177e-06
6.04512e-05
-2.60285e-06
6.07372e-05
-2.21168e-06
6.09763e-05
-1.79761e-06
6.11688e-05
-1.35996e-06
6.13158e-05
-8.98078e-07
6.14193e-05
-4.11394e-07
6.14824e-05
1.00333e-07
6.15097e-05
6.36459e-07
6.15077e-05
1.19595e-06
6.14848e-05
1.77738e-06
6.14515e-05
2.37831e-06
6.14197e-05
2.99495e-06
6.14029e-05
3.62181e-06
6.14143e-05
4.25147e-06
6.14653e-05
4.87454e-06
6.15626e-05
5.47997e-06
6.05644e-06
6.17047e-05
2.00968e-05
-7.49782e-07
2.02911e-05
-1.40672e-06
2.05569e-05
-1.91042e-06
2.08766e-05
-2.28676e-06
2.12357e-05
-2.56023e-06
2.16229e-05
-2.75537e-06
2.203e-05
-2.89536e-06
2.24517e-05
-3.00119e-06
2.28853e-05
-3.09031e-06
2.33298e-05
-3.17584e-06
2.37857e-05
-3.26648e-06
2.4254e-05
-3.36713e-06
2.47364e-05
-3.47979e-06
2.52345e-05
-3.60459e-06
2.57496e-05
-3.7406e-06
2.62832e-05
-3.88637e-06
2.68363e-05
-4.04036e-06
2.74097e-05
-4.20109e-06
2.8004e-05
-4.36716e-06
2.86197e-05
-4.53731e-06
2.9257e-05
-4.71039e-06
2.9916e-05
-4.88529e-06
3.05967e-05
-5.06095e-06
3.12988e-05
-5.23637e-06
3.20221e-05
-5.41053e-06
3.2766e-05
-5.58246e-06
3.35299e-05
-5.75118e-06
3.43132e-05
-5.91577e-06
3.5115e-05
-6.07529e-06
3.59344e-05
-6.22885e-06
3.67703e-05
-6.37557e-06
3.76215e-05
-6.51463e-06
3.84869e-05
-6.64519e-06
3.9365e-05
-6.76649e-06
4.02543e-05
-6.87776e-06
4.11534e-05
-6.9783e-06
4.20607e-05
-7.0674e-06
4.29744e-05
-7.14442e-06
4.38928e-05
-7.20873e-06
4.4814e-05
-7.25973e-06
4.57363e-05
-7.29685e-06
4.66575e-05
-7.31956e-06
4.75758e-05
-7.32735e-06
4.84891e-05
-7.31973e-06
4.93953e-05
-7.29626e-06
5.02923e-05
-7.25649e-06
5.1178e-05
-7.20001e-06
5.20503e-05
-7.12643e-06
5.29068e-05
-7.03538e-06
5.37455e-05
-6.92651e-06
5.45642e-05
-6.79948e-06
5.53607e-05
-6.65396e-06
5.61327e-05
-6.48964e-06
5.68783e-05
-6.30621e-06
5.75952e-05
-6.10339e-06
5.82814e-05
-5.88087e-06
5.89349e-05
-5.63839e-06
5.95537e-05
-5.37565e-06
6.01361e-05
-5.09237e-06
6.06803e-05
-4.78829e-06
6.11849e-05
-4.46312e-06
6.16484e-05
-4.11659e-06
6.20697e-05
-3.74843e-06
6.24481e-05
-3.35838e-06
6.2783e-05
-2.94622e-06
6.30745e-05
-2.51176e-06
6.33231e-05
-2.05488e-06
6.35299e-05
-1.57556e-06
6.36971e-05
-1.07397e-06
6.38274e-05
-5.50464e-07
6.39247e-05
-5.51666e-09
6.39936e-05
5.59151e-07
6.40405e-05
1.14079e-06
6.40729e-05
1.73698e-06
6.40991e-05
2.34443e-06
6.41279e-05
2.9588e-06
6.4168e-05
3.5747e-06
6.42272e-05
4.18576e-06
6.43108e-05
4.78482e-06
6.44206e-05
5.36448e-06
5.91843e-06
6.45535e-05
2.1502e-05
-8.55512e-07
2.17064e-05
-1.61047e-06
2.19865e-05
-2.18939e-06
2.23238e-05
-2.62251e-06
2.2703e-05
-2.93741e-06
2.31119e-05
-3.16189e-06
2.35419e-05
-3.32247e-06
2.39872e-05
-3.44314e-06
2.44446e-05
-3.54396e-06
2.49131e-05
-3.64004e-06
2.53928e-05
-3.74152e-06
2.58849e-05
-3.85414e-06
2.63911e-05
-3.98034e-06
2.69128e-05
-4.12034e-06
2.74517e-05
-4.2731e-06
2.80092e-05
-4.43699e-06
2.85862e-05
-4.61022e-06
2.91837e-05
-4.79105e-06
2.98023e-05
-4.97787e-06
3.04423e-05
-5.16922e-06
3.11041e-05
-5.36374e-06
3.17876e-05
-5.56016e-06
3.24927e-05
-5.75728e-06
3.32193e-05
-5.95394e-06
3.39668e-05
-6.14898e-06
3.47347e-05
-6.34131e-06
3.55225e-05
-6.52982e-06
3.63293e-05
-6.71345e-06
3.71541e-05
-6.89117e-06
3.79961e-05
-7.06195e-06
3.8854e-05
-7.22482e-06
3.97267e-05
-7.37883e-06
4.06127e-05
-7.52307e-06
4.15107e-05
-7.65664e-06
4.24191e-05
-7.77872e-06
4.33364e-05
-7.8885e-06
4.42608e-05
-7.98519e-06
4.51907e-05
-8.06808e-06
4.6124e-05
-8.13647e-06
4.70591e-05
-8.18968e-06
4.79938e-05
-8.2271e-06
4.89263e-05
-8.24814e-06
4.98545e-05
-8.25224e-06
5.07763e-05
-8.23888e-06
5.16896e-05
-8.20756e-06
5.25923e-05
-8.15782e-06
5.34821e-05
-8.08924e-06
5.43571e-05
-8.00139e-06
5.52149e-05
-7.89392e-06
5.60534e-05
-7.76646e-06
5.68706e-05
-7.61869e-06
5.76642e-05
-7.45031e-06
5.84323e-05
-7.26103e-06
5.91727e-05
-7.05061e-06
5.98835e-05
-6.81879e-06
6.05629e-05
-6.56538e-06
6.1209e-05
-6.29019e-06
6.18202e-05
-5.99304e-06
6.23949e-05
-5.6738e-06
6.29319e-05
-5.33237e-06
6.34299e-05
-4.96867e-06
6.38881e-05
-4.58267e-06
6.43059e-05
-4.1744e-06
6.46831e-05
-3.74396e-06
6.50198e-05
-3.29151e-06
6.53166e-05
-2.81734e-06
6.55747e-05
-2.32188e-06
6.57959e-05
-1.80574e-06
6.59828e-05
-1.26976e-06
6.61385e-05
-7.15025e-07
6.62673e-05
-1.43013e-07
6.63738e-05
4.44049e-07
6.64633e-05
1.04294e-06
6.65416e-05
1.65054e-06
6.6615e-05
2.26324e-06
6.66895e-05
2.87685e-06
6.67706e-05
3.48665e-06
6.68622e-05
4.08755e-06
6.69665e-05
4.6743e-06
6.70834e-05
5.242e-06
5.7873e-06
6.72094e-05
2.30054e-05
-9.66314e-07
2.32199e-05
-1.82432e-06
2.35144e-05
-2.4827e-06
2.38694e-05
-2.97585e-06
2.42687e-05
-3.33462e-06
2.46996e-05
-3.59016e-06
2.51526e-05
-3.7724e-06
2.56215e-05
-3.90851e-06
2.61028e-05
-4.02124e-06
2.65952e-05
-4.12785e-06
2.70987e-05
-4.23999e-06
2.76144e-05
-4.36436e-06
2.81439e-05
-4.50386e-06
2.86888e-05
-4.65886e-06
2.92508e-05
-4.82822e-06
2.98312e-05
-5.01012e-06
3.04312e-05
-5.2025e-06
3.10515e-05
-5.40335e-06
3.16929e-05
-5.61084e-06
3.23557e-05
-5.82326e-06
3.30401e-05
-6.03907e-06
3.3746e-05
-6.25682e-06
3.44733e-05
-6.47515e-06
3.52218e-05
-6.69273e-06
3.59908e-05
-6.90828e-06
3.67799e-05
-7.12056e-06
3.75882e-05
-7.32834e-06
3.8415e-05
-7.53044e-06
3.92592e-05
-7.72569e-06
4.01198e-05
-7.91297e-06
4.09955e-05
-8.09118e-06
4.18851e-05
-8.25928e-06
4.27872e-05
-8.41624e-06
4.37002e-05
-8.56109e-06
4.46225e-05
-8.69289e-06
4.55525e-05
-8.81077e-06
4.64885e-05
-8.91386e-06
4.74285e-05
-9.00136e-06
4.83708e-05
-9.0725e-06
4.93134e-05
-9.12658e-06
5.02542e-05
-9.1629e-06
5.11914e-05
-9.18083e-06
5.21227e-05
-9.17977e-06
5.30461e-05
-9.15917e-06
5.39595e-05
-9.11852e-06
5.48607e-05
-9.05732e-06
5.57476e-05
-8.97516e-06
5.66181e-05
-8.87161e-06
5.74701e-05
-8.74631e-06
5.83014e-05
-8.59894e-06
5.91101e-05
-8.4292e-06
5.98941e-05
-8.23683e-06
6.06515e-05
-8.02161e-06
6.13804e-05
-7.78336e-06
6.20791e-05
-7.52194e-06
6.27459e-05
-7.23723e-06
6.33793e-05
-6.92919e-06
6.39779e-05
-6.59781e-06
6.45405e-05
-6.24312e-06
6.50663e-05
-5.86524e-06
6.55544e-05
-5.46434e-06
6.60045e-05
-5.04067e-06
6.64165e-05
-4.59458e-06
6.67906e-05
-4.12653e-06
6.71276e-05
-3.63711e-06
6.74285e-05
-3.12707e-06
6.7695e-05
-2.59733e-06
6.79293e-05
-2.04904e-06
6.81342e-05
-1.48358e-06
6.83129e-05
-9.02637e-07
6.84693e-05
-3.08191e-07
6.86074e-05
2.97327e-07
6.87316e-05
9.10458e-07
6.88461e-05
1.5279e-06
6.89555e-05
2.14613e-06
6.90636e-05
2.76139e-06
6.91735e-05
3.36977e-06
6.92872e-05
3.96729e-06
6.94053e-05
4.55016e-06
6.95267e-05
5.11513e-06
5.66055e-06
6.96484e-05
2.46136e-05
-1.08222e-06
2.48383e-05
-2.04824e-06
2.51471e-05
-2.79026e-06
2.55197e-05
-3.34665e-06
2.5939e-05
-3.7517e-06
2.63916e-05
-4.03997e-06
2.68674e-05
-4.24493e-06
2.73597e-05
-4.39702e-06
2.78646e-05
-4.52181e-06
2.83804e-05
-4.63883e-06
2.89072e-05
-4.76135e-06
2.94458e-05
-4.8971e-06
2.99978e-05
-5.04952e-06
3.0565e-05
-5.21915e-06
3.11489e-05
-5.40478e-06
3.17509e-05
-5.60436e-06
3.23723e-05
-5.81559e-06
3.30137e-05
-6.03617e-06
3.36759e-05
-6.26401e-06
3.43592e-05
-6.49716e-06
3.50637e-05
-6.73386e-06
3.57893e-05
-6.97249e-06
3.65358e-05
-7.21151e-06
3.73029e-05
-7.44943e-06
3.809e-05
-7.68484e-06
3.88963e-05
-7.91635e-06
3.97212e-05
-8.14261e-06
4.05636e-05
-8.3623e-06
4.14226e-05
-8.57415e-06
4.22969e-05
-8.77691e-06
4.31853e-05
-8.96939e-06
4.40864e-05
-9.15041e-06
4.49987e-05
-9.31888e-06
4.59207e-05
-9.47373e-06
4.68506e-05
-9.61392e-06
4.77869e-05
-9.73849e-06
4.87276e-05
-9.84652e-06
4.96708e-05
-9.93714e-06
5.06148e-05
-1.00095e-05
5.15575e-05
-1.00629e-05
5.24968e-05
-1.00965e-05
5.34308e-05
-1.01097e-05
5.43573e-05
-1.01019e-05
5.52743e-05
-1.00725e-05
5.61796e-05
-1.00209e-05
5.70712e-05
-9.94669e-06
5.7947e-05
-9.84944e-06
5.88049e-05
-9.72876e-06
5.96429e-05
-9.5843e-06
6.0459e-05
-9.41579e-06
6.12514e-05
-9.22298e-06
6.2018e-05
-9.00568e-06
6.27573e-05
-8.76376e-06
6.34675e-05
-8.49715e-06
6.41472e-05
-8.20581e-06
6.47949e-05
-7.8898e-06
6.54095e-05
-7.5492e-06
6.59899e-05
-7.18421e-06
6.65353e-05
-6.79507e-06
6.70452e-05
-6.38213e-06
6.75194e-05
-5.94585e-06
6.79577e-05
-5.48676e-06
6.83606e-05
-5.00555e-06
6.87287e-05
-4.50303e-06
6.90632e-05
-3.98018e-06
6.93655e-05
-3.43814e-06
6.96377e-05
-2.87828e-06
6.98819e-05
-2.30215e-06
7.01011e-05
-1.71155e-06
7.02982e-05
-1.10853e-06
7.04768e-05
-4.95348e-07
7.06398e-05
1.25823e-07
7.07905e-05
7.51574e-07
7.09322e-05
1.37833e-06
7.10679e-05
2.00291e-06
7.12e-05
2.62215e-06
7.13302e-05
3.23287e-06
7.14592e-05
3.83198e-06
7.15869e-05
4.41669e-06
7.1712e-05
4.9848e-06
5.53566e-06
7.18322e-05
2.63341e-05
-1.20317e-06
2.65686e-05
-2.28203e-06
2.68915e-05
-3.11176e-06
2.72812e-05
-3.73451e-06
2.77201e-05
-4.18815e-06
2.81938e-05
-4.51076e-06
2.86918e-05
-4.7394e-06
2.92068e-05
-4.90793e-06
2.97345e-05
-5.04486e-06
3.02729e-05
-5.17207e-06
3.08218e-05
-5.30457e-06
3.13822e-05
-5.45119e-06
3.19555e-05
-5.61598e-06
3.25433e-05
-5.79968e-06
3.31474e-05
-6.00101e-06
3.37692e-05
-6.21774e-06
3.44097e-05
-6.44727e-06
3.50698e-05
-6.68703e-06
3.57502e-05
-6.93463e-06
3.64509e-05
-7.18788e-06
3.71723e-05
-7.4448e-06
3.79141e-05
-7.70356e-06
3.8676e-05
-7.96246e-06
3.94575e-05
-8.21984e-06
4.02582e-05
-8.47415e-06
4.10771e-05
-8.72386e-06
4.19134e-05
-8.96748e-06
4.27661e-05
-9.20358e-06
4.36341e-05
-9.43077e-06
4.45161e-05
-9.64768e-06
4.54109e-05
-9.85302e-06
4.63168e-05
-1.00455e-05
4.72325e-05
-1.0224e-05
4.81562e-05
-1.03872e-05
4.90862e-05
-1.05342e-05
5.00209e-05
-1.06638e-05
5.09583e-05
-1.0775e-05
5.18965e-05
-1.0867e-05
5.28337e-05
-1.09389e-05
5.37677e-05
-1.09897e-05
5.46966e-05
-1.10189e-05
5.56183e-05
-1.10256e-05
5.65308e-05
-1.10093e-05
5.74321e-05
-1.09693e-05
5.832e-05
-1.09051e-05
5.91926e-05
-1.08164e-05
6.00478e-05
-1.07025e-05
6.08837e-05
-1.05633e-05
6.16984e-05
-1.03984e-05
6.24902e-05
-1.02077e-05
6.32571e-05
-9.99087e-06
6.39977e-05
-9.74793e-06
6.47104e-05
-9.47883e-06
6.53937e-05
-9.18362e-06
6.60466e-05
-8.86243e-06
6.66678e-05
-8.51547e-06
6.72566e-05
-8.14303e-06
6.78122e-05
-7.74549e-06
6.83344e-05
-7.32335e-06
6.88228e-05
-6.87721e-06
6.92777e-05
-6.40778e-06
6.96994e-05
-5.9159e-06
7.00887e-05
-5.40257e-06
7.04465e-05
-4.86893e-06
7.07744e-05
-4.31627e-06
7.10739e-05
-3.74608e-06
7.13472e-05
-3.16002e-06
7.15964e-05
-2.55993e-06
7.18243e-05
-1.94787e-06
7.20334e-05
-1.32609e-06
7.22267e-05
-6.96915e-07
7.24069e-05
-6.23691e-08
7.25761e-05
5.7459e-07
7.27367e-05
1.21025e-06
7.28906e-05
1.84188e-06
7.30392e-05
2.46681e-06
7.31834e-05
3.08245e-06
7.33233e-05
3.68635e-06
7.34583e-05
4.27639e-06
7.35873e-05
4.85103e-06
5.41022e-06
7.37086e-05
2.81744e-05
-1.32902e-06
2.84186e-05
-2.52534e-06
2.87549e-05
-3.44664e-06
2.91611e-05
-4.1387e-06
2.96186e-05
-4.64308e-06
3.01124e-05
-5.00147e-06
3.06314e-05
-5.25466e-06
3.11678e-05
-5.43998e-06
3.17169e-05
-5.58899e-06
3.22764e-05
-5.72606e-06
3.2846e-05
-5.86799e-06
3.34263e-05
-6.02482e-06
3.40189e-05
-6.20125e-06
3.46253e-05
-6.39824e-06
3.52472e-05
-6.61451e-06
3.5886e-05
-6.84758e-06
3.65428e-05
-7.09459e-06
3.72184e-05
-7.35267e-06
3.79133e-05
-7.61914e-06
3.86278e-05
-7.89154e-06
3.93618e-05
-8.16767e-06
4.01153e-05
-8.44549e-06
4.08877e-05
-8.72311e-06
4.16786e-05
-8.99873e-06
4.24873e-05
-9.27062e-06
4.33129e-05
-9.53713e-06
4.41545e-05
-9.79666e-06
4.50109e-05
-1.00476e-05
4.58811e-05
-1.02885e-05
4.67636e-05
-1.05179e-05
4.7657e-05
-1.07344e-05
4.85599e-05
-1.09365e-05
4.94706e-05
-1.11231e-05
5.03875e-05
-1.12929e-05
5.13088e-05
-1.14446e-05
5.22327e-05
-1.15773e-05
5.31573e-05
-1.16898e-05
5.40807e-05
-1.17811e-05
5.50011e-05
-1.18504e-05
5.59163e-05
-1.18968e-05
5.68244e-05
-1.19195e-05
5.77234e-05
-1.19178e-05
5.86113e-05
-1.18911e-05
5.9486e-05
-1.18388e-05
6.03458e-05
-1.17603e-05
6.11885e-05
-1.16553e-05
6.20124e-05
-1.15235e-05
6.28157e-05
-1.13644e-05
6.35966e-05
-1.1178e-05
6.43535e-05
-1.0964e-05
6.50849e-05
-1.07225e-05
6.57895e-05
-1.04534e-05
6.64659e-05
-1.0157e-05
6.71131e-05
-9.83325e-06
6.77302e-05
-9.48263e-06
6.83164e-05
-9.10548e-06
6.88712e-05
-8.7023e-06
6.93944e-05
-8.27371e-06
6.9886e-05
-7.82042e-06
7.0346e-05
-7.3433e-06
7.07751e-05
-6.84331e-06
7.11739e-05
-6.32158e-06
7.15435e-05
-5.77936e-06
7.18852e-05
-5.21805e-06
7.22005e-05
-4.63923e-06
7.24912e-05
-4.0446e-06
7.27594e-05
-3.43604e-06
7.30071e-05
-2.81554e-06
7.32366e-05
-2.18528e-06
7.34503e-05
-1.5475e-06
7.36503e-05
-9.04543e-07
7.38393e-05
-2.58731e-07
7.40191e-05
3.87679e-07
7.41909e-05
1.0316e-06
7.43559e-05
1.67047e-06
7.45148e-05
2.30194e-06
7.46679e-05
2.92381e-06
7.48151e-05
3.5341e-06
7.49559e-05
4.13114e-06
7.50891e-05
4.7138e-06
5.28235e-06
7.52136e-05
3.0143e-05
-1.45952e-06
3.03961e-05
-2.77758e-06
3.0745e-05
-3.79402e-06
3.11665e-05
-4.55809e-06
3.16413e-05
-5.11511e-06
3.21538e-05
-5.51054e-06
3.2692e-05
-5.78895e-06
3.32479e-05
-5.99124e-06
3.38164e-05
-6.15215e-06
3.43948e-05
-6.29859e-06
3.49826e-05
-6.44926e-06
3.55804e-05
-6.61546e-06
3.61896e-05
-6.80259e-06
3.68116e-05
-7.01188e-06
3.74481e-05
-7.24202e-06
3.81005e-05
-7.49035e-06
3.87698e-05
-7.75371e-06
3.94567e-05
-8.02893e-06
4.01617e-05
-8.31303e-06
4.08851e-05
-8.60328e-06
4.16267e-05
-8.89724e-06
4.23862e-05
-9.19266e-06
4.31633e-05
-9.48746e-06
4.39573e-05
-9.77969e-06
4.47673e-05
-1.00675e-05
4.55925e-05
-1.0349e-05
4.64318e-05
-1.06226e-05
4.72841e-05
-1.08865e-05
4.81481e-05
-1.11391e-05
4.90224e-05
-1.13789e-05
4.99056e-05
-1.16043e-05
5.0796e-05
-1.1814e-05
5.1692e-05
-1.20064e-05
5.2592e-05
-1.21805e-05
5.34941e-05
-1.23348e-05
5.43966e-05
-1.24682e-05
5.52974e-05
-1.25796e-05
5.61949e-05
-1.2668e-05
5.70869e-05
-1.27325e-05
5.79716e-05
-1.27722e-05
5.8847e-05
-1.27863e-05
5.97113e-05
-1.27741e-05
6.05624e-05
-1.2735e-05
6.13985e-05
-1.26684e-05
6.22178e-05
-1.2574e-05
6.30185e-05
-1.24512e-05
6.37989e-05
-1.22998e-05
6.45574e-05
-1.21197e-05
6.52926e-05
-1.19107e-05
6.6003e-05
-1.16728e-05
6.66874e-05
-1.14061e-05
6.73446e-05
-1.11107e-05
6.79739e-05
-1.07869e-05
6.85743e-05