/*--------------------------------*- C++ -*----------------------------------*\
  =========                 |
  \\      /  F ield         | OpenFOAM: The Open Source CFD Toolbox
   \\    /   O peration     | Website:  https://openfoam.org
    \\  /    A nd           | Version:  7
     \\/     M anipulation  |
\*---------------------------------------------------------------------------*/
FoamFile
{
    version     2.0;
    format      ascii;
    class       surfaceScalarField;
    location    "1";
    object      phi;
}
// * * * * * * * * * * * * * * * * * * * * * * * * * * * * * * * * * * * * * //

dimensions      [1 0 -1 0 0 0 0];

internalField   nonuniform List<scalar> 
23692
(
1.16345e-05
4.69974e-10
1.16333e-05
1.20838e-09
1.16309e-05
2.39479e-09
1.16267e-05
4.15557e-09
1.16202e-05
6.49742e-09
1.1611e-05
9.24724e-09
1.15989e-05
1.20968e-08
1.15842e-05
1.47055e-08
1.15674e-05
1.68077e-08
1.15491e-05
1.82745e-08
1.153e-05
1.91198e-08
1.15105e-05
1.94609e-08
1.1491e-05
1.94602e-08
1.14718e-05
1.92767e-08
1.14527e-05
1.90351e-08
1.14339e-05
1.88156e-08
1.14153e-05
1.86582e-08
1.13967e-05
1.85743e-08
1.13781e-05
1.85583e-08
1.13595e-05
1.85968e-08
1.13409e-05
1.8676e-08
1.13221e-05
1.87842e-08
1.13032e-05
1.8913e-08
1.12841e-05
1.90574e-08
1.12649e-05
1.92149e-08
1.12455e-05
1.93846e-08
1.12259e-05
1.95678e-08
1.12062e-05
1.97649e-08
1.11862e-05
1.99776e-08
1.1166e-05
2.02075e-08
1.11455e-05
2.04556e-08
1.11248e-05
2.07236e-08
1.11038e-05
2.10128e-08
1.10825e-05
2.13241e-08
1.10608e-05
2.16588e-08
1.10388e-05
2.20175e-08
1.10164e-05
2.24019e-08
1.09936e-05
2.28128e-08
1.09703e-05
2.32518e-08
1.09466e-05
2.37203e-08
1.09224e-05
2.42203e-08
1.08976e-05
2.47538e-08
1.08723e-05
2.53233e-08
1.08464e-05
2.59319e-08
1.08198e-05
2.65831e-08
1.07925e-05
2.7281e-08
1.07645e-05
2.80304e-08
1.07356e-05
2.8837e-08
1.07059e-05
2.97075e-08
1.06753e-05
3.06494e-08
1.06436e-05
3.16717e-08
1.06108e-05
3.27849e-08
1.05768e-05
3.40013e-08
1.05415e-05
3.53352e-08
1.05047e-05
3.68037e-08
1.04663e-05
3.84268e-08
1.0426e-05
4.02285e-08
1.03838e-05
4.22373e-08
1.03393e-05
4.44879e-08
1.02923e-05
4.70222e-08
1.02424e-05
4.98914e-08
1.01892e-05
5.3159e-08
1.01323e-05
5.69039e-08
1.00711e-05
6.12257e-08
1.00049e-05
6.62515e-08
9.93271e-06
7.21449e-08
9.85359e-06
7.91203e-08
9.76613e-06
8.74625e-08
9.66857e-06
9.75551e-08
9.55865e-06
1.09925e-07
9.43334e-06
1.25305e-07
9.2886e-06
1.44739e-07
9.11887e-06
1.69733e-07
8.91637e-06
2.02506e-07
8.66999e-06
2.46373e-07
8.36363e-06
3.06366e-07
7.97347e-06
3.90156e-07
7.4639e-06
5.09573e-07
6.77969e-06
6.84211e-07
5.82943e-06
9.50254e-07
1.40378e-06
4.42565e-06
1.24494e-05
9.58926e-10
1.24482e-05
2.48521e-09
1.24456e-05
4.93155e-09
1.24412e-05
8.56441e-09
1.24343e-05
1.33999e-08
1.24245e-05
1.90828e-08
1.24116e-05
2.49771e-08
1.23959e-05
3.03785e-08
1.2378e-05
3.47349e-08
1.23585e-05
3.77787e-08
1.23381e-05
3.95373e-08
1.23173e-05
4.02515e-08
1.22965e-05
4.02568e-08
1.22759e-05
3.98822e-08
1.22555e-05
3.93846e-08
1.22354e-05
3.89312e-08
1.22155e-05
3.86055e-08
1.21956e-05
3.84311e-08
1.21758e-05
3.8396e-08
1.21559e-05
3.84743e-08
1.21359e-05
3.86368e-08
1.21159e-05
3.88592e-08
1.20956e-05
3.91245e-08
1.20753e-05
3.94223e-08
1.20547e-05
3.97471e-08
1.2034e-05
4.00984e-08
1.20131e-05
4.04764e-08
1.1992e-05
4.08841e-08
1.19707e-05
4.13239e-08
1.19491e-05
4.1799e-08
1.19272e-05
4.23125e-08
1.19051e-05
4.28669e-08
1.18826e-05
4.34648e-08
1.18598e-05
4.41084e-08
1.18367e-05
4.47999e-08
1.18132e-05
4.55419e-08
1.17892e-05
4.63359e-08
1.17649e-05
4.71852e-08
1.174e-05
4.80922e-08
1.17147e-05
4.906e-08
1.16888e-05
5.00925e-08
1.16624e-05
5.11941e-08
1.16353e-05
5.23699e-08
1.16076e-05
5.36262e-08
1.15792e-05
5.49701e-08
1.15501e-05
5.641e-08
1.15202e-05
5.7956e-08
1.14894e-05
5.96196e-08
1.14577e-05
6.14139e-08
1.1425e-05
6.33551e-08
1.13912e-05
6.54613e-08
1.13562e-05
6.7754e-08
1.132e-05
7.0258e-08
1.12823e-05
7.30028e-08
1.12431e-05
7.60228e-08
1.12022e-05
7.93589e-08
1.11593e-05
8.30595e-08
1.11144e-05
8.71826e-08
1.10671e-05
9.17979e-08
1.10171e-05
9.699e-08
1.09641e-05
1.02862e-07
1.09078e-05
1.0954e-07
1.08475e-05
1.17181e-07
1.07827e-05
1.25985e-07
1.07128e-05
1.36199e-07
1.06368e-05
1.48147e-07
1.05536e-05
1.62245e-07
1.04621e-05
1.7904e-07
1.03604e-05
1.99265e-07
1.02464e-05
2.23907e-07
1.01173e-05
2.54323e-07
9.96969e-06
2.92398e-07
9.79864e-06
3.40779e-07
9.59792e-06
4.03226e-07
9.35921e-06
4.85084e-07
9.07167e-06
5.93906e-07
8.72181e-06
7.40019e-07
8.29473e-06
9.36657e-07
7.7798e-06
1.19914e-06
7.19346e-06
1.53659e-06
1.8978e-06
6.69944e-06
1.33215e-05
1.46694e-09
1.33201e-05
3.82974e-09
1.33175e-05
7.60242e-09
1.33128e-05
1.32103e-08
1.33055e-05
2.06832e-08
1.32951e-05
2.94763e-08
1.32815e-05
3.86085e-08
1.32649e-05
4.69907e-08
1.32459e-05
5.37653e-08
1.32251e-05
5.85135e-08
1.32034e-05
6.1272e-08
1.31812e-05
6.24086e-08
1.3159e-05
6.24411e-08
1.31371e-05
6.18766e-08
1.31153e-05
6.11157e-08
1.30938e-05
6.04167e-08
1.30725e-05
5.99115e-08
1.30513e-05
5.96375e-08
1.30301e-05
5.9579e-08
1.30089e-05
5.96954e-08
1.29876e-05
5.99425e-08
1.29662e-05
6.02836e-08
1.29446e-05
6.06918e-08
1.29229e-05
6.11511e-08
1.2901e-05
6.16538e-08
1.28789e-05
6.2197e-08
1.28566e-05
6.27829e-08
1.28341e-05
6.34146e-08
1.28113e-05
6.40967e-08
1.27882e-05
6.48339e-08
1.27649e-05
6.56301e-08
1.27413e-05
6.64899e-08
1.27174e-05
6.74169e-08
1.2693e-05
6.84146e-08
1.26684e-05
6.94865e-08
1.26433e-05
7.06359e-08
1.26177e-05
7.18664e-08
1.25917e-05
7.31815e-08
1.25652e-05
7.45857e-08
1.25382e-05
7.60838e-08
1.25106e-05
7.76815e-08
1.24824e-05
7.93856e-08
1.24536e-05
8.12041e-08
1.24241e-05
8.31462e-08
1.23938e-05
8.52231e-08
1.23628e-05
8.74477e-08
1.23309e-05
8.98351e-08
1.22981e-05
9.24028e-08
1.22644e-05
9.51716e-08
1.22296e-05
9.81653e-08
1.21936e-05
1.01412e-07
1.21564e-05
1.04943e-07
1.21179e-05
1.08798e-07
1.20779e-05
1.1302e-07
1.20362e-05
1.17662e-07
1.19928e-05
1.22784e-07
1.19474e-05
1.28461e-07
1.18998e-05
1.34778e-07
1.18498e-05
1.4184e-07
1.1797e-05
1.49771e-07
1.17411e-05
1.58726e-07
1.16818e-05
1.68888e-07
1.16185e-05
1.8049e-07
1.15506e-05
1.93818e-07
1.14776e-05
2.09231e-07
1.13986e-05
2.27187e-07
1.13125e-05
2.48271e-07
1.12183e-05
2.73244e-07
1.11145e-05
3.03101e-07
1.09992e-05
3.39159e-07
1.08704e-05
3.83176e-07
1.07253e-05
4.37516e-07
1.05607e-05
5.05363e-07
1.03729e-05
5.90991e-07
1.0158e-05
7.0004e-07
9.9122e-06
8.39666e-07
9.63407e-06
1.01815e-06
9.32761e-06
1.24312e-06
9.0101e-06
1.51665e-06
8.72584e-06
1.82085e-06
2.07973e-06
8.54392e-06
1.42546e-05
1.99609e-09
1.42532e-05
5.2371e-09
1.42504e-05
1.03945e-08
1.42455e-05
1.8068e-08
1.42379e-05
2.83064e-08
1.4227e-05
4.03733e-08
1.42127e-05
5.2931e-08
1.41952e-05
6.44855e-08
1.41751e-05
7.38554e-08
1.41532e-05
8.04548e-08
1.41301e-05
8.43226e-08
1.41066e-05
8.59543e-08
1.4083e-05
8.60535e-08
1.40595e-05
8.53157e-08
1.40363e-05
8.42907e-08
1.40134e-05
8.33384e-08
1.39907e-05
8.26422e-08
1.39681e-05
8.22588e-08
1.39455e-05
8.21686e-08
1.39229e-05
8.23184e-08
1.39002e-05
8.26491e-08
1.38773e-05
8.31104e-08
1.38544e-05
8.3666e-08
1.38312e-05
8.4294e-08
1.38079e-05
8.49827e-08
1.37843e-05
8.57295e-08
1.37606e-05
8.65358e-08
1.37366e-05
8.74063e-08
1.37124e-05
8.83463e-08
1.36878e-05
8.93621e-08
1.3663e-05
9.046e-08
1.36378e-05
9.16449e-08
1.36123e-05
9.29222e-08
1.35865e-05
9.42967e-08
1.35602e-05
9.57727e-08
1.35334e-05
9.73547e-08
1.35063e-05
9.90476e-08
1.34786e-05
1.00856e-07
1.34504e-05
1.02787e-07
1.34216e-05
1.04845e-07
1.33923e-05
1.0704e-07
1.33623e-05
1.0938e-07
1.33316e-05
1.11876e-07
1.33002e-05
1.1454e-07
1.3268e-05
1.17387e-07
1.32351e-05
1.20436e-07
1.32012e-05
1.23706e-07
1.31664e-05
1.2722e-07
1.31305e-05
1.31008e-07
1.30936e-05
1.351e-07
1.30555e-05
1.39534e-07
1.30161e-05
1.44353e-07
1.29753e-05
1.49608e-07
1.29329e-05
1.55358e-07
1.28889e-05
1.61672e-07
1.28431e-05
1.6863e-07
1.27952e-05
1.7633e-07
1.27451e-05
1.84884e-07
1.26925e-05
1.94428e-07
1.26371e-05
2.05123e-07
1.25787e-05
2.17168e-07
1.25168e-05
2.30798e-07
1.2451e-05
2.46305e-07
1.23807e-05
2.64048e-07
1.23055e-05
2.84472e-07
1.22246e-05
3.08133e-07
1.21371e-05
3.35733e-07
1.20422e-05
3.68164e-07
1.19387e-05
4.06564e-07
1.18255e-05
4.52396e-07
1.17011e-05
5.07545e-07
1.15642e-05
5.74433e-07
1.14134e-05
6.56145e-07
1.12479e-05
7.56529e-07
1.10677e-05
8.80184e-07
1.08753e-05
1.03212e-06
1.06767e-05
1.21673e-06
1.04846e-05
1.43522e-06
1.03207e-05
1.68056e-06
1.02139e-05
1.92764e-06
2.11866e-06
1.01749e-05
1.52531e-05
2.54758e-09
1.52516e-05
6.70204e-09
1.52487e-05
1.32907e-08
1.52437e-05
2.31025e-08
1.52358e-05
3.62124e-08
1.52244e-05
5.16968e-08
1.52095e-05
6.78544e-08
1.51912e-05
8.27734e-08
1.51702e-05
9.4928e-08
1.51471e-05
1.03548e-07
1.51227e-05
1.08663e-07
1.50978e-05
1.1089e-07
1.50727e-05
1.1112e-07
1.50478e-05
1.10243e-07
1.50231e-05
1.08966e-07
1.49987e-05
1.07757e-07
1.49745e-05
1.0686e-07
1.49504e-05
1.06355e-07
1.49263e-05
1.06221e-07
1.49023e-05
1.06395e-07
1.48781e-05
1.06804e-07
1.48538e-05
1.07384e-07
1.48294e-05
1.0809e-07
1.48048e-05
1.08891e-07
1.478e-05
1.09775e-07
1.4755e-05
1.10735e-07
1.47298e-05
1.11774e-07
1.47043e-05
1.12898e-07
1.46785e-05
1.14112e-07
1.46525e-05
1.15425e-07
1.46261e-05
1.16843e-07
1.45993e-05
1.18373e-07
1.45722e-05
1.20023e-07
1.45447e-05
1.21797e-07
1.45168e-05
1.23701e-07
1.44884e-05
1.2574e-07
1.44596e-05
1.27922e-07
1.44302e-05
1.30251e-07
1.44002e-05
1.32736e-07
1.43697e-05
1.35384e-07
1.43385e-05
1.38205e-07
1.43067e-05
1.41212e-07
1.42741e-05
1.44416e-07
1.42408e-05
1.47835e-07
1.42067e-05
1.51486e-07
1.41718e-05
1.55393e-07
1.41359e-05
1.59579e-07
1.40991e-05
1.64076e-07
1.40612e-05
1.68917e-07
1.40221e-05
1.74142e-07
1.39818e-05
1.79798e-07
1.39403e-05
1.85938e-07
1.38972e-05
1.92625e-07
1.38527e-05
1.9993e-07
1.38064e-05
2.07939e-07
1.37583e-05
2.1675e-07
1.37081e-05
2.26479e-07
1.36558e-05
2.37263e-07
1.36009e-05
2.49264e-07
1.35434e-05
2.62673e-07
1.34828e-05
2.77722e-07
1.34189e-05
2.94687e-07
1.33513e-05
3.13902e-07
1.32796e-05
3.35772e-07
1.32033e-05
3.60793e-07
1.31218e-05
3.89572e-07
1.30347e-05
4.2286e-07
1.29413e-05
4.61582e-07
1.2841e-05
5.06884e-07
1.27332e-05
5.60185e-07
1.26175e-05
6.23229e-07
1.24938e-05
6.98136e-07
1.23625e-05
7.87417e-07
1.22251e-05
8.93924e-07
1.20847e-05
1.02062e-06
1.19468e-05
1.17001e-06
1.18206e-05
1.34299e-06
1.17191e-05
1.53669e-06
1.16586e-05
1.74101e-06
1.16522e-05
1.93406e-06
2.07863e-06
1.16922e-05
1.63215e-05
3.12116e-09
1.632e-05
8.21701e-09
1.6317e-05
1.62689e-08
1.63118e-05
2.82678e-08
1.63037e-05
4.4327e-08
1.62921e-05
6.3345e-08
1.62767e-05
8.32596e-08
1.62577e-05
1.0173e-07
1.62358e-05
1.16871e-07
1.62116e-05
1.27708e-07
1.6186e-05
1.34239e-07
1.61597e-05
1.37194e-07
1.61332e-05
1.37649e-07
1.61068e-05
1.36688e-07
1.60805e-05
1.35186e-07
1.60546e-05
1.33725e-07
1.60288e-05
1.32619e-07
1.60032e-05
1.31977e-07
1.59776e-05
1.31784e-07
1.5952e-05
1.3197e-07
1.59264e-05
1.32447e-07
1.59007e-05
1.3314e-07
1.58747e-05
1.33994e-07
1.58487e-05
1.34972e-07
1.58224e-05
1.36057e-07
1.57959e-05
1.37241e-07
1.57691e-05
1.38525e-07
1.57421e-05
1.39916e-07
1.57148e-05
1.41421e-07
1.56872e-05
1.43048e-07
1.56592e-05
1.44807e-07
1.56309e-05
1.46704e-07
1.56022e-05
1.48747e-07
1.5573e-05
1.50943e-07
1.55434e-05
1.53298e-07
1.55133e-05
1.5582e-07
1.54827e-05
1.58514e-07
1.54516e-05
1.6139e-07
1.54199e-05
1.64455e-07
1.53876e-05
1.67718e-07
1.53546e-05
1.71193e-07
1.53209e-05
1.74893e-07
1.52865e-05
1.78833e-07
1.52513e-05
1.83033e-07
1.52152e-05
1.87515e-07
1.51783e-05
1.92305e-07
1.51405e-05
1.97434e-07
1.51016e-05
2.02936e-07
1.50617e-05
2.08853e-07
1.50206e-05
2.15231e-07
1.49783e-05
2.22125e-07
1.49346e-05
2.29598e-07
1.48895e-05
2.37721e-07
1.48429e-05
2.4658e-07
1.47945e-05
2.56271e-07
1.47444e-05
2.66908e-07
1.46922e-05
2.78622e-07
1.46379e-05
2.91567e-07
1.45813e-05
3.05925e-07
1.4522e-05
3.21907e-07
1.446e-05
3.39767e-07
1.43949e-05
3.598e-07
1.43264e-05
3.82362e-07
1.42543e-05
4.07875e-07
1.41782e-05
4.36844e-07
1.40979e-05
4.69874e-07
1.40131e-05
5.07688e-07
1.39235e-05
5.51152e-07
1.38291e-05
6.01295e-07
1.373e-05
6.59331e-07
1.36265e-05
7.26668e-07
1.35198e-05
8.04897e-07
1.34115e-05
8.95732e-07
1.33045e-05
1.00086e-06
1.32035e-05
1.12166e-06
1.31149e-05
1.25861e-06
1.30475e-05
1.41041e-06
1.30116e-05
1.57258e-06
1.30169e-05
1.73567e-06
1.30673e-05
1.88372e-06
1.99459e-06
1.31513e-05
1.74648e-05
3.71636e-09
1.74632e-05
9.77457e-09
1.74602e-05
1.93049e-08
1.74549e-05
3.3511e-08
1.74467e-05
5.25625e-08
1.74348e-05
7.51964e-08
1.74191e-05
9.89994e-08
1.73996e-05
1.21201e-07
1.7377e-05
1.3954e-07
1.73518e-05
1.52812e-07
1.73251e-05
1.60965e-07
1.72975e-05
1.64819e-07
1.72695e-05
1.65625e-07
1.72415e-05
1.64663e-07
1.72138e-05
1.62978e-07
1.71862e-05
1.6128e-07
1.71589e-05
1.5996e-07
1.71317e-05
1.59166e-07
1.71046e-05
1.58895e-07
1.70775e-05
1.59073e-07
1.70503e-05
1.59604e-07
1.7023e-05
1.60401e-07
1.69956e-05
1.61398e-07
1.69681e-05
1.62554e-07
1.69403e-05
1.63844e-07
1.69123e-05
1.65259e-07
1.6884e-05
1.66801e-07
1.68554e-05
1.68473e-07
1.68266e-05
1.70285e-07
1.67974e-05
1.72246e-07
1.67678e-05
1.74363e-07
1.67379e-05
1.76647e-07
1.67075e-05
1.79105e-07
1.66767e-05
1.81745e-07
1.66454e-05
1.84575e-07
1.66136e-05
1.87601e-07
1.65813e-05
1.90832e-07
1.65484e-05
1.94276e-07
1.65149e-05
1.97943e-07
1.64808e-05
2.01845e-07
1.6446e-05
2.05995e-07
1.64105e-05
2.10408e-07
1.63742e-05
2.15104e-07
1.63372e-05
2.20104e-07
1.62992e-05
2.25434e-07
1.62604e-05
2.31123e-07
1.62207e-05
2.37207e-07
1.61799e-05
2.43724e-07
1.6138e-05
2.50721e-07
1.6095e-05
2.58252e-07
1.60507e-05
2.66376e-07
1.60052e-05
2.75166e-07
1.59582e-05
2.847e-07
1.59097e-05
2.95071e-07
1.58596e-05
3.06387e-07
1.58077e-05
3.18769e-07
1.5754e-05
3.32361e-07
1.56982e-05
3.47326e-07
1.56403e-05
3.63854e-07
1.558e-05
3.82166e-07
1.55173e-05
4.0252e-07
1.54519e-05
4.25215e-07
1.53836e-05
4.50598e-07
1.53124e-05
4.79078e-07
1.52381e-05
5.11127e-07
1.51607e-05
5.47294e-07
1.50802e-05
5.88213e-07
1.49967e-05
6.34611e-07
1.49107e-05
6.87309e-07
1.48228e-05
7.47216e-07
1.47342e-05
8.15307e-07
1.46465e-05
8.92576e-07
1.45623e-05
9.79935e-07
1.44851e-05
1.07806e-06
1.44197e-05
1.1871e-06
1.4372e-05
1.3063e-06
1.4349e-05
1.4334e-06
1.43577e-05
1.56391e-06
1.44029e-05
1.69044e-06
1.44842e-05
1.80246e-06
1.88734e-06
1.45914e-05
1.86881e-05
4.33307e-09
1.86865e-05
1.13651e-08
1.86834e-05
2.23703e-08
1.86782e-05
3.8775e-08
1.86699e-05
6.08229e-08
1.8658e-05
8.71151e-08
1.86421e-05
1.14908e-07
1.86223e-05
1.41006e-07
1.85991e-05
1.62759e-07
1.85732e-05
1.7871e-07
1.85454e-05
1.88724e-07
1.85165e-05
1.93686e-07
1.84872e-05
1.95006e-07
1.84577e-05
1.94154e-07
1.84283e-05
1.92351e-07
1.83991e-05
1.90442e-07
1.83702e-05
1.88908e-07
1.83414e-05
1.87946e-07
1.83127e-05
1.87575e-07
1.82841e-05
1.87723e-07
1.82554e-05
1.88288e-07
1.82266e-05
1.89174e-07
1.81977e-05
1.90307e-07
1.81686e-05
1.91636e-07
1.81393e-05
1.93135e-07
1.81098e-05
1.94789e-07
1.808e-05
1.96598e-07
1.80499e-05
1.98566e-07
1.80195e-05
2.00701e-07
1.79887e-05
2.03011e-07
1.79576e-05
2.05507e-07
1.7926e-05
2.08198e-07
1.78941e-05
2.11091e-07
1.78616e-05
2.14196e-07
1.78287e-05
2.17519e-07
1.77952e-05
2.2107e-07
1.77612e-05
2.24856e-07
1.77266e-05
2.28887e-07
1.76913e-05
2.33175e-07
1.76554e-05
2.37731e-07
1.76189e-05
2.42571e-07
1.75816e-05
2.47711e-07
1.75435e-05
2.53174e-07
1.75046e-05
2.58982e-07
1.74649e-05
2.65163e-07
1.74243e-05
2.71752e-07
1.73827e-05
2.78786e-07
1.73401e-05
2.86308e-07
1.72965e-05
2.94368e-07
1.72517e-05
3.03025e-07
1.72057e-05
3.12344e-07
1.71585e-05
3.224e-07
1.71099e-05
3.33278e-07
1.70599e-05
3.45077e-07
1.70084e-05
3.57907e-07
1.69552e-05
3.71895e-07
1.69004e-05
3.87186e-07
1.68438e-05
4.03947e-07
1.67853e-05
4.22364e-07
1.67248e-05
4.42655e-07
1.66623e-05
4.65064e-07
1.65976e-05
4.89873e-07
1.65308e-05
5.17398e-07
1.64619e-05
5.48001e-07
1.63909e-05
5.82086e-07
1.63181e-05
6.20106e-07
1.62438e-05
6.62558e-07
1.61684e-05
7.09982e-07
1.60928e-05
7.62944e-07
1.6018e-05
8.22018e-07
1.59455e-05
8.87745e-07
1.58775e-05
9.60574e-07
1.58167e-05
1.04076e-06
1.57665e-05
1.12825e-06
1.57311e-05
1.22247e-06
1.57153e-05
1.32208e-06
1.5724e-05
1.42469e-06
1.57614e-05
1.52656e-06
1.58294e-05
1.62247e-06
1.5926e-05
1.70587e-06
1.76972e-06
1.60436e-05
1.99971e-05
4.97024e-09
1.99955e-05
1.29816e-08
1.99924e-05
2.54409e-08
1.99872e-05
4.40045e-08
1.9979e-05
6.9013e-08
1.99672e-05
9.89638e-08
1.99513e-05
1.30812e-07
1.99313e-05
1.60953e-07
1.99078e-05
1.86336e-07
1.98812e-05
2.05226e-07
1.98526e-05
2.1737e-07
1.98226e-05
2.23685e-07
1.97919e-05
2.25719e-07
1.97609e-05
2.25119e-07
1.973e-05
2.23285e-07
1.96992e-05
2.21207e-07
1.96687e-05
2.19466e-07
1.96383e-05
2.18323e-07
1.9608e-05
2.17828e-07
1.95778e-05
2.1792e-07
1.95476e-05
2.18496e-07
1.95173e-05
2.19452e-07
1.94869e-05
2.20708e-07
1.94564e-05
2.22207e-07
1.94256e-05
2.23914e-07
1.93946e-05
2.25812e-07
1.93633e-05
2.27897e-07
1.93317e-05
2.30173e-07
1.92997e-05
2.32645e-07
1.92674e-05
2.35322e-07
1.92347e-05
2.38214e-07
1.92016e-05
2.41328e-07
1.9168e-05
2.44675e-07
1.91339e-05
2.48261e-07
1.90993e-05
2.52096e-07
1.90642e-05
2.56187e-07
1.90285e-05
2.60543e-07
1.89923e-05
2.65175e-07
1.89553e-05
2.70093e-07
1.89178e-05
2.75312e-07
1.88795e-05
2.80847e-07
1.88405e-05
2.86717e-07
1.88007e-05
2.92943e-07
1.87601e-05
2.99553e-07
1.87187e-05
3.06576e-07
1.86764e-05
3.14047e-07
1.86332e-05
3.22005e-07
1.8589e-05
3.30498e-07
1.85438e-05
3.39578e-07
1.84975e-05
3.49304e-07
1.84501e-05
3.59745e-07
1.84016e-05
3.70977e-07
1.83517e-05
3.83088e-07
1.83006e-05
3.96176e-07
1.82482e-05
4.1035e-07
1.81944e-05
4.25736e-07
1.81391e-05
4.42474e-07
1.80823e-05
4.6072e-07
1.8024e-05
4.80651e-07
1.79642e-05
5.02463e-07
1.79029e-05
5.26374e-07
1.78401e-05
5.52628e-07
1.7776e-05
5.8149e-07
1.77108e-05
6.1325e-07
1.76447e-05
6.48221e-07
1.7578e-05
6.86731e-07
1.75115e-05
7.2912e-07
1.74457e-05
7.75725e-07
1.73818e-05
8.26858e-07
1.7321e-05
8.82784e-07
1.72651e-05
9.43677e-07
1.72161e-05
1.00957e-06
1.71766e-05
1.08027e-06
1.71496e-05
1.15529e-06
1.71383e-05
1.23372e-06
1.71463e-05
1.31413e-06
1.71766e-05
1.39441e-06
1.72313e-05
1.47178e-06
1.73111e-05
1.54275e-06
1.74135e-05
1.60339e-06
1.64986e-06
1.75334e-05
2.13979e-05
5.6278e-09
2.13962e-05
1.4617e-08
2.13932e-05
2.84951e-08
2.1388e-05
4.91513e-08
2.138e-05
7.70479e-08
2.13683e-05
1.10616e-07
2.13526e-05
1.46549e-07
2.13327e-05
1.80851e-07
2.1309e-05
2.10073e-07
2.1282e-05
2.32171e-07
2.12527e-05
2.46736e-07
2.12217e-05
2.54681e-07
2.11897e-05
2.57658e-07
2.11574e-05
2.57483e-07
2.11249e-05
2.55729e-07
2.10926e-05
2.53539e-07
2.10604e-05
2.5161e-07
2.10285e-05
2.50278e-07
2.09967e-05
2.49638e-07
2.09649e-05
2.49646e-07
2.09332e-05
2.50207e-07
2.09015e-05
2.51213e-07
2.08696e-05
2.52577e-07
2.08376e-05
2.54236e-07
2.08053e-05
2.56148e-07
2.07729e-05
2.58293e-07
2.07401e-05
2.60662e-07
2.0707e-05
2.63255e-07
2.06736e-05
2.66078e-07
2.06398e-05
2.69136e-07
2.06055e-05
2.72438e-07
2.05709e-05
2.75992e-07
2.05358e-05
2.79806e-07
2.05001e-05
2.83888e-07
2.0464e-05
2.88245e-07
2.04273e-05
2.92886e-07
2.039e-05
2.9782e-07
2.03521e-05
3.03056e-07
2.03136e-05
3.08607e-07
2.02744e-05
3.14486e-07
2.02346e-05
3.20709e-07
2.0194e-05
3.27297e-07
2.01527e-05
3.34272e-07
2.01106e-05
3.4166e-07
2.00676e-05
3.49492e-07
2.00239e-05
3.57804e-07
1.99792e-05
3.66638e-07
1.99337e-05
3.7604e-07
1.98872e-05
3.86062e-07
1.98398e-05
3.96765e-07
1.97913e-05
4.08216e-07
1.97418e-05
4.20489e-07
1.96912e-05
4.3367e-07
1.96395e-05
4.47852e-07
1.95867e-05
4.63139e-07
1.95328e-05
4.79645e-07
1.94778e-05
4.97499e-07
1.94217e-05
5.16839e-07
1.93645e-05
5.37818e-07
1.93064e-05
5.60602e-07
1.92474e-05
5.85369e-07
1.91877e-05
6.12309e-07
1.91276e-05
6.41623e-07
1.90673e-05
6.73515e-07
1.90073e-05
7.08192e-07
1.89482e-05
7.45855e-07
1.88906e-05
7.86686e-07
1.88355e-05
8.30832e-07
1.8784e-05
8.7839e-07
1.87374e-05
9.29378e-07
1.86974e-05
9.83704e-07
1.86658e-05
1.04112e-06
1.86449e-05
1.10121e-06
1.86369e-05
1.16328e-06
1.86442e-05
1.22638e-06
1.86691e-05
1.28921e-06
1.87134e-05
1.35014e-06
1.8778e-05
1.40718e-06
1.88626e-05
1.45813e-06
1.89653e-05
1.50069e-06
1.5328e-06
1.90824e-05
2.28967e-05
6.30596e-09
2.2895e-05
1.62684e-08
2.2892e-05
3.15196e-08
2.2887e-05
5.41826e-08
2.28792e-05
8.48643e-08
2.28678e-05
1.21972e-07
2.28524e-05
1.6198e-07
2.28327e-05
2.00533e-07
2.2809e-05
2.33783e-07
2.27818e-05
2.59355e-07
2.27519e-05
2.76643e-07
2.27201e-05
2.86512e-07
2.2687e-05
2.90689e-07
2.26534e-05
2.91136e-07
2.26195e-05
2.89595e-07
2.25857e-05
2.8737e-07
2.2552e-05
2.85285e-07
2.25185e-05
2.83765e-07
2.24852e-05
2.82962e-07
2.2452e-05
2.82863e-07
2.24188e-05
2.83381e-07
2.23856e-05
2.84415e-07
2.23523e-05
2.8587e-07
2.23189e-05
2.87678e-07
2.22852e-05
2.89792e-07
2.22513e-05
2.92184e-07
2.22172e-05
2.94841e-07
2.21827e-05
2.9776e-07
2.21478e-05
3.00941e-07
2.21125e-05
3.04391e-07
2.20769e-05
3.08114e-07
2.20407e-05
3.12118e-07
2.20041e-05
3.16408e-07
2.1967e-05
3.20993e-07
2.19294e-05
3.25878e-07
2.18912e-05
3.31071e-07
2.18525e-05
3.3658e-07
2.18131e-05
3.42415e-07
2.17731e-05
3.48588e-07
2.17325e-05
3.55112e-07
2.16912e-05
3.62003e-07
2.16492e-05
3.6928e-07
2.16065e-05
3.76967e-07
2.15631e-05
3.85088e-07
2.15189e-05
3.93675e-07
2.1474e-05
4.02764e-07
2.14282e-05
4.12393e-07
2.13816e-05
4.22609e-07
2.13342e-05
4.33462e-07
2.1286e-05
4.45008e-07
2.12369e-05
4.57312e-07
2.11869e-05
4.70444e-07
2.11361e-05
4.84479e-07
2.10845e-05
4.99502e-07
2.1032e-05
5.15606e-07
2.09788e-05
5.32889e-07
2.09248e-05
5.51458e-07
2.08702e-05
5.71428e-07
2.08151e-05
5.92919e-07
2.07597e-05
6.16057e-07
2.07041e-05
6.40971e-07
2.06486e-05
6.67792e-07
2.05935e-05
6.96645e-07
2.05394e-05
7.27651e-07
2.04867e-05
7.60913e-07
2.0436e-05
7.9651e-07
2.03882e-05
8.34489e-07
2.03442e-05
8.74845e-07
2.03051e-05
9.17512e-07
2.02721e-05
9.62339e-07
2.02468e-05
1.00907e-06
2.02306e-05
1.05733e-06
2.02252e-05
1.10659e-06
2.02323e-05
1.15617e-06
2.02535e-05
1.20519e-06
2.02901e-05
1.25262e-06
2.0343e-05
1.29724e-06
2.04124e-05
1.33775e-06
2.04978e-05
1.37277e-06
2.05974e-05
1.401e-06
1.42135e-06
2.07089e-05
2.45005e-05
7.00627e-09
2.44989e-05
1.79368e-08
2.44959e-05
3.45115e-08
2.4491e-05
5.90846e-08
2.44834e-05
9.24296e-08
2.44724e-05
1.32971e-07
2.44574e-05
1.77012e-07
2.4438e-05
2.19871e-07
2.44145e-05
2.5731e-07
2.43873e-05
2.86603e-07
2.4357e-05
3.06909e-07
2.43245e-05
3.19004e-07
2.42905e-05
3.24651e-07
2.42557e-05
3.25935e-07
2.42206e-05
3.24762e-07
2.41853e-05
3.22598e-07
2.41502e-05
3.20404e-07
2.41153e-05
3.1871e-07
2.40805e-05
3.17735e-07
2.40459e-05
3.17508e-07
2.40113e-05
3.17962e-07
2.39767e-05
3.19001e-07
2.3942e-05
3.2053e-07
2.39072e-05
3.22475e-07
2.38723e-05
3.24783e-07
2.3837e-05
3.27419e-07
2.38015e-05
3.30366e-07
2.37656e-05
3.33614e-07
2.37294e-05
3.3716e-07
2.36928e-05
3.41006e-07
2.36558e-05
3.45156e-07
2.36183e-05
3.49613e-07
2.35803e-05
3.54382e-07
2.35418e-05
3.59468e-07
2.35028e-05
3.64876e-07
2.34633e-05
3.70612e-07
2.34232e-05
3.76684e-07
2.33825e-05
3.831e-07
2.33412e-05
3.8987e-07
2.32993e-05
3.97007e-07
2.32568e-05
4.04526e-07
2.32136e-05
4.12445e-07
2.31698e-05
4.20785e-07
2.31253e-05
4.29571e-07
2.30802e-05
4.38832e-07
2.30343e-05
4.486e-07
2.29878e-05
4.58913e-07
2.29406e-05
4.69813e-07
2.28927e-05
4.81345e-07
2.28442e-05
4.93561e-07
2.2795e-05
5.06516e-07
2.27451e-05
5.20271e-07
2.26947e-05
5.34893e-07
2.26438e-05
5.5045e-07
2.25924e-05
5.67019e-07
2.25406e-05
5.84676e-07
2.24885e-05
6.03504e-07
2.24364e-05
6.23585e-07
2.23843e-05
6.45003e-07
2.23325e-05
6.67839e-07
2.22813e-05
6.9217e-07
2.2231e-05
7.18066e-07
2.21821e-05
7.45583e-07
2.2135e-05
7.7476e-07
2.20903e-05
8.0561e-07
2.20487e-05
8.38116e-07
2.2011e-05
8.72219e-07
2.1978e-05
9.0781e-07
2.19508e-05
9.44716e-07
2.19304e-05
9.82694e-07
2.19181e-05
1.02142e-06
2.19149e-05
1.06047e-06
2.19222e-05
1.09934e-06
2.1941e-05
1.13742e-06
2.19722e-05
1.17399e-06
2.20165e-05
1.20828e-06
2.20743e-05
1.23946e-06
2.21454e-05
1.26667e-06
2.2229e-05
1.28909e-06
2.2324e-05
1.30601e-06
1.31687e-06
2.24285e-05
2.62167e-05
7.73057e-09
2.6215e-05
1.96269e-08
2.6212e-05
3.74784e-08
2.62073e-05
6.38647e-08
2.61999e-05
9.97438e-08
2.61893e-05
1.43596e-07
2.61747e-05
1.916e-07
2.61558e-05
2.38786e-07
2.61326e-05
2.80539e-07
2.61054e-05
3.13769e-07
2.6075e-05
3.37367e-07
2.6042e-05
3.51977e-07
2.60073e-05
3.59363e-07
2.59715e-05
3.6171e-07
2.59352e-05
3.61075e-07
2.58987e-05
3.59084e-07
2.58623e-05
3.56846e-07
2.5826e-05
3.55006e-07
2.57898e-05
3.53864e-07
2.57539e-05
3.53498e-07
2.57179e-05
3.5387e-07
2.56821e-05
3.54896e-07
2.56461e-05
3.56483e-07
2.561e-05
3.58553e-07
2.55738e-05
3.61046e-07
2.55373e-05
3.63921e-07
2.55005e-05
3.67154e-07
2.54634e-05
3.70729e-07
2.54259e-05
3.7464e-07
2.5388e-05
3.78882e-07
2.53497e-05
3.83455e-07
2.5311e-05
3.88361e-07
2.52717e-05
3.936e-07
2.5232e-05
3.99176e-07
2.51918e-05
4.05091e-07
2.51511e-05
4.11349e-07
2.51098e-05
4.17956e-07
2.5068e-05
4.24917e-07
2.50256e-05
4.32243e-07
2.49827e-05
4.39942e-07
2.49392e-05
4.48028e-07
2.48951e-05
4.56517e-07
2.48505e-05
4.65428e-07
2.48052e-05
4.74782e-07
2.47595e-05
4.84606e-07
2.47131e-05
4.94926e-07
2.46663e-05
5.05777e-07
2.46189e-05
5.17193e-07
2.4571e-05
5.29213e-07
2.45227e-05
5.41881e-07
2.4474e-05
5.55241e-07
2.44249e-05
5.69341e-07
2.43756e-05
5.84234e-07
2.43261e-05
5.99971e-07
2.42765e-05
6.16606e-07
2.4227e-05
6.34192e-07
2.41777e-05
6.52782e-07
2.41288e-05
6.72427e-07
2.40807e-05
6.93169e-07
2.40335e-05
7.15047e-07
2.39875e-05
7.38088e-07
2.39433e-05
7.62306e-07
2.39012e-05
7.87695e-07
2.38617e-05
8.1423e-07
2.38255e-05
8.41854e-07
2.37931e-05
8.70482e-07
2.37653e-05
8.99985e-07
2.3743e-05
9.30192e-07
2.37268e-05
9.60883e-07
2.37177e-05
9.9178e-07
2.37166e-05
1.02255e-06
2.37242e-05
1.05281e-06
2.37415e-05
1.0821e-06
2.3769e-05
1.10993e-06
2.38072e-05
1.13578e-06
2.38564e-05
1.15909e-06
2.39165e-05
1.1793e-06
2.39873e-05
1.19589e-06
2.4068e-05
1.20839e-06
2.41576e-05
1.21642e-06
1.21972e-06
2.42547e-05
2.80531e-05
8.48105e-09
2.80513e-05
2.13468e-08
2.80484e-05
4.04372e-08
2.80437e-05
6.85493e-08
2.80366e-05
1.06838e-07
2.80263e-05
1.53873e-07
2.80122e-05
2.05752e-07
2.79937e-05
2.57253e-07
2.79709e-05
3.03403e-07
2.79439e-05
3.40742e-07
2.79134e-05
3.67868e-07
2.78801e-05
3.85256e-07
2.78448e-05
3.94639e-07
2.78083e-05
3.98273e-07
2.7771e-05
3.98352e-07
2.77334e-05
3.96662e-07
2.76958e-05
3.94463e-07
2.76583e-05
3.92521e-07
2.76209e-05
3.91229e-07
2.75837e-05
3.90725e-07
2.75465e-05
3.91008e-07
2.75094e-05
3.92008e-07
2.74723e-05
3.93639e-07
2.7435e-05
3.9582e-07
2.73976e-05
3.98487e-07
2.73599e-05
4.01593e-07
2.7322e-05
4.05104e-07
2.72837e-05
4.08999e-07
2.72451e-05
4.13265e-07
2.7206e-05
4.17894e-07
2.71666e-05
4.22879e-07
2.71268e-05
4.28218e-07
2.70865e-05
4.33908e-07
2.70457e-05
4.39948e-07
2.70044e-05
4.46339e-07
2.69627e-05
4.53082e-07
2.69205e-05
4.60179e-07
2.68778e-05
4.67633e-07
2.68346e-05
4.75451e-07
2.67909e-05
4.8364e-07
2.67467e-05
4.9221e-07
2.6702e-05
5.01173e-07
2.66569e-05
5.10544e-07
2.66113e-05
5.20342e-07
2.65654e-05
5.30585e-07
2.6519e-05
5.41298e-07
2.64723e-05
5.52504e-07
2.64252e-05
5.64232e-07
2.63779e-05
5.76512e-07
2.63304e-05
5.89375e-07
2.62828e-05
6.02853e-07
2.62352e-05
6.16981e-07
2.61876e-05
6.31792e-07
2.61403e-05
6.47318e-07
2.60933e-05
6.63591e-07
2.60468e-05
6.80638e-07
2.60011e-05
6.98482e-07
2.59564e-05
7.1714e-07
2.5913e-05
7.36621e-07
2.58711e-05
7.56922e-07
2.58312e-05
7.78028e-07
2.57936e-05
7.99907e-07
2.57587e-05
8.22507e-07
2.57272e-05
8.45755e-07
2.56995e-05
8.6955e-07
2.56762e-05
8.93765e-07
2.5658e-05
9.18239e-07
2.56454e-05
9.42776e-07
2.56391e-05
9.67147e-07
2.56398e-05
9.91085e-07
2.56481e-05
1.01429e-06
2.56645e-05
1.03643e-06
2.56894e-05
1.05716e-06
2.57232e-05
1.0761e-06
2.57662e-05
1.09287e-06
2.58182e-05
1.1071e-06
2.5879e-05
1.11845e-06
2.59483e-05
1.12661e-06
2.60254e-05
1.13131e-06
2.61094e-05
1.13238e-06
1.12972e-06
2.61994e-05
3.00181e-05
9.26065e-09
3.00163e-05
2.31058e-08
3.00133e-05
4.34095e-08
3.00087e-05
7.3177e-08
3.00018e-05
1.13767e-07
2.99918e-05
1.63863e-07
2.9978e-05
2.19518e-07
2.996e-05
2.75295e-07
2.99375e-05
3.25883e-07
2.99108e-05
3.67453e-07
2.98804e-05
3.98293e-07
2.98469e-05
4.18684e-07
2.98113e-05
4.30293e-07
2.97741e-05
4.35426e-07
2.97361e-05
4.36397e-07
2.96976e-05
4.35144e-07
2.9659e-05
4.33078e-07
2.96204e-05
4.31096e-07
2.9582e-05
4.29687e-07
2.95436e-05
4.2906e-07
2.95054e-05
4.29253e-07
2.94672e-05
4.30221e-07
2.94289e-05
4.31886e-07
2.93906e-05
4.34167e-07
2.93521e-05
4.36995e-07
2.93133e-05
4.40318e-07
2.92744e-05
4.44093e-07
2.92351e-05
4.48294e-07
2.91954e-05
4.52898e-07
2.91554e-05
4.57893e-07
2.9115e-05
4.63266e-07
2.90743e-05
4.69009e-07
2.9033e-05
4.75116e-07
2.89914e-05
4.81581e-07
2.89494e-05
4.88401e-07
2.89069e-05
4.95573e-07
2.88639e-05
5.03095e-07
2.88206e-05
5.10968e-07
2.87769e-05
5.19194e-07
2.87327e-05
5.27777e-07
2.86882e-05
5.36721e-07
2.86434e-05
5.46035e-07
2.85982e-05
5.55729e-07
2.85527e-05
5.65815e-07
2.8507e-05
5.76305e-07
2.84611e-05
5.87216e-07
2.8415e-05
5.98564e-07
2.83689e-05
6.10367e-07
2.83227e-05
6.22643e-07
2.82767e-05
6.35413e-07
2.82309e-05
6.48693e-07
2.81853e-05
6.62501e-07
2.81403e-05
6.76853e-07
2.80958e-05
6.91761e-07
2.80522e-05
7.07233e-07
2.80096e-05
7.23272e-07
2.79682e-05
7.39875e-07
2.79283e-05
7.57028e-07
2.78902e-05
7.7471e-07
2.78542e-05
7.92887e-07
2.78207e-05
8.11509e-07
2.77901e-05
8.30514e-07
2.77628e-05
8.49819e-07
2.77392e-05
8.69324e-07
2.77199e-05
8.88905e-07
2.77052e-05
9.08419e-07
2.76958e-05
9.27697e-07
2.7692e-05
9.46551e-07
2.76944e-05
9.64768e-07
2.77034e-05
9.82119e-07
2.77193e-05
9.98357e-07
2.77425e-05
1.01322e-06
2.77732e-05
1.02646e-06
2.78115e-05
1.03779e-06
2.78574e-05
1.04698e-06
2.79107e-05
1.05379e-06
2.79711e-05
1.05802e-06
2.80382e-05
1.05949e-06
2.81115e-05
1.05809e-06
2.81901e-05
1.05374e-06
1.04642e-06
2.82734e-05
3.21207e-05
1.00704e-08
3.21189e-05
2.49119e-08
3.21159e-05
4.64174e-08
3.21113e-05
7.779e-08
3.21045e-05
1.20594e-07
3.20947e-05
1.73642e-07
3.20812e-05
2.32972e-07
3.20636e-05
2.92964e-07
3.20414e-05
3.4799e-07
3.2015e-05
3.93863e-07
3.19848e-05
4.28551e-07
3.19513e-05
4.5212e-07
3.19155e-05
4.6615e-07
3.18779e-05
4.72971e-07
3.18393e-05
4.75003e-07
3.18002e-05
4.74326e-07
3.17607e-05
4.72498e-07
3.17213e-05
4.70549e-07