/*--------------------------------*- C++ -*----------------------------------*\
  =========                 |
  \\      /  F ield         | OpenFOAM: The Open Source CFD Toolbox
   \\    /   O peration     | Website:  https://openfoam.org
    \\  /    A nd           | Version:  7
     \\/     M anipulation  |
\*---------------------------------------------------------------------------*/
FoamFile
{
    version     2.0;
    format      ascii;
    class       volScalarField;
    location    "1";
    object      T;
}
// * * * * * * * * * * * * * * * * * * * * * * * * * * * * * * * * * * * * * //

dimensions      [0 0 0 1 0 0 0];

internalField   nonuniform List<scalar> 
12013
(
300.01
300.03
300.051
300.075
300.101
300.13
300.162
300.199
300.239
300.285
300.337
300.394
300.459
300.53
300.61
300.698
300.795
300.902
301.019
301.147
301.286
301.438
301.603
301.781
301.973
302.18
302.403
302.642
302.897
303.17
303.462
303.772
304.102
304.453
304.826
305.22
305.638
306.081
306.549
307.043
307.565
308.116
308.697
309.31
309.956
310.637
311.354
312.111
312.907
313.747
314.632
315.564
316.547
317.583
318.676
319.829
321.047
322.332
323.69
325.125
326.642
328.249
329.95
331.753
333.666
335.697
337.857
340.155
342.606
345.222
348.021
351.023
354.25
357.733
361.508
365.621
370.136
375.144
380.783
387.288
395.109
300.01
300.03
300.051
300.075
300.101
300.13
300.162
300.199
300.239
300.285
300.337
300.394
300.458
300.53
300.61
300.698
300.795
300.901
301.019
301.147
301.286
301.438
301.603
301.781
301.973
302.18
302.403
302.641
302.897
303.17
303.461
303.772
304.102
304.453
304.825
305.22
305.638
306.08
306.548
307.042
307.564
308.115
308.696
309.309
309.955
310.636
311.353
312.109
312.906
313.745
314.63
315.562
316.544
317.58
318.673
319.825
321.042
322.326
323.682
325.116
326.632
328.237
329.936
331.736
333.645
335.673
337.827
340.12
342.562
345.169
347.956
350.942
354.15
357.606
361.343
365.405
369.843
374.729
380.154
386.234
393.068
300.01
300.03
300.051
300.075
300.101
300.13
300.162
300.198
300.239
300.285
300.337
300.394
300.458
300.53
300.609
300.697
300.794
300.901
301.018
301.146
301.286
301.438
301.602
301.78
301.973
302.18
302.402
302.641
302.896
303.169
303.461
303.771
304.101
304.452
304.824
305.219
305.637
306.079
306.547
307.041
307.563
308.114
308.695
309.307
309.953
310.634
311.351
312.106
312.903
313.741
314.625
315.557
316.538
317.573
318.664
319.816
321.03
322.312
323.667
325.097
326.61
328.21
329.904
331.698
333.6
335.618
337.762
340.04
342.466
345.052
347.813
350.766
353.93
357.329
360.991
364.946
369.232
373.891
378.961
384.462
390.346
300.01
300.03
300.051
300.075
300.101
300.13
300.162
300.198
300.239
300.285
300.336
300.394
300.458
300.53
300.609
300.697
300.794
300.901
301.018
301.146
301.285
301.437
301.602
301.78
301.972
302.179
302.401
302.64
302.895
303.168
303.459
303.77
304.1
304.451
304.823
305.217
305.635
306.078
306.545
307.039
307.561
308.111
308.692
309.304
309.95
310.63
311.346
312.102
312.897
313.735
314.618
315.548
316.528
317.561
318.651
319.799
321.011
322.29
323.64
325.066
326.573
328.166
329.851
331.635
333.525
335.528
337.653
339.91
342.309
344.861
347.58
350.48
353.577
356.888
360.434
364.235
368.31
372.675
377.33
382.25
387.356
300.01
300.03
300.051
300.075
300.101
300.13
300.162
300.198
300.239
300.285
300.336
300.394
300.458
300.529
300.609
300.697
300.794
300.9
301.017
301.145
301.285
301.436
301.601
301.779
301.971
302.178
302.4
302.638
302.894
303.167
303.458
303.768
304.098
304.448
304.821
305.215
305.633
306.075
306.542
307.036
307.557
308.107
308.688
309.3
309.944
310.624
311.34
312.094
312.889
313.725
314.607
315.535
316.513
317.544
318.63
319.775
320.983
322.256
323.6
325.019
326.517
328.1
329.773
331.542
333.414
335.396
337.495
339.72
342.081
344.586
347.246
350.073
353.078
356.273
359.671
363.279
367.104
371.142
375.377
379.766
384.241
300.01
300.03
300.051
300.075
300.101
300.129
300.162
300.198
300.239
300.284
300.336
300.393
300.457
300.529
300.608
300.696
300.793
300.899
301.016
301.144
301.283
301.435
301.599
301.777
301.969
302.176
302.398
302.636
302.892
303.164
303.455
303.765
304.095
304.445
304.817
305.212
305.629
306.071
306.538
307.031
307.552
308.102
308.682
309.293
309.937
310.616
311.331
312.084
312.876
313.711
314.591
315.517
316.492
317.519
318.601
319.741
320.942
322.209
323.545
324.953
326.44
328.008
329.664
331.413
333.261
335.214
337.279
339.463
341.773
344.216
346.802
349.536
352.428
355.483
358.705
362.097
365.652
369.358
373.191
377.11
381.061
300.01
300.03
300.051
300.075
300.1
300.129
300.162
300.198
300.238
300.284
300.335
300.393
300.457
300.528
300.607
300.695
300.792
300.898
301.015
301.143
301.282
301.433
301.597
301.775
301.967
302.174
302.396
302.634
302.889
303.161
303.452
303.762
304.091
304.441
304.813
305.207
305.624
306.065
306.532
307.025
307.545
308.094
308.673
309.284
309.927
310.604
311.318
312.069
312.86
313.692
314.569
315.491
316.462
317.485
318.561
319.694
320.888
322.145
323.47
324.865
326.336
327.886
329.521
331.244
333.061
334.978
336.999
339.13
341.377
343.746
346.241
348.866
351.626
354.522
357.553
360.713
363.994
367.377
370.838
374.343
377.849
300.01
300.03
300.051
300.074
300.1
300.129
300.161
300.197
300.238
300.284
300.335
300.392
300.456
300.527
300.606
300.694
300.79
300.897
301.013
301.141
301.28
301.431
301.595
301.773
301.964
302.17
302.392
302.63
302.885
303.157
303.447
303.757
304.086
304.436
304.807
305.201
305.617
306.058
306.524
307.016
307.536
308.084
308.662
309.271
309.913
310.589
311.3
312.049
312.837
313.667
314.539
315.457
316.423
317.439
318.508
319.633
320.817
322.062
323.372
324.751
326.203
327.73
329.337
331.028
332.807
334.679
336.647
338.716
340.889
343.17
345.561
348.063
350.678
353.402
356.231
359.157
362.168
365.246
368.368
371.506
374.629
300.01
300.03
300.051
300.074
300.1
300.129
300.161
300.197
300.237
300.283
300.334
300.391
300.455
300.526
300.605
300.692
300.789
300.895
301.011
301.139
301.277
301.428
301.592
301.769
301.961
302.167
302.388
302.626
302.88
303.152
303.442
303.751
304.08
304.429
304.8
305.192
305.609
306.049
306.514
307.005
307.524
308.071
308.647
309.255
309.895
310.568
311.277
312.023
312.808
313.633
314.501
315.413
316.372
317.38
318.44
319.554
320.725
321.955
323.248
324.607
326.034
327.533
329.107
330.76
332.494
334.313
336.219
338.216
340.304
342.486
344.762
347.131
349.591
352.136
354.762
357.457
360.209
363.002
365.816
368.629
371.417
300.01
300.029
300.051
300.074
300.1
300.128
300.16
300.196
300.237
300.282
300.333
300.39
300.454
300.525
300.603
300.69
300.787
300.893
301.009
301.136
301.274
301.425
301.588
301.765
301.956
302.162
302.383
302.62
302.874
303.145
303.434
303.743
304.071
304.42
304.79
305.182
305.597
306.036
306.5
306.991
307.508
308.053
308.628
309.233
309.871
310.542
311.247
311.989
312.769
313.589
314.451
315.356
316.307
317.305
318.354
319.454
320.61
321.822
323.094
324.427
325.826
327.292
328.827
330.435
332.117
333.875
335.711
337.627
339.622
341.696
343.849
346.077
348.377
350.743
353.166
355.638
358.146
360.677
363.212
365.736
368.229
300.01
300.029
300.051
300.074
300.099
300.128
300.16
300.196
300.236
300.281
300.332
300.389
300.452
300.523
300.601
300.688
300.784
300.89
301.005
301.132
301.27
301.42
301.583
301.76
301.95
302.155
302.376
302.612
302.866
303.136
303.425
303.733
304.06
304.408
304.777
305.168
305.583
306.021
306.483
306.972
307.487
308.031
308.603
309.206
309.84
310.507
311.209
311.946
312.721
313.534
314.388
315.284
316.225
317.211
318.246
319.33
320.467
321.657
322.904
324.209
325.574
327.001
328.492
330.048
331.671
333.362
335.121
336.948
338.843
340.803
342.827
344.911
347.05
349.238
351.466
353.726
356.007
358.296
360.58
362.845
365.078
300.01
300.029
300.05
300.073
300.099
300.127
300.159
300.195
300.235
300.28
300.33
300.387
300.45
300.521
300.599
300.685
300.781
300.886
301.001
301.128
301.265
301.415
301.577
301.753
301.943
302.148
302.368
302.603
302.856
303.126
303.414
303.721
304.047
304.394
304.762
305.152
305.564
306.001
306.462
306.948
307.461
308.002
308.571
309.171
309.801
310.464
311.16
311.891
312.659
313.464
314.309
315.194
316.123
317.095
318.113
319.178
320.292
321.458
322.675
323.946
325.273
326.656
328.097
329.596
331.154
332.771
334.447
336.18
337.969
339.812
341.705
343.645
345.625
347.639
349.681
351.742
353.811
355.88
357.937
359.972
361.973
300.009
300.029
300.05
300.073
300.098
300.127
300.158
300.194
300.234
300.278
300.329
300.385
300.448
300.518
300.596
300.682
300.777
300.882
300.997
301.122
301.259
301.408
301.57
301.745
301.935
302.138
302.357
302.592
302.844
303.113
303.4
303.705
304.03
304.376
304.742
305.13
305.541
305.975
306.434
306.918
307.428
307.966
308.531
309.127
309.752
310.409
311.099
311.823
312.582
313.378
314.211
315.084
315.997
316.952
317.951
318.994
320.083
321.219
322.403
323.636
324.92
326.255
327.64
329.077
330.565
332.103
333.691
335.327
337.007
338.731
340.493
342.29
344.115
345.964
347.83
349.704
351.58
353.448
355.301
357.128
358.922
300.009
300.029
300.05
300.073
300.098
300.126
300.157
300.192
300.232
300.277
300.327
300.382
300.445
300.515
300.592
300.678
300.772
300.876
300.991
301.116
301.252
301.4
301.561
301.736
301.924
302.127
302.345
302.578
302.829
303.096
303.382
303.686
304.01
304.353
304.718
305.104
305.512
305.944
306.4
306.88
307.387
307.92
308.481
309.071
309.691
310.341
311.023
311.738
312.487
313.271
314.091
314.949
315.845
316.78
317.756
318.774
319.833
320.937
322.084
323.275
324.511
325.793
327.119
328.489
329.903
331.359
332.856
334.391
335.963
337.567
339.2
340.858
342.535
344.227
345.928
347.63
349.328
351.014
352.682
354.324
355.934
300.009
300.029
300.049
300.072
300.097
300.125
300.156
300.191
300.23
300.274
300.324
300.38
300.442
300.511
300.588
300.673
300.767
300.87
300.984
301.108
301.243
301.391
301.551
301.724
301.911
302.113
302.329
302.562
302.811
303.077
303.36
303.663
303.984
304.326
304.688
305.071
305.477
305.905
306.357
306.834
307.336
307.864
308.42
309.003
309.615
310.257
310.93
311.634
312.371
313.141
313.946
314.786
315.662
316.574
317.525
318.514
319.541
320.608
321.714
322.859
324.044
325.269
326.531
327.832
329.168
330.54
331.944
333.379
334.842
336.329
337.837
339.361
340.898
342.443
343.989
345.533
347.068
348.589
350.091
351.567
353.013
300.009
300.028
300.049
300.071
300.096
300.124
300.154
300.189
300.228
300.272
300.321
300.376
300.438
300.506
300.582
300.667
300.76
300.863
300.975
301.099
301.233
301.379
301.538
301.71
301.896
302.096
302.311
302.541
302.789
303.053
303.334
303.634
303.953
304.292
304.651
305.031
305.433
305.857
306.305
306.777
307.273
307.795
308.344
308.919
309.523
310.155
310.816
311.508
312.231
312.985
313.772
314.591
315.444
316.332
317.253
318.21
319.202
320.228
321.29
322.386
323.517
324.681
325.878
327.106
328.364
329.649
330.961
332.296
333.652
335.025
336.413
337.811
339.215
340.622
342.026
343.424
344.811
346.183
347.534
348.861
350.16
300.009
300.028
300.048
300.071
300.095
300.122
300.153
300.187
300.226
300.269
300.318
300.372
300.433
300.501
300.576
300.66
300.752
300.854
300.965
301.087
301.221
301.366
301.523
301.693
301.877
302.075
302.288
302.517
302.762
303.023
303.302
303.599
303.915
304.25
304.606
304.982
305.379
305.799
306.241
306.707
307.196
307.711
308.251
308.817
309.41
310.031
310.679
311.356
312.062
312.798
313.565
314.361
315.189
316.048
316.938
317.859
318.812
319.796
320.81
321.854
322.927
324.029
325.158
326.312
327.49
328.69
329.911
331.148
332.4
333.664
334.937
336.215
337.495
338.774
340.048
341.312
342.564
343.8
345.017
346.21
347.378
300.009
300.028
300.048
300.07
300.094
300.121
300.151
300.185
300.223
300.265
300.313
300.367
300.427
300.495
300.569
300.652
300.743
300.843
300.954
301.074
301.206
301.349
301.505
301.673
301.855
302.051
302.262
302.488
302.73
302.988
303.264
303.558
303.87
304.201
304.551
304.922
305.314
305.728
306.163
306.622
307.103
307.609
308.139
308.694
309.275
309.882
310.515
311.175
311.863
312.578
313.321
314.092
314.892
315.719
316.575
317.458
318.369
319.307
320.271
321.261
322.275
323.313
324.372
325.452
326.551
327.667
328.797
329.94
331.092
332.252
333.416
334.582
335.747
336.907
338.06
339.203
340.333
341.446
342.541
343.614
344.663
300.009
300.027
300.047
300.068
300.092
300.119
300.148
300.182
300.219
300.261
300.309
300.362
300.421
300.487
300.561
300.642
300.732
300.831
300.94
301.059
301.189
301.33
301.483
301.649
301.829
302.022
302.23
302.453
302.691
302.946
303.218
303.507
303.815
304.141
304.486
304.851
305.236
305.642
306.07
306.52
306.992
307.487
308.005
308.547
309.114
309.705
310.321
310.962
311.628
312.32
313.037
313.78
314.549
315.342
316.16
317.003
317.87
318.759
319.672
320.605
321.559
322.531
323.522
324.528
325.548
326.581
327.624
328.676
329.733
330.794
331.856
332.917
333.975
335.026
336.068
337.1
338.118
339.121
340.105
341.07
342.012
300.009
300.027
300.046
300.067
300.091
300.117
300.146
300.178
300.215
300.257
300.303
300.355
300.413
300.478
300.551
300.631
300.719
300.816
300.923
301.04
301.168
301.307
301.458
301.621
301.798
301.988
302.192
302.411
302.646
302.896
303.163
303.448
303.749
304.069
304.408
304.765
305.143
305.54
305.959
306.398
306.859
307.341
307.846
308.374
308.924
309.497
310.093
310.712
311.355
312.021
312.71
313.422
314.156
314.913
315.692
316.492
317.312
318.152
319.01
319.886
320.779
321.686
322.607
323.541
324.484
325.437
326.396
327.36
328.327
329.295
330.261
331.225
332.183
333.133
334.074
335.004
335.921
336.823
337.707
338.574
339.42
300.009
300.026
300.045
300.066
300.089
300.114
300.143
300.175
300.211
300.251
300.297
300.348
300.405
300.468
300.539
300.618
300.704
300.8
300.904
301.019
301.144
301.281
301.428
301.589
301.761
301.948
302.148
302.363
302.592
302.837
303.099
303.377
303.672
303.984
304.315
304.664
305.032
305.42
305.827
306.254
306.702
307.17
307.659
308.169
308.701
309.253
309.827
310.423
311.039
311.677
312.335
313.013
313.712
314.43
315.167
315.921
316.694
317.482
318.286
319.104
319.935
320.777
321.63
322.492
323.361
324.235
325.114
325.995
326.876
327.756
328.633
329.506
330.372
331.23
332.078
332.915
333.739
334.549
335.343
336.12
336.88
300.008
300.025
300.044
300.064
300.086
300.111
300.139
300.17
300.205
300.245
300.289
300.339
300.395
300.457
300.526
300.602
300.687
300.78
300.882
300.994
301.117
301.25
301.394
301.55
301.719
301.901
302.096
302.305
302.529
302.768
303.023
303.293
303.58
303.884
304.206
304.545
304.902
305.278
305.672
306.085
306.518
306.969
307.441
307.931
308.442
308.972
309.521
310.09
310.678
311.284
311.909
312.552
313.212
313.889
314.582
315.29
316.013
316.749
317.497
318.257
319.026
319.805
320.59
321.382
322.179
322.979
323.78
324.582
325.382
326.18
326.974
327.761
328.542
329.314
330.077
330.828
331.568
332.294
333.005
333.701
334.381
300.008
300.025
300.043
300.062
300.084
300.108
300.135
300.165
300.199
300.238
300.281
300.329
300.383
300.444
300.511
300.585
300.667
300.758
300.857
300.966
301.084
301.214
301.354
301.506
301.67
301.846
302.036
302.239
302.456
302.688
302.934
303.196
303.474
303.768
304.079
304.406
304.75
305.112
305.492
305.889
306.304
306.737
307.188
307.657
308.144
308.649
309.172
309.711
310.268
310.841
311.431
312.035
312.655
313.289
313.937
314.597
315.269
315.952
316.644
317.345
318.054
318.769
319.489
320.213
320.939
321.667
322.395
323.122
323.846
324.566
325.281
325.99
326.691
327.384
328.067
328.74
329.402
330.051
330.687
331.308
331.916
300.008
300.024
300.041
300.06
300.081
300.104
300.13
300.159
300.192
300.229
300.271
300.318
300.37
300.428
300.493
300.565
300.644
300.732
300.828
300.933
301.048
301.173
301.308
301.455
301.613
301.783
301.966
302.162
302.371
302.594
302.832
303.084
303.351
303.633
303.931
304.245
304.575
304.921
305.284
305.663
306.059
306.471
306.9
307.345
307.806
308.283
308.776
309.284
309.808
310.345
310.897
311.462
312.039
312.629
313.23
313.841
314.461
315.09
315.726
316.369
317.018
317.67
318.326
318.984
319.643
320.302
320.959
321.615
322.266
322.913
323.555
324.19
324.817
325.436
326.046
326.647
327.236
327.814
328.38
328.934
329.474
300.007
300.023
300.039
300.058
300.078
300.1
300.125
300.153
300.185
300.22
300.26
300.305
300.355
300.411
300.473
300.542
300.619
300.703
300.795
300.896
301.006
301.126
301.256
301.396
301.548
301.711
301.886
302.074
302.274
302.487
302.714
302.955
303.21
303.479
303.763
304.061
304.375
304.704
305.047
305.406
305.78
306.169
306.573
306.992
307.425
307.872
308.333
308.808
309.295
309.795
310.307
310.83
311.364
311.908
312.461
313.021
313.59
314.165
314.745
315.33
315.919
316.511
317.104
317.698
318.291
318.884
319.474
320.061
320.644
321.222
321.794
322.359
322.918
323.468
324.01
324.542
325.065
325.577
326.079
326.569
327.047
300.007
300.022
300.038
300.055
300.074
300.095
300.119
300.146
300.176
300.21
300.248
300.291
300.339
300.392
300.451
300.517
300.59
300.67
300.758
300.854
300.959
301.073
301.196
301.33
301.474
301.629
301.796
301.974
302.164
302.366
302.581
302.809
303.05
303.304
303.572
303.854
304.149
304.458
304.78
305.117
305.467
305.83
306.207
306.597
307
307.415
307.842
308.281
308.731
309.192
309.662
310.142
310.631
311.127
311.631
312.142
312.657
313.178
313.703
314.231
314.761
315.292
315.825
316.356
316.887
317.415
317.941
318.463
318.98
319.493
319.999
320.5
320.993
321.479
321.957
322.427
322.887
323.338
323.779
324.211
324.631
300.007
300.021
300.036
300.052
300.07
300.09
300.112
300.138
300.166
300.198
300.234
300.275
300.32
300.371
300.427
300.489
300.557
300.633
300.716
300.807
300.906
301.013
301.13
301.256
301.392
301.538
301.694
301.862
302.04
302.23
302.432
302.645
302.871
303.109
303.359
303.621
303.896
304.184
304.483
304.795
305.119
305.455
305.803
306.163
306.533
306.914
307.305
307.707
308.117
308.537
308.965
309.4
309.842
310.291
310.745
311.205
311.668
312.135
312.604
313.076
313.548
314.021
314.494
314.965
315.435
315.902
316.365
316.825
317.28
317.731
318.176
318.615
319.047
319.473
319.891
320.301
320.704
321.097
321.482
321.858
322.225
300.006
300.019
300.033
300.049
300.065
300.084
300.105
300.129
300.156
300.186
300.22
300.257
300.3
300.347
300.399
300.458
300.522
300.593
300.67
300.755
300.847
300.948
301.057
301.174
301.301
301.437
301.582
301.738
301.904
302.08
302.267
302.465
302.673
302.893
303.123
303.365
303.618
303.882
304.157
304.443
304.739
305.046
305.363
305.69
306.026
306.371
306.725
307.088
307.458
307.835
308.219
308.609
309.004
309.405
309.809
310.218
310.629
311.042
311.457
311.873
312.289
312.705
313.12
313.533
313.944
314.352
314.756
315.157
315.553
315.945
316.332
316.713
317.088
317.457
317.819
318.174
318.522
318.862
319.195
319.519
319.836
300.006
300.018
300.031
300.045
300.061
300.078
300.098
300.12
300.144
300.172
300.203
300.238
300.278
300.321
300.37
300.424
300.483
300.548
300.62
300.698
300.784
300.876
300.976
301.085
301.201
301.326
301.46
301.603
301.755
301.916
302.087
302.267
302.458
302.658
302.868
303.087
303.317
303.556
303.804
304.062
304.329
304.605
304.89
305.183
305.484
305.792
306.108
306.43
306.759
307.093
307.433
307.777
308.126
308.478
308.833
309.191
309.55
309.911
310.273
310.635
310.996
311.357
311.716
312.073
312.428
312.779
313.128
313.473
313.814
314.15
314.482
314.809
315.13
315.445
315.755
316.058
316.355
316.645
316.929
317.206
317.476
300.005
300.016
300.028
300.041
300.055
300.071
300.089
300.109
300.132
300.157
300.186
300.218
300.254
300.294
300.338
300.387
300.441
300.501
300.566
300.637
300.715
300.799
300.89
300.988
301.094
301.207
301.328
301.457
301.594
301.74
301.894
302.056
302.227
302.406
302.594
302.791
302.995
303.208
303.429
303.658
303.895
304.139
304.391
304.649
304.914
305.184
305.461
305.743
306.03
306.322
306.617
306.916
307.218
307.523
307.83
308.138
308.447
308.757
309.068
309.377
309.686
309.994
310.3
310.604
310.905
311.204
311.5
311.792
312.081
312.366
312.646
312.922
313.193
313.459
313.719
313.975
314.224
314.468
314.707
314.939
315.165
300.005
300.015
300.025
300.037
300.05
300.064
300.081
300.099
300.119
300.142
300.168
300.197
300.229
300.265
300.305
300.349
300.397
300.451
300.509
300.573
300.642
300.718
300.799
300.887
300.981
301.081
301.189
301.304
301.425
301.554
301.69
301.834
301.984
302.142
302.308
302.48
302.659
302.846
303.039
303.238
303.444
303.656
303.874
304.097
304.326
304.559
304.797
305.039
305.285
305.534
305.787
306.041
306.298
306.557
306.817
307.078
307.339
307.6
307.861
308.122
308.381
308.639
308.895
309.149
309.401
309.651
309.897
310.141
310.381
310.617
310.85
311.079
311.303
311.523
311.739
311.95
312.156
312.358
312.554
312.746
312.932
300.004
300.013
300.023
300.033
300.044
300.057
300.071
300.088
300.106
300.126
300.149
300.174
300.203
300.235
300.27
300.309
300.351
300.399
300.45
300.506
300.567
300.633
300.704
300.781
300.863
300.951
301.045
301.145
301.251
301.363
301.481
301.605
301.735
301.871
302.013
302.161
302.315
302.475
302.64
302.81
302.985
303.166
303.35
303.539
303.733
303.929
304.13
304.333
304.539
304.748
304.959
305.171
305.385
305.6
305.815
306.031
306.247
306.463
306.678
306.893
307.106
307.318
307.528
307.736
307.943
308.147
308.348
308.547
308.742
308.935
309.124
309.31
309.492
309.671
309.845
310.016
310.183
310.346
310.505
310.66
310.81
300.004
300.011
300.02
300.029
300.039
300.05
300.062
300.076
300.092
300.11
300.129
300.152
300.176
300.204
300.234
300.268
300.305
300.345
300.39
300.438
300.491
300.547
300.608
300.674
300.744
300.82
300.9
300.985
301.075
301.169
301.269
301.374
301.484
301.599
301.719
301.843
301.972
302.105
302.243
302.385
302.53
302.68
302.833
302.989
303.149
303.311
303.475
303.642
303.811
303.981
304.153
304.326
304.5
304.674
304.849
305.023
305.198
305.372
305.545
305.717
305.889
306.059
306.228
306.394
306.559
306.722
306.883
307.041
307.197
307.35
307.5
307.648
307.792
307.934
308.072
308.207
308.339
308.468
308.593
308.715
308.834
300.003
300.01
300.017
300.025
300.033
300.043
300.053
300.065
300.078
300.093
300.11
300.129
300.15
300.173
300.199
300.227
300.259
300.293
300.33
300.371
300.415
300.462
300.514
300.568
300.627
300.69
300.756
300.827
300.901
300.98
301.062
301.149
301.239
301.333
301.431
301.533
301.638
301.747
301.859
301.974
302.092
302.212
302.336
302.461
302.589
302.719
302.851
302.984
303.118
303.254
303.39
303.528
303.665
303.803
303.94
304.078
304.215
304.352
304.488
304.623
304.758
304.89
305.022
305.152
305.281
305.407
305.532
305.655
305.776
305.894
306.011
306.125
306.236
306.345
306.452
306.556
306.657
306.756
306.853
306.946
307.037
300.003
300.008
300.014
300.02
300.028
300.035
300.044
300.054
300.065
300.078
300.092
300.107
300.125
300.144
300.165
300.188
300.214
300.242
300.273
300.306
300.342
300.381
300.422
300.467
300.515
300.565
300.619
300.676
300.736
300.799
300.865
300.934
301.007
301.082
301.16
301.24
301.324
301.41
301.498
301.589
301.681
301.776
301.872
301.971
302.07
302.171
302.274
302.377
302.481
302.586
302.691
302.796
302.902
303.008
303.113
303.218
303.323
303.428
303.532
303.635
303.737
303.838
303.937
304.036
304.133
304.229
304.323
304.416
304.506
304.596
304.683
304.768
304.852
304.934
305.013
305.091
305.167
305.241
305.313
305.383
305.45
300.002
300.007
300.011
300.017
300.022
300.029
300.036
300.044
300.053
300.063
300.074
300.087
300.101
300.116
300.133
300.152
300.172
300.195
300.219
300.246
300.274
300.305
300.338
300.373
300.41
300.45
300.492
300.537
300.584
300.633
300.684
300.738
300.794
300.852
300.912
300.974
301.038
301.104
301.171
301.24
301.311
301.383
301.456
301.53
301.606
301.682
301.759
301.836
301.914
301.992
302.071
302.15
302.228
302.307
302.385
302.464
302.541
302.618
302.695
302.771
302.846
302.92
302.994
303.066
303.137
303.207
303.276
303.343
303.41
303.474
303.538
303.6
303.661
303.72
303.778
303.834
303.889
303.942
303.994
304.045
304.094
300.002
300.005
300.009
300.013
300.018
300.023
300.028
300.035
300.042
300.05
300.059
300.068
300.079
300.091
300.104
300.119
300.135
300.152
300.171
300.191
300.213
300.237
300.262
300.289
300.318
300.348
300.38
300.414
300.449
300.486
300.525
300.565
300.607
300.651
300.695
300.742
300.789
300.838
300.888
300.939
300.991
301.043
301.097
301.151
301.206
301.262
301.318
301.374
301.431
301.487
301.544
301.601
301.657
301.714
301.77
301.826
301.882
301.937
301.992
302.046
302.099
302.152
302.204
302.255
302.306
302.355
302.404
302.451
302.498
302.544
302.588
302.632
302.675
302.716
302.757
302.796
302.834
302.872
302.908
302.943
302.977
300.001
300.004
300.007
300.01
300.014
300.018
300.022
300.027
300.032
300.038
300.045
300.053
300.061
300.07
300.08
300.091
300.103
300.116
300.13
300.145
300.162
300.179
300.198
300.218
300.239
300.262
300.286
300.31
300.336
300.363
300.392
300.421
300.452
300.483
300.515
300.549
300.583
300.618
300.654
300.69
300.727
300.765
300.803
300.841
300.88
300.919
300.959
300.998
301.038
301.078
301.117
301.157
301.197
301.236
301.275
301.314
301.353
301.391
301.429
301.466
301.503
301.539
301.575
301.61
301.644
301.678
301.711
301.744
301.776
301.807
301.837
301.867
301.896
301.924
301.951
301.978
302.004
302.029
302.054
302.077
302.101
300.001
300.003
300.005
300.008
300.011
300.013
300.017
300.02
300.025
300.029
300.034
300.04
300.046
300.053
300.06
300.069
300.078
300.087
300.098
300.109
300.121
300.134
300.148
300.162
300.178
300.194
300.211
300.229
300.248
300.267
300.288
300.309
300.33
300.353
300.376
300.399
300.423
300.448
300.473
300.499
300.524
300.551
300.577
300.604
300.631
300.658
300.685
300.713
300.74
300.767
300.794
300.821
300.848
300.875
300.902
300.928
300.954
300.98
301.006
301.031
301.056
301.08
301.104
301.128
301.151
301.173
301.195
301.217
301.238
301.259
301.279
301.299
301.318
301.337
301.355
301.373
301.39
301.407
301.423
301.438
301.454
300.001
300.002
300.004
300.006
300.008
300.01
300.013
300.016
300.019
300.023
300.026
300.031
300.036
300.041
300.046
300.053
300.059
300.067
300.075
300.083
300.092
300.102
300.112
300.123
300.134
300.146
300.159
300.172
300.186
300.2
300.215
300.23
300.246
300.262
300.279
300.296
300.313
300.331
300.349
300.367
300.385
300.404
300.423
300.442
300.461
300.48
300.499
300.518
300.537
300.556
300.575
300.594
300.612
300.631
300.649
300.668
300.685
300.703
300.721
300.738
300.755
300.771
300.788
300.804
300.819
300.835
300.85
300.864
300.879
300.893
300.906
300.92
300.933
300.945
300.957
300.969
300.981
300.992
301.003
301.013
301.024
300.001
300.002
300.004
300.005
300.007
300.009
300.011
300.013
300.016
300.019
300.022
300.026
300.03
300.034
300.039
300.044
300.05
300.056
300.062
300.069
300.077
300.085
300.093
300.102
300.111
300.121
300.131
300.142
300.153
300.165
300.177
300.189
300.201
300.214
300.228
300.241
300.255
300.269
300.283
300.298
300.312
300.327
300.342
300.357
300.371
300.386
300.401
300.416
300.431
300.446
300.461
300.475
300.49
300.504
300.518
300.532
300.546
300.56
300.573
300.586
300.599
300.612
300.624
300.636
300.648
300.66
300.671
300.682
300.693
300.704
300.714
300.724
300.734
300.744
300.753
300.762
300.771
300.779
300.787
300.795
300.803
405.406
413.375
419.995
425.682
430.639
434.975
438.751
442.001
444.738
446.961
448.659
449.81
450.38
450.323
449.577
448.057
445.642
442.146
437.251
430.315
419.71
412.144
406.072
400.891
396.309
392.165
388.358
384.818
381.499
378.364
375.386
372.547
369.828
367.22
364.711
362.294
359.963
357.713
355.54
353.441
351.413
349.455
347.562
345.735
343.971
342.268
340.624
339.039
337.51
336.035
334.613
333.243
331.921
330.648
329.421
328.238
327.098
325.999
324.939
323.918
322.933
321.984
321.068
320.185
319.333
318.512
317.719
316.954
316.216
315.504
314.817
314.154
313.514
312.897
312.301
311.727
311.173
310.639
310.124
309.628
309.15
308.689
308.246
307.819
307.409
307.014
306.635
306.271
305.921
305.586
305.264
304.956
304.662
304.38
304.111
303.853
303.608
303.374
303.152
302.94
302.74
302.549
302.368
302.197
302.036
301.883
301.739
301.604
301.476
301.357
301.245
301.14
301.042
300.951
300.866
300.787
300.714
300.646
300.584
300.526
300.473
300.424
300.38
300.339
300.302
300.268
300.238
300.21
300.185
300.163
300.143
300.125
300.109
300.094
300.082
300.071
300.061
300.052
300.044
300.038
300.032
300.027
300.023
300.019
300.016
300.013
300.011
300.009
300.007
300.006
300.005
300.004
300.003
300.002
300.002
300.001
300.001
300.001
300.001
300
300
400.629
407.571
413.737
419.192
424.017
428.273
432
435.219
437.938
440.154
441.854
443.014
443.602
443.573
442.869
441.413
439.101
435.787
431.267
425.29
417.83
411.229
405.531
400.529
396.048
391.967
388.201
384.692
381.394
378.275
375.311
372.481
369.771
367.168
364.665
362.252
359.924
357.678
355.508
353.411
351.386
349.429
347.538
345.712
343.949
342.248
340.606
339.021
337.493
336.02
334.599
333.229
331.909
330.637
329.41
328.228
327.089
325.991
324.932
323.911
322.927
321.978
321.063
320.18
319.329
318.508
317.715
316.951
316.213
315.501
314.814
314.151
313.512
312.895
312.299
311.725
311.172
310.638
310.123
309.627
309.149
308.689
308.245
307.819
307.408
307.014
306.635
306.271
305.921
305.586
305.264
304.956
304.662
304.38
304.111
303.853
303.608
303.375
303.152
302.941
302.74
302.549
302.368
302.197
302.036
301.883
301.739
301.604
301.477
301.357
301.245
301.14
301.043
300.951
300.866
300.787
300.714
300.646
300.584
300.526
300.473
300.425
300.38
300.339
300.302
300.269
300.238
300.21
300.185
300.163
300.143
300.125
300.109
300.094
300.082
300.071
300.061
300.052
300.044
300.038
300.032
300.027
300.023
300.019
300.016
300.013
300.011
300.009
300.007
300.006
300.005
300.004
300.003
300.002
300.002
300.001
300.001
300.001
300.001
300
300
396.478
402.436
407.988
413.057
417.633
421.726
425.343
428.491
431.166
433.361
435.057
436.232
436.854
436.88
436.262
434.934
432.819
429.824
425.861
420.898
415.174
409.6
404.463
399.781
395.496
391.543
387.865
384.419
381.168
378.085
375.148
372.34
369.647
367.059
364.567
362.164
359.845
357.605
355.441
353.35
351.329
349.377
347.49
345.668
343.908
342.21
340.57
338.989
337.463
335.992
334.574
333.206
331.888
330.617
329.392
328.212
327.074
325.977
324.919
323.9
322.917
321.969
321.054
320.173
319.322
318.501
317.709
316.945
316.208
315.497
314.81
314.148
313.509
312.892
312.297
311.723