/*--------------------------------*- C++ -*----------------------------------*\
  =========                 |
  \\      /  F ield         | OpenFOAM: The Open Source CFD Toolbox
   \\    /   O peration     | Website:  https://openfoam.org
    \\  /    A nd           | Version:  7
     \\/     M anipulation  |
\*---------------------------------------------------------------------------*/
FoamFile
{
    version     2.0;
    format      ascii;
    class       volVectorField;
    location    "1";
    object      U;
}
// * * * * * * * * * * * * * * * * * * * * * * * * * * * * * * * * * * * * * //

dimensions      [0 1 -1 0 0 0 0];

internalField   nonuniform List<vector> 
12013
(
(0.1002 -5.4619e-05 0)
(0.100995 -9.98681e-05 0)
(0.102265 -0.000137534 0)
(0.10384 -0.000167307 0)
(0.105646 -0.000190789 0)
(0.107621 -0.000209444 0)
(0.109719 -0.000224719 0)
(0.11191 -0.000238044 0)
(0.114177 -0.000250674 0)
(0.116517 -0.000263599 0)
(0.118932 -0.000277513 0)
(0.12143 -0.000292846 0)
(0.12402 -0.000309814 0)
(0.126712 -0.000328492 0)
(0.129515 -0.000348872 0)
(0.132439 -0.000370911 0)
(0.135489 -0.00039455 0)
(0.138674 -0.000419729 0)
(0.141998 -0.000446395 0)
(0.145465 -0.000474494 0)
(0.14908 -0.000503972 0)
(0.152846 -0.000534774 0)
(0.156764 -0.00056684 0)
(0.160837 -0.000600103 0)
(0.165066 -0.000634489 0)
(0.16945 -0.000669916 0)
(0.173989 -0.000706297 0)
(0.178683 -0.000743539 0)
(0.183529 -0.000781535 0)
(0.188526 -0.000820179 0)
(0.193669 -0.000859357 0)
(0.198956 -0.000898941 0)
(0.204383 -0.0009388 0)
(0.209944 -0.000978802 0)
(0.215636 -0.0010188 0)
(0.221451 -0.00105864 0)
(0.227384 -0.00109817 0)
(0.233429 -0.00113721 0)
(0.239578 -0.00117558 0)
(0.245824 -0.00121311 0)
(0.252159 -0.0012496 0)
(0.258576 -0.00128483 0)
(0.265066 -0.00131859 0)
(0.27162 -0.00135066 0)
(0.278228 -0.00138079 0)
(0.284883 -0.00140871 0)
(0.291574 -0.00143417 0)
(0.298292 -0.00145686 0)
(0.305026 -0.00147648 0)
(0.311766 -0.0014927 0)
(0.318501 -0.00150515 0)
(0.32522 -0.00151345 0)
(0.331913 -0.00151718 0)
(0.338568 -0.00151589 0)
(0.345172 -0.00150908 0)
(0.351714 -0.0014962 0)
(0.35818 -0.00147665 0)
(0.364558 -0.00144973 0)
(0.370833 -0.00141469 0)
(0.376991 -0.00137067 0)
(0.383015 -0.00131666 0)
(0.388889 -0.00125151 0)
(0.394594 -0.00117387 0)
(0.400109 -0.00108212 0)
(0.405412 -0.000974334 0)
(0.410477 -0.000848121 0)
(0.415274 -0.000700538 0)
(0.419767 -0.000527866 0)
(0.423914 -0.000325331 0)
(0.427665 -8.67219e-05 0)
(0.430955 0.000197032 0)
(0.4337 0.00054011 0)
(0.435784 0.000963321 0)
(0.437047 0.00149854 0)
(0.437252 0.00219756 0)
(0.436045 0.00314919 0)
(0.432861 0.0045147 0)
(0.426733 0.00661113 0)
(0.41596 0.0101797 0)
(0.397755 0.0177207 0)
(0.377447 0.0439607 0)
(0.100189 -0.000167147 0)
(0.100984 -0.000306438 0)
(0.102252 -0.000422076 0)
(0.103825 -0.000513368 0)
(0.10563 -0.00058535 0)
(0.107603 -0.000642514 0)
(0.109699 -0.000689301 0)
(0.111887 -0.000730097 0)
(0.114151 -0.000768746 0)
(0.116486 -0.000808288 0)
(0.118897 -0.000850856 0)
(0.121389 -0.000897763 0)
(0.123972 -0.00094967 0)
(0.126657 -0.0010068 0)
(0.129453 -0.00106914 0)
(0.132368 -0.00113654 0)
(0.135409 -0.00120882 0)
(0.138583 -0.0012858 0)
(0.141895 -0.00136731 0)
(0.14535 -0.00145317 0)
(0.148952 -0.00154324 0)
(0.152702 -0.00163733 0)
(0.156605 -0.00173525 0)
(0.160661 -0.00183681 0)
(0.164871 -0.00194176 0)
(0.169235 -0.00204987 0)
(0.173754 -0.00216085 0)
(0.178425 -0.00227442 0)
(0.183247 -0.00239026 0)
(0.188218 -0.00250805 0)
(0.193335 -0.00262741 0)
(0.198593 -0.00274798 0)
(0.203989 -0.00286935 0)
(0.209519 -0.00299111 0)
(0.215177 -0.00311283 0)
(0.220956 -0.00323402 0)
(0.226853 -0.0033542 0)
(0.232858 -0.00347285 0)
(0.238967 -0.00358946 0)
(0.24517 -0.00370344 0)
(0.251461 -0.00381419 0)
(0.257832 -0.0039211 0)
(0.264273 -0.0040235 0)
(0.270777 -0.0041207 0)
(0.277334 -0.00421195 0)
(0.283935 -0.00429648 0)
(0.29057 -0.00437346 0)
(0.29723 -0.00444201 0)
(0.303904 -0.00450118 0)
(0.310582 -0.00454995 0)
(0.317253 -0.00458725 0)
(0.323908 -0.00461191 0)
(0.330533 -0.00462266 0)
(0.337118 -0.00461811 0)
(0.343652 -0.00459674 0)
(0.350121 -0.0045569 0)
(0.356513 -0.00449672 0)
(0.362815 -0.00441413 0)
(0.369014 -0.00430684 0)
(0.375093 -0.00417219 0)
(0.381039 -0.00400715 0)
(0.386833 -0.00380821 0)
(0.392459 -0.00357127 0)
(0.397896 -0.00329144 0)
(0.403122 -0.00296283 0)
(0.408112 -0.00257825 0)
(0.412838 -0.00212881 0)
(0.417266 -0.00160326 0)
(0.421357 -0.00098721 0)
(0.425065 -0.000261869 0)
(0.428328 0.000599242 0)
(0.431073 0.00163549 0)
(0.433204 0.00290431 0)
(0.434593 0.00449201 0)
(0.435066 0.00653402 0)
(0.434387 0.00925193 0)
(0.432233 0.0130225 0)
(0.428158 0.0185108 0)
(0.421593 0.0269511 0)
(0.412445 0.0406212 0)
(0.407093 0.0629629 0)
(0.10018 -0.000285552 0)
(0.10097 -0.000526857 0)
(0.102233 -0.00072603 0)
(0.103803 -0.000883182 0)
(0.105603 -0.00100702 0)
(0.107573 -0.00110529 0)
(0.109663 -0.00118566 0)
(0.111845 -0.00125567 0)
(0.114103 -0.00132194 0)
(0.116431 -0.00138971 0)
(0.118832 -0.00146266 0)
(0.121314 -0.00154304 0)
(0.123886 -0.001632 0)
(0.126558 -0.00172993 0)
(0.129339 -0.00183678 0)
(0.132238 -0.00195231 0)
(0.135261 -0.00207621 0)
(0.138415 -0.00220816 0)
(0.141705 -0.00234786 0)
(0.145136 -0.00249501 0)
(0.148712 -0.00264933 0)
(0.152435 -0.00281053 0)
(0.156307 -0.00297827 0)
(0.160331 -0.00315219 0)
(0.164506 -0.00333191 0)
(0.168833 -0.00351699 0)
(0.173311 -0.00370696 0)
(0.177939 -0.00390132 0)
(0.182716 -0.00409953 0)
(0.187638 -0.00430102 0)
(0.192703 -0.00450515 0)
(0.197907 -0.00471129 0)
(0.203245 -0.00491875 0)
(0.208714 -0.00512682 0)
(0.214307 -0.00533473 0)
(0.22002 -0.00554167 0)
(0.225845 -0.0057468 0)
(0.231777 -0.00594926 0)
(0.237808 -0.00614811 0)
(0.243931 -0.00634238 0)
(0.250138 -0.00653103 0)
(0.25642 -0.00671301 0)
(0.26277 -0.00688716 0)
(0.269179 -0.0070523 0)
(0.275638 -0.00720716 0)
(0.282137 -0.00735039 0)
(0.288667 -0.00748058 0)
(0.295218 -0.00759621 0)
(0.30178 -0.00769565 0)
(0.308343 -0.00777719 0)
(0.314895 -0.00783896 0)
(0.321427 -0.00787897 0)
(0.327927 -0.00789504 0)
(0.334384 -0.0078848 0)
(0.340786 -0.00784568 0)
(0.347121 -0.00777484 0)
(0.353377 -0.00766913 0)
(0.35954 -0.00752505 0)
(0.365597 -0.00733867 0)
(0.371534 -0.00710554 0)
(0.377335 -0.00682055 0)
(0.382986 -0.00647783 0)
(0.388468 -0.0060705 0)
(0.393762 -0.00559043 0)
(0.398849 -0.0050279 0)
(0.403705 -0.00437109 0)
(0.408305 -0.00360544 0)
(0.412618 -0.00271269 0)
(0.41661 -0.00166962 0)
(0.420242 -0.000446062 0)
(0.423464 0.000998711 0)
(0.426218 0.0027225 0)
(0.42844 0.00480732 0)
(0.43005 0.0073711 0)
(0.430957 0.0105878 0)
(0.431073 0.0147197 0)
(0.430332 0.0201685 0)
(0.428759 0.0275515 0)
(0.426627 0.0378131 0)
(0.424875 0.0522514 0)
(0.426809 0.0714452 0)
(0.100172 -0.000409515 0)
(0.100956 -0.000761339 0)
(0.102211 -0.00104978 0)
(0.103774 -0.00127753 0)
(0.105568 -0.00145683 0)
(0.10753 -0.00159897 0)
(0.109614 -0.00171508 0)
(0.111788 -0.00181607 0)
(0.114036 -0.00191155 0)
(0.116353 -0.00200911 0)
(0.118742 -0.00211409 0)
(0.121209 -0.00222975 0)
(0.123765 -0.00235777 0)
(0.126418 -0.00249872 0)
(0.129177 -0.00265253 0)
(0.132052 -0.00281885 0)
(0.135049 -0.00299721 0)
(0.138175 -0.00318714 0)
(0.141434 -0.00338821 0)
(0.144831 -0.00359998 0)
(0.14837 -0.00382203 0)
(0.152053 -0.00405392 0)
(0.155882 -0.00429518 0)
(0.159858 -0.00454528 0)
(0.163983 -0.00480365 0)
(0.168256 -0.00506966 0)
(0.172677 -0.00534263 0)
(0.177243 -0.00562183 0)
(0.181954 -0.00590647 0)
(0.186807 -0.00619572 0)
(0.191798 -0.00648868 0)
(0.196924 -0.00678441 0)
(0.20218 -0.00708192 0)
(0.207562 -0.00738017 0)
(0.213064 -0.00767804 0)
(0.21868 -0.00797438 0)
(0.224405 -0.00826798 0)
(0.230232 -0.00855755 0)
(0.236153 -0.00884176 0)
(0.242161 -0.0091192 0)
(0.248249 -0.00938839 0)
(0.254408 -0.00964776 0)
(0.260629 -0.00989569 0)
(0.266905 -0.0101304 0)
(0.273226 -0.0103502 0)
(0.279582 -0.010553 0)
(0.285965 -0.0107368 0)
(0.292364 -0.0108994 0)
(0.29877 -0.0110386 0)
(0.305172 -0.0111518 0)
(0.31156 -0.0112363 0)
(0.317923 -0.0112893 0)
(0.324251 -0.0113077 0)
(0.330531 -0.0112881 0)
(0.336753 -0.0112268 0)
(0.342905 -0.0111199 0)
(0.348974 -0.0109627 0)
(0.354948 -0.0107505 0)
(0.360815 -0.0104775 0)
(0.36656 -0.0101377 0)
(0.37217 -0.00972383 0)
(0.377629 -0.00922776 0)
(0.382921 -0.00863997 0)
(0.388029 -0.00794934 0)
(0.392936 -0.00714261 0)
(0.397621 -0.00620386 0)
(0.402061 -0.00511364 0)
(0.406233 -0.0038479 0)
(0.410108 -0.00237643 0)
(0.41366 -0.000660727 0)
(0.41685 0.00134864 0)
(0.419645 0.00371826 0)
(0.422013 0.00653868 0)
(0.423925 0.00993251 0)
(0.425367 0.0140665 0)
(0.42636 0.0191672 0)
(0.426997 0.025537 0)
(0.427503 0.0335616 0)
(0.428341 0.0436803 0)
(0.430335 0.0562148 0)
(0.434916 0.0706613 0)
(0.100165 -0.00053964 0)
(0.100942 -0.00101032 0)
(0.102186 -0.00139407 0)
(0.10374 -0.00169744 0)
(0.105525 -0.00193607 0)
(0.107478 -0.00212502 0)
(0.109551 -0.00227912 0)
(0.111714 -0.00241292 0)
(0.11395 -0.00253919 0)
(0.116254 -0.00266804 0)
(0.118626 -0.00280659 0)
(0.121075 -0.00295924 0)
(0.123609 -0.0031282 0)
(0.126238 -0.00331426 0)
(0.128971 -0.00351733 0)
(0.131816 -0.00373694 0)
(0.134779 -0.00397245 0)
(0.137868 -0.00422322 0)
(0.141088 -0.00448865 0)
(0.144441 -0.00476816 0)
(0.147932 -0.00506117 0)
(0.151564 -0.0053671 0)
(0.155338 -0.00568529 0)
(0.159255 -0.00601504 0)
(0.163315 -0.00635559 0)
(0.16752 -0.00670609 0)
(0.171867 -0.00706564 0)
(0.176355 -0.00743327 0)
(0.180983 -0.00780792 0)
(0.185747 -0.00818847 0)
(0.190644 -0.00857373 0)
(0.195671 -0.00896245 0)
(0.200822 -0.00935332 0)
(0.206094 -0.00974494 0)
(0.211481 -0.0101358 0)
(0.216976 -0.0105245 0)
(0.222575 -0.0109092 0)
(0.228269 -0.0112884 0)
(0.234052 -0.0116602 0)
(0.239916 -0.0120228 0)
(0.245855 -0.0123742 0)
(0.251859 -0.0127123 0)
(0.25792 -0.0130351 0)
(0.264029 -0.0133401 0)
(0.270178 -0.0136249 0)
(0.276358 -0.0138871 0)
(0.282559 -0.0141239 0)
(0.28877 -0.0143324 0)
(0.294984 -0.0145096 0)
(0.301188 -0.0146522 0)
(0.307374 -0.0147567 0)
(0.31353 -0.0148193 0)
(0.319647 -0.014836 0)
(0.325712 -0.0148024 0)
(0.331715 -0.0147137 0)
(0.337645 -0.0145647 0)
(0.34349 -0.0143496 0)
(0.349238 -0.014062 0)
(0.354877 -0.0136949 0)
(0.360394 -0.0132402 0)
(0.365777 -0.012689 0)
(0.37101 -0.0120311 0)
(0.376081 -0.0112545 0)
(0.380975 -0.0103455 0)
(0.385675 -0.00928808 0)
(0.390166 -0.00806294 0)
(0.39443 -0.00664712 0)
(0.39845 -0.00501263 0)
(0.402206 -0.00312511 0)
(0.405681 -0.000942062 0)
(0.408857 0.00158804 0)
(0.411718 0.0045305 0)
(0.414264 0.00796963 0)
(0.416505 0.0120115 0)
(0.418476 0.0167871 0)
(0.420257 0.0224534 0)
(0.42199 0.0291871 0)
(0.423918 0.0371623 0)
(0.426413 0.0464916 0)
(0.429983 0.0570944 0)
(0.435226 0.0684139 0)
(0.100158 -0.00067641 0)
(0.100927 -0.00127421 0)
(0.102159 -0.00175964 0)
(0.103702 -0.00214393 0)
(0.105474 -0.00244599 0)
(0.107416 -0.00268486 0)
(0.109477 -0.00287935 0)
(0.111626 -0.00304782 0)
(0.113847 -0.00320644 0)
(0.116134 -0.00336802 0)
(0.118487 -0.0035416 0)
(0.120913 -0.00373279 0)
(0.123421 -0.00394444 0)
(0.126021 -0.00417755 0)
(0.128721 -0.00443204 0)
(0.131529 -0.00470727 0)
(0.134453 -0.00500244 0)
(0.137498 -0.00531671 0)
(0.140669 -0.0056493 0)
(0.14397 -0.00599946 0)
(0.147405 -0.00636643 0)
(0.150975 -0.00674944 0)
(0.154682 -0.00714767 0)
(0.158527 -0.00756023 0)
(0.162511 -0.00798613 0)
(0.166633 -0.00842431 0)
(0.170893 -0.0088736 0)
(0.175288 -0.00933278 0)
(0.179816 -0.00980051 0)
(0.184474 -0.0102754 0)
(0.18926 -0.0107559 0)
(0.194169 -0.0112404 0)
(0.199197 -0.0117273 0)
(0.204338 -0.0122149 0)
(0.209588 -0.0127011 0)
(0.21494 -0.0131842 0)
(0.220389 -0.0136621 0)
(0.225927 -0.0141326 0)
(0.231548 -0.0145934 0)
(0.237243 -0.0150423 0)
(0.243007 -0.0154768 0)
(0.248829 -0.0158942 0)
(0.254702 -0.0162918 0)
(0.260618 -0.0166668 0)
(0.266567 -0.0170161 0)
(0.272541 -0.0173365 0)
(0.278529 -0.0176246 0)
(0.284524 -0.0178769 0)
(0.290514 -0.0180895 0)
(0.296491 -0.0182583 0)
(0.302444 -0.0183791 0)
(0.308363 -0.0184471 0)
(0.314238 -0.0184573 0)
(0.320058 -0.0184043 0)
(0.325812 -0.0182823 0)
(0.331491 -0.0180849 0)
(0.337082 -0.0178049 0)
(0.342576 -0.0174349 0)
(0.347959 -0.0169661 0)
(0.353222 -0.0163891 0)
(0.358352 -0.0156934 0)
(0.363337 -0.0148667 0)
(0.368166 -0.0138955 0)
(0.372826 -0.012764 0)
(0.377305 -0.011454 0)
(0.381591 -0.00994437 0)
(0.385672 -0.00821014 0)
(0.389536 -0.00622176 0)
(0.393174 -0.00394399 0)
(0.396579 -0.00133489 0)
(0.399749 0.00165319 0)
(0.402683 0.00507627 0)
(0.405403 0.00900268 0)
(0.407942 0.0135111 0)
(0.410357 0.0186881 0)
(0.41274 0.0246218 0)
(0.415227 0.0313895 0)
(0.418005 0.0390337 0)
(0.421313 0.0475219 0)
(0.425416 0.0566832 0)
(0.430534 0.0661214 0)
(0.100151 -0.000820198 0)
(0.100911 -0.00155344 0)
(0.10213 -0.00214721 0)
(0.103658 -0.00261793 0)
(0.105417 -0.00298777 0)
(0.107343 -0.00327987 0)
(0.109389 -0.00351725 0)
(0.111523 -0.00372231 0)
(0.113726 -0.00391483 0)
(0.115992 -0.0041105 0)
(0.118322 -0.00432045 0)
(0.120722 -0.0045516 0)
(0.1232 -0.00480751 0)
(0.125765 -0.00508945 0)
(0.128427 -0.00539731 0)
(0.131193 -0.00573032 0)
(0.13407 -0.00608747 0)
(0.137064 -0.0064677 0)
(0.140179 -0.00687001 0)
(0.14342 -0.00729346 0)
(0.146788 -0.00773711 0)
(0.150287 -0.00819997 0)
(0.153918 -0.00868104 0)
(0.157681 -0.00917919 0)
(0.161576 -0.00969322 0)
(0.165604 -0.0102218 0)
(0.169762 -0.0107636 0)
(0.17405 -0.0113169 0)
(0.178464 -0.0118803 0)
(0.183002 -0.012452 0)
(0.18766 -0.01303 0)
(0.192434 -0.0136126 0)
(0.19732 -0.0141976 0)
(0.202313 -0.0147829 0)
(0.207407 -0.0153662 0)
(0.212597 -0.0159452 0)
(0.217876 -0.0165174 0)
(0.223237 -0.0170801 0)
(0.228673 -0.0176306 0)
(0.234178 -0.0181661 0)
(0.239743 -0.0186836 0)
(0.245361 -0.0191799 0)
(0.251023 -0.0196516 0)
(0.256721 -0.0200953 0)
(0.262445 -0.0205074 0)
(0.268189 -0.020884 0)
(0.273941 -0.0212209 0)
(0.279693 -0.0215139 0)
(0.285436 -0.0217584 0)
(0.29116 -0.0219495 0)
(0.296855 -0.022082 0)
(0.302511 -0.0221503 0)
(0.30812 -0.0221486 0)
(0.31367 -0.0220704 0)
(0.319152 -0.0219087 0)
(0.324556 -0.0216562 0)
(0.329871 -0.0213047 0)
(0.335088 -0.0208453 0)
(0.340196 -0.0202682 0)
(0.345186 -0.0195626 0)
(0.350047 -0.0187166 0)
(0.354768 -0.0177168 0)
(0.359342 -0.0165483 0)
(0.363758 -0.0151941 0)
(0.368007 -0.0136351 0)
(0.372082 -0.0118494 0)
(0.375976 -0.00981196 0)
(0.379685 -0.00749405 0)
(0.383206 -0.00486263 0)
(0.38654 -0.00188012 0)
(0.3897 0.00149335 0)
(0.392693 0.00529999 0)
(0.39555 0.00958806 0)
(0.398315 0.0144075 0)
(0.401045 0.019805 0)
(0.403823 0.0258169 0)
(0.40675 0.0324581 0)
(0.40995 0.0397065 0)
(0.413556 0.0474827 0)
(0.417684 0.0556283 0)
(0.422389 0.0638915 0)
(0.100143 -0.000971347 0)
(0.100895 -0.00184844 0)
(0.102098 -0.00255748 0)
(0.10361 -0.00312035 0)
(0.105352 -0.00356252 0)
(0.107261 -0.00391132 0)
(0.109289 -0.00419421 0)
(0.111403 -0.00443783 0)
(0.113585 -0.00466577 0)
(0.115827 -0.00489681 0)
(0.11813 -0.00514433 0)
(0.1205 -0.0054167 0)
(0.122943 -0.00571825 0)
(0.125469 -0.00605057 0)
(0.128088 -0.00641356 0)
(0.130806 -0.00680628 0)
(0.133629 -0.00722748 0)
(0.136565 -0.00767588 0)
(0.139617 -0.00815022 0)
(0.142789 -0.00864933 0)
(0.146083 -0.00917205 0)
(0.149501 -0.00971718 0)
(0.153045 -0.0102835 0)
(0.156715 -0.0108696 0)
(0.160511 -0.0114741 0)
(0.164433 -0.0120954 0)
(0.168478 -0.0127318 0)
(0.172645 -0.0133815 0)
(0.176931 -0.0140425 0)
(0.181334 -0.0147128 0)
(0.18585 -0.0153901 0)
(0.190474 -0.0160722 0)
(0.195202 -0.0167567 0)
(0.20003 -0.0174408 0)
(0.204951 -0.0181221 0)
(0.20996 -0.0187976 0)
(0.21505 -0.0194644 0)
(0.220215 -0.0201194 0)
(0.225449 -0.0207594 0)
(0.230743 -0.0213809 0)
(0.23609 -0.0219804 0)
(0.241482 -0.0225542 0)
(0.246912 -0.0230983 0)
(0.252371 -0.0236087 0)
(0.25785 -0.024081 0)
(0.263341 -0.0245107 0)
(0.268835 -0.024893 0)
(0.274323 -0.0252228 0)
(0.279797 -0.0254948 0)
(0.285246 -0.0257033 0)
(0.290662 -0.0258423 0)
(0.296036 -0.0259055 0)
(0.301358 -0.0258858 0)
(0.306618 -0.0257761 0)
(0.311809 -0.0255685 0)
(0.31692 -0.0252545 0)
(0.321942 -0.024825 0)
(0.326866 -0.0242701 0)
(0.331684 -0.023579 0)
(0.336387 -0.0227401 0)
(0.340966 -0.0217404 0)
(0.345415 -0.0205659 0)
(0.349725 -0.019201 0)
(0.35389 -0.0176283 0)
(0.357906 -0.015829 0)
(0.361767 -0.0137818 0)
(0.365473 -0.0114632 0)
(0.369024 -0.00884744 0)
(0.372423 -0.0059059 0)
(0.375678 -0.00260788 0)
(0.378811 0.00107751 0)
(0.381827 0.00517766 0)
(0.384765 0.00972092 0)
(0.387663 0.0147328 0)
(0.390572 0.020231 0)
(0.393553 0.0262191 0)
(0.396673 0.03268 0)
(0.400003 0.039568 0)
(0.403605 0.0468016 0)
(0.40752 0.0542595 0)
(0.411738 0.0617901 0)
(0.100136 -0.00113017 0)
(0.100879 -0.0021596 0)
(0.102064 -0.00299105 0)
(0.103557 -0.00365195 0)
(0.105279 -0.00417118 0)
(0.107167 -0.00458032 0)
(0.109173 -0.00491142 0)
(0.111265 -0.00519559 0)
(0.113422 -0.00546044 0)
(0.115637 -0.00572804 0)
(0.117909 -0.00601418 0)
(0.120243 -0.00632883 0)
(0.122647 -0.0066772 0)
(0.125129 -0.00706122 0)
(0.127698 -0.00748083 0)
(0.130362 -0.00793493 0)
(0.133126 -0.00842199 0)
(0.135996 -0.00894045 0)
(0.138977 -0.0094888 0)
(0.142072 -0.0100656 0)
(0.145283 -0.0106694 0)
(0.148612 -0.0112988 0)
(0.15206 -0.0119523 0)
(0.155627 -0.0126283 0)
(0.159312 -0.0133251 0)
(0.163116 -0.0140409 0)
(0.167036 -0.0147735 0)
(0.17107 -0.015521 0)
(0.175215 -0.016281 0)
(0.179469 -0.017051 0)
(0.183828 -0.0178286 0)
(0.188287 -0.0186111 0)
(0.192843 -0.0193955 0)
(0.197489 -0.0201789 0)
(0.202221 -0.0209581 0)
(0.207032 -0.0217299 0)
(0.211917 -0.0224909 0)
(0.216869 -0.0232373 0)
(0.221881 -0.0239655 0)
(0.226945 -0.0246714 0)
(0.232056 -0.0253511 0)
(0.237204 -0.0260001 0)
(0.242382 -0.0266139 0)
(0.247583 -0.0271878 0)
(0.252797 -0.0277168 0)
(0.258017 -0.0281956 0)
(0.263234 -0.0286189 0)
(0.268439 -0.0289808 0)
(0.273624 -0.0292752 0)
(0.27878 -0.0294957 0)
(0.283899 -0.0296354 0)
(0.288971 -0.0296872 0)
(0.293989 -0.0296434 0)
(0.298944 -0.0294959 0)
(0.303827 -0.029236 0)
(0.30863 -0.0288544 0)
(0.313345 -0.0283412 0)
(0.317964 -0.0276857 0)
(0.32248 -0.0268767 0)
(0.326887 -0.0259016 0)
(0.331177 -0.0247474 0)
(0.335345 -0.0233996 0)
(0.339386 -0.0218427 0)
(0.343297 -0.0200603 0)
(0.347076 -0.0180341 0)
(0.350721 -0.015745 0)
(0.354235 -0.0131723 0)
(0.357621 -0.0102944 0)
(0.360889 -0.00708876 0)
(0.364047 -0.00353251 0)
(0.367121 0.000397398 0)
(0.370117 0.00471517 0)
(0.373068 0.00943149 0)
(0.376007 0.0145544 0)
(0.378971 0.0200833 0)
(0.382001 0.026005 0)
(0.385135 0.0322899 0)
(0.388409 0.03889 0)
(0.391845 0.0457369 0)
(0.395448 0.0527455 0)
(0.399186 0.0598269 0)
(0.100128 -0.00129693 0)
(0.100861 -0.0024872 0)
(0.102026 -0.00344841 0)
(0.103498 -0.00421335 0)
(0.105197 -0.00481449 0)
(0.10706 -0.00528769 0)
(0.109041 -0.00566978 0)
(0.111105 -0.00599652 0)
(0.113233 -0.00629972 0)
(0.115416 -0.00660493 0)
(0.117652 -0.00693059 0)
(0.119947 -0.00728836 0)
(0.122306 -0.00768446 0)
(0.124739 -0.00812124 0)
(0.127253 -0.00859868 0)
(0.129856 -0.00911548 0)
(0.132553 -0.00966987 0)
(0.135351 -0.0102599 0)
(0.138253 -0.0108839 0)
(0.141263 -0.01154 0)
(0.144382 -0.0122264 0)
(0.147612 -0.0129417 0)
(0.150954 -0.0136838 0)
(0.154407 -0.0144511 0)
(0.157971 -0.0152414 0)
(0.161646 -0.0160527 0)
(0.165428 -0.0168825 0)
(0.169317 -0.0177286 0)
(0.173308 -0.0185881 0)
(0.1774 -0.0194583 0)
(0.181588 -0.0203363 0)
(0.185868 -0.021219 0)
(0.190235 -0.0221031 0)
(0.194684 -0.022985 0)
(0.199211 -0.0238614 0)
(0.203808 -0.0247283 0)
(0.208471 -0.0255818 0)
(0.213192 -0.0264178 0)
(0.217965 -0.0272319 0)
(0.222784 -0.0280198 0)
(0.22764 -0.0287765 0)
(0.232526 -0.0294974 0)
(0.237435 -0.0301771 0)
(0.242359 -0.0308104 0)
(0.24729 -0.0313915 0)
(0.25222 -0.0319147 0)
(0.257141 -0.0323737 0)
(0.262046 -0.0327621 0)
(0.266925 -0.033073 0)
(0.271771 -0.0332993 0)
(0.276576 -0.0334334 0)
(0.281331 -0.0334676 0)
(0.28603 -0.0333932 0)
(0.290663 -0.0332017 0)
(0.295225 -0.0328835 0)
(0.299708 -0.0324288 0)
(0.304104 -0.0318272 0)
(0.308408 -0.0310676 0)
(0.312614 -0.0301381 0)
(0.316716 -0.0290265 0)
(0.320711 -0.0277194 0)
(0.324593 -0.0262029 0)
(0.328361 -0.0244623 0)
(0.332014 -0.0224823 0)
(0.335551 -0.0202466 0)
(0.338975 -0.0177386 0)
(0.34229 -0.0149415 0)
(0.345502 -0.0118383 0)
(0.348622 -0.00841256 0)
(0.351659 -0.00464896 0)
(0.35463 -0.00053329 0)
(0.357562 0.00394074 0)
(0.360462 0.00877079 0)
(0.363359 0.0139538 0)
(0.366279 0.0194795 0)
(0.369244 0.0253277 0)
(0.372274 0.0314671 0)
(0.375382 0.0378557 0)
(0.378572 0.0444411 0)
(0.381831 0.0511655 0)
(0.385129 0.0579781 0)
(0.100119 -0.00147181 0)
(0.100841 -0.00283144 0)
(0.101986 -0.00392984 0)
(0.103433 -0.00480488 0)
(0.105104 -0.00549284 0)
(0.106939 -0.00603389 0)
(0.108889 -0.00646977 0)
(0.110922 -0.00684106 0)
(0.113016 -0.00718397 0)
(0.115161 -0.00752774 0)
(0.117357 -0.0078936 0)
(0.119606 -0.0082951 0)
(0.121915 -0.00873956 0)
(0.124292 -0.00922983 0)
(0.126744 -0.00976593 0)
(0.129279 -0.0103464 0)
(0.131903 -0.0109692 0)
(0.134621 -0.011632 0)
(0.137437 -0.0123326 0)
(0.140352 -0.0130691 0)
(0.14337 -0.0138393 0)
(0.146492 -0.0146412 0)
(0.149717 -0.0154729 0)
(0.153046 -0.0163321 0)
(0.156478 -0.0172165 0)
(0.160011 -0.0181236 0)
(0.163644 -0.0190509 0)
(0.167374 -0.0199954 0)
(0.171199 -0.0209542 0)
(0.175114 -0.0219241 0)
(0.179117 -0.0229017 0)
(0.183202 -0.0238836 0)
(0.187366 -0.0248659 0)
(0.191604 -0.0258448 0)
(0.195909 -0.0268162 0)
(0.200277 -0.0277759 0)
(0.204701 -0.0287193 0)
(0.209175 -0.0296418 0)
(0.213692 -0.0305386 0)
(0.218246 -0.0314045 0)
(0.22283 -0.0322344 0)
(0.227437 -0.0330225 0)
(0.232059 -0.0337633 0)
(0.236689 -0.0344507 0)
(0.241319 -0.0350785 0)
(0.245942 -0.0356401 0)
(0.250551 -0.0361287 0)
(0.255138 -0.0365371 0)
(0.259695 -0.0368579 0)
(0.264214 -0.0370834 0)
(0.26869 -0.0372053 0)
(0.273113 -0.0372151 0)
(0.277479 -0.0371038 0)
(0.281779 -0.0368622 0)
(0.286007 -0.0364804 0)
(0.290158 -0.0359481 0)
(0.294226 -0.0352545 0)
(0.298206 -0.0343886 0)
(0.302093 -0.0333384 0)
(0.305884 -0.0320919 0)
(0.309576 -0.0306363 0)
(0.313168 -0.0289587 0)
(0.316658 -0.0270455 0)
(0.320047 -0.0248832 0)
(0.323338 -0.022458 0)
(0.326533 -0.0197564 0)
(0.329639 -0.0167652 0)
(0.332663 -0.0134723 0)
(0.335614 -0.00986677 0)
(0.338504 -0.00593956 0)
(0.341344 -0.00168448 0)
(0.344161 0.00289932 0)
(0.346951 0.00780327 0)
(0.349737 0.0130179 0)
(0.352536 0.0185285 0)
(0.355358 0.0243136 0)
(0.358209 0.0303449 0)
(0.361093 0.0365885 0)
(0.364002 0.0430056 0)
(0.366922 0.0495574 0)
(0.369824 0.0562157 0)
(0.100109 -0.00165491 0)
(0.10082 -0.00319233 0)
(0.101942 -0.00443534 0)
(0.10336 -0.00542656 0)
(0.105 -0.00620621 0)
(0.106801 -0.00681889 0)
(0.108716 -0.00731131 0)
(0.110711 -0.00772906 0)
(0.112765 -0.00811292 0)
(0.114867 -0.00849603 0)
(0.117016 -0.00890256 0)
(0.119213 -0.00934813 0)
(0.121466 -0.00984127 0)
(0.12378 -0.0103854 0)
(0.126164 -0.0109806 0)
(0.128624 -0.0116253 0)
(0.131167 -0.012317 0)
(0.133796 -0.0130531 0)
(0.136516 -0.013831 0)
(0.139329 -0.0146483 0)
(0.142236 -0.0155026 0)
(0.145239 -0.0163915 0)
(0.148337 -0.0173128 0)
(0.15153 -0.0182638 0)
(0.154818 -0.019242 0)
(0.158198 -0.0202445 0)
(0.161669 -0.0212683 0)
(0.165227 -0.0223103 0)
(0.168871 -0.0233671 0)
(0.172596 -0.0244351 0)
(0.176399 -0.0255105 0)
(0.180276 -0.0265893 0)
(0.184221 -0.0276674 0)
(0.188231 -0.0287404 0)
(0.192299 -0.0298038 0)
(0.19642 -0.0308526 0)
(0.200589 -0.031882 0)
(0.204799 -0.0328868 0)
(0.209043 -0.0338615 0)
(0.213317 -0.0348005 0)
(0.217611 -0.0356979 0)
(0.221921 -0.0365477 0)
(0.226239 -0.0373435 0)
(0.230557 -0.0380786 0)
(0.23487 -0.0387463 0)
(0.23917 -0.0393394 0)
(0.243449 -0.0398504 0)
(0.247702 -0.0402717 0)
(0.251921 -0.0405952 0)
(0.256099 -0.0408126 0)
(0.260231 -0.0409152 0)
(0.264309 -0.040894 0)
(0.268328 -0.0407397 0)
(0.272281 -0.0404424 0)
(0.276165 -0.0399922 0)
(0.279974 -0.0393787 0)
(0.283704 -0.038591 0)
(0.287351 -0.0376182 0)
(0.290912 -0.0364489 0)
(0.294385 -0.0350716 0)
(0.297769 -0.0334743 0)
(0.301063 -0.0316455 0)
(0.304269 -0.0295732 0)
(0.307388 -0.027246 0)
(0.310423 -0.0246528 0)
(0.31338 -0.0217831 0)
(0.316263 -0.0186276 0)
(0.319081 -0.0151783 0)
(0.321842 -0.011429 0)
(0.324556 -0.00737593 0)
(0.32723 -0.00301775 0)
(0.329891 0.00164447 0)
(0.332524 0.00659869 0)
(0.335148 0.0118313 0)
(0.337773 0.0173265 0)
(0.340401 0.0230645 0)
(0.343033 0.0290218 0)
(0.345665 0.0351717 0)
(0.348289 0.041486 0)
(0.350889 0.0479382 0)
(0.353441 0.054514 0)
(0.100099 -0.00184622 0)
(0.100797 -0.00356969 0)
(0.101893 -0.00496462 0)
(0.103279 -0.00607795 0)
(0.104883 -0.00695405 0)
(0.106645 -0.007642 0)
(0.108518 -0.00819361 0)
(0.11047 -0.00865959 0)
(0.112477 -0.0090855 0)
(0.11453 -0.00950851 0)
(0.116624 -0.00995594 0)
(0.118763 -0.0104456 0)
(0.120951 -0.0109874 0)
(0.123196 -0.0115853 0)
(0.125504 -0.0122395 0)
(0.127882 -0.0129484 0)
(0.130334 -0.013709 0)
(0.132867 -0.0145183 0)
(0.135481 -0.0153733 0)
(0.138181 -0.0162712 0)
(0.140967 -0.0172092 0)
(0.14384 -0.0181846 0)
(0.1468 -0.0191947 0)
(0.149846 -0.0202365 0)
(0.152977 -0.0213072 0)
(0.156192 -0.0224035 0)
(0.159487 -0.0235221 0)
(0.162861 -0.0246595 0)
(0.166309 -0.0258118 0)
(0.16983 -0.0269751 0)
(0.173419 -0.0281452 0)
(0.177071 -0.0293175 0)
(0.180783 -0.0304876 0)
(0.184548 -0.0316504 0)
(0.188363 -0.0328011 0)
(0.192222 -0.0339342 0)
(0.196118 -0.0350442 0)
(0.200047 -0.0361255 0)
(0.204002 -0.0371721 0)
(0.207977 -0.0381777 0)
(0.211965 -0.039136 0)
(0.215961 -0.0400402 0)
(0.219957 -0.0408836 0)
(0.223948 -0.0416588 0)
(0.227926 -0.0423586 0)
(0.231886 -0.0429752 0)
(0.23582 -0.0435007 0)
(0.239723 -0.0439268 0)
(0.243589 -0.0442451 0)
(0.247411 -0.0444468 0)
(0.251185 -0.0445228 0)
(0.254904 -0.0444639 0)
(0.258564 -0.0442604 0)
(0.26216 -0.0439024 0)
(0.265689 -0.0433799 0)
(0.269146 -0.0426826 0)
(0.272528 -0.0417999 0)
(0.275833 -0.0407214 0)
(0.27906 -0.0394363 0)
(0.282208 -0.0379339 0)
(0.285276 -0.0362037 0)
(0.288266 -0.0342354 0)
(0.29118 -0.0320192 0)
(0.294019 -0.0295456 0)
(0.296789 -0.0268061 0)
(0.299493 -0.0237933 0)
(0.302139 -0.0205011 0)
(0.304732 -0.0169249 0)
(0.307279 -0.0130623 0)
(0.309789 -0.00891308 0)
(0.312266 -0.00447922 0)
(0.314728 0.000237912 0)
(0.31717 0.0052269 0)
(0.319595 0.0104705 0)
(0.322011 0.0159534 0)
(0.324418 0.0216591 0)
(0.326811 0.0275684 0)
(0.329186 0.0336605 0)
(0.331533 0.0399145 0)
(0.333839 0.0463123 0)
(0.336086 0.0528479 0)
(0.100087 -0.00204558 0)
(0.100772 -0.00396307 0)
(0.101839 -0.00551694 0)
(0.103189 -0.0067581 0)
(0.104752 -0.00773516 0)
(0.106468 -0.0085018 0)
(0.108294 -0.00911503 0)
(0.110194 -0.00963082 0)
(0.112147 -0.0100996 0)
(0.114143 -0.0105629 0)
(0.116176 -0.0110511 0)
(0.118248 -0.0115846 0)
(0.120365 -0.0121745 0)
(0.122532 -0.0128256 0)
(0.124755 -0.0135383 0)
(0.127042 -0.0143106 0)
(0.129395 -0.0151394 0)
(0.131821 -0.0160212 0)
(0.134321 -0.0169524 0)
(0.136898 -0.0179298 0)
(0.139552 -0.0189502 0)
(0.142284 -0.0200105 0)
(0.145094 -0.0211075 0)
(0.14798 -0.0222381 0)
(0.150942 -0.0233988 0)
(0.153977 -0.0245862 0)
(0.157084 -0.0257966 0)
(0.160258 -0.0270259 0)
(0.163498 -0.02827 0)
(0.166799 -0.0295244 0)
(0.170158 -0.0307845 0)
(0.173571 -0.0320455 0)
(0.177032 -0.0333021 0)
(0.180538 -0.0345491 0)
(0.184084 -0.0357809 0)
(0.187663 -0.0369917 0)
(0.191271 -0.0381755 0)
(0.194902 -0.039326 0)
(0.19855 -0.0404368 0)
(0.20221 -0.041501 0)
(0.205875 -0.0425118 0)
(0.20954 -0.043462 0)
(0.213198 -0.0443441 0)
(0.216844 -0.0451505 0)
(0.220472 -0.0458733 0)
(0.224076 -0.0465044 0)
(0.22765 -0.0470352 0)
(0.231188 -0.0474574 0)
(0.234687 -0.0477619 0)
(0.238139 -0.0479398 0)
(0.241542 -0.0479818 0)
(0.24489 -0.0478784 0)
(0.248179 -0.0476199 0)
(0.251407 -0.0471967 0)
(0.254569 -0.0465987 0)
(0.257664 -0.045816 0)
(0.26069 -0.0448387 0)
(0.263645 -0.0436569 0)
(0.26653 -0.0422607 0)
(0.269344 -0.0406407 0)
(0.272088 -0.0387876 0)
(0.274765 -0.0366929 0)
(0.277376 -0.0343485 0)
(0.279925 -0.0317471 0)
(0.282417 -0.0288827 0)
(0.284855 -0.0257502 0)
(0.287246 -0.022346 0)
(0.289594 -0.0186685 0)
(0.291905 -0.0147175 0)
(0.294186 -0.0104951 0)
(0.29644 -0.00600513 0)
(0.298671 -0.00125163 0)
(0.300899 0.0037576 0)
(0.3031 0.00900506 0)
(0.305287 0.0144772 0)
(0.307457 0.0201598 0)
(0.309606 0.0260371 0)
(0.311727 0.0320928 0)
(0.313813 0.038311 0)
(0.315852 0.0446788 0)
(0.31783 0.0511954 0)
(0.100075 -0.00225266 0)
(0.100744 -0.00437169 0)
(0.10178 -0.0060911 0)
(0.103089 -0.00746541 0)
(0.104604 -0.00854757 0)
(0.10627 -0.00939598 0)
(0.10804 -0.0100729 0)
(0.109881 -0.0106398 0)
(0.111773 -0.0111521 0)
(0.113702 -0.0116555 0)
(0.115665 -0.0121841 0)
(0.117663 -0.0127606 0)
(0.119699 -0.0133977 0)
(0.12178 -0.0141009 0)
(0.12391 -0.0148709 0)
(0.126095 -0.0157053 0)
(0.128341 -0.0166008 0)
(0.130649 -0.0175533 0)
(0.133024 -0.0185588 0)
(0.135467 -0.0196136 0)
(0.137978 -0.020714 0)
(0.140557 -0.0218564 0)
(0.143205 -0.0230374 0)
(0.145919 -0.0242534 0)
(0.148698 -0.0255005 0)
(0.151541 -0.026775 0)
(0.154444 -0.0280726 0)
(0.157405 -0.0293889 0)
(0.160421 -0.0307195 0)
(0.163488 -0.0320593 0)
(0.166602 -0.0334033 0)
(0.169759 -0.0347463 0)
(0.172955 -0.0360825 0)
(0.176186 -0.0374062 0)
(0.179445 -0.0387113 0)
(0.182729 -0.0399915 0)
(0.186032 -0.0412404 0)
(0.189348 -0.0424511 0)
(0.192673 -0.0436166 0)
(0.196002 -0.0447298 0)
(0.199327 -0.0457832 0)
(0.202645 -0.0467692 0)
(0.20595 -0.0476798 0)
(0.209235 -0.048507 0)
(0.212497 -0.0492425 0)
(0.21573 -0.0498777 0)
(0.218929 -0.050404 0)
(0.222089 -0.0508125 0)
(0.225206 -0.0510941 0)
(0.228276 -0.0512397 0)
(0.231295 -0.0512399 0)
(0.23426 -0.0510852 0)
(0.237168 -0.0507663 0)
(0.240016 -0.0502735 0)
(0.242803 -0.0495975 0)
(0.245527 -0.0487287 0)
(0.248187 -0.0476579 0)
(0.250784 -0.0463762 0)
(0.253317 -0.0448748 0)
(0.255788 -0.0431455 0)
(0.258199 -0.0411805 0)
(0.260552 -0.0389728 0)
(0.262851 -0.0365161 0)
(0.265098 -0.0338053 0)
(0.267298 -0.030836 0)
(0.269455 -0.0276054 0)
(0.271573 -0.024112 0)
(0.273659 -0.0203557 0)
(0.275716 -0.0163383 0)
(0.277748 -0.0120628 0)
(0.279759 -0.00753423 0)
(0.281749 -0.00275843 0)
(0.283737 0.00225834 0)
(0.285699 0.00750247 0)
(0.287643 0.0129618 0)
(0.28957 0.0186238 0)
(0.291473 0.0244753 0)
(0.293347 0.0305031 0)
(0.295186 0.0366947 0)