/*--------------------------------*- C++ -*----------------------------------*\
  =========                 |
  \\      /  F ield         | OpenFOAM: The Open Source CFD Toolbox
   \\    /   O peration     | Website:  https://openfoam.org
    \\  /    A nd           | Version:  7
     \\/     M anipulation  |
\*---------------------------------------------------------------------------*/
FoamFile
{
    version     2.0;
    format      ascii;
    class       volVectorField;
    location    "1";
    object      U;
}
// * * * * * * * * * * * * * * * * * * * * * * * * * * * * * * * * * * * * * //

dimensions      [0 1 -1 0 0 0 0];

internalField   nonuniform List<vector> 
12013
(
(0.099999 3.79018e-07 0)
(0.0999929 9.96823e-07 0)
(0.0999785 2.01575e-06 0)
(0.0999517 3.56866e-06 0)
(0.0999072 5.69258e-06 0)
(0.0998403 8.26548e-06 0)
(0.0997485 1.10307e-05 0)
(0.0996326 1.36802e-05 0)
(0.0994959 1.59515e-05 0)
(0.0993438 1.76936e-05 0)
(0.0991819 1.8886e-05 0)
(0.0990152 1.96115e-05 0)
(0.0988474 2.00076e-05 0)
(0.0986807 2.02205e-05 0)
(0.098516 2.0372e-05 0)
(0.0983534 2.05461e-05 0)
(0.0981925 2.07882e-05 0)
(0.0980327 2.11155e-05 0)
(0.0978733 2.15264e-05 0)
(0.0977137 2.20098e-05 0)
(0.0975536 2.25531e-05 0)
(0.0973927 2.31452e-05 0)
(0.0972307 2.37778e-05 0)
(0.0970676 2.44464e-05 0)
(0.0969031 2.51496e-05 0)
(0.0967373 2.58875e-05 0)
(0.0965699 2.66632e-05 0)
(0.0964009 2.74792e-05 0)
(0.0962302 2.83394e-05 0)
(0.0960575 2.92481e-05 0)
(0.0958828 3.0209e-05 0)
(0.0957059 3.12267e-05 0)
(0.0955266 3.2306e-05 0)
(0.0953448 3.34511e-05 0)
(0.0951601 3.46667e-05 0)
(0.0949725 3.59572e-05 0)
(0.0947817 3.73287e-05 0)
(0.0945874 3.87863e-05 0)
(0.0943895 4.03365e-05 0)
(0.0941878 4.19859e-05 0)
(0.0939818 4.37427e-05 0)
(0.0937715 4.56155e-05 0)
(0.0935564 4.7614e-05 0)
(0.0933362 4.97504e-05 0)
(0.0931107 5.20372e-05 0)
(0.0928793 5.44898e-05 0)
(0.0926418 5.7126e-05 0)
(0.0923975 5.99661e-05 0)
(0.0921461 6.30339e-05 0)
(0.0918869 6.63567e-05 0)
(0.0916193 6.99664e-05 0)
(0.0913426 7.39011e-05 0)
(0.0910559 7.82051e-05 0)
(0.0907582 8.29302e-05 0)
(0.0904486 8.81386e-05 0)
(0.0901257 9.39038e-05 0)
(0.0897881 0.000100314 0)
(0.0894343 0.000107476 0)
(0.0890622 0.000115519 0)
(0.0886697 0.0001246 0)
(0.0882541 0.000134914 0)
(0.0878123 0.000146703 0)
(0.0873406 0.000160269 0)
(0.0868344 0.000176 0)
(0.0862884 0.000194388 0)
(0.0856959 0.000216078 0)
(0.0850486 0.000241918 0)
(0.0843362 0.000273045 0)
(0.0835456 0.000311007 0)
(0.0826598 0.00035795 0)
(0.0816566 0.000416905 0)
(0.0805065 0.00049224 0)
(0.0791692 0.00059038 0)
(0.0775894 0.000720976 0)
(0.0756886 0.000898842 0)
(0.0733548 0.00114719 0)
(0.0704236 0.00150315 0)
(0.0666386 0.00202921 0)
(0.0616071 0.00284983 0)
(0.0548831 0.00431229 0)
(0.0474191 0.00798517 0)
(0.099999 1.15637e-06 0)
(0.099993 3.04963e-06 0)
(0.0999788 6.17068e-06 0)
(0.0999523 1.09296e-05 0)
(0.0999082 1.7441e-05 0)
(0.0998417 2.53322e-05 0)
(0.0997504 3.38176e-05 0)
(0.099635 4.19515e-05 0)
(0.0994988 4.89266e-05 0)
(0.0993472 5.42797e-05 0)
(0.0991856 5.79462e-05 0)
(0.0990192 6.01791e-05 0)
(0.0988516 6.13998e-05 0)
(0.0986851 6.2057e-05 0)
(0.0985206 6.25239e-05 0)
(0.0983582 6.30585e-05 0)
(0.0981974 6.38016e-05 0)
(0.0980377 6.48055e-05 0)
(0.0978784 6.60646e-05 0)
(0.097719 6.7547e-05 0)
(0.0975591 6.92131e-05 0)
(0.0973984 7.10285e-05 0)
(0.0972366 7.29687e-05 0)
(0.0970737 7.50195e-05 0)
(0.0969095 7.7176e-05 0)
(0.0967439 7.94407e-05 0)
(0.0965768 8.182e-05 0)
(0.096408 8.43237e-05 0)
(0.0962375 8.69631e-05 0)
(0.0960651 8.97508e-05 0)
(0.0958907 9.26996e-05 0)
(0.095714 9.58227e-05 0)
(0.095535 9.91339e-05 0)
(0.0953534 0.000102647 0)
(0.095169 0.000106376 0)
(0.0949816 0.000110336 0)
(0.0947911 0.000114542 0)
(0.0945972 0.000119014 0)
(0.0943996 0.000123768 0)
(0.0941982 0.000128827 0)
(0.0939926 0.000134215 0)
(0.0937826 0.000139958 0)
(0.0935679 0.000146086 0)
(0.0933481 0.000152636 0)
(0.093123 0.000159647 0)
(0.0928922 0.000167165 0)
(0.0926551 0.000175245 0)
(0.0924115 0.000183949 0)
(0.0921607 0.000193349 0)
(0.0919022 0.000203529 0)
(0.0916354 0.000214586 0)
(0.0913595 0.000226636 0)
(0.0910737 0.000239814 0)
(0.0907771 0.000254278 0)
(0.0904687 0.000270216 0)
(0.0901472 0.000287852 0)
(0.0898113 0.000307455 0)
(0.0894593 0.000329347 0)
(0.0890894 0.000353919 0)
(0.0886994 0.000381648 0)
(0.0882869 0.00041312 0)
(0.0878487 0.000449066 0)
(0.0873814 0.000490396 0)
(0.0868806 0.000538265 0)
(0.0863413 0.000594153 0)
(0.0857573 0.000659973 0)
(0.0851207 0.000738242 0)
(0.0844223 0.000832308 0)
(0.0836501 0.000946702 0)
(0.082789 0.00108765 0)
(0.0818196 0.00126386 0)
(0.0807171 0.00148772 0)
(0.0794485 0.00177713 0)
(0.0779705 0.00215838 0)
(0.0762256 0.00267057 0)
(0.0741385 0.00337228 0)
(0.0716123 0.00435066 0)
(0.068522 0.0057329 0)
(0.0647333 0.00769952 0)
(0.0603082 0.0104441 0)
(0.0563839 0.013782 0)
(0.0999991 1.96484e-06 0)
(0.0999932 5.21385e-06 0)
(0.0999792 1.05575e-05 0)
(0.0999531 1.87121e-05 0)
(0.0999096 2.98803e-05 0)
(0.099844 4.34285e-05 0)
(0.0997538 5.80115e-05 0)
(0.0996396 7.20063e-05 0)
(0.0995046 8.4022e-05 0)
(0.0993541 9.32586e-05 0)
(0.0991935 9.95988e-05 0)
(0.0990278 0.000103472 0)
(0.0988608 0.000105599 0)
(0.0986947 0.000106749 0)
(0.0985306 0.000107565 0)
(0.0983685 0.000108489 0)
(0.098208 0.000109768 0)
(0.0980486 0.000111491 0)
(0.0978896 0.000113651 0)
(0.0977306 0.000116194 0)
(0.0975711 0.000119053 0)
(0.0974107 0.00012217 0)
(0.0972494 0.000125501 0)
(0.097087 0.000129025 0)
(0.0969232 0.000132731 0)
(0.0967581 0.000136624 0)
(0.0965915 0.000140715 0)
(0.0964232 0.00014502 0)
(0.0962532 0.000149558 0)
(0.0960814 0.000154353 0)
(0.0959074 0.000159424 0)
(0.0957313 0.000164795 0)
(0.0955528 0.000170489 0)
(0.0953717 0.000176529 0)
(0.0951879 0.000182939 0)
(0.0950012 0.000189747 0)
(0.0948112 0.000196978 0)
(0.0946179 0.000204663 0)
(0.094421 0.000212834 0)
(0.0942202 0.000221527 0)
(0.0940153 0.000230782 0)
(0.093806 0.000240647 0)
(0.0935921 0.000251172 0)
(0.0933732 0.000262419 0)
(0.093149 0.000274455 0)
(0.0929191 0.00028736 0)
(0.0926831 0.000301226 0)
(0.0924405 0.000316157 0)
(0.092191 0.000332278 0)
(0.0919338 0.000349731 0)
(0.0916684 0.000368682 0)
(0.0913942 0.000389325 0)
(0.0911102 0.00041189 0)
(0.0908157 0.000436645 0)
(0.0905095 0.000463906 0)
(0.0901906 0.000494053 0)
(0.0898577 0.000527536 0)
(0.0895092 0.000564896 0)
(0.0891433 0.000606788 0)
(0.0887581 0.000654009 0)
(0.0883511 0.000707534 0)
(0.0879196 0.000768571 0)
(0.0874603 0.000838625 0)
(0.0869694 0.000919588 0)
(0.0864422 0.00101387 0)
(0.0858733 0.00112456 0)
(0.0852559 0.0012557 0)
(0.0845822 0.00141257 0)
(0.0838421 0.00160226 0)
(0.0830238 0.00183431 0)
(0.0821126 0.00212182 0)
(0.0810903 0.00248287 0)
(0.0799351 0.00294278 0)
(0.0786211 0.00353705 0)
(0.0771188 0.00431538 0)
(0.0753984 0.00534613 0)
(0.0734374 0.00671882 0)
(0.0712354 0.00853885 0)
(0.0688518 0.0109008 0)
(0.0665211 0.0137764 0)
(0.0648521 0.0165921 0)
(0.0999991 2.80287e-06 0)
(0.0999933 7.48438e-06 0)
(0.0999797 1.51589e-05 0)
(0.0999542 2.68814e-05 0)
(0.0999117 4.29548e-05 0)
(0.0998475 6.24805e-05 0)
(0.099759 8.35304e-05 0)
(0.0996468 0.000103768 0)
(0.0995138 0.000121183 0)
(0.0993651 0.00013461 0)
(0.0992061 0.000143863 0)
(0.0990417 0.000149549 0)
(0.0988757 0.0001527 0)
(0.0987104 0.000154419 0)
(0.0985469 0.000155634 0)
(0.0983852 0.000156988 0)
(0.0982252 0.000158839 0)
(0.0980663 0.000161322 0)
(0.0979079 0.000164432 0)
(0.0977494 0.000168094 0)
(0.0975905 0.000172213 0)
(0.0974308 0.000176706 0)
(0.0972702 0.000181512 0)
(0.0971085 0.000186599 0)
(0.0969455 0.000191952 0)
(0.0967812 0.000197577 0)
(0.0966154 0.00020349 0)
(0.0964479 0.000209715 0)
(0.0962788 0.000216278 0)
(0.0961077 0.000223211 0)
(0.0959347 0.000230544 0)
(0.0957594 0.000238311 0)
(0.0955818 0.000246543 0)
(0.0954016 0.000255276 0)
(0.0952186 0.000264543 0)
(0.0950328 0.000274381 0)
(0.0948438 0.000284831 0)
(0.0946515 0.000295934 0)
(0.0944556 0.000307736 0)
(0.0942558 0.000320291 0)
(0.0940521 0.000333654 0)
(0.093844 0.000347893 0)
(0.0936313 0.000363083 0)
(0.0934137 0.000379308 0)
(0.0931909 0.000396668 0)
(0.0929625 0.000415274 0)
(0.0927281 0.000435258 0)
(0.0924873 0.00045677 0)
(0.0922397 0.000479985 0)
(0.0919846 0.000505105 0)
(0.0917215 0.000532367 0)
(0.0914498 0.000562045 0)
(0.0911687 0.000594463 0)
(0.0908773 0.00063 0)
(0.0905748 0.000669101 0)
(0.09026 0.000712298 0)
(0.0899317 0.000760221 0)
(0.0895885 0.000813625 0)
(0.0892288 0.000873419 0)
(0.0888508 0.000940704 0)
(0.0884524 0.00101682 0)
(0.088031 0.00110343 0)
(0.087584 0.00120256 0)
(0.0871079 0.00131676 0)
(0.0865989 0.00144926 0)
(0.0860525 0.00160411 0)
(0.0854636 0.00178657 0)
(0.0848258 0.00200341 0)
(0.0841323 0.00226348 0)
(0.0833748 0.00257848 0)
(0.0825443 0.00296391 0)
(0.0816309 0.00344047 0)
(0.0806247 0.00403573 0)
(0.0795174 0.0047861 0)
(0.0783051 0.00573853 0)
(0.0769944 0.00695051 0)
(0.075612 0.00848464 0)
(0.0742188 0.0103903 0)
(0.0729304 0.0126594 0)
(0.071938 0.0151241 0)
(0.071471 0.0172449 0)
(0.0999991 3.67543e-06 0)
(0.0999935 9.85441e-06 0)
(0.0999803 1.9951e-05 0)
(0.0999556 3.53871e-05 0)
(0.0999144 5.658e-05 0)
(0.0998521 8.23715e-05 0)
(0.0997662 0.000110237 0)
(0.0996567 0.0001371 0)
(0.0995266 0.000160295 0)
(0.0993806 0.000178256 0)
(0.0992239 0.000190713 0)
(0.0990615 0.000198437 0)
(0.098897 0.000202773 0)
(0.0987328 0.000205172 0)
(0.0985701 0.00020686 0)
(0.0984092 0.000208694 0)
(0.0982499 0.000211158 0)
(0.0980917 0.000214443 0)
(0.097934 0.000218547 0)
(0.0977763 0.000223379 0)
(0.0976183 0.000228819 0)
(0.0974596 0.000234759 0)
(0.0973 0.000241121 0)
(0.0971394 0.000247859 0)
(0.0969775 0.000254957 0)
(0.0968143 0.00026242 0)
(0.0966497 0.000270269 0)
(0.0964834 0.000278534 0)
(0.0963154 0.000287251 0)
(0.0961456 0.000296459 0)
(0.0959737 0.0003062 0)
(0.0957997 0.000316515 0)
(0.0956233 0.000327448 0)
(0.0954444 0.000339043 0)
(0.0952627 0.000351345 0)
(0.0950782 0.000364402 0)
(0.0948906 0.000378267 0)
(0.0946997 0.000392995 0)
(0.0945052 0.000408646 0)
(0.094307 0.000425289 0)
(0.0941048 0.000443 0)
(0.0938984 0.000461864 0)
(0.0936875 0.00048198 0)
(0.0934718 0.000503459 0)
(0.093251 0.000526429 0)
(0.0930248 0.000551039 0)
(0.0927927 0.000577456 0)
(0.0925544 0.000605878 0)
(0.0923095 0.000636531 0)
(0.0920575 0.000669676 0)
(0.0917977 0.00070562 0)
(0.0915296 0.000744717 0)
(0.0912525 0.000787381 0)
(0.0909657 0.000834099 0)
(0.0906682 0.000885442 0)
(0.0903591 0.000942084 0)
(0.0900374 0.00100483 0)
(0.0897017 0.00107462 0)
(0.0893507 0.0011526 0)
(0.0889828 0.00124015 0)
(0.0885963 0.00133893 0)
(0.088189 0.00145097 0)
(0.0877588 0.00157874 0)
(0.0873029 0.00172531 0)
(0.0868186 0.0018945 0)
(0.0863025 0.00209107 0)
(0.0857511 0.00232101 0)
(0.0851606 0.00259194 0)
(0.0845268 0.00291353 0)
(0.0838458 0.00329815 0)
(0.0831142 0.0037616 0)
(0.08233 0.00432399 0)
(0.0814936 0.00501057 0)
(0.0806106 0.00585227 0)
(0.0796946 0.00688508 0)
(0.0787726 0.00814674 0)
(0.0778911 0.00966761 0)
(0.0771224 0.0114508 0)
(0.0765657 0.0134353 0)
(0.0763321 0.015437 0)
(0.0764775 0.0170807 0)
(0.0999991 4.58421e-06 0)
(0.0999937 1.23137e-05 0)
(0.0999809 2.49007e-05 0)
(0.0999572 4.41593e-05 0)
(0.0999178 7.06401e-05 0)
(0.099858 0.00010294 0)
(0.0997753 0.000137941 0)
(0.0996695 0.000171803 0)
(0.0995432 0.000201177 0)
(0.0994007 0.000224063 0)
(0.0992473 0.00024007 0)
(0.0990874 0.000250116 0)
(0.098925 0.000255855 0)
(0.0987623 0.000259087 0)
(0.0986009 0.000261352 0)
(0.098441 0.000263735 0)
(0.0982827 0.000266859 0)
(0.0981254 0.000270981 0)
(0.0979687 0.000276118 0)
(0.0978122 0.000282165 0)
(0.0976553 0.000288979 0)
(0.097498 0.000296429 0)
(0.0973397 0.000304421 0)
(0.0971805 0.000312896 0)
(0.0970202 0.000321835 0)
(0.0968585 0.000331242 0)
(0.0966954 0.000341142 0)
(0.0965307 0.000351571 0)
(0.0963644 0.000362574 0)
(0.0961961 0.000374198 0)
(0.0960259 0.000386495 0)
(0.0958535 0.000399515 0)
(0.0956788 0.000413313 0)
(0.0955015 0.000427942 0)
(0.0953216 0.000443459 0)
(0.0951389 0.000459925 0)
(0.0949531 0.000477402 0)
(0.0947641 0.00049596 0)
(0.0945716 0.000515675 0)
(0.0943754 0.000536629 0)
(0.0941754 0.000558919 0)
(0.0939713 0.000582649 0)
(0.0937627 0.000607941 0)
(0.0935496 0.000634933 0)
(0.0933315 0.000663782 0)
(0.0931081 0.00069467 0)
(0.0928792 0.000727805 0)
(0.0926443 0.000763428 0)
(0.0924031 0.000801814 0)
(0.0921551 0.000843284 0)
(0.0918997 0.000888209 0)
(0.0916365 0.00093702 0)
(0.0913648 0.000990216 0)
(0.091084 0.00104838 0)
(0.0907932 0.00111221 0)
(0.0904918 0.00118249 0)
(0.0901787 0.00126018 0)
(0.089853 0.0013464 0)
(0.0895135 0.00144248 0)
(0.0891588 0.00155002 0)
(0.0887878 0.00167092 0)
(0.0883988 0.0018075 0)
(0.0879901 0.00196253 0)
(0.0875601 0.0021394 0)
(0.0871068 0.00234227 0)
(0.0866285 0.0025762 0)
(0.0861232 0.00284744 0)
(0.0855894 0.00316369 0)
(0.0850261 0.00353444 0)
(0.0844331 0.00397134 0)
(0.0838119 0.0044886 0)
(0.0831665 0.00510331 0)
(0.0825048 0.00583544 0)
(0.0818406 0.00670724 0)
(0.0811961 0.00774131 0)
(0.0806045 0.00895617 0)
(0.0801125 0.0103576 0)
(0.0797798 0.0119237 0)
(0.0796725 0.0135829 0)
(0.0798418 0.0151886 0)
(0.0802793 0.0165085 0)
(0.0999992 5.52862e-06 0)
(0.0999939 1.48494e-05 0)
(0.0999817 2.99685e-05 0)
(0.0999592 5.31116e-05 0)
(0.0999217 8.49909e-05 0)
(0.099865 0.000123985 0)
(0.0997863 0.000166394 0)
(0.099685 0.000207614 0)
(0.0995635 0.000243583 0)
(0.0994256 0.000271827 0)
(0.0992761 0.000291793 0)
(0.0991196 0.000304516 0)
(0.0989598 0.000311939 0)
(0.0987993 0.00031621 0)
(0.0986395 0.00031919 0)
(0.098481 0.000322209 0)
(0.0983239 0.000326048 0)
(0.0981679 0.000331044 0)
(0.0980125 0.000337244 0)
(0.0978574 0.00034454 0)
(0.0977022 0.000352771 0)
(0.0975465 0.000361787 0)
(0.09739 0.000371476 0)
(0.0972326 0.00038177 0)
(0.0970742 0.000392642 0)
(0.0969145 0.000404097 0)
(0.0967533 0.000416162 0)
(0.0965907 0.000428881 0)
(0.0964263 0.000442303 0)
(0.0962602 0.000456485 0)
(0.096092 0.000471488 0)
(0.0959217 0.000487371 0)
(0.0957491 0.000504199 0)
(0.0955741 0.000522035 0)
(0.0953964 0.000540947 0)
(0.095216 0.000561007 0)
(0.0950325 0.00058229 0)
(0.0948459 0.000604878 0)
(0.094656 0.000628862 0)
(0.0944625 0.00065434 0)
(0.0942652 0.000681426 0)
(0.094064 0.000710245 0)
(0.0938585 0.000740942 0)
(0.0936487 0.000773678 0)
(0.0934341 0.000808642 0)
(0.0932145 0.000846046 0)
(0.0929896 0.000886135 0)
(0.0927591 0.000929192 0)
(0.0925226 0.000975539 0)
(0.0922797 0.00102555 0)
(0.09203 0.00107966 0)
(0.091773 0.00113836 0)
(0.0915083 0.00120223 0)
(0.0912351 0.00127194 0)
(0.0909531 0.00134826 0)
(0.0906613 0.00143212 0)
(0.0903593 0.00152457 0)
(0.090046 0.00162687 0)
(0.0897209 0.00174049 0)
(0.0893828 0.00186717 0)
(0.089031 0.00200897 0)
(0.0886643 0.00216835 0)
(0.088282 0.00234822 0)
(0.0878831 0.00255208 0)
(0.0874669 0.00278409 0)
(0.0870328 0.00304925 0)
(0.0865806 0.00335352 0)
(0.086111 0.00370402 0)
(0.0856253 0.00410916 0)
(0.0851265 0.00457883 0)
(0.0846194 0.00512438 0)
(0.0841121 0.00575856 0)
(0.0836161 0.00649496 0)
(0.0831486 0.00734689 0)
(0.082733 0.00832512 0)
(0.0823999 0.00943395 0)
(0.0821871 0.010665 0)
(0.082136 0.0119882 0)
(0.0822841 0.0133417 0)
(0.0826494 0.0146235 0)
(0.0832064 0.0156967 0)
(0.0999992 6.50786e-06 0)
(0.0999941 1.74471e-05 0)
(0.0999825 3.51088e-05 0)
(0.0999613 6.21477e-05 0)
(0.0999263 9.94683e-05 0)
(0.0998731 0.000145271 0)
(0.0997989 0.000195307 0)
(0.0997031 0.000244217 0)
(0.0995872 0.000287205 0)
(0.0994547 0.000321282 0)
(0.0993101 0.000345682 0)
(0.0991577 0.00036151 0)
(0.0990012 0.000370967 0)
(0.0988433 0.000376541 0)
(0.0986856 0.000380416 0)
(0.098529 0.000384183 0)
(0.0983735 0.000388801 0)
(0.0982192 0.000394708 0)
(0.0980655 0.000401995 0)
(0.0979122 0.000410563 0)
(0.0977589 0.000420244 0)
(0.0976053 0.000430871 0)
(0.097451 0.000442316 0)
(0.0972959 0.000454502 0)
(0.0971398 0.000467395 0)
(0.0969825 0.000480999 0)
(0.0968238 0.000495343 0)
(0.0966636 0.000510474 0)
(0.0965018 0.000526448 0)
(0.0963381 0.000543331 0)
(0.0961725 0.000561189 0)
(0.0960048 0.000580092 0)
(0.0958349 0.000600113 0)
(0.0956626 0.000621325 0)
(0.0954877 0.000643807 0)
(0.09531 0.000667641 0)
(0.0951295 0.000692913 0)
(0.0949459 0.000719719 0)
(0.0947591 0.000748163 0)
(0.0945689 0.000778359 0)
(0.0943751 0.000810437 0)
(0.0941775 0.000844541 0)
(0.093976 0.000880837 0)
(0.0937702 0.000919512 0)
(0.0935599 0.000960779 0)
(0.093345 0.00100488 0)
(0.0931252 0.00105209 0)
(0.0929001 0.00110274 0)
(0.0926695 0.00115719 0)
(0.0924331 0.00121585 0)
(0.0921904 0.0012792 0)
(0.0919412 0.00134781 0)
(0.091685 0.00142231 0)
(0.0914214 0.00150343 0)
(0.0911499 0.00159203 0)
(0.0908701 0.00168909 0)
(0.0905815 0.00179575 0)
(0.0902835 0.00191334 0)
(0.0899756 0.0020434 0)
(0.0896574 0.00218774 0)
(0.0893284 0.00234845 0)
(0.0889882 0.00252801 0)
(0.0886366 0.00272927 0)
(0.0882735 0.00295559 0)
(0.0878992 0.00321088 0)
(0.0875144 0.00349968 0)
(0.0871203 0.00382722 0)
(0.086719 0.00419951 0)
(0.086314 0.00462331 0)
(0.0859099 0.0051061 0)
(0.0855138 0.0056559 0)
(0.0851351 0.0062809 0)
(0.0847865 0.00698871 0)
(0.0844844 0.00778521 0)
(0.0842494 0.00867267 0)
(0.0841056 0.00964697 0)
(0.0840798 0.0106939 0)
(0.0841973 0.0117849 0)
(0.0844769 0.0128729 0)
(0.0849208 0.0138921 0)
(0.0855049 0.0147637 0)
(0.0999992 7.52089e-06 0)
(0.0999943 2.00926e-05 0)
(0.0999833 4.02762e-05 0)
(0.0999636 7.11682e-05 0)
(0.0999311 0.000113901 0)
(0.0998819 0.000166548 0)
(0.0998128 0.000224364 0)
(0.099723 0.000281258 0)
(0.0996136 0.000331689 0)
(0.0994874 0.000372108 0)
(0.0993485 0.000401475 0)
(0.099201 0.000420908 0)
(0.0990485 0.000432822 0)
(0.0988938 0.000440022 0)
(0.0987388 0.000445019 0)
(0.0985844 0.000449676 0)
(0.0984311 0.000455151 0)
(0.0982788 0.000462007 0)
(0.0981273 0.000470401 0)
(0.0979762 0.000480258 0)
(0.0978253 0.00049141 0)
(0.0976741 0.000503682 0)
(0.0975225 0.000516934 0)
(0.0973701 0.000531077 0)
(0.0972167 0.000546073 0)
(0.0970623 0.000561922 0)
(0.0969065 0.000578653 0)
(0.0967493 0.000596316 0)
(0.0965904 0.000614972 0)
(0.0964298 0.000634693 0)
(0.0962673 0.000655552 0)
(0.0961027 0.000677627 0)
(0.0959359 0.000700999 0)
(0.0957668 0.000725749 0)
(0.0955953 0.000751966 0)
(0.0954211 0.00077974 0)
(0.0952441 0.00080917 0)
(0.0950642 0.000840363 0)
(0.0948812 0.000873435 0)
(0.094695 0.000908515 0)
(0.0945054 0.000945747 0)
(0.0943122 0.000985295 0)
(0.0941153 0.00102734 0)
(0.0939145 0.00107209 0)
(0.0937096 0.00111979 0)
(0.0935004 0.0011707 0)
(0.0932866 0.00122512 0)
(0.0930682 0.00128341 0)
(0.0928447 0.00134597 0)
(0.0926161 0.00141325 0)
(0.0923819 0.00148577 0)
(0.0921421 0.00156412 0)
(0.0918962 0.00164898 0)
(0.091644 0.00174112 0)
(0.0913852 0.00184145 0)
(0.0911195 0.00195097 0)
(0.0908468 0.00207086 0)
(0.0905667 0.00220245 0)
(0.0902791 0.0023473 0)
(0.0899838 0.00250716 0)
(0.089681 0.00268406 0)
(0.0893708 0.00288032 0)
(0.0890535 0.00309859 0)
(0.0887299 0.00334187 0)
(0.0884011 0.00361356 0)
(0.0880687 0.00391746 0)
(0.0877349 0.00425778 0)
(0.0874031 0.00463909 0)
(0.0870776 0.00506625 0)
(0.0867641 0.00554423 0)
(0.08647 0.00607783 0)
(0.0862048 0.00667124 0)
(0.0859801 0.00732735 0)
(0.0858096 0.00804684 0)
(0.0857094 0.00882691 0)
(0.0856965 0.00965963 0)
(0.0857878 0.0105302 0)
(0.0859976 0.011415 0)
(0.0863335 0.0122813 0)
(0.0867921 0.0130879 0)
(0.0873547 0.0137899 0)
(0.0999992 8.56663e-06 0)
(0.0999945 2.27738e-05 0)
(0.0999842 4.54309e-05 0)
(0.099966 8.0082e-05 0)
(0.0999362 0.000128126 0)
(0.099891 0.000187574 0)
(0.0998275 0.000253251 0)
(0.0997442 0.000318374 0)
(0.0996417 0.000376655 0)
(0.0995225 0.000423943 0)
(0.09939 0.000458859 0)
(0.0992481 0.000482458 0)
(0.0991003 0.000497319 0)
(0.0989496 0.000506531 0)
(0.0987979 0.000512923 0)
(0.0986464 0.000518645 0)
(0.0984957 0.000525076 0)
(0.0983459 0.000532929 0)
(0.098197 0.000542449 0)
(0.0980486 0.000553604 0)
(0.0979004 0.000566241 0)
(0.0977522 0.000580181 0)
(0.0976036 0.00059528 0)
(0.0974544 0.000611438 0)
(0.0973042 0.00062861 0)
(0.0971531 0.000646793 0)
(0.0970007 0.000666013 0)
(0.0968469 0.000686323 0)
(0.0966915 0.000707786 0)
(0.0965344 0.000730477 0)
(0.0963755 0.000754475 0)
(0.0962145 0.000779865 0)
(0.0960515 0.000806733 0)
(0.0958862 0.000835169 0)
(0.0957185 0.000865269 0)
(0.0955484 0.000897132 0)
(0.0953756 0.000930865 0)
(0.0952 0.000966586 0)
(0.0950215 0.00100442 0)
(0.09484 0.00104451 0)
(0.0946554 0.00108702 0)
(0.0944675 0.00113212 0)
(0.0942762 0.00118 0)
(0.0940813 0.0012309 0)
(0.0938826 0.00128507 0)
(0.0936802 0.0013428 0)
(0.0934737 0.00140441 0)
(0.0932631 0.00147028 0)
(0.0930481 0.00154083 0)
(0.0928286 0.00161652 0)
(0.0926045 0.00169791 0)
(0.0923757 0.00178561 0)
(0.0921418 0.00188031 0)
(0.0919029 0.0019828 0)
(0.0916589 0.00209397 0)
(0.0914096 0.00221483 0)
(0.0911551 0.00234652 0)
(0.0908954 0.00249034 0)
(0.0906307 0.00264774 0)
(0.0903612 0.00282036 0)
(0.0900873 0.00301004 0)
(0.0898099 0.00321883 0)
(0.0895296 0.003449 0)
(0.0892479 0.00370305 0)
(0.0889665 0.00398369 0)
(0.0886875 0.00429383 0)
(0.088414 0.0046365 0)
(0.0881496 0.0050148 0)
(0.087899 0.0054317 0)
(0.087668 0.00588992 0)
(0.0874635 0.00639158 0)
(0.0872938 0.00693782 0)
(0.0871683 0.00752835 0)
(0.0870977 0.00816078 0)
(0.087093 0.00882992 0)
(0.0871654 0.00952699 0)
(0.0873247 0.010239 0)
(0.0875779 0.0109482 0)
(0.0879268 0.0116324 0)
(0.0883668 0.0122666 0)
(0.0888843 0.0128251 0)
(0.0999992 9.64512e-06 0)
(0.0999947 2.5482e-05 0)
(0.0999851 5.05425e-05 0)
(0.0999683 8.88171e-05 0)
(0.0999412 0.000142011 0)
(0.0999002 0.000208143 0)
(0.0998422 0.000281687 0)
(0.0997656 0.000355224 0)
(0.0996705 0.000421731 0)
(0.0995586 0.000476415 0)
(0.0994332 0.000517485 0)
(0.0992975 0.000545859 0)
(0.0991552 0.00056421 0)
(0.099009 0.000575873 0)
(0.0988612 0.000583981 0)
(0.0987132 0.000590979 0)
(0.0985657 0.000598489 0)
(0.0984191 0.0006074 0)
(0.0982732 0.000618071 0)
(0.098128 0.000630533 0)
(0.0979831 0.000644663 0)
(0.0978382 0.00066029 0)
(0.0976931 0.000677267 0)
(0.0975474 0.00069549 0)
(0.097401 0.000714904 0)
(0.0972535 0.0007355 0)
(0.097105 0.000757304 0)
(0.096955 0.000780365 0)
(0.0968036 0.000804749 0)
(0.0966505 0.000830531 0)
(0.0964957 0.000857794 0)
(0.0963389 0.000886627 0)
(0.0961801 0.00091712 0)
(0.0960192 0.00094937 0)
(0.0958561 0.000983477 0)
(0.0956905 0.00101955 0)
(0.0955225 0.0010577 0)
(0.095352 0.00109805 0)
(0.0951788 0.00114075 0)
(0.0950028 0.00118593 0)
(0.0948239 0.00123377 0)
(0.0946421 0.00128446 0)
(0.0944573 0.0013382 0)
(0.0942692 0.00139523 0)
(0.094078 0.00145582 0)
(0.0938833 0.00152027 0)
(0.0936853 0.00158892 0)
(0.0934837 0.00166214 0)
(0.0932786 0.00174037 0)
(0.0930697 0.0018241 0)
(0.0928572 0.00191386 0)
(0.0926409 0.00201026 0)
(0.0924209 0.00211399 0)
(0.0921972 0.00222581 0)
(0.0919698 0.00234658 0)
(0.091739 0.00247725 0)
(0.0915048 0.00261889 0)
(0.0912677 0.00277266 0)
(0.0910281 0.00293988 0)
(0.0907865 0.00312197 0)
(0.0905437 0.00332048 0)
(0.0903009 0.00353711 0)
(0.0900592 0.00377365 0)
(0.0898203 0.00403199 0)
(0.0895864 0.00431409 0)
(0.0893599 0.00462192 0)
(0.0891439 0.00495736 0)
(0.0889423 0.00532214 0)
(0.0887595 0.00571764 0)
(0.0886005 0.00614478 0)
(0.0884714 0.0066037 0)
(0.0883787 0.00709358 0)
(0.0883295 0.00761225 0)
(0.0883312 0.00815592 0)
(0.088391 0.00871879 0)
(0.0885155 0.00929282 0)
(0.0887097 0.00986757 0)
(0.0889764 0.0104303 0)
(0.0893149 0.0109666 0)
(0.0897206 0.0114609 0)
(0.090184 0.0118987 0)
(0.0999992 1.07578e-05 0)
(0.0999949 2.82156e-05 0)
(0.0999859 5.55969e-05 0)
(0.0999705 9.73326e-05 0)
(0.0999459 0.000155469 0)
(0.0999089 0.000228107 0)
(0.0998563 0.000309455 0)
(0.0997864 0.000391528 0)
(0.0996986 0.000466586 0)
(0.0995945 0.000529163 0)
(0.0994764 0.00057699 0)
(0.0993475 0.000610765 0)
(0.0992112 0.000633185 0)
(0.0990703 0.000647779 0)
(0.0989272 0.000657967 0)
(0.0987833 0.00066649 0)
(0.0986396 0.000675231 0)
(0.0984966 0.000685283 0)
(0.0983543 0.000697142 0)
(0.0982127 0.000710927 0)
(0.0980715 0.000726558 0)
(0.0979304 0.000743888 0)
(0.0977892 0.00076277 0)
(0.0976475 0.000783097 0)
(0.0975052 0.00080481 0)
(0.0973619 0.000827891 0)
(0.0972175 0.000852362 0)
(0.0970719 0.000878267 0)
(0.0969249 0.000905671 0)
(0.0967763 0.000934649 0)
(0.096626 0.000965284 0)
(0.0964739 0.000997666 0)
(0.09632 0.00103189 0)
(0.096164 0.00106805 0)
(0.0960059 0.00110626 0)
(0.0958457 0.00114663 0)
(0.0956832 0.00118926 0)
(0.0955183 0.00123431 0)
(0.0953511 0.0012819 0)
(0.0951814 0.00133219 0)
(0.0950091 0.00138535 0)
(0.0948343 0.00144158 0)
(0.0946568 0.0015011 0)
(0.0944766 0.00156415 0)
(0.0942937 0.00163098 0)
(0.094108 0.00170192 0)
(0.0939196 0.0017773 0)
(0.0937283 0.00185749 0)
(0.0935343 0.00194293 0)
(0.0933375 0.00203408 0)
(0.093138 0.00213146 0)
(0.0929359 0.00223565 0)
(0.0927313 0.00234731 0)
(0.0925244 0.00246714 0)
(0.0923155 0.00259591 0)
(0.0921048 0.00273449 0)
(0.0918928 0.0028838 0)
(0.09168 0.00304486 0)
(0.091467 0.00321874 0)
(0.0912548 0.00340661 0)
(0.0910444 0.00360968 0)
(0.0908369 0.0038292 0)
(0.090634 0.00406648 0)
(0.0904375 0.00432276 0)
(0.0902495 0.00459927 0)
(0.0900726 0.0048971 0)
(0.0899098 0.00521713 0)
(0.0897645 0.00555996 0)
(0.0896406 0.00592577 0)
(0.0895423 0.00631419 0)
(0.0894742 0.00672413 0)
(0.0894412 0.00715366 0)
(0.0894482 0.00759982 0)
(0.0894999 0.00805845 0)
(0.0896007 0.00852417 0)
(0.0897539 0.00899028 0)
(0.0899618 0.00944888 0)
(0.0902248 0.00989108 0)
(0.0905412 0.0103074 0)
(0.0909069 0.0106886 0)
(0.0913154 0.011026 0)
(0.0999992 1.19074e-05 0)
(0.0999951 3.09796e-05 0)
(0.0999866 6.05987e-05 0)
(0.0999725 0.000105624 0)
(0.0999502 0.000168472 0)
(0.0999168 0.000247397 0)
(0.0998693 0.000336429 0)
(0.0998057 0.000427091 0)
(0.0997252 0.000510958 0)
(0.0996286 0.000581872 0)
(0.0995181 0.000637025 0)
(0.0993964 0.000676815 0)
(0.0992666 0.000703887 0)
(0.0991316 0.000721918 0)
(0.0989937 0.00073458 0)
(0.0988546 0.000744911 0)
(0.0987154 0.000755069 0)
(0.0985766 0.000766371 0)
(0.0984385 0.000779476 0)
(0.098301 0.000794612 0)
(0.0981639 0.000811763 0)
(0.0980271 0.000830811 0)
(0.0978901 0.000851623 0)
(0.0977528 0.00087409 0)
(0.0976149 0.000898149 0)
(0.0974762 0.000923774 0)
(0.0973364 0.00095098 0)
(0.0971955 0.000979806 0)
(0.0970533 0.00101031 0)
(0.0969096 0.00104257 0)
(0.0967644 0.00107666 0)
(0.0966175 0.00111267 0)
(0.0964688 0.00115069 0)
(0.0963183 0.00119084 0)
(0.0961659 0.0012332 0)
(0.0960116 0.00127789 0)
(0.0958552 0.00132503 0)
(0.0956967 0.00137476 0)
(0.0955362 0.00142721 0)
(0.0953735 0.00148255 0)
(0.0952087 0.00154095 0)
(0.0950417 0.00160259 0)
(0.0948725 0.0016677 0)
(0.0947011 0.00173651 0)
(0.0945276 0.0018093 0)
(0.094352 0.00188634 0)
(0.0941742 0.00196798 0)
(0.0939945 0.00205457 0)
(0.0938128 0.00214651 0)
(0.0936294 0.00224425 0)
(0.0934442 0.00234826 0)
(0.0932577 0.00245907 0)
(0.0930699 0.00257726 0)
(0.0928813 0.00270346 0)
(0.0926922 0.00283832 0)
(0.0925031 0.00298257 0)
(0.0923145 0.00313697 0)
(0.0921272 0.00330233 0)
(0.0919419 0.00347946 0)
(0.0917597 0.00366922 0)
(0.0915818 0.00387245 0)
(0.0914094 0.00409 0)
(0.0912443 0.00432262 0)
(0.0910882 0.00457102 0)
(0.0909431 0.00483573 0)
(0.0908116 0.00511713 0)
(0.0906961 0.00541531 0)
(0.0905997 0.00573004 0)
(0.0905252 0.00606069 0)
(0.0904761 0.00640611 0)
(0.0904556 0.00676457 0)
(0.0904671 0.00713369 0)
(0.0905137 0.00751038 0)
(0.0905982 0.00789078 0)
(0.0907228 0.00827032 0)
(0.0908891 0.00864375 0)
(0.0910975 0.0090053 0)
(0.0913474 0.00934886 0)
(0.0916368 0.00966834 0)
(0.0919624 0.00995793 0)
(0.0923193 0.0102126 0)
(0.0999992 1.30973e-05 0)
(0.0999952 3.37851e-05 0)
(0.0999873 6.55697e-05 0)
(0.0999742 0.000113722 0)
(0.0999539 0.000181053 0)
(0.0999237 0.000266026 0)
(0.0998808 0.00036258 0)
(0.099823 0.000461819 0)
(0.0997493 0.000554676 0)
(0.0996601 0.000634293 0)
(0.0995571 0.000697272 0)
(0.0994428 0.000743645 0)
(0.0993199 0.000775936 0)
(0.0991913 0.000797906 0)
(0.0990593 0.000813456 0)
(0.0989256 0.000825907 0)
(0.0987914 0.000837699 0)
(0.0986574 0.00085039 0)
(0.0985239 0.000864826 0)
(0.098391 0.000881362 0)
(0.0982585 0.000900062 0)
(0.0981262 0.000920853 0)
(0.0979939 0.000943619 0)
(0.0978614 0.000968258 0)
(0.0977283 0.000994701 0)
(0.0975944 0.00102292 0)
(0.0974597 0.00105291 0)
(0.0973239 0.00108471 0)
(0.0971869 0.00111837 0)
(0.0970485 0.00115396 0)
(0.0969088 0.00119156 0)
(0.0967675 0.00123124 0)
(0.0966246 0.0012731 0)
(0.0964801 0.00131723 0)
(0.096334 0.00136375 0)
(0.0961861 0.00141275 0)
(0.0960365 0.00146435 0)
(0.0958851 0.00151869 0)
(0.095732 0.0015759 0)
(0.0955771 0.00163613 0)
(0.0954204 0.00169956 0)
(0.0952621 0.00176637 0)
(0.0951021 0.00183677 0)
(0.0949405 0.00191097 0)
(0.0947773 0.00198924 0)
(0.0946127 0.00207185 0)
(0.0944468 0.0021591 0)
(0.0942796 0.00225132 0)
(0.0941114 0.00234887 0)
(0.0939424 0.00245213 0)
(0.0937728 0.00256154 0)
(0.093603 0.00267755 0)
(0.0934332 0.00280062 0)
(0.093264 0.00293129 0)
(0.0930957 0.00307007 0)
(0.092929 0.00321752 0)
(0.0927646 0.00337421 0)
(0.0926032 0.00354071 0)
(0.0924458 0.00371758 0)
(0.0922934 0.00390535 0)
(0.0921472 0.00410452 0)
(0.0920086 0.00431552 0)
(0.0918791 0.00453866 0)
(0.0917604 0.00477414 0)
(0.0916543 0.00502198 0)
(0.0915628 0.005282 0)
(0.0914882 0.00555374 0)
(0.0914325 0.00583644 0)
(0.0913983 0.006129 0)
(0.0913877 0.0064299 0)
(0.091403 0.0067372 0)
(0.0914462 0.00704851 0)
(0.0915193 0.00736097 0)
(0.0916236 0.00767132 0)
(0.0917601 0.0079759 0)
(0.0919291 0.00827076 0)
(0.0921303 0.00855179 0)
(0.0923625 0.00881485 0)
(0.0926238 0.00905598 0)
(0.0929116 0.00927158 0)
(0.0932223 0.00945865 0)
(0.0999992 1.4332e-05 0)
(0.0999954 3.66474e-05 0)
(0.0999878 7.05446e-05 0)
(0.0999756 0.000121688 0)
(0.099957 0.00019329 0)
(0.0999295 0.000284078 0)
(0.0998906 0.000387968 0)
(0.099838 0.000495718 0)
(0.0997705 0.000597663 0)
(0.0996883 0.000686253 0)
(0.0995927 0.00075747 0)
(0.0994857 0.00081092 0)
(0.0993701 0.000848942 0)
(0.0992482 0.000875334 0)
(0.0991226 0.000894185 0)
(0.0989948 0.000909084 0)
(0.0988662 0.000922754 0)
(0.0987375 0.000937006 0)
(0.0986092 0.000952886 0)
(0.0984813 0.000970895 0)
(0.0983538 0.000991192 0)
(0.0982265 0.00101376 0)
(0.0980992 0.00103851 0)