/*--------------------------------*- C++ -*----------------------------------*\
  =========                 |
  \\      /  F ield         | OpenFOAM: The Open Source CFD Toolbox
   \\    /   O peration     | Website:  https://openfoam.org
    \\  /    A nd           | Version:  7
     \\/     M anipulation  |
\*---------------------------------------------------------------------------*/
FoamFile
{
    version     2.0;
    format      ascii;
    class       volScalarField;
    location    "4.6";
    object      p;
}
// * * * * * * * * * * * * * * * * * * * * * * * * * * * * * * * * * * * * * //

dimensions      [0 2 -2 0 0 0 0];

internalField   nonuniform List<scalar> 
2790
(
147.087
146.995
147.262
147.833
148.613
149.57
150.703
152.009
153.486
155.127
156.926
158.877
160.971
163.196
165.536
167.972
170.476
173.015
175.547
178.021
180.379
182.557
184.488
186.108
187.368
188.242
188.678
188.734
188.784
188.997
146.885
146.902
147.195
147.763
148.539
149.493
150.621
151.922
153.391
155.023
156.813
158.754
160.837
163.051
165.38
167.806
170.302
172.835
175.365
177.843
180.212
182.407
184.361
186.01
187.294
188.169
188.565
188.62
188.753
189.037
146.686
146.774
147.085
147.643
148.406
149.347
150.46
151.743
153.19
154.798
156.56
158.47
160.518
162.693
164.981
167.364
169.816
172.306
174.798
177.246
179.595
181.788
183.761
185.45
186.801
187.777
188.37
188.725
189.041
189.34
146.461
146.579
146.903
147.453
148.201
149.126
150.219
151.478
152.897
154.471
156.195
158.06
160.059
162.179
164.407
166.725
169.11
171.533
173.96
176.35
178.658
180.829
182.811
184.551
186.005
187.157
188.025
188.696
189.249
189.768
146.2
146.333
146.665
147.207
147.939
148.843
149.91
151.137
152.519
154.05
155.724
157.534
159.469
161.52
163.672
165.907
168.206
170.541
172.882
175.195
177.44
179.575
181.558
183.348
184.919
186.261
187.391
188.354
189.165
189.912
145.899
146.038
146.372
146.904
147.616
148.494
149.53
150.719
152.056
153.536
155.151
156.894
158.754
160.722
162.783
164.921
167.116
169.346
171.582
173.798
175.96
178.038
180
181.821
183.484
184.985
186.332
187.537
188.557
189.475
145.557
145.696
146.028
146.546
147.236
148.083
149.082
150.228
151.513
152.933
154.48
156.146
157.921
159.794
161.751
163.777
165.853
167.958
170.071
172.167
174.222
176.213
178.121
179.931
181.637
183.238
184.732
186.111
187.275
188.322
145.172
145.309
145.634
146.136
146.799
147.613
148.571
149.666
150.894
152.247
153.717
155.297
156.975
158.741
160.581
162.48
164.421
166.385
168.353
170.305
172.222
174.09
175.897
177.639
179.317
180.936
182.491
183.964
185.213
186.364
144.746
144.879
145.193
145.676
146.31
147.086
147.998
149.038
150.202
151.48
152.867
154.351
155.923
157.571
159.282
161.041
162.83
164.633
166.433
168.211
169.955
171.653
173.301
174.901
176.463
177.998
179.506
180.977
182.248
183.486
144.28
144.407
144.708
145.168
145.771
146.506
147.367
148.348
149.441
150.64
151.935
153.316
154.773
156.293
157.863
159.466
161.088
162.71
164.316
165.89
167.418
168.892
170.31
171.678
173.011
174.329
175.65
176.988
178.188
179.492
143.774
143.896
144.181
144.617
145.185
145.875
146.682
147.599
148.618
149.731
150.928
152.199
153.532
154.915
156.332
157.768
159.206
160.627
162.013
163.348
164.616
165.806
166.913
167.941
168.905
169.833
170.764
171.762
172.725
174.043
143.232
143.347
143.615
144.023
144.554
145.198
145.947
146.796
147.737
148.759
149.853
151.008
152.211
153.448
154.703
155.959
157.198
158.399
159.541
160.603
161.564
162.406
163.115
163.68
164.106
164.416
164.659
164.967
165.349
166.522
142.655
142.762
143.012
143.391
143.883
144.477
145.167
145.945
146.803
147.731
148.717
149.75
150.817
151.901
152.986
154.053
155.08
156.044
156.919
157.678
158.291
158.725
158.947
158.922
158.619
158.021
157.146
156.154
155.206
155.711
142.046
142.144
142.375
142.724
143.175
143.718
144.345
145.05
145.823
146.653
147.528
148.436
149.362
150.288
151.197
152.066
152.871
153.585
154.176
154.608
154.838
154.815
154.476
153.744
152.521
150.692
148.129
144.827
140.88
138.845
141.407
141.497
141.706
142.024
142.433
142.923
143.487
144.116
144.802
145.532
146.294
147.073
147.855
148.62
149.348
150.015
150.592
151.049
151.345
151.435
151.262
150.752
149.806
148.291
146.012
142.68
137.837
130.821
120.361
108.141
1.31231
1.29397
1.22838
1.13689
1.04061
0.949579
0.866818
0.792506
0.725895
0.665897
0.61128
0.560823
0.513427
0.468175
0.42436
0.381521
0.339466
0.298302
0.258404
0.22033
0.184643
0.151717
0.121663
0.0944836
0.0705502
0.0500827
0.0333434
0.0203528
0.0105136
0.00209327
1.26524
1.24382
1.18194
1.0977
1.0092
0.92498
0.84777
0.777862
0.714696
0.65736
0.60478
0.555867
0.50962
0.465189
0.421914
0.379368
0.337399
0.296167
0.25613
0.217943
0.18224
0.149422
0.119606
0.0928049
0.0689698
0.0485824
0.0320405
0.0194553
0.0102886
0.00366904
1.21445
1.18838
1.12866
1.05122
0.970977
0.894399
0.823603
0.758891
0.699864
0.645777
0.595719
0.548743
0.50396
0.460601
0.418063
0.375961
0.334184
0.292954
0.252832
0.214598
0.178995
0.14643
0.116898
0.0902316
0.066416
0.045855
0.0293991
0.017634
0.00980157
0.00409947
1.16707
1.13645
1.07816
1.00648
0.93378
0.864267
0.799502
0.739725
0.68467
0.633742
0.586169
0.54113
0.49784
0.455609
0.413895
0.372353
0.330904
0.289811
0.249704
0.211476
0.175979
0.143663
0.114433
0.08797
0.0642177
0.0436591
0.0272111
0.0155815
0.00842539
0.00317963
1.1367
1.10169
1.04493
0.977469
0.910219
0.845434
0.784614
0.727986
0.675427
0.626459
0.580408
0.53654
0.494145
0.452598
0.411408
0.370269
0.32912
0.288237
0.24827
0.210142
0.174761
0.142638
0.113747
0.0877671
0.0645218
0.0442665
0.0278735
0.0160874
0.00872707
0.0026985
1.13484
1.09447
1.03859
0.972391
0.906991
0.843276
0.783097
0.726835
0.674498
0.625657
0.579666
0.535819
0.493432
0.45191
0.410794
0.369801
0.328883
0.2883
0.248656
0.2108
0.175577
0.143509
0.114632
0.0887309
0.0656972
0.0457412
0.0296313
0.0177782
0.0091988
0.002647
1.17059
1.1228
1.06367
0.993641
0.924158
0.857082
0.793846
0.735047
0.68062
0.630063
0.582675
0.537716
0.494486
0.452381
0.410944
0.369903
0.329214
0.289099
0.250061
0.212787
0.177958
0.146026
0.11711
0.091139
0.068067
0.0479723
0.0311834
0.0182011
0.00858002
0.00223245
1.2482
1.18865
1.11754
1.03596
0.956178
0.88091
0.811313
0.747529
0.689258
0.635789
0.586204
0.539612
0.495214
0.452332
0.410464
0.369355
0.328972
0.289512
0.251377
0.215028
0.180904
0.149325
0.120422
0.0942681
0.0708615
0.050408
0.0330637
0.0187005
0.00768993
0.00182929
1.36415
1.28117
1.1879
1.08646
0.991129
0.905031
0.827997
0.75862
0.695918
0.639219
0.58734
0.539173
0.493769
0.450307
0.408175
0.367137
0.327238
0.288739
0.251985
0.217102
0.184096
0.153
0.123869
0.0970722
0.0732639
0.0526126
0.0346849
0.0189633
0.00675189
0.00146759
1.49466
1.37626
1.25619
1.13491
1.02151
0.921097
0.83432
0.759817
0.69489
0.636918
0.584152
0.53536
0.489597
0.445974
0.403738
0.362633
0.323174
0.286018
0.251318
0.218628
0.187202
0.156598
0.127197
0.0998571
0.0755251
0.0544998
0.0359366
0.0189686
0.00579683
0.00115529
1.59323
1.44853
1.29819
1.15439
1.02842
0.92074
0.829464
0.752232
0.686244
0.628257
0.575711
0.527182
0.48187
0.438819
0.396993
0.356115
0.317135
0.281364
0.249108
0.219247
0.190035
0.160378
0.130612
0.102289
0.0771442
0.055733
0.0367464
0.0188769
0.00502436
0.000920428
1.66108
1.47183
1.29473
1.13298
0.998524
0.889523
0.80032
0.726389
0.664261
0.609901
0.559888
0.512988
0.469198
0.427726
0.386958
0.3464
0.307829
0.273831
0.245092
0.219387
0.193301
0.16473
0.134138
0.10412
0.0776871
0.0559357
0.0369825
0.0187594
0.00452609
0.000793439
1.62648
1.37286
1.18368
1.03135
0.911643
0.818506
0.742969
0.679964
0.627782
0.581861
0.537095
0.49288
0.451479
0.412801
0.373902
0.333407
0.294477
0.262255
0.238432
0.21895
0.197442
0.170173
0.137956
0.105099
0.0766528
0.054705
0.0365673
0.0187451
0.00439681
0.000801953
1.32456
1.02454
0.903638
0.824279
0.753092
0.701121
0.656112
0.612483
0.576543
0.54501
0.50836
0.466798
0.428139
0.394164
0.358754
0.317864
0.276807
0.245711
0.228631
0.218466
0.203604
0.177699
0.142453
0.104929
0.0733446
0.0514826
0.0354411
0.0190631
0.00475672
0.00097263
0.584751
0.242137
0.364189
0.504497
0.521035
0.546417
0.553071
0.528793
0.509705
0.501432
0.477964
0.437091
0.399803
0.372937
0.34359
0.300809
0.253454
0.221289
0.213589
0.218028
0.213115
0.188508
0.148034
0.103115
0.0667092
0.045417
0.0335566
0.020136
0.00576991
0.0013281
140.727
140.808
140.997
141.281
141.646
142.081
142.579
143.131
143.726
144.353
144.998
145.646
146.28
146.879
147.422
147.881
148.225
148.416
148.41
148.15
147.563
146.554
144.99
142.676
139.314
134.407
127.036
115.285
93.1246
33.3332
140
140.072
140.238
140.487
140.806
141.184
141.613
142.084
142.586
143.106
143.631
144.143
144.625
145.054
145.407
145.654
145.761
145.684
145.373
144.764
143.771
142.28
140.135
137.102
132.824
126.717
117.748
104.183
84.6579
56.2026
139.231
139.292
139.435
139.649
139.92
140.239
140.598
140.986
141.392
141.803
142.205
142.58
142.908
143.166
143.329
143.365
143.235
142.896
142.29
141.347
139.977
138.057
135.424
131.848
127.003
120.435
111.552
99.7169
85.4808
68.8587
138.42
138.471
138.59
138.767
138.99
139.249
139.536
139.84
140.149
140.451
140.729
140.966
141.141
141.229
141.205
141.033
140.676
140.085
139.203
137.957
136.256
133.983
130.985
127.067
121.98
115.433
107.129
96.7347
84.1891
69.0531
137.57
137.611
137.706
137.845
138.019
138.217
138.431
138.651
138.863
139.055
139.211
139.311
139.335
139.258
139.051
138.682
138.109
137.286
136.154
134.645
132.67
130.125
126.88
122.78
117.643
111.27
103.461
93.9731
82.6393
69.6665
136.684
136.714
136.784
136.886
137.01
137.147
137.288
137.424
137.54
137.624
137.658
137.625
137.503
137.267
136.887
136.332
135.561
134.529
133.18
131.449
129.26
126.522
123.13
118.963
113.893
107.785
100.516
91.986
82.1872
71.5318
135.763
135.782
135.828
135.892
135.966
136.043
136.113
136.165
136.187
136.164
136.082
135.92
135.657
135.27
134.73
134.004
133.055
131.839
130.307
128.401
126.054
123.193
119.735
115.593
110.681
104.918
98.2521
90.6708
82.2178
73.2291
134.81
134.82
134.84
134.867
134.893
134.91
134.909
134.88
134.81
134.685
134.49
134.205
133.811
133.283
132.595
131.716
130.61
129.24
127.56
125.52
123.067
120.143
116.685
112.636
107.941
102.562
96.4826
89.7252
82.3389
74.596
133.831
133.83
133.827
133.817
133.795
133.753
133.684
133.576
133.417
133.195
132.892
132.493
131.976
131.32
130.499
129.485
128.246
126.748
124.953
122.82
120.306
117.367
113.96
110.048
105.601
100.605
95.0656
89.0175
82.5141
75.7828
132.828
132.817
132.79
132.745
132.676
132.578
132.443
132.259
132.017
131.702
131.299
130.793
130.165
129.393
128.455
127.324
125.975
124.377
122.498
120.306
117.768
114.853
111.532
107.784
103.596
98.9683
93.9198
88.4894
82.7301
76.8267
131.806
131.785
131.736
131.656
131.543
131.391
131.193
130.938
130.616
130.214
129.72
129.117
128.387
127.513
126.474
125.246
123.808
122.134
120.199
117.977
115.446
112.583
109.371
105.801
101.871
97.5911
92.984
88.0894
82.9553
77.7299
130.77
130.74
130.669
130.556
130.401
130.198
129.94
129.618
129.223
128.742
128.163
127.472
126.654
125.691
124.566
123.26
121.753
120.025
118.057
115.83
113.328
110.538
107.451
104.064
100.383
96.4229
92.2088
87.7769
83.1692
78.5048
129.725
129.687
129.595
129.451
129.256
129.005
128.692
128.308
127.845
127.292
126.637
125.869
124.973
123.935
122.739
121.371
119.813
118.051
116.071
113.858
111.403
108.699
105.742
102.536
99.0911
95.4231
91.5568
87.5247
83.3626
79.1666
128.678
128.631
128.52
128.348
128.115
127.819
127.455
127.015
126.49
125.872
125.15
124.314
123.352
122.251
120.999
119.584
117.992
116.213
114.236
112.052
109.656
107.045
104.221
101.19
97.9642
94.56
91.0005
87.314
83.5309
79.7289
127.634
127.579
127.451
127.251
126.984
126.648
126.237
125.745
125.165
124.49
123.71
122.816
121.798
120.647
119.351
117.902
116.29
114.507
112.546
110.401
108.072
105.559
102.866
100.001
96.976
93.8087
90.5192
87.1319
83.6724
80.2038
126.599
126.538
126.393
126.169
125.87
125.497
125.044
124.506
123.878
123.152
122.322
121.379
120.316
119.125
117.798
116.327
114.706
112.93
110.994
108.897
106.639
104.224
101.656
98.9459
96.1052
93.1495
90.0973
86.9694
83.7872
80.6023
125.581
125.513
125.353
125.107
124.78
124.374
123.884
123.306
122.635
121.866
120.993
120.011
118.912
117.69
116.341
114.858
113.238
111.477
109.574
107.529
105.344
103.024
100.576
98.0087
95.3344
92.5672
89.7233
86.8204
83.8766
80.9343
124.586
124.513
124.34
124.073
123.721
123.285
122.762
122.149
121.442
120.637
119.729
118.714
117.588
116.345
114.982
113.495
111.883
110.144
108.279
106.288
104.176
101.947
99.6105
97.1743
94.6498
92.0499
89.3886
86.6812
83.9429
81.2086
123.622
123.543
123.358
123.074
122.7
122.238
121.687
121.044
120.306
119.471
118.535
117.495
116.348
115.09
113.721
112.237
110.639
108.926
107.101
105.165
103.123
100.982
98.7479
96.4307
94.0404
91.5884
89.0871
86.5495
83.9884
81.4329
122.696
122.612
122.417
122.117
121.724
121.24
120.664
119.996
119.232
118.373
117.414
116.355
115.194
113.929
112.559
111.083
109.503
107.819
106.034
104.152
102.178
100.117
97.9781
95.7683
93.4976
91.176
88.8145
86.4242
84.0162
81.6145
121.814
121.727
121.523
121.21
120.8
120.297
119.701
119.011
118.227
117.348
116.372
115.3
114.13
112.861
111.495
110.031
108.471
106.817
105.074
103.244
101.332
99.3466
97.2929
95.1793
93.0145
90.8074
88.5678
86.3052
84.0291
81.7596
120.987
120.896
120.683
120.359
119.935
119.416
118.803
118.096
117.296
116.401
115.413
114.332
113.157
111.889
110.529
109.08
107.542
105.919
104.215
102.433
100.581
98.6628
96.686
94.6579
92.5862
90.4792
88.3453
86.1929
84.0304
81.8743
120.22
120.126
119.907
119.573
119.136
118.604
117.978
117.257
116.443
115.538
114.541
113.454
112.278
111.013
109.663
108.228
106.713
105.12
103.453
101.717
99.9177
98.0606
96.1522
94.1992
92.2089
90.1887
88.146
86.0883
84.0227
81.9634
119.523
119.426
119.201
118.858
118.412
117.869
117.231
116.499
115.676
114.762
113.76
112.67
111.495
110.236
108.896
107.477
105.984
104.419
102.786
101.092
99.3401
97.5369
95.6884
93.8008
91.8809
89.9351
87.9704
85.9933
84.0103
82.0331
118.904
118.805
118.574
118.223
117.768
117.216
116.569
115.83
114.999
114.079
113.073
111.983
110.81
109.558
108.229
106.826
105.353
103.813
102.212
100.554
98.8442
97.0879
95.291
93.4593
91.5992
89.7165
87.8175
85.9081
83.9941
82.0853
118.372
118.27
118.034
117.676
117.214
116.654
116.001
115.255
114.419
113.496
112.488
111.398
110.23
108.984
107.666
106.277
104.823
103.306
101.732
100.106
98.4314
96.7148
94.9614
93.1767
91.3664
89.5362
87.6916
85.8382
83.9813
82.1293
117.937
117.832
117.588
117.222
116.753
116.188
115.529
114.778
113.938
113.013
112.005
110.917
109.752
108.513
107.204
105.829
104.39
102.893
101.342
99.7416
98.0967
96.4126
94.6944
92.9476
91.1773
89.3889
87.5877
85.7786
83.9666
82.1586
117.611
117.5
117.247
116.875
116.401
115.831
115.168
114.413
113.571
112.644
111.637
110.55
109.389
108.156
106.856
105.49
104.065
102.584
101.051
99.4713
97.8497
96.191
94.5004
92.783
91.0439
89.288
87.5204
85.7458
83.969
82.1961
117.409
117.274
117.004
116.626
116.15
115.578
114.912
114.155
113.312
112.386
111.379
110.294
109.137
107.909
106.614
105.256
103.84
102.37
100.85
99.2845
97.6786
96.0371
94.3649
92.6671
90.9484
89.2139
87.4681
85.7157
83.9612
82.2094
117.391
117.192
116.894
116.509
116.03
115.455
114.786
114.028
113.184
112.257
111.251
110.168
109.013
107.789
106.499
105.147
103.737
102.275
100.763
99.2072
97.6116
95.9812
94.3209
92.6354
90.9296
89.2083
87.476
85.7372
83.9963
82.2575
-50.5589
-30.3375
-11.0648
35.8619
28.4849
16.5876
51.3879
39.3325
28.1658
52.7949
42.386
34.3602
57.1262
48.8496
42.1047
61.5086
54.6087
48.7258
64.7752
58.9003
53.857
67.3647
62.3445
58.0395
69.5473
65.2184
61.5125
71.3893
67.6131
64.388
72.9378
69.6093
66.7738
74.2422
71.281
68.7635
75.3431
72.6861
70.4305
76.2725
73.8699
71.8323
77.0571
74.8689
73.0145
77.7186
75.7127
74.0133
78.2752
76.4252
74.8577
78.7422
77.0261
75.5714
79.1325
77.5316
76.1737
79.457
77.9557
76.6809
79.7254
78.31
77.1066
79.9462
78.6047
77.4625
80.1262
78.848
77.7581
80.2732
79.0489
78.0032
80.3899
79.2109
78.2023
80.488
79.3464
78.3678
80.5589
79.4471
78.4932
80.6311
79.542
78.6053
80.6647
79.5919
78.6693
80.7336
79.6749
78.7588
-2.46691
-2.33361
-0.875911
0.245373
0.291654
0.369241
0.430055
0.409234
0.4124
0.46004
0.460998
0.407131
0.36076
0.343502
0.327543
0.28216
0.222295
0.185595
0.192106
0.220744
0.23089
0.206307
0.156387
0.0994705
0.0553091
0.0351425
0.030908
0.0228932
0.00781114
0.00189292
2.84722
-0.166853
1.2535
0.828782
-0.413081
-0.248851
0.323985
0.381177
0.377648
0.472745
0.460883
0.353461
0.287612
0.305052
0.33128
0.280964
0.19117
0.135892
0.157721
0.225027
0.257919
0.231107
0.165361
0.0901009
0.0344254
0.0170686
0.0270892
0.0291331
0.0116868
0.00267142
13.9243
5.52525
2.71716
0.378484
-0.0232574
1.13637
1.34366
0.229512
-0.19567
0.122164
0.476749
0.364888
0.259161
0.311408
0.365738
0.275643
0.117849
0.0219391
0.0760837
0.2334
0.316015
0.278543
0.185028
0.0818621
0.00801791
-0.00663491
0.0251393
0.043623
0.0199827
0.00361796
23.6291
13.7671
7.92053
4.16264
2.36558
1.7183
0.629067
-0.0561912
0.156345
1.31457
1.33295
0.270274
-0.148164
-0.0364687
0.29603
0.335202
0.0934273
-0.0596175
0.0675464
0.295166
0.410731
0.332853
0.192418
0.0481662
-0.0541215
-0.0663898
0.00528434
0.065611
0.0357436
0.00431059
32.776
23.0244
15.7142
10.4195
6.77073
4.28956
2.44709
1.41383
1.08364
1.14488
0.67493
0.111484
-0.0669221
0.498284
1.03707
0.628284
-0.0422871
-0.451604
-0.413535
0.19356
0.549804
0.429523
0.221977
0.0302477
-0.101999
-0.102977
0.0457555
0.142184
0.0770103
0.00428148
40.7353
31.8163
23.9342
17.5055
12.5798
8.93083
6.25475
4.36647
3.09144
2.21294
1.45227
0.847353
0.526448
0.619008
0.623579
0.377621
-0.148917
-0.50921
-0.141427
0.815834
0.978001
0.485484
0.177074
-0.0647512
-0.244287
-0.284485
-0.096527
0.181974
0.142947
0.000464016
47.2286
39.4276
31.6562
24.7696
19.1454
14.6837
11.1602
8.40798
6.31199
4.74022
3.51362
2.52782
1.82007
1.40651
1.09122
0.726628
0.22882
-0.0883996
0.104384
0.549112
0.697032
0.493337
0.220275
-0.0453869
-0.254347
-0.260775
0.137377
0.457365
0.273436
-0.0084427
52.5171
45.7885
38.5339
31.7067
25.8252
20.88
16.7406
13.3182
10.5451
8.32527
6.52617
5.05595
3.90488
3.0537
2.39018
1.77527
1.17758
0.770482
0.703079
0.840203
0.879465
0.673378
0.355079
0.0600012
-0.142389
-0.151536
0.0809967
0.281765
0.315747
-0.0569049
56.8312
51.0158
44.4332
37.9613
32.1446
27.0334
22.564
18.7009
15.4139
12.647
10.3216
8.37421
6.77252
5.48
4.41756
3.49645
2.69757
2.09569
1.75511
1.59936
1.42795
1.11724
0.738276
0.401512
0.171809
0.105612
0.202529
0.307817
0.256249
-0.293512
60.3516
55.2844
49.3825
43.3984
37.8451
32.8001
28.2347
24.1444
20.5303
17.3729
14.6336
12.272
10.2547
8.54638
7.0948
5.84629
4.7795
3.91633
3.27565
2.80398
2.37841
1.91512
1.43894
1.0173
0.699764
0.516794
0.452372
0.391896
0.167548
-0.512276
63.2425
58.783
53.5029
48.0347
42.8383
37.9966
33.497
29.3508
25.5785
22.1851
19.1579
16.4756
14.1158
12.0531
10.2545
8.68569
7.32565
6.17259
5.22326
4.43898
3.74609
3.08691
2.46028
1.90071
1.44024
1.09212
0.83149
0.568079
0.168967
-0.593109
65.6368
61.6727
56.9342
51.9548
47.1394
42.5665
38.2292
34.1443
30.3415
26.8388
23.6396
20.738
18.1234
15.7814
13.6925
11.8352
10.192
8.75335
7.50774
6.42681
5.46439
4.57984
3.76167
3.0232
2.38032
1.83435
1.35786
0.881918
0.311146
-0.524396
67.6337
64.0777
59.8019
55.262
50.8146
46.5301
42.4021
38.4477
34.6985
31.179
27.9014
24.87
22.0835
19.5367
17.2198
15.1206
13.2268
11.5281
10.012
8.65755
7.43447
6.31403
5.28205
4.3393
3.48956
2.72683
2.02537
1.33416
0.588453
-0.33226
69.3086
66.0921
62.2096
58.0559
53.9468
49.9441
46.0406
42.2507
38.6047
35.1288
31.84
28.7481
25.8583
23.1718
20.6861
18.3954
16.2927
14.3699
12.6165
11.0174
9.55221
8.20051
6.94855
5.79063
4.72312
3.73627
2.80787
1.90101
0.973568
-0.0542569
70.719
67.7876
64.2399
60.4222
56.6164
52.8769
49.1946
45.5808
42.0629
38.6666
35.4104
32.3071
29.3658
26.5918
23.9874
21.5519
19.2822
17.1734
15.2181
13.4057
11.7226
10.1539
8.68771
7.31566
6.03045
4.82103
3.6689
2.5476
1.43022
0.268695
71.9101
69.2195
65.9579
62.4315
58.8943
55.3945
51.9211
48.4821
45.1017
41.8037
38.6067
35.5245
32.5681
29.7456
27.0624
24.5211
22.1218
19.8625
17.7388
15.744
13.8688
12.1026
10.4354
8.85851
7.36333
5.93885
4.56974
3.23669
1.92183
0.600453
72.9175
70.4314
67.4147
64.1408
60.8401
57.5555
54.2747
51.0025
47.7596
44.5677
41.4444
38.4035
35.4569
32.614
29.8821
27.2659
24.7681
22.3889
20.1268
17.9776
15.9354
13.9928
12.1417
10.374
8.68105
7.05257
5.47559
3.93516
2.41792
0.915014
73.7698
71.4578
68.6515
65.5966
62.5033
59.4104
56.3043
53.1872
50.0767
46.992
43.9491
40.9615
38.0408
35.1971
32.4386
29.7716
27.2002
24.7268
22.3515
20.0726
17.8866
15.7883
13.7715
11.8289
9.95269
8.13317
6.35902
4.61754
2.89691
1.19776
74.4904
72.3269
69.7015
66.8363
63.9245
61.0012
58.0522
55.0772
52.0909
49.1103
46.1496
43.2214
40.3366
37.5055
34.7366
32.0369
29.4119
26.8649
24.3978
22.0105
19.7013
17.4668
15.3021
13.2012
11.1568
9.16015
7.20064
5.26656
3.34575
1.44363
75.0986
73.0619
70.592
67.8912
65.1377
62.3637
59.5546
56.7082
53.8365
50.9542
48.0742
45.2074
42.3643
39.5546
36.7868
34.0684
31.4051
28.8015
26.2604
23.783
21.3687
19.0156
16.7201
14.4771
12.2799
10.1202
7.98811
5.87184
3.75818
1.65405
75.6104
73.6818
71.3456
68.7868
66.1709
63.5278
60.8423
58.1109
55.3434
52.5524
49.7491
46.9432
44.1443
41.3614
38.6028
35.8757
33.1864
30.5399
27.9395
25.3874
22.8842
20.4287
18.0182
15.6485
13.3135
11.0053
8.71405
6.42779
4.13203
1.83328
76.0397
74.203
71.9814
69.5449
67.0481
64.5187
61.9418
59.3124
56.6383
53.9304
51.1984
48.4509
45.6964
42.9431
40.1987
37.4705
34.7645
32.0859
29.4386
26.8252
24.247
21.7036
19.1929
16.7113
14.2532
11.811
9.37475
6.93217
4.46768
1.98641
76.3975
74.6388
72.5147
70.183
67.7885
65.3575
62.8749
60.3348
57.7433
55.11
52.443
49.7499
47.0381
44.3151
41.588
38.8636
36.1479
33.4459
30.7618
28.0985
25.4577
22.8395
20.2423
17.6629
15.096
12.5342
9.96756
7.38346
4.76549
2.11696
76.6948
75.0015
72.9601
70.7173
68.41
66.063
63.6614
61.1985
58.6792
56.1115
53.5025
50.8588
48.1868
45.4933
42.7847
40.0673
37.3468
34.6282
31.9156
29.2121
26.5195
23.8383
21.1672
18.5034
15.8417
13.1748
10.4928
7.78273
5.02773
2.22876
76.9377
75.2988
73.3264
71.1582
68.924
66.6477
64.3146
61.9174
59.4598
56.9487
54.3903
51.7902
49.1542
46.488
43.7976
41.0888
38.367
35.6368
32.9024
30.1668
27.432
24.6985
21.9653
19.2297
16.4867
13.7292
10.947
8.12711
5.25237
2.32145
77.1381
75.5433
73.6276
71.5207
69.3466
67.1287
64.8523
62.5097
60.1036
57.6402
55.1247
52.562
49.957
47.3152
44.6417
41.942
39.2209
36.483
33.7322
30.9715
28.2028
25.4267
22.6424
19.8472
17.0363
14.2023
11.3353
8.42199
5.44511
2.4002
77.2927
75.7328
73.8619
71.8035
69.6773
67.5058
65.2747
62.9758
60.6111
58.1861
55.7054
53.1733
50.5941
47.9727
45.3138
42.6224
39.9031
37.1601
34.3972
31.6172
28.8221
26.0124
23.1874
20.3444
17.4785
14.5825
11.6463
8.65654
5.59602
2.45799
77.4238
75.8896
74.0527
72.0313
69.9412
67.8047
65.6079
63.3422
61.0092
58.6135
56.1595
53.651
51.0918
48.4863
45.839
43.1545
40.4371
37.6908
34.9191
32.1249
29.31
26.475
23.619
20.7394
17.8313
14.8874
11.8975
8.84793
5.72146
2.50744
77.5045
75.9863
74.1718
72.1754
70.1097
67.9967
65.8228
63.5794
61.2675
58.8916
56.4555
53.9629
51.4173
48.8227
46.1834
43.5037
40.7878
38.0395
35.2622
32.4586
29.6306
26.7786
23.9019
20.9975
18.0608
15.0842
12.0574
8.96631
5.79369
2.52725
77.5932
76.0762
74.274
72.2926
70.2406
68.1402
65.9784
63.7467
61.4458
59.08
56.653
54.1682
51.629
49.0394
46.4034
43.7253
41.0091
38.2586
35.4772
32.6675
29.8314
26.9693
24.0804
21.162
18.2091
15.2141
12.1663
9.05101
5.84812
2.53376
)
;

boundaryField
{
    inlet
    {
        type            zeroGradient;
    }
    outlet
    {
        type            fixedValue;
        value           uniform 0;
    }
    flap
    {
        type            zeroGradient;
    }
    upperWall
    {
        type            zeroGradient;
    }
    lowerWall
    {
        type            zeroGradient;
    }
    frontAndBack
    {
        type            empty;
    }
}


// ************************************************************************* //
