/*--------------------------------*- C++ -*----------------------------------*\
  =========                 |
  \\      /  F ield         | OpenFOAM: The Open Source CFD Toolbox
   \\    /   O peration     | Website:  https://openfoam.org
    \\  /    A nd           | Version:  7
     \\/     M anipulation  |
\*---------------------------------------------------------------------------*/
FoamFile
{
    version     2.0;
    format      ascii;
    class       volVectorField;
    location    "4.6";
    object      U;
}
// * * * * * * * * * * * * * * * * * * * * * * * * * * * * * * * * * * * * * //

dimensions      [0 1 -1 0 0 0 0];

internalField   nonuniform List<vector> 
2790
(
(9.94399 0.0205232 0)
(9.87572 0.0295877 0)
(9.77521 0.0359895 0)
(9.64944 0.0425561 0)
(9.50409 0.0493854 0)
(9.34007 0.0564283 0)
(9.15655 0.0638158 0)
(8.95263 0.0717116 0)
(8.72747 0.0802552 0)
(8.48009 0.0895735 0)
(8.20928 0.0997936 0)
(7.91366 0.111046 0)
(7.5917 0.123461 0)
(7.24179 0.137166 0)
(6.86234 0.152274 0)
(6.45181 0.168872 0)
(6.0089 0.186999 0)
(5.5327 0.206622 0)
(5.02299 0.227593 0)
(4.48047 0.249614 0)
(3.90718 0.27218 0)
(3.30686 0.294529 0)
(2.68532 0.315623 0)
(2.05065 0.334292 0)
(1.41183 0.35061 0)
(0.798067 0.372887 0)
(0.110757 0.325079 0)
(-0.469564 -0.114853 0)
(-0.453772 -0.297164 0)
(-0.231164 -0.423863 0)
(9.9985 0.040703 0)
(9.98145 0.0623827 0)
(9.93574 0.07914 0)
(9.86416 0.0966246 0)
(9.77097 0.115124 0)
(9.65715 0.134488 0)
(9.52206 0.154974 0)
(9.36486 0.176943 0)
(9.18472 0.200707 0)
(8.98068 0.226549 0)
(8.75154 0.254744 0)
(8.4959 0.28556 0)
(8.21222 0.31925 0)
(7.89884 0.356024 0)
(7.55406 0.396021 0)
(7.17622 0.439265 0)
(6.76381 0.485595 0)
(6.31569 0.53459 0)
(5.83128 0.585466 0)
(5.31092 0.636958 0)
(4.75619 0.687209 0)
(4.17045 0.733652 0)
(3.55934 0.772959 0)
(2.9316 0.8011 0)
(2.3 0.813757 0)
(1.693 0.807262 0)
(1.1072 0.747268 0)
(0.658923 0.547949 0)
(0.186499 0.224644 0)
(-0.00820016 -0.453718 0)
(9.99559 0.0432069 0)
(9.97556 0.0752715 0)
(9.9318 0.103346 0)
(9.8649 0.132371 0)
(9.77778 0.163059 0)
(9.67155 0.195398 0)
(9.54588 0.229742 0)
(9.40014 0.266602 0)
(9.23366 0.306469 0)
(9.04564 0.349805 0)
(8.8351 0.39707 0)
(8.60082 0.44872 0)
(8.34146 0.505191 0)
(8.05552 0.566862 0)
(7.7414 0.63401 0)
(7.39746 0.70673 0)
(7.02213 0.784836 0)
(6.61398 0.867723 0)
(6.17197 0.954194 0)
(5.69567 1.04225 0)
(5.18567 1.12888 0)
(4.644 1.20979 0)
(4.07484 1.27916 0)
(3.48542 1.32934 0)
(2.88689 1.3501 0)
(2.29951 1.32644 0)
(1.73189 1.2208 0)
(1.21629 0.973033 0)
(0.701169 0.570179 0)
(0.358056 -0.156512 0)
(9.99403 0.0494991 0)
(9.97181 0.0932061 0)
(9.92788 0.133572 0)
(9.86225 0.174209 0)
(9.77693 0.216433 0)
(9.67298 0.26066 0)
(9.55032 0.307429 0)
(9.40849 0.357414 0)
(9.24703 0.411289 0)
(9.06534 0.469703 0)
(8.86269 0.533299 0)
(8.6382 0.60272 0)
(8.39086 0.678588 0)
(8.11953 0.76147 0)
(7.82302 0.851816 0)
(7.50003 0.949869 0)
(7.14927 1.05554 0)
(6.76947 1.16823 0)
(6.35952 1.2866 0)
(5.91863 1.40826 0)
(5.44657 1.52946 0)
(4.94404 1.64468 0)
(4.41321 1.74614 0)
(3.85832 1.82322 0)
(3.28587 1.86138 0)
(2.70645 1.84034 0)
(2.12569 1.72603 0)
(1.55429 1.4779 0)
(0.95797 1.08374 0)
(0.509432 0.502374 0)
(9.99331 0.0572135 0)
(9.96994 0.110959 0)
(9.92593 0.162104 0)
(9.86146 0.213347 0)
(9.77799 0.266356 0)
(9.67635 0.321913 0)
(9.55654 0.3807 0)
(9.41822 0.443486 0)
(9.26098 0.511054 0)
(9.08434 0.584167 0)
(8.88771 0.663583 0)
(8.67039 0.750058 0)
(8.4316 0.844329 0)
(8.17047 0.947077 0)
(7.88609 1.05887 0)
(7.5775 1.18006 0)
(7.24368 1.31067 0)
(6.88363 1.45017 0)
(6.49631 1.59721 0)
(6.08076 1.74931 0)
(5.63619 1.9024 0)
(5.16216 2.05031 0)
(4.65882 2.18417 0)
(4.12726 2.29174 0)
(3.56945 2.35657 0)
(2.98893 2.35734 0)
(2.38687 2.26499 0)
(1.76642 2.04769 0)
(1.09001 1.69146 0)
(0.53666 1.15421 0)
(9.99302 0.0655385 0)
(9.96923 0.128701 0)
(9.92556 0.190113 0)
(9.86253 0.251843 0)
(9.78129 0.315578 0)
(9.68244 0.382318 0)
(9.56601 0.452873 0)
(9.43171 0.528099 0)
(9.2792 0.608877 0)
(9.10806 0.69608 0)
(8.91778 0.790574 0)
(8.70774 0.893218 0)
(8.47729 1.00485 0)
(8.22568 1.12625 0)
(7.95216 1.25808 0)
(7.6559 1.4008 0)
(7.33605 1.55453 0)
(6.99166 1.71885 0)
(6.62171 1.89254 0)
(6.22504 2.07321 0)
(5.80032 2.25683 0)
(5.34608 2.43719 0)
(4.86075 2.60519 0)
(4.34275 2.74822 0)
(3.79044 2.84956 0)
(3.20262 2.88822 0)
(2.57661 2.83827 0)
(1.9135 2.67167 0)
(1.17277 2.37407 0)
(0.549976 1.89448 0)
(9.99297 0.0740747 0)
(9.96926 0.146314 0)
(9.92637 0.217483 0)
(9.86508 0.289291 0)
(9.78642 0.363354 0)
(9.69085 0.440826 0)
(9.57835 0.522659 0)
(9.44871 0.609808 0)
(9.30165 0.703252 0)
(9.13678 0.80396 0)
(8.95365 0.912894 0)
(8.75171 1.031 0)
(8.53034 1.15921 0)
(8.28888 1.29839 0)
(8.0266 1.44928 0)
(7.7427 1.61246 0)
(7.43631 1.78817 0)
(7.10642 1.97614 0)
(6.75183 2.17539 0)
(6.37104 2.3838 0)
(5.96214 2.59772 0)
(5.52268 2.81137 0)
(5.04957 3.01614 0)
(4.53906 3.19996 0)
(3.98671 3.34669 0)
(3.38796 3.43599 0)
(2.73729 3.44335 0)
(2.03627 3.34156 0)
(1.24177 3.11365 0)
(0.563524 2.69324 0)
(9.99306 0.0825879 0)
(9.96981 0.163606 0)
(9.92807 0.24405 0)
(9.86885 0.325479 0)
(9.79313 0.409445 0)
(9.70126 0.497205 0)
(9.59323 0.589837 0)
(9.46888 0.688393 0)
(9.32796 0.793936 0)
(9.17014 0.907524 0)
(8.99502 1.03021 0)
(8.80211 1.16303 0)
(8.59082 1.307 0)
(8.36051 1.46308 0)
(8.11045 1.63213 0)
(7.83982 1.81485 0)
(7.54762 2.01164 0)
(7.23269 2.22249 0)
(6.89353 2.44671 0)
(6.5282 2.68266 0)
(6.13413 2.92733 0)
(5.70789 3.17575 0)
(5.24502 3.42035 0)
(4.73984 3.65019 0)
(4.18554 3.85024 0)
(3.57481 4.00092 0)
(2.89957 4.07795 0)
(2.16215 4.05245 0)
(1.31614 3.90179 0)
(0.583229 3.54025 0)
(9.99326 0.0909282 0)
(9.97072 0.180408 0)
(9.93046 0.269667 0)
(9.87362 0.360241 0)
(9.80118 0.453646 0)
(9.71344 0.551208 0)
(9.61038 0.65411 0)
(9.49188 0.763493 0)
(9.35776 0.880501 0)
(9.20773 1.00627 0)
(9.04145 1.14195 0)
(8.85848 1.28866 0)
(8.65827 1.44751 0)
(8.44022 1.61957 0)
(8.20358 1.80585 0)
(7.94747 2.00718 0)
(7.67079 2.22422 0)
(7.37218 2.45725 0)
(7.04982 2.70602 0)
(6.7013 2.96954 0)
(6.32338 3.24563 0)
(5.91169 3.53051 0)
(5.46042 3.81805 0)
(4.96207 4.09898 0)
(4.40747 4.35987 0)
(3.78646 4.58213 0)
(3.08762 4.74113 0)
(2.31275 4.80454 0)
(1.41067 4.74119 0)
(0.614319 4.44204 0)
(9.99352 0.0989921 0)
(9.97191 0.196579 0)
(9.9334 0.294195 0)
(9.87924 0.393416 0)
(9.8104 0.495755 0)
(9.72717 0.602587 0)
(9.62953 0.71518 0)
(9.51741 0.834758 0)
(9.39068 0.96254 0)
(9.24913 1.09974 0)
(9.09245 1.24758 0)
(8.92028 1.40728 0)
(8.73213 1.58005 0)
(8.52742 1.76709 0)
(8.30543 1.96953 0)
(8.06526 2.18846 0)
(7.80573 2.42476 0)
(7.52531 2.67913 0)
(7.22193 2.95189 0)
(6.89279 3.24278 0)
(6.53406 3.55075 0)
(6.14052 3.87346 0)
(5.70511 4.20668 0)
(5.21854 4.54337 0)
(4.66906 4.87244 0)
(4.04293 5.17699 0)
(3.32375 5.43236 0)
(2.50981 5.60206 0)
(1.5419 5.64362 0)
(0.664069 5.41818 0)
(9.99384 0.106704 0)
(9.9733 0.212 0)
(9.9368 0.317502 0)
(9.88558 0.424855 0)
(9.82063 0.535588 0)
(9.74225 0.651119 0)
(9.65044 0.772785 0)
(9.54518 0.901882 0)
(9.42637 1.03969 0)
(9.2939 1.18751 0)
(9.14752 1.34662 0)
(8.98694 1.51834 0)
(8.81175 1.70397 0)
(8.62143 1.90485 0)
(8.41531 2.12229 0)
(8.19253 2.35757 0)
(7.95188 2.61193 0)
(7.69179 2.8865 0)
(7.41006 3.18224 0)
(7.10366 3.49982 0)
(6.76838 3.83943 0)
(6.39838 4.2005 0)
(5.98561 4.58115 0)
(5.51914 4.97731 0)
(4.98445 5.38131 0)
(4.36333 5.77958 0)
(3.63196 6.1492 0)
(2.78017 6.45077 0)
(1.73348 6.62865 0)
(0.744847 6.50326 0)
(9.9942 0.114006 0)
(9.97487 0.226575 0)
(9.94056 0.339473 0)
(9.89252 0.454423 0)
(9.83173 0.572982 0)
(9.75851 0.696608 0)
(9.67288 0.826692 0)
(9.57488 0.96459 0)
(9.46448 1.11165 0)
(9.34162 1.26921 0)
(9.20615 1.43864 0)
(9.05786 1.62132 0)
(8.89644 1.81867 0)
(8.72146 2.03214 0)
(8.53237 2.26321 0)
(8.32836 2.51341 0)
(8.10835 2.78431 0)
(7.87081 3.07752 0)
(7.61362 3.39468 0)
(7.33374 3.73744 0)
(7.02694 4.1074 0)
(6.68718 4.50598 0)
(6.30593 4.93407 0)
(5.87114 5.39142 0)
(5.36584 5.87534 0)
(4.76696 6.37826 0)
(4.04078 6.88328 0)
(3.16152 7.35361 0)
(2.02478 7.72337 0)
(0.88075 7.7573 0)
(9.99459 0.120853 0)
(9.97657 0.240224 0)
(9.94461 0.360007 0)
(9.89995 0.482 0)
(9.84356 0.607795 0)
(9.77575 0.738881 0)
(9.69662 0.876695 0)
(9.60623 1.02264 0)
(9.50463 1.17811 0)
(9.39184 1.34451 0)
(9.26781 1.52324 0)
(9.13241 1.71577 0)
(8.98547 1.92359 0)
(8.82668 2.14827 0)
(8.65562 2.39146 0)
(8.47166 2.6549 0)
(8.27392 2.94049 0)
(8.06107 3.2503 0)
(7.83126 3.58663 0)
(7.58179 3.95212 0)
(7.30879 4.34978 0)
(7.00666 4.7831 0)
(6.66723 5.25605 0)
(6.2785 5.7729 0)
(5.8225 6.33766 0)
(5.27253 6.95242 0)
(4.58459 7.61369 0)
(3.71002 8.30104 0)
(2.48823 8.95843 0)
(1.1245 9.2935 0)
(9.99501 0.127211 0)
(9.97838 0.252885 0)
(9.94891 0.379021 0)
(9.90779 0.507487 0)
(9.85598 0.639908 0)
(9.79381 0.777801 0)
(9.72142 0.922637 0)
(9.63893 1.07586 0)
(9.54646 1.23889 0)
(9.44412 1.41316 0)
(9.33194 1.60015 0)
(9.20994 1.80134 0)
(9.07804 2.01832 0)
(8.93613 2.25273 0)
(8.78396 2.50636 0)
(8.62115 2.78114 0)
(8.44707 3.07925 0)
(8.26079 3.40314 0)
(8.06093 3.75572 0)
(7.84543 4.14044 0)
(7.61129 4.56162 0)
(7.35407 5.02464 0)
(7.06714 5.53647 0)
(6.74041 6.10609 0)
(6.35793 6.74521 0)
(5.8941 7.46891 0)
(5.30083 8.29636 0)
(4.50893 9.24809 0)
(3.26889 10.3421 0)
(1.60505 11.3596 0)
(9.99545 0.133051 0)
(9.98026 0.264504 0)
(9.95339 0.396443 0)
(9.91596 0.530789 0)
(9.86888 0.669199 0)
(9.81252 0.813212 0)
(9.74707 0.964321 0)
(9.67271 1.12399 0)
(9.58962 1.29368 0)
(9.49801 1.47483 0)
(9.39801 1.66895 0)
(9.28976 1.87756 0)
(9.17335 2.10227 0)
(9.04884 2.34482 0)
(8.91621 2.60706 0)
(8.77536 2.89108 0)
(8.62604 3.19923 0)
(8.4678 3.53426 0)
(8.29992 3.89949 0)
(8.12125 4.299 0)
(7.93011 4.73802 0)
(7.72392 5.22339 0)
(7.49885 5.76434 0)
(7.24902 6.37368 0)
(6.96492 7.06986 0)
(6.63105 7.88072 0)
(6.21459 8.8517 0)
(5.66611 10.0658 0)
(4.69051 11.7312 0)
(2.68766 14.593 0)
(0.118085 -0.118909 0)
(0.277978 -0.10893 0)
(0.442426 -0.0867241 0)
(0.581618 -0.0658374 0)
(0.691234 -0.0488985 0)
(0.776229 -0.035771 0)
(0.842589 -0.0257922 0)
(0.895049 -0.0183237 0)
(0.937093 -0.0128292 0)
(0.971385 -0.00886865 0)
(1.00005 -0.00608687 0)
(1.02477 -0.00419623 0)
(1.04685 -0.00295541 0)
(1.06724 -0.00215079 0)
(1.08652 -0.00158541 0)
(1.10491 -0.00107746 0)
(1.12226 -0.00047132 0)
(1.13812 0.000338141 0)
(1.15185 0.0013785 0)
(1.1628 0.00259401 0)
(1.17051 0.00388164 0)
(1.17479 0.00513851 0)
(1.17573 0.00626262 0)
(1.17346 0.00720484 0)
(1.16752 0.00815251 0)
(1.15761 0.00899797 0)
(1.14392 0.00949151 0)
(1.12757 0.00931582 0)
(1.11089 0.00822438 0)
(1.09525 0.00545942 0)
(0.100177 -0.275579 0)
(0.255321 -0.260274 0)
(0.407404 -0.213284 0)
(0.538436 -0.167951 0)
(0.645445 -0.131047 0)
(0.7329 -0.102451 0)
(0.805775 -0.0807014 0)
(0.86784 -0.0643594 0)
(0.921782 -0.0522327 0)
(0.969612 -0.0433596 0)
(1.0129 -0.0369754 0)
(1.05289 -0.0324702 0)
(1.09053 -0.0293396 0)
(1.12655 -0.0271439 0)
(1.16144 -0.025481 0)
(1.19552 -0.0239783 0)
(1.22887 -0.0223103 0)
(1.26137 -0.0202446 0)
(1.29275 -0.0177033 0)
(1.32265 -0.0147892 0)
(1.3508 -0.0117257 0)
(1.37713 -0.00871641 0)
(1.40157 -0.00581302 0)
(1.42374 -0.0028946 0)
(1.44338 0.000257157 0)
(1.45999 0.00356578 0)
(1.47242 0.00635893 0)
(1.48143 0.0077553 0)
(1.48902 0.00726884 0)
(1.49837 0.00481763 0)
(0.078837 -0.43406 0)
(0.210782 -0.408992 0)
(0.330018 -0.337027 0)
(0.432007 -0.268369 0)
(0.514536 -0.212844 0)
(0.582171 -0.169905 0)
(0.638973 -0.137192 0)
(0.68776 -0.112443 0)
(0.730458 -0.0938571 0)
(0.76851 -0.0800255 0)
(0.803054 -0.0698413 0)
(0.834997 -0.0624281 0)
(0.865045 -0.0570682 0)
(0.893745 -0.0531451 0)
(0.921505 -0.0501045 0)
(0.948602 -0.0474344 0)
(0.975179 -0.0446771 0)
(1.00122 -0.0414866 0)
(1.02656 -0.0377206 0)
(1.0509 -0.0335062 0)
(1.07398 -0.029177 0)
(1.09577 -0.025027 0)
(1.1166 -0.0210144 0)
(1.13691 -0.0167738 0)
(1.15697 -0.0120359 0)
(1.17641 -0.006874 0)
(1.19536 -0.00217299 0)
(1.21193 0.000644647 0)
(1.22416 0.000491855 0)
(1.23363 -0.00129551 0)
(0.0582573 -0.557577 0)
(0.160716 -0.516715 0)
(0.240163 -0.421846 0)
(0.308025 -0.334782 0)
(0.360462 -0.265753 0)
(0.402865 -0.212968 0)
(0.438134 -0.172985 0)
(0.468061 -0.142711 0)
(0.49374 -0.119875 0)
(0.516036 -0.102764 0)
(0.535664 -0.0900563 0)
(0.553197 -0.0807048 0)
(0.569098 -0.0738568 0)
(0.583746 -0.0687888 0)
(0.597458 -0.0648618 0)
(0.610518 -0.0614853 0)
(0.62316 -0.0581125 0)
(0.635534 -0.0542954 0)
(0.647609 -0.0497981 0)
(0.659131 -0.0447175 0)
(0.669647 -0.0394809 0)
(0.678901 -0.0346089 0)
(0.68715 -0.0303562 0)
(0.695112 -0.0264903 0)
(0.703366 -0.0224857 0)
(0.711869 -0.0178842 0)
(0.720045 -0.0127125 0)
(0.726195 -0.0076936 0)
(0.728177 -0.0042186 0)
(0.722169 -0.00220738 0)
(0.0369318 -0.648112 0)
(0.104434 -0.586151 0)
(0.138961 -0.471044 0)
(0.170365 -0.370927 0)
(0.189178 -0.293062 0)
(0.202884 -0.234368 0)
(0.212572 -0.190116 0)
(0.219251 -0.15645 0)
(0.223316 -0.130878 0)
(0.225235 -0.111562 0)
(0.225417 -0.0970799 0)
(0.224173 -0.0863123 0)
(0.221768 -0.07835 0)
(0.218457 -0.0724334 0)
(0.214504 -0.0679031 0)
(0.210215 -0.0641467 0)
(0.205926 -0.0605675 0)
(0.201987 -0.0566143 0)
(0.198547 -0.0518893 0)
(0.19548 -0.0463153 0)
(0.191975 -0.0402233 0)
(0.187213 -0.034169 0)
(0.180034 -0.0285291 0)
(0.170631 -0.0232783 0)
(0.159677 -0.0180842 0)
(0.147736 -0.0127166 0)
(0.138575 -0.00697953 0)
(0.128841 -0.00133723 0)
(0.121284 0.00301155 0)
(0.109689 0.000284138 0)
(0.0140535 -0.70015 0)
(0.0415091 -0.612905 0)
(0.028423 -0.480573 0)
(0.0217977 -0.37225 0)
(0.00441609 -0.288767 0)
(-0.0136318 -0.226993 0)
(-0.0331404 -0.181185 0)
(-0.0534227 -0.146442 0)
(-0.074319 -0.120212 0)
(-0.0954448 -0.10054 0)
(-0.116534 -0.0858966 0)
(-0.13742 -0.0751075 0)
(-0.157943 -0.0672323 0)
(-0.177948 -0.0614921 0)
(-0.197289 -0.057234 0)
(-0.215773 -0.053883 0)
(-0.233136 -0.0508758 0)
(-0.249061 -0.047653 0)
(-0.263289 -0.0437292 0)
(-0.275765 -0.038875 0)
(-0.286751 -0.0332727 0)
(-0.296833 -0.0274482 0)
(-0.306837 -0.021932 0)
(-0.31738 -0.0169505 0)
(-0.328587 -0.0123279 0)
(-0.340205 -0.00765706 0)
(-0.35207 -0.00264111 0)
(-0.361698 0.00174231 0)
(-0.368713 0.00413737 0)
(-0.377058 0.00302198 0)
(-0.012237 -0.706941 0)
(-0.0298456 -0.591055 0)
(-0.0898086 -0.44787 0)
(-0.137248 -0.337316 0)
(-0.19082 -0.255003 0)
(-0.242254 -0.195107 0)
(-0.291496 -0.150821 0)
(-0.337785 -0.117915 0)
(-0.380824 -0.093663 0)
(-0.420452 -0.0760401 0)
(-0.456681 -0.063416 0)
(-0.48971 -0.0545536 0)
(-0.519823 -0.0484918 0)
(-0.54733 -0.0444616 0)
(-0.572507 -0.0418476 0)
(-0.595532 -0.040128 0)
(-0.616456 -0.0387653 0)
(-0.635251 -0.0371914 0)
(-0.651912 -0.0348284 0)
(-0.666622 -0.0312794 0)
(-0.679813 -0.0265364 0)
(-0.692116 -0.0210008 0)
(-0.704194 -0.0152515 0)
(-0.716528 -0.00976482 0)
(-0.729247 -0.00472379 0)
(-0.742251 -0.000201808 0)
(-0.752927 0.00374235 0)
(-0.761512 0.00662466 0)
(-0.769337 0.00719632 0)
(-0.774641 0.00538455 0)
(-0.0448414 -0.661852 0)
(-0.109752 -0.52329 0)
(-0.2149 -0.379124 0)
(-0.302704 -0.270669 0)
(-0.390601 -0.192334 0)
(-0.471836 -0.137928 0)
(-0.54503 -0.100128 0)
(-0.60971 -0.0734743 0)
(-0.666412 -0.0548108 0)
(-0.716128 -0.0421641 0)
(-0.759805 -0.0338972 0)
(-0.798385 -0.0287866 0)
(-0.832697 -0.0259132 0)
(-0.863457 -0.0245704 0)
(-0.89125 -0.0242385 0)
(-0.916464 -0.0245315 0)
(-0.939281 -0.025022 0)
(-0.959753 -0.0252155 0)
(-0.977948 -0.0244887 0)
(-0.994157 -0.0223131 0)
(-1.00894 -0.0185553 0)
(-1.02299 -0.0135869 0)
(-1.0369 -0.0081144 0)
(-1.05096 -0.00292449 0)
(-1.06441 0.00150945 0)
(-1.07569 0.00524007 0)
(-1.08593 0.00848913 0)
(-1.09531 0.0108949 0)
(-1.10338 0.0112486 0)
(-1.1079 0.00979606 0)
(-0.0850661 -0.560091 0)
(-0.200669 -0.406885 0)
(-0.356038 -0.271009 0)
(-0.482638 -0.174595 0)
(-0.598726 -0.107456 0)
(-0.702195 -0.0625852 0)
(-0.79308 -0.0341925 0)
(-0.871341 -0.0172824 0)
(-0.935495 -0.00808392 0)
(-0.988888 -0.00324757 0)
(-1.03398 -0.00112439 0)
(-1.07281 -0.000802897 0)
(-1.10689 -0.00168103 0)
(-1.1374 -0.00329425 0)
(-1.16523 -0.0053296 0)
(-1.19093 -0.00763124 0)
(-1.21479 -0.0100566 0)
(-1.23623 -0.0121202 0)
(-1.25523 -0.013035 0)
(-1.27214 -0.0120817 0)
(-1.2877 -0.00905878 0)
(-1.30272 -0.00450939 0)
(-1.31778 0.000500607 0)
(-1.33157 0.00497975 0)
(-1.34402 0.00848958 0)
(-1.35556 0.0112385 0)
(-1.36599 0.0135224 0)
(-1.37551 0.0150352 0)
(-1.38353 0.0149866 0)
(-1.38765 0.0137783 0)
(-0.140402 -0.396528 0)
(-0.31979 -0.240823 0)
(-0.543346 -0.120719 0)
(-0.724458 -0.0372845 0)
(-0.867628 0.00756718 0)
(-0.979458 0.0296206 0)
(-1.0668 0.0384551 0)
(-1.136 0.0397308 0)
(-1.19388 0.0376388 0)
(-1.24275 0.0341474 0)
(-1.28478 0.0301384 0)
(-1.32145 0.0258706 0)
(-1.35384 0.0214593 0)
(-1.38279 0.0170936 0)
(-1.40903 0.0128977 0)
(-1.43308 0.00878327 0)
(-1.45492 0.00462256 0)
(-1.47482 0.000823027 0)
(-1.49272 -0.00173956 0)
(-1.50887 -0.00214594 0)
(-1.52382 -8.27827e-05 0)
(-1.53806 0.00384002 0)
(-1.55168 0.00836589 0)
(-1.56542 0.0123708 0)
(-1.57859 0.0153068 0)
(-1.59052 0.0172698 0)
(-1.6011 0.0186593 0)
(-1.61069 0.0194453 0)
(-1.61867 0.0191512 0)
(-1.62255 0.0181699 0)
(-0.224723 -0.179961 0)
(-0.475287 0.0178595 0)
(-0.723263 0.0942175 0)
(-0.904561 0.116355 0)
(-1.04895 0.119786 0)
(-1.16358 0.113855 0)
(-1.25517 0.103697 0)
(-1.32904 0.0920475 0)
(-1.38932 0.0803139 0)
(-1.4394 0.0695013 0)
(-1.48212 0.0600061 0)
(-1.51937 0.0515109 0)
(-1.55228 0.0436774 0)
(-1.58166 0.0365522 0)
(-1.60837 0.0302195 0)
(-1.63298 0.0243789 0)
(-1.65542 0.0186117 0)
(-1.6751 0.0130258 0)
(-1.69168 0.00865196 0)
(-1.70572 0.0068229 0)
(-1.71861 0.00810999 0)
(-1.73173 0.0118248 0)
(-1.74574 0.0164058 0)
(-1.76025 0.0202331 0)
(-1.77418 0.022481 0)
(-1.78655 0.0233853 0)
(-1.79723 0.0237033 0)
(-1.80678 0.0237791 0)
(-1.81465 0.0233529 0)
(-1.81835 0.0226318 0)
(-0.292658 0.235937 0)
(-0.569106 0.301398 0)
(-0.848834 0.299848 0)
(-1.05426 0.274182 0)
(-1.21201 0.2409 0)
(-1.33238 0.206719 0)
(-1.42546 0.175471 0)
(-1.49885 0.148212 0)
(-1.55767 0.124892 0)
(-1.60593 0.105793 0)
(-1.64709 0.0906236 0)
(-1.68336 0.0779967 0)
(-1.7156 0.0667074 0)
(-1.74437 0.0566601 0)
(-1.77063 0.0480894 0)
(-1.79522 0.0404692 0)
(-1.81792 0.0327858 0)
(-1.83761 0.0248631 0)
(-1.85349 0.0181305 0)
(-1.86624 0.0147043 0)
(-1.87787 0.0155642 0)
(-1.89044 0.0196924 0)
(-1.90481 0.0247923 0)
(-1.92027 0.0286259 0)
(-1.93517 0.0301035 0)
(-1.94805 0.029686 0)
(-1.95873 0.0287084 0)
(-1.96804 0.0280383 0)
(-1.97567 0.0275384 0)
(-1.97919 0.0270694 0)
(-0.344766 0.634051 0)
(-0.686054 0.637416 0)
(-1.01085 0.542001 0)
(-1.22847 0.446247 0)
(-1.38541 0.365776 0)
(-1.50022 0.297948 0)
(-1.5864 0.243779 0)
(-1.65347 0.201103 0)
(-1.70666 0.166512 0)
(-1.74979 0.139425 0)
(-1.78701 0.119334 0)
(-1.82095 0.103375 0)
(-1.85175 0.0888927 0)
(-1.87915 0.0758674 0)
(-1.90425 0.065241 0)
(-1.92845 0.0563427 0)
(-1.95148 0.0470951 0)
(-1.97125 0.0366215 0)
(-1.98603 0.0269277 0)
(-1.99661 0.0215107 0)
(-2.0061 0.022147 0)
(-2.01763 0.0273133 0)
(-2.03236 0.033552 0)
(-2.04911 0.037685 0)
(-2.06535 0.0382771 0)
(-2.07886 0.0361588 0)
(-2.08935 0.0335603 0)
(-2.09812 0.0320996 0)
(-2.10531 0.0316317 0)
(-2.10862 0.0314347 0)
(-0.457195 1.14112 0)
(-0.888337 1.03843 0)
(-1.24443 0.802393 0)
(-1.44337 0.610108 0)
(-1.57701 0.479477 0)
(-1.67215 0.376099 0)
(-1.7408 0.300855 0)
(-1.7949 0.247035 0)
(-1.83847 0.203129 0)
(-1.8731 0.168063 0)
(-1.90384 0.144053 0)
(-1.93439 0.126476 0)
(-1.96339 0.109627 0)
(-1.98867 0.0937438 0)
(-2.01151 0.0815365 0)
(-2.03478 0.0724335 0)
(-2.05839 0.0623531 0)
(-2.07862 0.0489608 0)
(-2.09194 0.0351512 0)
(-2.09918 0.026924 0)
(-2.10528 0.0275972 0)
(-2.11519 0.0347223 0)
(-2.13047 0.0429459 0)
(-2.14912 0.047743 0)
(-2.16726 0.0472396 0)
(-2.18158 0.0428216 0)
(-2.19156 0.0380725 0)
(-2.19928 0.035748 0)
(-2.20577 0.0355191 0)
(-2.20885 0.0356524 0)
(-0.681053 2.11046 0)
(-1.21429 1.69052 0)
(-1.59067 1.0939 0)
(-1.71575 0.701437 0)
(-1.78793 0.556095 0)
(-1.84733 0.437329 0)
(-1.88469 0.349911 0)
(-1.91977 0.289891 0)
(-1.95301 0.23418 0)
(-1.9767 0.187197 0)
(-1.99731 0.162322 0)
(-2.02332 0.148907 0)
(-2.05097 0.131812 0)
(-2.07363 0.11194 0)
(-2.09282 0.0969449 0)
(-2.11459 0.088038 0)
(-2.13978 0.0774517 0)
(-2.16172 0.0601123 0)
(-2.17345 0.0402108 0)
(-2.17559 0.0280412 0)
(-2.17636 0.0297262 0)
(-2.18385 0.0408468 0)
(-2.20007 0.0526959 0)
(-2.22156 0.0589039 0)
(-2.24247 0.0571436 0)
(-2.25781 0.0496109 0)
(-2.26673 0.0419059 0)
(-2.27264 0.0386359 0)
(-2.27807 0.0390927 0)
(-2.28092 0.0397138 0)
(9.9959 0.138446 0)
(9.98225 0.275239 0)
(9.9581 0.412526 0)
(9.92453 0.552274 0)
(9.88242 0.696161 0)
(9.83215 0.84574 0)
(9.77398 1.00252 0)
(9.70814 1.16797 0)
(9.63491 1.34355 0)
(9.55456 1.53074 0)
(9.46738 1.73102 0)
(9.37361 1.94594 0)
(9.27353 2.17713 0)
(9.1674 2.42633 0)
(9.05545 2.69546 0)
(8.93793 2.98664 0)
(8.815 3.30234 0)
(8.68682 3.64544 0)
(8.55346 4.01946 0)
(8.41491 4.42877 0)
(8.2711 4.87902 0)
(8.12192 5.37767 0)
(7.96733 5.93488 0)
(7.80758 6.56503 0)
(7.6439 7.28917 0)
(7.48126 8.13991 0)
(7.33295 9.17122 0)
(7.28909 10.4767 0)
(7.74788 12.2011 0)
(7.93087 14.9201 0)
(9.99638 0.143406 0)
(9.98434 0.285094 0)
(9.96305 0.427254 0)
(9.93351 0.571884 0)
(9.89656 0.720677 0)
(9.85261 0.875189 0)
(9.80196 1.03693 0)
(9.74491 1.20737 0)
(9.68182 1.38797 0)
(9.61307 1.58019 0)
(9.53904 1.78551 0)
(9.46015 2.00544 0)
(9.37684 2.24162 0)
(9.28959 2.49575 0)
(9.19892 2.76974 0)
(9.1054 3.06568 0)
(9.0097 3.38601 0)
(8.91255 3.73358 0)
(8.81488 4.11184 0)
(8.71786 4.52505 0)
(8.62311 4.97862 0)
(8.53298 5.47959 0)
(8.45121 6.03728 0)
(8.38404 6.66427 0)
(8.34267 7.37778 0)
(8.34918 8.20123 0)
(8.44242 9.16474 0)
(8.67834 10.3016 0)
(9.32577 11.5564 0)
(9.81657 12.6443 0)
(9.99688 0.147843 0)
(9.98651 0.293906 0)
(9.96819 0.440405 0)
(9.94282 0.589355 0)
(9.9112 0.742451 0)
(9.87376 0.901245 0)
(9.83084 1.06723 0)
(9.78281 1.24187 0)
(9.73011 1.4266 0)
(9.6732 1.62283 0)
(9.61259 1.83202 0)
(9.54884 2.05565 0)
(9.48257 2.29528 0)
(9.41447 2.55255 0)
(9.34534 2.82928 0)
(9.2761 3.12746 0)
(9.20786 3.44936 0)
(9.14194 3.79763 0)
(9.08005 4.17536 0)
(9.02439 4.58634 0)
(8.97797 5.03516 0)
(8.9451 5.52748 0)
(8.93204 6.0703 0)
(8.94833 6.672 0)
(9.00847 7.34202 0)
(9.13459 8.08899 0)
(9.35772 8.91477 0)
(9.68733 9.80822 0)
(10.2532 10.7179 0)
(10.941 11.4336 0)
(9.9974 0.151705 0)
(9.98873 0.301568 0)
(9.97346 0.451813 0)
(9.95238 0.604455 0)
(9.92622 0.761183 0)
(9.89543 0.923531 0)
(9.8604 1.09297 0)
(9.82155 1.27093 0)
(9.77939 1.4588 0)
(9.73448 1.65796 0)
(9.68743 1.86979 0)
(9.63893 2.09571 0)
(9.58977 2.33716 0)
(9.54084 2.5957 0)
(9.4932 2.87296 0)
(9.44808 3.17077 0)
(9.40696 3.49111 0)
(9.37167 3.83626 0)
(9.34452 4.20879 0)
(9.32846 4.61167 0)
(9.32744 5.04831 0)
(9.34675 5.52254 0)
(9.39364 6.03849 0)
(9.47803 6.60012 0)
(9.6131 7.21019 0)
(9.8157 7.86837 0)
(10.1086 8.56755 0)
(10.5004 9.29304 0)
(11.058 10.0347 0)
(11.8513 10.6793 0)
(9.99792 0.154945 0)
(9.99101 0.307988 0)
(9.97884 0.461341 0)
(9.96211 0.617008 0)
(9.94149 0.776655 0)
(9.91744 0.941788 0)
(9.89037 1.11384 0)
(9.86079 1.2942 0)
(9.82924 1.4842 0)
(9.79636 1.68514 0)
(9.76287 1.89833 0)
(9.72957 2.12507 0)
(9.69738 2.3667 0)
(9.66739 2.62458 0)
(9.64085 2.90018 0)
(9.61923 3.19502 0)
(9.60433 3.51076 0)
(9.59831 3.84918 0)
(9.60387 4.21219 0)
(9.6244 4.60183 0)
(9.66422 5.02022 0)
(9.72885 5.46936 0)
(9.82537 5.95086 0)
(9.96274 6.46541 0)
(10.152 7.01193 0)
(10.4063 7.58654 0)
(10.7428 8.18111 0)
(11.1732 8.78094 0)
(11.7205 9.37445 0)
(12.4736 9.88673 0)
(9.99845 0.157519 0)
(9.9933 0.313079 0)
(9.98427 0.468863 0)
(9.97193 0.626847 0)
(9.95688 0.788662 0)
(9.93959 0.955775 0)
(9.92052 1.12957 0)
(9.90018 1.31137 0)
(9.8792 1.50245 0)
(9.85827 1.70401 0)
(9.83818 1.91726 0)
(9.81984 2.14337 0)
(9.80428 2.38352 0)
(9.79272 2.63888 0)
(9.78654 2.91067 0)
(9.78741 3.20011 0)
(9.7973 3.50843 0)
(9.81857 3.83689 0)
(9.85408 4.1867 0)
(9.90733 4.55899 0)
(9.98259 4.95466 0)
(10.0851 5.37418 0)
(10.2212 5.81728 0)
(10.3984 6.2825 0)
(10.6255 6.76659 0)
(10.9123 7.26376 0)
(11.2699 7.7648 0)
(11.7063 8.25413 0)
(12.2224 8.71506 0)
(12.8981 9.10606 0)
(9.99898 0.159389 0)
(9.9956 0.316766 0)
(9.9897 0.474267 0)
(9.98175 0.633824 0)
(9.97227 0.797025 0)
(9.96171 0.965283 0)
(9.95056 1.13992 0)
(9.93938 1.32219 0)
(9.92882 1.51327 0)
(9.91962 1.71429 0)
(9.91263 1.9263 0)
(9.90883 2.15034 0)
(9.90933 2.38741 0)
(9.91542 2.63848 0)
(9.92858 2.90447 0)
(9.95057 3.18627 0)
(9.98341 3.4847 0)
(10.0295 3.80049 0)
(10.0917 4.13418 0)
(10.1733 4.48609 0)
(10.2784 4.8561 0)
(10.4114 5.24352 0)
(10.5777 5.64676 0)
(10.7833 6.06302 0)
(11.0345 6.48781 0)
(11.3377 6.91443 0)
(11.6991 7.33353 0)
(12.1228 7.73169 0)
(12.6027 8.09434 0)
(13.208 8.40096 0)
(9.99951 0.16052 0)
(9.99788 0.318981 0)
(9.9951 0.477455 0)
(9.9915 0.637814 0)
(9.98751 0.801592 0)
(9.98359 0.970139 0)
(9.98024 1.14471 0)
(9.97802 1.32646 0)
(9.97762 1.51648 0)
(9.97981 1.71578 0)
(9.98548 1.92529 0)
(9.99563 2.14588 0)
(10.0114 2.37836 0)
(10.0342 2.62347 0)
(10.0654 2.88186 0)
(10.1068 3.15409 0)
(10.1605 3.44056 0)
(10.2286 3.74152 0)
(10.314 4.05695 0)
(10.4196 4.38647 0)
(10.5488 4.72922 0)
(10.7055 5.08367 0)
(10.8937 5.44743 0)
(11.1179 5.81699 0)
(11.3823 6.18744 0)
(11.6907 6.55221 0)
(12.0458 6.90304 0)
(12.4494 7.22959 0)
(12.8936 7.52074 0)
(13.4365 7.76515 0)
(10 0.160886 0)
(10.0001 0.31967 0)
(10.0004 0.478346 0)
(10.0011 0.638717 0)
(10.0025 0.802246 0)
(10.005 0.970213 0)
(10.0093 1.14379 0)
(10.0158 1.32404 0)
(10.0252 1.51196 0)
(10.0383 1.70841 0)
(10.056 1.9142 0)
(10.0794 2.13004 0)
(10.1095 2.35654 0)
(10.1477 2.5942 0)
(10.1955 2.84343 0)
(10.2545 3.10445 0)
(10.3266 3.37733 0)
(10.4139 3.66188 0)
(10.5189 3.95762 0)
(10.644 4.26367 0)
(10.7922 4.57864 0)
(10.9664 4.9005 0)
(11.1695 5.22648 0)
(11.4047 5.55284 0)
(11.6744 5.87485 0)
(11.9805 6.18666 0)
(12.3238 6.48138 0)
(12.7041 6.7512 0)
(13.1138 6.98776 0)
(13.6014 7.18421 0)
(10.0005 0.160463 0)
(10.0023 0.31879 0)
(10.0056 0.476882 0)
(10.0104 0.636458 0)
(10.017 0.798905 0)
(10.0259 0.965421 0)
(10.0374 1.13709 0)
(10.0522 1.31488 0)
(10.071 1.49967 0)
(10.0945 1.6922 0)
(10.1236 1.89314 0)
(10.1593 2.10302 0)
(10.2026 2.32228 0)
(10.255 2.55121 0)
(10.3176 2.78995 0)
(10.3922 3.03849 0)
(10.4804 3.29656 0)
(10.584 3.56365 0)
(10.705 3.83894 0)
(10.8457 4.1212 0)
(11.0081 4.40872 0)
(11.1945 4.69927 0)
(11.4069 4.98995 0)
(11.6471 5.27718 0)
(11.9164 5.55669 0)
(12.2154 5.82348 0)
(12.5438 6.07202 0)
(12.9 6.29642 0)
(13.2772 6.49064 0)
(13.717 6.65051 0)
(10.001 0.159238 0)
(10.0044 0.316313 0)
(10.0106 0.473023 0)
(10.0194 0.630991 0)
(10.0311 0.791521 0)
(10.0459 0.955724 0)
(10.0644 1.12459 0)
(10.0871 1.29898 0)
(10.1147 1.47967 0)
(10.1479 1.66727 0)
(10.1876 1.8623 0)
(10.2346 2.06515 0)
(10.29 2.27608 0)
(10.3551 2.49518 0)
(10.4309 2.72241 0)
(10.519 2.95749 0)
(10.6208 3.19994 0)
(10.7378 3.44901 0)
(10.8717 3.70362 0)
(11.0241 3.96237 0)
(11.1967 4.22341 0)
(11.3909 4.48446 0)
(11.608 4.74274 0)
(11.8489 4.99501 0)
(12.114 5.23753 0)
(12.403 5.46623 0)
(12.7148 5.67676 0)
(13.0475 5.86477 0)
(13.395 6.02602 0)
(13.7937 6.15801 0)
(10.0015 0.157203 0)
(10.0065 0.312224 0)
(10.0154 0.466749 0)
(10.028 0.6223 0)
(10.0444 0.780087 0)
(10.065 0.941131 0)
(10.0901 1.10632 0)
(10.1202 1.27643 0)
(10.156 1.4521 0)
(10.1982 1.63383 0)
(10.2475 1.82201 0)
(10.3048 2.01689 0)
(10.371 2.21856 0)
(10.4473 2.42697 0)
(10.5346 2.64188 0)
(10.6341 2.86286 0)
(10.7472 3.08924 0)
(10.875 3.32011 0)
(11.0187 3.55428 0)
(11.1797 3.79024 0)
(11.359 4.02616 0)
(11.5574 4.25984 0)
(11.7757 4.48875 0)
(12.0141 4.71004 0)
(12.2724 4.9206 0)
(12.5497 5.11714 0)
(12.8446 5.29635 0)
(13.1551 5.45508 0)
(13.4759 5.59039 0)
(13.8393 5.70079 0)
(10.0019 0.154355 0)
(10.0084 0.306523 0)
(10.0199 0.458066 0)
(10.0361 0.610397 0)
(10.0571 0.764631 0)
(10.083 0.921697 0)
(10.1142 1.08239 0)
(10.1512 1.24736 0)
(10.1946 1.41716 0)
(10.2449 1.59218 0)
(10.303 1.77268 0)
(10.3695 1.95878 0)
(10.4452 2.15045 0)
(10.5311 2.3475 0)
(10.6281 2.54955 0)
(10.7372 2.75604 0)
(10.8593 2.96621 0)
(10.9954 3.17905 0)
(11.1465 3.39333 0)
(11.3132 3.60754 0)
(11.4963 3.81993 0)
(11.6962 4.0285 0)
(11.913 4.23101 0)
(12.1466 4.42503 0)
(12.3965 4.60802 0)
(12.6614 4.77742 0)
(12.9398 4.93073 0)
(13.2297 5.06568 0)
(13.5266 5.18029 0)
(13.8596 5.27371 0)
(10.0024 0.150703 0)
(10.0102 0.299222 0)
(10.0241 0.446995 0)
(10.0438 0.595322 0)
(10.0689 0.745219 0)
(10.0997 0.897519 0)
(10.1366 1.05292 0)
(10.1799 1.21199 0)
(10.2302 1.37515 0)
(10.2879 1.54271 0)
(10.3537 1.71481 0)
(10.4282 1.89147 0)
(10.5122 2.07255 0)
(10.6063 2.25775 0)
(10.7114 2.44662 0)
(10.8282 2.6385 0)
(10.9573 2.83256 0)
(11.0996 3.0278 0)
(11.2556 3.22296 0)
(11.4257 3.41665 0)
(11.6103 3.60723 0)
(11.8094 3.79293 0)
(12.0229 3.97183 0)
(12.2503 4.14192 0)
(12.4908 4.30117 0)
(12.7431 4.44758 0)
(13.0056 4.57933 0)
(13.2766 4.6948 0)
(13.5523 4.79266 0)
(13.8589 4.87249 0)
(10.0027 0.146257 0)
(10.0119 0.290348 0)
(10.0281 0.433582 0)
(10.0508 0.577142 0)
(10.0798 0.721947 0)
(10.1152 0.868736 0)
(10.1572 1.01811 0)
(10.2062 1.17055 0)
(10.2626 1.32639 0)
(10.3269 1.48583 0)
(10.3995 1.64894 0)
(10.481 1.81563 0)
(10.5719 1.98569 0)
(10.6729 2.15875 0)
(10.7845 2.33429 0)
(10.9072 2.51162 0)
(11.0416 2.6899 0)
(11.1881 2.86812 0)
(11.3471 3.04512 0)
(11.5187 3.21959 0)
(11.7029 3.3901 0)
(11.8997 3.55509 0)
(12.1085 3.71296 0)
(12.3287 3.86207 0)
(12.5593 4.00081 0)
(12.7993 4.12769 0)
(13.0469 4.24136 0)
(13.3007 4.34069 0)
(13.5574 4.42482 0)
(13.841 4.49359 0)
(10.0031 0.141037 0)
(10.0134 0.279939 0)
(10.0317 0.417886 0)
(10.0573 0.555947 0)
(10.0898 0.694941 0)
(10.1293 0.83552 0)
(10.1759 0.978197 0)
(10.23 1.12336 0)
(10.2918 1.27126 0)
(10.3618 1.42203 0)
(10.4403 1.57565 0)
(10.5276 1.73198 0)
(10.6243 1.89073 0)
(10.7308 2.0515 0)
(10.8475 2.21373 0)
(10.9747 2.37673 0)
(11.1128 2.53968 0)
(11.262 2.70162 0)
(11.4223 2.86148 0)
(11.5938 3.0181 0)
(11.7763 3.17021 0)
(11.9694 3.3165 0)
(12.1726 3.45565 0)
(12.3851 3.58635 0)
(12.6059 3.70735 0)
(12.8339 3.81753 0)
(13.0677 3.91591 0)
(13.3058 4.00173 0)
(13.5455 4.07445 0)
(13.8091 4.13406 0)
(10.0034 0.135065 0)
(10.0148 0.268043 0)