/*--------------------------------*- C++ -*----------------------------------*\
  =========                 |
  \\      /  F ield         | OpenFOAM: The Open Source CFD Toolbox
   \\    /   O peration     | Website:  https://openfoam.org
    \\  /    A nd           | Version:  7
     \\/     M anipulation  |
\*---------------------------------------------------------------------------*/
FoamFile
{
    version     2.0;
    format      ascii;
    class       surfaceVectorField;
    location    "4.6";
    object      Uf;
}
// * * * * * * * * * * * * * * * * * * * * * * * * * * * * * * * * * * * * * //

dimensions      [0 1 -1 0 0 0 0];

internalField   nonuniform List<vector> 
5457
(
(9.92088 0.0251096 0)
(9.97125 0.0387458 0)
(9.82401 0.0328268 0)
(9.92859 0.0485851 0)
(9.70961 0.039312 0)
(9.85548 0.0587681 0)
(9.57544 0.0460116 0)
(9.7568 0.0705933 0)
(9.42138 0.0529489 0)
(9.63753 0.0830134 0)
(9.24755 0.0601662 0)
(9.49861 0.0959365 0)
(9.05362 0.0678109 0)
(9.3393 0.109613 0)
(8.83893 0.0760344 0)
(9.15874 0.124289 0)
(8.60252 0.08497 0)
(8.9561 0.140167 0)
(8.34327 0.0947446 0)
(8.73038 0.157433 0)
(8.05985 0.105487 0)
(8.48041 0.17627 0)
(7.75081 0.117327 0)
(8.20478 0.196856 0)
(7.41457 0.130395 0)
(7.90196 0.219361 0)
(7.04951 0.14481 0)
(7.57032 0.243923 0)
(6.65405 0.160672 0)
(7.2082 0.270632 0)
(6.22674 0.178044 0)
(6.81401 0.2995 0)
(5.76645 0.196928 0)
(6.38635 0.330414 0)
(5.2726 0.217233 0)
(5.9242 0.363084 0)
(4.74541 0.238735 0)
(5.42714 0.396976 0)
(4.18624 0.261032 0)
(4.89569 0.431237 0)
(3.59802 0.283488 0)
(4.33169 0.464619 0)
(2.98561 0.305202 0)
(3.73866 0.495425 0)
(2.35617 0.325069 0)
(3.12233 0.521513 0)
(1.71916 0.342548 0)
(2.49113 0.540559 0)
(1.0844 0.361882 0)
(1.85591 0.551675 0)
(0.451887 0.348697 0)
(1.24553 0.563022 0)
(-0.145808 0.102485 0)
(0.608978 0.544898 0)
(-0.423611 -0.207098 0)
(0.0946796 0.25939 0)
(-0.402154 -0.361271 0)
(-0.133637 -0.0205193 0)
(-0.119682 -0.393885 0)
(9.99641 0.0516724 0)
(9.99705 0.0405046 0)
(9.95879 0.0708615 0)
(9.97851 0.0674544 0)
(9.89824 0.0879867 0)
(9.93377 0.0898699 0)
(9.81659 0.105985 0)
(9.86453 0.113555 0)
(9.71359 0.124921 0)
(9.77438 0.138515 0)
(9.58909 0.144854 0)
(9.66435 0.164646 0)
(9.44274 0.16609 0)
(9.53397 0.192332 0)
(9.27391 0.188967 0)
(9.3825 0.22203 0)
(9.08167 0.213783 0)
(9.20919 0.254148 0)
(8.8649 0.240815 0)
(9.01316 0.289063 0)
(8.6223 0.270336 0)
(8.79332 0.327152 0)
(8.35239 0.302606 0)
(8.54836 0.368785 0)
(8.05357 0.337856 0)
(8.27684 0.414315 0)
(7.72413 0.376262 0)
(7.97718 0.464045 0)
(7.36238 0.417902 0)
(7.64773 0.518188 0)
(6.96674 0.462707 0)
(7.28684 0.576805 0)
(6.53585 0.510386 0)
(6.89297 0.639724 0)
(6.06886 0.560332 0)
(6.46484 0.706426 0)
(5.56563 0.61152 0)
(6.00163 0.775908 0)
(5.02714 0.662384 0)
(5.5033 0.846522 0)
(4.45592 0.710708 0)
(4.97093 0.915805 0)
(3.85654 0.75354 0)
(4.40723 0.980306 0)
(3.23625 0.787197 0)
(3.81709 1.03546 0)
(2.60587 0.807504 0)
(3.20851 1.07549 0)
(1.98285 0.810471 0)
(2.59344 1.09315 0)
(1.40533 0.776907 0)
(1.99625 1.07709 0)
(0.929795 0.646417 0)
(1.41954 0.978427 0)
(0.439899 0.384364 0)
(0.937605 0.716815 0)
(0.0591946 -0.118591 0)
(0.443834 0.343551 0)
(0.174928 -0.335907 0)
(9.98903 0.0594308 0)
(9.99481 0.0458774 0)
(9.95434 0.0894764 0)
(9.97368 0.0848541 0)
(9.89729 0.118032 0)
(9.92984 0.119174 0)
(9.82046 0.147898 0)
(9.86357 0.153976 0)
(9.72416 0.179422 0)
(9.77736 0.190408 0)
(9.60821 0.212775 0)
(9.67227 0.228637 0)
(9.47234 0.248392 0)
(9.5481 0.269129 0)
(9.31608 0.286773 0)
(9.40432 0.312496 0)
(9.13869 0.328396 0)
(9.24034 0.359325 0)
(8.93925 0.37372 0)
(9.05549 0.410173 0)
(8.71665 0.423204 0)
(8.84889 0.465596 0)
(8.4696 0.477293 0)
(8.61951 0.52615 0)
(8.19668 0.536395 0)
(8.36616 0.592368 0)
(7.89633 0.600837 0)
(8.08752 0.664732 0)
(7.56693 0.670804 0)
(7.78221 0.743611 0)
(7.20685 0.746249 0)
(7.44875 0.829182 0)
(6.81459 0.826775 0)
(7.0857 0.92131 0)
(6.3889 0.911475 0)
(6.69173 1.0194 0)
(5.92907 0.99875 0)
(6.26575 1.12216 0)
(5.43518 1.08609 0)
(5.80715 1.22741 0)
(4.90859 1.16982 0)
(5.31612 1.33174 0)
(4.35248 1.24489 0)
(4.79402 1.43019 0)
(3.77264 1.30455 0)
(4.24403 1.51588 0)
(3.17878 1.33984 0)
(3.67187 1.57943 0)
(2.58668 1.33813 0)
(3.08638 1.60775 0)
(2.01991 1.27299 0)
(2.50298 1.58159 0)
(1.48699 1.09543 0)
(1.92879 1.46427 0)
(0.95833 0.769199 0)
(1.38529 1.21043 0)
(0.479899 0.202491 0)
(0.829569 0.801077 0)
(0.433744 0.134124 0)
(9.98515 0.0716138 0)
(9.99367 0.0531478 0)
(9.95039 0.11363 0)
(9.97087 0.102291 0)
(9.89437 0.154133 0)
(9.92691 0.147953 0)
(9.81882 0.195573 0)
(9.86185 0.193721 0)
(9.72442 0.238811 0)
(9.77746 0.241277 0)
(9.61112 0.284324 0)
(9.67467 0.291163 0)
(9.47874 0.33272 0)
(9.55343 0.343955 0)
(9.32695 0.384673 0)
(9.41336 0.400371 0)
(9.15523 0.440845 0)
(9.254 0.461138 0)
(8.96291 0.501881 0)
(9.07484 0.526959 0)
(8.74917 0.568424 0)
(8.8752 0.598533 0)
(8.51304 0.641108 0)
(8.6543 0.676558 0)
(8.25347 0.720525 0)
(8.41123 0.761715 0)
(7.96926 0.807183 0)
(8.145 0.854629 0)
(7.65919 0.901428 0)
(7.85455 0.95581 0)
(7.32194 1.00334 0)
(7.53876 1.06556 0)
(6.95623 1.11256 0)
(7.19648 1.18383 0)
(6.56087 1.22812 0)
(6.82655 1.31007 0)
(6.13492 1.34816 0)
(6.42792 1.4429 0)
(5.67788 1.46959 0)
(5.9997 1.57989 0)
(5.19004 1.58776 0)
(5.54138 1.71707 0)
(4.67291 1.69602 0)
(5.0531 1.84853 0)
(4.12985 1.78514 0)
(4.53601 1.96583 0)
(3.56671 1.84253 0)
(3.99279 2.0573 0)
(2.99211 1.85073 0)
(3.42766 2.10715 0)
(2.4159 1.78251 0)
(2.84769 2.0945 0)
(1.84059 1.60049 0)
(2.25628 1.98876 0)
(1.25942 1.27847 0)
(1.66036 1.75308 0)
(0.66679 0.789584 0)
(1.02399 1.36781 0)
(0.523046 0.787205 0)
(9.98337 0.0844072 0)
(9.99316 0.0612912 0)
(9.94821 0.136837 0)
(9.96958 0.119927 0)
(9.89314 0.188032 0)
(9.92575 0.17624 0)
(9.81906 0.240168 0)
(9.86199 0.232697 0)
(9.72663 0.294466 0)
(9.77964 0.291086 0)
(9.6159 0.351658 0)
(9.6794 0.352273 0)
(9.48671 0.412469 0)
(9.56128 0.416976 0)
(9.33879 0.477674 0)
(9.42497 0.486006 0)
(9.17171 0.548047 0)
(9.27009 0.560201 0)
(8.98493 0.62435 0)
(9.0962 0.640382 0)
(8.77778 0.707338 0)
(8.90274 0.727362 0)
(8.54954 0.797757 0)
(8.68907 0.821949 0)
(8.29935 0.896317 0)
(8.45444 0.924932 0)
(8.02635 1.00364 0)
(8.19808 1.03704 0)
(7.72958 1.12019 0)
(7.91912 1.1589 0)
(7.40806 1.24615 0)
(7.6167 1.29091 0)
(7.06078 1.38126 0)
(7.28987 1.43313 0)
(6.68671 1.52457 0)
(6.93765 1.58509 0)
(6.28488 1.67417 0)
(6.55901 1.74548 0)
(5.85442 1.82677 0)
(6.1529 1.91186 0)
(5.39475 1.97724 0)
(5.71825 2.08015 0)
(4.9058 2.11804 0)
(5.25412 2.24407 0)
(4.3883 2.2386 0)
(4.75978 2.39459 0)
(3.844 2.32455 0)
(4.235 2.51919 0)
(3.27549 2.35696 0)
(3.67995 2.60124 0)
(2.68545 2.31062 0)
(3.09578 2.61972 0)
(2.07273 2.15504 0)
(2.48174 2.54735 0)
(1.42941 1.86745 0)
(1.83996 2.35377 0)
(0.742629 1.41963 0)
(1.13139 2.02458 0)
(0.543318 1.51456 0)
(9.98264 0.0974973 0)
(9.99299 0.0697926 0)
(9.94744 0.159774 0)
(9.96925 0.137583 0)
(9.89354 0.221347 0)
(9.92597 0.203926 0)
(9.82134 0.284091 0)
(9.86381 0.270687 0)
(9.73134 0.349346 0)
(9.78386 0.339581 0)
(9.62367 0.418017 0)
(9.68665 0.411696 0)
(9.49819 0.490936 0)
(9.57218 0.487901 0)
(9.35465 0.568971 0)
(9.44021 0.569101 0)
(9.19269 0.653 0)
(9.29043 0.65623 0)
(9.01183 0.743892 0)
(9.12242 0.750209 0)
(8.81151 0.842509 0)
(8.93571 0.85195 0)
(8.59108 0.9497 0)
(8.72972 0.962358 0)
(8.34985 1.06627 0)
(8.50381 1.08231 0)
(8.08706 1.19295 0)
(8.25728 1.21263 0)
(7.80193 1.33029 0)
(7.98938 1.35403 0)
(7.49361 1.47858 0)
(7.6993 1.50701 0)
(7.1612 1.63767 0)
(7.38618 1.67175 0)
(6.80374 1.80673 0)
(7.04904 1.8479 0)
(6.42013 1.98395 0)
(6.68677 2.03434 0)
(6.00916 2.16612 0)
(6.29804 2.22881 0)
(5.56944 2.34809 0)
(5.88123 2.42746 0)
(5.09951 2.52219 0)
(5.43438 2.62424 0)
(4.59779 2.67756 0)
(4.95516 2.81028 0)
(4.06275 2.7995 0)
(4.4409 2.97322 0)
(3.49276 2.86912 0)
(3.88858 3.09663 0)
(2.88588 2.86295 0)
(3.29529 3.15992 0)
(2.23806 2.75397 0)
(2.65695 3.13795 0)
(1.54247 2.52109 0)
(1.97489 3.00325 0)
(0.793666 2.13141 0)
(1.20727 2.74067 0)
(0.55675 2.29191 0)
(9.9825 0.110626 0)
(9.99302 0.0783611 0)
(9.9477 0.182324 0)
(9.96954 0.155037 0)
(9.89522 0.253816 0)
(9.92722 0.230885 0)
(9.82524 0.326765 0)
(9.86697 0.307508 0)
(9.73813 0.402553 0)
(9.78978 0.386521 0)
(9.63403 0.482231 0)
(9.69605 0.469146 0)
(9.51285 0.566754 0)
(9.58579 0.556395 0)
(9.37438 0.657088 0)
(9.4588 0.649267 0)
(9.21828 0.754208 0)
(9.3148 0.748782 0)
(9.04414 0.859078 0)
(9.15346 0.855956 0)
(8.85145 0.972654 0)
(8.97434 0.971793 0)
(8.63962 1.09587 0)
(8.77691 1.09729 0)
(8.40802 1.22963 0)
(8.56058 1.23341 0)
(8.15595 1.37474 0)
(8.3247 1.38106 0)
(7.88265 1.53185 0)
(8.06853 1.54106 0)
(7.58728 1.70137 0)
(7.79126 1.71403 0)
(7.26891 1.88328 0)
(7.49197 1.90029 0)
(6.92644 2.07695 0)
(7.16955 2.09968 0)
(6.55853 2.28084 0)
(6.82268 2.31137 0)
(6.1635 2.49204 0)
(6.44962 2.53347 0)
(5.73917 2.70582 0)
(6.04813 2.76263 0)
(5.28278 2.91498 0)
(5.61529 2.99345 0)
(4.79089 3.10915 0)
(5.1473 3.21784 0)
(4.25936 3.2742 0)
(4.63945 3.42427 0)
(3.68345 3.39187 0)
(4.08612 3.59716 0)
(3.05811 3.43972 0)
(3.48138 3.71656 0)
(2.37779 3.39185 0)
(2.81843 3.75817 0)
(1.63795 3.22624 0)
(2.09921 3.69405 0)
(0.839152 2.90093 0)
(1.27896 3.50457 0)
(0.573377 3.11381 0)
(9.98273 0.123581 0)
(9.99316 0.0868171 0)
(9.94873 0.204308 0)
(9.97027 0.172092 0)
(9.89794 0.285251 0)
(9.92926 0.256974 0)
(9.83051 0.367964 0)
(9.87123 0.342986 0)
(9.74671 0.45385 0)
(9.79715 0.431676 0)
(9.64668 0.544074 0)
(9.70735 0.524349 0)
(9.53038 0.639704 0)
(9.6018 0.622132 0)
(9.39762 0.741795 0)
(9.48038 0.726122 0)
(9.24813 0.851409 0)
(9.34286 0.837419 0)
(9.08153 0.969599 0)
(9.18894 0.957125 0)
(8.89736 1.09741 0)
(9.01824 1.08633 0)
(8.6951 1.23587 0)
(8.83029 1.22613 0)
(8.47413 1.38597 0)
(8.62454 1.37757 0)
(8.23376 1.54861 0)
(8.40036 1.54167 0)
(7.97323 1.72458 0)
(8.15702 1.71936 0)
(7.69162 1.91442 0)
(7.89364 1.91141 0)
(7.38787 2.11833 0)
(7.60921 2.11834 0)
(7.06064 2.33594 0)
(7.30243 2.34026 0)
(6.70823 2.5661 0)
(6.97167 2.57673 0)
(6.3284 2.80646 0)
(6.61475 2.8264 0)
(5.91814 3.05302 0)
(6.22876 3.08667 0)
(5.47351 3.29951 0)
(5.80979 3.35315 0)
(4.98937 3.53664 0)
(5.35272 3.61896 0)
(4.45941 3.75141 0)
(4.85095 3.87398 0)
(3.8763 3.92648 0)
(4.2965 4.10395 0)
(3.2324 4.0399 0)
(3.68064 4.28971 0)
(2.5209 4.06505 0)
(2.99359 4.40683 0)
(1.73843 3.97622 0)
(2.23745 4.42466 0)
(0.8895 3.71886 0)
(1.36341 4.3164 0)
(0.598774 3.98502 0)
(9.98321 0.136203 0)
(9.99339 0.09504 0)
(9.95032 0.225571 0)
(9.97131 0.188589 0)
(9.90151 0.315495 0)
(9.93193 0.282048 0)
(9.83694 0.407502 0)
(9.87643 0.376959 0)
(9.75684 0.50301 0)
(9.80579 0.474838 0)
(9.66135 0.603274 0)
(9.7203 0.577047 0)
(9.55046 0.709455 0)
(9.61995 0.684811 0)
(9.42403 0.822696 0)
(9.50465 0.799312 0)
(9.28184 0.944139 0)
(9.37422 0.921728 0)
(9.12356 1.07492 0)
(9.22843 1.05324 0)
(8.94879 1.21618 0)
(9.06695 1.19503 0)
(8.75705 1.36903 0)
(8.88938 1.34826 0)
(8.54776 1.53457 0)
(8.6952 1.5141 0)
(8.32025 1.71382 0)
(8.48382 1.69369 0)
(8.0737 1.90772 0)
(8.25451 1.88808 0)
(7.80714 2.117 0)
(8.00636 2.09824 0)
(7.51934 2.34213 0)
(7.73826 2.32494 0)
(7.2087 2.58312 0)
(7.44874 2.56865 0)
(6.87313 2.83935 0)
(7.13587 2.82941 0)
(6.50982 3.10923 0)
(6.79705 3.1066 0)
(6.11494 3.38977 0)
(6.42872 3.39858 0)
(5.68338 3.67599 0)
(6.02611 3.70226 0)
(5.20846 3.96019 0)
(5.58276 4.01246 0)
(4.68174 4.23098 0)
(5.09031 4.32095 0)
(4.09328 4.47233 0)
(4.53827 4.61539 0)
(3.43251 4.66258 0)
(3.9147 4.87789 0)
(2.69013 4.77321 0)
(3.20568 5.08363 0)
(1.86185 4.77249 0)
(2.41128 5.19804 0)
(0.954181 4.58983 0)
(1.47628 5.18441 0)
(0.639194 4.91958 0)
(9.98386 0.148369 0)
(9.99368 0.102943 0)
(9.95235 0.24597 0)
(9.9726 0.204394 0)
(9.90578 0.344398 0)
(9.9351 0.305969 0)
(9.84437 0.445197 0)
(9.88241 0.409269 0)
(9.76833 0.549809 0)
(9.81552 0.515815 0)
(9.6778 0.659556 0)
(9.73471 0.627009 0)
(9.57281 0.775684 0)
(9.63999 0.744155 0)
(9.45327 0.899413 0)
(9.53129 0.868512 0)
(9.31901 1.03196 0)
(9.40853 1.00133 0)
(9.16978 1.17455 0)
(9.27151 1.14387 0)
(9.00522 1.32839 0)
(9.11999 1.29737 0)
(8.82492 1.4947 0)
(8.95361 1.46311 0)
(8.62834 1.67469 0)
(8.77194 1.64235 0)
(8.41485 1.86952 0)
(8.57442 1.83634 0)
(8.18361 2.0803 0)
(8.36037 2.04632 0)
(7.93361 2.30802 0)
(8.12889 2.27347 0)
(7.66349 2.55347 0)
(7.87881 2.51884 0)
(7.37145 2.81714 0)
(7.60855 2.78336 0)
(7.05508 3.09907 0)
(7.316 3.06764 0)
(6.71105 3.39861 0)
(6.99823 3.37191 0)
(6.33484 3.71403 0)
(6.65122 3.69573 0)
(5.9203 4.04206 0)
(6.26945 4.03762 0)
(5.45923 4.37703 0)
(5.84536 4.39448 0)
(4.94102 4.70987 0)
(5.36884 4.76069 0)
(4.35267 5.02654 0)
(4.82675 5.12673 0)
(3.67954 5.3062 0)
(4.20313 5.47707 0)
(2.90746 5.51822 0)
(3.47786 5.7875 0)
(2.02763 5.62308 0)
(2.64499 6.01957 0)
(1.04508 5.52955 0)
(1.63769 6.12402 0)
(0.704458 5.94318 0)
(9.98465 0.159981 0)
(9.99402 0.110462 0)
(9.95473 0.265381 0)
(9.97409 0.2194 0)
(9.91065 0.37182 0)
(9.93868 0.328612 0)
(9.85267 0.480883 0)
(9.88905 0.439776 0)
(9.781 0.594044 0)
(9.82618 0.554433 0)
(9.69581 0.712679 0)
(9.75038 0.674024 0)
(9.59716 0.838105 0)
(9.66166 0.799915 0)
(9.48502 0.971612 0)
(9.56003 0.933432 0)
(9.35927 1.11449 0)
(9.44543 1.07589 0)
(9.21973 1.26802 0)
(9.31776 1.2286 0)
(9.06612 1.43351 0)
(9.17684 1.39291 0)
(8.8981 1.61227 0)
(9.0224 1.57014 0)
(8.71521 1.80561 0)
(8.85409 1.76167 0)
(8.51685 2.01487 0)
(8.67145 1.96888 0)
(8.30225 2.24133 0)
(8.47384 2.19318 0)
(8.0704 2.48627 0)
(8.26044 2.43597 0)
(7.81989 2.75086 0)
(8.03012 2.69867 0)
(7.54885 3.03614 0)
(7.7813 2.98263 0)
(7.25466 3.34293 0)
(7.51184 3.28916 0)
(6.93371 3.67165 0)
(7.2187 3.61943 0)
(6.58098 4.02212 0)
(6.89766 3.97434 0)
(6.18952 4.3931 0)
(6.54278 4.35429 0)
(5.74984 4.78159 0)
(6.14577 4.75877 0)
(5.24919 5.18172 0)
(5.69514 5.18554 0)
(4.67101 5.58283 0)
(5.17514 5.62923 0)
(3.99496 5.9666 0)
(4.56515 6.07884 0)
(3.19845 6.30178 0)
(3.83637 6.51365 0)
(2.26178 6.54077 0)
(2.97085 6.89415 0)
(1.18061 6.56521 0)
(1.87913 7.15795 0)
(0.812798 7.09951 0)
(9.98553 0.170963 0)
(9.9944 0.117546 0)
(9.95738 0.283698 0)
(9.97572 0.233519 0)
(9.916 0.397635 0)
(9.94258 0.349869 0)
(9.86169 0.514411 0)
(9.89623 0.468351 0)
(9.79468 0.635534 0)
(9.83765 0.59054 0)
(9.71517 0.762427 0)
(9.76713 0.717908 0)
(9.62324 0.896464 0)
(9.68475 0.851873 0)
(9.51894 1.039 0)
(9.59055 0.993815 0)
(9.4022 1.19137 0)
(9.48455 1.1451 0)
(9.27293 1.35494 0)
(9.36673 1.30711 0)
(9.13093 1.53107 0)
(9.23698 1.48122 0)
(8.97595 1.72118 0)
(9.09514 1.66886 0)
(8.80762 1.92668 0)
(8.94095 1.87148 0)
(8.62545 2.14905 0)
(8.77407 2.0906 0)
(8.42876 2.3898 0)
(8.59399 2.32778 0)
(8.21661 2.65048 0)
(8.40001 2.58467 0)
(7.98769 2.93267 0)
(8.19113 2.863 0)
(7.74018 3.238 0)
(7.96594 3.1646 0)
(7.4715 3.56811 0)
(7.72244 3.49148 0)
(7.17802 3.92463 0)
(7.45777 3.84577 0)
(6.85459 4.30907 0)
(7.16787 4.2298 0)
(6.49396 4.72258 0)
(6.84692 4.64604 0)
(6.08583 5.16547 0)
(6.48658 5.09692 0)
(5.61579 5.63627 0)
(6.07482 5.58441 0)
(5.06372 6.12981 0)
(5.59417 6.10903 0)
(4.40234 6.63379 0)
(5.01975 6.66756 0)
(3.59623 7.12126 0)
(4.31268 7.24856 0)
(2.60438 7.5407 0)
(3.43577 7.82026 0)
(1.39432 7.74054 0)
(2.2565 8.31514 0)
(1.00262 8.46516 0)
(9.9865 0.181252 0)
(9.9948 0.124156 0)
(9.96026 0.300832 0)
(9.97747 0.24668 0)
(9.92176 0.421733 0)
(9.94676 0.369646 0)
(9.87133 0.545649 0)
(9.90387 0.494885 0)
(9.80923 0.674122 0)
(9.84977 0.624003 0)
(9.73567 0.808612 0)
(9.78478 0.758505 0)
(9.6508 0.950541 0)
(9.70902 0.899844 0)
(9.55471 1.10131 0)
(9.62258 1.04944 0)
(9.44742 1.2623 0)
(9.52555 1.20872 0)
(9.3289 1.43494 0)
(9.41798 1.37908 0)
(9.19907 1.62066 0)
(9.29987 1.56196 0)
(9.05779 1.82092 0)
(9.17117 1.75886 0)
(8.90479 2.03727 0)
(9.03175 1.9713 0)
(8.73974 2.27132 0)
(8.8814 2.20089 0)
(8.56209 2.52475 0)
(8.71979 2.44935 0)
(8.3711 2.7994 0)
(8.54641 2.71854 0)
(8.16564 3.09724 0)
(8.36049 3.01048 0)
(7.94415 3.42048 0)
(8.16093 3.32745 0)
(7.70432 3.77156 0)
(7.9461 3.67207 0)
(7.44287 4.15333 0)
(7.71361 4.0474 0)
(7.15507 4.56903 0)
(7.46004 4.45713 0)
(6.83402 5.0224 0)
(7.18036 4.90576 0)
(6.46968 5.51756 0)
(6.86718 5.39879 0)
(6.04716 6.05866 0)
(6.50946 5.94295 0)
(5.54424 6.64871 0)
(6.09022 6.54613 0)
(4.92726 7.287 0)
(5.58332 7.21676 0)
(4.14517 7.96147 0)
(4.94271 7.96156 0)
(3.12189 8.63366 0)
(4.10948 8.77572 0)
(1.75631 9.12797 0)
(2.87856 9.62105 0)
(1.36478 10.1854 0)
(9.98754 0.190799 0)
(9.99523 0.13026 0)
(9.96332 0.316707 0)
(9.97932 0.258824 0)
(9.92785 0.444022 0)
(9.95115 0.387868 0)
(9.88148 0.574488 0)
(9.91187 0.519285 0)
(9.82448 0.709678 0)
(9.86243 0.654714 0)
(9.75712 0.851084 0)
(9.80317 0.795682 0)
(9.67957 1.00016 0)
(9.73425 0.943674 0)
(9.592 1.15835 0)
(9.65582 1.10014 0)
(9.4945 1.32707 0)
(9.56804 1.26653 0)
(9.38714 1.50777 0)
(9.47106 1.44427 0)
(9.26994 1.70195 0)
(9.36498 1.63486 0)
(9.14288 1.91113 0)
(9.24985 1.8398 0)
(9.00586 2.13692 0)
(9.1257 2.06069 0)
(8.85869 2.38106 0)
(8.99249 2.29922 0)
(8.70106 2.64539 0)
(8.85009 2.55723 0)
(8.53246 2.93198 0)
(8.69825 2.83671 0)
(8.35211 3.24313 0)
(8.53655 3.13994 0)
(8.15884 3.58154 0)
(8.3643 3.46954 0)
(7.95092 3.95038 0)
(8.18042 3.82863 0)
(7.7258 4.35355 0)
(7.98334 4.22102 0)
(7.47973 4.7959 0)
(7.7707 4.6515 0)
(7.20715 5.28361 0)
(7.53899 5.12627 0)
(6.89967 5.82468 0)
(7.28299 5.65355 0)
(6.54434 6.42947 0)
(6.99471 6.24448 0)
(6.12041 7.11139 0)
(6.66143 6.91458 0)
(5.59314 7.88758 0)
(6.26257 7.6861 0)
(4.90102 8.77791 0)
(5.75771 8.59255 0)
(3.92702 9.80163 0)
(5.08752 9.68516 0)
(2.43332 10.8569 0)
(3.9797 11.0495 0)
(2.14636 12.5686 0)
(9.98862 0.199563 0)
(9.99567 0.135835 0)
(9.96652 0.331262 0)
(9.98124 0.269906 0)
(9.9342 0.464419 0)
(9.9557 0.404472 0)
(9.89202 0.600821 0)
(9.92016 0.541476 0)
(9.8403 0.742066 0)
(9.87552 0.682583 0)
(9.77931 0.889669 0)
(9.82215 0.829339 0)
(9.70931 1.04511 0)
(9.76027 0.983243 0)
(9.6305 1.20985 0)
(9.69009 1.14577 0)
(9.54306 1.38534 0)
(9.61184 1.31837 0)
(9.44716 1.57305 0)
(9.52575 1.50251 0)
(9.34293 1.7745 0)
(9.43204 1.69968 0)
(9.23049 1.99126 0)
(9.3309 1.91142 0)
(9.10992 2.225 0)
(9.2225 2.13935 0)
(8.98122 2.47751 0)
(9.10701 2.38522 0)
(8.84434 2.75077 0)
(8.98453 2.6509 0)
(8.6991 3.047 0)
(8.85512 2.93851 0)
(8.54513 3.36875 0)
(8.71875 3.25047 0)
(8.38183 3.71906 0)
(8.57525 3.5896 0)
(8.20826 4.10163 0)
(8.4243 3.95933 0)
(8.02296 4.52113 0)
(8.26532 4.36393 0)
(7.82373 4.98361 0)
(8.0974 4.80886 0)
(7.60729 5.4971 0)
(7.91918 5.30136 0)
(7.36862 6.07265 0)
(7.72869 5.8513 0)
(7.0998 6.72593 0)
(7.52305 6.4726 0)
(6.78766 7.48014 0)
(7.29803 7.18586 0)
(6.40866 8.37202 0)
(7.04817 8.02345 0)
(5.91579 9.46602 0)
(6.76326 9.04189 0)
(5.19641 10.9085 0)
(6.46235 10.3569 0)
(3.88481 13.1792 0)
(6.19047 12.3038 0)
(5.26001 16.3736 0)
(0.187739 -0.113979 0)
(0.109131 -0.183878 0)
(0.368194 -0.0979596 0)
(0.26665 -0.17257 0)
(0.518593 -0.0764056 0)
(0.424915 -0.140431 0)
(0.63888 -0.0574692 0)
(0.560027 -0.109661 0)
(0.733922 -0.0424132 0)
(0.66834 -0.0846008 0)
(0.808867 -0.0308412 0)
(0.754564 -0.0651354 0)
(0.868145 -0.0221026 0)
(0.824182 -0.0503023 0)
(0.915409 -0.0156093 0)
(0.881445 -0.0391602 0)
(0.953624 -0.0108726 0)
(0.929438 -0.0309153 0)
(0.985172 -0.00749438 0)
(0.970499 -0.0249181 0)
(1.01194 -0.00515285 0)
(1.00647 -0.0206474 0)
(1.03543 -0.00358324 0)
(1.03883 -0.0176826 0)
(1.05674 -0.00255791 0)
(1.06869 -0.015669 0)
(1.07665 -0.00187148 0)
(1.09689 -0.0142898 0)
(1.09555 -0.00133447 0)
(1.12398 -0.0132498 0)
(1.11349 -0.000778011 0)
(1.15021 -0.0122757 0)
(1.13015 -7.1426e-05 0)
(1.17556 -0.0111352 0)
(1.14498 0.000852102 0)
(1.19975 -0.00967427 0)
(1.15732 0.00197899 0)
(1.2223 -0.00785858 0)
(1.16662 0.00323013 0)
(1.24272 -0.00578458 0)
(1.17259 0.00450256 0)
(1.26066 -0.00362826 0)
(1.17523 0.00569385 0)
(1.27596 -0.00156364 0)
(1.17463 0.0067281 0)
(1.28865 0.000348889 0)
(1.17051 0.00767301 0)
(1.2986 0.00232598 0)
(1.16259 0.00857019 0)
(1.30545 0.004376 0)
(1.15075 0.00924179 0)
(1.3088 0.00637769 0)
(1.13562 0.00940471 0)
(1.30817 0.00795954 0)
(1.11896 0.00877662 0)
(1.3045 0.00855948 0)
(1.10354 0.00685842 0)
(1.29995 0.00773305 0)
(1.29681 0.00465214 0)
(0.171191 -0.268018 0)
(0.0895071 -0.35155 0)
(0.337175 -0.23706 0)
(0.233052 -0.331301 0)
(0.477974 -0.190888 0)
(0.368711 -0.271898 0)
(0.593828 -0.149719 0)
(0.485222 -0.215281 0)
(0.689275 -0.11692 0)
(0.57999 -0.169562 0)
(0.768822 -0.0917063 0)
(0.657536 -0.13427 0)
(0.836148 -0.072628 0)
(0.722374 -0.107434 0)
(0.894139 -0.0583685 0)
(0.7778 -0.0872081 0)
(0.945054 -0.0478492 0)
(0.82612 -0.0721047 0)
(0.990669 -0.0402057 0)
(0.869061 -0.0609479 0)
(1.03238 -0.0347497 0)
(0.907978 -0.0528122 0)
(1.07126 -0.0309236 0)
(0.943943 -0.0469635 0)
(1.10816 -0.0282549 0)
(0.977788 -0.0427979 0)
(1.14369 -0.0263224 0)
(1.01015 -0.0397915 0)
(1.17824 -0.0247386 0)
(1.04147 -0.0374686 0)
(1.21202 -0.0231543 0)
(1.07206 -0.0353899 0)
(1.24499 -0.0212898 0)
(1.10202 -0.0331691 0)
(1.27696 -0.0189891 0)
(1.1313 -0.030527 0)
(1.30758 -0.0162637 0)
(1.15965 -0.0273667 0)
(1.33657 -0.0132758 0)
(1.18677 -0.0238151 0)
(1.36379 -0.0102391 0)
(1.21239 -0.0201537 0)
(1.38917 -0.00728206 0)
(1.23645 -0.0166121 0)
(1.41249 -0.00437125 0)
(1.25908 -0.0131554 0)
(1.43348 -0.00133755 0)
(1.28033 -0.00953531 0)
(1.45157 0.0018917 0)
(1.30017 -0.00560924 0)
(1.46607 0.00494567 0)
(1.3182 -0.00143658 0)
(1.4767 0.00704877 0)
(1.33389 0.00236841 0)
(1.48502 0.00751498 0)
(1.34668 0.00428638 0)
(1.49301 0.00605788 0)
(1.35659 0.00372223 0)
(1.366 0.00175969 0)
(0.142224 -0.421676 0)
(0.0685472 -0.490849 0)
(0.274977 -0.373439 0)
(0.185749 -0.458253 0)
(0.385061 -0.303108 0)
(0.28509 -0.374685 0)
(0.47473 -0.240938 0)
(0.370016 -0.29703 0)
(0.548475 -0.191631 0)
(0.437499 -0.235204 0)
(0.610189 -0.153744 0)
(0.492518 -0.187907 0)
(0.662824 -0.124965 0)
(0.538554 -0.152099 0)
(0.70852 -0.103261 0)
(0.57791 -0.12507 0)
(0.748902 -0.087024 0)
(0.612099 -0.104772 0)
(0.785241 -0.0749943 0)
(0.642273 -0.0896506 0)
(0.818543 -0.066179 0)
(0.669359 -0.0784957 0)
(0.849607 -0.0597802 0)
(0.694097 -0.0703543 0)
(0.879054 -0.0551301 0)
(0.717071 -0.0644477 0)
(0.90736 -0.0516429 0)
(0.738745 -0.0601106 0)
(0.934867 -0.0487854 0)
(0.759481 -0.0567481 0)
(0.961782 -0.0460722 0)
(0.77956 -0.0538091 0)
(0.988156 -0.0431009 0)
(0.79917 -0.0507915 0)
(1.01387 -0.0396261 0)
(0.818379 -0.0473022 0)
(1.03867 -0.0356386 0)
(0.837084 -0.0431652 0)
(1.0623 -0.0313675 0)
(0.855013 -0.0385138 0)
(1.08468 -0.0271268 0)
(0.871811 -0.0337432 0)
(1.106 -0.0230447 0)
(0.887336 -0.0292489 0)
(1.12662 -0.0189194 0)
(0.901873 -0.0250929 0)
(1.14685 -0.0144331 0)
(0.916013 -0.0209703 0)
(1.16664 -0.00948577 0)
(0.930166 -0.0165332 0)
(1.18571 -0.00455159 0)
(0.944137 -0.0117094 0)
(1.20326 -0.000781009 0)
(0.957701 -0.0068676 0)
(1.21758 0.000569164 0)
(0.96906 -0.00306895 0)
(1.22806 -0.000391146 0)
(0.976168 -0.00153633 0)
(0.977902 -0.00149376 0)
(0.110479 -0.53739 0)
(0.0475945 -0.599057 0)
(0.204344 -0.469847 0)
(0.132575 -0.548017 0)
(0.277547 -0.378834 0)
(0.189562 -0.443036 0)
(0.33532 -0.30068 0)
(0.239195 -0.3497 0)
(0.381843 -0.239676 0)
(0.27482 -0.276616 0)
(0.420265 -0.193216 0)
(0.302875 -0.2213 0)
(0.452689 -0.158029 0)
(0.325353 -0.179614 0)
(0.4804 -0.13143 0)
(0.343656 -0.14803 0)
(0.504363 -0.111422 0)
(0.358528 -0.124158 0)
(0.525349 -0.0964863 0)
(0.370636 -0.106227 0)
(0.543984 -0.0854365 0)
(0.38054 -0.0928669 0)
(0.560775 -0.0773217 0)
(0.388685 -0.0829984 0)
(0.576138 -0.0713531 0)
(0.395433 -0.0757422 0)
(0.590415 -0.0668488 0)
(0.401101 -0.0703597 0)
(0.603908 -0.0631937 0)
(0.405981 -0.066205 0)
(0.616868 -0.059819 0)
(0.410366 -0.062678 0)
(0.629462 -0.0562268 0)
(0.414543 -0.0592069 0)
(0.641711 -0.0520736 0)
(0.41876 -0.0552934 0)
(0.653439 -0.0472882 0)
(0.423078 -0.0506357 0)
(0.664321 -0.0421305 0)
(0.427306 -0.0452816 0)
(0.674104 -0.037074 0)
(0.430811 -0.0396838 0)
(0.682876 -0.032508 0)
(0.433057 -0.0344501 0)
(0.691062 -0.0284464 0)
(0.433592 -0.029832 0)
(0.69922 -0.0245119 0)
(0.432872 -0.0255813 0)
(0.707607 -0.0202124 0)
(0.431521 -0.0211618 0)
(0.715797 -0.0153292 0)
(0.429803 -0.0161226 0)
(0.722656 -0.010233 0)
(0.42931 -0.0104766 0)
(0.7262 -0.00597686 0)
(0.427518 -0.00488931 0)
(0.724641 -0.00322501 0)
(0.424731 -0.000754309 0)
(0.415929 -0.000885267 0)
(0.0737841 -0.617502 0)
(0.0254926 -0.671324 0)
(0.124772 -0.529285 0)
(0.0729715 -0.596777 0)
(0.157902 -0.421584 0)
(0.0836922 -0.473971 0)
(0.180573 -0.332459 0)
(0.0960813 -0.370368 0)
(0.196475 -0.264066 0)
(0.0967972 -0.290771 0)
(0.207696 -0.212507 0)
(0.0946263 -0.231051 0)
(0.215643 -0.173484 0)
(0.0897159 -0.186358 0)
(0.22082 -0.143817 0)
(0.0829141 -0.152319 0)
(0.223718 -0.121335 0)
(0.0744986 -0.126503 0)
(0.224759 -0.104407 0)
(0.0648952 -0.107049 0)
(0.224281 -0.0917605 0)
(0.0544412 -0.0924981 0)
(0.222567 -0.0823787 0)
(0.043376 -0.0817074 0)
(0.219866 -0.0754271 0)
(0.0319127 -0.0737565 0)
(0.216421 -0.0701954 0)
(0.0202541 -0.0678865 0)
(0.212493 -0.0660473 0)
(0.00860764 -0.063452 0)
(0.208381 -0.0623785 0)
(-0.00277896 -0.0598642 0)
(0.204387 -0.0586145 0)
(-0.0136049 -0.056538 0)
(0.200721 -0.05428 0)
(-0.023537 -0.0529022 0)
(0.197354 -0.0491356 0)
(-0.0323712 -0.0484909 0)
(0.193874 -0.0433057 0)
(-0.0401426 -0.0431174 0)
(0.189473 -0.0372323 0)
(-0.0473879 -0.0370108 0)
(0.183267 -0.0313828 0)
(-0.05481 -0.0307705 0)
(0.174905 -0.0259351 0)
(-0.0634018 -0.0249913 0)
(0.164692 -0.0207123 0)
(-0.0733746 -0.0198085 0)
(0.153577 -0.0154325 0)
(-0.0844551 -0.015028 0)
(0.143006 -0.00988236 0)
(-0.0962343 -0.0104262 0)
(0.132987 -0.00419209 0)
(-0.106748 -0.0052054 0)
(0.123311 0.000811174 0)
(-0.116428 8.11857e-05 0)
(0.115469 0.00166414 0)
(-0.123715 0.00317923 0)
(-0.133685 0.00146116 0)
(0.0316492 -0.657049 0)
(0.000908247 -0.702322 0)
(0.036538 -0.54753 0)
(0.00583178 -0.601452 0)
(0.0275179 -0.427059 0)
(-0.0306928 -0.465548 0)
(0.0135182 -0.331007 0)
(-0.057725 -0.357605 0)
(-0.00404051 -0.258249 0)
(-0.0932018 -0.275142 0)
(-0.0231324 -0.204363 0)
(-0.127943 -0.214458 0)
(-0.043398 -0.164021 0)
(-0.162318 -0.169161 0)
(-0.0642847 -0.133484 0)
(-0.195604 -0.135013 0)
(-0.0854224 -0.110493 0)
(-0.227572 -0.109403 0)
(-0.106537 -0.0933058 0)
(-0.257948 -0.0903712 0)
(-0.127446 -0.0805665 0)
(-0.286608 -0.0763726 0)
(-0.148009 -0.071217 0)
(-0.313565 -0.0662238 0)
(-0.1681 -0.0643965 0)
(-0.338883 -0.0589854 0)
(-0.187597 -0.0593885 0)
(-0.362639 -0.0538908 0)
(-0.206346 -0.0555785 0)
(-0.384898 -0.0503105 0)
(-0.224132 -0.0523973 0)
(-0.405652 -0.0476924 0)
(-0.240688 -0.0492837 0)
(-0.424796 -0.0454763 0)
(-0.255755 -0.0457146 0)
(-0.442156 -0.0430719 0)
(-0.269204 -0.0413311 0)
(-0.457601 -0.0399246 0)
(-0.281122 -0.0361073 0)
(-0.471193 -0.0357049 0)
(-0.291868 -0.0303953 0)
(-0.483282 -0.0304853 0)
(-0.302062 -0.0247231 0)
(-0.494475 -0.0247261 0)
(-0.312387 -0.019471 0)
(-0.505516 -0.0190142 0)
(-0.323172 -0.0146668 0)
(-0.516954 -0.0137123 0)
(-0.334424 -0.0100204 0)
(-0.528917 -0.00881816 0)
(-0.346282 -0.00517906 0)
(-0.541228 -0.00403647 0)
(-0.357464 -0.000475594 0)
(-0.552499 0.000677315 0)
(-0.366139 0.00292553 0)
(-0.561605 0.00453775 0)
(-0.371795 0.00358634 0)
(-0.569025 0.0060158 0)
(-0.575849 0.00439046 0)
(-0.0168954 -0.649691 0)
(-0.0285392 -0.685774 0)
(-0.0590619 -0.520318 0)
(-0.069799 -0.561128 0)
(-0.109676 -0.393254 0)
(-0.152354 -0.418289 0)
(-0.162941 -0.296652 0)
(-0.219976 -0.309046 0)
(-0.215606 -0.225413 0)
(-0.29071 -0.228262 0)
(-0.266466 -0.173228 0)
(-0.357045 -0.170256 0)
(-0.31457 -0.134565 0)
(-0.418263 -0.128341 0)
(-0.359432 -0.105934 0)
(-0.473747 -0.0978434 0)
(-0.400837 -0.0849569 0)
(-0.523618 -0.0759074 0)
(-0.43876 -0.0698035 0)
(-0.56829 -0.0604167 0)
(-0.473349 -0.0590378 0)
(-0.608243 -0.0496975 0)
(-0.504859 -0.0515589 0)
(-0.644048 -0.0424962 0)
(-0.533598 -0.0465008 0)
(-0.67626 -0.0378562 0)
(-0.559865 -0.0431702 0)
(-0.705394 -0.0350354 0)
(-0.583891 -0.040998 0)
(-0.731879 -0.0334705 0)
(-0.605794 -0.0394548 0)
(-0.755998 -0.0327038 0)
(-0.625607 -0.0379877 0)
(-0.777868 -0.0322372 0)
(-0.643332 -0.036024 0)
(-0.797502 -0.0315087 0)
(-0.659064 -0.0330751 0)
(-0.81493 -0.0299033 0)
(-0.673103 -0.0289363 0)
(-0.830389 -0.0269731 0)
(-0.685944 -0.0238017 0)
(-0.844376 -0.022688 0)
(-0.698181 -0.0181605 0)
(-0.857552 -0.0174704 0)
(-0.710386 -0.0125409 0)
(-0.870547 -0.0119486 0)
(-0.722886 -0.00727443 0)
(-0.883745 -0.00664686 0)
(-0.735683 -0.00248982 0)
(-0.89683 -0.00175543 0)
(-0.747579 0.0017467 0)
(-0.908969 0.00237325 0)
(-0.757481 0.00516628 0)
(-0.919428 0.00588715 0)
(-0.765486 0.00690707 0)
(-0.928411 0.00865001 0)
(-0.772101 0.00630126 0)
(-0.936359 0.00933359 0)
(-0.94127 0.00772757 0)
(-0.0688047 -0.593399 0)
(-0.0649538 -0.618384 0)
(-0.161025 -0.452068 0)
(-0.155211 -0.472938 0)
(-0.254252 -0.325544 0)
(-0.285469 -0.33124 0)
(-0.345194 -0.231969 0)
(-0.392671 -0.226137 0)
(-0.430426 -0.165456 0)
(-0.494664 -0.152394 0)
(-0.508109 -0.119254 0)
(-0.587016 -0.102741 0)
(-0.577249 -0.0869602 0)
(-0.669055 -0.0696697 0)
(-0.638091 -0.0642541 0)
(-0.740526 -0.0474327 0)
(-0.691368 -0.048563 0)
(-0.800954 -0.0328084 0)
(-0.738054 -0.03808 0)
(-0.852508 -0.0235407 0)
(-0.779153 -0.0313724 0)
(-0.896895 -0.0180016 0)
(-0.815563 -0.027367 0)
(-0.935598 -0.0150796 0)
(-0.848052 -0.0252498 0)
(-0.969795 -0.0139696 0)
(-0.877274 -0.0244064 0)
(-1.00043 -0.0140589 0)
(-0.903731 -0.0243832 0)
(-1.02824 -0.0149266 0)
(-0.927696 -0.0247738 0)
(-1.0537 -0.0163034 0)
(-0.949331 -0.0251176 0)
(-1.07703 -0.0177815 0)
(-0.968683 -0.0248564 0)
(-1.09799 -0.0188834 0)
(-0.985917 -0.0234139 0)
(-1.11659 -0.0189259 0)
(-1.00145 -0.0204566 0)
(-1.13315 -0.0173118 0)
(-1.01591 -0.0161008 0)
(-1.14832 -0.0139083 0)
(-1.0299 -0.0108833 0)
(-1.16285 -0.00917515 0)
(-1.04389 -0.00555046 0)
(-1.17734 -0.00385033 0)
(-1.05761 -0.000734016 0)
(-1.19127 0.00111093 0)
(-1.07002 0.00335247 0)
(-1.20422 0.00508957 0)
(-1.08088 0.00684519 0)
(-1.21562 0.00822614 0)
(-1.09057 0.00967763 0)
(-1.22596 0.0109879 0)
(-1.09897 0.0110696 0)
(-1.23541 0.0129653 0)
(-1.10653 0.010531 0)
(-1.24346 0.0131236 0)
(-1.24778 0.0117299 0)
(-0.128742 -0.484403 0)
(-0.112734 -0.49229 0)