/*--------------------------------*- C++ -*----------------------------------*\
  =========                 |
  \\      /  F ield         | OpenFOAM: The Open Source CFD Toolbox
   \\    /   O peration     | Website:  https://openfoam.org
    \\  /    A nd           | Version:  7
     \\/     M anipulation  |
\*---------------------------------------------------------------------------*/
FoamFile
{
    version     2.0;
    format      ascii;
    class       surfaceScalarField;
    location    "2.19";
    object      phi;
}
// * * * * * * * * * * * * * * * * * * * * * * * * * * * * * * * * * * * * * //

dimensions      [1 0 -1 0 0 0 0];

internalField   nonuniform List<scalar> 
23692
(
1.17319e-05
-9.702e-08
1.1909e-05
-1.77096e-07
1.21592e-05
-2.50089e-07
1.24753e-05
-3.1609e-07
1.28521e-05
-3.76658e-07
1.32847e-05
-4.32516e-07
1.37688e-05
-4.83956e-07
1.43001e-05
-5.31123e-07
1.48743e-05
-5.74081e-07
1.54873e-05
-6.12874e-07
1.61349e-05
-6.47573e-07
1.68133e-05
-6.78287e-07
1.75185e-05
-7.05171e-07
1.82469e-05
-7.28425e-07
1.89952e-05
-7.48282e-07
1.97601e-05
-7.65e-07
2.05388e-05
-7.78852e-07
2.13286e-05
-7.90113e-07
2.21274e-05
-7.99056e-07
2.29329e-05
-8.05939e-07
2.37434e-05
-8.11006e-07
2.45573e-05
-8.14478e-07
2.53731e-05
-8.16554e-07
2.61897e-05
-8.17411e-07
2.7006e-05
-8.172e-07
2.7821e-05
-8.16051e-07
2.86339e-05
-8.14074e-07
2.94439e-05
-8.11357e-07
3.02504e-05
-8.07974e-07
3.10528e-05
-8.03981e-07
3.18505e-05
-7.99424e-07
3.26429e-05
-7.94333e-07
3.34296e-05
-7.88734e-07
3.42101e-05
-7.8264e-07
3.49838e-05
-7.76062e-07
3.57504e-05
-7.69002e-07
3.65092e-05
-7.61459e-07
3.72598e-05
-7.53429e-07
3.80018e-05
-7.44904e-07
3.87346e-05
-7.35873e-07
3.94577e-05
-7.26324e-07
4.01705e-05
-7.16243e-07
4.08726e-05
-7.05613e-07
4.15633e-05
-6.94415e-07
4.22421e-05
-6.82628e-07
4.29083e-05
-6.70231e-07
4.35614e-05
-6.57196e-07
4.42007e-05
-6.43496e-07
4.48254e-05
-6.29099e-07
4.54348e-05
-6.1397e-07
4.60283e-05
-5.98068e-07
4.66049e-05
-5.81349e-07
4.71637e-05
-5.63762e-07
4.7704e-05
-5.45249e-07
4.82247e-05
-5.25745e-07
4.87246e-05
-5.05174e-07
4.92028e-05
-4.8345e-07
4.96579e-05
-4.60475e-07
5.00886e-05
-4.36132e-07
5.04934e-05
-4.10286e-07
5.08705e-05
-3.82778e-07
5.12183e-05
-3.53419e-07
5.15346e-05
-3.21981e-07
5.1817e-05
-2.88186e-07
5.20629e-05
-2.51694e-07
5.22692e-05
-2.12078e-07
5.24322e-05
-1.68799e-07
5.25476e-05
-1.21161e-07
5.261e-05
-6.82583e-08
5.26131e-05
-8.89244e-09
5.25486e-05
5.87199e-08
5.24057e-05
1.37217e-07
5.21695e-05
2.30474e-07
5.18195e-05
3.44456e-07
5.13252e-05
4.88779e-07
5.06401e-05
6.79655e-07
4.96891e-05
9.45725e-07
4.83434e-05
1.3405e-06
4.63639e-05
1.97448e-06
4.3239e-05
3.1201e-06
5.89589e-06
3.73385e-05
1.25508e-05
-1.98281e-07
1.27394e-05
-3.65573e-07
1.30063e-05
-5.16906e-07
1.33438e-05
-6.53511e-07
1.37461e-05
-7.78912e-07
1.42083e-05
-8.94549e-07
1.47255e-05
-1.00103e-06
1.52932e-05
-1.09865e-06
1.59068e-05
-1.18755e-06
1.65619e-05
-1.26783e-06
1.7254e-05
-1.33962e-06
1.7979e-05
-1.40316e-06
1.87326e-05
-1.45877e-06
1.9511e-05
-1.50686e-06
2.03106e-05
-1.54792e-06
2.1128e-05
-1.58247e-06
2.196e-05
-1.61109e-06
2.2804e-05
-1.63435e-06
2.36574e-05
-1.65281e-06
2.4518e-05
-1.667e-06
2.53839e-05
-1.67743e-06
2.62534e-05
-1.68456e-06
2.71249e-05
-1.6888e-06
2.79971e-05
-1.69051e-06
2.88689e-05
-1.69001e-06
2.97393e-05
-1.68757e-06
3.06073e-05
-1.68341e-06
3.14723e-05
-1.67772e-06
3.23334e-05
-1.67064e-06
3.319e-05
-1.6623e-06
3.40415e-05
-1.65279e-06
3.48873e-05
-1.64218e-06
3.57269e-05
-1.6305e-06
3.65598e-05
-1.6178e-06
3.73853e-05
-1.60409e-06
3.8203e-05
-1.58938e-06
3.90124e-05
-1.57367e-06
3.9813e-05
-1.55694e-06
4.06041e-05
-1.53918e-06
4.13853e-05
-1.52037e-06
4.2156e-05
-1.50048e-06
4.29156e-05
-1.47949e-06
4.36635e-05
-1.45735e-06
4.43992e-05
-1.43402e-06
4.51219e-05
-1.40948e-06
4.58311e-05
-1.38366e-06
4.6526e-05
-1.35651e-06
4.7206e-05
-1.32799e-06
4.78702e-05
-1.29801e-06
4.85179e-05
-1.26651e-06
4.91483e-05
-1.23341e-06
4.97604e-05
-1.19861e-06
5.03535e-05
-1.16201e-06
5.09264e-05
-1.1235e-06
5.14781e-05
-1.08293e-06
5.20076e-05
-1.04016e-06
5.25135e-05
-9.95016e-07
5.29945e-05
-9.47288e-07
5.34493e-05
-8.96747e-07
5.38762e-05
-8.43121e-07
5.42736e-05
-7.86089e-07
5.46394e-05
-7.25273e-07
5.49715e-05
-6.60216e-07
5.52675e-05
-5.90369e-07
5.55247e-05
-5.15054e-07
5.57399e-05
-4.33433e-07
5.59093e-05
-3.44447e-07
5.60287e-05
-2.46743e-07
5.60927e-05
-1.38561e-07
5.60952e-05
-1.75698e-08
5.60282e-05
1.19526e-07
5.58819e-05
2.7744e-07
5.56433e-05
4.62977e-07
5.52956e-05
6.86213e-07
5.48159e-05
9.6253e-07
5.41737e-05
1.31609e-06
5.33279e-05
1.78577e-06
5.22276e-05
2.4353e-06
5.08232e-05
3.37347e-06
4.91507e-05
4.78739e-06
6.90335e-06
4.81383e-05
1.34263e-05
-3.03219e-07
1.3626e-05
-5.6528e-07
1.39096e-05
-8.00398e-07
1.42689e-05
-1.01274e-06
1.46977e-05
-1.20758e-06
1.51905e-05
-1.3872e-06
1.57422e-05
-1.55256e-06
1.63478e-05
-1.70414e-06
1.70026e-05
-1.84216e-06
1.77016e-05
-1.96676e-06
1.84403e-05
-2.07817e-06
1.9214e-05
-2.17676e-06
2.00183e-05
-2.26301e-06
2.0849e-05
-2.33759e-06
2.17023e-05
-2.40122e-06
2.25744e-05
-2.45476e-06
2.34622e-05
-2.49908e-06
2.43627e-05
-2.53506e-06
2.52731e-05
-2.56359e-06
2.61911e-05
-2.58549e-06
2.71147e-05
-2.60154e-06
2.80419e-05
-2.61247e-06
2.89712e-05
-2.6189e-06
2.99011e-05
-2.62141e-06
3.08305e-05
-2.62048e-06
3.17583e-05
-2.61653e-06
3.26834e-05
-2.60991e-06
3.36051e-05
-2.6009e-06
3.45225e-05
-2.58974e-06
3.5435e-05
-2.57661e-06
3.63419e-05
-2.56166e-06
3.72426e-05
-2.54498e-06
3.81364e-05
-2.52665e-06
3.90228e-05
-2.50672e-06
3.99013e-05
-2.48521e-06
4.07712e-05
-2.46213e-06
4.1632e-05
-2.43749e-06
4.24831e-05
-2.41126e-06
4.3324e-05
-2.38342e-06
4.4154e-05
-2.35393e-06
4.49725e-05
-2.32275e-06
4.5779e-05
-2.28984e-06
4.65727e-05
-2.25514e-06
4.73531e-05
-2.21859e-06
4.81193e-05
-2.18012e-06
4.88708e-05
-2.13966e-06
4.96067e-05
-2.09714e-06
5.03263e-05
-2.05245e-06
5.10287e-05
-2.0055e-06
5.17132e-05
-1.95618e-06
5.23789e-05
-1.90436e-06
5.30247e-05
-1.8499e-06
5.36498e-05
-1.79264e-06
5.4253e-05
-1.73242e-06
5.48332e-05
-1.66901e-06
5.53893e-05
-1.6022e-06
5.59199e-05
-1.53172e-06
5.64238e-05
-1.45727e-06
5.68993e-05
-1.3785e-06
5.73448e-05
-1.29501e-06
5.77587e-05
-1.20633e-06
5.81388e-05
-1.11189e-06
5.84831e-05
-1.01104e-06
5.87891e-05
-9.02968e-07
5.90541e-05
-7.86708e-07
5.92751e-05
-6.61059e-07
5.94485e-05
-5.24523e-07
5.95703e-05
-3.75209e-07
5.96358e-05
-2.10684e-07
5.96394e-05
-2.77837e-08
5.95746e-05
1.77737e-07
5.94337e-05
4.11684e-07
5.92081e-05
6.82139e-07
5.88875e-05
1.00038e-06
5.84614e-05
1.3823e-06
5.79208e-05
1.85043e-06
5.7264e-05
2.43647e-06
5.65096e-05
3.18374e-06
5.57296e-05
4.14777e-06
5.51293e-05
5.38205e-06
6.85733e-06
5.51699e-05
1.43625e-05
-4.1164e-07
1.45731e-05
-7.75842e-07
1.48734e-05
-1.10059e-06
1.52549e-05
-1.39415e-06
1.57108e-05
-1.6634e-06
1.62353e-05
-1.91151e-06
1.68228e-05
-2.13986e-06
1.74679e-05
-2.34914e-06
1.81655e-05
-2.53963e-06
1.89105e-05
-2.71156e-06
1.96977e-05
-2.86525e-06
2.05222e-05
-3.0012e-06
2.13794e-05
-3.12011e-06
2.22647e-05
-3.22287e-06
2.31739e-05
-3.31052e-06
2.41032e-05
-3.38421e-06
2.50491e-05
-3.44516e-06
2.60083e-05
-3.49459e-06
2.6978e-05
-3.53372e-06
2.79558e-05
-3.56369e-06
2.89392e-05
-3.58559e-06
2.99264e-05
-3.60041e-06
3.09156e-05
-3.60901e-06
3.19054e-05
-3.61219e-06
3.28944e-05
-3.61062e-06
3.38815e-05
-3.60488e-06
3.48656e-05
-3.59543e-06
3.58457e-05
-3.58269e-06
3.68212e-05
-3.56697e-06
3.77911e-05
-3.54852e-06
3.87549e-05
-3.52753e-06
3.97118e-05
-3.50415e-06
4.06611e-05
-3.47847e-06
4.16023e-05
-3.45057e-06
4.25347e-05
-3.42048e-06
4.34578e-05
-3.38821e-06
4.43708e-05
-3.35376e-06
4.52732e-05
-3.31709e-06
4.61644e-05
-3.27818e-06
4.70436e-05
-3.23698e-06
4.79103e-05
-3.19342e-06
4.87638e-05
-3.14744e-06
4.96033e-05
-3.09898e-06
5.04281e-05
-3.04794e-06
5.12375e-05
-2.99423e-06
5.20307e-05
-2.93776e-06
5.2807e-05
-2.8784e-06
5.35654e-05
-2.81605e-06
5.4305e-05
-2.75056e-06
5.50251e-05
-2.68179e-06
5.57246e-05
-2.60956e-06
5.64026e-05
-2.53369e-06
5.70579e-05
-2.45396e-06
5.76895e-05
-2.37014e-06
5.82962e-05
-2.28197e-06
5.88768e-05
-2.18913e-06
5.94299e-05
-2.0913e-06
5.99541e-05
-1.98806e-06
6.04479e-05
-1.87898e-06
6.09097e-05
-1.76353e-06
6.13376e-05
-1.64111e-06
6.17298e-05
-1.511e-06
6.20841e-05
-1.37237e-06
6.23983e-05
-1.22422e-06
6.26699e-05
-1.06536e-06
6.2896e-05
-8.94322e-07
6.30737e-05
-7.09315e-07
6.31994e-05
-5.08117e-07
6.32696e-05
-2.87932e-07
6.32799e-05
-4.52324e-08
6.32261e-05
2.24423e-07
6.3104e-05
5.26783e-07
6.29097e-05
8.69447e-07
6.2641e-05
1.26223e-06
6.22989e-05
1.71761e-06
6.18916e-05
2.25107e-06
6.14407e-05
2.88074e-06
6.09926e-05
3.6255e-06
6.06347e-05
4.4994e-06
6.05131e-05
5.49755e-06
6.56042e-06
6.08042e-05
1.53639e-05
-5.23516e-07
1.55852e-05
-9.97022e-07
1.59022e-05
-1.4175e-06
1.63062e-05
-1.79808e-06
1.679e-05
-2.14704e-06
1.73471e-05
-2.46846e-06
1.79716e-05
-2.76419e-06
1.86578e-05
-3.03512e-06
1.94e-05
-3.28166e-06
2.01927e-05
-3.5041e-06
2.10304e-05
-3.70287e-06
2.19079e-05
-3.87862e-06
2.28201e-05
-4.03227e-06
2.37622e-05
-4.16498e-06
2.47298e-05
-4.2781e-06
2.57186e-05
-4.37313e-06
2.67248e-05
-4.45165e-06
2.77452e-05
-4.51524e-06
2.87765e-05
-4.56549e-06
2.98162e-05
-4.60387e-06
3.08617e-05
-4.6318e-06
3.19111e-05
-4.65054e-06
3.29624e-05
-4.66124e-06
3.4014e-05
-4.66491e-06
3.50646e-05
-4.66242e-06
3.61129e-05
-4.65451e-06
3.71577e-05
-4.64181e-06
3.81981e-05
-4.62482e-06
3.92332e-05
-4.60397e-06
4.02622e-05
-4.57957e-06
4.12842e-05
-4.55187e-06
4.22987e-05
-4.52105e-06
4.33048e-05
-4.48725e-06
4.43019e-05
-4.45054e-06
4.52894e-05
-4.41097e-06
4.62665e-05
-4.36856e-06
4.72326e-05
-4.3233e-06
4.8187e-05
-4.27514e-06
4.9129e-05
-4.22405e-06
5.00579e-05
-4.16997e-06
5.09731e-05
-4.11281e-06
5.18736e-05
-4.05249e-06
5.27589e-05
-3.98891e-06
5.36281e-05
-3.92198e-06
5.44804e-05
-3.85156e-06
5.5315e-05
-3.77754e-06
5.6131e-05
-3.69978e-06
5.69275e-05
-3.61811e-06
5.77035e-05
-3.53237e-06
5.84582e-05
-3.44237e-06
5.91904e-05
-3.3479e-06
5.98992e-05
-3.24873e-06
6.05835e-05
-3.1446e-06
6.1242e-05
-3.03522e-06
6.18736e-05
-2.92026e-06
6.2477e-05
-2.79936e-06
6.30509e-05
-2.6721e-06
6.35938e-05
-2.53802e-06
6.41042e-05
-2.39658e-06
6.45806e-05
-2.24716e-06
6.50212e-05
-2.08907e-06
6.54243e-05
-1.92149e-06
6.57879e-05
-1.74347e-06
6.611e-05
-1.55388e-06
6.63884e-05
-1.35141e-06
6.6621e-05
-1.13448e-06
6.68052e-05
-9.01206e-07
6.69387e-05
-6.4929e-07
6.70191e-05
-3.75954e-07
6.70441e-05
-7.78316e-08
6.70119e-05
2.48979e-07
6.6922e-05
6.09185e-07
6.67753e-05
1.00862e-06
6.65761e-05
1.45407e-06
6.63334e-05
1.95305e-06
6.60641e-05
2.51317e-06
6.5797e-05
3.14075e-06
6.55774e-05
3.83826e-06
6.54702e-05
4.59982e-06
6.55573e-05
5.40388e-06
6.20081e-06
6.59105e-05
1.64353e-05
-6.38958e-07
1.6667e-05
-1.22872e-06
1.70009e-05
-1.75126e-06
1.74278e-05
-2.22489e-06
1.79401e-05
-2.65915e-06
1.85308e-05
-3.05901e-06
1.91936e-05
-3.42678e-06
1.99222e-05
-3.76358e-06
2.07107e-05
-4.06994e-06
2.1553e-05
-4.34624e-06
2.24433e-05
-4.59303e-06
2.33759e-05
-4.81113e-06
2.43454e-05
-5.0017e-06
2.53466e-05
-5.16618e-06
2.63748e-05
-5.30627e-06
2.74253e-05
-5.42385e-06
2.84943e-05
-5.52087e-06
2.95781e-05
-5.59933e-06
3.06733e-05
-5.66117e-06
3.17772e-05
-5.70826e-06
3.2887e-05
-5.74234e-06
3.40006e-05
-5.76499e-06
3.5116e-05
-5.77764e-06
3.62315e-05
-5.78154e-06
3.73456e-05
-5.77778e-06
3.84569e-05
-5.76727e-06
3.95642e-05
-5.7508e-06
4.06666e-05
-5.72898e-06
4.17629e-05
-5.70234e-06
4.28524e-05
-5.67128e-06
4.39342e-05
-5.63609e-06
4.50075e-05
-5.59701e-06
4.60716e-05
-5.55419e-06
4.71258e-05
-5.50773e-06
4.81692e-05
-5.4577e-06
4.92013e-05
-5.40409e-06
5.02212e-05
-5.3469e-06
5.12283e-05
-5.28609e-06
5.22217e-05
-5.2216e-06
5.32007e-05
-5.15334e-06
5.41646e-05
-5.08123e-06
5.51125e-05
-5.00516e-06
5.60436e-05
-4.925e-06
5.69571e-05
-4.84064e-06
5.78521e-05
-4.75192e-06
5.87277e-05
-4.6587e-06
5.95829e-05
-4.5608e-06
6.04169e-05
-4.45805e-06
6.12286e-05
-4.35022e-06
6.2017e-05
-4.23711e-06
6.2781e-05
-4.11847e-06
6.35196e-05
-3.99403e-06
6.42316e-05
-3.86348e-06
6.49159e-05
-3.72649e-06
6.55712e-05
-3.5827e-06
6.61962e-05
-3.43168e-06
6.67896e-05
-3.27297e-06
6.73501e-05
-3.10605e-06
6.78762e-05
-2.93034e-06
6.83664e-05
-2.74515e-06
6.88192e-05
-2.54974e-06
6.9233e-05
-2.34325e-06
6.96062e-05
-2.12469e-06
6.99371e-05
-1.89291e-06
7.02242e-05
-1.6466e-06
7.04658e-05
-1.38424e-06
7.06604e-05
-1.10404e-06
7.08069e-05
-8.03947e-07
7.09043e-05
-4.81544e-07
7.09523e-05
-1.34086e-07
7.09519e-05
2.41282e-07
7.09054e-05
6.47619e-07
7.08176e-05
1.0884e-06
7.06966e-05
1.56707e-06
7.05554e-05
2.08645e-06
7.04128e-05
2.648e-06
7.02955e-05
3.25049e-06
7.0238e-05
3.88826e-06
7.02817e-05
4.54888e-06
7.0468e-05
5.21045e-06
5.83921e-06
7.08227e-05
1.75816e-05
-7.58196e-07
1.78239e-05
-1.47098e-06
1.81748e-05
-2.10206e-06
1.8625e-05
-2.67498e-06
1.91665e-05
-3.20043e-06
1.97918e-05
-3.68413e-06
2.04941e-05
-4.12887e-06
2.12667e-05
-4.536e-06
2.21031e-05
-4.90617e-06
2.29969e-05
-5.23986e-06
2.39418e-05
-5.53775e-06
2.49317e-05
-5.80086e-06
2.59606e-05
-6.03059e-06
2.70232e-05
-6.22873e-06
2.81142e-05
-6.39732e-06
2.92288e-05
-6.53866e-06
3.03628e-05
-6.65511e-06
3.15123e-05
-6.7491e-06
3.26736e-05
-6.82299e-06
3.38438e-05
-6.87903e-06
3.50201e-05
-6.91934e-06
3.62e-05
-6.94582e-06
3.73816e-05
-6.96021e-06
3.85628e-05
-6.96402e-06
3.97422e-05
-6.95856e-06
4.09183e-05
-6.94494e-06
4.20898e-05
-6.92409e-06
4.32557e-05
-6.89677e-06
4.44148e-05
-6.86361e-06
4.55662e-05
-6.82508e-06
4.67091e-05
-6.78154e-06
4.78425e-05
-6.73327e-06
4.89657e-05
-6.68045e-06
5.0078e-05
-6.6232e-06
5.11784e-05
-6.56159e-06
5.22662e-05
-6.49563e-06
5.33407e-05
-6.42531e-06
5.4401e-05
-6.35056e-06
5.54463e-05
-6.27132e-06
5.64758e-05
-6.18749e-06
5.74887e-05
-6.09897e-06
5.8484e-05
-6.00561e-06
5.9461e-05
-5.90729e-06
6.04187e-05
-5.80385e-06
6.13561e-05
-5.69512e-06
6.22724e-05
-5.58092e-06
6.31664e-05
-5.46106e-06
6.40373e-05
-5.33533e-06
6.4884e-05
-5.2035e-06
6.57054e-05
-5.06531e-06
6.65004e-05
-4.92049e-06
6.7268e-05
-4.76873e-06
6.80069e-05
-4.60972e-06
6.8716e-05
-4.44308e-06
6.9394e-05
-4.26842e-06
7.00398e-05
-4.08528e-06
7.0652e-05
-3.89319e-06
7.12295e-05
-3.69159e-06
7.17708e-05
-3.47989e-06
7.22747e-05
-3.2574e-06
7.27399e-05
-3.02338e-06
7.31651e-05
-2.77699e-06
7.35491e-05
-2.5173e-06
7.38908e-05
-2.24324e-06
7.41891e-05
-1.95366e-06
7.44434e-05
-1.64723e-06
7.4653e-05
-1.3225e-06
7.48181e-05
-9.77851e-07
7.49393e-05
-6.11544e-07
7.50182e-05
-2.21738e-07
7.50575e-05
1.93192e-07
7.5062e-05
6.3448e-07
7.50385e-05
1.10329e-06
7.49968e-05
1.60018e-06
7.49503e-05
2.12454e-06
7.4916e-05
2.67401e-06
7.49146e-05
3.24368e-06
7.49696e-05
3.82521e-06
7.51045e-05
4.40608e-06
7.53381e-05
4.96917e-06
5.49369e-06
7.56761e-05
1.88081e-05
-8.81548e-07
1.90612e-05
-1.724e-06
1.94295e-05
-2.47026e-06
1.99035e-05
-3.14887e-06
2.04749e-05
-3.77163e-06
2.11358e-05
-4.34483e-06
2.18789e-05
-4.87173e-06
2.2697e-05
-5.35388e-06
2.35831e-05
-5.79204e-06
2.45303e-05
-6.18682e-06
2.55317e-05
-6.53903e-06
2.65809e-05
-6.84991e-06
2.76715e-05
-7.12114e-06
2.87977e-05
-7.35484e-06
2.99538e-05
-7.55349e-06
3.11348e-05
-7.71979e-06
3.2336e-05
-7.85659e-06
3.35533e-05
-7.96675e-06
3.47829e-05
-8.05308e-06
3.60215e-05
-8.11827e-06
3.72662e-05
-8.16481e-06
3.85144e-05
-8.19499e-06
3.9764e-05
-8.21083e-06
4.10128e-05
-8.21414e-06
4.22592e-05
-8.20647e-06
4.35018e-05
-8.18914e-06
4.4739e-05
-8.16323e-06
4.59698e-05
-8.12966e-06
4.71931e-05
-8.08914e-06
4.84077e-05
-8.04225e-06
4.96128e-05
-7.9894e-06
5.08075e-05
-7.93093e-06
5.19908e-05
-7.86703e-06
5.3162e-05
-7.79786e-06
5.43202e-05
-7.72348e-06
5.54645e-05
-7.64391e-06
5.65941e-05
-7.55912e-06
5.77081e-05
-7.46905e-06
5.88057e-05
-7.37362e-06
5.9886e-05
-7.27271e-06
6.0948e-05
-7.1662e-06
6.19909e-05
-7.05392e-06
6.30136e-05
-6.93574e-06
6.40153e-05
-6.81146e-06
6.49949e-05
-6.6809e-06
6.59515e-05
-6.54386e-06
6.68839e-05
-6.40012e-06
6.77912e-05
-6.24945e-06
6.86722e-05
-6.0916e-06
6.95259e-05
-5.9263e-06
7.03512e-05
-5.75325e-06
7.1147e-05
-5.57214e-06
7.1912e-05
-5.38262e-06
7.26452e-05
-5.18431e-06
7.33454e-05
-4.97681e-06
7.40114e-05
-4.75967e-06
7.4642e-05
-4.53241e-06
7.52363e-05
-4.2945e-06
7.57929e-05
-4.04537e-06
7.6311e-05
-3.78438e-06
7.67894e-05
-3.51087e-06
7.72274e-05
-3.2241e-06
7.76241e-05
-2.92326e-06
7.79791e-05
-2.6075e-06
7.8292e-05
-2.27592e-06
7.85629e-05
-1.92756e-06
7.87924e-05
-1.56142e-06
7.89817e-05
-1.17653e-06
7.91326e-05
-7.71942e-07
7.92483e-05
-3.46835e-07
7.93328e-05
9.93216e-08
7.93918e-05
5.66155e-07
7.9433e-05
1.05284e-06
7.94661e-05
1.5579e-06
7.95028e-05
2.07873e-06
7.95567e-05
2.61115e-06
7.96424e-05
3.14915e-06
7.97743e-05
3.68457e-06
7.99647e-05
4.20719e-06
8.02205e-05
4.70502e-06
5.16587e-06
8.05401e-05
2.01205e-05
-1.00939e-06
2.03846e-05
-1.98807e-06
2.07708e-05
-2.85634e-06
2.12693e-05
-3.64721e-06
2.18715e-05
-4.37358e-06
2.25691e-05
-5.0422e-06
2.33543e-05
-5.65667e-06
2.42194e-05
-6.21874e-06
2.51568e-05
-6.72928e-06
2.61592e-05
-7.189e-06
2.72193e-05
-7.59886e-06
2.83299e-05
-7.96035e-06
2.94843e-05
-8.27545e-06
3.06761e-05
-8.54667e-06
3.18995e-05
-8.77692e-06
3.3149e-05
-8.96939e-06
3.44195e-05
-9.1274e-06
3.57067e-05
-9.25432e-06
3.70066e-05
-9.35344e-06
3.83155e-05
-9.42789e-06
3.96305e-05
-9.48061e-06
4.09488e-05
-9.51424e-06
4.2268e-05
-9.53118e-06
4.3586e-05
-9.53351e-06
4.4901e-05
-9.52303e-06
4.62113e-05
-9.50129e-06
4.75157e-05
-9.46956e-06
4.88127e-05
-9.42889e-06
5.01012e-05
-9.3801e-06
5.13801e-05
-9.32386e-06
5.26484e-05
-9.26067e-06
5.39052e-05
-9.19087e-06
5.51495e-05
-9.11473e-06
5.63803e-05
-9.0324e-06
5.75968e-05
-8.94395e-06
5.87981e-05
-8.84941e-06
5.99832e-05
-8.74875e-06
6.11513e-05
-8.64188e-06
6.23013e-05
-8.52871e-06
6.34324e-05
-8.40911e-06
6.45436e-05
-8.28293e-06
6.56338e-05
-8.15001e-06
6.67022e-05
-8.01016e-06
6.77476e-05
-7.86319e-06
6.8769e-05
-7.7089e-06
6.97654e-05
-7.54707e-06
7.07356e-05
-7.37747e-06
7.16787e-05
-7.19984e-06
7.25934e-05
-7.01393e-06
7.34788e-05
-6.81946e-06
7.43337e-05
-6.61613e-06
7.51569e-05
-6.40362e-06
7.59475e-05
-6.18159e-06
7.67042e-05
-5.94968e-06
7.74261e-05
-5.7075e-06
7.81121e-05
-5.45463e-06
7.87612e-05
-5.19064e-06
7.93724e-05
-4.91505e-06
7.9945e-05
-4.62737e-06
8.04781e-05
-4.32707e-06
8.09711e-05
-4.01363e-06
8.14237e-05
-3.68646e-06
8.18355e-05
-3.34501e-06
8.22068e-05
-2.98869e-06
8.25378e-05
-2.61696e-06
8.28294e-05
-2.22931e-06
8.30832e-05
-1.82531e-06
8.33012e-05
-1.40464e-06
8.34863e-05
-9.67206e-07
8.36425e-05
-5.13142e-07
8.37745e-05
-4.27539e-08
8.38881e-05
4.4254e-07
8.39907e-05
9.40282e-07
8.40908e-05
1.44792e-06
8.41978e-05
1.96194e-06
8.43215e-05
2.47774e-06
8.44715e-05
2.98958e-06
8.46561e-05
3.49066e-06
8.48806e-05
3.97336e-06
8.51468e-05
4.42978e-06
4.85301e-06
8.54508e-05
2.15248e-05
-1.14215e-06
2.18004e-05
-2.26364e-06
2.22051e-05
-3.2609e-06
2.27288e-05
-4.17074e-06
2.33627e-05
-5.00724e-06
2.40981e-05
-5.7774e-06
2.49268e-05
-6.48505e-06
2.58404e-05
-7.13213e-06
2.6831e-05
-7.71958e-06
2.78904e-05
-8.24821e-06
2.9011e-05
-8.71916e-06
3.01849e-05
-9.13415e-06
3.14051e-05
-9.49553e-06
3.26647e-05
-9.80622e-06
3.39574e-05
-1.00696e-05
3.52772e-05
-1.02894e-05
3.6619e-05
-1.04694e-05
3.79779e-05
-1.06136e-05
3.93498e-05
-1.07258e-05
4.07307e-05
-1.08096e-05
4.21176e-05
-1.08683e-05
4.35073e-05
-1.09051e-05
4.48976e-05
-1.09226e-05
4.6286e-05
-1.09234e-05
4.76708e-05
-1.09094e-05
4.90501e-05
-1.08825e-05
5.04225e-05
-1.08441e-05
5.17867e-05
-1.07954e-05
5.31413e-05
-1.07373e-05
5.44852e-05
-1.06707e-05
5.58174e-05
-1.0596e-05
5.71368e-05
-1.05137e-05
5.84424e-05
-1.0424e-05
5.97333e-05
-1.03272e-05
6.10084e-05
-1.02233e-05
6.22668e-05
-1.01124e-05
6.35076e-05
-9.9943e-06
6.47297e-05
-9.86906e-06
6.59321e-05
-9.73652e-06
6.71139e-05
-9.59653e-06
6.82739e-05
-9.44892e-06
6.94112e-05
-9.29353e-06
7.05247e-05
-9.13015e-06
7.16133e-05
-8.95858e-06
7.26759e-05
-8.77859e-06
7.37115e-05
-8.58996e-06
7.47189e-05
-8.39245e-06
7.5697e-05
-8.18582e-06
7.66448e-05
-7.9698e-06
7.75611e-05
-7.74411e-06
7.84449e-05
-7.50848e-06
7.92951e-05
-7.26261e-06
8.01106e-05
-7.00617e-06
8.08906e-05
-6.73885e-06
8.16339e-05
-6.46031e-06
8.23399e-05
-6.1702e-06
8.30076e-05
-5.86816e-06
8.36364e-05
-5.55383e-06
8.42258e-05
-5.22683e-06
8.47752e-05
-4.88681e-06
8.52846e-05
-4.5334e-06
8.57539e-05
-4.1663e-06
8.61835e-05
-3.78521e-06
8.65741e-05
-3.3899e-06
8.69265e-05
-2.98023e-06
8.72426e-05
-2.55616e-06
8.75242e-05
-2.11783e-06
8.77743e-05
-1.66556e-06
8.79961e-05
-1.19994e-06
8.8194e-05
-7.21883e-07
8.83731e-05
-2.32637e-07
8.85388e-05
2.66021e-07
8.86973e-05
7.70997e-07
8.88555e-05
1.2791e-06
8.90203e-05
1.78658e-06
8.91985e-05
2.28915e-06
8.93958e-05
2.78196e-06
8.96166e-05
3.25976e-06
8.98628e-05
3.71716e-06
9.01336e-05
4.14912e-06
4.55188e-06
9.04251e-05
2.30273e-05
-1.28025e-06
2.3315e-05
-2.55123e-06
2.37389e-05
-3.68463e-06
2.42887e-05
-4.72035e-06
2.49553e-05
-5.67364e-06
2.57298e-05
-6.55162e-06
2.66033e-05
-7.35826e-06
2.7567e-05
-8.09558e-06
2.86123e-05
-8.7646e-06
2.97306e-05
-9.3662e-06
3.09134e-05
-9.90172e-06
3.21526e-05
-1.03731e-05
3.34404e-05
-1.07832e-05
3.47696e-05
-1.11353e-05
3.61332e-05
-1.14333e-05
3.75251e-05
-1.16814e-05
3.89397e-05
-1.18842e-05
4.03718e-05
-1.20461e-05
4.1817e-05
-1.21715e-05
4.32712e-05
-1.22645e-05
4.47311e-05
-1.2329e-05
4.61934e-05
-1.23685e-05
4.76556e-05
-1.23861e-05
4.91154e-05
-1.23847e-05
5.05706e-05
-1.23664e-05
5.20196e-05
-1.23334e-05
5.34606e-05
-1.22874e-05
5.48923e-05
-1.22296e-05
5.63134e-05
-1.21612e-05
5.77226e-05
-1.20829e-05
5.91189e-05
-1.19955e-05
6.0501e-05
-1.18994e-05
6.1868e-05
-1.17949e-05
6.32189e-05
-1.16822e-05
6.45525e-05
-1.15614e-05
6.58678e-05
-1.14325e-05
6.71639e-05
-1.12955e-05
6.84397e-05
-1.11502e-05
6.9694e-05
-1.09966e-05
7.09259e-05
-1.08344e-05
7.21342e-05
-1.06636e-05
7.33179e-05
-1.04839e-05
7.44758e-05
-1.0295e-05
7.56068e-05
-1.00969e-05
7.67099e-05
-9.88917e-06
7.77838e-05
-9.67172e-06
7.88275e-05
-9.44428e-06
7.98399e-05
-9.20659e-06
8.08199e-05
-8.95843e-06
8.17664e-05
-8.69955e-06
8.26784e-05
-8.42968e-06
8.35549e-05
-8.14857e-06
8.43951e-05
-7.85598e-06
8.51979e-05
-7.55163e-06
8.59628e-05
-7.23527e-06
8.66889e-05
-6.90666e-06
8.73758e-05
-6.56555e-06
8.8023e-05
-6.21172e-06
8.86303e-05
-5.84498e-06
8.91977e-05
-5.46517e-06
8.97253e-05
-5.07218e-06
9.02137e-05
-4.66595e-06
9.06636e-05
-4.24651e-06
9.10762e-05
-3.81402e-06
9.14532e-05
-3.36872e-06
9.17965e-05
-2.91107e-06
9.21086e-05
-2.44167e-06
9.23928e-05
-1.96142e-06
9.26526e-05
-1.47145e-06
9.28923e-05
-9.73242e-07
9.31166e-05
-4.68595e-07
9.33302e-05
4.07964e-08
9.35379e-05
5.51802e-07
9.37449e-05
1.06059e-06
9.39563e-05
1.56381e-06
9.41764e-05
2.05783e-06
9.44085e-05
2.53878e-06
9.46545e-05
3.0028e-06
9.49146e-05
3.44618e-06
9.51874e-05
3.86574e-06
4.25962e-06
9.54692e-05
2.4635e-05
-1.42416e-06
2.49353e-05
-2.85144e-06
2.53791e-05
-4.1283e-06
2.5956e-05
-5.29698e-06
2.66565e-05
-6.37388e-06
2.74713e-05
-7.36611e-06
2.8391e-05
-8.27767e-06
2.94063e-05
-9.11058e-06
3.05079e-05
-9.86588e-06
3.16866e-05
-1.05446e-05
3.29333e-05
-1.11481e-05
3.42393e-05
-1.16789e-05
3.55963e-05
-1.214e-05
3.69964e-05
-1.25353e-05
3.84324e-05
-1.28693e-05
3.98976e-05
-1.31468e-05
4.13861e-05
-1.3373e-05
4.28924e-05
-1.35529e-05
4.44118e-05
-1.36915e-05
4.594e-05
-1.37935e-05
4.74735e-05
-1.38634e-05
4.90089e-05
-1.39051e-05
5.05435e-05
-1.39221e-05
5.20748e-05
-1.39175e-05
5.36006e-05
-1.38941e-05
5.51192e-05
-1.38541e-05
5.66289e-05
-1.37994e-05
5.8128e-05
-1.37314e-05
5.96154e-05
-1.36514e-05
6.10896e-05
-1.35604e-05
6.25495e-05
-1.3459e-05
6.39939e-05
-1.33477e-05
6.54218e-05
-1.3227e-05
6.6832e-05
-1.30969e-05
6.82234e-05
-1.29577e-05
6.9595e-05
-1.28092e-05
7.09456e-05
-1.26516e-05
7.22741e-05
-1.24845e-05
7.35794e-05
-1.23081e-05
7.48605e-05
-1.21219e-05
7.61161e-05
-1.1926e-05
7.7345e-05
-1.17199e-05
7.85463e-05
-1.15037e-05
7.97187e-05
-1.1277e-05
8.0861e-05
-1.10396e-05
8.19722e-05
-1.07913e-05
8.30511e-05
-1.05319e-05
8.40967e-05
-1.02612e-05
8.5108e-05
-9.97894e-06
8.60838e-05
-9.68496e-06
8.70234e-05
-9.37905e-06
8.79257e-05
-9.06102e-06
8.87901e-05
-8.73069e-06
8.96158e-05
-8.3879e-06
9.04022e-05
-8.03252e-06
9.11489e-05
-7.66442e-06
9.18556e-05
-7.28352e-06
9.25222e-05
-6.88978e-06
9.31488e-05
-6.4832e-06
9.37357e-05
-6.06387e-06
9.42835e-05
-5.63193e-06
9.47931e-05
-5.18763e-06
9.52657e-05
-4.73132e-06
9.57029e-05
-4.2635e-06
9.61065e-05
-3.7848e-06
9.64791e-05
-3.29608e-06
9.68233e-05
-2.79835e-06
9.71422e-05
-2.29288e-06
9.74394e-05
-1.7812e-06
9.77187e-05
-1.2651e-06
9.79842e-05
-7.46591e-07
9.82402e-05
-2.27745e-07
9.84905e-05
2.8909e-07
9.87386e-05
8.00221e-07
9.89876e-05
1.30257e-06
9.92402e-05
1.79306e-06
9.94983e-05
2.26874e-06
9.97624e-05
2.72682e-06
0.000100032
3.16478e-06
0.000100306
3.58066e-06
3.97366e-06
0.00010058
2.63551e-05
-1.57432e-06
2.66687e-05
-3.16495e-06
2.71334e-05
-4.59275e-06
2.77383e-05
-5.90164e-06
2.84737e-05
-7.10908e-06
2.93301e-05
-8.22211e-06
3.02973e-05
-9.24458e-06
3.13656e-05
-1.01785e-05
3.25249e-05
-1.10248e-05
3.37654e-05
-1.17847e-05
3.50773e-05
-1.24597e-05
3.64513e-05
-1.30526e-05
3.78785e-05
-1.3567e-05
3.93505e-05
-1.40072e-05
4.08597e-05
-1.43784e-05
4.23989e-05
-1.46861e-05
4.39618e-05
-1.49361e-05
4.55426e-05
-1.51341e-05
4.71364e-05
-1.52858e-05
4.87387e-05
-1.53966e-05
5.03457e-05
-1.54713e-05
5.19539e-05
-1.55144e-05
5.35604e-05
-1.553e-05
5.51628e-05
-1.55215e-05
5.67587e-05
-1.5492e-05
5.83462e-05
-1.54438e-05
5.99236e-05
-1.53792e-05
6.14893e-05
-1.52999e-05
6.30419e-05
-1.52071e-05
6.45801e-05
-1.51019e-05
6.61025e-05
-1.49852e-05
6.76081e-05
-1.48574e-05
6.90956e-05
-1.47189e-05
7.05639e-05
-1.45699e-05
7.20117e-05
-1.44107e-05
7.34381e-05
-1.4241e-05
7.48418e-05
-1.40611e-05
7.62217e-05
-1.38706e-05
7.75765e-05
-1.36694e-05
7.89052e-05
-1.34575e-05
8.02065e-05
-1.32345e-05
8.14793e-05
-1.30003e-05
8.27224e-05
-1.27547e-05
8.39346e-05
-1.24975e-05
8.51148e-05
-1.22284e-05
8.62619e-05
-1.19473e-05
8.73748e-05
-1.16541e-05
8.84524e-05
-1.13484e-05
8.94938e-05
-1.10303e-05
9.04981e-05
-1.06995e-05
9.14644e-05
-1.03559e-05
9.2392e-05
-9.99942e-06
9.32803e-05
-9.63003e-06
9.41287e-05
-9.24765e-06
9.49369e-05
-8.8523e-06
9.57046e-05
-8.44402e-06
9.6432e-05
-8.02291e-06
9.7119e-05
-7.58912e-06
9.77663e-05
-7.1429e-06
9.83743e-05
-6.68456e-06
9.89441e-05
-6.21453e-06
9.94768e-05
-5.73332e-06
9.9974e-05
-5.24162e-06
0.000100438
-4.74021e-06
0.00010087
-4.23007e-06
0.000101272
-3.71234e-06
0.000101649
-3.18835e-06
0.000102002
-2.65963e-06
0.000102336
-2.1279e-06
0.000102652
-1.59509e-06
0.000102955
-1.06333e-06
0.000103249
-5.3477e-07
0.000103536
-1.0852e-08
0.000103817
5.05303e-07
0.000104096
1.01043e-06
0.000104374
1.5021e-06
0.000104652
1.97813e-06
0.000104929
2.43651e-06
0.000105206
2.87557e-06
0.00010548
3.29405e-06
3.69183e-06
0.000105749
2.81955e-05
-1.73119e-06
2.85231e-05
-3.49247e-06
2.90094e-05
-5.07886e-06
2.96434e-05
-6.53535e-06
3.0415e-05
-7.88036e-06
3.1314e-05
-9.12078e-06
3.233e-05
-1.02602e-05
3.34524e-05
-1.13004e-05
3.46705e-05
-1.22425e-05
3.59737e-05
-1.30875e-05
3.73517e-05
-1.38373e-05
3.87944e-05
-1.4495e-05
4.02924e-05
-1.50647e-05
4.18367e-05
-1.55513e-05
4.34192e-05
-1.59608e-05
4.50322e-05
-1.62992e-05
4.66692e-05
-1.65733e-05
4.83242e-05
-1.67894e-05
4.99917e-05
-1.69539e-05
5.16671e-05
-1.70728e-05
5.33465e-05
-1.71516e-05
5.50263e-05
-1.71954e-05
5.67035e-05
-1.72086e-05
5.83754e-05
-1.71952e-05
6.00398e-05
-1.71583e-05
6.16946e-05
-1.71009e-05
6.3338e-05
-1.70252e-05
6.49684e-05
-1.69332e-05
6.65844e-05
-1.68263e-05
6.81845e-05
-1.67057e-05
6.97675e-05
-1.65721e-05
7.13322e-05
-1.64263e-05
7.28772e-05
-1.62686e-05
7.44015e-05
-1.60992e-05
7.59037e-05
-1.59183e-05
7.73828e-05
-1.57259e-05
7.88375e-05
-1.55219e-05
8.02665e-05
-1.53062e-05
8.16688e-05
-1.50786e-05
8.3043e-05
-1.4839e-05
8.4388e-05
-1.45872e-05
8.57025e-05
-1.43229e-05
8.69855e-05
-1.40461e-05
8.82356e-05
-1.37564e-05
8.94519e-05
-1.34538e-05
9.06331e-05
-1.31381e-05
9.17784e-05
-1.28092e-05
9.28866e-05
-1.24669e-05
9.3957e-05
-1.21112e-05
9.49886e-05
-1.1742e-05
9.59809e-05
-1.13594e-05
9.69331e-05
-1.09632e-05
9.78449e-05
-1.05537e-05
9.8716e-05
-1.01309e-05
9.95462e-05
-9.6949e-06
0.000100336
-9.24603e-06
0.000101084
-8.78456e-06
0.000101793
-8.31086e-06
0.000102462
-7.82539e-06
0.000103093
-7.32872e-06
0.000103686
-6.82153e-06
0.000104243
-6.30461e-06
0.000104767
-5.77887e-06
0.000105258
-5.24539e-06
0.000105719
-4.70538e-06
0.000106152
-4.16018e-06
0.000106561
-3.61131e-06
0.000106947
-3.06043e-06
0.000107314
-2.50934e-06
0.000107664
-1.95995e-06
0.000108001
-1.41427e-06
0.000108326
-8.7434e-07
0.000108643
-3.42078e-07
0.000108953
1.81133e-07
0.000109257
6.92545e-07
0.000109555
1.18966e-06
0.000109848
1.67076e-06
0.000110137
2.13445e-06
0.000110419
2.57954e-06
0.000110694
3.00529e-06
3.41193e-06
0.000110961
3.01645e-05
-1.89521e-06
3.05069e-05
-3.83474e-06
3.10157e-05
-5.5875e-06
3.16798e-05
-7.19912e-06
3.24886e-05
-8.68877e-06
3.34313e-05
-1.00631e-05
3.4497e-05
-1.13254e-05
3.56743e-05
-1.24773e-05
3.69519e-05
-1.35196e-05
3.83184e-05
-1.44535e-05
3.97627e-05
-1.52812e-05
4.12742e-05
-1.60061e-05
4.28427e-05
-1.66329e-05
4.44588e-05
-1.71672e-05
4.61137e-05
-1.76156e-05
4.77996e-05
-1.79852e-05
4.95094e-05
-1.82832e-05
5.12368e-05
-1.85171e-05
5.29762e-05
-1.86938e-05
5.47228e-05
-1.88202e-05
5.64725e-05
-1.89023e-05
5.82215e-05
-1.89457e-05
5.99668e-05
-1.89554e-05
6.17057e-05
-1.89358e-05
6.34357e-05
-1.88904e-05
6.5155e-05
-1.88225e-05
6.68615e-05
-1.87345e-05
6.85537e-05
-1.86285e-05
7.023e-05
-1.85061e-05
7.18891e-05
-1.83686e-05
7.35297e-05
-1.82168e-05
7.51504e-05
-1.80515e-05
7.67499e-05
-1.7873e-05
7.83271e-05
-1.76817e-05
7.98807e-05
-1.74776e-05
8.14095e-05
-1.72607e-05
8.29121e-05
-1.70311e-05
8.43875e-05
-1.67884e-05
8.58342e-05
-1.65327e-05
8.72512e-05
-1.62637e-05
8.86371e-05
-1.59813e-05
8.99908e-05
-1.56852e-05
9.13111e-05
-1.53753e-05
9.25968e-05
-1.50515e-05
9.38469e-05
-1.47137e-05
9.50602e-05
-1.43617e-05
9.6236e-05
-1.39955e-05
9.73731e-05
-1.3615e-05
9.8471e-05
-1.32204e-05
9.95288e-05
-1.28115e-05
0.000100546
-1.23886e-05
0.000101522
-1.19519e-05
0.000102457
-1.15014e-05
0.000103351
-1.10375e-05
0.000104203
-1.05606e-05
0.000105015