<?xml version="1.0"?>
<VTKFile type="UnstructuredGrid"  version="0.1"  >
<UnstructuredGrid>
<Piece  NumberOfPoints="42" NumberOfCells="52">
<Points>
<DataArray  type="Float64"  NumberOfComponents="3"  format="ascii">-0.05 0 0  0 0 0  0.05 0 0  -0.05 0.07692307692307693 0  0 0.07692307692307693 0  0.05 0.07692307692307693 0  -0.05 0.1538461538461539 0  0 0.1538461538461539 0  0.05 0.1538461538461539 0  -0.05 0.2307692307692308 0  0 0.2307692307692308 0  0.05 0.2307692307692308 0  -0.05 0.3076923076923077 0  0 0.3076923076923077 0  0.05 0.3076923076923077 0  -0.05 0.3846153846153846 0  0 0.3846153846153846 0  0.05 0.3846153846153846 0  -0.05 0.4615384615384616 0  0 0.4615384615384616 0  0.05 0.4615384615384616 0  -0.05 0.5384615384615384 0  0 0.5384615384615384 0  0.05 0.5384615384615384 0  -0.05 0.6153846153846154 0  0 0.6153846153846154 0  0.05 0.6153846153846154 0  -0.05 0.6923076923076923 0  0 0.6923076923076923 0  0.05 0.6923076923076923 0  -0.05 0.7692307692307693 0  0 0.7692307692307693 0  0.05 0.7692307692307693 0  -0.05 0.8461538461538461 0  0 0.8461538461538461 0  0.05 0.8461538461538461 0  -0.05 0.9230769230769231 0  0 0.9230769230769231 0  0.05 0.9230769230769231 0  -0.05 1 0  0 1 0  0.05 1 0  </DataArray>
</Points>
<Cells>
<DataArray  type="UInt32"  Name="connectivity"  format="ascii">0 1 4  0 3 4  1 2 5  1 4 5  3 4 7  3 6 7  4 5 8  4 7 8  6 7 10  6 9 10  7 8 11  7 10 11  9 10 13  9 12 13  10 11 14  10 13 14  12 13 16  12 15 16  13 14 17  13 16 17  15 16 19  15 18 19  16 17 20  16 19 20  18 19 22  18 21 22  19 20 23  19 22 23  21 22 25  21 24 25  22 23 26  22 25 26  24 25 28  24 27 28  25 26 29  25 28 29  27 28 31  27 30 31  28 29 32  28 31 32  30 31 34  30 33 34  31 32 35  31 34 35  33 34 37  33 36 37  34 35 38  34 37 38  36 37 40  36 39 40  37 38 41  37 40 41  </DataArray>
<DataArray  type="UInt32"  Name="offsets"  format="ascii">3 6 9 12 15 18 21 24 27 30 33 36 39 42 45 48 51 54 57 60 63 66 69 72 75 78 81 84 87 90 93 96 99 102 105 108 111 114 117 120 123 126 129 132 135 138 141 144 147 150 153 156 </DataArray>
<DataArray  type="UInt8"  Name="types"  format="ascii">5 5 5 5 5 5 5 5 5 5 5 5 5 5 5 5 5 5 5 5 5 5 5 5 5 5 5 5 5 5 5 5 5 5 5 5 5 5 5 5 5 5 5 5 5 5 5 5 5 5 5 5 </DataArray>
</Cells>
<PointData  Vectors="Displacement"> 
<DataArray  type="Float64"  Name="Displacement"  NumberOfComponents="3" format="ascii">-3.4720103972585201e-16 3.2299981048317571e-17 0.0000000000000000e+00  2.7389283694697454e-17 -2.8502288004727323e-18 0.0000000000000000e+00  -8.2167851084092362e-17 8.5506864014181973e-18 0.0000000000000000e+00  4.5088427002506343e-03 4.6350789332232269e-03 0.0000000000000000e+00  3.8573474870663084e-03 5.0202060512048441e-05 0.0000000000000000e+00  4.4523230370258271e-03 -4.6074443602894220e-03 0.0000000000000000e+00  1.5118787408900611e-02 8.6694518154605271e-03 0.0000000000000000e+00  1.4601899555233914e-02 5.5058617925344282e-05 0.0000000000000000e+00  1.5118664890220283e-02 -8.5644135747080102e-03 0.0000000000000000e+00  3.1340814717489743e-02 1.2016843231480922e-02 0.0000000000000000e+00  3.0910106795171838e-02 8.1497242650051266e-05 0.0000000000000000e+00  3.1331191156974247e-02 -1.1853191311101326e-02 0.0000000000000000e+00  5.2153516780949011e-02 1.4768260649840364e-02 0.0000000000000000e+00  5.1797851568192846e-02 1.1356881491670117e-04 0.0000000000000000e+00  5.2139323512897170e-02 -1.4542870015233746e-02 0.0000000000000000e+00  7.6707819184370182e-02 1.7007824929310668e-02 0.0000000000000000e+00  7.6418238707042466e-02 1.4753883222626515e-04 0.0000000000000000e+00  7.6691455859043564e-02 -1.6715811788018189e-02 0.0000000000000000e+00  1.0427405214979041e-01 1.8800169744763697e-02 0.0000000000000000e+00  1.0404261702724328e-01 1.8147318584789578e-04 0.0000000000000000e+00  1.0425668774490701e-01 -1.8441285074169533e-02 0.0000000000000000e+00  1.3420913898294040e-01 2.0200893265363274e-02 0.0000000000000000e+00  1.3402868805702370e-01 2.1356930716577612e-04 0.0000000000000000e+00  1.3419229221693377e-01 -1.9778118661366875e-02 0.0000000000000000e+00  1.6595908286092770e-01 2.1267545265746972e-02 0.0000000000000000e+00  1.6582077113791518e-01 2.4348308402743821e-04 0.0000000000000000e+00  1.6594157118412944e-01 -2.0785129528736190e-02 0.0000000000000000e+00  1.9905860780189014e-01 2.2057390663296896e-02 0.0000000000000000e+00  1.9895645526512232e-01 2.7186164300482634e-04 0.0000000000000000e+00  1.9904132861082113e-01 -2.1517295581949751e-02 0.0000000000000000e+00  2.3312841024830541e-01 2.2613745693437704e-02 0.0000000000000000e+00  2.3305366954611217e-01 3.0068501456952617e-04 0.0000000000000000e+00  2.3310773783190711e-01 -2.2018214298175156e-02 0.0000000000000000e+00  2.6782592647233655e-01 2.2980813525997977e-02 0.0000000000000000e+00  2.6778918978765714e-01 3.2687086763998004e-04 0.0000000000000000e+00  2.6781944243586375e-01 -2.2322698154341295e-02 0.0000000000000000e+00  3.0293207440409370e-01 2.3154596759057778e-02 0.0000000000000000e+00  3.0288275911493179e-01 3.5935373638335585e-04 0.0000000000000000e+00  3.0287323382913167e-01 -2.2448017510921566e-02 0.0000000000000000e+00  3.3805461478534826e-01 2.3232255691687610e-02 0.0000000000000000e+00  3.3807962264900937e-01 4.1396228573718850e-04 0.0000000000000000e+00  3.3810449569061984e-01 -2.2492064466574629e-02 0.0000000000000000e+00  </DataArray> 
</PointData> 
</Piece>
</UnstructuredGrid>
</VTKFile>