<?xml version="1.0"?>
<VTKFile type="UnstructuredGrid"  version="0.1"  >
<UnstructuredGrid>
<Piece  NumberOfPoints="42" NumberOfCells="52">
<Points>
<DataArray  type="Float64"  NumberOfComponents="3"  format="ascii">-0.05 0 0  0 0 0  0.05 0 0  -0.05 0.07692307692307693 0  0 0.07692307692307693 0  0.05 0.07692307692307693 0  -0.05 0.1538461538461539 0  0 0.1538461538461539 0  0.05 0.1538461538461539 0  -0.05 0.2307692307692308 0  0 0.2307692307692308 0  0.05 0.2307692307692308 0  -0.05 0.3076923076923077 0  0 0.3076923076923077 0  0.05 0.3076923076923077 0  -0.05 0.3846153846153846 0  0 0.3846153846153846 0  0.05 0.3846153846153846 0  -0.05 0.4615384615384616 0  0 0.4615384615384616 0  0.05 0.4615384615384616 0  -0.05 0.5384615384615384 0  0 0.5384615384615384 0  0.05 0.5384615384615384 0  -0.05 0.6153846153846154 0  0 0.6153846153846154 0  0.05 0.6153846153846154 0  -0.05 0.6923076923076923 0  0 0.6923076923076923 0  0.05 0.6923076923076923 0  -0.05 0.7692307692307693 0  0 0.7692307692307693 0  0.05 0.7692307692307693 0  -0.05 0.8461538461538461 0  0 0.8461538461538461 0  0.05 0.8461538461538461 0  -0.05 0.9230769230769231 0  0 0.9230769230769231 0  0.05 0.9230769230769231 0  -0.05 1 0  0 1 0  0.05 1 0  </DataArray>
</Points>
<Cells>
<DataArray  type="UInt32"  Name="connectivity"  format="ascii">0 1 4  0 3 4  1 2 5  1 4 5  3 4 7  3 6 7  4 5 8  4 7 8  6 7 10  6 9 10  7 8 11  7 10 11  9 10 13  9 12 13  10 11 14  10 13 14  12 13 16  12 15 16  13 14 17  13 16 17  15 16 19  15 18 19  16 17 20  16 19 20  18 19 22  18 21 22  19 20 23  19 22 23  21 22 25  21 24 25  22 23 26  22 25 26  24 25 28  24 27 28  25 26 29  25 28 29  27 28 31  27 30 31  28 29 32  28 31 32  30 31 34  30 33 34  31 32 35  31 34 35  33 34 37  33 36 37  34 35 38  34 37 38  36 37 40  36 39 40  37 38 41  37 40 41  </DataArray>
<DataArray  type="UInt32"  Name="offsets"  format="ascii">3 6 9 12 15 18 21 24 27 30 33 36 39 42 45 48 51 54 57 60 63 66 69 72 75 78 81 84 87 90 93 96 99 102 105 108 111 114 117 120 123 126 129 132 135 138 141 144 147 150 153 156 </DataArray>
<DataArray  type="UInt8"  Name="types"  format="ascii">5 5 5 5 5 5 5 5 5 5 5 5 5 5 5 5 5 5 5 5 5 5 5 5 5 5 5 5 5 5 5 5 5 5 5 5 5 5 5 5 5 5 5 5 5 5 5 5 5 5 5 5 </DataArray>
</Cells>
<PointData  Vectors="Displacement"> 
<DataArray  type="Float64"  Name="Displacement"  NumberOfComponents="3" format="ascii">-3.6458732632851401e-16 4.6455991685991160e-17 0.0000000000000000e+00  2.1474788702389334e-17 -3.2250040392600925e-18 0.0000000000000000e+00  -6.4424366107168004e-17 9.6750121177802782e-18 0.0000000000000000e+00  6.1391954668398290e-03 6.4808772007508503e-03 0.0000000000000000e+00  5.2137025960776618e-03 8.2853232375408352e-06 0.0000000000000000e+00  6.0939005801030699e-03 -6.5700651551503413e-03 0.0000000000000000e+00  2.1185633907459516e-02 1.2423750547397626e-02 0.0000000000000000e+00  2.0414500234369182e-02 -5.1614039585993077e-05 0.0000000000000000e+00  2.1220676877229359e-02 -1.2536402456346987e-02 0.0000000000000000e+00  4.4870648107163215e-02 1.7646050485623344e-02 0.0000000000000000e+00  4.4194347113506061e-02 -8.3854720440473921e-05 0.0000000000000000e+00  4.4898230760476845e-02 -1.7815715868612476e-02 0.0000000000000000e+00  7.6097374522262826e-02 2.2197356661504214e-02 0.0000000000000000e+00  7.5512401600427367e-02 -1.1097704338361258e-04 0.0000000000000000e+00  7.6123842968673569e-02 -2.2424440993488507e-02 0.0000000000000000e+00  1.1386170955061851e-01 2.6103882254941181e-02 0.0000000000000000e+00  1.1336681875716173e-01 -1.3583472394714077e-04 0.0000000000000000e+00  1.1388822315948847e-01 -2.6381879242302102e-02 0.0000000000000000e+00  1.5718081309485837e-01 2.9374938033748577e-02 0.0000000000000000e+00  1.5677442716108414e-01 -1.5758357398940970e-04 0.0000000000000000e+00  1.5720646325070967e-01 -2.9697172551397935e-02 0.0000000000000000e+00  2.0507235526504150e-01 3.2017225867578339e-02 0.0000000000000000e+00  2.0475253144203556e-01 -1.7523563409614225e-04 0.0000000000000000e+00  2.0509630988893507e-01 -3.2374619185849558e-02 0.0000000000000000e+00  2.5656349003558332e-01 3.4050931504802817e-02 0.0000000000000000e+00  2.5632329328630410e-01 -1.8709913582894689e-04 0.0000000000000000e+00  2.5658234049040662e-01 -3.4432149567292458e-02 0.0000000000000000e+00  3.1072675517810872e-01 3.5530752982301593e-02 0.0000000000000000e+00  3.1055705654801280e-01 -1.9166763090802395e-04 0.0000000000000000e+00  3.1073924379828011e-01 -3.5919417115307196e-02 0.0000000000000000e+00  3.6675009401699599e-01 3.6532549046851423e-02 0.0000000000000000e+00  3.6663551217497364e-01 -1.8657314813501168e-04 0.0000000000000000e+00  3.6675215856102766e-01 -3.6914140152467120e-02 0.0000000000000000e+00  4.2393618133670963e-01 3.7157573418150194e-02 0.0000000000000000e+00  4.2387988764673096e-01 -1.7587649830582314e-04 0.0000000000000000e+00  4.2394461441128106e-01 -3.7502705731775492e-02 0.0000000000000000e+00  4.8179878011950600e-01 3.7439230284976657e-02 0.0000000000000000e+00  4.8174049621145892e-01 -1.4903903696360737e-04 0.0000000000000000e+00  4.8174488750304562e-01 -3.7756341170633784e-02 0.0000000000000000e+00  5.3977368096858258e-01 3.7579959271566342e-02 0.0000000000000000e+00  5.3980143594714469e-01 -8.8273950281876924e-05 0.0000000000000000e+00  5.3982837315177468e-01 -3.7850426708688767e-02 0.0000000000000000e+00  </DataArray> 
</PointData> 
</Piece>
</UnstructuredGrid>
</VTKFile>