<?xml version="1.0"?>
<VTKFile type="UnstructuredGrid"  version="0.1"  >
<UnstructuredGrid>
<Piece  NumberOfPoints="42" NumberOfCells="52">
<Points>
<DataArray  type="Float64"  NumberOfComponents="3"  format="ascii">-0.05 0 0  0 0 0  0.05 0 0  -0.05 0.07692307692307693 0  0 0.07692307692307693 0  0.05 0.07692307692307693 0  -0.05 0.1538461538461539 0  0 0.1538461538461539 0  0.05 0.1538461538461539 0  -0.05 0.2307692307692308 0  0 0.2307692307692308 0  0.05 0.2307692307692308 0  -0.05 0.3076923076923077 0  0 0.3076923076923077 0  0.05 0.3076923076923077 0  -0.05 0.3846153846153846 0  0 0.3846153846153846 0  0.05 0.3846153846153846 0  -0.05 0.4615384615384616 0  0 0.4615384615384616 0  0.05 0.4615384615384616 0  -0.05 0.5384615384615384 0  0 0.5384615384615384 0  0.05 0.5384615384615384 0  -0.05 0.6153846153846154 0  0 0.6153846153846154 0  0.05 0.6153846153846154 0  -0.05 0.6923076923076923 0  0 0.6923076923076923 0  0.05 0.6923076923076923 0  -0.05 0.7692307692307693 0  0 0.7692307692307693 0  0.05 0.7692307692307693 0  -0.05 0.8461538461538461 0  0 0.8461538461538461 0  0.05 0.8461538461538461 0  -0.05 0.9230769230769231 0  0 0.9230769230769231 0  0.05 0.9230769230769231 0  -0.05 1 0  0 1 0  0.05 1 0  </DataArray>
</Points>
<Cells>
<DataArray  type="UInt32"  Name="connectivity"  format="ascii">0 1 4  0 3 4  1 2 5  1 4 5  3 4 7  3 6 7  4 5 8  4 7 8  6 7 10  6 9 10  7 8 11  7 10 11  9 10 13  9 12 13  10 11 14  10 13 14  12 13 16  12 15 16  13 14 17  13 16 17  15 16 19  15 18 19  16 17 20  16 19 20  18 19 22  18 21 22  19 20 23  19 22 23  21 22 25  21 24 25  22 23 26  22 25 26  24 25 28  24 27 28  25 26 29  25 28 29  27 28 31  27 30 31  28 29 32  28 31 32  30 31 34  30 33 34  31 32 35  31 34 35  33 34 37  33 36 37  34 35 38  34 37 38  36 37 40  36 39 40  37 38 41  37 40 41  </DataArray>
<DataArray  type="UInt32"  Name="offsets"  format="ascii">3 6 9 12 15 18 21 24 27 30 33 36 39 42 45 48 51 54 57 60 63 66 69 72 75 78 81 84 87 90 93 96 99 102 105 108 111 114 117 120 123 126 129 132 135 138 141 144 147 150 153 156 </DataArray>
<DataArray  type="UInt8"  Name="types"  format="ascii">5 5 5 5 5 5 5 5 5 5 5 5 5 5 5 5 5 5 5 5 5 5 5 5 5 5 5 5 5 5 5 5 5 5 5 5 5 5 5 5 5 5 5 5 5 5 5 5 5 5 5 5 </DataArray>
</Cells>
<PointData  Vectors="Displacement"> 
<DataArray  type="Float64"  Name="Displacement"  NumberOfComponents="3" format="ascii">-3.6461409254161978e-16 4.2027240597868583e-17 0.0000000000000000e+00  2.1513841539414339e-17 -2.8720464180771034e-18 0.0000000000000000e+00  -6.4541524618243023e-17 8.6161392542313109e-18 0.0000000000000000e+00  5.5390177311542745e-03 5.7897525944822156e-03 0.0000000000000000e+00  4.7191421907843119e-03 -7.1586582778948902e-06 0.0000000000000000e+00  5.5075132510602753e-03 -5.8992144273134275e-03 0.0000000000000000e+00  1.9004251854630356e-02 1.1029224003252220e-02 0.0000000000000000e+00  1.8331297130998611e-02 -7.5765085106079726e-05 0.0000000000000000e+00  1.9044453936980624e-02 -1.1188506037900840e-02 0.0000000000000000e+00  4.0049254158787087e-02 1.5558146471685163e-02 0.0000000000000000e+00  3.9469475151342082e-02 -1.1771023092103838e-04 0.0000000000000000e+00  4.0081131463044012e-02 -1.5794579031318964e-02 0.0000000000000000e+00  6.7587333390745047e-02 1.9424897798500967e-02 0.0000000000000000e+00  6.7096432088608784e-02 -1.5294075290014231e-04 0.0000000000000000e+00  6.7616529619788673e-02 -1.9734682207239097e-02 0.0000000000000000e+00  1.0062534495785207e-01 2.2664995515531680e-02 0.0000000000000000e+00  1.0021968886093557e-01 -1.8401714288374119e-04 0.0000000000000000e+00  1.0065247309065521e-01 -2.3038106008208051e-02 0.0000000000000000e+00  1.3821513076895350e-01 2.5307965918711307e-02 0.0000000000000000e+00  1.3788977755916407e-01 -2.1052988608351913e-04 0.0000000000000000e+00  1.3823935033430063e-01 -2.5734941185082825e-02 0.0000000000000000e+00  1.7945026746392209e-01 2.7388613384992731e-02 0.0000000000000000e+00  1.7919949070986529e-01 -2.3229633396477408e-04 0.0000000000000000e+00  1.7947135838737616e-01 -2.7859272240359174e-02 0.0000000000000000e+00  2.2348525654097490e-01 2.8955539483841039e-02 0.0000000000000000e+00  2.2329951927510588e-01 -2.4858949702632349e-04 0.0000000000000000e+00  2.2350093844676244e-01 -2.9459021961476140e-02 0.0000000000000000e+00  2.6956166373355822e-01 3.0079242212389674e-02 0.0000000000000000e+00  2.6943124305223404e-01 -2.5852425173215318e-04 0.0000000000000000e+00  2.6957170836772887e-01 -3.0601182351038838e-02 0.0000000000000000e+00  3.1704860553528791e-01 3.0835794073083757e-02 0.0000000000000000e+00  3.1695920698796953e-01 -2.5968481921017234e-04 0.0000000000000000e+00  3.1704912325553553e-01 -3.1362763334922480e-02 0.0000000000000000e+00  3.6541580994161166e-01 3.1313418077601622e-02 0.0000000000000000e+00  3.6537338856992779e-01 -2.5507614451984387e-04 0.0000000000000000e+00  3.6542405767259106e-01 -3.1816919728279595e-02 0.0000000000000000e+00  4.1432215576250575e-01 3.1531053077212663e-02 0.0000000000000000e+00  4.1426799687514182e-01 -2.3283105503607649e-04 0.0000000000000000e+00  4.1426675734011070e-01 -3.2013335627359696e-02 0.0000000000000000e+00  4.6329458036088211e-01 3.1647159132864804e-02 0.0000000000000000e+00  4.6332385519140706e-01 -1.7344811890515743e-04 0.0000000000000000e+00  4.6335140831080562e-01 -3.2090357651541931e-02 0.0000000000000000e+00  </DataArray> 
</PointData> 
</Piece>
</UnstructuredGrid>
</VTKFile>