<?xml version="1.0"?>
<VTKFile type="UnstructuredGrid"  version="0.1"  >
<UnstructuredGrid>
<Piece  NumberOfPoints="42" NumberOfCells="52">
<Points>
<DataArray  type="Float64"  NumberOfComponents="3"  format="ascii">-0.05 0 0  0 0 0  0.05 0 0  -0.05 0.07692307692307693 0  0 0.07692307692307693 0  0.05 0.07692307692307693 0  -0.05 0.1538461538461539 0  0 0.1538461538461539 0  0.05 0.1538461538461539 0  -0.05 0.2307692307692308 0  0 0.2307692307692308 0  0.05 0.2307692307692308 0  -0.05 0.3076923076923077 0  0 0.3076923076923077 0  0.05 0.3076923076923077 0  -0.05 0.3846153846153846 0  0 0.3846153846153846 0  0.05 0.3846153846153846 0  -0.05 0.4615384615384616 0  0 0.4615384615384616 0  0.05 0.4615384615384616 0  -0.05 0.5384615384615384 0  0 0.5384615384615384 0  0.05 0.5384615384615384 0  -0.05 0.6153846153846154 0  0 0.6153846153846154 0  0.05 0.6153846153846154 0  -0.05 0.6923076923076923 0  0 0.6923076923076923 0  0.05 0.6923076923076923 0  -0.05 0.7692307692307693 0  0 0.7692307692307693 0  0.05 0.7692307692307693 0  -0.05 0.8461538461538461 0  0 0.8461538461538461 0  0.05 0.8461538461538461 0  -0.05 0.9230769230769231 0  0 0.9230769230769231 0  0.05 0.9230769230769231 0  -0.05 1 0  0 1 0  0.05 1 0  </DataArray>
</Points>
<Cells>
<DataArray  type="UInt32"  Name="connectivity"  format="ascii">0 1 4  0 3 4  1 2 5  1 4 5  3 4 7  3 6 7  4 5 8  4 7 8  6 7 10  6 9 10  7 8 11  7 10 11  9 10 13  9 12 13  10 11 14  10 13 14  12 13 16  12 15 16  13 14 17  13 16 17  15 16 19  15 18 19  16 17 20  16 19 20  18 19 22  18 21 22  19 20 23  19 22 23  21 22 25  21 24 25  22 23 26  22 25 26  24 25 28  24 27 28  25 26 29  25 28 29  27 28 31  27 30 31  28 29 32  28 31 32  30 31 34  30 33 34  31 32 35  31 34 35  33 34 37  33 36 37  34 35 38  34 37 38  36 37 40  36 39 40  37 38 41  37 40 41  </DataArray>
<DataArray  type="UInt32"  Name="offsets"  format="ascii">3 6 9 12 15 18 21 24 27 30 33 36 39 42 45 48 51 54 57 60 63 66 69 72 75 78 81 84 87 90 93 96 99 102 105 108 111 114 117 120 123 126 129 132 135 138 141 144 147 150 153 156 </DataArray>
<DataArray  type="UInt8"  Name="types"  format="ascii">5 5 5 5 5 5 5 5 5 5 5 5 5 5 5 5 5 5 5 5 5 5 5 5 5 5 5 5 5 5 5 5 5 5 5 5 5 5 5 5 5 5 5 5 5 5 5 5 5 5 5 5 </DataArray>
</Cells>
<PointData  Vectors="Displacement"> 
<DataArray  type="Float64"  Name="Displacement"  NumberOfComponents="3" format="ascii">-3.6497266434452577e-16 4.8218734099807775e-17 0.0000000000000000e+00  2.1645578719412879e-17 -3.3837573418048397e-18 0.0000000000000000e+00  -6.4936736158238637e-17 1.0151272025414520e-17 0.0000000000000000e+00  6.4462296175986783e-03 6.7349911060942663e-03 0.0000000000000000e+00  5.4952413609323965e-03 2.9373314927602701e-05 0.0000000000000000e+00  6.3940945430649293e-03 -6.7860956207459969e-03 0.0000000000000000e+00  2.2013547575968611e-02 1.2779367994760309e-02 0.0000000000000000e+00  2.1240332487599316e-02 -1.3255940964187962e-05 0.0000000000000000e+00  2.2046050743526002e-02 -1.2816245472809176e-02 0.0000000000000000e+00  4.6224599354341082e-02 1.7944993684905611e-02 0.0000000000000000e+00  4.5567152396229244e-02 -2.9819025343462552e-05 0.0000000000000000e+00  4.6250338655197037e-02 -1.8006929577586078e-02 0.0000000000000000e+00  7.7740083651740011e-02 2.2298939967302554e-02 0.0000000000000000e+00  7.7189604772059328e-02 -4.3445364611507573e-05 0.0000000000000000e+00  7.7763698108695781e-02 -2.2390830199966478e-02 0.0000000000000000e+00  1.1536214484936226e-01 2.5914625659548621e-02 0.0000000000000000e+00  1.1490850151679606e-01 -5.5828861140983237e-05 0.0000000000000000e+00  1.1538289543887538e-01 -2.6032022749573180e-02 0.0000000000000000e+00  1.5801018204468387e-01 2.8870080629741342e-02 0.0000000000000000e+00  1.5764208016127751e-01 -6.4679381610230227e-05 0.0000000000000000e+00  1.5802647760209768e-01 -2.9005744529799579e-02 0.0000000000000000e+00  2.0472270407472345e-01 3.1239047393230600e-02 0.0000000000000000e+00  2.0443143483938209e-01 -6.8232435066450863e-05 0.0000000000000000e+00  2.0473488049975466e-01 -3.1381875066678985e-02 0.0000000000000000e+00  2.5464124286498097e-01 3.3079310005541658e-02 0.0000000000000000e+00  2.5441847932930994e-01 -6.5101879545017749e-05 0.0000000000000000e+00  2.5464797732210837e-01 -3.3216278608039031e-02 0.0000000000000000e+00  3.0697902779936437e-01 3.4442481681695732e-02 0.0000000000000000e+00  3.0681858551946339e-01 -5.5011528413803801e-05 0.0000000000000000e+00  3.0698108173427197e-01 -3.4557953870678566e-02 0.0000000000000000e+00  3.6103000994471596e-01 3.5378939632014494e-02 0.0000000000000000e+00  3.6092006765417373e-01 -3.7230077107619363e-05 0.0000000000000000e+00  3.6102403562211066e-01 -3.5461975931724427e-02 0.0000000000000000e+00  4.1615775084389844e-01 3.5967827619906911e-02 0.0000000000000000e+00  4.1610353551997031e-01 -1.7040579960044625e-05 0.0000000000000000e+00  4.1616086100293642e-01 -3.5995999770849232e-02 0.0000000000000000e+00  4.7191490924888607e-01 3.6234210306158220e-02 0.0000000000000000e+00  4.7185763252396379e-01 1.5152546901559143e-05 0.0000000000000000e+00  4.7185898202249987e-01 -3.6222710844209097e-02 0.0000000000000000e+00  5.2776922794469860e-01 3.6367881454221970e-02 0.0000000000000000e+00  5.2779675784477553e-01 7.6814014381048002e-05 0.0000000000000000e+00  5.2782276897521541e-01 -3.6308005634149314e-02 0.0000000000000000e+00  </DataArray> 
</PointData> 
</Piece>
</UnstructuredGrid>
</VTKFile>