<?xml version="1.0"?>
<VTKFile type="UnstructuredGrid"  version="0.1"  >
<UnstructuredGrid>
<Piece  NumberOfPoints="42" NumberOfCells="52">
<Points>
<DataArray  type="Float64"  NumberOfComponents="3"  format="ascii">-0.05 0 0  0 0 0  0.05 0 0  -0.05 0.07692307692307693 0  0 0.07692307692307693 0  0.05 0.07692307692307693 0  -0.05 0.1538461538461539 0  0 0.1538461538461539 0  0.05 0.1538461538461539 0  -0.05 0.2307692307692308 0  0 0.2307692307692308 0  0.05 0.2307692307692308 0  -0.05 0.3076923076923077 0  0 0.3076923076923077 0  0.05 0.3076923076923077 0  -0.05 0.3846153846153846 0  0 0.3846153846153846 0  0.05 0.3846153846153846 0  -0.05 0.4615384615384616 0  0 0.4615384615384616 0  0.05 0.4615384615384616 0  -0.05 0.5384615384615384 0  0 0.5384615384615384 0  0.05 0.5384615384615384 0  -0.05 0.6153846153846154 0  0 0.6153846153846154 0  0.05 0.6153846153846154 0  -0.05 0.6923076923076923 0  0 0.6923076923076923 0  0.05 0.6923076923076923 0  -0.05 0.7692307692307693 0  0 0.7692307692307693 0  0.05 0.7692307692307693 0  -0.05 0.8461538461538461 0  0 0.8461538461538461 0  0.05 0.8461538461538461 0  -0.05 0.9230769230769231 0  0 0.9230769230769231 0  0.05 0.9230769230769231 0  -0.05 1 0  0 1 0  0.05 1 0  </DataArray>
</Points>
<Cells>
<DataArray  type="UInt32"  Name="connectivity"  format="ascii">0 1 4  0 3 4  1 2 5  1 4 5  3 4 7  3 6 7  4 5 8  4 7 8  6 7 10  6 9 10  7 8 11  7 10 11  9 10 13  9 12 13  10 11 14  10 13 14  12 13 16  12 15 16  13 14 17  13 16 17  15 16 19  15 18 19  16 17 20  16 19 20  18 19 22  18 21 22  19 20 23  19 22 23  21 22 25  21 24 25  22 23 26  22 25 26  24 25 28  24 27 28  25 26 29  25 28 29  27 28 31  27 30 31  28 29 32  28 31 32  30 31 34  30 33 34  31 32 35  31 34 35  33 34 37  33 36 37  34 35 38  34 37 38  36 37 40  36 39 40  37 38 41  37 40 41  </DataArray>
<DataArray  type="UInt32"  Name="offsets"  format="ascii">3 6 9 12 15 18 21 24 27 30 33 36 39 42 45 48 51 54 57 60 63 66 69 72 75 78 81 84 87 90 93 96 99 102 105 108 111 114 117 120 123 126 129 132 135 138 141 144 147 150 153 156 </DataArray>
<DataArray  type="UInt8"  Name="types"  format="ascii">5 5 5 5 5 5 5 5 5 5 5 5 5 5 5 5 5 5 5 5 5 5 5 5 5 5 5 5 5 5 5 5 5 5 5 5 5 5 5 5 5 5 5 5 5 5 5 5 5 5 5 5 </DataArray>
</Cells>
<PointData  Vectors="Displacement"> 
<DataArray  type="Float64"  Name="Displacement"  NumberOfComponents="3" format="ascii">-3.6206283613623565e-16 3.7551977401363775e-17 0.0000000000000000e+00  2.2124958794229049e-17 -2.6109126986550382e-18 0.0000000000000000e+00  -6.6374876382687148e-17 7.8327380959651154e-18 0.0000000000000000e+00  4.9698957856411131e-03 5.2273888298483085e-03 0.0000000000000000e+00  4.2197312786306116e-03 5.0244825332025042e-05 0.0000000000000000e+00  4.9049026288585070e-03 -5.2091360940244675e-03 0.0000000000000000e+00  1.6988901332923460e-02 9.9577731314050982e-03 0.0000000000000000e+00  1.6370755287497603e-02 4.8249116110748700e-05 0.0000000000000000e+00  1.6990399573756768e-02 -9.8684803957632111e-03 0.0000000000000000e+00  3.5761904500095393e-02 1.4052173161742931e-02 0.0000000000000000e+00  3.5226646117024314e-02 6.7073380552374199e-05 0.0000000000000000e+00  3.5756850063591583e-02 -1.3919009322405093e-02 0.0000000000000000e+00  6.0322274644160984e-02 1.7565399449011133e-02 0.0000000000000000e+00  5.9863299730193359e-02 8.9072184744098644e-05 0.0000000000000000e+00  6.0315526453769149e-02 -1.7390844820318132e-02 0.0000000000000000e+00  8.9817453018075602e-02 2.0552734228548412e-02 0.0000000000000000e+00  8.9428236660162350e-02 1.1177059255347724e-04 0.0000000000000000e+00  8.9809638770818476e-02 -2.0333953558626893e-02 0.0000000000000000e+00  1.2348085133268490e-01 2.3063971829466446e-02 0.0000000000000000e+00  1.2315534529249199e-01 1.3549366809295339e-04 0.0000000000000000e+00  1.2347202549674410e-01 -2.2798763612677485e-02 0.0000000000000000e+00  1.6061452553467692e-01 2.5134963744828147e-02 0.0000000000000000e+00  1.6034971397955233e-01 1.6010709796216609e-04 0.0000000000000000e+00  1.6060609038934265e-01 -2.4821040040473530e-02 0.0000000000000000e+00  2.0056206130554613e-01 2.6784763852467277e-02 0.0000000000000000e+00  2.0035485459743710e-01 1.8559864991441258e-04 0.0000000000000000e+00  2.0055327150177110e-01 -2.6420434072966903e-02 0.0000000000000000e+00  2.4268223404424932e-01 2.8030939329180386e-02 0.0000000000000000e+00  2.4253051113017912e-01 2.1181061110187212e-04 0.0000000000000000e+00  2.4267351635303913e-01 -2.7613109106406571e-02 0.0000000000000000e+00  2.8636705730661399e-01 2.8897460626719731e-02 0.0000000000000000e+00  2.8626188782691220e-01 2.4000809244561179e-04 0.0000000000000000e+00  2.8635422041897135e-01 -2.8426013921711152e-02 0.0000000000000000e+00  3.3103845194945558e-01 2.9443097277746820e-02 0.0000000000000000e+00  3.3098737760029140e-01 2.6628216106631530e-04 0.0000000000000000e+00  3.3103807178984407e-01 -2.8905485853632396e-02 0.0000000000000000e+00  3.7629103630710115e-01 2.9689556801336225e-02 0.0000000000000000e+00  3.7623331012937811e-01 3.0168129098643307e-04 0.0000000000000000e+00  3.7623047090642853e-01 -2.9103260389629758e-02 0.0000000000000000e+00  4.2160409282445305e-01 2.9804805002407952e-02 0.0000000000000000e+00  4.2163354855899893e-01 3.6521308532465167e-04 0.0000000000000000e+00  4.2166309488016990e-01 -2.9173453902551445e-02 0.0000000000000000e+00  </DataArray> 
</PointData> 
</Piece>
</UnstructuredGrid>
</VTKFile>