<?xml version="1.0"?>
<VTKFile type="UnstructuredGrid"  version="0.1"  >
<UnstructuredGrid>
<Piece  NumberOfPoints="42" NumberOfCells="52">
<Points>
<DataArray  type="Float64"  NumberOfComponents="3"  format="ascii">-0.05 0 0  0 0 0  0.05 0 0  -0.05 0.07692307692307693 0  0 0.07692307692307693 0  0.05 0.07692307692307693 0  -0.05 0.1538461538461539 0  0 0.1538461538461539 0  0.05 0.1538461538461539 0  -0.05 0.2307692307692308 0  0 0.2307692307692308 0  0.05 0.2307692307692308 0  -0.05 0.3076923076923077 0  0 0.3076923076923077 0  0.05 0.3076923076923077 0  -0.05 0.3846153846153846 0  0 0.3846153846153846 0  0.05 0.3846153846153846 0  -0.05 0.4615384615384616 0  0 0.4615384615384616 0  0.05 0.4615384615384616 0  -0.05 0.5384615384615384 0  0 0.5384615384615384 0  0.05 0.5384615384615384 0  -0.05 0.6153846153846154 0  0 0.6153846153846154 0  0.05 0.6153846153846154 0  -0.05 0.6923076923076923 0  0 0.6923076923076923 0  0.05 0.6923076923076923 0  -0.05 0.7692307692307693 0  0 0.7692307692307693 0  0.05 0.7692307692307693 0  -0.05 0.8461538461538461 0  0 0.8461538461538461 0  0.05 0.8461538461538461 0  -0.05 0.9230769230769231 0  0 0.9230769230769231 0  0.05 0.9230769230769231 0  -0.05 1 0  0 1 0  0.05 1 0  </DataArray>
</Points>
<Cells>
<DataArray  type="UInt32"  Name="connectivity"  format="ascii">0 1 4  0 3 4  1 2 5  1 4 5  3 4 7  3 6 7  4 5 8  4 7 8  6 7 10  6 9 10  7 8 11  7 10 11  9 10 13  9 12 13  10 11 14  10 13 14  12 13 16  12 15 16  13 14 17  13 16 17  15 16 19  15 18 19  16 17 20  16 19 20  18 19 22  18 21 22  19 20 23  19 22 23  21 22 25  21 24 25  22 23 26  22 25 26  24 25 28  24 27 28  25 26 29  25 28 29  27 28 31  27 30 31  28 29 32  28 31 32  30 31 34  30 33 34  31 32 35  31 34 35  33 34 37  33 36 37  34 35 38  34 37 38  36 37 40  36 39 40  37 38 41  37 40 41  </DataArray>
<DataArray  type="UInt32"  Name="offsets"  format="ascii">3 6 9 12 15 18 21 24 27 30 33 36 39 42 45 48 51 54 57 60 63 66 69 72 75 78 81 84 87 90 93 96 99 102 105 108 111 114 117 120 123 126 129 132 135 138 141 144 147 150 153 156 </DataArray>
<DataArray  type="UInt8"  Name="types"  format="ascii">5 5 5 5 5 5 5 5 5 5 5 5 5 5 5 5 5 5 5 5 5 5 5 5 5 5 5 5 5 5 5 5 5 5 5 5 5 5 5 5 5 5 5 5 5 5 5 5 5 5 5 5 </DataArray>
</Cells>
<PointData  Vectors="Displacement"> 
<DataArray  type="Float64"  Name="Displacement"  NumberOfComponents="3" format="ascii">-3.3053271828958865e-16 1.7452616249277367e-18 0.0000000000000000e+00  3.0702877743659558e-17 -1.5432753015166528e-19 0.0000000000000000e+00  -9.2108633230978674e-17 4.6298259045499583e-19 0.0000000000000000e+00  3.4215943242331013e-04 2.6638428862649574e-04 0.0000000000000000e+00  2.9394446700138995e-04 4.4478300447527226e-05 0.0000000000000000e+00  2.9296199456410523e-04 -1.7552314364027892e-04 0.0000000000000000e+00  8.0841748679527832e-04 3.7257100901160037e-04 0.0000000000000000e+00  7.8089352946064076e-04 8.9158111235405018e-05 0.0000000000000000e+00  7.6818561855990838e-04 -1.9176793652229940e-04 0.0000000000000000e+00  1.2567505061505911e-03 3.7090790590115749e-04 0.0000000000000000e+00  1.2396503334951637e-03 1.3201525643620840e-04 0.0000000000000000e+00  1.2138780192537341e-03 -1.0508141166222386e-04 0.0000000000000000e+00  1.5651286782654449e-03 3.1084736713855887e-04 0.0000000000000000e+00  1.5542385348750324e-03 1.6817850165564972e-04 0.0000000000000000e+00  1.5271606195609211e-03 2.7035563788303712e-05 0.0000000000000000e+00  1.6930283531895636e-03 2.3358589911533247e-04 0.0000000000000000e+00  1.6824401556620806e-03 1.9515615524652970e-04 0.0000000000000000e+00  1.6586092092787036e-03 1.5884624901892256e-04 0.0000000000000000e+00  1.6650643684623387e-03 1.8466549379102885e-04 0.0000000000000000e+00  1.6489729738997079e-03 2.1699671416094190e-04 0.0000000000000000e+00  1.6317228504460538e-03 2.5309126961473038e-04 0.0000000000000000e+00  1.5710204049451612e-03 1.8662952040699737e-04 0.0000000000000000e+00  1.5491627824473113e-03 2.4124505143417440e-04 0.0000000000000000e+00  1.5355560229969396e-03 3.0094110977483304e-04 0.0000000000000000e+00  1.4727616007373977e-03 2.1679208590338699e-04 0.0000000000000000e+00  1.4469677080392286e-03 2.7206754261261589e-04 0.0000000000000000e+00  1.4343279493066140e-03 3.3010398951844732e-04 0.0000000000000000e+00  1.3830119616943021e-03 2.5417002624257730e-04 0.0000000000000000e+00  1.3626933817123732e-03 3.0047241662198846e-04 0.0000000000000000e+00  1.3547110686742349e-03 3.4560428525417202e-04 0.0000000000000000e+00  1.3202618126204101e-03 2.8677287162468456e-04 0.0000000000000000e+00  1.2972748870595406e-03 3.1976115581525144e-04 0.0000000000000000e+00  1.2894343244627337e-03 3.5816327461850246e-04 0.0000000000000000e+00  1.2573269990235809e-03 3.2271010818127571e-04 0.0000000000000000e+00  1.2474100763810525e-03 3.4618596354410881e-04 0.0000000000000000e+00  1.2394242531640783e-03 3.7187103024721279e-04 0.0000000000000000e+00  1.2674714079271194e-03 3.5407586725715723e-04 0.0000000000000000e+00  1.2265718606746911e-03 3.7377984683673943e-04 0.0000000000000000e+00  1.2024530365830751e-03 3.9464274579317343e-04 0.0000000000000000e+00  1.1733294965657593e-03 3.5640682693337456e-04 0.0000000000000000e+00  1.1870065699095792e-03 4.2108726371271768e-04 0.0000000000000000e+00  1.2004629270277697e-03 4.0517469650736188e-04 0.0000000000000000e+00  </DataArray> 
</PointData> 
</Piece>
</UnstructuredGrid>
</VTKFile>