<?xml version="1.0"?>
<VTKFile type="UnstructuredGrid"  version="0.1"  >
<UnstructuredGrid>
<Piece  NumberOfPoints="42" NumberOfCells="52">
<Points>
<DataArray  type="Float64"  NumberOfComponents="3"  format="ascii">-0.05 0 0  0 0 0  0.05 0 0  -0.05 0.07692307692307693 0  0 0.07692307692307693 0  0.05 0.07692307692307693 0  -0.05 0.1538461538461539 0  0 0.1538461538461539 0  0.05 0.1538461538461539 0  -0.05 0.2307692307692308 0  0 0.2307692307692308 0  0.05 0.2307692307692308 0  -0.05 0.3076923076923077 0  0 0.3076923076923077 0  0.05 0.3076923076923077 0  -0.05 0.3846153846153846 0  0 0.3846153846153846 0  0.05 0.3846153846153846 0  -0.05 0.4615384615384616 0  0 0.4615384615384616 0  0.05 0.4615384615384616 0  -0.05 0.5384615384615384 0  0 0.5384615384615384 0  0.05 0.5384615384615384 0  -0.05 0.6153846153846154 0  0 0.6153846153846154 0  0.05 0.6153846153846154 0  -0.05 0.6923076923076923 0  0 0.6923076923076923 0  0.05 0.6923076923076923 0  -0.05 0.7692307692307693 0  0 0.7692307692307693 0  0.05 0.7692307692307693 0  -0.05 0.8461538461538461 0  0 0.8461538461538461 0  0.05 0.8461538461538461 0  -0.05 0.9230769230769231 0  0 0.9230769230769231 0  0.05 0.9230769230769231 0  -0.05 1 0  0 1 0  0.05 1 0  </DataArray>
</Points>
<Cells>
<DataArray  type="UInt32"  Name="connectivity"  format="ascii">0 1 4  0 3 4  1 2 5  1 4 5  3 4 7  3 6 7  4 5 8  4 7 8  6 7 10  6 9 10  7 8 11  7 10 11  9 10 13  9 12 13  10 11 14  10 13 14  12 13 16  12 15 16  13 14 17  13 16 17  15 16 19  15 18 19  16 17 20  16 19 20  18 19 22  18 21 22  19 20 23  19 22 23  21 22 25  21 24 25  22 23 26  22 25 26  24 25 28  24 27 28  25 26 29  25 28 29  27 28 31  27 30 31  28 29 32  28 31 32  30 31 34  30 33 34  31 32 35  31 34 35  33 34 37  33 36 37  34 35 38  34 37 38  36 37 40  36 39 40  37 38 41  37 40 41  </DataArray>
<DataArray  type="UInt32"  Name="offsets"  format="ascii">3 6 9 12 15 18 21 24 27 30 33 36 39 42 45 48 51 54 57 60 63 66 69 72 75 78 81 84 87 90 93 96 99 102 105 108 111 114 117 120 123 126 129 132 135 138 141 144 147 150 153 156 </DataArray>
<DataArray  type="UInt8"  Name="types"  format="ascii">5 5 5 5 5 5 5 5 5 5 5 5 5 5 5 5 5 5 5 5 5 5 5 5 5 5 5 5 5 5 5 5 5 5 5 5 5 5 5 5 5 5 5 5 5 5 5 5 5 5 5 5 </DataArray>
</Cells>
<PointData  Vectors="Displacement"> 
<DataArray  type="Float64"  Name="Displacement"  NumberOfComponents="3" format="ascii">-3.6436751817803502e-16 4.9090071426554657e-17 0.0000000000000000e+00  2.1608977255770297e-17 -3.4488502526388759e-18 0.0000000000000000e+00  -6.4826931767310892e-17 1.0346550757916628e-17 0.0000000000000000e+00  6.6453945371761237e-03 6.8624969141277891e-03 0.0000000000000000e+00  5.6885590541558414e-03 3.8384751605003892e-05 0.0000000000000000e+00  6.5937215998237353e-03 -6.8976218207684641e-03 0.0000000000000000e+00  2.2464531936859791e-02 1.2892933429610155e-02 0.0000000000000000e+00  2.1703639901409930e-02 4.9802012291916212e-06 0.0000000000000000e+00  2.2496591800730516e-02 -1.2892707934475474e-02 0.0000000000000000e+00  4.6781389506743702e-02 1.7917367733222785e-02 0.0000000000000000e+00  4.6151752977501952e-02 2.0581745983896318e-06 0.0000000000000000e+00  4.6803551848451551e-02 -1.7914607398239552e-02 0.0000000000000000e+00  7.8065887830027922e-02 2.2019611871078221e-02 0.0000000000000000e+00  7.7556490466716851e-02 6.4343606846989460e-06 0.0000000000000000e+00  7.8082747358639459e-02 -2.2010775800870904e-02 0.0000000000000000e+00  1.1495473882221913e-01 2.5287663143567538e-02 0.0000000000000000e+00  1.1455320516842801e-01 1.5993567906117675e-05 0.0000000000000000e+00  1.1496574026635786e-01 -2.5260470596738201e-02 0.0000000000000000e+00  1.5622113821922123e-01 2.7818090073716960e-02 0.0000000000000000e+00  1.5591207252094205e-01 3.1955916946519902e-05 0.0000000000000000e+00  1.5622457009591839e-01 -2.7759582632960335e-02 0.0000000000000000e+00  2.0079713134124796e-01 2.9723054268377382e-02 0.0000000000000000e+00  2.0056489970243618e-01 5.4583991114105482e-05 0.0000000000000000e+00  2.0079346450794275e-01 -2.9619545139441050e-02 0.0000000000000000e+00  2.4780230246106330e-01 3.1117827157691336e-02 0.0000000000000000e+00  2.4763118164022196e-01 8.3494079181595414e-05 0.0000000000000000e+00  2.4779147226632092e-01 -3.0957199358253890e-02 0.0000000000000000e+00  2.9653041630431221e-01 3.2106685431197914e-02 0.0000000000000000e+00  2.9640917382056331e-01 1.1714462629224471e-04 0.0000000000000000e+00  2.9651512826253645e-01 -3.1878007670450195e-02 0.0000000000000000e+00  3.4642806318086483e-01 3.2770226551124736e-02 0.0000000000000000e+00  3.4634338623470495e-01 1.5452314240406987e-04 0.0000000000000000e+00  3.4640700932283497e-01 -3.2470057081378706e-02 0.0000000000000000e+00  3.9703988163729576e-01 3.3192215478202274e-02 0.0000000000000000e+00  3.9699813795034827e-01 1.8922482732773322e-04 0.0000000000000000e+00  3.9703167159819469e-01 -3.2809309005516513e-02 0.0000000000000000e+00  4.4809348456934334e-01 3.3387598955415564e-02 0.0000000000000000e+00  4.4803992272783538e-01 2.2979206402023409e-04 0.0000000000000000e+00  4.4803175420650293e-01 -3.2946792811812370e-02 0.0000000000000000e+00  4.9919483147190385e-01 3.3502021235700216e-02 0.0000000000000000e+00  4.9922259032620042e-01 2.9299319091639713e-04 0.0000000000000000e+00  4.9924669942709771e-01 -3.3009886357241933e-02 0.0000000000000000e+00  </DataArray> 
</PointData> 
</Piece>
</UnstructuredGrid>
</VTKFile>