<?xml version="1.0"?>
<VTKFile type="UnstructuredGrid"  version="0.1"  >
<UnstructuredGrid>
<Piece  NumberOfPoints="42" NumberOfCells="52">
<Points>
<DataArray  type="Float64"  NumberOfComponents="3"  format="ascii">-0.05 0 0  0 0 0  0.05 0 0  -0.05 0.07692307692307693 0  0 0.07692307692307693 0  0.05 0.07692307692307693 0  -0.05 0.1538461538461539 0  0 0.1538461538461539 0  0.05 0.1538461538461539 0  -0.05 0.2307692307692308 0  0 0.2307692307692308 0  0.05 0.2307692307692308 0  -0.05 0.3076923076923077 0  0 0.3076923076923077 0  0.05 0.3076923076923077 0  -0.05 0.3846153846153846 0  0 0.3846153846153846 0  0.05 0.3846153846153846 0  -0.05 0.4615384615384616 0  0 0.4615384615384616 0  0.05 0.4615384615384616 0  -0.05 0.5384615384615384 0  0 0.5384615384615384 0  0.05 0.5384615384615384 0  -0.05 0.6153846153846154 0  0 0.6153846153846154 0  0.05 0.6153846153846154 0  -0.05 0.6923076923076923 0  0 0.6923076923076923 0  0.05 0.6923076923076923 0  -0.05 0.7692307692307693 0  0 0.7692307692307693 0  0.05 0.7692307692307693 0  -0.05 0.8461538461538461 0  0 0.8461538461538461 0  0.05 0.8461538461538461 0  -0.05 0.9230769230769231 0  0 0.9230769230769231 0  0.05 0.9230769230769231 0  -0.05 1 0  0 1 0  0.05 1 0  </DataArray>
</Points>
<Cells>
<DataArray  type="UInt32"  Name="connectivity"  format="ascii">0 1 4  0 3 4  1 2 5  1 4 5  3 4 7  3 6 7  4 5 8  4 7 8  6 7 10  6 9 10  7 8 11  7 10 11  9 10 13  9 12 13  10 11 14  10 13 14  12 13 16  12 15 16  13 14 17  13 16 17  15 16 19  15 18 19  16 17 20  16 19 20  18 19 22  18 21 22  19 20 23  19 22 23  21 22 25  21 24 25  22 23 26  22 25 26  24 25 28  24 27 28  25 26 29  25 28 29  27 28 31  27 30 31  28 29 32  28 31 32  30 31 34  30 33 34  31 32 35  31 34 35  33 34 37  33 36 37  34 35 38  34 37 38  36 37 40  36 39 40  37 38 41  37 40 41  </DataArray>
<DataArray  type="UInt32"  Name="offsets"  format="ascii">3 6 9 12 15 18 21 24 27 30 33 36 39 42 45 48 51 54 57 60 63 66 69 72 75 78 81 84 87 90 93 96 99 102 105 108 111 114 117 120 123 126 129 132 135 138 141 144 147 150 153 156 </DataArray>
<DataArray  type="UInt8"  Name="types"  format="ascii">5 5 5 5 5 5 5 5 5 5 5 5 5 5 5 5 5 5 5 5 5 5 5 5 5 5 5 5 5 5 5 5 5 5 5 5 5 5 5 5 5 5 5 5 5 5 5 5 5 5 5 5 </DataArray>
</Cells>
<PointData  Vectors="Displacement"> 
<DataArray  type="Float64"  Name="Displacement"  NumberOfComponents="3" format="ascii">-3.4787254345848854e-16 1.7205431584145613e-17 0.0000000000000000e+00  2.7901238175936397e-17 -1.4570706860694463e-18 0.0000000000000000e+00  -8.3703714527809204e-17 4.3712120582083389e-18 0.0000000000000000e+00  2.3840588685969219e-03 2.4083611403340863e-03 0.0000000000000000e+00  2.0395670973219209e-03 4.5867337019246854e-05 0.0000000000000000e+00  2.3321752603694033e-03 -2.3515674699070756e-03 0.0000000000000000e+00  7.8290686069429315e-03 4.4444008618036868e-03 0.0000000000000000e+00  7.5607764900794371e-03 6.9985032085484458e-05 0.0000000000000000e+00  7.8095578329630197e-03 -4.3055048848698908e-03 0.0000000000000000e+00  1.6028697388584544e-02 6.0893436630634484e-03 0.0000000000000000e+00  1.5808729128333941e-02 1.0449100641247788e-04 0.0000000000000000e+00  1.6003109351441981e-02 -5.8781454078038987e-03 0.0000000000000000e+00  2.6413922889128361e-02 7.4014978138338084e-03 0.0000000000000000e+00  2.6235654629454846e-02 1.4199352346676308e-04 0.0000000000000000e+00  2.6385965290080683e-02 -7.1165109373824498e-03 0.0000000000000000e+00  3.8512202464208424e-02 8.4304352291688610e-03 0.0000000000000000e+00  3.8369680744158072e-02 1.8111265845954558e-04 0.0000000000000000e+00  3.8482384806007477e-02 -8.0677135191820799e-03 0.0000000000000000e+00  5.1921352351428092e-02 9.2206993095778310e-03 0.0000000000000000e+00  5.1808365404587789e-02 2.2176137519522811e-04 0.0000000000000000e+00  5.1889558176574785e-02 -8.7771604414034459e-03 0.0000000000000000e+00  6.6305270588488535e-02 9.8155623531411083e-03 0.0000000000000000e+00  6.6216437213527962e-02 2.6339019252785272e-04 0.0000000000000000e+00  6.6272501438020714e-02 -9.2891152135332160e-03 0.0000000000000000e+00  8.1396798928143499e-02 1.0256558261661317e-02 0.0000000000000000e+00  8.1326250958493926e-02 3.0536160371453700e-04 0.0000000000000000e+00  8.1362879514625230e-02 -9.6466391767699618e-03 0.0000000000000000e+00  9.6990107605922637e-02 1.0581623236592336e-02 0.0000000000000000e+00  9.6934816218675640e-02 3.4672534768685618e-04 0.0000000000000000e+00  9.6957085877799914e-02 -9.8888406400502987e-03 0.0000000000000000e+00  1.1294045883311063e-01 1.0817247881877127e-02 0.0000000000000000e+00  1.1289438938589774e-01 3.8745730557946154e-04 0.0000000000000000e+00  1.1290576260951106e-01 -1.0045347199469232e-02 0.0000000000000000e+00  1.2911405097274872e-01 1.0987213817202232e-02 0.0000000000000000e+00  1.2909228029053507e-01 4.2330837716027383e-04 0.0000000000000000e+00  1.2909742040788705e-01 -1.0136643053895994e-02 0.0000000000000000e+00  1.4549046196660931e-01 1.1078209301732074e-02 0.0000000000000000e+00  1.4544271808351511e-01 4.6213294960275361e-04 0.0000000000000000e+00  1.4542183359649274e-01 -1.0161439242406633e-02 0.0000000000000000e+00  1.6180126419502047e-01 1.1118183681442956e-02 0.0000000000000000e+00  1.6182614392788594e-01 5.1922163522864556e-04 0.0000000000000000e+00  1.6185271183739747e-01 -1.0167786078807729e-02 0.0000000000000000e+00  </DataArray> 
</PointData> 
</Piece>
</UnstructuredGrid>
</VTKFile>