<?xml version="1.0"?>
<VTKFile type="UnstructuredGrid"  version="0.1"  >
<UnstructuredGrid>
<Piece  NumberOfPoints="42" NumberOfCells="52">
<Points>
<DataArray  type="Float64"  NumberOfComponents="3"  format="ascii">-0.05 0 0  0 0 0  0.05 0 0  -0.05 0.07692307692307693 0  0 0.07692307692307693 0  0.05 0.07692307692307693 0  -0.05 0.1538461538461539 0  0 0.1538461538461539 0  0.05 0.1538461538461539 0  -0.05 0.2307692307692308 0  0 0.2307692307692308 0  0.05 0.2307692307692308 0  -0.05 0.3076923076923077 0  0 0.3076923076923077 0  0.05 0.3076923076923077 0  -0.05 0.3846153846153846 0  0 0.3846153846153846 0  0.05 0.3846153846153846 0  -0.05 0.4615384615384616 0  0 0.4615384615384616 0  0.05 0.4615384615384616 0  -0.05 0.5384615384615384 0  0 0.5384615384615384 0  0.05 0.5384615384615384 0  -0.05 0.6153846153846154 0  0 0.6153846153846154 0  0.05 0.6153846153846154 0  -0.05 0.6923076923076923 0  0 0.6923076923076923 0  0.05 0.6923076923076923 0  -0.05 0.7692307692307693 0  0 0.7692307692307693 0  0.05 0.7692307692307693 0  -0.05 0.8461538461538461 0  0 0.8461538461538461 0  0.05 0.8461538461538461 0  -0.05 0.9230769230769231 0  0 0.9230769230769231 0  0.05 0.9230769230769231 0  -0.05 1 0  0 1 0  0.05 1 0  </DataArray>
</Points>
<Cells>
<DataArray  type="UInt32"  Name="connectivity"  format="ascii">0 1 4  0 3 4  1 2 5  1 4 5  3 4 7  3 6 7  4 5 8  4 7 8  6 7 10  6 9 10  7 8 11  7 10 11  9 10 13  9 12 13  10 11 14  10 13 14  12 13 16  12 15 16  13 14 17  13 16 17  15 16 19  15 18 19  16 17 20  16 19 20  18 19 22  18 21 22  19 20 23  19 22 23  21 22 25  21 24 25  22 23 26  22 25 26  24 25 28  24 27 28  25 26 29  25 28 29  27 28 31  27 30 31  28 29 32  28 31 32  30 31 34  30 33 34  31 32 35  31 34 35  33 34 37  33 36 37  34 35 38  34 37 38  36 37 40  36 39 40  37 38 41  37 40 41  </DataArray>
<DataArray  type="UInt32"  Name="offsets"  format="ascii">3 6 9 12 15 18 21 24 27 30 33 36 39 42 45 48 51 54 57 60 63 66 69 72 75 78 81 84 87 90 93 96 99 102 105 108 111 114 117 120 123 126 129 132 135 138 141 144 147 150 153 156 </DataArray>
<DataArray  type="UInt8"  Name="types"  format="ascii">5 5 5 5 5 5 5 5 5 5 5 5 5 5 5 5 5 5 5 5 5 5 5 5 5 5 5 5 5 5 5 5 5 5 5 5 5 5 5 5 5 5 5 5 5 5 5 5 5 5 5 5 </DataArray>
</Cells>
<PointData  Vectors="Displacement"> 
<DataArray  type="Float64"  Name="Displacement"  NumberOfComponents="3" format="ascii">-3.4714278233875535e-16 1.6887453911557445e-17 0.0000000000000000e+00  2.8244804589750774e-17 -1.4542549973644354e-18 0.0000000000000000e+00  -8.4734413769252328e-17 4.3627649920933062e-18 0.0000000000000000e+00  2.3554587233326750e-03 2.3087272474477767e-03 0.0000000000000000e+00  2.0380405043798578e-03 -7.2040299710303047e-06 0.0000000000000000e+00  2.3381387662432277e-03 -2.3597464247831204e-03 0.0000000000000000e+00  7.6883649633906264e-03 4.1976553127936762e-03 0.0000000000000000e+00  7.4525871071814626e-03 -3.8269816579854295e-05 0.0000000000000000e+00  7.7010947485153013e-03 -4.2744967135842611e-03 0.0000000000000000e+00  1.5597627113836100e-02 5.6491960512938160e-03 0.0000000000000000e+00  1.5416077600322212e-02 -5.5930766138652839e-05 0.0000000000000000e+00  1.5602497582616589e-02 -5.7580481945610097e-03 0.0000000000000000e+00  2.5436533538217249e-02 6.7211545878251193e-03 0.0000000000000000e+00  2.5302319611567314e-02 -6.6946177431863194e-05 0.0000000000000000e+00  2.5436598739054361e-02 -6.8529633265795725e-03 0.0000000000000000e+00  3.6653041389745546e-02 7.4663846976019471e-03 0.0000000000000000e+00  3.6558993521351009e-02 -7.1779554187276505e-05 0.0000000000000000e+00  3.6648028801186415e-02 -7.6081122611753342e-03 0.0000000000000000e+00  4.8773819883226280e-02 7.9391808724501214e-03 0.0000000000000000e+00  4.8711792064744852e-02 -6.9986522832478040e-05 0.0000000000000000e+00  4.8763172144013656e-02 -8.0776235754915042e-03 0.0000000000000000e+00  6.1411821084675397e-02 8.1981775698867672e-03 0.0000000000000000e+00  6.1374036779524598e-02 -6.1933642746248984e-05 0.0000000000000000e+00  6.1396396331784925e-02 -8.3207452149495209e-03 0.0000000000000000e+00  7.4276011745749784e-02 8.3026358246505449e-03 0.0000000000000000e+00  7.4254018696467500e-02 -4.8322740695719795e-05 0.0000000000000000e+00  7.4255589592474192e-02 -8.3983254856160906e-03 0.0000000000000000e+00  8.7164344170230224e-02 8.3099268150228309e-03 0.0000000000000000e+00  8.7151890607599813e-02 -3.0258730196818684e-05 0.0000000000000000e+00  8.7140782600038033e-02 -8.3693007616433331e-03 0.0000000000000000e+00  9.9969196387900097e-02 8.2727583745834977e-03 0.0000000000000000e+00  9.9956205978077764e-02 -7.9200698051068535e-06 0.0000000000000000e+00  9.9939750938201150e-02 -8.2896383791769036e-03 0.0000000000000000e+00  1.1264365165997151e-01 8.2456490387539921e-03 0.0000000000000000e+00  1.1264177232552045e-01 1.4592163011203281e-05 0.0000000000000000e+00  1.1262858459777771e-01 -8.2115285221827806e-03 0.0000000000000000e+00  1.2530752580053672e-01 8.2381159204414755e-03 0.0000000000000000e+00  1.2526731858944029e-01 4.4905377977212346e-05 0.0000000000000000e+00  1.2523936294352550e-01 -8.1535519725274390e-03 0.0000000000000000e+00  1.3784735616906513e-01 8.2539362274491115e-03 0.0000000000000000e+00  1.3787102770407431e-01 9.7655600535855161e-05 0.0000000000000000e+00  1.3789371271581777e-01 -8.1410587376480516e-03 0.0000000000000000e+00  </DataArray> 
</PointData> 
</Piece>
</UnstructuredGrid>
</VTKFile>