<?xml version="1.0"?>
<VTKFile type="UnstructuredGrid"  version="0.1"  >
<UnstructuredGrid>
<Piece  NumberOfPoints="42" NumberOfCells="52">
<Points>
<DataArray  type="Float64"  NumberOfComponents="3"  format="ascii">-0.05 0 0  0 0 0  0.05 0 0  -0.05 0.07692307692307693 0  0 0.07692307692307693 0  0.05 0.07692307692307693 0  -0.05 0.1538461538461539 0  0 0.1538461538461539 0  0.05 0.1538461538461539 0  -0.05 0.2307692307692308 0  0 0.2307692307692308 0  0.05 0.2307692307692308 0  -0.05 0.3076923076923077 0  0 0.3076923076923077 0  0.05 0.3076923076923077 0  -0.05 0.3846153846153846 0  0 0.3846153846153846 0  0.05 0.3846153846153846 0  -0.05 0.4615384615384616 0  0 0.4615384615384616 0  0.05 0.4615384615384616 0  -0.05 0.5384615384615384 0  0 0.5384615384615384 0  0.05 0.5384615384615384 0  -0.05 0.6153846153846154 0  0 0.6153846153846154 0  0.05 0.6153846153846154 0  -0.05 0.6923076923076923 0  0 0.6923076923076923 0  0.05 0.6923076923076923 0  -0.05 0.7692307692307693 0  0 0.7692307692307693 0  0.05 0.7692307692307693 0  -0.05 0.8461538461538461 0  0 0.8461538461538461 0  0.05 0.8461538461538461 0  -0.05 0.9230769230769231 0  0 0.9230769230769231 0  0.05 0.9230769230769231 0  -0.05 1 0  0 1 0  0.05 1 0  </DataArray>
</Points>
<Cells>
<DataArray  type="UInt32"  Name="connectivity"  format="ascii">0 1 4  0 3 4  1 2 5  1 4 5  3 4 7  3 6 7  4 5 8  4 7 8  6 7 10  6 9 10  7 8 11  7 10 11  9 10 13  9 12 13  10 11 14  10 13 14  12 13 16  12 15 16  13 14 17  13 16 17  15 16 19  15 18 19  16 17 20  16 19 20  18 19 22  18 21 22  19 20 23  19 22 23  21 22 25  21 24 25  22 23 26  22 25 26  24 25 28  24 27 28  25 26 29  25 28 29  27 28 31  27 30 31  28 29 32  28 31 32  30 31 34  30 33 34  31 32 35  31 34 35  33 34 37  33 36 37  34 35 38  34 37 38  36 37 40  36 39 40  37 38 41  37 40 41  </DataArray>
<DataArray  type="UInt32"  Name="offsets"  format="ascii">3 6 9 12 15 18 21 24 27 30 33 36 39 42 45 48 51 54 57 60 63 66 69 72 75 78 81 84 87 90 93 96 99 102 105 108 111 114 117 120 123 126 129 132 135 138 141 144 147 150 153 156 </DataArray>
<DataArray  type="UInt8"  Name="types"  format="ascii">5 5 5 5 5 5 5 5 5 5 5 5 5 5 5 5 5 5 5 5 5 5 5 5 5 5 5 5 5 5 5 5 5 5 5 5 5 5 5 5 5 5 5 5 5 5 5 5 5 5 5 5 </DataArray>
</Cells>
<PointData  Vectors="Displacement"> 
<DataArray  type="Float64"  Name="Displacement"  NumberOfComponents="3" format="ascii">-3.6205367729358411e-16 3.5852075275274629e-17 0.0000000000000000e+00  2.2100321109988143e-17 -2.4651320499501142e-18 0.0000000000000000e+00  -6.6300963329964428e-17 7.3953961498503431e-18 0.0000000000000000e+00  4.8517628208176542e-03 4.9255996391932592e-03 0.0000000000000000e+00  4.1699749184464048e-03 4.2500940901827943e-05 0.0000000000000000e+00  4.8036038238399642e-03 -4.9191803098084519e-03 0.0000000000000000e+00  1.6138634233274461e-02 9.1288103567089100e-03 0.0000000000000000e+00  1.5610149000592013e-02 3.5721613082772801e-05 0.0000000000000000e+00  1.6149803116009002e-02 -9.0627532051652179e-03 0.0000000000000000e+00  3.3217132493342211e-02 1.2526499193561576e-02 0.0000000000000000e+00  3.2790375197351139e-02 5.3500755831349500e-05 0.0000000000000000e+00  3.3217195351951015e-02 -1.2418756242092151e-02 0.0000000000000000e+00  5.4885408281991718e-02 1.5215200882368794e-02 0.0000000000000000e+00  5.4548285878657662e-02 7.9510577735765996e-05 0.0000000000000000e+00  5.4878985664118259e-02 -1.5057742511411350e-02 0.0000000000000000e+00  8.0114922817099088e-02 1.7287569174661295e-02 0.0000000000000000e+00  7.9855249662364097e-02 1.1115643970036475e-04 0.0000000000000000e+00  8.0102609560813165e-02 -1.7067830948043761e-02 0.0000000000000000e+00  1.0801731426415973e-01 1.8836984556385383e-02 0.0000000000000000e+00  1.0782126514964212e-01 1.4773332115724093e-04 0.0000000000000000e+00  1.0799898641236025e-01 -1.8544981044649200e-02 0.0000000000000000e+00  1.3785426776764076e-01 1.9964917866732632e-02 0.0000000000000000e+00  1.3770811507188288e-01 1.8778640917739068e-04 0.0000000000000000e+00  1.3783127623992641e-01 -1.9593380775295245e-02 0.0000000000000000e+00  1.6905617179672441e-01 2.0774663036022975e-02 0.0000000000000000e+00  1.6894621128307449e-01 2.2990655656801638e-04 0.0000000000000000e+00  1.6902907808163717e-01 -2.0319590820302252e-02 0.0000000000000000e+00  2.0121220522305816e-01 2.1357912907528500e-02 0.0000000000000000e+00  2.0112963958841293e-01 2.7258752640270238e-04 0.0000000000000000e+00  2.0118394458566530e-01 -2.0817078051538169e-02 0.0000000000000000e+00  2.3404392200397975e-01 2.1774758247886324e-02 0.0000000000000000e+00  2.3397969580215358e-01 3.1559229056675941e-04 0.0000000000000000e+00  2.3401317543100475e-01 -2.1150783333012443e-02 0.0000000000000000e+00  2.6732108028080509e-01 2.2068607111059530e-02 0.0000000000000000e+00  2.6728873078766224e-01 3.5382092060251438e-04 0.0000000000000000e+00  2.6730756762824792e-01 -2.1357151698813939e-02 0.0000000000000000e+00  3.0093371718400358e-01 2.2219091999015412e-02 0.0000000000000000e+00  3.0088091094853758e-01 3.9628112744642089e-04 0.0000000000000000e+00  3.0086611257012752e-01 -2.1441212944372838e-02 0.0000000000000000e+00  3.3454246722331560e-01 2.2301321042873318e-02 0.0000000000000000e+00  3.3457194286484965e-01 4.6039659724010163e-04 0.0000000000000000e+00  3.3460016200952286e-01 -2.1479187039539188e-02 0.0000000000000000e+00  </DataArray> 
</PointData> 
</Piece>
</UnstructuredGrid>
</VTKFile>