<?xml version="1.0"?>
<VTKFile type="UnstructuredGrid"  version="0.1"  >
<UnstructuredGrid>
<Piece  NumberOfPoints="42" NumberOfCells="52">
<Points>
<DataArray  type="Float64"  NumberOfComponents="3"  format="ascii">-0.05 0 0  0 0 0  0.05 0 0  -0.05 0.07692307692307693 0  0 0.07692307692307693 0  0.05 0.07692307692307693 0  -0.05 0.1538461538461539 0  0 0.1538461538461539 0  0.05 0.1538461538461539 0  -0.05 0.2307692307692308 0  0 0.2307692307692308 0  0.05 0.2307692307692308 0  -0.05 0.3076923076923077 0  0 0.3076923076923077 0  0.05 0.3076923076923077 0  -0.05 0.3846153846153846 0  0 0.3846153846153846 0  0.05 0.3846153846153846 0  -0.05 0.4615384615384616 0  0 0.4615384615384616 0  0.05 0.4615384615384616 0  -0.05 0.5384615384615384 0  0 0.5384615384615384 0  0.05 0.5384615384615384 0  -0.05 0.6153846153846154 0  0 0.6153846153846154 0  0.05 0.6153846153846154 0  -0.05 0.6923076923076923 0  0 0.6923076923076923 0  0.05 0.6923076923076923 0  -0.05 0.7692307692307693 0  0 0.7692307692307693 0  0.05 0.7692307692307693 0  -0.05 0.8461538461538461 0  0 0.8461538461538461 0  0.05 0.8461538461538461 0  -0.05 0.9230769230769231 0  0 0.9230769230769231 0  0.05 0.9230769230769231 0  -0.05 1 0  0 1 0  0.05 1 0  </DataArray>
</Points>
<Cells>
<DataArray  type="UInt32"  Name="connectivity"  format="ascii">0 1 4  0 3 4  1 2 5  1 4 5  3 4 7  3 6 7  4 5 8  4 7 8  6 7 10  6 9 10  7 8 11  7 10 11  9 10 13  9 12 13  10 11 14  10 13 14  12 13 16  12 15 16  13 14 17  13 16 17  15 16 19  15 18 19  16 17 20  16 19 20  18 19 22  18 21 22  19 20 23  19 22 23  21 22 25  21 24 25  22 23 26  22 25 26  24 25 28  24 27 28  25 26 29  25 28 29  27 28 31  27 30 31  28 29 32  28 31 32  30 31 34  30 33 34  31 32 35  31 34 35  33 34 37  33 36 37  34 35 38  34 37 38  36 37 40  36 39 40  37 38 41  37 40 41  </DataArray>
<DataArray  type="UInt32"  Name="offsets"  format="ascii">3 6 9 12 15 18 21 24 27 30 33 36 39 42 45 48 51 54 57 60 63 66 69 72 75 78 81 84 87 90 93 96 99 102 105 108 111 114 117 120 123 126 129 132 135 138 141 144 147 150 153 156 </DataArray>
<DataArray  type="UInt8"  Name="types"  format="ascii">5 5 5 5 5 5 5 5 5 5 5 5 5 5 5 5 5 5 5 5 5 5 5 5 5 5 5 5 5 5 5 5 5 5 5 5 5 5 5 5 5 5 5 5 5 5 5 5 5 5 5 5 </DataArray>
</Cells>
<PointData  Vectors="Displacement"> 
<DataArray  type="Float64"  Name="Displacement"  NumberOfComponents="3" format="ascii">-3.3871076199914363e-16 2.1550987791804241e-17 0.0000000000000000e+00  3.0375978891604030e-17 -2.0809075973060485e-18 0.0000000000000000e+00  -9.1127936674812102e-17 6.2427227919181464e-18 0.0000000000000000e+00  3.0666355365415532e-03 3.1045470919684802e-03 0.0000000000000000e+00  2.6303586894003486e-03 3.5386461439198202e-05 0.0000000000000000e+00  3.0218237872149515e-03 -3.0818613808830980e-03 0.0000000000000000e+00  1.0153694765072118e-02 5.7438492088792460e-03 0.0000000000000000e+00  9.8161309698767043e-03 3.8740461024433566e-05 0.0000000000000000e+00  1.0150212683817451e-02 -5.6694629637658702e-03 0.0000000000000000e+00  2.0864367201710674e-02 7.8674408538063571e-03 0.0000000000000000e+00  2.0593333052774460e-02 5.3335765293128331e-05 0.0000000000000000e+00  2.0856151894438468e-02 -7.7596434822595926e-03 0.0000000000000000e+00  3.4428111748346084e-02 9.5281560279284350e-03 0.0000000000000000e+00  3.4215968249116477e-02 6.9566247100380513e-05 0.0000000000000000e+00  3.4417420874343671e-02 -9.3888997761799493e-03 0.0000000000000000e+00  5.0170003296713027e-02 1.0789568148876359e-02 0.0000000000000000e+00  5.0006484762419805e-02 8.7206788294818817e-05 0.0000000000000000e+00  5.0155611143401557e-02 -1.0615201986720122e-02 0.0000000000000000e+00  6.7528009528461011e-02 1.1733724117619294e-02 0.0000000000000000e+00  6.7401021280499976e-02 1.0787803544667533e-04 0.0000000000000000e+00  6.7508645930282746e-02 -1.1518180035492325e-02 0.0000000000000000e+00  8.6077510516946579e-02 1.2443820724276675e-02 0.0000000000000000e+00  8.5977542627066986e-02 1.3282226515566682e-04 0.0000000000000000e+00  8.6054014243939159e-02 -1.2178541432049945e-02 0.0000000000000000e+00  1.0551393055269770e-01 1.2981623142144046e-02 0.0000000000000000e+00  1.0543399047309021e-01 1.6244206040662382e-04 0.0000000000000000e+00  1.0548662893605948e-01 -1.2657821996510277e-02 0.0000000000000000e+00  1.2560446001219056e-01 1.3385801398401238e-02 0.0000000000000000e+00  1.2554234293874833e-01 1.9490315854187837e-04 0.0000000000000000e+00  1.2557683865208902e-01 -1.2997401405016330e-02 0.0000000000000000e+00  1.4616975997083201e-01 1.3677048712294014e-02 0.0000000000000000e+00  1.4612067919355487e-01 2.2796077687801562e-04 0.0000000000000000e+00  1.4614053161415130e-01 -1.3225007036321967e-02 0.0000000000000000e+00  1.6703618411239440e-01 1.3875392367133187e-02 0.0000000000000000e+00  1.6701356412634788e-01 2.5622213076783104e-04 0.0000000000000000e+00  1.6702367690727804e-01 -1.3359366544422458e-02 0.0000000000000000e+00  1.8813112229720116e-01 1.3971282087495381e-02 0.0000000000000000e+00  1.8808728432276722e-01 2.8759688269223017e-04 0.0000000000000000e+00  1.8806980748023566e-01 -1.3403964725029378e-02 0.0000000000000000e+00  2.0917900611500712e-01 1.4013343845029056e-02 0.0000000000000000e+00  2.0920108447673441e-01 3.3741694887871719e-04 0.0000000000000000e+00  2.0922386126743889e-01 -1.3418581366684400e-02 0.0000000000000000e+00  </DataArray> 
</PointData> 
</Piece>
</UnstructuredGrid>
</VTKFile>