<?xml version="1.0"?>
<VTKFile type="UnstructuredGrid"  version="0.1"  >
<UnstructuredGrid>
<Piece  NumberOfPoints="42" NumberOfCells="52">
<Points>
<DataArray  type="Float64"  NumberOfComponents="3"  format="ascii">-0.05 0 0  0 0 0  0.05 0 0  -0.05 0.07692307692307693 0  0 0.07692307692307693 0  0.05 0.07692307692307693 0  -0.05 0.1538461538461539 0  0 0.1538461538461539 0  0.05 0.1538461538461539 0  -0.05 0.2307692307692308 0  0 0.2307692307692308 0  0.05 0.2307692307692308 0  -0.05 0.3076923076923077 0  0 0.3076923076923077 0  0.05 0.3076923076923077 0  -0.05 0.3846153846153846 0  0 0.3846153846153846 0  0.05 0.3846153846153846 0  -0.05 0.4615384615384616 0  0 0.4615384615384616 0  0.05 0.4615384615384616 0  -0.05 0.5384615384615384 0  0 0.5384615384615384 0  0.05 0.5384615384615384 0  -0.05 0.6153846153846154 0  0 0.6153846153846154 0  0.05 0.6153846153846154 0  -0.05 0.6923076923076923 0  0 0.6923076923076923 0  0.05 0.6923076923076923 0  -0.05 0.7692307692307693 0  0 0.7692307692307693 0  0.05 0.7692307692307693 0  -0.05 0.8461538461538461 0  0 0.8461538461538461 0  0.05 0.8461538461538461 0  -0.05 0.9230769230769231 0  0 0.9230769230769231 0  0.05 0.9230769230769231 0  -0.05 1 0  0 1 0  0.05 1 0  </DataArray>
</Points>
<Cells>
<DataArray  type="UInt32"  Name="connectivity"  format="ascii">0 1 4  0 3 4  1 2 5  1 4 5  3 4 7  3 6 7  4 5 8  4 7 8  6 7 10  6 9 10  7 8 11  7 10 11  9 10 13  9 12 13  10 11 14  10 13 14  12 13 16  12 15 16  13 14 17  13 16 17  15 16 19  15 18 19  16 17 20  16 19 20  18 19 22  18 21 22  19 20 23  19 22 23  21 22 25  21 24 25  22 23 26  22 25 26  24 25 28  24 27 28  25 26 29  25 28 29  27 28 31  27 30 31  28 29 32  28 31 32  30 31 34  30 33 34  31 32 35  31 34 35  33 34 37  33 36 37  34 35 38  34 37 38  36 37 40  36 39 40  37 38 41  37 40 41  </DataArray>
<DataArray  type="UInt32"  Name="offsets"  format="ascii">3 6 9 12 15 18 21 24 27 30 33 36 39 42 45 48 51 54 57 60 63 66 69 72 75 78 81 84 87 90 93 96 99 102 105 108 111 114 117 120 123 126 129 132 135 138 141 144 147 150 153 156 </DataArray>
<DataArray  type="UInt8"  Name="types"  format="ascii">5 5 5 5 5 5 5 5 5 5 5 5 5 5 5 5 5 5 5 5 5 5 5 5 5 5 5 5 5 5 5 5 5 5 5 5 5 5 5 5 5 5 5 5 5 5 5 5 5 5 5 5 </DataArray>
</Cells>
<PointData  Vectors="Displacement"> 
<DataArray  type="Float64"  Name="Displacement"  NumberOfComponents="3" format="ascii">-3.3097836336263099e-16 9.6687161872279328e-18 0.0000000000000000e+00  3.2551728960015324e-17 -9.8188867098692565e-19 0.0000000000000000e+00  -9.7655186880045983e-17 2.9456660129607771e-18 0.0000000000000000e+00  1.3866393706230013e-03 1.3844137438595873e-03 0.0000000000000000e+00  1.1838413981607723e-03 2.8079837991438506e-06 0.0000000000000000e+00  1.3592996487351127e-03 -1.3988256488612380e-03 0.0000000000000000e+00  4.5713847413445322e-03 2.5615448889250341e-03 0.0000000000000000e+00  4.4130235335023875e-03 -8.3568421040295229e-06 0.0000000000000000e+00  4.5657778498470417e-03 -2.5778829929501428e-03 0.0000000000000000e+00  9.3948879219592930e-03 3.5164381501256114e-03 0.0000000000000000e+00  9.2646468221707200e-03 -1.4559213346883661e-05 0.0000000000000000e+00  9.3861760288905128e-03 -3.5430787789998437e-03 0.0000000000000000e+00  1.5531533359490941e-02 4.2748113481703449e-03 0.0000000000000000e+00  1.5426962365519744e-02 -1.9808202003713697e-05 0.0000000000000000e+00  1.5522381093032313e-02 -4.3126416609429426e-03 0.0000000000000000e+00  2.2693181123886040e-02 4.8562977674910211e-03 0.0000000000000000e+00  2.2611414892677213e-02 -2.4738941485512604e-05 0.0000000000000000e+00  2.2683558416422080e-02 -4.9041523174306757e-03 0.0000000000000000e+00  3.0624123839268904e-02 5.2872228146896207e-03 0.0000000000000000e+00  3.0561054342570407e-02 -2.8712392403368160e-05 0.0000000000000000e+00  3.0613112836553356e-02 -5.3429977888081355e-03 0.0000000000000000e+00  3.9112231947641546e-02 5.5938150621652029e-03 0.0000000000000000e+00  3.9064767063939368e-02 -3.0758089151352891e-05 0.0000000000000000e+00  3.9100022326835571e-02 -5.6537428770785780e-03 0.0000000000000000e+00  4.7980485919265133e-02 5.8000826740712457e-03 0.0000000000000000e+00  4.7944296173313652e-02 -3.0311561012221191e-05 0.0000000000000000e+00  4.7965998115190887e-02 -5.8593114541387490e-03 0.0000000000000000e+00  5.7089738057760173e-02 5.9357989264195955e-03 0.0000000000000000e+00  5.7062009725944426e-02 -2.7123456385568651e-05 0.0000000000000000e+00  5.7073962178694052e-02 -5.9882454862145822e-03 0.0000000000000000e+00  6.6355081334545651e-02 6.0262993740679820e-03 0.0000000000000000e+00  6.6329583474140683e-02 -1.9586546888669139e-05 0.0000000000000000e+00  6.6333897970214398e-02 -6.0653820598536605e-03 0.0000000000000000e+00  7.5702339841768121e-02 6.0939756619696481e-03 0.0000000000000000e+00  7.5692788865617977e-02 -1.0040298064004416e-05 0.0000000000000000e+00  7.5694428237887426e-02 -6.1092355844896704e-03 0.0000000000000000e+00  8.5164998575673570e-02 6.1323252490712576e-03 0.0000000000000000e+00  8.5126584804434344e-02 8.7393919357595605e-06 0.0000000000000000e+00  8.5106630076896742e-02 -6.1173084717466185e-03 0.0000000000000000e+00  9.4547472602380458e-02 6.1480068164738453e-03 0.0000000000000000e+00  9.4566045171542129e-02 5.0808126219170849e-05 0.0000000000000000e+00  9.4586718368557629e-02 -6.1169711120524911e-03 0.0000000000000000e+00  </DataArray> 
</PointData> 
</Piece>
</UnstructuredGrid>
</VTKFile>