<?xml version="1.0"?>
<VTKFile type="UnstructuredGrid"  version="0.1"  >
<UnstructuredGrid>
<Piece  NumberOfPoints="42" NumberOfCells="52">
<Points>
<DataArray  type="Float64"  NumberOfComponents="3"  format="ascii">-0.05 0 0  0 0 0  0.05 0 0  -0.05 0.07692307692307693 0  0 0.07692307692307693 0  0.05 0.07692307692307693 0  -0.05 0.1538461538461539 0  0 0.1538461538461539 0  0.05 0.1538461538461539 0  -0.05 0.2307692307692308 0  0 0.2307692307692308 0  0.05 0.2307692307692308 0  -0.05 0.3076923076923077 0  0 0.3076923076923077 0  0.05 0.3076923076923077 0  -0.05 0.3846153846153846 0  0 0.3846153846153846 0  0.05 0.3846153846153846 0  -0.05 0.4615384615384616 0  0 0.4615384615384616 0  0.05 0.4615384615384616 0  -0.05 0.5384615384615384 0  0 0.5384615384615384 0  0.05 0.5384615384615384 0  -0.05 0.6153846153846154 0  0 0.6153846153846154 0  0.05 0.6153846153846154 0  -0.05 0.6923076923076923 0  0 0.6923076923076923 0  0.05 0.6923076923076923 0  -0.05 0.7692307692307693 0  0 0.7692307692307693 0  0.05 0.7692307692307693 0  -0.05 0.8461538461538461 0  0 0.8461538461538461 0  0.05 0.8461538461538461 0  -0.05 0.9230769230769231 0  0 0.9230769230769231 0  0.05 0.9230769230769231 0  -0.05 1 0  0 1 0  0.05 1 0  </DataArray>
</Points>
<Cells>
<DataArray  type="UInt32"  Name="connectivity"  format="ascii">0 1 4  0 3 4  1 2 5  1 4 5  3 4 7  3 6 7  4 5 8  4 7 8  6 7 10  6 9 10  7 8 11  7 10 11  9 10 13  9 12 13  10 11 14  10 13 14  12 13 16  12 15 16  13 14 17  13 16 17  15 16 19  15 18 19  16 17 20  16 19 20  18 19 22  18 21 22  19 20 23  19 22 23  21 22 25  21 24 25  22 23 26  22 25 26  24 25 28  24 27 28  25 26 29  25 28 29  27 28 31  27 30 31  28 29 32  28 31 32  30 31 34  30 33 34  31 32 35  31 34 35  33 34 37  33 36 37  34 35 38  34 37 38  36 37 40  36 39 40  37 38 41  37 40 41  </DataArray>
<DataArray  type="UInt32"  Name="offsets"  format="ascii">3 6 9 12 15 18 21 24 27 30 33 36 39 42 45 48 51 54 57 60 63 66 69 72 75 78 81 84 87 90 93 96 99 102 105 108 111 114 117 120 123 126 129 132 135 138 141 144 147 150 153 156 </DataArray>
<DataArray  type="UInt8"  Name="types"  format="ascii">5 5 5 5 5 5 5 5 5 5 5 5 5 5 5 5 5 5 5 5 5 5 5 5 5 5 5 5 5 5 5 5 5 5 5 5 5 5 5 5 5 5 5 5 5 5 5 5 5 5 5 5 </DataArray>
</Cells>
<PointData  Vectors="Displacement"> 
<DataArray  type="Float64"  Name="Displacement"  NumberOfComponents="3" format="ascii">-3.6456048455795258e-16 4.8554662437676235e-17 0.0000000000000000e+00  2.1604586131546664e-17 -3.4115696282535952e-18 0.0000000000000000e+00  -6.4813758394639992e-17 1.0234708884760786e-17 0.0000000000000000e+00  6.5032711149630258e-03 6.7485483762619774e-03 0.0000000000000000e+00  5.5593330778794803e-03 -9.6821067183025314e-06 0.0000000000000000e+00  6.4758973289275861e-03 -6.8800539765999699e-03 0.0000000000000000e+00  2.2192040640677476e-02 1.2773584506335409e-02 0.0000000000000000e+00  2.1430173521834017e-02 -9.1637652251437177e-05 0.0000000000000000e+00  2.2246732855289841e-02 -1.2966071323500755e-02 0.0000000000000000e+00  4.6527399499186745e-02 1.7885210425746943e-02 0.0000000000000000e+00  4.5885724496763022e-02 -1.4103052779786495e-04 0.0000000000000000e+00  4.6571835413645651e-02 -1.8168311246352785e-02 0.0000000000000000e+00  7.8103379606934975e-02 2.2142086772853706e-02 0.0000000000000000e+00  7.7574731834466740e-02 -1.8053514305457974e-04 0.0000000000000000e+00  7.8142198365772741e-02 -2.2506953050286386e-02 0.0000000000000000e+00  1.1563459802031621e-01 2.5605077217850540e-02 0.0000000000000000e+00  1.1521036459522208e-01 -2.1217058499166191e-04 0.0000000000000000e+00  1.1566741171648473e-01 -2.6034144639021997e-02 0.0000000000000000e+00  1.5793381325692329e-01 2.8343616625919579e-02 0.0000000000000000e+00  1.5760310476982725e-01 -2.3511990412399070e-04 0.0000000000000000e+00  1.5795955620827556e-01 -2.8819425411071253e-02 0.0000000000000000e+00  2.0392722864608831e-01 3.0434582875362635e-02 0.0000000000000000e+00  2.0367957502364870e-01 -2.4975429395988246e-04 0.0000000000000000e+00  2.0394669857590045e-01 -3.0940010933408136e-02 0.0000000000000000e+00  2.5266483447094379e-01 3.1957275861387253e-02 0.0000000000000000e+00  2.5248779854494890e-01 -2.5684800984170319e-04 0.0000000000000000e+00  2.5267723957178939e-01 -3.2477456908584508e-02 0.0000000000000000e+00  3.0332164852833848e-01 3.3000911062323737e-02 0.0000000000000000e+00  3.0320339743188235e-01 -2.5750843143525914e-04 0.0000000000000000e+00  3.0332795745585445e-01 -3.3521157838151842e-02 0.0000000000000000e+00  3.5522403295713162e-01 3.3658817970150350e-02 0.0000000000000000e+00  3.5514743838782642e-01 -2.5108492089101849e-04 0.0000000000000000e+00  3.5522086658904484e-01 -3.4168952704533351e-02 0.0000000000000000e+00  4.0783398543316712e-01 3.4045550919626959e-02 0.0000000000000000e+00  4.0780043371662350e-01 -2.4144346104138875e-04 0.0000000000000000e+00  4.0783817704434283e-01 -3.4522178573945059e-02 0.0000000000000000e+00  4.6084989418426237e-01 3.4208254527223134e-02 0.0000000000000000e+00  4.6080068434809246e-01 -2.1711619848503399e-04 0.0000000000000000e+00  4.6079426867659257e-01 -3.4659926594369034e-02 0.0000000000000000e+00  5.1389872910540590e-01 3.4316515809355658e-02 0.0000000000000000e+00  5.1392644208315097e-01 -1.5915045828040965e-04 0.0000000000000000e+00  5.1394904993948620e-01 -3.4725790435789751e-02 0.0000000000000000e+00  </DataArray> 
</PointData> 
</Piece>
</UnstructuredGrid>
</VTKFile>