<?xml version="1.0"?>
<VTKFile type="UnstructuredGrid"  version="0.1"  >
<UnstructuredGrid>
<Piece  NumberOfPoints="42" NumberOfCells="52">
<Points>
<DataArray  type="Float64"  NumberOfComponents="3"  format="ascii">-0.05 0 0  0 0 0  0.05 0 0  -0.05 0.07692307692307693 0  0 0.07692307692307693 0  0.05 0.07692307692307693 0  -0.05 0.1538461538461539 0  0 0.1538461538461539 0  0.05 0.1538461538461539 0  -0.05 0.2307692307692308 0  0 0.2307692307692308 0  0.05 0.2307692307692308 0  -0.05 0.3076923076923077 0  0 0.3076923076923077 0  0.05 0.3076923076923077 0  -0.05 0.3846153846153846 0  0 0.3846153846153846 0  0.05 0.3846153846153846 0  -0.05 0.4615384615384616 0  0 0.4615384615384616 0  0.05 0.4615384615384616 0  -0.05 0.5384615384615384 0  0 0.5384615384615384 0  0.05 0.5384615384615384 0  -0.05 0.6153846153846154 0  0 0.6153846153846154 0  0.05 0.6153846153846154 0  -0.05 0.6923076923076923 0  0 0.6923076923076923 0  0.05 0.6923076923076923 0  -0.05 0.7692307692307693 0  0 0.7692307692307693 0  0.05 0.7692307692307693 0  -0.05 0.8461538461538461 0  0 0.8461538461538461 0  0.05 0.8461538461538461 0  -0.05 0.9230769230769231 0  0 0.9230769230769231 0  0.05 0.9230769230769231 0  -0.05 1 0  0 1 0  0.05 1 0  </DataArray>
</Points>
<Cells>
<DataArray  type="UInt32"  Name="connectivity"  format="ascii">0 1 4  0 3 4  1 2 5  1 4 5  3 4 7  3 6 7  4 5 8  4 7 8  6 7 10  6 9 10  7 8 11  7 10 11  9 10 13  9 12 13  10 11 14  10 13 14  12 13 16  12 15 16  13 14 17  13 16 17  15 16 19  15 18 19  16 17 20  16 19 20  18 19 22  18 21 22  19 20 23  19 22 23  21 22 25  21 24 25  22 23 26  22 25 26  24 25 28  24 27 28  25 26 29  25 28 29  27 28 31  27 30 31  28 29 32  28 31 32  30 31 34  30 33 34  31 32 35  31 34 35  33 34 37  33 36 37  34 35 38  34 37 38  36 37 40  36 39 40  37 38 41  37 40 41  </DataArray>
<DataArray  type="UInt32"  Name="offsets"  format="ascii">3 6 9 12 15 18 21 24 27 30 33 36 39 42 45 48 51 54 57 60 63 66 69 72 75 78 81 84 87 90 93 96 99 102 105 108 111 114 117 120 123 126 129 132 135 138 141 144 147 150 153 156 </DataArray>
<DataArray  type="UInt8"  Name="types"  format="ascii">5 5 5 5 5 5 5 5 5 5 5 5 5 5 5 5 5 5 5 5 5 5 5 5 5 5 5 5 5 5 5 5 5 5 5 5 5 5 5 5 5 5 5 5 5 5 5 5 5 5 5 5 </DataArray>
</Cells>
<PointData  Vectors="Displacement"> 
<DataArray  type="Float64"  Name="Displacement"  NumberOfComponents="3" format="ascii">-3.6300359594219730e-16 4.8102084108527947e-17 0.0000000000000000e+00  2.1836259073679690e-17 -3.4137957251651685e-18 0.0000000000000000e+00  -6.5508777221039076e-17 1.0241387175495505e-17 0.0000000000000000e+00  6.5632833800019011e-03 6.7221278444428356e-03 0.0000000000000000e+00  5.6337062843692075e-03 3.2439687726731607e-05 0.0000000000000000e+00  6.5185215072615724e-03 -6.7673070520742461e-03 0.0000000000000000e+00  2.2050488216747204e-02 1.2556704041259907e-02 0.0000000000000000e+00  2.1318967849020608e-02 -5.4994394998011818e-06 0.0000000000000000e+00  2.2085506230269707e-02 -1.2576568401179544e-02 0.0000000000000000e+00  4.5705291037205581e-02 1.7370594749019731e-02 0.0000000000000000e+00  4.5103227433894992e-02 -1.1656269964355995e-05 0.0000000000000000e+00  4.5727806587272372e-02 -1.7394575325658329e-02 0.0000000000000000e+00  7.6005282703843061e-02 2.1285636275701580e-02 0.0000000000000000e+00  7.5517667416085940e-02 -8.9809980196504652e-06 0.0000000000000000e+00  7.6020547534378452e-02 -2.1307071952967341e-02 0.0000000000000000e+00  1.1164998701504958e-01 2.4413888430906826e-02 0.0000000000000000e+00  1.1126300886720705e-01 -1.4725476689442918e-07 0.0000000000000000e+00  1.1165877141570500e-01 -2.4418656283562989e-02 0.0000000000000000e+00  1.5149964868044158e-01 2.6856893041415624e-02 0.0000000000000000e+00  1.5119883255184988e-01 1.5271766436524635e-05 0.0000000000000000e+00  1.5150138819794706e-01 -2.6831589781079520e-02 0.0000000000000000e+00  1.9456638705843396e-01 2.8715759450785500e-02 0.0000000000000000e+00  1.9433830040700242e-01 3.7092828928383260e-05 0.0000000000000000e+00  1.9456192777969633e-01 -2.8647085431590679e-02 0.0000000000000000e+00  2.4002110272934432e-01 3.0088249013252025e-02 0.0000000000000000e+00  2.3985204447431463e-01 6.5028763233461446e-05 0.0000000000000000e+00  2.4001005660967181e-01 -2.9964266245334981e-02 0.0000000000000000e+00  2.8718007389474581e-01 3.1066010387044551e-02 0.0000000000000000e+00  2.8705967094477458e-01 9.8054326271097847e-05 0.0000000000000000e+00  2.8716444155688881e-01 -3.0875149709853215e-02 0.0000000000000000e+00  3.3549905376464045e-01 3.1725207538169056e-02 0.0000000000000000e+00  3.3541430247711551e-01 1.3562309466153666e-04 0.0000000000000000e+00  3.3547719230195960e-01 -3.1462406665192330e-02 0.0000000000000000e+00  3.8452956516221160e-01 3.2147119723069717e-02 0.0000000000000000e+00  3.8448731183573970e-01 1.7132389597780505e-04 0.0000000000000000e+00  3.8452038386718518e-01 -3.1800069311070801e-02 0.0000000000000000e+00  4.3400294885154250e-01 3.2344238572081963e-02 0.0000000000000000e+00  4.3394924417817249e-01 2.1284693467785149e-04 0.0000000000000000e+00  4.3394079612208170e-01 -3.1936924436914843e-02 0.0000000000000000e+00  4.8352208739375313e-01 3.2455826724759315e-02 0.0000000000000000e+00  4.8354965093429597e-01 2.7588302983805096e-04 0.0000000000000000e+00  4.8357404590992314e-01 -3.1997835308647860e-02 0.0000000000000000e+00  </DataArray> 
</PointData> 
</Piece>
</UnstructuredGrid>
</VTKFile>