<?xml version="1.0"?>
<VTKFile type="UnstructuredGrid"  version="0.1"  >
<UnstructuredGrid>
<Piece  NumberOfPoints="42" NumberOfCells="52">
<Points>
<DataArray  type="Float64"  NumberOfComponents="3"  format="ascii">-0.05 0 0  0 0 0  0.05 0 0  -0.05 0.07692307692307693 0  0 0.07692307692307693 0  0.05 0.07692307692307693 0  -0.05 0.1538461538461539 0  0 0.1538461538461539 0  0.05 0.1538461538461539 0  -0.05 0.2307692307692308 0  0 0.2307692307692308 0  0.05 0.2307692307692308 0  -0.05 0.3076923076923077 0  0 0.3076923076923077 0  0.05 0.3076923076923077 0  -0.05 0.3846153846153846 0  0 0.3846153846153846 0  0.05 0.3846153846153846 0  -0.05 0.4615384615384616 0  0 0.4615384615384616 0  0.05 0.4615384615384616 0  -0.05 0.5384615384615384 0  0 0.5384615384615384 0  0.05 0.5384615384615384 0  -0.05 0.6153846153846154 0  0 0.6153846153846154 0  0.05 0.6153846153846154 0  -0.05 0.6923076923076923 0  0 0.6923076923076923 0  0.05 0.6923076923076923 0  -0.05 0.7692307692307693 0  0 0.7692307692307693 0  0.05 0.7692307692307693 0  -0.05 0.8461538461538461 0  0 0.8461538461538461 0  0.05 0.8461538461538461 0  -0.05 0.9230769230769231 0  0 0.9230769230769231 0  0.05 0.9230769230769231 0  -0.05 1 0  0 1 0  0.05 1 0  </DataArray>
</Points>
<Cells>
<DataArray  type="UInt32"  Name="connectivity"  format="ascii">0 1 4  0 3 4  1 2 5  1 4 5  3 4 7  3 6 7  4 5 8  4 7 8  6 7 10  6 9 10  7 8 11  7 10 11  9 10 13  9 12 13  10 11 14  10 13 14  12 13 16  12 15 16  13 14 17  13 16 17  15 16 19  15 18 19  16 17 20  16 19 20  18 19 22  18 21 22  19 20 23  19 22 23  21 22 25  21 24 25  22 23 26  22 25 26  24 25 28  24 27 28  25 26 29  25 28 29  27 28 31  27 30 31  28 29 32  28 31 32  30 31 34  30 33 34  31 32 35  31 34 35  33 34 37  33 36 37  34 35 38  34 37 38  36 37 40  36 39 40  37 38 41  37 40 41  </DataArray>
<DataArray  type="UInt32"  Name="offsets"  format="ascii">3 6 9 12 15 18 21 24 27 30 33 36 39 42 45 48 51 54 57 60 63 66 69 72 75 78 81 84 87 90 93 96 99 102 105 108 111 114 117 120 123 126 129 132 135 138 141 144 147 150 153 156 </DataArray>
<DataArray  type="UInt8"  Name="types"  format="ascii">5 5 5 5 5 5 5 5 5 5 5 5 5 5 5 5 5 5 5 5 5 5 5 5 5 5 5 5 5 5 5 5 5 5 5 5 5 5 5 5 5 5 5 5 5 5 5 5 5 5 5 5 </DataArray>
</Cells>
<PointData  Vectors="Displacement"> 
<DataArray  type="Float64"  Name="Displacement"  NumberOfComponents="3" format="ascii">-3.5146808447691966e-16 2.1963748048341961e-17 0.0000000000000000e+00  2.6307310727139648e-17 -1.7694780384217755e-18 0.0000000000000000e+00  -7.8921932181418948e-17 5.3084341152653269e-18 0.0000000000000000e+00  2.9541136263351378e-03 3.0747579251191653e-03 0.0000000000000000e+00  2.5077252896167092e-03 4.2993625272877332e-05 0.0000000000000000e+00  2.8985648870775912e-03 -3.0350272315774539e-03 0.0000000000000000e+00  9.9772645155970820e-03 5.8122977847712420e-03 0.0000000000000000e+00  9.6140318520902355e-03 5.5606263023156229e-05 0.0000000000000000e+00  9.9644230387517605e-03 -5.7043786873394557e-03 0.0000000000000000e+00  2.0856707887770911e-02 8.1439671020756676e-03 0.0000000000000000e+00  2.0546674414721067e-02 7.7738089345606170e-05 0.0000000000000000e+00  2.0840740557628887e-02 -7.9880041752632223e-03 0.0000000000000000e+00  3.4983816372622489e-02 1.0103855995818985e-02 0.0000000000000000e+00  3.4723317753426582e-02 9.8941457939936826e-05 0.0000000000000000e+00  3.4968843509625827e-02 -9.9070813646099602e-03 0.0000000000000000e+00  5.1814992674179730e-02 1.1724191026381635e-02 0.0000000000000000e+00  5.1599854745121888e-02 1.1773314924169897e-04 0.0000000000000000e+00  5.1800939616848139e-02 -1.1490383973597244e-02 0.0000000000000000e+00  7.0856794847622320e-02 1.3038528262394041e-02 0.0000000000000000e+00  7.0682071629759813e-02 1.3513555851781816e-04 0.0000000000000000e+00  7.0842699020206151e-02 -1.2770309404317871e-02 0.0000000000000000e+00  9.1665121129134539e-02 1.4078918486800191e-02 0.0000000000000000e+00  9.1526883115472524e-02 1.5228195385575454e-04 0.0000000000000000e+00  9.1651051866006292e-02 -1.3776510264193591e-02 0.0000000000000000e+00  1.1384145491756162e-01 1.4874504427569492e-02 0.0000000000000000e+00  1.1373460051531414e-01 1.7050379253254652e-04 0.0000000000000000e+00  1.1382569418525090e-01 -1.4535845679504378e-02 0.0000000000000000e+00  1.3702666379825015e-01 1.5457829624045891e-02 0.0000000000000000e+00  1.3694758337041968e-01 1.9069668656459971e-04 0.0000000000000000e+00  1.3700981148497388e-01 -1.5078177554582880e-02 0.0000000000000000e+00  1.6092000223043912e-01 1.5861683567633990e-02 0.0000000000000000e+00  1.6086053351068702e-01 2.1435295304280208e-04 0.0000000000000000e+00  1.6089834493653768e-01 -1.5437078767097236e-02 0.0000000000000000e+00  1.8525098960821867e-01 1.6127978764680286e-02 0.0000000000000000e+00  1.8522345583683500e-01 2.3784109321617613e-04 0.0000000000000000e+00  1.8524371082574284e-01 -1.5647372452323775e-02 0.0000000000000000e+00  2.0989020677548526e-01 1.6256615913622451e-02 0.0000000000000000e+00  2.0984081964679627e-01 2.7010752675640722e-04 0.0000000000000000e+00  2.0982582679871420e-01 -1.5726187108215928e-02 0.0000000000000000e+00  2.3449732692808928e-01 1.6315312433156683e-02 0.0000000000000000e+00  2.3452459107186679e-01 3.2780091331377926e-04 0.0000000000000000e+00  2.3455266366455599e-01 -1.5752618624067682e-02 0.0000000000000000e+00  </DataArray> 
</PointData> 
</Piece>
</UnstructuredGrid>
</VTKFile>