<?xml version="1.0"?>
<VTKFile type="UnstructuredGrid"  version="0.1"  >
<UnstructuredGrid>
<Piece  NumberOfPoints="42" NumberOfCells="52">
<Points>
<DataArray  type="Float64"  NumberOfComponents="3"  format="ascii">-0.05 0 0  0 0 0  0.05 0 0  -0.05 0.07692307692307693 0  0 0.07692307692307693 0  0.05 0.07692307692307693 0  -0.05 0.1538461538461539 0  0 0.1538461538461539 0  0.05 0.1538461538461539 0  -0.05 0.2307692307692308 0  0 0.2307692307692308 0  0.05 0.2307692307692308 0  -0.05 0.3076923076923077 0  0 0.3076923076923077 0  0.05 0.3076923076923077 0  -0.05 0.3846153846153846 0  0 0.3846153846153846 0  0.05 0.3846153846153846 0  -0.05 0.4615384615384616 0  0 0.4615384615384616 0  0.05 0.4615384615384616 0  -0.05 0.5384615384615384 0  0 0.5384615384615384 0  0.05 0.5384615384615384 0  -0.05 0.6153846153846154 0  0 0.6153846153846154 0  0.05 0.6153846153846154 0  -0.05 0.6923076923076923 0  0 0.6923076923076923 0  0.05 0.6923076923076923 0  -0.05 0.7692307692307693 0  0 0.7692307692307693 0  0.05 0.7692307692307693 0  -0.05 0.8461538461538461 0  0 0.8461538461538461 0  0.05 0.8461538461538461 0  -0.05 0.9230769230769231 0  0 0.9230769230769231 0  0.05 0.9230769230769231 0  -0.05 1 0  0 1 0  0.05 1 0  </DataArray>
</Points>
<Cells>
<DataArray  type="UInt32"  Name="connectivity"  format="ascii">0 1 4  0 3 4  1 2 5  1 4 5  3 4 7  3 6 7  4 5 8  4 7 8  6 7 10  6 9 10  7 8 11  7 10 11  9 10 13  9 12 13  10 11 14  10 13 14  12 13 16  12 15 16  13 14 17  13 16 17  15 16 19  15 18 19  16 17 20  16 19 20  18 19 22  18 21 22  19 20 23  19 22 23  21 22 25  21 24 25  22 23 26  22 25 26  24 25 28  24 27 28  25 26 29  25 28 29  27 28 31  27 30 31  28 29 32  28 31 32  30 31 34  30 33 34  31 32 35  31 34 35  33 34 37  33 36 37  34 35 38  34 37 38  36 37 40  36 39 40  37 38 41  37 40 41  </DataArray>
<DataArray  type="UInt32"  Name="offsets"  format="ascii">3 6 9 12 15 18 21 24 27 30 33 36 39 42 45 48 51 54 57 60 63 66 69 72 75 78 81 84 87 90 93 96 99 102 105 108 111 114 117 120 123 126 129 132 135 138 141 144 147 150 153 156 </DataArray>
<DataArray  type="UInt8"  Name="types"  format="ascii">5 5 5 5 5 5 5 5 5 5 5 5 5 5 5 5 5 5 5 5 5 5 5 5 5 5 5 5 5 5 5 5 5 5 5 5 5 5 5 5 5 5 5 5 5 5 5 5 5 5 5 5 </DataArray>
</Cells>
<PointData  Vectors="Displacement"> 
<DataArray  type="Float64"  Name="Displacement"  NumberOfComponents="3" format="ascii">-3.6776292962159871e-16 4.6097850322169751e-17 0.0000000000000000e+00  2.0610545563979166e-17 -3.0230167646809980e-18 0.0000000000000000e+00  -6.1831636691937505e-17 9.0690502940429939e-18 0.0000000000000000e+00  6.1366072629665111e-03 6.3613704807690503e-03 0.0000000000000000e+00  5.2432772644967641e-03 4.1565735116927901e-05 0.0000000000000000e+00  6.0811247380033314e-03 -6.3811382279133659e-03 0.0000000000000000e+00  2.0787201037717168e-02 1.1990355529846473e-02 0.0000000000000000e+00  2.0069302616782470e-02 1.6681813332956101e-05 0.0000000000000000e+00  2.0810106436281905e-02 -1.1966153542277806e-02 0.0000000000000000e+00  4.3398700274076919e-02 1.6739638853162424e-02 0.0000000000000000e+00  4.2794350382498431e-02 1.8151615855048740e-05 0.0000000000000000e+00  4.3412901725655574e-02 -1.6705004046586622e-02 0.0000000000000000e+00  7.2651737572813874e-02 2.0697635740003897e-02 0.0000000000000000e+00  7.2150807583338070e-02 2.3882601702048144e-05 0.0000000000000000e+00  7.2662955196843890e-02 -2.0654489886608299e-02 0.0000000000000000e+00  1.0739260165427519e-01 2.3941550895402813e-02 0.0000000000000000e+00  1.0698620257222370e-01 3.1203344643014755e-05 0.0000000000000000e+00  1.0740154387114682e-01 -2.3884811321863850e-02 0.0000000000000000e+00  1.4657393139955888e-01 2.6536468366606711e-02 0.0000000000000000e+00  1.4625269062302848e-01 4.1095025395994009e-05 0.0000000000000000e+00  1.4657961380968251e-01 -2.6460621876911110e-02 0.0000000000000000e+00  1.8923811019102943e-01 2.8545358466654881e-02 0.0000000000000000e+00  1.8899290706242941e-01 5.4399759121480573e-05 0.0000000000000000e+00  1.8924025425378899e-01 -2.8442940793425193e-02 0.0000000000000000e+00  2.3452506629156356e-01 3.0037890558987611e-02 0.0000000000000000e+00  2.3434401503595467e-01 7.2125778299513289e-05 0.0000000000000000e+00  2.3452168316999020e-01 -2.9900318451775144e-02 0.0000000000000000e+00  2.8168900823524495e-01 3.1098910186305114e-02 0.0000000000000000e+00  2.8156108844829975e-01 9.4639339003988346e-05 0.0000000000000000e+00  2.8168064785699098e-01 -3.0915165797778133e-02 0.0000000000000000e+00  3.3012978999192771e-01 3.1812085116769064e-02 0.0000000000000000e+00  3.3004053650031318e-01 1.2282210788520766e-04 0.0000000000000000e+00  3.3011400665436086e-01 -3.1575157578713174e-02 0.0000000000000000e+00  3.7935796202837402e-01 3.2267461038796456e-02 0.0000000000000000e+00  3.7931391992723917e-01 1.5127947976001531e-04 0.0000000000000000e+00  3.7935366737991377e-01 -3.1959775376749697e-02 0.0000000000000000e+00  4.2907583934712051e-01 3.2480057193370736e-02 0.0000000000000000e+00  4.2901989117048495e-01 1.8928595967109826e-04 0.0000000000000000e+00  4.2901375859746887e-01 -3.2120402354342492e-02 0.0000000000000000e+00  4.7885059494300580e-01 3.2599908167101885e-02 0.0000000000000000e+00  4.7887991597622348e-01 2.5427558264287008e-04 0.0000000000000000e+00  4.7890643651340492e-01 -3.2189293554465315e-02 0.0000000000000000e+00  </DataArray> 
</PointData> 
</Piece>
</UnstructuredGrid>
</VTKFile>