<?xml version="1.0"?>
<VTKFile type="UnstructuredGrid"  version="0.1"  >
<UnstructuredGrid>
<Piece  NumberOfPoints="42" NumberOfCells="52">
<Points>
<DataArray  type="Float64"  NumberOfComponents="3"  format="ascii">-0.05 0 0  0 0 0  0.05 0 0  -0.05 0.07692307692307693 0  0 0.07692307692307693 0  0.05 0.07692307692307693 0  -0.05 0.1538461538461539 0  0 0.1538461538461539 0  0.05 0.1538461538461539 0  -0.05 0.2307692307692308 0  0 0.2307692307692308 0  0.05 0.2307692307692308 0  -0.05 0.3076923076923077 0  0 0.3076923076923077 0  0.05 0.3076923076923077 0  -0.05 0.3846153846153846 0  0 0.3846153846153846 0  0.05 0.3846153846153846 0  -0.05 0.4615384615384616 0  0 0.4615384615384616 0  0.05 0.4615384615384616 0  -0.05 0.5384615384615384 0  0 0.5384615384615384 0  0.05 0.5384615384615384 0  -0.05 0.6153846153846154 0  0 0.6153846153846154 0  0.05 0.6153846153846154 0  -0.05 0.6923076923076923 0  0 0.6923076923076923 0  0.05 0.6923076923076923 0  -0.05 0.7692307692307693 0  0 0.7692307692307693 0  0.05 0.7692307692307693 0  -0.05 0.8461538461538461 0  0 0.8461538461538461 0  0.05 0.8461538461538461 0  -0.05 0.9230769230769231 0  0 0.9230769230769231 0  0.05 0.9230769230769231 0  -0.05 1 0  0 1 0  0.05 1 0  </DataArray>
</Points>
<Cells>
<DataArray  type="UInt32"  Name="connectivity"  format="ascii">0 1 4  0 3 4  1 2 5  1 4 5  3 4 7  3 6 7  4 5 8  4 7 8  6 7 10  6 9 10  7 8 11  7 10 11  9 10 13  9 12 13  10 11 14  10 13 14  12 13 16  12 15 16  13 14 17  13 16 17  15 16 19  15 18 19  16 17 20  16 19 20  18 19 22  18 21 22  19 20 23  19 22 23  21 22 25  21 24 25  22 23 26  22 25 26  24 25 28  24 27 28  25 26 29  25 28 29  27 28 31  27 30 31  28 29 32  28 31 32  30 31 34  30 33 34  31 32 35  31 34 35  33 34 37  33 36 37  34 35 38  34 37 38  36 37 40  36 39 40  37 38 41  37 40 41  </DataArray>
<DataArray  type="UInt32"  Name="offsets"  format="ascii">3 6 9 12 15 18 21 24 27 30 33 36 39 42 45 48 51 54 57 60 63 66 69 72 75 78 81 84 87 90 93 96 99 102 105 108 111 114 117 120 123 126 129 132 135 138 141 144 147 150 153 156 </DataArray>
<DataArray  type="UInt8"  Name="types"  format="ascii">5 5 5 5 5 5 5 5 5 5 5 5 5 5 5 5 5 5 5 5 5 5 5 5 5 5 5 5 5 5 5 5 5 5 5 5 5 5 5 5 5 5 5 5 5 5 5 5 5 5 5 5 </DataArray>
</Cells>
<PointData  Vectors="Displacement"> 
<DataArray  type="Float64"  Name="Displacement"  NumberOfComponents="3" format="ascii">-3.5758247072087607e-16 3.0142940923519630e-17 0.0000000000000000e+00  2.3906189499844516e-17 -2.2330289833285438e-18 0.0000000000000000e+00  -7.1718568499533553e-17 6.6990869499856318e-18 0.0000000000000000e+00  4.0714236114232048e-03 4.1172812800626644e-03 0.0000000000000000e+00  3.5028940877280699e-03 -6.8536979044676098e-06 0.0000000000000000e+00  4.0513641499512259e-03 -4.1986001403511927e-03 0.0000000000000000e+00  1.3613100599233272e-02 7.6459037686543085e-03 0.0000000000000000e+00  1.3173224262931691e-02 -5.8245806061440226e-05 0.0000000000000000e+00  1.3644975551734004e-02 -7.7666316036433050e-03 0.0000000000000000e+00  2.8099083612642170e-02 1.0497543978444933e-02 0.0000000000000000e+00  2.7746490845089934e-02 -8.9741807397474650e-05 0.0000000000000000e+00  2.8122688744510384e-02 -1.0676075443685326e-02 0.0000000000000000e+00  4.6503580779526786e-02 1.2734056729812572e-02 0.0000000000000000e+00  4.6230011970924169e-02 -1.1500370185857572e-04 0.0000000000000000e+00  4.6522556059920776e-02 -1.2964853150199166e-02 0.0000000000000000e+00  6.7918625648744749e-02 1.4424475683824330e-02 0.0000000000000000e+00  6.7713696111327118e-02 -1.3518476154472788e-04 0.0000000000000000e+00  6.7932111188052924e-02 -1.4696174460563288e-02 0.0000000000000000e+00  9.1550206768202969e-02 1.5650897439758685e-02 0.0000000000000000e+00  9.1401120494925728e-02 -1.4936640659104190e-04 0.0000000000000000e+00  9.1556975047186392e-02 -1.5951441889879136e-02 0.0000000000000000e+00  1.1674157179752338e-01 1.6506386533021729e-02 0.0000000000000000e+00  1.1663581205734172e-01 -1.5727525372323517e-04 0.0000000000000000e+00  1.1674220812827728e-01 -1.6823019277293728e-02 0.0000000000000000e+00  1.4298765938864957e-01 1.7082948978411349e-02 0.0000000000000000e+00  1.4291282734416813e-01 -1.5878231771031078e-04 0.0000000000000000e+00  1.4298179015115975e-01 -1.7402988945197092e-02 0.0000000000000000e+00  1.6991863013714856e-01 1.7461998278188628e-02 0.0000000000000000e+00  1.6986627778307492e-01 -1.5411002188756620e-04 0.0000000000000000e+00  1.6990817254111842e-01 -1.7772134764333158e-02 0.0000000000000000e+00  1.9728397980427742e-01 1.7705079768707003e-02 0.0000000000000000e+00  1.9724352081326441e-01 -1.4245039743226572e-04 0.0000000000000000e+00  1.9726627765851756e-01 -1.7994351577647873e-02 0.0000000000000000e+00  2.2489494546099903e-01 1.7868642212131476e-02 0.0000000000000000e+00  2.2487800060390836e-01 -1.2773266709549899e-04 0.0000000000000000e+00  2.2488974533696560e-01 -1.8118649413945285e-02 0.0000000000000000e+00  2.5271492677971408e-01 1.7950219727220433e-02 0.0000000000000000e+00  2.5266895323185112e-01 -1.0049908796985299e-04 0.0000000000000000e+00  2.5265143701696124e-01 -1.8161952292995092e-02 0.0000000000000000e+00  2.8048746204924957e-01 1.8006989527692856e-02 0.0000000000000000e+00  2.8051587097638458e-01 -4.3300175271423171e-05 0.0000000000000000e+00  2.8054214657253845e-01 -1.8187097071335714e-02 0.0000000000000000e+00  </DataArray> 
</PointData> 
</Piece>
</UnstructuredGrid>
</VTKFile>