<?xml version="1.0"?>
<VTKFile type="UnstructuredGrid"  version="0.1"  >
<UnstructuredGrid>
<Piece  NumberOfPoints="42" NumberOfCells="52">
<Points>
<DataArray  type="Float64"  NumberOfComponents="3"  format="ascii">-0.05 0 0  0 0 0  0.05 0 0  -0.05 0.07692307692307693 0  0 0.07692307692307693 0  0.05 0.07692307692307693 0  -0.05 0.1538461538461539 0  0 0.1538461538461539 0  0.05 0.1538461538461539 0  -0.05 0.2307692307692308 0  0 0.2307692307692308 0  0.05 0.2307692307692308 0  -0.05 0.3076923076923077 0  0 0.3076923076923077 0  0.05 0.3076923076923077 0  -0.05 0.3846153846153846 0  0 0.3846153846153846 0  0.05 0.3846153846153846 0  -0.05 0.4615384615384616 0  0 0.4615384615384616 0  0.05 0.4615384615384616 0  -0.05 0.5384615384615384 0  0 0.5384615384615384 0  0.05 0.5384615384615384 0  -0.05 0.6153846153846154 0  0 0.6153846153846154 0  0.05 0.6153846153846154 0  -0.05 0.6923076923076923 0  0 0.6923076923076923 0  0.05 0.6923076923076923 0  -0.05 0.7692307692307693 0  0 0.7692307692307693 0  0.05 0.7692307692307693 0  -0.05 0.8461538461538461 0  0 0.8461538461538461 0  0.05 0.8461538461538461 0  -0.05 0.9230769230769231 0  0 0.9230769230769231 0  0.05 0.9230769230769231 0  -0.05 1 0  0 1 0  0.05 1 0  </DataArray>
</Points>
<Cells>
<DataArray  type="UInt32"  Name="connectivity"  format="ascii">0 1 4  0 3 4  1 2 5  1 4 5  3 4 7  3 6 7  4 5 8  4 7 8  6 7 10  6 9 10  7 8 11  7 10 11  9 10 13  9 12 13  10 11 14  10 13 14  12 13 16  12 15 16  13 14 17  13 16 17  15 16 19  15 18 19  16 17 20  16 19 20  18 19 22  18 21 22  19 20 23  19 22 23  21 22 25  21 24 25  22 23 26  22 25 26  24 25 28  24 27 28  25 26 29  25 28 29  27 28 31  27 30 31  28 29 32  28 31 32  30 31 34  30 33 34  31 32 35  31 34 35  33 34 37  33 36 37  34 35 38  34 37 38  36 37 40  36 39 40  37 38 41  37 40 41  </DataArray>
<DataArray  type="UInt32"  Name="offsets"  format="ascii">3 6 9 12 15 18 21 24 27 30 33 36 39 42 45 48 51 54 57 60 63 66 69 72 75 78 81 84 87 90 93 96 99 102 105 108 111 114 117 120 123 126 129 132 135 138 141 144 147 150 153 156 </DataArray>
<DataArray  type="UInt8"  Name="types"  format="ascii">5 5 5 5 5 5 5 5 5 5 5 5 5 5 5 5 5 5 5 5 5 5 5 5 5 5 5 5 5 5 5 5 5 5 5 5 5 5 5 5 5 5 5 5 5 5 5 5 5 5 5 5 </DataArray>
</Cells>
<PointData  Vectors="Displacement"> 
<DataArray  type="Float64"  Name="Displacement"  NumberOfComponents="3" format="ascii">-3.4522130641440135e-16 1.5915197833099584e-17 0.0000000000000000e+00  2.9245744673799683e-17 -1.4130458082109095e-18 0.0000000000000000e+00  -8.7737234021399054e-17 4.2391374246327285e-18 0.0000000000000000e+00  2.3155649792067582e-03 2.2225947434176205e-03 0.0000000000000000e+00  2.0134842572421163e-03 5.5244095849017574e-05 0.0000000000000000e+00  2.2667240677275626e-03 -2.1442889537709388e-03 0.0000000000000000e+00  7.2729989317157889e-03 3.9106848468242784e-03 0.0000000000000000e+00  7.0636202522008683e-03 9.0296757683823916e-05 0.0000000000000000e+00  7.2531933334791824e-03 -3.7304620129638383e-03 0.0000000000000000e+00  1.4315622992897972e-02 5.0778050501427844e-03 0.0000000000000000e+00  1.4169401591199280e-02 1.3556131570298028e-04 0.0000000000000000e+00  1.4288139522053031e-02 -4.8037760345511571e-03 0.0000000000000000e+00  2.2692504381215853e-02 5.8174515774745902e-03 0.0000000000000000e+00  2.2596728226632563e-02 1.8389127349953985e-04 0.0000000000000000e+00  2.2660519145222220e-02 -5.4477047686214211e-03 0.0000000000000000e+00  3.1817291616115677e-02 6.2270038075986824e-03 0.0000000000000000e+00  3.1759173999392723e-02 2.3346272683000583e-04 0.0000000000000000e+00  3.1781517494755926e-02 -5.7584722806154377e-03 0.0000000000000000e+00  4.1257073091708209e-02 6.4006747392189971e-03 0.0000000000000000e+00  4.1224391133871892e-02 2.8346073495689859e-04 0.0000000000000000e+00  4.1218136677473170e-02 -5.8325407434086851e-03 0.0000000000000000e+00  5.0720949911283751e-02 6.4224368665296693e-03 0.0000000000000000e+00  5.0704027462332275e-02 3.3263772705461480e-04 0.0000000000000000e+00  5.0680882917680865e-02 -5.7562263793689604e-03 0.0000000000000000e+00  6.0040901781422816e-02 6.3612064513477243e-03 0.0000000000000000e+00  6.0031060658829162e-02 3.7990110858134919e-04 0.0000000000000000e+00  6.0000030701023409e-02 -5.6007774535544261e-03 0.0000000000000000e+00  6.9141744666648949e-02 6.2719341262751915e-03 0.0000000000000000e+00  6.9133997265812736e-02 4.2424569014080574e-04 0.0000000000000000e+00  6.9102334730512138e-02 -5.4226597328278121e-03 0.0000000000000000e+00  7.8030104210398701e-02 6.1945649543421752e-03 0.0000000000000000e+00  7.8016924361933346e-02 4.6588402652477637e-04 0.0000000000000000e+00  7.7989366801058321e-02 -5.2640040276000187e-03 0.0000000000000000e+00  8.6742567304893922e-02 6.1604178748131053e-03 0.0000000000000000e+00  8.6738650378049995e-02 5.0145256246454531e-04 0.0000000000000000e+00  8.6720542358477939e-02 -5.1536723536963654e-03 0.0000000000000000e+00  9.5439729482452759e-02 6.1588860897410337e-03 0.0000000000000000e+00  9.5398793483816968e-02 5.3864858154250596e-04 0.0000000000000000e+00  9.5369325098514146e-02 -5.0859901544885490e-03 0.0000000000000000e+00  1.0401537053317195e-01 6.1718715311508401e-03 0.0000000000000000e+00  1.0403706126495922e-01 5.9167401987856227e-04 0.0000000000000000e+00  1.0405899321982247e-01 -5.0675894445311601e-03 0.0000000000000000e+00  </DataArray> 
</PointData> 
</Piece>
</UnstructuredGrid>
</VTKFile>