<?xml version="1.0"?>
<VTKFile type="UnstructuredGrid"  version="0.1"  >
<UnstructuredGrid>
<Piece  NumberOfPoints="42" NumberOfCells="52">
<Points>
<DataArray  type="Float64"  NumberOfComponents="3"  format="ascii">-0.05 0 0  0 0 0  0.05 0 0  -0.05 0.07692307692307693 0  0 0.07692307692307693 0  0.05 0.07692307692307693 0  -0.05 0.1538461538461539 0  0 0.1538461538461539 0  0.05 0.1538461538461539 0  -0.05 0.2307692307692308 0  0 0.2307692307692308 0  0.05 0.2307692307692308 0  -0.05 0.3076923076923077 0  0 0.3076923076923077 0  0.05 0.3076923076923077 0  -0.05 0.3846153846153846 0  0 0.3846153846153846 0  0.05 0.3846153846153846 0  -0.05 0.4615384615384616 0  0 0.4615384615384616 0  0.05 0.4615384615384616 0  -0.05 0.5384615384615384 0  0 0.5384615384615384 0  0.05 0.5384615384615384 0  -0.05 0.6153846153846154 0  0 0.6153846153846154 0  0.05 0.6153846153846154 0  -0.05 0.6923076923076923 0  0 0.6923076923076923 0  0.05 0.6923076923076923 0  -0.05 0.7692307692307693 0  0 0.7692307692307693 0  0.05 0.7692307692307693 0  -0.05 0.8461538461538461 0  0 0.8461538461538461 0  0.05 0.8461538461538461 0  -0.05 0.9230769230769231 0  0 0.9230769230769231 0  0.05 0.9230769230769231 0  -0.05 1 0  0 1 0  0.05 1 0  </DataArray>
</Points>
<Cells>
<DataArray  type="UInt32"  Name="connectivity"  format="ascii">0 1 4  0 3 4  1 2 5  1 4 5  3 4 7  3 6 7  4 5 8  4 7 8  6 7 10  6 9 10  7 8 11  7 10 11  9 10 13  9 12 13  10 11 14  10 13 14  12 13 16  12 15 16  13 14 17  13 16 17  15 16 19  15 18 19  16 17 20  16 19 20  18 19 22  18 21 22  19 20 23  19 22 23  21 22 25  21 24 25  22 23 26  22 25 26  24 25 28  24 27 28  25 26 29  25 28 29  27 28 31  27 30 31  28 29 32  28 31 32  30 31 34  30 33 34  31 32 35  31 34 35  33 34 37  33 36 37  34 35 38  34 37 38  36 37 40  36 39 40  37 38 41  37 40 41  </DataArray>
<DataArray  type="UInt32"  Name="offsets"  format="ascii">3 6 9 12 15 18 21 24 27 30 33 36 39 42 45 48 51 54 57 60 63 66 69 72 75 78 81 84 87 90 93 96 99 102 105 108 111 114 117 120 123 126 129 132 135 138 141 144 147 150 153 156 </DataArray>
<DataArray  type="UInt8"  Name="types"  format="ascii">5 5 5 5 5 5 5 5 5 5 5 5 5 5 5 5 5 5 5 5 5 5 5 5 5 5 5 5 5 5 5 5 5 5 5 5 5 5 5 5 5 5 5 5 5 5 5 5 5 5 5 5 </DataArray>
</Cells>
<PointData  Vectors="Displacement"> 
<DataArray  type="Float64"  Name="Displacement"  NumberOfComponents="3" format="ascii">-3.3176892430045946e-16 3.9495619476360235e-18 0.0000000000000000e+00  3.0854616577022885e-17 -3.6337730793763935e-19 0.0000000000000000e+00  -9.2563849731068668e-17 1.0901319238129182e-18 0.0000000000000000e+00  6.8111326744782312e-04 5.7712425596019687e-04 0.0000000000000000e+00  5.9694376074101929e-04 5.1160407600063773e-05 0.0000000000000000e+00  6.3288260592468009e-04 -4.7898083448906319e-04 0.0000000000000000e+00  1.8395295327423508e-03 8.8687175769490108e-04 0.0000000000000000e+00  1.7937815484252747e-03 9.9106423658561720e-05 0.0000000000000000e+00  1.8041784455852040e-03 -6.8699926507184131e-04 0.0000000000000000e+00  3.2023568528058853e-03 9.8505847399671625e-04 0.0000000000000000e+00  3.1799395767409537e-03 1.4655570257879206e-04 0.0000000000000000e+00  3.1624434574663504e-03 -6.8723395016805945e-04 0.0000000000000000e+00  4.4888082644411638e-03 9.3287397340906806e-04 0.0000000000000000e+00  4.4808996988186557e-03 1.9784663594801097e-04 0.0000000000000000e+00  4.4435704727603855e-03 -5.3278401871463587e-04 0.0000000000000000e+00  5.5057937644822632e-03 7.9034286507959875e-04 0.0000000000000000e+00  5.5052657624493264e-03 2.5236352428105994e-04 0.0000000000000000e+00  5.4579824093708802e-03 -2.8260465078327242e-04 0.0000000000000000e+00  6.1572370803224417e-03 6.0610337376047264e-04 0.0000000000000000e+00  6.1615659130694880e-03 3.0257320641964780e-04 0.0000000000000000e+00  6.1145001143018728e-03 -3.3790942434691528e-07 0.0000000000000000e+00  6.4300952730443912e-03 4.2083904048980378e-04 0.0000000000000000e+00  6.4328004507518593e-03 3.4244695070186331e-04 0.0000000000000000e+00  6.3906759985528231e-03 2.6867086600296133e-04 0.0000000000000000e+00  6.3695025810286358e-03 2.7550821914376427e-04 0.0000000000000000e+00  6.3628758844285847e-03 3.8139226087249140e-04 0.0000000000000000e+00  6.3272365868881865e-03 4.8944697279639036e-04 0.0000000000000000e+00  6.0659261543319189e-03 1.9704315221357577e-04 0.0000000000000000e+00  6.0533213937915683e-03 4.1695070451310342e-04 0.0000000000000000e+00  6.0298268375810257e-03 6.4104814211441211e-04 0.0000000000000000e+00  5.6515035601036791e-03 1.8859777015804385e-04 0.0000000000000000e+00  5.6272263955294910e-03 4.5291886749169872e-04 0.0000000000000000e+00  5.6100324815201979e-03 7.1899733249532801e-04 0.0000000000000000e+00  5.2105369586375556e-03 2.2965210936235324e-04 0.0000000000000000e+00  5.1986928254682437e-03 4.8529409357837649e-04 0.0000000000000000e+00  5.1915159762124406e-03 7.4620781112367672e-04 0.0000000000000000e+00  4.8623834230383627e-03 2.7206484203409303e-04 0.0000000000000000e+00  4.8186246850291763e-03 5.2076149037307690e-04 0.0000000000000000e+00  4.7918547235985560e-03 7.6781692600748092e-04 0.0000000000000000e+00  4.4164599885327567e-03 2.7845778478114628e-04 0.0000000000000000e+00  4.4324412673832289e-03 5.7016473361737449e-04 0.0000000000000000e+00  4.4509849439912184e-03 7.8094157039876951e-04 0.0000000000000000e+00  </DataArray> 
</PointData> 
</Piece>
</UnstructuredGrid>
</VTKFile>