<?xml version="1.0"?>
<VTKFile type="UnstructuredGrid"  version="0.1"  >
<UnstructuredGrid>
<Piece  NumberOfPoints="42" NumberOfCells="52">
<Points>
<DataArray  type="Float64"  NumberOfComponents="3"  format="ascii">-0.05 0 0  0 0 0  0.05 0 0  -0.05 0.07692307692307693 0  0 0.07692307692307693 0  0.05 0.07692307692307693 0  -0.05 0.1538461538461539 0  0 0.1538461538461539 0  0.05 0.1538461538461539 0  -0.05 0.2307692307692308 0  0 0.2307692307692308 0  0.05 0.2307692307692308 0  -0.05 0.3076923076923077 0  0 0.3076923076923077 0  0.05 0.3076923076923077 0  -0.05 0.3846153846153846 0  0 0.3846153846153846 0  0.05 0.3846153846153846 0  -0.05 0.4615384615384616 0  0 0.4615384615384616 0  0.05 0.4615384615384616 0  -0.05 0.5384615384615384 0  0 0.5384615384615384 0  0.05 0.5384615384615384 0  -0.05 0.6153846153846154 0  0 0.6153846153846154 0  0.05 0.6153846153846154 0  -0.05 0.6923076923076923 0  0 0.6923076923076923 0  0.05 0.6923076923076923 0  -0.05 0.7692307692307693 0  0 0.7692307692307693 0  0.05 0.7692307692307693 0  -0.05 0.8461538461538461 0  0 0.8461538461538461 0  0.05 0.8461538461538461 0  -0.05 0.9230769230769231 0  0 0.9230769230769231 0  0.05 0.9230769230769231 0  -0.05 1 0  0 1 0  0.05 1 0  </DataArray>
</Points>
<Cells>
<DataArray  type="UInt32"  Name="connectivity"  format="ascii">0 1 4  0 3 4  1 2 5  1 4 5  3 4 7  3 6 7  4 5 8  4 7 8  6 7 10  6 9 10  7 8 11  7 10 11  9 10 13  9 12 13  10 11 14  10 13 14  12 13 16  12 15 16  13 14 17  13 16 17  15 16 19  15 18 19  16 17 20  16 19 20  18 19 22  18 21 22  19 20 23  19 22 23  21 22 25  21 24 25  22 23 26  22 25 26  24 25 28  24 27 28  25 26 29  25 28 29  27 28 31  27 30 31  28 29 32  28 31 32  30 31 34  30 33 34  31 32 35  31 34 35  33 34 37  33 36 37  34 35 38  34 37 38  36 37 40  36 39 40  37 38 41  37 40 41  </DataArray>
<DataArray  type="UInt32"  Name="offsets"  format="ascii">3 6 9 12 15 18 21 24 27 30 33 36 39 42 45 48 51 54 57 60 63 66 69 72 75 78 81 84 87 90 93 96 99 102 105 108 111 114 117 120 123 126 129 132 135 138 141 144 147 150 153 156 </DataArray>
<DataArray  type="UInt8"  Name="types"  format="ascii">5 5 5 5 5 5 5 5 5 5 5 5 5 5 5 5 5 5 5 5 5 5 5 5 5 5 5 5 5 5 5 5 5 5 5 5 5 5 5 5 5 5 5 5 5 5 5 5 5 5 5 5 </DataArray>
</Cells>
<PointData  Vectors="Displacement"> 
<DataArray  type="Float64"  Name="Displacement"  NumberOfComponents="3" format="ascii">-3.3507398048104039e-16 1.6580139734691098e-17 0.0000000000000000e+00  3.1567536443223332e-17 -1.6583323092258087e-18 0.0000000000000000e+00  -9.4702609329670008e-17 4.9749969276774264e-18 0.0000000000000000e+00  2.3246091652203969e-03 2.3676145950195931e-03 0.0000000000000000e+00  1.9862615696257316e-03 -1.2311046679242639e-05 0.0000000000000000e+00  2.3039128771794189e-03 -2.4293513796624505e-03 0.0000000000000000e+00  7.8317995851230077e-03 4.4506991294004389e-03 0.0000000000000000e+00  7.5593174046601789e-03 -4.7780031982835881e-05 0.0000000000000000e+00  7.8412004973109593e-03 -4.5469081494053099e-03 0.0000000000000000e+00  1.6318114623712396e-02 6.2123114427380145e-03 0.0000000000000000e+00  1.6085216207920215e-02 -6.9788609038937870e-05 0.0000000000000000e+00  1.6320798601790570e-02 -6.3496682320491257e-03 0.0000000000000000e+00  2.7306770347759649e-02 7.6966390238887268e-03 0.0000000000000000e+00  2.7109220271161808e-02 -8.6796014421060903e-05 0.0000000000000000e+00  2.7306781827850780e-02 -7.8693576009953164e-03 0.0000000000000000e+00  4.0400568576198413e-02 8.9360646914066304e-03 0.0000000000000000e+00  4.0236195343198694e-02 -1.0043866628247174e-04 0.0000000000000000e+00  4.0399207311815705e-02 -9.1366890623296709e-03 0.0000000000000000e+00  5.5237347031125580e-02 9.9415435207998275e-03 0.0000000000000000e+00  5.5105578395256510e-02 -1.1089344903703681e-04 0.0000000000000000e+00  5.5234937830785563e-02 -1.0163664482880133e-02 0.0000000000000000e+00  7.1452028095756945e-02 1.0713796705102308e-02 0.0000000000000000e+00  7.1352443882524527e-02 -1.1887833669854893e-04 0.0000000000000000e+00  7.1449283484804102e-02 -1.0952185901263520e-02 0.0000000000000000e+00  8.8682612821537318e-02 1.1264245328880826e-02 0.0000000000000000e+00  8.8611309647742872e-02 -1.2490844128468893e-04 0.0000000000000000e+00  8.8678108935017930e-02 -1.1514874488447457e-02 0.0000000000000000e+00  1.0659610542804314e-01 1.1624114357640457e-02 0.0000000000000000e+00  1.0654842268199288e-01 -1.2886820672744002e-04 0.0000000000000000e+00  1.0658985853121597e-01 -1.1881966057740811e-02 0.0000000000000000e+00  1.2492801873148025e-01 1.1838185997174762e-02 0.0000000000000000e+00  1.2489367180944783e-01 -1.2858952738662992e-04 0.0000000000000000e+00  1.2491521403282073e-01 -1.2097003231408611e-02 0.0000000000000000e+00  1.4347225353678894e-01 1.1963135914366305e-02 0.0000000000000000e+00  1.4345996830108315e-01 -1.2513405622039002e-04 0.0000000000000000e+00  1.4346974478691307e-01 -1.2207856196807053e-02 0.0000000000000000e+00  1.6217764515491723e-01 1.2015543301724947e-02 0.0000000000000000e+00  1.6213852441675985e-01 -1.0883011790811025e-04 0.0000000000000000e+00  1.6212086254549607e-01 -1.2238477590058439e-02 0.0000000000000000e+00  1.8081141814944288e-01 1.2043240111808053e-02 0.0000000000000000e+00  1.8083267560478103e-01 -6.4860267951777478e-05 0.0000000000000000e+00  1.8085409420530446e-01 -1.2248977697104875e-02 0.0000000000000000e+00  </DataArray> 
</PointData> 
</Piece>
</UnstructuredGrid>
</VTKFile>