<?xml version="1.0"?>
<VTKFile type="UnstructuredGrid"  version="0.1"  >
<UnstructuredGrid>
<Piece  NumberOfPoints="42" NumberOfCells="52">
<Points>
<DataArray  type="Float64"  NumberOfComponents="3"  format="ascii">-0.05 0 0  0 0 0  0.05 0 0  -0.05 0.07692307692307693 0  0 0.07692307692307693 0  0.05 0.07692307692307693 0  -0.05 0.1538461538461539 0  0 0.1538461538461539 0  0.05 0.1538461538461539 0  -0.05 0.2307692307692308 0  0 0.2307692307692308 0  0.05 0.2307692307692308 0  -0.05 0.3076923076923077 0  0 0.3076923076923077 0  0.05 0.3076923076923077 0  -0.05 0.3846153846153846 0  0 0.3846153846153846 0  0.05 0.3846153846153846 0  -0.05 0.4615384615384616 0  0 0.4615384615384616 0  0.05 0.4615384615384616 0  -0.05 0.5384615384615384 0  0 0.5384615384615384 0  0.05 0.5384615384615384 0  -0.05 0.6153846153846154 0  0 0.6153846153846154 0  0.05 0.6153846153846154 0  -0.05 0.6923076923076923 0  0 0.6923076923076923 0  0.05 0.6923076923076923 0  -0.05 0.7692307692307693 0  0 0.7692307692307693 0  0.05 0.7692307692307693 0  -0.05 0.8461538461538461 0  0 0.8461538461538461 0  0.05 0.8461538461538461 0  -0.05 0.9230769230769231 0  0 0.9230769230769231 0  0.05 0.9230769230769231 0  -0.05 1 0  0 1 0  0.05 1 0  </DataArray>
</Points>
<Cells>
<DataArray  type="UInt32"  Name="connectivity"  format="ascii">0 1 4  0 3 4  1 2 5  1 4 5  3 4 7  3 6 7  4 5 8  4 7 8  6 7 10  6 9 10  7 8 11  7 10 11  9 10 13  9 12 13  10 11 14  10 13 14  12 13 16  12 15 16  13 14 17  13 16 17  15 16 19  15 18 19  16 17 20  16 19 20  18 19 22  18 21 22  19 20 23  19 22 23  21 22 25  21 24 25  22 23 26  22 25 26  24 25 28  24 27 28  25 26 29  25 28 29  27 28 31  27 30 31  28 29 32  28 31 32  30 31 34  30 33 34  31 32 35  31 34 35  33 34 37  33 36 37  34 35 38  34 37 38  36 37 40  36 39 40  37 38 41  37 40 41  </DataArray>
<DataArray  type="UInt32"  Name="offsets"  format="ascii">3 6 9 12 15 18 21 24 27 30 33 36 39 42 45 48 51 54 57 60 63 66 69 72 75 78 81 84 87 90 93 96 99 102 105 108 111 114 117 120 123 126 129 132 135 138 141 144 147 150 153 156 </DataArray>
<DataArray  type="UInt8"  Name="types"  format="ascii">5 5 5 5 5 5 5 5 5 5 5 5 5 5 5 5 5 5 5 5 5 5 5 5 5 5 5 5 5 5 5 5 5 5 5 5 5 5 5 5 5 5 5 5 5 5 5 5 5 5 5 5 </DataArray>
</Cells>
<PointData  Vectors="Displacement"> 
<DataArray  type="Float64"  Name="Displacement"  NumberOfComponents="3" format="ascii">-3.4375714292990317e-16 2.8408813366550873e-17 0.0000000000000000e+00  2.8359118906640263e-17 -2.5921712276328322e-18 0.0000000000000000e+00  -8.5077356719920794e-17 7.7765136828984969e-18 0.0000000000000000e+00  3.9870134512422009e-03 4.0229303938904360e-03 0.0000000000000000e+00  3.4336052052618303e-03 -1.6257720508237349e-05 0.0000000000000000e+00  3.9729511608601444e-03 -4.1218567250512214e-03 0.0000000000000000e+00  1.3331844536462327e-02 7.4662879292746792e-03 0.0000000000000000e+00  1.2904194018884409e-02 -7.5093520395098142e-05 0.0000000000000000e+00  1.3366457418539437e-02 -7.6198950867100270e-03 0.0000000000000000e+00  2.7510384416054967e-02 1.0247067323938906e-02 0.0000000000000000e+00  2.7167783201552761e-02 -1.1100275985080256e-04 0.0000000000000000e+00  2.7534998210839635e-02 -1.0467187575768956e-02 0.0000000000000000e+00  4.5516795915424624e-02 1.2423666857006554e-02 0.0000000000000000e+00  4.5252347385997829e-02 -1.3645975037055976e-04 0.0000000000000000e+00  4.5534623078445864e-02 -1.2696271019893077e-02 0.0000000000000000e+00  6.6445473864002083e-02 1.4048968583597462e-02 0.0000000000000000e+00  6.6251489291218851e-02 -1.5264617641116271e-04 0.0000000000000000e+00  6.6456381389473948e-02 -1.4354638778641063e-02 0.0000000000000000e+00  8.9471299767578158e-02 1.5186532208975263e-02 0.0000000000000000e+00  8.9336931371236203e-02 -1.6008651951104346e-04 0.0000000000000000e+00  8.9474706676511362e-02 -1.5507756540712276e-02 0.0000000000000000e+00  1.1388371144210765e-01 1.5921622607240185e-02 0.0000000000000000e+00  1.1379637790676954e-01 -1.6038216049892173e-04 0.0000000000000000e+00  1.1388058110811559e-01 -1.6243785047161098e-02 0.0000000000000000e+00  1.3912664520908707e-01 1.6354450815244889e-02 0.0000000000000000e+00  1.3907180610128891e-01 -1.5480444069168424e-04 0.0000000000000000e+00  1.3911661493499550e-01 -1.6665817572055461e-02 0.0000000000000000e+00  1.6480750979360290e-01 1.6585804991352177e-02 0.0000000000000000e+00  1.6477392108706693e-01 -1.4425893859874639e-04 0.0000000000000000e+00  1.6479269082559075e-01 -1.6875617323596447e-02 0.0000000000000000e+00  1.9068839660605763e-01 1.6696838392946507e-02 0.0000000000000000e+00  1.9066338875361968e-01 -1.2851355431217409e-04 0.0000000000000000e+00  1.9066653350521770e-01 -1.6957433735281212e-02 0.0000000000000000e+00  2.1662344600326730e-01 1.6759002274049074e-02 0.0000000000000000e+00  2.1661530854387676e-01 -1.1167504385114509e-04 0.0000000000000000e+00  2.1661356881588789e-01 -1.6977701364112682e-02 0.0000000000000000e+00  2.4263695971828539e-01 1.6786761950771101e-02 0.0000000000000000e+00  2.4259787633751068e-01 -8.5826862726747898e-05 0.0000000000000000e+00  2.4257584023540549e-01 -1.6967572468402154e-02 0.0000000000000000e+00  2.6857392724026607e-01 1.6824519484929992e-02 0.0000000000000000e+00  2.6859760962542178e-01 -3.6142968498847208e-05 0.0000000000000000e+00  2.6861787863346248e-01 -1.6978042661974651e-02 0.0000000000000000e+00  </DataArray> 
</PointData> 
</Piece>
</UnstructuredGrid>
</VTKFile>