<?xml version="1.0"?>
<VTKFile type="UnstructuredGrid"  version="0.1"  >
<UnstructuredGrid>
<Piece  NumberOfPoints="42" NumberOfCells="52">
<Points>
<DataArray  type="Float64"  NumberOfComponents="3"  format="ascii">-0.05 0 0  0 0 0  0.05 0 0  -0.05 0.07692307692307693 0  0 0.07692307692307693 0  0.05 0.07692307692307693 0  -0.05 0.1538461538461539 0  0 0.1538461538461539 0  0.05 0.1538461538461539 0  -0.05 0.2307692307692308 0  0 0.2307692307692308 0  0.05 0.2307692307692308 0  -0.05 0.3076923076923077 0  0 0.3076923076923077 0  0.05 0.3076923076923077 0  -0.05 0.3846153846153846 0  0 0.3846153846153846 0  0.05 0.3846153846153846 0  -0.05 0.4615384615384616 0  0 0.4615384615384616 0  0.05 0.4615384615384616 0  -0.05 0.5384615384615384 0  0 0.5384615384615384 0  0.05 0.5384615384615384 0  -0.05 0.6153846153846154 0  0 0.6153846153846154 0  0.05 0.6153846153846154 0  -0.05 0.6923076923076923 0  0 0.6923076923076923 0  0.05 0.6923076923076923 0  -0.05 0.7692307692307693 0  0 0.7692307692307693 0  0.05 0.7692307692307693 0  -0.05 0.8461538461538461 0  0 0.8461538461538461 0  0.05 0.8461538461538461 0  -0.05 0.9230769230769231 0  0 0.9230769230769231 0  0.05 0.9230769230769231 0  -0.05 1 0  0 1 0  0.05 1 0  </DataArray>
</Points>
<Cells>
<DataArray  type="UInt32"  Name="connectivity"  format="ascii">0 1 4  0 3 4  1 2 5  1 4 5  3 4 7  3 6 7  4 5 8  4 7 8  6 7 10  6 9 10  7 8 11  7 10 11  9 10 13  9 12 13  10 11 14  10 13 14  12 13 16  12 15 16  13 14 17  13 16 17  15 16 19  15 18 19  16 17 20  16 19 20  18 19 22  18 21 22  19 20 23  19 22 23  21 22 25  21 24 25  22 23 26  22 25 26  24 25 28  24 27 28  25 26 29  25 28 29  27 28 31  27 30 31  28 29 32  28 31 32  30 31 34  30 33 34  31 32 35  31 34 35  33 34 37  33 36 37  34 35 38  34 37 38  36 37 40  36 39 40  37 38 41  37 40 41  </DataArray>
<DataArray  type="UInt32"  Name="offsets"  format="ascii">3 6 9 12 15 18 21 24 27 30 33 36 39 42 45 48 51 54 57 60 63 66 69 72 75 78 81 84 87 90 93 96 99 102 105 108 111 114 117 120 123 126 129 132 135 138 141 144 147 150 153 156 </DataArray>
<DataArray  type="UInt8"  Name="types"  format="ascii">5 5 5 5 5 5 5 5 5 5 5 5 5 5 5 5 5 5 5 5 5 5 5 5 5 5 5 5 5 5 5 5 5 5 5 5 5 5 5 5 5 5 5 5 5 5 5 5 5 5 5 5 </DataArray>
</Cells>
<PointData  Vectors="Displacement"> 
<DataArray  type="Float64"  Name="Displacement"  NumberOfComponents="3" format="ascii">-3.3179295335918024e-16 1.1521204800501971e-17 0.0000000000000000e+00  3.2696935906442223e-17 -1.1741738971262759e-18 0.0000000000000000e+00  -9.8090807719326675e-17 3.5225216913788280e-18 0.0000000000000000e+00  1.6797253061099271e-03 1.6947344599952492e-03 0.0000000000000000e+00  1.4302877129113302e-03 5.2490796733444187e-05 0.0000000000000000e+00  1.6236379339720733e-03 -1.6121935018821457e-03 0.0000000000000000e+00  5.4522137411156949e-03 3.1198087739039526e-03 0.0000000000000000e+00  5.2554581254528783e-03 9.1257059383071970e-05 0.0000000000000000e+00  5.4197392985091070e-03 -2.9372169506519585e-03 0.0000000000000000e+00  1.1116285586933288e-02 4.2871590777294136e-03 0.0000000000000000e+00  1.0948538512821142e-02 1.3626012127159211e-04 0.0000000000000000e+00  1.1078355551445165e-02 -4.0121253219147137e-03 0.0000000000000000e+00  1.8319420693231704e-02 5.2662397481879047e-03 0.0000000000000000e+00  1.8172635481329479e-02 1.8190816216812427e-04 0.0000000000000000e+00  1.8280036208795699e-02 -4.9013621797262385e-03 0.0000000000000000e+00  2.6829758890473517e-02 6.1163407367326051e-03 0.0000000000000000e+00  2.6698853931177307e-02 2.2479956559154932e-04 0.0000000000000000e+00  2.6792028536931096e-02 -5.6667058613181238e-03 0.0000000000000000e+00  3.6499841456219040e-02 6.8719889750301025e-03 0.0000000000000000e+00  3.6382997723874107e-02 2.6258856063343769e-04 0.0000000000000000e+00  3.6465856494649444e-02 -6.3474634562281623e-03 0.0000000000000000e+00  4.7212756354808032e-02 7.5366719601088518e-03 0.0000000000000000e+00  4.7111809400401071e-02 2.9408870748037574e-04 0.0000000000000000e+00  4.7184283667224276e-02 -6.9493918383345590e-03 0.0000000000000000e+00  5.8832093571211115e-02 8.0960331515982260e-03 0.0000000000000000e+00  5.8747672381383224e-02 3.1956749047531058e-04 0.0000000000000000e+00  5.8807565710956938e-02 -7.4578367504342328e-03 0.0000000000000000e+00  7.1191101679123361e-02 8.5455783467600164e-03 0.0000000000000000e+00  7.1123686933373731e-02 3.4053449176769734e-04 0.0000000000000000e+00  7.1170028589484943e-02 -7.8644944300532028e-03 0.0000000000000000e+00  8.4132894078999806e-02 8.8892728388823682e-03 0.0000000000000000e+00  8.4078198475173990e-02 3.6121666309976811e-04 0.0000000000000000e+00  8.4109161142061864e-02 -8.1679643549132409e-03 0.0000000000000000e+00  9.7477776849266326e-02 9.1312917345754852e-03 0.0000000000000000e+00  9.7450782362844920e-02 3.8180755119042578e-04 0.0000000000000000e+00  9.7468056838900641e-02 -8.3630290234070134e-03 0.0000000000000000e+00  1.1111706262526737e-01 9.2529099939938995e-03 0.0000000000000000e+00  1.1107190867667745e-01 4.0980597324588363e-04 0.0000000000000000e+00  1.1105697961004987e-01 -8.4379772111281559e-03 0.0000000000000000e+00  1.2471898120063213e-01 9.2889495117384237e-03 0.0000000000000000e+00  1.2473850389475954e-01 4.5673139715026194e-04 0.0000000000000000e+00  1.2476212605787286e-01 -8.4513192381681784e-03 0.0000000000000000e+00  </DataArray> 
</PointData> 
</Piece>
</UnstructuredGrid>
</VTKFile>