<?xml version="1.0"?>
<VTKFile type="UnstructuredGrid"  version="0.1"  >
<UnstructuredGrid>
<Piece  NumberOfPoints="42" NumberOfCells="52">
<Points>
<DataArray  type="Float64"  NumberOfComponents="3"  format="ascii">-0.05 0 0  0 0 0  0.05 0 0  -0.05 0.07692307692307693 0  0 0.07692307692307693 0  0.05 0.07692307692307693 0  -0.05 0.1538461538461539 0  0 0.1538461538461539 0  0.05 0.1538461538461539 0  -0.05 0.2307692307692308 0  0 0.2307692307692308 0  0.05 0.2307692307692308 0  -0.05 0.3076923076923077 0  0 0.3076923076923077 0  0.05 0.3076923076923077 0  -0.05 0.3846153846153846 0  0 0.3846153846153846 0  0.05 0.3846153846153846 0  -0.05 0.4615384615384616 0  0 0.4615384615384616 0  0.05 0.4615384615384616 0  -0.05 0.5384615384615384 0  0 0.5384615384615384 0  0.05 0.5384615384615384 0  -0.05 0.6153846153846154 0  0 0.6153846153846154 0  0.05 0.6153846153846154 0  -0.05 0.6923076923076923 0  0 0.6923076923076923 0  0.05 0.6923076923076923 0  -0.05 0.7692307692307693 0  0 0.7692307692307693 0  0.05 0.7692307692307693 0  -0.05 0.8461538461538461 0  0 0.8461538461538461 0  0.05 0.8461538461538461 0  -0.05 0.9230769230769231 0  0 0.9230769230769231 0  0.05 0.9230769230769231 0  -0.05 1 0  0 1 0  0.05 1 0  </DataArray>
</Points>
<Cells>
<DataArray  type="UInt32"  Name="connectivity"  format="ascii">0 1 4  0 3 4  1 2 5  1 4 5  3 4 7  3 6 7  4 5 8  4 7 8  6 7 10  6 9 10  7 8 11  7 10 11  9 10 13  9 12 13  10 11 14  10 13 14  12 13 16  12 15 16  13 14 17  13 16 17  15 16 19  15 18 19  16 17 20  16 19 20  18 19 22  18 21 22  19 20 23  19 22 23  21 22 25  21 24 25  22 23 26  22 25 26  24 25 28  24 27 28  25 26 29  25 28 29  27 28 31  27 30 31  28 29 32  28 31 32  30 31 34  30 33 34  31 32 35  31 34 35  33 34 37  33 36 37  34 35 38  34 37 38  36 37 40  36 39 40  37 38 41  37 40 41  </DataArray>
<DataArray  type="UInt32"  Name="offsets"  format="ascii">3 6 9 12 15 18 21 24 27 30 33 36 39 42 45 48 51 54 57 60 63 66 69 72 75 78 81 84 87 90 93 96 99 102 105 108 111 114 117 120 123 126 129 132 135 138 141 144 147 150 153 156 </DataArray>
<DataArray  type="UInt8"  Name="types"  format="ascii">5 5 5 5 5 5 5 5 5 5 5 5 5 5 5 5 5 5 5 5 5 5 5 5 5 5 5 5 5 5 5 5 5 5 5 5 5 5 5 5 5 5 5 5 5 5 5 5 5 5 5 5 </DataArray>
</Cells>
<PointData  Vectors="Displacement"> 
<DataArray  type="Float64"  Name="Displacement"  NumberOfComponents="3" format="ascii">-3.3174972976680450e-16 9.6664229633249621e-18 0.0000000000000000e+00  3.1936643034119755e-17 -9.5819390531233941e-19 0.0000000000000000e+00  -9.5809929102359266e-17 2.8745817159370182e-18 0.0000000000000000e+00  1.4411692491069709e-03 1.3746535002232818e-03 0.0000000000000000e+00  1.2490831768829755e-03 1.4994009139434131e-05 0.0000000000000000e+00  1.4117538648794365e-03 -1.3642722912152537e-03 0.0000000000000000e+00  4.5527820082293478e-03 2.4308602220910764e-03 0.0000000000000000e+00  4.4179649712506449e-03 1.6080497572256447e-05 0.0000000000000000e+00  4.5444895063991965e-03 -2.3983780959192379e-03 0.0000000000000000e+00  9.0150204813195349e-03 3.1714260835349509e-03 0.0000000000000000e+00  8.9196934461031330e-03 2.0741317529823924e-05 0.0000000000000000e+00  9.0041163135495747e-03 -3.1277554267373454e-03 0.0000000000000000e+00  1.4375221203004518e-02 3.6452315796197160e-03 0.0000000000000000e+00  1.4313141668321205e-02 2.3980745672411063e-05 0.0000000000000000e+00  1.4363895063120793e-02 -3.5951009368989329e-03 0.0000000000000000e+00  2.0261530742730374e-02 3.9002497585391262e-03 0.0000000000000000e+00  2.0225217281141780e-02 2.7215009669045576e-05 0.0000000000000000e+00  2.0247700352030242e-02 -3.8430475683020999e-03 0.0000000000000000e+00  2.6371913675557988e-02 3.9922264481292262e-03 0.0000000000000000e+00  2.6352203585178809e-02 3.3883155726155096e-05 0.0000000000000000e+00  2.6353068392035869e-02 -3.9211724390235733e-03 0.0000000000000000e+00  3.2496902743902815e-02 3.9834460683662440e-03 0.0000000000000000e+00  3.2486418173042986e-02 4.6731690102196603e-05 0.0000000000000000e+00  3.2473036671545663e-02 -3.8867427131503408e-03 0.0000000000000000e+00  3.8518038661680541e-02 3.9201496823607039e-03 0.0000000000000000e+00  3.8511821943432216e-02 6.5954761014848644e-05 0.0000000000000000e+00  3.8490060523853557e-02 -3.7858239286582599e-03 0.0000000000000000e+00  4.4369891033901522e-02 3.8313049786775979e-03 0.0000000000000000e+00  4.4366091577092565e-02 8.8759616467976312e-05 0.0000000000000000e+00  4.4340883900165093e-02 -3.6516155320919707e-03 0.0000000000000000e+00  5.0032030542228677e-02 3.7401772837211385e-03 0.0000000000000000e+00  5.0024211856001803e-02 1.1319014446193939e-04 0.0000000000000000e+00  4.9999605831678902e-02 -3.5138638258568698e-03 0.0000000000000000e+00  5.5506328920266065e-02 3.6807166420685503e-03 0.0000000000000000e+00  5.5506672432828939e-02 1.3407768068977543e-04 0.0000000000000000e+00  5.5490387464523061e-02 -3.4087984158827750e-03 0.0000000000000000e+00  6.0942866924543287e-02 3.6622137462654957e-03 0.0000000000000000e+00  6.0907174767200756e-02 1.5820459691137027e-04 0.0000000000000000e+00  6.0880398356477475e-02 -3.3475281117002747e-03 0.0000000000000000e+00  6.6263472491173925e-02 3.6652439216707934e-03 0.0000000000000000e+00  6.6280934613611675e-02 2.0097298920568709e-04 0.0000000000000000e+00  6.6299330284310939e-02 -3.3309106052800712e-03 0.0000000000000000e+00  </DataArray> 
</PointData> 
</Piece>
</UnstructuredGrid>
</VTKFile>