<?xml version="1.0"?>
<VTKFile type="UnstructuredGrid"  version="0.1"  >
<UnstructuredGrid>
<Piece  NumberOfPoints="42" NumberOfCells="52">
<Points>
<DataArray  type="Float64"  NumberOfComponents="3"  format="ascii">-0.05 0 0  0 0 0  0.05 0 0  -0.05 0.07692307692307693 0  0 0.07692307692307693 0  0.05 0.07692307692307693 0  -0.05 0.1538461538461539 0  0 0.1538461538461539 0  0.05 0.1538461538461539 0  -0.05 0.2307692307692308 0  0 0.2307692307692308 0  0.05 0.2307692307692308 0  -0.05 0.3076923076923077 0  0 0.3076923076923077 0  0.05 0.3076923076923077 0  -0.05 0.3846153846153846 0  0 0.3846153846153846 0  0.05 0.3846153846153846 0  -0.05 0.4615384615384616 0  0 0.4615384615384616 0  0.05 0.4615384615384616 0  -0.05 0.5384615384615384 0  0 0.5384615384615384 0  0.05 0.5384615384615384 0  -0.05 0.6153846153846154 0  0 0.6153846153846154 0  0.05 0.6153846153846154 0  -0.05 0.6923076923076923 0  0 0.6923076923076923 0  0.05 0.6923076923076923 0  -0.05 0.7692307692307693 0  0 0.7692307692307693 0  0.05 0.7692307692307693 0  -0.05 0.8461538461538461 0  0 0.8461538461538461 0  0.05 0.8461538461538461 0  -0.05 0.9230769230769231 0  0 0.9230769230769231 0  0.05 0.9230769230769231 0  -0.05 1 0  0 1 0  0.05 1 0  </DataArray>
</Points>
<Cells>
<DataArray  type="UInt32"  Name="connectivity"  format="ascii">0 1 4  0 3 4  1 2 5  1 4 5  3 4 7  3 6 7  4 5 8  4 7 8  6 7 10  6 9 10  7 8 11  7 10 11  9 10 13  9 12 13  10 11 14  10 13 14  12 13 16  12 15 16  13 14 17  13 16 17  15 16 19  15 18 19  16 17 20  16 19 20  18 19 22  18 21 22  19 20 23  19 22 23  21 22 25  21 24 25  22 23 26  22 25 26  24 25 28  24 27 28  25 26 29  25 28 29  27 28 31  27 30 31  28 29 32  28 31 32  30 31 34  30 33 34  31 32 35  31 34 35  33 34 37  33 36 37  34 35 38  34 37 38  36 37 40  36 39 40  37 38 41  37 40 41  </DataArray>
<DataArray  type="UInt32"  Name="offsets"  format="ascii">3 6 9 12 15 18 21 24 27 30 33 36 39 42 45 48 51 54 57 60 63 66 69 72 75 78 81 84 87 90 93 96 99 102 105 108 111 114 117 120 123 126 129 132 135 138 141 144 147 150 153 156 </DataArray>
<DataArray  type="UInt8"  Name="types"  format="ascii">5 5 5 5 5 5 5 5 5 5 5 5 5 5 5 5 5 5 5 5 5 5 5 5 5 5 5 5 5 5 5 5 5 5 5 5 5 5 5 5 5 5 5 5 5 5 5 5 5 5 5 5 </DataArray>
</Cells>
<PointData  Vectors="Displacement"> 
<DataArray  type="Float64"  Name="Displacement"  NumberOfComponents="3" format="ascii">-3.3213804675434961e-16 5.9632268373410798e-18 0.0000000000000000e+00  3.0838606689035604e-17 -5.6121626613711491e-19 0.0000000000000000e+00  -9.2515820067106818e-17 1.6836487984113448e-18 0.0000000000000000e+00  9.5773670698505442e-04 8.0103373082466027e-04 0.0000000000000000e+00  8.5465391784960484e-04 -1.0248226662508711e-05 0.0000000000000000e+00  9.4607031062765850e-04 -8.3146045371737336e-04 0.0000000000000000e+00  2.7794981268373089e-03 1.2800293981526146e-03 0.0000000000000000e+00  2.7224467319556726e-03 -2.2708368719073201e-05 0.0000000000000000e+00  2.7753431741274095e-03 -1.3226263781630511e-03 0.0000000000000000e+00  5.0968901741256546e-03 1.4833843656906782e-03 0.0000000000000000e+00  5.0723076016218052e-03 -2.6520733777544054e-05 0.0000000000000000e+00  5.0879718274390133e-03 -1.5331060293057510e-03 0.0000000000000000e+00  7.5297949613882739e-03 1.4795393138308912e-03 0.0000000000000000e+00  7.5276609518292598e-03 -2.7219442611116803e-05 0.0000000000000000e+00  7.5156688827778774e-03 -1.5284433775311053e-03 0.0000000000000000e+00  9.8119218809778527e-03 1.3266789775860622e-03 0.0000000000000000e+00  9.8266863407298222e-03 -1.9588833005927894e-05 0.0000000000000000e+00  9.7917792946015415e-03 -1.3619563736481394e-03 0.0000000000000000e+00  1.1728213032816279e-02 1.0486279305089760e-03 0.0000000000000000e+00  1.1757676267521611e-02 -7.2967795881618420e-06 0.0000000000000000e+00  1.1706269624695533e-02 -1.0595977753145157e-03 0.0000000000000000e+00  1.3093933299704031e-02 6.8009411135739532e-04 0.0000000000000000e+00  1.3131154128102318e-02 6.0410652597702332e-06 0.0000000000000000e+00  1.3070447380026901e-02 -6.6520423253801919e-04 0.0000000000000000e+00  1.3810916344158132e-02 2.8135763825209699e-04 0.0000000000000000e+00  1.3847729260152887e-02 1.7176003824854302e-05 0.0000000000000000e+00  1.3786970399272184e-02 -2.4314434186671036e-04 0.0000000000000000e+00  1.3886460708504874e-02 -8.5186663074810032e-05 0.0000000000000000e+00  1.3914242182660831e-02 2.9195019456816157e-05 0.0000000000000000e+00  1.3858985201175688e-02 1.4831333514217176e-04 0.0000000000000000e+00  1.3418137056405436e-02 -3.6532288005030272e-04 0.0000000000000000e+00  1.3428068812921050e-02 4.6724841843415638e-05 0.0000000000000000e+00  1.3383576658462303e-02 4.6217302312310398e-04 0.0000000000000000e+00  1.2555730254457366e-02 -5.2245494485659487e-04 0.0000000000000000e+00  1.2562113221973583e-02 6.9065258242223047e-05 0.0000000000000000e+00  1.2534216685316530e-02 6.6627283054534580e-04 0.0000000000000000e+00  1.1567028724395995e-02 -5.7239552146326749e-04 0.0000000000000000e+00  1.1530133743875114e-02 1.0054371050986271e-04 0.0000000000000000e+00  1.1496272821432698e-02 7.7349875040114277e-04 0.0000000000000000e+00  1.0434107533719574e-02 -5.8014397771654941e-04 0.0000000000000000e+00  1.0448425793426126e-02 1.4796730966295981e-04 0.0000000000000000e+00  1.0462588033571796e-02 8.0496833300455197e-04 0.0000000000000000e+00  </DataArray> 
</PointData> 
</Piece>
</UnstructuredGrid>
</VTKFile>