<?xml version="1.0"?>
<VTKFile type="UnstructuredGrid"  version="0.1"  >
<UnstructuredGrid>
<Piece  NumberOfPoints="42" NumberOfCells="52">
<Points>
<DataArray  type="Float64"  NumberOfComponents="3"  format="ascii">-0.05 0 0  0 0 0  0.05 0 0  -0.05 0.07692307692307693 0  0 0.07692307692307693 0  0.05 0.07692307692307693 0  -0.05 0.1538461538461539 0  0 0.1538461538461539 0  0.05 0.1538461538461539 0  -0.05 0.2307692307692308 0  0 0.2307692307692308 0  0.05 0.2307692307692308 0  -0.05 0.3076923076923077 0  0 0.3076923076923077 0  0.05 0.3076923076923077 0  -0.05 0.3846153846153846 0  0 0.3846153846153846 0  0.05 0.3846153846153846 0  -0.05 0.4615384615384616 0  0 0.4615384615384616 0  0.05 0.4615384615384616 0  -0.05 0.5384615384615384 0  0 0.5384615384615384 0  0.05 0.5384615384615384 0  -0.05 0.6153846153846154 0  0 0.6153846153846154 0  0.05 0.6153846153846154 0  -0.05 0.6923076923076923 0  0 0.6923076923076923 0  0.05 0.6923076923076923 0  -0.05 0.7692307692307693 0  0 0.7692307692307693 0  0.05 0.7692307692307693 0  -0.05 0.8461538461538461 0  0 0.8461538461538461 0  0.05 0.8461538461538461 0  -0.05 0.9230769230769231 0  0 0.9230769230769231 0  0.05 0.9230769230769231 0  -0.05 1 0  0 1 0  0.05 1 0  </DataArray>
</Points>
<Cells>
<DataArray  type="UInt32"  Name="connectivity"  format="ascii">0 1 4  0 3 4  1 2 5  1 4 5  3 4 7  3 6 7  4 5 8  4 7 8  6 7 10  6 9 10  7 8 11  7 10 11  9 10 13  9 12 13  10 11 14  10 13 14  12 13 16  12 15 16  13 14 17  13 16 17  15 16 19  15 18 19  16 17 20  16 19 20  18 19 22  18 21 22  19 20 23  19 22 23  21 22 25  21 24 25  22 23 26  22 25 26  24 25 28  24 27 28  25 26 29  25 28 29  27 28 31  27 30 31  28 29 32  28 31 32  30 31 34  30 33 34  31 32 35  31 34 35  33 34 37  33 36 37  34 35 38  34 37 38  36 37 40  36 39 40  37 38 41  37 40 41  </DataArray>
<DataArray  type="UInt32"  Name="offsets"  format="ascii">3 6 9 12 15 18 21 24 27 30 33 36 39 42 45 48 51 54 57 60 63 66 69 72 75 78 81 84 87 90 93 96 99 102 105 108 111 114 117 120 123 126 129 132 135 138 141 144 147 150 153 156 </DataArray>
<DataArray  type="UInt8"  Name="types"  format="ascii">5 5 5 5 5 5 5 5 5 5 5 5 5 5 5 5 5 5 5 5 5 5 5 5 5 5 5 5 5 5 5 5 5 5 5 5 5 5 5 5 5 5 5 5 5 5 5 5 5 5 5 5 </DataArray>
</Cells>
<PointData  Vectors="Displacement"> 
<DataArray  type="Float64"  Name="Displacement"  NumberOfComponents="3" format="ascii">-3.7016556667949144e-16 5.0401814904996849e-17 0.0000000000000000e+00  1.9667409372748957e-17 -3.1834262413704436e-18 0.0000000000000000e+00  -5.9002228118246873e-17 9.5502787241113307e-18 0.0000000000000000e+00  6.7046518774249329e-03 6.8863363319172652e-03 0.0000000000000000e+00  5.7525354842292075e-03 -1.6357004540005324e-05 0.0000000000000000e+00  6.6857115975892840e-03 -7.0344118575352494e-03 0.0000000000000000e+00  2.2708885032150423e-02 1.2934102612323821e-02 0.0000000000000000e+00  2.1953669727130691e-02 -1.0711910866791194e-04 0.0000000000000000e+00  2.2772173661029807e-02 -1.3157424523950375e-02 0.0000000000000000e+00  4.7316611226303783e-02 1.7972758291346248e-02 0.0000000000000000e+00  4.6691749591631845e-02 -1.6286924983302382e-04 0.0000000000000000e+00  4.7367119429153740e-02 -1.8299178341327275e-02 0.0000000000000000e+00  7.8992145865668842e-02 2.2091676374180868e-02 0.0000000000000000e+00  7.8486358994153987e-02 -2.0655194012771818e-04 0.0000000000000000e+00  7.9034525341116019e-02 -2.2508283156871697e-02 0.0000000000000000e+00  1.1637140654955778e-01 2.5379978953084775e-02 0.0000000000000000e+00  1.1597269256623456e-01 -2.4002853287105659e-04 0.0000000000000000e+00  1.1640537480359080e-01 -2.5864535995807153e-02 0.0000000000000000e+00  1.5822647661619568e-01 2.7929245800797874e-02 0.0000000000000000e+00  1.5792109131457030e-01 -2.6248637144797159e-04 0.0000000000000000e+00  1.5825113288409451e-01 -2.8459623941402071e-02 0.0000000000000000e+00  2.0347385553448635e-01 2.9836900333767156e-02 0.0000000000000000e+00  2.0324850719082313e-01 -2.7433735620272626e-04 0.0000000000000000e+00  2.0348999201965073e-01 -3.0391400423956251e-02 0.0000000000000000e+00  2.5118647935349425e-01 3.1201732844914325e-02 0.0000000000000000e+00  2.5102674501692662e-01 -2.7636686280682518e-04 0.0000000000000000e+00  2.5119375298762481e-01 -3.1760912251605530e-02 0.0000000000000000e+00  3.0058990906317401e-01 3.2124803293952869e-02 0.0000000000000000e+00  3.0048318217292042e-01 -2.6984948329040185e-04 0.0000000000000000e+00  3.0058978175612233e-01 -3.2669870262086155e-02 0.0000000000000000e+00  3.5107127752940459e-01 3.2701829631272716e-02 0.0000000000000000e+00  3.5100080350130530e-01 -2.5480789393626032e-04 0.0000000000000000e+00  3.5106134698915514e-01 -3.3219918630265771e-02 0.0000000000000000e+00  4.0215178478311120e-01 3.3044644592269690e-02 0.0000000000000000e+00  4.0212039167615299e-01 -2.3660691991955296e-04 0.0000000000000000e+00  4.0215024755964918e-01 -3.3512110068071393e-02 0.0000000000000000e+00  4.5358883081593854e-01 3.3192987411792552e-02 0.0000000000000000e+00  4.5353807991397538e-01 -2.0523416919451858e-04 0.0000000000000000e+00  4.5352804096760441e-01 -3.3622433710882547e-02 0.0000000000000000e+00  5.0504625090045918e-01 3.3302337100292317e-02 0.0000000000000000e+00  5.0507549798978435e-01 -1.4273484518923199e-04 0.0000000000000000e+00  5.0509912521449818e-01 -3.3683045399418715e-02 0.0000000000000000e+00  </DataArray> 
</PointData> 
</Piece>
</UnstructuredGrid>
</VTKFile>