<?xml version="1.0"?>
<VTKFile type="UnstructuredGrid"  version="0.1"  >
<UnstructuredGrid>
<Piece  NumberOfPoints="42" NumberOfCells="52">
<Points>
<DataArray  type="Float64"  NumberOfComponents="3"  format="ascii">-0.05 0 0  0 0 0  0.05 0 0  -0.05 0.07692307692307693 0  0 0.07692307692307693 0  0.05 0.07692307692307693 0  -0.05 0.1538461538461539 0  0 0.1538461538461539 0  0.05 0.1538461538461539 0  -0.05 0.2307692307692308 0  0 0.2307692307692308 0  0.05 0.2307692307692308 0  -0.05 0.3076923076923077 0  0 0.3076923076923077 0  0.05 0.3076923076923077 0  -0.05 0.3846153846153846 0  0 0.3846153846153846 0  0.05 0.3846153846153846 0  -0.05 0.4615384615384616 0  0 0.4615384615384616 0  0.05 0.4615384615384616 0  -0.05 0.5384615384615384 0  0 0.5384615384615384 0  0.05 0.5384615384615384 0  -0.05 0.6153846153846154 0  0 0.6153846153846154 0  0.05 0.6153846153846154 0  -0.05 0.6923076923076923 0  0 0.6923076923076923 0  0.05 0.6923076923076923 0  -0.05 0.7692307692307693 0  0 0.7692307692307693 0  0.05 0.7692307692307693 0  -0.05 0.8461538461538461 0  0 0.8461538461538461 0  0.05 0.8461538461538461 0  -0.05 0.9230769230769231 0  0 0.9230769230769231 0  0.05 0.9230769230769231 0  -0.05 1 0  0 1 0  0.05 1 0  </DataArray>
</Points>
<Cells>
<DataArray  type="UInt32"  Name="connectivity"  format="ascii">0 1 4  0 3 4  1 2 5  1 4 5  3 4 7  3 6 7  4 5 8  4 7 8  6 7 10  6 9 10  7 8 11  7 10 11  9 10 13  9 12 13  10 11 14  10 13 14  12 13 16  12 15 16  13 14 17  13 16 17  15 16 19  15 18 19  16 17 20  16 19 20  18 19 22  18 21 22  19 20 23  19 22 23  21 22 25  21 24 25  22 23 26  22 25 26  24 25 28  24 27 28  25 26 29  25 28 29  27 28 31  27 30 31  28 29 32  28 31 32  30 31 34  30 33 34  31 32 35  31 34 35  33 34 37  33 36 37  34 35 38  34 37 38  36 37 40  36 39 40  37 38 41  37 40 41  </DataArray>
<DataArray  type="UInt32"  Name="offsets"  format="ascii">3 6 9 12 15 18 21 24 27 30 33 36 39 42 45 48 51 54 57 60 63 66 69 72 75 78 81 84 87 90 93 96 99 102 105 108 111 114 117 120 123 126 129 132 135 138 141 144 147 150 153 156 </DataArray>
<DataArray  type="UInt8"  Name="types"  format="ascii">5 5 5 5 5 5 5 5 5 5 5 5 5 5 5 5 5 5 5 5 5 5 5 5 5 5 5 5 5 5 5 5 5 5 5 5 5 5 5 5 5 5 5 5 5 5 5 5 5 5 5 5 </DataArray>
</Cells>
<PointData  Vectors="Displacement"> 
<DataArray  type="Float64"  Name="Displacement"  NumberOfComponents="3" format="ascii">-3.3339456859966791e-16 8.3345668174438302e-18 0.0000000000000000e+00  3.0828898262790853e-17 -7.8991043713463967e-19 0.0000000000000000e+00  -9.2486694788372572e-17 2.3697313114039190e-18 0.0000000000000000e+00  1.3166298233647240e-03 1.1574089661053324e-03 0.0000000000000000e+00  1.1662549934007692e-03 1.4960822387278631e-05 0.0000000000000000e+00  1.2924885586346603e-03 -1.1436285041447288e-03 0.0000000000000000e+00  3.8943310047851744e-03 1.8992258783070144e-03 0.0000000000000000e+00  3.8078638134523180e-03 1.8752961827176464e-05 0.0000000000000000e+00  3.8873324985984779e-03 -1.8609736389927415e-03 0.0000000000000000e+00  7.2775816897957344e-03 2.2718028841063171e-03 0.0000000000000000e+00  7.2363924607319104e-03 2.5728581476766753e-05 0.0000000000000000e+00  7.2669924801396207e-03 -2.2167483859337938e-03 0.0000000000000000e+00  1.0951657475129543e-02 2.3441171570865033e-03 0.0000000000000000e+00  1.0945445495114010e-02 3.5228647810083227e-05 0.0000000000000000e+00  1.0935708522398705e-02 -2.2694629233647123e-03 0.0000000000000000e+00  1.4494618056069844e-02 2.1794768879850666e-03 0.0000000000000000e+00  1.4514679634404226e-02 4.9884954432794061e-05 0.0000000000000000e+00  1.4473757171616067e-02 -2.0760675874382079e-03 0.0000000000000000e+00  1.7583089812904722e-02 1.8477401210095967e-03 0.0000000000000000e+00  1.7619303529546271e-02 6.8049708017180717e-05 0.0000000000000000e+00  1.7557771202981642e-02 -1.7080240131558107e-03 0.0000000000000000e+00  2.0010477884866477e-02 1.4273013208587844e-03 0.0000000000000000e+00  2.0051542097754383e-02 8.9064807675825553e-05 0.0000000000000000e+00  1.9980649688267429e-02 -1.2447377127324018e-03 0.0000000000000000e+00  2.1705678897534171e-02 1.0048319186413842e-03 0.0000000000000000e+00  2.1739738610858476e-02 1.1536173583910933e-04 0.0000000000000000e+00  2.1669156440881725e-02 -7.6932851266681862e-04 0.0000000000000000e+00  2.2719165568779683e-02 6.4627004834529208e-04 0.0000000000000000e+00  2.2740733576485032e-02 1.4789775646770886e-04 0.0000000000000000e+00  2.2678608456683621e-02 -3.4637071532049720e-04 0.0000000000000000e+00  2.3189418466051912e-02 3.9299749436426943e-04 0.0000000000000000e+00  2.3192991901521853e-02 1.8456961986037105e-04 0.0000000000000000e+00  2.3145276845646569e-02 -2.2028800544585961e-05 0.0000000000000000e+00  2.3292838683963264e-02 2.6391632439973418e-04 0.0000000000000000e+00  2.3294761734322690e-02 2.1966719231413610e-04 0.0000000000000000e+00  2.3265382670047938e-02 1.7946114660547836e-04 0.0000000000000000e+00  2.3291300543173278e-02 2.2814959785914392e-04 0.0000000000000000e+00  2.3254170869174740e-02 2.5670353768234862e-04 0.0000000000000000e+00  2.3220655804081707e-02 2.8457061246695714e-04 0.0000000000000000e+00  2.3155067960221133e-02 2.2556817406564343e-04 0.0000000000000000e+00  2.3170054335468926e-02 3.0439620865378649e-04 0.0000000000000000e+00  2.3187002677700651e-02 3.1795038725154718e-04 0.0000000000000000e+00  </DataArray> 
</PointData> 
</Piece>
</UnstructuredGrid>
</VTKFile>