<?xml version="1.0"?>
<VTKFile type="UnstructuredGrid"  version="0.1"  >
<UnstructuredGrid>
<Piece  NumberOfPoints="42" NumberOfCells="52">
<Points>
<DataArray  type="Float64"  NumberOfComponents="3"  format="ascii">-0.05 0 0  0 0 0  0.05 0 0  -0.05 0.07692307692307693 0  0 0.07692307692307693 0  0.05 0.07692307692307693 0  -0.05 0.1538461538461539 0  0 0.1538461538461539 0  0.05 0.1538461538461539 0  -0.05 0.2307692307692308 0  0 0.2307692307692308 0  0.05 0.2307692307692308 0  -0.05 0.3076923076923077 0  0 0.3076923076923077 0  0.05 0.3076923076923077 0  -0.05 0.3846153846153846 0  0 0.3846153846153846 0  0.05 0.3846153846153846 0  -0.05 0.4615384615384616 0  0 0.4615384615384616 0  0.05 0.4615384615384616 0  -0.05 0.5384615384615384 0  0 0.5384615384615384 0  0.05 0.5384615384615384 0  -0.05 0.6153846153846154 0  0 0.6153846153846154 0  0.05 0.6153846153846154 0  -0.05 0.6923076923076923 0  0 0.6923076923076923 0  0.05 0.6923076923076923 0  -0.05 0.7692307692307693 0  0 0.7692307692307693 0  0.05 0.7692307692307693 0  -0.05 0.8461538461538461 0  0 0.8461538461538461 0  0.05 0.8461538461538461 0  -0.05 0.9230769230769231 0  0 0.9230769230769231 0  0.05 0.9230769230769231 0  -0.05 1 0  0 1 0  0.05 1 0  </DataArray>
</Points>
<Cells>
<DataArray  type="UInt32"  Name="connectivity"  format="ascii">0 1 4  0 3 4  1 2 5  1 4 5  3 4 7  3 6 7  4 5 8  4 7 8  6 7 10  6 9 10  7 8 11  7 10 11  9 10 13  9 12 13  10 11 14  10 13 14  12 13 16  12 15 16  13 14 17  13 16 17  15 16 19  15 18 19  16 17 20  16 19 20  18 19 22  18 21 22  19 20 23  19 22 23  21 22 25  21 24 25  22 23 26  22 25 26  24 25 28  24 27 28  25 26 29  25 28 29  27 28 31  27 30 31  28 29 32  28 31 32  30 31 34  30 33 34  31 32 35  31 34 35  33 34 37  33 36 37  34 35 38  34 37 38  36 37 40  36 39 40  37 38 41  37 40 41  </DataArray>
<DataArray  type="UInt32"  Name="offsets"  format="ascii">3 6 9 12 15 18 21 24 27 30 33 36 39 42 45 48 51 54 57 60 63 66 69 72 75 78 81 84 87 90 93 96 99 102 105 108 111 114 117 120 123 126 129 132 135 138 141 144 147 150 153 156 </DataArray>
<DataArray  type="UInt8"  Name="types"  format="ascii">5 5 5 5 5 5 5 5 5 5 5 5 5 5 5 5 5 5 5 5 5 5 5 5 5 5 5 5 5 5 5 5 5 5 5 5 5 5 5 5 5 5 5 5 5 5 5 5 5 5 5 5 </DataArray>
</Cells>
<PointData  Vectors="Displacement"> 
<DataArray  type="Float64"  Name="Displacement"  NumberOfComponents="3" format="ascii">-3.4744663877399998e-16 3.2235678309120970e-17 0.0000000000000000e+00  2.7100277511048063e-17 -2.8238732555581764e-18 0.0000000000000000e+00  -8.1300832533144196e-17 8.4716197666745301e-18 0.0000000000000000e+00  4.3991725463052500e-03 4.6165011112544131e-03 0.0000000000000000e+00  3.7379224912805326e-03 1.3308910402097334e-05 0.0000000000000000e+00  4.3567201238344554e-03 -4.6639531323291765e-03 0.0000000000000000e+00  1.5090671298375763e-02 8.8093203932681479e-03 0.0000000000000000e+00  1.4545131419077182e-02 -2.1881876026191034e-05 0.0000000000000000e+00  1.5107752299994155e-02 -8.8591995717009087e-03 0.0000000000000000e+00  3.1834704160926548e-02 1.2448541649040929e-02 0.0000000000000000e+00  3.1362809274489978e-02 -3.9228830599622567e-05 0.0000000000000000e+00  3.1847272395582084e-02 -1.2527700832895387e-02 0.0000000000000000e+00  5.3785111009053685e-02 1.5566355170510204e-02 0.0000000000000000e+00  5.3384061527218203e-02 -5.4885771409959653e-05 0.0000000000000000e+00  5.3797811097831043e-02 -1.5678936674023272e-02 0.0000000000000000e+00  8.0162017243660386e-02 1.8188156620885413e-02 0.0000000000000000e+00  7.9828973336362311e-02 -7.0463149356662013e-05 0.0000000000000000e+00  8.0174792150775179e-02 -1.8332489035594243e-02 0.0000000000000000e+00  1.1021829691402937e-01 2.0337452917981353e-02 0.0000000000000000e+00  1.0994896466973496e-01 -8.4224011255369587e-05 0.0000000000000000e+00  1.1022942230122440e-01 -2.0509646476791498e-02 0.0000000000000000e+00  1.4323938413116918e-01 2.2042702370777562e-02 0.0000000000000000e+00  1.4302937168968788e-01 -9.4512192380647605e-05 0.0000000000000000e+00  1.4324835020653656e-01 -2.2235435860863052e-02 0.0000000000000000e+00  1.7855827199003321e-01 2.3338734512148948e-02 0.0000000000000000e+00  1.7840080766857294e-01 -9.9833679269103874e-05 0.0000000000000000e+00  1.7856288070465720e-01 -2.3542306058145199e-02 0.0000000000000000e+00  2.1556210102928225e-01 2.4271785969482790e-02 0.0000000000000000e+00  2.1545077732063442e-01 -9.9447474646138364e-05 0.0000000000000000e+00  2.1556250298082089e-01 -2.4473644508504332e-02 0.0000000000000000e+00  2.5372382591695619e-01 2.4897344467280140e-02 0.0000000000000000e+00  2.5364670654399085e-01 -9.2011246451815712e-05 0.0000000000000000e+00  2.5371617979734540e-01 -2.5086719132200921e-02 0.0000000000000000e+00  2.9259560599722612e-01 2.5289276403507421e-02 0.0000000000000000e+00  2.9255939706437628e-01 -8.1191341702060001e-05 0.0000000000000000e+00  2.9259754564337281e-01 -2.5446019013450491e-02 0.0000000000000000e+00  3.3190438799803901e-01 2.5466766789052749e-02 0.0000000000000000e+00  3.3185575647011861e-01 -5.7705732125754035e-05 0.0000000000000000e+00  3.3184948689286059e-01 -2.5594458535609866e-02 0.0000000000000000e+00  3.7123927698154535e-01 2.5550055848239803e-02 0.0000000000000000e+00  3.7126481579743698e-01 -5.0662870417690407e-06 0.0000000000000000e+00  3.7128964354182969e-01 -2.5647938222023988e-02 0.0000000000000000e+00  </DataArray> 
</PointData> 
</Piece>
</UnstructuredGrid>
</VTKFile>