<?xml version="1.0"?>
<VTKFile type="UnstructuredGrid"  version="0.1"  >
<UnstructuredGrid>
<Piece  NumberOfPoints="42" NumberOfCells="52">
<Points>
<DataArray  type="Float64"  NumberOfComponents="3"  format="ascii">-0.05 0 0  0 0 0  0.05 0 0  -0.05 0.07692307692307693 0  0 0.07692307692307693 0  0.05 0.07692307692307693 0  -0.05 0.1538461538461539 0  0 0.1538461538461539 0  0.05 0.1538461538461539 0  -0.05 0.2307692307692308 0  0 0.2307692307692308 0  0.05 0.2307692307692308 0  -0.05 0.3076923076923077 0  0 0.3076923076923077 0  0.05 0.3076923076923077 0  -0.05 0.3846153846153846 0  0 0.3846153846153846 0  0.05 0.3846153846153846 0  -0.05 0.4615384615384616 0  0 0.4615384615384616 0  0.05 0.4615384615384616 0  -0.05 0.5384615384615384 0  0 0.5384615384615384 0  0.05 0.5384615384615384 0  -0.05 0.6153846153846154 0  0 0.6153846153846154 0  0.05 0.6153846153846154 0  -0.05 0.6923076923076923 0  0 0.6923076923076923 0  0.05 0.6923076923076923 0  -0.05 0.7692307692307693 0  0 0.7692307692307693 0  0.05 0.7692307692307693 0  -0.05 0.8461538461538461 0  0 0.8461538461538461 0  0.05 0.8461538461538461 0  -0.05 0.9230769230769231 0  0 0.9230769230769231 0  0.05 0.9230769230769231 0  -0.05 1 0  0 1 0  0.05 1 0  </DataArray>
</Points>
<Cells>
<DataArray  type="UInt32"  Name="connectivity"  format="ascii">0 1 4  0 3 4  1 2 5  1 4 5  3 4 7  3 6 7  4 5 8  4 7 8  6 7 10  6 9 10  7 8 11  7 10 11  9 10 13  9 12 13  10 11 14  10 13 14  12 13 16  12 15 16  13 14 17  13 16 17  15 16 19  15 18 19  16 17 20  16 19 20  18 19 22  18 21 22  19 20 23  19 22 23  21 22 25  21 24 25  22 23 26  22 25 26  24 25 28  24 27 28  25 26 29  25 28 29  27 28 31  27 30 31  28 29 32  28 31 32  30 31 34  30 33 34  31 32 35  31 34 35  33 34 37  33 36 37  34 35 38  34 37 38  36 37 40  36 39 40  37 38 41  37 40 41  </DataArray>
<DataArray  type="UInt32"  Name="offsets"  format="ascii">3 6 9 12 15 18 21 24 27 30 33 36 39 42 45 48 51 54 57 60 63 66 69 72 75 78 81 84 87 90 93 96 99 102 105 108 111 114 117 120 123 126 129 132 135 138 141 144 147 150 153 156 </DataArray>
<DataArray  type="UInt8"  Name="types"  format="ascii">5 5 5 5 5 5 5 5 5 5 5 5 5 5 5 5 5 5 5 5 5 5 5 5 5 5 5 5 5 5 5 5 5 5 5 5 5 5 5 5 5 5 5 5 5 5 5 5 5 5 5 5 </DataArray>
</Cells>
<PointData  Vectors="Displacement"> 
<DataArray  type="Float64"  Name="Displacement"  NumberOfComponents="3" format="ascii">-3.3326784560525844e-16 1.0034239541132164e-17 0.0000000000000000e+00  3.1186366004564895e-17 -9.6291116442417948e-19 0.0000000000000000e+00  -9.3559098013694685e-17 2.8887334932725384e-18 0.0000000000000000e+00  1.5675408891322497e-03 1.4320055800757581e-03 0.0000000000000000e+00  1.3764419453292632e-03 4.7351486837408597e-05 0.0000000000000000e+00  1.5246633749835489e-03 -1.3563273572231864e-03 0.0000000000000000e+00  4.7069483627231361e-03 2.4056024302759934e-03 0.0000000000000000e+00  4.5885954921538533e-03 8.4292654884694798e-05 0.0000000000000000e+00  4.6828956672491850e-03 -2.2358334808467062e-03 0.0000000000000000e+00  8.9101708966336443e-03 2.9541920234454049e-03 0.0000000000000000e+00  8.8425720946526121e-03 1.2971067239653253e-04 0.0000000000000000e+00  8.8786206555627727e-03 -2.6908361159252488e-03 0.0000000000000000e+00  1.3564324864157070e-02 3.1601024346090776e-03 0.0000000000000000e+00  1.3535133734835957e-02 1.7990258598108626e-04 0.0000000000000000e+00  1.3526673077788039e-02 -2.7966932897582441e-03 0.0000000000000000e+00  1.8201941966098627e-02 3.1177373178180859e-03 0.0000000000000000e+00  1.8198177930875015e-02 2.3367826812769804e-04 0.0000000000000000e+00  1.8159046518920308e-02 -2.6473395733209587e-03 0.0000000000000000e+00  2.2513881050552596e-02 2.9273081345518202e-03 0.0000000000000000e+00  2.2522376118264315e-02 2.8924942507018635e-04 0.0000000000000000e+00  2.2466717028677686e-02 -2.3457438792494909e-03 0.0000000000000000e+00  2.6351144976406376e-02 2.6813542222792618e-03 0.0000000000000000e+00  2.6361283182428415e-02 3.4599673655343586e-04 0.0000000000000000e+00  2.6301058210211236e-02 -1.9863588778117379e-03 0.0000000000000000e+00  2.9695823135831641e-02 2.4491047454827677e-03 0.0000000000000000e+00  2.9700367619325221e-02 4.0246829284304008e-04 0.0000000000000000e+00  2.9645041486365643e-02 -1.6426746168608638e-03 0.0000000000000000e+00  3.2620328318192685e-02 2.2724080737837001e-03 0.0000000000000000e+00  3.2618940570800968e-02 4.5315453959010528e-04 0.0000000000000000e+00  3.2575543851783524e-02 -1.3654669978174817e-03 0.0000000000000000e+00  3.5255059379538843e-02 2.1609541856610404e-03 0.0000000000000000e+00  3.5245309134489637e-02 4.9480827782949531e-04 0.0000000000000000e+00  3.5213868627634516e-02 -1.1720784591095859e-03 0.0000000000000000e+00  3.7697639867941134e-02 2.1078979054962696e-03 0.0000000000000000e+00  3.7696075834053981e-02 5.2580750037152892e-04 0.0000000000000000e+00  3.7677199891300625e-02 -1.0528926095780768e-03 0.0000000000000000e+00  4.0109923399966552e-02 2.0942131289298357e-03 0.0000000000000000e+00  4.0073011656172254e-02 5.5640210980438727e-04 0.0000000000000000e+00  4.0044173624494202e-02 -9.8223085655975515e-04 0.0000000000000000e+00  4.2397540185350323e-02 2.0946001699836000e-03 0.0000000000000000e+00  4.2413693821828961e-02 6.0156078958457156e-04 0.0000000000000000e+00  4.2431548753861875e-02 -9.5794698130695040e-04 0.0000000000000000e+00  </DataArray> 
</PointData> 
</Piece>
</UnstructuredGrid>
</VTKFile>