<?xml version="1.0"?>
<VTKFile type="UnstructuredGrid"  version="0.1"  >
<UnstructuredGrid>
<Piece  NumberOfPoints="42" NumberOfCells="52">
<Points>
<DataArray  type="Float64"  NumberOfComponents="3"  format="ascii">-0.05 0 0  0 0 0  0.05 0 0  -0.05 0.07692307692307693 0  0 0.07692307692307693 0  0.05 0.07692307692307693 0  -0.05 0.1538461538461539 0  0 0.1538461538461539 0  0.05 0.1538461538461539 0  -0.05 0.2307692307692308 0  0 0.2307692307692308 0  0.05 0.2307692307692308 0  -0.05 0.3076923076923077 0  0 0.3076923076923077 0  0.05 0.3076923076923077 0  -0.05 0.3846153846153846 0  0 0.3846153846153846 0  0.05 0.3846153846153846 0  -0.05 0.4615384615384616 0  0 0.4615384615384616 0  0.05 0.4615384615384616 0  -0.05 0.5384615384615384 0  0 0.5384615384615384 0  0.05 0.5384615384615384 0  -0.05 0.6153846153846154 0  0 0.6153846153846154 0  0.05 0.6153846153846154 0  -0.05 0.6923076923076923 0  0 0.6923076923076923 0  0.05 0.6923076923076923 0  -0.05 0.7692307692307693 0  0 0.7692307692307693 0  0.05 0.7692307692307693 0  -0.05 0.8461538461538461 0  0 0.8461538461538461 0  0.05 0.8461538461538461 0  -0.05 0.9230769230769231 0  0 0.9230769230769231 0  0.05 0.9230769230769231 0  -0.05 1 0  0 1 0  0.05 1 0  </DataArray>
</Points>
<Cells>
<DataArray  type="UInt32"  Name="connectivity"  format="ascii">0 1 4  0 3 4  1 2 5  1 4 5  3 4 7  3 6 7  4 5 8  4 7 8  6 7 10  6 9 10  7 8 11  7 10 11  9 10 13  9 12 13  10 11 14  10 13 14  12 13 16  12 15 16  13 14 17  13 16 17  15 16 19  15 18 19  16 17 20  16 19 20  18 19 22  18 21 22  19 20 23  19 22 23  21 22 25  21 24 25  22 23 26  22 25 26  24 25 28  24 27 28  25 26 29  25 28 29  27 28 31  27 30 31  28 29 32  28 31 32  30 31 34  30 33 34  31 32 35  31 34 35  33 34 37  33 36 37  34 35 38  34 37 38  36 37 40  36 39 40  37 38 41  37 40 41  </DataArray>
<DataArray  type="UInt32"  Name="offsets"  format="ascii">3 6 9 12 15 18 21 24 27 30 33 36 39 42 45 48 51 54 57 60 63 66 69 72 75 78 81 84 87 90 93 96 99 102 105 108 111 114 117 120 123 126 129 132 135 138 141 144 147 150 153 156 </DataArray>
<DataArray  type="UInt8"  Name="types"  format="ascii">5 5 5 5 5 5 5 5 5 5 5 5 5 5 5 5 5 5 5 5 5 5 5 5 5 5 5 5 5 5 5 5 5 5 5 5 5 5 5 5 5 5 5 5 5 5 5 5 5 5 5 5 </DataArray>
</Cells>
<PointData  Vectors="Displacement"> 
<DataArray  type="Float64"  Name="Displacement"  NumberOfComponents="3" format="ascii">-3.3276535214714782e-16 1.3199451068970914e-17 0.0000000000000000e+00  3.2443689529133947e-17 -1.3438465988288112e-18 0.0000000000000000e+00  -9.7331068587401840e-17 4.0315397964864337e-18 0.0000000000000000e+00  1.8631381621082950e-03 1.9340716098728149e-03 0.0000000000000000e+00  1.5747956427141661e-03 3.7122910997207692e-05 0.0000000000000000e+00  1.8123624322612440e-03 -1.8871624689974270e-03 0.0000000000000000e+00  6.2477042848780775e-03 3.6537781593739918e-03 0.0000000000000000e+00  6.0110914095344234e-03 5.5485625583588819e-05 0.0000000000000000e+00  6.2260495626510299e-03 -3.5441519961721033e-03 0.0000000000000000e+00  1.3042991617462260e-02 5.1342896908449778e-03 0.0000000000000000e+00  1.2836598553138141e-02 7.7549225903501565e-05 0.0000000000000000e+00  1.3019584860372845e-02 -4.9779450823050127e-03 0.0000000000000000e+00  2.1908561789698498e-02 6.4109637319188255e-03 0.0000000000000000e+00  2.1729164820747264e-02 9.7062869401922321e-05 0.0000000000000000e+00  2.1886850859983577e-02 -6.2166749324611276e-03 0.0000000000000000e+00  3.2562525698845421e-02 7.5059479509034027e-03 0.0000000000000000e+00  3.2408816844410972e-02 1.1279643026730798e-04 0.0000000000000000e+00  3.2543507354559686e-02 -7.2807321996939331e-03 0.0000000000000000e+00  4.4742723808697517e-02 8.4271469864737429e-03 0.0000000000000000e+00  4.4613624113832420e-02 1.2485949253102720e-04 0.0000000000000000e+00  4.4726089010850324e-02 -8.1781217048702178e-03 0.0000000000000000e+00  5.8189859213175106e-02 9.1833873870332348e-03 0.0000000000000000e+00  5.8083677003715896e-02 1.3408120905218890e-04 0.0000000000000000e+00  5.8175157843524408e-02 -8.9155860215613322e-03 0.0000000000000000e+00  7.2664936753215920e-02 9.7909021613664382e-03 0.0000000000000000e+00  7.2578018568380490e-02 1.4332981150331453e-04 0.0000000000000000e+00  7.2649000468169925e-02 -9.5040955531333418e-03 0.0000000000000000e+00  8.7946565689816819e-02 1.0267012058577078e-02 0.0000000000000000e+00  8.7876986395012041e-02 1.5625982476292246e-04 0.0000000000000000e+00  8.7928409638313415e-02 -9.9535809506284181e-03 0.0000000000000000e+00  1.0384170988194441e-01 1.0629174081152130e-02 0.0000000000000000e+00  1.0378398214935577e-01 1.7597239878189028e-04 0.0000000000000000e+00  1.0381736750670988e-01 -1.0278492518902229e-02 0.0000000000000000e+00  1.2016479463428360e-01 1.0894385501651477e-02 0.0000000000000000e+00  1.2013440483855665e-01 1.9865223970245559e-04 0.0000000000000000e+00  1.2015399619471449e-01 -1.0492626306045737e-02 0.0000000000000000e+00  1.3681785248569328e-01 1.1036030568714215e-02 0.0000000000000000e+00  1.3677070833499394e-01 2.2885460312204630e-04 0.0000000000000000e+00  1.3675732427619491e-01 -1.0584356559806354e-02 0.0000000000000000e+00  1.5345490031897144e-01 1.1081536188511047e-02 0.0000000000000000e+00  1.5347544674145247e-01 2.7745973905433550e-04 0.0000000000000000e+00  1.5350016078370810e-01 -1.0605203393620677e-02 0.0000000000000000e+00  </DataArray> 
</PointData> 
</Piece>
</UnstructuredGrid>
</VTKFile>