<?xml version="1.0"?>
<VTKFile type="UnstructuredGrid"  version="0.1"  >
<UnstructuredGrid>
<Piece  NumberOfPoints="42" NumberOfCells="52">
<Points>
<DataArray  type="Float64"  NumberOfComponents="3"  format="ascii">-0.05 0 0  0 0 0  0.05 0 0  -0.05 0.07692307692307693 0  0 0.07692307692307693 0  0.05 0.07692307692307693 0  -0.05 0.1538461538461539 0  0 0.1538461538461539 0  0.05 0.1538461538461539 0  -0.05 0.2307692307692308 0  0 0.2307692307692308 0  0.05 0.2307692307692308 0  -0.05 0.3076923076923077 0  0 0.3076923076923077 0  0.05 0.3076923076923077 0  -0.05 0.3846153846153846 0  0 0.3846153846153846 0  0.05 0.3846153846153846 0  -0.05 0.4615384615384616 0  0 0.4615384615384616 0  0.05 0.4615384615384616 0  -0.05 0.5384615384615384 0  0 0.5384615384615384 0  0.05 0.5384615384615384 0  -0.05 0.6153846153846154 0  0 0.6153846153846154 0  0.05 0.6153846153846154 0  -0.05 0.6923076923076923 0  0 0.6923076923076923 0  0.05 0.6923076923076923 0  -0.05 0.7692307692307693 0  0 0.7692307692307693 0  0.05 0.7692307692307693 0  -0.05 0.8461538461538461 0  0 0.8461538461538461 0  0.05 0.8461538461538461 0  -0.05 0.9230769230769231 0  0 0.9230769230769231 0  0.05 0.9230769230769231 0  -0.05 1 0  0 1 0  0.05 1 0  </DataArray>
</Points>
<Cells>
<DataArray  type="UInt32"  Name="connectivity"  format="ascii">0 1 4  0 3 4  1 2 5  1 4 5  3 4 7  3 6 7  4 5 8  4 7 8  6 7 10  6 9 10  7 8 11  7 10 11  9 10 13  9 12 13  10 11 14  10 13 14  12 13 16  12 15 16  13 14 17  13 16 17  15 16 19  15 18 19  16 17 20  16 19 20  18 19 22  18 21 22  19 20 23  19 22 23  21 22 25  21 24 25  22 23 26  22 25 26  24 25 28  24 27 28  25 26 29  25 28 29  27 28 31  27 30 31  28 29 32  28 31 32  30 31 34  30 33 34  31 32 35  31 34 35  33 34 37  33 36 37  34 35 38  34 37 38  36 37 40  36 39 40  37 38 41  37 40 41  </DataArray>
<DataArray  type="UInt32"  Name="offsets"  format="ascii">3 6 9 12 15 18 21 24 27 30 33 36 39 42 45 48 51 54 57 60 63 66 69 72 75 78 81 84 87 90 93 96 99 102 105 108 111 114 117 120 123 126 129 132 135 138 141 144 147 150 153 156 </DataArray>
<DataArray  type="UInt8"  Name="types"  format="ascii">5 5 5 5 5 5 5 5 5 5 5 5 5 5 5 5 5 5 5 5 5 5 5 5 5 5 5 5 5 5 5 5 5 5 5 5 5 5 5 5 5 5 5 5 5 5 5 5 5 5 5 5 </DataArray>
</Cells>
<PointData  Vectors="Displacement"> 
<DataArray  type="Float64"  Name="Displacement"  NumberOfComponents="3" format="ascii">-3.6018344120388254e-16 3.3365681756534614e-17 0.0000000000000000e+00  2.2803527449283949e-17 -2.3627341302153758e-18 0.0000000000000000e+00  -6.8410582347851847e-17 7.0882023906461277e-18 0.0000000000000000e+00  4.5165290035683609e-03 4.5649734020090744e-03 0.0000000000000000e+00  3.8874331055792580e-03 1.4355888408018296e-05 0.0000000000000000e+00  4.4852411145358956e-03 -4.6105480132061297e-03 0.0000000000000000e+00  1.5034913361214911e-02 8.4539966395371577e-03 0.0000000000000000e+00  1.4549381835648269e-02 -1.9963780261410707e-05 0.0000000000000000e+00  1.5060069509302739e-02 -8.4990527056699929e-03 0.0000000000000000e+00  3.0950819442856874e-02 1.1590224372225445e-02 0.0000000000000000e+00  3.0560957564392255e-02 -3.3213224937473191e-05 0.0000000000000000e+00  3.0966843263481883e-02 -1.1656102752868934e-02 0.0000000000000000e+00  5.1144965282055692e-02 1.4060107224710315e-02 0.0000000000000000e+00  5.0840479519703406e-02 -4.0508965172087813e-05 0.0000000000000000e+00  5.1156194859027317e-02 -1.4142530320074884e-02 0.0000000000000000e+00  7.4648536552392383e-02 1.5941372084363963e-02 0.0000000000000000e+00  7.4419374276903386e-02 -4.2959999596772827e-05 0.0000000000000000e+00  7.4654718828602362e-02 -1.6029285365680251e-02 0.0000000000000000e+00  1.0060334248558216e-01 1.7308357493690935e-02 0.0000000000000000e+00  1.0043818722316748e-01 -3.9239420956500724e-05 0.0000000000000000e+00  1.0060317084314389e-01 -1.7389246699590469e-02 0.0000000000000000e+00  1.2826346548544626e-01 1.8241147325027050e-02 0.0000000000000000e+00  1.2815067723170900e-01 -2.8685993301162978e-05 0.0000000000000000e+00  1.2825685648360360e-01 -1.8301082728508819e-02 0.0000000000000000e+00  1.5701340767212646e-01 1.8828336528113603e-02 0.0000000000000000e+00  1.5693935539082715e-01 -1.1122803504701886e-05 0.0000000000000000e+00  1.5699934491556977e-01 -1.8853523852362875e-02 0.0000000000000000e+00  1.8638076031720768e-01 1.9167036928593107e-02 0.0000000000000000e+00  1.8633348324656199e-01 1.2675308137291199e-05 0.0000000000000000e+00  1.8636087897922027e-01 -1.9144164231923225e-02 0.0000000000000000e+00  2.1605515257461558e-01 1.9348837459370206e-02 0.0000000000000000e+00  2.1602007946607812e-01 4.2291618234516328e-05 0.0000000000000000e+00  2.1602779103111952e-01 -1.9269591790285319e-02 0.0000000000000000e+00  2.4584616397182874e-01 1.9461024059345466e-02 0.0000000000000000e+00  2.4583203887041374e-01 7.1968183546707211e-05 0.0000000000000000e+00  2.4583243632009050e-01 -1.9312545511567011e-02 0.0000000000000000e+00  2.7576169522153687e-01 1.9517207913651014e-02 0.0000000000000000e+00  2.7571570135995510e-01 1.0947611300960418e-04 0.0000000000000000e+00  2.7569299137676823e-01 -1.9311277348349313e-02 0.0000000000000000e+00  3.0560975006713148e-01 1.9575100936596996e-02 0.0000000000000000e+00  3.0563877825535596e-01 1.7096415364906760e-04 0.0000000000000000e+00  3.0566366645392756e-01 -1.9328479898992189e-02 0.0000000000000000e+00  </DataArray> 
</PointData> 
</Piece>
</UnstructuredGrid>
</VTKFile>