<?xml version="1.0"?>
<VTKFile type="UnstructuredGrid"  version="0.1"  >
<UnstructuredGrid>
<Piece  NumberOfPoints="42" NumberOfCells="52">
<Points>
<DataArray  type="Float64"  NumberOfComponents="3"  format="ascii">-0.05 0 0  0 0 0  0.05 0 0  -0.05 0.07692307692307693 0  0 0.07692307692307693 0  0.05 0.07692307692307693 0  -0.05 0.1538461538461539 0  0 0.1538461538461539 0  0.05 0.1538461538461539 0  -0.05 0.2307692307692308 0  0 0.2307692307692308 0  0.05 0.2307692307692308 0  -0.05 0.3076923076923077 0  0 0.3076923076923077 0  0.05 0.3076923076923077 0  -0.05 0.3846153846153846 0  0 0.3846153846153846 0  0.05 0.3846153846153846 0  -0.05 0.4615384615384616 0  0 0.4615384615384616 0  0.05 0.4615384615384616 0  -0.05 0.5384615384615384 0  0 0.5384615384615384 0  0.05 0.5384615384615384 0  -0.05 0.6153846153846154 0  0 0.6153846153846154 0  0.05 0.6153846153846154 0  -0.05 0.6923076923076923 0  0 0.6923076923076923 0  0.05 0.6923076923076923 0  -0.05 0.7692307692307693 0  0 0.7692307692307693 0  0.05 0.7692307692307693 0  -0.05 0.8461538461538461 0  0 0.8461538461538461 0  0.05 0.8461538461538461 0  -0.05 0.9230769230769231 0  0 0.9230769230769231 0  0.05 0.9230769230769231 0  -0.05 1 0  0 1 0  0.05 1 0  </DataArray>
</Points>
<Cells>
<DataArray  type="UInt32"  Name="connectivity"  format="ascii">0 1 4  0 3 4  1 2 5  1 4 5  3 4 7  3 6 7  4 5 8  4 7 8  6 7 10  6 9 10  7 8 11  7 10 11  9 10 13  9 12 13  10 11 14  10 13 14  12 13 16  12 15 16  13 14 17  13 16 17  15 16 19  15 18 19  16 17 20  16 19 20  18 19 22  18 21 22  19 20 23  19 22 23  21 22 25  21 24 25  22 23 26  22 25 26  24 25 28  24 27 28  25 26 29  25 28 29  27 28 31  27 30 31  28 29 32  28 31 32  30 31 34  30 33 34  31 32 35  31 34 35  33 34 37  33 36 37  34 35 38  34 37 38  36 37 40  36 39 40  37 38 41  37 40 41  </DataArray>
<DataArray  type="UInt32"  Name="offsets"  format="ascii">3 6 9 12 15 18 21 24 27 30 33 36 39 42 45 48 51 54 57 60 63 66 69 72 75 78 81 84 87 90 93 96 99 102 105 108 111 114 117 120 123 126 129 132 135 138 141 144 147 150 153 156 </DataArray>
<DataArray  type="UInt8"  Name="types"  format="ascii">5 5 5 5 5 5 5 5 5 5 5 5 5 5 5 5 5 5 5 5 5 5 5 5 5 5 5 5 5 5 5 5 5 5 5 5 5 5 5 5 5 5 5 5 5 5 5 5 5 5 5 5 </DataArray>
</Cells>
<PointData  Vectors="Displacement"> 
<DataArray  type="Float64"  Name="Displacement"  NumberOfComponents="3" format="ascii">-3.6996332546821221e-16 4.9426687714256731e-17 0.0000000000000000e+00  1.9914786880761144e-17 -3.1451727046269131e-18 0.0000000000000000e+00  -5.9744360642283439e-17 9.4355181138807392e-18 0.0000000000000000e+00  6.6020939229496688e-03 6.7936186633685914e-03 0.0000000000000000e+00  5.6577848057920970e-03 3.7699574682824101e-05 0.0000000000000000e+00  6.5521974094250070e-03 -6.8290527711650697e-03 0.0000000000000000e+00  2.2254561717975588e-02 1.2730226530131483e-02 0.0000000000000000e+00  2.1507280445623004e-02 4.4922891556608143e-06 0.0000000000000000e+00  2.2286867447647039e-02 -1.2730705560834547e-02 0.0000000000000000e+00  4.6243583904571665e-02 1.7651624872125668e-02 0.0000000000000000e+00  4.5627215208719443e-02 2.2370492619238125e-06 0.0000000000000000e+00  4.6264815567389421e-02 -1.7648411946124657e-02 0.0000000000000000e+00  7.7035472122455290e-02 2.1657268558804333e-02 0.0000000000000000e+00  7.6537023629928272e-02 7.6957066912839505e-06 0.0000000000000000e+00  7.7050652591170762e-02 -2.1646057415842794e-02 0.0000000000000000e+00  1.1328899824214703e-01 2.4849838241325008e-02 0.0000000000000000e+00  1.1289448421080954e-01 1.8058409258641383e-05 0.0000000000000000e+00  1.1329816308630490e-01 -2.4818949807391220e-02 0.0000000000000000e+00  1.5382295538888105e-01 2.7337310371120860e-02 0.0000000000000000e+00  1.5351620842932051e-01 3.3689774907151937e-05 0.0000000000000000e+00  1.5382522512617922e-01 -2.7276013345236223e-02 0.0000000000000000e+00  1.9763025222440081e-01 2.9235781929576619e-02 0.0000000000000000e+00  1.9739588922715623e-01 5.4315512358833858e-05 0.0000000000000000e+00  1.9762657217592569e-01 -2.9133598507256119e-02 0.0000000000000000e+00  2.4389025198685277e-01 3.0656523778974914e-02 0.0000000000000000e+00  2.4371354073280857e-01 7.9686702310910527e-05 0.0000000000000000e+00  2.4388058802491933e-01 -3.0504202205377872e-02 0.0000000000000000e+00  2.9194459912327736e-01 3.1695440930560814e-02 0.0000000000000000e+00  2.9181565118180963e-01 1.0909624379879487e-04 0.0000000000000000e+00  2.9193121283123985e-01 -3.1483330186621611e-02 0.0000000000000000e+00  3.4127053788996092e-01 3.2420778527843593e-02 0.0000000000000000e+00  3.4117788430032947e-01 1.4274388040210522e-04 0.0000000000000000e+00  3.4125168008516771e-01 -3.2144612198999882e-02 0.0000000000000000e+00  3.9141695523850023e-01 3.2899927875659041e-02 0.0000000000000000e+00  3.9136973186268120e-01 1.7498088674989404e-04 0.0000000000000000e+00  3.9141119966778354e-01 -3.2545187172609388e-02 0.0000000000000000e+00  4.4208788085389467e-01 3.3129771324184126e-02 0.0000000000000000e+00  4.4203053824806504e-01 2.1518123584838577e-04 0.0000000000000000e+00  4.4202566449617975e-01 -3.2718900727319665e-02 0.0000000000000000e+00  4.9283117831414891e-01 3.3255413979378541e-02 0.0000000000000000e+00  4.9286047549304673e-01 2.8096457724171756e-04 0.0000000000000000e+00  4.9288746878199058e-01 -3.2791837348699546e-02 0.0000000000000000e+00  </DataArray> 
</PointData> 
</Piece>
</UnstructuredGrid>
</VTKFile>