<?xml version="1.0"?>
<VTKFile type="UnstructuredGrid"  version="0.1"  >
<UnstructuredGrid>
<Piece  NumberOfPoints="42" NumberOfCells="52">
<Points>
<DataArray  type="Float64"  NumberOfComponents="3"  format="ascii">-0.05 0 0  0 0 0  0.05 0 0  -0.05 0.07692307692307693 0  0 0.07692307692307693 0  0.05 0.07692307692307693 0  -0.05 0.1538461538461539 0  0 0.1538461538461539 0  0.05 0.1538461538461539 0  -0.05 0.2307692307692308 0  0 0.2307692307692308 0  0.05 0.2307692307692308 0  -0.05 0.3076923076923077 0  0 0.3076923076923077 0  0.05 0.3076923076923077 0  -0.05 0.3846153846153846 0  0 0.3846153846153846 0  0.05 0.3846153846153846 0  -0.05 0.4615384615384616 0  0 0.4615384615384616 0  0.05 0.4615384615384616 0  -0.05 0.5384615384615384 0  0 0.5384615384615384 0  0.05 0.5384615384615384 0  -0.05 0.6153846153846154 0  0 0.6153846153846154 0  0.05 0.6153846153846154 0  -0.05 0.6923076923076923 0  0 0.6923076923076923 0  0.05 0.6923076923076923 0  -0.05 0.7692307692307693 0  0 0.7692307692307693 0  0.05 0.7692307692307693 0  -0.05 0.8461538461538461 0  0 0.8461538461538461 0  0.05 0.8461538461538461 0  -0.05 0.9230769230769231 0  0 0.9230769230769231 0  0.05 0.9230769230769231 0  -0.05 1 0  0 1 0  0.05 1 0  </DataArray>
</Points>
<Cells>
<DataArray  type="UInt32"  Name="connectivity"  format="ascii">0 1 4  0 3 4  1 2 5  1 4 5  3 4 7  3 6 7  4 5 8  4 7 8  6 7 10  6 9 10  7 8 11  7 10 11  9 10 13  9 12 13  10 11 14  10 13 14  12 13 16  12 15 16  13 14 17  13 16 17  15 16 19  15 18 19  16 17 20  16 19 20  18 19 22  18 21 22  19 20 23  19 22 23  21 22 25  21 24 25  22 23 26  22 25 26  24 25 28  24 27 28  25 26 29  25 28 29  27 28 31  27 30 31  28 29 32  28 31 32  30 31 34  30 33 34  31 32 35  31 34 35  33 34 37  33 36 37  34 35 38  34 37 38  36 37 40  36 39 40  37 38 41  37 40 41  </DataArray>
<DataArray  type="UInt32"  Name="offsets"  format="ascii">3 6 9 12 15 18 21 24 27 30 33 36 39 42 45 48 51 54 57 60 63 66 69 72 75 78 81 84 87 90 93 96 99 102 105 108 111 114 117 120 123 126 129 132 135 138 141 144 147 150 153 156 </DataArray>
<DataArray  type="UInt8"  Name="types"  format="ascii">5 5 5 5 5 5 5 5 5 5 5 5 5 5 5 5 5 5 5 5 5 5 5 5 5 5 5 5 5 5 5 5 5 5 5 5 5 5 5 5 5 5 5 5 5 5 5 5 5 5 5 5 </DataArray>
</Cells>
<PointData  Vectors="Displacement"> 
<DataArray  type="Float64"  Name="Displacement"  NumberOfComponents="3" format="ascii">-3.4671037644280687e-16 1.7083203147810503e-17 0.0000000000000000e+00  2.8583504938463954e-17 -1.4882666499284906e-18 0.0000000000000000e+00  -8.5750514815391862e-17 4.4647999497854723e-18 0.0000000000000000e+00  2.4360481887780241e-03 2.3409598290873700e-03 0.0000000000000000e+00  2.1213415516863868e-03 1.0339157641351601e-05 0.0000000000000000e+00  2.4128065189836798e-03 -2.3571119444703824e-03 0.0000000000000000e+00  7.7852774027220954e-03 4.1615860152726695e-03 0.0000000000000000e+00  7.5652270830815676e-03 -4.0280930411248485e-06 0.0000000000000000e+00  7.7931121625255569e-03 -4.1703006963160023e-03 0.0000000000000000e+00  1.5503416819219995e-02 5.4514250152053242e-03 0.0000000000000000e+00  1.5349567242051949e-02 -6.8375945810371400e-06 0.0000000000000000e+00  1.5503975053641404e-02 -5.4622933323756444e-03 0.0000000000000000e+00  2.4806205816888745e-02 6.2837725964660276e-03 0.0000000000000000e+00  2.4707878090438815e-02 -5.2441705006949421e-06 0.0000000000000000e+00  2.4801771809460693e-02 -6.2921179973233748e-03 0.0000000000000000e+00  3.5040580061474674e-02 6.7446677532709614e-03 0.0000000000000000e+00  3.4984594597905448e-02 4.7936346274393044e-07 0.0000000000000000e+00  3.5030000771531428e-02 -6.7415082337211529e-03 0.0000000000000000e+00  4.5698604935717577e-02 6.9355768613272141e-03 0.0000000000000000e+00  4.5670046651608856e-02 1.1376212804027486e-05 0.0000000000000000e+00  4.5680879169528288e-02 -6.9106810174253963e-03 0.0000000000000000e+00  5.6439995129054836e-02 6.9626300204313485e-03 0.0000000000000000e+00  5.6425812546205420e-02 2.7803590708991725e-05 0.0000000000000000e+00  5.6416306349313286e-02 -6.9050172065136077e-03 0.0000000000000000e+00  6.7088756652814621e-02 6.9164351696308643e-03 0.0000000000000000e+00  6.7078492272930557e-02 4.9600284595249493e-05 0.0000000000000000e+00  6.7059755627360718e-02 -6.8156305988569359e-03 0.0000000000000000e+00  7.7588252623417536e-02 6.8588556410197968e-03 0.0000000000000000e+00  7.7577495554638956e-02 7.5774659899981037e-05 0.0000000000000000e+00  7.7557087760394550e-02 -6.7057538178158351e-03 0.0000000000000000e+00  8.7959599753038950e-02 6.8209226365684951e-03 0.0000000000000000e+00  8.7942778642205274e-02 1.0571740797581020e-04 0.0000000000000000e+00  8.7924417978542752e-02 -6.6102633303686455e-03 0.0000000000000000e+00  9.8231312438179619e-02 6.8201966482791549e-03 0.0000000000000000e+00  9.8224992585924348e-02 1.3460046382816432e-04 0.0000000000000000e+00  9.8212899130851031e-02 -6.5465516080211780e-03 0.0000000000000000e+00  1.0853608222067285e-01 6.8355686391115261e-03 0.0000000000000000e+00  1.0849409352222743e-01 1.6883346216646085e-04 0.0000000000000000e+00  1.0846710134050390e-01 -6.5025847206731935e-03 0.0000000000000000e+00  1.1873251340109305e-01 6.8535864278461102e-03 0.0000000000000000e+00  1.1875508487996538e-01 2.2194515488574966e-04 0.0000000000000000e+00  1.1877818878635694e-01 -6.4907976639233759e-03 0.0000000000000000e+00  </DataArray> 
</PointData> 
</Piece>
</UnstructuredGrid>
</VTKFile>