<?xml version="1.0"?>
<VTKFile type="UnstructuredGrid"  version="0.1"  >
<UnstructuredGrid>
<Piece  NumberOfPoints="42" NumberOfCells="52">
<Points>
<DataArray  type="Float64"  NumberOfComponents="3"  format="ascii">-0.05 0 0  0 0 0  0.05 0 0  -0.05 0.07692307692307693 0  0 0.07692307692307693 0  0.05 0.07692307692307693 0  -0.05 0.1538461538461539 0  0 0.1538461538461539 0  0.05 0.1538461538461539 0  -0.05 0.2307692307692308 0  0 0.2307692307692308 0  0.05 0.2307692307692308 0  -0.05 0.3076923076923077 0  0 0.3076923076923077 0  0.05 0.3076923076923077 0  -0.05 0.3846153846153846 0  0 0.3846153846153846 0  0.05 0.3846153846153846 0  -0.05 0.4615384615384616 0  0 0.4615384615384616 0  0.05 0.4615384615384616 0  -0.05 0.5384615384615384 0  0 0.5384615384615384 0  0.05 0.5384615384615384 0  -0.05 0.6153846153846154 0  0 0.6153846153846154 0  0.05 0.6153846153846154 0  -0.05 0.6923076923076923 0  0 0.6923076923076923 0  0.05 0.6923076923076923 0  -0.05 0.7692307692307693 0  0 0.7692307692307693 0  0.05 0.7692307692307693 0  -0.05 0.8461538461538461 0  0 0.8461538461538461 0  0.05 0.8461538461538461 0  -0.05 0.9230769230769231 0  0 0.9230769230769231 0  0.05 0.9230769230769231 0  -0.05 1 0  0 1 0  0.05 1 0  </DataArray>
</Points>
<Cells>
<DataArray  type="UInt32"  Name="connectivity"  format="ascii">0 1 4  0 3 4  1 2 5  1 4 5  3 4 7  3 6 7  4 5 8  4 7 8  6 7 10  6 9 10  7 8 11  7 10 11  9 10 13  9 12 13  10 11 14  10 13 14  12 13 16  12 15 16  13 14 17  13 16 17  15 16 19  15 18 19  16 17 20  16 19 20  18 19 22  18 21 22  19 20 23  19 22 23  21 22 25  21 24 25  22 23 26  22 25 26  24 25 28  24 27 28  25 26 29  25 28 29  27 28 31  27 30 31  28 29 32  28 31 32  30 31 34  30 33 34  31 32 35  31 34 35  33 34 37  33 36 37  34 35 38  34 37 38  36 37 40  36 39 40  37 38 41  37 40 41  </DataArray>
<DataArray  type="UInt32"  Name="offsets"  format="ascii">3 6 9 12 15 18 21 24 27 30 33 36 39 42 45 48 51 54 57 60 63 66 69 72 75 78 81 84 87 90 93 96 99 102 105 108 111 114 117 120 123 126 129 132 135 138 141 144 147 150 153 156 </DataArray>
<DataArray  type="UInt8"  Name="types"  format="ascii">5 5 5 5 5 5 5 5 5 5 5 5 5 5 5 5 5 5 5 5 5 5 5 5 5 5 5 5 5 5 5 5 5 5 5 5 5 5 5 5 5 5 5 5 5 5 5 5 5 5 5 5 </DataArray>
</Cells>
<PointData  Vectors="Displacement"> 
<DataArray  type="Float64"  Name="Displacement"  NumberOfComponents="3" format="ascii">-3.6212790504312033e-16 3.6466648067460618e-17 0.0000000000000000e+00  2.1918467625917447e-17 -2.4990042228119388e-18 0.0000000000000000e+00  -6.5755402877752340e-17 7.4970126684358166e-18 0.0000000000000000e+00  4.8883751783415199e-03 4.9864859954887337e-03 0.0000000000000000e+00  4.1969050415279338e-03 -3.7262454289341557e-08 0.0000000000000000e+00  4.8622837325986885e-03 -5.0685317650857181e-03 0.0000000000000000e+00  1.6430752120954059e-02 9.3169567351954335e-03 0.0000000000000000e+00  1.5885938695188707e-02 -5.3601571296260777e-05 0.0000000000000000e+00  1.6465520474792137e-02 -9.4299749489529308e-03 0.0000000000000000e+00  3.4078390922721642e-02 1.2899307229619451e-02 0.0000000000000000e+00  3.3627697229808150e-02 -8.3372055535989152e-05 0.0000000000000000e+00  3.4102923080874939e-02 -1.3065755214918097e-02 0.0000000000000000e+00  5.6720578705031166e-02 1.5828282545333042e-02 0.0000000000000000e+00  5.6352787198753987e-02 -1.0590640721434101e-04 0.0000000000000000e+00  5.6739469092468069e-02 -1.6042028899031877e-02 0.0000000000000000e+00  8.3414872264263557e-02 1.8187584063931669e-02 0.0000000000000000e+00  8.3119969047987421e-02 -1.2241622618995883e-04 0.0000000000000000e+00  8.3428266911548324e-02 -1.8435147830775569e-02 0.0000000000000000e+00  1.1333410867622644e-01 2.0048424191802659e-02 0.0000000000000000e+00  1.1310215554487577e-01 -1.3152773874210315e-04 0.0000000000000000e+00  1.1334116553801347e-01 -2.0314842875558022e-02 0.0000000000000000e+00  1.4575079173042466e-01 2.1477708995006214e-02 0.0000000000000000e+00  1.4557287918284001e-01 -1.3247049445300877e-04 0.0000000000000000e+00  1.4575175275827035e-01 -2.1746303005108384e-02 0.0000000000000000e+00  1.8003955380584918e-01 2.2540464624552944e-02 0.0000000000000000e+00  1.7990612950240531e-01 -1.2480347072743123e-04 0.0000000000000000e+00  1.8003363280661550e-01 -2.2794228848585622e-02 0.0000000000000000e+00  2.1567163648182330e-01 2.3300668805888481e-02 0.0000000000000000e+00  2.1557555661966160e-01 -1.0900808104252650e-04 0.0000000000000000e+00  2.1566037427694598e-01 -2.3522240212602973e-02 0.0000000000000000e+00  2.5222014624222505e-01 2.3814100708004316e-02 0.0000000000000000e+00  2.5215067692406362e-01 -8.5231158329012645e-05 0.0000000000000000e+00  2.5220140457087920e-01 -2.3991162724841159e-02 0.0000000000000000e+00  2.8932433815123698e-01 2.4145495128433676e-02 0.0000000000000000e+00  2.8929117946975291e-01 -5.9414657273360932e-05 0.0000000000000000e+00  2.8931774104025193e-01 -2.4259344754647163e-02 0.0000000000000000e+00  3.2679416761852276e-01 2.4302069188235548e-02 0.0000000000000000e+00  3.2674175003990430e-01 -2.3442884810041387e-05 0.0000000000000000e+00  3.2672957189673885e-01 -2.4364129486307978e-02 0.0000000000000000e+00  3.6426590927674279e-01 2.4389893470039312e-02 0.0000000000000000e+00  3.6429555384175100e-01 3.9295925084455574e-05 0.0000000000000000e+00  3.6432345832627999e-01 -2.4409638813630220e-02 0.0000000000000000e+00  </DataArray> 
</PointData> 
</Piece>
</UnstructuredGrid>
</VTKFile>