<?xml version="1.0"?>
<VTKFile type="UnstructuredGrid"  version="0.1"  >
<UnstructuredGrid>
<Piece  NumberOfPoints="42" NumberOfCells="52">
<Points>
<DataArray  type="Float64"  NumberOfComponents="3"  format="ascii">-0.05 0 0  0 0 0  0.05 0 0  -0.05 0.07692307692307693 0  0 0.07692307692307693 0  0.05 0.07692307692307693 0  -0.05 0.1538461538461539 0  0 0.1538461538461539 0  0.05 0.1538461538461539 0  -0.05 0.2307692307692308 0  0 0.2307692307692308 0  0.05 0.2307692307692308 0  -0.05 0.3076923076923077 0  0 0.3076923076923077 0  0.05 0.3076923076923077 0  -0.05 0.3846153846153846 0  0 0.3846153846153846 0  0.05 0.3846153846153846 0  -0.05 0.4615384615384616 0  0 0.4615384615384616 0  0.05 0.4615384615384616 0  -0.05 0.5384615384615384 0  0 0.5384615384615384 0  0.05 0.5384615384615384 0  -0.05 0.6153846153846154 0  0 0.6153846153846154 0  0.05 0.6153846153846154 0  -0.05 0.6923076923076923 0  0 0.6923076923076923 0  0.05 0.6923076923076923 0  -0.05 0.7692307692307693 0  0 0.7692307692307693 0  0.05 0.7692307692307693 0  -0.05 0.8461538461538461 0  0 0.8461538461538461 0  0.05 0.8461538461538461 0  -0.05 0.9230769230769231 0  0 0.9230769230769231 0  0.05 0.9230769230769231 0  -0.05 1 0  0 1 0  0.05 1 0  </DataArray>
</Points>
<Cells>
<DataArray  type="UInt32"  Name="connectivity"  format="ascii">0 1 4  0 3 4  1 2 5  1 4 5  3 4 7  3 6 7  4 5 8  4 7 8  6 7 10  6 9 10  7 8 11  7 10 11  9 10 13  9 12 13  10 11 14  10 13 14  12 13 16  12 15 16  13 14 17  13 16 17  15 16 19  15 18 19  16 17 20  16 19 20  18 19 22  18 21 22  19 20 23  19 22 23  21 22 25  21 24 25  22 23 26  22 25 26  24 25 28  24 27 28  25 26 29  25 28 29  27 28 31  27 30 31  28 29 32  28 31 32  30 31 34  30 33 34  31 32 35  31 34 35  33 34 37  33 36 37  34 35 38  34 37 38  36 37 40  36 39 40  37 38 41  37 40 41  </DataArray>
<DataArray  type="UInt32"  Name="offsets"  format="ascii">3 6 9 12 15 18 21 24 27 30 33 36 39 42 45 48 51 54 57 60 63 66 69 72 75 78 81 84 87 90 93 96 99 102 105 108 111 114 117 120 123 126 129 132 135 138 141 144 147 150 153 156 </DataArray>
<DataArray  type="UInt8"  Name="types"  format="ascii">5 5 5 5 5 5 5 5 5 5 5 5 5 5 5 5 5 5 5 5 5 5 5 5 5 5 5 5 5 5 5 5 5 5 5 5 5 5 5 5 5 5 5 5 5 5 5 5 5 5 5 5 </DataArray>
</Cells>
<PointData  Vectors="Displacement"> 
<DataArray  type="Float64"  Name="Displacement"  NumberOfComponents="3" format="ascii">-3.4604317906548413e-16 3.1021574682607105e-17 0.0000000000000000e+00  2.7679910220768168e-17 -2.7648600330332701e-18 0.0000000000000000e+00  -8.3039730662304506e-17 8.2945800990998110e-18 0.0000000000000000e+00  4.3625599082882591e-03 4.4147672808955186e-03 0.0000000000000000e+00  3.7529776461755950e-03 1.6920079239946518e-05 0.0000000000000000e+00  4.3294874419501795e-03 -4.4525475493620483e-03 0.0000000000000000e+00  1.4526159460087592e-02 8.1835355029756737e-03 0.0000000000000000e+00  1.4053799232516333e-02 -1.3243925167872718e-05 0.0000000000000000e+00  1.4547305885634996e-02 -8.2149444446822980e-03 0.0000000000000000e+00  2.9925068467520580e-02 1.1238700802517728e-02 0.0000000000000000e+00  2.9543126642391358e-02 -2.3839251279899401e-05 0.0000000000000000e+00  2.9937962177132949e-02 -1.1285813212794243e-02 0.0000000000000000e+00  4.9504919924152450e-02 1.3666729149180351e-02 0.0000000000000000e+00  4.9203186669290654e-02 -2.9935917558519199e-05 0.0000000000000000e+00  4.9513728831605666e-02 -1.3727837129893363e-02 0.0000000000000000e+00  7.2358002259613169e-02 1.5544609811182542e-02 0.0000000000000000e+00  7.2126289158217977e-02 -3.2981288144709964e-05 0.0000000000000000e+00  7.2362692870234432e-02 -1.5612317866424988e-02 0.0000000000000000e+00  9.7689827105315111e-02 1.6949815843223390e-02 0.0000000000000000e+00  9.7516552034876997e-02 -3.1810653403635053e-05 0.0000000000000000e+00  9.7689196791728369e-02 -1.7015469486305022e-02 0.0000000000000000e+00  1.2482625032513150e-01 1.7963149804653210e-02 0.0000000000000000e+00  1.2470048312422195e-01 -2.5364172181983365e-05 0.0000000000000000e+00  1.2482033940859595e-01 -1.8015879768081767e-02 0.0000000000000000e+00  1.5321762041358220e-01 1.8664878280448598e-02 0.0000000000000000e+00  1.5312723918843965e-01 -1.2522448785303543e-05 0.0000000000000000e+00  1.5320488654546879e-01 -1.8692069596511228e-02 0.0000000000000000e+00  1.8243644054902408e-01 1.9137589694204180e-02 0.0000000000000000e+00  1.8237190854946933e-01 7.2587466731389048e-06 0.0000000000000000e+00  1.8241817456091991e-01 -1.9124597759872602e-02 0.0000000000000000e+00  2.1218782191572880e-01 1.9450614675547352e-02 0.0000000000000000e+00  2.1213817955255238e-01 3.4615475498007870e-05 0.0000000000000000e+00  2.1216182804113715e-01 -1.9385477296674846e-02 0.0000000000000000e+00  2.4225216828207485e-01 1.9660838475295591e-02 0.0000000000000000e+00  2.4222822970746330e-01 6.4017165015870062e-05 0.0000000000000000e+00  2.4223879624320960e-01 -1.9528429410537226e-02 0.0000000000000000e+00  2.7255029978740797e-01 1.9764702115290446e-02 0.0000000000000000e+00  2.7250478022176938e-01 1.0038918561250898e-04 0.0000000000000000e+00  2.7248700635885587e-01 -1.9575408141777346e-02 0.0000000000000000e+00  3.0281630628638201e-01 1.9824232262422786e-02 0.0000000000000000e+00  3.0284063274270845e-01 1.5541867301626175e-04 0.0000000000000000e+00  3.0286293604962189e-01 -1.9599065843504248e-02 0.0000000000000000e+00  </DataArray> 
</PointData> 
</Piece>
</UnstructuredGrid>
</VTKFile>