<?xml version="1.0"?>
<VTKFile type="UnstructuredGrid"  version="0.1"  >
<UnstructuredGrid>
<Piece  NumberOfPoints="42" NumberOfCells="52">
<Points>
<DataArray  type="Float64"  NumberOfComponents="3"  format="ascii">-0.05 0 0  0 0 0  0.05 0 0  -0.05 0.07692307692307693 0  0 0.07692307692307693 0  0.05 0.07692307692307693 0  -0.05 0.1538461538461539 0  0 0.1538461538461539 0  0.05 0.1538461538461539 0  -0.05 0.2307692307692308 0  0 0.2307692307692308 0  0.05 0.2307692307692308 0  -0.05 0.3076923076923077 0  0 0.3076923076923077 0  0.05 0.3076923076923077 0  -0.05 0.3846153846153846 0  0 0.3846153846153846 0  0.05 0.3846153846153846 0  -0.05 0.4615384615384616 0  0 0.4615384615384616 0  0.05 0.4615384615384616 0  -0.05 0.5384615384615384 0  0 0.5384615384615384 0  0.05 0.5384615384615384 0  -0.05 0.6153846153846154 0  0 0.6153846153846154 0  0.05 0.6153846153846154 0  -0.05 0.6923076923076923 0  0 0.6923076923076923 0  0.05 0.6923076923076923 0  -0.05 0.7692307692307693 0  0 0.7692307692307693 0  0.05 0.7692307692307693 0  -0.05 0.8461538461538461 0  0 0.8461538461538461 0  0.05 0.8461538461538461 0  -0.05 0.9230769230769231 0  0 0.9230769230769231 0  0.05 0.9230769230769231 0  -0.05 1 0  0 1 0  0.05 1 0  </DataArray>
</Points>
<Cells>
<DataArray  type="UInt32"  Name="connectivity"  format="ascii">0 1 4  0 3 4  1 2 5  1 4 5  3 4 7  3 6 7  4 5 8  4 7 8  6 7 10  6 9 10  7 8 11  7 10 11  9 10 13  9 12 13  10 11 14  10 13 14  12 13 16  12 15 16  13 14 17  13 16 17  15 16 19  15 18 19  16 17 20  16 19 20  18 19 22  18 21 22  19 20 23  19 22 23  21 22 25  21 24 25  22 23 26  22 25 26  24 25 28  24 27 28  25 26 29  25 28 29  27 28 31  27 30 31  28 29 32  28 31 32  30 31 34  30 33 34  31 32 35  31 34 35  33 34 37  33 36 37  34 35 38  34 37 38  36 37 40  36 39 40  37 38 41  37 40 41  </DataArray>
<DataArray  type="UInt32"  Name="offsets"  format="ascii">3 6 9 12 15 18 21 24 27 30 33 36 39 42 45 48 51 54 57 60 63 66 69 72 75 78 81 84 87 90 93 96 99 102 105 108 111 114 117 120 123 126 129 132 135 138 141 144 147 150 153 156 </DataArray>
<DataArray  type="UInt8"  Name="types"  format="ascii">5 5 5 5 5 5 5 5 5 5 5 5 5 5 5 5 5 5 5 5 5 5 5 5 5 5 5 5 5 5 5 5 5 5 5 5 5 5 5 5 5 5 5 5 5 5 5 5 5 5 5 5 </DataArray>
</Cells>
<PointData  Vectors="Displacement"> 
<DataArray  type="Float64"  Name="Displacement"  NumberOfComponents="3" format="ascii">-3.4211728351228497e-16 2.5957822129653894e-17 0.0000000000000000e+00  2.9095522994329720e-17 -2.4119954237621119e-18 0.0000000000000000e+00  -8.7286568982989167e-17 7.2359862712863361e-18 0.0000000000000000e+00  3.7002561898526231e-03 3.7180238139799936e-03 0.0000000000000000e+00  3.1867824726597243e-03 3.8808846122733264e-05 0.0000000000000000e+00  3.6563219542715911e-03 -3.6988709031349071e-03 0.0000000000000000e+00  1.2190842383655984e-02 6.8285840298908220e-03 0.0000000000000000e+00  1.1801250912071881e-02 4.0048449679848845e-05 0.0000000000000000e+00  1.2193378030589896e-02 -6.7521083729505287e-03 0.0000000000000000e+00  2.4901012274275731e-02 9.2753766535666887e-03 0.0000000000000000e+00  2.4595089995442382e-02 5.7684559711515930e-05 0.0000000000000000e+00  2.4895760669124061e-02 -9.1587877907884606e-03 0.0000000000000000e+00  4.0845848570165266e-02 1.1145816031710670e-02 0.0000000000000000e+00  4.0611492878679899e-02 7.9443751580590750e-05 0.0000000000000000e+00  4.0835691307075907e-02 -1.0986947160087156e-02 0.0000000000000000e+00  5.9203672903320917e-02 1.2533611302479302e-02 0.0000000000000000e+00  5.9027928414444937e-02 1.0479017088007049e-04 0.0000000000000000e+00  5.9187915362899197e-02 -1.2324234461701446e-02 0.0000000000000000e+00  7.9297906874425367e-02 1.3534734521456865e-02 0.0000000000000000e+00  7.9167127896618325e-02 1.3539671112772610e-04 0.0000000000000000e+00  7.9275462494004884e-02 -1.3264472998982514e-02 0.0000000000000000e+00  1.0060041950745562e-01 1.4242190921251247e-02 0.0000000000000000e+00  1.0050363091688756e-01 1.7155615477201317e-04 0.0000000000000000e+00  1.0057297304271713e-01 -1.3900179298924851e-02 0.0000000000000000e+00  1.2272301926364911e-01 1.4731841817327673e-02 0.0000000000000000e+00  1.2265150483748739e-01 2.1170506559552350e-04 0.0000000000000000e+00  1.2269210274310802e-01 -1.4310487572843420e-02 0.0000000000000000e+00  1.4537796628121261e-01 1.5057011075351252e-02 0.0000000000000000e+00  1.4532751976491970e-01 2.5271965472888286e-04 0.0000000000000000e+00  1.4534717826225055e-01 -1.4553701794547777e-02 0.0000000000000000e+00  1.6834953286205800e-01 1.5253495503126607e-02 0.0000000000000000e+00  1.6831204939861991e-01 2.9255571387354454e-04 0.0000000000000000e+00  1.6831673581532194e-01 -1.4672799272017612e-02 0.0000000000000000e+00  1.9145817560169645e-01 1.5370271552318166e-02 0.0000000000000000e+00  1.9144293150399155e-01 3.2631041731351449e-04 0.0000000000000000e+00  1.9144151544955815e-01 -1.4714226391702372e-02 0.0000000000000000e+00  2.1468343803984724e-01 1.5423347024029350e-02 0.0000000000000000e+00  2.1464161207127219e-01 3.6191959067903492e-04 0.0000000000000000e+00  2.1461896685311441e-01 -1.4708806831524788e-02 0.0000000000000000e+00  2.3783412862415163e-01 1.5461997044642871e-02 0.0000000000000000e+00  2.3785701850071761e-01 4.1404797421835856e-04 0.0000000000000000e+00  2.3787802750741988e-01 -1.4715153731799978e-02 0.0000000000000000e+00  </DataArray> 
</PointData> 
</Piece>
</UnstructuredGrid>
</VTKFile>