<?xml version="1.0"?>
<VTKFile type="UnstructuredGrid"  version="0.1"  >
<UnstructuredGrid>
<Piece  NumberOfPoints="42" NumberOfCells="52">
<Points>
<DataArray  type="Float64"  NumberOfComponents="3"  format="ascii">-0.05 0 0  0 0 0  0.05 0 0  -0.05 0.07692307692307693 0  0 0.07692307692307693 0  0.05 0.07692307692307693 0  -0.05 0.1538461538461539 0  0 0.1538461538461539 0  0.05 0.1538461538461539 0  -0.05 0.2307692307692308 0  0 0.2307692307692308 0  0.05 0.2307692307692308 0  -0.05 0.3076923076923077 0  0 0.3076923076923077 0  0.05 0.3076923076923077 0  -0.05 0.3846153846153846 0  0 0.3846153846153846 0  0.05 0.3846153846153846 0  -0.05 0.4615384615384616 0  0 0.4615384615384616 0  0.05 0.4615384615384616 0  -0.05 0.5384615384615384 0  0 0.5384615384615384 0  0.05 0.5384615384615384 0  -0.05 0.6153846153846154 0  0 0.6153846153846154 0  0.05 0.6153846153846154 0  -0.05 0.6923076923076923 0  0 0.6923076923076923 0  0.05 0.6923076923076923 0  -0.05 0.7692307692307693 0  0 0.7692307692307693 0  0.05 0.7692307692307693 0  -0.05 0.8461538461538461 0  0 0.8461538461538461 0  0.05 0.8461538461538461 0  -0.05 0.9230769230769231 0  0 0.9230769230769231 0  0.05 0.9230769230769231 0  -0.05 1 0  0 1 0  0.05 1 0  </DataArray>
</Points>
<Cells>
<DataArray  type="UInt32"  Name="connectivity"  format="ascii">0 1 4  0 3 4  1 2 5  1 4 5  3 4 7  3 6 7  4 5 8  4 7 8  6 7 10  6 9 10  7 8 11  7 10 11  9 10 13  9 12 13  10 11 14  10 13 14  12 13 16  12 15 16  13 14 17  13 16 17  15 16 19  15 18 19  16 17 20  16 19 20  18 19 22  18 21 22  19 20 23  19 22 23  21 22 25  21 24 25  22 23 26  22 25 26  24 25 28  24 27 28  25 26 29  25 28 29  27 28 31  27 30 31  28 29 32  28 31 32  30 31 34  30 33 34  31 32 35  31 34 35  33 34 37  33 36 37  34 35 38  34 37 38  36 37 40  36 39 40  37 38 41  37 40 41  </DataArray>
<DataArray  type="UInt32"  Name="offsets"  format="ascii">3 6 9 12 15 18 21 24 27 30 33 36 39 42 45 48 51 54 57 60 63 66 69 72 75 78 81 84 87 90 93 96 99 102 105 108 111 114 117 120 123 126 129 132 135 138 141 144 147 150 153 156 </DataArray>
<DataArray  type="UInt8"  Name="types"  format="ascii">5 5 5 5 5 5 5 5 5 5 5 5 5 5 5 5 5 5 5 5 5 5 5 5 5 5 5 5 5 5 5 5 5 5 5 5 5 5 5 5 5 5 5 5 5 5 5 5 5 5 5 5 </DataArray>
</Cells>
<PointData  Vectors="Displacement"> 
<DataArray  type="Float64"  Name="Displacement"  NumberOfComponents="3" format="ascii">-3.4153575585677098e-16 1.2748927064895675e-17 0.0000000000000000e+00  3.0531877731627294e-17 -1.1863978028136926e-18 0.0000000000000000e+00  -9.1595633194881893e-17 3.5591934084410782e-18 0.0000000000000000e+00  1.8254838621742622e-03 1.7790358106691939e-03 0.0000000000000000e+00  1.5762437029070919e-03 2.0798504360997956e-05 0.0000000000000000e+00  1.7916280949223406e-03 -1.7635860931537167e-03 0.0000000000000000e+00  5.8624505324025569e-03 3.2014809391584117e-03 0.0000000000000000e+00  5.6803144052149368e-03 2.3814436662187728e-05 0.0000000000000000e+00  5.8546265283501101e-03 -3.1539753987913305e-03 0.0000000000000000e+00  1.1773148556882140e-02 4.2608602394115557e-03 0.0000000000000000e+00  1.1636993364495028e-02 3.3414617049273469e-05 0.0000000000000000e+00  1.1761215480409808e-02 -4.1916015965544904e-03 0.0000000000000000e+00  1.9027047008206364e-02 5.0014782028243946e-03 0.0000000000000000e+00  1.8931894125399047e-02 4.3820571215033902e-05 0.0000000000000000e+00  1.9014293981455110e-02 -4.9121592471944135e-03 0.0000000000000000e+00  2.7164227957365179e-02 5.4621830606936218e-03 0.0000000000000000e+00  2.7104610215456890e-02 5.4193835450825627e-05 0.0000000000000000e+00  2.7150352313872476e-02 -5.3521355715551609e-03 0.0000000000000000e+00  3.5781557688831581e-02 5.6860997719041621e-03 0.0000000000000000e+00  3.5750028955717057e-02 6.5247386722333810e-05 0.0000000000000000e+00  3.5765191409755009e-02 -5.5538713038726329e-03 0.0000000000000000e+00  4.4547000857420131e-02 5.7292809567564360e-03 0.0000000000000000e+00  4.4534891625138545e-02 7.7653415238060797e-05 0.0000000000000000e+00  4.4527869095733828e-02 -5.5720564901760332e-03 0.0000000000000000e+00  5.3228373295105137e-02 5.6609751777145665e-03 0.0000000000000000e+00  5.3224929608654707e-02 9.2189662760827279e-05 0.0000000000000000e+00  5.3204950525801833e-02 -5.4746860925068107e-03 0.0000000000000000e+00  6.1706850536351047e-02 5.5546364432189944e-03 0.0000000000000000e+00  6.1704400525824897e-02 1.0925128451856400e-04 0.0000000000000000e+00  6.1680953656137544e-02 -5.3339913875207288e-03 0.0000000000000000e+00  6.9983359444508314e-02 5.4686443492853063e-03 0.0000000000000000e+00  6.9972809854842166e-02 1.2978688959184534e-04 0.0000000000000000e+00  6.9952050531665769e-02 -5.2090453800899689e-03 0.0000000000000000e+00  7.8109659555669647e-02 5.4379006213362063e-03 0.0000000000000000e+00  7.8106974344512872e-02 1.5042113260964226e-04 0.0000000000000000e+00  7.8094655043219746e-02 -5.1322098317573943e-03 0.0000000000000000e+00  8.6252098164438490e-02 5.4416300127942486e-03 0.0000000000000000e+00  8.6211955548351149e-02 1.7852828790083396e-04 0.0000000000000000e+00  8.6185485546294002e-02 -5.0876134964520639e-03 0.0000000000000000e+00  9.4285333165283022e-02 5.4539548025894545e-03 0.0000000000000000e+00  9.4306288727010648e-02 2.2798940642537599e-04 0.0000000000000000e+00  9.4327409841503687e-02 -5.0754984345802324e-03 0.0000000000000000e+00  </DataArray> 
</PointData> 
</Piece>
</UnstructuredGrid>
</VTKFile>