<?xml version="1.0"?>
<VTKFile type="UnstructuredGrid"  version="0.1"  >
<UnstructuredGrid>
<Piece  NumberOfPoints="42" NumberOfCells="52">
<Points>
<DataArray  type="Float64"  NumberOfComponents="3"  format="ascii">-0.05 0 0  0 0 0  0.05 0 0  -0.05 0.07692307692307693 0  0 0.07692307692307693 0  0.05 0.07692307692307693 0  -0.05 0.1538461538461539 0  0 0.1538461538461539 0  0.05 0.1538461538461539 0  -0.05 0.2307692307692308 0  0 0.2307692307692308 0  0.05 0.2307692307692308 0  -0.05 0.3076923076923077 0  0 0.3076923076923077 0  0.05 0.3076923076923077 0  -0.05 0.3846153846153846 0  0 0.3846153846153846 0  0.05 0.3846153846153846 0  -0.05 0.4615384615384616 0  0 0.4615384615384616 0  0.05 0.4615384615384616 0  -0.05 0.5384615384615384 0  0 0.5384615384615384 0  0.05 0.5384615384615384 0  -0.05 0.6153846153846154 0  0 0.6153846153846154 0  0.05 0.6153846153846154 0  -0.05 0.6923076923076923 0  0 0.6923076923076923 0  0.05 0.6923076923076923 0  -0.05 0.7692307692307693 0  0 0.7692307692307693 0  0.05 0.7692307692307693 0  -0.05 0.8461538461538461 0  0 0.8461538461538461 0  0.05 0.8461538461538461 0  -0.05 0.9230769230769231 0  0 0.9230769230769231 0  0.05 0.9230769230769231 0  -0.05 1 0  0 1 0  0.05 1 0  </DataArray>
</Points>
<Cells>
<DataArray  type="UInt32"  Name="connectivity"  format="ascii">0 1 4  0 3 4  1 2 5  1 4 5  3 4 7  3 6 7  4 5 8  4 7 8  6 7 10  6 9 10  7 8 11  7 10 11  9 10 13  9 12 13  10 11 14  10 13 14  12 13 16  12 15 16  13 14 17  13 16 17  15 16 19  15 18 19  16 17 20  16 19 20  18 19 22  18 21 22  19 20 23  19 22 23  21 22 25  21 24 25  22 23 26  22 25 26  24 25 28  24 27 28  25 26 29  25 28 29  27 28 31  27 30 31  28 29 32  28 31 32  30 31 34  30 33 34  31 32 35  31 34 35  33 34 37  33 36 37  34 35 38  34 37 38  36 37 40  36 39 40  37 38 41  37 40 41  </DataArray>
<DataArray  type="UInt32"  Name="offsets"  format="ascii">3 6 9 12 15 18 21 24 27 30 33 36 39 42 45 48 51 54 57 60 63 66 69 72 75 78 81 84 87 90 93 96 99 102 105 108 111 114 117 120 123 126 129 132 135 138 141 144 147 150 153 156 </DataArray>
<DataArray  type="UInt8"  Name="types"  format="ascii">5 5 5 5 5 5 5 5 5 5 5 5 5 5 5 5 5 5 5 5 5 5 5 5 5 5 5 5 5 5 5 5 5 5 5 5 5 5 5 5 5 5 5 5 5 5 5 5 5 5 5 5 </DataArray>
</Cells>
<PointData  Vectors="Displacement"> 
<DataArray  type="Float64"  Name="Displacement"  NumberOfComponents="3" format="ascii">-3.4848057829681779e-16 1.8012459523162200e-17 0.0000000000000000e+00  2.7595980662142564e-17 -1.5129637648708517e-18 0.0000000000000000e+00  -8.2787941986427698e-17 4.5388912946125554e-18 0.0000000000000000e+00  2.4743796269917919e-03 2.5097763740030100e-03 0.0000000000000000e+00  2.1154283881870488e-03 3.0607126182904085e-05 0.0000000000000000e+00  2.4303463523379126e-03 -2.4861590215688378e-03 0.0000000000000000e+00  8.1931113574302758e-03 4.6624296589360499e-03 0.0000000000000000e+00  7.9094089046980783e-03 3.6442316177420577e-05 0.0000000000000000e+00  8.1830014706182046e-03 -4.5910819132110514e-03 0.0000000000000000e+00  1.6881722521682446e-02 6.4431490827657157e-03 0.0000000000000000e+00  1.6642625629608245e-02 5.1557208429118983e-05 0.0000000000000000e+00  1.6865919523207644e-02 -6.3382909319378844e-03 0.0000000000000000e+00  2.8014237396573178e-02 7.9246804496984832e-03 0.0000000000000000e+00  2.7811624833941513e-02 6.7731670706601700e-05 0.0000000000000000e+00  2.7996847108745466e-02 -7.7888020265199955e-03 0.0000000000000000e+00  4.1186053785603791e-02 9.1659475153145400e-03 0.0000000000000000e+00  4.1013789216714017e-02 8.3841942622576415e-05 0.0000000000000000e+00  4.1167800308366906e-02 -8.9983642799259661e-03 0.0000000000000000e+00  5.6069111211408208e-02 1.0207687298774809e-02 0.0000000000000000e+00  5.5922623524581251e-02 1.0070122994875402e-04 0.0000000000000000e+00  5.6049846446152754e-02 -1.0006801360387362e-02 0.0000000000000000e+00  7.2381336724490250e-02 1.1075813029960951e-02 0.0000000000000000e+00  7.2258187031776389e-02 1.1907115204899653e-04 0.0000000000000000e+00  7.2361637379122754e-02 -1.0838394579831689e-02 0.0000000000000000e+00  8.9870466100317195e-02 1.1787101642050879e-02 0.0000000000000000e+00  8.9767985548052348e-02 1.3978075589466277e-04 0.0000000000000000e+00  8.9849281164338352e-02 -1.1508601928075216e-02 0.0000000000000000e+00  1.0830127309536008e-01 1.2354893896713286e-02 0.0000000000000000e+00  1.0821934321651808e-01 1.6313556174897878e-04 0.0000000000000000e+00  1.0827994277394640e-01 -1.2029389761520740e-02 0.0000000000000000e+00  1.2746169393856852e-01 1.2785073147731807e-02 0.0000000000000000e+00  1.2739642653577421e-01 1.8993893510162743e-04 0.0000000000000000e+00  1.2743702869641244e-01 -1.2408366710675970e-02 0.0000000000000000e+00  1.4712129444634631e-01 1.3087299389436570e-02 0.0000000000000000e+00  1.4708892335638077e-01 2.1608413454180100e-04 0.0000000000000000e+00  1.4711254367431079e-01 -1.2650435592446784e-02 0.0000000000000000e+00  1.6714215832283646e-01 1.3240207685852462e-02 0.0000000000000000e+00  1.6709107383786895e-01 2.4959240560738961e-04 0.0000000000000000e+00  1.6707772622191702e-01 -1.2749078393809935e-02 0.0000000000000000e+00  1.8714156100113385e-01 1.3295768172749422e-02 0.0000000000000000e+00  1.8716738257773907e-01 3.0613472387641433e-04 0.0000000000000000e+00  1.8719659159743635e-01 -1.2774323833241542e-02 0.0000000000000000e+00  </DataArray> 
</PointData> 
</Piece>
</UnstructuredGrid>
</VTKFile>