<?xml version="1.0"?>
<VTKFile type="UnstructuredGrid"  version="0.1"  >
<UnstructuredGrid>
<Piece  NumberOfPoints="42" NumberOfCells="52">
<Points>
<DataArray  type="Float64"  NumberOfComponents="3"  format="ascii">-0.05 0 0  0 0 0  0.05 0 0  -0.05 0.07692307692307693 0  0 0.07692307692307693 0  0.05 0.07692307692307693 0  -0.05 0.1538461538461539 0  0 0.1538461538461539 0  0.05 0.1538461538461539 0  -0.05 0.2307692307692308 0  0 0.2307692307692308 0  0.05 0.2307692307692308 0  -0.05 0.3076923076923077 0  0 0.3076923076923077 0  0.05 0.3076923076923077 0  -0.05 0.3846153846153846 0  0 0.3846153846153846 0  0.05 0.3846153846153846 0  -0.05 0.4615384615384616 0  0 0.4615384615384616 0  0.05 0.4615384615384616 0  -0.05 0.5384615384615384 0  0 0.5384615384615384 0  0.05 0.5384615384615384 0  -0.05 0.6153846153846154 0  0 0.6153846153846154 0  0.05 0.6153846153846154 0  -0.05 0.6923076923076923 0  0 0.6923076923076923 0  0.05 0.6923076923076923 0  -0.05 0.7692307692307693 0  0 0.7692307692307693 0  0.05 0.7692307692307693 0  -0.05 0.8461538461538461 0  0 0.8461538461538461 0  0.05 0.8461538461538461 0  -0.05 0.9230769230769231 0  0 0.9230769230769231 0  0.05 0.9230769230769231 0  -0.05 1 0  0 1 0  0.05 1 0  </DataArray>
</Points>
<Cells>
<DataArray  type="UInt32"  Name="connectivity"  format="ascii">0 1 4  0 3 4  1 2 5  1 4 5  3 4 7  3 6 7  4 5 8  4 7 8  6 7 10  6 9 10  7 8 11  7 10 11  9 10 13  9 12 13  10 11 14  10 13 14  12 13 16  12 15 16  13 14 17  13 16 17  15 16 19  15 18 19  16 17 20  16 19 20  18 19 22  18 21 22  19 20 23  19 22 23  21 22 25  21 24 25  22 23 26  22 25 26  24 25 28  24 27 28  25 26 29  25 28 29  27 28 31  27 30 31  28 29 32  28 31 32  30 31 34  30 33 34  31 32 35  31 34 35  33 34 37  33 36 37  34 35 38  34 37 38  36 37 40  36 39 40  37 38 41  37 40 41  </DataArray>
<DataArray  type="UInt32"  Name="offsets"  format="ascii">3 6 9 12 15 18 21 24 27 30 33 36 39 42 45 48 51 54 57 60 63 66 69 72 75 78 81 84 87 90 93 96 99 102 105 108 111 114 117 120 123 126 129 132 135 138 141 144 147 150 153 156 </DataArray>
<DataArray  type="UInt8"  Name="types"  format="ascii">5 5 5 5 5 5 5 5 5 5 5 5 5 5 5 5 5 5 5 5 5 5 5 5 5 5 5 5 5 5 5 5 5 5 5 5 5 5 5 5 5 5 5 5 5 5 5 5 5 5 5 5 </DataArray>
</Cells>
<PointData  Vectors="Displacement"> 
<DataArray  type="Float64"  Name="Displacement"  NumberOfComponents="3" format="ascii">-3.5523008825320729e-16 2.6773532851670919e-17 0.0000000000000000e+00  2.4946838537233795e-17 -2.0536870232346656e-18 0.0000000000000000e+00  -7.4840515611701388e-17 6.1610610697039969e-18 0.0000000000000000e+00  3.6524309223884208e-03 3.7121611909558374e-03 0.0000000000000000e+00  3.1316763236776497e-03 4.9061172971540333e-05 0.0000000000000000e+00  3.5992733940257470e-03 -3.6715027267456265e-03 0.0000000000000000e+00  1.2113718059720453e-02 6.8776959673032901e-03 0.0000000000000000e+00  1.1709035128875677e-02 6.0812229845732494e-05 0.0000000000000000e+00  1.2108618174777225e-02 -6.7600187896882623e-03 0.0000000000000000e+00  2.4911311353129326e-02 9.4383747846499434e-03 0.0000000000000000e+00  2.4582636365908499e-02 8.6848128190187150e-05 0.0000000000000000e+00  2.4899398853004896e-02 -9.2639293291191926e-03 0.0000000000000000e+00  4.1151371009655158e-02 1.1477703760356461e-02 0.0000000000000000e+00  4.0887231074542847e-02 1.1449325356142884e-04 0.0000000000000000e+00  4.1136548830717712e-02 -1.1249734693898273e-02 0.0000000000000000e+00  6.0100240945952801e-02 1.3087713274011760e-02 0.0000000000000000e+00  5.9888620142848056e-02 1.4174261441854654e-04 0.0000000000000000e+00  6.0082923957089820e-02 -1.2805999914142613e-02 0.0000000000000000e+00  8.1172696233992217e-02 1.4357223556066960e-02 0.0000000000000000e+00  8.1002644681592781e-02 1.6881710919973764e-04 0.0000000000000000e+00  8.1153206149238766e-02 -1.4022065299080750e-02 0.0000000000000000e+00  1.0391256429365675e-01 1.5356108920684603e-02 0.0000000000000000e+00  1.0377727626639195e-01 1.9567351711557315e-04 0.0000000000000000e+00  1.0389275687671419e-01 -1.4967655370127420e-02 0.0000000000000000e+00  1.2795206396112246e-01 1.6127344643922552e-02 0.0000000000000000e+00  1.2784647084210873e-01 2.2245864781691231e-04 0.0000000000000000e+00  1.2793167941692091e-01 -1.5685715813630079e-02 0.0000000000000000e+00  1.5296515492668719e-01 1.6698275659649479e-02 0.0000000000000000e+00  1.5288695477187286e-01 2.4924150972443262e-04 0.0000000000000000e+00  1.5294532382414025e-01 -1.6202447258884114e-02 0.0000000000000000e+00  1.7866438905907456e-01 1.7091727373627044e-02 0.0000000000000000e+00  1.7860615912082009e-01 2.7727580388986722e-04 0.0000000000000000e+00  1.7864112675067675e-01 -1.6542099637777408e-02 0.0000000000000000e+00  2.0477927546686323e-01 1.7347709595633209e-02 0.0000000000000000e+00  2.0475291642142882e-01 3.0317960207611189e-04 0.0000000000000000e+00  2.0477120570682728e-01 -1.6736654081549784e-02 0.0000000000000000e+00  2.3118444763635729e-01 1.7469274233952427e-02 0.0000000000000000e+00  2.3113543701424158e-01 3.3670465728655841e-04 0.0000000000000000e+00  2.3111970001329671e-01 -1.6806546387846816e-02 0.0000000000000000e+00  2.5755433416181034e-01 1.7530001274144436e-02 0.0000000000000000e+00  2.5758213795978568e-01 3.9540272325698094e-04 0.0000000000000000e+00  2.5760969777777232e-01 -1.6833014993440826e-02 0.0000000000000000e+00  </DataArray> 
</PointData> 
</Piece>
</UnstructuredGrid>
</VTKFile>