<?xml version="1.0"?>
<VTKFile type="UnstructuredGrid"  version="0.1"  >
<UnstructuredGrid>
<Piece  NumberOfPoints="42" NumberOfCells="52">
<Points>
<DataArray  type="Float64"  NumberOfComponents="3"  format="ascii">-0.05 0 0  0 0 0  0.05 0 0  -0.05 0.07692307692307693 0  0 0.07692307692307693 0  0.05 0.07692307692307693 0  -0.05 0.1538461538461539 0  0 0.1538461538461539 0  0.05 0.1538461538461539 0  -0.05 0.2307692307692308 0  0 0.2307692307692308 0  0.05 0.2307692307692308 0  -0.05 0.3076923076923077 0  0 0.3076923076923077 0  0.05 0.3076923076923077 0  -0.05 0.3846153846153846 0  0 0.3846153846153846 0  0.05 0.3846153846153846 0  -0.05 0.4615384615384616 0  0 0.4615384615384616 0  0.05 0.4615384615384616 0  -0.05 0.5384615384615384 0  0 0.5384615384615384 0  0.05 0.5384615384615384 0  -0.05 0.6153846153846154 0  0 0.6153846153846154 0  0.05 0.6153846153846154 0  -0.05 0.6923076923076923 0  0 0.6923076923076923 0  0.05 0.6923076923076923 0  -0.05 0.7692307692307693 0  0 0.7692307692307693 0  0.05 0.7692307692307693 0  -0.05 0.8461538461538461 0  0 0.8461538461538461 0  0.05 0.8461538461538461 0  -0.05 0.9230769230769231 0  0 0.9230769230769231 0  0.05 0.9230769230769231 0  -0.05 1 0  0 1 0  0.05 1 0  </DataArray>
</Points>
<Cells>
<DataArray  type="UInt32"  Name="connectivity"  format="ascii">0 1 4  0 3 4  1 2 5  1 4 5  3 4 7  3 6 7  4 5 8  4 7 8  6 7 10  6 9 10  7 8 11  7 10 11  9 10 13  9 12 13  10 11 14  10 13 14  12 13 16  12 15 16  13 14 17  13 16 17  15 16 19  15 18 19  16 17 20  16 19 20  18 19 22  18 21 22  19 20 23  19 22 23  21 22 25  21 24 25  22 23 26  22 25 26  24 25 28  24 27 28  25 26 29  25 28 29  27 28 31  27 30 31  28 29 32  28 31 32  30 31 34  30 33 34  31 32 35  31 34 35  33 34 37  33 36 37  34 35 38  34 37 38  36 37 40  36 39 40  37 38 41  37 40 41  </DataArray>
<DataArray  type="UInt32"  Name="offsets"  format="ascii">3 6 9 12 15 18 21 24 27 30 33 36 39 42 45 48 51 54 57 60 63 66 69 72 75 78 81 84 87 90 93 96 99 102 105 108 111 114 117 120 123 126 129 132 135 138 141 144 147 150 153 156 </DataArray>
<DataArray  type="UInt8"  Name="types"  format="ascii">5 5 5 5 5 5 5 5 5 5 5 5 5 5 5 5 5 5 5 5 5 5 5 5 5 5 5 5 5 5 5 5 5 5 5 5 5 5 5 5 5 5 5 5 5 5 5 5 5 5 5 5 </DataArray>
</Cells>
<PointData  Vectors="Displacement"> 
<DataArray  type="Float64"  Name="Displacement"  NumberOfComponents="3" format="ascii">-3.6500969584255087e-16 4.7347945716398640e-17 0.0000000000000000e+00  2.1594888398497344e-17 -3.3036581301020359e-18 0.0000000000000000e+00  -6.4784665195492034e-17 9.9109743903061085e-18 0.0000000000000000e+00  6.3037207900951834e-03 6.6422470276036533e-03 0.0000000000000000e+00  5.3555191962827778e-03 5.6450900056644507e-05 0.0000000000000000e+00  6.2324237271189215e-03 -6.6353199563226372e-03 0.0000000000000000e+00  2.1600245702957765e-02 1.2665397654448844e-02 0.0000000000000000e+00  2.0818549688673454e-02 4.5884808258093060e-05 0.0000000000000000e+00  2.1611393136638075e-02 -1.2583436240548602e-02 0.0000000000000000e+00  4.5514433249983631e-02 1.7884354609178917e-02 0.0000000000000000e+00  4.4837801179403940e-02 6.2547204766718348e-05 0.0000000000000000e+00  4.5517741369018136e-02 -1.7761263176229079e-02 0.0000000000000000e+00  7.6821958462508291e-02 2.2367185153807083e-02 0.0000000000000000e+00  7.6242453778357228e-02 8.3261761282483668e-05 0.0000000000000000e+00  7.6823281493141229e-02 -2.2205881830576299e-02 0.0000000000000000e+00  1.1444263032885324e-01 2.6177659340288244e-02 0.0000000000000000e+00  1.1395356646349507e-01 1.0420559017708537e-04 0.0000000000000000e+00  1.1444355212848550e-01 -2.5975848684026942e-02 0.0000000000000000e+00  1.5738802287823350e-01 2.9366158932651789e-02 0.0000000000000000e+00  1.5698301770299417e-01 1.2495890453876506e-04 0.0000000000000000e+00  1.5738874328267935e-01 -2.9123897433224383e-02 0.0000000000000000e+00  2.0473619542254209e-01 3.1972929716492154e-02 0.0000000000000000e+00  2.0441060573596123e-01 1.4500661087334086e-04 0.0000000000000000e+00  2.0473768412064347e-01 -3.1690809575091225e-02 0.0000000000000000e+00  2.5562156633980493e-01 3.4032810346077288e-02 0.0000000000000000e+00  2.5536913956830448e-01 1.6466054672557826e-04 0.0000000000000000e+00  2.5562226553833206e-01 -3.3711740715978586e-02 0.0000000000000000e+00  3.0922801894970986e-01 3.5586840280062697e-02 0.0000000000000000e+00  3.0904357652964992e-01 1.8461282513098718e-04 0.0000000000000000e+00  3.0922789415964985e-01 -3.5224230906481906e-02 0.0000000000000000e+00  3.6480888120765725e-01 3.6676902237091628e-02 0.0000000000000000e+00  3.6468161799004462e-01 2.0722282943853903e-04 0.0000000000000000e+00  3.6480354466425680e-01 -3.6271946123191151e-02 0.0000000000000000e+00  4.2166807010230345e-01 3.7371955403548485e-02 0.0000000000000000e+00  4.2160395401349726e-01 2.2917599362583423e-04 0.0000000000000000e+00  4.2167316029717167e-01 -3.6907835356757963e-02 0.0000000000000000e+00  4.7927676464964009e-01 3.7690086347739869e-02 0.0000000000000000e+00  4.7921581402716912e-01 2.6199137518006425e-04 0.0000000000000000e+00  4.7922204605428215e-01 -3.7185386444732405e-02 0.0000000000000000e+00  5.3701683840202186e-01 3.7836924085069064e-02 0.0000000000000000e+00  5.3704434413946422e-01 3.2440274489560283e-04 0.0000000000000000e+00  5.3707222040883840e-01 -3.7282857626338629e-02 0.0000000000000000e+00  </DataArray> 
</PointData> 
</Piece>
</UnstructuredGrid>
</VTKFile>