<?xml version="1.0"?>
<VTKFile type="UnstructuredGrid"  version="0.1"  >
<UnstructuredGrid>
<Piece  NumberOfPoints="42" NumberOfCells="52">
<Points>
<DataArray  type="Float64"  NumberOfComponents="3"  format="ascii">-0.05 0 0  0 0 0  0.05 0 0  -0.05 0.07692307692307693 0  0 0.07692307692307693 0  0.05 0.07692307692307693 0  -0.05 0.1538461538461539 0  0 0.1538461538461539 0  0.05 0.1538461538461539 0  -0.05 0.2307692307692308 0  0 0.2307692307692308 0  0.05 0.2307692307692308 0  -0.05 0.3076923076923077 0  0 0.3076923076923077 0  0.05 0.3076923076923077 0  -0.05 0.3846153846153846 0  0 0.3846153846153846 0  0.05 0.3846153846153846 0  -0.05 0.4615384615384616 0  0 0.4615384615384616 0  0.05 0.4615384615384616 0  -0.05 0.5384615384615384 0  0 0.5384615384615384 0  0.05 0.5384615384615384 0  -0.05 0.6153846153846154 0  0 0.6153846153846154 0  0.05 0.6153846153846154 0  -0.05 0.6923076923076923 0  0 0.6923076923076923 0  0.05 0.6923076923076923 0  -0.05 0.7692307692307693 0  0 0.7692307692307693 0  0.05 0.7692307692307693 0  -0.05 0.8461538461538461 0  0 0.8461538461538461 0  0.05 0.8461538461538461 0  -0.05 0.9230769230769231 0  0 0.9230769230769231 0  0.05 0.9230769230769231 0  -0.05 1 0  0 1 0  0.05 1 0  </DataArray>
</Points>
<Cells>
<DataArray  type="UInt32"  Name="connectivity"  format="ascii">0 1 4  0 3 4  1 2 5  1 4 5  3 4 7  3 6 7  4 5 8  4 7 8  6 7 10  6 9 10  7 8 11  7 10 11  9 10 13  9 12 13  10 11 14  10 13 14  12 13 16  12 15 16  13 14 17  13 16 17  15 16 19  15 18 19  16 17 20  16 19 20  18 19 22  18 21 22  19 20 23  19 22 23  21 22 25  21 24 25  22 23 26  22 25 26  24 25 28  24 27 28  25 26 29  25 28 29  27 28 31  27 30 31  28 29 32  28 31 32  30 31 34  30 33 34  31 32 35  31 34 35  33 34 37  33 36 37  34 35 38  34 37 38  36 37 40  36 39 40  37 38 41  37 40 41  </DataArray>
<DataArray  type="UInt32"  Name="offsets"  format="ascii">3 6 9 12 15 18 21 24 27 30 33 36 39 42 45 48 51 54 57 60 63 66 69 72 75 78 81 84 87 90 93 96 99 102 105 108 111 114 117 120 123 126 129 132 135 138 141 144 147 150 153 156 </DataArray>
<DataArray  type="UInt8"  Name="types"  format="ascii">5 5 5 5 5 5 5 5 5 5 5 5 5 5 5 5 5 5 5 5 5 5 5 5 5 5 5 5 5 5 5 5 5 5 5 5 5 5 5 5 5 5 5 5 5 5 5 5 5 5 5 5 </DataArray>
</Cells>
<PointData  Vectors="Displacement"> 
<DataArray  type="Float64"  Name="Displacement"  NumberOfComponents="3" format="ascii">-3.4934610544658077e-16 3.4042743580494924e-17 0.0000000000000000e+00  2.6352350371397090e-17 -2.9038076914376958e-18 0.0000000000000000e+00  -7.9057051114191270e-17 8.7114230743130878e-18 0.0000000000000000e+00  4.6209185392398185e-03 4.8624665163452263e-03 0.0000000000000000e+00  3.9238242175570134e-03 9.2213368249977301e-06 0.0000000000000000e+00  4.5795557512161361e-03 -4.9225525284936206e-03 0.0000000000000000e+00  1.5897735504644697e-02 9.3004503566181188e-03 0.0000000000000000e+00  1.5320032826886657e-02 -3.3571923926654918e-05 0.0000000000000000e+00  1.5919357484256342e-02 -9.3743733052932560e-03 0.0000000000000000e+00  3.3606772586604931e-02 1.3174505809741655e-02 0.0000000000000000e+00  3.3103757951096623e-02 -5.8302967406990587e-05 0.0000000000000000e+00  3.3623890738609295e-02 -1.3292061385587769e-02 0.0000000000000000e+00  5.6886278861451825e-02 1.6522721891063401e-02 0.0000000000000000e+00  5.6453593570696028e-02 -8.1545075134446874e-05 0.0000000000000000e+00  5.6903012129125456e-02 -1.6688854103645848e-02 0.0000000000000000e+00  8.4957320451773483e-02 1.9384141842536385e-02 0.0000000000000000e+00  8.4590310027626930e-02 -1.0438319060768206e-04 0.0000000000000000e+00  8.4973433496675618e-02 -1.9596606895785608e-02 0.0000000000000000e+00  1.1710173982464094e-01 2.1793032965147754e-02 0.0000000000000000e+00  1.1679642346142201e-01 -1.2465146544776058e-04 0.0000000000000000e+00  1.1711622460420240e-01 -2.2046528723769439e-02 0.0000000000000000e+00  1.5264000314612114e-01 2.3767018591996304e-02 0.0000000000000000e+00  1.5239532668186589e-01 -1.4057282271491648e-04 0.0000000000000000e+00  1.5265312618091015e-01 -2.4052451657110001e-02 0.0000000000000000e+00  1.9090035541490946e-01 2.5311120333824752e-02 0.0000000000000000e+00  1.9071368549558088e-01 -1.5085743552412540e-04 0.0000000000000000e+00  1.9091011396974253e-01 -2.5617460276477232e-02 0.0000000000000000e+00  2.3121098983011568e-01 2.6443603898207133e-02 0.0000000000000000e+00  2.3107885934142855e-01 -1.5525576342683044e-04 0.0000000000000000e+00  2.3121738146579923e-01 -2.6757737748293681e-02 0.0000000000000000e+00  2.7294971328616408e-01 2.7202968396685567e-02 0.0000000000000000e+00  2.7286114501793435e-01 -1.5272377875803292e-04 0.0000000000000000e+00  2.7294830675660109e-01 -2.7514406600768714e-02 0.0000000000000000e+00  3.1555590743561912e-01 2.7662340525914503e-02 0.0000000000000000e+00  3.1551577735826680e-01 -1.4669203013531267e-04 0.0000000000000000e+00  3.1556283172381133e-01 -2.7949664268085869e-02 0.0000000000000000e+00  3.5865637033448894e-01 2.7858196054708531e-02 0.0000000000000000e+00  3.5860710635490328e-01 -1.2651476520905141e-04 0.0000000000000000e+00  3.5860382956599407e-01 -2.8124167219280970e-02 0.0000000000000000e+00  4.0179087651617507e-01 2.7948547036110730e-02 0.0000000000000000e+00  4.0181677611695621e-01 -7.4131109145631171e-05 0.0000000000000000e+00  4.0184190454643204e-01 -2.8184919536964049e-02 0.0000000000000000e+00  </DataArray> 
</PointData> 
</Piece>
</UnstructuredGrid>
</VTKFile>