<?xml version="1.0"?>
<VTKFile type="UnstructuredGrid"  version="0.1"  >
<UnstructuredGrid>
<Piece  NumberOfPoints="42" NumberOfCells="52">
<Points>
<DataArray  type="Float64"  NumberOfComponents="3"  format="ascii">-0.05 0 0  0 0 0  0.05 0 0  -0.05 0.07692307692307693 0  0 0.07692307692307693 0  0.05 0.07692307692307693 0  -0.05 0.1538461538461539 0  0 0.1538461538461539 0  0.05 0.1538461538461539 0  -0.05 0.2307692307692308 0  0 0.2307692307692308 0  0.05 0.2307692307692308 0  -0.05 0.3076923076923077 0  0 0.3076923076923077 0  0.05 0.3076923076923077 0  -0.05 0.3846153846153846 0  0 0.3846153846153846 0  0.05 0.3846153846153846 0  -0.05 0.4615384615384616 0  0 0.4615384615384616 0  0.05 0.4615384615384616 0  -0.05 0.5384615384615384 0  0 0.5384615384615384 0  0.05 0.5384615384615384 0  -0.05 0.6153846153846154 0  0 0.6153846153846154 0  0.05 0.6153846153846154 0  -0.05 0.6923076923076923 0  0 0.6923076923076923 0  0.05 0.6923076923076923 0  -0.05 0.7692307692307693 0  0 0.7692307692307693 0  0.05 0.7692307692307693 0  -0.05 0.8461538461538461 0  0 0.8461538461538461 0  0.05 0.8461538461538461 0  -0.05 0.9230769230769231 0  0 0.9230769230769231 0  0.05 0.9230769230769231 0  -0.05 1 0  0 1 0  0.05 1 0  </DataArray>
</Points>
<Cells>
<DataArray  type="UInt32"  Name="connectivity"  format="ascii">0 1 4  0 3 4  1 2 5  1 4 5  3 4 7  3 6 7  4 5 8  4 7 8  6 7 10  6 9 10  7 8 11  7 10 11  9 10 13  9 12 13  10 11 14  10 13 14  12 13 16  12 15 16  13 14 17  13 16 17  15 16 19  15 18 19  16 17 20  16 19 20  18 19 22  18 21 22  19 20 23  19 22 23  21 22 25  21 24 25  22 23 26  22 25 26  24 25 28  24 27 28  25 26 29  25 28 29  27 28 31  27 30 31  28 29 32  28 31 32  30 31 34  30 33 34  31 32 35  31 34 35  33 34 37  33 36 37  34 35 38  34 37 38  36 37 40  36 39 40  37 38 41  37 40 41  </DataArray>
<DataArray  type="UInt32"  Name="offsets"  format="ascii">3 6 9 12 15 18 21 24 27 30 33 36 39 42 45 48 51 54 57 60 63 66 69 72 75 78 81 84 87 90 93 96 99 102 105 108 111 114 117 120 123 126 129 132 135 138 141 144 147 150 153 156 </DataArray>
<DataArray  type="UInt8"  Name="types"  format="ascii">5 5 5 5 5 5 5 5 5 5 5 5 5 5 5 5 5 5 5 5 5 5 5 5 5 5 5 5 5 5 5 5 5 5 5 5 5 5 5 5 5 5 5 5 5 5 5 5 5 5 5 5 </DataArray>
</Cells>
<PointData  Vectors="Displacement"> 
<DataArray  type="Float64"  Name="Displacement"  NumberOfComponents="3" format="ascii">-3.5247430890496916e-16 3.7250578661760394e-17 0.0000000000000000e+00  2.5235839896668199e-17 -3.0422598708286519e-18 0.0000000000000000e+00  -7.5707519690004601e-17 9.1267796124859566e-18 0.0000000000000000e+00  5.0684228540887628e-03 5.3333700198107872e-03 0.0000000000000000e+00  4.3039815008759927e-03 5.2006009760203127e-05 0.0000000000000000e+00  5.0025738335715258e-03 -5.3133409433043207e-03 0.0000000000000000e+00  1.7331981965078517e-02 1.0157362181060500e-02 0.0000000000000000e+00  1.6703333601916098e-02 5.0913913255783814e-05 0.0000000000000000e+00  1.7333649086374851e-02 -1.0062842422377904e-02 0.0000000000000000e+00  3.6476800549220000e-02 1.4320451825751280e-02 0.0000000000000000e+00  3.5934901037421890e-02 7.1340374683261080e-05 0.0000000000000000e+00  3.6472079123283860e-02 -1.4178598850712267e-02 0.0000000000000000e+00  6.1489772628977785e-02 1.7873844588239065e-02 0.0000000000000000e+00  6.1027702465369031e-02 9.5215264141539129e-05 0.0000000000000000e+00  6.1482923110049360e-02 -1.7686648606703072e-02 0.0000000000000000e+00  9.1472715988805756e-02 2.0877059983756295e-02 0.0000000000000000e+00  9.1082758439743158e-02 1.1990294329171617e-04 0.0000000000000000e+00  9.1464278337264338e-02 -2.0641536925589846e-02 0.0000000000000000e+00  1.2562649387875188e-01 2.3391250327400609e-02 0.0000000000000000e+00  1.2530064062872143e-01 1.4534966387854173e-04 0.0000000000000000e+00  1.2561658330010128e-01 -2.3105824244265879e-02 0.0000000000000000e+00  1.6324537286940713e-01 2.5468281605148892e-02 0.0000000000000000e+00  1.6297874219637032e-01 1.7082434785339640e-04 0.0000000000000000e+00  1.6323597291969327e-01 -2.5132485427191681e-02 0.0000000000000000e+00  2.0369415258668441e-01 2.7140335971398730e-02 0.0000000000000000e+00  2.0348289254460913e-01 1.9560351745533856e-04 0.0000000000000000e+00  2.0368528253159096e-01 -2.6755646832888762e-02 0.0000000000000000e+00  2.4636906430714930e-01 2.8426727686940011e-02 0.0000000000000000e+00  2.4621208084240112e-01 2.1902068225280379e-04 0.0000000000000000e+00  2.4636199945186185e-01 -2.7994180201423840e-02 0.0000000000000000e+00  2.9069065771590252e-01 2.9340379347583739e-02 0.0000000000000000e+00  2.9058108462599647e-01 2.4235506691092174e-04 0.0000000000000000e+00  2.9068103977895321e-01 -2.8863514505087996e-02 0.0000000000000000e+00  3.3608335252726229e-01 2.9923073548158055e-02 0.0000000000000000e+00  3.3602942040194855e-01 2.6282023320864205e-04 0.0000000000000000e+00  3.3608624262136000e-01 -2.9392365932760910e-02 0.0000000000000000e+00  3.8210806126655184e-01 3.0187065663316272e-02 0.0000000000000000e+00  3.8205280243441309e-01 2.9195209046678169e-04 0.0000000000000000e+00  3.8205378985594995e-01 -2.9617993345975504e-02 0.0000000000000000e+00  4.2821247980739979e-01 3.0297538883072069e-02 0.0000000000000000e+00  4.2823883102753318e-01 3.4846714802654830e-04 0.0000000000000000e+00  4.2826641431826579e-01 -2.9691966710068695e-02 0.0000000000000000e+00  </DataArray> 
</PointData> 
</Piece>
</UnstructuredGrid>
</VTKFile>