<?xml version="1.0"?>
<VTKFile type="UnstructuredGrid"  version="0.1"  >
<UnstructuredGrid>
<Piece  NumberOfPoints="42" NumberOfCells="52">
<Points>
<DataArray  type="Float64"  NumberOfComponents="3"  format="ascii">-0.05 0 0  0 0 0  0.05 0 0  -0.05 0.07692307692307693 0  0 0.07692307692307693 0  0.05 0.07692307692307693 0  -0.05 0.1538461538461539 0  0 0.1538461538461539 0  0.05 0.1538461538461539 0  -0.05 0.2307692307692308 0  0 0.2307692307692308 0  0.05 0.2307692307692308 0  -0.05 0.3076923076923077 0  0 0.3076923076923077 0  0.05 0.3076923076923077 0  -0.05 0.3846153846153846 0  0 0.3846153846153846 0  0.05 0.3846153846153846 0  -0.05 0.4615384615384616 0  0 0.4615384615384616 0  0.05 0.4615384615384616 0  -0.05 0.5384615384615384 0  0 0.5384615384615384 0  0.05 0.5384615384615384 0  -0.05 0.6153846153846154 0  0 0.6153846153846154 0  0.05 0.6153846153846154 0  -0.05 0.6923076923076923 0  0 0.6923076923076923 0  0.05 0.6923076923076923 0  -0.05 0.7692307692307693 0  0 0.7692307692307693 0  0.05 0.7692307692307693 0  -0.05 0.8461538461538461 0  0 0.8461538461538461 0  0.05 0.8461538461538461 0  -0.05 0.9230769230769231 0  0 0.9230769230769231 0  0.05 0.9230769230769231 0  -0.05 1 0  0 1 0  0.05 1 0  </DataArray>
</Points>
<Cells>
<DataArray  type="UInt32"  Name="connectivity"  format="ascii">0 1 4  0 3 4  1 2 5  1 4 5  3 4 7  3 6 7  4 5 8  4 7 8  6 7 10  6 9 10  7 8 11  7 10 11  9 10 13  9 12 13  10 11 14  10 13 14  12 13 16  12 15 16  13 14 17  13 16 17  15 16 19  15 18 19  16 17 20  16 19 20  18 19 22  18 21 22  19 20 23  19 22 23  21 22 25  21 24 25  22 23 26  22 25 26  24 25 28  24 27 28  25 26 29  25 28 29  27 28 31  27 30 31  28 29 32  28 31 32  30 31 34  30 33 34  31 32 35  31 34 35  33 34 37  33 36 37  34 35 38  34 37 38  36 37 40  36 39 40  37 38 41  37 40 41  </DataArray>
<DataArray  type="UInt32"  Name="offsets"  format="ascii">3 6 9 12 15 18 21 24 27 30 33 36 39 42 45 48 51 54 57 60 63 66 69 72 75 78 81 84 87 90 93 96 99 102 105 108 111 114 117 120 123 126 129 132 135 138 141 144 147 150 153 156 </DataArray>
<DataArray  type="UInt8"  Name="types"  format="ascii">5 5 5 5 5 5 5 5 5 5 5 5 5 5 5 5 5 5 5 5 5 5 5 5 5 5 5 5 5 5 5 5 5 5 5 5 5 5 5 5 5 5 5 5 5 5 5 5 5 5 5 5 </DataArray>
</Cells>
<PointData  Vectors="Displacement"> 
<DataArray  type="Float64"  Name="Displacement"  NumberOfComponents="3" format="ascii">-3.5898822045564208e-16 4.4030045286654989e-17 0.0000000000000000e+00  2.2884628285611027e-17 -3.2796312956115235e-18 0.0000000000000000e+00  -6.8653884856833080e-17 9.8388938868345712e-18 0.0000000000000000e+00  5.9593283957551958e-03 6.1610115835813162e-03 0.0000000000000000e+00  5.0994582197909097e-03 -1.8008354330446261e-05 0.0000000000000000e+00  5.9383725357053828e-03 -6.2994289713528941e-03 0.0000000000000000e+00  2.0296919142017669e-02 1.1642051477037686e-02 0.0000000000000000e+00  1.9604362857829127e-02 -1.0105018123659109e-04 0.0000000000000000e+00  2.0349315155232250e-02 -1.1851609338846030e-02 0.0000000000000000e+00  4.2498004344582563e-02 1.6284538581970348e-02 0.0000000000000000e+00  4.1914488854967298e-02 -1.5130873612589682e-04 0.0000000000000000e+00  4.2538765715143270e-02 -1.6587167286149899e-02 0.0000000000000000e+00  7.1279624380182191e-02 2.0149701729833214e-02 0.0000000000000000e+00  7.0799026177563729e-02 -1.8948228380687230e-04 0.0000000000000000e+00  7.1313947831499525e-02 -2.0531435888678808e-02 0.0000000000000000e+00  1.0546981257769626e-01 2.3285358344017338e-02 0.0000000000000000e+00  1.0508614495622629e-01 -2.1830606566859809e-04 0.0000000000000000e+00  1.0549830322241567e-01 -2.3725868943677873e-02 0.0000000000000000e+00  1.4396290863382039e-01 2.5741905362519271e-02 0.0000000000000000e+00  1.4366717676644414e-01 -2.3828446582507682e-04 0.0000000000000000e+00  1.4398478175932047e-01 -2.6223230408556269e-02 0.0000000000000000e+00  1.8573988612961481e-01 2.7589445849031898e-02 0.0000000000000000e+00  1.8552068380270947e-01 -2.5045022315481075e-04 0.0000000000000000e+00  1.8575513081823006e-01 -2.8095321933769596e-02 0.0000000000000000e+00  2.2991212966842228e-01 2.8921610494776553e-02 0.0000000000000000e+00  2.2975420175072667e-01 -2.5521244476155950e-04 0.0000000000000000e+00  2.2991927185111066e-01 -2.9437364290934655e-02 0.0000000000000000e+00  2.7575565667344382e-01 2.9848859119790946e-02 0.0000000000000000e+00  2.7564566494620435e-01 -2.5267952124865135e-04 0.0000000000000000e+00  2.7575590113032611e-01 -3.0358466544534970e-02 0.0000000000000000e+00  3.2272636931325971e-01 3.0465952017941857e-02 0.0000000000000000e+00  3.2264979102420355e-01 -2.4167258555328561e-04 0.0000000000000000e+00  3.2271747706413284e-01 -3.0956379705582054e-02 0.0000000000000000e+00  3.7039073134795397e-01 3.0857362098109999e-02 0.0000000000000000e+00  3.7035415502232816e-01 -2.2661454873950713e-04 0.0000000000000000e+00  3.7039074176502634e-01 -3.1304881161997158e-02 0.0000000000000000e+00  4.1848629714373953e-01 3.1035493665773319e-02 0.0000000000000000e+00  4.1843573653678967e-01 -1.9839399150926911e-04 0.0000000000000000e+00  4.1842903555747324e-01 -3.1448528773810956e-02 0.0000000000000000e+00  4.6662007106657799e-01 3.1137888744547700e-02 0.0000000000000000e+00  4.6664738045221837e-01 -1.4061876637631567e-04 0.0000000000000000e+00  4.6667176327665233e-01 -3.1510572840079243e-02 0.0000000000000000e+00  </DataArray> 
</PointData> 
</Piece>
</UnstructuredGrid>
</VTKFile>