<?xml version="1.0"?>
<VTKFile type="UnstructuredGrid"  version="0.1"  >
<UnstructuredGrid>
<Piece  NumberOfPoints="42" NumberOfCells="52">
<Points>
<DataArray  type="Float64"  NumberOfComponents="3"  format="ascii">-0.05 0 0  0 0 0  0.05 0 0  -0.05 0.07692307692307693 0  0 0.07692307692307693 0  0.05 0.07692307692307693 0  -0.05 0.1538461538461539 0  0 0.1538461538461539 0  0.05 0.1538461538461539 0  -0.05 0.2307692307692308 0  0 0.2307692307692308 0  0.05 0.2307692307692308 0  -0.05 0.3076923076923077 0  0 0.3076923076923077 0  0.05 0.3076923076923077 0  -0.05 0.3846153846153846 0  0 0.3846153846153846 0  0.05 0.3846153846153846 0  -0.05 0.4615384615384616 0  0 0.4615384615384616 0  0.05 0.4615384615384616 0  -0.05 0.5384615384615384 0  0 0.5384615384615384 0  0.05 0.5384615384615384 0  -0.05 0.6153846153846154 0  0 0.6153846153846154 0  0.05 0.6153846153846154 0  -0.05 0.6923076923076923 0  0 0.6923076923076923 0  0.05 0.6923076923076923 0  -0.05 0.7692307692307693 0  0 0.7692307692307693 0  0.05 0.7692307692307693 0  -0.05 0.8461538461538461 0  0 0.8461538461538461 0  0.05 0.8461538461538461 0  -0.05 0.9230769230769231 0  0 0.9230769230769231 0  0.05 0.9230769230769231 0  -0.05 1 0  0 1 0  0.05 1 0  </DataArray>
</Points>
<Cells>
<DataArray  type="UInt32"  Name="connectivity"  format="ascii">0 1 4  0 3 4  1 2 5  1 4 5  3 4 7  3 6 7  4 5 8  4 7 8  6 7 10  6 9 10  7 8 11  7 10 11  9 10 13  9 12 13  10 11 14  10 13 14  12 13 16  12 15 16  13 14 17  13 16 17  15 16 19  15 18 19  16 17 20  16 19 20  18 19 22  18 21 22  19 20 23  19 22 23  21 22 25  21 24 25  22 23 26  22 25 26  24 25 28  24 27 28  25 26 29  25 28 29  27 28 31  27 30 31  28 29 32  28 31 32  30 31 34  30 33 34  31 32 35  31 34 35  33 34 37  33 36 37  34 35 38  34 37 38  36 37 40  36 39 40  37 38 41  37 40 41  </DataArray>
<DataArray  type="UInt32"  Name="offsets"  format="ascii">3 6 9 12 15 18 21 24 27 30 33 36 39 42 45 48 51 54 57 60 63 66 69 72 75 78 81 84 87 90 93 96 99 102 105 108 111 114 117 120 123 126 129 132 135 138 141 144 147 150 153 156 </DataArray>
<DataArray  type="UInt8"  Name="types"  format="ascii">5 5 5 5 5 5 5 5 5 5 5 5 5 5 5 5 5 5 5 5 5 5 5 5 5 5 5 5 5 5 5 5 5 5 5 5 5 5 5 5 5 5 5 5 5 5 5 5 5 5 5 5 </DataArray>
</Cells>
<PointData  Vectors="Displacement"> 
<DataArray  type="Float64"  Name="Displacement"  NumberOfComponents="3" format="ascii">-3.6335477517013674e-16 3.9712481107463440e-17 0.0000000000000000e+00  2.1871305543831982e-17 -2.7421751763228413e-18 0.0000000000000000e+00  -6.5613916631495949e-17 8.2265255289685247e-18 0.0000000000000000e+00  5.2531095213776881e-03 5.5041962897687839e-03 0.0000000000000000e+00  4.4686738318637682e-03 3.0840701557931563e-05 0.0000000000000000e+00  5.2000422465539372e-03 -5.5309363273531812e-03 0.0000000000000000e+00  1.7958830323845019e-02 1.0470811173490534e-02 0.0000000000000000e+00  1.7315500107049495e-02 3.6890011625936985e-06 0.0000000000000000e+00  1.7976130782468777e-02 -1.0471494940724777e-02 0.0000000000000000e+00  3.7780945253687685e-02 1.4755802228051250e-02 0.0000000000000000e+00  3.7226256577285545e-02 -3.0726967521650227e-06 0.0000000000000000e+00  3.7792323216472565e-02 -1.4763529181177291e-02 0.0000000000000000e+00  6.3691367974520768e-02 1.8423639005753462e-02 0.0000000000000000e+00  6.3217540265010447e-02 -8.4259848664652195e-06 0.0000000000000000e+00  6.3701722308930578e-02 -1.8444647696525950e-02 0.0000000000000000e+00  9.4792667849900827e-02 2.1537623182090366e-02 0.0000000000000000e+00  9.4392151024934492e-02 -1.4127515003026275e-05 0.0000000000000000e+00  9.4802042229699443e-02 -2.1570942216255322e-02 0.0000000000000000e+00  1.3028099646824742e-01 2.4152982078276940e-02 0.0000000000000000e+00  1.2994671259206214e-01 -1.8317825292117863e-05 0.0000000000000000e+00  1.3028845343344839e-01 -2.4195368698487183e-02 0.0000000000000000e+00  1.6942562555798305e-01 2.6311145833785368e-02 0.0000000000000000e+00  1.6915348502375521e-01 -1.9324080856065648e-05 0.0000000000000000e+00  1.6943153552673665e-01 -2.6355742119658524e-02 0.0000000000000000e+00  2.1154398211288061e-01 2.8036627968300417e-02 0.0000000000000000e+00  2.1133011430847473e-01 -1.5559218296756503e-05 0.0000000000000000e+00  2.1154689384755590e-01 -2.8074098754279582e-02 0.0000000000000000e+00  2.5597400667989384e-01 2.9350148427239642e-02 0.0000000000000000e+00  2.5581604598248336e-01 -6.2357913377259232e-06 0.0000000000000000e+00  2.5597415066958162e-01 -2.9367819532595270e-02 0.0000000000000000e+00  3.0208870023983675e-01 3.0275768666126666e-02 0.0000000000000000e+00  3.0197803026196762e-01 1.0053699098013010e-05 0.0000000000000000e+00  3.0208213098998482e-01 -3.0263794156634230e-02 0.0000000000000000e+00  3.4928980965766926e-01 3.0869041135782503e-02 0.0000000000000000e+00  3.4923492486514429e-01 2.8774438925237159e-05 0.0000000000000000e+00  3.4929376017972247e-01 -3.0805717479475529e-02 0.0000000000000000e+00  3.9714087882821719e-01 3.1142073848488314e-02 0.0000000000000000e+00  3.9708195783022576e-01 6.0212185459316414e-05 0.0000000000000000e+00  3.9708312443647764e-01 -3.1038859994082027e-02 0.0000000000000000e+00  4.4507970537461555e-01 3.1266820334350950e-02 0.0000000000000000e+00  4.4510892199313606e-01 1.2282625392893412e-04 0.0000000000000000e+00  4.4513867641550436e-01 -3.1119770187239392e-02 0.0000000000000000e+00  </DataArray> 
</PointData> 
</Piece>
</UnstructuredGrid>
</VTKFile>