<?xml version="1.0"?>
<VTKFile type="UnstructuredGrid"  version="0.1"  >
<UnstructuredGrid>
<Piece  NumberOfPoints="42" NumberOfCells="52">
<Points>
<DataArray  type="Float64"  NumberOfComponents="3"  format="ascii">-0.05 0 0  0 0 0  0.05 0 0  -0.05 0.07692307692307693 0  0 0.07692307692307693 0  0.05 0.07692307692307693 0  -0.05 0.1538461538461539 0  0 0.1538461538461539 0  0.05 0.1538461538461539 0  -0.05 0.2307692307692308 0  0 0.2307692307692308 0  0.05 0.2307692307692308 0  -0.05 0.3076923076923077 0  0 0.3076923076923077 0  0.05 0.3076923076923077 0  -0.05 0.3846153846153846 0  0 0.3846153846153846 0  0.05 0.3846153846153846 0  -0.05 0.4615384615384616 0  0 0.4615384615384616 0  0.05 0.4615384615384616 0  -0.05 0.5384615384615384 0  0 0.5384615384615384 0  0.05 0.5384615384615384 0  -0.05 0.6153846153846154 0  0 0.6153846153846154 0  0.05 0.6153846153846154 0  -0.05 0.6923076923076923 0  0 0.6923076923076923 0  0.05 0.6923076923076923 0  -0.05 0.7692307692307693 0  0 0.7692307692307693 0  0.05 0.7692307692307693 0  -0.05 0.8461538461538461 0  0 0.8461538461538461 0  0.05 0.8461538461538461 0  -0.05 0.9230769230769231 0  0 0.9230769230769231 0  0.05 0.9230769230769231 0  -0.05 1 0  0 1 0  0.05 1 0  </DataArray>
</Points>
<Cells>
<DataArray  type="UInt32"  Name="connectivity"  format="ascii">0 1 4  0 3 4  1 2 5  1 4 5  3 4 7  3 6 7  4 5 8  4 7 8  6 7 10  6 9 10  7 8 11  7 10 11  9 10 13  9 12 13  10 11 14  10 13 14  12 13 16  12 15 16  13 14 17  13 16 17  15 16 19  15 18 19  16 17 20  16 19 20  18 19 22  18 21 22  19 20 23  19 22 23  21 22 25  21 24 25  22 23 26  22 25 26  24 25 28  24 27 28  25 26 29  25 28 29  27 28 31  27 30 31  28 29 32  28 31 32  30 31 34  30 33 34  31 32 35  31 34 35  33 34 37  33 36 37  34 35 38  34 37 38  36 37 40  36 39 40  37 38 41  37 40 41  </DataArray>
<DataArray  type="UInt32"  Name="offsets"  format="ascii">3 6 9 12 15 18 21 24 27 30 33 36 39 42 45 48 51 54 57 60 63 66 69 72 75 78 81 84 87 90 93 96 99 102 105 108 111 114 117 120 123 126 129 132 135 138 141 144 147 150 153 156 </DataArray>
<DataArray  type="UInt8"  Name="types"  format="ascii">5 5 5 5 5 5 5 5 5 5 5 5 5 5 5 5 5 5 5 5 5 5 5 5 5 5 5 5 5 5 5 5 5 5 5 5 5 5 5 5 5 5 5 5 5 5 5 5 5 5 5 5 </DataArray>
</Cells>
<PointData  Vectors="Displacement"> 
<DataArray  type="Float64"  Name="Displacement"  NumberOfComponents="3" format="ascii">-3.6926426819044925e-16 5.0040153712762461e-17 0.0000000000000000e+00  1.9892552764672353e-17 -3.2033010251639931e-18 0.0000000000000000e+00  -5.9677658294017066e-17 9.6099030754919796e-18 0.0000000000000000e+00  6.6419069555005116e-03 6.8983497999953588e-03 0.0000000000000000e+00  5.6751575350475645e-03 1.5731129056083998e-05 0.0000000000000000e+00  6.5999524579773809e-03 -6.9803853318935096e-03 0.0000000000000000e+00  2.2615450669906088e-02 1.3041205180241416e-02 0.0000000000000000e+00  2.1837056125819199e-02 -4.1940638675017964e-05 0.0000000000000000e+00  2.2658673928805641e-02 -1.3135169491719896e-02 0.0000000000000000e+00  4.7354051780662154e-02 1.8233357309373564e-02 0.0000000000000000e+00  4.6701825802108229e-02 -6.8896279395603860e-05 0.0000000000000000e+00  4.7388486890094839e-02 -1.8372863377934118e-02 0.0000000000000000e+00  7.9394442027832399e-02 2.2529313763627705e-02 0.0000000000000000e+00  7.8861373064532128e-02 -8.7983476769412796e-05 0.0000000000000000e+00  7.9424355138494246e-02 -2.2709632061117840e-02 0.0000000000000000e+00  1.1738509515041218e-01 2.5989448859200424e-02 0.0000000000000000e+00  1.1696128728188114e-01 -1.0042494528469137e-04 0.0000000000000000e+00  1.1740881178674600e-01 -2.6195286328823678e-02 0.0000000000000000e+00  1.6007600835147090e-01 2.8695975496005371e-02 0.0000000000000000e+00  1.5974728841306934e-01 -1.0404687071312607e-04 0.0000000000000000e+00  1.6009107468355838e-01 -2.8909638158763067e-02 0.0000000000000000e+00  2.0636267435574845e-01 3.0752199556105662e-02 0.0000000000000000e+00  2.0611458682461758e-01 -9.7892839244611432e-05 0.0000000000000000e+00  2.0636912252075973e-01 -3.0953838681167804e-02 0.0000000000000000e+00  2.5531262547292388e-01 3.2263488751100897e-02 0.0000000000000000e+00  2.5513051561847577e-01 -8.2034196349898533e-05 0.0000000000000000e+00  2.5531026186027250e-01 -3.2434177093512401e-02 0.0000000000000000e+00  3.0615201785854579e-01 3.3328943421691827e-02 0.0000000000000000e+00  3.0602451210196580e-01 -5.8002248582847921e-05 0.0000000000000000e+00  3.0614306350259424e-01 -3.3450753842220980e-02 0.0000000000000000e+00  3.5825844245728883e-01 3.4032874178232995e-02 0.0000000000000000e+00  3.5817105012694117e-01 -2.6912392780664909e-05 0.0000000000000000e+00  3.5824157835643899e-01 -3.4096040581489143e-02 0.0000000000000000e+00  4.1112084959828876e-01 3.4471012539256919e-02 0.0000000000000000e+00  4.1107845237642199e-01 4.3075074297826851e-06 0.0000000000000000e+00  4.1111477086877524e-01 -3.4457500437188454e-02 0.0000000000000000e+00  4.6443729471248107e-01 3.4669765794207330e-02 0.0000000000000000e+00  4.6438209174196132e-01 4.4263746431943354e-05 0.0000000000000000e+00  4.6437447811586513e-01 -3.4601617150348131e-02 0.0000000000000000e+00  5.1780373536374935e-01 3.4792725298867275e-02 0.0000000000000000e+00  5.1783275287315722e-01 1.0987719654464261e-04 0.0000000000000000e+00  5.1785774800769713e-01 -3.4669616742156614e-02 0.0000000000000000e+00  </DataArray> 
</PointData> 
</Piece>
</UnstructuredGrid>
</VTKFile>