<?xml version="1.0"?>
<VTKFile type="UnstructuredGrid"  version="0.1"  >
<UnstructuredGrid>
<Piece  NumberOfPoints="42" NumberOfCells="52">
<Points>
<DataArray  type="Float64"  NumberOfComponents="3"  format="ascii">-0.05 0 0  0 0 0  0.05 0 0  -0.05 0.07692307692307693 0  0 0.07692307692307693 0  0.05 0.07692307692307693 0  -0.05 0.1538461538461539 0  0 0.1538461538461539 0  0.05 0.1538461538461539 0  -0.05 0.2307692307692308 0  0 0.2307692307692308 0  0.05 0.2307692307692308 0  -0.05 0.3076923076923077 0  0 0.3076923076923077 0  0.05 0.3076923076923077 0  -0.05 0.3846153846153846 0  0 0.3846153846153846 0  0.05 0.3846153846153846 0  -0.05 0.4615384615384616 0  0 0.4615384615384616 0  0.05 0.4615384615384616 0  -0.05 0.5384615384615384 0  0 0.5384615384615384 0  0.05 0.5384615384615384 0  -0.05 0.6153846153846154 0  0 0.6153846153846154 0  0.05 0.6153846153846154 0  -0.05 0.6923076923076923 0  0 0.6923076923076923 0  0.05 0.6923076923076923 0  -0.05 0.7692307692307693 0  0 0.7692307692307693 0  0.05 0.7692307692307693 0  -0.05 0.8461538461538461 0  0 0.8461538461538461 0  0.05 0.8461538461538461 0  -0.05 0.9230769230769231 0  0 0.9230769230769231 0  0.05 0.9230769230769231 0  -0.05 1 0  0 1 0  0.05 1 0  </DataArray>
</Points>
<Cells>
<DataArray  type="UInt32"  Name="connectivity"  format="ascii">0 1 4  0 3 4  1 2 5  1 4 5  3 4 7  3 6 7  4 5 8  4 7 8  6 7 10  6 9 10  7 8 11  7 10 11  9 10 13  9 12 13  10 11 14  10 13 14  12 13 16  12 15 16  13 14 17  13 16 17  15 16 19  15 18 19  16 17 20  16 19 20  18 19 22  18 21 22  19 20 23  19 22 23  21 22 25  21 24 25  22 23 26  22 25 26  24 25 28  24 27 28  25 26 29  25 28 29  27 28 31  27 30 31  28 29 32  28 31 32  30 31 34  30 33 34  31 32 35  31 34 35  33 34 37  33 36 37  34 35 38  34 37 38  36 37 40  36 39 40  37 38 41  37 40 41  </DataArray>
<DataArray  type="UInt32"  Name="offsets"  format="ascii">3 6 9 12 15 18 21 24 27 30 33 36 39 42 45 48 51 54 57 60 63 66 69 72 75 78 81 84 87 90 93 96 99 102 105 108 111 114 117 120 123 126 129 132 135 138 141 144 147 150 153 156 </DataArray>
<DataArray  type="UInt8"  Name="types"  format="ascii">5 5 5 5 5 5 5 5 5 5 5 5 5 5 5 5 5 5 5 5 5 5 5 5 5 5 5 5 5 5 5 5 5 5 5 5 5 5 5 5 5 5 5 5 5 5 5 5 5 5 5 5 </DataArray>
</Cells>
<PointData  Vectors="Displacement"> 
<DataArray  type="Float64"  Name="Displacement"  NumberOfComponents="3" format="ascii">-3.6610852093947227e-16 4.7625901561468954e-17 0.0000000000000000e+00  2.0930139495674341e-17 -3.2182839137446391e-18 0.0000000000000000e+00  -6.2790418487023028e-17 9.6548517412339182e-18 0.0000000000000000e+00  6.3020114964972684e-03 6.6125066648093766e-03 0.0000000000000000e+00  5.3644913762255237e-03 4.8080248907067014e-06 0.0000000000000000e+00  6.2613417119606902e-03 -6.7114539438747336e-03 0.0000000000000000e+00  2.1654098231963001e-02 1.2616496153674436e-02 0.0000000000000000e+00  2.0881879803489944e-02 -6.0682010979849374e-05 0.0000000000000000e+00  2.1695217770657121e-02 -1.2747468984985974e-02 0.0000000000000000e+00  4.5688254406364731e-02 1.7826816156547541e-02 0.0000000000000000e+00  4.5020217099724015e-02 -9.7519570551818829e-05 0.0000000000000000e+00  4.5721239070806420e-02 -1.8023712742027732e-02 0.0000000000000000e+00  7.7194250970265083e-02 2.2301553560521398e-02 0.0000000000000000e+00  7.6624655165212913e-02 -1.2843555642950540e-04 0.0000000000000000e+00  7.7224727103050117e-02 -2.2563271105131306e-02 0.0000000000000000e+00  1.1507559465176773e-01 2.6086107238428021e-02 0.0000000000000000e+00  1.1459950714474833e-01 -1.5563484527279965e-04 0.0000000000000000e+00  1.1510377766526615e-01 -2.6403201987372660e-02 0.0000000000000000e+00  1.5829362705534622e-01 2.9218303303799834e-02 0.0000000000000000e+00  1.5790485081006841e-01 -1.7755348874300749e-04 0.0000000000000000e+00  1.5831800736863613e-01 -2.9579889002504484e-02 0.0000000000000000e+00  2.0586179824581499e-01 3.1739504789949594e-02 0.0000000000000000e+00  2.0555395283925701e-01 -1.9284642387717377e-04 0.0000000000000000e+00  2.0588169756355265e-01 -3.2131687906519941e-02 0.0000000000000000e+00  2.5686123505838698e-01 3.3699106247766356e-02 0.0000000000000000e+00  2.5662541429553098e-01 -2.0011593191503074e-04 0.0000000000000000e+00  2.5687459037241739e-01 -3.4106214902744056e-02 0.0000000000000000e+00  3.1045448798548808e-01 3.5158973034100732e-02 0.0000000000000000e+00  3.1028295763946911e-01 -1.9875340505144689e-04 0.0000000000000000e+00  3.1046169501683907e-01 -3.5562027068051616e-02 0.0000000000000000e+00  3.6590964903323753e-01 3.6178177241878703e-02 0.0000000000000000e+00  3.6579055165821212e-01 -1.8758040705371380e-04 0.0000000000000000e+00  3.6590781367841757e-01 -3.6562203112150547e-02 0.0000000000000000e+00  4.2256808470939161e-01 3.6831529960009136e-02 0.0000000000000000e+00  4.2250797744691387e-01 -1.7177264829228045e-04 0.0000000000000000e+00  4.2257438730442920e-01 -3.7168867881519491e-02 0.0000000000000000e+00  4.7994122197736810e-01 3.7132329090982186e-02 0.0000000000000000e+00  4.7988102146668521e-01 -1.4148987882592117e-04 0.0000000000000000e+00  4.7988625337748347e-01 -3.7434836032043860e-02 0.0000000000000000e+00  5.3743825906039511e-01 3.7277394173143359e-02 0.0000000000000000e+00  5.3746627726477936e-01 -7.9175169114544823e-05 0.0000000000000000e+00  5.3749417886890549e-01 -3.7531116829902109e-02 0.0000000000000000e+00  </DataArray> 
</PointData> 
</Piece>
</UnstructuredGrid>
</VTKFile>