<?xml version="1.0"?>
<VTKFile type="UnstructuredGrid"  version="0.1"  >
<UnstructuredGrid>
<Piece  NumberOfPoints="42" NumberOfCells="52">
<Points>
<DataArray  type="Float64"  NumberOfComponents="3"  format="ascii">-0.05 0 0  0 0 0  0.05 0 0  -0.05 0.07692307692307693 0  0 0.07692307692307693 0  0.05 0.07692307692307693 0  -0.05 0.1538461538461539 0  0 0.1538461538461539 0  0.05 0.1538461538461539 0  -0.05 0.2307692307692308 0  0 0.2307692307692308 0  0.05 0.2307692307692308 0  -0.05 0.3076923076923077 0  0 0.3076923076923077 0  0.05 0.3076923076923077 0  -0.05 0.3846153846153846 0  0 0.3846153846153846 0  0.05 0.3846153846153846 0  -0.05 0.4615384615384616 0  0 0.4615384615384616 0  0.05 0.4615384615384616 0  -0.05 0.5384615384615384 0  0 0.5384615384615384 0  0.05 0.5384615384615384 0  -0.05 0.6153846153846154 0  0 0.6153846153846154 0  0.05 0.6153846153846154 0  -0.05 0.6923076923076923 0  0 0.6923076923076923 0  0.05 0.6923076923076923 0  -0.05 0.7692307692307693 0  0 0.7692307692307693 0  0.05 0.7692307692307693 0  -0.05 0.8461538461538461 0  0 0.8461538461538461 0  0.05 0.8461538461538461 0  -0.05 0.9230769230769231 0  0 0.9230769230769231 0  0.05 0.9230769230769231 0  -0.05 1 0  0 1 0  0.05 1 0  </DataArray>
</Points>
<Cells>
<DataArray  type="UInt32"  Name="connectivity"  format="ascii">0 1 4  0 3 4  1 2 5  1 4 5  3 4 7  3 6 7  4 5 8  4 7 8  6 7 10  6 9 10  7 8 11  7 10 11  9 10 13  9 12 13  10 11 14  10 13 14  12 13 16  12 15 16  13 14 17  13 16 17  15 16 19  15 18 19  16 17 20  16 19 20  18 19 22  18 21 22  19 20 23  19 22 23  21 22 25  21 24 25  22 23 26  22 25 26  24 25 28  24 27 28  25 26 29  25 28 29  27 28 31  27 30 31  28 29 32  28 31 32  30 31 34  30 33 34  31 32 35  31 34 35  33 34 37  33 36 37  34 35 38  34 37 38  36 37 40  36 39 40  37 38 41  37 40 41  </DataArray>
<DataArray  type="UInt32"  Name="offsets"  format="ascii">3 6 9 12 15 18 21 24 27 30 33 36 39 42 45 48 51 54 57 60 63 66 69 72 75 78 81 84 87 90 93 96 99 102 105 108 111 114 117 120 123 126 129 132 135 138 141 144 147 150 153 156 </DataArray>
<DataArray  type="UInt8"  Name="types"  format="ascii">5 5 5 5 5 5 5 5 5 5 5 5 5 5 5 5 5 5 5 5 5 5 5 5 5 5 5 5 5 5 5 5 5 5 5 5 5 5 5 5 5 5 5 5 5 5 5 5 5 5 5 5 </DataArray>
</Cells>
<PointData  Vectors="Displacement"> 
<DataArray  type="Float64"  Name="Displacement"  NumberOfComponents="3" format="ascii">-3.5572961578688376e-16 4.0553879210943370e-17 0.0000000000000000e+00  2.3958324692704037e-17 -3.1517721100776513e-18 0.0000000000000000e+00  -7.1874974078112114e-17 9.4553163302329544e-18 0.0000000000000000e+00  5.5108372486934324e-03 5.7458334606493820e-03 0.0000000000000000e+00  4.6979175269105536e-03 2.6635783406534032e-05 0.0000000000000000e+00  5.4620151529645965e-03 -5.7855287653086236e-03 0.0000000000000000e+00  1.8780605111628643e-02 1.0891817353173601e-02 0.0000000000000000e+00  1.8119265042780656e-02 -7.3218800249401012e-06 0.0000000000000000e+00  1.8803609819352949e-02 -1.0914558142211961e-02 0.0000000000000000e+00  3.9399806385097262e-02 1.5295116790812814e-02 0.0000000000000000e+00  3.8834897781884259e-02 -1.8158761584550098e-05 0.0000000000000000e+00  3.9415753713095789e-02 -1.5332612304662660e-02 0.0000000000000000e+00  6.6251330140449288e-02 1.9025187690037408e-02 0.0000000000000000e+00  6.5775257134719392e-02 -2.5334836336867980e-05 0.0000000000000000e+00  6.6265049624571831e-02 -1.9079451647577052e-02 0.0000000000000000e+00  9.8347689032940500e-02 2.2138852324205208e-02 0.0000000000000000e+00  9.7954123524251299e-02 -3.0378538690101159e-05 0.0000000000000000e+00  9.8359389512479189e-02 -2.2203969168233240e-02 0.0000000000000000e+00  1.3477506269133657e-01 2.4682302860775752e-02 0.0000000000000000e+00  1.3445723398091167e-01 -3.1529091337666769e-05 0.0000000000000000e+00  1.3478347124057113e-01 -2.4750241669710672e-02 0.0000000000000000e+00  1.7468191411423711e-01 2.6698759651748623e-02 0.0000000000000000e+00  1.7443405128982062e-01 -2.7407810327478827e-05 0.0000000000000000e+00  1.7468686538837724e-01 -2.6758477415655704e-02 0.0000000000000000e+00  2.1727937249483673e-01 2.8230178629981208e-02 0.0000000000000000e+00  2.1709388779154107e-01 -1.6788123227168994e-05 0.0000000000000000e+00  2.1727894218097737e-01 -2.8268950354079701e-02 0.0000000000000000e+00  2.6183991553578856e-01 2.9328628341101552e-02 0.0000000000000000e+00  2.6170942564590699e-01 6.4393797547880644e-07 0.0000000000000000e+00  2.6183430354924214e-01 -2.9331506959219364e-02 0.0000000000000000e+00  3.0773061435759363e-01 3.0056561980311741e-02 0.0000000000000000e+00  3.0764177332145343e-01 2.5341865503681216e-05 0.0000000000000000e+00  3.0771667145377518e-01 -3.0013045326177417e-02 0.0000000000000000e+00  3.5441388408268687e-01 3.0503677312637954e-02 0.0000000000000000e+00  3.5437108606915402e-01 5.1565492513558201e-05 0.0000000000000000e+00  3.5440975929104762e-01 -3.0395485386329857e-02 0.0000000000000000e+00  4.0156156581480024e-01 3.0704110835343263e-02 0.0000000000000000e+00  4.0150881995651155e-01 8.6916907848815715e-05 0.0000000000000000e+00  4.0150197177427399e-01 -3.0546798020895723e-02 0.0000000000000000e+00  4.4874966210355077e-01 3.0808364330356088e-02 0.0000000000000000e+00  4.4877658023181449e-01 1.4656751486457457e-04 0.0000000000000000e+00  4.4880167040290153e-01 -3.0607264413534743e-02 0.0000000000000000e+00  </DataArray> 
</PointData> 
</Piece>
</UnstructuredGrid>
</VTKFile>