<?xml version="1.0"?>
<VTKFile type="UnstructuredGrid"  version="0.1"  >
<UnstructuredGrid>
<Piece  NumberOfPoints="42" NumberOfCells="52">
<Points>
<DataArray  type="Float64"  NumberOfComponents="3"  format="ascii">-0.05 0 0  0 0 0  0.05 0 0  -0.05 0.07692307692307693 0  0 0.07692307692307693 0  0.05 0.07692307692307693 0  -0.05 0.1538461538461539 0  0 0.1538461538461539 0  0.05 0.1538461538461539 0  -0.05 0.2307692307692308 0  0 0.2307692307692308 0  0.05 0.2307692307692308 0  -0.05 0.3076923076923077 0  0 0.3076923076923077 0  0.05 0.3076923076923077 0  -0.05 0.3846153846153846 0  0 0.3846153846153846 0  0.05 0.3846153846153846 0  -0.05 0.4615384615384616 0  0 0.4615384615384616 0  0.05 0.4615384615384616 0  -0.05 0.5384615384615384 0  0 0.5384615384615384 0  0.05 0.5384615384615384 0  -0.05 0.6153846153846154 0  0 0.6153846153846154 0  0.05 0.6153846153846154 0  -0.05 0.6923076923076923 0  0 0.6923076923076923 0  0.05 0.6923076923076923 0  -0.05 0.7692307692307693 0  0 0.7692307692307693 0  0.05 0.7692307692307693 0  -0.05 0.8461538461538461 0  0 0.8461538461538461 0  0.05 0.8461538461538461 0  -0.05 0.9230769230769231 0  0 0.9230769230769231 0  0.05 0.9230769230769231 0  -0.05 1 0  0 1 0  0.05 1 0  </DataArray>
</Points>
<Cells>
<DataArray  type="UInt32"  Name="connectivity"  format="ascii">0 1 4  0 3 4  1 2 5  1 4 5  3 4 7  3 6 7  4 5 8  4 7 8  6 7 10  6 9 10  7 8 11  7 10 11  9 10 13  9 12 13  10 11 14  10 13 14  12 13 16  12 15 16  13 14 17  13 16 17  15 16 19  15 18 19  16 17 20  16 19 20  18 19 22  18 21 22  19 20 23  19 22 23  21 22 25  21 24 25  22 23 26  22 25 26  24 25 28  24 27 28  25 26 29  25 28 29  27 28 31  27 30 31  28 29 32  28 31 32  30 31 34  30 33 34  31 32 35  31 34 35  33 34 37  33 36 37  34 35 38  34 37 38  36 37 40  36 39 40  37 38 41  37 40 41  </DataArray>
<DataArray  type="UInt32"  Name="offsets"  format="ascii">3 6 9 12 15 18 21 24 27 30 33 36 39 42 45 48 51 54 57 60 63 66 69 72 75 78 81 84 87 90 93 96 99 102 105 108 111 114 117 120 123 126 129 132 135 138 141 144 147 150 153 156 </DataArray>
<DataArray  type="UInt8"  Name="types"  format="ascii">5 5 5 5 5 5 5 5 5 5 5 5 5 5 5 5 5 5 5 5 5 5 5 5 5 5 5 5 5 5 5 5 5 5 5 5 5 5 5 5 5 5 5 5 5 5 5 5 5 5 5 5 </DataArray>
</Cells>
<PointData  Vectors="Displacement"> 
<DataArray  type="Float64"  Name="Displacement"  NumberOfComponents="3" format="ascii">-3.6851003838053358e-16 4.9773997458295193e-17 0.0000000000000000e+00  2.0172948025410383e-17 -3.2318070784648604e-18 0.0000000000000000e+00  -6.0518844076231153e-17 9.6954212353945817e-18 0.0000000000000000e+00  6.6400961009983397e-03 6.9003644967680468e-03 0.0000000000000000e+00  5.6706017647845212e-03 4.4731045779126674e-05 0.0000000000000000e+00  6.5814004969595675e-03 -6.9225395691615843e-03 0.0000000000000000e+00  2.2539148759776643e-02 1.3028657720668298e-02 0.0000000000000000e+00  2.1757136698775902e-02 1.9027301547077960e-05 0.0000000000000000e+00  2.2563675451900175e-02 -1.3000173783377051e-02 0.0000000000000000e+00  4.7117661151339543e-02 1.8218819474726838e-02 0.0000000000000000e+00  4.6455820217763677e-02 2.5118984420624873e-05 0.0000000000000000e+00  4.7130728386035901e-02 -1.8169810333484707e-02 0.0000000000000000e+00  7.8959928846458444e-02 2.2570404196867924e-02 0.0000000000000000e+00  7.8405751953205691e-02 3.9724832357084734e-05 0.0000000000000000e+00  7.8966840944172140e-02 -2.2495276504845167e-02 0.0000000000000000e+00  1.1684482228127144e-01 2.6179805849604165e-02 0.0000000000000000e+00  1.1638687528573216e-01 5.9758458269341582e-05 0.0000000000000000e+00  1.1684669193560274e-01 -2.6065935529950256e-02 0.0000000000000000e+00  1.5969333201756269e-01 2.9130955473742278e-02 0.0000000000000000e+00  1.5932068423752102e-01 8.4983855802848451e-05 0.0000000000000000e+00  1.5969051474938675e-01 -2.8967820016355401e-02 0.0000000000000000e+00  2.0654683989112008e-01 3.1496300880461146e-02 0.0000000000000000e+00  2.0625119806432665e-01 1.1419186193729222e-04 0.0000000000000000e+00  2.0654124486274272e-01 -3.1275355339257606e-02 0.0000000000000000e+00  2.5655214779033031e-01 3.3334511447724799e-02 0.0000000000000000e+00  2.5632547661373983e-01 1.4609625388284359e-04 0.0000000000000000e+00  2.5654396773544991e-01 -3.3050569380354819e-02 0.0000000000000000e+00  3.0893502037161302e-01 3.4697569814423186e-02 0.0000000000000000e+00  3.0877143810053115e-01 1.7923042479172572e-04 0.0000000000000000e+00  3.0892563689613795e-01 -3.4346206852317131e-02 0.0000000000000000e+00  3.6300129544283266e-01 3.5633575142811270e-02 0.0000000000000000e+00  3.6288929979648599e-01 2.1379085239248689e-04 0.0000000000000000e+00  3.6298756632619755e-01 -3.5216261230373865e-02 0.0000000000000000e+00  4.1812115330975358e-01 3.6221112326854689e-02 0.0000000000000000e+00  4.1806575031348991e-01 2.4492246754651470e-04 0.0000000000000000e+00  4.1811939219981364e-01 -3.5726396016744134e-02 0.0000000000000000e+00  4.7385669525825658e-01 3.6487263722277286e-02 0.0000000000000000e+00  4.7379763581929996e-01 2.8364770619222567e-04 0.0000000000000000e+00  4.7379708793165626e-01 -3.5940431950588575e-02 0.0000000000000000e+00  5.2968456388771679e-01 3.6624780732820966e-02 0.0000000000000000e+00  5.2971307638140364e-01 3.4872932705101381e-04 0.0000000000000000e+00  5.2974003047604878e-01 -3.6023869689177965e-02 0.0000000000000000e+00  </DataArray> 
</PointData> 
</Piece>
</UnstructuredGrid>
</VTKFile>