/*--------------------------------*- C++ -*----------------------------------*\
  =========                 |
  \\      /  F ield         | OpenFOAM: The Open Source CFD Toolbox
   \\    /   O peration     | Website:  https://openfoam.org
    \\  /    A nd           | Version:  7
     \\/     M anipulation  |
\*---------------------------------------------------------------------------*/
FoamFile
{
    version     2.0;
    format      ascii;
    class       volScalarField;
    location    "0.1";
    object      p;
}
// * * * * * * * * * * * * * * * * * * * * * * * * * * * * * * * * * * * * * //

dimensions      [0 2 -2 0 0 0 0];

internalField   nonuniform List<scalar> 
2790
(
72.981
72.8739
73.1077
73.6284
74.3424
75.2175
76.2502
77.439
78.7798
80.2681
81.9005
83.6741
85.5858
87.6312
89.8038
92.0943
94.4894
96.9713
99.5166
102.096
104.673
107.205
109.646
111.943
114.044
115.896
117.454
118.711
119.434
120.274
72.7826
72.7861
73.0453
73.5638
74.275
75.1483
76.1782
77.3629
78.6985
80.1807
81.806
83.5718
85.4749
87.5113
89.6748
91.9564
94.3435
96.8187
99.3595
101.937
104.516
107.055
109.507
111.82
113.941
115.816
117.395
118.695
119.403
120.286
72.5926
72.666
72.9447
73.4537
74.1533
75.016
76.034
77.2046
78.5239
79.9877
81.5926
83.3358
85.2142
87.2238
89.3589
91.6109
93.9679
96.4135
98.9264
101.479
104.038
106.564
109.01
111.327
113.46
115.357
116.96
118.317
119.009
119.951
72.3806
72.485
72.7769
73.2784
73.9652
74.814
75.8155
76.966
78.2617
79.6982
81.2723
82.9808
84.821
86.7889
88.8791
91.0835
93.3911
95.7868
98.2506
100.757
103.275
105.767
108.189
110.492
112.626
114.535
116.154
117.562
118.238
119.236
72.1368
72.2556
72.5565
73.0515
73.7231
74.5528
75.5313
76.6541
77.9172
79.3164
80.8483
82.5097
84.2977
86.2085
88.2369
90.3754
92.6138
94.9383
97.3306
99.7675
102.22
104.655
107.031
109.303
111.419
113.33
114.956
116.409
117.078
118.131
71.857
71.9817
72.2856
72.7716
73.4248
74.2305
75.1799
76.2681
77.4908
78.8436
80.3229
81.9253
83.6479
85.4866
87.4366
89.4907
91.6395
93.8704
96.1668
98.5081
100.869
103.218
105.519
107.731
109.807
111.699
113.317
114.806
115.476
116.587
71.5394
71.6654
71.9669
72.4408
73.0725
73.8498
74.7647
75.8119
76.9865
78.2841
79.7006
81.2326
82.8767
84.6287
86.4837
88.4347
90.473
92.5867
94.761
96.9773
99.2132
101.442
103.632
105.746
107.744
109.585
111.171
112.678
113.349
114.521
71.1836
71.308
71.6028
72.0614
72.6684
73.4132
74.2884
75.2883
76.4078
77.6419
78.9862
80.4368
81.9899
83.641
85.3848
87.2142
89.1205
91.0924
93.1162
95.175
97.2489
99.3147
101.346
103.312
105.179
106.918
108.428
109.917
110.58
111.817
70.7901
70.9109
71.1958
71.6357
72.215
72.9234
73.7541
74.7011
75.7588
76.9217
78.1849
79.5441
80.9945
82.5312
84.1481
85.8377
87.5906
89.3956
91.2389
93.1045
94.9737
96.8259
98.6385
100.388
102.048
103.606
104.965
106.37
106.995
108.298
70.36
70.4757
70.748
71.1665
71.715
72.3835
73.1654
74.0543
75.0442
76.1289
77.3031
78.5615
79.8985
81.3083
82.7836
84.3159
85.8947
87.5075
89.1395
90.7737
92.391
93.9707
95.4919
96.9347
98.2808
99.5339
100.615
101.816
102.327
103.682
69.8947
70.0044
70.262
70.6565
71.1714
71.7968
72.526
73.3523
74.269
75.2695
76.3476
77.4969
78.711
79.9826
81.303
82.6619
84.0469
85.4433
86.8335
88.1975
89.5127
90.7545
91.8982
92.9217
93.8081
94.5739
95.1644
95.931
96.1507
97.5007
69.3961
69.499
69.7402
70.1084
70.5873
71.1668
71.8399
72.5998
73.4388
74.3499
75.3257
76.3589
77.4419
78.5656
79.7194
80.8909
82.0647
83.2226
84.3428
85.3993
86.3623
87.1977
87.8688
88.3397
88.5787
88.5957
88.3498
88.2533
87.7654
88.9084
68.8663
68.9617
69.1851
69.5253
69.966
70.4972
71.1116
71.8017
72.5594
73.3766
74.2453
75.1569
76.102
77.07
78.0479
79.0204
79.9687
80.8698
81.6956
82.412
82.9775
83.3418
83.4451
83.2194
82.589
81.5099
79.8955
78.1492
75.9767
76.2082
68.3074
68.3949
68.5995
68.9101
69.311
69.7921
70.3454
70.9632
71.6367
72.357
73.1148
73.9004
74.7029
75.5095
76.3047
77.07
77.7823
78.4131
78.9269
79.2789
79.412
79.2534
78.7085
77.6548
75.9304
73.3532
69.6358
64.8831
58.7332
55.4196
67.722
67.8011
67.9861
68.266
68.6258
69.0552
69.5459
70.0896
70.6768
71.2978
71.9424
72.5995
73.2563
73.898
74.5066
75.06
75.5308
75.8844
76.0769
76.0518
75.7347
75.0257
73.7872
71.8242
68.8474
64.4326
57.8296
48.1167
32.9392
14.763
-103.663
-103.199
-103.179
-102.323
-100.92
-98.592
-95.1294
-90.4023
-84.4104
-77.3136
-69.428
-61.1588
-52.7984
-44.5256
-36.7031
-29.7107
-23.663
-18.5701
-14.3783
-10.9934
-8.30217
-6.18819
-4.54203
-3.26676
-2.28017
-1.5148
-0.916755
-0.443992
-0.064988
0.242949
-104.19
-103.704
-103.799
-103.002
-101.695
-99.4248
-95.9771
-91.2181
-85.1606
-77.9766
-69.9951
-61.6353
-53.1951
-44.8446
-36.9548
-29.9143
-23.8294
-18.7071
-14.4917
-11.0876
-8.38049
-6.25322
-4.59582
-3.31097
-2.31623
-1.54391
-0.939912
-0.461891
-0.0773561
0.244212
-105.328
-104.885
-105.152
-104.48
-103.334
-101.164
-97.7307
-92.9017
-86.6945
-79.3047
-71.0949
-62.5157
-53.8891
-45.3609
-37.3106
-30.1625
-24.0045
-18.8334
-14.5862
-11.1614
-8.44044
-6.30335
-4.63833
-3.34707
-2.3466
-1.56902
-0.960104
-0.477335
-0.087684
0.243011
-107.119
-106.808
-107.316
-106.882
-105.997
-104.004
-100.612
-95.6753
-89.2192
-81.4746
-72.8674
-63.9042
-54.9453
-46.1194
-37.8158
-30.4995
-24.2314
-18.9903
-14.7003
-11.2497
-8.51284
-6.365
-4.6917
-3.39319
-2.3859
-1.60175
-0.986506
-0.497624
-0.101924
0.236971
-109.654
-109.564
-110.431
-110.398
-109.926
-108.224
-104.919
-99.8356
-92.9939
-84.6929
-75.4686
-65.9157
-56.4319
-47.1554
-38.4972
-30.9422
-24.5189
-19.1813
-14.8336
-11.3496
-8.59312
-6.43284
-4.7504
-3.44404
-2.42932
-1.63791
-1.01564
-0.520009
-0.117958
0.228437
-113.063
-113.32
-114.717
-115.319
-115.478
-114.226
-111.063
-105.758
-98.3211
-89.1826
-79.0538
-68.6549
-58.4033
-48.4887
-39.3737
-31.5054
-24.8788
-19.4158
-14.9941
-11.4678
-8.6869
-6.51153
-4.81825
-3.50272
-2.47938
-1.67959
-1.04921
-0.545937
-0.136942
0.216826
-117.53
-118.307
-120.467
-122.017
-123.091
-122.481
-119.489
-113.809
-105.452
-95.1027
-83.7151
-72.1647
-60.8706
-50.1125
-40.4442
-32.191
-25.3145
-19.6979
-15.1859
-11.6078
-8.79706
-6.60312
-4.89657
-3.56996
-2.53639
-1.72682
-1.08717
-0.575308
-0.158736
0.202343
-123.28
-124.776
-127.976
-130.846
-133.164
-133.385
-130.51
-124.196
-114.471
-102.462
-89.4236
-76.3724
-63.7665
-51.9933
-41.6827
-32.9842
-25.819
-20.0258
-15.41
-11.7719
-8.92588
-6.70962
-4.98691
-3.64688
-2.60113
-1.78017
-1.12991
-0.60844
-0.183578
0.184834
-130.463
-132.867
-137.391
-141.972
-145.885
-147.101
-144.236
-136.802
-125.175
-111.046
-95.9841
-81.0758
-66.9188
-54.0703
-43.0365
-33.8499
-26.373
-20.3903
-15.6627
-11.9593
-9.07396
-6.83188
-5.09002
-3.73401
-2.67393
-1.8398
-1.17754
-0.645407
-0.211507
0.164279
-138.922
-142.364
-148.462
-155.129
-160.968
-163.25
-160.062
-151.02
-136.992
-120.379
-102.973
-85.9758
-70.1481
-56.2051
-44.4156
-34.7325
-26.9447
-20.7744
-15.9359
-12.1665
-9.23981
-6.96939
-5.20571
-3.83123
-2.75467
-1.90563
-1.22999
-0.68616
-0.24249
0.140715
-147.879
-152.397
-160.278
-169.368
-177.385
-180.64
-176.855
-165.77
-149.017
-129.756
-109.814
-90.6324
-73.23
-58.2052
-45.6984
-35.5591
-27.4917
-21.1545
-16.2167
-12.3864
-9.41963
-7.11991
-5.33255
-3.93756
-2.84265
-1.97712
-1.28688
-0.730447
-0.276354
0.114295
-155.681
-161.26
-171.091
-182.818
-193.008
-196.819
-192.502
-179.458
-160.19
-138.18
-115.753
-94.581
-75.7869
-59.8389
-46.7451
-36.2466
-27.9654
-21.5022
-16.4884
-12.6089
-9.60701
-7.27924
-5.46767
-4.05097
-2.93641
-2.05326
-1.3475
-0.777799
-0.312782
0.0852897
-159.905
-166.596
-178.472
-192.684
-205.211
-209.727
-205.212
-190.336
-168.868
-144.382
-119.875
-97.2196
-77.4395
-60.8758
-47.4177
-36.7124
-28.3161
-21.7869
-16.7314
-12.8212
-9.79313
-7.44116
-5.60662
-4.16826
-3.03366
-2.13242
-1.41074
-0.827452
-0.351259
0.0541109
-158.326
-166.673
-181.268
-197.984
-212.167
-217.697
-212.597
-196.101
-172.883
-146.978
-121.394
-98.0421
-77.8723
-61.1245
-47.6004
-36.8852
-28.498
-21.9782
-16.9249
-13.0085
-9.96745
-7.59806
-5.74391
-4.28547
-3.13157
-2.21257
-1.47517
-0.878397
-0.391061
0.0213696
-149.211
-160.852
-179.05
-197.597
-212.654
-218.205
-212.141
-195.01
-171.402
-145.369
-119.869
-96.7553
-76.8993
-60.4677
-47.2166
-36.7124
-28.4734
-22.048
-17.0478
-13.1553
-10.1187
-7.74198
-5.87408
-4.39901
-3.22786
-2.29238
-1.54004
-0.930285
-0.432051
-0.0127529
67.1008
67.1713
67.3355
67.5835
67.9005
68.2763
68.7023
69.1694
69.6677
70.1866
70.7147
71.2396
71.7471
72.2199
72.6376
72.9744
73.1987
73.2697
73.1356
72.7279
71.9551
70.6907
68.7542
65.8762
61.6294
55.3021
45.4924
29.3427
-2.77295
-95.1219
66.437
66.4982
66.6409
66.8553
67.1277
67.4478
67.8067
68.1947
68.6012
69.0148
69.4232
69.8127
70.1672
70.4678
70.6912
70.8088
70.7845
70.5725
70.1138
69.3304
68.1171
66.328
63.7532
60.0784
54.8047
47.1016
35.4317
17.1702
-10.2631
-50.6799
65.7357
65.7875
65.9077
66.0875
66.3141
66.5771
66.8673
67.1745
67.4876
67.7945
68.0818
68.3348
68.5359
68.6644
68.695
68.5962
68.329
67.8436
67.0762
65.9431
64.3327
62.0926
59.0094
54.7782
48.9531
40.8973
29.7405
14.5271
-4.38832
-26.4115
64.9985
65.0406
65.1379
65.2825
65.4624
65.6674
65.8881
66.1139
66.3331
66.533
66.6995
66.8169
66.8665
66.8262
66.669
66.3619
65.8637
65.1229
64.0737
62.6318
60.6874
58.0954
54.6635
50.1363
44.1815
36.3931
26.3221
13.468
-2.5709
-22.3925
64.2273
64.2596
64.3338
64.4426
64.5754
64.7223
64.8733
65.0178
65.1436
65.2377
65.2854
65.2701
65.1725
64.9696
64.6336
64.1306
63.4191
62.4476
61.152
59.452
57.2461
54.4065
50.7726
46.1464
40.2895
32.928
23.7593
12.4265
-1.44798
-17.6407
63.4245
63.4468
63.4978
63.5709
63.6567
63.7457
63.8277
63.8919
63.9261
63.9167
63.8489
63.7058
63.4675
63.1109
62.6081
61.9256
61.0228
59.8506
58.3491
56.4453
54.0508
51.0587
47.342
42.753
37.1247
30.2775
22.0328
12.239
0.818518
-11.7731
62.5927
62.6053
62.6331
62.6709
62.7102
62.7421
62.7565
62.7423
62.6874
62.5783
62.4
62.1355
61.7652
61.2662
60.6114
59.7686
58.6998
57.3595
55.6942
53.6406
51.125
48.0625
44.3575
39.9059
34.6003
28.3389
21.043
12.681
3.27802
-6.82203
61.7353
61.7381
61.7433
61.7463
61.7402
61.7164
61.6652
61.5755
61.4352
61.2312
60.9485
60.5707
60.0787
59.4505
58.6605
57.6787
56.4705
54.9956
53.2079
51.0548
48.4777
45.4124
41.7911
37.5461
32.6152
26.9504
20.5292
13.3687
5.52484
-2.73365
60.8556
60.8491
60.8321
60.8014
60.7513
60.6739
60.5597
60.398
60.177
59.8839
59.5044
59.0226
58.4206
57.6777
56.7704
55.6717
54.3512
52.7743
50.9028
48.6949
46.1062
43.0908
39.604
35.6056
31.0652
25.968
20.3223
14.168
7.57654
0.761074
59.9577
59.9421
59.9039
59.8407
59.7485
59.6201
59.4463
59.2168
58.9204
58.5449
58.0769
57.5015
56.802
55.9597
54.9536
53.7602
52.3534
50.7048
48.7842
46.5596
43.9992
41.0724
37.7525
34.0194
29.8638
25.2911
20.3261
15.018
9.43935
3.75287
59.0459
59.0217
58.9632
58.8693
58.7372
58.5607
58.3311
58.0386
57.6729
57.2224
56.6749
56.0167
55.2328
54.3067
53.2201
51.9531
50.4845
48.7916
46.8515
44.6412
42.1395
39.328
36.1932
32.7293
28.9403
24.8429
20.4695
15.8695
11.1089
6.31076
58.1249
58.0925
58.015
57.8921
57.7228
57.5015
57.2204
56.8703
56.4417
55.9242
55.3066
54.5767
53.7216
52.7268
51.5772
50.2566
48.748
47.0346
45.0996
42.928
40.5069
37.8272
34.8852
31.6842
28.2361
24.5634
20.6998
16.6914
12.5949
8.50355
57.1997
57.1596
57.0644
56.9147
56.7109
56.4486
56.1205
55.7185
55.2338
54.6573
53.9791
53.1888
52.2751
51.2263
50.03
48.6735
47.1443
45.4301
43.5202
41.4053
39.0794
36.5403
33.7907
30.8398
27.7036
24.4064
20.9805
17.4668
13.9125
10.3886
56.2754
56.2283
56.1168
55.9425
55.7074
55.4079
55.0377
54.5895
54.0557
53.4283
52.699
51.8589
50.8988
49.8094
48.5812
47.2047
45.671
43.9724
42.1024
40.0571
37.8351
35.4392
32.8763
30.1588
27.3044
24.3369
21.2859
18.1865
15.0775
12.0128
55.3576
55.3041
55.1778
54.9814
54.718
54.3853
53.978
53.4895
52.9134
52.2431
51.4717
50.592
49.5968
48.4791
47.2319
45.8487
44.3241
42.6536
40.8346
38.8669
36.7528
34.4983
32.1127
29.6098
27.0076
24.3284
21.5982
18.8465
16.1051
13.4151
54.4519
54.3927
54.2532
54.037
53.7486
53.3868
52.9471
52.4241
51.8125
51.1069
50.3019
49.392
48.3719
47.2366
45.9815
44.6029
43.0978
41.4648
39.7043
37.8187
35.8128
33.6945
31.4746
29.1671
26.7892
24.361
21.9051
19.4462
17.0098
14.6275
53.5641
53.4999
53.3487
53.1151
52.805
52.4181
51.9508
51.3989
50.7581
50.0243
49.1935
48.2619
47.2258
46.0822
44.8286
43.4633
41.9858
40.397
38.6993
36.8971
34.997
33.0077
30.9407
28.8094
26.6299
24.4198
22.1986
19.9867
17.8046
15.6768
52.7002
52.6316
52.4703
52.2218
51.893
51.4848
50.9945
50.4188
49.7547
48.9992
48.1497
47.2038
46.1595
45.0153
43.7705
42.4255
40.9814
39.4408
37.8078
36.0882
34.2893
32.4206
30.4931
28.5197
26.5148
24.4939
22.4736
20.4705
18.5014
16.5852
51.8663
51.7939
51.624
51.3627
51.0182
50.5923
50.0832
49.4887
48.8066
48.0352
47.1732
46.2193
45.1732
44.0346
42.8046
41.4847
40.0776
38.5874
37.0191
35.3792
33.6758
31.9181
30.117
28.2841
26.4324
24.5754
22.7269
20.9008
19.1107
17.3713
51.0684
50.9929
50.8157
50.5438
50.1863
49.746
49.222
48.6129
47.9175
47.1354
46.266
45.3096
44.2667
43.1387
41.9275
40.636
39.268
37.8284
36.3231
34.759
33.1443
31.488
29.8002
28.0917
26.3739
24.6584
22.957
21.2811
19.6417
18.0504
50.3128
50.2346
50.0514
49.7708
49.4028
48.9511
48.4155
47.7956
47.0912
46.3025
45.4302
44.4754
43.4398
42.3257
41.1361
39.8748
38.5465
37.1565
35.7113
34.218
32.6846
31.1199
29.5331
27.934
26.3327
24.7391
23.1634
21.6149
20.1026
18.6358
49.6058
49.5254
49.3373
49.0495
48.6731
48.2126
47.6685
47.0411
46.3309
45.5392
44.6674
43.7175
42.692
41.5941
40.4276
39.1971
37.9076
36.5651
35.1761
33.7479
32.2882
30.8053
29.3077
27.8042
26.3037
24.8149
23.3463
21.9057
20.5006
19.1383
48.9537
48.8715
48.6793
48.3858
48.0028
47.5356
46.9854
46.3531
45.64
44.8479
43.9791
43.0364
42.0228
40.9424
39.7994
38.599
37.3466
36.0485
34.7112
33.3419
31.9481
30.5374
29.1178
27.6972
26.2834
24.8841
23.5063
22.1568
20.8417
19.5671
48.3632
48.2794
48.0837
47.7854
47.3972
46.925
46.3707
45.7356
45.0216
44.2312
43.3672
42.433
41.4323
40.3695
39.2495
38.0777
36.8598
35.6022
34.3115
32.9947
31.6588
30.3111
28.9589
27.6094
26.2694
24.9457
23.6444
22.3713
21.1315
19.9299
47.841
47.7556
47.5566
47.2541
46.8617
46.3859
45.829
45.1926
44.4791
43.6917
42.8335
41.9084
40.9206
39.8749
38.7764
37.6308
36.4441
35.2227
33.973
32.7018
31.4159
30.1222
28.8273
27.5377
26.2597
24.9992
23.7616
22.5517
21.3741
20.2327
47.3944
47.3072
47.1044
46.7977
46.4018
45.9235
45.3651
44.7285
44.0166
43.2327
42.3807
41.4645
40.4889
39.4588
38.3797
37.2574
36.0979
34.9076
33.693
32.4606
31.2168
29.9681
28.7208
27.4808
26.2537
25.0449
23.8592
22.7008
21.5736
20.4811
47.0316
46.9416
46.7332
46.4213
46.022
45.5416
44.9822
44.346
43.6361
42.8561
42.0101
41.1023
40.1376
39.1212
38.0587
36.9561
35.8194
34.655
33.4692
32.2683
31.0586
29.8462
28.637
27.4365
26.25
25.0821
23.9374
22.8195
21.732
20.6777
46.7623
46.6672
46.451
46.134
45.7322
45.2503
44.69
44.0541
43.3459
42.5692
41.7281
40.8271
39.8713
38.8659
37.8167
36.7295
35.6107
34.4663
33.3027
32.126
30.9423
29.7575
28.5771
27.4063
26.2502
25.113
23.9988
22.9112
21.8532
20.8275
46.5987
46.4815
46.2493
45.9282
45.5262
45.0442
44.4842
43.8495
43.1435
42.3701
41.5333
40.6378
39.6887
38.6913
37.6516
36.5754
35.4689
34.3384
33.19
32.0298
30.8638
29.6976
28.5366
27.3859
26.2502
25.1335
24.0399
22.9725
21.9342
20.9274
46.6046
46.42
46.1597
45.8332
45.4294
44.9455
44.3843
43.7497
43.045
42.2736
41.4397
40.5476
39.6026
38.61
37.5756
36.5054
35.4056
34.2824
33.1419
31.9902
30.8331
29.6763
28.525
27.3843
26.2586
25.1521
24.0685
23.0109
21.9822
20.9846
-244.261
-219.181
-172.603
-82.5505
-89.9124
-92.5885
-52.2001
-70.7146
-84.6239
-46.2396
-62.6091
-74.7236
-34.9057
-46.9114
-56.4569
-24.6462
-33.8277
-41.3894
-16.9091
-24.0567
-29.9448
-10.7136
-16.3026
-20.9052
-5.62686
-10.0677
-13.738
-1.44418
-5.03497
-8.01804
2.02032
-0.927696
-3.39258
4.91418
2.45936
0.391508
7.34788
5.27646
3.51756
9.40642
7.63682
6.1218
11.1561
9.62681
8.30669
12.6491
11.313
10.1504
13.9269
12.7476
11.7133
15.0226
13.9714
13.0427
15.9632
15.0174
14.1761
16.7704
15.9118
15.1431
17.4623
16.6759
15.9678
18.0534
17.327
16.6696
18.5559
17.8793
17.2641
18.9796
18.3441
17.7641
19.3324
18.7306
18.1794
19.621
19.0463
18.5184
19.8491
19.2955
18.7859
20.0223
19.4843
18.9882
20.1377
19.6103
19.1235
20.2038
19.6824
19.2001
-129.426
-151.374
-174.24
-192.828
-207.095
-212.071
-204.774
-187.41
-164.402
-139.442
-115.186
-93.2776
-74.4633
-58.8617
-46.2297
-36.1615
-28.2137
-21.9721
-17.0804
-13.2459
-10.235
-7.8643
-5.99099
-4.5046
-3.31965
-2.36995
-1.60418
-0.982451
-0.473892
-0.0481157
-106.611
-140.276
-165.834
-184.067
-195.937
-198.196
-189.419
-172.715
-151.659
-129.162
-107.371
-87.6307
-70.565
-56.2862
-44.6055
-35.1927
-27.6793
-21.7148
-16.9926
-13.2562
-10.2976
-7.95048
-6.08371
-4.59415
-3.401
-2.441
-1.66457
-1.03279
-0.51524
-0.0838887
-103.736
-130.69
-151.754
-166.406
-174.045
-173.515
-165.318
-151.448
-134.124
-115.459
-97.1496
-80.3097
-65.5073
-52.9077
-42.4232
-33.8344
-26.872
-21.2659
-16.77
-13.1719
-10.2937
-7.99034
-6.14432
-4.6617
-3.46758
-2.50246
-1.71908
-1.07993
-0.555278
-0.119545
-89.6705
-108.592
-125.472
-137.664
-143.529
-143.375
-137.73
-127.72
-114.746
-100.337
-85.8119
-72.1009
-59.7432
-48.9707
-39.8039
-32.1383
-25.8069
-20.6226
-16.4026
-12.9805
-10.2117
-7.97355
-6.1643
-4.70046
-3.51412
-2.55033
-1.76477
-1.12176
-0.59258
-0.154179
-68.4038
-82.6203
-96.7446
-107.762
-113.764
-114.858
-111.733
-105.168
-96.0863
-85.5371
-74.4959
-63.718
-53.7019
-44.7216
-36.8816
-30.1717
-24.5134
-19.7938
-15.8887
-12.6761
-10.0439
-7.8926
-6.13698
-4.70487
-3.53617
-2.58118
-1.79908
-1.15647
-0.625963
-0.187095
-50.6186
-61.4498
-72.8695
-82.3599
-88.2413
-90.3917
-89.2597
-85.4018
-79.4222
-72.0162
-63.8865
-55.6324
-47.6952
-40.3591
-33.7772
-28.0045
-23.0287
-18.7968
-15.2341
-12.258
-9.78648
-7.74258
-6.05732
-4.67032
-3.52978
-2.5918
-1.81952
-1.18221
-0.654174
-0.217548
-37.0098
-45.2743
-54.2774
-62.1858
-67.6782
-70.4851
-70.7543
-68.8304
-65.1231
-60.1027
-54.2685
-48.0805
-41.9091
-36.0213
-30.588
-25.7012
-21.3932
-17.6547
-14.4504
-11.7306
-9.43973
-7.5214
-5.92226
-4.59352
-3.49187
-2.57951
-1.82392
-1.19734
-0.676064
-0.244862
-26.4329
-32.9084
-40.0736
-46.6421
-51.6031
-54.6449
-55.76
-55.13
-53.0265
-49.7661
-45.6958
-41.1573
-36.4488
-31.8046
-27.3927
-23.3211
-19.6482
-16.3945
-13.5538
-11.1026
-9.0073
-7.22973
-5.73074
-4.47261
-3.42031
-2.54226
-1.81046
-1.20039
-0.690599
-0.268426
-18.1803
-23.4124
-29.218
-34.6892
-39.066
-42.0715
-43.6438
-43.8518
-42.8595
-40.8748
-38.1357
-34.8908
-31.3719
-27.7752
-24.2533
-20.9158
-17.8334
-15.0446
-12.5634
-10.3858
-8.49584
-6.87067
-5.48367
-4.30715
-3.31401
-2.47871
-1.77783
-1.19025
-0.696921
-0.287725
-11.6662
-15.9934
-20.7787
-25.3702
-29.1992
-32.0427
-33.827
-34.5565
-34.3198
-33.2488
-31.5044
-29.2632
-26.7006
-23.9745
-21.2165
-18.5289
-15.9852
-13.6332
-11.4996
-9.5941
-7.9143
-6.44949
-5.1837
-4.09814
-3.17294
-2.38829
-1.72525
-1.16611
-0.69438
-0.302356
-6.44264
-10.0888
-14.0996
-17.9959
-21.3482
-23.9831
-25.8336
-26.8728
-27.1414
-26.7192
-25.7117
-24.2422
-22.44
-20.4287
-18.3174
-16.1965
-14.1362
-12.1875
-10.3835
-8.74302
-7.27335
-5.97316
-4.83509
-3.84791
-2.99814
-2.27125
-1.65251
-1.12758
-0.682572
-0.312047
-2.19847
-5.31985
-8.73359
-12.079
-15.0272
-17.4483
-19.2829
-20.4936
-21.0936
-21.1273
-20.6619
-19.7812
-18.5788
-17.1488
-15.5789
-13.9461
-12.3139
-10.7315
-9.23506
-7.84821
-6.58465
-5.44991
-4.44335
-3.55993
-2.79162
-2.12858
-1.55999
-1.07468
-0.661354
-0.316661
1.28792
-1.42084
-4.36667
-7.2726
-9.88355
-12.1008
-13.8759
-15.1711
-15.9833
-16.3343
-16.2647
-15.8304
-15.0977
-14.1365
-13.0159
-11.7989
-10.5409
-9.2872
-8.07334
-6.92527
-5.86039
-4.88886
-4.01501
-3.23865
-2.55627
-1.96204
-1.44864
-1.00784
-0.630851
-0.316204
4.17878
1.79988
-0.773855
-3.32615
-5.65643
-7.68786
-9.38319
-10.7081
-11.651
-12.2196
-12.4371
-12.3393
-11.972
-11.3864
-10.6352
-9.76937
-8.83513
-7.87272
-6.91532
-5.98893
-5.11267
-4.29954
-3.55726
-2.88929
-2.29569
-1.774
-1.31993
-0.927908
-0.591461
-0.310824
6.59468
4.48308
2.20911
-0.0558076
-2.15179
-4.01827
-5.62657
-6.94759
-7.96609
-8.68146
-9.1052
-9.25943
-9.17489
-8.88819
-8.43891
-7.86695
-7.21029
-6.50339
-5.77604
-5.05288
-4.35326
-3.69158
-3.07769
-2.51761
-2.01411
-1.56743
-1.17582
-0.836078
-0.543831
-0.300796
8.62669
6.73427
4.70459
2.6755
0.776121
-0.945151
-2.46683
-3.7644
-4.82172
-5.63355
-6.20403
-6.54582
-6.67887
-6.62873
-6.4245
-6.09685
-5.67625
-5.19142
-4.66833
-4.12939
-3.59319
-3.07441
-2.58404
-2.12971
-1.71617
-1.34571
-1.01869
-0.733888
-0.488844
-0.286518
10.3446
8.63366
6.80501
4.97096
3.23709
1.6423
0.204151
-1.05897
-2.13099
-3.00394
-3.67741
-4.15775
-4.45731
-4.59341
-4.58697
-4.46112
-4.23976
-3.94637
-3.60296
-3.22934
-2.84263
-2.45706
-2.08395
-1.73185
-1.40679
-1.11258
-0.851224
-0.623157
-0.427581
-0.268489
11.8026
10.2432
8.58139
6.9099
5.31617
3.83196
2.47044
1.24692
0.176206
-0.732826
-1.47712
-2.05885
-2.48507
-2.76704
-2.91941
-2.95926
-2.905
-2.7754
-2.58874
-2.36207
-2.11071
-1.84795
-1.58485
-1.33028
-1.09104
-0.871995
-0.676357
-0.505921
-0.361294
-0.247296
13.0434
11.6112
10.0888
8.55349
7.07865
5.69045
4.39903
3.2169
2.15748
1.22968
0.437968
-0.217166
-0.739085
-1.1347
-1.41395
-1.58912
-1.67413
-1.6837
-1.63272
-1.53555
-1.40558
-1.25482
-1.09374
-0.931104
-0.774022
-0.628023
-0.497196
-0.384383
-0.291362
-0.223591
14.1006
12.7758
11.3704
9.94979
8.57618
7.27147
6.04345
4.90219
3.85991
2.92508
2.10283
1.3953
0.80158
0.317876
-0.0622393
-0.347371
-0.547788
-0.67485
-0.740441
-0.756453
-0.734329
-0.684715
-0.617202
-0.540174
-0.460744
-0.384771
-0.316934
-0.260857
-0.21926
-0.198075
15.0012
13.7674
12.4605
11.1367
9.84935
8.61698
7.44537
6.34342
5.32145
4.38741
3.54672
2.80247
2.15538
1.60381
1.14391
0.769911
0.474403
0.248808
0.0837911
-0.0303201
-0.103147
-0.143934
-0.161297
-0.163041
-0.156061
-0.146302
-0.13879
-0.137709
-0.14652
-0.171476
15.767
14.6102
13.3864
12.1443
10.9304
9.7605
8.6393
7.57382
6.57323
5.64492
4.79429
4.0249
3.33851
2.73498
2.21233
1.76689
1.39351
1.08583
0.836662
0.63825
0.482627
0.361886
0.268416
0.195089
0.13538
0.0834281
0.0340465
-0.0173219
-0.0746979
-0.144537
16.4153
15.3236
14.1697
12.9964
11.8449
10.7287
9.65169
8.61952
7.64019
6.72054
5.8658
5.07977
4.36481
3.72181
3.15011
2.64761
2.21088
1.83535
1.51557
1.2454
1.01835
0.827708
0.666854
0.529367
0.409168
0.300601
0.198455
0.0979482
-0.0053513
-0.117999
16.9602
15.9233
14.8279
13.7123
12.6133
11.5429
10.5041
9.50171
8.54254
7.63296
6.77795
5.98137
5.24594
4.57321
3.96345
3.41573
2.9279
2.4968
2.11837
1.78783
1.4999
1.24899
1.02936
0.835268
0.661131
0.501557
0.35141
0.205792
0.0599834
-0.0925893
17.4128
16.4213
15.3744
14.3066
13.2515
12.2196
11.2134
10.2369
9.29611
8.3969
7.54398
6.74114
5.99129
5.29642
4.65744
4.07425
3.54568
3.06963
2.64315
2.26255
1.92358
1.62159
1.35161
1.10857
0.887331
0.682812
0.490004
0.303975
0.119815
-0.0690102
17.782
16.8276
15.82
14.7912
13.7718
12.7716
11.7925
10.838
9.91335
9.02395
8.17427
7.36802
6.6082
5.89705
5.23594
4.62533
4.06479
3.55301
3.0879
2.66665
2.28582
1.94153
1.6295
1.34521
1.08397
0.840982
0.611395
0.390299
0.172666
-0.0479559
18.0735
17.1484
16.1719
15.1738
14.1828
13.2078
12.2505
11.3139
10.4028
9.52206
8.676
7.8682
7.1017
6.37888
5.7014
5.07014
4.48518
3.94581
3.45058
2.99731
2.58327
2.20515
1.85924
1.54148
1.24756
0.972952
0.712968
0.462748
0.2172
-0.0300249
18.2934
17.3901
16.4366
15.4613
14.4914
13.5353
12.5945
11.6715
10.7707
9.89678
9.05384
8.24537
7.4744
6.7434
6.05421
5.408
4.80519
4.24549
3.7279
3.25075
2.81175
2.40808
2.03645
1.69316
1.37419
1.07526
0.791806
0.519054
0.251895
-0.01588
18.4408
17.552
16.614
15.6541
14.6986
13.7554
12.8258
11.9124
11.0191
10.1503
9.30986
8.50132
7.72767
6.99144
6.29461
5.6385
5.02379
4.45046
3.91781
3.42449
2.96854
2.54746
2.15823
1.79742
1.46123
1.14552
0.845879
0.557607
0.275669
-0.00582223
18.5221
17.639
16.7083
15.756
14.8073
13.8701
12.9457
12.0362
11.1459
10.279
9.43942
8.63048
7.85516
7.11603
6.41508
5.75376
5.13283
4.55242
4.01201
3.5104
3.04582
2.61591
2.21781
1.84822
1.50343
1.17941
0.871803
0.575976
0.287027
-0.000338959
)
;

boundaryField
{
    inlet
    {
        type            zeroGradient;
    }
    outlet
    {
        type            fixedValue;
        value           uniform 0;
    }
    flap
    {
        type            zeroGradient;
    }
    upperWall
    {
        type            zeroGradient;
    }
    lowerWall
    {
        type            zeroGradient;
    }
    frontAndBack
    {
        type            empty;
    }
}


// ************************************************************************* //
