/*--------------------------------*- C++ -*----------------------------------*\
  =========                 |
  \\      /  F ield         | OpenFOAM: The Open Source CFD Toolbox
   \\    /   O peration     | Website:  https://openfoam.org
    \\  /    A nd           | Version:  7
     \\/     M anipulation  |
\*---------------------------------------------------------------------------*/
FoamFile
{
    version     2.0;
    format      ascii;
    class       surfaceScalarField;
    location    "0.1";
    object      phi;
}
// * * * * * * * * * * * * * * * * * * * * * * * * * * * * * * * * * * * * * //

dimensions      [0 3 -1 0 0 0 0];

internalField   nonuniform List<scalar> 
5457
(
0.198456
0.00154432
0.196587
0.00186858
0.194393
0.00219435
0.191828
0.0025643
0.188903
0.0029256
0.185639
0.00326422
0.182057
0.00358164
0.178174
0.00388285
0.174
0.0041745
0.169535
0.0044649
0.164772
0.0047631
0.159694
0.00507765
0.154278
0.00541572
0.148496
0.00578248
0.142315
0.00618088
0.135703
0.00661151
0.128631
0.00707248
0.121072
0.00755935
0.113007
0.00806495
0.104427
0.00857929
0.0953378
0.0090895
0.0857579
0.00957997
0.0757251
0.0100328
0.0652964
0.0104287
0.0545483
0.0107481
0.0435748
0.0109735
0.0324598
0.0111149
0.0216534
0.0108064
0.010513
0.0111405
0.010513
0.199954
0.00159068
0.199232
0.00258996
0.198031
0.00339557
0.196365
0.00422995
0.194225
0.00506634
0.191617
0.00587196
0.188561
0.00663728
0.18508
0.00736396
0.181194
0.00806036
0.176919
0.00874037
0.172261
0.00942129
0.167217
0.010121
0.161777
0.0108556
0.155922
0.0116378
0.149627
0.0124761
0.142864
0.0133744
0.135605
0.0143312
0.127825
0.0153399
0.119502
0.016388
0.110624
0.0174572
0.10119
0.0185229
0.0912158
0.0195544
0.0807327
0.0205159
0.0697939
0.0213675
0.0584741
0.022068
0.0468708
0.0225767
0.0350909
0.0228948
0.0232524
0.0226449
0.011442
0.0229509
0.0219549
0.199807
0.00178379
0.199144
0.00325317
0.198009
0.00453019
0.196429
0.0058102
0.194396
0.0070993
0.19191
0.00835794
0.188983
0.00956387
0.185634
0.0107128
0.181882
0.011813
0.177739
0.0128828
0.173214
0.0139466
0.168304
0.0150311
0.162999
0.016161
0.15728
0.0173569
0.151122
0.0186336
0.144497
0.019999
0.137375
0.0214538
0.129724
0.0229905
0.121519
0.0245934
0.112739
0.0262375
0.103373
0.0278887
0.0934244
0.0295029
0.0829134
0.0310269
0.0718805
0.0324003
0.06039
0.0335586
0.0485323
0.0344344
0.0364024
0.0350247
0.0241173
0.03493
0.0118982
0.03517
0.0338531
0.19973
0.00205425
0.199065
0.00391741
0.197952
0.00564304
0.1964
0.0073622
0.194408
0.00909131
0.191977
0.0107896
0.189117
0.0124242
0.185845
0.0139845
0.182179
0.0154786
0.178133
0.0169289
0.173713
0.0183669
0.168916
0.0198275
0.163733
0.0213442
0.158144
0.0229455
0.152125
0.0246528
0.145646
0.0264788
0.138672
0.0284272
0.131171
0.0304915
0.12311
0.0326544
0.114461
0.0348869
0.105202
0.0371472
0.0953249
0.0393801
0.0848347
0.0415171
0.0737573
0.0434777
0.0621431
0.0451728
0.0500735
0.0465039
0.0376467
0.0474516
0.0249862
0.0475905
0.0123441
0.0478122
0.0461972
0.199694
0.00236061
0.199022
0.00458922
0.19793
0.00673497
0.196411
0.00888124
0.194464
0.0110381
0.192091
0.0131623
0.189303
0.0152128
0.186115
0.0171725
0.182544
0.0190491
0.178604
0.0208688
0.174301
0.0226699
0.169633
0.0244957
0.164589
0.0263883
0.15915
0.0283843
0.153291
0.0305121
0.146979
0.0327904
0.14018
0.0352267
0.132854
0.0378173
0.124963
0.0405454
0.11647
0.0433802
0.107342
0.0462755
0.0975539
0.0491677
0.0870958
0.0519753
0.0759752
0.0545984
0.0642256
0.0569224
0.0519169
0.0588126
0.0391505
0.0602179
0.0260483
0.0606927
0.0128951
0.0609653
0.0590923
0.199679
0.00268192
0.199006
0.00526167
0.197939
0.00780217
0.196461
0.0103595
0.194569
0.0129303
0.192265
0.015466
0.18956
0.0179177
0.18647
0.0202628
0.183011
0.022508
0.179196
0.0246833
0.175032
0.0268339
0.170517
0.0290111
0.165639
0.0312657
0.160381
0.0336427
0.154715
0.0361781
0.148608
0.038897
0.142022
0.0418129
0.134913
0.0449262
0.127235
0.0482233
0.118941
0.0516749
0.109983
0.0552336
0.100319
0.0588314
0.0899171
0.062377
0.0787615
0.065754
0.0668623
0.0688216
0.0542701
0.0714048
0.041083
0.073405
0.0274232
0.0743526
0.0136093
0.0747792
0.0727016
0.199676
0.00300633
0.199011
0.005926
0.197974
0.00883969
0.196543
0.0117898
0.194715
0.0147588
0.192491
0.0176896
0.189883
0.020526
0.186906
0.02324
0.183576
0.0258376
0.179907
0.0283524
0.175905
0.0308359
0.171569
0.0333476
0.166888
0.0359469
0.161843
0.0386874
0.156408
0.0416132
0.150548
0.0447571
0.144221
0.0481395
0.13738
0.0517674
0.12997
0.0556334
0.121932
0.059713
0.113203
0.0639627
0.103719
0.0683151
0.093421
0.0726749
0.0822613
0.0769136
0.0702156
0.0808673
0.0573019
0.0843186
0.0436024
0.0871044
0.0292363
0.0887187
0.0145564
0.0894591
0.087258
0.19968
0.0033265
0.199031
0.00657434
0.198029
0.00984179
0.196654
0.0131652
0.194898
0.0165144
0.192766
0.0198222
0.190267
0.0230247
0.187418
0.0260892
0.184235
0.0290207
0.180731
0.0318562
0.176913
0.0346534
0.172781
0.0374795
0.168326
0.0404027
0.163528
0.0434851
0.158362
0.0467794
0.152792
0.0503269
0.146775
0.0541566
0.140258
0.0582843
0.13318
0.0627115
0.12547
0.0674234
0.117047
0.0723857
0.107823
0.0775389
0.0977056
0.0827922
0.0866051
0.0880141
0.0744476
0.0930248
0.0611975
0.0975687
0.0468974
0.101404
0.0316475
0.103969
0.0158319
0.105275
0.10309
0.199689
0.00363746
0.199063
0.00720017
0.198102
0.0108026
0.196789
0.014479
0.195115
0.0181885
0.193083
0.0218534
0.190706
0.0254018
0.187999
0.0287963
0.184979
0.0320411
0.181659
0.0351762
0.178047
0.038265
0.174144
0.0413825
0.169942
0.0446049
0.165424
0.0480031
0.160565
0.0516387
0.155329
0.0555621
0.149674
0.0598122
0.143543
0.0644154
0.136868
0.0693857
0.12957
0.0747223
0.121549
0.0804066
0.112691
0.0863962
0.102867
0.0926167
0.0919328
0.0989481
0.0797467
0.105211
0.0661895
0.111126
0.0512228
0.116371
0.0348881
0.120303
0.0175794
0.122583
0.120669
0.199702
0.00393566
0.199104
0.00779811
0.19819
0.0117163
0.196944
0.0157247
0.19536
0.0197731
0.19344
0.0237735
0.191195
0.027646
0.188643
0.0313484
0.1858
0.0348839
0.182681
0.0382952
0.179295
0.0416512
0.175644
0.0450337
0.171722
0.0485271
0.167514
0.0522105
0.162999
0.0561545
0.158142
0.060419
0.1529
0.0650534
0.147219
0.0700968
0.141027
0.0755779
0.134235
0.0815144
0.126731
0.0879105
0.118376
0.0947509
0.109
0.101993
0.0983987
0.109549
0.0863405
0.117269
0.0725834
0.124883
0.0569422
0.132012
0.0393168
0.137929
0.0200383
0.141862
0.140708
0.199717
0.00421841
0.199152
0.00836376
0.19829
0.012578
0.197118
0.0168965
0.19563
0.0212611
0.19383
0.0255741
0.191728
0.0297473
0.189343
0.0337337
0.186691
0.0375356
0.183789
0.0411978
0.180646
0.0447941
0.177267
0.0484127
0.173649
0.0521452
0.169781
0.0560788
0.165642
0.0602926
0.161206
0.0648557
0.156431
0.0698286
0.151264
0.0752635
0.145636
0.081206
0.139455
0.0876956
0.1326
0.0947649
0.124915
0.102436
0.116192
0.110716
0.106165
0.119576
0.0944976
0.128937
0.08078
0.138601
0.0645859
0.148207
0.0455161
0.156998
0.0236399
0.163738
0.164348
0.199735
0.00448363
0.199205
0.00889352
0.1984
0.0133831
0.197307
0.017989
0.195922
0.0226462
0.194249
0.0272475
0.192299
0.0316967
0.190091
0.035942
0.187642
0.0399845
0.18497
0.0438705
0.182085
0.0476782
0.178997
0.0515013
0.175704
0.055438
0.1722
0.0595827
0.168471
0.0640219
0.164493
0.0688339
0.160232
0.0740891
0.155643
0.0798529
0.150661
0.086188
0.145199
0.0931572
0.139139
0.100825
0.132316
0.109259
0.124503
0.118529
0.115382
0.128697
0.104513
0.139806
0.0912872
0.151826
0.0749257
0.164568
0.0544644
0.17746
0.0292262
0.188976
0.193574
0.199754
0.00472971
0.199263
0.00938449
0.198518
0.0141279
0.197509
0.0189978
0.196233
0.023923
0.194693
0.0287873
0.192903
0.0334868
0.19088
0.0379648
0.188644
0.0422206
0.186212
0.0463021
0.1836
0.0502905
0.180816
0.0542846
0.177867
0.0583879
0.174749
0.0627008
0.171454
0.0673164
0.167968
0.0723204
0.164265
0.077792
0.160309
0.0838083
0.15605
0.0904472
0.151414
0.0977933
0.146296
0.105943
0.140545
0.11501
0.133939
0.125135
0.126146
0.136491
0.116659
0.149293
0.104695
0.163789
0.0890509
0.180213
0.0678456
0.198665
0.0385998
0.218222
0.232174
0.199774
0.00495539
0.199324
0.00983435
0.198643
0.0148093
0.197722
0.0199192
0.196558
0.0250871
0.195157
0.0301882
0.193532
0.0351115
0.191702
0.0397951
0.189686
0.0442363
0.187504
0.0484838
0.185174
0.0526212
0.182707
0.056751
0.180114
0.0609812
0.177398
0.0654167
0.174558
0.0701558
0.171589
0.0752893
0.168478
0.0809034
0.165203
0.0870833
0.161731
0.0939188
0.158014
0.101511
0.153975
0.109982
0.1495
0.119484
0.144414
0.130222
0.138431
0.142474
0.131084
0.15664
0.121555
0.173318
0.10836
0.193407
0.08856
0.218465
0.0560943
0.250688
0.288268
0.199796
0.00515975
0.199389
0.0102413
0.198773
0.015425
0.197942
0.0207503
0.196894
0.0261349
0.195636
0.0314464
0.194181
0.0365663
0.192548
0.0414278
0.190759
0.046026
0.188833
0.0504093
0.186791
0.0546633
0.184649
0.0588928
0.182422
0.063209
0.180118
0.0677199
0.177748
0.0725267
0.175313
0.0777237
0.172816
0.0834004
0.170253
0.0896463
0.167615
0.0965572
0.164883
0.104243
0.162028
0.112837
0.158997
0.122515
0.155704
0.133515
0.151998
0.146179
0.147613
0.161025
0.142032
0.178899
0.13416
0.20128
0.1212
0.231425
0.0937102
0.278178
0.381978
-0.0106012
0.0106012
-0.020733
0.0101317
-0.0305846
0.00985163
-0.0396281
0.00904354
-0.0474564
0.00782825
-0.0532734
0.00581698
-0.0565563
0.00328293
-0.0568428
0.000286557
-0.0537907
-0.00305218
-0.0473944
-0.00639629
-0.0378892
-0.00950519
-0.0258108
-0.0120784
-0.0118551
-0.0139557
0.00329094
-0.015146
0.0189567
-0.0156657
0.034586
-0.0156294
0.0497601
-0.0151741
0.0641759
-0.0144158
0.0776296
-0.0134537
0.090001
-0.0123714
0.101237
-0.0112357
0.111334
-0.0100971
0.120326
-0.00899173
0.128269
-0.00794309
0.135233
-0.0069648
0.141296
-0.00606274
0.146533
-0.0052372
0.151019
-0.00448552
0.154826
-0.00380741
-0.00325851
-0.010309
0.0209103
-0.0216259
0.0214486
-0.0320249
0.0202506
-0.0417838
0.0188024
-0.0500408
0.0160853
-0.0562486
0.0120247
-0.0597032
0.00673752
-0.0599294
0.000512739
-0.0565381
-0.00644347
-0.0495872
-0.0133471
-0.0393545
-0.019738
-0.0264934
-0.0249395
-0.0117772
-0.0286719
0.00404527
-0.0309685
0.020306
-0.0319265
0.0364636
-0.031787
0.0521115
-0.0308219
0.0669582
-0.0292625
0.0808111
-0.0273066
0.0935587
-0.025119
0.105154
-0.022831
0.115598
-0.0205413
0.124926
-0.0183199
0.133196
-0.0162124
0.140475
-0.0142447
0.146841
-0.0124279
0.152366
-0.0107622
0.157121
-0.00924083
0.161169
-0.00785511
-0.0066185
-0.0114609
0.0323711
-0.0234856
0.0334733
-0.0349827
0.0317478
-0.0457637
0.0295833
-0.0549636
0.0252852
-0.0618346
0.0188957
-0.065645
0.010548
-0.0657459
0.000613584
-0.0619147
-0.0102746
-0.0540839
-0.0211779
-0.0427916
-0.0310302
-0.0288729
-0.0388583
-0.0131563
-0.0443885
0.00348955
-0.0476143
0.0203534
-0.0487904
0.0369366
-0.0483701
0.0528651
-0.0467505
0.0678772
-0.0442746
0.0818069
-0.0412363
0.094567
-0.0378791
0.106131
-0.0343947
0.116516
-0.0309262
0.125769
-0.0275737
0.133958
-0.0244014
0.141159
-0.021445
0.147449
-0.0187182
0.152906
-0.0162191
0.1576
-0.013935
0.161592
-0.0118471
-0.00994735
-0.0130121
0.0453832
-0.0264313
0.0468925
-0.0395639
0.0448804
-0.0518363
0.0418558
-0.0623724
0.0358213
-0.0701373
0.0266606
-0.074284
0.0146947
-0.074083
0.000412591
-0.0691773
-0.0151803
-0.059835
-0.0305202
-0.0469484
-0.0439168
-0.0314845
-0.0543222
-0.0144083
-0.0614647
0.00329449
-0.0653171
0.0209088
-0.0664046
0.0379992
-0.0654606
0.0542407
-0.0629919
0.0694139
-0.0594478
0.0833914
-0.0552138
0.0961188
-0.0506064
0.107597
-0.0458725
0.117864
-0.0411936
0.126985
-0.0366949
0.135038
-0.0324545
0.142107
-0.0285139
0.148276
-0.0248868
0.153623
-0.0215665
0.158221
-0.018533
0.162131
-0.0157562
-0.0132125
-0.015069
0.0604523
-0.0304981
0.0623216
-0.0457956
0.0601779
-0.0599784
0.0560386
-0.0719633
0.0478061
-0.0805727
0.03527
-0.0846773
0.0187992
-0.0835122
-0.000752549
-0.0768789
-0.0218136
-0.065497
-0.0419021
-0.0505538
-0.0588599
-0.0332352
-0.0716408
-0.0146657
-0.0800342
0.00412239
-0.0841052
0.0224757
-0.084758
0.0400305
-0.0830154
0.0565206
-0.079482
0.071778
-0.0747052
0.0857204
-0.0691563
0.0983318
-0.0632179
0.109644
-0.0571844
0.119719
-0.0512691
0.12864
-0.0456157
0.136497
-0.0403113
0.143381
-0.0353986
0.149383
-0.0308879
0.154582
-0.0267656
0.159051
-0.0230023
0.162852
-0.0195569
-0.0163913
-0.0176057
0.0780579
-0.0354858
0.0802017
-0.0531737
0.0778657
-0.0693762
0.072241
-0.0826551
0.0610851
-0.0916354
0.0442503
-0.0950432
0.022207
-0.0921126
-0.00368316
-0.083082
-0.0308442
-0.0692209
-0.0557633
-0.0520082
-0.0760726
-0.0328421
-0.0908069
-0.012941
-0.0999353
0.00672228
-0.103769
0.0256229
-0.103659
0.043456
-0.100849
0.0600166
-0.0960425
0.0751921
-0.0898808
0.0889486
-0.0829127
0.10131
-0.0755791
0.112339
-0.0682131
0.122121
-0.0610518
0.130756
-0.0542506
0.138344
-0.0478995
0.144984
-0.0420386
0.150768
-0.0366713
0.155777
-0.031775
0.160084
-0.0273095
0.16375
-0.0232221
-0.0194607
-0.0203052
0.0983631
-0.0407717
0.100668
-0.0606537
0.0977478
-0.0783773
0.0899646
-0.0923921
0.0751
-0.101023
0.0528813
-0.102887
0.0240714
-0.0974375
-0.00913311
-0.0855965
-0.0426851
-0.069132
-0.0722278
-0.0497964
-0.0954081
-0.0290983
-0.111505
-0.0083035
-0.12073
0.0118091
-0.123881
0.0308957
-0.122745
0.0486866
-0.118639
0.0650314
-0.112387
0.0798734
-0.104723
0.0932268
-0.0962661
0.105154
-0.0875062
0.115746
-0.0788053
0.12511
-0.0704154
0.133355
-0.0624963
0.140591
-0.0551356
0.146919
-0.0483665
0.152431
-0.0421828
0.157207
-0.0365512
0.161317
-0.0314198
0.16482
-0.0267244
-0.0223991
-0.0226277
0.120991
-0.0450524
0.123093
-0.0662984
0.118994
-0.0847523
0.108419
-0.0986391
0.0889868
-0.106134
0.0603761
-0.105629
0.0235662
-0.0971317
-0.0176301
-0.0823952
-0.0574217
-0.0636025
-0.0910204
-0.0426819
-0.116329
-0.0210776
-0.133109
-3.73321e-05
-0.14177
0.0199539
-0.143872
0.0387363
-0.141528
0.0560555
-0.135959
0.0718089
-0.128141
0.0859948
-0.118909
0.0986734
-0.108945
0.109942
-0.0987744
0.119914
-0.088778
0.128711
-0.0792126
0.136451
-0.0702356
0.143242
-0.0619268
0.149185
-0.0543091
0.154367
-0.0473649
0.158864
-0.041049
0.162743
-0.035298
0.166055
-0.0300364
-0.0251849
-0.0236574
0.144648
-0.0467079
0.146143
-0.0680217
0.140308
-0.0860264
0.126423
-0.0987829
0.101743
-0.104201
0.0657945
-0.100879
0.0202437
-0.0891414
-0.0293675
-0.0718562
-0.0747069
-0.0514175
-0.111459
-0.0297265
-0.13802
-0.00824839
-0.154587
0.012203
-0.162222
0.0315143
-0.163184
0.0494313
-0.159445
0.0657706
-0.152298
0.0804926
-0.142863
0.0936505
-0.132066
0.105347
-0.120641
0.115706
-0.109134
0.124859
-0.0979306
0.132931
-0.087285
0.140039
-0.0773441
0.146289
-0.0681762
0.151771
-0.0597913
0.156566
-0.0521594
0.16074
-0.0452235
0.164351
-0.0389093
0.167446
-0.033131
-0.0277975
-0.0225684
0.167217
-0.0441392
0.167714
-0.0637756
0.159944
-0.0799378
0.142585
-0.0905371
0.112343
-0.0930465
0.0683038
-0.0863049
0.0135021
-0.0718225
-0.0438499
-0.052867
-0.0936624
-0.0318996
-0.132427
-0.0106927
-0.159227
0.00959157
-0.174872
0.0287369
-0.181367
0.0466712
-0.181118
0.0630859
-0.175859
0.0778828
-0.167095
0.0910962
-0.156076
0.102831
-0.143802
0.113225
-0.131034
0.122419
-0.118328
0.13055
-0.106062
0.13774
-0.0944749
0.144096
-0.0837
0.14971
-0.0737898
0.154659
-0.0647409
0.159011
-0.0565109
0.162819
-0.0490322
0.166131
-0.0422209
0.168983
-0.0359831
-0.0302176
-0.0185201
0.185737
-0.0359751
0.185169
-0.0517783
0.175747
-0.0644709
0.155278
-0.071737
0.119609
-0.0704559
0.0670227
-0.0602421
0.00328823
-0.0441282
-0.0599637
-0.0247657
-0.113025
-0.00499636
-0.152196
0.0141888
-0.178412
0.0324168
-0.1931
0.0496023
-0.198552
0.0653788
-0.196895
0.0795963
-0.190077
0.0922636
-0.179762
0.103485
-0.167298
0.11341
-0.153726
0.122194
-0.139819
0.129985
-0.126119
0.13691
-0.112986
0.143076
-0.100641
0.14857
-0.0891944
0.153465
-0.0786845
0.157818
-0.0690941
0.161678
-0.0603705
0.165083
-0.0524373
0.168066
-0.0452039
0.170653
-0.0385704
-0.032428
-0.0110894
0.196826
-0.021412
0.195492
-0.0310141
0.185349
-0.0388414
0.163105
-0.0410959
0.121863
-0.0345176
0.0604444
-0.0215412
-0.00968819
-0.00550891
-0.075996
0.0114664
-0.13
0.0284003
-0.16913
0.0448161
-0.194828
0.0603227
-0.208606
0.0745433
-0.212773
0.0873109
-0.209662
0.0986242
-0.20139
0.108591
-0.189729
0.117371
-0.176079
0.125139
-0.161494
0.132051
-0.146731
0.138239
-0.132307
0.143808
-0.118556
0.148837
-0.10567
0.153385
-0.0937424
0.157496
-0.0827955
0.161204
-0.0728015
0.164533
-0.0636999
0.167505
-0.0554093
0.170136
-0.0478351
0.17244
-0.0408744
-0.0344143
-0.000688741
0.197515
-0.00116898
0.195972
-0.00259425
0.186775
-0.00258647
0.163097
0.00355409
0.115723
0.0140624
0.0499361
0.027175
-0.0228008
0.040851
-0.0896719
0.0546397
-0.143789
0.0682943
-0.182784
0.0810644
-0.207598
0.0926394
-0.220181
0.102881
-0.223015
0.111816
-0.218597
0.119575
-0.20915
0.126346
-0.196499
0.132317
-0.18205
0.13766
-0.166836
0.142508
-0.151578
0.146957
-0.136757
0.151073
-0.122672
0.154895
-0.109491
0.158444
-0.0972919
0.161733
-0.0860836
0.164764
-0.0758325
0.167539
-0.066475
0.170058
-0.0579284
0.172321
-0.0500982
0.174328
-0.042882
-0.0361656
0.0139513
0.183564
0.0261463
0.183777
0.0352784
0.177643
0.0454551
0.152921
0.0572539
0.103924
0.0699828
0.0372072
0.0825166
-0.0353346
0.0940374
-0.101193
0.104417
-0.154168
0.113637
-0.192005
0.121523
-0.215483
0.128086
-0.226744
0.133469
-0.228398
0.137894
-0.223021
0.141605
-0.212861
0.144832
-0.199726
0.147764
-0.184982
0.150533
-0.169606
0.153225
-0.15427
0.15588
-0.139412
0.158509
-0.125301
0.161102
-0.112085
0.163639
-0.0998288
0.166094
-0.0885379
0.168439
-0.0781779
0.170651
-0.0686872
0.172709
-0.0599866
0.174597
-0.0519855
0.1763
-0.0445856
-0.0376751
0.035721
0.147843
0.0597339
0.159764
0.0776552
0.159721
0.0958979
0.134678
0.113749
0.0860722
0.129833
0.0211242
0.142337
-0.0478389
0.151579
-0.110435
0.157895
-0.160484
0.161846
-0.195956
0.163963
-0.2176
0.164757
-0.227539
0.164709
-0.22835
0.164233
-0.222545
0.163661
-0.212288
0.163226
-0.199292
0.163075
-0.18483
0.163276
-0.169806
0.163839
-0.154833
0.164735
-0.140309
0.165914
-0.126479
0.16731
-0.113481
0.168859
-0.101378
0.170497
-0.0901765
0.172169
-0.0798499
0.173826
-0.070344
0.175427
-0.0615877
0.17694
-0.053498
0.178338
-0.045984
-0.0389398
0.207471
0.00534863
0.207095
0.0106172
0.206527
0.0159926
0.205763
0.0215149
0.204801
0.0270966
0.20365
0.0325976
0.202324
0.0378921
0.200844
0.0429082
0.199231
0.0476383
0.197511
0.0521301
0.195704
0.0564698
0.193833
0.0607638
0.191917
0.0651249
0.189975
0.0696625
0.188022
0.074479
0.186077
0.0796689
0.184155
0.0853219
0.182275
0.0915268
0.180454
0.0983777
0.178715
0.105982
0.177082
0.11447
0.175586
0.124011
0.174271
0.13483
0.173203
0.147247
0.1725
0.161728
0.172411
0.178988
0.173607
0.200084
0.17863
0.226402
0.201997
0.254811
0.271694
0.312281
0.212514
0.00551705
0.21218
0.010952
0.211675
0.0164976
0.210996
0.0221937
0.210145
0.0279479
0.20913
0.0336126
0.207966
0.0390551
0.206676
0.0441984
0.205283
0.0490314
0.203813
0.0536005
0.202291
0.0579917
0.200743
0.0623116
0.199195
0.0666731
0.197672
0.0711853
0.196202
0.0759493
0.194813
0.0810574
0.19354
0.0865951
0.192422
0.0926452
0.191507
0.0992926
0.190858
0.106631
0.19056
0.114769
0.190731
0.123839
0.191553
0.134008
0.193318
0.145483
0.196538
0.158507
0.202206
0.173321
0.21237
0.189919
0.230808
0.207965
0.259261
0.226357
0.243872
0.287083
0.217682
0.00566298
0.217392
0.0112419
0.216955
0.0169341
0.21637
0.0227789
0.215639
0.028679
0.214771
0.03448
0.213784
0.0400423
0.212699
0.0452836
0.211541
0.0501891
0.210339
0.0548033
0.20912
0.0592107
0.207914
0.0635169
0.206754
0.0678335
0.205672
0.0722674
0.204705
0.0769165
0.203894
0.0818678
0.20329
0.0871994
0.202952
0.0929832
0.202956
0.0992885
0.203401
0.106186
0.204421
0.113749
0.206203
0.122058
0.209016
0.131195
0.213266
0.141233
0.219566
0.152207
0.228817
0.164071
0.242136
0.1766
0.260552
0.189548
0.284059
0.20285
0.213833
0.314098
0.222975
0.00578459
0.222734
0.0114833
0.222371
0.0172967
0.221887
0.0232634
0.221284
0.0292812
0.220575
0.0351893
0.219776
0.0408418
0.218909
0.0461506
0.218
0.0510974
0.21708
0.0557236
0.216179
0.0601114
0.215332
0.0643644
0.214574
0.0685914
0.213946
0.0728957
0.213492
0.0773698
0.213267
0.0820934
0.213332
0.0871345
0.213764
0.0925508
0.21466
0.098392
0.216145
0.104701
0.218381
0.111513
0.221585
0.118853
0.226051
0.126729
0.232172
0.135112
0.240458
0.143921
0.251532
0.152997
0.266078
0.162054
0.284983
0.170642
0.309674
0.178159
0.182139
0.341368
0.228398
0.00588022
0.228208
0.0116729
0.227924
0.0175807
0.227547
0.0236407
0.227081
0.0297467
0.226539
0.0357315
0.225938
0.0414431
0.2253
0.0467884
0.224653
0.0517445
0.224027
0.0563495
0.223456
0.0606826
0.222976
0.0648442
0.222628
0.068939
0.222458
0.0730656
0.222519
0.0773097
0.22287
0.0817424
0.223584
0.08642
0.22475
0.0913847
0.226477
0.0966656
0.228899
0.102278
0.232189
0.108223
0.236563
0.114479
0.242294
0.120998
0.249719
0.127687
0.259244
0.134396
0.27135
0.140891
0.286593
0.146812
0.305626
0.151609
0.329163
0.154623
0.154678
0.356624
0.233952
0.00594845
0.233817
0.0118079
0.233616
0.0177817
0.233351
0.0239055
0.233029
0.0300687
0.232662
0.0360988
0.232267
0.041838
0.231867
0.0471881
0.23149
0.0521218
0.231166
0.0566732
0.230931
0.0609178
0.230824
0.0649519
0.230887
0.0688755
0.231171
0.0727814
0.231733
0.076748
0.232638
0.0808372
0.233965
0.0850934
0.235806
0.0895437
0.238273
0.0941985
0.241501
0.09905
0.245654
0.10407
0.250929
0.109205
0.257558
0.114368
0.265814
0.119431
0.276003
0.124208
0.288456
0.128438
0.303497
0.13177
0.321363
0.133743
0.342153
0.133833
0.131438
0.365393
0.239642
0.00598808
0.239564
0.011886
0.239449
0.0178965
0.239301
0.0240533
0.239128
0.030242
0.238941
0.0362853
0.238759
0.0420202
0.238604
0.0473436
0.238502
0.0522238
0.238484
0.0566906
0.238587
0.0608151
0.23885
0.0646891
0.239318
0.0684074
0.240043
0.0720565
0.241083
0.0757075
0.242507
0.0794133
0.244393
0.0832072
0.246833
0.0871037
0.249935
0.0910973
0.253822
0.0951627
0.25864
0.0992518
0.264554
0.103291
0.271749
0.107174
0.280422
0.110758
0.290774
0.113855
0.302987
0.116224
0.317188
0.117569
0.333392
0.117539
0.351485
0.11574
0.111824
0.371098
0.245469
0.00599817
0.24545
0.0119053
0.245424
0.0179224
0.245396
0.0240808
0.245376
0.0302627
0.245374
0.0362868
0.245409
0.0419857
0.245501
0.0472516
0.245676
0.0520485
0.245965
0.0564016
0.246402
0.0603777
0.247028
0.0640633
0.247887
0.0675481
0.249032
0.0709122
0.250519
0.0742199
0.252417
0.077516
0.254799
0.080825
0.257752
0.0841507
0.261372
0.0874769
0.265768
0.0907666
0.27106
0.0939606
0.277374
0.0969763
0.284844
0.0997041
0.293597
0.102005
0.303742
0.10371
0.315351
0.104615
0.32843
0.104491
0.342884
0.103084
0.358492
0.100132
0.0954579
0.374858
0.251437
0.00597809
0.251478
0.0118646
0.251543
0.0178577
0.251638
0.0239858
0.251772
0.0301287
0.251957
0.0361014
0.25221
0.0417329
0.25255
0.0469116
0.253001
0.0515972
0.253592
0.0558104
0.254357
0.0596133
0.255333
0.0630874
0.256564
0.066317
0.258099
0.0693765
0.259995
0.0723242
0.262313
0.0751983
0.265121
0.0780164
0.268496
0.0807755
0.272521
0.0834527
0.277282
0.0860053
0.282872
0.088371
0.28938
0.0904673
0.296893
0.0921917
0.305477
0.0934211
0.315173
0.0940135
0.325978
0.0938109
0.337823
0.0926458
0.350556
0.0903514
0.363914
0.0867737
0.0818431
0.377529
0.257549
0.0059275
0.257651
0.0117633
0.257807
0.0177015
0.258025
0.0237677
0.258315
0.0298391
0.258687
0.0357288
0.259157
0.0412628
0.259743
0.0463262
0.260465
0.0508747
0.261351
0.054925
0.26243
0.0585341
0.263738
0.061779
0.265316
0.0647387
0.26721
0.0674829
0.26947
0.0700646
0.272151
0.0725172
0.275313
0.074854
0.279021
0.0770682
0.283339
0.0791344
0.288335
0.0810093
0.294073
0.0826332
0.300609
0.0839309
0.307988
0.0848128
0.316232
0.0851773
0.325332
0.0849134
0.335237
0.083906
0.34584
0.0820428
0.356967
0.0792239
0.368369
0.0753721
0.0704786
0.379733
0.263809
0.00584638
0.263971
0.0116014
0.264218
0.0174539
0.264559
0.0234266
0.265003
0.0293952
0.265561
0.0351711
0.266245
0.0405787
0.267071
0.0455006
0.268056
0.049889
0.269225
0.0537566
0.270603
0.057156
0.272222
0.0601596
0.274119
0.0628418
0.276334
0.0652681
0.278911
0.0674877
0.281897
0.0695311
0.285342
0.071409
0.289296
0.073114
0.293809
0.0746214
0.298927
0.0758914
0.304689
0.076871
0.311124
0.0774958
0.318245
0.0776927
0.326039
0.0773827
0.334468
0.0764847
0.343453
0.0749207
0.352874
0.0726219
0.362561
0.0695367
0.372296
0.0656373
0.0609484
0.381826
0.270218
0.005735
0.27044
0.0113794
0.270778
0.0171161
0.27124
0.0229645
0.271836
0.0287993
0.272575
0.034432
0.273468
0.0396862
0.274526
0.0444426
0.275764
0.0486508
0.277201
0.0523197
0.278859
0.055498
0.280765
0.0582537
0.282949
0.0606573
0.285447
0.0627709
0.288293
0.0646411
0.291527
0.0662968
0.295188
0.0677485
0.299312
0.0689901
0.303933
0.0700002
0.309079
0.0707451
0.31477
0.0711807
0.32101
0.0712555
0.327789
0.0709133
0.335076
0.0700964
0.34281
0.0687498
0.350906
0.0668252
0.359242
0.064286
0.367665
0.0611131
0.375994
0.0573088
0.052914
0.384028
0.276782
0.00559392
0.277063
0.0110987
0.277489
0.0166899
0.278069
0.022384
0.278813
0.0280557
0.279728
0.0335172
0.280821
0.0385927
0.282102
0.0431622
0.283579
0.0471731
0.285268
0.0506312
0.287185
0.0535813
0.28935
0.0560877
0.29179
0.0582176
0.294531
0.0600304
0.297601
0.0615711
0.301029
0.0628682
0.304844
0.0639336
0.30907
0.0647639
0.313728
0.065343
0.318828
0.0656443
0.324375
0.0656339
0.330358
0.0652732
0.336749
0.0645216
0.343505
0.0633404
0.35056
0.0616954
0.357824
0.0595609
0.365187
0.0569229
0.372517
0.0537828
0.379667
0.0501596
0.0460999
0.386481
0.283503
0.00542401
0.28384
0.0107607
0.284352
0.016178
0.285047
0.0216892
0.285933
0.0271697
0.287017
0.0324339
0.288302
0.0373077
0.289792
0.0416714
0.291494
0.045471
0.293416
0.0487096
0.295569
0.0514287
0.297967
0.0536891
0.30063
0.0555553
0.303576
0.0570845
0.306826
0.0583211
0.3104
0.0592941
0.314316
0.0600176
0.318587
0.0604922
0.323223
0.0607074
0.328222
0.0606448
0.333576
0.0602801
0.339263
0.0595866
0.345246
0.0585378
0.351477
0.0571101
0.357887
0.0552855
0.364393
0.0530545
0.370898
0.0504179
0.377291
0.0473893
0.383455
0.0439957
0.0402834
0.389272
0.290384
0.00522633
0.290777
0.0103679
0.291371
0.0155838
0.292175
0.0208848
0.293197
0.0261477
0.294441
0.0311905
0.295906
0.035842
0.297594
0.0399836
0.299504
0.0435608
0.301639
0.0465746
0.304005
0.0490635
0.306609
0.0510853
0.309462
0.0527019
0.312577
0.0539691
0.315968
0.0549309
0.319644
0.0556176
0.323616
0.0560459
0.327887
0.0562208
0.332457
0.0561378
0.337316
0.0557859
0.342446
0.05515
0.347819
0.0542138
0.353394
0.0529621
0.359121
0.0513833
0.364935
0.0494713
0.370763
0.0472273
0.376519
0.0446615
0.382114
0.0417938
0.387456
0.0386537
0.0352845
0.392455
0.29743
0.00500216
0.297875
0.00992261
0.298548
0.0149115
0.299456
0.0199765
0.300606
0.0249974
0.302
0.0297966
0.303635
0.0342072
0.305505
0.038113
0.307607
0.0414596
0.309935
0.0442463
0.312489
0.046509
0.315272
0.0483028
0.318286
0.0496873
0.321539
0.0507169
0.325034
0.0514357
0.328776
0.0518753
0.332767
0.0520554
0.337002
0.0519852
0.341474
0.0516657
0.346167
0.0510929
0.351058
0.0502594
0.356114
0.0491574
0.361296
0.0477809
0.366552
0.0461268
0.371826
0.0441974
0.377052
0.042001
0.382161
0.0395527
0.38708
0.0368749
0.391737
0.033997
0.0309575
0.396064
0.304644
0.00475296
0.305139
0.00942786
0.305885
0.0141653
0.306891
0.0189705
0.308162
0.0237267
0.309696
0.0282623
0.311487
0.032416
0.313526
0.0360747
0.315801
0.0391849
0.318302
0.0417448
0.321023
0.0437879
0.323959
0.0453667
0.327108
0.0465387
0.330468
0.0473569
0.334038
0.0478656
0.337816
0.0480976
0.341796
0.0480752
0.34597
0.0478114
0.350323
0.0473123
0.354837
0.0465794
0.359484
0.0456121
0.364232
0.0444091
0.369042
0.0429709
0.373868
0.0413011
0.378658
0.039407
0.383358
0.0373009
0.387911
0.0350005
0.392257
0.0325281
0.396343
0.0299114
0.0271836
0.400117
0.312031
0.00448024
0.312572
0.00888668
0.313387
0.01335
0.314485
0.0178733
0.315867
0.0223442
0.317531
0.0265983
0.319466
0.0304809
0.321658
0.0338834
0.324089
0.0367538
0.326744
0.0390893
0.329611
0.0409215
0.332677
0.0423001
0.335936
0.0432805
0.339378
0.0439144
0.342998
0.0442457
0.346787
0.0443083
0.350736
0.0441266
0.35483
0.0437169
0.359054
0.0430893
0.363383
0.0422499
0.367792
0.0412031
0.372249
0.0399526
0.376716
0.0385037
0.381153
0.0368639
0.385516
0.0350439
0.389759
0.0330579
0.393836
0.030924
0.3977
0.0286636
0.40131
0.0263012
0.0238654
0.404629
0.319594
0.0041856
0.320179
0.00830223
0.321058
0.0124704
0.32224
0.0166915
0.323726
0.0208583
0.325509
0.0248149
0.327576
0.0284146
0.329905
0.0315537
0.332476
0.0341826
0.335268
0.0362979
0.33826
0.0379291
0.341437
0.0391235
0.344784
0.0399337
0.348288
0.0404101
0.351938
0.0405958
0.355721
0.0405253
0.359623
0.0402244
0.363628
0.0397119
0.367716
0.039001
0.371865
0.0381014
0.376047
0.0370207
0.380233
0.0357665
0.38439
0.0343471
0.388481
0.0327724
0.39247
0.0310547
0.396319
0.0292089
0.399991
0.0272522
0.40345
0.0252042
0.406665
0.0230865
0.020923
0.409607
0.327338
0.00387059
0.327963
0.0076776
0.328902
0.0115313
0.330162
0.0154316
0.331743
0.0192775
0.333635
0.0229227
0.33582
0.0262291
0.338275
0.0290995
0.340971
0.0314866
0.343881
0.0333871
0.346982
0.0348283
0.350251
0.0358545
0.353669
0.036516
0.357218
0.0368608
0.360883
0.036931
0.364647
0.036761
0.368494
0.0363775
0.372406
0.0358007
0.376361
0.0350459
0.380337
0.0341252
0.384309
0.0330488
0.388249
0.0318264
0.392128
0.0304679
0.395916
0.0289848
0.399581
0.0273896
0.403093
0.0256969
0.406422
0.0239226
0.409542
0.0220842
0.412429
0.0202
0.0182901
0.415062
0.335268
0.00353666
0.33593
0.00701572
0.336924
0.0105372
0.338255
0.0140999
0.339923
0.0176098
0.341915
0.0209311
0.344208
0.0239357
0.346774
0.0265333
0.349581
0.0286797
0.352597
0.0303714
0.355791
0.0316338
0.359138
0.0325081
0.362613
0.0330413
0.366194
0.033279
0.369864
0.0332617
0.373602
0.0330229
0.37739
0.0325894
0.381208
0.031982
0.385037
0.0312174
0.388853
0.0303088
0.392634
0.029268
0.396355
0.0281057
0.39999
0.0268328
0.403514
0.025461
0.406901
0.0240026
0.410127
0.022471
0.413169
0.0208807
0.416006
0.0192468
0.418621
0.0175847
0.0159111
0.421
0.343387
0.00318509
0.344084
0.00631917
0.345129
0.00949206
0.346527
0.0127019
0.348274
0.0158624
0.350356
0.018849
0.352747
0.0215447
0.355414
0.0238665
0.35832
0.0257739
0.361428
0.0272634