/*--------------------------------*- C++ -*----------------------------------*\
  =========                 |
  \\      /  F ield         | OpenFOAM: The Open Source CFD Toolbox
   \\    /   O peration     | Website:  https://openfoam.org
    \\  /    A nd           | Version:  7
     \\/     M anipulation  |
\*---------------------------------------------------------------------------*/
FoamFile
{
    version     2.0;
    format      ascii;
    class       volVectorField;
    location    "0.1";
    object      U;
}
// * * * * * * * * * * * * * * * * * * * * * * * * * * * * * * * * * * * * * //

dimensions      [0 1 -1 0 0 0 0];

internalField   nonuniform List<vector> 
2790
(
(9.94478 0.0200222 0)
(9.879 0.0285102 0)
(9.78256 0.0342227 0)
(9.66209 0.039867 0)
(9.52342 0.0453952 0)
(9.36826 0.0506416 0)
(9.19705 0.0556737 0)
(9.01039 0.0606475 0)
(8.80894 0.0657409 0)
(8.59304 0.0711436 0)
(8.36256 0.0770495 0)
(8.1169 0.0836438 0)
(7.85504 0.0910935 0)
(7.57565 0.0995404 0)
(7.2772 0.109099 0)
(6.95809 0.119855 0)
(6.61671 0.13186 0)
(6.25164 0.145127 0)
(5.86174 0.159625 0)
(5.4463 0.175269 0)
(5.00516 0.191908 0)
(4.53889 0.209324 0)
(4.04888 0.227226 0)
(3.53746 0.245256 0)
(3.00792 0.263009 0)
(2.46453 0.280046 0)
(1.90478 0.296876 0)
(1.46803 0.300369 0)
(0.456121 0.330786 0)
(0.838676 0.336361 0)
(9.9991 0.0394325 0)
(9.98359 0.0601257 0)
(9.93923 0.0762744 0)
(9.86733 0.0933179 0)
(9.7713 0.111102 0)
(9.65226 0.128979 0)
(9.51059 0.146787 0)
(9.34704 0.164621 0)
(9.16272 0.182707 0)
(8.95862 0.201378 0)
(8.73535 0.221052 0)
(8.49303 0.242183 0)
(8.2313 0.265208 0)
(7.94938 0.290512 0)
(7.64619 0.318402 0)
(7.32038 0.349081 0)
(6.97053 0.382631 0)
(6.59527 0.41899 0)
(6.1934 0.457923 0)
(5.76404 0.499002 0)
(5.30684 0.541578 0)
(4.82211 0.584767 0)
(4.31095 0.627456 0)
(3.77545 0.668336 0)
(3.21874 0.705977 0)
(2.64544 0.738914 0)
(2.04792 0.767109 0)
(1.57706 0.774337 0)
(0.533684 0.80723 0)
(0.841074 0.790589 0)
(9.9962 0.0413317 0)
(9.97772 0.0724316 0)
(9.93528 0.10074 0)
(9.86778 0.130912 0)
(9.77699 0.162858 0)
(9.66377 0.19556 0)
(9.52838 0.228459 0)
(9.3714 0.261427 0)
(9.19375 0.294649 0)
(8.99632 0.328568 0)
(8.77969 0.363834 0)
(8.544 0.401201 0)
(8.28895 0.44144 0)
(8.0138 0.485262 0)
(7.71745 0.533262 0)
(7.39855 0.585877 0)
(7.05559 0.643344 0)
(6.68702 0.705662 0)
(6.29138 0.772546 0)
(5.86748 0.843373 0)
(5.41449 0.917137 0)
(4.93218 0.992407 0)
(4.42106 1.06731 0)
(3.88258 1.13956 0)
(3.31927 1.20655 0)
(2.73589 1.26542 0)
(2.11863 1.31547 0)
(1.63267 1.33801 0)
(0.583504 1.38122 0)
(0.824106 1.35716 0)
(9.99463 0.0469763 0)
(9.97397 0.0895568 0)
(9.93141 0.130662 0)
(9.86528 0.173596 0)
(9.77644 0.218632 0)
(9.66564 0.264816 0)
(9.53324 0.311409 0)
(9.37985 0.358163 0)
(9.20631 0.405278 0)
(9.01347 0.453334 0)
(8.80187 0.5032 0)
(8.57166 0.555913 0)
(8.3225 0.61255 0)
(8.05365 0.674129 0)
(7.76402 0.74153 0)
(7.45221 0.815434 0)
(7.11661 0.896269 0)
(6.75553 0.984155 0)
(6.36729 1.07884 0)
(5.95034 1.17961 0)
(5.5034 1.28524 0)
(5.02567 1.39389 0)
(4.51697 1.50307 0)
(3.97803 1.60966 0)
(3.41058 1.70994 0)
(2.8197 1.79963 0)
(2.18536 1.87732 0)
(1.68512 1.92274 0)
(0.63474 1.9796 0)
(0.805434 1.95485 0)
(9.99391 0.0540451 0)
(9.97209 0.10652 0)
(9.92948 0.158982 0)
(9.86464 0.213815 0)
(9.77789 0.271394 0)
(9.66975 0.330748 0)
(9.54061 0.39089 0)
(9.3911 0.45137 0)
(9.22204 0.512336 0)
(9.03424 0.574461 0)
(8.82823 0.63881 0)
(8.60415 0.706687 0)
(8.36167 0.779476 0)
(8.10004 0.85851 0)
(7.81815 0.944972 0)
(7.51454 1.03982 0)
(7.18752 1.14372 0)
(6.83521 1.25697 0)
(6.45566 1.37944 0)
(6.04694 1.51042 0)
(5.60727 1.64859 0)
(5.13518 1.79183 0)
(4.6297 1.93717 0)
(4.09067 2.08068 0)
(3.51884 2.21758 0)
(2.91967 2.34204 0)
(2.26727 2.4514 0)
(1.74761 2.52416 0)
(0.694951 2.59661 0)
(0.788883 2.57376 0)
(9.99361 0.0617321 0)
(9.97135 0.123471 0)
(9.92911 0.186736 0)
(9.86582 0.253252 0)
(9.78152 0.323173 0)
(9.67652 0.395384 0)
(9.5512 0.46867 0)
(9.40622 0.542411 0)
(9.24239 0.616723 0)
(9.06051 0.692385 0)
(8.86111 0.770671 0)
(8.64431 0.853157 0)
(8.40981 0.941536 0)
(8.15686 1.03747 0)
(7.88432 1.14245 0)
(7.59068 1.25775 0)
(7.27413 1.38431 0)
(6.93262 1.52269 0)
(6.56389 1.67296 0)
(6.16557 1.83457 0)
(5.73527 2.00622 0)
(5.27072 2.18569 0)
(4.76999 2.36966 0)
(4.23177 2.55356 0)
(3.65546 2.73153 0)
(3.04664 2.89601 0)
(2.37408 3.04245 0)
(1.82761 3.14807 0)
(0.768549 3.24012 0)
(0.776256 3.22154 0)
(9.99355 0.069639 0)
(9.97136 0.140291 0)
(9.92992 0.213812 0)
(9.86848 0.291552 0)
(9.787 0.373356 0)
(9.68563 0.45792 0)
(9.56474 0.543831 0)
(9.425 0.630313 0)
(9.26722 0.717452 0)
(9.09221 0.806121 0)
(8.90049 0.897788 0)
(8.69221 0.994296 0)
(8.46708 1.09764 0)
(8.22436 1.20982 0)
(7.96293 1.33265 0)
(7.68123 1.46776 0)
(7.37736 1.61643 0)
(7.04907 1.77954 0)
(6.69381 1.95749 0)
(6.30873 2.15003 0)
(5.89075 2.35609 0)
(5.43667 2.57357 0)
(4.94335 2.79904 0)
(4.40802 3.0275 0)
(3.82819 3.25216 0)
(3.20893 3.46366 0)
(2.51416 3.65484 0)
(1.93257 3.80133 0)
(0.860515 3.91978 0)
(0.769732 3.90931 0)
(9.99363 0.0775316 0)
(9.97188 0.156788 0)
(9.93162 0.24005 0)
(9.87237 0.328497 0)
(9.79409 0.421686 0)
(9.69684 0.518083 0)
(9.58097 0.616071 0)
(9.44715 0.714726 0)
(9.29624 0.814097 0)
(9.12901 0.915143 0)
(8.94602 1.01952 0)
(8.74745 1.12933 0)
(8.53305 1.24688 0)
(8.30214 1.37447 0)
(8.05359 1.51432 0)
(7.78587 1.66838 0)
(7.49701 1.83835 0)
(7.18461 2.02554 0)
(6.84584 2.23078 0)
(6.47739 2.45431 0)
(6.07547 2.69551 0)
(5.63584 2.95271 0)
(5.15393 3.22275 0)
(4.62512 3.50055 0)
(4.0444 3.7787 0)
(3.41526 4.04622 0)
(2.69706 4.29278 0)
(2.07174 4.49168 0)
(0.97751 4.64701 0)
(0.772349 4.65095 0)
(9.99382 0.0852594 0)
(9.97277 0.172792 0)
(9.93402 0.265295 0)
(9.8773 0.363907 0)
(9.80259 0.467934 0)
(9.70992 0.57559 0)
(9.59963 0.685044 0)
(9.4724 0.795229 0)
(9.32909 0.906156 0)
(9.17052 1.01886 0)
(8.99726 1.13518 0)
(8.80954 1.25745 0)
(8.60718 1.38829 0)
(8.38956 1.53032 0)
(8.15565 1.68612 0)
(7.90395 1.85805 0)
(7.6325 2.04824 0)
(7.33881 2.25851 0)
(7.01985 2.49027 0)
(6.67191 2.74441 0)
(6.29055 3.02108 0)
(5.87046 3.31939 0)
(5.40551 3.63693 0)
(4.88888 3.96918 0)
(4.31229 4.30874 0)
(3.67619 4.64357 0)
(2.93513 4.95997 0)
(2.25795 5.22808 0)
(1.12942 5.43671 0)
(0.788865 5.46572 0)
(9.99407 0.0927182 0)
(9.97394 0.188157 0)
(9.93699 0.2894 0)
(9.88311 0.39761 0)
(9.81232 0.511877 0)
(9.72467 0.630162 0)
(9.62047 0.750416 0)
(9.50043 0.871426 0)
(9.36543 0.993162 0)
(9.21631 1.11673 0)
(9.05369 1.24412 0)
(8.87787 1.37791 0)
(8.68877 1.52098 0)
(8.48589 1.6763 0)
(8.26829 1.84679 0)
(8.03461 2.03522 0)
(7.78295 2.24421 0)
(7.51087 2.47613 0)
(7.21525 2.73311 0)
(6.89213 3.01688 0)
(6.53656 3.32863 0)
(6.1423 3.6687 0)
(5.70165 4.03609 0)
(5.20537 4.42769 0)
(4.6413 4.83725 0)
(4.00504 5.25298 0)
(3.24532 5.65849 0)
(2.51019 6.02038 0)
(1.33212 6.3089 0)
(0.82757 6.38215 0)
(9.99438 0.0998314 0)
(9.97532 0.202764 0)
(9.94042 0.312228 0)
(9.88966 0.42944 0)
(9.82313 0.553311 0)
(9.74087 0.681548 0)
(9.64324 0.811883 0)
(9.53094 0.942957 0)
(9.40487 1.07469 0)
(9.26592 1.20825 0)
(9.11477 1.34576 0)
(8.95181 1.49001 0)
(8.77707 1.64413 0)
(8.59022 1.81141 0)
(8.3905 1.99509 0)
(8.17671 2.19838 0)
(7.94716 2.42436 0)
(7.69957 2.67602 0)
(7.43091 2.95627 0)
(7.13722 3.26785 0)
(6.8133 3.61325 0)
(6.4523 3.99452 0)
(6.04524 4.41279 0)
(5.58057 4.86755 0)
(5.04195 5.35539 0)
(4.41841 5.86716 0)
(3.651 6.38641 0)
(2.85752 6.87777 0)
(1.61265 7.29049 0)
(0.90406 7.44514 0)
(9.99474 0.106541 0)
(9.97687 0.216512 0)
(9.94422 0.333656 0)
(9.89683 0.459252 0)
(9.83485 0.592052 0)
(9.75834 0.729523 0)
(9.66767 0.869176 0)
(9.56358 1.0095 0)
(9.44699 1.15037 0)
(9.31884 1.29298 0)
(9.17987 1.43957 0)
(9.0306 1.59313 0)
(8.87121 1.757 0)
(8.70154 1.93474 0)
(8.52108 2.12992 0)
(8.32889 2.34611 0)
(8.1236 2.58688 0)
(7.90323 2.85582 0)
(7.66509 3.15664 0)
(7.40552 3.49318 0)
(7.11949 3.86943 0)
(6.80009 4.28953 0)
(6.43776 4.75747 0)
(6.01933 5.27665 0)
(5.52487 5.8488 0)
(4.93588 6.47126 0)
(4.18394 7.13322 0)
(3.34515 7.80421 0)
(2.01951 8.41645 0)
(1.04996 8.73118 0)
(9.99512 0.112801 0)
(9.97856 0.229321 0)
(9.94833 0.353579 0)
(9.90452 0.486916 0)
(9.84733 0.627941 0)
(9.77686 0.773892 0)
(9.69351 0.922062 0)
(9.59803 1.07079 0)
(9.49138 1.21988 0)
(9.37455 1.37054 0)
(9.24837 1.52512 0)
(9.11348 1.68673 0)
(8.97023 1.85894 0)
(8.81871 2.0455 0)
(8.65867 2.25027 0)
(8.48955 2.47714 0)
(8.31036 2.7301 0)
(8.11965 3.0133 0)
(7.91529 3.33118 0)
(7.69429 3.68867 0)
(7.45235 4.09131 0)
(7.1833 4.54548 0)
(6.87813 5.05855 0)
(6.52366 5.63898 0)
(6.09845 6.29606 0)
(5.57799 7.03864 0)
(4.88501 7.87146 0)
(4.04354 8.78641 0)
(2.64472 9.72544 0)
(1.33528 10.3857 0)
(9.99553 0.118578 0)
(9.98035 0.241126 0)
(9.95267 0.37191 0)
(9.91263 0.512326 0)
(9.86043 0.660851 0)
(9.79624 0.814504 0)
(9.72048 0.970363 0)
(9.63393 1.12661 0)
(9.53759 1.28297 0)
(9.43249 1.44065 0)
(9.31957 1.60207 0)
(9.19959 1.77044 0)
(9.07311 1.94947 0)
(8.94047 2.1431 0)
(8.80176 2.35538 0)
(8.65683 2.59047 0)
(8.50522 2.85267 0)
(8.34612 3.14656 0)
(8.17824 3.47721 0)
(7.99962 3.85045 0)
(7.80731 4.27317 0)
(7.59683 4.75384 0)
(7.3613 5.30318 0)
(7.09009 5.93504 0)
(6.76446 6.6678 0)
(6.36006 7.52629 0)
(5.79984 8.54302 0)
(5.05926 9.76391 0)
(3.67506 11.2261 0)
(1.93148 12.7323 0)
(9.99595 0.123843 0)
(9.98223 0.251876 0)
(9.9572 0.388575 0)
(9.92105 0.53538 0)
(9.87401 0.690646 0)
(9.81628 0.851182 0)
(9.74833 1.01386 0)
(9.67095 1.1767 0)
(9.58519 1.33934 0)
(9.49212 1.50296 0)
(9.39277 1.67001 0)
(9.28807 1.84377 0)
(9.17878 2.02805 0)
(9.0655 2.2269 0)
(8.94871 2.4445 0)
(8.82871 2.68515 0)
(8.70564 2.95336 0)
(8.57947 3.25398 0)
(8.44993 3.59247 0)
(8.31642 3.97522 0)
(8.17785 4.41005 0)
(8.03239 4.90689 0)
(7.87693 5.47891 0)
(7.70646 6.14426 0)
(7.51103 6.92919 0)
(7.27857 7.87411 0)
(6.95826 9.04416 0)
(6.53243 10.5667 0)
(5.53315 12.7297 0)
(3.31965 16.6348 0)
(0.585847 0.253518 0)
(-1.44036 0.229351 0)
(-0.964336 0.225928 0)
(-1.86825 0.197318 0)
(-2.19586 0.164637 0)
(-2.5386 0.114705 0)
(-2.76457 0.0566644 0)
(-2.85028 -0.0085324 0)
(-2.77711 -0.0790339 0)
(-2.53714 -0.147476 0)
(-2.14038 -0.208317 0)
(-1.59523 -0.255867 0)
(-0.944603 -0.286394 0)
(-0.208789 -0.301097 0)
(0.555636 -0.301653 0)
(1.33984 -0.291573 0)
(2.11292 -0.274245 0)
(2.85551 -0.252371 0)
(3.55462 -0.228103 0)
(4.20197 -0.203103 0)
(4.79322 -0.178579 0)
(5.32702 -0.155347 0)
(5.80424 -0.133899 0)
(6.22724 -0.114482 0)
(6.59933 -0.0971555 0)
(6.92427 -0.0818563 0)
(7.20596 -0.0684424 0)
(7.44821 -0.0567404 0)
(7.65462 -0.0466085 0)
(7.86523 -0.0387441 0)
(0.620091 0.770638 0)
(-1.45699 0.753986 0)
(-1.03184 0.699261 0)
(-1.96126 0.63514 0)
(-2.31674 0.535026 0)
(-2.68222 0.393847 0)
(-2.92003 0.222207 0)
(-3.01035 0.0286331 0)
(-2.92761 -0.177681 0)
(-2.66646 -0.374094 0)
(-2.2351 -0.547729 0)
(-1.65198 -0.682233 0)
(-0.959753 -0.770238 0)
(-0.186682 -0.815817 0)
(0.609762 -0.823664 0)
(1.42242 -0.802303 0)
(2.22043 -0.76064 0)
(2.98535 -0.705818 0)
(3.7049 -0.643553 0)
(4.37137 -0.578306 0)
(4.98079 -0.513379 0)
(5.5321 -0.451056 0)
(6.0263 -0.392784 0)
(6.46581 -0.339353 0)
(6.8539 -0.291061 0)
(7.19426 -0.247862 0)
(7.4907 -0.209484 0)
(7.74691 -0.17554 0)
(7.96602 -0.145681 0)
(8.18804 -0.120507 0)
(0.534008 1.29759 0)
(-1.4891 1.30476 0)
(-1.17744 1.20685 0)
(-2.129 1.09858 0)
(-2.54111 0.920666 0)
(-2.94871 0.67617 0)
(-3.21329 0.376069 0)
(-3.31397 0.0382712 0)
(-3.21565 -0.320003 0)
(-2.92042 -0.661581 0)
(-2.43413 -0.95962 0)
(-1.79979 -1.1839 0)
(-1.05357 -1.32895 0)
(-0.230949 -1.40006 0)
(0.599356 -1.40741 0)
(1.43792 -1.36699 0)
(2.25335 -1.29341 0)
(3.02902 -1.19847 0)
(3.7542 -1.09167 0)
(4.42251 -0.980382 0)
(5.03113 -0.870043 0)
(5.5799 -0.764386 0)
(6.07056 -0.665755 0)
(6.50606 -0.575408 0)
(6.89006 -0.493797 0)
(7.2265 -0.420806 0)
(7.51933 -0.355948 0)
(7.77229 -0.298529 0)
(7.98839 -0.247789 0)
(8.2079 -0.203418 0)
(0.409176 1.89047 0)
(-1.53423 1.91106 0)
(-1.40896 1.78004 0)
(-2.38723 1.62426 0)
(-2.88514 1.36113 0)
(-3.35018 0.999129 0)
(-3.64572 0.552933 0)
(-3.74372 0.0454598 0)
(-3.61217 -0.487235 0)
(-3.25001 -0.993274 0)
(-2.68274 -1.42043 0)
(-1.96927 -1.73308 0)
(-1.14798 -1.92938 0)
(-0.261899 -2.01516 0)
(0.611196 -2.01045 0)
(1.4812 -1.94214 0)
(2.3168 -1.82989 0)
(3.10384 -1.68992 0)
(3.83376 -1.53524 0)
(4.50201 -1.37585 0)
(5.1073 -1.21905 0)
(5.6507 -1.06976 0)
(6.13488 -0.931003 0)
(6.56351 -0.804306 0)
(6.94072 -0.690129 0)
(7.27077 -0.588175 0)
(7.55778 -0.497665 0)
(7.80559 -0.417537 0)
(8.01714 -0.346594 0)
(8.23236 -0.283925 0)
(0.248705 2.57586 0)
(-1.6055 2.59502 0)
(-1.72025 2.44112 0)
(-2.73694 2.22702 0)
(-3.33974 1.86372 0)
(-3.86467 1.36066 0)
(-4.17983 0.737083 0)
(-4.24975 0.0247302 0)
(-4.04658 -0.715154 0)
(-3.58281 -1.40013 0)
(-2.91391 -1.95574 0)
(-2.10024 -2.35107 0)
(-1.1931 -2.58647 0)
(-0.242954 -2.67213 0)
(0.674204 -2.6424 0)
(1.57403 -2.53639 0)
(2.42702 -2.37806 0)
(3.22186 -2.18755 0)
(3.9525 -1.98107 0)
(4.61653 -1.77096 0)
(5.2144 -1.56606 0)
(5.74855 -1.37224 0)
(6.22271 -1.19295 0)
(6.64126 -1.02986 0)
(7.00886 -0.883292 0)
(7.33005 -0.752669 0)
(7.60915 -0.636852 0)
(7.85003 -0.534372 0)
(8.05558 -0.443585 0)
(8.26506 -0.36307 0)
(0.0564226 3.37505 0)
(-1.70683 3.38953 0)
(-2.08802 3.21107 0)
(-3.15474 2.9195 0)
(-3.8573 2.42971 0)
(-4.42455 1.74878 0)
(-4.72979 0.901365 0)
(-4.73201 -0.0572866 0)
(-4.41643 -1.03263 0)
(-3.82754 -1.90113 0)
(-3.03901 -2.58001 0)
(-2.12187 -3.04321 0)
(-1.13178 -3.29897 0)
(-0.132693 -3.36655 0)
(0.820962 -3.29859 0)
(1.74093 -3.14458 0)
(2.60213 -2.93243 0)
(3.39617 -2.68579 0)
(4.11963 -2.42371 0)
(4.77233 -2.1605 0)
(5.35653 -1.90623 0)
(5.87602 -1.66739 0)
(6.33553 -1.44766 0)
(6.7401 -1.2486 0)
(7.09479 -1.07027 0)
(7.4044 -0.911712 0)
(7.6733 -0.771347 0)
(7.9054 -0.647252 0)
(8.10348 -0.537325 0)
(8.30571 -0.439659 0)
(-0.146005 4.30195 0)
(-1.82921 4.30745 0)
(-2.46094 4.08899 0)
(-3.57122 3.69491 0)
(-4.34586 3.04059 0)
(-4.9219 2.1327 0)
(-5.17489 1.01173 0)
(-5.06095 -0.235959 0)
(-4.60537 -1.46183 0)
(-3.88054 -2.50798 0)
(-2.97365 -3.29377 0)
(-1.96699 -3.80273 0)
(-0.911387 -4.05504 0)
(0.108966 -4.08606 0)
(1.08251 -3.96892 0)
(2.00552 -3.75793 0)
(2.8597 -3.48527 0)
(3.63951 -3.17798 0)
(4.34411 -2.85754 0)
(4.97553 -2.53985 0)
(5.53768 -2.23582 0)
(6.0356 -1.95226 0)
(6.47477 -1.69281 0)
(6.86075 -1.45874 0)
(7.19881 -1.2497 0)
(7.49381 -1.06427 0)
(7.75011 -0.90037 0)
(7.97149 -0.755597 0)
(8.16058 -0.627389 0)
(8.35409 -0.513358 0)
(-0.334296 5.35402 0)
(-1.93324 5.33478 0)
(-2.75507 5.05074 0)
(-3.88293 4.52087 0)
(-4.68359 3.66012 0)
(-5.22522 2.47743 0)
(-5.38075 1.03683 0)
(-5.10844 -0.536513 0)
(-4.50467 -2.01163 0)
(-3.65004 -3.21707 0)
(-2.64788 -4.08244 0)
(-1.58137 -4.61015 0)
(-0.49534 -4.83321 0)
(0.515618 -4.81219 0)
(1.48376 -4.63793 0)
(2.38696 -4.36319 0)
(3.21395 -4.02525 0)
(3.9621 -3.65451 0)
(4.63306 -3.27458 0)
(5.23086 -2.90248 0)
(5.76088 -2.54956 0)
(6.22905 -2.22265 0)
(6.64137 -1.92507 0)
(7.00358 -1.65766 0)
(7.32092 -1.41953 0)
(7.59812 -1.20873 0)
(7.83929 -1.02265 0)
(8.04798 -0.858418 0)
(8.22654 -0.713006 0)
(8.40985 -0.583568 0)
(-0.469515 6.49028 0)
(-1.9569 6.42627 0)
(-2.87509 6.04648 0)
(-3.97252 5.34953 0)
(-4.74248 4.24436 0)
(-5.19923 2.74181 0)
(-5.20679 0.935783 0)
(-4.7639 -0.973653 0)
(-4.02236 -2.67653 0)
(-3.06728 -4.00783 0)
(-2.01076 -4.91893 0)
(-0.921372 -5.43437 0)
(0.125543 -5.60272 0)
(1.1102 -5.5244 0)
(2.04091 -5.28689 0)
(2.89738 -4.94403 0)
(3.67349 -4.53845 0)
(4.36975 -4.10384 0)
(4.99017 -3.66542 0)
(5.54052 -3.24085 0)
(6.02725 -2.84154 0)
(6.45681 -2.47395 0)
(6.83532 -2.1409 0)
(7.16831 -1.84264 0)
(7.46071 -1.5777 0)
(7.71683 -1.34353 0)
(7.94035 -1.13702 0)
(8.13438 -0.954828 0)
(8.30091 -0.793509 0)
(8.47261 -0.649788 0)
(-0.520719 7.63066 0)
(-1.83159 7.50024 0)
(-2.73012 7.00478 0)
(-3.731 6.12239 0)
(-4.40973 4.74473 0)
(-4.7309 2.88504 0)
(-4.52507 0.682498 0)
(-3.92937 -1.54163 0)
(-3.09254 -3.42992 0)
(-2.08924 -4.84412 0)
(-1.03615 -5.7632 0)
(0.00628319 -6.23136 0)
(0.977015 -6.33795 0)
(1.90284 -6.19986 0)
(2.76095 -5.89456 0)
(3.54049 -5.48185 0)
(4.2398 -5.0093 0)
(4.86245 -4.51321 0)
(5.41458 -4.01984 0)
(5.90322 -3.54694 0)
(6.33537 -3.1055 0)
(6.71748 -2.70137 0)
(7.05528 -2.33667 0)
(7.35375 -2.01095 0)
(7.61714 -1.72212 0)
(7.84904 -1.46711 0)
(8.05249 -1.24231 0)
(8.23002 -1.04394 0)
(8.38313 -0.868232 0)
(8.54188 -0.711519 0)
(-0.462948 8.65336 0)
(-1.49905 8.44555 0)
(-2.24309 7.83355 0)
(-3.06625 6.76389 0)
(-3.58271 5.09536 0)
(-3.69555 2.85447 0)
(-3.2296 0.27636 0)
(-2.53818 -2.20914 0)
(-1.67853 -4.2263 0)
(-0.70023 -5.67843 0)
(0.267298 -6.55719 0)
(1.18797 -6.96051 0)
(2.0696 -7.01364 0)
(2.89143 -6.81182 0)
(3.63966 -6.43731 0)
(4.31031 -5.95668 0)
(4.90617 -5.42145 0)
(5.4336 -4.8696 0)
(5.90025 -4.32764 0)
(6.31373 -3.81286 0)
(6.68086 -3.33544 0)
(7.00748 -2.90036 0)
(7.29843 -2.50893 0)
(7.55767 -2.16001 0)
(7.78843 -1.8509 0)
(7.99336 -1.57804 0)
(8.17463 -1.33743 0)
(8.33403 -1.12496 0)
(8.47247 -0.936571 0)
(8.61708 -0.768312 0)
(-0.288264 9.40706 0)
(-0.927314 9.12906 0)
(-1.36798 8.4234 0)
(-1.93688 7.19123 0)
(-2.21902 5.30138 0)
(-1.97777 2.71187 0)
(-1.25722 -0.21236 0)
(-0.577179 -2.91465 0)
(0.220304 -5.02002 0)
(1.04135 -6.40678 0)
(1.86168 -7.24113 0)
(2.6515 -7.60339 0)
(3.38951 -7.59834 0)
(4.06075 -7.33068 0)
(4.66018 -6.89017 0)
(5.19014 -6.34831 0)
(5.65725 -5.75899 0)
(6.06977 -5.16073 0)
(6.43592 -4.57951 0)
(6.76287 -4.03162 0)
(7.05644 -3.52614 0)
(7.32116 -3.06705 0)
(7.56043 -2.65483 0)
(7.77679 -2.28768 0)
(7.97214 -1.96243 0)
(8.14795 -1.67512 0)
(8.30537 -1.42149 0)
(8.44534 -1.1972 0)
(8.56809 -0.998014 0)
(8.69759 -0.819776 0)
(-0.0126476 9.74667 0)
(-0.135338 9.44812 0)
(-0.11088 8.76148 0)
(-0.343438 7.48937 0)
(-0.184409 5.23018 0)
(0.484977 2.20215 0)
(1.2701 -0.831328 0)
(1.83188 -3.51209 0)
(2.45951 -5.58514 0)
(3.11987 -6.99871 0)
(3.76539 -7.8084 0)
(4.36416 -8.11967 0)
(4.90272 -8.05431 0)
(5.37729 -7.72565 0)
(5.79124 -7.22879 0)
(6.15215 -6.638 0)
(6.46921 -6.00786 0)
(6.75125 -5.37627 0)
(7.00567 -4.76796 0)
(7.2381 -4.19782 0)
(7.45243 -3.67371 0)
(7.65116 -3.19861 0)
(7.83576 -2.77228 0)
(8.007 -2.39242 0)
(8.16522 -2.05554 0)
(8.31057 -1.75747 0)
(8.44306 -1.49381 0)
(8.56271 -1.26014 0)
(8.66908 -1.05215 0)
(8.7827 -0.865602 0)
(0.369621 9.49959 0)
(0.900071 9.25028 0)
(1.48766 8.65645 0)
(1.77944 7.31902 0)
(2.43588 4.97267 0)
(3.30532 1.99249 0)
(4.02224 -1.18276 0)
(4.54112 -3.95334 0)
(5.03702 -6.05632 0)
(5.50066 -7.44719 0)
(5.9105 -8.20909 0)
(6.25873 -8.46519 0)
(6.54832 -8.34564 0)
(6.78735 -7.96884 0)
(6.98679 -7.43236 0)
(7.15799 -6.81078 0)
(7.31093 -6.15766 0)
(7.45329 -5.50918 0)
(7.59022 -4.8883 0)
(7.72461 -4.30838 0)
(7.85759 -3.7761 0)
(7.98906 -3.29364 0)
(8.11816 -2.86029 0)
(8.24368 -2.4735 0)
(8.3643 -2.12965 0)
(8.47874 -1.8246 0)
(8.58589 -1.55397 0)
(8.68484 -1.3134 0)
(8.77443 -1.09866 0)
(8.87174 -0.905507 0)
(0.991171 8.29457 0)
(2.28146 8.43971 0)
(3.38269 8.07394 0)
(4.19507 6.74617 0)
(5.14852 4.43253 0)
(6.2442 1.42328 0)
(6.98676 -1.69525 0)
(7.47793 -4.3757 0)
(7.82168 -6.39089 0)
(8.04735 -7.70638 0)
(8.176 -8.40264 0)
(8.23178 -8.60476 0)
(8.23889 -8.4444 0)
(8.21852 -8.03981 0)
(8.18823 -7.48693 0)
(8.16127 -6.85782 0)
(8.14642 -6.20321 0)
(8.14843 -5.55676 0)
(8.16885 -4.9394 0)
(8.20692 -4.36305 0)
(8.26041 -3.83352 0)
(8.32629 -3.35256 0)
(8.40129 -2.91932 0)
(8.48214 -2.53132 0)
(8.56589 -2.18513 0)
(8.6499 -1.87681 0)
(8.73198 -1.60221 0)
(8.81032 -1.35718 0)
(8.88314 -1.13767 0)
(8.96396 -0.939574 0)
(9.9964 0.12866 0)
(9.98419 0.261712 0)
(9.96195 0.403816 0)
(9.92988 0.556448 0)
(9.88824 0.717837 0)
(9.83728 0.88459 0)
(9.7775 1.05337 0)
(9.70974 1.22202 0)
(9.63505 1.39008 0)
(9.55457 1.55868 0)
(9.46945 1.73026 0)
(9.38074 1.90814 0)
(9.28943 2.09615 0)
(9.19642 2.2984 0)
(9.10258 2.5191 0)
(9.0087 2.76261 0)
(8.9156 3.03346 0)
(8.82411 3.33657 0)
(8.73513 3.67748 0)
(8.64966 4.06271 0)
(8.56886 4.50029 0)
(8.49423 5.00054 0)
(8.42775 5.57732 0)
(8.3726 6.25001 0)
(8.3334 7.04718 0)
(8.32443 8.01388 0)
(8.36271 9.22374 0)
(8.60374 10.8135 0)
(9.56627 12.9856 0)
(10.4734 16.565 0)
(9.99687 0.133033 0)
(9.98625 0.270629 0)
(9.96692 0.417599 0)
(9.93909 0.575438 0)
(9.90304 0.742256 0)
(9.85907 0.914461 0)
(9.80771 1.08851 0)
(9.74983 1.26208 0)
(9.68651 1.43458 0)
(9.61894 1.60707 0)
(9.54836 1.78194 0)
(9.47597 1.9625 0)
(9.40298 2.15257 0)
(9.33058 2.35619 0)
(9.26002 2.57756 0)
(9.19261 2.82092 0)
(9.12983 3.0907 0)
(9.07337 3.3916 0)
(9.02531 3.72889 0)
(8.98825 4.10869 0)
(8.96562 4.53839 0)
(8.96217 5.02733 0)
(8.98488 5.58761 0)
(9.04477 6.23548 0)
(9.15977 6.99311 0)
(9.36556 7.89134 0)
(9.71661 8.96892 0)
(10.3096 10.2744 0)
(11.4636 11.7373 0)
(12.6663 12.9345 0)
(9.99735 0.136883 0)
(9.98838 0.278474 0)
(9.97206 0.429713 0)
(9.9486 0.592099 0)
(9.9183 0.763621 0)
(9.8815 0.940495 0)
(9.83877 1.11897 0)
(9.79098 1.29654 0)
(9.73924 1.47248 0)
(9.68478 1.64775 0)
(9.62892 1.82467 0)
(9.573 2.00646 0)
(9.51842 2.19685 0)
(9.46665 2.39981 0)
(9.41929 2.61935 0)
(9.37812 2.85952 0)
(9.34523 3.12443 0)
(9.32309 3.41836 0)
(9.3148 3.74595 0)
(9.32431 4.1124 0)
(9.35686 4.52371 0)
(9.41964 4.98701 0)
(9.52285 5.51076 0)
(9.68145 6.1049 0)
(9.91732 6.78017 0)
(10.2642 7.546 0)
(10.7652 8.40125 0)
(11.4509 9.32852 0)
(12.4462 10.2586 0)
(13.8036 10.9298 0)
(9.99785 0.140158 0)
(9.99056 0.285145 0)
(9.97732 0.439992 0)
(9.95832 0.606192 0)
(9.93388 0.781616 0)
(9.90437 0.962292 0)
(9.87038 1.14426 0)
(9.83281 1.32486 0)
(9.79275 1.50317 0)
(9.75148 1.68005 0)
(9.71036 1.85769 0)
(9.67085 2.03921 0)
(9.63453 2.22819 0)
(9.60308 2.42842 0)
(9.5784 2.64366 0)
(9.56269 2.87764 0)
(9.55848 3.13401 0)
(9.56889 3.41642 0)
(9.59775 3.72862 0)
(9.64992 4.07454 0)
(9.73172 4.45834 0)
(9.85147 4.88436 0)
(10.0203 5.35685 0)
(10.2533 5.87933 0)
(10.5698 6.45303 0)
(10.9953 7.07448 0)
(11.5615 7.73015 0)
(12.2933 8.39689 0)
(13.2586 9.05585 0)
(14.6572 9.59692 0)
(9.99835 0.142818 0)
(9.99277 0.290556 0)
(9.98264 0.448308 0)
(9.96815 0.617547 0)
(9.94962 0.796024 0)
(9.92745 0.97959 0)
(9.90225 1.16409 0)
(9.8749 1.34667 0)
(9.84651 1.52626 0)
(9.81834 1.70355 0)
(9.79181 1.8806 0)
(9.76845 2.06035 0)
(9.74994 2.24621 0)
(9.73817 2.4417 0)
(9.73525 2.65029 0)
(9.74364 2.87527 0)
(9.76622 3.11974 0)
(9.80648 3.3866 0)
(9.86866 3.67856 0)
(9.95803 3.99817 0)
(10.0812 4.34762 0)
(10.2465 4.7286 0)
(10.4646 5.14177 0)
(10.7484 5.58597 0)
(11.1143 6.05698 0)
(11.5814 6.54607 0)
(12.1734 7.03775 0)
(12.9135 7.50761 0)
(13.823 7.9294 0)
(15.0752 8.21962 0)
(9.99886 0.144825 0)
(9.99499 0.294631 0)
(9.98797 0.454546 0)
(9.978 0.626007 0)
(9.96538 0.80665 0)
(9.95052 0.992158 0)
(9.93406 1.17819 0)
(9.91685 1.36171 0)
(9.89997 1.54146 0)
(9.88468 1.71798 0)
(9.87238 1.89313 0)
(9.86467 2.06968 0)
(9.86328 2.25078 0)
(9.87021 2.43968 0)
(9.8877 2.63947 0)
(9.91836 2.85298 0)
(9.96523 3.08269 0)
(10.0319 3.33071 0)
(10.1228 3.59873 0)
(10.243 3.88792 0)
(10.3989 4.19878 0)
(10.5981 4.5308 0)
(10.8496 4.88201 0)
(11.1643 5.24827 0)
(11.5545 5.62234 0)
(12.0338 5.99274 0)
(12.6166 6.34211 0)
(13.3156 6.64433 0)
(14.1287 6.86581 0)
(15.1815 6.95591 0)
(9.99936 0.146145 0)
(9.99719 0.297305 0)
(9.99327 0.458608 0)
(9.98777 0.631442 0)
(9.98099 0.813332 0)
(9.97336 0.999808 0)
(9.96549 1.18636 0)
(9.95822 1.36974 0)
(9.95257 1.54856 0)
(9.94976 1.72314 0)
(9.95118 1.89515 0)
(9.9584 2.06714 0)
(9.97319 2.24199 0)
(9.99755 2.42265 0)
(10.0338 2.61181 0)
(10.0845 2.81181 0)
(10.1527 3.02452 0)
(10.2419 3.2513 0)
(10.3564 3.4929 0)
(10.5007 3.74934 0)
(10.6807 4.01973 0)
(10.9026 4.30199 0)
(11.1738 4.5924 0)
(11.5023 4.88509 0)
(11.8965 5.17133 0)
(12.3645 5.43873 0)
(12.9132 5.67029 0)
(13.5468 5.84337 0)
(14.256 5.9304 0)
(15.1304 5.90323 0)
(9.99985 0.146754 0)
(9.99935 0.298526 0)
(9.99848 0.460416 0)
(9.99737 0.633748 0)
(9.99631 0.815947 0)
(9.99573 1.0024 0)
(9.99623 1.18843 0)
(9.99859 1.37065 0)
(10.0038 1.54744 0)
(10.0129 1.71896 0)
(10.0274 1.88668 0)
(10.0486 2.05288 0)
(10.0784 2.22018 0)
(10.1187 2.3912 0)
(10.1717 2.56824 0)
(10.2399 2.75317 0)
(10.3263 2.94732 0)
(10.434 3.15137 0)
(10.5668 3.3653 0)
(10.7288 3.58824 0)
(10.9247 3.81832 0)
(11.1596 4.05243 0)
(11.4386 4.28591 0)
(11.7674 4.51221 0)
(12.1506 4.72244 0)
(12.5924 4.90501 0)
(13.0945 5.04541 0)
(13.6561 5.1262 0)
(14.2657 5.12748 0)
(14.9858 5.03208 0)
(10.0003 0.146632 0)
(10.0015 0.298256 0)
(10.0035 0.459914 0)
(10.0067 0.632856 0)
(10.0112 0.814411 0)
(10.0174 0.999849 0)
(10.026 1.18435 0)
(10.0376 1.36436 0)
(10.053 1.5381 0)
(10.0735 1.70553 0)
(10.1001 1.86789 0)
(10.1343 2.02722 0)
(10.1777 2.18588 0)
(10.2322 2.34615 0)
(10.2999 2.50999 0)
(10.383 2.67883 0)
(10.4842 2.85353 0)
(10.6064 3.03424 0)
(10.7526 3.22034 0)
(10.9263 3.41037 0)
(11.131 3.60186 0)
(11.3705 3.79118 0)
(11.6482 3.97341 0)
(11.9672 4.14208 0)
(12.33 4.28904 0)
(12.7373 4.40441 0)
(13.188 4.47664 0)
(13.6781 4.49289 0)
(14.1964 4.43948 0)
(14.7869 4.30606 0)
(10.0008 0.145766 0)
(10.0035 0.296472 0)
(10.0084 0.457069 0)
(10.0157 0.628725 0)
(10.0255 0.808686 0)
(10.0382 0.992123 0)
(10.0544 1.1741 0)
(10.0747 1.35091 0)
(10.0999 1.52063 0)
(10.1309 1.68301 0)
(10.1687 1.83909 0)
(10.2147 1.99066 0)
(10.2703 2.13983 0)
(10.3372 2.28856 0)
(10.4173 2.4385 0)
(10.5127 2.59073 0)
(10.6255 2.74573 0)
(10.7582 2.90326 0)
(10.9132 3.06232 0)
(11.0933 3.22108 0)
(11.3009 3.37682 0)
(11.5385 3.52584 0)
(11.808 3.66337 0)
(12.1108 3.78354 0)
(12.4474 3.87939 0)
(12.8166 3.94295 0)
(13.2155 3.96547 0)
(13.6391 3.93792 0)
(14.0769 3.8515 0)
(14.5616 3.70058 0)
(10.0012 0.144153 0)
(10.0054 0.293166 0)
(10.0131 0.451872 0)
(10.0242 0.621351 0)
(10.039 0.798778 0)
(10.0579 0.979249 0)
(10.0813 1.15774 0)
(10.1098 1.33042 0)
(10.1439 1.49522 0)
(10.1845 1.65171 0)
(10.2325 1.80072 0)
(10.289 1.94384 0)
(10.3553 2.08289 0)
(10.4328 2.2196 0)
(10.5232 2.35534 0)
(10.6282 2.49092 0)
(10.7495 2.62653 0)
(10.8892 2.76169 0)
(11.0492 2.8952 0)
(11.2312 3.02509 0)
(11.4369 3.14864 0)
(11.6677 3.26236 0)
(11.9243 3.36195 0)
(12.207 3.4424 0)
(12.5147 3.49802 0)
(12.8454 3.5227 0)
(13.1953 3.51012 0)
(13.5591 3.45427 0)
(13.928 3.34985 0)
(14.3272 3.19419 0)
(10.0017 0.141796 0)
(10.0073 0.288345 0)
(10.0174 0.444338 0)
(10.0322 0.610762 0)
(10.0518 0.784734 0)
(10.0764 0.961307 0)
(10.1065 1.13539 0)
(10.1425 1.30308 0)
(10.1848 1.46214 0)
(10.2341 1.61202 0)
(10.2912 1.75334 0)
(10.3569 1.88748 0)
(10.4323 2.01605 0)
(10.5185 2.14055 0)
(10.6171 2.26214 0)
(10.7292 2.38143 0)
(10.8564 2.49844 0)
(11 2.61255 0)
(11.1615 2.7225 0)
(11.3419 2.82638 0)
(11.5422 2.92166 0)
(11.7628 3.00522 0)
(12.0037 3.07338 0)
(12.2642 3.12205 0)
(12.5427 3.14681 0)
(12.8364 3.14316 0)
(13.1415 3.10676 0)
(13.4531 3.03379 0)
(13.764 2.92131 0)
(14.0941 2.76843 0)
(10.002 0.138705 0)
(10.0089 0.282031 0)
(10.0215 0.434506 0)
(10.0397 0.597017 0)
(10.0636 0.766646 0)
(10.0935 0.938429 0)
(10.1297 1.10725 0)
(10.1725 1.26913 0)
(10.2222 1.42176 0)
(10.2793 1.56442 0)
(10.3443 1.69757 0)
(10.4178 1.8224 0)
(10.5008 1.94035 0)
(10.5941 2.05273 0)
(10.6988 2.16052 0)
(10.8159 2.26422 0)
(10.9465 2.36376 0)
(11.0915 2.4585 0)
(11.2518 2.54722 0)
(11.4279 2.62819 0)
(11.6202 2.69918 0)
(11.8286 2.75752 0)
(12.0523 2.80023 0)
(12.2902 2.82408 0)
(12.5403 2.8258 0)
(12.7998 2.80219 0)
(13.0651 2.75041 0)
(13.3318 2.6682 0)
(13.5943 2.55413 0)
(13.8687 2.40834 0)
(10.0024 0.134897 0)
(10.0105 0.274262 0)
(10.0252 0.422436 0)
(10.0465 0.580207 0)
(10.0744 0.744641 0)
(10.1092 0.910794 0)
(10.1509 1.07355 0)
(10.1998 1.22892 0)
(10.2561 1.3745 0)
(10.3199 1.50944 0)
(10.3916 1.6341 0)
(10.4718 1.74948 0)
(10.5609 1.85686 0)
(10.6596 1.95742 0)
(10.7687 2.05203 0)
(10.8889 2.14111 0)
(11.0208 2.22457 0)
(11.1651 2.30183 0)
(11.3221 2.37181 0)
(11.492 2.433 0)
(11.6747 2.48354 0)
(11.8696 2.52125 0)
(12.0758 2.5438 0)
(12.2917 2.54876 0)
(12.5153 2.53377 0)
(12.7439 2.49669 0)
(12.9743 2.43576 0)
(13.2029 2.34978 0)
(13.4251 2.23826 0)
(13.6545 2.1019 0)
(10.0027 0.130396 0)
(10.0119 0.265086 0)
(10.0286 0.408206 0)
(10.0527 0.560448 0)
(10.0842 0.718883 0)
(10.1232 0.878618 0)
(10.1699 1.03459 0)
(10.2242 1.1828 0)
(10.2861 1.32081 0)
(10.3558 1.44769 0)
(10.4332 1.56365 0)
(10.5187 1.66958 0)
(10.6126 1.76663 0)
(10.7153 1.85587 0)
(10.8272 1.9381 0)
(10.9488 2.0137 0)
(11.0804 2.08264 0)
(11.2223 2.14443 0)
(11.3746 2.19816 0)
(11.537 2.24262 0)
(11.7092 2.27629 0)
(11.8903 2.2975 0)
(12.0793 2.30446 0)
(12.2744 2.29544 0)
(12.4737 2.26881 0)
(12.6749 2.2232 0)
(12.8752 2.15764 0)
(13.0716 2.07163 0)
(13.2606 1.96522 0)
(13.4536 1.83937 0)
(10.003 0.12523 0)
(10.0132 0.254562 0)
(10.0317 0.391913 0)
(10.0583 0.537878 0)
(10.093 0.68956 0)
(10.1357 0.842152 0)
(10.1867 0.990678 0)
(10.2457 1.13118 0)
(10.3125 1.26121 0)
(10.387 1.37976 0)
(10.4691 1.48696 0)
(10.5588 1.58359 0)
(10.6562 1.67068 0)
(10.7616 1.74923 0)
(10.875 1.82001 0)
(10.9966 1.88341 0)
(11.1266 1.93945 0)
(11.265 1.98778 0)
(11.4115 2.0277 0)
(11.5657 2.05827 0)
(11.7271 2.07833 0)
(11.8946 2.08662 0)
(12.0672 2.08187 0)
(12.2431 2.06287 0)
(12.4207 2.02856 0)
(12.5979 1.97817 0)
(12.7724 1.91123 0)
(12.9417 1.82767 0)
(13.1032 1.72789 0)
(13.2667 1.61289 0)
(10.0033 0.119434 0)
(10.0143 0.242761 0)
(10.0343 0.373666 0)
(10.0631 0.512655 0)
(10.1006 0.656883 0)
(10.1467 0.801671 0)
(10.2013 0.942165 0)
(10.2643 1.07449 0)
(10.3352 1.1962 0)
(10.4137 1.30628 0)
(10.4995 1.40475 0)
(10.5924 1.49231 0)
(10.6923 1.56993 0)
(10.7991 1.63854 0)
(10.9129 1.69888 0)
(11.0336 1.75139 0)
(11.161 1.79617 0)
(11.2949 1.83301 0)
(11.4351 1.86141 0)
(11.5808 1.88069 0)
(11.7315 1.89 0)
(11.886 1.88847 0)
(12.0433 1.87522 0)
(12.2019 1.84946 0)
(12.3603 1.81057 0)
(12.5166 1.75817 0)
(12.6691 1.69213 0)
(12.8157 1.61267 0)
(12.9546 1.52031 0)
(13.094 1.41607 0)
(10.0035 0.113044 0)
(10.0153 0.229757 0)
(10.0367 0.353583 0)
(10.0674 0.484945 0)
(10.1072 0.621077 0)
(10.1561 0.757461 0)
(10.2139 0.889407 0)
(10.2802 1.01315 0)
(10.3544 1.12631 0)
(10.436 1.22783 0)
(10.5246 1.3177 0)
(10.6198 1.39653 0)
(10.7213 1.46524 0)
(10.8287 1.5247 0)
(10.942 1.57567 0)
(11.0609 1.61861 0)
(11.185 1.65371 0)