/*--------------------------------*- C++ -*----------------------------------*\
  =========                 |
  \\      /  F ield         | OpenFOAM: The Open Source CFD Toolbox
   \\    /   O peration     | Website:  https://openfoam.org
    \\  /    A nd           | Version:  7
     \\/     M anipulation  |
\*---------------------------------------------------------------------------*/
FoamFile
{
    version     2.0;
    format      ascii;
    class       surfaceVectorField;
    location    "0.1";
    object      Uf;
}
// * * * * * * * * * * * * * * * * * * * * * * * * * * * * * * * * * * * * * //

dimensions      [0 1 -1 0 0 0 0];

internalField   nonuniform List<vector> 
5457
(
(9.92278 0.024317 0)
(9.97194 0.0378142 0)
(9.82935 0.0314006 0)
(9.93129 0.0468607 0)
(9.71964 0.0370786 0)
(9.8609 0.0563616 0)
(9.59142 0.0426641 0)
(9.76471 0.0674569 0)
(9.44514 0.0480498 0)
(9.64736 0.0788231 0)
(9.28193 0.0531877 0)
(9.51026 0.0900737 0)
(9.10285 0.0581903 0)
(9.35382 0.101224 0)
(8.90871 0.0632246 0)
(9.17872 0.112391 0)
(8.69998 0.0684746 0)
(8.98583 0.123755 0)
(8.47674 0.0741319 0)
(8.77583 0.135566 0)
(8.23858 0.0803861 0)
(8.54896 0.148119 0)
(7.9847 0.0874132 0)
(8.30496 0.16172 0)
(7.71391 0.0953674 0)
(8.04317 0.17666 0)
(7.42479 0.104377 0)
(7.76252 0.193186 0)
(7.11575 0.114542 0)
(7.4617 0.211491 0)
(6.78517 0.125929 0)
(7.13923 0.231698 0)
(6.43155 0.138573 0)
(6.79362 0.253848 0)
(6.05358 0.152463 0)
(6.42346 0.277886 0)
(5.65033 0.16754 0)
(6.02757 0.303644 0)
(5.22137 0.183688 0)
(5.60517 0.330822 0)
(4.76689 0.20072 0)
(5.156 0.358975 0)
(4.28789 0.218382 0)
(4.6805 0.387497 0)
(3.78625 0.236349 0)
(4.17991 0.41563 0)
(3.26482 0.254239 0)
(3.65645 0.44248 0)
(2.72741 0.271629 0)
(3.11333 0.467067 0)
(2.17874 0.288561 0)
(2.55499 0.488396 0)
(1.62299 0.298643 0)
(1.97635 0.506655 0)
(1.08267 0.31576 0)
(1.52255 0.504507 0)
(0.525648 0.333607 0)
(0.494902 0.532686 0)
(0.839875 0.514839 0)
(9.99768 0.0499027 0)
(9.99765 0.0389493 0)
(9.96161 0.0682965 0)
(9.98065 0.0649517 0)
(9.90155 0.084898 0)
(9.93726 0.087215 0)
(9.81827 0.102316 0)
(9.86755 0.111274 0)
(9.71123 0.120148 0)
(9.77414 0.1365 0)
(9.58085 0.13799 0)
(9.65802 0.162032 0)
(9.42806 0.155811 0)
(9.51948 0.187581 0)
(9.25401 0.173772 0)
(9.35922 0.213153 0)
(9.05971 0.192154 0)
(9.17823 0.238954 0)
(8.84594 0.211333 0)
(8.97747 0.265381 0)
(8.61303 0.231744 0)
(8.75752 0.292975 0)
(8.36086 0.253833 0)
(8.51852 0.322347 0)
(8.08887 0.278011 0)
(8.26012 0.354106 0)
(7.79611 0.304624 0)
(7.98159 0.388805 0)
(7.48134 0.333925 0)
(7.68182 0.426896 0)
(7.1432 0.366057 0)
(7.35947 0.468702 0)
(6.78026 0.401028 0)
(7.01306 0.514382 0)
(6.39123 0.438689 0)
(6.64114 0.563905 0)
(5.97508 0.478708 0)
(6.24239 0.617007 0)
(5.53118 0.520544 0)
(5.81576 0.673161 0)
(5.05951 0.563431 0)
(5.36067 0.731531 0)
(4.56079 0.606367 0)
(4.87714 0.790951 0)
(4.03664 0.64814 0)
(4.366 0.849914 0)
(3.48969 0.687381 0)
(3.82901 0.906606 0)
(2.9237 0.722642 0)
(3.26901 0.958976 0)
(2.34354 0.75318 0)
(2.69066 1.00482 0)
(1.75455 0.770767 0)
(2.08327 1.04362 0)
(1.16262 0.79098 0)
(1.60486 1.0572 0)
(0.572099 0.79881 0)
(0.558594 1.0974 0)
(0.83259 1.07518 0)
(9.99034 0.0570675 0)
(9.99542 0.0436777 0)
(9.95718 0.0867548 0)
(9.97584 0.0815839 0)
(9.90045 0.116006 0)
(9.93335 0.116357 0)
(9.82144 0.147076 0)
(9.86653 0.152844 0)
(9.71979 0.179405 0)
(9.77671 0.191273 0)
(9.59549 0.212206 0)
(9.6647 0.230631 0)
(9.44916 0.24514 0)
(9.53081 0.270292 0)
(9.28172 0.278237 0)
(9.37562 0.310085 0)
(9.09409 0.311811 0)
(9.20003 0.350203 0)
(8.88697 0.346412 0)
(9.00489 0.391156 0)
(8.66071 0.38274 0)
(8.79078 0.4337 0)
(8.4152 0.421561 0)
(8.55783 0.47873 0)
(8.14993 0.463613 0)
(8.30573 0.527167 0)
(7.86398 0.509549 0)
(8.03373 0.579874 0)
(7.5561 0.559884 0)
(7.74074 0.637586 0)
(7.22487 0.614954 0)
(7.42538 0.700861 0)
(6.86874 0.674876 0)
(7.0861 0.770028 0)
(6.48621 0.739504 0)
(6.72127 0.845145 0)
(6.07595 0.808383 0)
(6.32934 0.925936 0)
(5.63693 0.880696 0)
(5.90891 1.01174 0)
(5.16864 0.955222 0)
(5.45895 1.10142 0)
(4.67122 1.03031 0)
(4.97892 1.19335 0)
(4.14567 1.10387 0)
(4.46902 1.28535 0)
(3.59403 1.17346 0)
(3.9303 1.37472 0)
(3.0195 1.23634 0)
(3.36493 1.45831 0)
(2.42661 1.29074 0)
(2.77779 1.53256 0)
(1.82012 1.32688 0)
(2.152 1.59654 0)
(1.20586 1.35987 0)
(1.65889 1.63074 0)
(0.594908 1.36905 0)
(0.609122 1.68167 0)
(0.81477 1.65785 0)
(9.98648 0.068521 0)
(9.99427 0.0503003 0)
(9.95326 0.110355 0)
(9.97303 0.0982418 0)
(9.89762 0.152386 0)
(9.93044 0.144941 0)
(9.82002 0.196383 0)
(9.86496 0.193672 0)
(9.72042 0.242 0)
(9.77717 0.244943 0)
(9.59884 0.288391 0)
(9.66769 0.29773 0)
(9.45583 0.335065 0)
(9.53693 0.351129 0)
(9.29224 0.382002 0)
(9.38547 0.404787 0)
(9.10896 0.429593 0)
(9.21417 0.458872 0)
(8.90665 0.478565 0)
(9.02385 0.514007 0)
(8.68564 0.529872 0)
(8.81505 0.571158 0)
(8.44581 0.58457 0)
(8.5879 0.631493 0)
(8.18665 0.643708 0)
(8.34208 0.696243 0)
(7.90722 0.708232 0)
(8.07685 0.766583 0)
(7.60626 0.778923 0)
(7.79109 0.843543 0)
(7.28228 0.856334 0)
(7.48338 0.927942 0)
(6.93361 0.940737 0)
(7.15206 1.02032 0)
(6.55855 1.03206 0)
(6.79537 1.12089 0)
(6.1555 1.12982 0)
(6.41148 1.22943 0)
(5.72303 1.23305 0)
(5.99864 1.34526 0)
(5.26011 1.34021 0)
(5.55534 1.46707 0)
(4.76625 1.44913 0)
(5.08042 1.59287 0)
(4.24173 1.557 0)
(4.57334 1.71994 0)
(3.68786 1.6604 0)
(4.03435 1.84473 0)
(3.10715 1.75532 0)
(3.46471 1.96301 0)
(2.50368 1.83894 0)
(2.86968 2.06974 0)
(1.88233 1.9003 0)
(2.22631 2.163 0)
(1.24931 1.95151 0)
(1.71636 2.22181 0)
(0.617205 1.96708 0)
(0.664846 2.28615 0)
(0.797159 2.26237 0)
(9.98468 0.0805961 0)
(9.99376 0.0578017 0)
(9.95109 0.133065 0)
(9.97172 0.11509 0)
(9.8965 0.186726 0)
(9.9293 0.172987 0)
(9.82054 0.242948 0)
(9.86523 0.233632 0)
(9.72321 0.301425 0)
(9.77971 0.297393 0)
(9.60457 0.361178 0)
(9.67313 0.363205 0)
(9.46514 0.421491 0)
(9.54591 0.42994 0)
(9.30574 0.482217 0)
(9.39866 0.497066 0)
(9.12721 0.54377 0)
(9.23221 0.564721 0)
(8.93022 0.60702 0)
(9.04737 0.633631 0)
(8.71507 0.673154 0)
(8.84467 0.704968 0)
(8.48166 0.743516 0)
(8.62423 0.780172 0)
(8.22946 0.819465 0)
(8.38574 0.860781 0)
(7.95752 0.902258 0)
(8.12845 0.948288 0)
(7.66455 0.992963 0)
(7.85124 1.04403 0)
(7.34897 1.09239 0)
(7.55261 1.14913 0)
(7.00899 1.20102 0)
(7.23082 1.26437 0)
(6.64271 1.31894 0)
(6.88391 1.39019 0)
(6.24816 1.44571 0)
(6.50977 1.52653 0)
(5.82349 1.58033 0)
(6.10626 1.67277 0)
(5.36708 1.72107 0)
(5.67127 1.82758 0)
(4.8777 1.86537 0)
(5.20295 1.98877 0)
(4.35479 2.00978 0)
(4.69984 2.15318 0)
(3.79876 2.14995 0)
(4.16122 2.31657 0)
(3.21128 2.28055 0)
(3.58715 2.47359 0)
(2.59585 2.39737 0)
(2.98315 2.61756 0)
(1.95753 2.48821 0)
(2.32067 2.74493 0)
(1.30242 2.56082 0)
(1.78761 2.8335 0)
(0.644757 2.58505 0)
(0.73175 2.91508 0)
(0.782569 2.89386 0)
(9.98393 0.0929707 0)
(9.99358 0.0656693 0)
(9.95031 0.155482 0)
(9.97136 0.131954 0)
(9.89695 0.220391 0)
(9.92952 0.200398 0)
(9.82304 0.288631 0)
(9.86715 0.272518 0)
(9.72843 0.35971 0)
(9.78426 0.348376 0)
(9.61324 0.432465 0)
(9.68107 0.426774 0)
(9.47799 0.505981 0)
(9.55797 0.506387 0)
(9.32348 0.580011 0)
(9.41561 0.586515 0)
(9.15054 0.655006 0)
(9.25481 0.667261 0)
(8.95981 0.731996 0)
(9.07636 0.749452 0)
(8.75161 0.812407 0)
(8.8808 0.834457 0)
(8.52584 0.897875 0)
(8.66826 0.923985 0)
(8.28197 0.990074 0)
(8.43845 1.01988 0)
(8.01905 1.09058 0)
(8.19061 1.12396 0)
(7.73575 1.20079 0)
(7.92362 1.2379 0)
(7.43042 1.32178 0)
(7.63595 1.36313 0)
(7.10111 1.45433 0)
(7.32574 1.50077 0)
(6.74567 1.59873 0)
(6.99084 1.65151 0)
(6.36177 1.75473 0)
(6.62885 1.8156 0)
(5.94704 1.92142 0)
(6.23715 1.99261 0)
(5.49913 2.09703 0)
(5.81301 2.18136 0)
(5.01595 2.27878 0)
(5.3537 2.37965 0)
(4.49586 2.46271 0)
(4.85667 2.5841 0)
(3.93808 2.64361 0)
(4.3199 2.78989 0)
(3.34311 2.81475 0)
(3.74183 2.99068 0)
(2.7135 2.9701 0)
(3.12778 3.178 0)
(2.05415 3.09589 0)
(2.44412 3.34604 0)
(1.37116 3.19464 0)
(1.88009 3.47122 0)
(0.680465 3.23072 0)
(0.814532 3.57559 0)
(0.772994 3.56034 0)
(9.98378 0.105387 0)
(9.99359 0.0736129 0)
(9.95056 0.177491 0)
(9.97162 0.148614 0)
(9.89869 0.253147 0)
(9.93077 0.227046 0)
(9.82717 0.332943 0)
(9.87043 0.310144 0)
(9.73575 0.416143 0)
(9.79055 0.397641 0)
(9.62457 0.501389 0)
(9.69123 0.488133 0)
(9.49415 0.587589 0)
(9.57286 0.5801 0)
(9.3453 0.674403 0)
(9.43608 0.67269 0)
(9.17882 0.762316 0)
(9.28173 0.765969 0)
(8.99536 0.852502 0)
(9.11061 0.860854 0)
(8.79526 0.946619 0)
(8.92326 0.958908 0)
(8.57844 1.04659 0)
(8.71983 1.0621 0)
(8.34438 1.1544 0)
(8.50007 1.17258 0)
(8.09214 1.27197 0)
(8.26325 1.2925 0)
(7.82039 1.40102 0)
(8.00826 1.42388 0)
(7.52738 1.54298 0)
(7.73355 1.5685 0)
(7.21105 1.69896 0)
(7.43718 1.72784 0)
(6.86899 1.86958 0)
(7.11684 1.903 0)
(6.49849 2.05491 0)
(6.76983 2.09459 0)
(6.09658 2.25429 0)
(6.39306 2.30257 0)
(5.66013 2.46613 0)
(5.98311 2.5261 0)
(5.18594 2.68765 0)
(5.53626 2.76326 0)
(4.67105 2.91464 0)
(5.04864 3.01071 0)
(4.11307 3.14117 0)
(4.51657 3.26339 0)
(3.51078 3.35917 0)
(3.9363 3.51413 0)
(2.86509 3.56039 0)
(3.31209 3.75274 0)
(2.18012 3.72896 0)
(2.60561 3.97051 0)
(1.46182 3.86126 0)
(2.00215 4.14192 0)
(0.72782 3.91448 0)
(0.919013 4.27751 0)
(0.771041 4.27319 0)
(9.98399 0.117633 0)
(9.99372 0.0814525 0)
(9.95157 0.198916 0)
(9.97233 0.164873 0)
(9.90147 0.284802 0)
(9.93282 0.252785 0)
(9.8327 0.375648 0)
(9.87484 0.346326 0)
(9.74492 0.470461 0)
(9.79834 0.44494 0)
(9.63829 0.567663 0)
(9.70338 0.546979 0)
(9.51335 0.665988 0)
(9.5903 0.650719 0)
(9.37089 0.765005 0)
(9.45978 0.755161 0)
(9.21174 0.865224 0)
(9.31267 0.860335 0)
(9.03655 0.967956 0)
(9.14977 0.96724 0)
(8.84567 1.07508 0)
(8.97164 1.07762 0)
(8.63907 1.18881 0)
(8.7785 1.1937 0)
(8.41629 1.31144 0)
(8.57011 1.31793 0)
(8.1764 1.44523 0)
(8.34585 1.45279 0)
(7.9181 1.59227 0)
(8.10462 1.60065 0)
(7.63961 1.75438 0)
(7.84491 1.76369 0)
(7.33875 1.93307 0)
(7.56475 1.94381 0)
(7.01291 2.12939 0)
(7.26171 2.14257 0)
(6.659 2.34388 0)
(6.93285 2.36108 0)
(6.27348 2.57635 0)
(6.57465 2.59989 0)
(5.85234 2.82565 0)
(6.18301 2.85875 0)
(5.39115 3.08935 0)
(5.75315 3.13635 0)
(4.88528 3.36331 0)
(5.27972 3.42984 0)
(4.33026 3.64129 0)
(4.757 3.73437 0)
(3.72238 3.91406 0)
(4.17834 4.04245 0)
(3.05987 4.17097 0)
(3.54572 4.34246 0)
(2.34487 4.39342 0)
(2.81609 4.62236 0)
(1.58238 4.57027 0)
(2.16484 4.85388 0)
(0.791594 4.649 0)
(1.05347 5.03374 0)
(0.780607 5.04851 0)
(9.98445 0.129549 0)
(9.99395 0.0890668 0)
(9.95316 0.219596 0)
(9.97335 0.180568 0)
(9.90512 0.31519 0)
(9.9355 0.277462 0)
(9.83943 0.416542 0)
(9.8802 0.380887 0)
(9.75573 0.522405 0)
(9.80746 0.490044 0)
(9.65417 0.630971 0)
(9.71729 0.603027 0)
(9.53532 0.740795 0)
(9.61005 0.7179 0)
(9.39996 0.851355 0)
(9.48642 0.83352 0)
(9.24894 0.963182 0)
(9.34726 0.949878 0)
(9.08294 1.07772 0)
(9.19342 1.06804 0)
(8.90235 1.19705 0)
(9.02548 1.18993 0)
(8.70721 1.32365 0)
(8.84371 1.31801 0)
(8.4971 1.46015 0)
(8.64797 1.455 0)
(8.27119 1.60915 0)
(8.43773 1.60373 0)
(8.02823 1.77311 0)
(8.21197 1.76692 0)
(7.76647 1.95428 0)
(7.96928 1.94716 0)
(7.48369 2.15463 0)
(7.70772 2.1468 0)
(7.17713 2.37577 0)
(7.42484 2.36795 0)
(6.84342 2.61886 0)
(7.11755 2.61236 0)
(6.47848 2.8844 0)
(6.78202 2.88134 0)
(6.07743 3.17202 0)
(6.41355 3.17552 0)
(5.63456 3.48006 0)
(6.00638 3.49461 0)
(5.14334 3.80504 0)
(5.55358 3.83684 0)
(4.59664 4.14098 0)
(5.04712 4.19829 0)
(3.98734 4.47816 0)
(4.47679 4.572 0)
(3.30948 4.80366 0)
(3.84061 4.94585 0)
(2.56114 5.09562 0)
(3.09022 5.30459 0)
(1.74441 5.33364 0)
(2.38407 5.61648 0)
(0.878971 5.45139 0)
(1.23077 5.86137 0)
(0.808218 5.90941 0)
(9.98509 0.141008 0)
(9.99423 0.0963685 0)
(9.95519 0.239384 0)
(9.97463 0.195563 0)
(9.9095 0.344151 0)
(9.9387 0.300933 0)
(9.84722 0.455426 0)
(9.88638 0.413657 0)
(9.76799 0.571727 0)
(9.81773 0.532738 0)
(9.67198 0.691008 0)
(9.73277 0.656013 0)
(9.55977 0.811644 0)
(9.63186 0.781326 0)
(9.43216 0.933021 0)
(9.51569 0.907391 0)
(9.29002 1.05568 0)
(9.38515 1.03415 0)
(9.13407 1.18118 0)
(9.24111 1.16275 0)
(8.96476 1.31181 0)
(9.08423 1.29523 0)
(8.7822 1.4503 0)
(8.91484 1.4343 0)
(8.58609 1.59957 0)
(8.73292 1.58294 0)
(8.37572 1.76256 0)
(8.53805 1.74429 0)
(8.14993 1.94213 0)
(8.3294 1.92144 0)
(7.90708 2.14096 0)
(8.10566 2.11737 0)
(7.64502 2.36156 0)
(7.86506 2.33492 0)
(7.36095 2.60616 0)
(7.60522 2.5768 0)
(7.05134 2.87669 0)
(7.32308 2.8455 0)
(6.71173 3.17461 0)
(7.01468 3.14324 0)
(6.33654 3.50069 0)
(6.67493 3.47188 0)
(5.9188 3.85459 0)
(6.2973 3.83255 0)
(5.45 4.23423 0)
(5.87345 4.22527 0)
(4.91994 4.63492 0)
(5.39297 4.6481 0)
(4.31703 5.0476 0)
(4.84162 5.096 0)
(3.62917 5.45816 0)
(4.21172 5.55813 0)
(2.84711 5.8416 0)
(3.44816 6.01757 0)
(1.96584 6.16636 0)
(2.68385 6.43933 0)
(1.00191 6.34596 0)
(1.47239 6.78318 0)
(0.865815 6.89072 0)
(9.98586 0.151913 0)
(9.99456 0.103292 0)
(9.95758 0.25815 0)
(9.9761 0.209749 0)
(9.9145 0.371534 0)
(9.94232 0.323064 0)
(9.85591 0.492116 0)
(9.89324 0.444482 0)
(9.78151 0.618196 0)
(9.82899 0.572829 0)
(9.69148 0.747494 0)
(9.74961 0.705698 0)
(9.58642 0.878203 0)
(9.65545 0.840711 0)
(9.46715 1.00961 0)
(9.54726 0.976435 0)
(9.33457 1.14227 0)
(9.42593 1.11276 0)
(9.18944 1.27782 0)
(9.29238 1.25088 0)
(9.03229 1.41874 0)
(9.14732 1.39297 0)
(8.86335 1.56799 0)
(8.9912 1.54191 0)
(8.68244 1.72877 0)
(8.82414 1.70097 0)
(8.48903 1.90435 0)
(8.64588 1.87353 0)
(8.28212 2.09795 0)
(8.45579 2.06303 0)
(8.06029 2.31272 0)
(8.2528 2.27285 0)
(7.82153 2.55169 0)
(8.03538 2.50632 0)
(7.56319 2.81782 0)
(7.8014 2.76673 0)
(7.28179 3.11392 0)
(7.548 3.05739 0)
(6.97273 3.44261 0)
(7.27137 3.38159 0)
(6.63001 3.80616 0)
(6.96639 3.74258 0)
(6.24573 4.20615 0)
(6.6262 4.14342 0)
(5.80959 4.64288 0)
(6.2415 4.58662 0)
(5.30826 5.11438 0)
(5.79995 5.07352 0)
(4.72488 5.61433 0)
(5.28341 5.60302 0)
(4.039 6.12989 0)
(4.67714 6.16866 0)
(3.2293 6.63503 0)
(3.91747 6.75575 0)
(2.2758 7.08659 0)
(3.10133 7.32963 0)
(1.182 7.36874 0)
(1.81608 7.82919 0)
(0.977009 8.04841 0)
(9.98674 0.162183 0)
(9.99493 0.109786 0)
(9.96025 0.275784 0)
(9.97772 0.223034 0)
(9.91999 0.397204 0)
(9.94627 0.343744 0)
(9.86537 0.526445 0)
(9.90068 0.473222 0)
(9.79611 0.661609 0)
(9.84109 0.610147 0)
(9.71244 0.800184 0)
(9.7676 0.751874 0)
(9.61497 0.940179 0)
(9.68059 0.895804 0)
(9.50456 1.08078 0)
(9.5808 1.04036 0)
(9.38211 1.22253 0)
(9.46919 1.18536 0)
(9.24848 1.36715 0)
(9.34669 1.33203 0)
(9.10427 1.51727 0)
(9.21412 1.48265 0)
(8.94984 1.67604 0)
(9.07204 1.64028 0)
(8.7852 1.84693 0)
(8.92072 1.80838 0)
(8.61001 2.03349 0)
(8.76012 1.99059 0)
(8.42354 2.23931 0)
(8.58987 2.19064 0)
(8.22464 2.46793 0)
(8.40922 2.41226 0)
(8.01161 2.72296 0)
(8.21698 2.65923 0)
(7.78214 3.00803 0)
(8.01144 2.93544 0)
(7.53304 3.32692 0)
(7.79019 3.24497 0)
(7.25997 3.68355 0)
(7.5499 3.59219 0)
(6.95696 4.08199 0)
(7.28592 3.98192 0)
(6.61582 4.52629 0)
(6.9917 4.41939 0)
(6.22515 5.02016 0)
(6.65794 4.91031 0)
(5.7691 5.56614 0)
(6.2715 5.46052 0)
(5.22563 6.16375 0)
(5.81166 6.07535 0)
(4.56436 6.80619 0)
(5.25694 6.75727 0)
(3.74629 7.47272 0)
(4.53448 7.50156 0)
(2.72322 8.11399 0)
(3.69435 8.28488 0)
(1.46131 8.5757 0)
(2.33212 9.03596 0)
(1.19262 9.47968 0)
(9.9877 0.171757 0)
(9.99532 0.115811 0)
(9.96315 0.292192 0)
(9.97946 0.235347 0)
(9.92591 0.421044 0)
(9.9505 0.362874 0)
(9.87547 0.558271 0)
(9.90857 0.499761 0)
(9.81163 0.701789 0)
(9.85388 0.644547 0)
(9.73464 0.848863 0)
(9.78655 0.794363 0)
(9.64513 0.997315 0)
(9.70699 0.946395 0)
(9.544 1.14623 0)
(9.61598 1.09891 0)
(9.43219 1.29611 0)
(9.51449 1.25165 0)
(9.31061 1.44875 0)
(9.40352 1.40586 0)
(9.17999 1.60689 0)
(9.28397 1.56389 0)
(9.04082 1.77386 0)
(9.15653 1.72893 0)
(8.89333 1.95333 0)
(9.02167 1.9046 0)
(8.73743 2.14911 0)
(8.87959 2.09476 0)
(8.5727 2.36506 0)
(8.73021 2.30337 0)
(8.39838 2.60513 0)
(8.57319 2.53444 0)
(8.21323 2.87339 0)
(8.40779 2.79214 0)
(8.01546 3.17414 0)
(8.23288 3.08085 0)
(7.8025 3.51206 0)
(8.04677 3.40532 0)
(7.57069 3.8924 0)
(7.84696 3.77097 0)
(7.31481 4.32111 0)
(7.62983 4.18403 0)
(7.02727 4.80508 0)
(7.39007 4.652 0)
(6.69697 5.35223 0)
(7.11971 5.18398 0)
(6.30728 5.97144 0)
(6.80688 5.79121 0)
(5.83295 6.67179 0)
(6.43145 6.4876 0)
(5.23477 7.46003 0)
(5.96903 7.28973 0)
(4.45254 8.3344 0)
(5.34243 8.21469 0)
(3.39228 9.26154 0)
(4.5514 9.27487 0)
(1.92999 10.0595 0)
(3.15989 10.4344 0)
(1.63338 11.37 0)
(9.98872 0.180584 0)
(9.99574 0.121337 0)
(9.96622 0.307299 0)
(9.98129 0.246628 0)
(9.93215 0.442957 0)
(9.95494 0.380376 0)
(9.88608 0.587476 0)
(9.91684 0.523999 0)
(9.82788 0.738595 0)
(9.86722 0.675909 0)
(9.75783 0.893365 0)
(9.80626 0.833022 0)
(9.67659 1.04942 0)
(9.7344 0.992312 0)
(9.58508 1.20573 0)
(9.65244 1.15188 0)
(9.48429 1.36275 0)
(9.56139 1.31141 0)
(9.37521 1.52233 0)
(9.4623 1.4721 0)
(9.25868 1.68726 0)
(9.35617 1.63637 0)
(9.13535 1.86102 0)
(9.24383 1.80749 0)
(9.00569 2.04744 0)
(9.12594 1.98919 0)
(8.86989 2.25051 0)
(9.00298 2.1855 0)
(8.72792 2.47433 0)
(8.87523 2.40052 0)
(8.57947 2.72314 0)
(8.74277 2.63849 0)
(8.42391 3.00137 0)
(8.60543 2.90382 0)
(8.26015 3.31386 0)
(8.46279 3.20124 0)
(8.08657 3.66606 0)
(8.31408 3.53603 0)
(7.90068 4.06433 0)
(8.15802 3.91433 0)
(7.69873 4.51638 0)
(7.99258 4.34355 0)
(7.47502 5.03179 0)
(7.81461 4.83297 0)
(7.22069 5.62288 0)
(7.61912 5.39471 0)
(6.92156 6.3058 0)
(7.39828 6.04505 0)
(6.55419 7.10217 0)
(7.13775 6.80689 0)
(6.07774 8.04073 0)
(6.81932 7.71383 0)
(5.418 9.16076 0)
(6.37905 8.81615 0)
(4.428 10.5037 0)
(5.79585 10.1993 0)
(2.80472 11.9882 0)
(4.6041 11.9867 0)
(2.62557 14.117 0)
(9.98978 0.188625 0)
(9.99617 0.126341 0)
(9.96943 0.321042 0)
(9.98319 0.256834 0)
(9.93865 0.462855 0)
(9.95953 0.396189 0)
(9.8971 0.613941 0)
(9.92538 0.545861 0)
(9.84471 0.771873 0)
(9.88099 0.704141 0)
(9.7818 0.933492 0)
(9.82658 0.867741 0)
(9.70906 1.09625 0)
(9.76264 1.03343 0)
(9.62742 1.25899 0)
(9.68998 1.19914 0)
(9.53794 1.42213 0)
(9.60965 1.36447 0)
(9.44166 1.58748 0)
(9.52276 1.53056 0)
(9.33956 1.75793 0)
(9.43039 1.69987 0)
(9.23247 1.93701 0)
(9.33353 1.8757 0)
(9.12108 2.12866 0)
(9.23306 2.06186 0)
(9.00592 2.337 0)
(9.12973 2.26244 0)
(8.88738 2.56626 0)
(9.0242 2.48165 0)
(8.76566 2.82086 0)
(8.91701 2.7238 0)
(8.64081 3.10547 0)
(8.80865 2.99344 0)
(8.51266 3.42525 0)
(8.69949 3.29546 0)
(8.38074 3.78613 0)
(8.58985 3.63536 0)
(8.24417 4.19523 0)
(8.47991 4.01966 0)
(8.1014 4.66144 0)
(8.36968 4.45631 0)
(7.94985 5.19632 0)
(8.25897 4.95557 0)
(7.78518 5.81556 0)
(8.14717 5.53115 0)
(7.5999 6.54142 0)
(8.03328 6.20227 0)
(7.38067 7.4073 0)
(7.91449 6.99742 0)
(7.10162 8.46613 0)
(7.79167 7.96222 0)
(6.70799 9.81453 0)
(7.64729 9.17501 0)
(6.06 11.6611 0)
(7.54863 10.8043 0)
(4.68551 14.7056 0)
(7.51182 13.3011 0)
(6.82933 18.7062 0)
(-0.530062 0.241579 0)
(0.602969 0.519163 0)
(-1.03665 0.22766 0)
(-1.44868 0.484451 0)
(-1.52923 0.211794 0)
(-0.998086 0.459933 0)
(-1.98141 0.181173 0)
(-1.91476 0.412235 0)
(-2.37282 0.139969 0)
(-2.2563 0.34841 0)
(-2.66367 0.0860317 0)
(-2.61041 0.25278 0)
(-2.82781 0.0244556 0)
(-2.8423 0.139292 0)
(-2.84214 -0.0433619 0)
(-2.93031 0.0118712 0)
(-2.68953 -0.112846 0)
(-2.85236 -0.123457 0)
(-2.36972 -0.177533 0)
(-2.6018 -0.252611 0)
(-1.89446 -0.231808 0)
(-2.18774 -0.366526 0)
(-1.29054 -0.270948 0)
(-1.62361 -0.45475 0)
(-0.592754 -0.293658 0)
(-0.952178 -0.51302 0)
(0.164547 -0.301372 0)
(-0.197735 -0.543627 0)
(0.947834 -0.296673 0)
(0.582699 -0.549001 0)
(1.7293 -0.283012 0)
(1.38113 -0.53479 0)
(2.48801 -0.263438 0)
(2.16668 -0.506949 0)
(3.20879 -0.240382 0)
(2.92043 -0.470239 0)
(3.88148 -0.215753 0)
(3.62976 -0.428492 0)
(4.50005 -0.190988 0)
(4.28667 -0.384716 0)
(5.06183 -0.167102 0)
(4.88701 -0.341146 0)
(5.56669 -0.144751 0)
(5.42956 -0.299336 0)
(6.01628 -0.124307 0)
(5.91527 -0.260269 0)
(6.41343 -0.105922 0)
(6.34652 -0.224486 0)
(6.76167 -0.0895973 0)
(6.72661 -0.192189 0)
(7.06481 -0.0752295 0)
(7.05927 -0.163346 0)
(7.32667 -0.0626613 0)
(7.34833 -0.137771 0)
(7.55095 -0.051735 0)
(7.59756 -0.11521 0)
(7.74132 -0.0427233 0)
(7.81032 -0.0954832 0)
(8.02663 -0.0797878 0)
(-0.515451 0.762411 0)
(0.57705 1.02402 0)
(-1.0813 0.726951 0)
(-1.47305 1.02557 0)
(-1.60125 0.667584 0)
(-1.10464 0.945419 0)
(-2.08919 0.585681 0)
(-2.04513 0.857077 0)
(-2.50204 0.46528 0)
(-2.42892 0.715904 0)
(-2.81243 0.309053 0)
(-2.81547 0.522542 0)
(-2.98516 0.126577 0)
(-3.06666 0.285868 0)
(-2.99647 -0.073291 0)
(-3.16216 0.0212413 0)
(-2.8269 -0.274714 0)
(-3.07163 -0.26063 0)
(-2.47936 -0.459874 0)
(-2.79344 -0.527122 0)
(-1.96772 -0.614177 0)
(-2.33462 -0.761107 0)
(-1.32467 -0.725709 0)
(-1.72588 -0.938969 0)
(-0.58886 -0.792755 0)
(-1.00666 -1.054 0)
(0.202263 -0.819694 0)
(-0.208815 -1.11153 0)
(1.0153 -0.813111 0)
(0.604559 -1.11885 0)
(1.82318 -0.78172 0)
(1.43017 -1.08766 0)
(2.60557 -0.733557 0)
(2.23689 -1.02972 0)
(3.34791 -0.675058 0)
(3.00719 -0.954538 0)
(4.04056 -0.611319 0)
(3.72955 -0.869697 0)
(4.67793 -0.546231 0)
(4.39694 -0.781128 0)
(5.2577 -0.48259 0)
(5.00596 -0.69321 0)
(5.7799 -0.422269 0)
(5.556 -0.608959 0)
(6.24631 -0.366388 0)
(6.04843 -0.530277 0)
(6.65978 -0.315496 0)
(6.48594 -0.45819 0)
(7.02377 -0.26972 0)
(6.87198 -0.393072 0)
(7.34203 -0.228902 0)
(7.21038 -0.33484 0)
(7.61828 -0.192715 0)
(7.50502 -0.283113 0)
(7.85605 -0.160789 0)
(7.7596 -0.23735 0)
(8.05843 -0.133244 0)
(7.9772 -0.196993 0)
(8.19797 -0.16206 0)
(-0.573043 1.30113 0)
(0.471592 1.58528 0)
(-1.17428 1.25639 0)
(-1.51166 1.60054 0)
(-1.74914 1.15336 0)
(-1.2932 1.48218 0)
(-2.28818 1.01069 0)
(-2.25812 1.34851 0)
(-2.74818 0.799879 0)
(-2.71312 1.12536 0)
(-3.09173 0.527913 0)
(-3.14945 0.821125 0)
(-3.28225 0.209189 0)
(-3.42951 0.447542 0)
(-3.28729 -0.138725 0)
(-3.52885 0.025419 0)
(-3.09574 -0.488751 0)
(-3.41391 -0.415595 0)
(-2.70419 -0.808819 0)
(-3.08521 -0.836387 0)
(-2.13958 -1.07042 0)
(-2.55844 -1.19654 0)
(-1.44364 -1.25556 0)
(-1.88453 -1.46301 0)
(-0.657815 -1.36408 0)
(-1.10077 -1.63175 0)
(0.174478 -1.40369 0)
(-0.246424 -1.70899 0)
(1.01767 -1.38744 0)
(0.605276 -1.70984 0)
(1.84683 -1.33064 0)
(1.45956 -1.65508 0)
(2.64326 -1.2465 0)
(2.28508 -1.56188 0)
(3.39386 -1.14571 0)
(3.06643 -1.44423 0)
(4.09035 -1.03669 0)
(3.79398 -1.31335 0)
(4.72835 -0.925872 0)
(4.46226 -1.17793 0)
(5.30653 -0.817846 0)
(5.06922 -1.04431 0)
(5.82578 -0.71566 0)
(5.6153 -0.916824 0)
(6.28847 -0.621121 0)
(6.10272 -0.798131 0)
(6.69792 -0.53509 0)
(6.53479 -0.689626 0)
(7.05793 -0.457738 0)
(6.91539 -0.591758 0)
(7.37244 -0.388764 0)
(7.24863 -0.504315 0)
(7.64528 -0.327581 0)
(7.53856 -0.426662 0)
(7.87999 -0.273462 0)
(7.78894 -0.35792 0)
(8.07959 -0.225869 0)
(8.00276 -0.297104 0)
(8.22013 -0.24357 0)
(-0.650606 1.90064 0)
(0.328941 2.2225 0)
(-1.32156 1.84633 0)
(-1.56986 2.24218 0)
(-1.97819 1.70308 0)
(-1.5646 2.09528 0)
(-2.59182 1.49427 0)
(-2.56209 1.90793 0)
(-3.11862 1.18229 0)
(-3.11244 1.59429 0)
(-3.50686 0.778697 0)
(-3.60742 1.15855 0)
(-3.7142 0.302229 0)
(-3.91278 0.623483 0)
(-3.70415 -0.217705 0)
(-3.99674 0.0170925 0)
(-3.45886 -0.737231 0)
(-3.82937 -0.614023 0)
(-2.99175 -1.2043 0)
(-3.41641 -1.20535 0)
(-2.34742 -1.57489 0)
(-2.79833 -1.69346 0)
(-1.57423 -1.83006 0)
(-2.03475 -2.04522 0)
(-0.720414 -1.97176 0)
(-1.17054 -2.25948 0)
(0.164724 -2.01283 0)
(-0.252426 -2.34439 0)
(1.04544 -1.9767 0)
(0.6427 -2.32713 0)
(1.89996 -1.88668 0)
(1.52762 -2.23987 0)
(2.71203 -1.76074 0)
(2.37191 -2.10449 0)
(3.4707 -1.61351 0)
(3.16285 -1.93918 0)
(4.16957 -1.4565 0)
(3.89313 -1.75852 0)
(4.80594 -1.29839 0)
(4.55927 -1.57372 0)
(5.37983 -1.1453 0)
(5.16085 -1.39281 0)
(5.8932 -1.00121 0)
(5.69962 -1.22121 0)
(6.34927 -0.868412 0)
(6.17879 -1.06215 0)
(6.75192 -0.7479 0)
(6.60239 -0.917222 0)
(7.10537 -0.639761 0)
(6.97479 -0.786821 0)
(7.4138 -0.543461 0)
(7.30041 -0.670512 0)
(7.68117 -0.45808 0)
(7.58347 -0.567333 0)
(7.91107 -0.382489 0)
(7.82781 -0.476017 0)
(8.10653 -0.315634 0)
(8.03636 -0.395139 0)
(8.24871 -0.32352 0)
(-0.753452 2.58532 0)
(0.152564 2.96046 0)
(-1.52491 2.51899 0)
(-1.65616 2.97992 0)
(-2.28978 2.33535 0)
(-1.90414 2.80946 0)
(-2.99892 2.04754 0)
(-2.94584 2.55442 0)
(-3.59817 1.6152 0)
(-3.59852 2.1277 0)
(-4.02864 1.0526 0)
(-4.14461 1.53268 0)
(-4.23386 0.385163 0)
(-4.45481 0.797637 0)
(-4.17561 -0.340791 0)
(-4.49088 -0.0311759 0)
(-3.84394 -1.05355 0)
(-4.2315 -0.88233 0)
(-3.27485 -1.67461 0)
(-3.70517 -1.65486 0)
(-2.52769 -2.15104 0)
(-2.97646 -2.26967 0)
(-1.66176 -2.46736 0)
(-2.11105 -2.69726 0)
(-0.733286 -2.62879 0)
(-1.16244 -2.94211 0)
(0.206119 -2.65744 0)
(-0.187824 -3.01874 0)
(1.12379 -2.59002 0)
(0.747583 -2.97032 0)
(2.00153 -2.45817 0)
(1.65748 -2.84054 0)
(2.82603 -2.28394 0)
(2.51458 -2.6554 0)
(3.5889 -2.08554 0)
(3.30901 -2.43687 0)
(4.28602 -1.87727 0)
(4.03606 -2.20258 0)
(4.91659 -1.66973 0)
(4.69443 -1.96589 0)
(5.48218 -1.47031 0)
(5.28546 -1.73627 0)
(5.98596 -1.28367 0)
(5.81229 -1.5199 0)
(6.432 -1.11238 0)
(6.27912 -1.32037 0)
(6.82484 -0.957453 0)
(6.69068 -1.13927 0)
(7.16907 -0.818761 0)
(7.05182 -0.976799 0)
(7.46913 -0.695452 0)
(7.36723 -0.832197 0)
(7.72908 -0.586225 0)
(7.64123 -0.704101 0)
(7.95255 -0.489521 0)
(7.87771 -0.590812 0)
(8.14258 -0.403809 0)
(8.07953 -0.490452 0)
(8.28538 -0.401356 0)
(-0.880283 3.3822 0)
(-0.0447913 3.82265 0)
(-1.77429 3.30137 0)
(-1.76802 3.83487 0)
(-2.65868 3.06703 0)
(-2.27448 3.63524 0)
(-3.46881 2.67753 0)
(-3.36298 3.29299 0)
(-4.13276 2.09331 0)
(-4.10158 2.7187 0)
(-4.58177 1.33013 0)
(-4.67323 1.92292 0)
(-4.75216 0.427767 0)
(-4.95234 0.942228 0)
(-4.60563 -0.539129 0)
(-4.89648 -0.152583 0)
(-4.1541 -1.46169 0)
(-4.5109 -1.24761 0)
(-3.46104 -2.23651 0)
(-3.85404 -2.20228 0)
(-2.60041 -2.80884 0)
(-3.00633 -2.9334 0)
(-1.64211 -3.16956 0)
(-2.04443 -3.41887 0)
(-0.647052 -3.33235 0)
(-1.02158 -3.67368 0)
(0.336114 -3.33297 0)
(-0.0118638 -3.7245 0)
(1.28114 -3.2225 0)
(0.951734 -3.63268 0)
(2.1728 -3.03977 0)
(1.87323 -3.45074 0)
(3.00083 -2.81058 0)
(2.73092 -3.20867 0)
(3.75961 -2.55632 0)
(3.51784 -2.93189 0)
(4.44743 -2.29368 0)
(4.23187 -2.64072 0)
(5.06549 -2.03489 0)
(4.87393 -2.35029 0)
(5.61693 -1.78824 0)
(5.4471 -2.07113 0)
(6.10607 -1.55884 0)
(5.95581 -1.80992 0)
(6.53781 -1.34932 0)
(6.40515 -1.5703 0)
(6.91722 -1.1605 0)
(6.80042 -1.35372 0)
(7.24922 -0.991939 0)
(7.1468 -1.16003 0)
(7.53839 -0.842368 0)
(7.44911 -0.988018 0)
(7.78886 -0.710041 0)
(7.71171 -0.83588 0)
(8.00422 -0.592946 0)
(7.93845 -0.701442 0)
(8.18748 -0.489076 0)
(8.13203 -0.582369 0)
(8.3299 -0.476515 0)
(-1.01526 4.30467 0)
(-0.240151 4.81703 0)
(-2.03858 4.19953 0)
(-1.88122 4.81348 0)
(-3.03269 3.89431 0)
(-2.60801 4.56345 0)
(-3.91886 3.37166 0)
(-3.72707 4.10089 0)
(-4.61961 2.59207 0)
(-4.51472 3.34245 0)
(-5.05115 1.57891 0)
(-5.07356 2.29799 0)
(-5.14437 0.395341 0)
(-5.27782 1.02133 0)
(-4.87187 -0.84157 0)
(-5.08469 -0.378359 0)
(-4.27983 -1.97865 0)
(-4.55502 -1.72656 0)
(-3.4566 -2.89618 0)
(-3.76529 -2.85252 0)
(-2.48982 -3.54521 0)
(-2.81076 -3.67899 0)
(-1.45491 -3.92738 0)
(-1.77418 -4.19815 0)
(-0.415175 -4.07036 0)
(-0.703364 -4.43811 0)
(0.590453 -4.02819 0)
(0.312292 -4.44639 0)
(1.54478 -3.86469 0)
(1.28313 -4.30157 0)
(2.43433 -3.62323 0)
(2.19624 -4.05949 0)
(3.25157 -3.33346 0)
(3.03682 -3.75473 0)
(3.99367 -3.01968 0)
(3.8008 -3.41604 0)
(4.66134 -2.7006 0)
(4.48859 -3.06602 0)
(5.2577 -2.38965 0)
(5.1032 -2.72119 0)
(5.78731 -2.09573 0)
(5.64928 -2.39274 0)
(6.25548 -1.82408 0)
(6.13232 -2.0875 0)
(6.66777 -1.57717 0)
(6.55807 -1.80898 0)
(7.02957 -1.35547 0)
(6.93216 -1.55823 0)
(7.34597 -1.15809 0)
(7.25986 -1.33464 0)
(7.62154 -0.983299 0)
(7.54597 -1.13651 0)
(7.86035 -0.828848 0)
(7.7947 -0.961522 0)
(8.06587 -0.692259 0)
(8.00974 -0.807015 0)
(8.24098 -0.571055 0)
(8.19356 -0.670202 0)
(8.38197 -0.548464 0)
(-1.13139 5.34452 0)
(-0.401905 5.92516 0)
(-2.25262 5.19446 0)
(-1.94507 5.88572 0)
(-3.31492 4.78897 0)
(-2.81508 5.55534 0)
(-4.23762 4.09564 0)
(-3.92772 4.94208 0)
(-4.93196 3.07584 0)
(-4.71303 3.96051 0)
(-5.30669 1.76573 0)
(-5.21223 2.62368 0)
(-5.28144 0.259557 0)
(-5.29377 0.999897 0)
(-4.85659 -1.26526 0)
(-4.93617 -0.730365 0)
(-4.11976 -2.60714 0)
(-4.26351 -2.32263 0)
(-3.18013 -3.64458 0)
(-3.35866 -3.5947 0)
(-2.1341 -4.34314 0)
(-2.32932 -4.4857 0)
(-1.05388 -4.72035 0)
(-1.25137 -5.01155 0)
(-0.00186661 -4.82283 0)
(-0.184899 -5.21157 0)
(0.997697 -4.7261 0)
(0.812911 -5.16393 0)
(1.93682 -4.5022 0)
(1.76234 -4.95979 0)
(2.80277 -4.19624 0)
(2.64217 -4.6521 0)
(3.59045 -3.84209 0)
(3.44372 -4.28104 0)
(4.29974 -3.46682 0)
(4.16593 -3.87877 0)
(4.93367 -3.09075 0)
(4.81162 -3.46982 0)
(5.49708 -2.72813 0)
(5.38569 -3.0716 0)
(5.99571 -2.38806 0)
(5.89406 -2.69554 0)
(6.43557 -2.07564 0)
(6.34293 -2.3483 0)
(6.82254 -1.79296 0)
(6.73834 -2.033 0)
(7.1621 -1.54002 0)
(7.08594 -1.75016 0)
(7.45923 -1.31539 0)
(7.39082 -1.49862 0)
(7.71833 -1.1168 0)
(7.65748 -1.27613 0)
(7.94322 -0.941517 0)
(7.88982 -1.07984 0)
(8.13713 -0.786581 0)
(8.09118 -0.906626 0)
(8.30273 -0.649061 0)
(8.26372 -0.75326 0)
(8.44123 -0.616677 0)
(-1.18287 6.45866 0)
(-0.495117 7.0837 0)
(-2.33539 6.23865 0)
(-1.89424 6.98788 0)
(-3.40109 5.70217 0)
(-2.80261 6.5504 0)
(-4.30132 4.80355 0)
(-3.85176 5.76279 0)
(-4.93914 3.50206 0)
(-4.5761 4.52826 0)
(-5.21006 1.84959 0)
(-4.96507 2.85914 0)
(-5.04394 -0.00752566 0)
(-4.86593 0.858925 0)
(-4.45707 -1.81492 0)
(-4.34663 -1.21661 0)
(-3.59281 -3.33422 0)
(-3.55745 -3.0218 0)
(-2.57087 -4.45793 0)
(-2.57826 -4.40189 0)
(-1.48632 -5.17357 0)
(-1.52345 -5.32212 0)
(-0.41242 -5.51754 0)
(-0.457544 -5.8202 0)
(0.610152 -5.56403 0)
(0.551279 -5.96337 0)
(1.57572 -5.40706 0)
(1.50652 -5.85705 0)
(2.47156 -5.11751 0)
(2.40093 -5.58768 0)
(3.28853 -4.74366 0)
(3.21894 -5.21118 0)
(4.02463 -4.32374 0)
(3.95665 -4.77288 0)
(4.68253 -3.88725 0)
(4.6161 -4.30798 0)
(5.26733 -3.45567 0)
(5.20237 -3.84234 0)
(5.78529 -3.04358 0)
(5.72187 -3.39374 0)
(6.24293 -2.65994 0)
(6.18131 -2.97344 0)
(6.64654 -2.30942 0)
(6.58714 -2.58761 0)
(7.00197 -1.99356 0)
(6.9453 -2.23876 0)
(7.31444 -1.71175 0)
(7.26103 -1.92678 0)
(7.58855 -1.46201 0)
(7.53893 -1.6499 0)
(7.82828 -1.24151 0)
(7.78294 -1.40531 0)
(8.03701 -1.04701 0)
(7.99642 -1.18966 0)
(8.21757 -0.875132 0)