/*--------------------------------*- C++ -*----------------------------------*\
  =========                 |
  \\      /  F ield         | OpenFOAM: The Open Source CFD Toolbox
   \\    /   O peration     | Website:  https://openfoam.org
    \\  /    A nd           | Version:  7
     \\/     M anipulation  |
\*---------------------------------------------------------------------------*/
FoamFile
{
    version     2.0;
    format      ascii;
    class       surfaceScalarField;
    location    "0.9";
    object      phi;
}
// * * * * * * * * * * * * * * * * * * * * * * * * * * * * * * * * * * * * * //

dimensions      [1 0 -1 0 0 0 0];

internalField   nonuniform List<scalar> 
23692
(
1.16344e-05
5.70061e-10
1.16328e-05
1.57072e-09
1.16296e-05
3.23887e-09
1.16239e-05
5.65895e-09
1.16152e-05
8.68449e-09
1.16033e-05
1.19383e-08
1.15883e-05
1.49544e-08
1.1571e-05
1.73509e-08
1.1552e-05
1.89425e-08
1.15323e-05
1.97551e-08
1.15123e-05
1.99599e-08
1.14925e-05
1.97866e-08
1.14731e-05
1.94451e-08
1.1454e-05
1.90876e-08
1.14352e-05
1.88002e-08
1.14166e-05
1.86146e-08
1.13981e-05
1.85281e-08
1.13795e-05
1.8522e-08
1.1361e-05
1.85734e-08
1.13423e-05
1.86625e-08
1.13235e-05
1.87751e-08
1.13046e-05
1.89021e-08
1.12856e-05
1.90395e-08
1.12664e-05
1.91856e-08
1.12471e-05
1.93411e-08
1.12276e-05
1.95075e-08
1.12079e-05
1.96863e-08
1.1188e-05
1.98799e-08
1.11679e-05
2.00893e-08
1.11476e-05
2.03164e-08
1.1127e-05
2.05626e-08
1.11062e-05
2.0829e-08
1.10851e-05
2.11164e-08
1.10636e-05
2.14255e-08
1.10419e-05
2.17573e-08
1.10198e-05
2.21125e-08
1.09973e-05
2.2492e-08
1.09744e-05
2.28967e-08
1.09511e-05
2.33277e-08
1.09273e-05
2.37863e-08
1.0903e-05
2.42746e-08
1.08782e-05
2.47941e-08
1.08529e-05
2.53474e-08
1.08269e-05
2.59374e-08
1.08004e-05
2.65676e-08
1.07731e-05
2.72419e-08
1.07451e-05
2.79654e-08
1.07164e-05
2.87433e-08
1.06868e-05
2.95825e-08
1.06563e-05
3.04905e-08
1.06249e-05
3.14762e-08
1.05923e-05
3.25501e-08
1.05586e-05
3.37244e-08
1.05236e-05
3.50134e-08
1.04871e-05
3.6434e-08
1.04491e-05
3.80062e-08
1.04094e-05
3.97539e-08
1.03677e-05
4.17056e-08
1.03238e-05
4.38957e-08
1.02774e-05
4.6366e-08
1.02282e-05
4.91678e-08
1.01759e-05
5.23642e-08
1.01198e-05
5.60343e-08
1.00596e-05
6.02774e-08
9.99434e-06
6.52205e-08
9.92331e-06
7.10274e-08
9.8454e-06
7.79127e-08
9.75923e-06
8.61615e-08
9.66308e-06
9.6158e-08
9.55465e-06
1.0843e-07
9.43093e-06
1.23713e-07
9.28788e-06
1.43052e-07
9.11992e-06
1.67959e-07
8.91926e-06
2.0066e-07
8.67478e-06
2.44482e-07
8.37031e-06
3.04475e-07
7.98196e-06
3.88342e-07
7.474e-06
5.07963e-07
6.79099e-06
6.83014e-07
5.84115e-06
9.49833e-07
1.40489e-06
4.43627e-06
1.24493e-05
1.15963e-09
1.24477e-05
3.22724e-09
1.24442e-05
6.66631e-09
1.24382e-05
1.16595e-08
1.2429e-05
1.79094e-08
1.24163e-05
2.46384e-08
1.24004e-05
3.08817e-08
1.23819e-05
3.58482e-08
1.23617e-05
3.91538e-08
1.23406e-05
4.08474e-08
1.23193e-05
4.12831e-08
1.22981e-05
4.09327e-08
1.22773e-05
4.02319e-08
1.22569e-05
3.94953e-08
1.22368e-05
3.89012e-08
1.22169e-05
3.85162e-08
1.21971e-05
3.83356e-08
1.21773e-05
3.83207e-08
1.21575e-05
3.84249e-08
1.21375e-05
3.86072e-08
1.21175e-05
3.88384e-08
1.20973e-05
3.91002e-08
1.20769e-05
3.93832e-08
1.20564e-05
3.96849e-08
1.20358e-05
4.00063e-08
1.20149e-05
4.035e-08
1.19939e-05
4.072e-08
1.19726e-05
4.11201e-08
1.19512e-05
4.15535e-08
1.19295e-05
4.20236e-08
1.19075e-05
4.25329e-08
1.18852e-05
4.30835e-08
1.18627e-05
4.36776e-08
1.18398e-05
4.43167e-08
1.18165e-05
4.50026e-08
1.17929e-05
4.57368e-08
1.17689e-05
4.65211e-08
1.17444e-05
4.73573e-08
1.17195e-05
4.82478e-08
1.16941e-05
4.91954e-08
1.16682e-05
5.02033e-08
1.16417e-05
5.12761e-08
1.16146e-05
5.24183e-08
1.15869e-05
5.3636e-08
1.15586e-05
5.49363e-08
1.15295e-05
5.63275e-08
1.14996e-05
5.78195e-08
1.14689e-05
5.94237e-08
1.14374e-05
6.11535e-08
1.14048e-05
6.30246e-08
1.13712e-05
6.50551e-08
1.13365e-05
6.72664e-08
1.13006e-05
6.96834e-08
1.12633e-05
7.23352e-08
1.12244e-05
7.52562e-08
1.11839e-05
7.8487e-08
1.11416e-05
8.20761e-08
1.10973e-05
8.6081e-08
1.10506e-05
9.05713e-08
1.10013e-05
9.56311e-08
1.09491e-05
1.01363e-07
1.08936e-05
1.07894e-07
1.08342e-05
1.15381e-07
1.07705e-05
1.24022e-07
1.07016e-05
1.34066e-07
1.06268e-05
1.45835e-07
1.0545e-05
1.59746e-07
1.04548e-05
1.76348e-07
1.03546e-05
1.96373e-07
1.02422e-05
2.20811e-07
1.01149e-05
2.51023e-07
9.96907e-06
2.88896e-07
9.79994e-06
3.37089e-07
9.60123e-06
3.99372e-07
9.3646e-06
4.8111e-07
9.07919e-06
5.89886e-07
8.73145e-06
7.36074e-07
8.30644e-06
9.32975e-07
7.79345e-06
1.19601e-06
7.20886e-06
1.53442e-06
1.89701e-06
6.71674e-06
1.33214e-05
1.76916e-09
1.33196e-05
4.96375e-09
1.3316e-05
1.02649e-08
1.33097e-05
1.79717e-08
1.33e-05
2.76329e-08
1.32866e-05
3.80512e-08
1.32697e-05
4.77361e-08
1.32501e-05
5.54609e-08
1.32286e-05
6.06227e-08
1.32062e-05
6.32899e-08
1.31835e-05
6.40043e-08
1.31609e-05
6.34919e-08
1.31387e-05
6.24255e-08
1.31169e-05
6.12944e-08
1.30955e-05
6.03763e-08
1.30742e-05
5.97763e-08
1.3053e-05
5.94907e-08
1.30319e-05
5.94609e-08
1.30107e-05
5.96156e-08
1.29894e-05
5.98925e-08
1.2968e-05
6.02461e-08
1.29465e-05
6.06481e-08
1.29248e-05
6.10846e-08
1.29029e-05
6.15509e-08
1.28809e-05
6.20484e-08
1.28586e-05
6.25813e-08
1.28362e-05
6.31552e-08
1.28135e-05
6.37758e-08
1.27906e-05
6.44485e-08
1.27675e-05
6.51777e-08
1.27441e-05
6.59678e-08
1.27203e-05
6.6822e-08
1.26963e-05
6.77432e-08
1.26718e-05
6.87342e-08
1.2647e-05
6.97973e-08
1.26218e-05
7.09348e-08
1.25962e-05
7.21495e-08
1.25701e-05
7.34442e-08
1.25436e-05
7.48227e-08
1.25165e-05
7.62891e-08
1.24888e-05
7.78488e-08
1.24606e-05
7.95076e-08
1.24317e-05
8.12737e-08
1.24022e-05
8.31559e-08
1.2372e-05
8.51649e-08
1.2341e-05
8.73138e-08
1.23092e-05
8.96173e-08
1.22765e-05
9.2093e-08
1.22429e-05
9.47614e-08
1.22083e-05
9.7646e-08
1.21726e-05
1.00775e-07
1.21357e-05
1.0418e-07
1.20974e-05
1.079e-07
1.20578e-05
1.11978e-07
1.20166e-05
1.16466e-07
1.19737e-05
1.21425e-07
1.19288e-05
1.26929e-07
1.18818e-05
1.33063e-07
1.18325e-05
1.39931e-07
1.17804e-05
1.47658e-07
1.17254e-05
1.56396e-07
1.1667e-05
1.66331e-07
1.16047e-05
1.77693e-07
1.15379e-05
1.90768e-07
1.14661e-05
2.05916e-07
1.13883e-05
2.23595e-07
1.13036e-05
2.44389e-07
1.12109e-05
2.69061e-07
1.11087e-05
2.98607e-07
1.09952e-05
3.34345e-07
1.08682e-05
3.78038e-07
1.0725e-05
4.32057e-07
1.05625e-05
4.99594e-07
1.03769e-05
5.84938e-07
1.01643e-05
6.9375e-07
9.92095e-06
8.33219e-07
9.64535e-06
1.01167e-06
9.34153e-06
1.2368e-06
9.0268e-06
1.51074e-06
8.74554e-06
1.81568e-06
2.07554e-06
8.56701e-06
1.42545e-05
2.39914e-09
1.42527e-05
6.77003e-09
1.42489e-05
1.40089e-08
1.42424e-05
2.45499e-08
1.42322e-05
3.77881e-08
1.42182e-05
5.20971e-08
1.42005e-05
6.54382e-08
1.41798e-05
7.61225e-08
1.41571e-05
8.33087e-08
1.41333e-05
8.7073e-08
1.41092e-05
8.81428e-08
1.40852e-05
8.75067e-08
1.40615e-05
8.60855e-08
1.40383e-05
8.45527e-08
1.40153e-05
8.32955e-08
1.39926e-05
8.24646e-08
1.39701e-05
8.20592e-08
1.39475e-05
8.20036e-08
1.3925e-05
8.22023e-08
1.39023e-05
8.25708e-08
1.38795e-05
8.30473e-08
1.38565e-05
8.35937e-08
1.38334e-05
8.41898e-08
1.38101e-05
8.48289e-08
1.37867e-05
8.55125e-08
1.3763e-05
8.62463e-08
1.37391e-05
8.70375e-08
1.3715e-05
8.78934e-08
1.36906e-05
8.88215e-08
1.3666e-05
8.98275e-08
1.3641e-05
9.0917e-08
1.36158e-05
9.20946e-08
1.35902e-05
9.33643e-08
1.35642e-05
9.47291e-08
1.35378e-05
9.61928e-08
1.35109e-05
9.77583e-08
1.34837e-05
9.94292e-08
1.34559e-05
1.0121e-07
1.34276e-05
1.03104e-07
1.33988e-05
1.05119e-07
1.33694e-05
1.0726e-07
1.33393e-05
1.09537e-07
1.33087e-05
1.1196e-07
1.32773e-05
1.14541e-07
1.32451e-05
1.17295e-07
1.32122e-05
1.20239e-07
1.31784e-05
1.23392e-07
1.31437e-05
1.2678e-07
1.31081e-05
1.30428e-07
1.30714e-05
1.3437e-07
1.30335e-05
1.38642e-07
1.29944e-05
1.43287e-07
1.29539e-05
1.48356e-07
1.2912e-05
1.53907e-07
1.28685e-05
1.60008e-07
1.28231e-05
1.66742e-07
1.27759e-05
1.74203e-07
1.27264e-05
1.82505e-07
1.26746e-05
1.91781e-07
1.262e-05
2.02195e-07
1.25625e-05
2.13942e-07
1.25016e-05
2.27258e-07
1.24368e-05
2.42435e-07
1.23678e-05
2.59831e-07
1.22938e-05
2.7989e-07
1.22142e-05
3.03169e-07
1.21282e-05
3.30369e-07
1.20349e-05
3.62383e-07
1.19332e-05
4.00351e-07
1.18218e-05
4.45737e-07
1.16994e-05
5.00431e-07
1.15646e-05
5.66859e-07
1.1416e-05
6.48117e-07
1.12529e-05
7.48066e-07
1.10753e-05
8.71322e-07
1.08856e-05
1.02293e-06
1.069e-05
1.2073e-06
1.05011e-05
1.42571e-06
1.03407e-05
1.67116e-06
1.02378e-05
1.91858e-06
2.11011e-06
1.02032e-05
1.5253e-05
3.04858e-09
1.52511e-05
8.63397e-09
1.52473e-05
1.78647e-08
1.52405e-05
3.13309e-08
1.523e-05
4.82826e-08
1.52154e-05
6.66625e-08
1.5197e-05
8.38695e-08
1.51754e-05
9.77291e-08
1.51515e-05
1.07136e-07
1.51265e-05
1.12157e-07
1.51009e-05
1.13697e-07
1.50754e-05
1.13006e-07
1.50502e-05
1.11261e-07
1.50255e-05
1.09333e-07
1.5001e-05
1.07726e-07
1.49768e-05
1.06647e-07
1.49528e-05
1.06102e-07
1.49288e-05
1.06004e-07
1.49048e-05
1.06234e-07
1.48807e-05
1.06686e-07
1.48564e-05
1.07283e-07
1.4832e-05
1.07974e-07
1.48075e-05
1.08734e-07
1.47828e-05
1.09553e-07
1.47578e-05
1.10433e-07
1.47327e-05
1.1138e-07
1.47074e-05
1.12402e-07
1.46817e-05
1.13509e-07
1.46558e-05
1.14709e-07
1.46297e-05
1.1601e-07
1.46032e-05
1.17419e-07
1.45763e-05
1.1894e-07
1.45491e-05
1.2058e-07
1.45215e-05
1.22341e-07
1.44935e-05
1.24229e-07
1.4465e-05
1.26247e-07
1.4436e-05
1.28399e-07
1.44065e-05
1.30691e-07
1.43765e-05
1.33129e-07
1.43459e-05
1.35719e-07
1.43147e-05
1.38471e-07
1.42828e-05
1.41395e-07
1.42503e-05
1.44505e-07
1.4217e-05
1.47815e-07
1.4183e-05
1.51344e-07
1.41481e-05
1.55115e-07
1.41123e-05
1.59151e-07
1.40756e-05
1.63482e-07
1.40379e-05
1.68143e-07
1.39991e-05
1.73174e-07
1.39591e-05
1.78619e-07
1.39179e-05
1.84534e-07
1.38752e-05
1.90979e-07
1.38311e-05
1.98028e-07
1.37854e-05
2.05763e-07
1.37378e-05
2.14283e-07
1.36883e-05
2.23704e-07
1.36367e-05
2.34162e-07
1.35826e-05
2.45818e-07
1.3526e-05
2.58864e-07
1.34664e-05
2.73529e-07
1.34036e-05
2.90089e-07
1.33371e-05
3.08877e-07
1.32666e-05
3.30299e-07
1.31917e-05
3.54849e-07
1.31117e-05
3.83135e-07
1.30262e-05
4.15906e-07
1.29345e-05
4.54087e-07
1.2836e-05
4.98827e-07
1.27302e-05
5.51546e-07
1.26166e-05
6.13989e-07
1.24952e-05
6.88282e-07
1.23664e-05
7.76944e-07
1.22316e-05
8.82834e-07
1.2094e-05
1.00893e-06
1.19592e-05
1.15776e-06
1.18362e-05
1.33025e-06
1.17384e-05
1.52354e-06
1.1682e-05
1.72758e-06
1.16801e-05
1.92049e-06
2.06505e-06
1.17251e-05
1.63214e-05
3.71675e-09
1.63195e-05
1.0539e-08
1.63156e-05
2.17911e-08
1.63087e-05
3.82369e-08
1.62979e-05
5.90001e-08
1.6283e-05
8.16024e-08
1.6264e-05
1.02875e-07
1.62416e-05
1.20138e-07
1.62167e-05
1.31994e-07
1.61904e-05
1.38472e-07
1.61635e-05
1.40638e-07
1.61365e-05
1.39998e-07
1.61098e-05
1.37989e-07
1.60834e-05
1.35686e-07
1.60574e-05
1.33726e-07
1.60317e-05
1.32379e-07
1.60061e-05
1.31672e-07
1.59806e-05
1.31508e-07
1.59551e-05
1.31751e-07
1.59295e-05
1.32274e-07
1.59038e-05
1.32982e-07
1.5878e-05
1.33815e-07
1.58519e-05
1.34741e-07
1.58258e-05
1.35747e-07
1.57994e-05
1.36831e-07
1.57727e-05
1.38003e-07
1.57459e-05
1.3927e-07
1.57187e-05
1.40644e-07
1.56913e-05
1.42134e-07
1.56636e-05
1.43749e-07
1.56355e-05
1.45497e-07
1.5607e-05
1.47383e-07
1.55782e-05
1.49415e-07
1.5549e-05
1.51595e-07
1.55193e-05
1.5393e-07
1.54891e-05
1.56424e-07
1.54584e-05
1.59081e-07
1.54272e-05
1.61909e-07
1.53954e-05
1.64914e-07
1.5363e-05
1.68105e-07
1.533e-05
1.71492e-07
1.52963e-05
1.75088e-07
1.52619e-05
1.78909e-07
1.52267e-05
1.82973e-07
1.51908e-05
1.87303e-07
1.5154e-05
1.91923e-07
1.51163e-05
1.96863e-07
1.50776e-05
2.0216e-07
1.50379e-05
2.07853e-07
1.4997e-05
2.13988e-07
1.4955e-05
2.20621e-07
1.49118e-05
2.27813e-07
1.48671e-05
2.35637e-07
1.4821e-05
2.44177e-07
1.47732e-05
2.53528e-07
1.47237e-05
2.63804e-07
1.46722e-05
2.75136e-07
1.46187e-05
2.87677e-07
1.45629e-05
3.01608e-07
1.45047e-05
3.1714e-07
1.44437e-05
3.34524e-07
1.43797e-05
3.54057e-07
1.43125e-05
3.76092e-07
1.42417e-05
4.01051e-07
1.41671e-05
4.29437e-07
1.40884e-05
4.61855e-07
1.40053e-05
4.99028e-07
1.39176e-05
5.41821e-07
1.38251e-05
5.91263e-07
1.37281e-05
6.4857e-07
1.36269e-05
7.1515e-07
1.35226e-05
7.92598e-07
1.34169e-05
8.8263e-07
1.33128e-05
9.86943e-07
1.32148e-05
1.10691e-06
1.31296e-05
1.24304e-06
1.30658e-05
1.39405e-06
1.30338e-05
1.55546e-06
1.30436e-05
1.71785e-06
1.30988e-05
1.86529e-06
1.97561e-06
1.31882e-05
1.74647e-05
4.40076e-09
1.74627e-05
1.24686e-08
1.74588e-05
2.57414e-08
1.74518e-05
4.51795e-08
1.7441e-05
6.98057e-08
1.74259e-05
9.67445e-08
1.74065e-05
1.22266e-07
1.73835e-05
1.43169e-07
1.73577e-05
1.57733e-07
1.73303e-05
1.65914e-07
1.7302e-05
1.68909e-07
1.72736e-05
1.68468e-07
1.72453e-05
1.66284e-07
1.72173e-05
1.63647e-07
1.71897e-05
1.61338e-07
1.71624e-05
1.59707e-07
1.71352e-05
1.58811e-07
1.71082e-05
1.58553e-07
1.70811e-05
1.58782e-07
1.70541e-05
1.59354e-07
1.70269e-05
1.60161e-07
1.69996e-05
1.6113e-07
1.69721e-05
1.62221e-07
1.69444e-05
1.63417e-07
1.69165e-05
1.64716e-07
1.68884e-05
1.66123e-07
1.686e-05
1.6765e-07
1.68314e-05
1.69307e-07
1.68024e-05
1.71105e-07
1.67731e-05
1.73053e-07
1.67434e-05
1.7516e-07
1.67134e-05
1.77432e-07
1.66829e-05
1.79876e-07
1.6652e-05
1.82498e-07
1.66207e-05
1.85301e-07
1.65888e-05
1.88292e-07
1.65564e-05
1.91477e-07
1.65234e-05
1.94862e-07
1.64899e-05
1.98455e-07
1.64557e-05
2.02266e-07
1.64209e-05
2.06308e-07
1.63854e-05
2.10595e-07
1.63492e-05
2.15145e-07
1.63122e-05
2.19979e-07
1.62743e-05
2.25123e-07
1.62357e-05
2.30605e-07
1.61961e-05
2.3646e-07
1.61555e-05
2.42727e-07
1.61139e-05
2.49453e-07
1.60712e-05
2.5669e-07
1.60273e-05
2.64499e-07
1.59822e-05
2.7295e-07
1.59357e-05
2.82122e-07
1.58878e-05
2.92108e-07
1.58383e-05
3.03014e-07
1.57871e-05
3.14962e-07
1.57342e-05
3.28094e-07
1.56793e-05
3.42572e-07
1.56223e-05
3.58587e-07
1.55631e-05
3.76357e-07
1.55015e-05
3.9614e-07
1.54373e-05
4.18232e-07
1.53704e-05
4.42983e-07
1.53006e-05
4.70797e-07
1.52279e-05
5.02146e-07
1.51522e-05
5.37578e-07
1.50735e-05
5.77726e-07
1.4992e-05
6.23316e-07
1.49081e-05
6.75168e-07
1.48225e-05
7.34191e-07
1.47363e-05
8.01361e-07
1.46512e-05
8.7767e-07
1.45698e-05
9.64033e-07
1.44956e-05
1.06112e-06
1.44334e-05
1.1691e-06
1.43893e-05
1.28722e-06
1.43701e-05
1.41321e-06
1.43829e-05
1.54261e-06
1.44327e-05
1.66804e-06
1.4519e-05
1.77899e-06
1.86282e-06
1.46318e-05
1.8688e-05
5.09768e-09
1.86861e-05
1.44049e-08
1.86822e-05
2.96685e-08
1.86753e-05
5.20651e-08
1.86645e-05
8.05553e-08
1.86494e-05
1.11902e-07
1.86298e-05
1.41833e-07
1.86063e-05
1.66616e-07
1.85799e-05
1.84173e-07
1.85515e-05
1.94345e-07
1.8522e-05
1.98422e-07
1.84921e-05
1.98371e-07
1.84622e-05
1.96136e-07
1.84326e-05
1.93228e-07
1.84034e-05
1.90587e-07
1.83744e-05
1.88659e-07
1.83457e-05
1.87544e-07
1.83171e-05
1.87157e-07
1.82885e-05
1.8734e-07
1.826e-05
1.87937e-07
1.82313e-05
1.88825e-07
1.82025e-05
1.89918e-07
1.81736e-05
1.9117e-07
1.81444e-05
1.92558e-07
1.8115e-05
1.94077e-07
1.80854e-05
1.95732e-07
1.80556e-05
1.97533e-07
1.80254e-05
1.99489e-07
1.79949e-05
2.01613e-07
1.7964e-05
2.03913e-07
1.79328e-05
2.06398e-07
1.79011e-05
2.09077e-07
1.7869e-05
2.11954e-07
1.78365e-05
2.15036e-07
1.78035e-05
2.18327e-07
1.77699e-05
2.21835e-07
1.77359e-05
2.25564e-07
1.77012e-05
2.29523e-07
1.76659e-05
2.3372e-07
1.763e-05
2.38166e-07
1.75935e-05
2.42875e-07
1.75562e-05
2.47863e-07
1.75182e-05
2.5315e-07
1.74794e-05
2.58759e-07
1.74398e-05
2.64718e-07
1.73994e-05
2.7106e-07
1.7358e-05
2.77821e-07
1.73157e-05
2.85046e-07
1.72723e-05
2.92785e-07
1.72279e-05
3.01093e-07
1.71824e-05
3.10038e-07
1.71357e-05
3.19693e-07
1.70876e-05
3.30143e-07
1.70383e-05
3.41486e-07
1.69874e-05
3.53832e-07
1.69351e-05
3.67308e-07
1.68811e-05
3.82057e-07
1.68255e-05
3.98245e-07
1.6768e-05
4.16057e-07
1.67086e-05
4.3571e-07
1.66473e-05
4.57448e-07
1.6584e-05
4.81549e-07
1.65187e-05
5.08331e-07
1.64513e-05
5.38152e-07
1.6382e-05
5.71415e-07
1.6311e-05
6.08573e-07
1.62387e-05
6.50119e-07
1.61654e-05
6.96593e-07
1.6092e-05
7.4856e-07
1.60196e-05
8.06592e-07
1.59497e-05
8.71228e-07
1.58845e-05
9.42916e-07
1.58266e-05
1.02191e-06
1.57795e-05
1.10816e-06
1.57476e-05
1.20108e-06
1.57354e-05
1.29934e-06
1.57481e-05
1.40056e-06
1.57897e-05
1.501e-06
1.58623e-05
1.59545e-06
1.59639e-05
1.67735e-06
1.7397e-06
1.6087e-05
1.99971e-05
5.80607e-09
1.99951e-05
1.63316e-08
1.99913e-05
3.35282e-08
1.99845e-05
5.88066e-08
1.9974e-05
9.11096e-08
1.9959e-05
1.26889e-07
1.99395e-05
1.6136e-07
1.99158e-05
1.90257e-07
1.98889e-05
2.11113e-07
1.98596e-05
2.236e-07
1.9829e-05
2.29055e-07
1.97977e-05
2.29627e-07
1.97664e-05
2.27502e-07
1.97352e-05
2.24412e-07
1.97043e-05
2.21472e-07
1.96737e-05
2.19239e-07
1.96434e-05
2.17878e-07
1.96132e-05
2.17324e-07
1.95831e-05
2.17425e-07
1.95531e-05
2.18015e-07
1.95229e-05
2.1896e-07
1.94927e-05
2.20163e-07
1.94623e-05
2.21569e-07
1.94317e-05
2.2315e-07
1.94009e-05
2.24895e-07
1.93698e-05
2.26807e-07
1.93384e-05
2.28894e-07
1.93068e-05
2.31165e-07
1.92748e-05
2.33631e-07
1.92424e-05
2.36301e-07
1.92096e-05
2.39184e-07
1.91764e-05
2.42287e-07
1.91427e-05
2.45615e-07
1.91086e-05
2.49174e-07
1.90739e-05
2.5297e-07
1.90388e-05
2.57007e-07
1.9003e-05
2.61294e-07
1.89667e-05
2.65837e-07
1.89298e-05
2.70646e-07
1.88922e-05
2.75733e-07
1.8854e-05
2.81111e-07
1.8815e-05
2.868e-07
1.87754e-05
2.92819e-07
1.87349e-05
2.99193e-07
1.86937e-05
3.05954e-07
1.86516e-05
3.13134e-07
1.86087e-05
3.20773e-07
1.85648e-05
3.28918e-07
1.852e-05
3.37621e-07
1.84741e-05
3.46941e-07
1.84272e-05
3.56945e-07
1.83792e-05
3.6771e-07
1.833e-05
3.79323e-07
1.82796e-05
3.91882e-07
1.8228e-05
4.05494e-07
1.8175e-05
4.20286e-07
1.81206e-05
4.36395e-07
1.80649e-05
4.53977e-07
1.80078e-05
4.73208e-07
1.79492e-05
4.94282e-07
1.78892e-05
5.17418e-07
1.78279e-05
5.42855e-07
1.77654e-05
5.70859e-07
1.77018e-05
6.01718e-07
1.76375e-05
6.35742e-07
1.75728e-05
6.73259e-07
1.75083e-05
7.14606e-07
1.74448e-05
7.60117e-07
1.73832e-05
8.10104e-07
1.7325e-05
8.64829e-07
1.72718e-05
9.24463e-07
1.72257e-05
9.89034e-07
1.71892e-05
1.05835e-06
1.71654e-05
1.13193e-06
1.71577e-05
1.20885e-06
1.71694e-05
1.28767e-06
1.72036e-05
1.36631e-06
1.72626e-05
1.44196e-06
1.73469e-05
1.51115e-06
1.74543e-05
1.56997e-06
1.61458e-06
1.75794e-05
2.13978e-05
6.52369e-09
2.13959e-05
1.8239e-08
2.13921e-05
3.72863e-08
2.13856e-05
6.53324e-08
2.13754e-05
1.0135e-07
2.13607e-05
1.41539e-07
2.13414e-05
1.80645e-07
2.13178e-05
2.13876e-07
2.12906e-05
2.38341e-07
2.12607e-05
2.53493e-07
2.12291e-05
2.60656e-07
2.11966e-05
2.62124e-07
2.11638e-05
2.60302e-07
2.11311e-05
2.57146e-07
2.10986e-05
2.53957e-07
2.10664e-05
2.51424e-07
2.10345e-05
2.49792e-07
2.10028e-05
2.49036e-07
2.09712e-05
2.49016e-07
2.09396e-05
2.49565e-07
2.0908e-05
2.5054e-07
2.08764e-05
2.51836e-07
2.08446e-05
2.53387e-07
2.08126e-05
2.55157e-07
2.07803e-05
2.57132e-07
2.07478e-05
2.59309e-07
2.0715e-05
2.61694e-07
2.06819e-05
2.64294e-07
2.06484e-05
2.67118e-07
2.06145e-05
2.70174e-07
2.05802e-05
2.7347e-07
2.05455e-05
2.77012e-07
2.05103e-05
2.80804e-07
2.04746e-05
2.84853e-07
2.04385e-05
2.89163e-07
2.04017e-05
2.9374e-07
2.03644e-05
2.98589e-07
2.03265e-05
3.03719e-07
2.0288e-05
3.09138e-07
2.02489e-05
3.1486e-07
2.02091e-05
3.20899e-07
2.01687e-05
3.27273e-07
2.01275e-05
3.34003e-07
2.00856e-05
3.41117e-07
2.00429e-05
3.48643e-07
1.99994e-05
3.56618e-07
1.99551e-05
3.65082e-07
1.99099e-05
3.74081e-07
1.98639e-05
3.83668e-07
1.98169e-05
3.93902e-07
1.9769e-05
4.0485e-07
1.97201e-05
4.16587e-07
1.96702e-05
4.29196e-07
1.96194e-05
4.42771e-07
1.95674e-05
4.57414e-07
1.95145e-05
4.7324e-07
1.94605e-05
4.90375e-07
1.94055e-05
5.08957e-07
1.93496e-05
5.29138e-07
1.92928e-05
5.51081e-07
1.92352e-05
5.74965e-07
1.91771e-05
6.00977e-07
1.91187e-05
6.29315e-07
1.90602e-05
6.60184e-07
1.90021e-05
6.93789e-07
1.89451e-05
7.30327e-07
1.88897e-05
7.69978e-07
1.88369e-05
8.12888e-07
1.87879e-05
8.59152e-07
1.87439e-05
9.08784e-07
1.87067e-05
9.61688e-07
1.86781e-05
1.01762e-06
1.86603e-05
1.07615e-06
1.86557e-05
1.13659e-06
1.86665e-05
1.19798e-06
1.86952e-05
1.25903e-06
1.87434e-05
1.31809e-06
1.88122e-05
1.37319e-06
1.89012e-05
1.42212e-06
1.90086e-05
1.46261e-06
1.49257e-06
1.91306e-05
2.28967e-05
7.25212e-09
2.28948e-05
2.0121e-08
2.28911e-05
4.09246e-08
2.28849e-05
7.15973e-08
2.2875e-05
1.11193e-07
2.28608e-05
1.55725e-07
2.2842e-05
1.99525e-07
2.28186e-05
2.37282e-07
2.27912e-05
2.65658e-07
2.27609e-05
2.83829e-07
2.27285e-05
2.93051e-07
2.26949e-05
2.95715e-07
2.26608e-05
2.94418e-07
2.26266e-05
2.91338e-07
2.25926e-05
2.87971e-07
2.25589e-05
2.85158e-07
2.25254e-05
2.8324e-07
2.24922e-05
2.82251e-07
2.24591e-05
2.82073e-07
2.24262e-05
2.82548e-07
2.23932e-05
2.83525e-07
2.23601e-05
2.84894e-07
2.23269e-05
2.86578e-07
2.22936e-05
2.88533e-07
2.22599e-05
2.90739e-07
2.22261e-05
2.93187e-07
2.21919e-05
2.95879e-07
2.21574e-05
2.98819e-07
2.21225e-05
3.02013e-07
2.20872e-05
3.05468e-07
2.20515e-05
3.09188e-07
2.20153e-05
3.13179e-07
2.19786e-05
3.17446e-07
2.19415e-05
3.2199e-07
2.19038e-05
3.26818e-07
2.18657e-05
3.31933e-07
2.18269e-05
3.3734e-07
2.17876e-05
3.43048e-07
2.17477e-05
3.49065e-07
2.17071e-05
3.55403e-07
2.16659e-05
3.62077e-07
2.16241e-05
3.69104e-07
2.15816e-05
3.76507e-07
2.15384e-05
3.84311e-07
2.14945e-05
3.92545e-07
2.14499e-05
4.01245e-07
2.14045e-05
4.1045e-07
2.13584e-05
4.20205e-07
2.13115e-05
4.3056e-07
2.12638e-05
4.41572e-07
2.12154e-05
4.53304e-07
2.11661e-05
4.65825e-07
2.11161e-05
4.79211e-07
2.10653e-05
4.93546e-07
2.10138e-05
5.08921e-07
2.09616e-05
5.25435e-07
2.09088e-05
5.43192e-07
2.08555e-05
5.62307e-07
2.08017e-05
5.82898e-07
2.07477e-05
6.05091e-07
2.06936e-05
6.29012e-07
2.06398e-05
6.5479e-07
2.05866e-05
6.82552e-07
2.05344e-05
7.12413e-07
2.04837e-05
7.44475e-07
2.04352e-05
7.78817e-07
2.03897e-05
8.15482e-07
2.03481e-05
8.54464e-07
2.03116e-05
8.95694e-07
2.02813e-05
9.39018e-07
2.02588e-05
9.8418e-07
2.02457e-05
1.0308e-06
2.02435e-05
1.07835e-06
2.02539e-05
1.12613e-06
2.02786e-05
1.17328e-06
2.03189e-05
1.21875e-06
2.03756e-05
1.26135e-06
2.04491e-05
1.29975e-06
2.05386e-05
1.33258e-06
2.06427e-05
1.35855e-06
1.37656e-06
2.07587e-05
2.45005e-05
7.99269e-09
2.44986e-05
2.19814e-08
2.44951e-05
4.44422e-08
2.44891e-05
7.75883e-08
2.44797e-05
1.20602e-07
2.44661e-05
1.69378e-07
2.44477e-05
2.17886e-07
2.44247e-05
2.60325e-07
2.43974e-05
2.92885e-07
2.43668e-05
3.14418e-07
2.43338e-05
3.26051e-07
2.42993e-05
3.30223e-07
2.42641e-05
3.29696e-07
2.42285e-05
3.26856e-07
2.41931e-05
3.23405e-07
2.41579e-05
3.2035e-07
2.4123e-05
3.18147e-07
2.40884e-05
3.16902e-07
2.40539e-05
3.16538e-07
2.40195e-05
3.16906e-07
2.39852e-05
3.1786e-07
2.39508e-05
3.19281e-07
2.39163e-05
3.21085e-07
2.38816e-05
3.2322e-07
2.38467e-05
3.25655e-07
2.38115e-05
3.28377e-07
2.3776e-05
3.31382e-07
2.37402e-05
3.34669e-07
2.37039e-05
3.38241e-07
2.36673e-05
3.42101e-07
2.36302e-05
3.46252e-07
2.35927e-05
3.50696e-07
2.35547e-05
3.55437e-07
2.35162e-05
3.60475e-07
2.34772e-05
3.65813e-07
2.34377e-05
3.71455e-07
2.33977e-05
3.77405e-07
2.3357e-05
3.83669e-07
2.33158e-05
3.90255e-07
2.32741e-05
3.97174e-07
2.32317e-05
4.0444e-07
2.31887e-05
4.12069e-07
2.31452e-05
4.20082e-07
2.3101e-05
4.28503e-07
2.30562e-05
4.3736e-07
2.30107e-05
4.46686e-07
2.29647e-05
4.56516e-07
2.2918e-05
4.66893e-07
2.28707e-05
4.77862e-07
2.28228e-05
4.89474e-07
2.27743e-05
5.01784e-07
2.27253e-05
5.14853e-07
2.26757e-05
5.28745e-07
2.26257e-05
5.4353e-07
2.25754e-05
5.59282e-07
2.25247e-05
5.76079e-07
2.24739e-05
5.93999e-07
2.24231e-05
6.13126e-07
2.23725e-05
6.33542e-07
2.23222e-05
6.55326e-07
2.22727e-05
6.78555e-07
2.22242e-05
7.03296e-07
2.21771e-05
7.29604e-07
2.2132e-05
7.57516e-07
2.20894e-05
7.87044e-07
2.20501e-05
8.18169e-07
2.20147e-05
8.5083e-07
2.19843e-05
8.84915e-07
2.19597e-05
9.20251e-07
2.19422e-05
9.56592e-07
2.19327e-05
9.9361e-07
2.19326e-05
1.03089e-06
2.19431e-05
1.06791e-06
2.19652e-05
1.10406e-06
2.19998e-05
1.13863e-06
2.20477e-05
1.17084e-06
2.21092e-05
1.19987e-06
2.21841e-05
1.22485e-06
2.22717e-05
1.24497e-06
2.23707e-05
1.25951e-06
1.26793e-06
2.24794e-05
2.62167e-05
8.74964e-09
2.62148e-05
2.38303e-08
2.62114e-05
4.78567e-08
2.62057e-05
8.33256e-08
2.61967e-05
1.29589e-07
2.61836e-05
1.82485e-07
2.61658e-05
2.35681e-07
2.61432e-05
2.82911e-07
2.61162e-05
3.19885e-07
2.60855e-05
3.4509e-07
2.60521e-05
3.59467e-07
2.60169e-05
3.65457e-07
2.59806e-05
3.65951e-07
2.59439e-05
3.63534e-07
2.59072e-05
3.60115e-07
2.58707e-05
3.56875e-07
2.58344e-05
3.54406e-07
2.57984e-05
3.529e-07
2.57627e-05
3.52328e-07
2.5727e-05
3.52567e-07
2.56914e-05
3.53475e-07
2.56557e-05
3.54931e-07
2.562e-05
3.56842e-07
2.5584e-05
3.59147e-07
2.55479e-05
3.61808e-07
2.55115e-05
3.64804e-07
2.54747e-05
3.68122e-07
2.54376e-05
3.71758e-07
2.54002e-05
3.75709e-07
2.53623e-05
3.79974e-07
2.5324e-05
3.84553e-07
2.52852e-05
3.89445e-07
2.5246e-05
3.9465e-07
2.52063e-05
4.00168e-07
2.51662e-05
4.05998e-07
2.51255e-05
4.12143e-07
2.50843e-05
4.18604e-07
2.50426e-05
4.25386e-07
2.50003e-05
4.32496e-07
2.49575e-05
4.39942e-07
2.49142e-05
4.47735e-07
2.48704e-05
4.55892e-07
2.48261e-05
4.64429e-07
2.47812e-05
4.73367e-07
2.47358e-05
4.82732e-07
2.469e-05
4.92552e-07
2.46436e-05
5.02859e-07
2.45968e-05
5.13687e-07
2.45496e-05
5.25075e-07
2.4502e-05
5.37067e-07
2.44541e-05
5.49706e-07
2.44059e-05
5.63041e-07
2.43575e-05
5.77121e-07
2.43091e-05
5.92e-07
2.42606e-05
6.07729e-07
2.42123e-05
6.24361e-07
2.41644e-05
6.41948e-07
2.4117e-05
6.60539e-07
2.40703e-05
6.80177e-07
2.40248e-05
7.00898e-07
2.39806e-05
7.22728e-07
2.39382e-05
7.4568e-07
2.38981e-05
7.69747e-07
2.38607e-05
7.94901e-07
2.38267e-05
8.21086e-07
2.37966e-05
8.48214e-07
2.37713e-05
8.76155e-07
2.37515e-05
9.04737e-07
2.3738e-05
9.33738e-07
2.37317e-05
9.6288e-07
2.37335e-05
9.91828e-07
2.37442e-05
1.02019e-06
2.37645e-05
1.04752e-06
2.37953e-05
1.07333e-06
2.38368e-05
1.09708e-06
2.38894e-05
1.11822e-06
2.39531e-05
1.1362e-06
2.40275e-05
1.15049e-06
2.41118e-05
1.16063e-06
2.42051e-05
1.16623e-06
1.16704e-06
2.4306e-05
2.8053e-05
9.52756e-09
2.80512e-05
2.56827e-08
2.80478e-05
5.11995e-08
2.80423e-05
8.88567e-08
2.80337e-05
1.38208e-07
2.80211e-05
1.9509e-07
2.80039e-05
2.5292e-07
2.79818e-05
3.05003e-07
2.79551e-05
3.46567e-07
2.79245e-05
3.757e-07
2.78908e-05
3.93119e-07
2.78551e-05
4.01216e-07
2.7818e-05
4.02982e-07
2.77804e-05
4.01181e-07
2.77426e-05
3.97926e-07
2.77049e-05
3.94582e-07
2.76674e-05
3.91885e-07
2.76302e-05
3.90128e-07
2.75931e-05
3.89344e-07
2.75563e-05
3.89439e-07
2.75195e-05
3.90285e-07
2.74826e-05
3.9176e-07
2.74457e-05
3.93766e-07
2.74086e-05
3.96232e-07
2.73713e-05
3.99112e-07
2.73338e-05
4.02374e-07
2.72959e-05
4.06001e-07
2.72577e-05
4.0998e-07
2.72191e-05
4.14303e-07
2.71801e-05
4.18965e-07
2.71407e-05
4.23959e-07
2.71008e-05
4.29282e-07
2.70605e-05
4.34931e-07
2.70198e-05
4.40901e-07
2.69786e-05
4.4719e-07
2.6937e-05
4.53797e-07
2.68948e-05
4.60721e-07
2.68523e-05
4.67965e-07
2.68092e-05
4.75532e-07
2.67657e-05
4.83429e-07
2.67218e-05
4.91663e-07
2.66775e-05
5.00247e-07
2.66327e-05
5.09194e-07
2.65875e-05
5.18521e-07
2.6542e-05
5.28249e-07
2.64962e-05
5.38399e-07
2.645e-05
5.48997e-07
2.64037e-05
5.60069e-07
2.63571e-05
5.71646e-07
2.63104e-05
5.83758e-07
2.62637e-05
5.96438e-07
2.6217e-05
6.09719e-07
2.61705e-05
6.23634e-07
2.61243e-05
6.38215e-07
2.60785e-05
6.53492e-07
2.60334e-05
6.69492e-07
2.59891e-05
6.86237e-07
2.59459e-05
7.03744e-07
2.5904e-05
7.2202e-07
2.58639e-05
7.41061e-07
2.58257e-05
7.60851e-07
2.57901e-05
7.81357e-07
2.57573e-05
8.02527e-07
2.57279e-05
8.24286e-07
2.57024e-05
8.46534e-07
2.56815e-05
8.6914e-07
2.56657e-05
8.91944e-07
2.56557e-05
9.14749e-07
2.56521e-05
9.37325e-07
2.56556e-05
9.59407e-07
2.56667e-05
9.80693e-07
2.56861e-05
1.00085e-06
2.57141e-05
1.01953e-06
2.5751e-05
1.03637e-06
2.57971e-05
1.05097e-06
2.58524e-05
1.06298e-06
2.59165e-05
1.07205e-06
2.59891e-05
1.07787e-06
2.60696e-05
1.0802e-06
2.6157e-05
1.07884e-06
1.0737e-06
2.62503e-05
3.0018e-05
1.03314e-08
3.00162e-05
2.75566e-08
3.00129e-05
5.45091e-08
3.00075e-05
9.42453e-08
2.99991e-05
1.46541e-07
2.9987e-05
2.07274e-07
2.99702e-05
2.69661e-07
2.99486e-05
3.26611e-07
2.99223e-05
3.7288e-07
2.98919e-05
4.06142e-07
2.98581e-05
4.26849e-07
2.9822e-05
4.37309e-07
2.97844e-05
4.40581e-07
2.9746e-05
4.3959e-07
2.97073e-05
4.36643e-07
2.96686e-05
4.33293e-07
2.96301e-05
4.30427e-07
2.95917e-05
4.28449e-07
2.95536e-05
4.27461e-07
2.95157e-05
4.2741e-07
2.94778e-05
4.28186e-07
2.94398e-05
4.29669e-07
2.94019e-05
4.31757e-07
2.93637e-05
4.34373e-07
2.93254e-05
4.3746e-07
2.92868e-05
4.40979e-07
2.92479e-05
4.44902e-07
2.92086e-05
4.4921e-07
2.9169e-05
4.53888e-07
2.91291e-05
4.58924e-07
2.90887e-05
4.64309e-07
2.9048e-05
4.70034e-07
2.90068e-05
4.76089e-07
2.89653e-05
4.82469e-07
2.89233e-05
4.89167e-07
2.88809e-05
4.96178e-07
2.88381e-05
5.03498e-07
2.8795e-05
5.11126e-07
2.87514e-05
5.19063e-07
2.87076e-05
5.2731e-07
2.86633e-05
5.35873e-07
2.86188e-05
5.44757e-07
2.85741e-05
5.53973e-07
2.8529e-05
5.63532e-07
2.84838e-05
5.73446e-07
2.84385e-05
5.83731e-07
2.83931e-05
5.94403e-07
2.83477e-05
6.05481e-07
2.83024e-05
6.16981e-07
2.82572e-05
6.28924e-07
2.82123e-05
6.41328e-07
2.81678e-05
6.54208e-07
2.81239e-05
6.6758e-07
2.80806e-05
6.81455e-07
2.80383e-05
6.95842e-07
2.7997e-05
7.10743e-07
2.79571e-05
7.26153e-07
2.79188e-05
7.4206e-07
2.78824e-05
7.5844e-07
2.78482e-05
7.75258e-07
2.78166e-05
7.92466e-07
2.77879e-05
8.09998e-07
2.77627e-05
8.27774e-07
2.77413e-05
8.4569e-07
2.77242e-05
8.63625e-07
2.77119e-05
8.81433e-07
2.77049e-05
8.98947e-07
2.77036e-05
9.15978e-07
2.77087e-05
9.32314e-07
2.77203e-05
9.47725e-07
2.77391e-05
9.61967e-07
2.77651e-05
9.74782e-07
2.77988e-05
9.85908e-07
2.784e-05
9.95087e-07
2.78889e-05
1.00207e-06
2.79453e-05
1.00663e-06
2.80088e-05
1.00855e-06
2.8079e-05
1.00769e-06
2.81553e-05
1.00392e-06
2.82369e-05
9.97157e-07
9.874e-07
2.83232e-05
3.21207e-05
1.11644e-08
3.21188e-05
2.94678e-08
3.21155e-05
5.78237e-08
3.21101e-05
9.95587e-08
3.2102e-05
1.54681e-07
3.20901e-05
2.19138e-07
3.20738e-05
2.85989e-07
3.20526e-05
3.47781e-07
3.20267e-05
3.98811e-07
3.19965e-05
4.36335e-07
3.19629e-05
4.60518e-07
3.19266e-05
4.73556e-07
3.18886e-05
4.78544e-07
3.18497e-05
4.78548e-07
3.18103e-05
4.76058e-07
3.17708e-05
4.72812e-07
3.17313e-05
4.69852e-07
3.16921e-05