/*--------------------------------*- C++ -*----------------------------------*\
  =========                 |
  \\      /  F ield         | OpenFOAM: The Open Source CFD Toolbox
   \\    /   O peration     | Website:  https://openfoam.org
    \\  /    A nd           | Version:  7
     \\/     M anipulation  |
\*---------------------------------------------------------------------------*/
FoamFile
{
    version     2.0;
    format      ascii;
    class       volVectorField;
    location    "0.9";
    object      U;
}
// * * * * * * * * * * * * * * * * * * * * * * * * * * * * * * * * * * * * * //

dimensions      [0 1 -1 0 0 0 0];

internalField   nonuniform List<vector> 
12013
(
(0.0999988 4.59853e-07 0)
(0.0999912 1.29622e-06 0)
(0.0999722 2.72693e-06 0)
(0.0999357 4.86061e-06 0)
(0.0998752 7.60961e-06 0)
(0.0997867 1.06714e-05 0)
(0.0996702 1.36367e-05 0)
(0.0995299 1.61408e-05 0)
(0.0993721 1.79765e-05 0)
(0.0992043 1.91256e-05 0)
(0.0990326 1.9714e-05 0)
(0.0988612 1.99378e-05 0)
(0.0986924 1.99904e-05 0)
(0.0985269 2.00208e-05 0)
(0.0983643 2.01198e-05 0)
(0.0982037 2.03262e-05 0)
(0.0980443 2.06433e-05 0)
(0.0978852 2.10565e-05 0)
(0.0977259 2.15446e-05 0)
(0.097566 2.20884e-05 0)
(0.0974051 2.26736e-05 0)
(0.0972432 2.32912e-05 0)
(0.0970802 2.39375e-05 0)
(0.096916 2.46116e-05 0)
(0.0967504 2.53154e-05 0)
(0.0965835 2.60521e-05 0)
(0.0964151 2.68253e-05 0)
(0.0962451 2.76395e-05 0)
(0.0960734 2.84984e-05 0)
(0.0958998 2.94062e-05 0)
(0.0957242 3.03674e-05 0)
(0.0955464 3.13861e-05 0)
(0.0953662 3.24657e-05 0)
(0.0951834 3.36106e-05 0)
(0.0949979 3.48248e-05 0)
(0.0948094 3.61128e-05 0)
(0.0946178 3.74793e-05 0)
(0.0944228 3.89295e-05 0)
(0.0942243 4.04687e-05 0)
(0.0940219 4.21033e-05 0)
(0.0938154 4.38415e-05 0)
(0.0936046 4.56904e-05 0)
(0.0933893 4.766e-05 0)
(0.093169 4.97616e-05 0)
(0.0929434 5.20075e-05 0)
(0.0927123 5.44127e-05 0)
(0.0924752 5.69944e-05 0)
(0.0922317 5.9772e-05 0)
(0.0919812 6.27696e-05 0)
(0.0917232 6.60135e-05 0)
(0.0914571 6.95356e-05 0)
(0.0911822 7.3373e-05 0)
(0.0908977 7.75693e-05 0)
(0.0906026 8.21761e-05 0)
(0.0902959 8.72543e-05 0)
(0.0899764 9.28774e-05 0)
(0.0896427 9.91322e-05 0)
(0.0892932 0.000106125 0)
(0.088926 0.000113983 0)
(0.0885388 0.000122863 0)
(0.0881291 0.000132959 0)
(0.0876938 0.000144512 0)
(0.0872292 0.000157823 0)
(0.0867308 0.000173277 0)
(0.0861933 0.000191368 0)
(0.08561 0.000212738 0)
(0.0849727 0.000238235 0)
(0.0842711 0.000268996 0)
(0.0834921 0.00030657 0)
(0.0826187 0.000353105 0)
(0.0816288 0.000411639 0)
(0.0804927 0.000486548 0)
(0.0791704 0.000584274 0)
(0.0776061 0.000714498 0)
(0.0757215 0.00089208 0)
(0.073404 0.00114031 0)
(0.0704889 0.00149647 0)
(0.066719 0.00202328 0)
(0.0616999 0.00284566 0)
(0.054984 0.00431214 0)
(0.0475245 0.00799638 0)
(0.0999989 1.40062e-06 0)
(0.0999915 3.96341e-06 0)
(0.0999727 8.34549e-06 0)
(0.0999365 1.48839e-05 0)
(0.0998765 2.33135e-05 0)
(0.0997886 3.2708e-05 0)
(0.0996728 4.18102e-05 0)
(0.099533 4.95006e-05 0)
(0.0993758 5.51432e-05 0)
(0.0992084 5.86788e-05 0)
(0.099037 6.04933e-05 0)
(0.0988659 6.11862e-05 0)
(0.0986973 6.1352e-05 0)
(0.0985319 6.14479e-05 0)
(0.0983694 6.17521e-05 0)
(0.098209 6.23846e-05 0)
(0.0980497 6.33564e-05 0)
(0.0978908 6.46222e-05 0)
(0.0977316 6.61182e-05 0)
(0.0975719 6.77851e-05 0)
(0.0974112 6.95794e-05 0)
(0.0972496 7.14738e-05 0)
(0.0970868 7.34557e-05 0)
(0.0969228 7.55237e-05 0)
(0.0967575 7.76829e-05 0)
(0.0965908 7.99431e-05 0)
(0.0964227 8.23156e-05 0)
(0.0962529 8.48137e-05 0)
(0.0960815 8.74491e-05 0)
(0.0959081 9.02353e-05 0)
(0.0957328 9.31847e-05 0)
(0.0955552 9.63095e-05 0)
(0.0953753 9.9622e-05 0)
(0.0951928 0.000103134 0)
(0.0950076 0.00010686 0)
(0.0948194 0.000110811 0)
(0.0946281 0.000115003 0)
(0.0944334 0.000119451 0)
(0.0942352 0.000124172 0)
(0.0940331 0.000129186 0)
(0.093827 0.000134516 0)
(0.0936166 0.000140186 0)
(0.0934017 0.000146225 0)
(0.0931818 0.000152668 0)
(0.0929567 0.000159553 0)
(0.0927261 0.000166926 0)
(0.0924896 0.000174838 0)
(0.0922466 0.000183351 0)
(0.0919968 0.000192535 0)
(0.0917395 0.000202473 0)
(0.0914742 0.000213261 0)
(0.0912001 0.000225013 0)
(0.0909166 0.00023786 0)
(0.0906226 0.000251961 0)
(0.0903171 0.000267501 0)
(0.089999 0.000284701 0)
(0.0896669 0.000303827 0)
(0.0893193 0.000325199 0)
(0.0889542 0.000349205 0)
(0.0885696 0.000376319 0)
(0.088163 0.000407124 0)
(0.0877313 0.000442346 0)
(0.0872711 0.000482894 0)
(0.0867782 0.000529919 0)
(0.0862474 0.000584895 0)
(0.0856725 0.000649735 0)
(0.085046 0.000726953 0)
(0.0843583 0.000819897 0)
(0.0835976 0.000933103 0)
(0.0827489 0.0010728 0)
(0.0817929 0.00124772 0)
(0.0807045 0.00147027 0)
(0.0794509 0.00175839 0)
(0.0779887 0.00213846 0)
(0.0762603 0.00264971 0)
(0.0741901 0.00335093 0)
(0.0716811 0.00432961 0)
(0.0686079 0.0057135 0)
(0.0648353 0.007684 0)
(0.0604253 0.0104359 0)
(0.0565169 0.0137854 0)
(0.099999 2.3737e-06 0)
(0.0999917 6.76615e-06 0)
(0.0999733 1.42666e-05 0)
(0.0999378 2.54701e-05 0)
(0.0998788 3.99328e-05 0)
(0.0997921 5.60707e-05 0)
(0.0996777 7.17274e-05 0)
(0.0995393 8.49768e-05 0)
(0.0993834 9.47197e-05 0)
(0.0992171 0.000100844 0)
(0.0990465 0.000104008 0)
(0.098876 0.000105234 0)
(0.0987078 0.000105543 0)
(0.0985428 0.000105722 0)
(0.0983805 0.000106249 0)
(0.0982203 0.000107334 0)
(0.0980613 0.000108999 0)
(0.0979027 0.000111168 0)
(0.097744 0.000113732 0)
(0.0975846 0.00011659 0)
(0.0974244 0.000119669 0)
(0.0972632 0.000122922 0)
(0.0971009 0.000126326 0)
(0.0969374 0.00012988 0)
(0.0967727 0.000133592 0)
(0.0966065 0.000137478 0)
(0.0964389 0.000141558 0)
(0.0962697 0.000145854 0)
(0.0960988 0.000150387 0)
(0.095926 0.000155179 0)
(0.0957512 0.000160251 0)
(0.0955742 0.000165625 0)
(0.0953948 0.00017132 0)
(0.0952129 0.00017736 0)
(0.0950283 0.000183764 0)
(0.0948407 0.000190557 0)
(0.09465 0.000197762 0)
(0.094456 0.000205406 0)
(0.0942584 0.000213519 0)
(0.0940571 0.000222134 0)
(0.0938517 0.000231289 0)
(0.0936421 0.000241028 0)
(0.0934279 0.000251399 0)
(0.0932089 0.000262462 0)
(0.0929848 0.000274281 0)
(0.0927551 0.000286934 0)
(0.0925196 0.00030051 0)
(0.0922778 0.000315113 0)
(0.0920292 0.000330863 0)
(0.0917733 0.000347899 0)
(0.0915095 0.000366387 0)
(0.0912371 0.000386516 0)
(0.0909554 0.000408513 0)
(0.0906635 0.000432642 0)
(0.0903604 0.000459218 0)
(0.0900449 0.000488615 0)
(0.0897159 0.000521277 0)
(0.0893717 0.000557744 0)
(0.0890107 0.000598663 0)
(0.0886308 0.000644827 0)
(0.0882298 0.000697206 0)
(0.0878048 0.000757 0)
(0.0873527 0.000825709 0)
(0.0868695 0.000905219 0)
(0.0863509 0.000997933 0)
(0.0857912 0.00110694 0)
(0.0851838 0.00123627 0)
(0.0845208 0.00139121 0)
(0.0837924 0.00157884 0)
(0.0829866 0.00180873 0)
(0.0820886 0.00209398 0)
(0.0810806 0.00245273 0)
(0.0799405 0.00291033 0)
(0.0786426 0.00350241 0)
(0.0771572 0.00427883 0)
(0.0754546 0.0053082 0)
(0.0735123 0.00668046 0)
(0.0713297 0.00850158 0)
(0.0689664 0.0108669 0)
(0.0666572 0.0137491 0)
(0.0650123 0.0165742 0)
(0.0999991 3.37566e-06 0)
(0.099992 9.69104e-06 0)
(0.0999741 2.04547e-05 0)
(0.0999395 3.65556e-05 0)
(0.099882 5.7374e-05 0)
(0.0997973 8.06473e-05 0)
(0.0996852 0.000103276 0)
(0.0995492 0.000122481 0)
(0.0993955 0.000136659 0)
(0.099231 0.000145627 0)
(0.0990619 0.000150313 0)
(0.0988924 0.00015218 0)
(0.0987249 0.000152694 0)
(0.0985604 0.00015299 0)
(0.0983986 0.000153766 0)
(0.0982388 0.000155329 0)
(0.0980802 0.000157721 0)
(0.0979222 0.000160836 0)
(0.097764 0.000164522 0)
(0.0976053 0.000168635 0)
(0.0974458 0.00017307 0)
(0.0972854 0.00017776 0)
(0.0971239 0.000182674 0)
(0.0969612 0.000187806 0)
(0.0967973 0.00019317 0)
(0.096632 0.000198788 0)
(0.0964653 0.000204688 0)
(0.096297 0.0002109 0)
(0.0961269 0.000217457 0)
(0.095955 0.000224387 0)
(0.0957811 0.000231723 0)
(0.095605 0.000239494 0)
(0.0954265 0.00024773 0)
(0.0952456 0.000256461 0)
(0.0950619 0.000265718 0)
(0.0948752 0.000275534 0)
(0.0946855 0.000285945 0)
(0.0944925 0.000296987 0)
(0.094296 0.000308705 0)
(0.0940958 0.000321145 0)
(0.0938916 0.000334361 0)
(0.0936832 0.000348417 0)
(0.0934703 0.000363382 0)
(0.0932527 0.000379339 0)
(0.09303 0.000396383 0)
(0.0928019 0.000414623 0)
(0.0925681 0.000434187 0)
(0.0923281 0.000455221 0)
(0.0920815 0.000477898 0)
(0.0918278 0.000502414 0)
(0.0915663 0.000529004 0)
(0.0912966 0.000557938 0)
(0.0910177 0.000589533 0)
(0.090729 0.000624164 0)
(0.0904296 0.000662273 0)
(0.0901182 0.000704384 0)
(0.0897939 0.00075112 0)
(0.0894551 0.000803231 0)
(0.0891003 0.000861618 0)
(0.0887278 0.000927375 0)
(0.0883353 0.00100184 0)
(0.0879206 0.00108664 0)
(0.0874807 0.00118383 0)
(0.0870124 0.00129593 0)
(0.086512 0.00142616 0)
(0.0859749 0.00157858 0)
(0.0853959 0.00175842 0)
(0.0847689 0.00197245 0)
(0.084087 0.00222954 0)
(0.083342 0.00254137 0)
(0.0825249 0.00292348 0)
(0.0816258 0.00339661 0)
(0.080635 0.00398837 0)
(0.079544 0.00473529 0)
(0.0783491 0.00568448 0)
(0.0770571 0.00689365 0)
(0.0756946 0.00842577 0)
(0.0743229 0.0103307 0)
(0.0730578 0.0126008 0)
(0.0720912 0.0150688 0)
(0.0716531 0.0171947 0)
(0.0999991 4.4092e-06 0)
(0.0999922 1.27216e-05 0)
(0.099975 2.68612e-05 0)
(0.0999418 4.80481e-05 0)
(0.0998863 7.54984e-05 0)
(0.0998045 0.000106265 0)
(0.0996956 0.000136276 0)
(0.099563 0.000161854 0)
(0.0994125 0.000180849 0)
(0.0992507 0.000192979 0)
(0.0990836 0.000199426 0)
(0.0989157 0.000202097 0)
(0.0987493 0.000202917 0)
(0.0985855 0.00020339 0)
(0.0984244 0.00020445 0)
(0.0982652 0.00020652 0)
(0.0981073 0.000209666 0)
(0.0979499 0.000213761 0)
(0.0977926 0.000218612 0)
(0.0976348 0.000224036 0)
(0.0974764 0.000229893 0)
(0.0973171 0.000236095 0)
(0.0971567 0.000242602 0)
(0.0969953 0.000249407 0)
(0.0968326 0.000256523 0)
(0.0966685 0.000263981 0)
(0.096503 0.000271817 0)
(0.096336 0.00028007 0)
(0.0961672 0.00028878 0)
(0.0959966 0.000297988 0)
(0.0958239 0.000307733 0)
(0.0956491 0.000318054 0)
(0.0954719 0.000328991 0)
(0.0952923 0.000340583 0)
(0.0951099 0.000352871 0)
(0.0949247 0.000365897 0)
(0.0947364 0.000379708 0)
(0.0945449 0.000394353 0)
(0.0943499 0.000409888 0)
(0.0941512 0.000426376 0)
(0.0939487 0.000443888 0)
(0.0937421 0.000462505 0)
(0.093531 0.000482319 0)
(0.0933154 0.000503438 0)
(0.0930948 0.000525986 0)
(0.092869 0.000550105 0)
(0.0926376 0.000575961 0)
(0.0924002 0.000603744 0)
(0.0921564 0.000633678 0)
(0.0919057 0.000666019 0)
(0.0916477 0.000701066 0)
(0.0913816 0.00073917 0)
(0.0911069 0.000780739 0)
(0.0908228 0.000826252 0)
(0.0905285 0.000876274 0)
(0.090223 0.000931471 0)
(0.0899053 0.000992634 0)
(0.0895741 0.00106071 0)
(0.0892281 0.00113682 0)
(0.0888657 0.00122234 0)
(0.0884852 0.00131892 0)
(0.0880846 0.00142857 0)
(0.0876616 0.00155376 0)
(0.0872136 0.00169754 0)
(0.0867379 0.00186372 0)
(0.0862311 0.00205704 0)
(0.0856897 0.0022835 0)
(0.0851099 0.00255069 0)
(0.0844878 0.00286829 0)
(0.0838193 0.00324866 0)
(0.0831012 0.00370763 0)
(0.0823314 0.00426532 0)
(0.0815105 0.00494703 0)
(0.080644 0.00578377 0)
(0.0797459 0.00681166 0)
(0.0788431 0.00806861 0)
(0.0779825 0.00958524 0)
(0.0772364 0.011365 0)
(0.0767048 0.0133472 0)
(0.076499 0.0153478 0)
(0.0766755 0.0169918 0)
(0.0999991 5.47405e-06 0)
(0.0999925 1.58342e-05 0)
(0.0999761 3.34228e-05 0)
(0.0999445 5.98256e-05 0)
(0.0998917 9.41212e-05 0)
(0.0998135 0.000132689 0)
(0.0997089 0.000170475 0)
(0.0995808 0.000202864 0)
(0.0994345 0.000227114 0)
(0.0992763 0.000242795 0)
(0.0991121 0.000251319 0)
(0.0989462 0.000255024 0)
(0.0987814 0.000256302 0)
(0.0986187 0.000257044 0)
(0.0984584 0.000258438 0)
(0.0983001 0.000261041 0)
(0.0981431 0.000264961 0)
(0.0979868 0.00027006 0)
(0.0978306 0.000276109 0)
(0.0976741 0.000282887 0)
(0.097517 0.000290222 0)
(0.0973592 0.000298006 0)
(0.0972004 0.000306188 0)
(0.0970405 0.000314755 0)
(0.0968795 0.000323726 0)
(0.0967171 0.000333134 0)
(0.0965532 0.000343025 0)
(0.0963879 0.000353445 0)
(0.0962208 0.000364443 0)
(0.0960518 0.00037607 0)
(0.0958809 0.000388374 0)
(0.0957078 0.000401403 0)
(0.0955324 0.000415205 0)
(0.0953545 0.00042983 0)
(0.0951739 0.000445327 0)
(0.0949906 0.000461749 0)
(0.0948042 0.000479154 0)
(0.0946146 0.000497604 0)
(0.0944217 0.000517166 0)
(0.0942252 0.00053792 0)
(0.0940249 0.000559952 0)
(0.0938206 0.000583363 0)
(0.0936121 0.000608268 0)
(0.0933991 0.000634799 0)
(0.0931813 0.000663108 0)
(0.0929585 0.000693371 0)
(0.0927303 0.000725791 0)
(0.0924965 0.000760601 0)
(0.0922565 0.000798074 0)
(0.0920099 0.000838522 0)
(0.0917564 0.00088231 0)
(0.0914953 0.000929861 0)
(0.0912262 0.000981669 0)
(0.0909482 0.00103831 0)
(0.0906608 0.00110046 0)
(0.090363 0.00116891 0)
(0.090054 0.00124461 0)
(0.0897329 0.00132865 0)
(0.0893984 0.00142237 0)
(0.0890494 0.00152735 0)
(0.0886845 0.00164547 0)
(0.0883021 0.00177903 0)
(0.0879008 0.0019308 0)
(0.0874787 0.00210416 0)
(0.0870341 0.00230322 0)
(0.0865651 0.00253305 0)
(0.0860698 0.00279989 0)
(0.0855469 0.00311141 0)
(0.0849952 0.00347708 0)
(0.0844148 0.00390857 0)
(0.083807 0.00442008 0)
(0.0831761 0.0050287 0)
(0.0825299 0.00575442 0)
(0.0818824 0.00661955 0)
(0.0812559 0.00764676 0)
(0.0806837 0.00885467 0)
(0.0802128 0.0102492 0)
(0.0799033 0.0118087 0)
(0.0798215 0.0134617 0)
(0.0800191 0.0150619 0)
(0.080488 0.0163769 0)
(0.0999991 6.56713e-06 0)
(0.0999929 1.9001e-05 0)
(0.0999774 4.00641e-05 0)
(0.0999477 7.17425e-05 0)
(0.0998981 0.000113019 0)
(0.0998242 0.000159634 0)
(0.0997249 0.000205556 0)
(0.0996024 0.000245208 0)
(0.0994614 0.000275202 0)
(0.0993078 0.000294905 0)
(0.0991472 0.000305908 0)
(0.0989841 0.000310957 0)
(0.0988212 0.000312907 0)
(0.09866 0.000314045 0)
(0.098501 0.000315841 0)
(0.0983438 0.000319007 0)
(0.098188 0.000323714 0)
(0.098033 0.000329827 0)
(0.0978783 0.000337092 0)
(0.0977235 0.000345255 0)
(0.0975682 0.000354114 0)
(0.0974122 0.000363541 0)
(0.0972554 0.000373472 0)
(0.0970976 0.000383891 0)
(0.0969386 0.000394815 0)
(0.0967783 0.000406285 0)
(0.0966166 0.00041835 0)
(0.0964533 0.000431066 0)
(0.0962884 0.00044449 0)
(0.0961216 0.000458681 0)
(0.0959528 0.000473695 0)
(0.0957819 0.00048959 0)
(0.0956087 0.000506423 0)
(0.0954331 0.000524251 0)
(0.0952549 0.000543135 0)
(0.0950739 0.000563137 0)
(0.09489 0.000584325 0)
(0.0947029 0.000606773 0)
(0.0945126 0.000630563 0)
(0.0943189 0.000655788 0)
(0.0941215 0.00068255 0)
(0.0939202 0.00071097 0)
(0.0937149 0.000741184 0)
(0.0935053 0.000773348 0)
(0.0932912 0.000807642 0)
(0.0930723 0.000844273 0)
(0.0928483 0.000883479 0)
(0.0926189 0.000925535 0)
(0.0923838 0.000970757 0)
(0.0921425 0.00101951 0)
(0.0918948 0.00107222 0)
(0.0916401 0.00112938 0)
(0.091378 0.00119154 0)
(0.0911079 0.00125938 0)
(0.0908292 0.00133366 0)
(0.0905413 0.00141528 0)
(0.0902435 0.00150529 0)
(0.089935 0.00160494 0)
(0.089615 0.00171567 0)
(0.0892826 0.00183921 0)
(0.088937 0.00197762 0)
(0.0885772 0.00213332 0)
(0.0882023 0.00230921 0)
(0.0878114 0.00250878 0)
(0.0874038 0.00273615 0)
(0.086979 0.00299631 0)
(0.0865369 0.00329521 0)
(0.0860781 0.00363992 0)
(0.0856041 0.00403885 0)
(0.0851178 0.00450186 0)
(0.0846241 0.0050403 0)
(0.0841312 0.00566689 0)
(0.0836507 0.00639524 0)
(0.0831998 0.00723864 0)
(0.082802 0.0082079 0)
(0.0824883 0.00930736 0)
(0.0822964 0.0105287 0)
(0.0822682 0.011842 0)
(0.0824413 0.0131854 0)
(0.0828339 0.0144571 0)
(0.0834212 0.0155204 0)
(0.0999991 7.68336e-06 0)
(0.0999932 2.21927e-05 0)
(0.0999788 4.67041e-05 0)
(0.0999513 8.36392e-05 0)
(0.0999053 0.000131941 0)
(0.0998365 0.00018677 0)
(0.0997433 0.000241148 0)
(0.0996273 0.00028852 0)
(0.0994926 0.000324799 0)
(0.0993445 0.000349073 0)
(0.0991884 0.000363049 0)
(0.0990287 0.000369836 0)
(0.0988684 0.000372736 0)
(0.0987092 0.000374446 0)
(0.0985518 0.000376734 0)
(0.0983961 0.0003805 0)
(0.0982419 0.000386001 0)
(0.0980886 0.000393127 0)
(0.0979358 0.000401612 0)
(0.097783 0.000411176 0)
(0.0976299 0.000421593 0)
(0.0974763 0.000432715 0)
(0.0973219 0.000444463 0)
(0.0971665 0.000456816 0)
(0.09701 0.000469792 0)
(0.0968523 0.000483432 0)
(0.0966931 0.000497791 0)
(0.0965325 0.000512932 0)
(0.0963702 0.00052892 0)
(0.096206 0.000545819 0)
(0.0960399 0.000563695 0)
(0.0958717 0.000582613 0)
(0.0957013 0.000602639 0)
(0.0955285 0.000623838 0)
(0.0953531 0.00064628 0)
(0.0951751 0.000670037 0)
(0.0949942 0.000695187 0)
(0.0948103 0.000721815 0)
(0.0946233 0.000750016 0)
(0.0944329 0.000779896 0)
(0.0942391 0.000811575 0)
(0.0940416 0.00084519 0)
(0.0938403 0.000880896 0)
(0.093635 0.000918874 0)
(0.0934253 0.000959328 0)
(0.0932113 0.00100249 0)
(0.0929925 0.00104864 0)
(0.0927687 0.00109808 0)
(0.0925396 0.00115117 0)
(0.092305 0.00120832 0)
(0.0920645 0.00127 0)
(0.0918177 0.00133676 0)
(0.0915643 0.00140922 0)
(0.0913039 0.0014881 0)
(0.091036 0.00157425 0)
(0.0907601 0.00166863 0)
(0.0904758 0.00177238 0)
(0.0901827 0.0018868 0)
(0.0898802 0.00201342 0)
(0.0895678 0.00215402 0)
(0.0892451 0.00231069 0)
(0.0889118 0.00248587 0)
(0.0885676 0.0026824 0)
(0.0882126 0.00290361 0)
(0.087847 0.00315339 0)
(0.0874715 0.00343625 0)
(0.0870875 0.00375739 0)
(0.0866971 0.00412279 0)
(0.0863036 0.00453917 0)
(0.085912 0.00501401 0)
(0.0855291 0.00555528 0)
(0.0851646 0.00617114 0)
(0.0848312 0.00686917 0)
(0.0845455 0.00765524 0)
(0.0843279 0.00853158 0)
(0.084203 0.00949407 0)
(0.0841974 0.0105285 0)
(0.0843369 0.0116064 0)
(0.0846402 0.0126807 0)
(0.0851099 0.0136856 0)
(0.0857221 0.0145425 0)
(0.0999991 8.81888e-06 0)
(0.0999936 2.53802e-05 0)
(0.0999802 5.32637e-05 0)
(0.0999551 9.53562e-05 0)
(0.099913 0.000150634 0)
(0.0998497 0.000213757 0)
(0.0997633 0.000276854 0)
(0.0996546 0.000332394 0)
(0.0995271 0.000375535 0)
(0.0993854 0.000405003 0)
(0.0992346 0.000422533 0)
(0.099079 0.000431537 0)
(0.098922 0.000435739 0)
(0.0987653 0.000438243 0)
(0.0986101 0.000441144 0)
(0.0984564 0.000445557 0)
(0.0983042 0.000451859 0)
(0.0981531 0.000459988 0)
(0.0980025 0.000469684 0)
(0.0978522 0.000480653 0)
(0.0977017 0.000492649 0)
(0.0975508 0.000505505 0)
(0.0973992 0.00051913 0)
(0.0972468 0.000533495 0)
(0.0970933 0.000548615 0)
(0.0969386 0.000564531 0)
(0.0967825 0.000581303 0)
(0.0966249 0.000598996 0)
(0.0964657 0.000617682 0)
(0.0963047 0.000637431 0)
(0.0961418 0.000658317 0)
(0.0959768 0.000680411 0)
(0.0958097 0.000703786 0)
(0.0956402 0.000728515 0)
(0.0954683 0.000754675 0)
(0.0952938 0.000782349 0)
(0.0951165 0.000811622 0)
(0.0949365 0.000842591 0)
(0.0947534 0.000875363 0)
(0.0945672 0.000910054 0)
(0.0943777 0.000946801 0)
(0.0941848 0.000985756 0)
(0.0939883 0.00102709 0)
(0.0937881 0.00107101 0)
(0.093584 0.00111773 0)
(0.0933757 0.00116753 0)
(0.0931632 0.00122068 0)
(0.0929462 0.00127755 0)
(0.0927245 0.0013385 0)
(0.0924978 0.00140399 0)
(0.092266 0.00147453 0)
(0.0920288 0.0015507 0)
(0.0917858 0.00163316 0)
(0.091537 0.00172267 0)
(0.0912819 0.00182012 0)
(0.0910203 0.00192651 0)
(0.0907521 0.00204298 0)
(0.090477 0.00217086 0)
(0.0901948 0.00231168 0)
(0.0899055 0.00246717 0)
(0.0896091 0.00263935 0)
(0.0893058 0.0028305 0)
(0.0889961 0.00304325 0)
(0.0886806 0.00328057 0)
(0.0883605 0.00354583 0)
(0.0880374 0.0038428 0)
(0.0877137 0.00417565 0)
(0.0873927 0.00454894 0)
(0.0870786 0.00496746 0)
(0.0867773 0.00543615 0)
(0.0864963 0.00595978 0)
(0.086245 0.00654247 0)
(0.0860351 0.00718708 0)
(0.0858805 0.00789424 0)
(0.0857971 0.0086611 0)
(0.0858022 0.00947968 0)
(0.0859127 0.0103351 0)
(0.0861431 0.0112039 0)
(0.086501 0.0120532 0)
(0.0869832 0.0128418 0)
(0.0875711 0.013525 0)
(0.0999992 9.97052e-06 0)
(0.0999939 2.85413e-05 0)
(0.0999817 5.96747e-05 0)
(0.0999589 0.000106753 0)
(0.0999208 0.000168865 0)
(0.0998634 0.000240273 0)
(0.0997841 0.000312287 0)
(0.0996833 0.000376416 0)
(0.0995636 0.000427012 0)
(0.099429 0.000462348 0)
(0.0992843 0.000484087 0)
(0.0991337 0.000495865 0)
(0.0989805 0.000501788 0)
(0.0988271 0.000505364 0)
(0.0986746 0.000509034 0)
(0.0985235 0.00051416 0)
(0.0983738 0.000521274 0)
(0.0982252 0.000530392 0)
(0.0980773 0.000541281 0)
(0.0979299 0.000553648 0)
(0.0977825 0.000567234 0)
(0.0976347 0.000581856 0)
(0.0974864 0.000597409 0)
(0.0973374 0.000613856 0)
(0.0971873 0.000631206 0)
(0.0970361 0.0006495 0)
(0.0968835 0.000668796 0)
(0.0967295 0.000689164 0)
(0.0965739 0.000710678 0)
(0.0964166 0.000733414 0)
(0.0962573 0.000757449 0)
(0.0960961 0.000782862 0)
(0.0959328 0.00080973 0)
(0.0957672 0.000838133 0)
(0.0955993 0.000868156 0)
(0.095429 0.000899887 0)
(0.095256 0.000933421 0)
(0.0950804 0.000968863 0)
(0.094902 0.00100633 0)
(0.0947207 0.00104595 0)
(0.0945363 0.00108787 0)
(0.0943488 0.00113226 0)
(0.0941581 0.0011793 0)
(0.0939639 0.00122921 0)
(0.0937663 0.00128223 0)
(0.093565 0.00133865 0)
(0.0933599 0.00139877 0)
(0.0931509 0.00146297 0)
(0.0929378 0.00153164 0)
(0.0927205 0.00160526 0)
(0.0924989 0.00168434 0)
(0.0922728 0.0017695 0)
(0.0920421 0.00186142 0)
(0.0918067 0.00196085 0)
(0.0915666 0.00206869 0)
(0.0913215 0.00218592 0)
(0.0910717 0.00231367 0)
(0.0908171 0.0024532 0)
(0.0905579 0.00260596 0)
(0.0902944 0.00277355 0)
(0.0900271 0.00295779 0)
(0.0897566 0.00316071 0)
(0.0894839 0.00338454 0)
(0.0892104 0.00363175 0)
(0.0889376 0.00390502 0)
(0.0886679 0.00420722 0)
(0.0884043 0.00454135 0)
(0.0881505 0.00491045 0)
(0.0879111 0.00531748 0)
(0.0876921 0.00576508 0)
(0.0875003 0.00625532 0)
(0.087344 0.0067893 0)
(0.0872329 0.00736666 0)
(0.0871774 0.00798495 0)
(0.0871887 0.00863892 0)
(0.0872781 0.00931974 0)
(0.0874553 0.0100143 0)
(0.0877273 0.0107049 0)
(0.0880963 0.0113694 0)
(0.0885575 0.0119825 0)
(0.0890973 0.0125189 0)
(0.0999992 1.11376e-05 0)
(0.0999943 3.16622e-05 0)
(0.0999831 6.58918e-05 0)
(0.0999626 0.000117727 0)
(0.0999285 0.000186453 0)
(0.0998768 0.000266048 0)
(0.0998048 0.000347103 0)
(0.0997121 0.000420195 0)
(0.0996005 0.000478832 0)
(0.0994736 0.000520733 0)
(0.0993356 0.000547384 0)
(0.0991907 0.000562556 0)
(0.0990423 0.00057068 0)
(0.0988927 0.000575658 0)
(0.0987436 0.000580291 0)
(0.0985956 0.000586222 0)
(0.0984489 0.000594173 0)
(0.0983034 0.000604271 0)
(0.0981588 0.000616336 0)
(0.0980147 0.000630088 0)
(0.0978707 0.000645267 0)
(0.0977266 0.000661677 0)
(0.097582 0.000679202 0)
(0.0974367 0.000697793 0)
(0.0972904 0.000717453 0)
(0.0971431 0.000738217 0)
(0.0969945 0.000760142 0)
(0.0968445 0.000783299 0)
(0.096693 0.000807761 0)
(0.0965398 0.000833609 0)
(0.0963847 0.000860921 0)
(0.0962278 0.00088978 0)
(0.0960688 0.000920267 0)
(0.0959078 0.000952468 0)
(0.0957445 0.000986472 0)
(0.0955789 0.00102237 0)
(0.0954109 0.00106027 0)
(0.0952404 0.00110028 0)
(0.0950674 0.00114252 0)
(0.0948917 0.00118714 0)
(0.0947133 0.00123428 0)
(0.0945321 0.00128412 0)
(0.0943479 0.00133686 0)
(0.0941608 0.00139273 0)
(0.0939707 0.00145198 0)
(0.0937774 0.00151491 0)
(0.0935809 0.00158183 0)
(0.0933811 0.00165311 0)
(0.0931781 0.00172918 0)
(0.0929716 0.00181051 0)
(0.0927617 0.00189762 0)
(0.0925484 0.00199111 0)
(0.0923317 0.00209164 0)
(0.0921116 0.00219996 0)
(0.0918882 0.00231692 0)
(0.0916617 0.00244345 0)
(0.0914324 0.00258058 0)
(0.0912004 0.00272947 0)
(0.0909664 0.0028914 0)
(0.0907309 0.00306778 0)
(0.0904947 0.00326011 0)
(0.0902589 0.00347008 0)
(0.0900247 0.00369943 0)
(0.0897939 0.00395004 0)
(0.0895686 0.00422381 0)
(0.0893512 0.00452268 0)
(0.089145 0.00484849 0)
(0.0889538 0.00520292 0)
(0.0887818 0.00558731 0)
(0.0886345 0.00600252 0)
(0.0885176 0.00644863 0)
(0.0884378 0.00692477 0)
(0.0884022 0.00742871 0)
(0.0884181 0.00795658 0)
(0.0884929 0.00850253 0)
(0.0886331 0.00905843 0)
(0.0888437 0.00961381 0)
(0.0891275 0.0101559 0)
(0.089484 0.0106701 0)
(0.0899083 0.011141 0)
(0.0903912 0.0115541 0)
(0.0999992 1.23226e-05 0)
(0.0999946 3.47412e-05 0)
(0.0999843 7.18986e-05 0)
(0.0999659 0.000128227 0)
(0.0999355 0.00020329 0)
(0.0998893 0.000290904 0)
(0.0998243 0.000381046 0)
(0.0997396 0.000463411 0)
(0.0996364 0.000530628 0)
(0.0995175 0.00057978 0)
(0.0993868 0.00061206 0)
(0.0992482 0.000631277 0)
(0.0991051 0.000642129 0)
(0.0989602 0.000648886 0)
(0.0988152 0.000654719 0)
(0.098671 0.000661582 0)
(0.0985279 0.00067042 0)
(0.098386 0.000681504 0)
(0.098245 0.000694732 0)
(0.0981047 0.000709859 0)
(0.0979646 0.00072663 0)
(0.0978244 0.000744847 0)
(0.0976839 0.00076438 0)
(0.0975427 0.000785171 0)
(0.0974007 0.00080721 0)
(0.0972577 0.000830528 0)
(0.0971135 0.000855177 0)
(0.0969679 0.000881222 0)
(0.0968209 0.000908739 0)
(0.0966722 0.000937806 0)
(0.0965218 0.000968504 0)
(0.0963697 0.00100091 0)
(0.0962156 0.00103512 0)
(0.0960596 0.00107122 0)
(0.0959015 0.00110929 0)
(0.0957413 0.00114943 0)
(0.0955789 0.00119175 0)
(0.0954143 0.00123637 0)
(0.0952473 0.00128342 0)
(0.0950781 0.00133303 0)
(0.0949064 0.00138536 0)
(0.0947323 0.0014406 0)
(0.0945557 0.00149895 0)
(0.0943766 0.00156064 0)
(0.094195 0.00162593 0)
(0.0940108 0.00169511 0)
(0.0938241 0.0017685 0)
(0.0936348 0.00184647 0)
(0.093443 0.00192943 0)
(0.0932487 0.00201784 0)
(0.093052 0.0021122 0)
(0.092853 0.00221308 0)
(0.0926518 0.00232111 0)
(0.0924487 0.00243697 0)
(0.0922438 0.00256143 0)
(0.0920376 0.00269532 0)
(0.0918305 0.00283955 0)
(0.0916229 0.00299511 0)
(0.0914157 0.00316304 0)
(0.0912096 0.00334448 0)
(0.0910056 0.00354062 0)
(0.0908052 0.00375268 0)
(0.0906097 0.00398191 0)
(0.0904211 0.00422956 0)
(0.0902415 0.00449678 0)
(0.0900736 0.00478463 0)
(0.0899202 0.00509396 0)
(0.089785 0.00542531 0)
(0.0896716 0.00577882 0)
(0.0895843 0.00615405 0)
(0.0895279 0.00654988 0)
(0.089507 0.0069643 0)
(0.0895267 0.00739429 0)
(0.0895917 0.00783566 0)
(0.0897063 0.00828293 0)
(0.0898739 0.00872934 0)
(0.0900966 0.00916695 0)
(0.0903749 0.00958682 0)
(0.0907071 0.00997946 0)
(0.0910891 0.0103355 0)
(0.0915143 0.0106462 0)
(0.0999992 1.353e-05 0)
(0.0999948 3.77904e-05 0)
(0.0999854 7.77106e-05 0)
(0.0999688 0.000138261 0)
(0.0999417 0.000219358 0)
(0.0999004 0.000314769 0)
(0.0998419 0.000413971 0)
(0.0997649 0.000505835 0)
(0.0996698 0.0005821 0)
(0.099559 0.000639134 0)
(0.0994359 0.000677735 0)
(0.0993042 0.000701653 0)
(0.0991672 0.000715783 0)
(0.0990276 0.000724732 0)
(0.0988874 0.000732044 0)
(0.0987476 0.000740002 0)
(0.0986087 0.00074981 0)
(0.098471 0.00076191 0)
(0.0983341 0.000776306 0)
(0.0981979 0.000792806 0)
(0.0980621 0.000811175 0)
(0.0979262 0.000831215 0)
(0.0977901 0.000852788 0)
(0.0976535 0.000875824 0)
(0.0975161 0.000900304 0)
(0.0973777 0.000926247 0)
(0.0972382 0.000953697 0)
(0.0970974 0.000982716 0)
(0.0969553 0.00101337 0)
(0.0968116 0.00104575 0)
(0.0966664 0.00107991 0)
(0.0965194 0.00111595 0)
(0.0963708 0.00115395 0)
(0.0962203 0.00119399 0)
(0.096068 0.00123617 0)
(0.0959138 0.00128058 0)
(0.0957576 0.00132734 0)
(0.0955995 0.00137655 0)
(0.0954394 0.00142835 0)
(0.0952773 0.00148287 0)
(0.0951132 0.00154029 0)
(0.094947 0.00160078 0)
(0.0947789 0.00166453 0)
(0.0946087 0.00173179 0)
(0.0944367 0.00180279 0)
(0.0942626 0.00187781 0)
(0.0940868 0.00195718 0)
(0.0939091 0.00204125 0)
(0.0937298 0.00213038 0)
(0.093549 0.00222502 0)
(0.0933668 0.00232562 0)
(0.0931834 0.0024327 0)
(0.0929992 0.00254681 0)
(0.0928144 0.00266855 0)
(0.0926295 0.00279858 0)
(0.0924449 0.00293759 0)
(0.0922612 0.00308631 0)
(0.0920791 0.00324552 0)
(0.0918995 0.00341603 0)
(0.0917234 0.00359864 0)
(0.0915519 0.00379419 0)
(0.0913864 0.00400346 0)
(0.0912285 0.00422719 0)
(0.0910801 0.00446604 0)
(0.0909433 0.00472052 0)
(0.0908203 0.00499095 0)
(0.090714 0.00527739 0)
(0.090627 0.00557956 0)
(0.0905626 0.00589678 0)
(0.0905239 0.00622785 0)
(0.0905143 0.00657099 0)
(0.0905372 0.00692378 0)
(0.0905955 0.00728305 0)
(0.0906922 0.0076449 0)
(0.0908294 0.00800471 0)
(0.0910086 0.00835717 0)
(0.0912303 0.00869647 0)
(0.0914937 0.00901647 0)
(0.0917969 0.009311 0)
(0.0921364 0.00957425 0)
(0.0925076 0.00980114 0)
(0.0999992 1.47675e-05 0)
(0.099995 4.08319e-05 0)
(0.0999863 8.33719e-05 0)
(0.0999713 0.000147893 0)
(0.0999469 0.00023472 0)
(0.0999099 0.000337678 0)
(0.0998573 0.000445848 0)
(0.0997872 0.000547349 0)
(0.0996999 0.000633029 0)
(0.0995971 0.000698488 0)
(0.0994818 0.00074404 0)
(0.0993573 0.000773283 0)
(0.0992269 0.000791238 0)
(0.0990933 0.000802815 0)
(0.0989585 0.000811918 0)
(0.0988238 0.000821177 0)
(0.0986897 0.000832074 0)
(0.0985566 0.000845253 0)
(0.0984243 0.000860847 0)
(0.0982927 0.000878735 0)
(0.0981614 0.000898715 0)
(0.0980302 0.000920596 0)
(0.0978989 0.000944238 0)
(0.097767 0.000969559 0)
(0.0976345 0.000996526 0)
(0.0975011 0.00102515 0)
(0.0973666 0.00105546 0)
(0.097231 0.00108751 0)
(0.0970942 0.00112137 0)
(0.0969559 0.00115711 0)
(0.0968162 0.00119479 0)
(0.096675 0.00123449 0)
(0.0965322 0.0012763 0)
(0.0963878 0.0013203 0)
(0.0962418 0.00136658 0)
(0.0960942 0.00141523 0)
(0.0959449 0.00146636 0)
(0.0957939 0.00152007 0)
(0.0956413 0.0015765 0)
(0.0954871 0.00163578 0)
(0.0953313 0.00169807 0)
(0.095174 0.00176354 0)
(0.0950151 0.00183238 0)
(0.0948549 0.0019048 0)
(0.0946932 0.00198104 0)
(0.0945304 0.00206135 0)
(0.0943664 0.00214604 0)
(0.0942015 0.0022354 0)
(0.0940358 0.0023298 0)
(0.0938695 0.00242959 0)
(0.0937029 0.00253518 0)
(0.0935363 0.00264701 0)
(0.0933701 0.00276554 0)
(0.0932047 0.00289125 0)
(0.0930407 0.00302466 0)
(0.0928785 0.00316629 0)
(0.0927189 0.0033167 0)
(0.0925627 0.00347641 0)
(0.0924109 0.00364597 0)
(0.0922644 0.00382588 0)
(0.0921245 0.00401661 0)
(0.0919926 0.00421853 0)
(0.0918701 0.00443194 0)
(0.0917588 0.004657 0)
(0.0916605 0.0048937 0)
(0.0915773 0.00514181 0)
(0.0915112 0.00540082 0)
(0.0914646 0.00566995 0)
(0.0914396 0.00594804 0)
(0.0914388 0.00623354 0)
(0.0914641 0.00652444 0)
(0.0915178 0.00681833 0)
(0.0916016 0.00711231 0)
(0.091717 0.00740305 0)
(0.0918647 0.00768686 0)
(0.0920452 0.00795976 0)
(0.0922581 0.00821759 0)
(0.0925021 0.00845619 0)
(0.0927754 0.00867156 0)
(0.0930751 0.00886007 0)
(0.0933977 0.00901867 0)
(0.0999992 1.6043e-05 0)
(0.0999952 4.38942e-05 0)
(0.099987 8.89446e-05 0)
(0.0999732 0.000157223 0)
(0.0999512 0.000249503 0)
(0.0999178 0.000359751 0)
(0.0998702 0.00047675 0)
(0.0998064 0.000587934 0)
(0.0997264 0.000683286 0)
(0.0996313 0.0007576 0)
(0.0995237 0.000810637 0)
(0.0994066 0.000845766 0)
(0.0992833 0.000868068 0)
(0.0991562 0.000882709 0)
(0.0990274 0.000893942 0)
(0.0988982 0.000904742 0)
(0.0987695 0.000916887 0)
(0.0986414 0.000931244 0)
(0.0985141 0.000948093 0)
(0.0983875 0.000967405 0)
(0.0982611 0.000989022 0)
(0.0981349 0.00101277 0)