/*--------------------------------*- C++ -*----------------------------------*\
  =========                 |
  \\      /  F ield         | OpenFOAM: The Open Source CFD Toolbox
   \\    /   O peration     | Website:  https://openfoam.org
    \\  /    A nd           | Version:  7
     \\/     M anipulation  |
\*---------------------------------------------------------------------------*/
FoamFile
{
    version     2.0;
    format      ascii;
    class       volScalarField;
    location    "3.61";
    object      T;
}
// * * * * * * * * * * * * * * * * * * * * * * * * * * * * * * * * * * * * * //

dimensions      [0 0 0 1 0 0 0];

internalField   nonuniform List<scalar> 
12013
(
300.031
300.094
300.16
300.227
300.297
300.368
300.441
300.516
300.592
300.67
300.749
300.83
300.913
300.997
301.083
301.171
301.26
301.351
301.444
301.539
301.637
301.736
301.839
301.944
302.052
302.163
302.278
302.397
302.521
302.649
302.782
302.922
303.067
303.22
303.381
303.55
303.728
303.917
304.118
304.331
304.558
304.8
305.059
305.335
305.632
305.951
306.293
306.662
307.059
307.487
307.949
308.447
308.986
309.568
310.197
310.878
311.615
312.413
313.276
314.212
315.226
316.324
317.515
318.807
320.208
321.73
323.382
325.178
327.132
329.26
331.582
334.119
336.897
339.949
343.315
347.044
351.204
355.892
361.251
367.522
375.167
300.031
300.094
300.16
300.227
300.297
300.368
300.441
300.516
300.592
300.67
300.75
300.831
300.913
300.997
301.083
301.171
301.26
301.351
301.445
301.54
301.637
301.737
301.839
301.944
302.053
302.164
302.279
302.398
302.521
302.65
302.783
302.922
303.068
303.221
303.381
303.55
303.729
303.918
304.118
304.332
304.558
304.8
305.059
305.336
305.633
305.951
306.293
306.662
307.059
307.486
307.948
308.446
308.984
309.566
310.195
310.875
311.611
312.408
313.271
314.205
315.217
316.314
317.503
318.792
320.19
321.707
323.355
325.145
327.092
329.212
331.522
334.044
336.803
339.83
343.16
346.838
350.924
355.491
360.639
366.489
373.151
300.031
300.094
300.16
300.228
300.297
300.368
300.441
300.516
300.593
300.67
300.75
300.831
300.914
300.998
301.084
301.172
301.261
301.352
301.446
301.541
301.638
301.738
301.84
301.946
302.054
302.165
302.28
302.399
302.523
302.651
302.785
302.924
303.07
303.222
303.383
303.552
303.731
303.92
304.12
304.333
304.56
304.802
305.06
305.337
305.633
305.951
306.294
306.662
307.058
307.485
307.946
308.443
308.981
309.561
310.189
310.868
311.602
312.397
313.258
314.189
315.198
316.291
317.475
318.758
320.15
321.659
323.296
325.074
327.005
329.105
331.39
333.881
336.599
339.571
342.827
346.403
350.341
354.685
359.482
364.759
370.473
300.031
300.095
300.16
300.228
300.297
300.369
300.442
300.517
300.593
300.671
300.751
300.832
300.915
300.999
301.085
301.173
301.262
301.354
301.447
301.542
301.64
301.74
301.842
301.948
302.056
302.168
302.283
302.402
302.525
302.654
302.787
302.926
303.072
303.225
303.385
303.555
303.733
303.922
304.122
304.335
304.562
304.803
305.062
305.338
305.634
305.952
306.294
306.661
307.057
307.483
307.943
308.439
308.975
309.554
310.18
310.856
311.588
312.379
313.236
314.163
315.166
316.253
317.429
318.703
320.083
321.578
323.199
324.956
326.862
328.93
331.176
333.617
336.271
339.159
342.304
345.73
349.462
353.518
357.906
362.607
367.546
300.031
300.095
300.16
300.228
300.298
300.369
300.443
300.517
300.594
300.672
300.752
300.833
300.916
301.001
301.087
301.175
301.264
301.356
301.449
301.545
301.643
301.743
301.845
301.951
302.059
302.171
302.286
302.405
302.529
302.657
302.791
302.93
303.076
303.229
303.389
303.558
303.737
303.926
304.126
304.338
304.565
304.806
305.064
305.34
305.636
305.953
306.294
306.66
307.055
307.48
307.938
308.433
308.966
309.543
310.166
310.839
311.567
312.353
313.204
314.125
315.12
316.197
317.362
318.622
319.986
321.461
323.058
324.786
326.656
328.68
330.871
333.242
335.809
338.586
341.588
344.828
348.316
352.053
356.027
360.201
364.511
300.031
300.095
300.161
300.229
300.298
300.37
300.443
300.519
300.595
300.674
300.754
300.835
300.918
301.003
301.089
301.177
301.267
301.359
301.453
301.548
301.646
301.746
301.849
301.955
302.063
302.175
302.291
302.41
302.534
302.662
302.796
302.935
303.081
303.234
303.395
303.564
303.742
303.931
304.131
304.343
304.569
304.81
305.067
305.343
305.638
305.954
306.294
306.659
307.052
307.475
307.932
308.424
308.955
309.528
310.147
310.815
311.537
312.317
313.161
314.072
315.056
316.12
317.27
318.512
319.853
321.302
322.867
324.556
326.379
328.346
330.467
332.752
335.211
337.854
340.688
343.718
346.944
350.356
353.934
357.642
361.43
300.031
300.095
300.161
300.229
300.299
300.371
300.445
300.52
300.597
300.675
300.756
300.837
300.921
301.006
301.092
301.181
301.271
301.363
301.457
301.553
301.651
301.752
301.855
301.96
302.069
302.181
302.297
302.417
302.54
302.669
302.803
302.942
303.088
303.241
303.402
303.57
303.749
303.937
304.137
304.349
304.575
304.815
305.072
305.346
305.64
305.955
306.294
306.657
307.049
307.47
307.923
308.412
308.939
309.508
310.121
310.784
311.499
312.27
313.103
314.002
314.973
316.02
317.15
318.368
319.682
321.097
322.622
324.263
326.028
327.925
329.961
332.143
334.478
336.969
339.619
342.427
345.385
348.482
351.694
354.992
358.336
300.031
300.095
300.162
300.23
300.3
300.372
300.446
300.522
300.599
300.678
300.758
300.84
300.924
301.01
301.097
301.185
301.276
301.368
301.462
301.559
301.657
301.758
301.861
301.968
302.077
302.189
302.305
302.425
302.549
302.678
302.812
302.951
303.097
303.25
303.411
303.579
303.758
303.946
304.145
304.357
304.582
304.822
305.077
305.351
305.644
305.957
306.294
306.655
307.044
307.462
307.912
308.397
308.919
309.482
310.089
310.744
311.449
312.21
313.03
313.915
314.868
315.894
316.999
318.188
319.468
320.842
322.319
323.902
325.599
327.415
329.354
331.42
333.617
335.945
338.403
340.985
343.682
346.48
349.359
352.294
355.256
300.032
300.096
300.162
300.231
300.302
300.374
300.448
300.524
300.602
300.681
300.762
300.844
300.929
301.014
301.102
301.191
301.282
301.375
301.469
301.566
301.665
301.766
301.87
301.977
302.086
302.199
302.315
302.435
302.56
302.689
302.823
302.963
303.109
303.262
303.422
303.591
303.769
303.957
304.156
304.367
304.591
304.83
305.085
305.357
305.648
305.96
306.294
306.653
307.038
307.453
307.898
308.378
308.894
309.45
310.049
310.694
311.388
312.136
312.94
313.806
314.738
315.739
316.815
317.97
319.208
320.535
321.955
323.473
325.092
326.816
328.648
330.59
332.641
334.799
337.062
339.422
341.869
344.39
346.967
349.58
352.208
300.032
300.096
300.163
300.232
300.303
300.376
300.451
300.527
300.605
300.685
300.766
300.849
300.934
301.02
301.108
301.198
301.289
301.383
301.478
301.575
301.675
301.777
301.881
301.988
302.098
302.211
302.328
302.448
302.573
302.702
302.837
302.977
303.123
303.276
303.436
303.605
303.783
303.97
304.169
304.379
304.602
304.84
305.094
305.364
305.653
305.963
306.294
306.65
307.031
307.441
307.881
308.355
308.864
309.411
310
310.633
311.314
312.045
312.831
313.676
314.582
315.554
316.595
317.71
318.901
320.174
321.531
322.975
324.508
326.134
327.852
329.662
331.563
333.552
335.623
337.769
339.98
342.245
344.549
346.877
349.211
300.032
300.097
300.164
300.234
300.305
300.378
300.454
300.531
300.609
300.69
300.772
300.855
300.941
301.027
301.116
301.207
301.299
301.393
301.489
301.587
301.687
301.789
301.894
302.002
302.113
302.226
302.343
302.464
302.59
302.719
302.854
302.994
303.141
303.294
303.454
303.622
303.8
303.987
304.185
304.394
304.617
304.853
305.105
305.373
305.66
305.967
306.295
306.646
307.023
307.428
307.861
308.327
308.828
309.365
309.941
310.561
311.225
311.938
312.703
313.522
314.399
315.337
316.339
317.408
318.548
319.76
321.047
322.412
323.854
325.375
326.975
328.651
330.402
332.223
334.109
336.053
338.045
340.076
342.134
344.206
346.28
300.032
300.098
300.165
300.235
300.307
300.381
300.457
300.535
300.614
300.695
300.778
300.863
300.949
301.036
301.126
301.217
301.31
301.405
301.502
301.601
301.702
301.805
301.911
302.019
302.13
302.245
302.363
302.484
302.61
302.74
302.875
303.016
303.162
303.315
303.475
303.644
303.821
304.007
304.204
304.413
304.634
304.869
305.119
305.385
305.669
305.972
306.296
306.643
307.014
307.412
307.838
308.295
308.785
309.31
309.873
310.476
311.122
311.814
312.553
313.344
314.188
315.088
316.047
317.066
318.148
319.296
320.509
321.789
323.136
324.55
326.03
327.573
329.176
330.835
332.545
334.299
336.089
337.906
339.743
341.587
343.431
300.032
300.099
300.167
300.238
300.31
300.385
300.462
300.54
300.62
300.702
300.786
300.871
300.958
301.047
301.138
301.23
301.324
301.42
301.518
301.617
301.719
301.824
301.93
302.04
302.152
302.267
302.386
302.508
302.634
302.765
302.9
303.041
303.188
303.341
303.501
303.67
303.846
304.032
304.228
304.435
304.655
304.888
305.136
305.399
305.679
305.979
306.298
306.639
307.004
307.394
307.812
308.259
308.737
309.248
309.795
310.38
311.005
311.672
312.384
313.143
313.95
314.809
315.72
316.686
317.707
318.785
319.921
321.114
322.364
323.67
325.031
326.443
327.904
329.409
330.953
332.53
334.135
335.759
337.396
339.038
340.676
300.033
300.1
300.169
300.24
300.314
300.39
300.467
300.546
300.628
300.711
300.796
300.882
300.97
301.06
301.152
301.245
301.341
301.438
301.537
301.638
301.741
301.846
301.954
302.065
302.178
302.294
302.414
302.537
302.664
302.795
302.931
303.073
303.22
303.373
303.533
303.701
303.877
304.062
304.257
304.463
304.681
304.912
305.156
305.416
305.693
305.988
306.302
306.637
306.994
307.375
307.783
308.218
308.682
309.178
309.707
310.272
310.873
311.514
312.195
312.919
313.687
314.501
315.362
316.271
317.229
318.236
319.292
320.397
321.55
322.75
323.994
325.28
326.605
327.965
329.355
330.77
332.205
333.655
335.113
336.573
338.029
300.033
300.101
300.171
300.244
300.318
300.395
300.474
300.554
300.637
300.721
300.807
300.895
300.984
301.076
301.169
301.264
301.361
301.459
301.56
301.662
301.767
301.874
301.983
302.095
302.209
302.326
302.447
302.571
302.699
302.831
302.968
303.11
303.257
303.411
303.571
303.738
303.914
304.098
304.292
304.496
304.712
304.94
305.182
305.438
305.711
306
306.308
306.635
306.984
307.356
307.752
308.174
308.623
309.102
309.611
310.153
310.729
311.341
311.989
312.676
313.402
314.169
314.977
315.827
316.72
317.655
318.631
319.649
320.707
321.803
322.935
324.101
325.298
326.522
327.77
329.037
330.319
331.611
332.909
334.207
335.501
300.034
300.103
300.174
300.247
300.323
300.401
300.481
300.563
300.647
300.733
300.821
300.91
301.001
301.094
301.189
301.286
301.384
301.485
301.587
301.691
301.798
301.906
302.017
302.13
302.246
302.365
302.487
302.612
302.741
302.875
303.012
303.155
303.303
303.456
303.616
303.783
303.958
304.142
304.334
304.537
304.75
304.976
305.214
305.466
305.733
306.017
306.317
306.637
306.976
307.337
307.72
308.128
308.561
309.021
309.509
310.027
310.575
311.155
311.769
312.417
313.1
313.818
314.572
315.363
316.189
317.052
317.95
318.882
319.848
320.844
321.87
322.924
324.001
325.1
326.217
327.349
328.493
329.643
330.797
331.951
333.1
300.034
300.104
300.177
300.252
300.329
300.409
300.49
300.574
300.66
300.747
300.837
300.928
301.021
301.117
301.213
301.312
301.413
301.515
301.62
301.726
301.834
301.945
302.058
302.173
302.29
302.411
302.535
302.661
302.792
302.926
303.065
303.208
303.356
303.51
303.671
303.838
304.012
304.194
304.385
304.586
304.797
305.019
305.253
305.501
305.762
306.039
306.332
306.643
306.972
307.321
307.69
308.082
308.497
308.937
309.402
309.894
310.414
310.962
311.539
312.147
312.785
313.454
314.154
314.885
315.647
316.439
317.26
318.11
318.987
319.89
320.816
321.764
322.731
323.716
324.714
325.724
326.742
327.765
328.791
329.816
330.838
300.035
300.107
300.181
300.257
300.336
300.418
300.501
300.587
300.674
300.764
300.856
300.95
301.045
301.143
301.242
301.343
301.446
301.551
301.658
301.767
301.878
301.991
302.106
302.223
302.343
302.466
302.591
302.72
302.852
302.988
303.127
303.272
303.421
303.575
303.736
303.902
304.076
304.257
304.446
304.645
304.853
305.072
305.302
305.544
305.8
306.069
306.354
306.655
306.973
307.309
307.664
308.039
308.436
308.854
309.296
309.761
310.25
310.765
311.306
311.872
312.465
313.085
313.731
314.404
315.102
315.826
316.574
317.346
318.14
318.954
319.788
320.639
321.505
322.384
323.275
324.174
325.08
325.99
326.901
327.812
328.719
300.036
300.109
300.185
300.264
300.345
300.428
300.514
300.602
300.692
300.784
300.879
300.975
301.073
301.174
301.276
301.38
301.486
301.594
301.704
301.816
301.929
302.045
302.163
302.283
302.405
302.531
302.658
302.789
302.923
303.061
303.202
303.347
303.497
303.652
303.813
303.979
304.152
304.333
304.52
304.716
304.922
305.137
305.362
305.599
305.848
306.11
306.386
306.677
306.983
307.305
307.645
308.003
308.38
308.776
309.193
309.631
310.09
310.571
311.074
311.6
312.149
312.721
313.314
313.93
314.568
315.226
315.905
316.603
317.319
318.052
318.8
319.562
320.336
321.121
321.915
322.715
323.52
324.329
325.138
325.947
326.753
300.037
300.112
300.19
300.271
300.355
300.44
300.529
300.62
300.713
300.808
300.905
301.005
301.107
301.21
301.316
301.424
301.533
301.645
301.758
301.873
301.99
302.109
302.23
302.354
302.479
302.607
302.738
302.871
303.007
303.147
303.29
303.437
303.588
303.744
303.905
304.072
304.244
304.423
304.609
304.803
305.005
305.217
305.437
305.668
305.911
306.165
306.431
306.711
307.005
307.313
307.637
307.977
308.334
308.708
309.1
309.51
309.939
310.387
310.853
311.34
311.845
312.37
312.913
313.475
314.055
314.652
315.266
315.895
316.539
317.197
317.867
318.548
319.239
319.939
320.645
321.357
322.072
322.79
323.509
324.227
324.944
300.038
300.116
300.196
300.28
300.366
300.455
300.547
300.641
300.737
300.836
300.937
301.04
301.146
301.254
301.363
301.475
301.589
301.704
301.822
301.941
302.062
302.185
302.31
302.437
302.567
302.698
302.832
302.968
303.107
303.25
303.395
303.544
303.697
303.854
304.015
304.182
304.354
304.532
304.717
304.908
305.107
305.315
305.531
305.756
305.991
306.237
306.494
306.763
307.044
307.338
307.646
307.968
308.304
308.656
309.023
309.406
309.805
310.22
310.651
311.099
311.563
312.043
312.538
313.049
313.575
314.115
314.669
315.235
315.813
316.403
317.002
317.61
318.226
318.849
319.477
320.11
320.746
321.383
322.022
322.66
323.296
300.039
300.12
300.204
300.29
300.38
300.472
300.567
300.665
300.766
300.869
300.974
301.082
301.192
301.305
301.419
301.536
301.654
301.775
301.897
302.021
302.147
302.275
302.405
302.536
302.67
302.805
302.943
303.083
303.226
303.371
303.519
303.67
303.825
303.984
304.146
304.314
304.486
304.663
304.846
305.036
305.232
305.435
305.646
305.866
306.094
306.331
306.579
306.836
307.105
307.385
307.677
307.981
308.298
308.627
308.97
309.326
309.696
310.08
310.477
310.888
311.313
311.751
312.202
312.665
313.141
313.628
314.127
314.636
315.154
315.682
316.217
316.76
317.309
317.863
318.422
318.984
319.549
320.115
320.682
321.249
321.815
300.041
300.125
300.212
300.302
300.396
300.492
300.592
300.694
300.8
300.907
301.018
301.131
301.247
301.365
301.485
301.607
301.731
301.858
301.986
302.116
302.247
302.381
302.516
302.653
302.792
302.932
303.075
303.219
303.366
303.515
303.666
303.821
303.978
304.138
304.303
304.471
304.643
304.82
305.002
305.19
305.383
305.583
305.789
306.003
306.224
306.454
306.691
306.938
307.195
307.461
307.737
308.024
308.321
308.629
308.949
309.28
309.622
309.976
310.341
310.718
311.106
311.505
311.914
312.334
312.764
313.203
313.652
314.108
314.573
315.045
315.523
316.007
316.496
316.99
317.487
317.986
318.488
318.992
319.496
319.999
320.502
300.043
300.131
300.222
300.317
300.415
300.516
300.621
300.728
300.839
300.953
301.07
301.189
301.311
301.435
301.562
301.691
301.822
301.955
302.09
302.227
302.366
302.506
302.647
302.791
302.935
303.082
303.23
303.38
303.531
303.685
303.84
303.998
304.159
304.322
304.489
304.658
304.831
305.008
305.19
305.376
305.567
305.763
305.965
306.174
306.388
306.61
306.839
307.076
307.32
307.573
307.834
308.104
308.383
308.672
308.969
309.276
309.593
309.919
310.254
310.599
310.953
311.316
311.688
312.068
312.456
312.852
313.255
313.665
314.081
314.503
314.93
315.362
315.798
316.238
316.68
317.125
317.572
318.019
318.467
318.915
319.363
300.045
300.138
300.234
300.334
300.437
300.544
300.654
300.768
300.886
301.006
301.13
301.257
301.386
301.518
301.653
301.79
301.929
302.071
302.214
302.358
302.505
302.653
302.802
302.953
303.105
303.259
303.413
303.569
303.727
303.886
304.047
304.209
304.374
304.541
304.71
304.882
305.056
305.234
305.416
305.601
305.79
305.983
306.182
306.385
306.594
306.809
307.029
307.256
307.489
307.73
307.977
308.231
308.493
308.763
309.04
309.325
309.618
309.918
310.226
310.542
310.865
311.195
311.533
311.877
312.228
312.585
312.947
313.316
313.689
314.067
314.449
314.835
315.224
315.616
316.01
316.406
316.803
317.202
317.601
317.999
318.398
300.048
300.146
300.247
300.353
300.463
300.577
300.694
300.815
300.941
301.069
301.201
301.337
301.475
301.616
301.76
301.907
302.056
302.206
302.359
302.513
302.669
302.827
302.985
303.145
303.306
303.467
303.63
303.794
303.959
304.124
304.291
304.46
304.629
304.8
304.973
305.148
305.325
305.504
305.686
305.871
306.059
306.251
306.446
306.646
306.849
307.057
307.27
307.488
307.712
307.941
308.175
308.415
308.662
308.914
309.173
309.437
309.708
309.986
310.269
310.558
310.854
311.155
311.461
311.774
312.091
312.413
312.74
313.071
313.406
313.745
314.088
314.433
314.781
315.131
315.482
315.836
316.19
316.545
316.901
317.256
317.611
300.051
300.155
300.263
300.376
300.493
300.615
300.741
300.871
301.005
301.143
301.285
301.431
301.58
301.732
301.887
302.044
302.204
302.367
302.531
302.696
302.863
303.032
303.201
303.371
303.542
303.714
303.886
304.059
304.232
304.406
304.581
304.756
304.931
305.108
305.286
305.465
305.645
305.827
306.011
306.196
306.384
306.575
306.768
306.964
307.163
307.366
307.572
307.783
307.997
308.216
308.439
308.667
308.899
309.136
309.378
309.624
309.876
310.132
310.393
310.659
310.93
311.205
311.485
311.768
312.056
312.348
312.643
312.942
313.243
313.548
313.855
314.165
314.476
314.789
315.104
315.42
315.736
316.053
316.371
316.688
317.005
300.055
300.166
300.282
300.403
300.529
300.66
300.795
300.936
301.08
301.23
301.383
301.541
301.703
301.867
302.035
302.206
302.38
302.555
302.733
302.912
303.092
303.274
303.456
303.639
303.822
304.005
304.189
304.372
304.556
304.739
304.923
305.106
305.29
305.473
305.657
305.841
306.026
306.211
306.398
306.585
306.774
306.964
307.156
307.35
307.547
307.745
307.946
308.15
308.357
308.567
308.78
308.996
309.216
309.44
309.667
309.897
310.132
310.37
310.611
310.857
311.106
311.358
311.613
311.872
312.134
312.399
312.666
312.937
313.209
313.484
313.76
314.038
314.318
314.599
314.881
315.164
315.448
315.731
316.015
316.299
316.583
300.059
300.179
300.304
300.435
300.571
300.712
300.859
301.012
301.169
301.332
301.499
301.671
301.847
302.027
302.211
302.397
302.587
302.778
302.972
303.167
303.363
303.56
303.757
303.955
304.152
304.349
304.546
304.743
304.938
305.133
305.327
305.521
305.713
305.905
306.096
306.287
306.478
306.668
306.859
307.049
307.24
307.432
307.624
307.817
308.011
308.207
308.404
308.602
308.803
309.005
309.21
309.417
309.626
309.838
310.052
310.269
310.489
310.711
310.935
311.163
311.392
311.625
311.859
312.096
312.336
312.577
312.82
313.066
313.313
313.561
313.811
314.062
314.314
314.567
314.821
315.075
315.329
315.584
315.838
316.093
316.347
300.064
300.194
300.33
300.472
300.62
300.774
300.934
301.101
301.274
301.452
301.636
301.824
302.018
302.216
302.418
302.623
302.831
303.041
303.254
303.467
303.682
303.897
304.112
304.327
304.542
304.756
304.968
305.179
305.389
305.598
305.805
306.01
306.213
306.416
306.616
306.815
307.013
307.21
307.406
307.601
307.795
307.989
308.182
308.376
308.569
308.763
308.957
309.152
309.348
309.545
309.743
309.942
310.142
310.344
310.547
310.752
310.959
311.167
311.377
311.589
311.802
312.017
312.234
312.452
312.672
312.893
313.115
313.339
313.563
313.789
314.016
314.243
314.471
314.7
314.928
315.157
315.387
315.616
315.844
316.073
316.301
300.069
300.212
300.36
300.515
300.677
300.846
301.023
301.206
301.396
301.593
301.796
302.005
302.219
302.438
302.661
302.889
303.119
303.352
303.586
303.822
304.058
304.295
304.532
304.767
305.002
305.234
305.465
305.694
305.921
306.145
306.367
306.586
306.803
307.017
307.229
307.438
307.645
307.849
308.052
308.252
308.452
308.649
308.845
309.04
309.235
309.428
309.621
309.813
310.006
310.198
310.391
310.583
310.777
310.97
311.165
311.36
311.555
311.752
311.949
312.148
312.347
312.547
312.748
312.95
313.153
313.356
313.56
313.765
313.971
314.177
314.383
314.59
314.797
315.004
315.211
315.418
315.625
315.832
316.038
316.243
316.448
300.076
300.232
300.395
300.566
300.744
300.931
301.125
301.328
301.539
301.758
301.984
302.216
302.455
302.699
302.949
303.202
303.458
303.717
303.978
304.24
304.502
304.764
305.025
305.285
305.543
305.798
306.051
306.3
306.546
306.789
307.028
307.264
307.496
307.724
307.948
308.169
308.386
308.601
308.811
309.019
309.225
309.427
309.627
309.825
310.022
310.216
310.409
310.6
310.79
310.98
311.168
311.356
311.543
311.73
311.917
312.104
312.291
312.477
312.664
312.851
313.038
313.225
313.413
313.601
313.789
313.977
314.166
314.354
314.543
314.732
314.92
315.109
315.298
315.486
315.675
315.862
316.05
316.236
316.422
316.608
316.792
300.084
300.256
300.436
300.624
300.822
301.029
301.246
301.472
301.707
301.952
302.204
302.465
302.733
303.007
303.286
303.57
303.858
304.148
304.439
304.732
305.024
305.316
305.606
305.893
306.178
306.459
306.737
307.01
307.279
307.543
307.802
308.056
308.306
308.55
308.789
309.024
309.253
309.478
309.699
309.916
310.129
310.337
310.543
310.745
310.944
311.141
311.334
311.526
311.715
311.903
312.088
312.273
312.455
312.637
312.818
312.997
313.176
313.355
313.532
313.709
313.886
314.063
314.238
314.414
314.589
314.764
314.939
315.114
315.288
315.461
315.635
315.808
315.98
316.152
316.323
316.494
316.664
316.833
317.001
317.168
317.335
300.093
300.283
300.483
300.692
300.912
301.143
301.385
301.639
301.903
302.177
302.462
302.756
303.058
303.367
303.682
304.002
304.326
304.652
304.98
305.309
305.636
305.962
306.286
306.605
306.921
307.232
307.538
307.839
308.133
308.421
308.703
308.978
309.247
309.509
309.765
310.015
310.259
310.497
310.729
310.955
311.176
311.393
311.604
311.812
312.015
312.214
312.41
312.602
312.792
312.978
313.162
313.344
313.523
313.7
313.876
314.05
314.222
314.394
314.563
314.732
314.9
315.066
315.232
315.397
315.561
315.724
315.887
316.049
316.21
316.37
316.53
316.689
316.847
317.004
317.16
317.315
317.469
317.622
317.774
317.925
318.075
300.103
300.315
300.537
300.77
301.016
301.274
301.546
301.831
302.129
302.44
302.761
303.094
303.436
303.786
304.143
304.506
304.873
305.242
305.612
305.981
306.35
306.715
307.077
307.433
307.784
308.129
308.467
308.798
309.121
309.436
309.743
310.041
310.332
310.614
310.888
311.155
311.414
311.665
311.909
312.147
312.377
312.602
312.821
313.034
313.242
313.445
313.643
313.837
314.027
314.213
314.396
314.576
314.752
314.926
315.097
315.266
315.433
315.598
315.761
315.922
316.081
316.239
316.396
316.551
316.705
316.858
317.009
317.16
317.309
317.457
317.604
317.75
317.894
318.037
318.179
318.32
318.46
318.598
318.735
318.87
319.005
300.115
300.35
300.598
300.858
301.134
301.424
301.73
302.052
302.389
302.741
303.106
303.484
303.873
304.272
304.678
305.089
305.505
305.923
306.342
306.759
307.173
307.584
307.988
308.386
308.777
309.159
309.532
309.896
310.25
310.594
310.928
311.251
311.565
311.868
312.162
312.446
312.721
312.986
313.243
313.492
313.733
313.966
314.192
314.411
314.623
314.83
315.031
315.227
315.418
315.604
315.786
315.964
316.138
316.309
316.476
316.641
316.802
316.961
317.118
317.272
317.424
317.574
317.721
317.868
318.012
318.155
318.296
318.435
318.573
318.709
318.844
318.977
319.108
319.238
319.367
319.494
319.619
319.743
319.866
319.987
320.106
300.128
300.39
300.665
300.957
301.265
301.592
301.937
302.301
302.683
303.082
303.498
303.928
304.371
304.825
305.287
305.755
306.228
306.701
307.175
307.645
308.111
308.571
309.023
309.466
309.899
310.321
310.732
311.131
311.518
311.892
312.253
312.603
312.939
313.264
313.577
313.878
314.169
314.448
314.718
314.977
315.227
315.468
315.7
315.925
316.142
316.352
316.555
316.752
316.943
317.129
317.31
317.486
317.657
317.825
317.988
318.148
318.304
318.457
318.606
318.753
318.898
319.039
319.179
319.316
319.451
319.583
319.714
319.842
319.968
320.092
320.215
320.335
320.453
320.57
320.685
320.798
320.91
321.02
321.128
321.235
321.34
300.141
300.432
300.738
301.063
301.408
301.774
302.163
302.574
303.007
303.46
303.933
304.423
304.927
305.443
305.968
306.499
307.034
307.57
308.104
308.632
309.154
309.667
310.169
310.659
311.136
311.599
312.048
312.482
312.9
313.304
313.692
314.065
314.424
314.768
315.098
315.414
315.718
316.008
316.288
316.555
316.812
317.059
317.296
317.524
317.744
317.955
318.159
318.356
318.547
318.731
318.909
319.082
319.25
319.412
319.571
319.725
319.875
320.021
320.163
320.302
320.438
320.571
320.701
320.828
320.952
321.074
321.192
321.309
321.423
321.534
321.644
321.751
321.856
321.96
322.061
322.16
322.258
322.354
322.448
322.541
322.632
300.155
300.475
300.812
301.171
301.554
301.962
302.397
302.859
303.348
303.86
304.396
304.952
305.524
306.108
306.7
307.299
307.899
308.498
309.093
309.68
310.258
310.823
311.375
311.911
312.431
312.933
313.417
313.883
314.33
314.759
315.17
315.563
315.939
316.298
316.641
316.968
317.281
317.579
317.865
318.137
318.397
318.647
318.885
319.113
319.332
319.542
319.744
319.938
320.125
320.305
320.478
320.646
320.807
320.963
321.114
321.261
321.403
321.54
321.673
321.803
321.929
322.051
322.169
322.285
322.397
322.507
322.613
322.717
322.819
322.918
323.015
323.109
323.201
323.292
323.38
323.466
323.551
323.633
323.714
323.793
323.87
300.168
300.513
300.879
301.269
301.688
302.137
302.618
303.131
303.677
304.249
304.846
305.465
306.101
306.751
307.41
308.074
308.739
309.4
310.054
310.698
311.327
311.941
312.537
313.113
313.669
314.203
314.715
315.204
315.672
316.119
316.544
316.949
317.334
317.7
318.049
318.38
318.694
318.994
319.278
319.549
319.808
320.054
320.288
320.512
320.726
320.931
321.127
321.314
321.494
321.667
321.832
321.992
322.145
322.292
322.434
322.571
322.704
322.831
322.955
323.074
323.189
323.301
323.409
323.513
323.615
323.713
323.809
323.902
323.992
324.08
324.166
324.249
324.33
324.409
324.486
324.56
324.633
324.704
324.774
324.841
324.907
300.176
300.538
300.923
301.336
301.78
302.259
302.775
303.328
303.913
304.529
305.173
305.841
306.529
307.232
307.945
308.663
309.38
310.091
310.792
311.478
312.146
312.794
313.419
314.02
314.596
315.146
315.671
316.171
316.646
317.097
317.524
317.93
318.314
318.678
319.023
319.349
319.659
319.953
320.232
320.497
320.749
320.988
321.216
321.433
321.64
321.837
322.026
322.206
322.378
322.544
322.702
322.854
323
323.14
323.274
323.404
323.529
323.649
323.765
323.877
323.984
324.089
324.189
324.287
324.381
324.472
324.56
324.646
324.729
324.81
324.888
324.963
325.037
325.108
325.178
325.245
325.311
325.374
325.436
325.496
325.555
385.356
393.311
399.992
405.808
410.962
415.565
419.678
423.338
426.56
429.347
431.69
433.565
434.941
435.77
435.986
435.5
434.181
431.835
428.13
422.406
413.015
406.641
401.743
397.72
394.286
391.277
388.592
386.162
383.939
381.886
379.974
378.181
376.489
374.884
373.354
371.888
370.477
369.114
367.793
366.508
365.254
364.027
362.823
361.639
360.473
359.321
358.181
357.053
355.933
354.822
353.717
352.618
351.524
350.435
349.35
348.269
347.191
346.117
345.047
343.979
342.915
341.854
340.796
339.742
338.691
337.645
336.603
335.566
334.535
333.51
332.493
331.485
330.487
329.499
328.523
327.561
326.613
325.68
324.765
323.869
322.992
322.135
321.3
320.488
319.7
318.936
318.198
317.485
316.798
316.137
315.504
314.897
314.317
313.763
313.236
312.735
312.259
311.808
311.381
310.978
310.598
310.239
309.901
309.584
309.285
309.004
308.74
308.492
308.259
308.04
307.833
307.639
307.455
307.281
307.116
306.959
306.81
306.667
306.53
306.398
306.271
306.147
306.027
305.909
305.794
305.68
305.569
305.458
305.348
305.238
305.129
305.02
304.911
304.801
304.691
304.581
304.47
304.358
304.245
304.132
304.018
303.903
303.788
303.672
303.556
303.439
303.322
303.204
303.087
302.97
302.853
302.736
302.62
302.505
302.39
302.277
302.165
302.054
301.946
301.839
301.735
380.605
387.52
393.734
399.308
404.321
408.837
412.895
416.519
419.721
422.499
424.84
426.725
428.119
428.977
429.237
428.818
427.607
425.449
422.125
417.366
411.126
405.72
401.199
397.358
394.025
391.08
388.438
386.039
383.839
381.803
379.904
378.122
376.44
374.842
373.318
371.857
370.45
369.091
367.773
366.491
365.239
364.014
362.812
361.629
360.464
359.313
358.174
357.047
355.928
354.817
353.712
352.614
351.52
350.431
349.347
348.266
347.189
346.115
345.044
343.977
342.913
341.852
340.794
339.74
338.689
337.643
336.601
335.564
334.532
333.508
332.491
331.483
330.484
329.496
328.52
327.558
326.609
325.677
324.762
323.865
322.988
322.132
321.297
320.485
319.697
318.933
318.194
317.481
316.794
316.134
315.501
314.894
314.314
313.76
313.233
312.732
312.256
311.806
311.379
310.976
310.596
310.237
309.9
309.582
309.284
309.003
308.739
308.491
308.258
308.039
307.833
307.638
307.454
307.281
307.116
306.959
306.81
306.667
306.53
306.398
306.271
306.147
306.027
305.91
305.794
305.681
305.569
305.459
305.349
305.239
305.13
305.021
304.912
304.802
304.692
304.582
304.471
304.359
304.246
304.133
304.019
303.904
303.789
303.673
303.556
303.44
303.322
303.205
303.088
302.97
302.853
302.737
302.621
302.505
302.391
302.278
302.166
302.055
301.946
301.84
301.736
376.499
382.419
388.003
393.176
397.926
402.263
406.2
409.742
412.89
415.638
417.97
419.863
421.287
422.199
422.544
422.255
421.244
419.411
416.65
412.913
408.414
404.046
400.096
396.584
393.454
390.643
388.094
385.762
383.613
381.615
379.748
377.99
376.328
374.747
373.237
371.787
370.391
369.04
367.729
366.452
365.206
363.985
362.787
361.608
360.445
359.297
358.16
357.034
355.917
354.807
353.704
352.606
351.513
350.425
349.341
348.261
347.184
346.11
345.04
343.973
342.909
341.848
340.791
339.736
338.686
337.639
336.597
335.56
334.528
333.504
332.486
331.478