/*--------------------------------*- C++ -*----------------------------------*\
  =========                 |
  \\      /  F ield         | OpenFOAM: The Open Source CFD Toolbox
   \\    /   O peration     | Website:  https://openfoam.org
    \\  /    A nd           | Version:  7
     \\/     M anipulation  |
\*---------------------------------------------------------------------------*/
FoamFile
{
    version     2.0;
    format      ascii;
    class       surfaceScalarField;
    location    "4";
    object      phi;
}
// * * * * * * * * * * * * * * * * * * * * * * * * * * * * * * * * * * * * * //

dimensions      [1 0 -1 0 0 0 0];

internalField   nonuniform List<scalar> 
23692
(
1.1808e-05
-1.73148e-07
1.21288e-05
-3.20533e-07
1.25825e-05
-4.53149e-07
1.31524e-05
-5.69224e-07
1.38242e-05
-6.71034e-07
1.45851e-05
-7.59875e-07
1.54228e-05
-8.36611e-07
1.63262e-05
-9.02059e-07
1.72846e-05
-9.5699e-07
1.82882e-05
-1.00215e-06
1.93281e-05
-1.03828e-06
2.03959e-05
-1.0661e-06
2.14841e-05
-1.08635e-06
2.25856e-05
-1.09973e-06
2.36944e-05
-1.10691e-06
2.48049e-05
-1.10857e-06
2.59122e-05
-1.10532e-06
2.70119e-05
-1.09777e-06
2.81003e-05
-1.08648e-06
2.91742e-05
-1.07196e-06
3.02308e-05
-1.0547e-06
3.12678e-05
-1.03514e-06
3.22834e-05
-1.01369e-06
3.32759e-05
-9.90727e-07
3.42442e-05
-9.6657e-07
3.51874e-05
-9.41523e-07
3.61048e-05
-9.1585e-07
3.69962e-05
-8.89786e-07
3.78612e-05
-8.63538e-07
3.86998e-05
-8.37282e-07
3.95123e-05
-8.11175e-07
4.02989e-05
-7.85348e-07
4.10599e-05
-7.59913e-07
4.17959e-05
-7.34962e-07
4.25074e-05
-7.10569e-07
4.3195e-05
-6.86792e-07
4.38594e-05
-6.63678e-07
4.45013e-05
-6.41258e-07
4.51214e-05
-6.19551e-07
4.57205e-05
-5.98563e-07
4.62991e-05
-5.78295e-07
4.68581e-05
-5.58736e-07
4.73982e-05
-5.39866e-07
4.79199e-05
-5.21657e-07
4.8424e-05
-5.04072e-07
4.8911e-05
-4.8707e-07
4.93814e-05
-4.70601e-07
4.98358e-05
-4.54609e-07
5.02745e-05
-4.39028e-07
5.06978e-05
-4.23788e-07
5.11062e-05
-4.08811e-07
5.14997e-05
-3.94011e-07
5.18784e-05
-3.79295e-07
5.22423e-05
-3.6456e-07
5.25912e-05
-3.49694e-07
5.29251e-05
-3.34574e-07
5.32433e-05
-3.19063e-07
5.35455e-05
-3.03013e-07
5.38309e-05
-2.86256e-07
5.40986e-05
-2.68604e-07
5.43475e-05
-2.49846e-07
5.45763e-05
-2.29737e-07
5.47833e-05
-2.07996e-07
5.49666e-05
-1.84289e-07
5.51238e-05
-1.5822e-07
5.52521e-05
-1.29304e-07
5.53481e-05
-9.69426e-08
5.54075e-05
-6.03783e-08
5.54251e-05
-1.8638e-08
5.53945e-05
2.96132e-08
5.53073e-05
8.62711e-08
5.51523e-05
1.54019e-07
5.49146e-05
2.36819e-07
5.45729e-05
3.40779e-07
5.40963e-05
4.75747e-07
5.34372e-05
6.58331e-07
5.25184e-05
9.17918e-07
5.12081e-05
1.30954e-06
4.92602e-05
1.94717e-06
4.61456e-05
3.11387e-06
6.0011e-06
4.01439e-05
1.26309e-05
-3.54514e-07
1.29729e-05
-6.62237e-07
1.34576e-05
-9.37303e-07
1.40667e-05
-1.17763e-06
1.4785e-05
-1.38849e-06
1.55987e-05
-1.57248e-06
1.64947e-05
-1.73139e-06
1.74609e-05
-1.86692e-06
1.84861e-05
-1.98067e-06
1.95598e-05
-2.07418e-06
2.06722e-05
-2.14899e-06
2.18145e-05
-2.20662e-06
2.29786e-05
-2.24854e-06
2.41571e-05
-2.27624e-06
2.53433e-05
-2.29112e-06
2.65314e-05
-2.29455e-06
2.77159e-05
-2.28782e-06
2.88924e-05
-2.27218e-06
3.00568e-05
-2.24879e-06
3.12056e-05
-2.21871e-06
3.23359e-05
-2.18296e-06
3.34453e-05
-2.14245e-06
3.45316e-05
-2.09803e-06
3.55932e-05
-2.05045e-06
3.66289e-05
-2.00041e-06
3.76377e-05
-1.94852e-06
3.86189e-05
-1.89533e-06
3.95721e-05
-1.84133e-06
4.04971e-05
-1.78694e-06
4.13938e-05
-1.73254e-06
4.22624e-05
-1.67843e-06
4.31033e-05
-1.62491e-06
4.39168e-05
-1.57218e-06
4.47034e-05
-1.52046e-06
4.54637e-05
-1.46988e-06
4.61984e-05
-1.42057e-06
4.69081e-05
-1.37263e-06
4.75937e-05
-1.32611e-06
4.82558e-05
-1.28107e-06
4.88952e-05
-1.2375e-06
4.95127e-05
-1.19542e-06
5.0109e-05
-1.15479e-06
5.06849e-05
-1.11558e-06
5.12411e-05
-1.07773e-06
5.17782e-05
-1.04116e-06
5.22968e-05
-1.00579e-06
5.27975e-05
-9.71505e-07
5.32809e-05
-9.38197e-07
5.37472e-05
-9.05731e-07
5.4197e-05
-8.7396e-07
5.46304e-05
-8.42722e-07
5.50476e-05
-8.11841e-07
5.54488e-05
-7.81123e-07
5.58339e-05
-7.50358e-07
5.62028e-05
-7.19315e-07
5.65551e-05
-6.87742e-07
5.68906e-05
-6.5536e-07
5.72085e-05
-6.21864e-07
5.75082e-05
-5.86913e-07
5.77888e-05
-5.50126e-07
5.8049e-05
-5.11072e-07
5.82875e-05
-4.69261e-07
5.85026e-05
-4.24123e-07
5.86922e-05
-3.74994e-07
5.8854e-05
-3.21081e-07
5.89851e-05
-2.61426e-07
5.90819e-05
-1.94848e-07
5.91404e-05
-1.19865e-07
5.91553e-05
-3.45774e-08
5.91203e-05
6.35623e-08
5.90275e-05
1.78055e-07
5.88667e-05
3.13763e-07
5.86249e-05
4.77663e-07
5.82846e-05
6.80082e-07
5.78227e-05
9.36783e-07
5.72076e-05
1.27252e-06
5.63975e-05
1.72716e-06
5.534e-05
2.36622e-06
5.39845e-05
3.30182e-06
5.23689e-05
4.72872e-06
6.89488e-06
5.14744e-05
1.35103e-05
-5.43641e-07
1.3874e-05
-1.02564e-06
1.43904e-05
-1.45319e-06
1.50405e-05
-1.82696e-06
1.58078e-05
-2.15478e-06
1.66772e-05
-2.44078e-06
1.76349e-05
-2.68778e-06
1.86679e-05
-2.89842e-06
1.9764e-05
-3.0752e-06
2.09121e-05
-3.22053e-06
2.21018e-05
-3.33679e-06
2.33235e-05
-3.42635e-06
2.45685e-05
-3.49151e-06
2.58289e-05
-3.53455e-06
2.70976e-05
-3.55767e-06
2.83682e-05
-3.56299e-06
2.96352e-05
-3.55254e-06
3.08935e-05
-3.52823e-06
3.21388e-05
-3.49186e-06
3.33674e-05
-3.4451e-06
3.45761e-05
-3.38952e-06
3.57624e-05
-3.32655e-06
3.69239e-05
-3.25748e-06
3.80591e-05
-3.18351e-06
3.91663e-05
-3.1057e-06
4.02448e-05
-3.02501e-06
4.12936e-05
-2.9423e-06
4.23123e-05
-2.85831e-06
4.33008e-05
-2.77372e-06
4.42589e-05
-2.68908e-06
4.51869e-05
-2.60491e-06
4.6085e-05
-2.52161e-06
4.69537e-05
-2.43956e-06
4.77934e-05
-2.35903e-06
4.86049e-05
-2.28028e-06
4.93888e-05
-2.20349e-06
5.01458e-05
-2.1288e-06
5.08768e-05
-2.05631e-06
5.15824e-05
-1.98609e-06
5.22636e-05
-1.91814e-06
5.29211e-05
-1.85248e-06
5.35556e-05
-1.78906e-06
5.41681e-05
-1.72782e-06
5.47591e-05
-1.66866e-06
5.53294e-05
-1.61148e-06
5.58797e-05
-1.55612e-06
5.64104e-05
-1.50244e-06
5.69222e-05
-1.45025e-06
5.74154e-05
-1.39934e-06
5.78905e-05
-1.34949e-06
5.83477e-05
-1.30044e-06
5.87871e-05
-1.25192e-06
5.9209e-05
-1.20365e-06
5.96132e-05
-1.15528e-06
5.99995e-05
-1.10648e-06
6.03677e-05
-1.05685e-06
6.07174e-05
-1.00597e-06
6.1048e-05
-9.53368e-07
6.13586e-05
-8.98542e-07
6.16483e-05
-8.40913e-07
6.1916e-05
-7.79836e-07
6.21603e-05
-7.14579e-07
6.23793e-05
-6.44303e-07
6.25712e-05
-5.68028e-07
6.27336e-05
-4.84602e-07
6.28637e-05
-3.92643e-07
6.29582e-05
-2.90468e-07
6.30132e-05
-1.75989e-07
6.3024e-05
-4.65711e-08
6.29853e-05
1.01209e-07
6.28903e-05
2.71876e-07
6.27315e-05
4.71509e-07
6.24997e-05
7.08427e-07
6.21846e-05
9.94208e-07
6.17752e-05
1.34515e-06
6.12624e-05
1.78433e-06
6.06445e-05
2.34415e-06
5.99409e-05
3.06897e-06
5.92262e-05
4.01564e-06
5.87143e-05
5.23976e-06
6.71714e-06
5.88913e-05
1.44508e-05
-7.40774e-07
1.48365e-05
-1.41093e-06
1.53857e-05
-2.00188e-06
1.60786e-05
-2.51903e-06
1.68973e-05
-2.97245e-06
1.78257e-05
-3.36792e-06
1.88487e-05
-3.70941e-06
1.99525e-05
-4.00063e-06
2.11241e-05
-4.24502e-06
2.23513e-05
-4.44594e-06
2.36232e-05
-4.60666e-06
2.49294e-05
-4.73046e-06
2.62607e-05
-4.82054e-06
2.76084e-05
-4.88005e-06
2.89651e-05
-4.91201e-06
3.03238e-05
-4.91937e-06
3.16786e-05
-4.90491e-06
3.30241e-05
-4.8713e-06
3.43556e-05
-4.821e-06
3.56692e-05
-4.75635e-06
3.69616e-05
-4.67949e-06
3.82297e-05
-4.5924e-06
3.94714e-05
-4.49688e-06
4.06847e-05
-4.39456e-06
4.18681e-05
-4.28694e-06
4.30204e-05
-4.17532e-06
4.4141e-05
-4.06088e-06
4.52293e-05
-3.94467e-06
4.6285e-05
-3.8276e-06
4.7308e-05
-3.71046e-06
4.82987e-05
-3.59394e-06
4.92572e-05
-3.47861e-06
5.0184e-05
-3.36497e-06
5.10796e-05
-3.25342e-06
5.19448e-05
-3.1443e-06
5.27802e-05
-3.03786e-06
5.35866e-05
-2.9343e-06
5.43649e-05
-2.83374e-06
5.51158e-05
-2.73628e-06
5.58401e-05
-2.64194e-06
5.65388e-05
-2.55072e-06
5.72127e-05
-2.46257e-06
5.78624e-05
-2.37738e-06
5.84889e-05
-2.29504e-06
5.90928e-05
-2.21538e-06
5.96748e-05
-2.13821e-06
6.02355e-05
-2.06332e-06
6.07754e-05
-1.99044e-06
6.1295e-05
-1.9193e-06
6.17946e-05
-1.84959e-06
6.22745e-05
-1.78096e-06
6.2735e-05
-1.71303e-06
6.3176e-05
-1.64542e-06
6.35976e-05
-1.57767e-06
6.39996e-05
-1.50931e-06
6.43816e-05
-1.43982e-06
6.47433e-05
-1.36863e-06
6.5084e-05
-1.29512e-06
6.5403e-05
-1.21862e-06
6.56993e-05
-1.13835e-06
6.59719e-05
-1.05349e-06
6.62192e-05
-9.63076e-07
6.64397e-05
-8.66035e-07
6.66316e-05
-7.61123e-07
6.67927e-05
-6.46896e-07
6.69205e-05
-5.21647e-07
6.70121e-05
-3.83334e-07
6.70644e-05
-2.29477e-07
6.70736e-05
-5.70232e-08
6.70358e-05
1.37824e-07
6.69467e-05
3.59856e-07
6.68018e-05
6.15207e-07
6.65973e-05
9.11755e-07
6.63309e-05
1.2596e-06
6.60034e-05
1.67157e-06
6.56232e-05
2.16349e-06
6.52125e-05
2.75384e-06
6.48188e-05
3.46172e-06
6.45323e-05
4.30121e-06
6.4504e-05
5.26715e-06
6.30054e-06
6.49198e-05
1.54571e-05
-9.4641e-07
1.58652e-05
-1.81864e-06
1.64486e-05
-2.58463e-06
1.71862e-05
-3.25583e-06
1.80591e-05
-3.84421e-06
1.90498e-05
-4.35726e-06
2.01421e-05
-4.80024e-06
2.13211e-05
-5.17798e-06
2.2573e-05
-5.49497e-06
2.38846e-05
-5.75555e-06
2.52441e-05
-5.96402e-06
2.66405e-05
-6.12459e-06
2.80637e-05
-6.24143e-06
2.95047e-05
-6.31861e-06
3.09553e-05
-6.36008e-06
3.24081e-05
-6.36962e-06
3.38566e-05
-6.35087e-06
3.52952e-05
-6.30726e-06
3.67188e-05
-6.24201e-06
3.81231e-05
-6.15813e-06
3.95045e-05
-6.0584e-06
4.086e-05
-5.9454e-06
4.2187e-05
-5.82144e-06
4.34835e-05
-5.68866e-06
4.47479e-05
-5.54897e-06
4.59789e-05
-5.40409e-06
4.71757e-05
-5.25553e-06
4.83377e-05
-5.10465e-06
4.94646e-05
-4.95262e-06
5.05565e-05
-4.80048e-06
5.16134e-05
-4.6491e-06
5.26356e-05
-4.49925e-06
5.36237e-05
-4.35155e-06
5.45782e-05
-4.20653e-06
5.54998e-05
-4.06462e-06
5.63892e-05
-3.92614e-06
5.72472e-05
-3.79134e-06
5.80747e-05
-3.66041e-06
5.88726e-05
-3.53343e-06
5.96418e-05
-3.41046e-06
6.0383e-05
-3.29148e-06
6.10972e-05
-3.17642e-06
6.17853e-05
-3.06515e-06
6.24479e-05
-2.95752e-06
6.30858e-05
-2.85331e-06
6.36998e-05
-2.75229e-06
6.42904e-05
-2.65415e-06
6.48582e-05
-2.55858e-06
6.54037e-05
-2.46521e-06
6.59272e-05
-2.37364e-06
6.64291e-05
-2.28345e-06
6.69095e-05
-2.19415e-06
6.73686e-05
-2.10524e-06
6.78062e-05
-2.01615e-06
6.82223e-05
-1.92629e-06
6.86165e-05
-1.83501e-06
6.89884e-05
-1.74161e-06
6.93375e-05
-1.64531e-06
6.9663e-05
-1.54529e-06
6.99641e-05
-1.44063e-06
7.02397e-05
-1.33031e-06
7.04885e-05
-1.21321e-06
7.07093e-05
-1.08806e-06
7.09003e-05
-9.53443e-07
7.10598e-05
-8.07713e-07
7.11859e-05
-6.48983e-07
7.12763e-05
-4.75049e-07
7.13288e-05
-2.83312e-07
7.13412e-05
-7.06881e-08
7.13113e-05
1.66451e-07
7.12374e-05
4.32418e-07
7.1119e-05
7.324e-07
7.0957e-05
1.07252e-06
7.07556e-05
1.45983e-06
7.0524e-05
1.90207e-06
7.02793e-05
2.40703e-06
7.0051e-05
2.98107e-06
6.98852e-05
3.62648e-06
6.98485e-05
4.33688e-06
7.00249e-05
5.08984e-06
5.83504e-06
7.04894e-05
1.65339e-05
-1.16128e-06
1.69653e-05
-2.24965e-06
1.75844e-05
-3.20304e-06
1.83692e-05
-4.03968e-06
1.92992e-05
-4.77311e-06
2.03559e-05
-5.41253e-06
2.15219e-05
-5.96459e-06
2.27811e-05
-6.43532e-06
2.41185e-05
-6.83033e-06
2.55201e-05
-7.15505e-06
2.69733e-05
-7.41483e-06
2.8466e-05
-7.61493e-06
2.99877e-05
-7.76054e-06
3.15284e-05
-7.85672e-06
3.30794e-05
-7.90839e-06
3.46328e-05
-7.92028e-06
3.61817e-05
-7.89691e-06
3.77197e-05
-7.84255e-06
3.92417e-05
-7.76121e-06
4.0743e-05
-7.65664e-06
4.22197e-05
-7.53232e-06
4.36684e-05
-7.39142e-06
4.50864e-05
-7.23686e-06
4.64716e-05
-7.07129e-06
4.78222e-05
-6.89708e-06
4.91369e-05
-6.71637e-06
5.04148e-05
-6.53105e-06
5.16551e-05
-6.34281e-06
5.28577e-05
-6.1531e-06
5.40224e-05
-5.96321e-06
5.51495e-05
-5.77424e-06
5.62391e-05
-5.58712e-06
5.72918e-05
-5.40264e-06
5.83082e-05
-5.22145e-06
5.9289e-05
-5.04407e-06
6.0235e-05
-4.87092e-06
6.1147e-05
-4.7023e-06
6.2026e-05
-4.53842e-06
6.28728e-05
-4.37942e-06
6.36883e-05
-4.22534e-06
6.44735e-05
-4.07615e-06
6.52293e-05
-3.93178e-06
6.59565e-05
-3.79207e-06
6.66559e-05
-3.65682e-06
6.73284e-05
-3.52576e-06
6.79746e-05
-3.3986e-06
6.85952e-05
-3.27497e-06
6.91908e-05
-3.15448e-06
6.97618e-05
-3.03669e-06
7.03087e-05
-2.9211e-06
7.08318e-05
-2.80719e-06
7.13313e-05
-2.69438e-06
7.18073e-05
-2.58205e-06
7.22597e-05
-2.46954e-06
7.26886e-05
-2.35614e-06
7.30936e-05
-2.24106e-06
7.34743e-05
-2.12349e-06
7.38304e-05
-2.00253e-06
7.41611e-05
-1.87723e-06
7.44657e-05
-1.74652e-06
7.47434e-05
-1.60928e-06
7.49931e-05
-1.46427e-06
7.52137e-05
-1.31009e-06
7.54042e-05
-1.14524e-06
7.55631e-05
-9.68017e-07
7.56892e-05
-7.76512e-07
7.57813e-05
-5.68578e-07
7.58384e-05
-3.41782e-07
7.58597e-05
-9.33795e-08
7.58451e-05
1.79635e-07
7.57956e-05
4.80551e-07
7.57137e-05
8.12994e-07
7.56042e-05
1.18075e-06
7.54753e-05
1.58747e-06
7.534e-05
2.03614e-06
7.52175e-05
2.52827e-06
7.51349e-05
3.06252e-06
7.51273e-05
3.63291e-06
7.52367e-05
4.22645e-06
7.5505e-05
4.82042e-06
5.3802e-06
7.59589e-05
1.76862e-05
-1.38636e-06
1.81422e-05
-2.70523e-06
1.87991e-05
-3.85914e-06
1.96337e-05
-4.87328e-06
2.06245e-05
-5.76264e-06
2.17514e-05
-6.53794e-06
2.29959e-05
-7.20733e-06
2.43407e-05
-7.77808e-06
2.57695e-05
-8.25703e-06
2.72676e-05
-8.65076e-06
2.8821e-05
-8.96574e-06
3.04171e-05
-9.20837e-06
3.20442e-05
-9.38493e-06
3.36919e-05
-9.50155e-06
3.53506e-05
-9.5642e-06
3.70119e-05
-9.57861e-06
3.86683e-05
-9.55025e-06
4.0313e-05
-9.48429e-06
4.19405e-05
-9.38561e-06
4.35456e-05
-9.25875e-06
4.51241e-05
-9.1079e-06
4.66726e-05
-8.93694e-06
4.81879e-05
-8.74939e-06
4.96679e-05
-8.54845e-06
5.11105e-05
-8.33702e-06
5.25144e-05
-8.11766e-06
5.38786e-05
-7.89269e-06
5.52023e-05
-7.66412e-06
5.64852e-05
-7.43373e-06
5.77272e-05
-7.20308e-06
5.89285e-05
-6.97349e-06
6.00893e-05
-6.74608e-06
6.12102e-05
-6.52182e-06
6.22919e-05
-6.30147e-06
6.3335e-05
-6.08569e-06
6.43403e-05
-5.87495e-06
6.53088e-05
-5.66963e-06
6.62414e-05
-5.46999e-06
6.71391e-05
-5.27617e-06
6.80027e-05
-5.08824e-06
6.88333e-05
-4.90616e-06
6.96318e-05
-4.72983e-06
7.03991e-05
-4.55906e-06
7.11361e-05
-4.39362e-06
7.18435e-05
-4.23318e-06
7.25222e-05
-4.07739e-06
7.31728e-05
-3.92581e-06
7.37959e-05
-3.77798e-06
7.43922e-05
-3.63336e-06
7.49619e-05
-3.49139e-06
7.55054e-05
-3.35144e-06
7.60231e-05
-3.21284e-06
7.6515e-05
-3.07486e-06
7.69813e-05
-2.93675e-06
7.74217e-05
-2.79768e-06
7.78363e-05
-2.65678e-06
7.82248e-05
-2.51312e-06
7.85867e-05
-2.3657e-06
7.89216e-05
-2.21346e-06
7.9229e-05
-2.05528e-06
7.95083e-05
-1.88995e-06
7.97587e-05
-1.71617e-06
7.99797e-05
-1.53254e-06
8.01705e-05
-1.33754e-06
8.03306e-05
-1.12957e-06
8.04594e-05
-9.06863e-07
8.05569e-05
-6.67527e-07
8.06231e-05
-4.09542e-07
8.0659e-05
-1.30777e-07
8.06663e-05
1.70877e-07
8.0648e-05
4.97423e-07
8.06088e-05
8.50761e-07
8.05557e-05
1.2324e-06
8.04987e-05
1.64309e-06
8.04512e-05
2.08236e-06
8.04303e-05
2.54784e-06
8.0457e-05
3.03448e-06
8.05551e-05
3.53364e-06
8.0748e-05
4.03235e-06
8.10544e-05
4.5129e-06
4.9538e-06
8.14797e-05
1.89195e-05
-1.62278e-06
1.94018e-05
-3.18703e-06
2.00989e-05
-4.55541e-06
2.09866e-05
-5.75991e-06
2.20422e-05
-6.81684e-06
2.32442e-05
-7.73833e-06
2.45728e-05
-8.53397e-06
2.60093e-05
-9.21241e-06
2.75363e-05
-9.78174e-06
2.91379e-05
-1.02498e-05
3.07991e-05
-1.06242e-05
3.25063e-05
-1.09127e-05
3.42468e-05
-1.11225e-05
3.60095e-05
-1.12612e-05
3.77841e-05
-1.13356e-05
3.95614e-05
-1.13527e-05
4.13334e-05
-1.13189e-05
4.30928e-05
-1.12404e-05
4.48334e-05
-1.1123e-05
4.655e-05
-1.0972e-05
4.82378e-05
-1.07925e-05
4.98932e-05
-1.05891e-05
5.15128e-05
-1.03659e-05
5.30941e-05
-1.01268e-05
5.46351e-05
-9.8751e-06
5.61343e-05
-9.61398e-06
5.75904e-05
-9.34613e-06
5.90029e-05
-9.07396e-06
6.03712e-05
-8.79958e-06
6.16953e-05
-8.52483e-06
6.29753e-05
-8.25126e-06
6.42115e-05
-7.98023e-06
6.54044e-05
-7.71286e-06
6.65548e-05
-7.45008e-06
6.76633e-05
-7.19263e-06
6.87309e-05
-6.94109e-06
6.97585e-05
-6.69591e-06
7.0747e-05
-6.45738e-06
7.16975e-05
-6.22568e-06
7.26109e-05
-6.00087e-06
7.34883e-05
-5.78293e-06
7.43307e-05
-5.57172e-06
7.5139e-05
-5.36702e-06
7.59142e-05
-5.16856e-06
7.6657e-05
-4.97597e-06
7.73683e-05
-4.78881e-06
7.80489e-05
-4.6066e-06
7.86994e-05
-4.42879e-06
7.93203e-05
-4.25478e-06
7.99122e-05
-4.08389e-06
8.04754e-05
-3.91543e-06
8.10104e-05
-3.74862e-06
8.15173e-05
-3.58268e-06
8.19962e-05
-3.41672e-06
8.24472e-05
-3.24985e-06
8.28704e-05
-3.08111e-06
8.32655e-05
-2.90949e-06
8.36323e-05
-2.73393e-06
8.39708e-05
-2.55332e-06
8.42806e-05
-2.3665e-06
8.45614e-05
-2.17224e-06
8.48129e-05
-1.96927e-06
8.50351e-05
-1.75626e-06
8.52278e-05
-1.53181e-06
8.53911e-05
-1.29451e-06
8.55255e-05
-1.04288e-06
8.56318e-05
-7.75451e-07
8.57114e-05
-4.90765e-07
8.57665e-05
-1.8745e-07
8.58001e-05
1.35645e-07
8.58167e-05
4.79256e-07
8.58222e-05
8.43732e-07
8.58243e-05
1.22877e-06
8.58328e-05
1.63312e-06
8.58595e-05
2.05426e-06
8.59178e-05
2.48804e-06
8.60226e-05
2.92832e-06
8.61882e-05
3.36676e-06
8.64264e-05
3.79283e-06
8.67439e-05
4.19418e-06
4.55809e-06
8.71384e-05
2.02396e-05
-1.8719e-06
2.07502e-05
-3.69714e-06
2.14905e-05
-5.29491e-06
2.24353e-05
-6.70346e-06
2.35604e-05
-7.94048e-06
2.48432e-05
-9.01926e-06
2.62621e-05
-9.95087e-06
2.77974e-05
-1.07453e-05
2.94303e-05
-1.14121e-05
3.11435e-05
-1.19602e-05
3.29209e-05
-1.23987e-05
3.47479e-05
-1.27365e-05
3.66109e-05
-1.29823e-05
3.84977e-05
-1.31446e-05
4.03973e-05
-1.32317e-05
4.22997e-05
-1.32516e-05
4.41963e-05
-1.32119e-05
4.60792e-05
-1.31198e-05
4.79418e-05
-1.2982e-05
4.97783e-05
-1.2805e-05
5.15837e-05
-1.25944e-05
5.33538e-05
-1.23558e-05
5.50853e-05
-1.2094e-05
5.67753e-05
-1.18135e-05
5.84216e-05
-1.15182e-05
6.00226e-05
-1.12119e-05
6.1577e-05
-1.08976e-05
6.30841e-05
-1.05782e-05
6.45433e-05
-1.02561e-05
6.59546e-05
-9.93355e-06
6.7318e-05
-9.6123e-06
6.8634e-05
-9.29395e-06
6.9903e-05
-8.9798e-06
7.11258e-05
-8.67092e-06
7.23031e-05
-8.36821e-06
7.34359e-05
-8.07232e-06
7.45252e-05
-7.78377e-06
7.55719e-05
-7.5029e-06
7.65772e-05
-7.22992e-06
7.75422e-05
-6.96491e-06
7.84678e-05
-6.70783e-06
7.93552e-05
-6.45852e-06
8.02053e-05
-6.21675e-06
8.10191e-05
-5.98218e-06
8.17976e-05
-5.7544e-06
8.25417e-05
-5.53291e-06
8.3252e-05
-5.31717e-06
8.39294e-05
-5.10654e-06
8.45744e-05
-4.90035e-06
8.51878e-05
-4.69786e-06
8.57699e-05
-4.49828e-06
8.63211e-05
-4.30077e-06
8.68419e-05
-4.10445e-06
8.73325e-05
-3.90837e-06
8.7793e-05
-3.71157e-06
8.82236e-05
-3.51304e-06
8.86245e-05
-3.31172e-06
8.89957e-05
-3.10652e-06
8.93372e-05
-2.89632e-06
8.96491e-05
-2.67998e-06
8.99316e-05
-2.45632e-06
9.01848e-05
-2.22416e-06
9.04092e-05
-1.98232e-06
9.06053e-05
-1.72962e-06
9.0774e-05
-1.4649e-06
9.09165e-05
-1.1871e-06
9.10345e-05
-8.95232e-07
9.11305e-05
-5.88461e-07
9.12075e-05
-2.66183e-07
9.12695e-05
7.19122e-08
9.13215e-05
4.25535e-07
9.13698e-05
7.93807e-07
9.14217e-05
1.17525e-06
9.14857e-05
1.5675e-06
9.15712e-05
1.96717e-06
9.1688e-05
2.3697e-06
9.18455e-05
2.76934e-06
9.20516e-05
3.15919e-06
9.23115e-05
3.53149e-06
9.26262e-05
3.87811e-06
4.19179e-06
9.29912e-05
2.16524e-05
-2.13525e-06
2.21939e-05
-4.23806e-06
2.29812e-05
-6.08125e-06
2.39876e-05
-7.70856e-06
2.51879e-05
-9.13914e-06
2.65579e-05
-1.03872e-05
2.80746e-05
-1.14653e-05
2.97167e-05
-1.23849e-05
3.14641e-05
-1.31566e-05
3.32981e-05
-1.37912e-05
3.52015e-05
-1.42989e-05
3.71583e-05
-1.46899e-05
3.91539e-05
-1.49744e-05
4.11751e-05
-1.51622e-05
4.321e-05
-1.52629e-05
4.52478e-05
-1.52856e-05
4.72791e-05
-1.52394e-05
4.92955e-05
-1.51323e-05
5.12898e-05
-1.49724e-05
5.32556e-05
-1.47669e-05
5.51876e-05
-1.45226e-05
5.70813e-05
-1.42458e-05
5.8933e-05
-1.3942e-05
6.07397e-05
-1.36165e-05
6.24989e-05
-1.3274e-05
6.42089e-05
-1.29185e-05
6.58683e-05
-1.25538e-05
6.74763e-05
-1.2183e-05
6.90323e-05
-1.18092e-05
7.05363e-05
-1.14347e-05
7.19882e-05
-1.10616e-05
7.33886e-05
-1.06918e-05
7.47379e-05
-1.03268e-05
7.60369e-05
-9.9678e-06
7.72864e-05
-9.61582e-06
7.84875e-05
-9.27164e-06
7.96411e-05
-8.93584e-06
8.07484e-05
-8.60882e-06
8.18105e-05
-8.29083e-06
8.28285e-05
-7.98194e-06
8.38036e-05
-7.68211e-06
8.47369e-05
-7.39119e-06
8.56295e-05
-7.10889e-06
8.64825e-05
-6.83484e-06
8.72967e-05
-6.56857e-06
8.80733e-05
-6.30954e-06
8.88131e-05
-6.05713e-06
8.95168e-05
-5.81065e-06
9.01853e-05
-5.56935e-06
9.08192e-05
-5.33242e-06
9.14191e-05
-5.099e-06
9.19856e-05
-4.8682e-06
9.25191e-05
-4.63905e-06
9.30202e-05
-4.41058e-06
9.34891e-05
-4.18178e-06
9.39263e-05
-3.95159e-06
9.43321e-05
-3.71896e-06
9.47069e-05
-3.48281e-06
9.5051e-05
-3.24205e-06
9.5365e-05
-2.99561e-06
9.56494e-05
-2.74241e-06
9.59049e-05
-2.48144e-06
9.61324e-05
-2.21169e-06
9.63333e-05
-1.93227e-06
9.65089e-05
-1.64236e-06
9.66612e-05
-1.3413e-06
9.67927e-05
-1.02859e-06
9.69064e-05
-7.04003e-07
9.7006e-05
-3.67584e-07
9.70957e-05
-1.97037e-08
9.71808e-05
3.38674e-07
9.72669e-05
7.05887e-07
9.73605e-05
1.07985e-06
9.74685e-05
1.45781e-06
9.75977e-05
1.83627e-06
9.77547e-05
2.21106e-06
9.7945e-05
2.57738e-06
9.81726e-05
2.93e-06
9.8439e-05
3.26351e-06
9.87429e-05
3.57277e-06
3.85377e-06
9.90794e-05
2.31647e-05
-2.41458e-06
2.37401e-05
-4.81281e-06
2.45786e-05
-6.91874e-06
2.56522e-05
-8.78068e-06
2.69342e-05
-1.04194e-05
2.83989e-05
-1.18498e-05
3.00219e-05
-1.30859e-05
3.17802e-05
-1.41403e-05
3.36521e-05
-1.50255e-05
3.56176e-05
-1.57533e-05
3.76579e-05
-1.63356e-05
3.97558e-05
-1.67841e-05
4.18956e-05
-1.71102e-05
4.40628e-05
-1.73254e-05
4.62446e-05
-1.74405e-05
4.84294e-05
-1.74662e-05
5.06068e-05
-1.74125e-05
5.27679e-05
-1.72891e-05
5.49046e-05
-1.71049e-05
5.70102e-05
-1.68683e-05
5.9079e-05
-1.65871e-05
6.11059e-05
-1.62686e-05
6.30871e-05
-1.59191e-05
6.50191e-05
-1.55446e-05
6.68995e-05
-1.51505e-05
6.87262e-05
-1.47415e-05
7.04979e-05
-1.43219e-05
7.22136e-05
-1.38953e-05
7.38727e-05
-1.3465e-05
7.54751e-05
-1.3034e-05
7.70208e-05
-1.26045e-05
7.85104e-05
-1.21786e-05
7.99443e-05
-1.17582e-05
8.13234e-05
-1.13446e-05
8.26486e-05
-1.09389e-05
8.39209e-05
-1.0542e-05
8.51415e-05
-1.01547e-05
8.63116e-05
-9.77733e-06
8.74323e-05
-9.41019e-06
8.85048e-05
-9.05338e-06
8.95305e-05
-8.70687e-06
9.05105e-05
-8.37047e-06
9.1446e-05
-8.04387e-06
9.23382e-05
-7.72667e-06
9.31882e-05
-7.41835e-06
9.39969e-05
-7.11832e-06
9.47655e-05
-6.8259e-06
9.54948e-05
-6.54033e-06
9.61857e-05
-6.26081e-06
9.68391e-05
-5.98647e-06
9.74557e-05
-5.71641e-06
9.80362e-05
-5.44965e-06
9.85812e-05
-5.18523e-06
9.90916e-05
-4.92212e-06
9.95677e-05
-4.6593e-06
0.00010001
-4.39572e-06
0.00010042
-4.13034e-06
0.000100798
-3.86213e-06
0.000101144
-3.59008e-06
0.00010146
-3.31321e-06
0.000101747
-3.03062e-06
0.000102005
-2.74146e-06
0.000102236
-2.44497e-06
0.000102442
-2.14053e-06
0.000102626
-1.82768e-06
0.000102789
-1.50612e-06
0.000102934
-1.17582e-06
0.000103065
-8.36994e-07
0.000103185
-4.90188e-07
0.0001033
-1.36302e-07
0.000103413
2.23396e-07
0.00010353
5.86941e-07
0.000103656
9.5205e-07
0.000103796
1.31599e-06
0.000103955
1.67565e-06
0.000104137
2.02753e-06
0.000104344
2.36793e-06
0.00010458
2.69307e-06
0.000104842
2.99935e-06
0.00010513
3.28358e-06
3.54367e-06
0.000105438
2.47835e-05
-2.71182e-06
2.53963e-05
-5.42495e-06
2.62911e-05
-7.8124e-06
2.74382e-05
-9.92624e-06
2.88096e-05
-1.17888e-05
3.0378e-05
-1.34158e-05
3.21171e-05
-1.48223e-05
3.40023e-05
-1.60225e-05
3.60103e-05
-1.70301e-05
3.81194e-05
-1.78587e-05
4.03092e-05
-1.85216e-05
4.25612e-05
-1.9032e-05
4.48583e-05
-1.9403e-05
4.71848e-05
-1.96475e-05
4.95268e-05
-1.97779e-05
5.18715e-05
-1.98063e-05
5.42078e-05
-1.97442e-05
5.65259e-05
-1.96025e-05
5.88172e-05
-1.93914e-05
6.10743e-05
-1.91207e-05
6.32908e-05
-1.87991e-05
6.54616e-05
-1.84348e-05
6.75822e-05
-1.80352e-05
6.96492e-05
-1.76072e-05
7.16596e-05
-1.71567e-05
7.36114e-05
-1.66892e-05
7.55031e-05
-1.62096e-05
7.73336e-05
-1.5722e-05
7.91024e-05
-1.52302e-05
8.08092e-05
-1.47374e-05
8.24542e-05
-1.42463e-05
8.40379e-05
-1.37593e-05
8.55608e-05
-1.32784e-05
8.7024e-05
-1.28051e-05
8.84282e-05
-1.23408e-05
8.97748e-05
-1.18864e-05
9.10648e-05
-1.14428e-05
9.22996e-05
-1.10104e-05
9.34805e-05
-1.05896e-05
9.46088e-05
-1.01804e-05
9.56858e-05
-9.78289e-06
9.6713e-05
-9.3968e-06
9.76916e-05
-9.02182e-06
9.86229e-05
-8.6575e-06
9.9508e-05
-8.3033e-06
0.000100348
-7.95856e-06
0.000101145
-7.62255e-06
0.000101899
-7.29449e-06
0.000102611
-6.9735e-06
0.000103282
-6.65868e-06
0.000103914
-6.34908e-06
0.000104507
-6.04371e-06
0.000105062
-5.74156e-06
0.00010558
-5.44161e-06
0.000106063
-5.14285e-06
0.00010651
-4.84426e-06
0.000106923
-4.54484e-06
0.000107302
-4.24365e-06
0.00010765
-3.93977e-06
0.000107968
-3.63237e-06
0.000108256
-3.32071e-06
0.000108516
-3.00413e-06
0.000108751
-2.68212e-06
0.000108963
-2.35434e-06
0.000109154
-2.0206e-06
0.000109327
-1.68094e-06
0.000109484
-1.33567e-06
0.000109631
-9.85326e-07
0.000109769
-6.30772e-07
0.000109904
-2.73167e-07
0.000110039
8.6157e-08
0.000110178
4.45273e-07
0.000110326
8.01904e-07
0.000110487
1.15366e-06
0.000110662
1.49794e-06
0.000110856
1.83205e-06
0.000111069
2.15325e-06
0.000111301
2.45893e-06
0.000111552
2.74674e-06
0.000111819
3.01476e-06
3.26204e-06
0.000112099
2.65161e-05
-3.02922e-06
2.71706e-05
-6.07867e-06
2.81276e-05
-8.76817e-06
2.93559e-05
-1.11528e-05
3.08257e-05
-1.32565e-05
3.2508e-05
-1.50955e-05
3.43748e-05
-1.6686e-05
3.63994e-05
-1.80437e-05
3.85568e-05
-1.91838e-05
4.08234e-05
-2.01213e-05
4.31774e-05
-2.08712e-05
4.55983e-05
-2.14484e-05
4.80677e-05
-2.18677e-05
5.05686e-05
-2.21434e-05
5.30855e-05
-2.22898e-05
5.56049e-05
-2.23205e-05
5.81144e-05
-2.22485e-05
6.06035e-05
-2.20863e-05
6.30627e-05
-2.18454e-05
6.5484e-05
-2.15368e-05
6.78606e-05
-2.11705e-05
7.01868e-05
-2.07559e-05
7.24578e-05
-2.03012e-05
7.46698e-05
-1.98143e-05
7.68198e-05
-1.9302e-05
7.89055e-05
-1.87704e-05
8.09253e-05
-1.8225e-05
8.28782e-05
-1.76706e-05
8.47634e-05
-1.71114e-05
8.65808e-05
-1.6551e-05
8.83306e-05
-1.59925e-05
9.00133e-05
-1.54386e-05
9.16296e-05
-1.48915e-05
9.31805e-05
-1.4353e-05
9.4667e-05
-1.38246e-05
9.60904e-05
-1.33074e-05
9.7452e-05
-1.28022e-05
9.87533e-05
-1.23097e-05
9.99956e-05
-1.18302e-05
0.00010118
-1.13638e-05
0.000102309
-1.09106e-05
0.000103384
-1.04702e-05
0.000104405
-1.00425e-05
0.000105375
-9.62675e-06
0.000106295
-9.22254e-06
0.000107165
-8.82915e-06
0.000107988
-8.44581e-06
0.000108765
-8.07167e-06
0.000109497
-7.70583e-06
0.000110185
-7.34737e-06
0.00011083
-6.9953e-06
0.000111434
-6.64862e-06
0.000111998
-6.30633e-06
0.000112522
-5.96741e-06
0.000113009
-5.63088e-06
0.000113459
-5.29578e-06
0.000113873
-4.96119e-06
0.000114254
-4.62623e-06
0.000114603
-4.29014e-06
0.00011492
-3.95221e-06
0.00011521
-3.61186e-06
0.000115472
-3.26864e-06
0.00011571
-2.92225e-06
0.000115926
-2.57255e-06
0.000116123
-2.21961e-06
0.000116303
-1.8637e-06
0.00011647
-1.50532e-06
0.000116628
-1.1452e-06
0.000116779
-7.84345e-07
0.000116928
-4.23965e-07
0.000117077
-6.54246e-08
0.00011723
2.89679e-07
0.000117391
6.39317e-07
0.000117561
9.81512e-07
0.000117742
1.31423e-06
0.000117937
1.63546e-06
0.000118145
1.94326e-06
0.000118366
2.23588e-06
0.000118599
2.51184e-06
0.000118841
2.77003e-06
3.01016e-06
0.000119091
2.83707e-05
-3.36932e-06
2.90718e-05
-6.77889e-06
3.0098e-05
-9.79302e-06
3.14163e-05
-1.24692e-05
3.29951e-05
-1.48329e-05
3.48034e-05
-1.69009e-05
3.68112e-05
-1.86904e-05
3.89898e-05
-2.02185e-05
4.13121e-05
-2.15019e-05
4.37526e-05
-2.25572e-05
4.62873e-05
-2.34012e-05
4.88943e-05
-2.40503e-05
5.15532e-05
-2.45212e-05
5.42454e-05
-2.48302e-05
5.69543e-05
-2.49931e-05
5.96647e-05
-2.50253e-05
6.23635e-05
-2.49415e-05
6.5039e-05
-2.47559e-05
6.76809e-05
-2.44814e-05
7.02805e-05
-2.41306e-05
7.28304e-05
-2.37147e-05
7.53245e-05
-2.32442e-05
7.77575e-05
-2.27287e-05
8.01255e-05
-2.21769e-05
8.24251e-05
-2.15964e-05
8.4654e-05
-2.09942e-05
8.68104e-05
-2.03765e-05
8.88932e-05
-1.97486e-05
9.09017e-05
-1.91154e-05
9.28359e-05
-1.84809e-05
9.46959e-05
-1.78485e-05
9.64824e-05
-1.72213e-05
9.81961e-05
-1.66017e-05
9.98382e-05
-1.59918e-05
0.00010141
-1.53932e-05
0.000102912
-1.48072e-05
0.000104347
-1.42347e-05
0.000105716
-1.36765e-05
0.000107021
-1.31328e-05
0.000108263
-1.26039e-05
0.000109443
-1.20898e-05
0.000110565
-1.15903e-05
0.000111628
-1.11049e-05
0.000112635
-1.06333e-05
0.000113588
-1.01747e-05
0.000114487
-9.72851e-06
0.000115335
-9.29388e-06
0.000116133
-8.86995e-06
0.000116883
-8.45579e-06
0.000117585
-8.05046e-06
0.000118242
-7.65296e-06
0.000118855
-7.26229e-06
0.000119424
-6.87747e-06
0.000119953
-6.49752e-06
0.000120442
-6.12149e-06
0.000120893
-5.74849e-06
0.000121308
-5.37767e-06
0.000121688
-5.00827e-06
0.000122036
-4.63963e-06
0.000122352
-4.27119e-06
0.000122641
-3.90251e-06
0.000122903
-3.5333e-06
0.000123142
-3.16342e-06
0.00012336
-2.7929e-06
0.00012356
-2.42196e-06
0.000123745
-2.051e-06
0.000123918
-1.68061e-06
0.000124082
-1.31159e-06
0.00012424
-9.44913e-07
0.000124395
-5.81734e-07
0.000124551
-2.23326e-07
0.000124709
1.29084e-07
0.000124872
4.73898e-07
0.000125041
8.09495e-07
0.000125219
1.13436e-06
0.000125405
1.44706e-06
0.0001256
1.74628e-06
0.000125802
2.03089e-06
0.000126012
2.29998e-06
0.000126227
2.55296e-06
2.78994e-06
0.000126445
3.03559e-05
-3.73505e-06
3.11094e-05
-7.53142e-06
3.22131e-05
-1.08952e-05
3.36319e-05
-1.38858e-05
3.53321e-05
-1.65304e-05
3.72806e-05
-1.88462e-05
3.94452e-05
-2.08512e-05
4.17948e-05
-2.25639e-05
4.43e-05
-2.40025e-05
4.69331e-05
-2.51853e-05
4.9668e-05
-2.61307e-05
5.24806e-05
-2.68572e-05
5.53485e-05
-2.73832e-05
5.82515e-05
-2.77271e-05
6.11713e-05
-2.79065e-05
6.40915e-05
-2.79389e-05
6.69973e-05
-2.78409e-05
6.98762e-05
-2.76282e-05
7.2717e-05
-2.73157e-05
7.55103e-05
-2.69173e-05
7.82479e-05
-2.64459e-05
8.09232e-05
-2.59132e-05
8.35307e-05
-2.533e-05
8.6066e-05
-2.47061e-05
8.85257e-05
-2.40501e-05
9.09072e-05
-2.33699e-05
9.32087e-05
-2.26724e-05
9.5429e-05
-2.19637e-05
9.75677e-05
-2.1249e-05
9.96245e-05
-2.05329e-05
0.0001016
-1.98194e-05
0.000103495
-1.91116e-05
0.000105309
-1.84125e-05
0.000107046
-1.77243e-05
0.000108705
-1.70488e-05
0.000110288
-1.63875e-05
0.000111797
-1.57414e-05
0.000113235
-1.51112e-05
0.000114602
-1.44974e-05
0.0001159
-1.39003e-05
0.000117132
-1.33198e-05
0.000118298
-1.27558e-05
0.000119402
-1.22078e-05
0.000120445
-1.16753e-05
0.000121429
-1.11578e-05
0.000122355
-1.06544e-05
0.000123226
-1.01644e-05
0.000124042
-9.68683e-06
0.000124807
-9.22079e-06
0.000125521
-8.76532e-06
0.000126187
-8.31942e-06
0.000126805
-7.88211e-06
0.000127379
-7.45243e-06
0.00012791
-7.02944e-06