/*--------------------------------*- C++ -*----------------------------------*\
  =========                 |
  \\      /  F ield         | OpenFOAM: The Open Source CFD Toolbox
   \\    /   O peration     | Website:  https://openfoam.org
    \\  /    A nd           | Version:  7
     \\/     M anipulation  |
\*---------------------------------------------------------------------------*/
FoamFile
{
    version     2.0;
    format      ascii;
    class       volVectorField;
    location    "4";
    object      U;
}
// * * * * * * * * * * * * * * * * * * * * * * * * * * * * * * * * * * * * * //

dimensions      [0 1 -1 0 0 0 0];

internalField   nonuniform List<vector> 
12013
(
(0.100494 -0.000139721 0)
(0.102561 -0.000264513 0)
(0.105978 -0.00038174 0)
(0.110438 -0.000489517 0)
(0.115834 -0.000589137 0)
(0.122056 -0.000681084 0)
(0.128994 -0.000765528 0)
(0.136548 -0.000842644 0)
(0.144626 -0.000912596 0)
(0.15314 -0.000975565 0)
(0.162009 -0.00103176 0)
(0.171159 -0.00108144 0)
(0.180522 -0.00112486 0)
(0.190036 -0.00116233 0)
(0.199644 -0.00119418 0)
(0.209295 -0.00122074 0)
(0.218946 -0.00124236 0)
(0.228555 -0.00125939 0)
(0.238089 -0.0012722 0)
(0.247517 -0.00128114 0)
(0.256814 -0.00128655 0)
(0.265958 -0.00128878 0)
(0.274931 -0.00128814 0)
(0.283719 -0.00128494 0)
(0.292309 -0.0012795 0)
(0.300693 -0.00127208 0)
(0.308865 -0.00126295 0)
(0.31682 -0.00125237 0)
(0.324558 -0.00124055 0)
(0.332076 -0.0012277 0)
(0.339377 -0.00121404 0)
(0.346463 -0.00119974 0)
(0.353338 -0.00118494 0)
(0.360007 -0.00116982 0)
(0.366474 -0.00115451 0)
(0.372746 -0.00113911 0)
(0.378831 -0.0011237 0)
(0.384735 -0.0011084 0)
(0.390466 -0.0010933 0)
(0.396032 -0.00107843 0)
(0.401442 -0.0010638 0)
(0.406703 -0.00104947 0)
(0.411825 -0.00103545 0)
(0.416816 -0.00102176 0)
(0.421684 -0.00100834 0)
(0.426437 -0.000995137 0)
(0.431085 -0.000982105 0)
(0.435635 -0.000969168 0)
(0.440095 -0.000956223 0)
(0.444474 -0.000943134 0)
(0.448777 -0.00092973 0)
(0.453014 -0.000915815 0)
(0.457189 -0.00090116 0)
(0.461311 -0.000885502 0)
(0.465383 -0.000868523 0)
(0.469413 -0.000849848 0)
(0.473405 -0.000829037 0)
(0.477362 -0.000805568 0)
(0.481288 -0.000778836 0)
(0.485186 -0.000748123 0)
(0.489056 -0.000712582 0)
(0.492898 -0.000671197 0)
(0.496712 -0.000622742 0)
(0.500493 -0.000565723 0)
(0.504235 -0.0004983 0)
(0.507929 -0.00041818 0)
(0.511563 -0.000322461 0)
(0.515117 -0.000207421 0)
(0.518569 -6.81926e-05 0)
(0.521882 0.000101926 0)
(0.52501 0.000312622 0)
(0.527886 0.000577803 0)
(0.530412 0.000918233 0)
(0.532446 0.0013664 0)
(0.533774 0.00197571 0)
(0.534055 0.00283865 0)
(0.532737 0.00412508 0)
(0.528845 0.00617285 0)
(0.520629 0.00978224 0)
(0.505053 0.0177811 0)
(0.488862 0.048882 0)
(0.10046 -0.000426867 0)
(0.102522 -0.000810795 0)
(0.105931 -0.00117023 0)
(0.110384 -0.00150022 0)
(0.115776 -0.00180505 0)
(0.121993 -0.00208622 0)
(0.128927 -0.0023443 0)
(0.136479 -0.00257987 0)
(0.144553 -0.00279345 0)
(0.153065 -0.00298563 0)
(0.161932 -0.00315709 0)
(0.17108 -0.0033086 0)
(0.180441 -0.003441 0)
(0.189952 -0.00355523 0)
(0.199558 -0.0036523 0)
(0.209208 -0.00373323 0)
(0.218856 -0.0037991 0)
(0.228464 -0.003851 0)
(0.237996 -0.00389002 0)
(0.247422 -0.00391724 0)
(0.256716 -0.00393372 0)
(0.265858 -0.00394047 0)
(0.274828 -0.00393851 0)
(0.283612 -0.00392876 0)
(0.292199 -0.00391215 0)
(0.300579 -0.00388952 0)
(0.308747 -0.00386167 0)
(0.316698 -0.00382936 0)
(0.324431 -0.0037933 0)
(0.331944 -0.00375411 0)
(0.33924 -0.0037124 0)
(0.346319 -0.00366872 0)
(0.353188 -0.00362356 0)
(0.359848 -0.00357736 0)
(0.366308 -0.00353053 0)
(0.372571 -0.00348342 0)
(0.378646 -0.00343634 0)
(0.38454 -0.00338956 0)
(0.390259 -0.00334327 0)
(0.395813 -0.00329764 0)
(0.40121 -0.00325281 0)
(0.406457 -0.00320887 0)
(0.411563 -0.00316585 0)
(0.416536 -0.00312371 0)
(0.421386 -0.00308235 0)
(0.42612 -0.00304167 0)
(0.430746 -0.00300149 0)
(0.435273 -0.00296155 0)
(0.439708 -0.00292151 0)
(0.444059 -0.00288096 0)
(0.448334 -0.00283938 0)
(0.452539 -0.00279621 0)
(0.456681 -0.00275073 0)
(0.460766 -0.00270213 0)
(0.4648 -0.00264943 0)
(0.468788 -0.00259146 0)
(0.472736 -0.0025269 0)
(0.476646 -0.00245415 0)
(0.480522 -0.00237139 0)
(0.484367 -0.00227643 0)
(0.488182 -0.00216669 0)
(0.491966 -0.00203908 0)
(0.495718 -0.00188987 0)
(0.499436 -0.00171455 0)
(0.503113 -0.00150756 0)
(0.506741 -0.001262 0)
(0.510308 -0.000969145 0)
(0.513799 -0.000617831 0)
(0.517191 -0.000193479 0)
(0.520452 0.000323711 0)
(0.523543 0.000961516 0)
(0.526406 0.00175935 0)
(0.528964 0.00277507 0)
(0.531107 0.00409692 0)
(0.532683 0.00586489 0)
(0.533476 0.00831025 0)
(0.533185 0.0118309 0)
(0.531387 0.0171403 0)
(0.52754 0.0255902 0)
(0.521576 0.0397936 0)
(0.521024 0.0644382 0)
(0.100428 -0.000727238 0)
(0.102474 -0.00139258 0)
(0.105865 -0.00201184 0)
(0.110305 -0.00258014 0)
(0.115684 -0.00310499 0)
(0.121892 -0.00358901 0)
(0.128818 -0.00403321 0)
(0.136361 -0.00443862 0)
(0.144429 -0.00480617 0)
(0.152935 -0.00513688 0)
(0.161796 -0.00543192 0)
(0.170939 -0.00569261 0)
(0.180295 -0.00592042 0)
(0.189802 -0.00611697 0)
(0.199403 -0.00628396 0)
(0.209048 -0.00642319 0)
(0.218692 -0.00653651 0)
(0.228295 -0.00662578 0)
(0.237823 -0.00669288 0)
(0.247244 -0.00673966 0)
(0.256533 -0.00676794 0)
(0.265669 -0.00677949 0)
(0.274633 -0.00677601 0)
(0.283411 -0.00675914 0)
(0.291991 -0.00673042 0)
(0.300364 -0.00669132 0)
(0.308523 -0.00664323 0)
(0.316466 -0.00658743 0)
(0.324189 -0.00652513 0)
(0.331692 -0.00645743 0)
(0.338976 -0.00638536 0)
(0.346044 -0.00630984 0)
(0.352899 -0.00623175 0)
(0.359546 -0.00615181 0)
(0.365989 -0.00607074 0)
(0.372237 -0.00598912 0)
(0.378294 -0.0059075 0)
(0.384168 -0.0058263 0)
(0.389866 -0.00574588 0)
(0.395398 -0.00566653 0)
(0.400769 -0.00558849 0)
(0.40599 -0.00551186 0)
(0.411068 -0.00543667 0)
(0.41601 -0.00536287 0)
(0.420827 -0.00529034 0)
(0.425525 -0.00521887 0)
(0.430113 -0.0051481 0)
(0.434598 -0.00507758 0)
(0.438989 -0.00500672 0)
(0.443292 -0.00493481 0)
(0.447516 -0.004861 0)
(0.451666 -0.00478428 0)
(0.455749 -0.00470344 0)
(0.459772 -0.00461703 0)
(0.463739 -0.00452338 0)
(0.467657 -0.00442051 0)
(0.471529 -0.00430614 0)
(0.475359 -0.0041776 0)
(0.479151 -0.00403176 0)
(0.482907 -0.00386492 0)
(0.486628 -0.00367272 0)
(0.490314 -0.00344997 0)
(0.493965 -0.00319045 0)
(0.497578 -0.00288662 0)
(0.501149 -0.00252933 0)
(0.50467 -0.00210721 0)
(0.508132 -0.00160606 0)
(0.511522 -0.00100782 0)
(0.514823 -0.000289116 0)
(0.518011 0.000581121 0)
(0.521055 0.00164518 0)
(0.523918 0.00296147 0)
(0.526552 0.00461278 0)
(0.528897 0.00671943 0)
(0.530887 0.0094606 0)
(0.532458 0.0131089 0)
(0.533577 0.0180857 0)
(0.53432 0.0250476 0)
(0.535048 0.0350225 0)
(0.536861 0.049521 0)
(0.543512 0.069735 0)
(0.100398 -0.00103938 0)
(0.102423 -0.00200997 0)
(0.105786 -0.0029077 0)
(0.110206 -0.003732 0)
(0.115568 -0.004493 0)
(0.121761 -0.00519463 0)
(0.128673 -0.00583848 0)
(0.136206 -0.00642605 0)
(0.144264 -0.00695873 0)
(0.15276 -0.00743799 0)
(0.161613 -0.00786553 0)
(0.170748 -0.00824328 0)
(0.180097 -0.00857337 0)
(0.189597 -0.00885814 0)
(0.199192 -0.00910006 0)
(0.208831 -0.00930173 0)
(0.218469 -0.00946582 0)
(0.228065 -0.00959505 0)
(0.237586 -0.00969211 0)
(0.247 -0.00975971 0)
(0.256282 -0.00980046 0)
(0.26541 -0.00981694 0)
(0.274365 -0.0098116 0)
(0.283134 -0.00978681 0)
(0.291704 -0.00974482 0)
(0.300066 -0.00968775 0)
(0.308215 -0.00961759 0)
(0.316145 -0.00953621 0)
(0.323854 -0.00944535 0)
(0.331342 -0.0093466 0)
(0.338611 -0.00924144 0)
(0.345661 -0.00913122 0)
(0.352498 -0.00901716 0)
(0.359124 -0.00890036 0)
(0.365547 -0.00878181 0)
(0.37177 -0.00866236 0)
(0.377802 -0.00854276 0)
(0.383649 -0.00842364 0)
(0.389319 -0.00830555 0)
(0.394818 -0.00818886 0)
(0.400156 -0.00807384 0)
(0.405341 -0.00796068 0)
(0.410379 -0.00784942 0)
(0.41528 -0.00774001 0)
(0.420051 -0.00763223 0)
(0.424701 -0.0075257 0)
(0.429237 -0.00741993 0)
(0.433667 -0.00731424 0)
(0.437998 -0.00720781 0)
(0.442238 -0.0070996 0)
(0.446394 -0.00698837 0)
(0.450472 -0.00687261 0)
(0.454479 -0.00675057 0)
(0.458419 -0.00662018 0)
(0.4623 -0.00647904 0)
(0.466126 -0.00632434 0)
(0.469901 -0.00615284 0)
(0.473629 -0.00596072 0)
(0.477314 -0.00574355 0)
(0.480957 -0.00549613 0)
(0.484562 -0.00521236 0)
(0.488128 -0.00488499 0)
(0.491655 -0.00450546 0)
(0.495142 -0.00406344 0)
(0.498586 -0.00354648 0)
(0.501982 -0.0029393 0)
(0.505325 -0.00222303 0)
(0.508606 -0.00137401 0)
(0.511814 -0.000362168 0)
(0.514935 0.000851267 0)
(0.517955 0.00231717 0)
(0.520858 0.00410321 0)
(0.523629 0.00630058 0)
(0.526261 0.0090335 0)
(0.528763 0.0124721 0)
(0.531184 0.0168489 0)
(0.533651 0.0224756 0)
(0.536441 0.0297522 0)
(0.540086 0.0391413 0)
(0.545517 0.0510188 0)
(0.554325 0.0650624 0)
(0.100369 -0.00136452 0)
(0.102371 -0.00266374 0)
(0.105702 -0.00385967 0)
(0.110096 -0.0049589 0)
(0.115436 -0.0059734 0)
(0.121609 -0.00690849 0)
(0.128505 -0.00776648 0)
(0.136023 -0.00854938 0)
(0.144068 -0.00925908 0)
(0.152553 -0.00989757 0)
(0.161396 -0.0104671 0)
(0.170523 -0.0109703 0)
(0.179863 -0.0114099 0)
(0.189356 -0.0117892 0)
(0.198943 -0.0121113 0)
(0.208575 -0.0123797 0)
(0.218205 -0.0125981 0)
(0.227794 -0.0127699 0)
(0.237307 -0.0128989 0)
(0.246713 -0.0129885 0)
(0.255986 -0.0130424 0)
(0.265105 -0.0130638 0)
(0.27405 -0.0130562 0)
(0.282808 -0.0130225 0)
(0.291366 -0.0129659 0)
(0.299715 -0.0128891 0)
(0.307849 -0.0127948 0)
(0.315764 -0.0126855 0)
(0.323456 -0.0125634 0)
(0.330926 -0.0124307 0)
(0.338175 -0.0122894 0)
(0.345204 -0.0121412 0)
(0.352017 -0.0119877 0)
(0.358618 -0.0118305 0)
(0.365013 -0.0116708 0)
(0.371208 -0.0115097 0)
(0.377208 -0.0113481 0)
(0.383021 -0.0111871 0)
(0.388654 -0.0110271 0)
(0.394115 -0.0108688 0)
(0.399411 -0.0107124 0)
(0.404551 -0.0105583 0)
(0.409541 -0.0104064 0)
(0.41439 -0.0102567 0)
(0.419107 -0.0101087 0)
(0.423698 -0.00996203 0)
(0.428171 -0.00981601 0)
(0.432534 -0.00966973 0)
(0.436794 -0.00952207 0)
(0.440959 -0.00937163 0)
(0.445034 -0.00921673 0)
(0.449026 -0.00905539 0)
(0.452942 -0.00888529 0)
(0.456787 -0.00870374 0)
(0.460567 -0.00850757 0)
(0.464287 -0.00829315 0)
(0.46795 -0.00805625 0)
(0.471562 -0.00779193 0)
(0.475125 -0.00749452 0)
(0.478642 -0.00715738 0)
(0.482117 -0.00677279 0)
(0.485549 -0.00633169 0)
(0.488942 -0.0058234 0)
(0.492293 -0.00523525 0)
(0.495604 -0.00455208 0)
(0.498872 -0.00375564 0)
(0.502096 -0.00282373 0)
(0.505273 -0.00172909 0)
(0.508401 -0.000438 0)
(0.511477 0.00109136 0)
(0.514501 0.0029115 0)
(0.51748 0.00508898 0)
(0.520427 0.00770802 0)
(0.523374 0.0108746 0)
(0.526379 0.0147199 0)
(0.529546 0.0194009 0)
(0.533049 0.0250936 0)
(0.537166 0.031968 0)
(0.54231 0.0401292 0)
(0.549039 0.0494918 0)
(0.557998 0.0595399 0)
(0.100342 -0.00170394 0)
(0.10232 -0.00335509 0)
(0.105617 -0.00487017 0)
(0.109981 -0.00626448 0)
(0.115295 -0.00755116 0)
(0.121447 -0.00873684 0)
(0.128324 -0.00982462 0)
(0.135826 -0.0108171 0)
(0.143857 -0.0117167 0)
(0.15233 -0.0125259 0)
(0.161163 -0.0132477 0)
(0.17028 -0.0138854 0)
(0.179612 -0.0144424 0)
(0.189097 -0.0149228 0)
(0.198678 -0.0153308 0)
(0.208303 -0.0156706 0)
(0.217926 -0.015947 0)
(0.227508 -0.0161643 0)
(0.237013 -0.0163271 0)
(0.246411 -0.0164401 0)
(0.255676 -0.0165076 0)
(0.264784 -0.016534 0)
(0.273719 -0.0165234 0)
(0.282464 -0.0164798 0)
(0.291009 -0.0164069 0)
(0.299344 -0.0163084 0)
(0.307461 -0.0161875 0)
(0.315358 -0.0160475 0)
(0.323031 -0.0158912 0)
(0.33048 -0.0157213 0)
(0.337705 -0.0155403 0)
(0.344709 -0.0153504 0)
(0.351495 -0.0151536 0)
(0.358067 -0.0149518 0)
(0.36443 -0.0147466 0)
(0.37059 -0.0145395 0)
(0.376553 -0.0143315 0)
(0.382327 -0.0141238 0)
(0.387917 -0.0139172 0)
(0.393333 -0.0137123 0)
(0.39858 -0.0135096 0)
(0.403667 -0.0133093 0)
(0.408601 -0.0131113 0)
(0.413391 -0.0129157 0)
(0.418044 -0.0127218 0)
(0.422567 -0.0125291 0)
(0.426969 -0.0123367 0)
(0.431255 -0.0121435 0)
(0.435435 -0.011948 0)
(0.439513 -0.0117484 0)
(0.443497 -0.0115427 0)
(0.447394 -0.0113283 0)
(0.451209 -0.0111024 0)
(0.454948 -0.0108617 0)
(0.458616 -0.0106022 0)
(0.462219 -0.0103195 0)
(0.465761 -0.0100083 0)
(0.469246 -0.00966282 0)
(0.472679 -0.00927614 0)
(0.476062 -0.00884039 0)
(0.4794 -0.00834645 0)
(0.482694 -0.00778374 0)
(0.485947 -0.00713993 0)
(0.489162 -0.00640062 0)
(0.492341 -0.00554885 0)
(0.495485 -0.0045646 0)
(0.498598 -0.0034241 0)
(0.501683 -0.00209893 0)
(0.504746 -0.0005551 0)
(0.507795 0.00124757 0)
(0.510843 0.00335694 0)
(0.513912 0.00583019 0)
(0.517037 0.00873442 0)
(0.52027 0.0121462 0)
(0.523687 0.0161491 0)
(0.527403 0.0208268 0)
(0.531574 0.026249 0)
(0.536411 0.0324462 0)
(0.542172 0.0393685 0)
(0.54914 0.0468266 0)
(0.557538 0.0544226 0)
(0.100314 -0.00205905 0)
(0.102274 -0.00408578 0)
(0.105536 -0.00594223 0)
(0.109869 -0.00765303 0)
(0.115156 -0.00923199 0)
(0.121284 -0.0106868 0)
(0.128141 -0.0120213 0)
(0.135627 -0.0132388 0)
(0.143644 -0.0143422 0)
(0.152106 -0.0153347 0)
(0.16093 -0.0162199 0)
(0.170039 -0.0170018 0)
(0.179365 -0.0176847 0)
(0.188845 -0.0182736 0)
(0.19842 -0.0187734 0)
(0.20804 -0.0191897 0)
(0.217658 -0.019528 0)
(0.227235 -0.0197937 0)
(0.236734 -0.0199926 0)
(0.246125 -0.0201302 0)
(0.255382 -0.0202119 0)
(0.264481 -0.020243 0)
(0.273406 -0.0202286 0)
(0.282139 -0.0201736 0)
(0.29067 -0.0200826 0)
(0.29899 -0.0199599 0)
(0.30709 -0.0198098 0)
(0.314968 -0.0196359 0)
(0.322619 -0.0194419 0)
(0.330045 -0.019231 0)
(0.337244 -0.0190062 0)
(0.34422 -0.0187703 0)
(0.350975 -0.0185257 0)
(0.357514 -0.0182747 0)
(0.363841 -0.0180192 0)
(0.369962 -0.0177609 0)
(0.375884 -0.0175012 0)
(0.381612 -0.0172416 0)
(0.387155 -0.0169828 0)
(0.392518 -0.0167256 0)
(0.39771 -0.0164707 0)
(0.402738 -0.0162181 0)
(0.40761 -0.0159679 0)
(0.412333 -0.0157199 0)
(0.416915 -0.0154736 0)
(0.421362 -0.0152281 0)
(0.425684 -0.0149823 0)
(0.429886 -0.0147349 0)
(0.433976 -0.014484 0)
(0.43796 -0.0142275 0)
(0.441845 -0.013963 0)
(0.445637 -0.0136873 0)
(0.449343 -0.0133972 0)
(0.452967 -0.0130886 0)
(0.456516 -0.0127568 0)
(0.459995 -0.0123967 0)
(0.463409 -0.0120023 0)
(0.466761 -0.0115667 0)
(0.470058 -0.0110822 0)
(0.473303 -0.0105397 0)
(0.476501 -0.00992912 0)
(0.479655 -0.00923882 0)
(0.48277 -0.00845541 0)
(0.485851 -0.00756353 0)
(0.488902 -0.0065455 0)
(0.491929 -0.00538096 0)
(0.49494 -0.00404638 0)
(0.497944 -0.00251463 0)
(0.500953 -0.000754544 0)
(0.503984 0.00126874 0)
(0.507059 0.00359404 0)
(0.510209 0.00626456 0)
(0.513478 0.00932632 0)
(0.516923 0.0128255 0)
(0.52062 0.0168036 0)
(0.524664 0.0212896 0)
(0.529174 0.0262883 0)
(0.534285 0.0317635 0)
(0.540135 0.0376184 0)
(0.546845 0.0436755 0)
(0.554455 0.0496687 0)
(0.100286 -0.00243152 0)
(0.102232 -0.00485821 0)
(0.105462 -0.00707965 0)
(0.109764 -0.00912966 0)
(0.115024 -0.0110225 0)
(0.121129 -0.0127663 0)
(0.127969 -0.0143659 0)
(0.135439 -0.0158252 0)
(0.143446 -0.0171476 0)
(0.151899 -0.018337 0)
(0.160716 -0.0193977 0)
(0.169822 -0.0203344 0)
(0.179145 -0.0211524 0)
(0.188622 -0.0218575 0)
(0.198196 -0.0224559 0)
(0.207815 -0.0229539 0)
(0.217432 -0.0233582 0)
(0.227006 -0.0236755 0)
(0.236502 -0.0239126 0)
(0.245889 -0.024076 0)
(0.25514 -0.0241722 0)
(0.264233 -0.0242077 0)
(0.273148 -0.0241885 0)
(0.281871 -0.0241204 0)
(0.290389 -0.024009 0)
(0.298694 -0.0238594 0)
(0.306777 -0.0236767 0)
(0.314635 -0.0234653 0)
(0.322264 -0.0232295 0)
(0.329664 -0.0229733 0)
(0.336836 -0.0227001 0)
(0.343781 -0.0224132 0)
(0.350503 -0.0221157 0)
(0.357005 -0.02181 0)
(0.363293 -0.0214985 0)
(0.369371 -0.0211832 0)
(0.375246 -0.020866 0)
(0.380925 -0.0205481 0)
(0.386414 -0.0202308 0)
(0.39172 -0.0199148 0)
(0.396851 -0.0196008 0)
(0.401814 -0.0192891 0)
(0.406616 -0.0189796 0)
(0.411266 -0.018672 0)
(0.415769 -0.0183657 0)
(0.420135 -0.0180597 0)
(0.424369 -0.0177527 0)
(0.428479 -0.0174429 0)
(0.432472 -0.0171283 0)
(0.436355 -0.0168064 0)
(0.440133 -0.0164742 0)
(0.443814 -0.0161284 0)
(0.447403 -0.0157648 0)
(0.450907 -0.015379 0)
(0.454331 -0.0149658 0)
(0.45768 -0.0145192 0)
(0.46096 -0.0140326 0)
(0.464176 -0.0134983 0)
(0.467334 -0.012908 0)
(0.470439 -0.0122518 0)
(0.473496 -0.0115191 0)
(0.476511 -0.0106976 0)
(0.479491 -0.0097735 0)
(0.482441 -0.00873151 0)
(0.485369 -0.00755428 0)
(0.488286 -0.00622246 0)
(0.491201 -0.00471448 0)
(0.49413 -0.00300646 0)
(0.497087 -0.00107234 0)
(0.500096 0.00111531 0)
(0.503183 0.00358428 0)
(0.506383 0.00636276 0)
(0.509737 0.00947687 0)
(0.5133 0.0129475 0)
(0.517132 0.0167858 0)
(0.521305 0.0209872 0)
(0.525896 0.0255245 0)
(0.530979 0.0303394 0)
(0.536618 0.0353359 0)
(0.542847 0.0403774 0)
(0.549641 0.0452967 0)
(0.100257 -0.00282339 0)
(0.102194 -0.00567546 0)
(0.105396 -0.00828707 0)
(0.109671 -0.0107005 0)
(0.114907 -0.0129303 0)
(0.120992 -0.0149848 0)
(0.127817 -0.0168694 0)
(0.135276 -0.0185886 0)
(0.143276 -0.0201465 0)
(0.151725 -0.0215476 0)
(0.160541 -0.0227968 0)
(0.169647 -0.0238998 0)
(0.178973 -0.0248628 0)
(0.188454 -0.0256927 0)
(0.198032 -0.0263966 0)
(0.207654 -0.026982 0)
(0.217275 -0.0274569 0)
(0.226852 -0.027829 0)
(0.23635 -0.0281063 0)
(0.245737 -0.0282967 0)
(0.254986 -0.0284078 0)
(0.264075 -0.028447 0)
(0.272985 -0.0284215 0)
(0.281699 -0.0283382 0)
(0.290206 -0.0282037 0)
(0.298496 -0.0280239 0)
(0.306563 -0.0278048 0)
(0.314401 -0.0275517 0)
(0.322007 -0.0272695 0)
(0.329382 -0.0269628 0)
(0.336524 -0.0266358 0)
(0.343437 -0.0262923 0)
(0.350123 -0.0259357 0)
(0.356585 -0.0255692 0)
(0.36283 -0.0251953 0)
(0.368861 -0.0248164 0)
(0.374686 -0.0244346 0)
(0.38031 -0.0240514 0)
(0.385741 -0.0236683 0)
(0.390984 -0.0232861 0)
(0.396049 -0.0229055 0)
(0.400941 -0.0225268 0)
(0.405668 -0.0221499 0)
(0.410237 -0.0217745 0)
(0.414656 -0.0213998 0)
(0.418933 -0.0210246 0)
(0.423073 -0.0206474 0)
(0.427085 -0.0202662 0)
(0.430974 -0.0198787 0)
(0.434748 -0.019482 0)
(0.438414 -0.0190727 0)
(0.441977 -0.018647 0)
(0.445444 -0.0182004 0)
(0.448821 -0.0177278 0)
(0.452115 -0.0172237 0)
(0.45533 -0.0166815 0)
(0.458474 -0.016094 0)
(0.461551 -0.0154532 0)
(0.464569 -0.0147502 0)
(0.467533 -0.0139749 0)
(0.47045 -0.0131164 0)
(0.473328 -0.0121625 0)
(0.476173 -0.0110998 0)
(0.478996 -0.00991373 0)
(0.481806 -0.00858834 0)
(0.484615 -0.00710644 0)
(0.487436 -0.00544966 0)
(0.490287 -0.00359871 0)
(0.493186 -0.00153379 0)
(0.496157 0.000764666 0)
(0.499227 0.00331358 0)
(0.502428 0.0061277 0)
(0.505798 0.00921725 0)
(0.509379 0.0125853 0)
(0.513216 0.0162246 0)
(0.517356 0.020114 0)
(0.521841 0.0242153 0)
(0.526708 0.0284703 0)
(0.531977 0.0328004 0)
(0.537643 0.0371091 0)
(0.54366 0.041294 0)
(0.100227 -0.00323698 0)
(0.102161 -0.00654132 0)
(0.105341 -0.00957011 0)
(0.109593 -0.0123729 0)
(0.114809 -0.0149645 0)
(0.12088 -0.0173529 0)
(0.127695 -0.0195441 0)
(0.13515 -0.021543 0)
(0.143148 -0.0233543 0)
(0.1516 -0.0249831 0)
(0.160422 -0.0264351 0)
(0.169537 -0.027717 0)
(0.178873 -0.0288358 0)
(0.188364 -0.0297995 0)
(0.197954 -0.0306164 0)
(0.207588 -0.0312954 0)
(0.217219 -0.0318454 0)
(0.226805 -0.0322757 0)
(0.236311 -0.0325955 0)
(0.245703 -0.0328138 0)
(0.254955 -0.0329396 0)
(0.264045 -0.0329816 0)
(0.272952 -0.032948 0)
(0.281661 -0.032847 0)
(0.290159 -0.0326859 0)
(0.298437 -0.0324721 0)
(0.306488 -0.0322121 0)
(0.314307 -0.0319122 0)
(0.32189 -0.0315781 0)
(0.329238 -0.0312151 0)
(0.33635 -0.030828 0)
(0.343228 -0.0304213 0)
(0.349876 -0.0299989 0)
(0.356296 -0.0295643 0)
(0.362494 -0.0291206 0)
(0.368475 -0.0286705 0)
(0.374245 -0.0282163 0)
(0.37981 -0.0277598 0)
(0.385177 -0.0273025 0)
(0.390353 -0.0268455 0)
(0.395345 -0.0263896 0)
(0.40016 -0.0259351 0)
(0.404806 -0.0254818 0)
(0.409289 -0.0250293 0)
(0.413617 -0.0245767 0)
(0.417798 -0.0241226 0)
(0.421838 -0.0236654 0)
(0.425745 -0.0232029 0)
(0.429524 -0.0227324 0)
(0.433184 -0.0222506 0)
(0.436731 -0.021754 0)
(0.440171 -0.0212382 0)
(0.443511 -0.0206985 0)
(0.446757 -0.0201295 0)
(0.449916 -0.019525 0)
(0.452995 -0.0188783 0)
(0.455999 -0.0181819 0)
(0.458936 -0.0174275 0)
(0.461812 -0.0166061 0)
(0.464636 -0.0157078 0)
(0.467414 -0.0147219 0)
(0.470155 -0.0136368 0)
(0.472869 -0.0124402 0)
(0.475566 -0.0111189 0)
(0.478258 -0.00965909 0)
(0.480958 -0.00804654 0)
(0.483681 -0.0062668 0)
(0.486444 -0.00430567 0)
(0.489268 -0.00214972 0)
(0.492176 0.00021327 0)
(0.495191 0.00279143 0)
(0.49834 0.00558881 0)
(0.501654 0.00860473 0)
(0.505163 0.0118316 0)
(0.508896 0.0152531 0)
(0.512881 0.0188425 0)
(0.517138 0.0225621 0)
(0.521679 0.0263624 0)
(0.526502 0.0301843 0)
(0.531588 0.0339625 0)
(0.536889 0.0376345 0)
(0.100195 -0.00367495 0)
(0.102133 -0.00746036 0)
(0.105298 -0.0109354 0)
(0.109533 -0.0141555 0)
(0.114736 -0.0171356 0)
(0.1208 -0.0198833 0)
(0.127612 -0.0224045 0)
(0.13507 -0.0247045 0)
(0.143076 -0.0267887 0)
(0.151541 -0.0286628 0)
(0.160378 -0.0303332 0)
(0.16951 -0.0318074 0)
(0.178865 -0.0330937 0)
(0.188378 -0.034201 0)
(0.197988 -0.035139 0)
(0.207642 -0.0359179 0)
(0.217291 -0.0365479 0)
(0.226895 -0.0370397 0)
(0.236415 -0.0374039 0)
(0.24582 -0.037651 0)
(0.255081 -0.0377911 0)
(0.264176 -0.0378344 0)
(0.273085 -0.0377905 0)
(0.281793 -0.0376684 0)
(0.290285 -0.0374769 0)
(0.298553 -0.0372242 0)
(0.30659 -0.036918 0)
(0.31439 -0.0365654 0)
(0.321951 -0.036173 0)
(0.329271 -0.0357469 0)
(0.336351 -0.0352925 0)
(0.343193 -0.034815 0)
(0.3498 -0.0343188 0)
(0.356175 -0.033808 0)
(0.362323 -0.0332859 0)
(0.368249 -0.0327558 0)
(0.37396 -0.0322201 0)
(0.379461 -0.0316811 0)
(0.384759 -0.0311402 0)
(0.389862 -0.0305989 0)
(0.394776 -0.0300578 0)
(0.399508 -0.0295173 0)
(0.404066 -0.0289774 0)
(0.408457 -0.0284373 0)
(0.412688 -0.0278963 0)
(0.416767 -0.0273528 0)
(0.4207 -0.0268049 0)
(0.424495 -0.0262501 0)
(0.428159 -0.0256856 0)
(0.431699 -0.025108 0)
(0.435121 -0.0245132 0)
(0.438433 -0.0238968 0)
(0.441642 -0.0232537 0)
(0.444753 -0.0225782 0)
(0.447775 -0.0218641 0)
(0.450713 -0.0211044 0)
(0.453577 -0.0202916 0)
(0.456371 -0.0194174 0)
(0.459106 -0.0184733 0)
(0.461788 -0.0174496 0)
(0.464427 -0.0163364 0)
(0.467033 -0.0151232 0)
(0.469614 -0.0137992 0)
(0.472184 -0.0123531 0)
(0.474755 -0.0107738 0)
(0.47734 -0.00905018 0)
(0.479955 -0.00717194 0)
(0.482617 -0.0051297 0)
(0.485344 -0.00291569 0)
(0.488155 -0.000524259 0)
(0.491074 0.00204698 0)
(0.494119 0.00479465 0)
(0.497313 0.00771166 0)
(0.500674 0.0107853 0)
(0.504222 0.0139963 0)
(0.507968 0.0173187 0)
(0.51192 0.0207198 0)
(0.516076 0.024161 0)
(0.520426 0.0275997 0)
(0.524946 0.0309923 0)
(0.529595 0.034301 0)
(0.100161 -0.00414026 0)
(0.102109 -0.00843799 0)
(0.105268 -0.0123908 0)
(0.109493 -0.0160585 0)
(0.114692 -0.0194563 0)
(0.120757 -0.0225906 0)
(0.127578 -0.0254672 0)
(0.135049 -0.0280919 0)
(0.143074 -0.0304702 0)
(0.151561 -0.0326086 0)
(0.160425 -0.0345143 0)
(0.169587 -0.0361956 0)
(0.178973 -0.0376619 0)
(0.188517 -0.0389234 0)
(0.198159 -0.0399912 0)
(0.207844 -0.0408766 0)
(0.217522 -0.0415916 0)
(0.227152 -0.0421482 0)
(0.236696 -0.0425586 0)
(0.24612 -0.0428347 0)
(0.255398 -0.0429884 0)
(0.264504 -0.0430309 0)
(0.27342 -0.0429734 0)
(0.282129 -0.0428262 0)
(0.290619 -0.0425994 0)
(0.29888 -0.0423022 0)
(0.306903 -0.0419434 0)
(0.314686 -0.0415311 0)
(0.322223 -0.0410729 0)
(0.329515 -0.0405757 0)
(0.336562 -0.0400456 0)
(0.343365 -0.0394885 0)
(0.349928 -0.0389093 0)
(0.356254 -0.0383127 0)
(0.362347 -0.0377026 0)
(0.368215 -0.0370824 0)
(0.373861 -0.0364551 0)
(0.379293 -0.0358229 0)
(0.384517 -0.0351878 0)
(0.38954 -0.0345511 0)
(0.39437 -0.0339138 0)
(0.399012 -0.0332761 0)
(0.403476 -0.0326381 0)
(0.407768 -0.031999 0)
(0.411896 -0.0313579 0)
(0.415866 -0.0307132 0)
(0.419686 -0.0300627 0)
(0.423364 -0.029404 0)
(0.426906 -0.0287338 0)
(0.43032 -0.0280487 0)
(0.433613 -0.0273445 0)
(0.436793 -0.0266164 0)
(0.439865 -0.0258594 0)
(0.442838 -0.0250676 0)
(0.445719 -0.0242347 0)
(0.448516 -0.0233539 0)
(0.451236 -0.0224179 0)
(0.453887 -0.0214189 0)
(0.456478 -0.0203485 0)
(0.459019 -0.0191983 0)
(0.461518 -0.0179592 0)
(0.463985 -0.0166222 0)
(0.466433 -0.0151782 0)
(0.468872 -0.0136181 0)
(0.471315 -0.0119336 0)
(0.473776 -0.0101169 0)
(0.476269 -0.00816117 0)
(0.47881 -0.00606131 0)
(0.481414 -0.00381406 0)
(0.484099 -0.0014186 0)
(0.486881 0.00112374 0)
(0.489774 0.00380577 0)
(0.492793 0.00661716 0)
(0.49595 0.00954364 0)
(0.499253 0.0125667 0)
(0.502708 0.0156637 0)
(0.506312 0.0188085 0)
(0.510059 0.0219721 0)
(0.513935 0.0251246 0)
(0.517919 0.028237 0)
(0.521975 0.0312867 0)
(0.100124 -0.00463629 0)
(0.10209 -0.00948059 0)
(0.105253 -0.0139456 0)
(0.109476 -0.0180938 0)
(0.114681 -0.0219409 0)
(0.120759 -0.0254917 0)
(0.127599 -0.0287517 0)
(0.135096 -0.0317266 0)
(0.143153 -0.0344224 0)
(0.151677 -0.036846 0)
(0.160582 -0.0390053 0)
(0.169787 -0.0409097 0)
(0.179218 -0.0425696 0)
(0.188808 -0.0439966 0)
(0.198494 -0.045203 0)
(0.208222 -0.0462019 0)
(0.217941 -0.0470068 0)
(0.227607 -0.0476313 0)
(0.237184 -0.0480893 0)
(0.246636 -0.0483944 0)
(0.255937 -0.0485599 0)
(0.265061 -0.0485988 0)
(0.273989 -0.0485236 0)
(0.282704 -0.0483463 0)
(0.291194 -0.048078 0)
(0.299449 -0.0477294 0)
(0.307461 -0.0473105 0)
(0.315225 -0.0468303 0)
(0.322738 -0.0462975 0)
(0.33 -0.0457197 0)
(0.337011 -0.0451041 0)
(0.343772 -0.0444571 0)
(0.350287 -0.0437844 0)
(0.35656 -0.0430911 0)
(0.362595 -0.0423817 0)
(0.368397 -0.04166 0)
(0.373974 -0.0409292 0)
(0.37933 -0.040192 0)
(0.384473 -0.0394505 0)
(0.38941 -0.0387062 0)
(0.394149 -0.0379601 0)
(0.398695 -0.0372127 0)
(0.403058 -0.0364639 0)
(0.407244 -0.0357131 0)
(0.41126 -0.0349591 0)
(0.415115 -0.0342003 0)
(0.418816 -0.0334345 0)
(0.42237 -0.0326592 0)
(0.425785 -0.0318709 0)
(0.429068 -0.0310662 0)
(0.432227 -0.0302407 0)
(0.435268 -0.0293897 0)
(0.438201 -0.0285081 0)
(0.441032 -0.0275901 0)
(0.443769 -0.0266297 0)
(0.446421 -0.0256202 0)
(0.448995 -0.0245549 0)
(0.451501 -0.0234265 0)
(0.453948 -0.0222274 0)
(0.456344 -0.0209503 0)
(0.458701 -0.0195873 0)
(0.461027 -0.018131 0)
(0.463336 -0.0165741 0)
(0.465637 -0.0149101 0)
(0.467943 -0.0131329 0)
(0.470267 -0.0112375 0)
(0.472623 -0.00922034 0)
(0.475022 -0.00707946 0)
(0.477479 -0.00481486 0)
(0.480005 -0.00242878 0)
(0.482614 7.48443e-05 0)
(0.485317 0.00268848 0)
(0.488121 0.00540029 0)
(0.491033 0.00819665 0)
(0.494055 0.0110614 0)
(0.497187 0.0139763 0)
(0.500425 0.016921 0)
(0.50376 0.0198747 0)
(0.507177 0.0228162 0)
(0.510659 0.0257264 0)
(0.514177 0.028592 0)
(0.100083 -0.0051669 0)
(0.102076 -0.0105957 0)
(0.105252 -0.0156105 0)
(0.109486 -0.0202756 0)
(0.114708 -0.0246066 0)
(0.120812 -0.0286068 0)
(0.127685 -0.0322807 0)
(0.135224 -0.0356339 0)
(0.143328 -0.0386726 0)
(0.151906 -0.0414041 0)
(0.160867 -0.0438371 0)
(0.170132 -0.0459819 0)
(0.179624 -0.04785 0)
(0.189275 -0.0494544 0)
(0.19902 -0.0508089 0)
(0.208804 -0.0519283 0)
(0.218576 -0.0528278 0)
(0.228291 -0.0535229 0)
(0.23791 -0.0540292 0)
(0.247399 -0.0543622 0)
(0.25673 -0.054537 0)
(0.265878 -0.0545683 0)
(0.274823 -0.0544702 0)
(0.283548 -0.0542562 0)
(0.29204 -0.0539391 0)
(0.30029 -0.0535308 0)
(0.30829 -0.0530425 0)
(0.316036 -0.0524846 0)
(0.323523 -0.0518667 0)
(0.330752 -0.0511974 0)
(0.337724 -0.0504849 0)
(0.344439 -0.0497361 0)
(0.350901 -0.0489576 0)
(0.357115 -0.0481551 0)
(0.363085 -0.0473335 0)
(0.368816 -0.0464972 0)
(0.374316 -0.0456496 0)
(0.379589 -0.0447939 0)
(0.384644 -0.0439323 0)
(0.389488 -0.0430666 0)
(0.394127 -0.042198 0)
(0.39857 -0.0413268 0)
(0.402824 -0.0404532 0)
(0.406896 -0.0395765 0)
(0.410795 -0.0386957 0)
(0.414527 -0.037809 0)
(0.418102 -0.0369142 0)
(0.421526 -0.0360087 0)
(0.424807 -0.0350893 0)
(0.427953 -0.0341522 0)
(0.430972 -0.0331932 0)
(0.433871 -0.0322078 0)
(0.43666 -0.0311909 0)
(0.439345 -0.0301371 0)
(0.441935 -0.0290405 0)
(0.444439 -0.0278952 0)
(0.446866 -0.0266948 0)
(0.449223 -0.0254329 0)
(0.451522 -0.024103 0)
(0.453771 -0.0226987 0)
(0.455981 -0.0212137 0)
(0.458162 -0.0196422 0)
(0.460324 -0.0179786 0)
(0.462479 -0.0162185 0)
(0.464638 -0.0143578 0)
(0.466812 -0.0123941 0)
(0.469012 -0.0103259 0)
(0.47125 -0.0081536 0)
(0.473535 -0.0058791 0)
(0.475878 -0.00350634 0)
(0.478287 -0.00104088 0)
(0.48077 0.00151066 0)
(0.48333 0.00413697 0)
(0.48597 0.00682611 0)
(0.48869 0.00956477 0)
(0.491488 0.0123386 0)
(0.494357 0.0151325 0)
(0.497287 0.0179313 0)
(0.500269 0.0207205 0)
(0.503285 0.0234873 0)
(0.506316 0.0262241 0)
(0.100037 -0.0057365 0)
(0.102066 -0.011792 0)
(0.105268 -0.0173982 0)
(0.109524 -0.0226202 0)
(0.114776 -0.0274734 0)
(0.120922 -0.031959 0)
(0.127847 -0.0360805 0)
(0.135444 -0.039843 0)
(0.143615 -0.0432527 0)
(0.152264 -0.0463171 0)
(0.161302 -0.0490456 0)
(0.170645 -0.0514493 0)
(0.180216 -0.0535411 0)
(0.189945 -0.0553354 0)
(0.199766 -0.0568476 0)
(0.209621 -0.0580944 0)
(0.219459 -0.0590928 0)
(0.229234 -0.0598605 0)
(0.238906 -0.0604149 0)
(0.248441 -0.0607737 0)
(0.25781 -0.0609539 0)
(0.266987 -0.060972 0)
(0.275953 -0.0608442 0)
(0.28469 -0.0605855 0)
(0.293186 -0.0602103 0)
(0.301431 -0.0597322 0)
(0.309418 -0.0591636 0)
(0.317142 -0.0585163 0)
(0.3246 -0.0578009 0)
(0.331793 -0.0570273 0)
(0.338719 -0.0562043 0)
(0.345383 -0.0553401 0)
(0.351786 -0.0544417 0)
(0.357934 -0.0535155 0)
(0.363831 -0.0525671 0)
(0.369484 -0.0516012 0)
(0.374898 -0.0506219 0)
(0.380081 -0.0496324 0)
(0.385039 -0.0486355 0)
(0.389781 -0.0476329 0)
(0.394313 -0.0466262 0)
(0.398643 -0.0456159 0)
(0.402779 -0.0446021 0)
(0.40673 -0.0435843 0)
(0.410502 -0.0425614 0)
(0.414105 -0.0415319 0)
(0.417546 -0.0404935 0)
(0.420832 -0.0394437 0)
(0.423973 -0.0383792 0)
(0.426976 -0.0372965 0)
(0.42985 -0.0361916 0)
(0.432603 -0.03506 0)
(0.435242 -0.0338971 0)
(0.437778 -0.0326977 0)
(0.440217 -0.0314566 0)
(0.44257 -0.0301683 0)
(0.444845 -0.0288273 0)
(0.447051 -0.0274281 0)
(0.449198 -0.025965 0)
(0.451295 -0.0244331 0)
(0.453353 -0.0228272 0)
(0.455381 -0.0211431 0)
(0.457389 -0.0193769 0)
(0.459388 -0.0175257 0)
(0.461387 -0.0155873 0)
(0.463397 -0.0135608 0)
(0.465427 -0.0114464 0)
(0.467485 -0.00924578 0)
(0.46958 -0.00696195 0)
(0.471718 -0.00459944 0)
(0.473906 -0.00216412 0)
(0.476148 0.000337747 0)
(0.478447 0.00289756 0)
(0.480802 0.00550484 0)
(0.483212 0.00814902 0)
(0.485674 0.0108191 0)
(0.488181 0.0135042 0)
(0.490725 0.0161933 0)
(0.493297 0.0188762 0)
(0.495885 0.0215445 0)
(0.498473 0.0241942 0)
(0.0999868 -0.00635023 0)
(0.102061 -0.01308 0)