/*--------------------------------*- C++ -*----------------------------------*\
  =========                 |
  \\      /  F ield         | OpenFOAM: The Open Source CFD Toolbox
   \\    /   O peration     | Website:  https://openfoam.org
    \\  /    A nd           | Version:  7
     \\/     M anipulation  |
\*---------------------------------------------------------------------------*/
FoamFile
{
    version     2.0;
    format      ascii;
    class       volScalarField;
    location    "6.5";
    object      T;
}
// * * * * * * * * * * * * * * * * * * * * * * * * * * * * * * * * * * * * * //

dimensions      [0 0 0 1 0 0 0];

internalField   nonuniform List<scalar> 
12013
(
300.107
300.325
300.548
300.774
301.003
301.231
301.459
301.685
301.907
302.126
302.34
302.549
302.752
302.95
303.141
303.326
303.505
303.678
303.845
304.006
304.161
304.311
304.456
304.595
304.73
304.861
304.988
305.111
305.232
305.349
305.464
305.578
305.69
305.801
305.913
306.025
306.138
306.254
306.373
306.497
306.625
306.761
306.905
307.058
307.223
307.401
307.594
307.805
308.036
308.291
308.571
308.881
309.223
309.602
310.023
310.489
311.006
311.579
312.215
312.919
313.699
314.562
315.517
316.574
317.741
319.03
320.454
322.026
323.761
325.678
327.795
330.136
332.729
335.606
338.808
342.387
346.412
350.979
356.235
362.42
369.999
300.107
300.325
300.548
300.775
301.003
301.232
301.46
301.686
301.908
302.127
302.341
302.55
302.754
302.951
303.143
303.328
303.507
303.68
303.847
304.008
304.163
304.313
304.458
304.597
304.733
304.863
304.99
305.114
305.234
305.351
305.467
305.58
305.692
305.804
305.915
306.027
306.141
306.256
306.375
306.499
306.627
306.763
306.906
307.06
307.224
307.402
307.595
307.806
308.037
308.291
308.571
308.88
309.222
309.601
310.021
310.487
311.003
311.575
312.21
312.912
313.691
314.552
315.506
316.559
317.723
319.009
320.428
321.994
323.723
325.63
327.736
330.063
332.637
335.489
338.656
342.185
346.136
350.584
355.629
361.395
367.993
300.107
300.325
300.549
300.776
301.004
301.233
301.462
301.688
301.911
302.13
302.344
302.553
302.757
302.955
303.146
303.332
303.511
303.684
303.851
304.012
304.168
304.318
304.462
304.602
304.737
304.868
304.995
305.119
305.239
305.356
305.472
305.585
305.697
305.809
305.92
306.032
306.145
306.261
306.38
306.503
306.632
306.767
306.91
307.063
307.228
307.405
307.598
307.808
308.039
308.292
308.572
308.88
309.221
309.599
310.018
310.482
310.996
311.566
312.198
312.898
313.674
314.531
315.48
316.528
317.685
318.962
320.371
321.925
323.638
325.526
327.608
329.904
332.437
335.236
338.33
341.758
345.562
349.789
354.486
359.68
365.333
300.108
300.326
300.55
300.777
301.006
301.236
301.464
301.691
301.914
302.134
302.348
302.558
302.762
302.96
303.152
303.338
303.518
303.691
303.858
304.02
304.175
304.325
304.47
304.61
304.746
304.877
305.004
305.127
305.247
305.365
305.48
305.593
305.706
305.817
305.928
306.04
306.153
306.269
306.388
306.511
306.639
306.774
306.917
307.069
307.233
307.41
307.602
307.812
308.042
308.294
308.573
308.88
309.219
309.595
310.012
310.473
310.985
311.552
312.18
312.876
313.645
314.496
315.437
316.476
317.622
318.885
320.278
321.812
323.5
325.357
327.4
329.647
332.117
334.833
337.818
341.098
344.698
348.639
352.93
357.551
362.43
300.108
300.327
300.551
300.779
301.009
301.239
301.468
301.695
301.919
302.139
302.355
302.565
302.77
302.968
303.161
303.347
303.527
303.701
303.869
304.03
304.186
304.337
304.482
304.622
304.758
304.889
305.016
305.14
305.26
305.377
305.493
305.606
305.718
305.829
305.94
306.052
306.165
306.281
306.399
306.522
306.65
306.784
306.927
307.079
307.242
307.418
307.609
307.818
308.046
308.297
308.574
308.879
309.216
309.59
310.003
310.461
310.969
311.531
312.153
312.842
313.604
314.445
315.375
316.4
317.53
318.774
320.143
321.648
323.301
325.115
327.104
329.283
331.668
334.274
337.118
340.215
343.574
347.198
351.076
355.174
359.425
300.108
300.328
300.553
300.782
301.013
301.244
301.474
301.702
301.927
302.148
302.364
302.575
302.78
302.98
303.173
303.36
303.54
303.715
303.883
304.045
304.202
304.352
304.498
304.638
304.774
304.906
305.033
305.157
305.277
305.395
305.51
305.623
305.735
305.846
305.957
306.069
306.182
306.297
306.415
306.537
306.664
306.798
306.94
307.091
307.253
307.428
307.619
307.826
308.053
308.302
308.576
308.878
309.213
309.583
309.992
310.445
310.947
311.503
312.117
312.797
313.547
314.376
315.29
316.297
317.406
318.624
319.962
321.429
323.036
324.794
326.714
328.808
331.087
333.561
336.24
339.129
342.228
345.53
349.015
352.649
356.378
300.109
300.33
300.556
300.786
301.018
301.25
301.481
301.71
301.936
302.158
302.376
302.588
302.794
302.995
303.189
303.377
303.558
303.733
303.902
304.065
304.222
304.373
304.519
304.66
304.796
304.928
305.056
305.179
305.3
305.418
305.533
305.646
305.758
305.869
305.98
306.091
306.204
306.318
306.436
306.557
306.684
306.817
306.958
307.108
307.269
307.443
307.631
307.836
308.061
308.308
308.579
308.878
309.208
309.574
309.978
310.424
310.919
311.466
312.07
312.738
313.475
314.287
315.182
316.166
317.246
318.432
319.731
321.151
322.701
324.39
326.228
328.221
330.377
332.702
335.199
337.869
340.704
343.693
346.814
350.038
353.324
300.109
300.332
300.559
300.791
301.024
301.258
301.49
301.721
301.949
302.172
302.391
302.605
302.812
303.014
303.209
303.398
303.581
303.757
303.927
304.09
304.248
304.4
304.547
304.688
304.825
304.957
305.085
305.209
305.33
305.448
305.563
305.676
305.788
305.899
306.009
306.12
306.232
306.346
306.463
306.584
306.71
306.842
306.982
307.13
307.29
307.461
307.648
307.851
308.072
308.316
308.583
308.878
309.203
309.563
309.96
310.399
310.884
311.42
312.012
312.665
313.384
314.176
315.047
316.002
317.049
318.195
319.446
320.81
322.294
323.904
325.646
327.526
329.547
331.711
334.019
336.465
339.041
341.734
344.523
347.385
350.289
300.11
300.334
300.564
300.797
301.032
301.268
301.502
301.735
301.964
302.19
302.411
302.626
302.835
303.039
303.236
303.426
303.61
303.787
303.958
304.123
304.281
304.434
304.582
304.724
304.861
304.994
305.122
305.246
305.367
305.485
305.601
305.714
305.825
305.936
306.046
306.157
306.268
306.382
306.498
306.618
306.743
306.873
307.011
307.158
307.316
307.485
307.669
307.869
308.087
308.327
308.59
308.879
309.198
309.55
309.939
310.368
310.842
311.365
311.941
312.576
313.275
314.042
314.884
315.806
316.813
317.912
319.109
320.409
321.816
323.337
324.975
326.732
328.61
330.608
332.723
334.949
337.277
339.694
342.183
344.723
347.293
300.111
300.337
300.569
300.804
301.042
301.28
301.517
301.752
301.984
302.212
302.435
302.652
302.864
303.069
303.268
303.46
303.646
303.825
303.997
304.163
304.323
304.477
304.625
304.768
304.906
305.039
305.168
305.293
305.414
305.533
305.648
305.761
305.873
305.983
306.093
306.203
306.314
306.426
306.541
306.66
306.784
306.913
307.049
307.194
307.349
307.516
307.697
307.893
308.107
308.341
308.599
308.882
309.193
309.537
309.916
310.333
310.794
311.301
311.859
312.473
313.147
313.885
314.694
315.576
316.539
317.585
318.72
319.948
321.273
322.697
324.223
325.851
327.582
329.412
331.338
333.353
335.447
337.61
339.826
342.081
344.355
300.113
300.341
300.576
300.814
301.054
301.295
301.535
301.773
302.008
302.239
302.465
302.685
302.899
303.107
303.308
303.502
303.69
303.871
304.045
304.213
304.374
304.529
304.679
304.823
304.962
305.096
305.225
305.351
305.473
305.591
305.706
305.819
305.931
306.041
306.15
306.26
306.37
306.481
306.595
306.713
306.835
306.962
307.096
307.239
307.391
307.555
307.732
307.923
308.133
308.361
308.612
308.887
309.19
309.524
309.891
310.295
310.739
311.228
311.766
312.355
313.001
313.707
314.477
315.316
316.228
317.216
318.284
319.434
320.67
321.993
323.403
324.9
326.483
328.149
329.892
331.706
333.582
335.512
337.482
339.481
341.495
300.114
300.346
300.584
300.825
301.069
301.314
301.557
301.799
302.037
302.272
302.501
302.724
302.942
303.152
303.357
303.554
303.744
303.927
304.103
304.273
304.436
304.594
304.745
304.89
305.03
305.165
305.295
305.421
305.544
305.662
305.778
305.891
306.002
306.112
306.221
306.329
306.438
306.549
306.662
306.778
306.898
307.023
307.155
307.294
307.443
307.603
307.776
307.963
308.166
308.388
308.631
308.898
309.19
309.512
309.866
310.254
310.681
311.149
311.663
312.225
312.839
313.508
314.237
315.028
315.885
316.81
317.806
318.875
320.019
321.237
322.53
323.897
325.335
326.841
328.409
330.035
331.71
333.427
335.176
336.946
338.728
300.116
300.352
300.593
300.839
301.087
301.336
301.584
301.83
302.073
302.311
302.545
302.772
302.993
303.208
303.415
303.616
303.809
303.995
304.174
304.346
304.512
304.671
304.824
304.971
305.113
305.249
305.38
305.507
305.63
305.749
305.865
305.978
306.089
306.198
306.306
306.414
306.522
306.632
306.743
306.857
306.975
307.098
307.226
307.363
307.508
307.663
307.831
308.012
308.209
308.423
308.658
308.914
309.196
309.504
309.843
310.214
310.62
311.066
311.553
312.085
312.664
313.294
313.978
314.718
315.516
316.375
317.297
318.282
319.332
320.445
321.622
322.861
324.159
325.512
326.917
328.368
329.858
331.382
332.93
334.496
336.071
300.118
300.359
300.605
300.856
301.109
301.363
301.616
301.868
302.115
302.359
302.597
302.829
303.055
303.274
303.486
303.69
303.887
304.077
304.259
304.435
304.603
304.765
304.92
305.069
305.212
305.35
305.482
305.61
305.734
305.853
305.969
306.082
306.193
306.302
306.41
306.517
306.624
306.731
306.841
306.953
307.068
307.188
307.314
307.447
307.588
307.738
307.9
308.075
308.264
308.47
308.695
308.94
309.209
309.503
309.824
310.176
310.561
310.982
311.44
311.939
312.482
313.07
313.706
314.392
315.13
315.921
316.767
317.668
318.623
319.634
320.697
321.813
322.977
324.187
325.44
326.729
328.051
329.399
330.767
332.15
333.54
300.121
300.367
300.619
300.876
301.135
301.395
301.655
301.912
302.166
302.416
302.66
302.898
303.129
303.353
303.57
303.779
303.981
304.175
304.361
304.54
304.712
304.876
305.034
305.186
305.331
305.47
305.604
305.734
305.858
305.978
306.095
306.208
306.319
306.427
306.534
306.64
306.746
306.852
306.959
307.069
307.182
307.299
307.421
307.549
307.686
307.831
307.986
308.154
308.335
308.532
308.746
308.979
309.234
309.512
309.815
310.147
310.508
310.902
311.33
311.795
312.298
312.843
313.43
314.061
314.737
315.46
316.23
317.047
317.911
318.821
319.776
320.774
321.813
322.889
324
325.142
326.31
327.5
328.707
329.925
331.15
300.124
300.377
300.636
300.9
301.166
301.434
301.701
301.965
302.227
302.483
302.734
302.979
303.217
303.448
303.67
303.885
304.092
304.291
304.482
304.665
304.841
305.009
305.17
305.325
305.473
305.614
305.75
305.881
306.006
306.127
306.244
306.358
306.468
306.576
306.682
306.787
306.891
306.996
307.101
307.209
307.318
307.432
307.55
307.674
307.805
307.944
308.093
308.253
308.425
308.612
308.814
309.035
309.274
309.535
309.82
310.129
310.466
310.831
311.228
311.658
312.121
312.621
313.158
313.734
314.349
315.004
315.699
316.435
317.21
318.025
318.877
319.765
320.687
321.64
322.622
323.629
324.658
325.705
326.766
327.838
328.916
300.128
300.388
300.656
300.928
301.203
301.479
301.754
302.028
302.298
302.563
302.822
303.075
303.321
303.559
303.789
304.011
304.224
304.429
304.626
304.814
304.994
305.167
305.332
305.49
305.64
305.785
305.923
306.055
306.182
306.304
306.421
306.535
306.646
306.753
306.858
306.962
307.065
307.168
307.271
307.375
307.482
307.592
307.705
307.825
307.95
308.083
308.224
308.376
308.539
308.715
308.905
309.111
309.335
309.579
309.843
310.13
310.441
310.778
311.142
311.536
311.959
312.414
312.902
313.423
313.978
314.567
315.191
315.848
316.54
317.264
318.02
318.805
319.62
320.46
321.324
322.209
323.112
324.031
324.962
325.903
326.849
300.133
300.402
300.679
300.961
301.246
301.532
301.818
302.102
302.382
302.657
302.926
303.189
303.444
303.691
303.929
304.159
304.38
304.592
304.795
304.989
305.175
305.353
305.522
305.684
305.838
305.986
306.126
306.26
306.389
306.512
306.631
306.745
306.855
306.962
307.067
307.169
307.27
307.371
307.472
307.573
307.676
307.782
307.892
308.005
308.125
308.251
308.384
308.527
308.68
308.845
309.023
309.215
309.423
309.648
309.891
310.155
310.441
310.749
311.081
311.438
311.822
312.233
312.673
313.141
313.637
314.164
314.719
315.303
315.916
316.556
317.223
317.914
318.63
319.367
320.125
320.9
321.691
322.495
323.309
324.133
324.962
300.138
300.418
300.706
301
301.297
301.595
301.893
302.189
302.481
302.768
303.049
303.322
303.588
303.845
304.093
304.333
304.562
304.783
304.994
305.195
305.388
305.571
305.746
305.912
306.071
306.221
306.365
306.502
306.632
306.757
306.876
306.991
307.101
307.208
307.312
307.413
307.512
307.611
307.709
307.807
307.907
308.008
308.113
308.221
308.334
308.453
308.579
308.713
308.856
309.009
309.173
309.351
309.542
309.749
309.972
310.213
310.472
310.752
311.053
311.375
311.72
312.089
312.482
312.899
313.341
313.807
314.299
314.815
315.354
315.917
316.502
317.108
317.735
318.379
319.04
319.717
320.407
321.108
321.819
322.538
323.263
300.144
300.437
300.738
301.045
301.356
301.669
301.981
302.291
302.597
302.897
303.192
303.478
303.757
304.026
304.286
304.536
304.777
305.007
305.227
305.436
305.636
305.826
306.007
306.179
306.342
306.497
306.644
306.783
306.916
307.042
307.163
307.278
307.388
307.495
307.598
307.698
307.795
307.892
307.987
308.082
308.178
308.275
308.375
308.477
308.584
308.696
308.813
308.938
309.07
309.212
309.363
309.526
309.701
309.889
310.092
310.31
310.545
310.797
311.066
311.355
311.663
311.992
312.34
312.71
313.101
313.512
313.944
314.397
314.87
315.363
315.874
316.402
316.948
317.509
318.085
318.673
319.273
319.884
320.502
321.128
321.76
300.151
300.459
300.776
301.099
301.426
301.755
302.083
302.41
302.732
303.049
303.359
303.661
303.954
304.238
304.512
304.774
305.027
305.268
305.498
305.717
305.926
306.123
306.311
306.489
306.657
306.817
306.967
307.11
307.245
307.374
307.495
307.611
307.722
307.828
307.93
308.029
308.125
308.219
308.311
308.403
308.495
308.588
308.682
308.779
308.879
308.983
309.093
309.208
309.33
309.46
309.598
309.747
309.906
310.076
310.259
310.455
310.666
310.891
311.132
311.388
311.662
311.952
312.26
312.585
312.929
313.289
313.668
314.063
314.476
314.905
315.349
315.809
316.282
316.769
317.269
317.779
318.299
318.829
319.366
319.909
320.458
300.16
300.485
300.82
301.161
301.507
301.855
302.203
302.549
302.89
303.226
303.554
303.874
304.185
304.485
304.774
305.051
305.317
305.571
305.813
306.043
306.261
306.467
306.663
306.847
307.022
307.186
307.341
307.487
307.626
307.756
307.879
307.996
308.107
308.213
308.314
308.412
308.506
308.597
308.687
308.775
308.863
308.952
309.041
309.132
309.225
309.322
309.423
309.529
309.641
309.759
309.885
310.02
310.163
310.316
310.48
310.656
310.843
311.043
311.257
311.484
311.725
311.98
312.25
312.536
312.835
313.15
313.48
313.824
314.182
314.554
314.939
315.337
315.747
316.169
316.6
317.042
317.492
317.95
318.415
318.886
319.362
300.17
300.516
300.871
301.234
301.602
301.973
302.343
302.711
303.075
303.432
303.782
304.122
304.452
304.771
305.078
305.372
305.653
305.922
306.177
306.418
306.647
306.864
307.068
307.26
307.441
307.611
307.771
307.921
308.062
308.195
308.32
308.438
308.549
308.655
308.755
308.851
308.943
309.033
309.119
309.204
309.288
309.372
309.456
309.541
309.628
309.718
309.81
309.907
310.009
310.117
310.23
310.351
310.48
310.617
310.763
310.919
311.085
311.262
311.45
311.65
311.861
312.085
312.321
312.569
312.83
313.104
313.39
313.688
313.998
314.32
314.653
314.996
315.35
315.714
316.086
316.467
316.855
317.25
317.652
318.059
318.471
300.182
300.551
300.931
301.319
301.713
302.109
302.506
302.9
303.289
303.672
304.046
304.41
304.762
305.102
305.429
305.742
306.041
306.325
306.595
306.85
307.091
307.318
307.532
307.732
307.92
308.096
308.261
308.415
308.56
308.695
308.822
308.941
309.053
309.158
309.258
309.352
309.443
309.53
309.613
309.695
309.775
309.854
309.933
310.012
310.093
310.175
310.26
310.348
310.441
310.538
310.64
310.748
310.863
310.984
311.114
311.252
311.398
311.554
311.719
311.893
312.078
312.273
312.479
312.695
312.921
313.158
313.405
313.663
313.931
314.208
314.495
314.791
315.096
315.409
315.729
316.057
316.392
316.732
317.078
317.429
317.785
300.195
300.592
301.001
301.418
301.842
302.268
302.695
303.119
303.538
303.949
304.351
304.742
305.12
305.485
305.834
306.168
306.486
306.788
307.074
307.344
307.598
307.836
308.06
308.269
308.465
308.647
308.818
308.976
309.124
309.262
309.391
309.511
309.623
309.728
309.827
309.92
310.009
310.093
310.174
310.252
310.328
310.402
310.476
310.55
310.624
310.7
310.777
310.857
310.94
311.027
311.119
311.215
311.317
311.425
311.539
311.66
311.789
311.925
312.069
312.222
312.382
312.552
312.73
312.917
313.113
313.318
313.532
313.754
313.984
314.223
314.47
314.725
314.987
315.256
315.531
315.813
316.101
316.394
316.692
316.994
317.301
300.211
300.64
301.082
301.533
301.991
302.453
302.914
303.373
303.825
304.27
304.704
305.125
305.532
305.924
306.298
306.656
306.995
307.317
307.62
307.905
308.173
308.424
308.659
308.877
309.081
309.27
309.446
309.609
309.76
309.9
310.031
310.152
310.264
310.369
310.467
310.558
310.645
310.727
310.804
310.879
310.951
311.021
311.09
311.158
311.226
311.296
311.366
311.438
311.513
311.591
311.672
311.758
311.848
311.943
312.043
312.149
312.262
312.381
312.507
312.639
312.779
312.926
313.08
313.242
313.412
313.588
313.773
313.964
314.163
314.368
314.581
314.799
315.025
315.256
315.493
315.735
315.982
316.234
316.491
316.751
317.015
300.229
300.696
301.176
301.667
302.165
302.667
303.168
303.666
304.158
304.64
305.11
305.565
306.005
306.426
306.829
307.211
307.574
307.916
308.239
308.541
308.823
309.087
309.332
309.56
309.772
309.968
310.149
310.316
310.471
310.614
310.745
310.867
310.98
311.084
311.181
311.271
311.355
311.434
311.509
311.58
311.648
311.714
311.778
311.841
311.904
311.967
312.03
312.095
312.162
312.232
312.304
312.38
312.459
312.543
312.631
312.724
312.822
312.926
313.035
313.151
313.272
313.4
313.533
313.673
313.82
313.972
314.131
314.296
314.467
314.644
314.827
315.015
315.209
315.408
315.611
315.82
316.032
316.249
316.47
316.694
316.921
300.251
300.76
301.285
301.822
302.366
302.914
303.462
304.006
304.541
305.066
305.576
306.07
306.545
306.999
307.432
307.842
308.23
308.594
308.936
309.255
309.553
309.83
310.086
310.324
310.543
310.745
310.931
311.103
311.26
311.405
311.538
311.66
311.772
311.876
311.971
312.059
312.141
312.218
312.289
312.357
312.421
312.483
312.542
312.601
312.658
312.716
312.773
312.832
312.892
312.953
313.018
313.084
313.154
313.228
313.305
313.387
313.473
313.563
313.659
313.759
313.864
313.975
314.091
314.212
314.339
314.471
314.608
314.751
314.899
315.051
315.209
315.371
315.538
315.709
315.885
316.064
316.247
316.434
316.624
316.817
317.013
300.275
300.835
301.412
302.002
302.599
303.201
303.802
304.397
304.982
305.555
306.11
306.646
307.159
307.65
308.115
308.554
308.968
309.355
309.717
310.054
310.367
310.656
310.924
311.17
311.397
311.605
311.795
311.97
312.13
312.276
312.409
312.531
312.643
312.745
312.839
312.925
313.005
313.078
313.147
313.211
313.272
313.33
313.385
313.439
313.492
313.544
313.596
313.649
313.703
313.758
313.815
313.874
313.936
314.001
314.069
314.14
314.216
314.295
314.379
314.466
314.558
314.655
314.756
314.861
314.972
315.086
315.205
315.329
315.457
315.589
315.726
315.866
316.01
316.158
316.31
316.465
316.623
316.785
316.949
317.115
317.285
300.304
300.922
301.559
302.21
302.869
303.532
304.193
304.847
305.488
306.114
306.719
307.3
307.856
308.385
308.884
309.354
309.794
310.205
310.587
310.941
311.268
311.57
311.847
312.101
312.334
312.547
312.741
312.918
313.079
313.226
313.359
313.481
313.591
313.692
313.784
313.868
313.945
314.016
314.081
314.142
314.2
314.254
314.306
314.356
314.404
314.452
314.5
314.548
314.596
314.646
314.697
314.75
314.805
314.863
314.923
314.987
315.053
315.123
315.197
315.274
315.355
315.44
315.529
315.621
315.718
315.818
315.922
316.03
316.141
316.257
316.375
316.498
316.623
316.752
316.884
317.018
317.156
317.296
317.438
317.582
317.729
300.337
301.024
301.73
302.451
303.181
303.914
304.643
305.363
306.067
306.751
307.41
308.042
308.643
309.211
309.746
310.247
310.714
311.147
311.548
311.918
312.258
312.57
312.856
313.116
313.354
313.57
313.766
313.944
314.106
314.252
314.385
314.505
314.614
314.713
314.802
314.884
314.959
315.027
315.09
315.148
315.203
315.254
315.303
315.35
315.395
315.44
315.484
315.528
315.573
315.618
315.665
315.713
315.763
315.815
315.869
315.926
315.986
316.049
316.114
316.183
316.255
316.331
316.41
316.492
316.577
316.666
316.758
316.853
316.951
317.052
317.157
317.264
317.374
317.487
317.602
317.72
317.84
317.962
318.086
318.212
318.34
300.376
301.14
301.927
302.729
303.54
304.353
305.159
305.953
306.726
307.474
308.192
308.877
309.524
310.134
310.704
311.235
311.727
312.182
312.6
312.983
313.334
313.654
313.946
314.211
314.451
314.668
314.865
315.043
315.204
315.349
315.48
315.599
315.706
315.802
315.89
315.969
316.042
316.108
316.169
316.225
316.278
316.327
316.374
316.419
316.462
316.504
316.546
316.588
316.63
316.672
316.716
316.761
316.807
316.856
316.906
316.958
317.013
317.071
317.131
317.193
317.259
317.327
317.398
317.472
317.549
317.629
317.711
317.796
317.884
317.974
318.067
318.162
318.259
318.359
318.461
318.565
318.671
318.778
318.887
318.998
319.11
300.421
301.276
302.155
303.05
303.954
304.857
305.75
306.625
307.474
308.292
309.072
309.811
310.506
311.155
311.76
312.319
312.833
313.306
313.738
314.132
314.49
314.815
315.11
315.376
315.617
315.834
316.03
316.206
316.365
316.508
316.637
316.753
316.858
316.952
317.038
317.116
317.187
317.252
317.311
317.367
317.418
317.467
317.513
317.557
317.6
317.641
317.682
317.723
317.764
317.806
317.849
317.892
317.937
317.983
318.031
318.081
318.133
318.187
318.244
318.302
318.363
318.427
318.492
318.56
318.631
318.704
318.779
318.856
318.935
319.017
319.101
319.186
319.274
319.363
319.454
319.547
319.641
319.736
319.833
319.931
320.03
300.472
301.432
302.417
303.42
304.429
305.433
306.423
307.387
308.318
309.209
310.052
310.846
311.587
312.275
312.909
313.492
314.025
314.51
314.952
315.351
315.713
316.04
316.334
316.599
316.838
317.052
317.245
317.419
317.575
317.715
317.841
317.955
318.058
318.151
318.236
318.313
318.383
318.448
318.508
318.564
318.616
318.665
318.712
318.757
318.801
318.844
318.887
318.929
318.971
319.014
319.057
319.101
319.146
319.193
319.24
319.29
319.341
319.394
319.448
319.505
319.563
319.624
319.686
319.75
319.816
319.884
319.954
320.026
320.099
320.174
320.251
320.329
320.409
320.49
320.572
320.656
320.74
320.826
320.912
321
321.088
300.532
301.612
302.719
303.843
304.971
306.09
307.185
308.246
309.263
310.228
311.135
311.981
312.764
313.484
314.143
314.743
315.287
315.779
316.224
316.624
316.984
317.308
317.599
317.86
318.094
318.304
318.493
318.662
318.815
318.952
319.076
319.189
319.29
319.383
319.468
319.546
319.617
319.684
319.745
319.803
319.858
319.911
319.961
320.009
320.056
320.102
320.148
320.194
320.239
320.285
320.331
320.378
320.425
320.474
320.523
320.574
320.626
320.68
320.734
320.791
320.848
320.907
320.968
321.03
321.094
321.158
321.225
321.292
321.361
321.431
321.502
321.575
321.648
321.722
321.797
321.873
321.95
322.028
322.106
322.184
322.263
300.6
301.818
303.065
304.328
305.589
306.832
308.042
309.205
310.31
311.348
312.314
313.205
314.021
314.765
315.441
316.049
316.596
317.087
317.527
317.922
318.275
318.592
318.875
319.129
319.357
319.562
319.746
319.911
320.061
320.197
320.32
320.432
320.534
320.628
320.715
320.796
320.87
320.941
321.007
321.069
321.129
321.186
321.242
321.295
321.348
321.4
321.451
321.502
321.552
321.603
321.654
321.705
321.756
321.809
321.861
321.915
321.97
322.025
322.081
322.138
322.196
322.256
322.316
322.377
322.439
322.502
322.565
322.63
322.696
322.762
322.829
322.896
322.964
323.033
323.102
323.172
323.242
323.312
323.383
323.453
323.524
300.678
302.054
303.459
304.877
306.286
307.666
308.997
310.264
311.453
312.559
313.575
314.498
315.333
316.085
316.76
317.365
317.906
318.389
318.82
319.204
319.548
319.855
320.13
320.376
320.597
320.796
320.976
321.139
321.287
321.422
321.546
321.66
321.765
321.862
321.953
322.038
322.118
322.194
322.267
322.336
322.402
322.467
322.529
322.59
322.65
322.709
322.767
322.824
322.881
322.938
322.995
323.051
323.108
323.165
323.222
323.279
323.337
323.395
323.453
323.512
323.571
323.631
323.691
323.752
323.813
323.874
323.936
323.998
324.061
324.123
324.187
324.25
324.313
324.377
324.441
324.505
324.568
324.632
324.696
324.759
324.823
300.767
302.321
303.906
305.496
307.067
308.591
310.048
311.413
312.67
313.817
314.857
315.794
316.633
317.383
318.051
318.645
319.173
319.643
320.06
320.431
320.763
321.058
321.324
321.562
321.777
321.971
322.148
322.309
322.457
322.593
322.719
322.836
322.945
323.047
323.144
323.235
323.323
323.406
323.486
323.563
323.638
323.71
323.781
323.85
323.917
323.984
324.049
324.114
324.178
324.241
324.304
324.366
324.428
324.489
324.55
324.611
324.672
324.732
324.793
324.853
324.913
324.974
325.034
325.094
325.154
325.214
325.274
325.333
325.393
325.453
325.512
325.571
325.63
325.689
325.747
325.805
325.863
325.921
325.978
326.035
326.091
300.865
302.62
304.404
306.185
307.93
309.595
311.147
312.575
313.875
315.048
316.099
317.036
317.867
318.604
319.256
319.832
320.341
320.792
321.192
321.547
321.864
322.148
322.403
322.633
322.842
323.032
323.206
323.366
323.515
323.653
323.782
323.903
324.017
324.125
324.228
324.327
324.421
324.512
324.6
324.685
324.768
324.848
324.927
325.003
325.078
325.152
325.224
325.295
325.365
325.434
325.502
325.569
325.635
325.7
325.765
325.829
325.892
325.954
326.016
326.077
326.138
326.198
326.257
326.317
326.375
326.433
326.491
326.548
326.605
326.661
326.716
326.771
326.826
326.879
326.933
326.986
327.038
327.089
327.14
327.191
327.241
300.97
302.94
304.94
306.922
308.809
310.572
312.192
313.663
314.985
316.163
317.208
318.13
318.942
319.655
320.282
320.833
321.319
321.748
322.128
322.466
322.768
323.04
323.285
323.507
323.71
323.896
324.068
324.228
324.377
324.516
324.648
324.773
324.892
325.005
325.113
325.218
325.318
325.415
325.509
325.601
325.69
325.776
325.861
325.943
326.024
326.103
326.18
326.256
326.33
326.403
326.474
326.545
326.614
326.681
326.748
326.813
326.878
326.941
327.003
327.065
327.125
327.185
327.244
327.301
327.358
327.414
327.47
327.524
327.578
327.631
327.683
327.734
327.784
327.834
327.883
327.931
327.978
328.024
328.07
328.115
328.159
301.063
303.23
305.43
307.544
309.526
311.35
313.004
314.488
315.806
316.971
317.995
318.893
319.678
320.365
320.966
321.493
321.957
322.366
322.729
323.052
323.341
323.602
323.838
324.054
324.251
324.434
324.604
324.762
324.91
325.051
325.184
325.31
325.431
325.547
325.658
325.765
325.869
325.97
326.067
326.162
326.254
326.344
326.431
326.517
326.6
326.682
326.761
326.839
326.916
326.991
327.064
327.136
327.206
327.275
327.342
327.409
327.473
327.537
327.6
327.661
327.721
327.78
327.838
327.895
327.951
328.005
328.059
328.112
328.164
328.214
328.264
328.313
328.36
328.407
328.453
328.498
328.542
328.586
328.628
328.67
328.71
380.145
388.084
394.769
400.603
405.786
410.426
414.586
418.298
421.578
424.427
426.833
428.774
430.216
431.11
431.389
430.964
429.704
427.413
423.761
418.089
408.751
402.433
397.595
393.637
390.269
387.331
384.721
382.37
380.229
378.264
376.445
374.75
373.163
371.669
370.256
368.914
367.635
366.411
365.236
364.105
363.013
361.956
360.929
359.931
358.958
358.008
357.078
356.166
355.27
354.389
353.521
352.665
351.819
350.983
350.156
349.337
348.525
347.719
346.919
346.125
345.336
344.552
343.772
342.997
342.227
341.461
340.699
339.942
339.189
338.44
337.697
336.958
336.224
335.496
334.774
334.057
333.347
332.643
331.946
331.257
330.575
329.901
329.236
328.58
327.933
327.296
326.669
326.053
325.448
324.854
324.272
323.702
323.145
322.6
322.068
321.549
321.043
320.551
320.072
319.607
319.155
318.717
318.293
317.882
317.484
317.1
316.729
316.37
316.025
315.691
315.37
315.061
314.763
314.477
314.201
313.936
313.682
313.437
313.201
312.975
312.758
312.548
312.347
312.154
311.968
311.789
311.617
311.45
311.29
311.136
310.987
310.842
310.703
310.568
310.438
310.311
310.188
310.068
309.952
309.839
309.729
309.621
309.516
309.413
309.312
309.214
309.117
309.022
308.928
308.836
308.746
308.656
308.568
308.481
308.395
308.31
308.226
308.142
308.06
307.979
307.899
375.405
382.302
388.516
394.105
399.146
403.698
407.802
411.479
414.739
417.578
419.984
421.935
423.395
424.318
424.643
424.285
423.133
421.03
417.759
413.052
406.864
401.514
397.053
393.275
390.009
387.134
384.567
382.246
380.128
378.18
376.374
374.691
373.112
371.625
370.218
368.881
367.605
366.385
365.213
364.085
362.995
361.94
360.915
359.919
358.947
357.998
357.068
356.157
355.262
354.382
353.514
352.659
351.814
350.978
350.152
349.333
348.521
347.715
346.916
346.122
345.333
344.549
343.77
342.995
342.224
341.458
340.696
339.939
339.186
338.438
337.694
336.956
336.222
335.494
334.772
334.055
333.345
332.641
331.944
331.254
330.573
329.899
329.234
328.578
327.931
327.294
326.667
326.051
325.446
324.852
324.27
323.7
323.143
322.598
322.066
321.547
321.041
320.549
320.07
319.605
319.153
318.715
318.291
317.88
317.483
317.099
316.727
316.369
316.023
315.69
315.369
315.06
314.762
314.476
314.201
313.936
313.681
313.436
313.201
312.975
312.757
312.548
312.347
312.154
311.968
311.789
311.617
311.45
311.29
311.136
310.987
310.843
310.703
310.568
310.438
310.311
310.188
310.069
309.952
309.839
309.729
309.621
309.516
309.413
309.313
309.214
309.117
309.022
308.929
308.837
308.746
308.657
308.569
308.482
308.395
308.31
308.226
308.143
308.06
307.979
307.899
371.317
377.216
382.797
387.982
392.757
397.13
401.111
404.704
407.91
410.72
413.116
415.077
416.567
417.545
417.956
417.728
416.778
415.001
412.293
408.608
404.162
399.849
395.957
392.507
389.442
386.7
384.224
381.97
379.903
377.992
376.217
374.557
372.998
371.527
370.133
368.807
367.541
366.329
365.164
364.041
362.956
361.905
360.885
359.891
358.923
357.976
357.049
356.139
355.246
354.367
353.501
352.647
351.803
350.968
350.142
349.324
348.513
347.708
346.909
346.115
345.327
344.543
343.764
342.99
342.219
341.453
340.692
339.935
339.182
338.434
337.69
336.952
336.218