/*--------------------------------*- C++ -*----------------------------------*\
  =========                 |
  \\      /  F ield         | OpenFOAM: The Open Source CFD Toolbox
   \\    /   O peration     | Website:  https://openfoam.org
    \\  /    A nd           | Version:  7
     \\/     M anipulation  |
\*---------------------------------------------------------------------------*/
FoamFile
{
    version     2.0;
    format      ascii;
    class       volVectorField;
    location    "6.5";
    object      U;
}
// * * * * * * * * * * * * * * * * * * * * * * * * * * * * * * * * * * * * * //

dimensions      [0 1 -1 0 0 0 0];

internalField   nonuniform List<vector> 
12013
(
(0.100815 -0.000219956 0)
(0.104015 -0.000386896 0)
(0.108932 -0.00053339 0)
(0.115098 -0.000663719 0)
(0.122372 -0.000782998 0)
(0.130622 -0.000894879 0)
(0.139749 -0.00100218 0)
(0.149684 -0.00110713 0)
(0.160377 -0.00121121 0)
(0.171793 -0.00131519 0)
(0.183897 -0.00141904 0)
(0.196654 -0.00152201 0)
(0.210022 -0.00162274 0)
(0.223946 -0.00171943 0)
(0.238357 -0.00181009 0)
(0.253174 -0.00189274 0)
(0.268307 -0.0019656 0)
(0.283656 -0.00202723 0)
(0.29912 -0.00207661 0)
(0.314595 -0.00211315 0)
(0.329982 -0.00213669 0)
(0.345188 -0.00214742 0)
(0.360127 -0.00214587 0)
(0.374724 -0.00213278 0)
(0.388914 -0.00210905 0)
(0.402641 -0.00207569 0)
(0.415861 -0.00203376 0)
(0.428539 -0.00198432 0)
(0.440648 -0.0019284 0)
(0.452171 -0.00186698 0)
(0.463097 -0.00180096 0)
(0.473422 -0.00173122 0)
(0.483148 -0.00165851 0)
(0.49228 -0.00158349 0)
(0.500828 -0.00150682 0)
(0.508805 -0.00142903 0)
(0.516229 -0.00135058 0)
(0.523115 -0.0012719 0)
(0.529485 -0.00119337 0)
(0.53536 -0.00111528 0)
(0.540762 -0.00103789 0)
(0.545713 -0.000961453 0)
(0.550238 -0.000886151 0)
(0.554361 -0.000812121 0)
(0.558104 -0.000739477 0)
(0.561493 -0.000668317 0)
(0.56455 -0.000598702 0)
(0.567301 -0.00053065 0)
(0.569768 -0.000464146 0)
(0.571974 -0.000399148 0)
(0.573943 -0.00033558 0)
(0.575695 -0.00027332 0)
(0.577252 -0.000212199 0)
(0.578635 -0.000151996 0)
(0.579865 -9.24437e-05 0)
(0.580959 -3.32087e-05 0)
(0.581936 2.60806e-05 0)
(0.582814 8.58649e-05 0)
(0.583608 0.000146687 0)
(0.584334 0.00020923 0)
(0.585005 0.000274332 0)
(0.585634 0.000343009 0)
(0.586229 0.000416504 0)
(0.586799 0.00049635 0)
(0.587348 0.000584446 0)
(0.587878 0.000683184 0)
(0.588383 0.000795606 0)
(0.588856 0.000925659 0)
(0.589279 0.00107856 0)
(0.589625 0.00126139 0)
(0.589853 0.00148401 0)
(0.5899 0.00176063 0)
(0.589676 0.00211249 0)
(0.589041 0.00257281 0)
(0.587783 0.00319599 0)
(0.585565 0.00407614 0)
(0.581831 0.00538592 0)
(0.5756 0.00746854 0)
(0.565108 0.0111356 0)
(0.547257 0.0192766 0)
(0.529232 0.0516805 0)
(0.100744 -0.000670323 0)
(0.103927 -0.00118445 0)
(0.10882 -0.00163326 0)
(0.114966 -0.0020319 0)
(0.122221 -0.00239652 0)
(0.130455 -0.00273828 0)
(0.139568 -0.00306585 0)
(0.149491 -0.00338604 0)
(0.160174 -0.00370346 0)
(0.171581 -0.00402044 0)
(0.18368 -0.00433692 0)
(0.196436 -0.00465061 0)
(0.209806 -0.00495736 0)
(0.223735 -0.00525174 0)
(0.238157 -0.00552767 0)
(0.25299 -0.00577916 0)
(0.268142 -0.00600082 0)
(0.283515 -0.00618831 0)
(0.299004 -0.00633851 0)
(0.314508 -0.00644969 0)
(0.329925 -0.00652134 0)
(0.345162 -0.00655411 0)
(0.360133 -0.00654956 0)
(0.374762 -0.00650994 0)
(0.388983 -0.006438 0)
(0.40274 -0.0063368 0)
(0.415988 -0.00620953 0)
(0.428692 -0.00605938 0)
(0.440827 -0.00588947 0)
(0.452373 -0.00570279 0)
(0.46332 -0.00550208 0)
(0.473665 -0.00528991 0)
(0.483408 -0.00506861 0)
(0.492556 -0.00484026 0)
(0.501117 -0.0046067 0)
(0.509107 -0.00436962 0)
(0.51654 -0.00413046 0)
(0.523435 -0.00389048 0)
(0.529811 -0.00365079 0)
(0.53569 -0.00341235 0)
(0.541095 -0.00317597 0)
(0.546048 -0.00294234 0)
(0.550572 -0.00271202 0)
(0.554692 -0.00248549 0)
(0.558431 -0.00226311 0)
(0.561814 -0.00204515 0)
(0.564864 -0.00183178 0)
(0.567605 -0.00162306 0)
(0.57006 -0.00141897 0)
(0.572253 -0.00121938 0)
(0.574205 -0.00102405 0)
(0.575939 -0.000832599 0)
(0.577476 -0.00064451 0)
(0.578836 -0.000459124 0)
(0.580039 -0.000275611 0)
(0.581105 -9.29461e-05 0)
(0.58205 9.00064e-05 0)
(0.582893 0.000274547 0)
(0.583649 0.000462312 0)
(0.584334 0.000655376 0)
(0.584961 0.00085628 0)
(0.585541 0.00106811 0)
(0.586086 0.00129464 0)
(0.586601 0.00154047 0)
(0.587093 0.00181135 0)
(0.587563 0.00211441 0)
(0.588008 0.00245873 0)
(0.588421 0.00285602 0)
(0.588787 0.00332163 0)
(0.589083 0.0038762 0)
(0.589274 0.00454817 0)
(0.589309 0.00537791 0)
(0.589116 0.00642459 0)
(0.588588 0.00777823 0)
(0.587576 0.0095813 0)
(0.585866 0.0120687 0)
(0.583154 0.0156446 0)
(0.579015 0.0210337 0)
(0.572902 0.0296127 0)
(0.564724 0.0440649 0)
(0.5623 0.0693845 0)
(0.100664 -0.00113613 0)
(0.103803 -0.00202955 0)
(0.108642 -0.00280317 0)
(0.114744 -0.00348996 0)
(0.121961 -0.00411802 0)
(0.130161 -0.00470659 0)
(0.139244 -0.0052707 0)
(0.149141 -0.00582217 0)
(0.159803 -0.00636902 0)
(0.171194 -0.0069153 0)
(0.183284 -0.00746097 0)
(0.196037 -0.0080021 0)
(0.209414 -0.00853153 0)
(0.223359 -0.00903984 0)
(0.237805 -0.00951655 0)
(0.252671 -0.00995123 0)
(0.267865 -0.0103345 0)
(0.283287 -0.0106589 0)
(0.298832 -0.010919 0)
(0.314395 -0.0111116 0)
(0.329876 -0.011236 0)
(0.345178 -0.0112933 0)
(0.360215 -0.011286 0)
(0.374909 -0.0112182 0)
(0.389193 -0.0110946 0)
(0.403011 -0.0109204 0)
(0.416318 -0.0107011 0)
(0.429077 -0.0104423 0)
(0.441262 -0.0101494 0)
(0.452856 -0.00982754 0)
(0.463847 -0.00948145 0)
(0.474231 -0.00911554 0)
(0.48401 -0.00873383 0)
(0.493189 -0.00833994 0)
(0.501778 -0.00793707 0)
(0.509792 -0.00752806 0)
(0.517245 -0.00711542 0)
(0.524157 -0.00670133 0)
(0.530547 -0.00628771 0)
(0.536436 -0.00587618 0)
(0.541847 -0.00546814 0)
(0.546803 -0.00506476 0)
(0.551328 -0.00466702 0)
(0.555445 -0.00427573 0)
(0.559178 -0.00389149 0)
(0.562552 -0.00351476 0)
(0.565589 -0.0031458 0)
(0.568314 -0.00278474 0)
(0.57075 -0.00243152 0)
(0.57292 -0.0020859 0)
(0.574845 -0.00174743 0)
(0.576548 -0.00141547 0)
(0.57805 -0.00108911 0)
(0.579371 -0.000767228 0)
(0.580531 -0.00044836 0)
(0.581549 -0.000130749 0)
(0.582442 0.000187542 0)
(0.583227 0.000508722 0)
(0.583921 0.000835608 0)
(0.584539 0.00117174 0)
(0.585093 0.00152142 0)
(0.585596 0.00188985 0)
(0.586058 0.00228334 0)
(0.586488 0.00270962 0)
(0.58689 0.00317816 0)
(0.587268 0.00370074 0)
(0.587622 0.00429217 0)
(0.587946 0.00497133 0)
(0.588231 0.00576269 0)
(0.588461 0.00669857 0)
(0.588613 0.00782257 0)
(0.588654 0.0091948 0)
(0.58854 0.0109003 0)
(0.588217 0.0130623 0)
(0.587621 0.0158639 0)
(0.58669 0.0195832 0)
(0.585392 0.02465 0)
(0.583806 0.031734 0)
(0.5823 0.0418854 0)
(0.581981 0.0566645 0)
(0.586692 0.0774213 0)
(0.100581 -0.00161175 0)
(0.103657 -0.00291842 0)
(0.108419 -0.00404103 0)
(0.114453 -0.00503815 0)
(0.121612 -0.00594975 0)
(0.129761 -0.00680382 0)
(0.138799 -0.00762248 0)
(0.148657 -0.00842299 0)
(0.159289 -0.00921717 0)
(0.170658 -0.0100111 0)
(0.182736 -0.0108046 0)
(0.19549 -0.0115923 0)
(0.208881 -0.0123635 0)
(0.222855 -0.0131046 0)
(0.237346 -0.0138001 0)
(0.252271 -0.0144347 0)
(0.267538 -0.0149946 0)
(0.283044 -0.0154688 0)
(0.298683 -0.0158491 0)
(0.314347 -0.0161312 0)
(0.329933 -0.0163136 0)
(0.345343 -0.016398 0)
(0.360487 -0.0163884 0)
(0.375287 -0.0162903 0)
(0.389673 -0.0161108 0)
(0.40359 -0.0158575 0)
(0.416989 -0.0155386 0)
(0.429835 -0.0151622 0)
(0.442101 -0.014736 0)
(0.453768 -0.0142677 0)
(0.464827 -0.0137641 0)
(0.475271 -0.0132318 0)
(0.485104 -0.0126765 0)
(0.494331 -0.0121035 0)
(0.502963 -0.0115174 0)
(0.511012 -0.0109224 0)
(0.518496 -0.0103222 0)
(0.525433 -0.00971983 0)
(0.531843 -0.00911811 0)
(0.537748 -0.00851936 0)
(0.543169 -0.00792562 0)
(0.548131 -0.00733857 0)
(0.552657 -0.00675963 0)
(0.55677 -0.0061899 0)
(0.560496 -0.00563026 0)
(0.563857 -0.00508134 0)
(0.566877 -0.00454353 0)
(0.569581 -0.00401696 0)
(0.571991 -0.00350152 0)
(0.574129 -0.00299683 0)
(0.576019 -0.00250225 0)
(0.577682 -0.00201681 0)
(0.579138 -0.0015392 0)
(0.580409 -0.00106775 0)
(0.581513 -0.00060034 0)
(0.582468 -0.000134482 0)
(0.583294 0.000332575 0)
(0.584007 0.000803994 0)
(0.584623 0.00128383 0)
(0.585156 0.00177711 0)
(0.585622 0.00228988 0)
(0.586031 0.00282941 0)
(0.586395 0.00340446 0)
(0.586723 0.00402563 0)
(0.587021 0.00470584 0)
(0.587296 0.00546095 0)
(0.587549 0.00631067 0)
(0.587781 0.00727968 0)
(0.587989 0.00839936 0)
(0.588167 0.00971013 0)
(0.588306 0.0112648 0)
(0.588396 0.0131334 0)
(0.588428 0.01541 0)
(0.588398 0.0182226 0)
(0.588319 0.0217459 0)
(0.588243 0.0262182 0)
(0.588301 0.0319593 0)
(0.588771 0.039379 0)
(0.590191 0.0489524 0)
(0.593497 0.0610754 0)
(0.600299 0.0754803 0)
(0.100495 -0.00209643 0)
(0.103502 -0.00384825 0)
(0.108168 -0.0053452 0)
(0.114117 -0.00667645 0)
(0.121199 -0.00789337 0)
(0.129281 -0.00903333 0)
(0.13826 -0.0101262 0)
(0.14807 -0.0111953 0)
(0.158662 -0.0122567 0)
(0.170006 -0.0133188 0)
(0.182075 -0.0143817 0)
(0.194838 -0.0154378 0)
(0.208259 -0.0164732 0)
(0.222286 -0.0174692 0)
(0.236851 -0.0184048 0)
(0.251873 -0.0192591 0)
(0.267256 -0.0200135 0)
(0.282894 -0.0206527 0)
(0.298679 -0.0211658 0)
(0.314497 -0.0215465 0)
(0.330242 -0.0217931 0)
(0.345812 -0.0219078 0)
(0.361115 -0.0218958 0)
(0.376069 -0.0217649 0)
(0.390604 -0.0215246 0)
(0.40466 -0.0211852 0)
(0.418191 -0.0207577 0)
(0.431159 -0.020253 0)
(0.443536 -0.0196818 0)
(0.455305 -0.0190541 0)
(0.466455 -0.0183792 0)
(0.476982 -0.017666 0)
(0.486888 -0.0169221 0)
(0.496178 -0.0161545 0)
(0.504865 -0.0153696 0)
(0.512961 -0.0145729 0)
(0.520484 -0.0137691 0)
(0.527453 -0.0129625 0)
(0.533888 -0.0121568 0)
(0.539811 -0.011355 0)
(0.545244 -0.0105598 0)
(0.550212 -0.00977349 0)
(0.554738 -0.00899782 0)
(0.558846 -0.0082343 0)
(0.56256 -0.00748405 0)
(0.565904 -0.00674788 0)
(0.568902 -0.00602624 0)
(0.571578 -0.00531929 0)
(0.573955 -0.00462685 0)
(0.576055 -0.00394841 0)
(0.577901 -0.00328305 0)
(0.579514 -0.00262948 0)
(0.580915 -0.00198593 0)
(0.582124 -0.00135017 0)
(0.583161 -0.000719404 0)
(0.584043 -9.047e-05 0)
(0.584791 0.000540204 0)
(0.585419 0.00117679 0)
(0.585945 0.00182459 0)
(0.586384 0.00249005 0)
(0.58675 0.00318087 0)
(0.587056 0.00390621 0)
(0.587313 0.00467698 0)
(0.587532 0.00550629 0)
(0.587723 0.00640985 0)
(0.587893 0.0074067 0)
(0.588049 0.00852003 0)
(0.588198 0.00977826 0)
(0.588343 0.0112166 0)
(0.588491 0.0128788 0)
(0.588647 0.0148199 0)
(0.588825 0.0171093 0)
(0.589042 0.0198343 0)
(0.589334 0.0231049 0)
(0.589763 0.0270568 0)
(0.590438 0.0318524 0)
(0.591534 0.0376732 0)
(0.593332 0.0446958 0)
(0.596245 0.0530316 0)
(0.60083 0.0626032 0)
(0.60774 0.0729136 0)
(0.100408 -0.00259023 0)
(0.103347 -0.00481714 0)
(0.107907 -0.00671482 0)
(0.113755 -0.00840533 0)
(0.120747 -0.00995118 0)
(0.128749 -0.0113993 0)
(0.137659 -0.0127882 0)
(0.147411 -0.0141478 0)
(0.157962 -0.0154992 0)
(0.169282 -0.0168532 0)
(0.181349 -0.0182105 0)
(0.194139 -0.0195615 0)
(0.207616 -0.0208881 0)
(0.22173 -0.0221659 0)
(0.236416 -0.0233677 0)
(0.251587 -0.0244663 0)
(0.267146 -0.0254369 0)
(0.282982 -0.0262596 0)
(0.298979 -0.0269202 0)
(0.31502 -0.0274106 0)
(0.330991 -0.0277284 0)
(0.346787 -0.0278764 0)
(0.36231 -0.0278617 0)
(0.377475 -0.0276943 0)
(0.392209 -0.0273865 0)
(0.406453 -0.0269519 0)
(0.420156 -0.0264047 0)
(0.433282 -0.0257589 0)
(0.445804 -0.0250282 0)
(0.457702 -0.0242256 0)
(0.468967 -0.0233631 0)
(0.479595 -0.0224519 0)
(0.489589 -0.0215018 0)
(0.498957 -0.0205219 0)
(0.507708 -0.01952 0)
(0.515859 -0.0185032 0)
(0.523427 -0.0174777 0)
(0.530431 -0.0164487 0)
(0.536893 -0.0154208 0)
(0.542834 -0.014398 0)
(0.548278 -0.0133835 0)
(0.553249 -0.0123802 0)
(0.557771 -0.0113903 0)
(0.561868 -0.0104157 0)
(0.565565 -0.00945768 0)
(0.568886 -0.00851725 0)
(0.571855 -0.00759494 0)
(0.574495 -0.00669092 0)
(0.57683 -0.00580492 0)
(0.578882 -0.00493623 0)
(0.580674 -0.00408368 0)
(0.582227 -0.00324562 0)
(0.583562 -0.00241983 0)
(0.584699 -0.0016035 0)
(0.585658 -0.00079312 0)
(0.586458 1.50592e-05 0)
(0.587116 0.000825352 0)
(0.587651 0.00164299 0)
(0.588078 0.00247446 0)
(0.588414 0.0033275 0)
(0.588672 0.00421124 0)
(0.588868 0.00513642 0)
(0.589014 0.0061157 0)
(0.589123 0.00716401 0)
(0.589206 0.008299 0)
(0.589275 0.00954161 0)
(0.589342 0.0109167 0)
(0.589417 0.0124541 0)
(0.589514 0.0141891 0)
(0.589649 0.0161644 0)
(0.589841 0.0184306 0)
(0.590119 0.0210479 0)
(0.590521 0.0240865 0)
(0.591103 0.0276268 0)
(0.591947 0.0317564 0)
(0.593169 0.0365631 0)
(0.594928 0.0421209 0)
(0.597436 0.0484643 0)
(0.600951 0.0555472 0)
(0.605751 0.0631846 0)
(0.612064 0.0709859 0)
(0.10032 -0.00309393 0)
(0.103197 -0.00582437 0)
(0.107648 -0.00814997 0)
(0.113387 -0.0102261 0)
(0.120279 -0.0121263 0)
(0.128191 -0.0139071 0)
(0.137026 -0.0156161 0)
(0.146717 -0.0172911 0)
(0.157227 -0.0189585 0)
(0.168532 -0.0206327 0)
(0.180617 -0.0223148 0)
(0.193461 -0.0239928 0)
(0.207034 -0.0256439 0)
(0.22129 -0.0272372 0)
(0.236159 -0.0287378 0)
(0.251555 -0.0301106 0)
(0.267371 -0.0313241 0)
(0.283489 -0.0323527 0)
(0.299784 -0.0331781 0)
(0.316132 -0.0337903 0)
(0.33241 -0.0341863 0)
(0.348507 -0.03437 0)
(0.364319 -0.0343504 0)
(0.379758 -0.0341406 0)
(0.394748 -0.033756 0)
(0.409227 -0.0332141 0)
(0.423145 -0.0325327 0)
(0.436465 -0.0317294 0)
(0.449159 -0.0308214 0)
(0.461211 -0.029825 0)
(0.47261 -0.0287552 0)
(0.483355 -0.0276256 0)
(0.493449 -0.0264486 0)
(0.502901 -0.0252353 0)
(0.511724 -0.0239954 0)
(0.519933 -0.0227376 0)
(0.527546 -0.0214693 0)
(0.534584 -0.020197 0)
(0.54107 -0.0189263 0)
(0.547025 -0.017662 0)
(0.552475 -0.0164081 0)
(0.557443 -0.0151678 0)
(0.561953 -0.0139441 0)
(0.566032 -0.0127389 0)
(0.569703 -0.0115539 0)
(0.572992 -0.0103902 0)
(0.575921 -0.00924845 0)
(0.578515 -0.00812876 0)
(0.580798 -0.00703074 0)
(0.582792 -0.0059535 0)
(0.584519 -0.00489561 0)
(0.586001 -0.00385505 0)
(0.587259 -0.00282915 0)
(0.588314 -0.00181453 0)
(0.589184 -0.000807045 0)
(0.58989 0.000197661 0)
(0.59045 0.0012045 0)
(0.590882 0.00221972 0)
(0.591202 0.00325086 0)
(0.591427 0.00430677 0)
(0.591573 0.0053977 0)
(0.591655 0.00653553 0)
(0.591687 0.00773405 0)
(0.591684 0.00900925 0)
(0.591661 0.0103796 0)
(0.591633 0.0118665 0)
(0.591615 0.0134947 0)
(0.591624 0.0152926 0)
(0.591681 0.0172931 0)
(0.591808 0.0195334 0)
(0.592036 0.0220553 0)
(0.592399 0.0249049 0)
(0.592947 0.0281315 0)
(0.593741 0.0317844 0)
(0.59486 0.0359085 0)
(0.596402 0.0405362 0)
(0.598486 0.0456754 0)
(0.601248 0.0512929 0)
(0.604826 0.0572944 0)
(0.609336 0.0635052 0)
(0.614821 0.0696627 0)
(0.10023 -0.00360917 0)
(0.103057 -0.00687049 0)
(0.1074 -0.00965201 0)
(0.113026 -0.0121412 0)
(0.119813 -0.0144228 0)
(0.127633 -0.016563 0)
(0.13639 -0.0186192 0)
(0.146023 -0.020638 0)
(0.156501 -0.0226524 0)
(0.167809 -0.0246807 0)
(0.179941 -0.0267248 0)
(0.192884 -0.0287701 0)
(0.206615 -0.0307879 0)
(0.221087 -0.032739 0)
(0.23623 -0.0345789 0)
(0.251947 -0.036263 0)
(0.268125 -0.0377514 0)
(0.284631 -0.0390117 0)
(0.301329 -0.0400213 0)
(0.318083 -0.0407676 0)
(0.33476 -0.0412478 0)
(0.35124 -0.0414671 0)
(0.367414 -0.0414374 0)
(0.38319 -0.0411751 0)
(0.398489 -0.0407003 0)
(0.413248 -0.0400344 0)
(0.427417 -0.0391996 0)
(0.44096 -0.0382179 0)
(0.45385 -0.0371105 0)
(0.466072 -0.035897 0)
(0.477618 -0.0345959 0)
(0.488487 -0.0332236 0)
(0.498686 -0.0317953 0)
(0.508224 -0.0303241 0)
(0.517116 -0.0288218 0)
(0.525378 -0.0272987 0)
(0.533032 -0.0257636 0)
(0.540098 -0.0242244 0)
(0.5466 -0.0226876 0)
(0.552561 -0.0211589 0)
(0.558007 -0.0196428 0)
(0.562961 -0.0181434 0)
(0.567451 -0.0166638 0)
(0.5715 -0.0152063 0)
(0.575135 -0.013773 0)
(0.578379 -0.012365 0)
(0.581257 -0.010983 0)
(0.583794 -0.0096271 0)
(0.586013 -0.00829674 0)
(0.587936 -0.00699087 0)
(0.589587 -0.00570778 0)
(0.590987 -0.0044451 0)
(0.592157 -0.00319973 0)
(0.593119 -0.00196779 0)
(0.59389 -0.000744616 0)
(0.594494 0.000474725 0)
(0.594947 0.0016957 0)
(0.595267 0.00292539 0)
(0.595473 0.00417223 0)
(0.595582 0.00544586 0)
(0.595611 0.00675724 0)
(0.595575 0.0081189 0)
(0.595492 0.00954504 0)
(0.595377 0.0110518 0)
(0.595249 0.0126574 0)
(0.595126 0.0143823 0)
(0.595025 0.0162492 0)
(0.59497 0.0182836 0)
(0.594983 0.020513 0)
(0.595094 0.0229671 0)
(0.595336 0.0256769 0)
(0.595748 0.0286733 0)
(0.596377 0.0319854 0)
(0.59728 0.0356368 0)
(0.598522 0.0396416 0)
(0.600175 0.0439982 0)
(0.602317 0.0486816 0)
(0.605023 0.0536361 0)
(0.608354 0.058768 0)
(0.612342 0.0639428 0)
(0.616962 0.0689953 0)
(0.100136 -0.00413832 0)
(0.102926 -0.0079573 0)
(0.10717 -0.0112236 0)
(0.112684 -0.0141545 0)
(0.119367 -0.0168466 0)
(0.127095 -0.0193754 0)
(0.135777 -0.0218093 0)
(0.145361 -0.0242048 0)
(0.155826 -0.0266032 0)
(0.167168 -0.0290277 0)
(0.179395 -0.0314809 0)
(0.192505 -0.0339448 0)
(0.206479 -0.0363829 0)
(0.221272 -0.0387451 0)
(0.236806 -0.0409748 0)
(0.252971 -0.0430152 0)
(0.269638 -0.0448158 0)
(0.286658 -0.0463365 0)
(0.303877 -0.0475497 0)
(0.321144 -0.048441 0)
(0.338315 -0.0490078 0)
(0.35526 -0.049258 0)
(0.371865 -0.0492072 0)
(0.388033 -0.0488768 0)
(0.403685 -0.0482919 0)
(0.418758 -0.0474792 0)
(0.433203 -0.046466 0)
(0.446985 -0.0452794 0)
(0.460081 -0.0439447 0)
(0.472477 -0.0424858 0)
(0.48417 -0.0409247 0)
(0.495161 -0.0392811 0)
(0.505458 -0.0375727 0)
(0.515073 -0.0358153 0)
(0.524024 -0.0340227 0)
(0.53233 -0.0322067 0)
(0.540012 -0.030378 0)
(0.547093 -0.0285453 0)
(0.553597 -0.0267164 0)
(0.559551 -0.0248976 0)
(0.564978 -0.0230943 0)
(0.569907 -0.0213111 0)
(0.574361 -0.0195514 0)
(0.578368 -0.017818 0)
(0.581953 -0.0161129 0)
(0.58514 -0.0144375 0)
(0.587955 -0.0127926 0)
(0.590423 -0.011178 0)
(0.592566 -0.00959322 0)
(0.594408 -0.00803695 0)
(0.595971 -0.00650721 0)
(0.597279 -0.0050013 0)
(0.598352 -0.00351576 0)
(0.599211 -0.00204631 0)
(0.599875 -0.000587995 0)
(0.600369 0.000864655 0)
(0.600708 0.00231768 0)
(0.600912 0.00377886 0)
(0.601 0.00525719 0)
(0.600989 0.00676271 0)
(0.600897 0.00830666 0)
(0.600743 0.00990159 0)
(0.600543 0.0115615 0)
(0.600317 0.0133017 0)
(0.600084 0.0151391 0)
(0.599864 0.0170921 0)
(0.599679 0.0191804 0)
(0.599553 0.0214247 0)
(0.599512 0.0238463 0)
(0.599585 0.0264666 0)
(0.599807 0.0293057 0)
(0.600215 0.0323811 0)
(0.600849 0.0357057 0)
(0.601756 0.0392852 0)
(0.602982 0.0431148 0)
(0.604576 0.0471757 0)
(0.606582 0.0514322 0)
(0.609035 0.0558284 0)
(0.611952 0.0602877 0)
(0.615328 0.064716 0)
(0.619117 0.0690125 0)
(0.100037 -0.00468431 0)
(0.102805 -0.00908787 0)
(0.106962 -0.0128691 0)
(0.112369 -0.0162718 0)
(0.118952 -0.0194053 0)
(0.126596 -0.022355 0)
(0.135213 -0.0252014 0)
(0.144766 -0.028013 0)
(0.155247 -0.0308412 0)
(0.166673 -0.033715 0)
(0.179066 -0.036638 0)
(0.192439 -0.0395867 0)
(0.206776 -0.0425137 0)
(0.222027 -0.0453542 0)
(0.2381 -0.048035 0)
(0.254866 -0.0504841 0)
(0.272171 -0.0526382 0)
(0.289842 -0.0544482 0)
(0.307704 -0.0558819 0)
(0.325589 -0.0569235 0)
(0.343341 -0.0575727 0)
(0.36082 -0.0578412 0)
(0.377908 -0.0577503 0)
(0.394507 -0.0573276 0)
(0.410538 -0.0566046 0)
(0.425938 -0.0556144 0)
(0.440664 -0.0543906 0)
(0.454684 -0.0529654 0)
(0.467978 -0.0513696 0)
(0.480538 -0.0496313 0)
(0.492362 -0.0477764 0)
(0.503456 -0.0458281 0)
(0.513832 -0.043807 0)
(0.523506 -0.0417313 0)
(0.532495 -0.0396168 0)
(0.540823 -0.0374774 0)
(0.548513 -0.035325 0)
(0.555588 -0.0331696 0)
(0.562077 -0.03102 0)
(0.568004 -0.0288833 0)
(0.573396 -0.0267656 0)
(0.578281 -0.0246719 0)
(0.582685 -0.022606 0)
(0.586634 -0.0205709 0)
(0.590155 -0.018569 0)
(0.593273 -0.0166015 0)
(0.596013 -0.0146692 0)
(0.598399 -0.012772 0)
(0.600456 -0.0109093 0)
(0.602208 -0.00907939 0)
(0.603676 -0.00728025 0)
(0.604883 -0.00550885 0)
(0.605852 -0.0037614 0)
(0.606603 -0.00203328 0)
(0.607156 -0.000319737 0)
(0.607536 0.00138513 0)
(0.607759 0.00308819 0)
(0.607845 0.0047977 0)
(0.607813 0.00652283 0)
(0.607682 0.0082736 0)
(0.607471 0.010061 0)
(0.607198 0.0118972 0)
(0.606884 0.013795 0)
(0.606547 0.0157685 0)
(0.606208 0.0178325 0)
(0.60589 0.0200024 0)
(0.605615 0.022294 0)
(0.605407 0.024723 0)
(0.605293 0.0273043 0)
(0.605302 0.0300515 0)
(0.605463 0.0329755 0)
(0.60581 0.0360835 0)
(0.606374 0.0393772 0)
(0.607189 0.0428514 0)
(0.608288 0.0464921 0)
(0.609697 0.050275 0)
(0.611439 0.0541645 0)
(0.613523 0.0581137 0)
(0.615947 0.0620657 0)
(0.61869 0.0659575 0)
(0.621705 0.0697287 0)
(0.099932 -0.00525047 0)
(0.102693 -0.0102664 0)
(0.106777 -0.014594 0)
(0.112086 -0.0185005 0)
(0.11858 -0.022109 0)
(0.126149 -0.0255158 0)
(0.134721 -0.0288154 0)
(0.144272 -0.0320914 0)
(0.154819 -0.0354074 0)
(0.166401 -0.0387999 0)
(0.179064 -0.042272 0)
(0.192831 -0.0457914 0)
(0.207688 -0.0492945 0)
(0.22357 -0.0526956 0)
(0.240361 -0.0558996 0)
(0.2579 -0.0588149 0)
(0.276 -0.0613636 0)
(0.294458 -0.0634875 0)
(0.313077 -0.0651506 0)
(0.331669 -0.0663384 0)
(0.350065 -0.0670545 0)
(0.368122 -0.0673174 0)
(0.385719 -0.067156 0)
(0.402758 -0.0666059 0)
(0.419163 -0.0657068 0)
(0.43488 -0.0644995 0)
(0.449866 -0.0630243 0)
(0.464098 -0.0613199 0)
(0.477561 -0.0594224 0)
(0.490252 -0.057365 0)
(0.502175 -0.0551775 0)
(0.513339 -0.0528866 0)
(0.523761 -0.050516 0)
(0.533459 -0.0480864 0)
(0.542455 -0.0456158 0)
(0.550775 -0.0431196 0)
(0.558443 -0.0406111 0)
(0.565487 -0.0381017 0)
(0.571934 -0.0356009 0)
(0.577811 -0.0331168 0)
(0.583147 -0.0306558 0)
(0.587969 -0.0282234 0)
(0.592304 -0.0258237 0)
(0.59618 -0.02346 0)
(0.599623 -0.0211347 0)
(0.602658 -0.0188491 0)
(0.605311 -0.016604 0)
(0.607608 -0.0143992 0)
(0.609571 -0.0122338 0)
(0.611225 -0.0101063 0)
(0.612593 -0.00801425 0)
(0.613697 -0.00595448 0)
(0.614559 -0.003923 0)
(0.615201 -0.00191498 0)
(0.615644 7.41923e-05 0)
(0.615911 0.00205051 0)
(0.616019 0.00402166 0)
(0.61599 0.00599607 0)
(0.615842 0.00798271 0)
(0.615595 0.00999123 0)
(0.615269 0.012032 0)
(0.614883 0.014116 0)
(0.614457 0.0162549 0)
(0.614012 0.0184606 0)
(0.613569 0.0207454 0)
(0.613151 0.0231215 0)
(0.612779 0.0256005 0)
(0.612478 0.0281934 0)
(0.612272 0.0309094 0)
(0.612187 0.0337557 0)
(0.612249 0.0367362 0)
(0.612482 0.0398513 0)
(0.612913 0.043096 0)
(0.613563 0.0464601 0)
(0.614451 0.0499264 0)
(0.615593 0.0534715 0)
(0.616994 0.057065 0)
(0.618652 0.0606709 0)
(0.620557 0.0642491 0)
(0.622682 0.0677585 0)
(0.624989 0.0711635 0)
(0.0998177 -0.00584055 0)
(0.102589 -0.0114984 0)
(0.106617 -0.0164058 0)
(0.111841 -0.0208504 0)
(0.118257 -0.0249709 0)
(0.125771 -0.0288763 0)
(0.134325 -0.0326785 0)
(0.14392 -0.03648 0)
(0.154605 -0.04036 0)
(0.166451 -0.0443628 0)
(0.179526 -0.0484883 0)
(0.193863 -0.052689 0)
(0.209438 -0.0568762 0)
(0.226157 -0.0609345 0)
(0.243863 -0.0647405 0)
(0.262354 -0.0681791 0)
(0.281398 -0.0711568 0)
(0.300762 -0.0736078 0)
(0.320221 -0.0754955 0)
(0.339573 -0.0768096 0)
(0.358642 -0.0775617 0)
(0.377281 -0.07778 0)
(0.395373 -0.0775036 0)
(0.412825 -0.0767786 0)
(0.429569 -0.0756542 0)
(0.445557 -0.0741801 0)
(0.460755 -0.0724044 0)
(0.475147 -0.0703727 0)
(0.488726 -0.0681269 0)
(0.501495 -0.0657052 0)
(0.513464 -0.0631417 0)
(0.524648 -0.0604667 0)
(0.535067 -0.0577068 0)
(0.544744 -0.0548851 0)
(0.553705 -0.0520215 0)
(0.561976 -0.0491332 0)
(0.569587 -0.0462349 0)
(0.576564 -0.0433387 0)
(0.582939 -0.0404552 0)
(0.588739 -0.0375929 0)
(0.593993 -0.0347589 0)
(0.59873 -0.0319589 0)
(0.602977 -0.0291973 0)
(0.606763 -0.0264774 0)
(0.610113 -0.0238018 0)
(0.613054 -0.0211717 0)
(0.615612 -0.0185879 0)
(0.617811 -0.0160501 0)
(0.619675 -0.0135573 0)
(0.621228 -0.0111078 0)
(0.622494 -0.00869917 0)
(0.623495 -0.00632815 0)
(0.624253 -0.00399074 0)
(0.624789 -0.00168222 0)
(0.625128 0.000602535 0)
(0.625288 0.00286955 0)
(0.625289 0.00512657 0)
(0.625152 0.00738187 0)
(0.624897 0.00964401 0)
(0.624543 0.0119219 0)
(0.624111 0.014225 0)
(0.62362 0.0165629 0)
(0.623091 0.0189454 0)
(0.622545 0.0213824 0)
(0.622001 0.0238833 0)
(0.621483 0.0264573 0)
(0.62101 0.0291121 0)
(0.620606 0.0318546 0)
(0.620292 0.0346895 0)
(0.62009 0.0376194 0)
(0.620019 0.0406436 0)
(0.620101 0.0437585 0)
(0.620352 0.0469562 0)
(0.620786 0.0502248 0)
(0.621414 0.0535483 0)
(0.622241 0.0569064 0)
(0.623266 0.0602755 0)
(0.624482 0.0636293 0)
(0.625873 0.0669408 0)
(0.627418 0.0701834 0)
(0.629084 0.0733371 0)
(0.0996925 -0.00645867 0)
(0.102491 -0.0127907 0)
(0.106483 -0.0183137 0)
(0.111636 -0.0233342 0)
(0.117993 -0.0280082 0)
(0.125479 -0.0324615 0)
(0.134057 -0.0368284 0)
(0.143766 -0.0412356 0)
(0.154695 -0.0457814 0)
(0.166953 -0.0505171 0)
(0.180632 -0.0554323 0)
(0.195762 -0.0604527 0)
(0.212289 -0.0654518 0)
(0.230071 -0.0702737 0)
(0.248892 -0.0747593 0)
(0.268494 -0.0787683 0)
(0.288602 -0.0821931 0)
(0.308946 -0.0849646 0)
(0.329283 -0.0870505 0)
(0.349399 -0.0884503 0)
(0.369118 -0.0891879 0)
(0.388298 -0.0893047 0)
(0.406828 -0.0888535 0)
(0.424627 -0.0878925 0)
(0.441635 -0.0864822 0)
(0.457816 -0.084682 0)
(0.473148 -0.0825487 0)
(0.487623 -0.0801349 0)
(0.501241 -0.0774887 0)
(0.514015 -0.0746533 0)
(0.52596 -0.071667 0)
(0.537098 -0.0685636 0)
(0.547452 -0.0653723 0)
(0.557051 -0.0621187 0)
(0.565923 -0.0588243 0)
(0.574098 -0.0555079 0)
(0.581606 -0.0521852 0)
(0.588478 -0.0488693 0)
(0.594744 -0.0455713 0)
(0.600435 -0.0423003 0)
(0.60558 -0.0390637 0)
(0.610207 -0.0358674 0)
(0.614346 -0.032716 0)
(0.618024 -0.0296128 0)
(0.621268 -0.0265602 0)
(0.624104 -0.0235597 0)
(0.626558 -0.0206118 0)
(0.628654 -0.0177161 0)
(0.630416 -0.0148717 0)
(0.631869 -0.0120767 0)
(0.633035 -0.00932855 0)
(0.633936 -0.00662417 0)
(0.634596 -0.00395968 0)
(0.635034 -0.00133062 0)
(0.635278 0.00126869 0)
(0.635342 0.00384438 0)
(0.635248 0.00640386 0)
(0.635016 0.00895491 0)
(0.634667 0.0115054 0)
(0.634221 0.0140634 0)
(0.633697 0.016637 0)
(0.633114 0.0192344 0)
(0.632494 0.0218634 0)
(0.631855 0.0245318 0)
(0.631219 0.0272465 0)
(0.630604 0.0300136 0)
(0.630031 0.032838 0)
(0.629519 0.0357232 0)
(0.629087 0.0386709 0)
(0.628752 0.0416805 0)
(0.628531 0.044749 0)
(0.628437 0.0478709 0)
(0.628482 0.0510377 0)
(0.628675 0.0542383 0)
(0.629019 0.0574592 0)
(0.629516 0.0606843 0)
(0.630161 0.0638963 0)
(0.630945 0.067077 0)
(0.631853 0.0702084 0)
(0.632867 0.0732739 0)
(0.633961 0.076263 0)
(0.0995538 -0.00710943 0)
(0.102399 -0.0141514 0)
(0.106376 -0.0203293 0)
(0.111477 -0.0259678 0)
(0.1178 -0.0312441 0)
(0.125295 -0.0363064 0)
(0.133962 -0.0413191 0)
(0.143885 -0.0464403 0)
(0.155208 -0.0517902 0)
(0.168082 -0.0574213 0)
(0.18261 -0.0632995 0)
(0.198796 -0.0693056 0)
(0.216531 -0.0752578 0)
(0.235597 -0.0809479 0)
(0.255707 -0.0861766 0)
(0.276539 -0.0907801 0)
(0.297771 -0.0946428 0)
(0.319111 -0.0976995 0)
(0.3403 -0.0999299 0)
(0.361125 -0.10135 0)
(0.381417 -0.102 0)
(0.401044 -0.10194 0)
(0.41991 -0.101238 0)
(0.437947 -0.0999671 0)
(0.455112 -0.0981997 0)
(0.471379 -0.0960058 0)
(0.486739 -0.0934509 0)
(0.501194 -0.0905951 0)
(0.514757 -0.0874924 0)
(0.527444 -0.084191 0)
(0.539281 -0.080733 0)
(0.550292 -0.0771554 0)
(0.560509 -0.07349 0)
(0.569963 -0.0697642 0)
(0.578685 -0.0660013 0)
(0.586707 -0.0622211 0)
(0.594063 -0.0584401 0)
(0.600784 -0.0546724 0)
(0.606902 -0.0509292 0)
(0.612449 -0.0472201 0)
(0.617453 -0.0435526 0)
(0.621946 -0.0399326 0)
(0.625954 -0.0363648 0)
(0.629507 -0.0328525 0)
(0.63263 -0.0293981 0)
(0.635351 -0.0260027 0)
(0.637693 -0.0226668 0)
(0.639683 -0.0193901 0)
(0.641342 -0.0161714 0)
(0.642696 -0.0130089 0)
(0.643767 -0.00990007 0)
(0.644577 -0.00684187 0)
(0.645148 -0.00383071 0)
(0.6455 -0.000862519 0)
(0.64566 0.00206868 0)
(0.645643 0.00496916 0)
(0.645469 0.00784594 0)
(0.64516 0.010706 0)
(0.644735 0.0135564 0)
(0.644213 0.0164041 0)
(0.643613 0.0192558 0)
(0.642956 0.0221181 0)
(0.642259 0.0249973 0)
(0.641543 0.0278988 0)
(0.640824 0.0308276 0)
(0.640122 0.0337873 0)
(0.639454 0.0367808 0)
(0.638837 0.0398091 0)
(0.638285 0.042872 0)
(0.637814 0.0459673 0)
(0.637434 0.049091 0)
(0.637157 0.0522374 0)
(0.63699 0.0553988 0)
(0.636936 0.0585659 0)
(0.636998 0.061728 0)
(0.637174 0.0648734 0)
(0.637458 0.0679898 0)
(0.63784 0.0710652 0)
(0.63831 0.0740879 0)
(0.638851 0.077048 0)
(0.639446 0.0799408 0)
(0.0993988 -0.0077981 0)
(0.102312 -0.0155907 0)
(0.106297 -0.0224673 0)
(0.111371 -0.0287726 0)
(0.117692 -0.0347103 0)
(0.125253 -0.0404608 0)
(0.134099 -0.0462292 0)
(0.144381 -0.0522136 0)
(0.156306 -0.0585544 0)
(0.170059 -0.0652917 0)
(0.185728 -0.0723441 0)
(0.203259 -0.0795212 0)
(0.222451 -0.0865663 0)
(0.242989 -0.0932098 0)
(0.264502 -0.0992138 0)
(0.286609 -0.104399 0)
(0.308954 -0.108652 0)
(0.331229 -0.111923 0)
(0.353175 -0.114213 0)
(0.374592 -0.11556 0)
(0.395323 -0.116029 0)
(0.415257 -0.115698 0)
(0.434315 -0.114656 0)
(0.452448 -0.112989 0)
(0.469629 -0.110785 0)
(0.485848 -0.108122 0)
(0.501109 -0.105077 0)
(0.515425 -0.101716 0)
(0.528818 -0.0980987 0)
(0.541315 -0.0942775 0)
(0.552946 -0.0902984 0)
(0.563743 -0.0862011 0)
(0.57374 -0.0820194 0)
(0.582973 -0.0777825 0)
(0.591477 -0.0735147 0)
(0.599286 -0.0692368 0)
(0.606434 -0.0649658 0)
(0.612956 -0.0607161 0)
(0.618883 -0.0564994 0)
(0.624247 -0.0523251 0)
(0.62908 -0.0482008 0)
(0.633409 -0.0441323 0)
(0.637264 -0.0401242 0)
(0.640673 -0.0361798 0)
(0.643662 -0.0323009 0)
(0.646256 -0.0284889 0)
(0.648481 -0.0247441 0)
(0.650361 -0.0210658 0)
(0.651919 -0.0174529 0)
(0.653178 -0.0139036 0)
(0.65416 -0.0104155 0)
(0.654887 -0.00698566 0)
(0.655381 -0.00361066 0)
(0.655662 -0.000287151 0)
(0.655753 0.00299085 0)
(0.655671 0.00622992 0)
(0.655436 0.00943662 0)
(0.655068 0.012617 0)
(0.654586 0.0157772 0)
(0.654008 0.0189228 0)
(0.653353 0.0220595 0)
(0.65264 0.0251923 0)
(0.651885 0.0283259 0)
(0.651106 0.0314642 0)
(0.650321 0.0346102 0)
(0.649544 0.0377662 0)
(0.648792 0.0409332 0)
(0.648078 0.0441111 0)
(0.647415 0.0472985 0)
(0.646813 0.0504929 0)
(0.646282 0.0536902 0)
(0.645829 0.0568853 0)
(0.645458 0.0600718 0)
(0.645173 0.0632428 0)
(0.644972 0.0663902 0)
(0.644853 0.0695061 0)
(0.64481 0.0725821 0)
(0.644836 0.0756106 0)
(0.644921 0.0785844 0)
(0.645054 0.0814981 0)
(0.645222 0.0843505 0)
(0.0992244 -0.00853084 0)
(0.102228 -0.017121 0)
(0.106249 -0.0247464 0)
(0.111326 -0.031777 0)
(0.117693 -0.0384517 0)
(0.1254 -0.0449972 0)
(0.134558 -0.0516744 0)
(0.145402 -0.0587273 0)
(0.158201 -0.0663069 0)
(0.173151 -0.0744129 0)
(0.190285 -0.0828793 0)
(0.209441 -0.0914131 0)
(0.230292 -0.0996661 0)