/*--------------------------------*- C++ -*----------------------------------*\
  =========                 |
  \\      /  F ield         | OpenFOAM: The Open Source CFD Toolbox
   \\    /   O peration     | Website:  https://openfoam.org
    \\  /    A nd           | Version:  7
     \\/     M anipulation  |
\*---------------------------------------------------------------------------*/
FoamFile
{
    version     2.0;
    format      ascii;
    class       volVectorField;
    location    "3.82";
    object      U;
}
// * * * * * * * * * * * * * * * * * * * * * * * * * * * * * * * * * * * * * //

dimensions      [0 1 -1 0 0 0 0];

internalField   nonuniform List<vector> 
12013
(
(0.100477 -0.000134872 0)
(0.102471 -0.000255019 0)
(0.10576 -0.000366853 0)
(0.110036 -0.000468519 0)
(0.115189 -0.000561475 0)
(0.121104 -0.000646443 0)
(0.127675 -0.000723863 0)
(0.134804 -0.000794173 0)
(0.142404 -0.000857778 0)
(0.150396 -0.000915063 0)
(0.158707 -0.000966403 0)
(0.167271 -0.00101216 0)
(0.176031 -0.00105269 0)
(0.184934 -0.00108834 0)
(0.193933 -0.00111944 0)
(0.202986 -0.00114629 0)
(0.212056 -0.00116921 0)
(0.22111 -0.0011885 0)
(0.230119 -0.00120441 0)
(0.239058 -0.00121724 0)
(0.247907 -0.00122722 0)
(0.256645 -0.00123461 0)
(0.265258 -0.00123963 0)
(0.273732 -0.00124251 0)
(0.282056 -0.00124345 0)
(0.290222 -0.00124266 0)
(0.298223 -0.00124032 0)
(0.306054 -0.0012366 0)
(0.313711 -0.00123169 0)
(0.321192 -0.00122573 0)
(0.328497 -0.00121885 0)
(0.335626 -0.00121122 0)
(0.34258 -0.00120296 0)
(0.349361 -0.00119414 0)
(0.355973 -0.00118489 0)
(0.36242 -0.00117536 0)
(0.368704 -0.00116558 0)
(0.374833 -0.00115558 0)
(0.38081 -0.00114545 0)
(0.386641 -0.00113529 0)
(0.392332 -0.00112512 0)
(0.39789 -0.00111492 0)
(0.403321 -0.00110469 0)
(0.408631 -0.00109445 0)
(0.413827 -0.0010842 0)
(0.418916 -0.0010739 0)
(0.423903 -0.00106345 0)
(0.428796 -0.00105278 0)
(0.433601 -0.00104179 0)
(0.438325 -0.00103038 0)
(0.442973 -0.00101838 0)
(0.447551 -0.00100559 0)
(0.452066 -0.000991799 0)
(0.456522 -0.00097673 0)
(0.460925 -0.000960076 0)
(0.465278 -0.000941474 0)
(0.469586 -0.000920495 0)
(0.473853 -0.000896629 0)
(0.47808 -0.000869274 0)
(0.48227 -0.000837717 0)
(0.486424 -0.000801114 0)
(0.49054 -0.000758453 0)
(0.494618 -0.000708516 0)
(0.498652 -0.000649815 0)
(0.502637 -0.000580518 0)
(0.506564 -0.000498335 0)
(0.51042 -0.000400363 0)
(0.514185 -0.000282866 0)
(0.517836 -0.000140952 0)
(0.521338 3.1985e-05 0)
(0.524643 0.000245533 0)
(0.527685 0.000513672 0)
(0.530367 0.000857211 0)
(0.532546 0.00130867 0)
(0.534007 0.0019215 0)
(0.534412 0.00278827 0)
(0.533206 0.00407899 0)
(0.529414 0.00613186 0)
(0.521285 0.00974801 0)
(0.505779 0.0177589 0)
(0.489655 0.0489074 0)
(0.100445 -0.000412119 0)
(0.102434 -0.000781752 0)
(0.105715 -0.00112467 0)
(0.109986 -0.00143597 0)
(0.115134 -0.00172044 0)
(0.121045 -0.00198032 0)
(0.127612 -0.00221698 0)
(0.134737 -0.0024318 0)
(0.142334 -0.00262605 0)
(0.150322 -0.00280094 0)
(0.15863 -0.00295762 0)
(0.167191 -0.00309724 0)
(0.175948 -0.00322087 0)
(0.184848 -0.00332958 0)
(0.193844 -0.00342438 0)
(0.202894 -0.00350625 0)
(0.211961 -0.00357611 0)
(0.221012 -0.00363487 0)
(0.230018 -0.00368338 0)
(0.238954 -0.00372245 0)
(0.247799 -0.00375286 0)
(0.256534 -0.00377535 0)
(0.265143 -0.00379064 0)
(0.273613 -0.00379939 0)
(0.281933 -0.00380223 0)
(0.290095 -0.00379979 0)
(0.298091 -0.00379262 0)
(0.305916 -0.00378126 0)
(0.313567 -0.00376622 0)
(0.321043 -0.00374799 0)
(0.328341 -0.003727 0)
(0.335463 -0.00370365 0)
(0.342409 -0.00367833 0)
(0.349182 -0.0036514 0)
(0.355786 -0.00362317 0)
(0.362222 -0.0035939 0)
(0.368497 -0.00356385 0)
(0.374614 -0.00353326 0)
(0.380579 -0.00350231 0)
(0.386397 -0.00347113 0)
(0.392074 -0.00343979 0)
(0.397617 -0.00340837 0)
(0.403032 -0.00337693 0)
(0.408324 -0.00334546 0)
(0.413501 -0.00331386 0)
(0.418568 -0.00328198 0)
(0.423534 -0.00324964 0)
(0.428403 -0.00321661 0)
(0.433182 -0.00318261 0)
(0.437878 -0.00314724 0)
(0.442496 -0.00310999 0)
(0.447043 -0.00307028 0)
(0.451523 -0.00302744 0)
(0.455943 -0.00298065 0)
(0.460306 -0.00292898 0)
(0.464617 -0.0028713 0)
(0.468881 -0.00280629 0)
(0.4731 -0.00273239 0)
(0.477278 -0.00264778 0)
(0.481415 -0.00255028 0)
(0.485512 -0.00243734 0)
(0.48957 -0.0023059 0)
(0.493586 -0.00215225 0)
(0.497558 -0.0019719 0)
(0.501478 -0.0017593 0)
(0.505339 -0.00150757 0)
(0.509128 -0.00120797 0)
(0.51283 -0.000849323 0)
(0.516422 -0.000416992 0)
(0.519874 0.000108653 0)
(0.523143 0.000755242 0)
(0.526173 0.00156228 0)
(0.528888 0.00258771 0)
(0.531177 0.00391984 0)
(0.532889 0.00569877 0)
(0.533808 0.00815602 0)
(0.533632 0.0116899 0)
(0.531937 0.0170145 0)
(0.528184 0.0254833 0)
(0.522305 0.0397123 0)
(0.521839 0.0643971 0)
(0.100415 -0.000702321 0)
(0.102389 -0.00134281 0)
(0.105653 -0.00193358 0)
(0.109911 -0.00246966 0)
(0.115047 -0.0029594 0)
(0.120948 -0.00340671 0)
(0.127506 -0.00381402 0)
(0.134623 -0.00418369 0)
(0.142212 -0.00451795 0)
(0.150192 -0.00481887 0)
(0.158493 -0.00508845 0)
(0.167048 -0.00532865 0)
(0.175798 -0.00554136 0)
(0.184692 -0.00572838 0)
(0.193681 -0.00589146 0)
(0.202725 -0.00603228 0)
(0.211785 -0.00615245 0)
(0.220829 -0.00625351 0)
(0.229828 -0.00633691 0)
(0.238758 -0.00640407 0)
(0.247596 -0.00645632 0)
(0.256323 -0.00649494 0)
(0.264925 -0.00652113 0)
(0.273387 -0.00653607 0)
(0.281698 -0.00654083 0)
(0.28985 -0.00653646 0)
(0.297837 -0.00652394 0)
(0.305652 -0.00650418 0)
(0.313292 -0.00647807 0)
(0.320756 -0.00644642 0)
(0.328041 -0.00640998 0)
(0.33515 -0.00636944 0)
(0.342081 -0.00632549 0)
(0.348839 -0.0062787 0)
(0.355425 -0.00622961 0)
(0.361844 -0.00617868 0)
(0.368099 -0.00612637 0)
(0.374195 -0.00607306 0)
(0.380138 -0.00601902 0)
(0.385932 -0.00596447 0)
(0.391584 -0.0059096 0)
(0.397098 -0.00585457 0)
(0.402483 -0.00579939 0)
(0.407743 -0.00574398 0)
(0.412885 -0.00568819 0)
(0.417916 -0.0056318 0)
(0.422841 -0.00557454 0)
(0.427667 -0.00551599 0)
(0.432401 -0.00545559 0)
(0.437048 -0.00539262 0)
(0.441613 -0.00532626 0)
(0.446104 -0.00525551 0)
(0.450525 -0.00517921 0)
(0.45488 -0.00509597 0)
(0.459176 -0.00500415 0)
(0.463415 -0.00490183 0)
(0.467602 -0.00478675 0)
(0.471741 -0.00465626 0)
(0.475832 -0.00450726 0)
(0.47988 -0.0043361 0)
(0.483883 -0.00413847 0)
(0.487843 -0.00390921 0)
(0.491758 -0.00364215 0)
(0.495624 -0.00332979 0)
(0.499438 -0.00296298 0)
(0.503192 -0.00253039 0)
(0.506877 -0.00201782 0)
(0.510479 -0.00140718 0)
(0.513981 -0.000675075 0)
(0.517359 0.000209393 0)
(0.520584 0.00128837 0)
(0.523616 0.00262032 0)
(0.526409 0.0042881 0)
(0.528903 0.00641211 0)
(0.531032 0.00917165 0)
(0.532731 0.0128396 0)
(0.533969 0.0178376 0)
(0.534823 0.024823 0)
(0.535654 0.0348246 0)
(0.537564 0.0493547 0)
(0.544312 0.0696076 0)
(0.100388 -0.00100414 0)
(0.102341 -0.00193833 0)
(0.10558 -0.00279461 0)
(0.109817 -0.00357207 0)
(0.114936 -0.00428207 0)
(0.120821 -0.00493038 0)
(0.127365 -0.00552064 0)
(0.134469 -0.00605633 0)
(0.142046 -0.00654067 0)
(0.150015 -0.00697666 0)
(0.158305 -0.00736725 0)
(0.16685 -0.00771524 0)
(0.17559 -0.00802338 0)
(0.184474 -0.00829429 0)
(0.193454 -0.0085305 0)
(0.202489 -0.00873444 0)
(0.211539 -0.00890844 0)
(0.220574 -0.00905471 0)
(0.229564 -0.00917539 0)
(0.238484 -0.0092725 0)
(0.247312 -0.00934797 0)
(0.256028 -0.00940367 0)
(0.264619 -0.00944133 0)
(0.273069 -0.00946262 0)
(0.281368 -0.00946913 0)
(0.289507 -0.00946237 0)
(0.29748 -0.00944373 0)
(0.30528 -0.00941456 0)
(0.312905 -0.00937613 0)
(0.320352 -0.00932959 0)
(0.327619 -0.00927603 0)
(0.334708 -0.00921648 0)
(0.34162 -0.00915188 0)
(0.348355 -0.00908305 0)
(0.354918 -0.0090108 0)
(0.361311 -0.00893581 0)
(0.367539 -0.00885868 0)
(0.373606 -0.0087799 0)
(0.379517 -0.00869993 0)
(0.385278 -0.00861914 0)
(0.390894 -0.00853777 0)
(0.39637 -0.00845591 0)
(0.401713 -0.00837357 0)
(0.406929 -0.0082907 0)
(0.412024 -0.00820712 0)
(0.417005 -0.0081225 0)
(0.421876 -0.00803636 0)
(0.426645 -0.00794804 0)
(0.431317 -0.00785673 0)
(0.435899 -0.00776143 0)
(0.440395 -0.00766096 0)
(0.444811 -0.00755389 0)
(0.449153 -0.00743851 0)
(0.453426 -0.0073128 0)
(0.457633 -0.0071744 0)
(0.461779 -0.00702056 0)
(0.465868 -0.00684807 0)
(0.469903 -0.0066532 0)
(0.473886 -0.00643157 0)
(0.47782 -0.00617805 0)
(0.481706 -0.00588658 0)
(0.485545 -0.00555 0)
(0.489335 -0.00515976 0)
(0.493075 -0.00470561 0)
(0.496762 -0.00417512 0)
(0.500392 -0.00355306 0)
(0.503957 -0.00282058 0)
(0.507451 -0.00195403 0)
(0.510861 -0.000923343 0)
(0.514175 0.000310168 0)
(0.517377 0.00179722 0)
(0.520451 0.00360548 0)
(0.523384 0.00582614 0)
(0.526167 0.00858349 0)
(0.528811 0.0120478 0)
(0.531365 0.0164516 0)
(0.533957 0.0221069 0)
(0.536863 0.0294139 0)
(0.540617 0.0388355 0)
(0.546154 0.0507476 0)
(0.555064 0.0648275 0)
(0.100361 -0.0013188 0)
(0.102292 -0.00256908 0)
(0.1055 -0.00370954 0)
(0.109712 -0.00474611 0)
(0.114808 -0.00569242 0)
(0.120673 -0.00655626 0)
(0.127198 -0.00734265 0)
(0.134286 -0.00805625 0)
(0.141847 -0.00870139 0)
(0.149803 -0.00928209 0)
(0.158079 -0.00980227 0)
(0.166611 -0.0102657 0)
(0.175339 -0.010676 0)
(0.184211 -0.0110367 0)
(0.19318 -0.0113511 0)
(0.202202 -0.0116226 0)
(0.211242 -0.0118541 0)
(0.220265 -0.0120486 0)
(0.229243 -0.012209 0)
(0.238151 -0.012338 0)
(0.246966 -0.0124381 0)
(0.25567 -0.0125117 0)
(0.264247 -0.0125613 0)
(0.272683 -0.0125891 0)
(0.280967 -0.012597 0)
(0.28909 -0.0125872 0)
(0.297045 -0.0125615 0)
(0.304827 -0.0125217 0)
(0.312432 -0.0124694 0)
(0.319858 -0.0124063 0)
(0.327103 -0.0123337 0)
(0.334168 -0.0122529 0)
(0.341054 -0.0121653 0)
(0.347762 -0.0120719 0)
(0.354295 -0.0119738 0)
(0.360657 -0.0118718 0)
(0.366851 -0.0117668 0)
(0.372882 -0.0116594 0)
(0.378754 -0.0115503 0)
(0.384473 -0.0114397 0)
(0.390045 -0.011328 0)
(0.395474 -0.0112155 0)
(0.400766 -0.011102 0)
(0.405929 -0.0109876 0)
(0.410966 -0.0108718 0)
(0.415885 -0.0107544 0)
(0.420692 -0.0106344 0)
(0.425391 -0.0105112 0)
(0.42999 -0.0103836 0)
(0.434493 -0.0102504 0)
(0.438907 -0.0101099 0)
(0.443235 -0.00996019 0)
(0.447485 -0.00979904 0)
(0.451659 -0.00962378 0)
(0.455763 -0.00943135 0)
(0.459801 -0.00921817 0)
(0.463777 -0.0089801 0)
(0.467694 -0.0087123 0)
(0.471554 -0.00840918 0)
(0.475361 -0.00806417 0)
(0.479116 -0.00766962 0)
(0.48282 -0.00721655 0)
(0.486475 -0.00669435 0)
(0.490079 -0.0060904 0)
(0.493633 -0.00538964 0)
(0.497134 -0.00457387 0)
(0.500582 -0.00362096 0)
(0.503972 -0.00250368 0)
(0.507303 -0.00118832 0)
(0.510573 0.000366986 0)
(0.513781 0.00221455 0)
(0.516933 0.00442082 0)
(0.520045 0.00706994 0)
(0.523146 0.0102679 0)
(0.526297 0.0141459 0)
(0.529601 0.018861 0)
(0.533234 0.0245891 0)
(0.537473 0.0315002 0)
(0.542733 0.0396994 0)
(0.549572 0.0491008 0)
(0.558638 0.0591877 0)
(0.100336 -0.00164756 0)
(0.102245 -0.00323619 0)
(0.10542 -0.00468061 0)
(0.109602 -0.0059951 0)
(0.114671 -0.00719497 0)
(0.120513 -0.00828998 0)
(0.127016 -0.00928668 0)
(0.134084 -0.010191 0)
(0.141628 -0.0110085 0)
(0.149567 -0.0117443 0)
(0.157828 -0.0124033 0)
(0.166345 -0.0129904 0)
(0.17506 -0.0135101 0)
(0.183919 -0.0139669 0)
(0.192875 -0.0143651 0)
(0.201885 -0.0147087 0)
(0.210913 -0.0150016 0)
(0.219924 -0.0152477 0)
(0.228889 -0.0154504 0)
(0.237784 -0.0156131 0)
(0.246585 -0.0157393 0)
(0.255275 -0.0158318 0)
(0.263836 -0.0158938 0)
(0.272256 -0.0159279 0)
(0.280523 -0.0159369 0)
(0.288628 -0.0159233 0)
(0.296564 -0.0158894 0)
(0.304325 -0.0158374 0)
(0.311907 -0.0157695 0)
(0.319308 -0.0156877 0)
(0.326528 -0.0155936 0)
(0.333565 -0.0154891 0)
(0.34042 -0.0153757 0)
(0.347096 -0.0152548 0)
(0.353594 -0.0151276 0)
(0.359919 -0.0149953 0)
(0.366073 -0.0148588 0)
(0.372062 -0.0147191 0)
(0.377889 -0.0145767 0)
(0.38356 -0.0144322 0)
(0.38908 -0.014286 0)
(0.394454 -0.0141382 0)
(0.399688 -0.013989 0)
(0.404788 -0.013838 0)
(0.40976 -0.0136849 0)
(0.414609 -0.0135291 0)
(0.41934 -0.0133697 0)
(0.423961 -0.0132056 0)
(0.428476 -0.0130356 0)
(0.432891 -0.0128579 0)
(0.437211 -0.0126704 0)
(0.441442 -0.0124709 0)
(0.445587 -0.0122564 0)
(0.449653 -0.0120237 0)
(0.453644 -0.011769 0)
(0.457563 -0.011488 0)
(0.461416 -0.0111756 0)
(0.465204 -0.010826 0)
(0.468933 -0.0104324 0)
(0.472604 -0.00998701 0)
(0.476221 -0.00948082 0)
(0.479786 -0.00890336 0)
(0.4833 -0.00824239 0)
(0.486768 -0.00748362 0)
(0.490189 -0.00661021 0)
(0.493567 -0.00560221 0)
(0.496903 -0.00443594 0)
(0.500202 -0.00308308 0)
(0.503469 -0.00150965 0)
(0.506714 0.000324855 0)
(0.509947 0.00246794 0)
(0.513193 0.00497651 0)
(0.516485 0.00791748 0)
(0.519875 0.0113674 0)
(0.523442 0.0154098 0)
(0.527299 0.0201283 0)
(0.531604 0.0255925 0)
(0.536568 0.0318326 0)
(0.542451 0.0387985 0)
(0.549534 0.0463006 0)
(0.558042 0.0539402 0)
(0.10031 -0.00199171 0)
(0.102201 -0.0039413 0)
(0.105342 -0.00571061 0)
(0.109493 -0.00732293 0)
(0.114533 -0.00879484 0)
(0.120349 -0.0101379 0)
(0.126829 -0.0113602 0)
(0.133876 -0.0124691 0)
(0.141401 -0.0134715 0)
(0.149323 -0.0143736 0)
(0.157568 -0.0151815 0)
(0.166071 -0.0159011 0)
(0.174772 -0.016538 0)
(0.183619 -0.0170978 0)
(0.192562 -0.0175855 0)
(0.201561 -0.0180063 0)
(0.210576 -0.0183649 0)
(0.219575 -0.0186659 0)
(0.228528 -0.0189136 0)
(0.237409 -0.0191123 0)
(0.246197 -0.0192659 0)
(0.254872 -0.0193782 0)
(0.263418 -0.0194528 0)
(0.271821 -0.0194932 0)
(0.28007 -0.0195026 0)
(0.288155 -0.0194841 0)
(0.29607 -0.0194405 0)
(0.303808 -0.0193746 0)
(0.311366 -0.019289 0)
(0.31874 -0.0191859 0)
(0.32593 -0.0190678 0)
(0.332936 -0.0189365 0)
(0.339758 -0.018794 0)
(0.346397 -0.018642 0)
(0.352857 -0.018482 0)
(0.35914 -0.0183153 0)
(0.36525 -0.0181432 0)
(0.371191 -0.0179667 0)
(0.376967 -0.0177865 0)
(0.382584 -0.0176033 0)
(0.388046 -0.0174175 0)
(0.393358 -0.0172293 0)
(0.398527 -0.0170386 0)
(0.403558 -0.0168453 0)
(0.408455 -0.0166488 0)
(0.413226 -0.0164484 0)
(0.417875 -0.016243 0)
(0.422408 -0.0160314 0)
(0.426831 -0.0158117 0)
(0.431149 -0.015582 0)
(0.435368 -0.0153399 0)
(0.439491 -0.0150824 0)
(0.443525 -0.0148063 0)
(0.447475 -0.0145077 0)
(0.451344 -0.0141822 0)
(0.455137 -0.0138245 0)
(0.458859 -0.0134289 0)
(0.462513 -0.0129886 0)
(0.466104 -0.0124959 0)
(0.469636 -0.011942 0)
(0.473111 -0.0113169 0)
(0.476535 -0.0106091 0)
(0.479911 -0.00980537 0)
(0.483243 -0.0088904 0)
(0.486537 -0.00784669 0)
(0.489798 -0.00665398 0)
(0.493033 -0.00528889 0)
(0.496251 -0.0037244 0)
(0.499465 -0.00192943 0)
(0.502693 0.000131532 0)
(0.505955 0.00249683 0)
(0.509284 0.00520907 0)
(0.512723 0.00831409 0)
(0.516329 0.011858 0)
(0.520179 0.0158821 0)
(0.524368 0.0204155 0)
(0.529017 0.0254625 0)
(0.534259 0.0309869 0)
(0.540235 0.0368914 0)
(0.547064 0.0429983 0)
(0.554788 0.049041 0)
(0.100285 -0.00235286 0)
(0.102161 -0.00468663 0)
(0.105269 -0.00680299 0)
(0.109389 -0.00873422 0)
(0.114401 -0.0104979 0)
(0.12019 -0.0121071 0)
(0.126647 -0.0135715 0)
(0.133673 -0.0149001 0)
(0.14118 -0.0161008 0)
(0.149085 -0.0171813 0)
(0.157316 -0.0181489 0)
(0.165806 -0.0190107 0)
(0.174495 -0.0197733 0)
(0.18333 -0.0204433 0)
(0.192263 -0.021027 0)
(0.201252 -0.0215304 0)
(0.210256 -0.0219591 0)
(0.219245 -0.0223186 0)
(0.228187 -0.0226143 0)
(0.237057 -0.0228509 0)
(0.245832 -0.0230335 0)
(0.254494 -0.0231663 0)
(0.263025 -0.0232539 0)
(0.271412 -0.0233002 0)
(0.279642 -0.0233091 0)
(0.287708 -0.0232843 0)
(0.2956 -0.0232293 0)
(0.303315 -0.0231473 0)
(0.310846 -0.0230413 0)
(0.318192 -0.0229143 0)
(0.325351 -0.0227687 0)
(0.332323 -0.0226071 0)
(0.339108 -0.0224317 0)
(0.345709 -0.0222445 0)
(0.352126 -0.0220473 0)
(0.358363 -0.0218416 0)
(0.364424 -0.021629 0)
(0.370312 -0.0214105 0)
(0.376033 -0.0211872 0)
(0.381589 -0.0209596 0)
(0.386988 -0.0207283 0)
(0.392232 -0.0204935 0)
(0.397329 -0.0202551 0)
(0.402283 -0.0200128 0)
(0.407101 -0.0197661 0)
(0.411786 -0.019514 0)
(0.416345 -0.0192552 0)
(0.420784 -0.0189882 0)
(0.425108 -0.018711 0)
(0.429322 -0.0184211 0)
(0.433431 -0.0181158 0)
(0.437441 -0.0177919 0)
(0.441356 -0.0174453 0)
(0.445182 -0.0170718 0)
(0.448923 -0.0166662 0)
(0.452585 -0.0162228 0)
(0.456172 -0.0157351 0)
(0.459688 -0.0151956 0)
(0.463139 -0.014596 0)
(0.466529 -0.0139268 0)
(0.469863 -0.0131774 0)
(0.473146 -0.0123357 0)
(0.476386 -0.0113881 0)
(0.479587 -0.0103195 0)
(0.482758 -0.00911253 0)
(0.485908 -0.00774813 0)
(0.489048 -0.00620488 0)
(0.492191 -0.00445905 0)
(0.495356 -0.00248472 0)
(0.498562 -0.000253957 0)
(0.501839 0.00226109 0)
(0.505219 0.00508754 0)
(0.508746 0.0082513 0)
(0.512473 0.0117731 0)
(0.516462 0.015664 0)
(0.520784 0.0199192 0)
(0.525517 0.0245113 0)
(0.530735 0.0293817 0)
(0.536504 0.0344341 0)
(0.542857 0.0395317 0)
(0.549767 0.044507 0)
(0.100259 -0.00273288 0)
(0.102125 -0.00547502 0)
(0.105205 -0.00796199 0)
(0.109295 -0.0102345 0)
(0.114279 -0.012311 0)
(0.120043 -0.0142058 0)
(0.126479 -0.0159302 0)
(0.133487 -0.0174945 0)
(0.140977 -0.0189082 0)
(0.148869 -0.0201803 0)
(0.157088 -0.0213193 0)
(0.165568 -0.0223336 0)
(0.174248 -0.023231 0)
(0.183076 -0.0240193 0)
(0.192001 -0.0247058 0)
(0.200983 -0.0252975 0)
(0.20998 -0.0258011 0)
(0.218961 -0.0262231 0)
(0.227895 -0.0265696 0)
(0.236756 -0.0268464 0)
(0.245522 -0.0270592 0)
(0.254172 -0.0272133 0)
(0.262689 -0.0273138 0)
(0.271061 -0.0273654 0)
(0.279275 -0.0273727 0)
(0.287321 -0.0273401 0)
(0.295192 -0.0272715 0)
(0.302882 -0.0271707 0)
(0.310386 -0.0270414 0)
(0.317702 -0.0268868 0)
(0.324829 -0.02671 0)
(0.331765 -0.026514 0)
(0.338511 -0.0263011 0)
(0.345069 -0.0260739 0)
(0.35144 -0.0258344 0)
(0.357628 -0.0255844 0)
(0.363636 -0.0253256 0)
(0.369467 -0.0250593 0)
(0.375127 -0.0247865 0)
(0.380618 -0.0245081 0)
(0.385947 -0.0242246 0)
(0.391119 -0.0239361 0)
(0.396138 -0.0236428 0)
(0.401009 -0.0233441 0)
(0.405739 -0.0230393 0)
(0.410333 -0.0227274 0)
(0.414796 -0.0224069 0)
(0.419134 -0.0220759 0)
(0.423352 -0.0217323 0)
(0.427455 -0.0213733 0)
(0.431449 -0.0209957 0)
(0.435338 -0.0205959 0)
(0.439129 -0.0201695 0)
(0.442827 -0.0197116 0)
(0.446436 -0.0192167 0)
(0.449962 -0.0186787 0)
(0.453411 -0.0180903 0)
(0.456786 -0.0174439 0)
(0.460095 -0.0167307 0)
(0.463343 -0.0159408 0)
(0.466536 -0.0150635 0)
(0.469682 -0.0140868 0)
(0.472787 -0.0129975 0)
(0.475861 -0.0117812 0)
(0.478913 -0.0104221 0)
(0.481956 -0.00890327 0)
(0.485002 -0.00720646 0)
(0.488069 -0.0053126 0)
(0.491176 -0.00320206 0)
(0.494345 -0.000855336 0)
(0.497607 0.00174534 0)
(0.500992 0.00461344 0)
(0.504537 0.0077589 0)
(0.508285 0.0111845 0)
(0.512282 0.0148828 0)
(0.516574 0.0188325 0)
(0.521205 0.0229951 0)
(0.526212 0.0273121 0)
(0.531614 0.0317047 0)
(0.537407 0.0360762 0)
(0.543545 0.0403239 0)
(0.100231 -0.00313392 0)
(0.102093 -0.00630991 0)
(0.105149 -0.00919265 0)
(0.109213 -0.0118302 0)
(0.114173 -0.0142421 0)
(0.119916 -0.0164434 0)
(0.126334 -0.0184469 0)
(0.133327 -0.0202645 0)
(0.140806 -0.021907 0)
(0.148688 -0.0233848 0)
(0.1569 -0.024708 0)
(0.165374 -0.0258861 0)
(0.174051 -0.0269282 0)
(0.182875 -0.0278434 0)
(0.191799 -0.0286399 0)
(0.200777 -0.0293261 0)
(0.209773 -0.0299097 0)
(0.218751 -0.0303982 0)
(0.227681 -0.0307986 0)
(0.236537 -0.0311178 0)
(0.245295 -0.0313622 0)
(0.253936 -0.0315381 0)
(0.262444 -0.0316513 0)
(0.270802 -0.0317074 0)
(0.279 -0.0317115 0)
(0.287028 -0.0316688 0)
(0.294878 -0.0315839 0)
(0.302544 -0.0314613 0)
(0.310021 -0.0313049 0)
(0.317307 -0.0311187 0)
(0.324399 -0.0309063 0)
(0.331297 -0.0306708 0)
(0.338002 -0.0304153 0)
(0.344515 -0.0301424 0)
(0.350837 -0.0298546 0)
(0.356972 -0.0295541 0)
(0.362922 -0.0292425 0)
(0.368692 -0.0289214 0)
(0.374286 -0.0285921 0)
(0.379707 -0.0282554 0)
(0.384962 -0.0279119 0)
(0.390054 -0.027562 0)
(0.394989 -0.0272054 0)
(0.399772 -0.0268417 0)
(0.404409 -0.0264701 0)
(0.408905 -0.0260893 0)
(0.413266 -0.0256978 0)
(0.417496 -0.0252936 0)
(0.421602 -0.024874 0)
(0.425588 -0.0244361 0)
(0.429461 -0.0239763 0)
(0.433226 -0.0234907 0)
(0.436888 -0.0229747 0)
(0.440453 -0.0224229 0)
(0.443926 -0.0218295 0)
(0.447313 -0.0211881 0)
(0.450621 -0.0204913 0)
(0.453854 -0.0197311 0)
(0.457021 -0.0188986 0)
(0.460127 -0.0179843 0)
(0.46318 -0.0169776 0)
(0.466189 -0.0158671 0)
(0.469162 -0.0146408 0)
(0.47211 -0.0132858 0)
(0.475045 -0.0117883 0)
(0.477979 -0.0101345 0)
(0.480928 -0.0083101 0)
(0.483909 -0.00630109 0)
(0.486942 -0.0040943 0)
(0.490049 -0.00167808 0)
(0.493259 0.000957311 0)
(0.496594 0.00381481 0)
(0.500085 0.006893 0)
(0.503764 0.0101839 0)
(0.507661 0.0136708 0)
(0.511801 0.0173271 0)
(0.516207 0.0211144 0)
(0.520891 0.0249834 0)
(0.525851 0.0288745 0)
(0.531067 0.0327222 0)
(0.536494 0.036464 0)
(0.100202 -0.00355842 0)
(0.102065 -0.00719544 0)
(0.105104 -0.0105009 0)
(0.109147 -0.013529 0)
(0.114087 -0.0163005 0)
(0.119815 -0.0188308 0)
(0.12622 -0.0211342 0)
(0.133204 -0.0232239 0)
(0.140676 -0.0251123 0)
(0.148555 -0.0268114 0)
(0.156766 -0.0283325 0)
(0.165242 -0.0296865 0)
(0.173921 -0.030884 0)
(0.182749 -0.0319352 0)
(0.191676 -0.0328498 0)
(0.200659 -0.033637 0)
(0.209658 -0.034306 0)
(0.218638 -0.0348651 0)
(0.22757 -0.0353226 0)
(0.236425 -0.0356862 0)
(0.245181 -0.0359635 0)
(0.253817 -0.0361614 0)
(0.262317 -0.0362868 0)
(0.270665 -0.0363459 0)
(0.27885 -0.036345 0)
(0.286861 -0.0362896 0)
(0.294691 -0.0361851 0)
(0.302332 -0.0360366 0)
(0.309782 -0.0358489 0)
(0.317036 -0.0356262 0)
(0.324093 -0.0353727 0)
(0.330951 -0.0350921 0)
(0.337612 -0.0347877 0)
(0.344077 -0.0344626 0)
(0.350346 -0.0341197 0)
(0.356424 -0.0337612 0)
(0.362313 -0.0333892 0)
(0.368017 -0.0330055 0)
(0.37354 -0.0326115 0)
(0.378886 -0.032208 0)
(0.38406 -0.0317959 0)
(0.389068 -0.0313753 0)
(0.393913 -0.0309461 0)
(0.398602 -0.0305079 0)
(0.40314 -0.0300597 0)
(0.407532 -0.0296002 0)
(0.411784 -0.0291276 0)
(0.415901 -0.0286396 0)
(0.419889 -0.0281336 0)
(0.423753 -0.0276063 0)
(0.4275 -0.027054 0)
(0.431135 -0.0264724 0)
(0.434663 -0.0258566 0)
(0.438091 -0.0252013 0)
(0.441426 -0.0245005 0)
(0.444672 -0.0237474 0)
(0.447837 -0.0229348 0)
(0.450928 -0.0220548 0)
(0.453951 -0.0210989 0)
(0.456916 -0.0200578 0)
(0.459829 -0.0189219 0)
(0.462702 -0.0176809 0)
(0.465543 -0.0163242 0)
(0.468364 -0.0148409 0)
(0.471178 -0.0132201 0)
(0.473998 -0.0114511 0)
(0.476839 -0.0095236 0)
(0.47972 -0.00742862 0)
(0.482657 -0.0051587 0)
(0.485671 -0.00270864 0)
(0.488784 -7.55185e-05 0)
(0.492018 0.00273843 0)
(0.495392 0.00572404 0)
(0.498927 0.00886805 0)
(0.50264 0.012151 0)
(0.506546 0.0155467 0)
(0.510651 0.0190222 0)
(0.514954 0.0225388 0)
(0.519444 0.0260535 0)
(0.524098 0.0295225 0)
(0.528876 0.0329081 0)
(0.100171 -0.00400909 0)
(0.102041 -0.00813647 0)
(0.105069 -0.0118938 0)
(0.109097 -0.01534 0)
(0.114025 -0.018497 0)
(0.119743 -0.0213807 0)
(0.126143 -0.0240062 0)
(0.133125 -0.0263885 0)
(0.140599 -0.0285415 0)
(0.148483 -0.0304786 0)
(0.156701 -0.0322125 0)
(0.165186 -0.0337556 0)
(0.173876 -0.03512 0)
(0.182716 -0.0363172 0)
(0.191655 -0.0373581 0)
(0.200649 -0.0382534 0)
(0.209658 -0.0390133 0)
(0.218648 -0.0396474 0)
(0.227586 -0.040165 0)
(0.236447 -0.0405751 0)
(0.245205 -0.040886 0)
(0.253841 -0.0411059 0)
(0.262337 -0.0412425 0)
(0.270677 -0.0413029 0)
(0.278851 -0.0412941 0)
(0.286847 -0.0412227 0)
(0.294657 -0.0410946 0)
(0.302275 -0.0409156 0)
(0.309696 -0.0406912 0)
(0.316917 -0.0404262 0)
(0.323937 -0.0401253 0)
(0.330753 -0.0397927 0)
(0.337368 -0.0394323 0)
(0.34378 -0.0390474 0)
(0.349994 -0.0386412 0)
(0.35601 -0.0382165 0)
(0.361833 -0.0377755 0)
(0.367466 -0.0373201 0)
(0.372912 -0.0368519 0)
(0.378177 -0.036372 0)
(0.383266 -0.0358812 0)
(0.388182 -0.0353798 0)
(0.392932 -0.0348676 0)
(0.39752 -0.0343442 0)
(0.401952 -0.0338086 0)
(0.406234 -0.0332593 0)
(0.410371 -0.0326944 0)
(0.414369 -0.0321116 0)
(0.418234 -0.031508 0)
(0.421971 -0.0308802 0)
(0.425587 -0.0302244 0)
(0.429087 -0.0295362 0)
(0.432478 -0.0288106 0)
(0.435767 -0.0280422 0)
(0.438959 -0.027225 0)
(0.442062 -0.0263524 0)
(0.445083 -0.0254175 0)
(0.44803 -0.0244127 0)
(0.45091 -0.02333 0)
(0.453732 -0.0221612 0)
(0.456505 -0.0208976 0)
(0.45924 -0.0195304 0)
(0.461947 -0.0180509 0)
(0.464637 -0.0164505 0)
(0.467324 -0.0147208 0)
(0.470021 -0.0128544 0)
(0.472742 -0.0108449 0)
(0.475503 -0.00868738 0)
(0.47832 -0.00637897 0)
(0.481209 -0.00391921 0)
(0.484186 -0.00131027 0)
(0.487272 0.00144346 0)
(0.490474 0.0043294 0)
(0.493807 0.00733248 0)
(0.49728 0.0104338 0)
(0.500897 0.0136106 0)
(0.504658 0.0168364 0)
(0.508555 0.020082 0)
(0.512576 0.0233174 0)
(0.516697 0.0265133 0)
(0.520886 0.0296471 0)
(0.100137 -0.00448898 0)
(0.102021 -0.00913871 0)
(0.105047 -0.0133795 0)
(0.109067 -0.0172735 0)
(0.11399 -0.0208442 0)
(0.119708 -0.0241075 0)
(0.126111 -0.0270796 0)
(0.133101 -0.0297767 0)
(0.140586 -0.0322144 0)
(0.148484 -0.0344075 0)
(0.156719 -0.0363704 0)
(0.165223 -0.038117 0)
(0.173934 -0.0396606 0)
(0.182794 -0.0410143 0)
(0.191754 -0.0421906 0)
(0.200768 -0.0432012 0)
(0.209796 -0.0440577 0)
(0.218802 -0.0447711 0)
(0.227755 -0.0453519 0)
(0.236626 -0.04581 0)
(0.245392 -0.0461552 0)
(0.254032 -0.0463965 0)
(0.262527 -0.0465426 0)
(0.270863 -0.0466017 0)
(0.279027 -0.0465817 0)
(0.287009 -0.0464899 0)
(0.2948 -0.0463331 0)
(0.302394 -0.046118 0)
(0.309786 -0.0458505 0)
(0.316973 -0.0455363 0)
(0.323953 -0.0451806 0)
(0.330724 -0.044788 0)
(0.337288 -0.044363 0)
(0.343645 -0.0439095 0)
(0.349797 -0.0434309 0)
(0.355747 -0.0429302 0)
(0.361498 -0.04241 0)
(0.367054 -0.0418726 0)
(0.372419 -0.0413196 0)
(0.377596 -0.0407524 0)
(0.382592 -0.0401717 0)
(0.387411 -0.039578 0)
(0.392058 -0.0389712 0)
(0.396539 -0.0383507 0)
(0.400859 -0.0377157 0)
(0.405025 -0.0370646 0)
(0.409041 -0.0363954 0)
(0.412914 -0.0357057 0)
(0.41665 -0.0349926 0)
(0.420255 -0.0342527 0)
(0.423735 -0.0334822 0)
(0.427097 -0.0326765 0)
(0.430347 -0.0318308 0)
(0.433493 -0.0309398 0)
(0.43654 -0.0299977 0)
(0.439498 -0.0289984 0)
(0.442373 -0.0279352 0)
(0.445174 -0.0268013 0)
(0.447908 -0.0255895 0)
(0.450587 -0.0242928 0)
(0.453218 -0.0229037 0)
(0.455812 -0.0214151 0)
(0.45838 -0.0198201 0)
(0.460934 -0.0181124 0)
(0.463485 -0.0162863 0)
(0.466046 -0.0143372 0)
(0.468631 -0.0122619 0)
(0.471252 -0.0100586 0)
(0.473923 -0.00772771 0)
(0.476657 -0.00527186 0)
(0.479465 -0.00269609 0)
(0.48236 -6.83707e-06 0)
(0.485351 0.00278535 0)
(0.488442 0.00566451 0)
(0.491637 0.00861399 0)
(0.494936 0.0116151 0)
(0.498334 0.0146475 0)
(0.501822 0.0176899 0)
(0.505387 0.0207212 0)
(0.509011 0.0237219 0)
(0.512666 0.0266788 0)
(0.1001 -0.00500157 0)
(0.102005 -0.0102088 0)
(0.105037 -0.0149673 0)
(0.109058 -0.0193416 0)
(0.113985 -0.0233566 0)
(0.119713 -0.0270281 0)
(0.12613 -0.0303731 0)
(0.133138 -0.0334093 0)
(0.140646 -0.0361536 0)
(0.14857 -0.0386225 0)
(0.156834 -0.0408319 0)
(0.165369 -0.0427971 0)
(0.174111 -0.0445334 0)
(0.183003 -0.0460549 0)
(0.191994 -0.0473758 0)
(0.201037 -0.0485093 0)
(0.210093 -0.0494683 0)
(0.219124 -0.0502652 0)
(0.228098 -0.0509117 0)
(0.236986 -0.0514192 0)
(0.245765 -0.0517985 0)
(0.254413 -0.0520598 0)
(0.262911 -0.052213 0)
(0.271244 -0.0522674 0)
(0.279401 -0.0522316 0)
(0.287369 -0.0521141 0)
(0.29514 -0.0519226 0)
(0.302709 -0.0516643 0)
(0.31007 -0.0513462 0)
(0.317219 -0.0509745 0)
(0.324156 -0.0505551 0)
(0.330878 -0.0500932 0)
(0.337387 -0.0495938 0)
(0.343683 -0.0490613 0)
(0.349769 -0.0484994 0)
(0.355647 -0.0479116 0)
(0.36132 -0.0473009 0)
(0.366792 -0.0466696 0)
(0.372067 -0.0460198 0)
(0.377151 -0.0453528 0)
(0.382047 -0.0446697 0)
(0.386761 -0.043971 0)
(0.391299 -0.0432566 0)
(0.395666 -0.0425262 0)
(0.399867 -0.0417787 0)
(0.403909 -0.0410127 0)
(0.407798 -0.0402263 0)
(0.41154 -0.039417 0)
(0.415142 -0.0385819 0)
(0.418609 -0.0377178 0)
(0.421949 -0.0368208 0)
(0.425168 -0.0358865 0)
(0.428274 -0.0349104 0)
(0.431273 -0.0338875 0)
(0.434174 -0.0328123 0)
(0.436983 -0.0316791 0)
(0.43971 -0.0304822 0)
(0.442363 -0.0292154 0)
(0.44495 -0.0278727 0)
(0.447481 -0.0264481 0)
(0.449966 -0.0249356 0)
(0.452415 -0.0233297 0)
(0.454838 -0.0216255 0)
(0.457247 -0.0198186 0)
(0.459652 -0.0179056 0)
(0.462065 -0.0158843 0)
(0.464496 -0.0137536 0)
(0.466958 -0.0115142 0)
(0.46946 -0.00916851 0)
(0.472013 -0.00672074 0)
(0.474624 -0.00417717 0)
(0.4773 -0.00154551 0)
(0.480052 0.00116659 0)
(0.482875 0.00394459 0)
(0.485771 0.00677423 0)
(0.488738 0.00964068 0)
(0.49177 0.0125287 0)
(0.494859 0.0154229 0)
(0.497992 0.0183086 0)
(0.501155 0.0211728 0)
(0.504326 0.0240079 0)
(0.10006 -0.00555077 0)
(0.101993 -0.0113545 0)
(0.105042 -0.0166683 0)
(0.109072 -0.0215585 0)
(0.114014 -0.0260513 0)
(0.119763 -0.0301621 0)
(0.126208 -0.0339089 0)
(0.133247 -0.0373104 0)
(0.140791 -0.0403852 0)
(0.148754 -0.0431512 0)
(0.15706 -0.045626 0)
(0.165639 -0.0478265 0)
(0.174425 -0.0497694 0)
(0.18336 -0.0514707 0)
(0.192394 -0.0529459 0)
(0.201477 -0.0542099 0)
(0.21057 -0.0552771 0)
(0.219633 -0.0561613 0)
(0.228636 -0.0568758 0)
(0.237547 -0.0574332 0)
(0.246344 -0.0578457 0)
(0.255003 -0.0581248 0)
(0.263507 -0.0582816 0)
(0.27184 -0.0583264 0)
(0.279988 -0.0582692 0)
(0.287942 -0.0581192 0)
(0.295693 -0.0578853 0)
(0.303234 -0.0575755 0)
(0.31056 -0.0571976 0)
(0.317668 -0.0567586 0)
(0.324557 -0.0562651 0)
(0.331225 -0.0557229 0)
(0.337673 -0.0551377 0)
(0.343902 -0.0545141 0)
(0.349914 -0.0538567 0)
(0.355712 -0.0531691 0)
(0.3613 -0.0524547 0)
(0.366681 -0.0517163 0)
(0.37186 -0.0509559 0)
(0.376841 -0.0501754 0)
(0.38163 -0.049376 0)
(0.386231 -0.0485581 0)
(0.390652 -0.0477221 0)
(0.394897 -0.0468675 0)
(0.398972 -0.0459934 0)
(0.402885 -0.0450986 0)
(0.40664 -0.0441811 0)
(0.410245 -0.0432386 0)
(0.413706 -0.0422685 0)
(0.417031 -0.0412674 0)
(0.420225 -0.0402319 0)
(0.423297 -0.0391578 0)
(0.426254 -0.038041 0)
(0.429104 -0.0368768 0)
(0.431854 -0.0356605 0)
(0.434513 -0.0343869 0)
(0.437088 -0.033051 0)
(0.43959 -0.0316477 0)
(0.442026 -0.030172 0)
(0.444406 -0.028619 0)
(0.44674 -0.0269844 0)
(0.449038 -0.0252642 0)
(0.451309 -0.0234549 0)
(0.453563 -0.0215541 0)
(0.45581 -0.0195601 0)
(0.458061 -0.0174722 0)
(0.460324 -0.0152912 0)
(0.462609 -0.0130191 0)
(0.464923 -0.0106592 0)
(0.467274 -0.00821643 0)
(0.469667 -0.00569726 0)
(0.472107 -0.0031093 0)
(0.474596 -0.000460344 0)
(0.477139 0.00224146 0)
(0.479729 0.00498274 0)
(0.482364 0.00775188 0)
(0.485038 0.0105375 0)
(0.487744 0.0133286 0)
(0.490472 0.0161149 0)
(0.493211 0.0188874 0)
(0.495943 0.0216426 0)
(0.100014 -0.00614113 0)
(0.101984 -0.0125848 0)