/*--------------------------------*- C++ -*----------------------------------*\
  =========                 |
  \\      /  F ield         | OpenFOAM: The Open Source CFD Toolbox
   \\    /   O peration     | Website:  https://openfoam.org
    \\  /    A nd           | Version:  7
     \\/     M anipulation  |
\*---------------------------------------------------------------------------*/
FoamFile
{
    version     2.0;
    format      ascii;
    class       volVectorField;
    location    "5.49";
    object      U;
}
// * * * * * * * * * * * * * * * * * * * * * * * * * * * * * * * * * * * * * //

dimensions      [0 1 -1 0 0 0 0];

internalField   nonuniform List<vector> 
12013
(
(0.100702 -0.000191694 0)
(0.103504 -0.000343557 0)
(0.107893 -0.000480085 0)
(0.113467 -0.00060383 0)
(0.120108 -0.0007188 0)
(0.127705 -0.000827581 0)
(0.136164 -0.000931921 0)
(0.145415 -0.001033 0)
(0.155396 -0.00113139 0)
(0.166051 -0.00122711 0)
(0.177325 -0.00131969 0)
(0.189158 -0.00140823 0)
(0.201486 -0.0014916 0)
(0.214235 -0.00156849 0)
(0.227327 -0.00163761 0)
(0.240676 -0.00169782 0)
(0.254194 -0.00174817 0)
(0.267791 -0.00178801 0)
(0.281379 -0.00181699 0)
(0.294873 -0.00183506 0)
(0.308194 -0.00184243 0)
(0.32127 -0.00183956 0)
(0.334037 -0.00182706 0)
(0.34644 -0.00180571 0)
(0.358433 -0.00177635 0)
(0.369979 -0.00173988 0)
(0.381049 -0.00169723 0)
(0.391622 -0.00164927 0)
(0.401684 -0.00159689 0)
(0.411229 -0.00154091 0)
(0.420254 -0.0014821 0)
(0.428762 -0.00142115 0)
(0.436763 -0.00135873 0)
(0.444266 -0.0012954 0)
(0.451287 -0.00123167 0)
(0.457842 -0.00116801 0)
(0.46395 -0.00110483 0)
(0.469631 -0.00104245 0)
(0.474907 -0.000981169 0)
(0.4798 -0.000921235 0)
(0.484334 -0.00086287 0)
(0.48853 -0.000806231 0)
(0.492412 -0.000751432 0)
(0.496004 -0.000698563 0)
(0.499329 -0.000647687 0)
(0.502408 -0.00059883 0)
(0.505264 -0.000551977 0)
(0.507919 -0.000507076 0)
(0.510394 -0.000464047 0)
(0.512708 -0.000422779 0)
(0.514881 -0.000383124 0)
(0.516931 -0.000344891 0)
(0.518876 -0.000307843 0)
(0.520733 -0.000271697 0)
(0.522518 -0.000236118 0)
(0.524244 -0.000200713 0)
(0.525926 -0.000165018 0)
(0.527575 -0.000128492 0)
(0.529203 -9.04994e-05 0)
(0.530819 -5.02928e-05 0)
(0.53243 -6.97842e-06 0)
(0.534044 4.05079e-05 0)
(0.535663 9.34644e-05 0)
(0.537289 0.000153459 0)
(0.538921 0.000222404 0)
(0.540554 0.00030269 0)
(0.542178 0.000397337 0)
(0.543778 0.000510246 0)
(0.545332 0.000646562 0)
(0.546807 0.000813247 0)
(0.548156 0.00102 0)
(0.549313 0.0012808 0)
(0.550181 0.00161658 0)
(0.550617 0.00206004 0)
(0.550407 0.00266487 0)
(0.549209 0.00352394 0)
(0.546469 0.00480767 0)
(0.541207 0.00685475 0)
(0.531672 0.0104667 0)
(0.514816 0.0184783 0)
(0.497465 0.0497871 0)
(0.100644 -0.000584573 0)
(0.103433 -0.00105217 0)
(0.107804 -0.00147059 0)
(0.113363 -0.00184925 0)
(0.119992 -0.00220084 0)
(0.127578 -0.00253328 0)
(0.136028 -0.00285195 0)
(0.145272 -0.00316049 0)
(0.155248 -0.00346068 0)
(0.165899 -0.0037526 0)
(0.177172 -0.00403481 0)
(0.189007 -0.00430464 0)
(0.201338 -0.00455859 0)
(0.214093 -0.00479273 0)
(0.227193 -0.00500318 0)
(0.240553 -0.00518643 0)
(0.254083 -0.00533966 0)
(0.267693 -0.0054609 0)
(0.281295 -0.0055491 0)
(0.294804 -0.00560411 0)
(0.308141 -0.0056266 0)
(0.321232 -0.00561792 0)
(0.334014 -0.00558 0)
(0.346432 -0.00551513 0)
(0.358439 -0.00542591 0)
(0.369998 -0.00531503 0)
(0.381081 -0.00518528 0)
(0.391665 -0.00503939 0)
(0.401737 -0.00487997 0)
(0.41129 -0.00470955 0)
(0.420322 -0.00453043 0)
(0.428836 -0.00434476 0)
(0.436842 -0.00415449 0)
(0.444348 -0.00396138 0)
(0.451371 -0.003767 0)
(0.457927 -0.00357275 0)
(0.464034 -0.00337982 0)
(0.469714 -0.00318926 0)
(0.474987 -0.003002 0)
(0.479875 -0.0028188 0)
(0.484402 -0.00264027 0)
(0.488591 -0.0024669 0)
(0.492465 -0.00229909 0)
(0.496046 -0.00213713 0)
(0.499358 -0.00198119 0)
(0.502424 -0.00183133 0)
(0.505265 -0.0016875 0)
(0.507902 -0.00154957 0)
(0.510357 -0.0014173 0)
(0.51265 -0.00129035 0)
(0.514799 -0.00116825 0)
(0.516823 -0.00105042 0)
(0.518739 -0.000936125 0)
(0.520565 -0.000824508 0)
(0.522316 -0.000714546 0)
(0.524005 -0.000605033 0)
(0.525647 -0.000494552 0)
(0.527253 -0.000381441 0)
(0.528835 -0.000263755 0)
(0.530401 -0.000139215 0)
(0.531959 -5.1175e-06 0)
(0.533516 0.000141899 0)
(0.535076 0.000305651 0)
(0.53664 0.000490833 0)
(0.538207 0.000703234 0)
(0.539772 0.00095002 0)
(0.541329 0.00124022 0)
(0.542862 0.00158541 0)
(0.544352 0.00200077 0)
(0.54577 0.00250662 0)
(0.547077 0.00313096 0)
(0.548216 0.00391355 0)
(0.54911 0.00491269 0)
(0.54965 0.00621718 0)
(0.549681 0.00796763 0)
(0.548986 0.0103961 0)
(0.547262 0.0139013 0)
(0.544081 0.0191984 0)
(0.538897 0.0276422 0)
(0.531629 0.0418565 0)
(0.52985 0.0665871 0)
(0.100581 -0.000992091 0)
(0.103336 -0.00180413 0)
(0.107666 -0.00252536 0)
(0.113193 -0.00317774 0)
(0.119795 -0.0037834 0)
(0.127358 -0.00435598 0)
(0.135791 -0.00490484 0)
(0.145019 -0.00543628 0)
(0.154984 -0.00595342 0)
(0.16563 -0.00645641 0)
(0.176901 -0.00694277 0)
(0.188738 -0.00740792 0)
(0.201077 -0.00784579 0)
(0.213845 -0.00824961 0)
(0.226962 -0.00861264 0)
(0.240343 -0.00892883 0)
(0.253897 -0.0091933 0)
(0.267535 -0.00940263 0)
(0.281166 -0.009555 0)
(0.294706 -0.00965013 0)
(0.308074 -0.00968918 0)
(0.321196 -0.00967449 0)
(0.334009 -0.00960934 0)
(0.346456 -0.00949772 0)
(0.358491 -0.00934408 0)
(0.370076 -0.0091531 0)
(0.381183 -0.00892954 0)
(0.391789 -0.00867812 0)
(0.40188 -0.00840337 0)
(0.41145 -0.0081096 0)
(0.420497 -0.00780081 0)
(0.429024 -0.0074807 0)
(0.437038 -0.00715261 0)
(0.444552 -0.00681959 0)
(0.45158 -0.00648433 0)
(0.458137 -0.00614922 0)
(0.464244 -0.00581633 0)
(0.469921 -0.00548749 0)
(0.475188 -0.00516426 0)
(0.480069 -0.00484791 0)
(0.484586 -0.00453952 0)
(0.488762 -0.00423996 0)
(0.49262 -0.00394989 0)
(0.496183 -0.00366977 0)
(0.499474 -0.00339989 0)
(0.502515 -0.00314033 0)
(0.505329 -0.00289104 0)
(0.507936 -0.00265176 0)
(0.510357 -0.00242208 0)
(0.512612 -0.00220138 0)
(0.51472 -0.00198885 0)
(0.516699 -0.00178346 0)
(0.518566 -0.00158397 0)
(0.520339 -0.0013889 0)
(0.522031 -0.00119649 0)
(0.523658 -0.00100466 0)
(0.525232 -0.000810976 0)
(0.526765 -0.000612605 0)
(0.528269 -0.000406225 0)
(0.529752 -0.000187958 0)
(0.531223 4.68046e-05 0)
(0.532687 0.000303648 0)
(0.534149 0.000589002 0)
(0.535611 0.00091071 0)
(0.537073 0.00127836 0)
(0.538532 0.00170376 0)
(0.539982 0.00220163 0)
(0.541412 0.00279068 0)
(0.542808 0.00349505 0)
(0.544147 0.00434657 0)
(0.545402 0.00538811 0)
(0.546535 0.00667884 0)
(0.547497 0.00830238 0)
(0.54823 0.0103801 0)
(0.548665 0.0130924 0)
(0.548736 0.0167133 0)
(0.548409 0.0216663 0)
(0.547755 0.028611 0)
(0.54713 0.0385798 0)
(0.547626 0.0530939 0)
(0.553005 0.0733819 0)
(0.100516 -0.00141011 0)
(0.103223 -0.00259711 0)
(0.107495 -0.00364359 0)
(0.112974 -0.00459072 0)
(0.119535 -0.0054698 0)
(0.127065 -0.00630074 0)
(0.135469 -0.0070973 0)
(0.144676 -0.00786875 0)
(0.154626 -0.00861964 0)
(0.165263 -0.00935023 0)
(0.176534 -0.010057 0)
(0.188378 -0.0107331 0)
(0.200731 -0.0113698 0)
(0.213521 -0.0119573 0)
(0.226667 -0.0124855 0)
(0.240083 -0.0129457 0)
(0.253679 -0.0133308 0)
(0.267362 -0.0136357 0)
(0.281042 -0.0138577 0)
(0.294632 -0.0139964 0)
(0.308051 -0.0140535 0)
(0.321224 -0.0140325 0)
(0.334086 -0.013938 0)
(0.346581 -0.0137759 0)
(0.358661 -0.0135527 0)
(0.370288 -0.0132751 0)
(0.381432 -0.0129502 0)
(0.392073 -0.0125848 0)
(0.402195 -0.0121855 0)
(0.411792 -0.0117585 0)
(0.420862 -0.0113096 0)
(0.429408 -0.0108443 0)
(0.437437 -0.0103674 0)
(0.444962 -0.00988321 0)
(0.451997 -0.00939575 0)
(0.458559 -0.00890844 0)
(0.464666 -0.0084243 0)
(0.470339 -0.00794594 0)
(0.475599 -0.00747558 0)
(0.480469 -0.00701511 0)
(0.484971 -0.00656607 0)
(0.489129 -0.00612969 0)
(0.492965 -0.00570689 0)
(0.496503 -0.00529833 0)
(0.499765 -0.0049044 0)
(0.502773 -0.00452523 0)
(0.505549 -0.00416071 0)
(0.508115 -0.00381045 0)
(0.51049 -0.0034738 0)
(0.512695 -0.00314986 0)
(0.514748 -0.00283744 0)
(0.516667 -0.00253506 0)
(0.51847 -0.00224091 0)
(0.520172 -0.00195284 0)
(0.521788 -0.0016683 0)
(0.523333 -0.00138431 0)
(0.52482 -0.00109738 0)
(0.526261 -0.00080345 0)
(0.527666 -0.000497818 0)
(0.529045 -0.000174976 0)
(0.530405 0.000171597 0)
(0.531754 0.000549501 0)
(0.533097 0.000967785 0)
(0.534436 0.00143728 0)
(0.535774 0.00197102 0)
(0.537109 0.00258493 0)
(0.538439 0.0032986 0)
(0.539758 0.00413648 0)
(0.541057 0.00512953 0)
(0.542326 0.00631753 0)
(0.543551 0.00775238 0)
(0.544716 0.0095029 0)
(0.545807 0.0116616 0)
(0.546815 0.014354 0)
(0.54775 0.0177522 0)
(0.548658 0.0220906 0)
(0.549665 0.0276837 0)
(0.551042 0.0349348 0)
(0.553318 0.0443113 0)
(0.557418 0.0561965 0)
(0.564931 0.070287 0)
(0.10045 -0.00183859 0)
(0.103105 -0.00342966 0)
(0.107305 -0.00482512 0)
(0.112723 -0.00608965 0)
(0.119231 -0.0072632 0)
(0.126716 -0.00837238 0)
(0.135085 -0.00943584 0)
(0.144266 -0.0104661 0)
(0.154198 -0.0114693 0)
(0.164827 -0.0124458 0)
(0.1761 -0.0133909 0)
(0.187958 -0.0142957 0)
(0.200337 -0.0151481 0)
(0.213163 -0.0159349 0)
(0.226356 -0.0166427 0)
(0.239827 -0.0172595 0)
(0.253486 -0.0177758 0)
(0.267239 -0.0181846 0)
(0.280992 -0.0184825 0)
(0.294658 -0.0186688 0)
(0.308153 -0.0187457 0)
(0.321401 -0.0187178 0)
(0.334337 -0.0185916 0)
(0.346901 -0.0183748 0)
(0.359047 -0.0180761 0)
(0.370735 -0.0177048 0)
(0.381935 -0.01727 0)
(0.392625 -0.0167811 0)
(0.402792 -0.0162467 0)
(0.412427 -0.0156754 0)
(0.421528 -0.0150749 0)
(0.430101 -0.0144523 0)
(0.438152 -0.0138142 0)
(0.445692 -0.0131664 0)
(0.452737 -0.0125141 0)
(0.459304 -0.0118619 0)
(0.465411 -0.0112139 0)
(0.471079 -0.0105734 0)
(0.476329 -0.0099435 0)
(0.481185 -0.00932662 0)
(0.485668 -0.00872478 0)
(0.489802 -0.00813959 0)
(0.493611 -0.00757226 0)
(0.497116 -0.00702364 0)
(0.50034 -0.00649425 0)
(0.503306 -0.00598421 0)
(0.506036 -0.00549332 0)
(0.50855 -0.00502103 0)
(0.510868 -0.00456648 0)
(0.513011 -0.00412842 0)
(0.514996 -0.00370528 0)
(0.516843 -0.00329507 0)
(0.518567 -0.00289537 0)
(0.520184 -0.00250334 0)
(0.521711 -0.0021156 0)
(0.52316 -0.00172825 0)
(0.524545 -0.00133673 0)
(0.525878 -0.000935792 0)
(0.527169 -0.000519347 0)
(0.528429 -8.03326e-05 0)
(0.529665 0.00038955 0)
(0.530886 0.000899828 0)
(0.532097 0.00146183 0)
(0.533303 0.00208893 0)
(0.534509 0.00279705 0)
(0.535716 0.00360531 0)
(0.536926 0.00453678 0)
(0.538138 0.00561964 0)
(0.539353 0.00688859 0)
(0.540571 0.00838677 0)
(0.541792 0.0101682 0)
(0.543024 0.0123009 0)
(0.54428 0.0148707 0)
(0.545591 0.0179854 0)
(0.547015 0.0217782 0)
(0.548654 0.0264086 0)
(0.55068 0.0320549 0)
(0.553367 0.0388906 0)
(0.557125 0.0470247 0)
(0.562506 0.0563774 0)
(0.570156 0.0664421 0)
(0.100383 -0.00227806 0)
(0.102987 -0.00430108 0)
(0.107109 -0.00607047 0)
(0.112454 -0.00767651 0)
(0.118901 -0.00916747 0)
(0.126335 -0.0105768 0)
(0.134663 -0.0119284 0)
(0.143813 -0.0132383 0)
(0.153728 -0.0145146 0)
(0.164353 -0.015758 0)
(0.175637 -0.0169622 0)
(0.18752 -0.0181157 0)
(0.19994 -0.0192033 0)
(0.212823 -0.0202078 0)
(0.226086 -0.0211118 0)
(0.239641 -0.0219001 0)
(0.253393 -0.02256 0)
(0.267246 -0.0230827 0)
(0.281106 -0.0234637 0)
(0.29488 -0.023702 0)
(0.308484 -0.0238005 0)
(0.321839 -0.0237652 0)
(0.334878 -0.0236043 0)
(0.347539 -0.0233278 0)
(0.359776 -0.0229468 0)
(0.371547 -0.0224731 0)
(0.382823 -0.0219186 0)
(0.393581 -0.021295 0)
(0.403806 -0.0206137 0)
(0.413492 -0.0198853 0)
(0.422636 -0.0191196 0)
(0.431243 -0.018326 0)
(0.439321 -0.0175125 0)
(0.446881 -0.0166867 0)
(0.453939 -0.0158552 0)
(0.460511 -0.0150237 0)
(0.466618 -0.0141974 0)
(0.472279 -0.0133806 0)
(0.477516 -0.012577 0)
(0.482353 -0.0117897 0)
(0.486811 -0.0110212 0)
(0.490915 -0.0102737 0)
(0.494688 -0.00954846 0)
(0.498152 -0.00884666 0)
(0.50133 -0.00816882 0)
(0.504244 -0.00751509 0)
(0.506916 -0.00688517 0)
(0.509367 -0.00627835 0)
(0.511617 -0.00569349 0)
(0.513686 -0.00512903 0)
(0.515591 -0.00458291 0)
(0.517352 -0.00405264 0)
(0.518985 -0.00353516 0)
(0.520505 -0.00302692 0)
(0.521928 -0.00252372 0)
(0.523269 -0.00202073 0)
(0.524539 -0.00151238 0)
(0.525751 -0.000992239 0)
(0.526917 -0.000452937 0)
(0.528046 0.000114005 0)
(0.529148 0.000718345 0)
(0.530233 0.00137131 0)
(0.531306 0.00208606 0)
(0.532376 0.00287791 0)
(0.533448 0.00376479 0)
(0.534528 0.00476773 0)
(0.535623 0.0059116 0)
(0.536738 0.00722585 0)
(0.537881 0.00874556 0)
(0.539063 0.0105125 0)
(0.540298 0.0125766 0)
(0.541608 0.0149967 0)
(0.543029 0.0178417 0)
(0.544611 0.0211902 0)
(0.546431 0.025128 0)
(0.5486 0.0297412 0)
(0.551275 0.035102 0)
(0.554661 0.0412439 0)
(0.559016 0.0481203 0)
(0.564618 0.0555461 0)
(0.571691 0.0631287 0)
(0.100316 -0.00272956 0)
(0.102874 -0.00521165 0)
(0.106915 -0.00738101 0)
(0.112184 -0.00935412 0)
(0.118563 -0.0111874 0)
(0.125941 -0.0129208 0)
(0.134225 -0.0145842 0)
(0.143347 -0.0161974 0)
(0.153248 -0.0177706 0)
(0.163877 -0.0193045 0)
(0.175183 -0.0207917 0)
(0.187111 -0.0222177 0)
(0.199595 -0.0235635 0)
(0.212562 -0.0248072 0)
(0.225929 -0.0259274 0)
(0.239604 -0.0269045 0)
(0.25349 -0.0277226 0)
(0.267486 -0.0283709 0)
(0.281494 -0.0288432 0)
(0.295419 -0.0291387 0)
(0.309173 -0.0292608 0)
(0.322673 -0.0292169 0)
(0.33585 -0.0290175 0)
(0.348643 -0.0286749 0)
(0.361 -0.0282031 0)
(0.372882 -0.0276166 0)
(0.384256 -0.0269305 0)
(0.395101 -0.0261591 0)
(0.405403 -0.0253165 0)
(0.415153 -0.0244158 0)
(0.424351 -0.0234695 0)
(0.433001 -0.0224886 0)
(0.441112 -0.0214835 0)
(0.448695 -0.0204632 0)
(0.455766 -0.0194357 0)
(0.462344 -0.0184084 0)
(0.468447 -0.0173873 0)
(0.474097 -0.0163778 0)
(0.479317 -0.0153843 0)
(0.484128 -0.0144107 0)
(0.488555 -0.0134601 0)
(0.49262 -0.0125347 0)
(0.496347 -0.0116365 0)
(0.49976 -0.0107666 0)
(0.50288 -0.00992557 0)
(0.505731 -0.00911368 0)
(0.508334 -0.00833047 0)
(0.51071 -0.00757505 0)
(0.512879 -0.00684598 0)
(0.51486 -0.00614131 0)
(0.516673 -0.00545853 0)
(0.518335 -0.0047946 0)
(0.519863 -0.00414584 0)
(0.521273 -0.00350799 0)
(0.52258 -0.00287607 0)
(0.523798 -0.00224434 0)
(0.524941 -0.00160625 0)
(0.526022 -0.000954327 0)
(0.527052 -0.000280114 0)
(0.528041 0.000426058 0)
(0.529002 0.00117502 0)
(0.529943 0.00197935 0)
(0.530874 0.00285346 0)
(0.531805 0.00381382 0)
(0.532743 0.00487928 0)
(0.533699 0.00607144 0)
(0.534683 0.00741505 0)
(0.535707 0.00893848 0)
(0.536785 0.0106741 0)
(0.537936 0.0126586 0)
(0.539183 0.0149331 0)
(0.540559 0.0175429 0)
(0.542106 0.0205359 0)
(0.543881 0.0239604 0)
(0.545959 0.0278603 0)
(0.548435 0.0322669 0)
(0.551425 0.0371873 0)
(0.555062 0.0425882 0)
(0.559482 0.0483756 0)
(0.564802 0.0543751 0)
(0.571066 0.0603239 0)
(0.100247 -0.00319474 0)
(0.102769 -0.00616266 0)
(0.106732 -0.00875924 0)
(0.111921 -0.0111264 0)
(0.118231 -0.0133288 0)
(0.125553 -0.0154128 0)
(0.133796 -0.0174143 0)
(0.142892 -0.0193573 0)
(0.152788 -0.0212544 0)
(0.163435 -0.0231066 0)
(0.174784 -0.0249048 0)
(0.186781 -0.0266314 0)
(0.199362 -0.0282626 0)
(0.212454 -0.0297716 0)
(0.225969 -0.0311316 0)
(0.239813 -0.0323183 0)
(0.253884 -0.0333121 0)
(0.268077 -0.0340993 0)
(0.282287 -0.0346725 0)
(0.296416 -0.0350305 0)
(0.310369 -0.0351777 0)
(0.324063 -0.0351232 0)
(0.337422 -0.0348799 0)
(0.350385 -0.0344629 0)
(0.362897 -0.0338895 0)
(0.374919 -0.0331775 0)
(0.386418 -0.0323451 0)
(0.397373 -0.0314098 0)
(0.407767 -0.0303888 0)
(0.417596 -0.0292981 0)
(0.426858 -0.0281524 0)
(0.435559 -0.0269655 0)
(0.443707 -0.0257494 0)
(0.451315 -0.0245153 0)
(0.4584 -0.0232728 0)
(0.464981 -0.0220304 0)
(0.471077 -0.0207956 0)
(0.476711 -0.0195747 0)
(0.481905 -0.018373 0)
(0.486682 -0.0171949 0)
(0.491067 -0.0160442 0)
(0.495083 -0.0149236 0)
(0.498754 -0.0138351 0)
(0.502103 -0.0127801 0)
(0.505153 -0.0117594 0)
(0.507927 -0.0107731 0)
(0.510447 -0.00982058 0)
(0.512733 -0.00890078 0)
(0.514806 -0.00801193 0)
(0.516686 -0.0071517 0)
(0.518392 -0.00631712 0)
(0.51994 -0.0055046 0)
(0.521349 -0.00470988 0)
(0.522635 -0.00392798 0)
(0.523812 -0.00315317 0)
(0.524896 -0.00237891 0)
(0.5259 -0.00159777 0)
(0.526837 -0.000801404 0)
(0.52772 1.93945e-05 0)
(0.528561 0.000875122 0)
(0.529373 0.00177746 0)
(0.530165 0.00273979 0)
(0.530949 0.0037771 0)
(0.531738 0.00490613 0)
(0.532541 0.00614556 0)
(0.533373 0.00751616 0)
(0.534246 0.00904094 0)
(0.535178 0.0107452 0)
(0.536187 0.0126563 0)
(0.537297 0.0148036 0)
(0.538535 0.0172176 0)
(0.539938 0.0199286 0)
(0.541547 0.022965 0)
(0.543414 0.0263498 0)
(0.545602 0.0300965 0)
(0.548179 0.0342028 0)
(0.551221 0.0386439 0)
(0.5548 0.0433639 0)
(0.55898 0.0482693 0)
(0.563791 0.0532262 0)
(0.569208 0.0580694 0)
(0.100175 -0.0036759 0)
(0.102671 -0.0071565 0)
(0.106563 -0.0102089 0)
(0.111676 -0.0129987 0)
(0.11792 -0.0155991 0)
(0.125188 -0.0180628 0)
(0.133395 -0.0204317 0)
(0.142476 -0.0227348 0)
(0.152381 -0.0249872 0)
(0.163066 -0.0271902 0)
(0.174485 -0.0293328 0)
(0.186588 -0.0313936 0)
(0.199312 -0.0333433 0)
(0.212579 -0.035149 0)
(0.226302 -0.0367773 0)
(0.24038 -0.0381986 0)
(0.254703 -0.0393885 0)
(0.269161 -0.0403301 0)
(0.283641 -0.0410146 0)
(0.298037 -0.0414405 0)
(0.31225 -0.0416134 0)
(0.326192 -0.0415444 0)
(0.339783 -0.0412494 0)
(0.352959 -0.040747 0)
(0.365665 -0.040058 0)
(0.37786 -0.0392041 0)
(0.38951 -0.0382071 0)
(0.400595 -0.0370883 0)
(0.411101 -0.0358682 0)
(0.421021 -0.0345657 0)
(0.430356 -0.0331987 0)
(0.439112 -0.0317832 0)
(0.447299 -0.0303337 0)
(0.454933 -0.0288633 0)
(0.462029 -0.0273833 0)
(0.468607 -0.0259038 0)
(0.47469 -0.0244334 0)
(0.480298 -0.0229796 0)
(0.485457 -0.0215485 0)
(0.49019 -0.0201453 0)
(0.494521 -0.0187742 0)
(0.498474 -0.0174383 0)
(0.502075 -0.0161401 0)
(0.505346 -0.0148811 0)
(0.508311 -0.0136621 0)
(0.510993 -0.012483 0)
(0.513414 -0.0113432 0)
(0.515595 -0.0102414 0)
(0.517556 -0.00917549 0)
(0.519319 -0.00814275 0)
(0.520901 -0.00713977 0)
(0.52232 -0.00616242 0)
(0.523595 -0.00520585 0)
(0.524741 -0.00426446 0)
(0.525774 -0.00333183 0)
(0.526709 -0.00240073 0)
(0.527561 -0.00146305 0)
(0.528343 -0.000509897 0)
(0.52907 0.000468592 0)
(0.529754 0.00148309 0)
(0.530407 0.00254593 0)
(0.531043 0.00367072 0)
(0.531675 0.00487232 0)
(0.532316 0.00616688 0)
(0.53298 0.00757194 0)
(0.533682 0.00910629 0)
(0.534438 0.01079 0)
(0.535268 0.0126438 0)
(0.536193 0.0146893 0)
(0.537238 0.0169476 0)
(0.538431 0.0194387 0)
(0.539806 0.0221797 0)
(0.541399 0.0251833 0)
(0.543252 0.0284547 0)
(0.545411 0.0319891 0)
(0.547919 0.0357675 0)
(0.55082 0.039754 0)
(0.554147 0.0438929 0)
(0.557919 0.0481077 0)
(0.56213 0.0523043 0)
(0.566735 0.0563817 0)
(0.100099 -0.00417574 0)
(0.102581 -0.0081966 0)
(0.106413 -0.0117349 0)
(0.111454 -0.0149778 0)
(0.117637 -0.0180076 0)
(0.12486 -0.020883 0)
(0.133041 -0.0236526 0)
(0.142121 -0.0263505 0)
(0.152056 -0.0289948 0)
(0.162809 -0.0315875 0)
(0.174339 -0.034115 0)
(0.186598 -0.0365512 0)
(0.199524 -0.0388599 0)
(0.213039 -0.0410006 0)
(0.227047 -0.0429321 0)
(0.24144 -0.0446176 0)
(0.256101 -0.0460273 0)
(0.270907 -0.0471408 0)
(0.285736 -0.0479472 0)
(0.300475 -0.0484454 0)
(0.315017 -0.0486423 0)
(0.329267 -0.0485521 0)
(0.343144 -0.0481939 0)
(0.356579 -0.0475907 0)
(0.369517 -0.0467677 0)
(0.381916 -0.0457508 0)
(0.393743 -0.0445663 0)
(0.404977 -0.0432396 0)
(0.415607 -0.0417948 0)
(0.425627 -0.0402546 0)
(0.43504 -0.0386398 0)
(0.443853 -0.0369691 0)
(0.452079 -0.0352597 0)
(0.459733 -0.0335267 0)
(0.466833 -0.0317832 0)
(0.473401 -0.0300409 0)
(0.479459 -0.0283099 0)
(0.485031 -0.0265985 0)
(0.490142 -0.0249139 0)
(0.494815 -0.023262 0)
(0.499078 -0.0216475 0)
(0.502953 -0.020074 0)
(0.506467 -0.0185441 0)
(0.509644 -0.0170596 0)
(0.512507 -0.0156212 0)
(0.515079 -0.0142289 0)
(0.517384 -0.0128819 0)
(0.519442 -0.0115785 0)
(0.521275 -0.0103165 0)
(0.522902 -0.00909267 0)
(0.524344 -0.00790318 0)
(0.525618 -0.00674341 0)
(0.526742 -0.00560799 0)
(0.527733 -0.00449074 0)
(0.528608 -0.00338471 0)
(0.529381 -0.0022821 0)
(0.530068 -0.00117435 0)
(0.530682 -5.25359e-05 0)
(0.531241 0.00109355 0)
(0.531757 0.0022749 0)
(0.532244 0.00350388 0)
(0.532716 0.00479371 0)
(0.533187 0.00615846 0)
(0.533673 0.00761303 0)
(0.534188 0.009173 0)
(0.534749 0.0108545 0)
(0.535375 0.0126738 0)
(0.536085 0.0146469 0)
(0.536901 0.0167893 0)
(0.537846 0.0191145 0)
(0.538947 0.0216335 0)
(0.540231 0.0243536 0)
(0.541728 0.0272764 0)
(0.543468 0.0303967 0)
(0.545481 0.0337004 0)
(0.547791 0.0371633 0)
(0.550419 0.0407496 0)
(0.553376 0.0444126 0)
(0.556657 0.048095 0)
(0.560243 0.0517336 0)
(0.564087 0.0552674 0)
(0.100018 -0.00469742 0)
(0.102499 -0.00928748 0)
(0.106282 -0.0133438 0)
(0.111261 -0.0170725 0)
(0.117392 -0.0205658 0)
(0.124581 -0.0238887 0)
(0.132752 -0.0270966 0)
(0.141852 -0.0302299 0)
(0.151848 -0.0333101 0)
(0.16271 -0.0363397 0)
(0.174405 -0.039302 0)
(0.186889 -0.0421646 0)
(0.200099 -0.0448827 0)
(0.213953 -0.0474055 0)
(0.228347 -0.0496821 0)
(0.24316 -0.0516668 0)
(0.25826 -0.0533233 0)
(0.273512 -0.0546268 0)
(0.288783 -0.0555649 0)
(0.303948 -0.056137 0)
(0.318892 -0.0563524 0)
(0.333514 -0.056229 0)
(0.347729 -0.0557907 0)
(0.361466 -0.0550654 0)
(0.37467 -0.0540836 0)
(0.387299 -0.0528766 0)
(0.399321 -0.0514757 0)
(0.410718 -0.0499107 0)
(0.421479 -0.0482103 0)
(0.431602 -0.0464009 0)
(0.441092 -0.0445067 0)
(0.449957 -0.0425496 0)
(0.458213 -0.0405492 0)
(0.465878 -0.038523 0)
(0.47297 -0.036486 0)
(0.479515 -0.0344516 0)
(0.485534 -0.0324311 0)
(0.491053 -0.0304341 0)
(0.496099 -0.0284687 0)
(0.500697 -0.0265415 0)
(0.504872 -0.0246577 0)
(0.508652 -0.0228213 0)
(0.512061 -0.0210352 0)
(0.515124 -0.0193012 0)
(0.517866 -0.0176201 0)
(0.520311 -0.0159919 0)
(0.522481 -0.0144155 0)
(0.524398 -0.0128892 0)
(0.526084 -0.0114101 0)
(0.527559 -0.00997498 0)
(0.528843 -0.0085794 0)
(0.529955 -0.00721836 0)
(0.530912 -0.00588602 0)
(0.531733 -0.00457578 0)
(0.532434 -0.00328025 0)
(0.533032 -0.00199129 0)
(0.53354 -0.000700356 0)
(0.533977 0.00060183 0)
(0.534357 0.00192489 0)
(0.534694 0.00328019 0)
(0.535004 0.00467964 0)
(0.535302 0.00613562 0)
(0.535602 0.00766091 0)
(0.53592 0.00926865 0)
(0.536274 0.0109721 0)
(0.53668 0.0127842 0)
(0.537155 0.0147176 0)
(0.53772 0.0167837 0)
(0.538394 0.0189923 0)
(0.539199 0.0213509 0)
(0.540157 0.0238641 0)
(0.541288 0.0265321 0)
(0.542615 0.0293505 0)
(0.544158 0.0323089 0)
(0.545933 0.0353904 0)
(0.547953 0.0385715 0)
(0.550224 0.0418217 0)
(0.552742 0.0451048 0)
(0.555497 0.0483804 0)
(0.558464 0.0516066 0)
(0.561602 0.0547472 0)
(0.0999297 -0.00524442 0)
(0.102424 -0.0104348 0)
(0.106172 -0.0150436 0)
(0.1111 -0.0192937 0)
(0.117192 -0.0232881 0)
(0.124364 -0.0270986 0)
(0.132545 -0.0307886 0)
(0.141697 -0.0344056 0)
(0.151796 -0.0379753 0)
(0.162825 -0.0415005 0)
(0.17476 -0.0449604 0)
(0.187561 -0.0483136 0)
(0.201164 -0.0515036 0)
(0.215476 -0.0544663 0)
(0.230379 -0.0571377 0)
(0.245736 -0.0594615 0)
(0.261395 -0.0613932 0)
(0.277205 -0.0629039 0)
(0.293017 -0.0639799 0)
(0.308692 -0.0646221 0)
(0.324109 -0.0648438 0)
(0.339162 -0.0646679 0)
(0.35376 -0.0641243 0)
(0.367835 -0.0632475 0)
(0.381329 -0.0620744 0)
(0.394203 -0.0606424 0)
(0.406428 -0.0589886 0)
(0.417989 -0.0571482 0)
(0.428878 -0.0551546 0)
(0.439097 -0.0530385 0)
(0.448652 -0.0508278 0)
(0.457556 -0.0485476 0)
(0.465827 -0.0462203 0)
(0.473485 -0.0438657 0)
(0.480552 -0.041501 0)
(0.487053 -0.0391411 0)
(0.493014 -0.0367988 0)
(0.498461 -0.0344847 0)
(0.503421 -0.0322079 0)
(0.507922 -0.0299756 0)
(0.511991 -0.0277936 0)
(0.515654 -0.0256662 0)
(0.518938 -0.0235967 0)
(0.521868 -0.0215868 0)
(0.52447 -0.0196374 0)
(0.526767 -0.0177484 0)
(0.528783 -0.0159185 0)
(0.530541 -0.0141457 0)
(0.532062 -0.0124271 0)
(0.533368 -0.0107588 0)
(0.534478 -0.00913616 0)
(0.535412 -0.00755383 0)
(0.536188 -0.00600562 0)
(0.536824 -0.00448456 0)
(0.537338 -0.002983 0)
(0.537746 -0.0014927 0)
(0.538065 -5.66672e-06 0)
(0.538313 0.00148741 0)
(0.538503 0.00299639 0)
(0.538651 0.00453219 0)
(0.538774 0.00610584 0)
(0.538886 0.0077285 0)
(0.539003 0.00941142 0)
(0.539142 0.0111657 0)
(0.539318 0.0130022 0)
(0.539549 0.0149309 0)
(0.539851 0.0169609 0)
(0.540243 0.0190996 0)
(0.540741 0.0213527 0)
(0.541364 0.0237233 0)
(0.542129 0.0262115 0)
(0.543051 0.0288139 0)
(0.544146 0.0315231 0)
(0.545425 0.0343274 0)
(0.546896 0.0372108 0)
(0.548564 0.0401532 0)
(0.550425 0.0431306 0)
(0.552473 0.0461166 0)
(0.554693 0.0490833 0)
(0.557061 0.0520037 0)
(0.559545 0.0548567 0)
(0.0998328 -0.00582068 0)
(0.102354 -0.0116454 0)
(0.106085 -0.016844 0)
(0.110975 -0.0216547 0)
(0.117044 -0.0261922 0)
(0.12422 -0.0305365 0)
(0.132443 -0.0347604 0)
(0.141687 -0.0389199 0)
(0.151949 -0.0430463 0)
(0.163225 -0.0471418 0)
(0.175503 -0.0511791 0)
(0.188745 -0.0551041 0)
(0.202879 -0.0588436 0)
(0.217798 -0.0623153 0)
(0.233361 -0.0654388 0)
(0.249404 -0.0681441 0)
(0.265754 -0.0703784 0)
(0.282236 -0.0721085 0)
(0.298684 -0.0733211 0)
(0.314949 -0.0740205 0)
(0.3309 -0.0742258 0)
(0.346426 -0.0739672 0)
(0.361438 -0.0732826 0)
(0.375866 -0.0722145 0)
(0.389657 -0.0708074 0)
(0.402775 -0.0691063 0)
(0.415195 -0.0671546 0)
(0.426906 -0.0649938 0)
(0.437906 -0.0626623 0)
(0.448199 -0.0601955 0)
(0.457797 -0.0576251 0)
(0.466716 -0.0549798 0)
(0.474977 -0.0522847 0)
(0.482603 -0.0495622 0)
(0.489618 -0.0468313 0)
(0.496051 -0.0441087 0)
(0.501928 -0.0414085 0)
(0.507278 -0.0387425 0)
(0.512129 -0.0361206 0)
(0.51651 -0.0335506 0)
(0.520449 -0.0310387 0)
(0.523974 -0.0285898 0)
(0.527112 -0.0262071 0)
(0.529889 -0.0238925 0)
(0.53233 -0.021647 0)
(0.534462 -0.0194702 0)
(0.536306 -0.0173608 0)
(0.537888 -0.0153165 0)
(0.539228 -0.0133341 0)
(0.540349 -0.0114094 0)
(0.54127 -0.00953765 0)
(0.542012 -0.00771309 0)
(0.542594 -0.00592928 0)
(0.543034 -0.00417908 0)
(0.543349 -0.0024547 0)
(0.543557 -0.000748647 0)
(0.54368 0.000947678 0)
(0.543727 0.00264258 0)
(0.543718 0.00434632 0)
(0.543668 0.00606896 0)
(0.543593 0.00782046 0)
(0.543509 0.00961063 0)
(0.543431 0.0114491 0)
(0.543375 0.0133449 0)
(0.543357 0.0153066 0)
(0.543393 0.0173416 0)
(0.543498 0.0194561 0)
(0.543688 0.0216547 0)
(0.543977 0.02394 0)
(0.54438 0.0263123 0)
(0.544909 0.0287694 0)
(0.545577 0.0313063 0)
(0.546391 0.0339151 0)
(0.547358 0.0365849 0)
(0.54848 0.0393023 0)
(0.549758 0.0420512 0)
(0.551185 0.0448142 0)
(0.552751 0.0475724 0)
(0.554443 0.0503073 0)
(0.556241 0.0530015 0)
(0.558119 0.0556433 0)
(0.099725 -0.00643061 0)
(0.102289 -0.0129276 0)
(0.10602 -0.0187571 0)
(0.11089 -0.0241722 0)
(0.116957 -0.0293006 0)
(0.124166 -0.0342328 0)
(0.13247 -0.0390534 0)
(0.141867 -0.0438296 0)
(0.152374 -0.0485987 0)
(0.164007 -0.0533611 0)
(0.176766 -0.0580782 0)
(0.19061 -0.062677 0)
(0.205451 -0.0670601 0)
(0.221154 -0.071121 0)
(0.237545 -0.0747578 0)
(0.254428 -0.0778855 0)
(0.271599 -0.0804427 0)
(0.288859 -0.0823938 0)
(0.306025 -0.0837286 0)
(0.322937 -0.0844579 0)
(0.339458 -0.0846097 0)
(0.355477 -0.084224 0)
(0.370906 -0.0833491 0)
(0.385679 -0.0820372 0)
(0.39975 -0.0803423 0)
(0.413087 -0.0783175 0)
(0.425673 -0.0760139 0)
(0.437501 -0.0734793 0)
(0.448576 -0.0707579 0)
(0.458908 -0.0678898 0)
(0.468512 -0.0649109 0)
(0.47741 -0.0618533 0)
(0.485625 -0.0587451 0)
(0.493184 -0.0556108 0)
(0.500115 -0.0524716 0)
(0.506447 -0.0493458 0)
(0.51221 -0.0462486 0)
(0.517434 -0.043193 0)
(0.522149 -0.0401895 0)
(0.526385 -0.0372466 0)
(0.530171 -0.0343711 0)
(0.533535 -0.0315677 0)
(0.536505 -0.0288401 0)
(0.539109 -0.0261903 0)
(0.541373 -0.023619 0)
(0.543321 -0.0211258 0)
(0.544979 -0.0187093 0)
(0.546369 -0.0163669 0)
(0.547515 -0.0140953 0)
(0.548438 -0.0118901 0)
(0.549159 -0.00974615 0)
(0.549699 -0.00765767 0)
(0.550078 -0.00561804 0)
(0.550313 -0.00362009 0)
(0.550422 -0.00165627 0)
(0.550426 0.000280671 0)
(0.550342 0.00219863 0)
(0.550183 0.00410673 0)
(0.549968 0.00601446 0)
(0.549713 0.00793085 0)
(0.549433 0.00986467 0)
(0.549143 0.0118244 0)
(0.548859 0.0138181 0)
(0.548596 0.0158532 0)
(0.548369 0.0179361 0)
(0.548191 0.0200722 0)
(0.548078 0.0222657 0)
(0.548041 0.0245191 0)
(0.548093 0.0268332 0)
(0.548245 0.0292069 0)
(0.548506 0.0316372 0)
(0.548884 0.034119 0)
(0.549384 0.0366452 0)
(0.550009 0.0392068 0)
(0.550757 0.0417934 0)
(0.551627 0.044393 0)
(0.552612 0.0469934 0)
(0.553701 0.0495817 0)
(0.554883 0.0521457 0)
(0.556143 0.0546748 0)
(0.55746 0.0571628 0)
(0.0996042 -0.00707931 0)
(0.102229 -0.0142915 0)
(0.105981 -0.0207978 0)
(0.110851 -0.0268668 0)
(0.116942 -0.0326419 0)
(0.124222 -0.0382274 0)
(0.132665 -0.0437237 0)
(0.142296 -0.0492123 0)
(0.153163 -0.0547369 0)
(0.165305 -0.060292 0)
(0.178727 -0.0658199 0)
(0.193375 -0.0712178 0)
(0.20913 -0.0763544 0)
(0.225815 -0.0810907 0)
(0.24321 -0.0852998 0)
(0.261079 -0.0888807 0)
(0.279184 -0.0917658 0)
(0.297301 -0.0939214 0)
(0.315235 -0.0953443 0)
(0.332816 -0.0960566 0)
(0.349908 -0.0960988 0)
(0.366402 -0.0955243 0)
(0.382218 -0.0943939 0)
(0.397297 -0.092772 0)
(0.411599 -0.0907229 0)
(0.425104 -0.0883094 0)
(0.437802 -0.0855904 0)
(0.449693 -0.0826209 0)
(0.460789 -0.0794508 0)
(0.471106 -0.076125 0)
(0.480666 -0.0726838 0)
(0.489493 -0.0691624 0)
(0.497617 -0.0655918 0)
(0.505066 -0.0619988 0)
(0.511872 -0.0584064 0)
(0.518066 -0.0548342 0)
(0.52368 -0.0512987 0)
(0.528746 -0.0478137 0)
(0.533296 -0.0443905 0)
(0.537359 -0.0410379 0)
(0.540967 -0.0377631 0)
(0.544149 -0.0345712 0)
(0.546932 -0.0314656 0)
(0.549346 -0.0284485 0)
(0.551415 -0.0255206 0)
(0.553166 -0.0226814 0)
(0.554625 -0.0199292 0)
(0.555813 -0.0172614 0)
(0.556756 -0.0146744 0)
(0.557474 -0.0121637 0)
(0.557989 -0.00972418 0)
(0.558322 -0.00734972 0)
(0.558492 -0.00503374 0)
(0.558518 -0.00276915 0)
(0.558418 -0.000549921 0)
(0.558217 0.00163272 0)
(0.557925 0.00378603 0)
(0.557558 0.00591927 0)
(0.557135 0.00804088 0)
(0.556671 0.0101589 0)
(0.556181 0.012281 0)
(0.55568 0.0144146 0)
(0.555183 0.0165662 0)
(0.554703 0.0187417 0)
(0.554255 0.0209463 0)
(0.55385 0.0231839 0)
(0.553502 0.0254571 0)
(0.55322 0.0277674 0)
(0.553015 0.0301149 0)
(0.552895 0.032498 0)
(0.552867 0.0349139 0)
(0.552935 0.0373581 0)
(0.553102 0.0398251 0)
(0.553369 0.0423081 0)
(0.553735 0.0447994 0)
(0.554195 0.0472909 0)
(0.554744 0.0497743 0)
(0.555372 0.0522411 0)
(0.55607 0.0546838 0)
(0.556826 0.0570958 0)
(0.557625 0.0594749 0)
(0.0994677 -0.00777271 0)
(0.102173 -0.0157492 0)
(0.10597 -0.0229844 0)
(0.110864 -0.0297649 0)
(0.117014 -0.0362536 0)