/*--------------------------------*- C++ -*----------------------------------*\
  =========                 |
  \\      /  F ield         | OpenFOAM: The Open Source CFD Toolbox
   \\    /   O peration     | Website:  https://openfoam.org
    \\  /    A nd           | Version:  7
     \\/     M anipulation  |
\*---------------------------------------------------------------------------*/
FoamFile
{
    version     2.0;
    format      ascii;
    class       volScalarField;
    location    "3.1";
    object      p;
}
// * * * * * * * * * * * * * * * * * * * * * * * * * * * * * * * * * * * * * //

dimensions      [0 2 -2 0 0 0 0];

internalField   nonuniform List<scalar> 
2790
(
147.612
147.519
147.786
148.357
149.137
150.095
151.227
152.534
154.01
155.651
157.451
159.402
161.495
163.72
166.061
168.496
171
173.539
176.071
178.545
180.903
183.08
185.011
186.631
187.891
188.765
189.201
189.256
189.307
189.52
147.409
147.426
147.719
148.287
149.063
150.017
151.145
152.446
153.915
155.548
157.338
159.279
161.361
163.575
165.905
168.33
170.826
173.359
175.889
178.367
180.735
182.93
184.884
186.533
187.817
188.692
189.088
189.143
189.275
189.56
147.21
147.298
147.609
148.167
148.93
149.872
150.985
152.267
153.715
155.323
157.085
158.994
161.042
163.218
165.506
167.888
170.34
172.83
175.322
177.769
180.119
182.311
184.284
185.973
187.324
188.3
188.893
189.248
189.564
189.862
146.985
147.103
147.427
147.977
148.725
149.65
150.744
152.002
153.421
154.996
156.719
158.585
160.583
162.704
164.932
167.25
169.634
172.057
174.484
176.874
179.181
181.353
183.334
185.074
186.528
187.68
188.548
189.219
189.772
190.291
146.724
146.857
147.189
147.731
148.463
149.367
150.435
151.662
153.044
154.575
156.249
158.058
159.994
162.045
164.196
166.432
168.73
171.065
173.406
175.719
177.964
180.099
182.081
183.871
185.442
186.784
187.914
188.877
189.688
190.435
146.423
146.562
146.896
147.428
148.14
149.018
150.054
151.243
152.581
154.061
155.676
157.418
159.279
161.247
163.308
165.446
167.641
169.87
172.107
174.322
176.484
178.561
180.523
182.344
184.007
185.508
186.854
188.06
189.08
189.998
146.081
146.22
146.551
147.07
147.76
148.607
149.607
150.752
152.038
153.458
155.005
156.671
158.446
160.318
162.275
164.301
166.377
168.483
170.595
172.691
174.746
176.737
178.644
180.454
182.16
183.761
185.254
186.633
187.798
188.845
145.696
145.833
146.158
146.66
147.323
148.137
149.095
150.19
151.418
152.771
154.242
155.821
157.5
159.266
161.106
163.005
164.946
166.91
168.878
170.829
172.746
174.614
176.42
178.162
179.841
181.459
183.014
184.486
185.736
186.887
145.27
145.403
145.717
146.2
146.834
147.61
148.522
149.562
150.726
152.005
153.391
154.876
156.448
158.096
159.807
161.565
163.355
165.158
166.957
168.736
170.479
172.177
173.824
175.424
176.986
178.52
180.029
181.499
182.77
184.008
144.803
144.931
145.232
145.692
146.295
147.03
147.891
148.872
149.966
151.164
152.459
153.841
155.298
156.818
158.387
159.991
161.613
163.235
164.841
166.414
167.942
169.416
170.834
172.202
173.534
174.852
176.172
177.51
178.71
180.014
144.298
144.42
144.705
145.141
145.709
146.399
147.206
148.123
149.142
150.255
151.452
152.724
154.057
155.44
156.857
158.293
159.731
161.152
162.538
163.873
165.141
166.33
167.437
168.465
169.428
170.356
171.286
172.284
173.246
174.564
143.756
143.87
144.139
144.547
145.078
145.722
146.472
147.321
148.261
149.283
150.378
151.532
152.735
153.973
155.228
156.484
157.723
158.924
160.066
161.128
162.089
162.931
163.639
164.204
164.63
164.939
165.181
165.488
165.869
167.042
143.179
143.286
143.535
143.915
144.407
145.001
145.691
146.47
147.327
148.255
149.242
150.275
151.342
152.426
153.512
154.578
155.605
156.569
157.445
158.204
158.816
159.251
159.472
159.447
159.143
158.544
157.668
156.674
155.724
156.228
142.569
142.668
142.898
143.248
143.699
144.242
144.87
145.575
146.347
147.177
148.053
148.961
149.887
150.813
151.722
152.591
153.397
154.111
154.702
155.134
155.364
155.341
155.003
154.27
153.047
151.216
148.651
145.347
141.395
139.355
141.93
142.02
142.23
142.548
142.957
143.447
144.011
144.641
145.326
146.056
146.818
147.598
148.38
149.146
149.874
150.541
151.119
151.575
151.871
151.962
151.789
151.279
150.334
148.819
146.54
143.206
138.361
131.34
120.869
108.631
2.27471
2.24579
2.14873
2.01314
1.86733
1.7244
1.58855
1.46077
1.3409
1.2282
1.12177
1.02091
0.925342
0.83508
0.750199
0.670767
0.597418
0.532295
0.478724
0.438803
0.411663
0.391315
0.372483
0.353398
0.329994
0.298346
0.256437
0.202062
0.134603
0.0557208
2.20184
2.16863
2.078
1.95349
1.81881
1.68535
1.55728
1.43581
1.32094
1.21208
1.1085
1.00971
0.915673
0.826628
0.742666
0.66359
0.589755
0.523661
0.469979
0.432506
0.408557
0.391316
0.373844
0.35635
0.334231
0.303828
0.261858
0.206631
0.137161
0.0537257
2.12703
2.08768
2.00095
1.88623
1.76276
1.63937
1.51982
1.40545
1.29633
1.19196
1.09174
0.995401
0.903197
0.815697
0.73311
0.654905
0.580954
0.514241
0.46106
0.425438
0.402351
0.383992
0.36998
0.355932
0.336774
0.307708
0.266724
0.212345
0.142711
0.0538068
2.06159
2.01613
1.93163
1.82441
1.7104
1.59581
1.48396
1.37613
1.27243
1.17238
1.07546
0.981544
0.891138
0.805196
0.724225
0.647442
0.573442
0.50423
0.448904
0.418588
0.404216
0.390983
0.37702
0.363272
0.344757
0.313872
0.268977
0.212375
0.141357
0.052516
2.02665
1.97516
1.89282
1.79021
1.6821
1.57284
1.46562
1.36172
1.26127
1.16386
1.069
0.976632
0.88733
0.802178
0.722034
0.646786
0.576145
0.512067
0.458372
0.420976
0.400888
0.389915
0.379823
0.367727
0.349156
0.318087
0.273262
0.214787
0.141026
0.0506132
2.03874
1.97931
1.89801
1.79503
1.68698
1.57753
1.47012
1.3661
1.26568
1.16851
1.07414
0.982432
0.893812
0.809085
0.728966
0.65379
0.584059
0.522771
0.473605
0.436743
0.413757
0.39839
0.385805
0.37177
0.350824
0.317414
0.270019
0.209763
0.134975
0.0462229
2.10552
2.0368
1.94831
1.83856
1.72293
1.60697
1.49406
1.38557
1.28166
1.18196
1.08605
0.993748
0.905291
0.821158
0.741791
0.667472
0.598905
0.53789
0.487824
0.450549
0.425196
0.406827
0.391143
0.373841
0.349767
0.314153
0.265037
0.202609
0.126834
0.0422812
2.22361
2.13852
2.03212
1.90635
1.77607
1.64781
1.52501
1.409
1.2997
1.19639
1.09832
1.00506
0.916554
0.832967
0.754517
0.681379
0.614074
0.554297
0.504441
0.46587
0.437471
0.415502
0.395936
0.374565
0.346772
0.308402
0.257082
0.192554
0.116781
0.0383524
2.36695
2.25538
2.1212
1.97263
1.82466
1.68312
1.55024
1.42649
1.3119
1.20541
1.10581
1.01227
0.924381
0.841946
0.7648
0.693027
0.627303
0.568999
0.519755
0.480292
0.449396
0.424002
0.400439
0.374825
0.343166
0.301786
0.247961
0.181205
0.106083
0.0344457
2.49271
2.348
2.19013
2.01949
1.8532
1.69869
1.55804
1.43037
1.31377
1.20651
1.107
1.01425
0.92779
0.847272
0.772246
0.702479
0.638466
0.581466
0.532824
0.492878
0.460234
0.432009
0.404758
0.375025
0.339497
0.294958
0.238431
0.169414
0.0953481
0.0306347
2.58268
2.40471
2.21912
2.03097
1.85342
1.69174
1.54689
1.41769
1.3017
1.19623
1.09893
1.00855
0.9248
0.847381
0.7755
0.708434
0.646418
0.590776
0.54295
0.503157
0.469719
0.439543
0.409199
0.37565
0.336315
0.288488
0.229092
0.157864
0.0849322
0.0269681
2.60321
2.39332
2.18198
1.97999
1.80008
1.64241
1.50376
1.38096
1.27149
1.17229
1.08026
0.994146
0.914521
0.841621
0.774182
0.710601
0.650773
0.596442
0.549679
0.510857
0.477813
0.446797
0.414103
0.377072
0.333946
0.282692
0.220345
0.147018
0.0750683
0.0234688
2.47349
2.22199
2.01731
1.83665
1.68013
1.54517
1.42608
1.31867
1.22235
1.13471
1.05135
0.971093
0.896649
0.829775
0.768429
0.709271
0.651619
0.598235
0.552662
0.515802
0.484662
0.454167
0.419943
0.37969
0.332661
0.277774
0.212426
0.137088
0.0660212
0.0202119
2.07943
1.79884
1.67726
1.58424
1.48737
1.39964
1.31699
1.2337
1.1562
1.08576
1.01453
0.940566
0.871239
0.811901
0.758974
0.705455
0.649541
0.596082
0.551499
0.51782
0.490581
0.462293
0.427366
0.383943
0.332637
0.273761
0.205411
0.128268
0.0579058
0.017217
1.25228
0.954884
1.09399
1.23084
1.2317
1.21724
1.19015
1.13372
1.07473
1.02809
0.973908
0.904892
0.838415
0.788001
0.747171
0.701029
0.645537
0.589755
0.545367
0.516464
0.495956
0.472041
0.437164
0.390269
0.333925
0.270458
0.199163
0.120733
0.0510829
0.0146035
141.251
141.332
141.52
141.805
142.17
142.605
143.103
143.655
144.25
144.877
145.523
146.171
146.805
147.405
147.948
148.407
148.751
148.943
148.937
148.677
148.091
147.083
145.519
143.206
139.844
134.937
127.564
115.808
93.6282
33.7457
140.524
140.595
140.761
141.011
141.33
141.708
142.137
142.608
143.11
143.631
144.155
144.668
145.15
145.58
145.933
146.181
146.287
146.211
145.901
145.292
144.3
142.81
140.666
137.634
133.358
127.253
118.285
104.723
85.2034
56.7779
139.754
139.815
139.958
140.172
140.444
140.763
141.122
141.51
141.916
142.328
142.73
143.105
143.433
143.692
143.855
143.891
143.762
143.423
142.818
141.876
140.507
138.589
135.958
132.384
127.542
120.978
112.103
100.282
86.0736
69.5133
138.943
138.995
139.113
139.291
139.514
139.773
140.059
140.364
140.673
140.975
141.254
141.491
141.666
141.755
141.731
141.56
141.203
140.613
139.732
138.487
136.788
134.516
131.52
127.605
122.523
115.983
107.689
97.3129
84.7948
69.7001
138.094
138.134
138.229
138.368
138.542
138.741
138.955
139.174
139.387
139.58
139.735
139.836
139.86
139.784
139.578
139.209
138.637
137.814
136.684
135.175
133.202
130.66
127.417
123.321
118.189
111.824
104.026
94.5536
83.2413
70.2968
137.207
137.237
137.307
137.409
137.533
137.67
137.812
137.947
138.064
138.148
138.183
138.15
138.028
137.792
137.414
136.859
136.089
135.057
133.709
131.98
129.793
127.057
123.668
119.506
114.441
108.34
101.081
92.5648
82.7837
72.1507
136.285
136.305
136.35
136.415
136.49
136.566
136.636
136.688
136.71
136.688
136.606
136.445
136.183
135.796
135.256
134.531
133.582
132.368
130.837
128.932
126.587
123.728
120.274
116.136
111.229
105.473
98.816
91.246
82.8074
73.8355
135.333
135.343
135.363
135.39
135.416
135.433
135.432
135.403
135.333
135.209
135.014
134.73
134.336
133.809
133.121
132.243
131.138
129.769
128.089
126.052
123.601
120.678
117.224
113.178
108.488
103.115
97.0435
90.2952
82.9198
75.189
134.353
134.352
134.349
134.339
134.318
134.276
134.207
134.099
133.941
133.718
133.417
133.017
132.501
131.845
131.025
130.011
128.773
127.277
125.483
123.351
120.839
117.902
114.498
110.589
106.147
101.155
95.6224
89.5814
83.0859
76.3632
133.35
133.339
133.312
133.267
133.199
133.101
132.966
132.782
132.54
132.225
131.823
131.318
130.689
129.918
128.98
127.851
126.502
124.905
123.027
120.836
118.3
115.387
112.069
108.323
104.139
99.5157
94.4719
89.0467
83.2931
77.3956
132.328
132.307
132.258
132.178
132.065
131.914
131.715
131.46
131.139
130.738
130.243
129.64
128.912
128.038
126.999
125.772
124.335
122.661
120.727
118.507
115.977
113.116
109.907
106.339
102.412
98.1347
93.531
88.6402
83.51
78.2884
131.292
131.262
131.191
131.078
130.923
130.72
130.462
130.141
129.745
129.265
128.686
127.996
127.177
126.215
125.091
123.785
122.279
120.552
118.585
116.359
113.858
111.069
107.984
104.599
100.92
96.9623
92.7506
88.3213
83.7161
79.0539
130.247
130.208
130.117
129.973
129.778
129.527
129.214
128.83
128.367
127.814
127.16
126.392
125.496
124.458
123.263
121.895
120.338
118.577
116.597
114.386
111.932
109.228
106.273
103.069
99.6248
95.9583
92.0936
88.063
83.9022
79.7073
129.199
129.153
129.042
128.869
128.636
128.341
127.977
127.536
127.012
126.394
125.672
124.837
123.875
122.774
121.523
120.108
118.517
116.738
114.761
112.578
110.182
107.572
104.749
101.72
98.4943
95.091
91.5324
87.8466
84.0639
80.2621
128.155
128.101
127.972
127.772
127.505
127.169
126.758
126.267
125.687
125.011
124.231
123.338
122.32
121.169
119.874
118.425
116.813
115.03
113.07
110.926
108.597
106.084
103.391
100.527
97.5026
94.3356
91.0463
87.6591
84.1993
80.7303
127.12
127.059
126.914
126.69
126.391
126.018
125.565
125.027
124.399
123.673
122.843
121.901
120.838
119.647
118.32
116.849
115.228
113.452
111.517
109.42
107.162
104.747
102.179
99.4691
96.6283
93.6725
90.6199
87.4915
84.3086
81.1227
126.102
126.034
125.874
125.628
125.301
124.894
124.404
123.826
123.155
122.387
121.514
120.531
119.432
118.211
116.862
115.379
113.759
111.998
110.095
108.05
105.865
103.545
101.096
98.5289
95.8542
93.0864
90.2417
87.3379
84.393
81.4492
125.107
125.033
124.86
124.593
124.241
123.805
123.283
122.669
121.962
121.157
120.249
119.234
118.108
116.865
115.502
114.015
112.403
110.664
108.798
106.807
104.694
102.466
100.128
97.6916
95.1664
92.5655
89.9031
87.1945
84.4546
81.7185
124.142
124.063
123.878
123.594
123.22
122.758
122.207
121.564
120.826
119.99
119.054
118.014
116.867
115.61
114.24
112.756
111.158
109.445
107.618
105.682
103.64
101.498
99.2633
96.9453
94.5539
92.1007
89.598
87.0588
84.496
81.9384
123.215
123.132
122.936
122.637
122.243
121.759
121.184
120.515
119.752
118.892
117.933
116.874
115.713
114.447
113.077
111.601
110.02
108.336
106.55
104.668
102.693
100.631
98.4911
96.2803
94.0082
91.6852
89.3221
86.93
84.5199
82.1159
122.334
122.247
122.042
121.729
121.319
120.816
120.22
119.53
118.746
117.866
116.891
115.818
114.648
113.379
112.012
110.547
108.987
107.333
105.588
103.757
101.845
99.8586
97.8037
95.6888
93.5225
91.3138
89.0723
86.8077
84.5293
82.2574
121.506
121.415
121.203
120.878
120.454
119.935
119.322
118.615
117.814
116.919
115.931
114.849
113.674
112.406
111.046
109.595
108.057
106.433
104.728
102.946
101.092
99.1728
97.1947
95.1651
93.0918
90.983
88.8471
86.6925
84.5275
82.3689
120.739
120.645
120.426
120.091
119.655
119.123
118.496
117.775
116.961
116.055
115.058
113.971
112.794
111.529
110.178
108.743
107.227
105.633
103.965
102.228
100.427
98.5689
96.659
94.7044
92.7123
90.6901
88.6453
86.5852
84.5172
82.4552
120.041
119.945
119.72
119.376
118.93
118.387
117.749
117.017
116.193
115.279
114.276
113.186
112.01
110.751
109.41
107.991
106.497
104.931
103.297
101.601
99.8483
98.0437
96.1935
94.3042
92.3823
90.4345
88.4675
86.4879
84.5023
82.5223
119.422
119.323
119.092
118.741
118.286
117.734
117.087
116.347
115.516
114.596
113.589
112.499
111.325
110.072
108.742
107.339
105.865
104.324
102.722
101.063
99.3511
97.5932
95.7946
93.9611
92.0989
90.214
88.3126
86.4007
84.484
82.5724
118.89
118.788
118.552
118.194
117.731
117.172
116.518
115.771
114.935
114.012
113.004
111.914
110.744
109.498
108.178
106.789
105.334
103.816
102.241
100.613
98.9371
97.2189
95.4637
93.677
91.8646
90.0321
88.1852
86.3292
84.4695
82.6145
118.455
118.35
118.106
117.74
117.271
116.705
116.046
115.294
114.454
113.529
112.52
111.431
110.266
109.026
107.717
106.34
104.9
103.402
101.85
100.248
98.6016
96.9157
95.1957
93.4468
91.6743
89.8836
88.0799
86.2682
84.4534
82.6424
118.129
118.018
117.765
117.392
116.918
116.348
115.685
114.93
114.087
113.16
112.151
111.065
109.903
108.669
107.368
106.001
104.575
103.092
101.558
99.9771
98.3538
96.6934
95.0009
93.2814
91.54
89.7818
88.0116
86.2344
84.4547
82.6788
117.927
117.792
117.522
117.144
116.667
116.095
115.428
114.672
113.828
112.901
111.893
110.809
109.65
108.421
107.125
105.767
104.35
102.878
101.357
99.7898
98.1822
96.5389
94.8648
93.1649
91.444
89.707
87.9587
86.2036
84.4462
82.6914
117.908
117.709
117.411
117.026
116.547
115.971
115.302
114.544
113.699
112.772
111.765
110.682
109.526
108.301
107.01
105.657
104.247
102.783
101.27
99.7123
98.1151
96.4829
94.8206
93.133
91.425
89.7012
87.9663
86.2248
84.481
82.7392
-50.4009
-30.2339
-10.772
36.5082
29.2619
17.6271
52.1316
40.1529
29.0853
53.4884
43.1136
35.1268
57.7905
49.5401
42.8215
62.1543
55.2742
49.4089
65.4004
59.539
54.5068
67.9706
62.9595
58.6617
70.1365
65.8139
62.1126
71.9641
68.192
64.9698
73.5001
70.1741
67.3402
74.7936
71.8338
69.317
75.8848
73.2285
70.9731
76.8059
74.4033
72.3654
77.583
75.3944
73.5394
78.2379
76.2313
74.5309
78.7886
76.9376
75.369
79.2504
77.533
76.077
79.6359
78.0336
76.6744
79.9563
78.4534
77.1771
80.2209
78.8037
77.5988
80.4383
79.095
77.9512
80.6153
79.3352
78.2437
80.7597
79.5335
78.4861
80.8742
79.6932
78.6829
80.9705
79.8268
78.8465
81.0398
79.926
78.9703
81.1109
80.0198
79.0814
81.1437
80.0689
79.1445
81.2124
80.1517
79.2337
-1.6755
-1.50646
-0.102856
0.916868
0.987468
1.01416
1.05255
1.01882
0.97408
0.969199
0.942561
0.870502
0.796933
0.755169
0.73374
0.69867
0.641001
0.578682
0.532764
0.510976
0.501656
0.485146
0.450842
0.399519
0.336717
0.267595
0.193383
0.114576
0.0458777
0.0124687
3.96695
0.810112
1.79872
1.50351
0.485445
0.47819
0.915254
0.985715
0.901873
0.92732
0.923
0.823704
0.725449
0.701423
0.723917
0.708772
0.641188
0.562613
0.5104
0.498699
0.508344
0.503983
0.47022
0.412445
0.340864
0.264381
0.187222
0.109625
0.0424767
0.0108859
14.8937
6.43364
3.51814
1.41749
0.866544
1.48489
1.71779
0.968497
0.462035
0.631859
0.922154
0.839371
0.685001
0.674607
0.74764
0.736844
0.637828
0.527421
0.464616
0.472793
0.519253
0.5347
0.499142
0.43089
0.347091
0.260704
0.180151
0.106152
0.0418061
0.00993592
24.4428
14.6058
8.78256
5.06127
3.12447
2.26769
1.40963
0.778962
0.691579
1.41665
1.58311
0.839
0.387378
0.360504
0.608257
0.78065
0.667136
0.507882
0.427755
0.462917
0.556953
0.581327
0.53512
0.450302
0.350764
0.252033
0.16776
0.102008
0.0448491
0.00959081
33.5268
23.8007
16.4969
11.1848
7.4945
4.98419
3.20219
2.10908
1.58613
1.52179
1.15287
0.710179
0.419022
0.586016
1.18352
1.18443
0.668439
0.369621
0.2475
0.309134
0.492589
0.626479
0.591806
0.483929
0.36532
0.251728
0.161511
0.108081
0.0657713
0.0118562
41.4394
32.5347
24.6557
18.2222
13.2839
9.61066
6.91111
4.97454
3.62337
2.7041
1.95263
1.36685
0.958507
0.876146
0.998584
0.923388
0.663346
0.404366
0.291626
0.434439
0.808864
0.876484
0.646553
0.484307
0.347727
0.219827
0.118371
0.0775088
0.0783689
0.000193002
47.891
40.0995
32.3338
25.4471
19.8118
15.3257
11.7768
8.99551
6.85613
5.2415
3.99326
3.00198
2.25506
1.79165
1.53017
1.28883
0.974865
0.658563
0.490011
0.530938
0.692853
0.757273
0.685398
0.560143
0.418032
0.267517
0.150709
0.113209
0.192517
0.026412
53.1469
46.4243
39.1738
32.3456
26.455
21.4933
17.3352
13.8895
11.083
8.82828
7.00837
5.52913
4.35967
3.48951
2.85482
2.32789
1.81988
1.37251
1.07867
0.964845
0.962257
0.944902
0.837201
0.667312
0.488452
0.318588
0.186322
0.117201
0.142336
-0.0786112
57.4357
51.6232
45.0423
38.5687
32.745
27.622
23.137
19.2541
15.9426
13.1513
10.8087
8.85068
7.23757
5.93775
4.89495
4.02246
3.25908
2.61476
2.1296
1.81087
1.60831
1.42992
1.20985
0.959438
0.715338
0.494511
0.313782
0.185291
0.0919765
-0.332776
60.9357
55.8694
49.9676
43.9811
38.4219
33.3672
28.7887
24.6825
21.0502
17.8747
15.1205
12.7478
10.7222
9.01057
7.56902
6.34111
5.28271
4.38322
3.65133
3.0819
2.63617
2.24998
1.87409
1.50353
1.15454
0.838253
0.561654
0.318715
0.0537058
-0.547724
63.81
59.3501
54.0689
48.5978
43.3959
38.546
34.0355
29.8764
26.0898
22.6818
19.6414
16.9486
14.581
12.514
10.717
9.1526
7.788
6.60553
5.59886
4.75593
4.04625
3.42495
2.85379
2.31815
1.8202
1.36332
0.944856
0.544744
0.100736
-0.623451
66.1904
62.2252
57.4847
52.502
47.6815
43.1013
38.7548
34.6591
30.8442
27.3292
24.1182
21.2063
18.5832
16.2348
14.1416
12.2799
10.6264
9.16383
7.88043
6.76164
5.78309
4.91209
4.11825
3.38367
2.70195
2.06909
1.47528
0.895411
0.277797
-0.547077
68.1758
64.618
60.3398
55.7964
51.344
47.0528
42.9167
38.9529
35.1933
31.6627
28.3743
25.3326
22.5368
19.9814
17.6566
15.5484
13.6417
11.9228
10.3794
8.99771
7.75818
6.63639
5.60822
4.65579
3.76807
2.9359
2.14584
1.37389
0.582589
-0.345149
69.8407
66.6222
62.7369
58.5794
54.4654
50.4566
46.5457
42.7472
39.0918
35.606
32.3069
29.2047
26.3048
23.6084
21.1125
18.8105
16.6938
14.7528
12.9776
11.3563
9.87384
8.51174
7.25095
6.07509
4.97134
3.92803
2.93084
1.95948
0.988762
-0.0575181
71.2426
68.3089
64.7582
60.9365
57.1258
53.3806
49.6914
46.0697
42.5431
39.1374
35.8713
32.7578
29.8059
27.0211
24.4053
21.9573
19.6732
17.5473
15.5727
13.7404
12.0391
10.4547
8.97235
7.57778
6.25824
5.0015
3.79396
2.61925
1.46088
0.273821
72.4263
69.7332
66.4683
62.9379
59.3959
55.8904
52.4105
48.9641
45.5754
42.2685
39.0618
35.9694
33.0023
30.1686
27.4733
24.9189
22.5049
20.2291
18.0874
16.0736
14.1794
12.3944
10.7071
9.10543
7.57765
6.11212
4.69647
3.31743
1.96354
0.612458
73.4272
70.9384
67.9183
64.6403
61.3348
58.0447
54.7575
51.4781
48.2273
45.0268
41.894
38.8431
35.8857
33.0313
30.287
27.6575
25.1449
22.7496
20.4699
18.302
16.2404
14.2774
12.4041
10.6106
8.88655
7.22126
5.60355
4.02206
2.46735
0.932366
74.2737
71.959
69.1491
66.09
62.9919
59.8935
56.7812
53.6572
50.539
47.4458
44.3937
41.3961
38.4647
35.6094
32.8384
30.1579
27.5718
25.0824
22.6897
20.3923
18.1865
16.067
14.0271
12.0585
10.1523
8.29887
6.48777
4.7085
2.95155
1.21902
74.9892
72.8229
70.1938
67.3244
64.4078
61.479
58.5238
55.5421
52.5482
49.5593
46.5895
43.6514
40.756
37.9133
35.1319
32.4187
29.7789
27.216
24.7317
22.3259
19.9967
17.7407
15.5526
13.4258
11.3525
9.32374
7.32977
5.36004
3.40379
1.46757
75.5928
73.5533
71.0797
68.3745
65.6162
62.8368
60.0216
57.1684
54.2893
51.3988
48.5098
45.6333
42.7796
39.9583
37.1781
34.4461
31.7682
29.1488
26.5905
24.0945
21.6603
19.2856
16.9666
14.6979
12.4725
10.2822
8.11727
5.96676
3.81828
1.67966
76.1006
74.1691
71.8291
69.266
66.6452
63.9966
61.3051
58.567
55.7921
52.993
50.1808
47.3653
44.5558
41.7615
38.9904
36.2499
33.546
30.8836
28.2662
25.6956
23.1724
20.6953
18.2615
15.8664
13.5038
11.1659
8.84293
6.5234
4.19327
1.85982
76.5263
74.6867
72.4612
70.0203
67.5186
64.9838
62.4008
59.7648
57.0833
54.3674
51.6266
48.8695
46.1045
43.3398
40.5831
37.8414
35.1209
32.4265
29.7622
27.1304
24.5324
21.9674
19.4336
16.9269
14.4417
11.9704
9.50316
7.02796
4.52945
2.01338
76.881
75.1193
72.9914
70.6552
68.2557
65.8192
63.3306
60.7839
58.1852
55.5438
52.8681
50.1654
47.4432
44.7089
41.9695
39.2317
36.5015
33.7838
31.0827
28.4011
25.7405
23.1009
20.4807
17.8764
15.2828
12.6924
10.0954
7.47912
4.82741
2.14403
77.1756
75.4792
73.4339
71.1867
68.8743
66.5218
64.1142
61.6447
59.1182
56.5425
53.9248
51.2716
48.5893
45.8844
43.1636
40.4329
37.698
34.9637
32.2342
29.5124
26.8002
24.0977
21.4037
18.7152
16.0271
13.332
10.62
7.87808
5.08955
2.25575
77.4162
75.7741
73.7978
71.625
69.3858
67.104
64.765
62.3612
59.8963
57.3773
54.8103
52.2007
49.5543
46.8769
44.1743
41.4522
38.716
35.9703
33.2191
30.4653
27.7108
24.9561
22.2002
19.4401
16.671
13.8855
11.0735
8.22207
5.31399
2.34826
77.6146
76.0167
74.0971
71.9855
69.8065
67.583
65.3006
62.9514
60.5382
58.0668
55.5426
52.9705
50.3553
47.7022
45.0166
42.3036
39.5682
36.8148
34.0472
31.2683
28.4801
25.6829
22.876
20.0565
17.2195
14.3578
11.4613
8.51658
5.5065
2.42681
77.7676
76.2046
74.3297
72.2668
70.1355
67.9585
65.7213
63.4158
61.044
58.6111
56.1218
53.5802
50.9908
48.3582
45.6872
42.9825
40.2489
37.4905
34.7108
31.9127
29.0981
26.2675
23.42
20.5528
17.661
14.7374
11.7718
8.75076
5.65716
2.48438
77.8976
76.3602
74.5194
72.4933
70.3982
68.2562
66.0534
63.7811
61.4409
59.0373
56.5747
54.0568
51.4874
48.8707
46.2113
43.5136
40.7819
38.0202
35.2318
32.4196
29.5852
26.7293
23.8509
20.9471
18.0133
15.0419
12.0226
8.94197
5.78249
2.5337
77.9774
76.4562
74.6377
72.6366
70.5659
68.4474
66.2675
64.0174
61.6984
59.3146
56.8699
54.3679
51.8121
49.2064
46.555
43.8621
41.1319
38.3682
35.5742
32.7527
29.9052
27.0324
24.1332
21.2048
18.2424
15.2384
12.1823
9.06013
5.85455
2.5533
78.0659
76.5458
74.7396
72.7535
70.6965
68.5906
66.4229
64.1846
61.8765
59.5028
57.0673
54.5731
52.0237
49.4229
46.7749
44.0836
41.3532
38.5873
35.7892
32.9616
30.1061
27.2231
24.3119
21.3694
18.3908
15.3684
12.2915
9.14507
5.9092
2.55989
)
;

boundaryField
{
    inlet
    {
        type            zeroGradient;
    }
    outlet
    {
        type            fixedValue;
        value           uniform 0;
    }
    flap
    {
        type            zeroGradient;
    }
    upperWall
    {
        type            zeroGradient;
    }
    lowerWall
    {
        type            zeroGradient;
    }
    frontAndBack
    {
        type            empty;
    }
}


// ************************************************************************* //
