/*--------------------------------*- C++ -*----------------------------------*\
  =========                 |
  \\      /  F ield         | OpenFOAM: The Open Source CFD Toolbox
   \\    /   O peration     | Website:  https://openfoam.org
    \\  /    A nd           | Version:  7
     \\/     M anipulation  |
\*---------------------------------------------------------------------------*/
FoamFile
{
    version     2.0;
    format      ascii;
    class       surfaceScalarField;
    location    "3.1";
    object      phi;
}
// * * * * * * * * * * * * * * * * * * * * * * * * * * * * * * * * * * * * * //

dimensions      [0 3 -1 0 0 0 0];

internalField   nonuniform List<scalar> 
5457
(
0.198418
0.0015824
0.19648
0.00193741
0.194192
0.00228815
0.191508
0.00268367
0.188427
0.0030813
0.18495
0.00347688
0.181072
0.00387869
0.176777
0.00429412
0.172049
0.00472831
0.166864
0.00518529
0.161195
0.00566854
0.155014
0.00618103
0.148289
0.00672491
0.140988
0.00730123
0.133079
0.00790933
0.124533
0.00854622
0.115327
0.00920561
0.10545
0.00987686
0.0949063
0.0105437
0.0837232
0.0111831
0.0719589
0.0117643
0.0597109
0.012248
0.0471225
0.0125884
0.0343825
0.01274
0.0216876
0.0126949
0.00903751
0.0126501
-0.00291604
0.0119535
-0.00847193
0.0055559
-0.00804285
-0.000429089
-0.00804285
0.199928
0.00165427
0.199176
0.00268991
0.197965
0.00349916
0.196331
0.00431694
0.194271
0.00514146
0.191781
0.00596707
0.188854
0.00680579
0.185477
0.0076711
0.181632
0.00857333
0.177296
0.00952077
0.172444
0.0105207
0.167046
0.0115794
0.161069
0.0127016
0.15448
0.0138901
0.147245
0.0151443
0.139333
0.0164591
0.130715
0.0178233
0.121375
0.0192167
0.111311
0.0206082
0.100541
0.0219526
0.089117
0.0231884
0.0771297
0.0242353
0.064724
0.0249941
0.0521166
0.0253473
0.0396564
0.0251552
0.0281062
0.0242002
0.0185956
0.0214642
0.00879763
0.0153538
0.00118371
0.00718483
-0.00685913
0.199781
0.00187373
0.199087
0.0033838
0.197946
0.00464017
0.196409
0.00585365
0.194483
0.0070677
0.192164
0.00828624
0.189446
0.00952335
0.18632
0.0107967
0.182772
0.0121213
0.178783
0.0135097
0.174331
0.0149729
0.16939
0.0165204
0.163932
0.0181602
0.157924
0.0198972
0.151336
0.0217324
0.144135
0.0236607
0.13629
0.0256685
0.127776
0.0277303
0.118579
0.0298047
0.108702
0.0318302
0.0981704
0.0337199
0.0870484
0.0353573
0.0754519
0.0365906
0.063575
0.0372243
0.0517332
0.036997
0.0403979
0.0355355
0.0297395
0.0321226
0.0191665
0.0259269
0.00959783
0.0167535
0.0027387
0.199703
0.00217069
0.199008
0.00407916
0.197887
0.00576077
0.196376
0.00736467
0.194488
0.00895594
0.192222
0.0105524
0.189574
0.0121712
0.186538
0.0138328
0.183103
0.0155559
0.179257
0.0173563
0.174982
0.019248
0.170259
0.0212431
0.165067
0.0233519
0.159383
0.0255813
0.153181
0.027934
0.146436
0.0304057
0.139122
0.0329826
0.131215
0.0356373
0.122696
0.0383236
0.113556
0.0409707
0.103799
0.0434764
0.0934571
0.0456995
0.0825962
0.0474516
0.0713336
0.0484869
0.0598417
0.0484888
0.0483177
0.0470596
0.0368116
0.0436286
0.0251883
0.0375502
0.0133358
0.028606
0.0160745
0.199667
0.00250331
0.198964
0.00478248
0.197863
0.00686217
0.196381
0.00884646
0.194532
0.0108048
0.192317
0.0127671
0.189733
0.0147551
0.186774
0.0167916
0.183433
0.0188977
0.179697
0.0210922
0.175554
0.023391
0.170989
0.0258082
0.165985
0.0283556
0.160525
0.0310415
0.154589
0.0338694
0.148159
0.036836
0.141213
0.0399282
0.133732
0.0431185
0.125696
0.0463601
0.117087
0.0495797
0.107893
0.0526695
0.0981148
0.0554782
0.0877652
0.0578012
0.0768794
0.0593726
0.0655096
0.0598587
0.0537088
0.0588603
0.0414547
0.0558827
0.0285883
0.0504166
0.0148526
0.0423416
0.0309272
0.199653
0.00285054
0.198949
0.0054866
0.197871
0.00794021
0.196426
0.0102907
0.194626
0.012605
0.192473
0.0149208
0.189963
0.0172649
0.187092
0.0196626
0.183852
0.0221372
0.180235
0.0247096
0.176228
0.0273976
0.17182
0.030217
0.166995
0.0331805
0.161739
0.0362974
0.156036
0.0395722
0.14987
0.0430025
0.143222
0.0465762
0.136072
0.0502676
0.128401
0.0540321
0.120181
0.057799
0.111387
0.0614635
0.101989
0.0648766
0.0919551
0.067835
0.0812546
0.0700731
0.069855
0.0712583
0.0577178
0.0709975
0.0447615
0.068839
0.0308498
0.0643284
0.0158735
0.0573179
0.0468006
0.19965
0.00320052
0.198954
0.00618265
0.197904
0.00898994
0.196504
0.0116906
0.194762
0.0143474
0.19268
0.017003
0.190256
0.0196887
0.187486
0.0224324
0.184364
0.0252594
0.180881
0.0281926
0.177027
0.0312517
0.17279
0.0344537
0.168158
0.0378126
0.163116
0.041339
0.15765
0.0450384
0.151743
0.0489099
0.145375
0.0529435
0.138526
0.0571168
0.131168
0.06139
0.123268
0.0656994
0.114782
0.0699497
0.105654
0.0740039
0.095817
0.0776724
0.0851868
0.0807033
0.0736692
0.0827759
0.0611626
0.0835041
0.0475563
0.0824453
0.0327595
0.0791252
0.0167834
0.0732941
0.063584
0.199655
0.0035459
0.198974
0.00686284
0.197959
0.0100058
0.19661
0.0130394
0.194933
0.0160236
0.192933
0.0190037
0.190606
0.022015
0.187951
0.0250878
0.184961
0.0282496
0.181629
0.0315249
0.177945
0.0349353
0.173899
0.0384992
0.16948
0.0422322
0.164672
0.0461464
0.159462
0.0502492
0.153829
0.0545421
0.147754
0.0590186
0.14121
0.0636613
0.134162
0.0684379
0.126566
0.0732957
0.118361
0.0781544
0.109469
0.0828961
0.0997867
0.0873545
0.0891881
0.0913019
0.0775264
0.0944376
0.0646489
0.0963816
0.050419
0.0966752
0.0347694
0.0947747
0.0177906
0.0902729
0.0813746
0.199664
0.00388177
0.199006
0.00752072
0.19803
0.0109822
0.196738
0.014331
0.195136
0.0176258
0.193226
0.0209137
0.191008
0.0242331
0.188479
0.0276166
0.185635
0.0310938
0.182469
0.0346908
0.178973
0.0384309
0.175138
0.0423343
0.170952
0.0464182
0.166402
0.0506969
0.161471
0.0551803
0.15614
0.0598734
0.150383
0.0647747
0.144171
0.0698739
0.13746
0.075149
0.130194
0.0805617
0.122297
0.0860515
0.113666
0.0915265
0.104168
0.0968522
0.0936349
0.101835
0.0818663
0.106206
0.0686515
0.109596
0.0538043
0.111522
0.0372385
0.11134
0.0190846
0.108427
0.100459
0.199677
0.00420459
0.199047
0.00815105
0.198115
0.0119136
0.196887
0.0155595
0.195366
0.0191469
0.193555
0.0227246
0.191455
0.0263332
0.189064
0.0300077
0.186378
0.0337793
0.183393
0.0376759
0.180102
0.0417224
0.176496
0.0459406
0.172564
0.05035
0.168293
0.0549671
0.163669
0.0598051
0.158668
0.0648736
0.153266
0.0701771
0.147425
0.0757145
0.141098
0.0814762
0.134218
0.0874418
0.126694
0.093575
0.118404
0.0998166
0.109184
0.106073
0.0988206
0.112199
0.0870547
0.117972
0.0735929
0.123058
0.0581519
0.126963
0.040555
0.128937
0.0209033
0.128079
0.121362
0.199693
0.00451171
0.199094
0.00874953
0.198213
0.0127953
0.197053
0.0167193
0.195619
0.0205805
0.193915
0.0244287
0.191942
0.0283065
0.189699
0.0322508
0.187183
0.0362946
0.184392
0.0404672
0.18132
0.0447948
0.177959
0.0493014
0.174301
0.0540082
0.170333
0.0589346
0.166041
0.0640973
0.161404
0.0695109
0.156394
0.0751873
0.150973
0.0811353
0.145089
0.0873597
0.138671
0.0938604
0.131617
0.100629
0.123788
0.107645
0.114996
0.114865
0.104984
0.12221
0.093422
0.129534
0.0799024
0.136578
0.0639731
0.142893
0.0452398
0.147671
0.0236148
0.149704
0.144977
0.199711
0.00480107
0.199148
0.00931263
0.19832
0.0136231
0.197233
0.0178058
0.195893
0.0219208
0.194302
0.0260193
0.192464
0.0301453
0.190377
0.0343373
0.188042
0.0386297
0.185456
0.0430531
0.182616
0.0476352
0.179516
0.0524014
0.176149
0.0573752
0.172505
0.0625784
0.168571
0.0680315
0.164327
0.0737542
0.159749
0.0797658
0.154799
0.0860855
0.149425
0.0927332
0.143556
0.0997296
0.137088
0.107097
0.129877
0.114857
0.121715
0.123026
0.112316
0.13161
0.101277
0.140573
0.0880514
0.149803
0.0719308
0.159013
0.0520943
0.167507
0.0278912
0.173907
0.172868
0.19973
0.00507105
0.199205
0.00983752
0.198435
0.0143932
0.197426
0.0188147
0.196184
0.0231631
0.194712
0.0274908
0.193015
0.031843
0.191092
0.0362596
0.188946
0.0407759
0.186575
0.0454238
0.183978
0.0502322
0.181152
0.0552277
0.178092
0.0604355
0.17479
0.0658799
0.171237
0.0715848
0.167417
0.0775745
0.163307
0.0838751
0.158877
0.0905156
0.154081
0.0975296
0.148852
0.104958
0.143097
0.112852
0.136677
0.121276
0.129392
0.130312
0.120944
0.140058
0.110888
0.150629
0.0985516
0.16214
0.082913
0.174652
0.062449
0.187971
0.0351353
0.20122
0.208004
0.199751
0.0053204
0.199266
0.0103219
0.198557
0.0151028
0.197629
0.0197424
0.196489
0.0243033
0.195141
0.0288384
0.19359
0.0333942
0.191838
0.0380114
0.189888
0.0427264
0.18774
0.0475715
0.185396
0.0525767
0.182854
0.0577695
0.180113
0.0631765
0.177169
0.0688238
0.174016
0.0747379
0.170643
0.0809469
0.167036
0.0874825
0.16317
0.0943812
0.159012
0.101688
0.15451
0.10946
0.149589
0.117773
0.144138
0.126727
0.137991
0.136459
0.130887
0.147162
0.122412
0.159104
0.111871
0.17268
0.0980346
0.188489
0.0785597
0.207446
0.0486853
0.231095
0.256689
0.199772
0.00554816
0.19933
0.0107639
0.198684
0.0157495
0.19784
0.0205862
0.196805
0.0253379
0.195585
0.0300584
0.194185
0.0347947
0.192608
0.0395881
0.190859
0.0444756
0.18894
0.0494901
0.186855
0.0546617
0.184606
0.0600188
0.182194
0.0655887
0.179619
0.0713984
0.176881
0.0774761
0.173975
0.0838525
0.170895
0.0905624
0.167629
0.0976474
0.164157
0.10516
0.160451
0.113166
0.156467
0.121757
0.15214
0.131055
0.147368
0.141231
0.141994
0.152535
0.135756
0.165342
0.128183
0.180253
0.118336
0.198336
0.103961
0.22182
0.0777398
0.257316
0.334429
0.00472071
-0.00472071
0.00913133
-0.00441062
0.0128582
-0.00372686
0.0159505
-0.00309234
0.0185224
-0.00257187
0.020678
-0.00215564
0.0225054
-0.00182737
0.0240775
-0.00157213
0.0254518
-0.00137433
0.0266699
-0.00121803
0.0277585
-0.0010886
0.0287332
-0.000974763
0.0296037
-0.000870429
0.0303773
-0.000773671
0.031057
-0.000679649
0.031628
-0.000571001
0.0320486
-0.000420585
0.0322692
-0.000220598
0.0322884
-1.92351e-05
0.0321305
0.000157916
0.0318856
0.000244896
0.031588
0.000297625
0.03127
0.000317987
0.0310064
0.000263628
0.030873
0.000133337
0.0309417
-6.87243e-05
0.0312573
-0.000315591
0.0318066
-0.000549308
0.0325237
-0.000717102
-0.000719265
0.00409629
-0.008817
0.00805944
-0.00837377
0.0114772
-0.00714458
0.0143723
-0.00598747
0.0168436
-0.00504317
0.0189799
-0.00429192
0.0208538
-0.00370126
0.0225241
-0.00324245
0.0240368
-0.00288698
0.0254252
-0.00260643
0.0267109
-0.00237429
0.0279055
-0.00216944
0.0290159
-0.00198082
0.0300506
-0.00180834
0.031022
-0.0016511
0.031936
-0.00148497
0.0327719
-0.00125653
0.0334838
-0.000932406
0.034028
-0.000563497
0.0344456
-0.000259697
0.034784
-9.34814e-05
0.0350661
1.55688e-05
0.0352952
8.88749e-05
0.035531
2.78182e-05
0.0357859
-0.000121535
0.0360608
-0.000343645
0.0363521
-0.000606949
0.036682
-0.000879164
0.0370918
-0.00112689
-0.00113867
0.0032597
-0.0120767
0.00634304
-0.0114571
0.0089643
-0.00976584
0.0111778
-0.00820095
0.0130659
-0.00693132
0.0146958
-0.00592183
0.016123
-0.00512841
0.0173916
-0.00451106
0.0185361
-0.00403153
0.0195821
-0.00365238
0.0205454
-0.00333758
0.0214323
-0.00305637
0.0222433
-0.00279181
0.0229823
-0.00254732
0.0236663
-0.00233514
0.0243176
-0.00213624
0.0249291
-0.00186806
0.0254513
-0.00145454
0.0258369
-0.000949136
0.0261326
-0.00055537
0.0263709
-0.000331838
0.0264801
-9.36362e-05
0.0264466
0.000122391
0.0262593
0.000215172
0.0259974
0.000140333
0.0256593
-5.56619e-06
0.0252313
-0.000178926
0.0247415
-0.000389364
0.0242854
-0.00067081
-0.00107134
0.0023693
-0.014446
0.00442443
-0.0135122
0.0060797
-0.0114211
0.00745054
-0.0095718
0.00859564
-0.00807642
0.0095572
-0.00688339
0.0103716
-0.00594285
0.0110677
-0.00520709
0.0116683
-0.00463216
0.0121918
-0.00417592
0.0126508
-0.00379655
0.0130495
-0.00345509
0.0133814
-0.00312365
0.0136345
-0.00280048
0.0138169
-0.00251748
0.013971
-0.00229034
0.0141334
-0.00203048
0.0142671
-0.0015882
0.0141422
-0.000824251
0.0135207
6.60893e-05
0.0125147
0.000674217
0.0114657
0.00095531
0.0105005
0.00108758
0.00959922
0.00111648
0.00880308
0.000936474
0.00824605
0.000551464
0.00793249
0.000134634
0.0078695
-0.000326374
0.00805265
-0.000853964
-0.00142605
0.0013595
-0.0158055
0.00227112
-0.0144239
0.00286661
-0.0120166
0.00328688
-0.00999206
0.0035645
-0.00835403
0.00372219
-0.00704108
0.00377939
-0.00600005
0.00375233
-0.00518003
0.00365502
-0.00453484
0.00350009
-0.00402099
0.00329946
-0.00359591
0.00306256
-0.0032182
0.00278904
-0.00285013
0.00245671
-0.00246815
0.00200695
-0.00206772
0.00136643
-0.00164982
0.000549681
-0.00121373
-0.000361172
-0.000677345
-0.00116134
-2.40872e-05
-0.00166574
0.000570495
-0.00202816
0.00103663
-0.00239859
0.00132574
-0.0027641
0.00145308
-0.00306456
0.00141694
-0.00327965
0.00115157
-0.00341092
0.000682736
-0.00340592
0.000129633
-0.00333263
-0.000399664
-0.00320782
-0.000978774
-0.00153152
0.000176464
-0.015982
-0.000106006
-0.0141414
-0.000628065
-0.0114945
-0.00122786
-0.00939227
-0.00191599
-0.00766591
-0.00266579
-0.00629128
-0.00346374
-0.0052021
-0.0042985
-0.00434526
-0.00516209
-0.00367126
-0.00604661
-0.00313647
-0.00694011
-0.00270242
-0.00782471
-0.0023336
-0.00867692
-0.00199792
-0.00947477
-0.00167029
-0.0102074
-0.00133513
-0.0108737
-0.000983521
-0.0114808
-0.000606568
-0.0119829
-0.000175292
-0.0123023
0.000295284
-0.0124914
0.000759606
-0.0126124
0.00115769
-0.0126988
0.0014121
-0.0127574
0.00151165
-0.0127806
0.00144019
-0.012796
0.00116694
-0.0128308
0.000717602
-0.0128795
0.000178328
-0.0128939
-0.000385307
-0.0128911
-0.000981545
-0.0015362
-0.00105303
-0.0149289
-0.00261404
-0.0125804
-0.00426369
-0.0098449
-0.0059523
-0.00770366
-0.00761215
-0.00600606
-0.00921768
-0.00468574
-0.0107475
-0.0036723
-0.0121833
-0.00290948
-0.0135118
-0.00234269
-0.0147265
-0.0019218
-0.015826
-0.00160297
-0.0168114
-0.00134816
-0.0176844
-0.00112489
-0.0184472
-0.000907512
-0.0191035
-0.000678812
-0.0196593
-0.000427776
-0.0201237
-0.000142088
-0.0204669
0.000167841
-0.0206824
0.00051078
-0.0207931
0.000870373
-0.0208207
0.00118522
-0.0208029
0.0013943
-0.0207615
0.0014703
-0.0207113
0.00139001
-0.0206794
0.001135
-0.0206894
0.000727591
-0.020737
0.00022599
-0.0208009
-0.000321486
-0.0208691
-0.000913354
-0.00143555
-0.00238466
-0.0125443
-0.00516157
-0.00980347
-0.00794133
-0.00706514
-0.0105875
-0.00505746
-0.0130179
-0.00357572
-0.0152026
-0.002501
-0.0171401
-0.00173477
-0.018841
-0.00120865
-0.020325
-0.000858626
-0.0216157
-0.000631098
-0.0227359
-0.000482803
-0.0237046
-0.000379459
-0.0245365
-0.000293007
-0.0252436
-0.000200356
-0.0258376
-8.48378e-05
-0.0263259
6.04698e-05
-0.0267069
0.000239001
-0.0269928
0.000453695
-0.0271863
0.000704312
-0.0272828
0.000966883
-0.0272972
0.00119963
-0.0272618
0.00135887
-0.0272043
0.00141283
-0.0271483
0.00133394
-0.0271192
0.00110588
-0.0271357
0.000744112
-0.0271993
0.000289623
-0.0272952
-0.000225609
-0.0274236
-0.000784973
-0.00124072
-0.00380695
-0.00873733
-0.00778708
-0.00582333
-0.0115966
-0.00325559
-0.0150334
-0.00162067
-0.0180352
-0.0005739
-0.0205946
5.83242e-05
-0.0227262
0.0003969
-0.0244845
0.000549573
-0.0259413
0.000598196
-0.0271603
0.000587964
-0.0281913
0.000548136
-0.0290693
0.000498528
-0.0298175
0.000455227
-0.0304518
0.000433916
-0.0309844
0.000447816
-0.0314283
0.000504359
-0.0317928
0.000603444
-0.032078
0.000738953
-0.0322757
0.000901952
-0.0323838
0.00107503
-0.0324166
0.00123243
-0.0324016
0.00134391
-0.0323676
0.00137877
-0.0323403
0.00130667
-0.0323429
0.00110844
-0.0323901
0.000791338
-0.0324846
0.000384159
-0.0326215
-8.87502e-05
-0.0328054
-0.00060104
-0.000999269
-0.0054721
-0.00326522
-0.0109697
-0.000325758
-0.0155517
0.0013264
-0.0193091
0.00213681
-0.0223415
0.00245841
-0.0247898
0.00250665
-0.0267988
0.00240592
-0.0284777
0.00222846
-0.0298886
0.00200911
-0.0310813
0.00178067
-0.032097
0.00156385
-0.0329658
0.00136732
-0.0337077
0.00119709
-0.0343382
0.00106446
-0.0348731
0.000982691
-0.035326
0.000957291
-0.0357038
0.000981193
-0.0360047
0.00103984
-0.0362223
0.00111954
-0.0363567
0.00120947
-0.0364223
0.00129804
-0.0364453
0.00136687
-0.0364544
0.00138794
-0.0364753
0.00132758
-0.0365275
0.00116064
-0.036622
0.000885753
-0.0367608
0.000523042
-0.0369433
9.36746e-05
-0.0371753
-0.00036903
-0.000719757
-0.00709176
0.00382654
-0.0132005
0.005783
-0.018004
0.00612985
-0.0218843
0.00601718
-0.0250353
0.00560942
-0.0275961
0.00506743
-0.0296868
0.00449663
-0.0314029
0.00394457
-0.0328234
0.00342954
-0.0340122
0.00296948
-0.0350214
0.00257312
-0.0358863
0.00223219
-0.0366261
0.00193687
-0.0372551
0.00169344
-0.0377909
0.00151852
-0.0382514
0.00141783
-0.0386458
0.00137556
-0.0389709
0.00136494
-0.0392181
0.00136677
-0.0393865
0.0013778
-0.0394907
0.00140228
-0.0395584
0.00143457
-0.0396196
0.00144918
-0.0396989
0.00140685
-0.0398117
0.00127339
-0.0399638
0.00103789
-0.0401546
0.000713877
-0.0403841
0.000323143
-0.0406611
-9.19843e-05
-0.000400474
-0.00795543
0.011782
-0.0147081
0.0125356
-0.0200849
0.0115067
-0.024248
0.0101803
-0.0274883
0.00884971
-0.030037
0.00761611
-0.032074
0.00653366
-0.0337292
0.00559976
-0.0350881
0.00478837
-0.0362192
0.00410062
-0.0371843
0.00353821
-0.0380222
0.0030701
-0.0387456
0.00266023
-0.0393614
0.00230931
-0.039889
0.00204606
-0.0403532
0.00188202
-0.0407668
0.00178921
-0.0411232
0.00172136
-0.0414068
0.00165037
-0.0416122
0.00158316
-0.0417554
0.00154546
-0.0418685
0.00154772
-0.041985
0.00156563
-0.0421279
0.00154983
-0.0423074
0.0014528
-0.0425225
0.00125305
-0.0427697
0.000961087
-0.0430523
0.000605665
-0.0433778
0.000233552
-3.82362e-05
-0.00933758
0.0211196
-0.0171084
0.0203065
-0.0227579
0.0171562
-0.0268441
0.0142664
-0.0299073
0.011913
-0.032242
0.00995076
-0.0340733
0.008365
-0.0355647
0.0070911
-0.0367904
0.00601407
-0.0378076
0.00511786
-0.0386902
0.00442085
-0.0394832
0.00386309
-0.0401824
0.00335939
-0.0407761
0.00290305
-0.0412847
0.00255464
-0.0417474
0.00234469
-0.0421841
0.00222595
-0.0425809
0.00211812
-0.0429081
0.00197755
-0.0431514
0.00182644
-0.0433296
0.00172366
-0.0434845
0.00170267
-0.0436562
0.00173735
-0.0438669
0.00176048
-0.0441194
0.00170532
-0.0444045
0.00153819
-0.0447135
0.00127001
-0.0450503
0.000942499
-0.0454281
0.000611325
0.000377476
-0.0118732
0.0329927
-0.0209799
0.0294132
-0.0264361
0.0226124
-0.0298518
0.0176821
-0.0323965
0.0144576
-0.0342826
0.0118369
-0.0357288
0.00981112
-0.0369572
0.00831954
-0.0379953
0.00705221
-0.0388454
0.00596791
-0.039607
0.00518249
-0.0403476
0.00460367
-0.041028
0.00403982
-0.0415947
0.00346976
-0.0420694
0.00302932
-0.0425223
0.00279759
-0.0429885
0.00269216
-0.0434397
0.0025693
-0.0438206
0.00235846
-0.044101
0.00210677
-0.0443051
0.00192783
-0.0444935
0.00189104
-0.0447183
0.00196214
-0.0450002
0.00204244
-0.0453325
0.00203753
-0.0456937
0.00189946
-0.0460665
0.0016428
-0.0464547
0.00133068
-0.0468793
0.00103593
0.00084706
-0.0164357
0.0494285
-0.0272459
0.0402233
-0.0317343
0.0271008
-0.0332852
0.019233
-0.0349426
0.0161151
-0.0361494
0.0130436
-0.0369894
0.0106512
-0.0378883
0.00921843
-0.038751
0.00791488
-0.0393841
0.00660105
-0.0399698
0.00576821
-0.0406624
0.0052963
-0.0413522
0.00472957
-0.0418939
0.0040115
-0.0423087
0.00344405
-0.0427357
0.00322465
-0.0432426
0.00319907
-0.0437715
0.00309813
-0.0442214
0.00280837
-0.0445346
0.00242
-0.0447463
0.00213952
-0.0449512
0.00209594
-0.0452224
0.00223334
-0.0455766
0.00239669
-0.0459918
0.00245275
-0.0464303
0.00233793
-0.0468619
0.00207435
-0.0472896
0.00175836
-0.047747
0.00149336
0.00135278
0.207447
0.00576099
0.207034
0.0111766
0.206431
0.0163522
0.205647
0.0213709
0.204687
0.0262975
0.203559
0.0311863
0.202269
0.0360846
0.200823
0.0410344
0.199226
0.0460725
0.197484
0.051232
0.195603
0.0565432
0.193587
0.0620344
0.191443
0.0677329
0.189175
0.073666
0.186789
0.0798624
0.184288
0.0863533
0.181676
0.0931745
0.178954
0.100369
0.176123
0.107991
0.173181
0.116109
0.170125
0.124814
0.166948
0.134231
0.163648
0.144531
0.160226
0.155957
0.156705
0.168863
0.153182
0.183776
0.150025
0.201493
0.14892
0.222925
0.160692
0.245545
0.258621
0.236499
0.21249
0.00595348
0.212117
0.0115496
0.211574
0.016896
0.210867
0.0220771
0.210007
0.0271583
0.208999
0.0321942
0.207851
0.0372322
0.206571
0.0423141
0.205167
0.0474767
0.203646
0.0527527
0.202018
0.0581719
0.20029
0.0637621
0.198473
0.0695498
0.196577
0.0755616
0.194615
0.081825
0.192598
0.0883701
0.190542
0.0952308
0.188463
0.102448
0.186384
0.11007
0.184333
0.11816
0.18235
0.126797
0.180497
0.136084
0.178873
0.146156
0.177649
0.157181
0.177149
0.169363
0.178029
0.182897
0.181708
0.197814
0.190795
0.213837
0.206303
0.230037
0.245479
0.219445
0.217658
0.00612349
0.217328
0.0118788
0.21685
0.0173749
0.21623
0.0226971
0.215477
0.0279111
0.2146
0.0330712
0.213607
0.0382249
0.212508
0.0434134
0.211312
0.0486728
0.210029
0.0540351
0.208672
0.059529
0.207253
0.0651811
0.205787
0.0710164
0.204288
0.0770597
0.202777
0.083336
0.201275
0.0898721
0.199809
0.0966976
0.19841
0.103847
0.19712
0.111359
0.195997
0.119283
0.195118
0.127676
0.194596
0.136606
0.194602
0.14615
0.195399
0.156384
0.197398
0.167363
0.20121
0.179084
0.207605
0.191419
0.21724
0.204203
0.229825
0.217452
0.228588
0.246716
0.222951
0.00626902
0.22267
0.0121602
0.222261
0.0177833
0.221735
0.0232237
0.221099
0.028547
0.220363
0.0338073
0.219536
0.0390511
0.218631
0.044319
0.217657
0.0496462
0.216629
0.0550633
0.215561
0.0605974
0.214469
0.0662733
0.213371
0.0721137
0.212291
0.0781404
0.211252
0.0843747
0.210285
0.0908387
0.209427
0.0975554
0.208724
0.10455
0.208234
0.111849
0.208034
0.119484
0.208225
0.127484
0.20895
0.135882
0.210399
0.1447
0.212838
0.153945
0.216612
0.16359
0.22214
0.173557
0.229868
0.183691
0.240366
0.193705
0.254547
0.203271
0.210134
0.273
0.228374
0.00638823
0.228144
0.0123904
0.227811
0.0181161
0.227385
0.0236504
0.226873
0.0290582
0.226288
0.034393
0.225638
0.0397003
0.224938
0.0450195
0.2242
0.0503843
0.223439
0.0558238
0.222674
0.061363
0.221923
0.0670242
0.22121
0.072827
0.22056
0.0787897
0.220006
0.0849288
0.219585
0.0912603
0.21934
0.0977995
0.219329
0.104561
0.219621
0.111558
0.220302
0.118802
0.221487
0.1263
0.22332
0.134049
0.225985
0.142035
0.229714
0.150216
0.234784
0.158519
0.241525
0.166816
0.250313
0.174903
0.261592
0.182426
0.275834
0.18903
0.19363
0.292338
0.233929
0.00647941
0.233754
0.0125661
0.233501
0.0183686
0.23318
0.023971
0.232801
0.0294375
0.232374
0.0348201
0.231911
0.0401633
0.231426
0.0455048
0.230933
0.0508768
0.230451
0.0563059
0.229999
0.061815
0.2296
0.0674234
0.22928
0.0731473
0.229069
0.0790004
0.229003
0.0849944
0.229125
0.0911384
0.229485
0.0974394
0.230145
0.103901
0.231178
0.110525
0.232676
0.117304
0.234751
0.124225
0.237538
0.131262
0.2412
0.138372
0.245931
0.145486
0.251949
0.152501
0.259495
0.159269
0.268812
0.165587
0.280075
0.171163
0.293378
0.175727
0.178766
0.308242
0.23962
0.00654108
0.239501
0.0126843
0.239333
0.0185366
0.239124
0.0241805
0.238883
0.0296786
0.238621
0.0350817
0.238352
0.0404326
0.238089
0.0457672
0.237851
0.0511154
0.237655
0.0565018
0.237523
0.0619465
0.237481
0.0674653
0.237558
0.0730709
0.237786
0.0787726
0.238204
0.0845763
0.238857
0.0904848
0.2398
0.096497
0.241094
0.102608
0.242813
0.108805
0.245047
0.115071
0.247896
0.121376
0.251481
0.127677
0.255937
0.133916
0.261412
0.140011
0.268063
0.14585
0.276039
0.151294
0.285458
0.156167
0.296366
0.160255
0.30875
0.163343
0.165165
0.322351
0.245448
0.00657198
0.24539
0.0127428
0.24531
0.0186168
0.245216
0.0242745
0.245118
0.0297767
0.245027
0.0351724
0.244957
0.0405025
0.244923
0.0458009
0.244944
0.0510951
0.245038
0.0564072
0.24523
0.0617543
0.245547
0.0671491
0.246017
0.0726003
0.246677
0.0781127
0.247566
0.0836873
0.24873
0.0893205
0.250223
0.0950046
0.252104
0.100726
0.254445
0.106464
0.257324
0.112191
0.260831
0.117869
0.265064
0.123445
0.270127
0.128853
0.276126
0.134011
0.283162
0.138815
0.291313
0.143142
0.300627
0.146853
0.311092
0.14979
0.322641
0.151794
0.152736
0.33507
0.251418
0.00657108
0.251421
0.0127395
0.251432
0.0186064
0.251457
0.0242496
0.251505
0.0297279
0.25159
0.0350882
0.251723
0.0403692
0.251921
0.0456025
0.252203
0.0508133
0.252589
0.0560209
0.253104
0.0612395
0.253775
0.0664786
0.254632
0.0717432
0.25571
0.077034
0.25705
0.0823472
0.258697
0.0876744
0.260699
0.093002
0.263115
0.0983105
0.266005
0.103574
0.26944
0.108757
0.273491
0.113818
0.278234
0.118701
0.283745
0.123342
0.290093
0.127663
0.297334
0.131574
0.305502
0.134974
0.314598
0.137757
0.324576
0.139812
0.335338
0.141033
0.141362
0.346712
0.257532
0.00653764
0.257599
0.012673
0.257702
0.0185034
0.257848
0.0241036
0.258046
0.0295299
0.258307
0.0348269
0.258645
0.040031
0.259077
0.0451713
0.259619
0.0502705
0.260295
0.0553453
0.261127
0.0604071
0.262144
0.0654622
0.263375
0.0705124
0.264854
0.0755548
0.266619
0.0805817
0.268713
0.0855809
0.27118
0.0905345
0.274072
0.0954192
0.27744
0.100205
0.281341
0.104856
0.285832
0.109327
0.290966
0.113567
0.296795
0.117514
0.303356
0.121101
0.310676
0.124255
0.318755
0.126895
0.327566
0.128946
0.337046
0.130332
0.347089
0.130989
0.130897
0.357554
0.263794
0.00647118
0.263925
0.0125425
0.264121
0.0183067
0.26439
0.0238353
0.264738
0.0291817
0.265177
0.0343879
0.26572
0.039488
0.266382
0.0445086
0.267183
0.0494698
0.268142
0.0543859
0.269284
0.0592655
0.270634
0.0641122
0.272221
0.068925
0.274078
0.0736981
0.276239
0.0784209
0.278741
0.0830783
0.281626
0.0876501
0.284934
0.0921108
0.28871
0.0964297
0.292995
0.10057
0.297832
0.104491
0.303256
0.108143
0.309296
0.111474
0.315969
0.114428
0.323276
0.116947
0.331199
0.118972
0.339695
0.12045
0.348694
0.121334
0.358097
0.121586
0.121208
0.367786
0.270207
0.00637153
0.270402
0.0123476
0.270692
0.0180161
0.271083
0.0234446
0.271581
0.0286836
0.272197
0.0337724
0.272942
0.0387426
0.273832
0.0436183
0.274885
0.0484172
0.27612
0.0531512
0.277559
0.0578265
0.279226
0.0624445
0.28115
0.0670017
0.283357
0.0714903
0.28588
0.0758978
0.288751
0.0802074
0.292004
0.0843978
0.295671
0.0884432
0.299787
0.0923137
0.304383
0.0959749
0.309485
0.0993887
0.315114
0.102514
0.321282
0.105306
0.32799
0.10772
0.335223
0.109714
0.342952
0.111244
0.351125
0.112276
0.359675
0.112784
0.368512
0.112749
0.112184
0.377537
0.276774
0.00623878
0.277033
0.0120886
0.277417
0.017632
0.277929
0.0229324
0.278575
0.0280373
0.279364
0.0329832
0.280308
0.0377989
0.28142
0.0425064
0.282716
0.0471209
0.284215
0.0516523
0.285937
0.0561046
0.287904
0.0604775
0.29014
0.0647658
0.29267
0.0689602
0.295521
0.0730472
0.298719
0.0770094
0.302291
0.0808256
0.306263
0.0844712
0.310658
0.0879181
0.315498
0.0911356
0.320796
0.0940905
0.326561
0.0967482
0.332793
0.0990737
0.339481
0.101033
0.3466
0.102594
0.354115
0.103729
0.361973
0.104418
0.37011
0.104647
0.378448
0.104412
0.103729
0.386903
0.283498
0.00607332
0.28382
0.0117663
0.284297
0.0171557
0.284928
0.0223009
0.28572
0.0272458
0.286678
0.0320244
0.287815
0.0366628
0.28914
0.0411807
0.29067
0.0455913
0.29242
0.0499023
0.294408
0.0541165
0.296653
0.0582319
0.299177
0.0622423
0.302
0.0661376
0.305143
0.0699042
0.308627
0.0735248
0.312473
0.0769795
0.316699
0.0802455
0.321319
0.0832978
0.326345
0.0861096
0.331782
0.0886535
0.337629
0.0909015
0.343876
0.0928268
0.350504
0.0944044
0.357485
0.095613
0.364779
0.0964355
0.372336
0.0968611
0.380097
0.0968861
0.387995
0.0965138
0.0957647
0.39596
0.290384
0.00587578
0.290768
0.0113819
0.291335
0.0165893
0.292083
0.0215529
0.293015
0.0263134
0.294138
0.0309017
0.295459
0.0353417
0.296989
0.0396507
0.29874
0.0438402
0.300726
0.0479163
0.302962
0.0518804
0.305464
0.0557296
0.30825
0.0594572
0.311334
0.0630528
0.314735
0.0665033
0.318468
0.0697925
0.322545
0.0729022
0.326978
0.075812
0.331776
0.0785006
0.33694
0.0809455
0.342469
0.0831245
0.348354
0.0850163
0.35458
0.086601
0.361122
0.0878615
0.367951
0.0887844
0.375026
0.0893606
0.3823
0.0895867
0.389721
0.0894651
0.397231
0.0890039
0.0882243
0.404772
0.297435
0.00564702
0.297879
0.0109371
0.298533
0.0159355
0.299394
0.0206923
0.300462
0.025245
0.301742
0.0296218
0.30324
0.0338441
0.304963
0.0379273
0.306922
0.041881
0.309128
0.0457103
0.311593
0.0494154
0.31433
0.052993
0.317351
0.0564362
0.320668
0.0597352
0.324294
0.0628775
0.328238
0.0658487
0.332508
0.0686324
0.337108
0.0712114
0.342041
0.0735677
0.347303
0.0756834
0.352886
0.0775413
0.358777
0.0791255
0.364956
0.0804223
0.371397
0.0814209
0.378067
0.0821138
0.38493
0.082498
0.391942
0.0825749
0.399056
0.0823508
0.406223
0.0818366
0.0810529
0.413394
0.304654
0.00538811
0.305157
0.0104342
0.305895
0.0151974
0.306864
0.0197236
0.308062
0.0240467
0.309492
0.0281923
0.311156
0.0321796
0.313061
0.0360219
0.315215
0.0397277
0.317624
0.0433008
0.320299
0.0467409
0.323247
0.0500445
0.326478
0.0532049
0.330001
0.056213
0.33382
0.0590577
0.337943
0.0617262
0.342371
0.0642046
0.347103
0.0664787
0.352137
0.0685338
0.357465
0.0703563
0.363073
0.0719332
0.368945
0.0732534
0.375059
0.0743083
0.381388
0.0750918
0.3879
0.0756012
0.394561
0.0758373
0.401331
0.0758049
0.408169
0.0755126
0.415034
0.0749724
0.0742038
0.421883
0.312046
0.00510025
0.312605
0.00987541
0.313424
0.0143788
0.314495
0.0186517
0.315817
0.022725
0.317388
0.0266215
0.319209
0.0303582
0.321284
0.0339469
0.323617
0.0373948
0.326213
0.0407047
0.329078
0.0438762
0.332217
0.0469057
0.335635
0.0497872
0.339335
0.0525124
0.343321
0.0550717
0.347593
0.0574543
0.352149
0.0596487
0.356984
0.0616434
0.362091
0.0634272
0.367458
0.0649897
0.373069
0.0663221
0.378905
0.0674171
0.384943
0.0682699
0.391157
0.0688781
0.397516
0.0692422
0.403988
0.0693659
0.410537
0.0692559
0.417127
0.0689219
0.423723
0.0683762
0.0676369
0.43029
0.319615
0.00478477
0.320227
0.00926338
0.321122
0.0134835
0.322292
0.0174821
0.32373
0.0212868
0.325434
0.0249179
0.327402
0.0283904
0.329634
0.0317146
0.332132
0.0348964
0.334899
0.0379383
0.337935
0.0408396
0.341244
0.043597
0.344826
0.0462051
0.348682
0.0486569
0.352809
0.0509443
0.357205
0.0530583
0.361864
0.0549898
0.366777
0.0567298
0.371934
0.0582701
0.377321
0.0596034
0.382919
0.0607239
0.388709
0.0616275
0.394666
0.0623123
0.400766
0.0627786
0.406979
0.0630292
0.413275
0.0630695
0.419624
0.0629071
0.425994
0.0625522
0.432353
0.0620168
0.0613172
0.438673
0.327365
0.00444303
0.328028
0.00860079
0.328996
0.0125155
0.330257
0.0162202
0.331805
0.0197391
0.333633
0.0230902
0.335737
0.0262866
0.338114
0.0293369
0.340764
0.0322465
0.343685
0.0350172
0.346877
0.0376484
0.350336
0.0401371
0.354063
0.0424788
0.358052
0.0446675
0.3623
0.0466968
0.366799
0.0485594
0.37154
0.0502483
0.376513
0.051757
0.381704
0.0530795
0.387096
0.0542112
0.392671
0.0551486
0.398408
0.0558902
0.404284