/*--------------------------------*- C++ -*----------------------------------*\
  =========                 |
  \\      /  F ield         | OpenFOAM: The Open Source CFD Toolbox
   \\    /   O peration     | Website:  https://openfoam.org
    \\  /    A nd           | Version:  7
     \\/     M anipulation  |
\*---------------------------------------------------------------------------*/
FoamFile
{
    version     2.0;
    format      ascii;
    class       volVectorField;
    location    "3.1";
    object      U;
}
// * * * * * * * * * * * * * * * * * * * * * * * * * * * * * * * * * * * * * //

dimensions      [0 1 -1 0 0 0 0];

internalField   nonuniform List<vector> 
2790
(
(9.94399 0.0205236 0)
(9.87572 0.0295886 0)
(9.7752 0.0359909 0)
(9.64942 0.042558 0)
(9.50407 0.0493877 0)
(9.34004 0.056431 0)
(9.15651 0.0638189 0)
(8.95258 0.0717149 0)
(8.72741 0.0802586 0)
(8.48002 0.089577 0)
(8.2092 0.0997969 0)
(7.91356 0.111049 0)
(7.59159 0.123463 0)
(7.24169 0.137168 0)
(6.86223 0.152275 0)
(6.4517 0.168872 0)
(6.00879 0.186999 0)
(5.5326 0.20662 0)
(5.02289 0.22759 0)
(4.48038 0.24961 0)
(3.9071 0.272175 0)
(3.30679 0.294523 0)
(2.68526 0.315617 0)
(2.05061 0.334286 0)
(1.4118 0.350603 0)
(0.798051 0.372881 0)
(0.110741 0.325061 0)
(-0.469536 -0.114847 0)
(-0.453764 -0.297137 0)
(-0.231153 -0.423842 0)
(9.9985 0.0407043 0)
(9.98145 0.0623855 0)
(9.93574 0.0791443 0)
(9.86415 0.0966302 0)
(9.77095 0.115131 0)
(9.65712 0.134496 0)
(9.52202 0.154983 0)
(9.3648 0.176952 0)
(9.18466 0.200717 0)
(8.9806 0.226559 0)
(8.75145 0.254753 0)
(8.4958 0.285568 0)
(8.21211 0.319256 0)
(7.89873 0.356028 0)
(7.55395 0.396024 0)
(7.1761 0.439264 0)
(6.7637 0.485592 0)
(6.31558 0.534584 0)
(5.83118 0.585457 0)
(5.31082 0.636947 0)
(4.75611 0.687195 0)
(4.17039 0.733637 0)
(3.55928 0.772943 0)
(2.93155 0.801084 0)
(2.29996 0.813742 0)
(1.69297 0.807249 0)
(1.10718 0.747253 0)
(0.658915 0.547938 0)
(0.186468 0.224624 0)
(-0.00819401 -0.453716 0)
(9.99559 0.0432092 0)
(9.97556 0.0752763 0)
(9.93179 0.103353 0)
(9.86488 0.13238 0)
(9.77776 0.16307 0)
(9.67152 0.195411 0)
(9.54584 0.229757 0)
(9.40009 0.266618 0)
(9.23359 0.306485 0)
(9.04557 0.349822 0)
(8.83501 0.397086 0)
(8.60073 0.448734 0)
(8.34136 0.505202 0)
(8.05541 0.56687 0)
(7.74128 0.634014 0)
(7.39735 0.706729 0)
(7.02202 0.784831 0)
(6.61388 0.867713 0)
(6.17187 0.954179 0)
(5.69558 1.04223 0)
(5.18559 1.12886 0)
(4.64394 1.20976 0)
(4.07479 1.27913 0)
(3.48538 1.32931 0)
(2.88686 1.35007 0)
(2.29949 1.32642 0)
(1.73187 1.22078 0)
(1.21628 0.973024 0)
(0.701161 0.570177 0)
(0.358046 -0.156519 0)
(9.99403 0.0495024 0)
(9.97181 0.0932127 0)
(9.92787 0.133582 0)
(9.86223 0.174222 0)
(9.77691 0.216449 0)
(9.67295 0.260679 0)
(9.55027 0.307449 0)
(9.40844 0.357436 0)
(9.24696 0.411312 0)
(9.06526 0.469725 0)
(8.86261 0.53332 0)
(8.63811 0.602739 0)
(8.39076 0.678604 0)
(8.11942 0.761481 0)
(7.8229 0.851821 0)
(7.49991 0.949869 0)
(7.14915 1.05553 0)
(6.76936 1.16822 0)
(6.35942 1.28658 0)
(5.91854 1.40823 0)
(5.44649 1.52943 0)
(4.94398 1.64465 0)
(4.41316 1.74611 0)
(3.85828 1.82319 0)
(3.28584 1.86134 0)
(2.70643 1.84032 0)
(2.12568 1.72601 0)
(1.55429 1.47789 0)
(0.957968 1.08374 0)
(0.509433 0.50237 0)
(9.99331 0.0572177 0)
(9.96994 0.110967 0)
(9.92592 0.162117 0)
(9.86144 0.213364 0)
(9.77796 0.266377 0)
(9.67632 0.321937 0)
(9.5565 0.380727 0)
(9.41816 0.443515 0)
(9.26091 0.511083 0)
(9.08426 0.584196 0)
(8.88762 0.663611 0)
(8.67029 0.750083 0)
(8.43149 0.844349 0)
(8.17036 0.947091 0)
(7.88597 1.05888 0)
(7.57738 1.18006 0)
(7.24357 1.31066 0)
(6.88352 1.45015 0)
(6.49621 1.59718 0)
(6.08067 1.74928 0)
(5.63611 1.90236 0)
(5.16209 2.05026 0)
(4.65877 2.18412 0)
(4.12723 2.2917 0)
(3.56943 2.35653 0)
(2.98893 2.35731 0)
(2.38687 2.26496 0)
(1.76642 2.04767 0)
(1.09002 1.69145 0)
(0.536664 1.15421 0)
(9.99302 0.0655437 0)
(9.96922 0.128712 0)
(9.92555 0.190129 0)
(9.86251 0.251864 0)
(9.78126 0.315604 0)
(9.68241 0.382348 0)
(9.56596 0.452906 0)
(9.43166 0.528135 0)
(9.27914 0.608914 0)
(9.10798 0.696116 0)
(8.91768 0.790608 0)
(8.70764 0.893248 0)
(8.47718 1.00487 0)
(8.22556 1.12627 0)
(7.95203 1.25809 0)
(7.65577 1.4008 0)
(7.33592 1.55452 0)
(6.99154 1.71882 0)
(6.6216 1.8925 0)
(6.22493 2.07316 0)
(5.80023 2.25678 0)
(5.34601 2.43713 0)
(4.8607 2.60513 0)
(4.34272 2.74816 0)
(3.79043 2.8495 0)
(3.20262 2.88818 0)
(2.57662 2.83824 0)
(1.91351 2.67165 0)
(1.17278 2.37406 0)
(0.549983 1.89448 0)
(9.99297 0.0740809 0)
(9.96926 0.146326 0)
(9.92636 0.217502 0)
(9.86507 0.289317 0)
(9.7864 0.363385 0)
(9.69081 0.440862 0)
(9.5783 0.522699 0)
(9.44866 0.609851 0)
(9.30158 0.703296 0)
(9.13669 0.804004 0)
(8.95355 0.912935 0)
(8.75159 1.03104 0)
(8.53022 1.15924 0)
(8.28875 1.29841 0)
(8.02646 1.4493 0)
(7.74256 1.61246 0)
(7.43617 1.78815 0)
(7.10629 1.97611 0)
(6.75171 2.17534 0)
(6.37093 2.38374 0)
(5.96204 2.59765 0)
(5.52261 2.81129 0)
(5.04952 3.01606 0)
(4.53903 3.19988 0)
(3.98671 3.34662 0)
(3.38797 3.43593 0)
(2.73732 3.44332 0)
(2.0363 3.34154 0)
(1.24179 3.11366 0)
(0.563536 2.69325 0)
(9.99306 0.0825951 0)
(9.96981 0.163621 0)
(9.92806 0.244072 0)
(9.86883 0.325509 0)
(9.7931 0.409482 0)
(9.70122 0.497247 0)
(9.59318 0.589884 0)
(9.46882 0.688443 0)
(9.32788 0.793988 0)
(9.17005 0.907576 0)
(8.99492 1.03026 0)
(8.80199 1.16307 0)
(8.59069 1.30703 0)
(8.36037 1.4631 0)
(8.11031 1.63215 0)
(7.83966 1.81485 0)
(7.54747 2.01163 0)
(7.23254 2.22246 0)
(6.89339 2.44666 0)
(6.52807 2.68259 0)
(6.13402 2.92724 0)
(5.70781 3.17565 0)
(5.24497 3.42025 0)
(4.73981 3.65009 0)
(4.18555 3.85015 0)
(3.57484 4.00084 0)
(2.89962 4.07791 0)
(2.1622 4.05244 0)
(1.31618 3.9018 0)
(0.58325 3.54029 0)
(9.99326 0.0909365 0)
(9.97072 0.180425 0)
(9.93045 0.269693 0)
(9.8736 0.360275 0)
(9.80115 0.453688 0)
(9.7134 0.551257 0)
(9.61033 0.654164 0)
(9.49182 0.763551 0)
(9.35768 0.880561 0)
(9.20764 1.00633 0)
(9.04134 1.14201 0)
(8.85835 1.28871 0)
(8.65813 1.44755 0)
(8.44007 1.61961 0)
(8.20342 1.80587 0)
(7.9473 2.00719 0)
(7.67062 2.22421 0)
(7.37201 2.45721 0)
(7.04966 2.70596 0)
(6.70116 2.96945 0)
(6.32326 3.24553 0)
(5.9116 3.53038 0)
(5.46036 3.81792 0)
(4.96205 4.09885 0)
(4.40749 4.35975 0)
(3.78652 4.58203 0)
(3.0877 4.74107 0)
(2.31283 4.80453 0)
(1.41074 4.74123 0)
(0.614353 4.44211 0)
(9.99352 0.0990015 0)
(9.9719 0.196598 0)
(9.93339 0.294224 0)
(9.87922 0.393455 0)
(9.81037 0.495803 0)
(9.72713 0.602643 0)
(9.62948 0.715243 0)
(9.51734 0.834826 0)
(9.3906 0.96261 0)
(9.24902 1.09981 0)
(9.09233 1.24765 0)
(8.92014 1.40734 0)
(8.73198 1.58011 0)
(8.52726 1.76713 0)
(8.30526 1.96956 0)
(8.06508 2.18846 0)
(7.80554 2.42475 0)
(7.52512 2.67909 0)
(7.22175 2.95182 0)
(6.89263 3.24268 0)
(6.53392 3.55063 0)
(6.14041 3.87331 0)
(5.70504 4.20651 0)
(5.21853 4.5432 0)
(4.6691 4.87228 0)
(4.04302 5.17687 0)
(3.32387 5.43229 0)
(2.50995 5.60206 0)
(1.54201 5.64369 0)
(0.664124 5.41831 0)
(9.99384 0.106715 0)
(9.9733 0.212022 0)
(9.93679 0.317535 0)
(9.88556 0.424899 0)
(9.8206 0.535642 0)
(9.74221 0.651182 0)
(9.65039 0.772856 0)
(9.5451 0.901958 0)
(9.42628 1.03977 0)
(9.29379 1.18759 0)
(9.14739 1.3467 0)
(8.98679 1.51841 0)
(8.81158 1.70404 0)
(8.62125 1.9049 0)
(8.41512 2.12232 0)
(8.19232 2.35758 0)
(7.95167 2.61192 0)
(7.69158 2.88646 0)
(7.40986 3.18216 0)
(7.10347 3.4997 0)
(6.76821 3.83928 0)
(6.39825 4.20032 0)
(5.98553 4.58094 0)
(5.51913 4.97709 0)
(4.9845 5.3811 0)
(4.36346 5.77941 0)
(3.63215 6.14909 0)
(2.78039 6.45077 0)
(1.73367 6.62878 0)
(0.744942 6.5035 0)
(9.9942 0.114018 0)
(9.97487 0.226599 0)
(9.94054 0.33951 0)
(9.8925 0.454472 0)
(9.8317 0.573043 0)
(9.75846 0.696679 0)
(9.67282 0.826771 0)
(9.5748 0.964676 0)
(9.46438 1.11174 0)
(9.3415 1.2693 0)
(9.20601 1.43873 0)
(9.0577 1.62141 0)
(8.89626 1.81875 0)
(8.72127 2.0322 0)
(8.53215 2.26325 0)
(8.32813 2.51343 0)
(8.10811 2.7843 0)
(7.87057 3.07747 0)
(7.61338 3.39459 0)
(7.33352 3.73731 0)
(7.02674 4.10722 0)
(6.68702 4.50576 0)
(6.30583 4.93381 0)
(5.87111 5.39113 0)
(5.36591 5.87506 0)
(4.76714 6.37801 0)
(4.04106 6.88312 0)
(3.16186 7.35361 0)
(2.02509 7.72359 0)
(0.880923 7.75772 0)
(9.99459 0.120866 0)
(9.97657 0.240251 0)
(9.9446 0.360048 0)
(9.89993 0.482055 0)
(9.84353 0.607862 0)
(9.77571 0.73896 0)
(9.69656 0.876784 0)
(9.60614 1.02274 0)
(9.50453 1.17822 0)
(9.39172 1.34461 0)
(9.26766 1.52335 0)
(9.13224 1.71587 0)
(8.98527 1.92368 0)
(8.82646 2.14835 0)
(8.65538 2.39151 0)
(8.47141 2.65493 0)
(8.27364 2.94049 0)
(8.06079 3.25025 0)
(7.83098 3.58654 0)
(7.58152 3.95198 0)
(7.30855 4.34958 0)
(7.00646 4.78283 0)
(6.6671 5.25573 0)
(6.27846 5.77254 0)
(5.82258 6.33727 0)
(5.27277 6.95205 0)
(4.58499 7.61343 0)
(3.71056 8.301 0)
(2.48878 8.95875 0)
(1.12483 9.29426 0)
(9.99501 0.127225 0)
(9.97837 0.252914 0)
(9.9489 0.379066 0)
(9.90777 0.507547 0)
(9.85595 0.639982 0)
(9.79376 0.777888 0)
(9.72136 0.922736 0)
(9.63884 1.07596 0)
(9.54636 1.239 0)
(9.44399 1.41328 0)
(9.33179 1.60027 0)
(9.20976 1.80146 0)
(9.07783 2.01842 0)
(8.9359 2.25282 0)
(8.7837 2.50643 0)
(8.62086 2.78119 0)
(8.44676 3.07926 0)
(8.26047 3.40311 0)
(8.0606 3.75562 0)
(7.84511 4.14029 0)
(7.61099 4.56139 0)
(7.3538 5.02433 0)
(7.06694 5.53608 0)
(6.74032 6.10562 0)
(6.35801 6.74468 0)
(5.89439 7.46837 0)
(5.3014 8.2959 0)
(4.5098 9.24791 0)
(3.26991 10.3425 0)
(1.60577 11.361 0)
(9.99544 0.133067 0)
(9.98026 0.264536 0)
(9.95338 0.396492 0)
(9.91593 0.530855 0)
(9.86884 0.669281 0)
(9.81247 0.813309 0)
(9.747 0.964431 0)
(9.67262 1.12411 0)
(9.58951 1.29381 0)
(9.49787 1.47497 0)
(9.39785 1.66908 0)
(9.28957 1.87769 0)
(9.17313 2.1024 0)
(9.04859 2.34493 0)
(8.91593 2.60715 0)
(8.77505 2.89114 0)
(8.6257 3.19925 0)
(8.46744 3.53424 0)
(8.29953 3.8994 0)
(8.12087 4.29884 0)
(7.92973 4.73777 0)
(7.72357 5.22304 0)
(7.49857 5.76387 0)
(7.24885 6.37309 0)
(6.96494 7.06915 0)
(6.63135 7.87992 0)
(6.21531 8.85089 0)
(5.66745 10.0652 0)
(4.69253 11.7315 0)
(2.68935 14.5964 0)
(0.1516 -0.157474 0)
(0.345813 -0.139236 0)
(0.547759 -0.112355 0)
(0.723025 -0.0889236 0)
(0.866882 -0.0703203 0)
(0.985024 -0.0558136 0)
(1.08383 -0.0445846 0)
(1.16805 -0.0359582 0)
(1.24108 -0.0293315 0)
(1.30539 -0.0241602 0)
(1.36269 -0.0199859 0)
(1.41403 -0.0164698 0)
(1.46001 -0.0134125 0)
(1.501 -0.0107084 0)
(1.53727 -0.00819082 0)
(1.56864 -0.00546316 0)
(1.59384 -0.00198812 0)
(1.61046 0.00239669 0)
(1.61663 0.00695259 0)
(1.61285 0.0096965 0)
(1.60196 0.0105134 0)
(1.58763 0.00987757 0)
(1.57175 0.00854144 0)
(1.55644 0.00632899 0)
(1.54526 0.00314287 0)
(1.54259 -0.000848618 0)
(1.55201 -0.00466958 0)
(1.57394 -0.00783046 0)
(1.60633 -0.00960334 0)
(1.65295 -0.00855609 0)
(0.119443 -0.342958 0)
(0.304945 -0.316297 0)
(0.487655 -0.262341 0)
(0.648674 -0.213296 0)
(0.784395 -0.173995 0)
(0.899575 -0.143288 0)
(0.999304 -0.119539 0)
(1.08735 -0.101329 0)
(1.16643 -0.0873584 0)
(1.23854 -0.0764327 0)
(1.30508 -0.0675293 0)
(1.3669 -0.0598858 0)
(1.42444 -0.053088 0)
(1.47795 -0.0470117 0)
(1.52788 -0.0414522 0)
(1.57475 -0.0356117 0)
(1.61859 -0.0281892 0)
(1.65798 -0.0187315 0)
(1.69033 -0.00889254 0)
(1.71433 -0.00124136 0)
(1.73241 0.00475218 0)
(1.74738 0.00980897 0)
(1.75975 0.0116728 0)
(1.77119 0.0102077 0)
(1.78322 0.00552035 0)
(1.79624 -0.00161562 0)
(1.81011 -0.0101049 0)
(1.82534 -0.0191272 0)
(1.8427 -0.0268756 0)
(1.8695 -0.0285078 0)
(0.0881229 -0.529424 0)
(0.242438 -0.493055 0)
(0.381939 -0.412934 0)
(0.505395 -0.339637 0)
(0.608926 -0.280717 0)
(0.696925 -0.234407 0)
(0.773096 -0.198331 0)
(0.840149 -0.170399 0)
(0.900115 -0.148719 0)
(0.954534 -0.131562 0)
(1.0045 -0.117414 0)
(1.05063 -0.105101 0)
(1.09311 -0.0940054 0)
(1.13188 -0.0841191 0)
(1.16711 -0.075527 0)
(1.19974 -0.0672719 0)
(1.23099 -0.0566934 0)
(1.26042 -0.0416993 0)
(1.28501 -0.0256688 0)
(1.30162 -0.015655 0)
(1.31352 -0.0122139 0)
(1.32392 -0.0103137 0)
(1.3265 -0.00877529 0)
(1.32004 -0.00977477 0)
(1.30746 -0.0136414 0)
(1.29255 -0.0176149 0)
(1.27337 -0.0203411 0)
(1.2499 -0.0228699 0)
(1.22491 -0.0254326 0)
(1.2036 -0.0252225 0)
(0.0594978 -0.666693 0)
(0.173771 -0.614952 0)
(0.260564 -0.511823 0)
(0.339415 -0.420429 0)
(0.402711 -0.347578 0)
(0.455575 -0.290322 0)
(0.500028 -0.245691 0)
(0.537681 -0.211074 0)
(0.569869 -0.184164 0)
(0.597669 -0.162874 0)
(0.621932 -0.145316 0)
(0.643231 -0.129918 0)
(0.661776 -0.115732 0)
(0.676839 -0.102752 0)
(0.687488 -0.0916728 0)
(0.694209 -0.0826458 0)
(0.700047 -0.0736201 0)
(0.708445 -0.0612059 0)
(0.718479 -0.0426031 0)
(0.703403 -0.0206619 0)
(0.652869 -0.00428523 0)
(0.597431 0.0072088 0)
(0.550945 0.0186461 0)
(0.505258 0.024624 0)
(0.4597 0.0235129 0)
(0.419747 0.0176239 0)
(0.401972 0.0094408 0)
(0.393673 -8.11894e-05 0)
(0.394443 -0.0118223 0)
(0.410587 -0.0281562 0)
(0.0306245 -0.757752 0)
(0.0971531 -0.685805 0)
(0.124333 -0.563176 0)
(0.154411 -0.460108 0)
(0.171387 -0.378198 0)
(0.182771 -0.313701 0)
(0.188499 -0.263318 0)
(0.189397 -0.224129 0)
(0.186206 -0.193625 0)
(0.179575 -0.169589 0)
(0.170212 -0.149979 0)
(0.158956 -0.132922 0)
(0.146742 -0.116879 0)
(0.132279 -0.101188 0)
(0.113566 -0.0862595 0)
(0.0865243 -0.0720941 0)
(0.0475103 -0.055984 0)
(0.005586 -0.0334356 0)
(-0.0428061 -0.00395422 0)
(-0.0694104 0.0229223 0)
(-0.0895856 0.0374435 0)
(-0.109313 0.0419668 0)
(-0.126768 0.042614 0)
(-0.143147 0.0394347 0)
(-0.158095 0.0298745 0)
(-0.169981 0.0149271 0)
(-0.172024 -8.85477e-05 0)
(-0.168756 -0.0132982 0)
(-0.164632 -0.0268124 0)
(-0.162738 -0.0405991 0)
(-0.000161762 -0.794509 0)
(0.011844 -0.698871 0)
(-0.0234103 -0.559966 0)
(-0.0461543 -0.450768 0)
(-0.0797763 -0.363613 0)
(-0.114981 -0.295354 0)
(-0.153212 -0.242185 0)
(-0.193751 -0.200872 0)
(-0.236172 -0.168571 0)
(-0.280098 -0.142891 0)
(-0.324946 -0.12182 0)
(-0.369786 -0.103667 0)
(-0.413454 -0.087103 0)
(-0.454854 -0.0713139 0)
(-0.493261 -0.0560432 0)
(-0.528595 -0.041342 0)
(-0.561039 -0.0270054 0)
(-0.588905 -0.0122853 0)
(-0.609213 0.0029185 0)
(-0.619012 0.0189769 0)
(-0.626835 0.0335228 0)
(-0.632107 0.041972 0)
(-0.635161 0.0441347 0)
(-0.636713 0.0410595 0)
(-0.638327 0.0324515 0)
(-0.640951 0.0196187 0)
(-0.643479 0.00522406 0)
(-0.643913 -0.00984993 0)
(-0.646783 -0.0250568 0)
(-0.651274 -0.0379642 0)
(-0.036182 -0.768634 0)
(-0.0842076 -0.64713 0)
(-0.178121 -0.504506 0)
(-0.258224 -0.394316 0)
(-0.341662 -0.307706 0)
(-0.422665 -0.240856 0)
(-0.500741 -0.189589 0)
(-0.574809 -0.150688 0)
(-0.643952 -0.121325 0)
(-0.7076 -0.0990676 0)
(-0.765514 -0.0818807 0)
(-0.817647 -0.0680311 0)
(-0.864045 -0.0560649 0)
(-0.904833 -0.0448766 0)
(-0.940266 -0.0337836 0)
(-0.970729 -0.0224641 0)
(-0.996448 -0.0107417 0)
(-1.01725 0.00173626 0)
(-1.02969 0.0144875 0)
(-1.03712 0.0263921 0)
(-1.04023 0.0362144 0)
(-1.04022 0.0420412 0)
(-1.03827 0.0432856 0)
(-1.03558 0.0397331 0)
(-1.0337 0.0311772 0)
(-1.03376 0.0187312 0)
(-1.03564 0.00464586 0)
(-1.03844 -0.00981823 0)
(-1.04398 -0.0246996 0)
(-1.04914 -0.03706 0)
(-0.0783418 -0.678616 0)
(-0.184363 -0.538862 0)
(-0.335552 -0.397838 0)
(-0.468836 -0.292786 0)
(-0.595123 -0.214395 0)
(-0.709741 -0.156856 0)
(-0.812167 -0.114999 0)
(-0.902619 -0.0850231 0)
(-0.981868 -0.064024 0)
(-1.05094 -0.0494222 0)
(-1.11099 -0.0390952 0)
(-1.16302 -0.0313769 0)
(-1.20785 -0.0249829 0)
(-1.24613 -0.0189604 0)
(-1.27853 -0.0126829 0)
(-1.3057 -0.00581871 0)
(-1.32762 0.00182431 0)
(-1.34389 0.0103839 0)
(-1.35551 0.0196886 0)
(-1.3623 0.0288792 0)
(-1.36466 0.0363957 0)
(-1.36377 0.04087 0)
(-1.36103 0.0416407 0)
(-1.35786 0.0382759 0)
(-1.3557 0.030626 0)
(-1.35566 0.0194976 0)
(-1.35813 0.00644066 0)
(-1.36273 -0.00754199 0)
(-1.36989 -0.0219425 0)
(-1.37513 -0.0332776 0)
(-0.126766 -0.525148 0)
(-0.290887 -0.376422 0)
(-0.496147 -0.247637 0)
(-0.67417 -0.15864 0)
(-0.833905 -0.0960916 0)
(-0.972002 -0.0539569 0)
(-1.08878 -0.0272599 0)
(-1.18467 -0.0119856 0)
(-1.26404 -0.00361708 0)
(-1.33023 0.000582858 0)
(-1.386 0.00243632 0)
(-1.43339 0.0031865 0)
(-1.47379 0.00373745 0)
(-1.50816 0.0047864 0)
(-1.53725 0.00680604 0)
(-1.56156 0.00997252 0)
(-1.58178 0.0142713 0)
(-1.598 0.019577 0)
(-1.60986 0.025626 0)
(-1.61715 0.0317111 0)
(-1.62028 0.0367895 0)
(-1.62034 0.0398228 0)
(-1.61875 0.0400498 0)
(-1.61692 0.0368782 0)
(-1.61618 0.0300826 0)
(-1.61754 0.0202192 0)
(-1.62161 0.00841793 0)
(-1.62838 -0.0044881 0)
(-1.63727 -0.0178027 0)
(-1.64286 -0.0278449 0)
(-0.186012 -0.318091 0)
(-0.419209 -0.173141 0)
(-0.681697 -0.0465753 0)
(-0.884928 0.0173279 0)
(-1.05094 0.0477537 0)
(-1.18515 0.0596721 0)
(-1.29434 0.0614646 0)
(-1.38566 0.0585941 0)
(-1.46219 0.0533037 0)
(-1.52674 0.0470977 0)
(-1.58156 0.0409172 0)
(-1.62839 0.0352676 0)
(-1.66841 0.0304936 0)
(-1.7025 0.0269913 0)
(-1.73148 0.0251303 0)
(-1.75613 0.0250306 0)
(-1.77691 0.0264532 0)
(-1.79386 0.0289486 0)
(-1.80665 0.0320728 0)
(-1.81514 0.0353359 0)
(-1.81977 0.0381543 0)
(-1.82162 0.0398344 0)
(-1.8221 0.0396168 0)
(-1.8226 0.0367532 0)
(-1.82426 0.0308318 0)
(-1.82795 0.022139 0)
(-1.83439 0.0115075 0)
(-1.84378 -0.000329473 0)
(-1.85428 -0.0125085 0)
(-1.86035 -0.0214349 0)
(-0.256471 0.0180095 0)
(-0.527566 0.148993 0)
(-0.798647 0.179741 0)
(-1.00971 0.187062 0)
(-1.18228 0.179648 0)
(-1.32278 0.164749 0)
(-1.4374 0.14691 0)
(-1.53135 0.128417 0)
(-1.60885 0.110521 0)
(-1.67342 0.0942236 0)
(-1.72795 0.0800569 0)
(-1.77452 0.0679684 0)
(-1.81437 0.05777 0)
(-1.84832 0.0496131 0)
(-1.87724 0.0438605 0)
(-1.90209 0.0405646 0)
(-1.9235 0.0392169 0)
(-1.9415 0.0390245 0)
(-1.95566 0.0393688 0)
(-1.96575 0.0399657 0)
(-1.97219 0.0406682 0)
(-1.97614 0.0411188 0)
(-1.9791 0.040585 0)
(-1.98241 0.0381334 0)
(-1.98703 0.033093 0)
(-1.99364 0.0254687 0)
(-2.00294 0.0158641 0)
(-2.0151 0.00498584 0)
(-2.02721 -0.00611204 0)
(-2.03387 -0.0141078 0)
(-0.286413 0.391121 0)
(-0.586376 0.438243 0)
(-0.892162 0.413601 0)
(-1.1228 0.371009 0)
(-1.30362 0.323433 0)
(-1.44552 0.277083 0)
(-1.55829 0.235241 0)
(-1.64926 0.198716 0)
(-1.72355 0.167058 0)
(-1.78505 0.140243 0)
(-1.83705 0.11821 0)
(-1.88191 0.100046 0)
(-1.92069 0.084689 0)
(-1.95384 0.0719893 0)
(-1.98216 0.0624979 0)
(-2.0069 0.0563342 0)
(-2.02896 0.0526252 0)
(-2.04829 0.0500559 0)
(-2.06418 0.0477742 0)
(-2.07608 0.045761 0)
(-2.08439 0.0444174 0)
(-2.09045 0.0437827 0)
(-2.09598 0.0431294 0)
(-2.10234 0.0412452 0)
(-2.11024 0.0371028 0)
(-2.12009 0.0304058 0)
(-2.13246 0.0216169 0)
(-2.14746 0.0115429 0)
(-2.1619 0.001418 0)
(-2.16894 -0.00580233 0)
(-0.333627 0.8071 0)
(-0.684891 0.788757 0)
(-1.0222 0.673846 0)
(-1.25585 0.560982 0)
(-1.42952 0.465434 0)
(-1.56104 0.384535 0)
(-1.6631 0.318041 0)
(-1.74487 0.264248 0)
(-1.81168 0.219644 0)
(-1.86689 0.182918 0)
(-1.91407 0.153919 0)
(-1.95596 0.130728 0)
(-1.99309 0.110835 0)
(-2.02496 0.0937372 0)
(-2.05214 0.0806534 0)
(-2.07638 0.0721059 0)
(-2.09912 0.0666929 0)
(-2.12019 0.0622189 0)
(-2.1382 0.0574417 0)
(-2.15207 0.0527331 0)
(-2.16211 0.0493057 0)
(-2.17009 0.0477491 0)
(-2.17811 0.0472741 0)
(-2.18764 0.0462113 0)
(-2.19911 0.0430418 0)
(-2.21256 0.0371489 0)
(-2.22828 0.0289603 0)
(-2.2463 0.0195193 0)
(-2.2631 0.0102386 0)
(-2.2711 0.00375008 0)
(-0.427018 1.30785 0)
(-0.856506 1.19202 0)
(-1.21564 0.942664 0)
(-1.42313 0.736376 0)
(-1.56656 0.591803 0)
(-1.6734 0.477025 0)
(-1.75451 0.388048 0)
(-1.8205 0.321086 0)
(-1.87611 0.266299 0)
(-1.92222 0.22052 0)
(-1.96234 0.185814 0)
(-2.00035 0.15944 0)
(-2.03589 0.136081 0)
(-2.06639 0.114644 0)
(-2.09179 0.0979764 0)
(-2.11498 0.0877496 0)
(-2.13848 0.0816839 0)
(-2.16189 0.0759831 0)
(-2.18265 0.068745 0)
(-2.19863 0.0609826 0)
(-2.21008 0.0552237 0)
(-2.2195 0.0529028 0)
(-2.22978 0.0530286 0)
(-2.24255 0.0531624 0)
(-2.25791 0.051098 0)
(-2.27527 0.0458645 0)
(-2.29453 0.0379591 0)
(-2.31552 0.0288625 0)
(-2.33452 0.0203163 0)
(-2.34355 0.0145787 0)
(-0.621091 2.20534 0)
(-1.14245 1.80923 0)
(-1.51229 1.23234 0)
(-1.639 0.844409 0)
(-1.7142 0.677296 0)
(-1.78172 0.546803 0)
(-1.83059 0.441982 0)
(-1.87458 0.367433 0)
(-1.91792 0.304621 0)
(-1.95344 0.248619 0)
(-1.98385 0.210251 0)
(-2.01721 0.185262 0)
(-2.05221 0.161052 0)
(-2.08186 0.135082 0)
(-2.10458 0.114026 0)
(-2.12567 0.102836 0)
(-2.15003 0.0976854 0)
(-2.17683 0.0916833 0)
(-2.20132 0.0818362 0)
(-2.21956 0.0702393 0)
(-2.23171 0.0615923 0)
(-2.24165 0.0587171 0)
(-2.25365 0.0601346 0)
(-2.2696 0.0620706 0)
(-2.289 0.0613555 0)
(-2.31041 0.0566373 0)
(-2.33305 0.0486023 0)
(-2.35652 0.0394355 0)
(-2.37717 0.0314708 0)
(-2.38687 0.0265337 0)
(9.9959 0.138463 0)
(9.98224 0.275274 0)
(9.95809 0.412579 0)
(9.92451 0.552346 0)
(9.88238 0.696251 0)
(9.8321 0.845846 0)
(9.77391 1.00264 0)
(9.70805 1.1681 0)
(9.63479 1.3437 0)
(9.55442 1.53089 0)
(9.4672 1.73117 0)
(9.37341 1.94609 0)
(9.27329 2.17728 0)
(9.16712 2.42646 0)
(9.05514 2.69557 0)
(8.93758 2.98672 0)
(8.81462 3.30238 0)
(8.6864 3.64543 0)
(8.55301 4.01938 0)
(8.41444 4.42861 0)
(8.27063 4.87876 0)
(8.12147 5.37728 0)
(7.96692 5.93435 0)
(7.80727 6.56431 0)
(7.64377 7.28824 0)
(7.48146 8.13875 0)
(7.33372 9.16982 0)
(7.29098 10.4751 0)
(7.75265 12.1996 0)
(7.94169 14.9195 0)
(9.99638 0.143425 0)
(9.98433 0.285132 0)
(9.96304 0.427313 0)
(9.93349 0.571963 0)
(9.89652 0.720775 0)
(9.85256 0.875306 0)
(9.80188 1.03706 0)
(9.74481 1.20752 0)
(9.6817 1.38814 0)
(9.61292 1.58036 0)
(9.53886 1.78568 0)
(9.45994 2.00562 0)
(9.37659 2.24179 0)
(9.2893 2.49591 0)
(9.19858 2.76988 0)
(9.10502 3.06579 0)
(9.00927 3.38609 0)
(8.91207 3.7336 0)
(8.81436 4.11179 0)
(8.71731 4.52491 0)
(8.62252 4.97837 0)
(8.53239 5.47919 0)
(8.45062 6.03669 0)
(8.38351 6.66344 0)
(8.34227 7.37665 0)
(8.34902 8.19968 0)
(8.44275 9.16262 0)
(8.67948 10.2986 0)
(9.32828 11.5518 0)
(9.82138 12.6355 0)
(9.99688 0.147863 0)
(9.9865 0.293948 0)
(9.96817 0.440469 0)
(9.9428 0.589441 0)
(9.91116 0.742558 0)
(9.87371 0.901372 0)
(9.83077 1.06738 0)
(9.78271 1.24204 0)
(9.72998 1.42678 0)
(9.67304 1.62302 0)
(9.6124 1.83222 0)
(9.54861 2.05586 0)
(9.4823 2.29548 0)
(9.41415 2.55275 0)
(9.34497 2.82946 0)
(9.27568 3.12761 0)
(9.20738 3.44948 0)
(9.14141 3.79769 0)
(9.07946 4.17536 0)
(9.02373 4.58624 0)
(8.97726 5.03493 0)
(8.94433 5.5271 0)
(8.93123 6.06971 0)
(8.9475 6.67113 0)
(9.00764 7.34077 0)
(9.13381 8.0872 0)
(9.35701 8.91218 0)
(9.68666 9.80437 0)
(10.2522 10.712 0)
(10.9393 11.4243 0)
(9.9974 0.151727 0)
(9.98873 0.301613 0)
(9.97345 0.451881 0)
(9.95236 0.604548 0)
(9.92618 0.761299 0)
(9.89537 0.92367 0)
(9.86032 1.09313 0)
(9.82145 1.27111 0)
(9.77926 1.459 0)
(9.73432 1.65818 0)
(9.68723 1.87002 0)
(9.63869 2.09594 0)
(9.58948 2.3374 0)
(9.54051 2.59593 0)
(9.49281 2.87318 0)
(9.44763 3.17097 0)
(9.40644 3.49128 0)
(9.37108 3.83638 0)
(9.34385 4.20884 0)
(9.32771 4.61163 0)
(9.32659 5.04815 0)
(9.34581 5.52222 0)
(9.39259 6.03796 0)
(9.47686 6.5993 0)
(9.61179 7.20899 0)
(9.8142 7.86663 0)
(10.1068 8.56506 0)
(10.4982 9.2895 0)
(11.055 10.0297 0)
(11.8469 10.6727 0)
(9.99792 0.154969 0)
(9.991 0.308036 0)
(9.97883 0.461415 0)
(9.96209 0.617108 0)
(9.94145 0.776781 0)
(9.91738 0.941939 0)
(9.8903 1.11402 0)
(9.86068 1.2944 0)
(9.82911 1.48442 0)
(9.79619 1.68538 0)
(9.76266 1.89858 0)
(9.72932 2.12534 0)
(9.69709 2.36697 0)
(9.66704 2.62486 0)
(9.64043 2.90045 0)
(9.61875 3.19528 0)
(9.60376 3.51099 0)
(9.59766 3.84936 0)
(9.60312 4.21232 0)
(9.62355 4.60188 0)
(9.66324 5.02016 0)
(9.72773 5.46916 0)
(9.82408 5.95047 0)
(9.96124 6.46477 0)
(10.1503 7.01096 0)
(10.4041 7.58514 0)
(10.7402 8.17915 0)
(11.17 8.77829 0)
(11.7163 9.371 0)
(12.4679 9.88244 0)
(9.99845 0.157545 0)
(9.9933 0.313132 0)
(9.98425 0.468943 0)
(9.97191 0.626955 0)
(9.95685 0.788798 0)
(9.93954 0.955939 0)
(9.92044 1.12976 0)
(9.90008 1.31159 0)
(9.87907 1.50269 0)
(9.8581 1.70427 0)
(9.83797 1.91754 0)
(9.81958 2.14367 0)
(9.80398 2.38383 0)
(9.79235 2.6392 0)
(9.78611 2.91099 0)
(9.7869 3.20042 0)
(9.7967 3.50873 0)
(9.81787 3.83716 0)
(9.85327 4.18693 0)
(9.90638 4.55916 0)
(9.98149 4.95474 0)
(10.0838 5.37415 0)
(10.2197 5.8171 0)
(10.3966 6.28213 0)
(10.6234 6.76597 0)
(10.9098 7.26285 0)
(11.2668 7.76353 0)
(11.7025 8.25247 0)
(12.2175 8.71298 0)
(12.8917 9.10361 0)
(9.99898 0.159416 0)
(9.9956 0.316822 0)
(9.98969 0.474353 0)
(9.98173 0.63394 0)
(9.97223 0.797171 0)
(9.96166 0.96546 0)
(9.95048 1.14013 0)
(9.93928 1.32243 0)
(9.92868 1.51354 0)
(9.91945 1.71458 0)
(9.91242 1.92661 0)
(9.90857 2.15068 0)
(9.90902 2.38777 0)
(9.91504 2.63885 0)
(9.92813 2.90485 0)
(9.95004 3.18665 0)
(9.98278 3.48508 0)
(10.0288 3.80086 0)
(10.0908 4.13453 0)
(10.1723 4.48639 0)
(10.2772 4.85635 0)
(10.41 5.24369 0)
(10.5761 5.64684 0)
(10.7813 6.06298 0)
(11.0321 6.48763 0)
(11.3349 6.91408 0)
(11.6957 7.33301 0)
(12.1186 7.73101 0)
(12.5976 8.09354 0)
(13.2016 8.40014 0)
(9.99951 0.160549 0)
(9.99788 0.319041 0)
(9.99508 0.477546 0)
(9.99147 0.637938 0)
(9.98747 0.801749 0)
(9.98354 0.970329 0)
(9.98016 1.14493 0)
(9.97792 1.32672 0)
(9.97749 1.51677 0)
(9.97964 1.7161 0)
(9.98527 1.92564 0)
(9.99537 2.14626 0)
(10.0111 2.37877 0)
(10.0338 2.6239 0)
(10.0649 2.88231 0)
(10.1063 3.15455 0)
(10.1598 3.44103 0)
(10.2279 3.742 0)
(10.3131 4.05743 0)
(10.4185 4.38693 0)
(10.5475 4.72966 0)
(10.704 5.08408 0)
(10.892 5.4478 0)
(11.1158 5.81731 0)
(11.3798 6.18771 0)
(11.6877 6.55245 0)
(12.0424 6.90325 0)
(12.4452 7.22983 0)
(12.8886 7.52108 0)
(13.4304 7.76573 0)
(10 0.160917 0)
(10.0001 0.319733 0)
(10.0004 0.478444 0)
(10.001 0.638849 0)
(10.0024 0.802414 0)
(10.005 0.970417 0)
(10.0092 1.14403 0)
(10.0156 1.32432 0)
(10.025 1.51227 0)
(10.0381 1.70876 0)
(10.0558 1.91459 0)
(10.0791 2.13046 0)
(10.1092 2.35699 0)
(10.1473 2.59469 0)
(10.195 2.84394 0)
(10.2539 3.105 0)
(10.3259 3.3779 0)
(10.4132 3.66248 0)
(10.518 3.95824 0)
(10.643 4.2643 0)
(10.7909 4.57928 0)
(10.9649 4.90117 0)
(11.1678 5.22715 0)
(11.4026 5.55354 0)
(11.6719 5.87559 0)
(11.9776 6.18746 0)
(12.3204 6.48228 0)
(12.7001 6.75226 0)
(13.1091 6.98907 0)
(13.5959 7.1859 0)
(10.0005 0.160496 0)
(10.0023 0.318857 0)
(10.0056 0.476985 0)
(10.0104 0.636598 0)
(10.017 0.799082 0)
(10.0258 0.965638 0)
(10.0373 1.13734 0)
(10.0521 1.31518 0)
(10.0709 1.5 0)
(10.0943 1.69258 0)
(10.1234 1.89356 0)
(10.159 2.10348 0)
(10.2023 2.32278 0)
(10.2546 2.55175 0)
(10.3172 2.79054 0)
(10.3917 3.03912 0)
(10.4797 3.29723 0)
(10.5832 3.56437 0)
(10.7041 3.8397 0)
(10.8446 4.122 0)
(11.0068 4.40958 0)
(11.193 4.70018 0)
(11.4051 4.99093 0)
(11.6451 5.27825 0)
(11.914 5.55786 0)
(12.2127 5.82479 0)
(12.5405 6.07352 0)
(12.8963 6.29818 0)
(13.2729 6.49274 0)
(13.712 6.65306 0)
(10.001 0.159273 0)
(10.0044 0.316384 0)
(10.0106 0.473131 0)
(10.0194 0.631138 0)
(10.031 0.791709 0)
(10.0459 0.955954 0)
(10.0643 1.12486 0)
(10.0871 1.2993 0)
(10.1146 1.48003 0)
(10.1478 1.66768 0)
(10.1874 1.86276 0)
(10.2344 2.06566 0)
(10.2897 2.27663 0)
(10.3547 2.49579 0)
(10.4305 2.72307 0)
(10.5185 2.9582 0)
(10.6202 3.20071 0)
(10.7371 3.44984 0)
(10.8709 3.70453 0)
(11.0231 3.96335 0)
(11.1955 4.22447 0)
(11.3895 4.48562 0)
(11.6064 4.74401 0)
(11.847 4.99641 0)
(12.1118 5.2391 0)
(12.4005 5.468 0)
(12.7119 5.67878 0)
(13.0442 5.86711 0)
(13.3913 6.02875 0)
(13.7895 6.16121 0)
(10.0015 0.157239 0)
(10.0065 0.312298 0)
(10.0153 0.466863 0)
(10.028 0.622454 0)
(10.0444 0.780284 0)
(10.0649 0.941373 0)
(10.09 1.10661 0)
(10.1201 1.27677 0)
(10.1559 1.45248 0)
(10.1981 1.63427 0)
(10.2473 1.8225 0)
(10.3046 2.01743 0)
(10.3708 2.21917 0)
(10.4469 2.42764 0)
(10.5342 2.64261 0)
(10.6336 2.86366 0)
(10.7466 3.09011 0)
(10.8743 3.32107 0)
(11.0179 3.55533 0)
(11.1788 3.79139 0)
(11.3579 4.02742 0)
(11.5562 4.26122 0)
(11.7742 4.49028 0)
(12.0124 4.71175 0)
(12.2704 4.92251 0)
(12.5474 5.1193 0)
(12.8421 5.2988 0)
(13.1523 5.45787 0)
(13.4728 5.5936 0)
(13.8358 5.70448 0)
(10.0019 0.154393 0)
(10.0084 0.3066 0)
(10.0199 0.458184 0)
(10.0361 0.610558 0)
(10.0571 0.764837 0)
(10.0829 0.92195 0)
(10.1141 1.08269 0)
(10.1511 1.24772 0)
(10.1945 1.41757 0)
(10.2448 1.59265 0)
(10.3028 1.77321 0)
(10.3693 1.95937 0)
(10.445 2.1511 0)
(10.5308 2.34822 0)
(10.6278 2.55034 0)
(10.7368 2.75692 0)
(10.8588 2.96718 0)
(10.9948 3.18012 0)
(11.1457 3.3945 0)
(11.3123 3.60883 0)
(11.4953 3.82136 0)
(11.695 4.03008 0)
(11.9117 4.23276 0)
(12.1452 4.42699 0)
(12.3948 4.61022 0)
(12.6594 4.77989 0)
(12.9376 4.93351 0)
(13.2273 5.06883 0)
(13.524 5.18385 0)
(13.8567 5.27773 0)
(10.0024 0.150742 0)
(10.0102 0.299302 0)
(10.0241 0.447118 0)
(10.0437 0.595488 0)
(10.0689 0.745432 0)
(10.0997 0.897782 0)
(10.1365 1.05323 0)
(10.1798 1.21236 0)
(10.2301 1.37558 0)
(10.2878 1.5432 0)
(10.3536 1.71536 0)
(10.4281 1.89209 0)
(10.512 2.07324 0)
(10.6061 2.25852 0)
(10.7111 2.44747 0)
(10.8278 2.63944 0)
(10.9569 2.83361 0)
(11.0991 3.02896 0)
(11.255 3.22425 0)
(11.425 3.41807 0)
(11.6095 3.60881 0)
(11.8085 3.79468 0)
(12.0218 3.97378 0)
(12.2491 4.14409 0)
(12.4894 4.30359 0)
(12.7415 4.4503 0)
(13.0039 4.58236 0)
(13.2748 4.69819 0)
(13.5503 4.79646 0)
(13.8567 4.87674 0)
(10.0027 0.146297 0)
(10.0119 0.29043 0)
(10.0281 0.433707 0)
(10.0508 0.577313 0)
(10.0798 0.722167 0)
(10.1152 0.869007 0)
(10.1572 1.01844 0)
(10.2062 1.17094 0)
(10.2626 1.32683 0)
(10.3268 1.48634 0)
(10.3994 1.64951 0)
(10.4808 1.81628 0)
(10.5717 1.98642 0)
(10.6727 2.15957 0)
(10.7842 2.3352 0)
(10.9069 2.51263 0)
(11.0413 2.69102 0)
(11.1877 2.86936 0)
(11.3466 3.0465 0)
(11.5181 3.22112 0)
(11.7023 3.3918 0)
(11.8989 3.55698 0)
(12.1076 3.71505 0)
(12.3277 3.8644 0)
(12.5583 4.00341 0)
(12.7981 4.13058 0)
(13.0457 4.24457 0)
(13.2993 4.34425 0)
(13.5559 4.42877 0)
(13.8395 4.49797 0)
(10.0031 0.141077 0)
(10.0134 0.280022 0)
(10.0317 0.418014 0)
(10.0573 0.556121 0)
(10.0898 0.695166 0)
(10.1293 0.835797 0)
(10.1759 0.978529 0)
(10.23 1.12375 0)
(10.2918 1.27172 0)
(10.3617 1.42255 0)
(10.4402 1.57624 0)
(10.5275 1.73265 0)
(10.6242 1.89149 0)
(10.7307 2.05235 0)
(10.8474 2.21468 0)
(10.9745 2.37779 0)
(11.1126 2.54085 0)
(11.2617 2.70292 0)
(11.422 2.86293 0)
(11.5934 3.01971 0)
(11.7758 3.17199 0)
(11.9689 3.31848 0)
(12.172 3.45785 0)
(12.3844 3.58879 0)
(12.6052 3.71005 0)
(12.8331 3.82052 0)
(13.0668 3.91922 0)
(13.3049 4.00538 0)
(13.5446 4.07847 0)
(13.8082 4.13848 0)
(10.0034 0.135106 0)
(10.0148 0.268127 0)
(10.035 0.400114 0)
(10.0631 0.532023 0)
(10.0988 0.66458 0)
(10.142 0.798349 0)
(10.1927 0.933763 0)