/*--------------------------------*- C++ -*----------------------------------*\
  =========                 |
  \\      /  F ield         | OpenFOAM: The Open Source CFD Toolbox
   \\    /   O peration     | Website:  https://openfoam.org
    \\  /    A nd           | Version:  7
     \\/     M anipulation  |
\*---------------------------------------------------------------------------*/
FoamFile
{
    version     2.0;
    format      ascii;
    class       surfaceVectorField;
    location    "3.1";
    object      Uf;
}
// * * * * * * * * * * * * * * * * * * * * * * * * * * * * * * * * * * * * * //

dimensions      [0 1 -1 0 0 0 0];

internalField   nonuniform List<vector> 
5457
(
(9.92088 0.0251103 0)
(9.97124 0.0387467 0)
(9.82401 0.032828 0)
(9.92858 0.048587 0)
(9.7096 0.0393137 0)
(9.85547 0.058771 0)
(9.57542 0.0460137 0)
(9.75679 0.0705971 0)
(9.42135 0.0529515 0)
(9.63751 0.083018 0)
(9.24751 0.0601691 0)
(9.49858 0.0959418 0)
(9.05358 0.0678141 0)
(9.33926 0.109618 0)
(8.83887 0.0760378 0)
(9.15869 0.124295 0)
(8.60245 0.0849735 0)
(8.95603 0.140174 0)
(8.34319 0.094748 0)
(8.73031 0.157439 0)
(8.05976 0.10549 0)
(8.48032 0.176276 0)
(7.75071 0.11733 0)
(8.20468 0.196862 0)
(7.41446 0.130397 0)
(7.90185 0.219365 0)
(7.0494 0.144811 0)
(7.57021 0.243926 0)
(6.65394 0.160673 0)
(7.20809 0.270634 0)
(6.22663 0.178044 0)
(6.8139 0.2995 0)
(5.76635 0.196926 0)
(6.38624 0.330412 0)
(5.2725 0.21723 0)
(5.92409 0.363079 0)
(4.74532 0.238732 0)
(5.42704 0.39697 0)
(4.18616 0.261027 0)
(4.8956 0.431229 0)
(3.59795 0.283482 0)
(4.33161 0.46461 0)
(2.98555 0.305196 0)
(3.73859 0.495415 0)
(2.35612 0.325063 0)
(3.12227 0.521502 0)
(1.71913 0.342542 0)
(2.49108 0.540548 0)
(1.08438 0.361875 0)
(1.85588 0.551665 0)
(0.451875 0.348685 0)
(1.24551 0.563013 0)
(-0.145802 0.102478 0)
(0.608962 0.544882 0)
(-0.423597 -0.207081 0)
(0.0946895 0.259383 0)
(-0.402142 -0.361247 0)
(-0.133648 -0.020517 0)
(-0.119673 -0.393874 0)
(9.99641 0.0516745 0)
(9.99705 0.0405064 0)
(9.95878 0.070865 0)
(9.9785 0.0674582 0)
(9.89823 0.0879917 0)
(9.93377 0.0898756 0)
(9.81657 0.105991 0)
(9.86452 0.113562 0)
(9.71356 0.124929 0)
(9.77436 0.138524 0)
(9.58905 0.144862 0)
(9.66432 0.164657 0)
(9.4427 0.166099 0)
(9.53393 0.192344 0)
(9.27385 0.188976 0)
(9.38245 0.222043 0)
(9.0816 0.213792 0)
(9.20913 0.254161 0)
(8.86482 0.240824 0)
(9.01309 0.289076 0)
(8.62221 0.270345 0)
(8.79323 0.327164 0)
(8.35229 0.302614 0)
(8.54827 0.368796 0)
(8.05346 0.337862 0)
(8.27674 0.414324 0)
(7.72402 0.376265 0)
(7.97707 0.464052 0)
(7.36227 0.417902 0)
(7.64762 0.518191 0)
(6.96663 0.462705 0)
(7.28673 0.576805 0)
(6.53574 0.510381 0)
(6.89286 0.63972 0)
(6.06875 0.560324 0)
(6.46473 0.706418 0)
(5.56553 0.611509 0)
(6.00153 0.775896 0)
(5.02705 0.662371 0)
(5.5032 0.846507 0)
(4.45585 0.710693 0)
(4.97085 0.915787 0)
(3.85648 0.753525 0)
(4.40716 0.980286 0)
(3.2362 0.787182 0)
(3.81703 1.03544 0)
(2.60583 0.807489 0)
(3.20847 1.07547 0)
(1.98282 0.810457 0)
(2.59341 1.09313 0)
(1.40531 0.776893 0)
(1.99623 1.07707 0)
(0.929779 0.646405 0)
(1.41953 0.97841 0)
(0.439881 0.384349 0)
(0.937597 0.716809 0)
(0.0591857 -0.118599 0)
(0.443814 0.343544 0)
(0.174926 -0.335905 0)
(9.98903 0.0594343 0)
(9.99481 0.0458802 0)
(9.95433 0.0894824 0)
(9.97368 0.0848598 0)
(9.89728 0.11804 0)
(9.92983 0.119182 0)
(9.82045 0.147909 0)
(9.86356 0.153987 0)
(9.72413 0.179434 0)
(9.77734 0.190422 0)
(9.60818 0.212789 0)
(9.67224 0.228653 0)
(9.4723 0.248407 0)
(9.54806 0.269147 0)
(9.31602 0.28679 0)
(9.40426 0.312515 0)
(9.13862 0.328412 0)
(9.24028 0.359344 0)
(8.93917 0.373736 0)
(9.05542 0.410192 0)
(8.71656 0.423218 0)
(8.84881 0.465614 0)
(8.46951 0.477305 0)
(8.61942 0.526166 0)
(8.19658 0.536404 0)
(8.36606 0.592382 0)
(7.89622 0.600843 0)
(8.08742 0.664742 0)
(7.56682 0.670806 0)
(7.78209 0.743616 0)
(7.20674 0.746247 0)
(7.44863 0.829181 0)
(6.81448 0.826767 0)
(7.08559 0.921304 0)
(6.3888 0.911462 0)
(6.69162 1.01938 0)
(5.92897 0.998733 0)
(6.26565 1.12214 0)
(5.43509 1.08607 0)
(5.80706 1.22739 0)
(4.90852 1.1698 0)
(5.31604 1.33171 0)
(4.35242 1.24486 0)
(4.79396 1.43015 0)
(3.7726 1.30452 0)
(4.24397 1.51584 0)
(3.17875 1.33982 0)
(3.67183 1.5794 0)
(2.58666 1.33811 0)
(3.08635 1.60772 0)
(2.01989 1.27297 0)
(2.50296 1.58157 0)
(1.48698 1.09542 0)
(1.92878 1.46425 0)
(0.958324 0.769193 0)
(1.38528 1.21042 0)
(0.479892 0.202487 0)
(0.829565 0.801072 0)
(0.433739 0.134119 0)
(9.98515 0.0716187 0)
(9.99367 0.0531515 0)
(9.95038 0.113638 0)
(9.97087 0.102298 0)
(9.89435 0.154145 0)
(9.9269 0.147965 0)
(9.8188 0.195588 0)
(9.86184 0.193736 0)
(9.72439 0.238828 0)
(9.77744 0.241296 0)
(9.61108 0.284344 0)
(9.67463 0.291185 0)
(9.47869 0.332741 0)
(9.55339 0.343979 0)
(9.32689 0.384696 0)
(9.4133 0.400396 0)
(9.15516 0.440867 0)
(9.25394 0.461164 0)
(8.96283 0.501903 0)
(9.07476 0.526985 0)
(8.74908 0.568444 0)
(8.87511 0.598557 0)
(8.51294 0.641125 0)
(8.6542 0.676579 0)
(8.25336 0.720538 0)
(8.41112 0.761733 0)
(7.96915 0.807191 0)
(8.14489 0.854642 0)
(7.65907 0.901431 0)
(7.85444 0.955816 0)
(7.32182 1.00333 0)
(7.53864 1.06556 0)
(6.95612 1.11255 0)
(7.19636 1.18383 0)
(6.56077 1.22811 0)
(6.82644 1.31005 0)
(6.13482 1.34813 0)
(6.42781 1.44288 0)
(5.6778 1.46956 0)
(5.9996 1.57986 0)
(5.18997 1.58773 0)
(5.5413 1.71703 0)
(4.67286 1.69598 0)
(5.05303 1.84849 0)
(4.12981 1.78511 0)
(4.53596 1.96578 0)
(3.56668 1.84249 0)
(3.99275 2.05726 0)
(2.99209 1.8507 0)
(3.42763 2.10711 0)
(2.41588 1.78248 0)
(2.84768 2.09447 0)
(1.84058 1.60047 0)
(2.25628 1.98874 0)
(1.25942 1.27846 0)
(1.66036 1.75307 0)
(0.66679 0.789579 0)
(1.02399 1.3678 0)
(0.523048 0.787199 0)
(9.98337 0.0844136 0)
(9.99316 0.0612959 0)
(9.9482 0.136848 0)
(9.96958 0.119936 0)
(9.89313 0.188047 0)
(9.92574 0.176254 0)
(9.81904 0.240187 0)
(9.86198 0.232717 0)
(9.7266 0.294489 0)
(9.77961 0.29111 0)
(9.61586 0.351684 0)
(9.67936 0.3523 0)
(9.48666 0.412496 0)
(9.56123 0.417006 0)
(9.33872 0.477703 0)
(9.42491 0.486038 0)
(9.17163 0.548076 0)
(9.27002 0.560234 0)
(8.98484 0.624378 0)
(9.09612 0.640415 0)
(8.77769 0.707363 0)
(8.90265 0.727393 0)
(8.54943 0.797779 0)
(8.68897 0.821977 0)
(8.29924 0.896334 0)
(8.45433 0.924955 0)
(8.02623 1.00365 0)
(8.19796 1.03706 0)
(7.72946 1.12019 0)
(7.919 1.15891 0)
(7.40794 1.24614 0)
(7.61657 1.29091 0)
(7.06067 1.38124 0)
(7.28974 1.43312 0)
(6.6866 1.52455 0)
(6.93753 1.58506 0)
(6.28478 1.67414 0)
(6.5589 1.74545 0)
(5.85433 1.82673 0)
(6.1528 1.91182 0)
(5.39467 1.97719 0)
(5.71817 2.0801 0)
(4.90574 2.11799 0)
(5.25405 2.24402 0)
(4.38826 2.23855 0)
(4.75973 2.39454 0)
(3.84397 2.3245 0)
(4.23497 2.51913 0)
(3.27548 2.35692 0)
(3.67993 2.60119 0)
(2.68544 2.31058 0)
(3.09577 2.61968 0)
(2.07274 2.15502 0)
(2.48175 2.54732 0)
(1.42941 1.86743 0)
(1.83997 2.35375 0)
(0.742632 1.41962 0)
(1.1314 2.02458 0)
(0.543323 1.51456 0)
(9.98264 0.0975053 0)
(9.99299 0.0697982 0)
(9.94743 0.159788 0)
(9.96924 0.137594 0)
(9.89353 0.221366 0)
(9.92596 0.203943 0)
(9.82132 0.284115 0)
(9.86379 0.270711 0)
(9.73131 0.349374 0)
(9.78383 0.33961 0)
(9.62363 0.418049 0)
(9.68661 0.411729 0)
(9.49814 0.49097 0)
(9.57213 0.487937 0)
(9.35459 0.569007 0)
(9.44016 0.569141 0)
(9.19261 0.653036 0)
(9.29036 0.65627 0)
(9.01174 0.743927 0)
(9.12234 0.750248 0)
(8.81141 0.842541 0)
(8.93562 0.851988 0)
(8.59098 0.949728 0)
(8.72962 0.962392 0)
(8.34973 1.06629 0)
(8.5037 1.08234 0)
(8.08694 1.19296 0)
(8.25716 1.21265 0)
(7.8018 1.3303 0)
(7.98925 1.35404 0)
(7.49348 1.47858 0)
(7.69917 1.50701 0)
(7.16108 1.63765 0)
(7.38605 1.67173 0)
(6.80362 1.8067 0)
(7.04891 1.84787 0)
(6.42003 1.98391 0)
(6.68665 2.0343 0)
(6.00906 2.16607 0)
(6.29793 2.22876 0)
(5.56937 2.34803 0)
(5.88114 2.4274 0)
(5.09945 2.52213 0)
(5.43431 2.62417 0)
(4.59776 2.6775 0)
(4.95511 2.81021 0)
(4.06273 2.79944 0)
(4.44087 2.97315 0)
(3.49275 2.86907 0)
(3.88857 3.09657 0)
(2.88589 2.86291 0)
(3.2953 3.15987 0)
(2.23807 2.75395 0)
(2.65697 3.13791 0)
(1.54249 2.52108 0)
(1.97491 3.00323 0)
(0.793675 2.13141 0)
(1.20729 2.74067 0)
(0.55676 2.29192 0)
(9.9825 0.110635 0)
(9.99301 0.0783678 0)
(9.9477 0.182339 0)
(9.96953 0.15505 0)
(9.89521 0.253838 0)
(9.92721 0.230906 0)
(9.82522 0.326794 0)
(9.86695 0.307535 0)
(9.7381 0.402587 0)
(9.78975 0.386554 0)
(9.63399 0.482269 0)
(9.69602 0.469185 0)
(9.5128 0.566796 0)
(9.58574 0.556438 0)
(9.37431 0.657132 0)
(9.45874 0.649313 0)
(9.2182 0.754252 0)
(9.31473 0.74883 0)
(9.04405 0.85912 0)
(9.15337 0.856004 0)
(8.85134 0.972693 0)
(8.97423 0.971839 0)
(8.63951 1.09591 0)
(8.77679 1.09733 0)
(8.4079 1.22966 0)
(8.56045 1.23344 0)
(8.15582 1.37475 0)
(8.32456 1.38109 0)
(7.88251 1.53186 0)
(8.06838 1.54108 0)
(7.58714 1.70136 0)
(7.79111 1.71403 0)
(7.26877 1.88326 0)
(7.49182 1.90027 0)
(6.92631 2.07692 0)
(7.16941 2.09965 0)
(6.55842 2.28079 0)
(6.82255 2.31132 0)
(6.1634 2.49197 0)
(6.4495 2.53341 0)
(5.73908 2.70575 0)
(6.04803 2.76255 0)
(5.28272 2.9149 0)
(5.61521 2.99336 0)
(4.79085 3.10907 0)
(5.14724 3.21774 0)
(4.25934 3.27413 0)
(4.63942 3.42418 0)
(3.68346 3.39181 0)
(4.08613 3.59707 0)
(3.05813 3.43967 0)
(3.48141 3.7165 0)
(2.37782 3.39182 0)
(2.81847 3.75813 0)
(1.63798 3.22624 0)
(2.09925 3.69404 0)
(0.839169 2.90094 0)
(1.27899 3.50458 0)
(0.573393 3.11383 0)
(9.98273 0.123592 0)
(9.99316 0.0868249 0)
(9.94872 0.204327 0)
(9.97026 0.172108 0)
(9.89793 0.285277 0)
(9.92926 0.256998 0)
(9.83049 0.367997 0)
(9.87122 0.343018 0)
(9.74667 0.453889 0)
(9.79713 0.431716 0)
(9.64664 0.544119 0)
(9.70731 0.524394 0)
(9.53032 0.639753 0)
(9.60175 0.622183 0)
(9.39755 0.741846 0)
(9.48032 0.726176 0)
(9.24804 0.851461 0)
(9.34278 0.837476 0)
(9.08143 0.96965 0)
(9.18884 0.957182 0)
(8.89725 1.09746 0)
(9.01813 1.08639 0)
(8.69497 1.23591 0)
(8.83017 1.22617 0)
(8.47399 1.386 0)
(8.62441 1.37761 0)
(8.23362 1.54864 0)
(8.40022 1.5417 0)
(7.97308 1.72459 0)
(8.15686 1.71938 0)
(7.69147 1.91442 0)
(7.89348 1.91141 0)
(7.38772 2.1183 0)
(7.60905 2.11832 0)
(7.06049 2.3359 0)
(7.30228 2.34023 0)
(6.7081 2.56603 0)
(6.97152 2.57668 0)
(6.32828 2.80638 0)
(6.61461 2.82633 0)
(5.91805 3.05293 0)
(6.22864 3.08658 0)
(5.47344 3.29941 0)
(5.80971 3.35304 0)
(4.98934 3.53654 0)
(5.35266 3.61885 0)
(4.4594 3.75132 0)
(4.85093 3.87387 0)
(3.87632 3.9264 0)
(4.29652 4.10384 0)
(3.23245 4.03984 0)
(3.68068 4.28963 0)
(2.52095 4.06502 0)
(2.99366 4.40678 0)
(1.73847 3.97622 0)
(2.23752 4.42465 0)
(0.889528 3.71889 0)
(1.36346 4.31643 0)
(0.598802 3.98507 0)
(9.98321 0.136216 0)
(9.99339 0.0950489 0)
(9.95031 0.225593 0)
(9.97131 0.188607 0)
(9.9015 0.315525 0)
(9.93192 0.282076 0)
(9.83692 0.40754 0)
(9.87641 0.376995 0)
(9.7568 0.503056 0)
(9.80576 0.474883 0)
(9.6613 0.603326 0)
(9.72026 0.5771 0)
(9.5504 0.709511 0)
(9.6199 0.684869 0)
(9.42396 0.822756 0)
(9.50458 0.799374 0)
(9.28175 0.9442 0)
(9.37414 0.921794 0)
(9.12345 1.07498 0)
(9.22833 1.05331 0)
(8.94867 1.21624 0)
(9.06684 1.19509 0)
(8.75692 1.36908 0)
(8.88925 1.34832 0)
(8.54762 1.53461 0)
(8.69505 1.51415 0)
(8.32009 1.71385 0)
(8.48366 1.69373 0)
(8.07354 1.90773 0)
(8.25434 1.8881 0)
(7.80698 2.11699 0)
(8.00619 2.09824 0)
(7.51917 2.3421 0)
(7.73808 2.32492 0)
(7.20854 2.58307 0)
(7.44857 2.56861 0)
(6.87298 2.83928 0)
(7.13571 2.82935 0)
(6.50969 3.10914 0)
(6.79689 3.10651 0)
(6.11483 3.38966 0)
(6.42859 3.39846 0)
(5.68331 3.67587 0)
(6.02601 3.70213 0)
(5.20842 3.96006 0)
(5.5827 4.01231 0)
(4.68174 4.23086 0)
(5.09029 4.3208 0)
(4.09332 4.47222 0)
(4.53829 4.61525 0)
(3.43258 4.6625 0)
(3.91477 4.87778 0)
(2.69021 4.77318 0)
(3.20579 5.08356 0)
(1.86193 4.7725 0)
(2.41139 5.19804 0)
(0.954228 4.58988 0)
(1.47637 5.18446 0)
(0.639239 4.91968 0)
(9.98386 0.148383 0)
(9.99368 0.102953 0)
(9.95234 0.245994 0)
(9.9726 0.204414 0)
(9.90577 0.344432 0)
(9.93509 0.306 0)
(9.84435 0.44524 0)
(9.88239 0.409311 0)
(9.76829 0.549861 0)
(9.81549 0.515866 0)
(9.67775 0.659615 0)
(9.73467 0.627068 0)
(9.57275 0.775749 0)
(9.63993 0.744221 0)
(9.4532 0.899481 0)
(9.53122 0.868584 0)
(9.31892 1.03203 0)
(9.40844 1.00141 0)
(9.16967 1.17461 0)
(9.27141 1.14394 0)
(9.00509 1.32845 0)
(9.11986 1.29745 0)
(8.82478 1.49476 0)
(8.95347 1.46318 0)
(8.62819 1.67473 0)
(8.77178 1.64241 0)
(8.41467 1.86955 0)
(8.57425 1.83639 0)
(8.18343 2.08032 0)
(8.36019 2.04635 0)
(7.93342 2.30802 0)
(8.1287 2.27347 0)
(7.6633 2.55344 0)
(7.87861 2.51883 0)
(7.37127 2.81708 0)
(7.60835 2.78331 0)
(7.05491 3.09899 0)
(7.3158 3.06757 0)
(6.7109 3.3985 0)
(6.99805 3.37181 0)
(6.33472 3.7139 0)
(6.65107 3.69559 0)
(5.92022 4.0419 0)
(6.26933 4.03745 0)
(5.45919 4.37687 0)
(5.84529 4.39429 0)
(4.94103 4.70971 0)
(5.36883 4.7605 0)
(4.35274 5.02639 0)
(4.8268 5.12654 0)
(3.67965 5.30611 0)
(4.20324 5.47692 0)
(2.9076 5.51819 0)
(3.47801 5.78742 0)
(2.02775 5.62312 0)
(2.64517 6.01957 0)
(1.04516 5.52965 0)
(1.63784 6.12412 0)
(0.704533 5.94335 0)
(9.98464 0.159997 0)
(9.99402 0.110474 0)
(9.95472 0.265409 0)
(9.97408 0.219423 0)
(9.91063 0.371858 0)
(9.93867 0.328647 0)
(9.85264 0.480932 0)
(9.88903 0.439822 0)
(9.78096 0.594103 0)
(9.82615 0.55449 0)
(9.69576 0.712746 0)
(9.75034 0.674091 0)
(9.59709 0.838179 0)
(9.6616 0.79999 0)
(9.48494 0.97169 0)
(9.55995 0.933513 0)
(9.35917 1.11457 0)
(9.44533 1.07597 0)
(9.21961 1.2681 0)
(9.31765 1.22869 0)
(9.06598 1.43358 0)
(9.1767 1.39299 0)
(8.89795 1.61234 0)
(9.02225 1.57022 0)
(8.71504 1.80567 0)
(8.85392 1.76174 0)
(8.51666 2.01491 0)
(8.67126 1.96894 0)
(8.30205 2.24136 0)
(8.47364 2.19322 0)
(8.07019 2.48627 0)
(8.26022 2.43599 0)
(7.81968 2.75083 0)
(8.02989 2.69865 0)
(7.54864 3.03608 0)
(7.78107 2.98259 0)
(7.25446 3.34283 0)
(7.51162 3.28908 0)
(6.93353 3.67152 0)
(7.21849 3.61931 0)
(6.58083 4.02196 0)
(6.89748 3.97418 0)
(6.18942 4.3929 0)
(6.54263 4.35409 0)
(5.74979 4.78138 0)
(6.14568 4.75854 0)
(5.24921 5.18151 0)
(5.69512 5.18529 0)
(4.6711 5.58263 0)
(5.17521 5.62898 0)
(3.99512 5.96646 0)
(4.5653 6.07863 0)
(3.19865 6.30174 0)
(3.83661 6.51353 0)
(2.26199 6.54084 0)
(2.97112 6.89415 0)
(1.18074 6.56539 0)
(1.87938 7.15812 0)
(0.812933 7.09981 0)
(9.98553 0.170981 0)
(9.9944 0.117559 0)
(9.95738 0.283729 0)
(9.97572 0.233545 0)
(9.91599 0.397678 0)
(9.94257 0.349908 0)
(9.86167 0.514466 0)
(9.89621 0.468403 0)
(9.79465 0.6356 0)
(9.83761 0.590603 0)
(9.71512 0.762502 0)
(9.76708 0.717983 0)
(9.62318 0.896548 0)
(9.68469 0.851958 0)
(9.51885 1.03909 0)
(9.59047 0.993907 0)
(9.4021 1.19146 0)
(9.48446 1.1452 0)
(9.2728 1.35503 0)
(9.36661 1.30721 0)
(9.13079 1.53116 0)
(9.23684 1.48132 0)
(8.97578 1.72126 0)
(9.09497 1.66895 0)
(8.80744 1.92675 0)
(8.94077 1.87157 0)
(8.62525 2.14911 0)
(8.77386 2.09067 0)
(8.42854 2.38983 0)
(8.59377 2.32783 0)
(8.21637 2.65048 0)
(8.39977 2.58469 0)
(7.98745 2.93264 0)
(8.19088 2.86299 0)
(7.73994 3.23793 0)
(7.96568 3.16456 0)
(7.47127 3.568 0)
(7.72218 3.49139 0)
(7.1778 3.92448 0)
(7.45752 3.84563 0)
(6.85441 4.30887 0)
(7.16764 4.22961 0)
(6.49383 4.72234 0)
(6.84674 4.6458 0)
(6.08577 5.1652 0)
(6.48646 5.09663 0)
(5.61581 5.63598 0)
(6.07479 5.58409 0)
(5.06385 6.12954 0)
(5.59425 6.1087 0)
(4.40257 6.63359 0)
(5.01996 6.66726 0)
(3.59654 7.12118 0)
(4.31303 7.24836 0)
(2.60472 7.54081 0)
(3.43621 7.82024 0)
(1.39456 7.74086 0)
(2.25694 8.3154 0)
(1.00288 8.4657 0)
(9.9865 0.181272 0)
(9.9948 0.12417 0)
(9.96026 0.300866 0)
(9.97747 0.246708 0)
(9.92175 0.42178 0)
(9.94675 0.369689 0)
(9.87131 0.54571 0)
(9.90385 0.494942 0)
(9.80919 0.674195 0)
(9.84974 0.624074 0)
(9.73562 0.808696 0)
(9.78474 0.758588 0)
(9.65073 0.950634 0)
(9.70896 0.899938 0)
(9.55462 1.10141 0)
(9.62249 1.04955 0)
(9.44731 1.26241 0)
(9.52544 1.20883 0)
(9.32877 1.43505 0)
(9.41785 1.37919 0)
(9.19892 1.62076 0)
(9.29973 1.56208 0)
(9.0576 1.82102 0)
(9.171 1.75897 0)
(8.90459 2.03736 0)
(9.03155 1.97139 0)
(8.73951 2.27138 0)
(8.88118 2.20097 0)
(8.56185 2.52479 0)
(8.71954 2.44942 0)
(8.37083 2.79941 0)
(8.54614 2.71857 0)
(8.16537 3.09722 0)
(8.3602 3.01048 0)
(7.94387 3.42041 0)
(8.16063 3.32741 0)
(7.70404 3.77144 0)
(7.94579 3.67198 0)
(7.44262 4.15315 0)
(7.71332 4.04725 0)
(7.15484 4.56879 0)
(7.45977 4.45692 0)
(6.83385 5.02211 0)
(7.18013 4.90547 0)
(6.46959 5.51722 0)
(6.86702 5.39844 0)
(6.04718 6.05828 0)
(6.50939 5.94254 0)
(5.54439 6.64834 0)
(6.09029 6.54568 0)
(4.92758 7.28669 0)
(5.58358 7.21631 0)
(4.14565 7.96132 0)
(4.9432 7.96122 0)
(3.12245 8.6338 0)
(4.11018 8.77562 0)
(1.75676 9.12851 0)
(2.87934 9.62141 0)
(1.3653 10.1863 0)
(9.98753 0.190821 0)
(9.99523 0.130275 0)
(9.96331 0.316744 0)
(9.97931 0.258855 0)
(9.92784 0.444074 0)
(9.95114 0.387915 0)
(9.88145 0.574556 0)
(9.91185 0.519348 0)
(9.82444 0.709759 0)
(9.86239 0.654792 0)
(9.75706 0.851178 0)
(9.80312 0.795775 0)
(9.6795 1.00027 0)
(9.73418 0.943778 0)
(9.59191 1.15846 0)
(9.65573 1.10026 0)
(9.49438 1.32718 0)
(9.56793 1.26665 0)
(9.387 1.50789 0)
(9.47093 1.4444 0)
(9.26978 1.70207 0)
(9.36482 1.63498 0)
(9.14269 1.91124 0)
(9.24966 1.83992 0)
(9.00564 2.13702 0)
(9.12548 2.06081 0)
(8.85844 2.38114 0)
(8.99224 2.29932 0)
(8.70079 2.64545 0)
(8.84982 2.55731 0)
(8.53216 2.932 0)
(8.69796 2.83676 0)
(8.3518 3.24312 0)
(8.53623 3.13996 0)
(8.15852 3.58147 0)
(8.36395 3.46951 0)
(7.95059 3.95025 0)
(8.18007 3.82854 0)
(7.72548 4.35335 0)
(7.98299 4.22086 0)
(7.47944 4.79563 0)
(7.77036 4.65126 0)
(7.20692 5.28326 0)
(7.53869 5.12594 0)
(6.89953 5.82425 0)
(7.28275 5.65312 0)
(6.54433 6.42897 0)
(6.99458 6.24395 0)
(6.12059 7.11085 0)
(6.66147 6.91396 0)
(5.59356 7.88708 0)
(6.26287 7.68543 0)
(4.90173 8.77759 0)
(5.75835 8.59194 0)
(3.92798 9.80175 0)
(5.08862 9.68482 0)
(2.43427 10.8579 0)
(3.98122 11.0499 0)
(2.14756 12.5706 0)
(9.98861 0.199587 0)
(9.99567 0.135852 0)
(9.96651 0.331303 0)
(9.98123 0.26994 0)
(9.93418 0.464476 0)
(9.95569 0.404523 0)
(9.89199 0.600895 0)
(9.92014 0.541545 0)
(9.84026 0.742155 0)
(9.87548 0.682669 0)
(9.77926 0.889773 0)
(9.8221 0.82944 0)
(9.70923 1.04523 0)
(9.7602 0.983358 0)
(9.6304 1.20997 0)
(9.69 1.14589 0)
(9.54293 1.38547 0)
(9.61173 1.31851 0)
(9.44701 1.57319 0)
(9.52561 1.50265 0)
(9.34275 1.77463 0)
(9.43187 1.69982 0)
(9.23029 1.99139 0)
(9.3307 1.91156 0)
(9.10968 2.22511 0)
(9.22227 2.13949 0)
(8.98095 2.47761 0)
(9.10674 2.38534 0)
(8.84404 2.75085 0)
(8.98423 2.651 0)
(8.69877 3.04704 0)
(8.85479 2.93858 0)
(8.54477 3.36875 0)
(8.71838 3.2505 0)
(8.38146 3.719 0)
(8.57486 3.58958 0)
(8.20787 4.10151 0)
(8.42389 3.95925 0)
(8.02257 4.52093 0)
(8.26489 4.36377 0)
(7.82337 4.98331 0)
(8.09697 4.8086 0)
(7.60698 5.49669 0)
(7.91878 5.30099 0)
(7.36839 6.07212 0)
(7.72834 5.8508 0)
(7.09971 6.72528 0)
(7.52281 6.47195 0)
(6.78781 7.47938 0)
(7.29798 7.18504 0)
(6.40916 8.37121 0)
(7.04841 8.02248 0)
(5.91678 9.46532 0)
(6.76401 9.04082 0)
(5.19806 10.9083 0)
(6.46396 10.3559 0)
(3.88699 13.1811 0)
(6.19384 12.3037 0)
(5.26618 16.3776 0)
(0.236035 -0.148464 0)
(0.135521 -0.231182 0)
(0.456566 -0.125956 0)
(0.325379 -0.210895 0)
(0.642909 -0.100779 0)
(0.517707 -0.173992 0)
(0.797526 -0.0797331 0)
(0.68585 -0.140959 0)
(0.926119 -0.0631536 0)
(0.825639 -0.114465 0)
(1.0339 -0.0502662 0)
(0.9423 -0.0936746 0)
(1.12527 -0.0403229 0)
(1.04157 -0.0775337 0)
(1.20388 -0.0326844 0)
(1.1277 -0.0651288 0)
(1.27259 -0.0267768 0)
(1.20376 -0.0555899 0)
(1.33349 -0.022098 0)
(1.27196 -0.0481039 0)
(1.38792 -0.0182489 0)
(1.33388 -0.041977 0)
(1.43666 -0.0149594 0)
(1.39047 -0.0366997 0)
(1.48018 -0.0120766 0)
(1.44222 -0.0319975 0)
(1.51887 -0.00946467 0)
(1.48948 -0.0277689 0)
(1.55285 -0.00684329 0)
(1.53257 -0.0238181 0)
(1.5814 -0.0037464 0)
(1.5717 -0.0195379 0)
(1.60243 0.000178086 0)
(1.60622 -0.0140513 0)
(1.61346 0.00464742 0)
(1.63422 -0.00719585 0)
(1.61442 0.00830815 0)
(1.65348 -0.000612627 0)
(1.60652 0.0101001 0)
(1.66359 0.00491075 0)
(1.59428 0.0101993 0)
(1.66719 0.00743571 0)
(1.5794 0.00921749 0)
(1.6675 0.00882327 0)
(1.5635 0.00744843 0)
(1.66575 0.00920426 0)
(1.55032 0.00475497 0)
(1.66381 0.00745058 0)
(1.54365 0.00117097 0)
(1.66424 0.00367934 0)
(1.54709 -0.00273627 0)
(1.66941 -0.00185161 0)
(1.56287 -0.00623113 0)
(1.68106 -0.008302 0)
(1.59033 -0.00870631 0)
(1.69964 -0.0141089 0)
(1.62619 -0.00908598 0)
(1.72452 -0.0179837 0)
(1.76123 -0.0176119 0)
(0.204814 -0.329787 0)
(0.103783 -0.431785 0)
(0.402972 -0.289641 0)
(0.273691 -0.400394 0)
(0.573858 -0.238111 0)
(0.434797 -0.333552 0)
(0.718615 -0.19388 0)
(0.577035 -0.272929 0)
(0.842181 -0.158825 0)
(0.696661 -0.224455 0)
(0.948995 -0.131555 0)
(0.79825 -0.186508 0)
(1.04269 -0.110543 0)
(0.8862 -0.157042 0)
(1.12621 -0.0944274 0)
(0.96375 -0.134325 0)
(1.20184 -0.0819608 0)
(1.03327 -0.116775 0)
(1.27126 -0.0720342 0)
(1.09654 -0.102937 0)
(1.33554 -0.0637532 0)
(1.15479 -0.0915542 0)
(1.39528 -0.0565275 0)
(1.20877 -0.0816789 0)
(1.4508 -0.0500861 0)
(1.25878 -0.0728161 0)
(1.50253 -0.0442652 0)
(1.30492 -0.0649058 0)
(1.5511 -0.0385669 0)
(1.34749 -0.0578622 0)
(1.5968 -0.0319448 0)
(1.38725 -0.0508111 0)
(1.6386 -0.0235169 0)
(1.42479 -0.0419791 0)
(1.67419 -0.0138708 0)
(1.4592 -0.0304149 0)
(1.7014 -0.00511266 0)
(1.48767 -0.017947 0)
(1.72228 0.0017196 0)
(1.50798 -0.00807582 0)
(1.7392 0.00725036 0)
(1.52297 -0.00283835 0)
(1.7533 0.0107297 0)
(1.53565 0.000461547 0)
(1.76476 0.010949 0)
(1.54312 0.00257252 0)
(1.77655 0.00789202 0)
(1.54561 0.000786191 0)
(1.78929 0.001995 0)
(1.54534 -0.00335368 0)
(1.80304 -0.00580955 0)
(1.54439 -0.00925867 0)
(1.81761 -0.0145621 0)
(1.54174 -0.0159665 0)
(1.8341 -0.0229551 0)
(1.53762 -0.0225812 0)
(1.85459 -0.0276819 0)
(1.53381 -0.0282604 0)
(1.53655 -0.0278814 0)
(0.162985 -0.511457 0)
(0.0738104 -0.591419 0)
(0.317152 -0.453473 0)
(0.208104 -0.547825 0)
(0.448215 -0.376723 0)
(0.321252 -0.455928 0)
(0.558889 -0.310529 0)
(0.422405 -0.373827 0)
(0.653296 -0.257839 0)
(0.505819 -0.30849 0)
(0.734791 -0.216585 0)
(0.57625 -0.257336 0)
(0.806149 -0.184532 0)
(0.636562 -0.217594 0)
(0.869579 -0.159688 0)
(0.688915 -0.18688 0)
(0.926807 -0.140243 0)
(0.734992 -0.16307 0)
(0.979104 -0.124573 0)
(0.776101 -0.144245 0)
(1.02727 -0.111331 0)
(0.813214 -0.128699 0)
(1.07162 -0.0996195 0)
(0.846929 -0.115072 0)
(1.11216 -0.0891213 0)
(0.877445 -0.102629 0)
(1.14911 -0.0798744 0)
(0.904359 -0.0914294 0)
(1.18332 -0.0714488 0)
(0.927298 -0.0818342 0)
(1.21588 -0.0620459 0)
(0.946977 -0.0730957 0)
(1.24646 -0.0492859 0)
(0.965521 -0.0624096 0)
(1.27256 -0.0337798 0)
(0.984433 -0.0474468 0)
(1.29184 -0.0207217 0)
(1.00174 -0.0302294 0)
(1.30663 -0.013955 0)
(1.00251 -0.0172704 0)
(1.31855 -0.0112751 0)
(0.983194 -0.0100755 0)
(1.32401 -0.00955368 0)
(0.960674 -0.0027759 0)
(1.32233 -0.00926906 0)
(0.938723 0.00354265 0)
(1.31296 -0.011685 0)
(0.912649 0.00608114 0)
(1.29987 -0.0156044 0)
(0.883578 0.00387237 0)
(1.28297 -0.0189617 0)
(0.856147 -0.000149967 0)
(1.26156 -0.0215904 0)
(0.837673 -0.00470687 0)
(1.23707 -0.0241359 0)
(0.821787 -0.0100008 0)
(1.21427 -0.0253288 0)
(0.809678 -0.0168228 0)
(0.807095 -0.0262328 0)
(0.118465 -0.641132 0)
(0.0450611 -0.707448 0)
(0.221221 -0.564004 0)
(0.135462 -0.646092 0)
(0.303985 -0.466672 0)
(0.192449 -0.533206 0)
(0.372527 -0.384439 0)
(0.246913 -0.436314 0)
(0.429782 -0.319292 0)
(0.287049 -0.359455 0)
(0.47786 -0.268273 0)
(0.319173 -0.299121 0)
(0.518582 -0.228589 0)
(0.344263 -0.25215 0)
(0.553383 -0.197779 0)
(0.363539 -0.215715 0)
(0.583415 -0.173646 0)
(0.378038 -0.187365 0)
(0.609591 -0.1542 0)
(0.388622 -0.164921 0)
(0.63254 -0.137709 0)
(0.396072 -0.146397 0)
(0.652476 -0.12291 0)
(0.401093 -0.130084 0)
(0.669068 -0.109319 0)
(0.404259 -0.114828 0)
(0.681726 -0.0972784 0)
(0.404559 -0.100516 0)
(0.690843 -0.0872132 0)
(0.400527 -0.0882244 0)
(0.698549 -0.0781869 0)
(0.390367 -0.0783687 0)
(0.70667 -0.0674872 0)
(0.373779 -0.0678361 0)
(0.713353 -0.0520156 0)
(0.357015 -0.0518067 0)
(0.707109 -0.0317636 0)
(0.337836 -0.0262519 0)
(0.676036 -0.0125714 0)
(0.316996 0.00205519 0)
(0.625733 0.0013931 0)
(0.281642 0.020471 0)
(0.573286 0.0128591 0)
(0.244059 0.0283207 0)
(0.525026 0.0215993 0)
(0.212088 0.0314804 0)
(0.479961 0.0240751 0)
(0.181055 0.0315536 0)
(0.440154 0.0206036 0)
(0.150803 0.0258413 0)
(0.412302 0.0135813 0)
(0.124883 0.0148579 0)
(0.396624 0.0047367 0)
(0.114974 0.00354171 0)
(0.393475 -0.0058816 0)
(0.112459 -0.00838289 0)
(0.402633 -0.0198917 0)
(0.114906 -0.0214159 0)
(0.123925 -0.0349181 0)
(0.0679748 -0.722209 0)
(0.0152313 -0.774025 0)
(0.113556 -0.625224 0)
(0.0544985 -0.689681 0)
(0.143331 -0.512258 0)
(0.0504616 -0.561007 0)
(0.164344 -0.419642 0)
(0.0541282 -0.455472 0)
(0.178225 -0.346335 0)
(0.0458051 -0.371811 0)
(0.18611 -0.28881 0)
(0.0338955 -0.305974 0)
(0.18897 -0.243958 0)
(0.0176433 -0.254577 0)
(0.187616 -0.209059 0)
(-0.00217716 -0.214594 0)
(0.182751 -0.18175 0)
(-0.0249832 -0.183428 0)
(0.175005 -0.159901 0)
(-0.0502612 -0.158802 0)
(0.164973 -0.141552 0)
(-0.077367 -0.138661 0)
(0.153128 -0.124996 0)
(-0.105415 -0.121165 0)
(0.139452 -0.109127 0)
(-0.133356 -0.104773 0)
(0.122835 -0.0938131 0)
(-0.161288 -0.0885878 0)
(0.100347 -0.0792614 0)
(-0.189848 -0.0724627 0)
(0.0683215 -0.0641353 0)
(-0.221035 -0.056452 0)
(0.0274841 -0.0448445 0)
(-0.256765 -0.0405495 0)
(-0.0180586 -0.0188711 0)
(-0.29166 -0.0220949 0)
(-0.0580668 0.00932346 0)
(-0.32601 -0.000767164 0)
(-0.0832871 0.0300961 0)
(-0.344211 0.0177408 0)
(-0.101408 0.0396781 0)
(-0.35821 0.031475 0)
(-0.11993 0.0422865 0)
(-0.37071 0.0393024 0)
(-0.138205 0.0410434 0)
(-0.380965 0.0420601 0)
(-0.153228 0.0347117 0)
(-0.38993 0.0400451 0)
(-0.163983 0.0224901 0)
(-0.398211 0.0317767 0)
(-0.170546 0.00750901 0)
(-0.405466 0.0183946 0)
(-0.170296 -0.00661444 0)
(-0.407752 0.00341016 0)
(-0.166632 -0.0199745 0)
(-0.406334 -0.0102653 0)
(-0.160391 -0.0336234 0)
(-0.405708 -0.024546 0)
(-0.407006 -0.0375009 0)
(0.0088232 -0.747262 0)
(-0.0181719 -0.782667 0)
(-0.0053003 -0.630248 0)
(-0.0361818 -0.676175 0)
(-0.0314033 -0.506019 0)
(-0.100765 -0.536634 0)
(-0.0613931 -0.407712 0)
(-0.152189 -0.428131 0)
(-0.0957993 -0.329891 0)
(-0.210719 -0.341185 0)
(-0.13329 -0.269087 0)
(-0.268823 -0.273391 0)
(-0.173187 -0.221775 0)
(-0.326977 -0.220721 0)
(-0.214925 -0.184915 0)
(-0.38428 -0.180012 0)
(-0.258105 -0.155885 0)
(-0.440062 -0.148497 0)
(-0.302331 -0.132482 0)
(-0.493849 -0.12387 0)
(-0.347005 -0.112852 0)
(-0.54523 -0.104207 0)
(-0.391235 -0.0954839 0)
(-0.593717 -0.0878596 0)
(-0.433846 -0.0793028 0)
(-0.63875 -0.073445 0)
(-0.473739 -0.0637698 0)
(-0.679844 -0.0599507 0)
(-0.510369 -0.0487805 0)
(-0.716763 -0.0467891 0)
(-0.543684 -0.0342594 0)
(-0.749662 -0.0336532 0)
(-0.574042 -0.0197333 0)
(-0.778744 -0.0202648 0)
(-0.599145 -0.00477425 0)
(-0.803076 -0.00571798 0)
(-0.615113 0.0108518 0)
(-0.819453 0.0094046 0)
(-0.624569 0.026163 0)
(-0.828064 0.0236216 0)
(-0.630621 0.0376969 0)
(-0.833532 0.0351506 0)
(-0.634939 0.0430404 0)
(-0.836161 0.0418626 0)
(-0.637868 0.0426155 0)
(-0.836715 0.0437553 0)
(-0.63903 0.0368069 0)
(-0.836147 0.0407022 0)
(-0.639799 0.0261118 0)
(-0.836013 0.0322009 0)
(-0.641542 0.0125074 0)
(-0.837356 0.019334 0)
(-0.643977 -0.00222287 0)
(-0.83956 0.00469114 0)
(-0.644695 -0.0173625 0)
(-0.841179 -0.00989658 0)
(-0.644556 -0.0314333 0)
(-0.84538 -0.0246154 0)
(-0.850207 -0.0376154 0)
(-0.0526516 -0.708608 0)
(-0.0572619 -0.731098 0)
(-0.130702 -0.57667 0)
(-0.134285 -0.601535 0)
(-0.213185 -0.450069 0)
(-0.256836 -0.459619 0)
(-0.297615 -0.351528 0)
(-0.36353 -0.351158 0)
(-0.380607 -0.27468 0)
(-0.468393 -0.26731 0)
(-0.460884 -0.215529 0)
(-0.566203 -0.203621 0)
(-0.537374 -0.170371 0)
(-0.656454 -0.155813 0)
(-0.609163 -0.136182 0)
(-0.738714 -0.120531 0)
(-0.675592 -0.110329 0)
(-0.81291 -0.0947588 0)
(-0.736325 -0.0905769 0)
(-0.879272 -0.0758981 0)
(-0.791298 -0.0750387 0)
(-0.938251 -0.0618113 0)
(-0.840569 -0.0621195 0)
(-0.990334 -0.0507582 0)
(-0.884221 -0.0505376 0)
(-1.03595 -0.0413518 0)
(-0.92236 -0.0393964 0)
(-1.07548 -0.0325728 0)
(-0.955176 -0.0281915 0)
(-1.1094 -0.0237887 0)
(-0.982963 -0.016673 0)
(-1.13821 -0.0146372 0)
(-1.00619 -0.0045773 0)
(-1.16204 -0.00474701 0)
(-1.02334 0.00803567 0)
(-1.18057 0.00547495 0)
(-1.03412 0.0203686 0)
(-1.1926 0.016268 0)
(-1.03966 0.0312446 0)
(-1.19971 0.0270661 0)
(-1.04103 0.039093 0)
(-1.20245 0.0359866 0)
(-1.04014 0.042656 0)
(-1.20199 0.0413347 0)
(-1.03808 0.0415306 0)
(-1.19965 0.0425585 0)
(-1.03557 0.0355062 0)
(-1.19672 0.039284 0)
(-1.03397 0.0250286 0)
(-1.1947 0.0313195 0)
(-1.03447 0.0117727 0)
(-1.19471 0.0196031 0)
(-1.03685 -0.00249976 0)
(-1.19688 0.00594494 0)
(-1.04004 -0.01717 0)
(-1.20059 -0.00825734 0)
(-1.04345 -0.0308059 0)
(-1.20693 -0.0229053 0)
(-1.21214 -0.0351509 0)
(-0.119233 -0.609574 0)
(-0.102554 -0.614317 0)
(-0.258079 -0.469193 0)
(-0.237625 -0.468756 0)
(-0.397066 -0.345939 0)
(-0.41585 -0.329843 0)
(-0.529376 -0.254059 0)
(-0.571503 -0.230536 0)
(-0.650893 -0.185969 0)
(-0.714514 -0.159143 0)
(-0.76013 -0.136178 0)
(-0.840871 -0.108683 0)
(-0.857007 -0.10019 0)
(-0.950472 -0.073605 0)
(-0.942048 -0.074649 0)
(-1.04365 -0.0500708 0)
(-1.01625 -0.0568103 0)
(-1.12295 -0.0347303 0)
(-1.08079 -0.0443204 0)
(-1.19059 -0.0249242 0)
(-1.13679 -0.0352822 0)
(-1.24849 -0.0186172 0)
(-1.18523 -0.0282181 0)
(-1.2982 -0.0142866 0)
(-1.22682 -0.0220076 0)
(-1.34082 -0.0107711 0)
(-1.26218 -0.0158591 0)
(-1.37715 -0.00719127 0)
(-1.29188 -0.00929181 0)
(-1.40789 -0.00297311 0)
(-1.31629 -0.00204287 0)
(-1.43363 0.0020691 0)
(-1.33535 0.00605295 0)
(-1.4547 0.00798473 0)
(-1.34964 0.0149806 0)
(-1.47094 0.0147994 0)
(-1.35932 0.024229 0)
(-1.48269 0.0224319 0)
(-1.36414 0.0325925 0)
(-1.48973 0.0300673 0)
(-1.36486 0.0386061 0)
(-1.49247 0.036424 0)
(-1.36309 0.0412507 0)
(-1.49206 0.0402846 0)
(-1.36022 0.0399784 0)
(-1.48989 0.0408948 0)
(-1.35741 0.0344966 0)
(-1.48739 0.0376994 0)
(-1.35596 0.0251283 0)
(-1.48594 0.0305159 0)
(-1.35678 0.0130471 0)
(-1.4866 0.0200483 0)
(-1.35997 -0.000467119 0)
(-1.48987 0.00761887 0)
(-1.36476 -0.0146562 0)
(-1.49555 -0.00579475 0)
(-1.37118 -0.0275424 0)
(-1.50358 -0.0196858 0)
(-1.50899 -0.0303803 0)
(-0.190347 -0.451674 0)
(-0.156389 -0.427884 0)
(-0.389354 -0.312799 0)
(-0.355048 -0.278444 0)
(-0.579832 -0.20367 0)
(-0.588922 -0.151991 0)
(-0.751671 -0.127739 0)
(-0.779549 -0.0738755 0)
(-0.901762 -0.075276 0)