/*--------------------------------*- C++ -*----------------------------------*\
  =========                 |
  \\      /  F ield         | OpenFOAM: The Open Source CFD Toolbox
   \\    /   O peration     | Website:  https://openfoam.org
    \\  /    A nd           | Version:  7
     \\/     M anipulation  |
\*---------------------------------------------------------------------------*/
FoamFile
{
    version     2.0;
    format      ascii;
    class       surfaceScalarField;
    location    "5";
    object      phi;
}
// * * * * * * * * * * * * * * * * * * * * * * * * * * * * * * * * * * * * * //

dimensions      [1 0 -1 0 0 0 0];

internalField   nonuniform List<scalar> 
23692
(
1.18504e-05
-2.15538e-07
1.22336e-05
-3.82797e-07
1.27628e-05
-5.28387e-07
1.34188e-05
-6.54788e-07
1.41871e-05
-7.66902e-07
1.50565e-05
-8.67712e-07
1.60174e-05
-9.58987e-07
1.70614e-05
-1.04178e-06
1.81804e-05
-1.11653e-06
1.93663e-05
-1.18328e-06
2.06109e-05
-1.24179e-06
2.19055e-05
-1.29172e-06
2.32413e-05
-1.33269e-06
2.4609e-05
-1.36443e-06
2.59991e-05
-1.3868e-06
2.74024e-05
-1.39984e-06
2.88096e-05
-1.40381e-06
3.02123e-05
-1.39912e-06
3.16022e-05
-1.38636e-06
3.2972e-05
-1.36625e-06
3.43151e-05
-1.33957e-06
3.56258e-05
-1.30718e-06
3.68993e-05
-1.26995e-06
3.81316e-05
-1.22873e-06
3.93194e-05
-1.18435e-06
4.04604e-05
-1.13759e-06
4.15529e-05
-1.08915e-06
4.25959e-05
-1.03967e-06
4.35888e-05
-9.89744e-07
4.45318e-05
-9.39858e-07
4.54253e-05
-8.90448e-07
4.62701e-05
-8.41876e-07
4.70674e-05
-7.94447e-07
4.78186e-05
-7.48405e-07
4.85252e-05
-7.03947e-07
4.9189e-05
-6.61221e-07
4.98117e-05
-6.20335e-07
5.03954e-05
-5.81362e-07
5.09419e-05
-5.44341e-07
5.14533e-05
-5.09289e-07
5.19314e-05
-4.76194e-07
5.23783e-05
-4.45028e-07
5.27957e-05
-4.1574e-07
5.31855e-05
-3.88269e-07
5.35495e-05
-3.62541e-07
5.38893e-05
-3.38467e-07
5.42064e-05
-3.15951e-07
5.45023e-05
-2.94884e-07
5.47784e-05
-2.75154e-07
5.50359e-05
-2.56638e-07
5.52758e-05
-2.39208e-07
5.54991e-05
-2.22726e-07
5.57066e-05
-2.07048e-07
5.58989e-05
-1.92023e-07
5.60767e-05
-1.77488e-07
5.62401e-05
-1.63274e-07
5.63893e-05
-1.49199e-07
5.65243e-05
-1.35068e-07
5.66448e-05
-1.20671e-07
5.67504e-05
-1.05779e-07
5.68402e-05
-9.01399e-08
5.69133e-05
-7.34712e-08
5.69683e-05
-5.54558e-08
5.70035e-05
-3.57296e-08
5.70168e-05
-1.38696e-08
5.70055e-05
1.06468e-08
5.69664e-05
3.84702e-08
5.68953e-05
7.04052e-08
5.67871e-05
1.07484e-07
5.66353e-05
1.51083e-07
5.64315e-05
2.03097e-07
5.61645e-05
2.66223e-07
5.58193e-05
3.44446e-07
5.53746e-05
4.43904e-07
5.47994e-05
5.74472e-07
5.40459e-05
7.52789e-07
5.30369e-05
1.00828e-06
5.16402e-05
1.39603e-06
4.96094e-05
2.0301e-06
4.6415e-05
3.19383e-06
6.08124e-06
4.03332e-05
1.2674e-05
-4.4037e-07
1.30821e-05
-7.90343e-07
1.3647e-05
-1.09241e-06
1.43476e-05
-1.35418e-06
1.51687e-05
-1.5865e-06
1.60982e-05
-1.79539e-06
1.71258e-05
-1.98453e-06
1.82425e-05
-2.1561e-06
1.94396e-05
-2.31103e-06
2.07085e-05
-2.4494e-06
2.20404e-05
-2.57071e-06
2.34261e-05
-2.67424e-06
2.4856e-05
-2.75922e-06
2.63201e-05
-2.82507e-06
2.78083e-05
-2.87149e-06
2.93107e-05
-2.8986e-06
3.08175e-05
-2.90688e-06
3.23194e-05
-2.89721e-06
3.38076e-05
-2.87082e-06
3.52744e-05
-2.82917e-06
3.67125e-05
-2.77392e-06
3.8116e-05
-2.70683e-06
3.94795e-05
-2.62969e-06
4.07988e-05
-2.54429e-06
4.20705e-05
-2.45234e-06
4.3292e-05
-2.35543e-06
4.44615e-05
-2.25505e-06
4.55779e-05
-2.15253e-06
4.66406e-05
-2.04907e-06
4.76498e-05
-1.94569e-06
4.86059e-05
-1.84329e-06
4.95098e-05
-1.74263e-06
5.03628e-05
-1.64433e-06
5.11662e-05
-1.54891e-06
5.19219e-05
-1.45675e-06
5.26316e-05
-1.36819e-06
5.32972e-05
-1.28342e-06
5.3921e-05
-1.20261e-06
5.45048e-05
-1.12584e-06
5.50509e-05
-1.05314e-06
5.55612e-05
-9.84486e-07
5.6038e-05
-9.19814e-07
5.64831e-05
-8.59025e-07
5.68985e-05
-8.01988e-07
5.7286e-05
-7.48547e-07
5.76475e-05
-6.9852e-07
5.79845e-05
-6.51705e-07
5.82986e-05
-6.07883e-07
5.85913e-05
-5.66815e-07
5.88638e-05
-5.28249e-07
5.91172e-05
-4.91917e-07
5.93526e-05
-4.57537e-07
5.95709e-05
-4.2481e-07
5.97726e-05
-3.93422e-07
5.99584e-05
-3.63043e-07
6.01286e-05
-3.33322e-07
6.02834e-05
-3.03885e-07
6.04226e-05
-2.74333e-07
6.0546e-05
-2.44236e-07
6.0653e-05
-2.13126e-07
6.07431e-05
-1.8049e-07
6.08149e-05
-1.45757e-07
6.08673e-05
-1.08285e-07
6.08983e-05
-6.73407e-08
6.09059e-05
-2.20692e-08
6.08873e-05
2.85784e-08
6.08392e-05
8.5877e-08
6.07575e-05
1.51386e-07
6.06371e-05
2.27098e-07
6.04718e-05
3.15632e-07
6.02536e-05
4.2052e-07
5.99723e-05
5.46674e-07
5.96148e-05
7.01122e-07
5.91637e-05
8.94251e-07
5.85955e-05
1.14188e-06
5.78786e-05
1.46886e-06
5.6971e-05
1.91511e-06
5.58201e-05
2.54627e-06
5.43748e-05
3.47465e-06
5.26727e-05
4.89529e-06
7.05725e-06
5.1696e-05
1.35532e-05
-6.73111e-07
1.39857e-05
-1.22233e-06
1.45864e-05
-1.69219e-06
1.53332e-05
-2.09965e-06
1.62095e-05
-2.46116e-06
1.72022e-05
-2.78619e-06
1.83005e-05
-3.08051e-06
1.94944e-05
-3.34752e-06
2.07748e-05
-3.58869e-06
2.21326e-05
-3.80411e-06
2.35581e-05
-3.99304e-06
2.50416e-05
-4.15432e-06
2.65727e-05
-4.28674e-06
2.81407e-05
-4.38939e-06
2.97348e-05
-4.46181e-06
3.13443e-05
-4.50415e-06
3.29585e-05
-4.51718e-06
3.45676e-05
-4.50228e-06
3.61622e-05
-4.46132e-06
3.77337e-05
-4.3966e-06
3.92746e-05
-4.31069e-06
4.07782e-05
-4.20635e-06
4.22389e-05
-4.08638e-06
4.36522e-05
-3.95353e-06
4.50143e-05
-3.81048e-06
4.63225e-05
-3.65972e-06
4.75749e-05
-3.50355e-06
4.87701e-05
-3.34406e-06
4.99078e-05
-3.18308e-06
5.0988e-05
-3.02224e-06
5.20111e-05
-2.86292e-06
5.29781e-05
-2.70628e-06
5.38904e-05
-2.55332e-06
5.47495e-05
-2.40482e-06
5.55571e-05
-2.26139e-06
5.63154e-05
-2.12353e-06
5.70263e-05
-1.99157e-06
5.76921e-05
-1.86575e-06
5.8315e-05
-1.74619e-06
5.88971e-05
-1.63293e-06
5.94408e-05
-1.52595e-06
5.99482e-05
-1.42514e-06
6.04215e-05
-1.33034e-06
6.08626e-05
-1.24135e-06
6.12737e-05
-1.15793e-06
6.16564e-05
-1.07978e-06
6.20127e-05
-1.00661e-06
6.23441e-05
-9.38051e-07
6.26521e-05
-8.7375e-07
6.29381e-05
-8.13309e-07
6.32032e-05
-7.56313e-07
6.34487e-05
-7.02325e-07
6.36753e-05
-6.50884e-07
6.38837e-05
-6.01505e-07
6.40747e-05
-5.53679e-07
6.42483e-05
-5.06865e-07
6.4405e-05
-4.60492e-07
6.45445e-05
-4.1395e-07
6.46667e-05
-3.66585e-07
6.4771e-05
-3.17688e-07
6.48566e-05
-2.66485e-07
6.49225e-05
-2.12121e-07
6.49674e-05
-1.53636e-07
6.49894e-05
-8.9945e-08
6.49865e-05
-1.97814e-08
6.49559e-05
5.83819e-08
6.48947e-05
1.4635e-07
6.4799e-05
2.46309e-07
6.46643e-05
3.61008e-07
6.44851e-05
4.93969e-07
6.4255e-05
6.49803e-07
6.39661e-05
8.34676e-07
6.36093e-05
1.057e-06
6.31743e-05
1.32844e-06
6.26499e-05
1.66539e-06
6.20269e-05
2.09104e-06
6.13033e-05
2.63793e-06
6.04982e-05
3.35056e-06
5.96861e-05
4.28598e-06
5.90806e-05
5.50006e-06
6.96933e-06
5.91678e-05
1.44927e-05
-9.1332e-07
1.49491e-05
-1.67812e-06
1.55861e-05
-2.32819e-06
1.63805e-05
-2.89263e-06
1.73144e-05
-3.39333e-06
1.83737e-05
-3.84346e-06
1.95467e-05
-4.2511e-06
2.08229e-05
-4.62099e-06
2.21924e-05
-4.95517e-06
2.36453e-05
-5.25377e-06
2.51714e-05
-5.51574e-06
2.67602e-05
-5.73945e-06
2.84005e-05
-5.92323e-06
3.00808e-05
-6.06577e-06
3.17895e-05
-6.16643e-06
3.3515e-05
-6.22539e-06
3.52458e-05
-6.24373e-06
3.69711e-05
-6.22332e-06
3.8681e-05
-6.1668e-06
4.03661e-05
-6.07733e-06
4.20183e-05
-5.95849e-06
4.36304e-05
-5.81409e-06
4.51964e-05
-5.64802e-06
4.67113e-05
-5.46411e-06
4.81711e-05
-5.26606e-06
4.95729e-05
-5.05733e-06
5.09146e-05
-4.84111e-06
5.21949e-05
-4.62028e-06
5.34131e-05
-4.39739e-06
5.45694e-05
-4.17468e-06
5.56643e-05
-3.95407e-06
5.66988e-05
-3.73718e-06
5.76744e-05
-3.52535e-06
5.85926e-05
-3.31968e-06
5.94555e-05
-3.12102e-06
6.02651e-05
-2.93005e-06
6.10238e-05
-2.74722e-06
6.17337e-05
-2.57285e-06
6.23973e-05
-2.40713e-06
6.3017e-05
-2.25009e-06
6.35952e-05
-2.1017e-06
6.41341e-05
-1.96181e-06
6.4636e-05
-1.8302e-06
6.51031e-05
-1.70658e-06
6.55376e-05
-1.59062e-06
6.59413e-05
-1.48191e-06
6.63162e-05
-1.38003e-06
6.6664e-05
-1.2845e-06
6.69862e-05
-1.19481e-06
6.72843e-05
-1.11041e-06
6.75595e-05
-1.03073e-06
6.78131e-05
-9.55176e-07
6.80458e-05
-8.83112e-07
6.82586e-05
-8.13877e-07
6.8452e-05
-7.46773e-07
6.86264e-05
-6.81068e-07
6.87819e-05
-6.15991e-07
6.89186e-05
-5.50719e-07
6.90362e-05
-4.84376e-07
6.91342e-05
-4.1602e-07
6.9212e-05
-3.44626e-07
6.92685e-05
-2.69073e-07
6.93024e-05
-1.88119e-07
6.93122e-05
-1.00364e-07
6.92959e-05
-4.18645e-09
6.92512e-05
1.02311e-07
6.91754e-05
2.213e-07
6.90655e-05
3.55389e-07
6.89179e-05
5.07757e-07
6.87286e-05
6.82339e-07
6.84934e-05
8.84073e-07
6.82079e-05
1.11922e-06
6.78682e-05
1.39578e-06
6.74717e-05
1.72399e-06
6.70194e-05
2.11679e-06
6.65194e-05
2.59015e-06
6.59938e-05
3.1627e-06
6.54898e-05
3.85372e-06
6.50975e-05
4.67747e-06
6.49676e-05
5.62913e-06
6.65024e-06
6.5286e-05
1.54974e-05
-1.16107e-06
1.59775e-05
-2.15753e-06
1.66514e-05
-3.0011e-06
1.74951e-05
-3.73477e-06
1.84892e-05
-4.38566e-06
1.96189e-05
-4.97083e-06
2.08712e-05
-5.50087e-06
2.22351e-05
-5.98198e-06
2.36999e-05
-6.4168e-06
2.52551e-05
-6.8055e-06
2.68897e-05
-7.14667e-06
2.85924e-05
-7.43817e-06
3.0351e-05
-7.67779e-06
3.21533e-05
-7.86377e-06
3.39865e-05
-7.99527e-06
3.58381e-05
-8.07249e-06
3.76957e-05
-8.09681e-06
3.95477e-05
-8.07067e-06
4.13831e-05
-7.9975e-06
4.31919e-05
-7.88141e-06
4.49652e-05
-7.72709e-06
4.66953e-05
-7.53949e-06
4.83756e-05
-7.32367e-06
5.00007e-05
-7.08466e-06
5.15665e-05
-6.82724e-06
5.30696e-05
-6.55593e-06
5.45078e-05
-6.27489e-06
5.58797e-05
-5.98785e-06
5.71847e-05
-5.69814e-06
5.84228e-05
-5.40866e-06
5.95946e-05
-5.1219e-06
6.07013e-05
-4.83998e-06
6.17444e-05
-4.56462e-06
6.27256e-05
-4.29725e-06
6.3647e-05
-4.03898e-06
6.4511e-05
-3.79065e-06
6.53198e-05
-3.55287e-06
6.6076e-05
-3.32606e-06
6.67822e-05
-3.11042e-06
6.74409e-05
-2.90602e-06
6.80545e-05
-2.7128e-06
6.86257e-05
-2.53056e-06
6.91567e-05
-2.35902e-06
6.965e-05
-2.1978e-06
7.01077e-05
-2.04645e-06
7.0532e-05
-1.90446e-06
7.09248e-05
-1.77127e-06
7.12879e-05
-1.64625e-06
7.16231e-05
-1.52875e-06
7.19318e-05
-1.41807e-06
7.22155e-05
-1.31347e-06
7.24752e-05
-1.21417e-06
7.27121e-05
-1.11937e-06
7.29268e-05
-1.02822e-06
7.31202e-05
-9.39841e-07
7.32926e-05
-8.53303e-07
7.34443e-05
-7.67635e-07
7.35753e-05
-6.81811e-07
7.36855e-05
-5.94742e-07
7.37744e-05
-5.05268e-07
7.38415e-05
-4.12143e-07
7.38859e-05
-3.14013e-07
7.39066e-05
-2.09402e-07
7.39022e-05
-9.66708e-08
7.38712e-05
2.60604e-08
7.38118e-05
1.60901e-07
7.37221e-05
3.10202e-07
7.35998e-05
4.76715e-07
7.3443e-05
6.63669e-07
7.32494e-05
8.74877e-07
7.30177e-05
1.11486e-06
7.27469e-05
1.38897e-06
7.24382e-05
1.70349e-06
7.20956e-05
2.06561e-06
7.17282e-05
2.48324e-06
7.1353e-05
2.96431e-06
7.09994e-05
3.51537e-06
7.07133e-05
4.13889e-06
7.05612e-05
4.82868e-06
7.06269e-05
5.56261e-06
6.29068e-06
7.09856e-05
1.65722e-05
-1.41687e-06
1.70763e-05
-2.66089e-06
1.77883e-05
-3.712e-06
1.86832e-05
-4.62803e-06
1.97407e-05
-5.44118e-06
2.09447e-05
-6.1724e-06
2.22816e-05
-6.835e-06
2.37394e-05
-7.43668e-06
2.53068e-05
-7.98077e-06
2.69725e-05
-8.46743e-06
2.87246e-05
-8.89486e-06
3.0551e-05
-9.26031e-06
3.24385e-05
-9.56094e-06
3.43738e-05
-9.7945e-06
3.63431e-05
-9.95987e-06
3.83327e-05
-1.00573e-05
4.03292e-05
-1.00884e-05
4.23198e-05
-1.00563e-05
4.42926e-05
-9.96524e-06
4.62366e-05
-9.82044e-06
4.81423e-05
-9.62773e-06
5.00012e-05
-9.39335e-06
5.18062e-05
-9.12366e-06
5.35515e-05
-8.82494e-06
5.52324e-05
-8.50321e-06
5.68454e-05
-8.16411e-06
5.83881e-05
-7.81286e-06
5.98591e-05
-7.45414e-06
6.12576e-05
-7.09209e-06
6.25837e-05
-6.73034e-06
6.38381e-05
-6.37201e-06
6.5022e-05
-6.01971e-06
6.61371e-05
-5.67562e-06
6.71852e-05
-5.34149e-06
6.81687e-05
-5.0187e-06
6.90899e-05
-4.70831e-06
6.99515e-05
-4.41106e-06
7.07562e-05
-4.12744e-06
7.15066e-05
-3.85774e-06
7.22055e-05
-3.60201e-06
7.28556e-05
-3.36016e-06
7.34595e-05
-3.13196e-06
7.40199e-05
-2.91703e-06
7.45393e-05
-2.71491e-06
7.50199e-05
-2.52502e-06
7.5464e-05
-2.34674e-06
7.58737e-05
-2.17935e-06
7.6251e-05
-2.02208e-06
7.65977e-05
-1.87412e-06
7.69154e-05
-1.7346e-06
7.72055e-05
-1.60261e-06
7.74693e-05
-1.4772e-06
7.7708e-05
-1.35738e-06
7.79224e-05
-1.24212e-06
7.81132e-05
-1.13034e-06
7.8281e-05
-1.02094e-06
7.84261e-05
-9.12749e-07
7.85488e-05
-8.04546e-07
7.86489e-05
-6.95055e-07
7.87262e-05
-5.82926e-07
7.87803e-05
-4.66726e-07
7.88107e-05
-3.44926e-07
7.88165e-05
-2.1588e-07
7.87969e-05
-7.7801e-08
7.87508e-05
7.13046e-08
7.86773e-05
2.33579e-07
7.85752e-05
4.11361e-07
7.84437e-05
6.07263e-07
7.82821e-05
8.24196e-07
7.80905e-05
1.0654e-06
7.78699e-05
1.33442e-06
7.76227e-05
1.63509e-06
7.73538e-05
1.97138e-06
7.70712e-05
2.34711e-06
7.67879e-05
2.76546e-06
7.65231e-05
3.22809e-06
7.63036e-05
3.73386e-06
7.61645e-05
4.27698e-06
7.61476e-05
4.84464e-06
7.62949e-05
5.41433e-06
5.95165e-06
7.66331e-05
1.77224e-05
-1.68167e-06
1.82513e-05
-3.18907e-06
1.90031e-05
-4.46256e-06
1.99517e-05
-5.57495e-06
2.10762e-05
-6.56352e-06
2.23594e-05
-7.45299e-06
2.37869e-05
-8.25946e-06
2.53458e-05
-8.99228e-06
2.70242e-05
-9.65543e-06
2.88098e-05
-1.0249e-05
3.06901e-05
-1.07709e-05
3.26517e-05
-1.12174e-05
3.46805e-05
-1.1585e-05
3.67619e-05
-1.1871e-05
3.88809e-05
-1.20738e-05
4.10225e-05
-1.21936e-05
4.31719e-05
-1.22325e-05
4.53151e-05
-1.21942e-05
4.74392e-05
-1.20839e-05
4.95321e-05
-1.19079e-05
5.15832e-05
-1.16735e-05
5.35835e-05
-1.13882e-05
5.55251e-05
-1.10599e-05
5.74016e-05
-1.06961e-05
5.92081e-05
-1.03044e-05
6.09408e-05
-9.8916e-06
6.2597e-05
-9.46401e-06
6.41753e-05
-9.02736e-06
6.56748e-05
-8.58671e-06
6.70957e-05
-8.14648e-06
6.84387e-05
-7.71043e-06
6.97053e-05
-7.28175e-06
7.0897e-05
-6.86307e-06
7.20162e-05
-6.45651e-06
7.30653e-05
-6.06373e-06
7.40469e-05
-5.686e-06
7.49637e-05
-5.32422e-06
7.58187e-05
-4.97898e-06
7.66149e-05
-4.65058e-06
7.73551e-05
-4.33911e-06
7.80424e-05
-4.04444e-06
7.86794e-05
-3.76626e-06
7.92691e-05
-3.50413e-06
7.9814e-05
-3.25746e-06
8.03167e-05
-3.02556e-06
8.07796e-05
-2.80767e-06
8.1205e-05
-2.60292e-06
8.15949e-05
-2.41038e-06
8.19512e-05
-2.22906e-06
8.22758e-05
-2.05793e-06
8.25701e-05
-1.8959e-06
8.28356e-05
-1.74183e-06
8.30735e-05
-1.59456e-06
8.32847e-05
-1.45288e-06
8.34702e-05
-1.31552e-06
8.36307e-05
-1.18119e-06
8.37665e-05
-1.04855e-06
8.38781e-05
-9.1621e-07
8.39655e-05
-7.82733e-07
8.40288e-05
-6.46616e-07
8.40679e-05
-5.06292e-07
8.40825e-05
-3.60119e-07
8.40723e-05
-2.06367e-07
8.40369e-05
-4.32044e-08
8.3976e-05
1.31342e-07
8.38893e-05
3.19272e-07
8.3777e-05
5.22714e-07
8.36393e-05
7.43907e-07
8.34772e-05
9.8518e-07
8.32925e-05
1.2489e-06
8.30884e-05
1.5374e-06
8.28695e-05
1.85282e-06
8.26429e-05
2.19686e-06
8.24183e-05
2.5705e-06
8.22092e-05
2.97345e-06
8.20326e-05
3.40352e-06
8.19095e-05
3.85585e-06
8.18634e-05
4.322e-06
8.19179e-05
4.78916e-06
8.20914e-05
5.2398e-06
5.65255e-06
8.23896e-05
1.89534e-05
-1.9567e-06
1.95086e-05
-3.74349e-06
2.03025e-05
-5.25508e-06
2.13082e-05
-6.57881e-06
2.25041e-05
-7.7571e-06
2.38722e-05
-8.81829e-06
2.53973e-05
-9.78132e-06
2.70658e-05
-1.06572e-05
2.8865e-05
-1.14506e-05
3.07818e-05
-1.21616e-05
3.28027e-05
-1.27871e-05
3.49132e-05
-1.33231e-05
3.70981e-05
-1.37648e-05
3.93412e-05
-1.41088e-05
4.16261e-05
-1.43532e-05
4.39361e-05
-1.44981e-05
4.62552e-05
-1.45459e-05
4.85677e-05
-1.4501e-05
5.08594e-05
-1.43697e-05
5.3117e-05
-1.41597e-05
5.5329e-05
-1.38796e-05
5.74851e-05
-1.35385e-05
5.9577e-05
-1.3146e-05
6.15978e-05
-1.27111e-05
6.35418e-05
-1.22428e-05
6.54052e-05
-1.17494e-05
6.7185e-05
-1.12384e-05
6.88797e-05
-1.07166e-05
7.04884e-05
-1.01902e-05
7.20115e-05
-9.6644e-06
7.34497e-05
-9.14366e-06
7.48046e-05
-8.63179e-06
7.60781e-05
-8.13191e-06
7.72726e-05
-7.64653e-06
7.83908e-05
-7.17761e-06
7.94356e-05
-6.72665e-06
8.041e-05
-6.29469e-06
8.13172e-05
-5.88242e-06
8.21604e-05
-5.49018e-06
8.29427e-05
-5.11807e-06
8.36673e-05
-4.7659e-06
8.43374e-05
-4.43331e-06
8.49557e-05
-4.11975e-06
8.55254e-05
-3.82453e-06
8.60489e-05
-3.54681e-06
8.65291e-05
-3.28568e-06
8.69682e-05
-3.0401e-06
8.73685e-05
-2.809e-06
8.77322e-05
-2.59119e-06
8.8061e-05
-2.38547e-06
8.83568e-05
-2.19057e-06
8.8621e-05
-2.00516e-06
8.88551e-05
-1.82791e-06
8.90602e-05
-1.65741e-06
8.92373e-05
-1.49224e-06
8.93872e-05
-1.33093e-06
8.95107e-05
-1.172e-06
8.96082e-05
-1.0139e-06
8.96803e-05
-8.55073e-07
8.97272e-05
-6.93911e-07
8.97492e-05
-5.28769e-07
8.97463e-05
-3.57965e-07
8.9719e-05
-1.79775e-07
8.96673e-05
7.59338e-09
8.95918e-05
2.05949e-07
8.9493e-05
4.17013e-07
8.93721e-05
6.42561e-07
8.92305e-05
8.84313e-07
8.90707e-05
1.14388e-06
8.88957e-05
1.42268e-06
8.871e-05
1.72181e-06
8.85196e-05
2.04193e-06
8.83323e-05
2.38296e-06
8.81577e-05
2.74388e-06
8.80075e-05
3.12239e-06
8.78953e-05
3.51452e-06
8.78356e-05
3.91433e-06
8.78428e-05
4.31367e-06
8.79286e-05
4.70216e-06
8.80998e-05
5.0676e-06
5.39736e-06
8.83539e-05
2.0271e-05
-2.2435e-06
2.08546e-05
-4.32617e-06
2.16935e-05
-6.0926e-06
2.27605e-05
-7.64373e-06
2.40332e-05
-9.02734e-06
2.54931e-05
-1.02752e-05
2.71243e-05
-1.1409e-05
2.89125e-05
-1.24415e-05
3.08442e-05
-1.3378e-05
3.29056e-05
-1.42183e-05
3.50821e-05
-1.49587e-05
3.73581e-05
-1.55938e-05
3.97167e-05
-1.61179e-05
4.21402e-05
-1.65266e-05
4.46104e-05
-1.68175e-05
4.71089e-05
-1.69905e-05
4.96176e-05
-1.70484e-05
5.21193e-05
-1.69965e-05
5.4598e-05
-1.68421e-05
5.70392e-05
-1.65945e-05
5.94298e-05
-1.62639e-05
6.17588e-05
-1.58613e-05
6.4017e-05
-1.53978e-05
6.61966e-05
-1.48845e-05
6.82918e-05
-1.43319e-05
7.02982e-05
-1.37498e-05
7.22129e-05
-1.31471e-05
7.40341e-05
-1.2532e-05
7.57611e-05
-1.19116e-05
7.73943e-05
-1.1292e-05
7.89346e-05
-1.06786e-05
8.03838e-05
-1.00758e-05
8.17441e-05
-9.48721e-06
8.30182e-05
-8.91577e-06
8.42091e-05
-8.36378e-06
8.53198e-05
-7.83294e-06
8.63539e-05
-7.32447e-06
8.73146e-05
-6.83914e-06
8.82056e-05
-6.37733e-06
8.90303e-05
-5.93913e-06
8.97921e-05
-5.5243e-06
9.04944e-05
-5.13239e-06
9.11403e-05
-4.76276e-06
9.17331e-05
-4.41457e-06
9.22757e-05
-4.08685e-06
9.27708e-05
-3.77851e-06
9.32211e-05
-3.48837e-06
9.36291e-05
-3.21514e-06
9.3997e-05
-2.95748e-06
9.43269e-05
-2.714e-06
9.46208e-05
-2.48323e-06
9.48803e-05
-2.26368e-06
9.5107e-05
-2.05382e-06
9.53022e-05
-1.85209e-06
9.54673e-05
-1.65689e-06
9.56032e-05
-1.46663e-06
9.57109e-05
-1.27968e-06
9.57913e-05
-1.09438e-06
9.5845e-05
-9.0909e-07
9.58728e-05
-7.22141e-07
9.58753e-05
-5.31871e-07
9.58532e-05
-3.36621e-07
9.58074e-05
-1.34746e-07
9.57387e-05
7.54037e-08
9.56482e-05
2.95356e-07
9.55376e-05
5.26532e-07
9.54087e-05
7.70258e-07
9.52641e-05
1.02768e-06
9.5107e-05
1.29969e-06
9.49416e-05
1.58684e-06
9.47728e-05
1.88924e-06
9.4607e-05
2.2064e-06
9.44515e-05
2.53709e-06
9.43148e-05
2.87922e-06
9.42062e-05
3.2296e-06
9.41355e-05
3.58389e-06
9.4112e-05
3.93654e-06
9.41436e-05
4.28083e-06
9.42354e-05
4.60915e-06
9.43883e-05
4.91351e-06
5.18671e-06
9.45978e-05
2.16814e-05
-2.54385e-06
2.22959e-05
-4.93976e-06
2.31839e-05
-6.97897e-06
2.43172e-05
-8.77485e-06
2.56734e-05
-1.03809e-05
2.72334e-05
-1.18319e-05
2.89808e-05
-1.31526e-05
3.09008e-05
-1.43573e-05
3.29792e-05
-1.54518e-05
3.52015e-05
-1.64355e-05
3.75518e-05
-1.73037e-05
4.00132e-05
-1.80495e-05
4.25672e-05
-1.86659e-05
4.5194e-05
-1.91473e-05
4.78732e-05
-1.94903e-05
5.05841e-05
-1.9695e-05
5.33066e-05
-1.97643e-05
5.60213e-05
-1.97044e-05
5.87101e-05
-1.95242e-05
6.13568e-05
-1.92344e-05
6.39472e-05
-1.88474e-05
6.64688e-05
-1.83761e-05
6.89114e-05
-1.78337e-05
7.12667e-05
-1.72332e-05
7.35284e-05
-1.6587e-05
7.56918e-05
-1.59066e-05
7.77537e-05
-1.52026e-05
7.97124e-05
-1.44844e-05
8.15673e-05
-1.37604e-05
8.3319e-05
-1.30377e-05
8.49686e-05
-1.23225e-05
8.65183e-05
-1.16198e-05
8.79705e-05
-1.0934e-05
8.93282e-05
-1.02683e-05
9.05949e-05
-9.62538e-06
9.17739e-05
-9.0072e-06
9.28692e-05
-8.41511e-06
9.38844e-05
-7.84997e-06
9.48234e-05
-7.31221e-06
9.569e-05
-6.80186e-06
9.6488e-05
-6.31864e-06
9.72211e-05
-5.86202e-06
9.78927e-05
-5.4312e-06
9.85063e-05
-5.02522e-06
9.90651e-05
-4.64294e-06
9.95722e-05
-4.28311e-06
0.00010003
-3.94434e-06
0.000100442
-3.62519e-06
0.000100811
-3.32411e-06
0.000101138
-3.0395e-06
0.000101426
-2.76975e-06
0.000101676
-2.51315e-06
0.000101891
-2.26803e-06
0.000102072
-2.03265e-06
0.000102221
-1.80528e-06
0.000102339
-1.5842e-06
0.000102427
-1.36766e-06
0.000102486
-1.15394e-06
0.000102518
-9.41351e-07
0.000102524
-7.28203e-07
0.000102504
-5.12867e-07
0.000102461
-2.93764e-07
0.000102394
-6.93835e-08
0.000102307
1.61724e-07
0.000102201
4.00757e-07
0.000102077
6.48813e-07
0.000101939
9.06777e-07
0.00010179
1.17526e-06
0.000101634
1.45456e-06
0.000101475
1.74455e-06
0.000101318
2.04462e-06
0.000101169
2.35363e-06
0.000101035
2.66976e-06
0.000100923
2.99052e-06
0.000100838
3.31266e-06
0.000100788
3.63223e-06
0.000100779
3.94464e-06
0.000100813
4.24484e-06
0.000100894
4.52757e-06
0.000101018
4.78782e-06
5.02164e-06
0.000101182
2.31911e-05
-2.85976e-06
2.38399e-05
-5.58752e-06
2.47815e-05
-7.9189e-06
2.59875e-05
-9.97851e-06
2.74353e-05
-1.18257e-05
2.91056e-05
-1.34986e-05
3.09815e-05
-1.50245e-05
3.3048e-05
-1.64193e-05
3.52905e-05
-1.76892e-05
3.76934e-05
-1.8833e-05
4.024e-05
-1.98444e-05
4.29115e-05
-2.07148e-05
4.56873e-05
-2.14353e-05
4.85454e-05
-2.19986e-05
5.14626e-05
-2.24006e-05
5.44154e-05
-2.26407e-05
5.73808e-05
-2.27224e-05
6.03368e-05
-2.26531e-05
6.32632e-05
-2.24432e-05
6.61417e-05
-2.21055e-05
6.89562e-05
-2.16545e-05
7.1693e-05
-2.11055e-05
7.43409e-05
-2.04743e-05
7.68909e-05
-1.97759e-05
7.93361e-05
-1.9025e-05
8.16716e-05
-1.8235e-05
8.38942e-05
-1.74182e-05
8.60021e-05
-1.65856e-05
8.79951e-05
-1.57468e-05
8.98739e-05
-1.491e-05
9.164e-05
-1.40824e-05
9.3296e-05
-1.32697e-05
9.48448e-05
-1.24769e-05
9.62898e-05
-1.17076e-05
9.76348e-05
-1.0965e-05
9.88839e-05
-1.0251e-05
0.000100041
-9.56738e-06
0.000101111
-8.91492e-06
0.000102097
-8.29409e-06
0.000103004
-7.70491e-06
0.000103837
-7.147e-06
0.000104598
-6.61972e-06
0.000105293
-6.12213e-06
0.000105924
-5.65311e-06
0.000106495
-5.21135e-06
0.00010701
-4.79539e-06
0.000107472
-4.40368e-06
0.000107883
-4.03455e-06
0.000108247
-3.68627e-06
0.000108566
-3.35705e-06
0.000108843
-3.04508e-06
0.000109079
-2.7485e-06
0.000109278
-2.46545e-06
0.00010944
-2.19405e-06
0.000109568
-1.93246e-06
0.000109662
-1.67883e-06
0.000109726
-1.43135e-06
0.00010976
-1.18824e-06
0.000109766
-9.47788e-07
0.000109746
-7.08339e-07
0.000109701
-4.68327e-07
0.000109632
-2.26284e-07
0.000109543
1.91447e-08
0.000109434
2.69151e-07
0.000109309
5.2466e-07
0.00010917
7.86452e-07
0.000109021
1.05504e-06
0.000108864
1.33061e-06
0.000108704
1.61302e-06
0.000108545
1.90173e-06
0.000108393
2.19573e-06
0.000108251
2.49359e-06
0.000108126
2.79335e-06
0.000108022
3.0926e-06
0.000107945
3.38847e-06
0.000107898
3.67771e-06
0.000107884
3.95683e-06
0.000107905
4.22225e-06
0.000107961
4.4705e-06
0.000108049
4.69853e-06
4.90432e-06
0.000108165
2.4807e-05
-3.19353e-06
2.54941e-05
-6.27348e-06
2.64952e-05
-8.91816e-06
2.77816e-05
-1.12624e-05
2.93309e-05
-1.33718e-05
3.11236e-05
-1.52876e-05
3.31432e-05
-1.70396e-05
3.53744e-05
-1.86455e-05
3.78022e-05
-2.01115e-05
4.04105e-05
-2.14354e-05
4.31812e-05
-2.26088e-05
4.60936e-05
-2.36205e-05
4.91245e-05
-2.44592e-05
5.22486e-05
-2.51154e-05
5.54393e-05
-2.55838e-05
5.86696e-05
-2.58633e-05
6.19132e-05
-2.59581e-05
6.51447e-05
-2.58768e-05
6.83411e-05
-2.56316e-05
7.14817e-05
-2.52381e-05
7.45485e-05
-2.47133e-05
7.75263e-05
-2.40754e-05
8.04029e-05
-2.33429e-05
8.31684e-05
-2.25336e-05
8.58156e-05
-2.16644e-05
8.83394e-05
-2.07512e-05
9.07367e-05
-1.9808e-05
9.30059e-05
-1.88475e-05
9.5147e-05
-1.78807e-05
9.71613e-05
-1.69173e-05
9.90508e-05
-1.59651e-05
0.000100818
-1.50308e-05
0.000102468
-1.41198e-05
0.000104003
-1.32365e-05
0.000105428
-1.23841e-05
0.000106747
-1.1565e-05
0.000107966
-1.07809e-05
0.000109089
-1.00328e-05
0.000110121
-9.32106e-06
0.000111066
-8.64568e-06
0.00011193
-8.00617e-06
0.000112716
-7.40175e-06
0.000113429
-6.83134e-06
0.000114073
-6.29361e-06
0.000114652
-5.78707e-06
0.000115169
-5.31006e-06
0.000115629
-4.86081e-06
0.000116034
-4.43745e-06
0.000116388
-4.03805e-06
0.000116693
-3.66062e-06
0.000116953
-3.30316e-06
0.000117169
-2.96364e-06
0.000117345
-2.64004e-06
0.000117482
-2.33036e-06
0.000117582
-2.03263e-06
0.000117649
-1.74491e-06
0.000117683
-1.46534e-06
0.000117687
-1.1921e-06
0.000117662
-9.23497e-07
0.000117611
-6.57913e-07
0.000117536
-3.93865e-07
0.000117439
-1.30008e-07
0.000117322
1.34882e-07
0.000117188
4.01698e-07
0.00011704
6.71203e-07
0.000116881
9.43912e-07
0.000116715
1.22006e-06
0.000116544
1.49957e-06
0.000116374
1.78204e-06
0.000116207
2.06672e-06
0.000116049
2.3525e-06
0.000115903
2.63794e-06
0.000115773
2.92125e-06
0.000115663
3.20033e-06
0.000115577
3.47289e-06
0.000115517
3.73645e-06
0.000115484
3.98851e-06
0.000115478
4.22666e-06
0.000115498
4.4487e-06
0.000115542
4.65285e-06
4.83821e-06
0.000115607
2.65366e-05
-3.54774e-06
2.72668e-05
-7.00245e-06
2.83343e-05
-9.98372e-06
2.97106e-05
-1.26359e-05
3.13734e-05
-1.50311e-05
3.33038e-05
-1.72138e-05
3.54857e-05
-1.92166e-05
3.79041e-05
-2.10585e-05
4.05442e-05
-2.27456e-05
4.33891e-05
-2.42738e-05
4.64192e-05
-2.56319e-05
4.96112e-05
-2.68052e-05
5.29385e-05
-2.77788e-05
5.63718e-05
-2.85408e-05
5.98799e-05
-2.90838e-05
6.34314e-05
-2.94064e-05
6.69953e-05
-2.95135e-05
7.05426e-05
-2.94154e-05
7.40468e-05
-2.91271e-05
7.74844e-05
-2.86669e-05
8.08353e-05
-2.80554e-05
8.40827e-05
-2.73141e-05
8.72133e-05
-2.64648e-05
9.02166e-05
-2.55284e-05
9.30852e-05
-2.45246e-05
9.5814e-05
-2.34716e-05
9.83999e-05
-2.23858e-05
0.000100842
-2.12816e-05
0.000103141
-2.01718e-05
0.000105298
-1.90669e-05
0.000107317
-1.79762e-05
0.0001092
-1.6907e-05
0.000110953
-1.58654e-05
0.000112579
-1.48562e-05
0.000114084
-1.38829e-05
0.000115473
-1.29482e-05
0.000116752
-1.20538e-05
0.000117926
-1.12008e-05
0.000118999
-1.03896e-05
0.000119979
-9.61995e-06
0.000120868
-8.89134e-06
0.000121674
-8.2028e-06
0.0001224
-7.55305e-06
0.00012305
-6.94057e-06
0.00012363
-6.36364e-06
0.000124144
-5.82038e-06
0.000124594
-5.30879e-06
0.000124986
-4.8268e-06
0.000125323
-4.37225e-06
0.000125607
-3.94296e-06
0.000125842
-3.53673e-06
0.000126031
-3.15136e-06
0.000126177
-2.7847e-06
0.000126282
-2.43459e-06
0.000126349
-2.09897e-06
0.00012638
-1.77582e-06
0.000126378
-1.46323e-06
0.000126345
-1.15937e-06
0.000126284
-8.62543e-07
0.000126196
-5.7119e-07
0.000126085
-2.83898e-07
0.000125954
5.76244e-10
0.000125804
2.83284e-07
0.00012564
5.64996e-07
0.000125463
8.46321e-07
0.000125278
1.12761e-06
0.000125088
1.40893e-06
0.000124896
1.6901e-06
0.000124705
1.97062e-06
0.00012452
2.24974e-06
0.000124345
2.52643e-06
0.000124181
2.79942e-06
0.000124033
3.06725e-06
0.000123904
3.32827e-06
0.000123794
3.58077e-06
0.000123706
3.82298e-06
0.000123639
4.05322e-06
0.000123594
4.26994e-06
0.000123569
4.47182e-06
0.000123563
4.65789e-06
4.82793e-06
0.000123571
2.83878e-05
-3.92537e-06
2.91669e-05
-7.78024e-06
3.03094e-05
-1.11241e-05
3.1787e-05
-1.41105e-05
3.35782e-05
-1.68184e-05
3.56652e-05
-1.92962e-05
3.80328e-05
-2.15789e-05
4.06672e-05
-2.3687e-05
4.35538e-05
-2.56257e-05
4.66751e-05
-2.73881e-05
5.00095e-05
-2.89587e-05
5.35303e-05
-3.0318e-05
5.72063e-05
-3.14465e-05
6.10025e-05
-3.23283e-05
6.48818e-05
-3.29541e-05
6.88068e-05
-3.33223e-05
7.27411e-05
-3.34386e-05
7.6651e-05
-3.33159e-05
8.0506e-05
-3.29725e-05
8.42795e-05
-3.24309e-05
8.79492e-05
-3.17155e-05
9.14969e-05
-3.08522e-05
9.4908e-05
-2.98665e-05
9.8172e-05
-2.8783e-05
0.000101281
-2.76245e-05
0.000104231
-2.64121e-05
0.000107019
-2.51646e-05
0.000109644
-2.38983e-05
0.000112108
-2.26277e-05
0.000114414
-2.13647e-05
0.000116566
-2.01195e-05
0.000118567
-1.89004e-05
0.000120423
-1.77141e-05
0.00012214
-1.65657e-05
0.000123723
-1.54592e-05
0.000125179
-1.43974e-05
0.000126514
-1.3382e-05
0.000127733
-1.24141e-05
0.000128843
-1.1494e-05
0.00012985
-1.06215e-05
0.00013076
-9.79577e-06
0.000131577
-9.01565e-06
0.000132308
-8.27967e-06
0.000132958
-7.58606e-06
0.000133531
-6.93286e-06
0.000134032
-6.31795e-06
0.000134465
-5.7391e-06
0.000134835
-5.19398e-06
0.000135145
-4.68022e-06
0.0001354
-4.19543e-06
0.000135602
-3.73722e-06
0.000135756
-3.30321e-06
0.000135863
-2.89109e-06
0.000135928
-2.49859e-06
0.000135953
-2.12353e-06
0.000135941
-1.76383e-06
0.000135896
-1.41751e-06
0.000135819
-1.08273e-06
0.000135714
-7.57804e-07
0.000135583
-4.4119e-07
0.00013543
-1.31533e-07
0.000135257
1.724e-07
0.000135068
4.7145e-07
0.000134865
7.66393e-07
0.000134652
1.05776e-06
0.000134432
1.34583e-06
0.000134209
1.63064e-06
0.000133985
1.912e-06
0.000133765
2.18947e-06
0.00013355
2.46243e-06
0.000133344
2.73004e-06
0.00013315
2.99134e-06
0.00013297
3.24522e-06
0.000132806
3.49052e-06
0.000132659
3.72604e-06
0.000132529
3.95064e-06
0.000132417
4.16325e-06
0.000132322
4.36295e-06
0.000132243
4.54902e-06
0.000132178
4.72102e-06
4.87911e-06
0.000132126
3.03691e-05
-4.32989e-06
3.12042e-05
-8.61386e-06
3.2432e-05
-1.23496e-05
3.40252e-05
-1.57003e-05
3.59634e-05
-1.87524e-05
3.82306e-05
-2.15585e-05
4.0814e-05
-2.41564e-05
4.37012e-05
-2.65677e-05
4.68787e-05
-2.87959e-05
5.0328e-05
-3.08297e-05
5.40247e-05
-3.26471e-05
5.79371e-05
-3.42216e-05
6.20272e-05
-3.55274e-05
6.62524e-05
-3.6544e-05
7.05677e-05
-3.72597e-05
7.49282e-05
-3.76726e-05
7.92907e-05
-3.77909e-05
8.3616e-05
-3.76308e-05
8.78691e-05
-3.72153e-05
9.20204e-05
-3.65717e-05
9.60452e-05
-3.57299e-05
9.99241e-05
-3.47207e-05
0.000103642
-3.35741e-05
0.000107188
-3.23189e-05
0.000110556
-3.09817e-05
0.00011374
-2.95866e-05
0.00011674
-2.81549e-05
0.000119556
-2.67052e-05
0.000122192
-2.52535e-05
0.000124649
-2.38133e-05
0.000126934
-2.23959e-05
0.000129053
-2.10102e-05
0.00013101
-1.96635e-05
0.000132814
-1.83615e-05
0.000134471
-1.71083e-05
0.000135987
-1.59068e-05
0.000137371
-1.47588e-05
0.000138629
-1.36652e-05
0.000139767
-1.26264e-05
0.000140794
-1.16418e-05
0.000141714
-1.07104e-05
0.000142534
-9.83093e-06
0.000143261
-9.00152e-06
0.000143899
-8.22018e-06
0.000144455
-7.48468e-06
0.000144934
-6.79263e-06
0.000145339
-6.14153e-06
0.000145677
-5.5288e-06
0.000145952
-4.95183e-06
0.000146166
-4.408e-06
0.000146326
-3.89472e-06
0.000146434
-3.40944e-06
0.000146494
-2.94968e-06
0.000146509
-2.51303e-06
0.000146483
-2.09721e-06
0.00014642
-1.70004e-06
0.000146322
-1.31949e-06
0.000146193
-9.53672e-07
0.000146035