/*--------------------------------*- C++ -*----------------------------------*\
  =========                 |
  \\      /  F ield         | OpenFOAM: The Open Source CFD Toolbox
   \\    /   O peration     | Website:  https://openfoam.org
    \\  /    A nd           | Version:  7
     \\/     M anipulation  |
\*---------------------------------------------------------------------------*/
FoamFile
{
    version     2.0;
    format      ascii;
    class       volScalarField;
    location    "5";
    object      T;
}
// * * * * * * * * * * * * * * * * * * * * * * * * * * * * * * * * * * * * * //

dimensions      [0 0 0 1 0 0 0];

internalField   nonuniform List<scalar> 
12013
(
300.068
300.205
300.346
300.49
300.636
300.782
300.928
301.074
301.218
301.361
301.502
301.641
301.777
301.911
302.041
302.169
302.294
302.416
302.536
302.653
302.767
302.879
302.99
303.099
303.206
303.313
303.419
303.525
303.632
303.739
303.849
303.96
304.074
304.192
304.314
304.442
304.576
304.717
304.867
305.027
305.198
305.382
305.58
305.794
306.027
306.279
306.554
306.853
307.18
307.537
307.927
308.354
308.82
309.33
309.888
310.497
311.164
311.893
312.689
313.558
314.508
315.544
316.675
317.91
319.257
320.726
322.33
324.081
325.993
328.082
330.369
332.874
335.625
338.653
341.997
345.709
349.856
354.533
359.885
366.151
373.794
300.068
300.205
300.347
300.49
300.636
300.782
300.929
301.074
301.219
301.362
301.503
301.642
301.778
301.912
302.043
302.17
302.295
302.418
302.537
302.654
302.768
302.881
302.991
303.1
303.208
303.315
303.421
303.527
303.633
303.741
303.85
303.961
304.075
304.193
304.315
304.443
304.577
304.718
304.868
305.028
305.199
305.383
305.581
305.795
306.027
306.28
306.554
306.853
307.18
307.537
307.926
308.353
308.818
309.328
309.885
310.494
311.16
311.888
312.683
313.551
314.499
315.534
316.663
317.894
319.238
320.704
322.303
324.048
325.953
328.033
330.308
332.799
335.531
338.533
341.842
345.504
349.575
354.132
359.272
365.118
371.777
300.068
300.206
300.347
300.491
300.637
300.783
300.93
301.076
301.221
301.364
301.505
301.644
301.78
301.914
302.045
302.173
302.298
302.42
302.54
302.657
302.772
302.884
302.995
303.104
303.211
303.318
303.424
303.53
303.637
303.744
303.853
303.965
304.079
304.196
304.319
304.446
304.58
304.721
304.871
305.031
305.201
305.385
305.583
305.797
306.029
306.281
306.555
306.854
307.18
307.536
307.925
308.35
308.815
309.324
309.88
310.487
311.151
311.877
312.67
313.535
314.48
315.51
316.635
317.861
319.197
320.654
322.243
323.975
325.864
327.926
330.176
332.635
335.326
338.273
341.509
345.068
348.991
353.326
358.116
363.387
369.1
300.068
300.206
300.348
300.492
300.638
300.785
300.932
301.078
301.223
301.367
301.508
301.647
301.784
301.918
302.049
302.177
302.303
302.425
302.545
302.662
302.777
302.889
303
303.109
303.217
303.324
303.43
303.536
303.643
303.75
303.859
303.97
304.084
304.202
304.324
304.451
304.585
304.726
304.876
305.035
305.206
305.389
305.586
305.8
306.031
306.283
306.556
306.854
307.18
307.535
307.923
308.347
308.81
309.317
309.871
310.476
311.137
311.859
312.648
313.509
314.448
315.472
316.588
317.804
319.13
320.573
322.145
323.857
325.72
327.75
329.961
332.37
334.996
337.86
340.985
344.394
348.112
352.158
356.539
361.235
366.172
300.068
300.207
300.349
300.493
300.64
300.787
300.934
301.081
301.227
301.371
301.513
301.652
301.789
301.924
302.055
302.184
302.309
302.432
302.552
302.669
302.784
302.897
303.008
303.117
303.225
303.332
303.438
303.544
303.651
303.758
303.867
303.978
304.092
304.21
304.332
304.459
304.592
304.733
304.882
305.041
305.212
305.394
305.591
305.804
306.035
306.286
306.558
306.855
307.179
307.533
307.919
308.341
308.802
309.306
309.857
310.459
311.116
311.833
312.616
313.47
314.401
315.415
316.52
317.723
319.031
320.455
322.003
323.685
325.513
327.498
329.654
331.994
334.533
337.286
340.267
343.491
346.965
350.692
354.658
358.828
363.136
300.068
300.207
300.35
300.495
300.642
300.79
300.938
301.085
301.232
301.376
301.519
301.659
301.797
301.931
302.063
302.192
302.318
302.441
302.562
302.68
302.795
302.908
303.019
303.128
303.236
303.343
303.45
303.556
303.662
303.77
303.879
303.99
304.104
304.221
304.343
304.469
304.603
304.743
304.892
305.05
305.22
305.402
305.598
305.811
306.04
306.29
306.561
306.857
307.179
307.531
307.915
308.334
308.792
309.292
309.839
310.436
311.087
311.797
312.572
313.417
314.337
315.338
316.427
317.611
318.898
320.295
321.811
323.454
325.235
327.163
329.248
331.502
333.933
336.551
339.365
342.378
345.59
348.992
352.563
356.267
360.052
300.069
300.208
300.352
300.498
300.646
300.794
300.943
301.091
301.238
301.384
301.527
301.668
301.806
301.942
302.074
302.204
302.331
302.454
302.575
302.693
302.809
302.922
303.033
303.143
303.251
303.358
303.465
303.571
303.678
303.785
303.894
304.005
304.118
304.236
304.357
304.483
304.616
304.756
304.905
305.062
305.231
305.413
305.608
305.819
306.047
306.295
306.565
306.858
307.178
307.527
307.908
308.324
308.778
309.274
309.815
310.405
311.049
311.751
312.515
313.347
314.253
315.237
316.306
317.467
318.725
320.088
321.564
323.159
324.882
326.74
328.741
330.891
333.198
335.665
338.294
341.085
344.03
347.116
350.321
353.614
356.956
300.069
300.21
300.354
300.501
300.65
300.8
300.95
301.099
301.247
301.393
301.538
301.679
301.819
301.955
302.089
302.219
302.346
302.471
302.592
302.711
302.827
302.941
303.052
303.162
303.271
303.378
303.484
303.591
303.697
303.805
303.914
304.024
304.138
304.254
304.376
304.502
304.634
304.773
304.921
305.078
305.246
305.426
305.62
305.83
306.056
306.302
306.57
306.861
307.178
307.524
307.901
308.312
308.761
309.25
309.784
310.366
311.001
311.691
312.443
313.26
314.147
315.11
316.155
317.286
318.51
319.832
321.259
322.797
324.451
326.228
328.131
330.166
332.335
334.639
337.075
339.64
342.324
345.111
347.983
350.913
353.872
300.07
300.212
300.357
300.506
300.656
300.807
300.958
301.108
301.258
301.405
301.551
301.694
301.835
301.972
302.107
302.238
302.366
302.491
302.614
302.733
302.85
302.964
303.076
303.186
303.295
303.403
303.509
303.616
303.723
303.83
303.939
304.049
304.162
304.279
304.399
304.525
304.656
304.795
304.942
305.098
305.264
305.443
305.636
305.843
306.068
306.312
306.576
306.864
307.178
307.519
307.891
308.297
308.739
309.221
309.747
310.319
310.941
311.618
312.353
313.152
314.018
314.956
315.97
317.067
318.25
319.524
320.894
322.366
323.942
325.627
327.424
329.333
331.356
333.491
335.733
338.075
340.508
343.018
345.587
348.195
350.819
300.071
300.214
300.361
300.511
300.663
300.815
300.968
301.12
301.271
301.421
301.568
301.712
301.854
301.993
302.129
302.262
302.391
302.517
302.641
302.761
302.878
302.993
303.106
303.217
303.326
303.434
303.541
303.647
303.754
303.861
303.97
304.08
304.193
304.309
304.429
304.553
304.684
304.822
304.967
305.122
305.287
305.465
305.655
305.86
306.083
306.323
306.585
306.869
307.178
307.514
307.88
308.279
308.713
309.186
309.701
310.261
310.869
311.53
312.246
313.023
313.863
314.771
315.751
316.807
317.943
319.162
320.47
321.867
323.358
324.944
326.626
328.404
330.277
332.241
334.291
336.419
338.617
340.87
343.166
345.487
347.817
300.071
300.217
300.366
300.517
300.671
300.826
300.981
301.135
301.288
301.439
301.588
301.735
301.879
302.019
302.157
302.291
302.422
302.549
302.674
302.795
302.913
303.029
303.143
303.254
303.364
303.472
303.579
303.686
303.793
303.9
304.008
304.118
304.23
304.346
304.465
304.589
304.719
304.855
305
305.153
305.316
305.491
305.679
305.882
306.101
306.338
306.595
306.875
307.178
307.508
307.868
308.258
308.683
309.146
309.648
310.193
310.785
311.426
312.121
312.872
313.682
314.556
315.496
316.507
317.59
318.749
319.987
321.304
322.704
324.185
325.749
327.393
329.115
330.911
332.775
334.701
336.678
338.697
340.746
342.811
344.881
300.073
300.22
300.371
300.525
300.682
300.839
300.996
301.153
301.308
301.462
301.614
301.763
301.909
302.051
302.191
302.327
302.459
302.588
302.714
302.837
302.956
303.073
303.188
303.3
303.41
303.519
303.626
303.733
303.84
303.947
304.055
304.164
304.276
304.391
304.51
304.633
304.761
304.896
305.039
305.19
305.351
305.524
305.709
305.909
306.124
306.357
306.609
306.883
307.18
307.503
307.854
308.235
308.649
309.099
309.587
310.115
310.688
311.307
311.976
312.698
313.475
314.311
315.207
316.167
317.193
318.287
319.45
320.683
321.987
323.361
324.805
326.315
327.889
329.523
331.21
332.945
334.719
336.525
338.351
340.188
342.026
300.074
300.224
300.378
300.535
300.694
300.854
301.015
301.175
301.333
301.49
301.644
301.796
301.945
302.09
302.232
302.37
302.505
302.636
302.763
302.888
303.009
303.127
303.242
303.355
303.466
303.575
303.683
303.79
303.897
304.004
304.112
304.221
304.332
304.446
304.564
304.685
304.813
304.946
305.087
305.236
305.395
305.564
305.746
305.942
306.153
306.381
306.628
306.895
307.185
307.499
307.84
308.211
308.612
309.047
309.518
310.028
310.579
311.173
311.814
312.503
313.244
314.037
314.886
315.792
316.757
317.781
318.866
320.012
321.219
322.485
323.808
325.188
326.619
328.097
329.619
331.177
332.765
334.376
336.002
337.635
339.267
300.075
300.229
300.386
300.547
300.71
300.873
301.037
301.201
301.363
301.523
301.681
301.836
301.988
302.137
302.281
302.422
302.559
302.693
302.822
302.948
303.071
303.191
303.307
303.421
303.533
303.643
303.752
303.859
303.966
304.073
304.18
304.289
304.399
304.512
304.629
304.749
304.875
305.006
305.145
305.291
305.447
305.614
305.792
305.983
306.189
306.411
306.651
306.911
307.193
307.497
307.828
308.185
308.572
308.991
309.444
309.932
310.459
311.026
311.636
312.29
312.99
313.738
314.536
315.385
316.286
317.239
318.244
319.302
320.411
321.57
322.777
324.029
325.324
326.656
328.023
329.418
330.835
332.271
333.717
335.167
336.616
300.077
300.235
300.396
300.561
300.728
300.896
301.064
301.232
301.399
301.563
301.725
301.885
302.04
302.192
302.34
302.485
302.625
302.761
302.893
303.021
303.146
303.267
303.386
303.501
303.614
303.725
303.834
303.941
304.048
304.155
304.262
304.371
304.48
304.592
304.707
304.826
304.95
305.079
305.215
305.359
305.511
305.674
305.847
306.033
306.234
306.449
306.682
306.934
307.206
307.499
307.817
308.161
308.532
308.932
309.365
309.83
310.33
310.868
311.444
312.06
312.718
313.419
314.164
314.954
315.788
316.669
317.594
318.564
319.577
320.632
321.726
322.858
324.024
325.22
326.443
327.689
328.952
330.228
331.513
332.8
334.085
300.08
300.241
300.408
300.578
300.75
300.923
301.097
301.27
301.441
301.611
301.778
301.942
302.102
302.259
302.411
302.559
302.703
302.842
302.977
303.108
303.235
303.359
303.479
303.596
303.71
303.822
303.931
304.04
304.147
304.254
304.36
304.468
304.577
304.688
304.801
304.918
305.04
305.167
305.3
305.44
305.588
305.746
305.915
306.096
306.29
306.498
306.722
306.965
307.226
307.508
307.812
308.14
308.493
308.874
309.284
309.725
310.197
310.703
311.243
311.82
312.434
313.086
313.776
314.506
315.274
316.082
316.928
317.812
318.732
319.687
320.674
321.692
322.738
323.808
324.9
326.009
327.132
328.266
329.405
330.546
331.686
300.082
300.25
300.422
300.598
300.776
300.955
301.135
301.314
301.492
301.668
301.841
302.01
302.176
302.337
302.495
302.647
302.795
302.939
303.077
303.211
303.341
303.467
303.59
303.708
303.824
303.937
304.048
304.156
304.264
304.37
304.477
304.584
304.692
304.801
304.913
305.028
305.147
305.271
305.401
305.538
305.682
305.835
305.998
306.172
306.359
306.559
306.775
307.006
307.256
307.525
307.814
308.125
308.46
308.82
309.206
309.62
310.063
310.536
311.039
311.575
312.144
312.746
313.382
314.051
314.754
315.491
316.26
317.06
317.891
318.751
319.638
320.55
321.485
322.439
323.411
324.396
325.393
326.398
327.408
328.419
329.429
300.086
300.259
300.438
300.621
300.806
300.993
301.18
301.367
301.552
301.735
301.915
302.091
302.263
302.431
302.594
302.752
302.905
303.052
303.195
303.333
303.467
303.596
303.72
303.841
303.959
304.073
304.185
304.294
304.402
304.509
304.615
304.721
304.828
304.936
305.046
305.159
305.275
305.396
305.522
305.655
305.794
305.942
306.099
306.267
306.446
306.637
306.842
307.063
307.3
307.555
307.828
308.122
308.437
308.774
309.136
309.522
309.934
310.373
310.839
311.334
311.857
312.409
312.99
313.601
314.24
314.907
315.603
316.324
317.071
317.842
318.636
319.449
320.282
321.13
321.993
322.867
323.75
324.639
325.533
326.428
327.322
300.089
300.271
300.458
300.649
300.843
301.038
301.234
301.429
301.623
301.814
302.002
302.186
302.366
302.541
302.71
302.875
303.034
303.187
303.335
303.477
303.615
303.747
303.875
303.998
304.118
304.234
304.347
304.457
304.566
304.672
304.778
304.883
304.989
305.096
305.204
305.314
305.428
305.545
305.668
305.795
305.93
306.072
306.222
306.382
306.553
306.735
306.93
307.138
307.362
307.602
307.858
308.134
308.428
308.743
309.079
309.437
309.817
310.222
310.651
311.104
311.582
312.085
312.614
313.167
313.745
314.346
314.971
315.619
316.287
316.975
317.682
318.406
319.145
319.898
320.661
321.435
322.216
323.002
323.792
324.584
325.375
300.094
300.285
300.481
300.682
300.886
301.091
301.297
301.503
301.706
301.908
302.105
302.299
302.487
302.67
302.848
303.02
303.185
303.345
303.498
303.646
303.788
303.925
304.056
304.183
304.305
304.423
304.537
304.649
304.758
304.865
304.97
305.075
305.179
305.284
305.39
305.498
305.609
305.722
305.841
305.964
306.093
306.228
306.372
306.524
306.685
306.858
307.041
307.237
307.447
307.671
307.911
308.167
308.44
308.732
309.042
309.371
309.721
310.092
310.483
310.896
311.331
311.787
312.264
312.763
313.282
313.822
314.381
314.959
315.555
316.167
316.795
317.436
318.091
318.756
319.432
320.115
320.804
321.499
322.196
322.895
323.594
300.099
300.301
300.508
300.721
300.936
301.154
301.372
301.589
301.805
302.017
302.226
302.43
302.629
302.822
303.009
303.19
303.363
303.53
303.691
303.844
303.992
304.133
304.269
304.399
304.524
304.644
304.761
304.873
304.983
305.09
305.196
305.3
305.403
305.506
305.61
305.715
305.822
305.932
306.046
306.164
306.287
306.416
306.553
306.696
306.849
307.011
307.183
307.366
307.562
307.77
307.992
308.229
308.481
308.749
309.034
309.335
309.655
309.992
310.347
310.721
311.113
311.524
311.953
312.401
312.865
313.347
313.845
314.36
314.888
315.431
315.987
316.555
317.133
317.72
318.316
318.918
319.526
320.138
320.754
321.37
321.988
300.105
300.32
300.541
300.766
300.996
301.227
301.459
301.691
301.92
302.146
302.368
302.585
302.796
303.001
303.198
303.389
303.572
303.747
303.915
304.076
304.23
304.377
304.517
304.651
304.78
304.903
305.022
305.136
305.247
305.355
305.46
305.563
305.665
305.767
305.868
305.971
306.075
306.181
306.29
306.402
306.52
306.642
306.771
306.906
307.049
307.2
307.361
307.531
307.712
307.905
308.11
308.327
308.559
308.804
309.063
309.338
309.627
309.932
310.253
310.59
310.943
311.311
311.695
312.094
312.508
312.937
313.379
313.835
314.303
314.783
315.274
315.774
316.284
316.802
317.326
317.857
318.392
318.931
319.473
320.017
320.561
300.113
300.342
300.578
300.82
301.066
301.313
301.562
301.81
302.056
302.298
302.535
302.766
302.991
303.209
303.419
303.621
303.815
304.001
304.178
304.347
304.507
304.661
304.807
304.946
305.078
305.205
305.326
305.443
305.555
305.663
305.768
305.871
305.972
306.072
306.171
306.271
306.371
306.473
306.577
306.685
306.796
306.911
307.032
307.159
307.292
307.433
307.582
307.74
307.907
308.084
308.271
308.47
308.681
308.904
309.14
309.388
309.65
309.924
310.213
310.515
310.83
311.159
311.501
311.856
312.224
312.604
312.996
313.398
313.812
314.235
314.667
315.108
315.557
316.012
316.473
316.94
317.411
317.885
318.362
318.841
319.32
300.121
300.368
300.623
300.883
301.148
301.415
301.683
301.95
302.214
302.475
302.73
302.978
303.22
303.453
303.677
303.893
304.099
304.296
304.483
304.661
304.831
304.991
305.144
305.288
305.425
305.556
305.68
305.799
305.912
306.021
306.127
306.229
306.329
306.427
306.524
306.621
306.718
306.816
306.916
307.017
307.122
307.231
307.344
307.463
307.587
307.717
307.854
307.999
308.153
308.315
308.486
308.667
308.859
309.061
309.273
309.497
309.732
309.979
310.237
310.507
310.788
311.081
311.385
311.7
312.025
312.361
312.707
313.062
313.426
313.799
314.18
314.567
314.961
315.362
315.767
316.177
316.59
317.007
317.427
317.848
318.27
300.131
300.399
300.675
300.957
301.244
301.534
301.824
302.114
302.4
302.682
302.958
303.226
303.486
303.737
303.978
304.209
304.429
304.639
304.838
305.027
305.206
305.374
305.534
305.685
305.827
305.962
306.09
306.211
306.327
306.437
306.543
306.645
306.744
306.84
306.935
307.029
307.123
307.217
307.312
307.408
307.507
307.609
307.715
307.825
307.939
308.06
308.186
308.319
308.459
308.607
308.763
308.927
309.1
309.283
309.474
309.675
309.886
310.107
310.337
310.577
310.828
311.087
311.357
311.636
311.923
312.22
312.525
312.838
313.158
313.486
313.821
314.161
314.507
314.859
315.214
315.574
315.938
316.304
316.672
317.043
317.414
300.143
300.435
300.736
301.044
301.357
301.673
301.99
302.305
302.617
302.924
303.224
303.515
303.797
304.068
304.328
304.576
304.812
305.037
305.249
305.45
305.639
305.818
305.986
306.143
306.292
306.431
306.563
306.687
306.805
306.917
307.023
307.125
307.223
307.318
307.411
307.502
307.592
307.682
307.773
307.864
307.957
308.053
308.151
308.253
308.359
308.47
308.586
308.708
308.836
308.97
309.111
309.26
309.417
309.581
309.753
309.933
310.122
310.319
310.524
310.738
310.96
311.19
311.429
311.675
311.93
312.191
312.46
312.736
313.018
313.306
313.6
313.899
314.203
314.511
314.824
315.14
315.459
315.78
316.104
316.43
316.756
300.157
300.477
300.807
301.145
301.489
301.836
302.184
302.53
302.871
303.207
303.534
303.851
304.158
304.452
304.734
305.002
305.256
305.497
305.725
305.939
306.14
306.329
306.505
306.671
306.826
306.971
307.107
307.234
307.355
307.468
307.575
307.677
307.775
307.868
307.959
308.048
308.135
308.221
308.307
308.394
308.481
308.571
308.662
308.757
308.855
308.957
309.063
309.174
309.291
309.413
309.541
309.676
309.817
309.964
310.119
310.28
310.449
310.625
310.808
310.998
311.196
311.4
311.611
311.829
312.054
312.285
312.522
312.765
313.013
313.267
313.525
313.788
314.055
314.326
314.6
314.878
315.158
315.441
315.725
316.011
316.299
300.174
300.527
300.892
301.265
301.645
302.028
302.411
302.792
303.168
303.536
303.895
304.243
304.577
304.898
305.204
305.494
305.769
306.029
306.273
306.501
306.716
306.916
307.102
307.276
307.438
307.589
307.729
307.861
307.983
308.098
308.207
308.309
308.406
308.499
308.588
308.674
308.758
308.841
308.923
309.004
309.087
309.171
309.256
309.344
309.434
309.528
309.625
309.727
309.834
309.945
310.061
310.183
310.31
310.443
310.582
310.727
310.879
311.036
311.199
311.369
311.544
311.726
311.913
312.107
312.305
312.51
312.719
312.933
313.152
313.376
313.604
313.835
314.07
314.309
314.55
314.794
315.041
315.289
315.539
315.791
316.044
300.193
300.586
300.991
301.405
301.827
302.252
302.677
303.099
303.514
303.921
304.316
304.697
305.064
305.414
305.747
306.062
306.36
306.64
306.902
307.146
307.374
307.587
307.784
307.966
308.136
308.293
308.438
308.573
308.699
308.816
308.925
309.028
309.124
309.216
309.303
309.387
309.469
309.548
309.627
309.704
309.782
309.861
309.941
310.022
310.106
310.193
310.283
310.376
310.473
310.575
310.681
310.792
310.907
311.027
311.153
311.284
311.419
311.56
311.707
311.858
312.015
312.177
312.344
312.516
312.692
312.874
313.059
313.249
313.443
313.64
313.841
314.046
314.253
314.464
314.677
314.892
315.109
315.328
315.548
315.77
315.993
300.216
300.654
301.107
301.57
302.041
302.515
302.988
303.457
303.918
304.368
304.804
305.224
305.626
306.009
306.373
306.715
307.038
307.339
307.621
307.882
308.125
308.35
308.558
308.75
308.927
309.09
309.241
309.38
309.508
309.627
309.737
309.84
309.937
310.028
310.114
310.196
310.275
310.352
310.427
310.501
310.575
310.649
310.724
310.8
310.879
310.959
311.043
311.129
311.219
311.312
311.409
311.51
311.616
311.725
311.839
311.957
312.08
312.208
312.339
312.476
312.617
312.762
312.911
313.065
313.222
313.384
313.549
313.718
313.89
314.066
314.244
314.425
314.609
314.795
314.984
315.174
315.366
315.559
315.754
315.95
316.146
300.242
300.735
301.244
301.764
302.291
302.822
303.351
303.874
304.388
304.887
305.369
305.833
306.275
306.695
307.091
307.463
307.812
308.136
308.438
308.718
308.976
309.214
309.433
309.634
309.818
309.988
310.143
310.286
310.417
310.538
310.649
310.753
310.849
310.939
311.024
311.105
311.182
311.257
311.329
311.401
311.471
311.542
311.613
311.685
311.759
311.835
311.913
311.994
312.077
312.164
312.254
312.347
312.444
312.545
312.649
312.757
312.869
312.985
313.105
313.229
313.356
313.487
313.622
313.76
313.902
314.047
314.195
314.346
314.5
314.657
314.816
314.977
315.141
315.306
315.473
315.642
315.812
315.984
316.156
316.33
316.503
300.274
300.83
301.404
301.991
302.585
303.182
303.776
304.361
304.934
305.489
306.023
306.535
307.021
307.48
307.911
308.315
308.691
309.04
309.362
309.659
309.932
310.183
310.412
310.622
310.814
310.989
311.149
311.295
311.428
311.551
311.664
311.768
311.864
311.954
312.039
312.119
312.195
312.268
312.339
312.408
312.477
312.545
312.614
312.683
312.754
312.826
312.9
312.977
313.056
313.137
313.221
313.309
313.399
313.493
313.59
313.69
313.793
313.9
314.01
314.123
314.24
314.359
314.482
314.608
314.736
314.867
315.001
315.137
315.276
315.416
315.559
315.704
315.85
315.998
316.147
316.298
316.449
316.601
316.755
316.908
317.063
300.31
300.942
301.593
302.257
302.929
303.602
304.27
304.927
305.566
306.184
306.776
307.34
307.873
308.374
308.842
309.278
309.681
310.054
310.396
310.71
310.997
311.26
311.499
311.716
311.914
312.094
312.258
312.407
312.543
312.667
312.781
312.886
312.983
313.073
313.158
313.238
313.314
313.387
313.457
313.526
313.594
313.661
313.728
313.796
313.865
313.936
314.008
314.082
314.158
314.236
314.317
314.4
314.485
314.574
314.665
314.759
314.856
314.955
315.058
315.163
315.271
315.381
315.494
315.609
315.727
315.846
315.968
316.092
316.218
316.345
316.474
316.604
316.736
316.868
317.002
317.137
317.272
317.408
317.545
317.681
317.819
300.354
301.074
301.814
302.569
303.331
304.093
304.846
305.582
306.297
306.983
307.638
308.257
308.839
309.383
309.888
310.355
310.785
311.18
311.541
311.869
312.169
312.441
312.687
312.911
313.114
313.298
313.465
313.617
313.755
313.881
313.997
314.103
314.201
314.293
314.379
314.46
314.537
314.611
314.682
314.752
314.821
314.889
314.957
315.025
315.095
315.165
315.237
315.31
315.385
315.461
315.54
315.62
315.703
315.789
315.876
315.966
316.058
316.152
316.249
316.347
316.448
316.551
316.656
316.763
316.872
316.982
317.094
317.207
317.322
317.438
317.555
317.673
317.791
317.911
318.031
318.152
318.273
318.395
318.517
318.639
318.761
300.405
301.227
302.073
302.934
303.8
304.662
305.511
306.337
307.134
307.895
308.616
309.292
309.924
310.509
311.049
311.545
311.998
312.411
312.787
313.127
313.436
313.715
313.967
314.195
314.401
314.588
314.758
314.912
315.052
315.18
315.298
315.407
315.508
315.602
315.691
315.775
315.855
315.932
316.006
316.079
316.151
316.222
316.292
316.363
316.435
316.507
316.58
316.654
316.729
316.806
316.884
316.964
317.046
317.13
317.215
317.302
317.391
317.481
317.574
317.668
317.763
317.86
317.959
318.058
318.159
318.262
318.365
318.469
318.574
318.68
318.787
318.894
319.002
319.11
319.218
319.327
319.435
319.544
319.653
319.761
319.869
300.464
301.407
302.375
303.358
304.344
305.32
306.276
307.201
308.086
308.924
309.711
310.444
311.122
311.745
312.314
312.832
313.303
313.729
314.115
314.463
314.777
315.059
315.314
315.544
315.753
315.941
316.113
316.269
316.412
316.544
316.665
316.778
316.883
316.982
317.075
317.164
317.249
317.332
317.411
317.49
317.566
317.642
317.717
317.793
317.868
317.944
318.02
318.096
318.174
318.252
318.332
318.413
318.495
318.578
318.662
318.747
318.834
318.922
319.011
319.101
319.192
319.284
319.377
319.471
319.565
319.66
319.756
319.852
319.949
320.046
320.143
320.24
320.337
320.435
320.532
320.63
320.727
320.823
320.92
321.016
321.112
300.533
301.615
302.725
303.848
304.969
306.074
307.147
308.176
309.152
310.066
310.916
311.699
312.417
313.067
313.656
314.187
314.666
315.097
315.485
315.834
316.149
316.432
316.688
316.919
317.129
317.32
317.494
317.654
317.801
317.938
318.064
318.183
318.294
318.4
318.5
318.596
318.689
318.778
318.866
318.951
319.034
319.117
319.198
319.279
319.36
319.44
319.521
319.601
319.682
319.763
319.845
319.927
320.01
320.093
320.177
320.262
320.347
320.433
320.519
320.605
320.693
320.78
320.868
320.956
321.044
321.133
321.221
321.31
321.398
321.486
321.575
321.663
321.75
321.838
321.925
322.011
322.098
322.183
322.268
322.353
322.436
300.612
301.855
303.127
304.409
305.682
306.926
308.123
309.259
310.323
311.303
312.198
313.012
313.749
314.412
315.009
315.544
316.024
316.455
316.842
317.189
317.501
317.784
318.039
318.271
318.482
318.676
318.854
319.018
319.171
319.313
319.447
319.572
319.692
319.805
319.914
320.019
320.12
320.218
320.313
320.406
320.498
320.588
320.676
320.764
320.85
320.936
321.021
321.106
321.19
321.274
321.358
321.442
321.526
321.609
321.693
321.777
321.86
321.944
322.027
322.111
322.194
322.277
322.359
322.442
322.524
322.606
322.687
322.769
322.849
322.929
323.009
323.088
323.166
323.244
323.321
323.398
323.473
323.548
323.623
323.696
323.769
300.701
302.126
303.581
305.04
306.477
307.872
309.184
310.403
311.523
312.544
313.467
314.297
315.042
315.708
316.303
316.834
317.308
317.733
318.113
318.455
318.763
319.043
319.296
319.528
319.74
319.936
320.117
320.286
320.445
320.593
320.734
320.867
320.994
321.116
321.233
321.347
321.456
321.562
321.666
321.767
321.866
321.962
322.057
322.151
322.243
322.333
322.423
322.511
322.599
322.685
322.771
322.856
322.94
323.024
323.107
323.189
323.271
323.352
323.433
323.512
323.591
323.67
323.748
323.824
323.901
323.976
324.051
324.125
324.198
324.27
324.341
324.412
324.481
324.55
324.618
324.685
324.751
324.816
324.88
324.943
325.005
300.796
302.416
304.07
305.725
307.316
308.818
310.211
311.487
312.644
313.685
314.617
315.448
316.187
316.843
317.426
317.945
318.407
318.819
319.189
319.523
319.824
320.098
320.348
320.578
320.79
320.986
321.17
321.342
321.504
321.658
321.804
321.943
322.077
322.205
322.329
322.449
322.565
322.678
322.788
322.895
322.999
323.101
323.201
323.299
323.395
323.489
323.581
323.672
323.762
323.85
323.937
324.022
324.107
324.19
324.272
324.352
324.432
324.511
324.588
324.664
324.74
324.814
324.887
324.959
325.029
325.099
325.168
325.235
325.302
325.367
325.431
325.494
325.556
325.617
325.677
325.736
325.794
325.85
325.906
325.961
326.014
300.878
302.671
304.517
306.308
308.003
309.575
311.014
312.314
313.481
314.52
315.443
316.259
316.981
317.619
318.184
318.686
319.132
319.531
319.889
320.212
320.505
320.772
321.018
321.244
321.453
321.649
321.833
322.005
322.169
322.325
322.473
322.615
322.752
322.883
323.011
323.134
323.253
323.369
323.482
323.592
323.699
323.804
323.907
324.007
324.105
324.201
324.295
324.387
324.478
324.567
324.654
324.739
324.823
324.906
324.987
325.067
325.145
325.222
325.297
325.371
325.444
325.515
325.585
325.653
325.721
325.787
325.851
325.915
325.977
326.038
326.097
326.156
326.213
326.269
326.324
326.378
326.431
326.482
326.532
326.582
326.63
383.983
391.939
398.623
404.443
409.6
414.204
418.32
421.981
425.203
427.989
430.329
432.201
433.572
434.394
434.603
434.109
432.783
430.429
426.718
420.99
411.599
405.228
400.339
396.33
392.913
389.926
387.267
384.868
382.681
380.667
378.801
377.058
375.423
373.88
372.417
371.024
369.692
368.414
367.184
365.996
364.845
363.728
362.639
361.576
360.537
359.517
358.515
357.53
356.558
355.599
354.65
353.711
352.781
351.858
350.942
350.032
349.127
348.226
347.331
346.439
345.551
344.667
343.787
342.91
342.037
341.168
340.303
339.442
338.585
337.732
336.885
336.042
335.205
334.374
333.548
332.73
331.919
331.115
330.32
329.533
328.756
327.989
327.232
326.487
325.753
325.032
324.324
323.629
322.948
322.283
321.632
320.996
320.377
319.774
319.188
318.618
318.066
317.531
317.013
316.512
316.029
315.564
315.116
314.685
314.271
313.874
313.493
313.129
312.78
312.448
312.13
311.827
311.539
311.264
311.003
310.755
310.519
310.296
310.083
309.882
309.69
309.509
309.337
309.173
309.018
308.87
308.73
308.596
308.468
308.346
308.229
308.118
308.01
307.906
307.806
307.709
307.615
307.523
307.434
307.346
307.259
307.174
307.09
307.007
306.923
306.841
306.758
306.675
306.592
306.508
306.423
306.338
306.252
306.165
306.076
305.987
305.896
305.804
305.71
305.616
305.522
379.232
386.149
392.366
397.942
402.959
407.477
411.537
415.163
418.365
421.141
423.481
425.361
426.75
427.602
427.855
427.428
426.209
424.043
420.713
415.95
409.708
404.307
399.794
395.966
392.651
389.727
387.112
384.744
382.579
380.583
378.73
376.998
375.372
373.836
372.378
370.99
369.663
368.389
367.162
365.977
364.828
363.712
362.626
361.564
360.526
359.507
358.507
357.522
356.551
355.592
354.644
353.706
352.776
351.854
350.938
350.028
349.123
348.223
347.328
346.436
345.548
344.665
343.784
342.908
342.035
341.166
340.3
339.439
338.582
337.73
336.882
336.04
335.203
334.371
333.546
332.728
331.917
331.113
330.318
329.531
328.754
327.986
327.23
326.484
325.751
325.029
324.321
323.627
322.946
322.28
321.629
320.994
320.375
319.772
319.186
318.616
318.064
317.529
317.011
316.511
316.028
315.562
315.114
314.683
314.269
313.872
313.492
313.127
312.779
312.447
312.129
311.826
311.538
311.264
311.003
310.754
310.519
310.295
310.083
309.881
309.69
309.509
309.336
309.173
309.018
308.87
308.73
308.596
308.468
308.346
308.23
308.118
308.01
307.907
307.806
307.71
307.615
307.524
307.434
307.346
307.26
307.175
307.091
307.007
306.924
306.841
306.758
306.675
306.592
306.508
306.424
306.339
306.252
306.165
306.077
305.987
305.897
305.804
305.711
305.617
305.522
375.125
381.047
386.634
391.81
396.563
400.904
404.843
408.386
411.535
414.282
416.612
418.502
419.92
420.826
421.164
420.866
419.848
418.007
415.238
411.497
406.998
402.633
398.691
395.191
392.078
389.288
386.765
384.464
382.349
380.392
378.569
376.863
375.256
373.736
372.293
370.916
369.599
368.333
367.113
365.934
364.791
363.679
362.596
361.539
360.503
359.487
358.489
357.506
356.537
355.58
354.633
353.696
352.767
351.846
350.93
350.021
349.117
348.217
347.322
346.431
345.544
344.66
343.78
342.903
342.031
341.162
340.297
339.435