/*--------------------------------*- C++ -*----------------------------------*\
  =========                 |
  \\      /  F ield         | OpenFOAM: The Open Source CFD Toolbox
   \\    /   O peration     | Website:  https://openfoam.org
    \\  /    A nd           | Version:  7
     \\/     M anipulation  |
\*---------------------------------------------------------------------------*/
FoamFile
{
    version     2.0;
    format      ascii;
    class       volVectorField;
    location    "5";
    object      U;
}
// * * * * * * * * * * * * * * * * * * * * * * * * * * * * * * * * * * * * * //

dimensions      [0 1 -1 0 0 0 0];

internalField   nonuniform List<vector> 
12013
(
(0.100633 -0.000174022 0)
(0.103183 -0.000316163 0)
(0.107234 -0.000445544 0)
(0.112417 -0.000563737 0)
(0.118627 -0.000674207 0)
(0.125759 -0.000778952 0)
(0.133726 -0.000879075 0)
(0.142452 -0.000975125 0)
(0.151867 -0.00106714 0)
(0.161904 -0.00115476 0)
(0.172492 -0.00123737 0)
(0.183559 -0.00131417 0)
(0.19503 -0.0013843 0)
(0.206826 -0.00144695 0)
(0.218865 -0.00150143 0)
(0.231067 -0.00154718 0)
(0.243351 -0.00158389 0)
(0.255639 -0.00161142 0)
(0.267858 -0.00162988 0)
(0.279942 -0.00163951 0)
(0.291828 -0.00164076 0)
(0.303463 -0.00163417 0)
(0.314801 -0.00162039 0)
(0.325803 -0.00160011 0)
(0.336437 -0.00157408 0)
(0.346681 -0.00154302 0)
(0.356515 -0.0015077 0)
(0.365929 -0.0014688 0)
(0.374916 -0.00142699 0)
(0.383474 -0.00138291 0)
(0.391606 -0.00133715 0)
(0.399319 -0.0012902 0)
(0.406621 -0.00124255 0)
(0.413525 -0.00119465 0)
(0.420045 -0.00114685 0)
(0.426195 -0.00109946 0)
(0.431994 -0.00105278 0)
(0.437459 -0.00100708 0)
(0.442607 -0.000962523 0)
(0.447459 -0.000919257 0)
(0.452034 -0.000877421 0)
(0.45635 -0.000837133 0)
(0.460427 -0.000798456 0)
(0.464283 -0.000761406 0)
(0.467938 -0.000725976 0)
(0.471409 -0.000692147 0)
(0.474715 -0.00065988 0)
(0.477871 -0.000629099 0)
(0.480895 -0.000599687 0)
(0.483803 -0.000571493 0)
(0.486609 -0.000544338 0)
(0.489328 -0.000518012 0)
(0.491973 -0.000492267 0)
(0.494556 -0.00046681 0)
(0.49709 -0.000441293 0)
(0.499586 -0.000415308 0)
(0.502053 -0.000388381 0)
(0.504499 -0.000359959 0)
(0.506933 -0.0003294 0)
(0.50936 -0.00029595 0)
(0.511785 -0.000258721 0)
(0.514211 -0.000216659 0)
(0.516639 -0.000168503 0)
(0.519069 -0.000112733 0)
(0.521495 -4.75004e-05 0)
(0.523912 2.95383e-05 0)
(0.526308 0.000121423 0)
(0.528666 0.000232026 0)
(0.530961 0.000366439 0)
(0.53316 0.000531552 0)
(0.535215 0.000736985 0)
(0.537057 0.000996612 0)
(0.538591 0.00133124 0)
(0.539673 0.00177342 0)
(0.540087 0.00237662 0)
(0.539494 0.0032334 0)
(0.537338 0.00451361 0)
(0.532644 0.00655495 0)
(0.523663 0.0101568 0)
(0.507357 0.0181435 0)
(0.490479 0.0492326 0)
(0.100583 -0.000530996 0)
(0.103124 -0.000968572 0)
(0.10716 -0.00136517 0)
(0.112332 -0.00172693 0)
(0.118533 -0.00206485 0)
(0.125658 -0.00238504 0)
(0.133619 -0.00269092 0)
(0.142341 -0.0029842 0)
(0.151753 -0.00326501 0)
(0.161788 -0.00353231 0)
(0.172377 -0.00378419 0)
(0.183446 -0.00401826 0)
(0.194921 -0.00423195 0)
(0.206721 -0.00442279 0)
(0.218766 -0.00458866 0)
(0.230975 -0.00472796 0)
(0.243266 -0.0048397 0)
(0.255562 -0.00492351 0)
(0.26779 -0.00497968 0)
(0.279881 -0.00500901 0)
(0.291775 -0.00501282 0)
(0.303418 -0.00499278 0)
(0.314763 -0.00495085 0)
(0.325771 -0.00488915 0)
(0.336412 -0.00480992 0)
(0.346661 -0.00471541 0)
(0.356499 -0.00460784 0)
(0.365916 -0.00448938 0)
(0.374906 -0.00436204 0)
(0.383465 -0.00422773 0)
(0.391598 -0.00408821 0)
(0.399311 -0.00394508 0)
(0.406612 -0.00379978 0)
(0.413514 -0.0036536 0)
(0.42003 -0.00350768 0)
(0.426177 -0.00336302 0)
(0.43197 -0.00322048 0)
(0.437428 -0.00308077 0)
(0.44257 -0.00294451 0)
(0.447413 -0.00281219 0)
(0.451978 -0.00268424 0)
(0.456283 -0.00256092 0)
(0.460347 -0.00244241 0)
(0.46419 -0.00232879 0)
(0.46783 -0.00222011 0)
(0.471284 -0.00211631 0)
(0.474571 -0.00201723 0)
(0.477707 -0.0019226 0)
(0.480709 -0.00183206 0)
(0.483592 -0.00174518 0)
(0.486371 -0.00166143 0)
(0.489061 -0.00158016 0)
(0.491675 -0.00150061 0)
(0.494225 -0.00142186 0)
(0.496722 -0.00134285 0)
(0.499179 -0.00126231 0)
(0.501603 -0.00117881 0)
(0.504004 -0.00109067 0)
(0.506389 -0.000995932 0)
(0.508765 -0.000892289 0)
(0.511135 -0.000777039 0)
(0.513504 -0.000646968 0)
(0.515872 -0.000498243 0)
(0.518238 -0.000326246 0)
(0.520599 -0.000125353 0)
(0.522949 0.000111545 0)
(0.525277 0.000393479 0)
(0.527568 0.000731895 0)
(0.5298 0.00114178 0)
(0.531943 0.00164326 0)
(0.533955 0.00226412 0)
(0.535781 0.00304383 0)
(0.537342 0.00404039 0)
(0.538528 0.0053422 0)
(0.539185 0.00708934 0)
(0.539097 0.00951312 0)
(0.53796 0.0130112 0)
(0.535348 0.0182966 0)
(0.530718 0.0267197 0)
(0.523992 0.0408918 0)
(0.522697 0.0655057 0)
(0.100531 -0.000902263 0)
(0.103044 -0.00166175 0)
(0.107049 -0.00234533 0)
(0.112197 -0.00296859 0)
(0.118378 -0.00355069 0)
(0.125488 -0.00410218 0)
(0.133437 -0.004629 0)
(0.14215 -0.00513411 0)
(0.151557 -0.00561779 0)
(0.161589 -0.00607821 0)
(0.172179 -0.00651213 0)
(0.183252 -0.00691541 0)
(0.194733 -0.0072836 0)
(0.206543 -0.00761244 0)
(0.2186 -0.00789829 0)
(0.230822 -0.00813836 0)
(0.243127 -0.00833094 0)
(0.255439 -0.00847541 0)
(0.267682 -0.00857223 0)
(0.279789 -0.00862283 0)
(0.291698 -0.00862943 0)
(0.303356 -0.00859494 0)
(0.314715 -0.0085227 0)
(0.325736 -0.0084164 0)
(0.336388 -0.00827987 0)
(0.346646 -0.00811701 0)
(0.356493 -0.00793163 0)
(0.365916 -0.00772744 0)
(0.37491 -0.00750794 0)
(0.383473 -0.0072764 0)
(0.391607 -0.00703586 0)
(0.399319 -0.00678906 0)
(0.406618 -0.00653848 0)
(0.413516 -0.00628634 0)
(0.420026 -0.0060346 0)
(0.426165 -0.00578498 0)
(0.431949 -0.00553893 0)
(0.437395 -0.0052977 0)
(0.442523 -0.00506234 0)
(0.447351 -0.00483373 0)
(0.451898 -0.0046125 0)
(0.456183 -0.00439912 0)
(0.460225 -0.00419392 0)
(0.464043 -0.00399709 0)
(0.467655 -0.00380866 0)
(0.47108 -0.00362849 0)
(0.474334 -0.00345626 0)
(0.477434 -0.00329152 0)
(0.480397 -0.00313368 0)
(0.483237 -0.00298199 0)
(0.485971 -0.00283553 0)
(0.488611 -0.00269316 0)
(0.49117 -0.00255355 0)
(0.493662 -0.00241511 0)
(0.496097 -0.002276 0)
(0.498487 -0.00213411 0)
(0.500839 -0.00198697 0)
(0.503164 -0.0018317 0)
(0.505468 -0.00166498 0)
(0.507757 -0.00148291 0)
(0.510036 -0.0012809 0)
(0.512309 -0.00105354 0)
(0.514576 -0.000794417 0)
(0.516839 -0.000495802 0)
(0.519094 -0.000148311 0)
(0.521336 0.000259816 0)
(0.523556 0.000743238 0)
(0.525744 0.00132038 0)
(0.52788 0.00201506 0)
(0.529944 0.0028588 0)
(0.531906 0.00389407 0)
(0.533726 0.00517958 0)
(0.535356 0.00679846 0)
(0.536736 0.00887136 0)
(0.537799 0.0115778 0)
(0.538478 0.0151909 0)
(0.538739 0.0201322 0)
(0.538654 0.0270588 0)
(0.53858 0.0369991 0)
(0.539606 0.0514648 0)
(0.545483 0.0716565 0)
(0.100479 -0.00128467 0)
(0.102954 -0.00239434 0)
(0.106913 -0.00338608 0)
(0.112025 -0.00429086 0)
(0.118176 -0.00513567 0)
(0.125263 -0.00593594 0)
(0.133194 -0.00670043 0)
(0.141895 -0.00743351 0)
(0.151294 -0.00813557 0)
(0.161325 -0.00880399 0)
(0.171917 -0.00943402 0)
(0.182998 -0.0100196 0)
(0.194492 -0.0105544 0)
(0.206318 -0.011032 0)
(0.218394 -0.0114472 0)
(0.230637 -0.0117959 0)
(0.242967 -0.0120757 0)
(0.255304 -0.0122855 0)
(0.267573 -0.0124261 0)
(0.279705 -0.0124995 0)
(0.29164 -0.0125089 0)
(0.303321 -0.0124587 0)
(0.314701 -0.0123536 0)
(0.325743 -0.012199 0)
(0.336412 -0.0120005 0)
(0.346686 -0.0117638 0)
(0.356546 -0.0114943 0)
(0.36598 -0.0111976 0)
(0.374981 -0.0108785 0)
(0.383549 -0.010542 0)
(0.391686 -0.0101923 0)
(0.399397 -0.00983354 0)
(0.406693 -0.00946923 0)
(0.413585 -0.00910261 0)
(0.420088 -0.00873649 0)
(0.426215 -0.00837333 0)
(0.431985 -0.00801528 0)
(0.437415 -0.00766414 0)
(0.442524 -0.0073214 0)
(0.44733 -0.00698825 0)
(0.451852 -0.00666563 0)
(0.456109 -0.00635427 0)
(0.46012 -0.00605463 0)
(0.463904 -0.00576693 0)
(0.467479 -0.00549114 0)
(0.470863 -0.00522704 0)
(0.474072 -0.00497419 0)
(0.477123 -0.00473197 0)
(0.480033 -0.0044995 0)
(0.482817 -0.00427565 0)
(0.485489 -0.00405906 0)
(0.488063 -0.00384805 0)
(0.490552 -0.0036407 0)
(0.492967 -0.00343473 0)
(0.495321 -0.00322753 0)
(0.497624 -0.00301603 0)
(0.499884 -0.00279671 0)
(0.502111 -0.00256549 0)
(0.504311 -0.00231762 0)
(0.506492 -0.0020476 0)
(0.508657 -0.001749 0)
(0.510811 -0.00141427 0)
(0.512957 -0.0010345 0)
(0.515094 -0.000599065 0)
(0.517222 -9.50651e-05 0)
(0.519338 0.000493393 0)
(0.521437 0.00118564 0)
(0.523512 0.00200575 0)
(0.525552 0.00298425 0)
(0.527545 0.00416045 0)
(0.529476 0.00558576 0)
(0.531329 0.00732835 0)
(0.533088 0.00947999 0)
(0.534746 0.0121655 0)
(0.53631 0.0155557 0)
(0.537828 0.0198838 0)
(0.539424 0.0254626 0)
(0.54137 0.0326933 0)
(0.544197 0.0420404 0)
(0.548828 0.0538831 0)
(0.556851 0.0679072 0)
(0.100426 -0.0016787 0)
(0.10286 -0.00316582 0)
(0.106764 -0.00448822 0)
(0.11183 -0.00569613 0)
(0.117943 -0.00682385 0)
(0.125 -0.00789198 0)
(0.132909 -0.00891246 0)
(0.141595 -0.00989113 0)
(0.150988 -0.0108286 0)
(0.161019 -0.0117213 0)
(0.171618 -0.0125629 0)
(0.182713 -0.0133453 0)
(0.194227 -0.0140599 0)
(0.206078 -0.0146982 0)
(0.218185 -0.0152531 0)
(0.230462 -0.0157191 0)
(0.242829 -0.0160928 0)
(0.255204 -0.016373 0)
(0.267511 -0.0165607 0)
(0.279682 -0.0166584 0)
(0.291654 -0.0166707 0)
(0.30337 -0.0166032 0)
(0.314783 -0.0164623 0)
(0.325854 -0.0162553 0)
(0.33655 -0.0159896 0)
(0.346847 -0.0156727 0)
(0.356726 -0.0153122 0)
(0.366175 -0.0149151 0)
(0.375188 -0.0144883 0)
(0.383764 -0.0140381 0)
(0.391904 -0.0135704 0)
(0.399616 -0.0130904 0)
(0.406908 -0.012603 0)
(0.413793 -0.0121124 0)
(0.420285 -0.0116223 0)
(0.426398 -0.0111362 0)
(0.43215 -0.0106566 0)
(0.437559 -0.0101862 0)
(0.442643 -0.00972669 0)
(0.447421 -0.00927982 0)
(0.451911 -0.0088468 0)
(0.456132 -0.00842854 0)
(0.460104 -0.00802559 0)
(0.463845 -0.00763821 0)
(0.467373 -0.00726636 0)
(0.470705 -0.00690976 0)
(0.473859 -0.00656782 0)
(0.476851 -0.00623964 0)
(0.479696 -0.00592401 0)
(0.482411 -0.00561942 0)
(0.485008 -0.00532402 0)
(0.487503 -0.00503563 0)
(0.489907 -0.00475167 0)
(0.492232 -0.00446918 0)
(0.49449 -0.00418467 0)
(0.496691 -0.00389416 0)
(0.498845 -0.00359304 0)
(0.500959 -0.00327601 0)
(0.503041 -0.00293696 0)
(0.505098 -0.00256886 0)
(0.507136 -0.00216353 0)
(0.509159 -0.00171147 0)
(0.51117 -0.00120154 0)
(0.513172 -0.000620612 0)
(0.515167 4.71668e-05 0)
(0.517153 0.000820843 0)
(0.51913 0.00172303 0)
(0.521097 0.0027814 0)
(0.523053 0.00403015 0)
(0.524994 0.00551183 0)
(0.526923 0.00727983 0)
(0.528843 0.00940144 0)
(0.53077 0.0119617 0)
(0.532733 0.0150673 0)
(0.534788 0.0188504 0)
(0.537039 0.0234692 0)
(0.539657 0.0291008 0)
(0.542917 0.035917 0)
(0.547229 0.0440251 0)
(0.553146 0.053343 0)
(0.561314 0.0633601 0)
(0.100373 -0.00208522 0)
(0.102768 -0.00397633 0)
(0.106611 -0.0056532 0)
(0.111624 -0.00718739 0)
(0.117694 -0.00862006 0)
(0.124717 -0.00997708 0)
(0.132602 -0.0112738 0)
(0.141274 -0.0125176 0)
(0.150661 -0.0137094 0)
(0.160697 -0.0148447 0)
(0.171311 -0.0159152 0)
(0.18243 -0.0169107 0)
(0.193975 -0.01782 0)
(0.205866 -0.0186323 0)
(0.218018 -0.0193385 0)
(0.230346 -0.0199315 0)
(0.242765 -0.0204069 0)
(0.255196 -0.0207632 0)
(0.267559 -0.0210015 0)
(0.279785 -0.0211253 0)
(0.291809 -0.0211402 0)
(0.303575 -0.0210534 0)
(0.315035 -0.0208733 0)
(0.326147 -0.0206089 0)
(0.33688 -0.0202699 0)
(0.347209 -0.0198658 0)
(0.357115 -0.0194061 0)
(0.366585 -0.0189 0)
(0.375615 -0.0183561 0)
(0.384201 -0.0177823 0)
(0.392348 -0.0171863 0)
(0.40006 -0.0165746 0)
(0.407349 -0.0159534 0)
(0.414225 -0.0153281 0)
(0.420703 -0.0147034 0)
(0.426799 -0.0140834 0)
(0.432529 -0.0134717 0)
(0.437911 -0.0128713 0)
(0.442964 -0.0122846 0)
(0.447707 -0.0117136 0)
(0.452158 -0.0111599 0)
(0.456336 -0.0106245 0)
(0.46026 -0.0101082 0)
(0.463949 -0.00961117 0)
(0.46742 -0.00913347 0)
(0.470691 -0.00867465 0)
(0.473779 -0.00823389 0)
(0.4767 -0.00781003 0)
(0.47947 -0.00740151 0)
(0.482103 -0.00700642 0)
(0.484615 -0.00662243 0)
(0.487018 -0.00624681 0)
(0.489325 -0.00587632 0)
(0.491548 -0.00550723 0)
(0.493699 -0.00513525 0)
(0.495786 -0.00475543 0)
(0.497821 -0.00436214 0)
(0.499811 -0.00394892 0)
(0.501765 -0.00350841 0)
(0.50369 -0.00303217 0)
(0.505591 -0.00251052 0)
(0.507475 -0.00193226 0)
(0.509347 -0.00128449 0)
(0.511211 -0.000552131 0)
(0.513071 0.000282679 0)
(0.51493 0.00124076 0)
(0.516792 0.00234639 0)
(0.518662 0.00362844 0)
(0.520547 0.00512138 0)
(0.522454 0.00686635 0)
(0.524398 0.00891241 0)
(0.526401 0.0113177 0)
(0.528495 0.0141502 0)
(0.530732 0.0174877 0)
(0.533187 0.0214146 0)
(0.535973 0.026016 0)
(0.539245 0.0313631 0)
(0.543211 0.0374881 0)
(0.548127 0.0443431 0)
(0.554272 0.0517419 0)
(0.561871 0.0592896 0)
(0.100319 -0.00250544 0)
(0.10268 -0.00482683 0)
(0.106462 -0.00688333 0)
(0.111419 -0.0087685 0)
(0.117443 -0.0105301 0)
(0.124431 -0.0121992 0)
(0.132293 -0.0137946 0)
(0.140953 -0.0153255 0)
(0.150341 -0.0167929 0)
(0.16039 -0.0181913 0)
(0.17103 -0.0195104 0)
(0.182185 -0.0207375 0)
(0.193779 -0.0218585 0)
(0.205727 -0.0228601 0)
(0.217944 -0.0237307 0)
(0.230344 -0.0244616 0)
(0.242839 -0.0250473 0)
(0.255346 -0.025486 0)
(0.267787 -0.0257788 0)
(0.280089 -0.0259303 0)
(0.292185 -0.0259473 0)
(0.30402 -0.0258387 0)
(0.315542 -0.025615 0)
(0.326711 -0.0252874 0)
(0.337495 -0.0248678 0)
(0.347866 -0.024368 0)
(0.357808 -0.0237998 0)
(0.367308 -0.0231744 0)
(0.376359 -0.0225024 0)
(0.38496 -0.0217938 0)
(0.393115 -0.0210577 0)
(0.400829 -0.0203024 0)
(0.408113 -0.0195353 0)
(0.414979 -0.018763 0)
(0.421441 -0.0179913 0)
(0.427515 -0.0172252 0)
(0.433218 -0.0164692 0)
(0.438568 -0.0157267 0)
(0.443583 -0.0150009 0)
(0.448284 -0.014294 0)
(0.452687 -0.0136079 0)
(0.456813 -0.0129439 0)
(0.46068 -0.0123028 0)
(0.464307 -0.011685 0)
(0.467711 -0.0110904 0)
(0.470911 -0.0105183 0)
(0.473922 -0.00996768 0)
(0.476761 -0.00943718 0)
(0.479444 -0.00892488 0)
(0.481986 -0.00842842 0)
(0.4844 -0.00794499 0)
(0.4867 -0.00747124 0)
(0.488899 -0.00700329 0)
(0.491009 -0.00653666 0)
(0.49304 -0.00606625 0)
(0.495004 -0.00558623 0)
(0.49691 -0.00509002 0)
(0.498768 -0.00457014 0)
(0.500585 -0.0040181 0)
(0.50237 -0.00342431 0)
(0.504129 -0.00277786 0)
(0.505871 -0.00206632 0)
(0.507601 -0.00127556 0)
(0.509327 -0.000389373 0)
(0.511054 0.000611014 0)
(0.512791 0.00174672 0)
(0.514545 0.00304189 0)
(0.516327 0.00452424 0)
(0.518149 0.00622545 0)
(0.52003 0.0081815 0)
(0.52199 0.0104327 0)
(0.524063 0.0130234 0)
(0.526289 0.0160008 0)
(0.528726 0.0194121 0)
(0.531447 0.0233002 0)
(0.534547 0.0276954 0)
(0.538143 0.0326038 0)
(0.542368 0.0379911 0)
(0.547358 0.0437624 0)
(0.553233 0.0497423 0)
(0.560034 0.0556669 0)
(0.100265 -0.00294111 0)
(0.102598 -0.00571922 0)
(0.106322 -0.00818194 0)
(0.111224 -0.0104444 0)
(0.117203 -0.0125611 0)
(0.124158 -0.0145677 0)
(0.132 -0.0164867 0)
(0.140655 -0.0183293 0)
(0.150053 -0.0200964 0)
(0.160128 -0.0217812 0)
(0.170809 -0.0233714 0)
(0.182021 -0.0248511 0)
(0.193684 -0.0262033 0)
(0.205714 -0.0274115 0)
(0.218022 -0.0284617 0)
(0.23052 -0.0293429 0)
(0.243119 -0.0300487 0)
(0.255731 -0.0305765 0)
(0.268277 -0.030928 0)
(0.28068 -0.0311085 0)
(0.292873 -0.0311265 0)
(0.304798 -0.0309928 0)
(0.316404 -0.0307201 0)
(0.327648 -0.0303221 0)
(0.338497 -0.0298131 0)
(0.348925 -0.0292076 0)
(0.358913 -0.0285197 0)
(0.368451 -0.0277629 0)
(0.37753 -0.0269502 0)
(0.386151 -0.0260935 0)
(0.394316 -0.0252037 0)
(0.402033 -0.0242908 0)
(0.409312 -0.0233638 0)
(0.416165 -0.0224304 0)
(0.422607 -0.0214977 0)
(0.428655 -0.0205717 0)
(0.434325 -0.0196574 0)
(0.439635 -0.0187592 0)
(0.444606 -0.0178806 0)
(0.449255 -0.0170244 0)
(0.453602 -0.0161927 0)
(0.457666 -0.0153871 0)
(0.461466 -0.0146085 0)
(0.46502 -0.0138572 0)
(0.468347 -0.0131331 0)
(0.471463 -0.0124352 0)
(0.474386 -0.0117625 0)
(0.477132 -0.0111132 0)
(0.479716 -0.0104851 0)
(0.482153 -0.00987525 0)
(0.484458 -0.0092804 0)
(0.486644 -0.00869662 0)
(0.488724 -0.00811936 0)
(0.490709 -0.00754349 0)
(0.492612 -0.00696313 0)
(0.494442 -0.00637169 0)
(0.496211 -0.00576174 0)
(0.497927 -0.00512493 0)
(0.499601 -0.0044519 0)
(0.50124 -0.00373217 0)
(0.502853 -0.00295403 0)
(0.504449 -0.00210437 0)
(0.506037 -0.00116851 0)
(0.507625 -0.000129937 0)
(0.509221 0.00102989 0)
(0.510838 0.00233097 0)
(0.512487 0.00379568 0)
(0.514183 0.0054486 0)
(0.515943 0.00731647 0)
(0.51779 0.00942781 0)
(0.51975 0.0118122 0)
(0.521858 0.0144993 0)
(0.524155 0.0175163 0)
(0.526694 0.0208855 0)
(0.529535 0.0246193 0)
(0.532748 0.0287146 0)
(0.536408 0.0331456 0)
(0.540589 0.0378555 0)
(0.545352 0.0427501 0)
(0.550732 0.0476946 0)
(0.556702 0.0525229 0)
(0.100208 -0.00339451 0)
(0.102524 -0.00665639 0)
(0.106196 -0.00955353 0)
(0.111046 -0.0122215 0)
(0.116983 -0.0147215 0)
(0.123911 -0.0170938 0)
(0.131741 -0.0193644 0)
(0.140401 -0.0215462 0)
(0.149824 -0.0236402 0)
(0.159942 -0.0256383 0)
(0.170685 -0.0275253 0)
(0.181978 -0.029282 0)
(0.193739 -0.0308878 0)
(0.205882 -0.0323228 0)
(0.218315 -0.0335697 0)
(0.230946 -0.0346155 0)
(0.243682 -0.0354521 0)
(0.256434 -0.0360765 0)
(0.269118 -0.0364908 0)
(0.281654 -0.0367014 0)
(0.293974 -0.0367184 0)
(0.306016 -0.036555 0)
(0.317729 -0.0362264 0)
(0.329068 -0.035749 0)
(0.340001 -0.0351399 0)
(0.350501 -0.0344164 0)
(0.360548 -0.0335953 0)
(0.370132 -0.032693 0)
(0.379247 -0.0317245 0)
(0.387892 -0.0307041 0)
(0.396071 -0.0296447 0)
(0.403791 -0.0285582 0)
(0.411063 -0.0274549 0)
(0.4179 -0.0263443 0)
(0.424318 -0.0252344 0)
(0.430332 -0.0241323 0)
(0.435962 -0.0230439 0)
(0.441226 -0.0219743 0)
(0.446142 -0.0209275 0)
(0.45073 -0.0199069 0)
(0.455011 -0.0189147 0)
(0.459002 -0.0179529 0)
(0.462723 -0.0170222 0)
(0.466192 -0.0161231 0)
(0.469429 -0.0152553 0)
(0.472449 -0.014418 0)
(0.475271 -0.0136095 0)
(0.477911 -0.0128279 0)
(0.480384 -0.0120705 0)
(0.482705 -0.0113341 0)
(0.484888 -0.0106148 0)
(0.486948 -0.0099081 0)
(0.488896 -0.00920895 0)
(0.490746 -0.00851154 0)
(0.492509 -0.00780936 0)
(0.494197 -0.00709514 0)
(0.495819 -0.00636076 0)
(0.497387 -0.00559723 0)
(0.49891 -0.0047946 0)
(0.500397 -0.0039419 0)
(0.50186 -0.00302705 0)
(0.503308 -0.00203681 0)
(0.50475 -0.000956683 0)
(0.506198 0.000229341 0)
(0.507664 0.00153833 0)
(0.50916 0.00298831 0)
(0.510701 0.0045986 0)
(0.512306 0.00638942 0)
(0.513992 0.00838141 0)
(0.515786 0.0105949 0)
(0.517712 0.0130491 0)
(0.519805 0.0157602 0)
(0.5221 0.01874 0)
(0.524639 0.0219928 0)
(0.527466 0.0255127 0)
(0.530626 0.02928 0)
(0.534161 0.033258 0)
(0.538107 0.0373899 0)
(0.542482 0.0415986 0)
(0.54728 0.045789 0)
(0.552456 0.0498597 0)
(0.100148 -0.00386832 0)
(0.102456 -0.00764217 0)
(0.106087 -0.0110039 0)
(0.11089 -0.0141076 0)
(0.116794 -0.017022 0)
(0.123703 -0.0197911 0)
(0.131533 -0.0224444 0)
(0.140214 -0.0249968 0)
(0.149679 -0.0274491 0)
(0.159863 -0.0297911 0)
(0.170697 -0.0320048 0)
(0.182102 -0.034067 0)
(0.193998 -0.0359526 0)
(0.206293 -0.0376375 0)
(0.218893 -0.0391011 0)
(0.2317 -0.0403275 0)
(0.244617 -0.041307 0)
(0.257551 -0.0420361 0)
(0.270413 -0.0425171 0)
(0.28312 -0.0427579 0)
(0.295601 -0.0427707 0)
(0.307791 -0.0425712 0)
(0.319638 -0.0421775 0)
(0.331097 -0.0416092 0)
(0.342133 -0.0408866 0)
(0.35272 -0.0400302 0)
(0.362839 -0.0390599 0)
(0.37248 -0.0379946 0)
(0.381637 -0.0368525 0)
(0.390309 -0.03565 0)
(0.398502 -0.0344024 0)
(0.406224 -0.0331233 0)
(0.413487 -0.031825 0)
(0.420303 -0.0305182 0)
(0.42669 -0.0292125 0)
(0.432665 -0.0279159 0)
(0.438246 -0.0266353 0)
(0.443452 -0.0253764 0)
(0.448303 -0.0241439 0)
(0.45282 -0.0229415 0)
(0.457021 -0.021772 0)
(0.460926 -0.0206371 0)
(0.464555 -0.0195381 0)
(0.467927 -0.0184753 0)
(0.471059 -0.0174482 0)
(0.47397 -0.0164559 0)
(0.476678 -0.0154965 0)
(0.479197 -0.0145677 0)
(0.481545 -0.0136664 0)
(0.483736 -0.012789 0)
(0.485785 -0.0119311 0)
(0.487706 -0.0110879 0)
(0.489512 -0.0102535 0)
(0.491215 -0.00942185 0)
(0.492828 -0.00858572 0)
(0.494362 -0.00773736 0)
(0.495829 -0.00686819 0)
(0.49724 -0.00596882 0)
(0.498605 -0.00502903 0)
(0.499935 -0.00403776 0)
(0.501242 -0.00298304 0)
(0.502536 -0.00185205 0)
(0.50383 -0.000631082 0)
(0.505134 0.000694592 0)
(0.506464 0.00213979 0)
(0.507833 0.0037199 0)
(0.509258 0.00545055 0)
(0.510756 0.00734708 0)
(0.512349 0.00942396 0)
(0.514058 0.011694 0)
(0.515909 0.0141674 0)
(0.517929 0.0168503 0)
(0.520146 0.0197437 0)
(0.52259 0.0228413 0)
(0.525291 0.0261282 0)
(0.528274 0.0295791 0)
(0.531558 0.0331576 0)
(0.535155 0.0368158 0)
(0.539061 0.0404959 0)
(0.543258 0.0441336 0)
(0.547697 0.0476676 0)
(0.100084 -0.00436562 0)
(0.102396 -0.00868146 0)
(0.105995 -0.0125402 0)
(0.110762 -0.0161127 0)
(0.116641 -0.0194754 0)
(0.123545 -0.0226759 0)
(0.131392 -0.0257473 0)
(0.140112 -0.028706 0)
(0.149645 -0.0315526 0)
(0.159926 -0.0342746 0)
(0.170886 -0.0368501 0)
(0.182446 -0.039251 0)
(0.194522 -0.041447 0)
(0.207019 -0.0434092 0)
(0.219837 -0.0451124 0)
(0.232873 -0.0465376 0)
(0.246024 -0.0476733 0)
(0.25919 -0.0485151 0)
(0.272277 -0.0490662 0)
(0.285199 -0.049336 0)
(0.29788 -0.0493392 0)
(0.310254 -0.0490946 0)
(0.322265 -0.0486237 0)
(0.333868 -0.0479498 0)
(0.345028 -0.0470969 0)
(0.355718 -0.046089 0)
(0.365922 -0.0449495 0)
(0.375627 -0.0437006 0)
(0.38483 -0.0423633 0)
(0.393532 -0.0409569 0)
(0.401739 -0.0394989 0)
(0.40946 -0.0380051 0)
(0.416707 -0.0364897 0)
(0.423497 -0.0349651 0)
(0.429844 -0.033442 0)
(0.435769 -0.0319297 0)
(0.441289 -0.030436 0)
(0.446426 -0.0289674 0)
(0.451199 -0.0275292 0)
(0.455629 -0.0261256 0)
(0.459737 -0.0247595 0)
(0.463542 -0.023433 0)
(0.467064 -0.0221474 0)
(0.470322 -0.0209029 0)
(0.473335 -0.0196991 0)
(0.476122 -0.0185347 0)
(0.478699 -0.0174076 0)
(0.481084 -0.0163152 0)
(0.483292 -0.0152541 0)
(0.485339 -0.0142202 0)
(0.48724 -0.0132088 0)
(0.489008 -0.0122144 0)
(0.490658 -0.0112311 0)
(0.492203 -0.010252 0)
(0.493654 -0.00926962 0)
(0.495025 -0.00827592 0)
(0.496327 -0.00726205 0)
(0.497572 -0.00621852 0)
(0.498772 -0.00513516 0)
(0.499938 -0.00400116 0)
(0.501082 -0.0028051 0)
(0.502217 -0.00153502 0)
(0.503354 -0.000178554 0)
(0.504508 0.0012773 0)
(0.505693 0.00284472 0)
(0.506923 0.0045361 0)
(0.508215 0.00636325 0)
(0.509588 0.00833685 0)
(0.511058 0.0104659 0)
(0.512648 0.0127572 0)
(0.514376 0.0152141 0)
(0.516265 0.0178362 0)
(0.518335 0.0206179 0)
(0.520605 0.0235481 0)
(0.523093 0.026609 0)
(0.525809 0.0297759 0)
(0.528762 0.0330177 0)
(0.531947 0.0362971 0)
(0.535354 0.0395728 0)
(0.538958 0.0428023 0)
(0.542719 0.0459487 0)
(0.100015 -0.00488989 0)
(0.102341 -0.00978028 0)
(0.105923 -0.0141714 0)
(0.110664 -0.0182488 0)
(0.116534 -0.0220973 0)
(0.123449 -0.0257682 0)
(0.131332 -0.0292979 0)
(0.140119 -0.0327044 0)
(0.149752 -0.0359875 0)
(0.160169 -0.0391318 0)
(0.1713 -0.0421106 0)
(0.183068 -0.0448898 0)
(0.195382 -0.0474326 0)
(0.208144 -0.0497038 0)
(0.221244 -0.051673 0)
(0.234574 -0.0533175 0)
(0.248021 -0.0546233 0)
(0.261478 -0.0555856 0)
(0.274845 -0.0562086 0)
(0.288031 -0.0565037 0)
(0.300955 -0.0564888 0)
(0.313548 -0.0561864 0)
(0.325754 -0.055622 0)
(0.337526 -0.0548233 0)
(0.34883 -0.0538187 0)
(0.359638 -0.0526361 0)
(0.369935 -0.051303 0)
(0.379711 -0.0498452 0)
(0.388962 -0.048287 0)
(0.397693 -0.0466505 0)
(0.405909 -0.0449561 0)
(0.413622 -0.0432217 0)
(0.420845 -0.0414635 0)
(0.427596 -0.0396957 0)
(0.433892 -0.0379303 0)
(0.439753 -0.036178 0)
(0.445199 -0.0344475 0)
(0.450251 -0.032746 0)
(0.45493 -0.0310795 0)
(0.459258 -0.0294525 0)
(0.463255 -0.0278683 0)
(0.466942 -0.0263293 0)
(0.47034 -0.0248367 0)
(0.473468 -0.0233907 0)
(0.476345 -0.0219908 0)
(0.47899 -0.0206354 0)
(0.48142 -0.0193223 0)
(0.483654 -0.0180486 0)
(0.485706 -0.0168105 0)
(0.487594 -0.0156036 0)
(0.489331 -0.0144227 0)
(0.490934 -0.0132621 0)
(0.492414 -0.0121154 0)
(0.493787 -0.0109754 0)
(0.495066 -0.00983461 0)
(0.496262 -0.00868467 0)
(0.497389 -0.00751676 0)
(0.498459 -0.00632154 0)
(0.499485 -0.00508917 0)
(0.500478 -0.00380941 0)
(0.501451 -0.00247171 0)
(0.502417 -0.00106533 0)
(0.503389 0.000420748 0)
(0.504382 0.00199683 0)
(0.505408 0.00367293 0)
(0.506484 0.00545848 0)
(0.507624 0.00736176 0)
(0.508844 0.00938952 0)
(0.510162 0.0115465 0)
(0.511593 0.013835 0)
(0.513153 0.016254 0)
(0.514858 0.0187994 0)
(0.516722 0.0214628 0)
(0.518755 0.0242315 0)
(0.520967 0.0270886 0)
(0.52336 0.0300129 0)
(0.525932 0.0329796 0)
(0.528677 0.0359613 0)
(0.531579 0.0389292 0)
(0.534616 0.0418554 0)
(0.537754 0.0447181 0)
(0.0999383 -0.00544507 0)
(0.102293 -0.0109459 0)
(0.105872 -0.015908 0)
(0.110602 -0.0205305 0)
(0.116478 -0.0249068 0)
(0.123426 -0.0290925 0)
(0.131372 -0.0331268 0)
(0.140259 -0.0370295 0)
(0.150033 -0.0407992 0)
(0.160636 -0.0444165 0)
(0.171999 -0.0478486 0)
(0.184042 -0.0510534 0)
(0.196668 -0.0539861 0)
(0.20977 -0.0566034 0)
(0.223232 -0.0588687 0)
(0.236931 -0.0607545 0)
(0.250746 -0.0622445 0)
(0.264561 -0.0633337 0)
(0.278269 -0.0640274 0)
(0.29177 -0.0643402 0)
(0.304982 -0.0642938 0)
(0.317832 -0.0639153 0)
(0.330262 -0.0632356 0)
(0.342225 -0.0622872 0)
(0.353688 -0.0611035 0)
(0.364624 -0.0597174 0)
(0.375019 -0.0581607 0)
(0.384866 -0.0564633 0)
(0.394163 -0.0546531 0)
(0.402914 -0.0527556 0)
(0.41113 -0.0507939 0)
(0.418823 -0.0487885 0)
(0.42601 -0.0467577 0)
(0.432707 -0.0447174 0)
(0.438935 -0.0426813 0)
(0.444714 -0.0406612 0)
(0.450067 -0.0386667 0)
(0.455015 -0.0367061 0)
(0.459581 -0.0347857 0)
(0.463786 -0.0329106 0)
(0.467653 -0.0310845 0)
(0.471203 -0.0293096 0)
(0.474457 -0.0275874 0)
(0.477435 -0.025918 0)
(0.480157 -0.0243007 0)
(0.482642 -0.0227339 0)
(0.484908 -0.021215 0)
(0.486972 -0.0197408 0)
(0.488852 -0.0183073 0)
(0.490564 -0.0169098 0)
(0.492122 -0.0155427 0)
(0.493544 -0.0142001 0)
(0.494841 -0.0128753 0)
(0.49603 -0.0115611 0)
(0.497123 -0.0102497 0)
(0.498133 -0.00893293 0)
(0.499074 -0.00760214 0)
(0.499959 -0.00624833 0)
(0.5008 -0.00486223 0)
(0.50161 -0.00343439 0)
(0.502401 -0.00195535 0)
(0.503188 -0.000415849 0)
(0.503983 0.00119373 0)
(0.5048 0.00288129 0)
(0.505653 0.00465467 0)
(0.506554 0.00652068 0)
(0.507519 0.00848474 0)
(0.508561 0.0105506 0)
(0.509693 0.01272 0)
(0.510929 0.0149925 0)
(0.512281 0.0173648 0)
(0.513757 0.0198309 0)
(0.515368 0.0223821 0)
(0.517119 0.0250064 0)
(0.519012 0.0276894 0)
(0.521046 0.0304141 0)
(0.523215 0.0331619 0)
(0.525511 0.0359131 0)
(0.527918 0.038648 0)
(0.530417 0.0413486 0)
(0.532982 0.0440023 0)
(0.0998532 -0.00603564 0)
(0.102249 -0.0121871 0)
(0.105843 -0.0177631 0)
(0.110578 -0.0229757 0)
(0.116482 -0.0279276 0)
(0.123489 -0.0326788 0)
(0.131532 -0.0372722 0)
(0.140562 -0.0417287 0)
(0.150531 -0.0460453 0)
(0.161385 -0.0501972 0)
(0.173056 -0.054143 0)
(0.185458 -0.0578306 0)
(0.198488 -0.061204 0)
(0.212025 -0.0642103 0)
(0.22594 -0.0668049 0)
(0.240097 -0.068955 0)
(0.254363 -0.0706418 0)
(0.268609 -0.0718604 0)
(0.282718 -0.0726187 0)
(0.296589 -0.0729353 0)
(0.31013 -0.0728371 0)
(0.323269 -0.0723573 0)
(0.335947 -0.0715326 0)
(0.348117 -0.070402 0)
(0.359747 -0.0690046 0)
(0.370813 -0.0673789 0)
(0.381304 -0.0655617 0)
(0.391214 -0.0635876 0)
(0.400545 -0.0614884 0)
(0.409305 -0.0592932 0)
(0.417504 -0.0570282 0)
(0.425159 -0.0547165 0)
(0.432288 -0.0523786 0)
(0.43891 -0.0500324 0)
(0.445048 -0.0476931 0)
(0.450724 -0.0453736 0)
(0.455961 -0.0430848 0)
(0.460782 -0.0408356 0)
(0.465211 -0.0386328 0)
(0.469272 -0.0364821 0)
(0.472986 -0.0343873 0)
(0.476376 -0.0323509 0)
(0.479464 -0.0303743 0)
(0.482271 -0.0284576 0)
(0.484816 -0.0265999 0)
(0.487121 -0.0247995 0)
(0.489202 -0.0230536 0)
(0.491079 -0.0213587 0)
(0.492768 -0.0197104 0)
(0.494287 -0.0181037 0)
(0.495651 -0.0165332 0)
(0.496876 -0.0149923 0)
(0.497976 -0.0134746 0)
(0.498967 -0.0119725 0)
(0.499861 -0.0104786 0)
(0.500674 -0.00898472 0)
(0.501417 -0.00748259 0)
(0.502105 -0.00596372 0)
(0.50275 -0.00441954 0)
(0.503366 -0.00284156 0)
(0.503964 -0.00122146 0)
(0.504559 0.000448996 0)
(0.505164 0.00217698 0)
(0.505789 0.00396914 0)
(0.50645 0.00583139 0)
(0.507157 0.00776843 0)
(0.507923 0.00978359 0)
(0.50876 0.0118786 0)
(0.509678 0.0140533 0)
(0.510686 0.0163059 0)
(0.511794 0.0186322 0)
(0.513008 0.0210262 0)
(0.514332 0.0234797 0)
(0.515769 0.0259827 0)
(0.517317 0.0285238 0)
(0.518974 0.03109 0)
(0.520733 0.0336678 0)
(0.522583 0.0362436 0)
(0.524513 0.038804 0)
(0.526507 0.0413375 0)
(0.528545 0.0438372 0)
(0.0997577 -0.00666678 0)
(0.102211 -0.0135143 0)
(0.105838 -0.0197525 0)
(0.110599 -0.0256063 0)
(0.116554 -0.0311886 0)
(0.123654 -0.0365651 0)
(0.131838 -0.0417823 0)
(0.141067 -0.0468627 0)
(0.151301 -0.0518001 0)
(0.16249 -0.056562 0)
(0.174566 -0.0610954 0)
(0.187434 -0.0653341 0)
(0.200978 -0.0692081 0)
(0.215063 -0.0726516 0)
(0.229538 -0.0756105 0)
(0.244251 -0.0780462 0)
(0.259053 -0.0799381 0)
(0.273804 -0.0812824 0)
(0.288377 -0.082091 0)
(0.302662 -0.0823884 0)
(0.316568 -0.0822085 0)
(0.33002 -0.0815918 0)
(0.342958 -0.080583 0)
(0.35534 -0.0792281 0)
(0.367134 -0.0775734 0)
(0.378322 -0.0756636 0)
(0.388895 -0.0735412 0)
(0.39885 -0.0712459 0)
(0.408195 -0.0688139 0)
(0.416938 -0.0662781 0)
(0.425097 -0.0636679 0)
(0.432687 -0.0610093 0)
(0.439731 -0.0583252 0)
(0.446252 -0.0556351 0)
(0.452272 -0.0529559 0)
(0.457816 -0.0503019 0)
(0.462909 -0.0476848 0)
(0.467576 -0.0451142 0)
(0.471842 -0.0425977 0)
(0.475731 -0.0401411 0)
(0.479266 -0.0377486 0)
(0.482472 -0.0354228 0)
(0.48537 -0.0331649 0)
(0.487982 -0.0309752 0)
(0.490329 -0.0288525 0)
(0.492432 -0.0267949 0)
(0.494309 -0.0247994 0)
(0.495979 -0.0228622 0)
(0.497459 -0.0209788 0)
(0.498768 -0.0191441 0)
(0.499921 -0.0173522 0)
(0.500934 -0.0155967 0)
(0.501822 -0.013871 0)
(0.502601 -0.0121677 0)
(0.503284 -0.0104794 0)
(0.503886 -0.0087983 0)
(0.50442 -0.00711657 0)
(0.504899 -0.0054263 0)
(0.505337 -0.00371969 0)
(0.505747 -0.00198919 0)
(0.506139 -0.000227823 0)
(0.50653 0.00157211 0)
(0.506928 0.00341578 0)
(0.507347 0.00530868 0)
(0.507797 0.00725524 0)
(0.50829 0.00925866 0)
(0.508836 0.0113209 0)
(0.509443 0.0134425 0)
(0.510121 0.0156226 0)
(0.510877 0.0178588 0)
(0.511715 0.0201471 0)
(0.512641 0.0224822 0)
(0.513656 0.0248573 0)
(0.51476 0.0272647 0)
(0.515951 0.0296956 0)
(0.517225 0.0321407 0)
(0.518575 0.0345906 0)
(0.519993 0.0370359 0)
(0.521469 0.0394679 0)
(0.52299 0.041879 0)
(0.52454 0.0442663 0)
(0.0996496 -0.00734459 0)
(0.102178 -0.0149404 0)
(0.10586 -0.0218954 0)