/*--------------------------------*- C++ -*----------------------------------*\
| =========                 |                                                 |
| \\      /  F ield         | OpenFOAM: The Open Source CFD Toolbox           |
|  \\    /   O peration     | Version:  5.x                                   |
|   \\  /    A nd           | Web:      www.OpenFOAM.org                      |
|    \\/     M anipulation  |                                                 |
\*---------------------------------------------------------------------------*/
FoamFile
{
    version     2.0;
    format      ascii;
    class       surfaceScalarField;
    location    "0";
    object      phi;
}
// * * * * * * * * * * * * * * * * * * * * * * * * * * * * * * * * * * * * * //

dimensions      [0 3 -1 0 0 0 0];

internalField   nonuniform List<scalar> 
5457
(
0.198113
0.00188696
0.196223
0.00187444
0.194305
0.00190482
0.192323
0.00196882
0.190244
0.00206524
0.188036
0.00219389
0.185666
0.00235548
0.183101
0.00255141
0.180302
0.00278376
0.177233
0.00305515
0.173849
0.00336865
0.170107
0.00372763
0.165956
0.00413562
0.161344
0.004596
0.156217
0.00511167
0.150517
0.00568455
0.144186
0.00631497
0.137169
0.0070009
0.129416
0.00773708
0.120885
0.00851403
0.111552
0.00931725
0.101408
0.0101266
0.0904749
0.0109164
0.0788019
0.0116559
0.0664731
0.0123115
0.0536063
0.0128492
0.0403497
0.0132387
0.0268744
0.0134572
0.0133635
0.0134926
0.0133448
0.198121
0.003702
0.196243
0.0036922
0.194335
0.00375413
0.192364
0.00388292
0.190297
0.00407616
0.188103
0.00433348
0.18575
0.00465624
0.183202
0.00504723
0.180425
0.00551055
0.17738
0.00605142
0.174025
0.00667595
0.170315
0.00739092
0.166202
0.00820343
0.161633
0.00912037
0.156554
0.0101478
0.150906
0.0112899
0.144632
0.0125478
0.137674
0.0139184
0.12998
0.015392
0.121505
0.0169506
0.112217
0.0185666
0.102106
0.0202006
0.0911845
0.0218015
0.0794966
0.0233079
0.0671217
0.0246511
0.0541754
0.0257606
0.0408073
0.0265725
0.0271935
0.0270371
0.0135254
0.0271271
0.0268417
0.19814
0.00552628
0.196281
0.0055112
0.194394
0.00560283
0.192445
0.00579388
0.190404
0.00608075
0.188238
0.00646283
0.185916
0.00694206
0.183405
0.00752258
0.18067
0.00821044
0.177673
0.00901338
0.174375
0.00994055
0.17073
0.0110021
0.166692
0.0122089
0.162208
0.0135715
0.157225
0.0150996
0.151683
0.0168003
0.145522
0.0186769
0.138684
0.0207262
0.131109
0.0229361
0.122747
0.0252826
0.113557
0.027727
0.103516
0.0302129
0.0926227
0.0326654
0.0809099
0.0349919
0.0684461
0.0370861
0.0553418
0.0388364
0.0417481
0.0401377
0.0278518
0.0409051
0.0138622
0.0410884
0.0406804
0.198169
0.00732187
0.196339
0.00730108
0.194483
0.00742093
0.192567
0.00767175
0.190562
0.00804871
0.188437
0.00855092
0.186162
0.00918085
0.183705
0.00994383
0.181033
0.0108478
0.178109
0.0119029
0.174895
0.0131212
0.171347
0.0145163
0.16742
0.0161029
0.163064
0.0178955
0.158223
0.0199082
0.15284
0.0221519
0.146852
0.0246334
0.140196
0.0273517
0.132807
0.0302952
0.124622
0.0334371
0.115588
0.0367314
0.105663
0.0401086
0.0948269
0.0434726
0.0830896
0.0467002
0.0705021
0.0496449
0.0571636
0.0521465
0.0432259
0.054047
0.0288903
0.0552124
0.0143954
0.0555551
0.0550524
0.198207
0.00907966
0.196415
0.0090526
0.194599
0.00919872
0.192727
0.00950604
0.19077
0.00996848
0.1887
0.0105848
0.186487
0.0113578
0.184101
0.012294
0.181511
0.0134029
0.178682
0.0146971
0.175578
0.0161913
0.172158
0.0179027
0.168379
0.0198497
0.164191
0.0220513
0.15954
0.0245263
0.15437
0.027291
0.148615
0.0303572
0.142207
0.0337289
0.135074
0.0373984
0.12714
0.0413409
0.118333
0.0455087
0.108587
0.0498249
0.0978538
0.0541773
0.0861105
0.0584147
0.0733785
0.0623484
0.0597357
0.0657608
0.0453293
0.0684251
0.0303783
0.0701352
0.0151625
0.0707429
0.0701916
0.198253
0.0107909
0.196509
0.0107569
0.194743
0.0109269
0.192924
0.0112868
0.191026
0.011829
0.189023
0.0125521
0.186885
0.0134589
0.184587
0.014557
0.182098
0.0158573
0.179386
0.0173744
0.176418
0.0191259
0.173155
0.021132
0.169557
0.0234151
0.165577
0.025999
0.161164
0.0289077
0.156259
0.032164
0.150799
0.0357867
0.144709
0.0397878
0.13791
0.0441678
0.130311
0.0489095
0.121819
0.0539712
0.112338
0.059277
0.101779
0.064707
0.090076
0.070089
0.0772028
0.0751931
0.0631991
0.0797363
0.0481945
0.0834016
0.0324242
0.0858776
0.0162236
0.0869155
0.086392
0.198308
0.0124473
0.19662
0.0124055
0.194912
0.0125967
0.193156
0.0130045
0.191328
0.01362
0.189402
0.0144412
0.187354
0.0154711
0.185158
0.0167178
0.182787
0.0181936
0.180212
0.0199148
0.177403
0.0219014
0.174325
0.0241766
0.170941
0.0267667
0.167207
0.0297003
0.163075
0.0330073
0.15849
0.0367177
0.153387
0.0408593
0.147689
0.0454549
0.141309
0.0505179
0.134143
0.0560456
0.126074
0.0620111
0.11697
0.0683514
0.106696
0.074953
0.0951208
0.0816353
0.0821498
0.0881357
0.0677556
0.0941024
0.0520242
0.099105
0.0351948
0.102679
0.0176732
0.104409
0.104042
0.198371
0.014041
0.196746
0.0139906
0.195105
0.0141999
0.193421
0.0146504
0.191672
0.0153318
0.189835
0.0162414
0.187888
0.0173822
0.185808
0.0187627
0.183571
0.020396
0.181151
0.0222999
0.178522
0.0244964
0.175654
0.0270114
0.172513
0.0298749
0.169062
0.0331199
0.165255
0.0367825
0.161041
0.0409005
0.156357
0.0455123
0.151127
0.050654
0.145259
0.0563563
0.138637
0.062638
0.131121
0.0694977
0.122543
0.0769001
0.11271
0.0847578
0.101411
0.0929051
0.0884506
0.101068
0.073689
0.108836
0.0571192
0.115647
0.0389494
0.120821
0.0196626
0.123668
0.123682
0.198441
0.0155649
0.196887
0.0155049
0.19532
0.015729
0.193716
0.0162165
0.192055
0.0169558
0.190316
0.0179433
0.188481
0.0191816
0.186529
0.0206794
0.18444
0.0224505
0.182192
0.0245134
0.179763
0.0268919
0.177127
0.0296141
0.174256
0.0327128
0.171118
0.0362255
0.167675
0.0401939
0.163881
0.044664
0.159677
0.0496851
0.154992
0.0553087
0.149732
0.061586
0.143777
0.0685638
0.136969
0.0762769
0.129105
0.0847353
0.119931
0.0939033
0.109141
0.103666
0.0964005
0.113781
0.081393
0.123816
0.0639293
0.133083
0.0441005
0.140623
0.0224438
0.145298
0.146103
0.198517
0.0170123
0.197041
0.0169418
0.195554
0.0171771
0.194038
0.0176955
0.192472
0.0184841
0.190841
0.0195381
0.189127
0.0208598
0.187314
0.0224574
0.185385
0.0243449
0.183322
0.0265416
0.181109
0.0290719
0.178724
0.0319656
0.176147
0.0352578
0.173351
0.0389894
0.170306
0.0432072
0.166974
0.0479645
0.163307
0.0533214
0.159241
0.059345
0.154688
0.066109
0.14953
0.0736923
0.143603
0.0821749
0.136681
0.0916291
0.128455
0.102101
0.118518
0.113575
0.10636
0.125911
0.0914049
0.138743
0.0731315
0.151329
0.0513261
0.162401
0.0264598
0.170137
0.17254
0.1986
0.0183775
0.197206
0.0182954
0.195807
0.0185383
0.194384
0.0190812
0.192921
0.01991
0.191404
0.0210187
0.189819
0.0224087
0.188154
0.0240878
0.186394
0.0260695
0.184529
0.0283731
0.182544
0.0310233
0.180426
0.0340505
0.17816
0.0374914
0.175728
0.0413889
0.17311
0.0457938
0.170278
0.0507652
0.167197
0.0563724
0.163815
0.0626964
0.160062
0.0698327
0.155832
0.0778929
0.150971
0.0870067
0.145251
0.0973205
0.138334
0.10899
0.129727
0.122154
0.118734
0.136877
0.104432
0.153018
0.0857475
0.169986
0.0617822
0.186339
0.0325466
0.199346
0.205065
0.198687
0.0196552
0.197382
0.0195607
0.196075
0.0198072
0.194751
0.0203682
0.193396
0.0212279
0.191999
0.022379
0.19055
0.023822
0.18904
0.0255635
0.187458
0.0276164
0.185798
0.0299992
0.184051
0.0327363
0.182211
0.0358577
0.18027
0.0394003
0.178219
0.043408
0.176048
0.0479332
0.173744
0.0530388
0.171285
0.0588002
0.168643
0.0653091
0.165768
0.0726782
0.162584
0.0810475
0.158969
0.0905928
0.154725
0.101536
0.149532
0.114155
0.142868
0.12879
0.133901
0.145816
0.121334
0.165559
0.103293
0.188
0.0775116
0.212094
0.0424301
0.234401
0.247473
0.198779
0.020841
0.197567
0.0207331
0.196357
0.0209795
0.195136
0.021552
0.193893
0.0224332
0.192622
0.0236144
0.191313
0.0250947
0.189962
0.0268795
0.188564
0.0289803
0.187115
0.0314145
0.185613
0.0342048
0.184057
0.0373805
0.182448
0.0409768
0.180787
0.0450371
0.179076
0.0496133
0.177315
0.0547689
0.175503
0.0605813
0.173635
0.0671474
0.171695
0.0745893
0.169648
0.0830652
0.167429
0.0927835
0.164911
0.104025
0.161862
0.117177
0.157846
0.132778
0.152053
0.151582
0.142974
0.174611
0.127872
0.203075
0.102194
0.237745
0.0600679
0.276501
0.30752
0.198875
0.0219314
0.197759
0.0218093
0.196649
0.0220518
0.195534
0.0226292
0.194408
0.0235224
0.193265
0.0247214
0.192101
0.0262235
0.190913
0.0280326
0.1897
0.0301583
0.188465
0.032616
0.18721
0.0354266
0.185941
0.0386166
0.184666
0.0422192
0.183397
0.0462746
0.182147
0.0508322
0.180933
0.0559522
0.179774
0.0617097
0.178693
0.068199
0.177711
0.0755421
0.176848
0.0838993
0.176115
0.0934884
0.175498
0.104614
0.174931
0.117716
0.174221
0.133461
0.172884
0.152892
0.169735
0.177734
0.161869
0.210915
0.142288
0.2573
0.0956581
0.323106
0.403157
0.198973
0.0229235
0.197957
0.0227864
0.196949
0.0230214
0.195944
0.0235972
0.194936
0.0244934
0.193924
0.0256981
0.192905
0.0272069
0.191881
0.0290216
0.190855
0.0311498
0.189833
0.0336041
0.188824
0.0364026
0.187839
0.0395687
0.186895
0.0431314
0.186012
0.0471265
0.185215
0.0515979
0.184537
0.0565994
0.184019
0.0621982
0.183709
0.068479
0.183671
0.0755515
0.183981
0.0835607
0.184736
0.0927044
0.186061
0.103261
0.188111
0.11564
0.191076
0.130469
0.195159
0.148782
0.200431
0.172436
0.206116
0.205205
0.207241
0.25615
0.178767
0.351555
0.581903
0.0131905
-0.0131905
0.0265107
-0.0133353
0.0397956
-0.0132948
0.0528568
-0.0130709
0.0655226
-0.0126754
0.0776443
-0.0121309
0.089103
-0.0114677
0.0998138
-0.0107195
0.109725
-0.00991971
0.118816
-0.00909884
0.12709
-0.0082824
0.134573
-0.00749025
0.141303
-0.00673661
0.147326
-0.0060306
0.152697
-0.00537711
0.157469
-0.0047777
0.161694
-0.0042315
0.165425
-0.00373593
0.168707
-0.00328731
0.171584
-0.00288134
0.174093
-0.00251335
0.176268
-0.00217859
0.178137
-0.0018723
0.179724
-0.00158977
0.181048
-0.00132635
0.182123
-0.00107737
0.182959
-0.000838073
0.183562
-0.000603435
0.183929
-0.000367982
-0.000125468
0.0133517
-0.0265582
0.026831
-0.0268356
0.0402544
-0.0267369
0.0534274
-0.0262626
0.0661732
-0.0254398
0.0783414
-0.0243179
0.0898155
-0.0229606
0.100515
-0.0214378
0.110395
-0.0198179
0.11944
-0.018162
0.12766
-0.0165207
0.135084
-0.0149328
0.141756
-0.0134255
0.147724
-0.0120159
0.153043
-0.0107129
0.157768
-0.00951896
0.161952
-0.00843166
0.165646
-0.00744552
0.168897
-0.00655296
0.171748
-0.00574519
0.174234
-0.00501288
0.17639
-0.00434647
0.178243
-0.00373648
0.179817
-0.00317353
0.18113
-0.00264835
0.182197
-0.00215168
0.183028
-0.00167404
0.183625
-0.00120545
0.18399
-0.000735041
-0.00025047
0.0136896
-0.0402584
0.0274908
-0.040655
0.0411973
-0.0404591
0.0545965
-0.0396774
0.0675011
-0.03836
0.0797591
-0.0365912
0.0912592
-0.0344758
0.101931
-0.0321249
0.111743
-0.0296442
0.120692
-0.0271255
0.1288
-0.0246433
0.136107
-0.022253
0.14266
-0.0199925
0.148516
-0.0178849
0.153731
-0.015941
0.158363
-0.0141626
0.162465
-0.012545
0.166087
-0.0110789
0.169276
-0.00975237
0.172073
-0.00855205
0.174514
-0.00746373
0.176633
-0.00647312
0.178454
-0.00556604
0.180003
-0.00472855
0.181295
-0.00394688
0.182346
-0.00320728
0.183164
-0.00249569
0.183752
-0.00179731
0.184112
-0.00109601
-0.000373484
0.0142238
-0.0544928
0.0285313
-0.0549808
0.0426779
-0.0546214
0.0564223
-0.0534374
0.0695624
-0.0515157
0.0819456
-0.0489898
0.0934717
-0.0460172
0.104089
-0.0427572
0.113786
-0.0393558
0.122581
-0.0359351
0.130514
-0.0325905
0.137637
-0.0293905
0.144011
-0.0263799
0.149697
-0.0235841
0.154757
-0.0210133
0.159249
-0.0186664
0.163227
-0.0165348
0.166741
-0.0146048
0.169838
-0.0128593
0.172556
-0.01128
0.174931
-0.00984791
0.176993
-0.00854388
0.178769
-0.00734918
0.180279
-0.00624545
0.181541
-0.0052146
0.182567
-0.00423857
0.183366
-0.0032989
0.183942
-0.00237617
0.184293
-0.00144916
-0.000493854
0.0149921
-0.0694957
0.0300217
-0.0700287
0.0447851
-0.0694007
0.0589996
-0.0676677
0.0724457
-0.0649774
0.0849753
-0.061535
0.0965096
-0.0575667
0.107027
-0.0532893
0.116546
-0.0488905
0.125117
-0.0445203
0.132802
-0.04029
0.139673
-0.0362753
0.145802
-0.0325223
0.151259
-0.0290543
0.15611
-0.025877
0.160416
-0.0229841
0.16423
-0.0203613
0.167603
-0.0179888
0.170578
-0.0158444
0.173192
-0.0139043
0.17548
-0.0121445
0.177469
-0.0105412
0.179183
-0.00907138
0.180643
-0.00771232
0.181864
-0.00644188
0.182859
-0.00523794
0.183634
-0.0040779
0.184193
-0.00293793
0.184534
-0.00179204
-0.000610751
0.0160546
-0.085561
0.0320702
-0.0860628
0.0476546
-0.085001
0.0624692
-0.0824982
0.0762784
-0.0788023
0.0889517
-0.0742239
0.100448
-0.0690789
0.110793
-0.0636494
0.120052
-0.0581641
0.128311
-0.0527942
0.135665
-0.0476581
0.142206
-0.0428301
0.148021
-0.0383507
0.153188
-0.0342347
0.157778
-0.0304795
0.161852
-0.0270705
0.165464
-0.0239855
0.168662
-0.0211982
0.171487
-0.0186799
0.173974
-0.0164014
0.176154
-0.0143338
0.178054
-0.0124487
0.179693
-0.010719
0.181092
-0.00911793
0.182264
-0.00761964
0.183219
-0.00619822
0.183965
-0.00482722
0.184502
-0.00347874
0.184831
-0.00212232
-0.000723387
0.0175055
-0.103077
0.0348437
-0.10342
0.051489
-0.101662
0.0670327
-0.0980579
0.0812351
-0.0930205
0.0940091
-0.0870137
0.105381
-0.0804663
0.115446
-0.0737294
0.124331
-0.0670641
0.132171
-0.0606496
0.139097
-0.0545979
0.145223
-0.0489704
0.150651
-0.0437922
0.155466
-0.0390635
0.159743
-0.0347686
0.163541
-0.0308814
0.166915
-0.0273706
0.169907
-0.0242016
0.172556
-0.0213395
0.174894
-0.0187493
0.176948
-0.0163974
0.178742
-0.0142511
0.180295
-0.0122793
0.181622
-0.0104519
0.182736
-0.00873945
0.183645
-0.00711273
0.184356
-0.00554178
0.184869
-0.003995
0.185183
-0.00243784
-0.00083103
0.0194963
-0.122585
0.0386012
-0.122544
0.056589
-0.119666
0.0729736
-0.114459
0.0875465
-0.107609
0.100314
-0.099797
0.111413
-0.0915813
0.121041
-0.0833725
0.129405
-0.0754428
0.136697
-0.0679564
0.143083
-0.0609992
0.148703
-0.0546044
0.153669
-0.0487715
0.158071
-0.0434791
0.161983
-0.0386936
0.165465
-0.0343754
0.168565
-0.030482
0.171323
-0.0269707
0.173772
-0.0237995
0.175941
-0.0209283
0.177853
-0.0183187
0.179528
-0.0159344
0.180982
-0.0137408
0.182228
-0.0117047
0.183276
-0.00979363
0.184134
-0.00797539
0.184805
-0.00621696
0.18529
-0.00448344
0.185587
-0.00273662
-0.000933007
0.0222785
-0.144874
0.0437547
-0.144039
0.0634037
-0.139332
0.0806854
-0.131757
0.0955079
-0.122448
0.10806
-0.112365
0.118655
-0.102192
0.127628
-0.0923612
0.135283
-0.0831133
0.141873
-0.0745614
0.147599
-0.0667396
0.152616
-0.0596358
0.157044
-0.0532129
0.160973
-0.0474215
0.164474
-0.0422069
0.1676
-0.037514
0.170395
-0.0332887
0.172893
-0.0294798
0.175121
-0.0260388
0.177104
-0.0229207
0.178859
-0.0200832
0.180403
-0.0174866
0.181747
-0.0150935
0.182904
-0.012868
0.18388
-0.0107754
0.18468
-0.0087808
0.185308
-0.00684861
0.185763
-0.00494111
0.186041
-0.00301687
-0.00102872
0.0262947
-0.17118
0.0509815
-0.168745
0.0726096
-0.160977
0.0907047
-0.149868
0.105479
-0.137239
0.117453
-0.124355
0.127201
-0.111956
0.135232
-0.100408
0.141952
-0.0898482
0.147667
-0.0802913
0.152602
-0.0716891
0.156919
-0.0639673
0.160735
-0.0570432
0.164136
-0.0508352
0.167181
-0.0452657
0.169919
-0.0402636
0.172382
-0.0357639
0.174598
-0.0317072
0.176588
-0.0280396
0.178369
-0.0247118
0.179955
-0.0216784
0.181358
-0.0188972
0.182585
-0.0163286
0.183645
-0.0139348
0.184542
-0.0116789
0.185281
-0.00952428
0.185861
-0.00743316
0.186283
-0.00536546
0.186541
-0.00327706
-0.00111763
0.0323801
-0.203572
0.0614367
-0.197822
0.0852274
-0.184784
0.103738
-0.168395
0.117865
-0.151383
0.128681
-0.135187
0.137105
-0.120397
0.143834
-0.107152
0.149358
-0.0953875
0.154013
-0.0849618
0.158027
-0.0757179
0.161553
-0.067507
0.164692
-0.0601967
0.167516
-0.0536721
0.170071
-0.0478341
0.172392
-0.0425969
0.174502
-0.0378859
0.176419
-0.0336356
0.178156
-0.0297877
0.179724
-0.0262899
0.181131
-0.0230947
0.182384
-0.0201581
0.183487
-0.0174393
0.184444
-0.0148991
0.185259
-0.0124993
0.185931
-0.010202
0.186462
-0.00796759
0.186848
-0.00575432
0.187085
-0.00351588
-0.00119931
0.0422587
-0.245842
0.0771607
-0.232744
0.102771
-0.210412
0.120644
-0.186286
0.133044
-0.1638
0.141841
-0.144
0.148329
-0.126901
0.153342
-0.11218
0.157397
-0.099458
0.160814
-0.0883941
0.163789
-0.0787084
0.166445
-0.0701765
0.168854
-0.0626199
0.171063
-0.0558951
0.173101
-0.0498852
0.174986
-0.0444937
0.176727
-0.0396394
0.178333
-0.0352528
0.179808
-0.031273
0.181154
-0.0276465
0.182375
-0.0243246
0.183471
-0.0212631
0.184444
-0.0184202
0.185295
-0.0157565
0.186022
-0.013233
0.186626
-0.0108108
0.187104
-0.00844952
0.187453
-0.00610599
0.187667
-0.00373226
-0.00127339
0.0598838
-0.305738
0.10183
-0.274711
0.127344
-0.235943
0.142287
-0.201246
0.151208
-0.172738
0.156839
-0.149648
0.160688
-0.130767
0.163564
-0.115073
0.165901
-0.10181
0.16793
-0.090439
0.169777
-0.0805702
0.171506
-0.0719204
0.17315
-0.0642779
0.174723
-0.0574812
0.176228
-0.0514035
0.177665
-0.045943
0.17903
-0.041016
0.180317
-0.0365518
0.181523
-0.0324898
0.182643
-0.0287765
0.183673
-0.0253639
0.18461
-0.0222081
0.18545
-0.0192679
0.18619
-0.0165038
0.186828
-0.0138771
0.187361
-0.0113485
0.187784
-0.00887718
0.188095
-0.00641915
0.188286
-0.00392541
-0.0013396
0.0954419
-0.401192
0.141896
-0.321186
0.161326
-0.255392
0.169048
-0.208986
0.172051
-0.175758
0.173236
-0.150851
0.173788
-0.131336
0.174191
-0.115491
0.174635
-0.10227
0.175187
-0.0910064
0.175859
-0.0812571
0.176639
-0.0727149
0.177505
-0.0651591
0.178436
-0.058425
0.179405
-0.0523864
0.180393
-0.0469434
0.18138
-0.0420145
0.182348
-0.0375317
0.183284
-0.0334369
0.184176
-0.0296786
0.185014
-0.026211
0.185789
-0.0229916
0.186494
-0.0199806
0.187123
-0.0171395
0.18767
-0.0144302
0.18813
-0.0118138
0.188498
-0.00924943
0.188769
-0.00669296
0.188937
-0.00409479
-0.00139774
0.178465
-0.579669
0.206797
-0.34954
0.205553
-0.254167
0.199744
-0.203195
0.19434
-0.170372
0.190116
-0.146644
0.187002
-0.128239
0.184797
-0.113302
0.183308
-0.100797
0.18238
-0.0900936
0.181888
-0.0807802
0.181734
-0.0725756
0.181839
-0.0652786
0.18214
-0.0587398
0.182585
-0.052845
0.183133
-0.0475035
0.183748
-0.0426416
0.184402
-0.0381974
0.185072
-0.0341175
0.185738
-0.030355
0.186385
-0.026867
0.186999
-0.023614
0.187569
-0.0205584
0.188086
-0.0176632
0.188541
-0.0148917
0.188928
-0.012206
0.189241
-0.00956576
0.189472
-0.00692697
0.189615
-0.00424011
-0.00144773
0.2067
0.0238496
0.205751
0.023696
0.204816
0.0239194
0.20389
0.0244871
0.20297
0.0253769
0.202057
0.0265752
0.201154
0.0280755
0.200264
0.0298772
0.199395
0.0319851
0.198556
0.0344089
0.197764
0.0371627
0.197035
0.0402655
0.196393
0.043741
0.19587
0.0476185
0.195503
0.051934
0.195341
0.056731
0.195446
0.0620637
0.195896
0.0679994
0.196795
0.074624
0.198278
0.0820488
0.200533
0.0904219
0.203822
0.0999446
0.208536
0.110898
0.21529
0.123688
0.22514
0.138907
0.240121
0.157429
0.264865
0.180436
0.312185
0.208804
0.424976
0.23874
0.237988
0.768871
0.211813
0.0246861
0.210957
0.0245151
0.210117
0.0247229
0.209292
0.0252757
0.208484
0.0261496
0.207696
0.0273291
0.206932
0.0288053
0.2062
0.030575
0.205512
0.0326399
0.204883
0.0350058
0.204331
0.0376825
0.203881
0.0406835
0.203565
0.0440261
0.203421
0.0477315
0.2035
0.0518252
0.203863
0.0563379
0.204591
0.0613061
0.205788
0.066774
0.207589
0.0727946
0.210178
0.0794322
0.213808
0.086764
0.218844
0.0948812
0.225832
0.103884
0.235628
0.113866
0.24966
0.124848
0.270455
0.136609
0.302683
0.148183
0.354945
0.156518
0.440432
0.153229
0.118829
0.559566
0.217057
0.0254242
0.2163
0.0252349
0.215564
0.0254233
0.21485
0.0259545
0.214161
0.026803
0.213505
0.0279513
0.212888
0.0293881
0.212323
0.0311072
0.211823
0.0331068
0.211408
0.0353885
0.211102
0.0379571
0.210934
0.04082
0.210942
0.043987
0.211174
0.04747
0.211686
0.0512828
0.212554
0.0554409
0.21387
0.0599609
0.215755
0.0648601
0.218367
0.0701546
0.221915
0.0758563
0.226686
0.0819662
0.233078
0.088462
0.241665
0.0952709
0.253288
0.102217
0.269199
0.108912
0.291244
0.114539
0.321955
0.117448
0.363963
0.114486
0.416886
0.100283
0.0679262
0.467765
0.222433
0.026056
0.221784
0.0258476
0.221159
0.026013
0.220562
0.0265161
0.220001
0.02733
0.219483
0.0284351
0.21902
0.0298176
0.218627
0.0314682
0.21832
0.0333814
0.218122
0.0355542
0.218062
0.0379861
0.218173
0.0406779
0.218498
0.0436314
0.219089
0.0468487
0.220011
0.0503311
0.221345
0.0540782
0.223191
0.0580864
0.225677
0.0623459
0.228966
0.066837
0.233272
0.0715229
0.238873
0.0763386
0.246138
0.081171
0.255556
0.085826
0.267774
0.0899733
0.283604
0.0930567
0.303958
0.0941594
0.329544
0.091838
0.359991
0.0840153
0.39202
0.0682306
0.0428664
0.417056
0.227944
0.0265741
0.227409
0.0263461
0.226903
0.026485
0.226431
0.0269538
0.226002
0.0277244
0.225629
0.0287751
0.225324
0.0300894
0.225105
0.0316549
0.224992
0.0334622
0.225011
0.0355039
0.225192
0.0377738
0.225573
0.0402662
0.2262
0.0429746
0.227128
0.0458915
0.228423
0.049006
0.23017
0.0523027
0.232469
0.0557592
0.235445
0.0593418
0.239253
0.0630009
0.244087
0.0666621
0.250185
0.0702138
0.257841
0.0734888
0.267404
0.0762369
0.279265
0.078087
0.293797
0.0784999
0.311208
0.076724
0.331234
0.0717878
0.352615
0.0626108
0.372464
0.0483581
0.029142
0.386165
0.233593
0.0269717
0.233179
0.0267239
0.232796
0.0268332
0.232454
0.0272623
0.232164
0.0279815
0.231938
0.0289673
0.231794
0.0302008
0.231751
0.0316664
0.231831
0.0333509
0.232061
0.0352423
0.232475
0.0373291
0.233112
0.0395992
0.234018
0.0420385
0.23525
0.0446304
0.236874
0.0473531
0.23897
0.0501784
0.241633
0.0530681
0.244976
0.0559706
0.249135
0.0588148
0.254267
0.0615032
0.260553
0.0639009
0.268193
0.0658229
0.277387
0.0670173
0.2883
0.067149
0.300986
0.0657885
0.315265
0.0624212
0.330527
0.0565017
0.345528
0.0475862
0.358296
0.035567
0.0209665
0.366448
0.23938
0.027243
0.239093
0.0269755
0.23884
0.0270527
0.238632
0.027437
0.238483
0.0280977
0.238408
0.0290095
0.238425
0.0301512
0.238556
0.0315042
0.238824
0.0330516
0.239258
0.0347774
0.239892
0.0366649
0.240765
0.0386962
0.241923
0.0408507
0.243421
0.0431037
0.24532
0.0454249
0.247695
0.0477758
0.250628
0.0501074
0.254214
0.0523563
0.258562
0.0544402
0.263786
0.0562526
0.270005
0.0576559
0.277327
0.0584748
0.285828
0.0584905
0.295512
0.0574396
0.306252
0.0550239
0.31771
0.0509392
0.329254
0.0449338
0.339914
0.0369028
0.348452
0.0270055
0.0157605
0.353635
0.24531
0.027383
0.245154
0.0270963
0.245034
0.0271395
0.244963
0.0274749
0.244957
0.0280711
0.245033
0.0289013
0.245211
0.0299421
0.245512
0.0311723
0.245961
0.0325717
0.246587
0.0341205
0.247424
0.0357978
0.24851
0.0375806
0.249889
0.0394429
0.251609
0.0413541
0.253729
0.0432772
0.256309
0.0451675
0.259419
0.0469696
0.263133
0.048615
0.267527
0.0500195
0.272674
0.0510792
0.278635
0.0516686
0.285445
0.0516386
0.293092
0.0508184
0.301484
0.0490228
0.310414
0.0460689
0.319524
0.041805
0.328281
0.0361537
0.335995
0.029165
0.341914
0.0210634
0.012265
0.345386
0.251384
0.027388
0.251362
0.0270829
0.251378
0.0270907
0.251447
0.0273741
0.251584
0.0279011
0.25181
0.0286438
0.252144
0.0295768
0.252609
0.0306768
0.253229
0.0319208
0.254034
0.0332858
0.255055
0.0347473
0.256327
0.0362786
0.257892
0.0378497
0.259791
0.0394259
0.262074
0.0409665
0.26479
0.0424236
0.267992
0.0437401
0.271731
0.0448485
0.276055
0.0456692
0.280998
0.0461095
0.286577
0.046064
0.292773
0.0454167
0.29952
0.044046
0.306683
0.0418351
0.31404
0.0386874
0.321272
0.0345489
0.327969
0.0294334
0.333663
0.0234478
0.337898
0.0168051
0.00981597
0.340324
0.257604
0.0272554
0.257719
0.026933
0.257873
0.0269048
0.258081
0.0271341
0.258361
0.0275887
0.258734
0.0282398
0.259219
0.0290606
0.259839
0.0300259
0.260619
0.0311106
0.261586
0.0322893
0.262769
0.0335349
0.2642
0.0348182
0.265915
0.0361065
0.267949
0.0373633
0.270341
0.0385465
0.273129
0.0396082
0.276348
0.0404936
0.28003
0.04114
0.284195
0.0414775
0.288849
0.0414288
0.293976
0.0409117
0.299524
0.0398428
0.305401
0.0381437
0.311462
0.0357499
0.317501
0.0326234
0.32326
0.0287659
0.328437
0.0242326
0.332722
0.0191402
0.335836
0.0136672
0.00803948
0.337589
0.263972
0.0269835
0.264226
0.0266455
0.264517
0.0265816
0.264863
0.0267559
0.265284
0.0271364
0.265799
0.0276937
0.266429
0.0284003
0.267195
0.0292294
0.268121
0.0301546
0.269232
0.0311488
0.270555
0.0321834
0.272116
0.0332278
0.273946
0.0342484
0.276073
0.0352082
0.278525
0.0360665
0.281329
0.0367775
0.284504
0.0372914
0.288064
0.0375534
0.292009
0.0375053
0.296325
0.0370869
0.300973
0.0362382
0.305886
0.0349045
0.310964
0.0330408
0.316069
0.0306198
0.321029
0.0276392
0.325642
0.0241294
0.329692
0.0201586
0.332974
0.0158344
0.33532
0.0112979
0.00671265
0.336624
0.270492
0.0265721
0.270883
0.0262207
0.271311
0.026122
0.271794
0.0262416
0.272351
0.0265479
0.273003
0.0270113
0.273769
0.027604
0.27467
0.0282984
0.275728
0.0290674
0.276965
0.0298829
0.278403
0.0307158
0.280067
0.0315353
0.281979
0.0323082
0.28416
0.032999
0.28663
0.0335693
0.289402
0.0339778
0.292486
0.0341811
0.295879
0.0341337
0.299568
0.0337899
0.303524
0.0331053
0.307696
0.0320398
0.312015
0.0305609
0.316382
0.0286485
0.320678
0.0262989
0.324763
0.0235299
0.328485
0.0203836
0.331692
0.0169276
0.33425
0.0132535
0.336054
0.00947035
0.00569632
0.337047
0.277165
0.0260222
0.277692
0.0256598
0.278255
0.0255282
0.278871
0.0255946
0.27956
0.025828
0.280341
0.0261995
0.281234
0.026681
0.282258
0.0272449
0.283432
0.027864
0.284776
0.0285101
0.286309
0.0291545
0.288049
0.0297671
0.290012
0.0303163
0.292215
0.030769
0.294666
0.0310907
0.297371
0.0312456
0.300328
0.0311972
0.303526
0.0309098
0.30694
0.0303491
0.310535
0.0294849
0.314257
0.0282927
0.318035
0.026757
0.321785
0.0248741
0.325405
0.0226546
0.328785
0.0201255
0.331813
0.0173315
0.334383
0.0143335
0.336407
0.0112062
0.337821
0.00803314
0.00489995
0.338593
0.283994
0.0253359
0.284655
0.0249653
0.285349
0.0248035
0.286093
0.0248192
0.286908
0.0249829
0.287812
0.025266
0.288822
0.0256413
0.289956
0.0260815
0.291231
0.0265597
0.292663
0.0270486
0.294269
0.0275206
0.296061
0.0279471
0.29805
0.0282989
0.300245
0.0285463
0.30265
0.0286592
0.305261
0.0286075
0.308069
0.0283623
0.311056
0.0278964
0.314193
0.0271859
0.317441
0.0262118
0.320746
0.0249618
0.324046
0.0234321
0.327266
0.0216292
0.330325
0.0195711
0.333138
0.017288
0.335623
0.014822
0.337707
0.0122254
0.339332
0.00955781
0.340459
0.00688267
0.00426267
0.341073
0.290981
0.0245164
0.291772
0.0241409
0.292593
0.0239521
0.293461
0.0239209
0.294395
0.0240191
0.295412
0.0242194
0.296528
0.0244953
0.29776
0.0248206
0.299122
0.0251694
0.300626
0.0255157
0.302285
0.0258334
0.304108
0.0260964
0.3061
0.0262784
0.308266
0.0263534
0.310602
0.026296
0.313101
0.0260819
0.315748
0.0256889
0.31852
0.0250976
0.321388
0.0242925
0.32431
0.0232634
0.32724
0.0220066
0.330121
0.0205259
0.332892
0.0188336
0.335488
0.0169506
0.337845
0.0149066
0.339904
0.0127392
0.341613
0.0104917
0.342936
0.00821136
0.343849
0.00594616
0.00374225
0.344346
0.29813
0.0235678
0.299047
0.0231909
0.29999
0.0229792
0.300975
0.0229058
0.30202
0.0229441
0.303142
0.0230684
0.304354
0.0232535
0.305672
0.0234745
0.307105
0.0237071
0.308666
0.0239269
0.310361
0.0241101
0.312196
0.0242331
0.314174
0.0242729
0.316293
0.0242074
0.318546
0.0240158
0.320922
0.0236793
0.323403
0.0231814
0.325965
0.0225093
0.328578
0.0216541
0.331204
0.020612
0.3338
0.019385
0.336319
0.0179815
0.338711
0.0164164
0.340926
0.014711
0.342916
0.0128927
0.344637
0.0109936
0.346056
0.00904906
0.347148
0.00709615
0.347899
0.00517133
0.00330869
0.348308
0.305444
0.022495
0.306482
0.0221205
0.30754
0.0218905
0.308636
0.0217804
0.309785
0.0217656
0.311002
0.021822
0.3123
0.0219262
0.313691
0.0220549
0.315184
0.0221857
0.316787
0.0222962
0.318504
0.0223651
0.320338
0.0223716
0.322287
0.0222961
0.324347
0.0221203
0.326508
0.0218276
0.328757
0.021404
0.331074
0.0208379
0.333435
0.0201217
0.335812
0.0192514
0.338171
0.0182276
0.340475
0.017056
0.342684
0.0157471
0.344759
0.0143166
0.34666
0.0127847
0.348353
0.0111754
0.349807
0.00951573
0.350998
0.00783419
0.35191
0.00615966
0.352538
0.00451986
0.00294016
0.352882
0.312926
0.0213038
0.314079
0.0209357
0.315247
0.0206925
0.316446
0.0205518
0.317691
0.0204914
0.318995
0.0204891
0.320369
0.0205232
0.321823
0.0205726
0.323364
0.0206166
0.324996
0.0206356
0.326723
0.0206104
0.328544
0.0205235
0.330454
0.0203581
0.332448
0.0200997
0.334513
0.0197355
0.336635
0.0192553
0.338795
0.0186519
0.34097
0.0179211
0.343132
0.0170627
0.345254
0.0160801
0.347304
0.0149809
0.349249
0.0137766
0.351059
0.0124821
0.352703
0.0111157
0.354156
0.00969807
0.355396
0.00825146
0.356407
0.00679871
0.357181
0.00536226
0.357714
0.00396321
0.00262048
0.358009
0.32058
0.0200004
0.321841
0.0196427
0.323112
0.0193916
0.324408
0.0192272
0.325741
0.0191294
0.327123
0.019078
0.328564
0.0190536
0.330071
0.019037
0.33165
0.0190099
0.333303
0.0189548
0.33503
0.0188554
0.336829
0.0186967
0.338695
0.0184652
0.340619
0.0181492
0.342588
0.0177395
0.344588
0.0172289
0.3466
0.0166133
0.348603
0.0158915
0.350575
0.0150655
0.352489
0.0141404
0.35432
0.0131245
0.356042
0.0120293
0.357631
0.0108684
0.359064
0.0096578
0.360322
0.00841497
0.361391
0.00715803
0.36226
0.0059051
0.362925
0.00467364
0.363384
0.0034797
0.00233747
0.363643
0.32841
0.018591
0.329773
0.018248
0.33114
0.0179947
0.332525
0.0178136
0.333939
0.0176869
0.335391
0.0175967
0.336891
0.0175255
0.338443
0.0174565
0.340051
0.0173736
0.341717
0.0172617
0.343438
0.0171069
0.34521
0.0168967
0.347028
0.0166205
0.348881
0.0162693
0.350757
0.0158364
0.352642
0.0153173
0.354519
0.0147102
0.356369
0.0140158
0.358171
0.0132374
0.359905
0.012381
0.361549
0.0114549
0.363083
0.0104698
0.364488
0.00943795
0.365748
0.00837294
0.366849
0.00728922
0.367781
0.00620146
0.368538
0.00512399
0.369117
0.00407032
0.36952
0.00305271
0.00208179
0.369751
0.33642
0.0170825
0.337878
0.0167581
0.339335
0.0165083
0.340802
0.0163178
0.34229
0.016171
0.343806
0.0160522
0.345357
0.0159462
0.346947
0.0158382
0.348578
0.0157143
0.350251
0.0155618
0.351961
0.0153692
0.353704
0.0151262
0.355473
0.0148245
0.357258
0.0144575
0.359047
0.0140206
0.360827
0.0135112
0.362581
0.0129291
0.364295
0.0122762
0.36595
0.0115566
0.367528
0.0107764
0.369014
0.00994357
0.370391
0.00906756
0.371645
0.00815906
0.372763
0.00722952
0.373737
0.00629075
0.374559
0.00535451
0.375226
0.00443207
0.375738
0.00353389
0.376097
0.00266927
0.00184622
0.376308
0.344616