/*--------------------------------*- C++ -*----------------------------------*\
| =========                 |                                                 |
| \\      /  F ield         | OpenFOAM: The Open Source CFD Toolbox           |
|  \\    /   O peration     | Version:  5.x                                   |
|   \\  /    A nd           | Web:      www.OpenFOAM.org                      |
|    \\/     M anipulation  |                                                 |
\*---------------------------------------------------------------------------*/
FoamFile
{
    version     2.0;
    format      ascii;
    class       volVectorField;
    location    "0";
    object      U;
}
// * * * * * * * * * * * * * * * * * * * * * * * * * * * * * * * * * * * * * //

dimensions      [0 1 -1 0 0 0 0];

internalField   nonuniform List<vector> 
2790
(
(9.95283 0 0.0231021)
(9.8584 0 0.0235038)
(9.7632 0 0.0244626)
(9.66569 0 0.0258961)
(9.56416 0 0.0278213)
(9.45699 0 0.0302694)
(9.34256 0 0.033285)
(9.21918 0 0.0369258)
(9.08508 0 0.0412631)
(8.93838 0 0.0463813)
(8.77705 0 0.0523777)
(8.59889 0 0.0593614)
(8.40156 0 0.0674516)
(8.1825 0 0.0767736)
(7.93904 0 0.087453)
(7.66835 0 0.0996066)
(7.36758 0 0.11333)
(7.03388 0 0.128679)
(6.66463 0 0.14565)
(6.25753 0 0.164153)
(5.81093 0 0.183985)
(5.324 0 0.204804)
(4.79708 0 0.226117)
(4.23192 0 0.247275)
(3.63187 0 0.267501)
(3.00198 0 0.285937)
(2.3489 0 0.301733)
(1.6806 0 0.314132)
(1.00595 0 0.322576)
(0.334086 0 0.326761)
(9.95302 0 0.0684256)
(9.85909 0 0.0698008)
(9.76443 0 0.0726748)
(9.66746 0 0.0769685)
(9.56652 0 0.0827324)
(9.46001 0 0.0900591)
(9.34633 0 0.0990817)
(9.2238 0 0.109973)
(9.09069 0 0.122945)
(8.94513 0 0.13825)
(8.78513 0 0.156179)
(8.6085 0 0.17706)
(8.41293 0 0.201249)
(8.19588 0 0.229124)
(7.95468 0 0.261066)
(7.6865 0 0.297431)
(7.38846 0 0.338516)
(7.05766 0 0.384504)
(6.69135 0 0.435403)
(6.28711 0 0.490966)
(5.84305 0 0.550613)
(5.35809 0 0.613348)
(4.83227 0 0.677705)
(4.26703 0 0.741744)
(3.66546 0 0.803114)
(3.03243 0 0.859198)
(2.37457 0 0.907364)
(1.70002 0 0.945259)
(1.01797 0 0.97112)
(0.338136 0 0.984005)
(9.95351 0 0.112982)
(9.86054 0 0.115403)
(9.76689 0 0.120166)
(9.67099 0 0.12728)
(9.57123 0 0.136826)
(9.46603 0 0.148958)
(9.35383 0 0.163894)
(9.23301 0 0.181919)
(9.10186 0 0.203383)
(8.95858 0 0.228704)
(8.80121 0 0.258363)
(8.62763 0 0.292904)
(8.43555 0 0.332923)
(8.2225 0 0.379055)
(7.98582 0 0.431944)
(7.72268 0 0.492206)
(7.43012 0 0.560365)
(7.10516 0 0.636778)
(6.74484 0 0.721522)
(6.34642 0 0.81427)
(5.90762 0 0.914144)
(5.42683 0 1.01958)
(4.90346 0 1.1282)
(4.33831 0 1.23681)
(3.7339 0 1.34141)
(3.0947 0 1.4375)
(2.42725 0 1.52044)
(1.74 0 1.58597)
(1.04285 0 1.63087)
(0.346556 0 1.65334)
(9.95422 0 0.1573)
(9.86271 0 0.160655)
(9.77055 0 0.167257)
(9.67624 0 0.177115)
(9.57822 0 0.190342)
(9.47497 0 0.207147)
(9.36498 0 0.227831)
(9.24669 0 0.252786)
(9.11846 0 0.282496)
(8.97855 0 0.317537)
(8.82509 0 0.358577)
(8.65604 0 0.406373)
(8.46918 0 0.461762)
(8.2621 0 0.525639)
(8.03217 0 0.598929)
(7.77658 0 0.682534)
(7.49231 0 0.777255)
(7.17622 0 0.883686)
(6.82508 0 1.00207)
(6.43573 0 1.13213)
(6.00527 0 1.27284)
(5.53129 0 1.42221)
(5.01225 0 1.57709)
(4.44791 0 1.73307)
(3.83979 0 1.88447)
(3.19164 0 2.02468)
(2.50974 0 2.14663)
(1.8029 0 2.24367)
(1.08214 0 2.31052)
(0.359884 0 2.34411)
(9.95517 0 0.200804)
(9.86556 0 0.205061)
(9.77537 0 0.213437)
(9.68316 0 0.225941)
(9.58743 0 0.242714)
(9.48674 0 0.264018)
(9.37965 0 0.290229)
(9.26469 0 0.321841)
(9.14029 0 0.359463)
(9.00482 0 0.403823)
(8.85651 0 0.455768)
(8.69341 0 0.516263)
(8.51343 0 0.586382)
(8.31423 0 0.66729)
(8.09327 0 0.760208)
(7.84776 0 0.866356)
(7.57462 0 0.986872)
(7.27055 0 1.12268)
(6.93202 0 1.27433)
(6.55534 0 1.44174)
(6.13682 0 1.62397)
(5.67301 0 1.81885)
(5.16103 0 2.02268)
(4.59911 0 2.22997)
(3.98723 0 2.43337)
(3.32785 0 2.62383)
(2.62663 0 2.79134)
(1.89269 0 2.92599)
(1.13852 0 3.01949)
(0.379063 0 3.06672)
(9.95633 0 0.243275)
(9.86907 0 0.248393)
(9.7813 0 0.258462)
(9.69167 0 0.27349)
(9.59877 0 0.29364)
(9.50122 0 0.319222)
(9.3977 0 0.350682)
(9.28681 0 0.388606)
(9.16711 0 0.433718)
(9.03709 0 0.486888)
(8.89509 0 0.549132)
(8.73931 0 0.621615)
(8.56779 0 0.705643)
(8.37834 0 0.802653)
(8.16851 0 0.914177)
(7.93557 0 1.04179)
(7.67645 0 1.18703)
(7.3877 0 1.35126)
(7.06547 0 1.53548)
(6.70551 0 1.74005)
(6.30325 0 1.9644)
(5.85392 0 2.20651)
(5.35292 0 2.46252)
(4.79638 0 2.72616)
(4.18197 0 2.98847)
(3.51005 0 3.2378)
(2.78484 0 3.46038)
(2.01547 0 3.6418)
(1.2162 0 3.76924)
(0.405591 0 3.8341)
(9.95771 0 0.284504)
(9.8732 0 0.290436)
(9.78829 0 0.302101)
(9.7017 0 0.319505)
(9.61211 0 0.342831)
(9.51826 0 0.372429)
(9.41892 0 0.408806)
(9.31281 0 0.45263)
(9.19862 0 0.504729)
(9.07498 0 0.5661)
(8.94038 0 0.637915)
(8.7932 0 0.721524)
(8.63164 0 0.81846)
(8.45368 0 0.930425)
(8.25706 0 1.05927)
(8.03915 0 1.20697)
(7.79694 0 1.3755)
(7.52691 0 1.56679)
(7.22496 0 1.78245)
(6.88631 0 2.02357)
(6.50543 0 2.29027)
(6.07611 0 2.5812)
(5.59165 0 2.89285)
(5.04541 0 3.21877)
(4.43177 0 3.54877)
(3.74764 0 3.86849)
(2.99449 0 4.15963)
(2.18047 0 4.40148)
(1.3217 0 4.57412)
(0.44183 0 4.66296)
(9.95927 0 0.324295)
(9.87793 0 0.330984)
(9.79627 0 0.344135)
(9.71314 0 0.363747)
(9.62733 0 0.390018)
(9.53768 0 0.423332)
(9.44308 0 0.464246)
(9.3424 0 0.513498)
(9.23446 0 0.572005)
(9.11804 0 0.640875)
(8.99184 0 0.721418)
(8.85442 0 0.815153)
(8.7042 0 0.923819)
(8.53938 0 1.04938)
(8.35791 0 1.194)
(8.15739 0 1.36005)
(7.93494 0 1.55004)
(7.6871 0 1.76651)
(7.40965 0 2.0119)
(7.09738 0 2.28826)
(6.74394 0 2.59686)
(6.3416 0 2.93762)
(5.88132 0 3.30818)
(5.35302 0 3.70281)
(4.74655 0 4.11098)
(4.05349 0 4.51606)
(3.2702 0 4.89456)
(2.40172 0 5.21717)
(1.4653 0 5.4528)
(0.491565 0 5.57604)
(9.96102 0 0.362464)
(9.88319 0 0.369848)
(9.80516 0 0.384361)
(9.72588 0 0.405994)
(9.64426 0 0.434955)
(9.55928 0 0.471651)
(9.46994 0 0.51668)
(9.37525 0 0.570834)
(9.27422 0 0.635103)
(9.16579 0 0.710689)
(9.04886 0 0.799015)
(8.92224 0 0.901744)
(8.78457 0 1.0208)
(8.63436 0 1.15838)
(8.46984 0 1.31695)
(8.2889 0 1.49929)
(8.08894 0 1.70843)
(7.86673 0 1.94763)
(7.61811 0 2.22026)
(7.33774 0 2.52961)
(7.01865 0 2.87856)
(6.65183 0 3.26897)
(6.22588 0 3.70071)
(5.7268 0 4.17018)
(5.13855 0 4.6682)
(4.44484 0 5.17728)
(3.63306 0 5.66897)
(2.70075 0 6.10288)
(1.66361 0 6.43035)
(0.561096 0 6.60594)
(9.96293 0 0.398842)
(9.88895 0 0.406854)
(9.81488 0 0.422596)
(9.7398 0 0.446048)
(9.66275 0 0.47742)
(9.58284 0 0.517135)
(9.4992 0 0.56582)
(9.41102 0 0.624307)
(9.31746 0 0.693638)
(9.21767 0 0.775084)
(9.11077 0 0.870158)
(8.99582 0 0.980638)
(8.87176 0 1.10859)
(8.73743 0 1.25642)
(8.59141 0 1.42687)
(8.432 0 1.62307)
(8.25703 0 1.84858)
(8.06369 0 2.10737)
(7.84821 0 2.40385)
(7.60544 0 2.74274)
(7.32832 0 3.1289)
(7.00709 0 3.56685)
(6.62838 0 4.05994)
(6.17431 0 4.60868)
(5.62195 0 5.20798)
(4.94412 0 5.84282)
(4.11341 0 6.48223)
(3.11144 0 7.07347)
(1.94465 0 7.5413)
(0.661495 0 7.80229)
(9.96499 0 0.433276)
(9.89515 0 0.441845)
(9.82534 0 0.458673)
(9.75478 0 0.483729)
(9.68262 0 0.517217)
(9.60812 0 0.559568)
(9.53058 0 0.611422)
(9.44932 0 0.673634)
(9.3637 0 0.747282)
(9.27308 0 0.833679)
(9.17682 0 0.934394)
(9.07425 0 1.05129)
(8.96465 0 1.18653)
(8.84721 0 1.34267)
(8.72096 0 1.52267)
(8.58471 0 1.72998)
(8.43688 0 1.96859)
(8.2753 0 2.24316)
(8.09693 0 2.55909)
(7.89734 0 2.92261)
(7.67008 0 3.34077)
(7.40556 0 3.82138)
(7.08963 0 4.37244)
(6.70152 0 5.00089)
(6.21152 0 5.7098)
(5.57913 0 6.49267)
(4.75448 0 7.32331)
(3.68824 0 8.14063)
(2.35822 0 8.83346)
(0.813666 0 9.24603)
(9.96718 0 0.465633)
(9.90174 0 0.474683)
(9.83645 0 0.49245)
(9.77066 0 0.518883)
(9.70368 0 0.55418)
(9.63489 0 0.598765)
(9.56375 0 0.65328)
(9.48975 0 0.718588)
(9.41244 0 0.795775)
(9.3314 0 0.88617)
(9.24623 0 0.99137)
(9.15657 0 1.11327)
(9.06203 0 1.2541)
(8.96222 0 1.41648)
(8.85668 0 1.60353)
(8.7448 0 1.81889)
(8.62573 0 2.06691)
(8.49821 0 2.35278)
(8.36026 0 2.68276)
(8.20879 0 3.06442)
(8.03882 0 3.507)
(7.84236 0 4.02174)
(7.60642 0 4.62213)
(7.31 0 5.32367)
(6.91924 0 6.1423)
(6.38087 0 7.08941)
(5.61566 0 8.1591)
(4.52011 0 9.30061)
(2.99854 0 10.3699)
(1.06075 0 11.0808)
(9.96948 0 0.495794)
(9.90866 0 0.505249)
(9.8481 0 0.523802)
(9.78731 0 0.551382)
(9.72573 0 0.58817)
(9.66288 0 0.634578)
(9.59838 0 0.691235)
(9.5319 0 0.758991)
(9.46316 0 0.838921)
(9.39197 0 0.932343)
(9.31819 0 1.04084)
(9.24175 0 1.1663)
(9.16264 0 1.31094)
(9.08089 0 1.47742)
(8.99658 0 1.66887)
(8.90977 0 1.88904)
(8.82046 0 2.14245)
(8.72847 0 2.43459)
(8.63325 0 2.7723)
(8.53357 0 3.16414)
(8.42692 0 3.62107)
(8.3085 0 4.15734)
(8.16933 0 4.79171)
(7.9927 0 5.54905)
(7.74748 0 6.46182)
(7.37567 0 7.56993)
(6.77114 0 8.91326)
(5.75166 0 10.5006)
(4.05656 0 12.2145)
(1.5017 0 13.5895)
(9.97187 0 0.523662)
(9.91584 0 0.533445)
(9.8602 0 0.552628)
(9.80458 0 0.58112)
(9.74857 0 0.61908)
(9.69184 0 0.666896)
(9.63415 0 0.725171)
(9.57533 0 0.794726)
(9.51532 0 0.876599)
(9.45412 0 0.972069)
(9.39186 0 1.08267)
(9.32876 0 1.21023)
(9.26518 0 1.35692)
(9.20158 0 1.52531)
(9.1386 0 1.71847)
(9.077 0 1.94009)
(9.01768 0 2.19466)
(8.96168 0 2.48771)
(8.9101 0 2.82621)
(8.86397 0 3.21913)
(8.82407 0 3.67825)
(8.79032 0 4.21959)
(8.76073 0 4.86548)
(8.7288 0 5.64815)
(8.67763 0 6.61556)
(8.56548 0 7.84087)
(8.29009 0 9.43554)
(7.60392 0 11.5558)
(5.94865 0 14.3352)
(2.39145 0 17.4016)
(9.97432 0 0.549158)
(9.92324 0 0.559191)
(9.87265 0 0.57885)
(9.82233 0 0.60802)
(9.77201 0 0.646834)
(9.7215 0 0.695645)
(9.67071 0 0.755019)
(9.61964 0 0.825728)
(9.5684 0 0.908756)
(9.51721 0 1.00531)
(9.46644 0 1.11684)
(9.41659 0 1.24508)
(9.36836 0 1.39206)
(9.32267 0 1.56021)
(9.28066 0 1.75242)
(9.2438 0 1.97217)
(9.2139 0 2.22368)
(9.19319 0 2.51219)
(9.18449 0 2.84432)
(9.19128 0 3.22868)
(9.21792 0 3.67669)
(9.26994 0 4.20414)
(9.3543 0 4.83363)
(9.47967 0 5.59916)
(9.65588 0 6.55472)
(9.88975 0 7.79247)
(10.1637 0 9.48408)
(10.3339 0 11.9854)
(9.65018 0 16.1295)
(4.46916 0 24.1201)
(0.329762 0 -0.322982)
(0.992529 0 -0.318816)
(1.65766 0 -0.310341)
(2.31631 0 -0.297907)
(2.95949 0 -0.28207)
(3.57917 0 -0.263578)
(4.16868 0 -0.243283)
(4.72292 0 -0.222039)
(5.23847 0 -0.20062)
(5.71352 0 -0.179672)
(6.14765 0 -0.159687)
(6.54159 0 -0.141003)
(6.89689 0 -0.123821)
(7.21572 0 -0.108226)
(7.50058 0 -0.0942195)
(7.75414 0 -0.0817392)
(7.97908 0 -0.0706847)
(8.17799 0 -0.0609326)
(8.35331 0 -0.0523494)
(8.50729 0 -0.0448007)
(8.64194 0 -0.0381561)
(8.75904 0 -0.0322929)
(8.86014 0 -0.0270973)
(8.94653 0 -0.0224649)
(9.0193 0 -0.0182998)
(9.07928 0 -0.0145136)
(9.12707 0 -0.0110233)
(9.16303 0 -0.00774958)
(9.18726 0 -0.00461418)
(9.19956 0 -0.0015361)
(0.333794 0 -0.973286)
(1.00457 0 -0.960392)
(1.67714 0 -0.93446)
(2.34205 0 -0.896476)
(2.99001 0 -0.848192)
(3.61286 0 -0.791952)
(4.20392 0 -0.730383)
(4.75827 0 -0.666092)
(5.27275 0 -0.601423)
(5.74586 0 -0.538311)
(6.17749 0 -0.478212)
(6.56861 0 -0.422112)
(6.921 0 -0.370585)
(7.23699 0 -0.323866)
(7.51916 0 -0.281935)
(7.77026 0 -0.244594)
(7.99299 0 -0.211531)
(8.18996 0 -0.182368)
(8.36359 0 -0.156703)
(8.51612 0 -0.13413)
(8.64954 0 -0.114258)
(8.7656 0 -0.0967197)
(8.86583 0 -0.0811743)
(8.95151 0 -0.0673096)
(9.02369 0 -0.0548395)
(9.0832 0 -0.0434994)
(9.13063 0 -0.0330421)
(9.16632 0 -0.0232305)
(9.19037 0 -0.013831)
(9.20259 0 -0.00460261)
(0.34224 0 -1.63607)
(1.02951 0 -1.61354)
(1.7172 0 -1.56855)
(2.39484 0 -1.50288)
(3.05244 0 -1.41976)
(3.68151 0 -1.32342)
(4.27546 0 -1.21849)
(4.82977 0 -1.10947)
(5.34186 0 -1.00034)
(5.81087 0 -0.894279)
(6.2373 0 -0.793655)
(6.62267 0 -0.700019)
(6.96917 0 -0.614233)
(7.2794 0 -0.536606)
(7.55618 0 -0.46704)
(7.80236 0 -0.405157)
(8.02069 0 -0.350403)
(8.21378 0 -0.302131)
(8.38406 0 -0.259657)
(8.53371 0 -0.222302)
(8.66468 0 -0.189412)
(8.77867 0 -0.160377)
(8.87718 0 -0.134633)
(8.96143 0 -0.111663)
(9.03245 0 -0.0909952)
(9.09103 0 -0.072192)
(9.13773 0 -0.0548449)
(9.1729 0 -0.0385629)
(9.1966 0 -0.0229598)
(9.20864 0 -0.00763906)
(0.355595 0 -2.32008)
(1.06888 0 -2.28643)
(1.78023 0 -2.21946)
(2.47751 0 -2.12224)
(3.14962 0 -2.00004)
(3.7877 0 -1.85949)
(4.38543 0 -1.70763)
(4.93902 0 -1.55108)
(5.44687 0 -1.39548)
(5.90916 0 -1.24524)
(6.32737 0 -1.10348)
(6.70378 0 -0.972184)
(7.04122 0 -0.85234)
(7.34272 0 -0.744211)
(7.61136 0 -0.647526)
(7.85014 0 -0.561656)
(8.06188 0 -0.485762)
(8.2492 0 -0.418897)
(8.41448 0 -0.360084)
(8.55985 0 -0.30836)
(8.68717 0 -0.262814)
(8.79811 0 -0.222594)
(8.89405 0 -0.186918)
(8.97619 0 -0.155072)
(9.04549 0 -0.126402)
(9.10269 0 -0.100305)
(9.14833 0 -0.0762169)
(9.1827 0 -0.0535977)
(9.20589 0 -0.0319142)
(9.21766 0 -0.0106188)
(0.374803 0 -3.03598)
(1.12534 0 -2.98868)
(1.87017 0 -2.89505)
(2.59462 0 -2.76019)
(3.28613 0 -2.59236)
(3.93552 0 -2.40146)
(4.53712 0 -2.19749)
(5.0884 0 -1.98947)
(5.58932 0 -1.78472)
(6.04159 0 -1.58873)
(6.44798 0 -1.40516)
(6.81188 0 -1.23615)
(7.13688 0 -1.08264)
(7.42652 0 -0.944659)
(7.68423 0 -0.821627)
(7.91314 0 -0.712579)
(8.11615 0 -0.616329)
(8.29584 0 -0.531598)
(8.45453 0 -0.457098)
(8.59425 0 -0.391581)
(8.7168 0 -0.333874)
(8.8237 0 -0.282895)
(8.91629 0 -0.23765)
(8.99565 0 -0.197235)
(9.06269 0 -0.160826)
(9.11808 0 -0.127661)
(9.16232 0 -0.0970278)
(9.19566 0 -0.0682459)
(9.21816 0 -0.0406418)
(9.22959 0 -0.0135237)
(0.401365 0 -3.79671)
(1.20312 0 -3.73178)
(1.99312 0 -3.6042)
(2.75309 0 -3.42253)
(3.46869 0 -3.19958)
(4.13075 0 -2.94974)
(4.735 0 -2.68674)
(5.28105 0 -2.42222)
(5.77114 0 -2.16511)
(6.20909 0 -1.92164)
(6.59941 0 -1.69567)
(6.94677 0 -1.48915)
(7.25566 0 -1.30267)
(7.53021 0 -1.1358)
(7.77414 0 -0.987498)
(7.99074 0 -0.856359)
(8.1829 0 -0.740788)
(8.35317 0 -0.639136)
(8.50374 0 -0.549788)
(8.63654 0 -0.471211)
(8.75322 0 -0.401976)
(8.8552 0 -0.340776)
(8.94367 0 -0.28642)
(9.01964 0 -0.237826)
(9.0839 0 -0.194009)
(9.13708 0 -0.15406)
(9.1796 0 -0.11713)
(9.21168 0 -0.0824057)
(9.23334 0 -0.0490826)
(9.24435 0 -0.0163338)
(0.437639 0 -4.61899)
(1.30873 0 -4.53008)
(2.15832 0 -4.35728)
(2.96304 0 -4.11517)
(3.70669 0 -3.82363)
(4.38111 0 -3.50333)
(4.98476 0 -3.17254)
(5.52067 0 -2.8456)
(5.99441 0 -2.53266)
(6.41255 0 -2.24014)
(6.7817 0 -1.97153)
(7.10799 0 -1.72814)
(7.39684 0 -1.50981)
(7.65293 0 -1.31543)
(7.88023 0 -1.1433)
(8.0821 0 -0.99147)
(8.2614 0 -0.857874)
(8.42054 0 -0.740466)
(8.56157 0 -0.637296)
(8.68625 0 -0.546544)
(8.79606 0 -0.46654)
(8.89227 0 -0.395766)
(8.97593 0 -0.332847)
(9.04792 0 -0.276538)
(9.10894 0 -0.225709)
(9.15953 0 -0.179315)
(9.20003 0 -0.136384)
(9.23063 0 -0.0959811)
(9.2513 0 -0.0571804)
(9.26182 0 -0.0190307)
(0.487407 0 -5.52555)
(1.45244 0 -5.40225)
(2.37975 0 -5.16648)
(3.23906 0 -4.84361)
(4.013 0 -4.46469)
(4.69651 0 -4.05898)
(5.29318 0 -3.64992)
(5.81136 0 -3.25414)
(6.26114 0 -2.88211)
(6.65253 0 -2.53954)
(6.9945 0 -2.22875)
(7.29467 0 -1.94979)
(7.55931 0 -1.70135)
(7.79351 0 -1.48133)
(8.00137 0 -1.28723)
(8.18621 0 -1.11645)
(8.35074 0 -0.966394)
(8.49718 0 -0.834615)
(8.62736 0 -0.718824)
(8.74282 0 -0.61693)
(8.84485 0 -0.527036)
(8.93452 0 -0.447433)
(9.01274 0 -0.376581)
(9.08024 0 -0.313091)
(9.13759 0 -0.255703)
(9.18524 0 -0.203256)
(9.22346 0 -0.154664)
(9.25237 0 -0.108884)
(9.27194 0 -0.0648832)
(9.28189 0 -0.0215971)
(0.556962 0 -6.54899)
(1.65083 0 -6.37336)
(2.67896 0 -6.04579)
(3.60223 0 -5.61166)
(4.40483 0 -5.11955)
(5.08919 0 -4.60981)
(5.66787 0 -4.11083)
(6.15707 0 -3.64007)
(6.57279 0 -3.20669)
(6.92892 0 -2.81425)
(7.23682 0 -2.46284)
(7.50539 0 -2.15056)
(7.74151 0 -1.87451)
(7.95043 0 -1.63132)
(8.13616 0 -1.41757)
(8.30183 0 -1.22992)
(8.44986 0 -1.06525)
(8.58218 0 -0.920701)
(8.70034 0 -0.79366)
(8.80562 0 -0.681789)
(8.89906 0 -0.582992)
(8.98154 0 -0.495392)
(9.05375 0 -0.41731)
(9.11629 0 -0.347234)
(9.16959 0 -0.283794)
(9.214 0 -0.225727)
(9.2497 0 -0.171853)
(9.27676 0 -0.121034)
(9.29509 0 -0.0721438)
(9.30442 0 -0.0240174)
(0.657367 0 -7.73889)
(1.93191 0 -7.47793)
(3.08978 0 -7.0101)
(4.08286 0 -6.41871)
(4.9046 0 -5.77891)
(5.57332 0 -5.1434)
(6.11637 0 -4.54307)
(6.56084 0 -3.99293)
(6.9296 0 -3.49803)
(7.24046 0 -3.05782)
(7.50671 0 -2.66894)
(7.73801 0 -2.32682)
(7.94135 0 -2.02654)
(8.12177 0 -1.76333)
(8.28292 0 -1.53273)
(8.4275 0 -1.33066)
(8.55752 0 -1.15348)
(8.6745 0 -0.997953)
(8.77966 0 -0.861182)
(8.87394 0 -0.740618)
(8.95812 0 -0.633997)
(9.03283 0 -0.539309)
(9.09857 0 -0.454762)
(9.15575 0 -0.378747)
(9.20468 0 -0.309805)
(9.24558 0 -0.246593)
(9.27856 0 -0.18785)
(9.30361 0 -0.132362)
(9.3206 0 -0.0789205)
(9.32927 0 -0.0262777)
(0.809503 0 -9.17616)
(2.34542 0 -8.76375)
(3.6666 0 -8.07109)
(4.72413 0 -7.25376)
(5.54007 0 -6.42282)
(6.16364 0 -5.63927)
(6.64465 0 -4.92928)
(7.02348 0 -4.2993)
(7.32979 0 -3.74627)
(7.58427 0 -3.2632)
(7.80101 0 -2.84205)
(7.98949 0 -2.47499)
(8.15612 0 -2.15491)
(8.30519 0 -1.87551)
(8.43966 0 -1.63133)
(8.56157 0 -1.41762)
(8.67234 0 -1.23028)
(8.77302 0 -1.06573)
(8.86438 0 -0.920882)
(8.94702 0 -0.793005)
(9.0214 0 -0.679716)
(9.08788 0 -0.578909)
(9.14676 0 -0.488713)
(9.19827 0 -0.407448)
(9.24257 0 -0.333591)
(9.27974 0 -0.265737)
(9.30982 0 -0.202568)
(9.33273 0 -0.142805)
(9.3483 0 -0.0851776)
(9.35625 0 -0.0283663)
(1.05647 0 -11.0043)
(2.98548 0 -10.2938)
(4.49829 0 -9.22506)
(5.58538 0 -8.08378)
(6.34222 0 -7.01389)
(6.87214 0 -6.06612)
(7.25426 0 -5.24634)
(7.54178 0 -4.54316)
(7.76846 0 -3.94062)
(7.95526 0 -3.4232)
(8.11508 0 -2.97738)
(8.25585 0 -2.59188)
(8.38246 0 -2.25741)
(8.49792 0 -1.96631)
(8.60411 0 -1.71227)
(8.70217 0 -1.48999)
(8.79282 0 -1.29502)
(8.87651 0 -1.12356)
(8.95352 0 -0.972373)
(9.02404 0 -0.838634)
(9.08822 0 -0.719889)
(9.14615 0 -0.613978)
(9.19789 0 -0.518984)
(9.24348 0 -0.43319)
(9.28293 0 -0.355032)
(9.31621 0 -0.283068)
(9.34326 0 -0.215936)
(9.36392 0 -0.152315)
(9.378 0 -0.0908854)
(9.3852 0 -0.0302732)
(1.49709 0 -13.506)
(4.04285 0 -12.132)
(5.72934 0 -10.4193)
(6.74076 0 -8.8325)
(7.33736 0 -7.48911)
(7.70117 0 -6.38033)
(7.93819 0 -5.46633)
(8.10631 0 -4.70722)
(8.23663 0 -4.07052)
(8.34578 0 -3.53136)
(8.44269 0 -3.07094)
(8.53209 0 -2.67496)
(8.61642 0 -2.33242)
(8.69684 0 -2.03467)
(8.77378 0 -1.77482)
(8.84733 0 -1.54724)
(8.91736 0 -1.3473)
(8.98367 0 -1.17113)
(9.04601 0 -1.0154)
(9.10416 0 -0.877297)
(9.15791 0 -0.754339)
(9.20707 0 -0.644364)
(9.25148 0 -0.545449)
(9.29099 0 -0.455866)
(9.32546 0 -0.374041)
(9.35473 0 -0.298513)
(9.37863 0 -0.2279)
(9.39698 0 -0.160853)
(9.40952 0 -0.0960205)
(9.41594 0 -0.0319907)
(2.38605 0 -17.3098)
(5.93344 0 -14.2465)
(7.58054 0 -11.4692)
(8.25936 0 -9.34988)
(8.52748 0 -7.75522)
(8.63217 0 -6.52918)
(8.67561 0 -5.56041)
(8.69948 0 -4.7758)
(8.72064 0 -4.12739)
(8.74554 0 -3.58294)
(8.77613 0 -3.12008)
(8.81243 0 -2.72275)
(8.8536 0 -2.37909)
(8.89853 0 -2.08008)
(8.94602 0 -1.81864)
(8.99496 0 -1.58915)
(9.04432 0 -1.38698)
(9.09319 0 -1.2083)
(9.14082 0 -1.04986)
(9.18652 0 -0.908894)
(9.22977 0 -0.782977)
(9.27008 0 -0.669986)
(9.30708 0 -0.568032)
(9.34042 0 -0.47541)
(9.36981 0 -0.390559)
(9.39499 0 -0.312025)
(9.41571 0 -0.238421)
(9.43168 0 -0.168392)
(9.44264 0 -0.100566)
(9.44827 0 -0.0335132)
(4.46162 0 -24.0173)
(9.63153 0 -16.0355)
(10.3087 0 -11.8946)
(10.1324 0 -9.39429)
(9.85208 0 -7.70256)
(9.61138 0 -6.4639)
(9.42795 0 -5.50679)
(9.29498 0 -4.73913)
(9.20262 0 -4.10691)
(9.14219 0 -3.57612)
(9.10668 0 -3.12413)
(9.09053 0 -2.73508)
(9.08932 0 -2.39748)
(9.09948 0 -2.10266)
(9.11814 0 -1.8439)
(9.14296 0 -1.61584)
(9.17203 0 -1.41413)
(9.20376 0 -1.23513)
(9.23686 0 -1.07578)
(9.27026 0 -0.933437)
(9.30308 0 -0.805795)
(9.3346 0 -0.690826)
(9.36419 0 -0.586708)
(9.39136 0 -0.491793)
(9.41567 0 -0.404558)
(9.43674 0 -0.323577)
(9.45422 0 -0.247478)
(9.46781 0 -0.174913)
(9.47717 0 -0.104512)
(9.48199 0 -0.034837)
(9.97689 0 0.572642)
(9.93094 0 0.582849)
(9.88559 0 0.602834)
(9.84076 0 0.632458)
(9.79631 0 0.671816)
(9.75219 0 0.721222)
(9.70846 0 0.781189)
(9.66528 0 0.852425)
(9.62292 0 0.935835)
(9.58181 0 1.03253)
(9.54254 0 1.14384)
(9.50589 0 1.27133)
(9.4729 0 1.41688)
(9.44486 0 1.58266)
(9.42343 0 1.77127)
(9.4107 0 1.98581)
(9.40932 0 2.23003)
(9.42269 0 2.50852)
(9.45517 0 2.82704)
(9.51253 0 3.193)
(9.60253 0 3.61614)
(9.736 0 4.1097)
(9.9287 0 4.69241)
(10.2048 0 5.39183)
(10.6046 0 6.25085)
(11.2025 0 7.34062)
(12.159 0 8.78939)
(13.8941 0 10.8534)
(17.7493 0 14.1126)
(28.7453 0 20.0758)
(9.97956 0 0.594221)
(9.93898 0 0.604525)
(9.89909 0 0.624686)
(9.85996 0 0.654535)
(9.82159 0 0.694128)
(9.78405 0 0.743725)
(9.74755 0 0.803776)
(9.71239 0 0.874908)
(9.67902 0 0.957924)
(9.64805 0 1.05381)
(9.62027 0 1.16374)
(9.59672 0 1.28909)
(9.57871 0 1.43147)
(9.5679 0 1.59277)
(9.56637 0 1.77516)
(9.57676 0 1.98123)
(9.60243 0 2.21402)
(9.64768 0 2.47718)
(9.71815 0 2.77514)
(9.82135 0 3.1134)
(9.96755 0 3.49883)
(10.1713 0 3.94022)
(10.454 0 4.44892)
(10.8485 0 5.0396)
(11.4087 0 5.7308)
(12.2275 0 6.54334)
(13.474 0 7.48977)
(15.4603 0 8.52772)
(18.6986 0 9.37106)
(23.5091 0 8.73701)
(9.98232 0 0.613499)
(9.94725 0 0.623821)
(9.91297 0 0.644)
(9.87968 0 0.673836)
(9.84749 0 0.713339)
(9.81662 0 0.762711)
(9.7874 0 0.822324)
(9.76027 0 0.892709)
(9.73582 0 0.974549)
(9.71483 0 1.06868)
(9.69827 0 1.17609)
(9.68739 0 1.29792)
(9.68373 0 1.43549)
(9.68923 0 1.59029)
(9.7063 0 1.76402)
(9.73797 0 1.95863)
(9.7881 0 2.17628)
(9.86159 0 2.41948)
(9.96482 0 2.69101)
(10.1062 0 2.99401)
(10.2972 0 3.33186)
(10.5534 0 3.70799)
(10.8972 0 4.12522)
(11.3611 0 4.58411)
(11.9931 0 5.07908)
(12.8644 0 5.58889)
(14.0753 0 6.05417)
(15.7445 0 6.32604)
(17.9235 0 6.06088)
(20.3062 0 4.57289)
(9.98513 0 0.630272)
(9.9557 0 0.64053)
(9.92714 0 0.660568)
(9.89976 0 0.69015)
(9.87382 0 0.72924)
(9.84964 0 0.777971)
(9.82766 0 0.836629)
(9.80846 0 0.905636)
(9.79275 0 0.985539)
(9.78144 0 1.077)
(9.77566 0 1.18081)
(9.7768 0 1.29783)
(9.78658 0 1.42905)
(9.80711 0 1.57554)
(9.84103 0 1.73846)
(9.89159 0 1.91903)
(9.96284 0 2.1185)
(10.0599 0 2.33809)
(10.1894 0 2.57886)
(10.3596 0 2.84152)
(10.5816 0 3.12599)
(10.87 0 3.43071)
(11.2439 0 3.75116)
(11.7288 0 4.07724)
(12.3574 0 4.38832)
(13.1683 0 4.64424)
(14.1979 0 4.76997)
(15.4537 0 4.63361)
(16.8539 0 4.02876)
(18.1328 0 2.71286)
(9.98799 0 0.644349)
(9.96427 0 0.654464)
(9.94147 0 0.674202)
(9.92005 0 0.703295)
(9.90035 0 0.741652)
(9.88281 0 0.789336)
(9.86797 0 0.846539)
(9.85651 0 0.913563)
(9.84925 0 0.990809)
(9.84719 0 1.07876)
(9.85156 0 1.17796)
(9.86387 0 1.28901)
(9.88592 0 1.41254)
(9.91993 0 1.54917)
(9.96858 0 1.69951)
(10.0352 0 1.86404)
(10.1237 0 2.0431)
(10.2391 0 2.23666)
(10.3876 0 2.44419)
(10.5767 0 2.66425)
(10.8159 0 2.89392)
(11.1169 0 3.12789)
(11.4937 0 3.3569)
(11.9625 0 3.56533)
(12.54 0 3.72754)
(13.239 0 3.80273)
(14.0582 0 3.72931)
(14.9643 0 3.42269)
(15.8665 0 2.78736)
(16.6007 0 1.76319)
(9.99086 0 0.65556)
(9.97288 0 0.665452)
(9.95586 0 0.684736)
(9.94037 0 0.71311)
(9.92686 0 0.750429)
(9.91584 0 0.796678)
(9.90796 0 0.851953)
(9.90395 0 0.91643)
(9.90473 0 0.990356)
(9.91136 0 1.07402)
(9.92513 0 1.16774)
(9.94758 0 1.27183)
(9.98055 0 1.38656)
(10.0262 0 1.51212)
(10.0872 0 1.64856)
(10.1667 0 1.79571)
(10.2684 0 1.95304)
(10.3967 0 2.11948)
(10.557 0 2.29317)
(10.7555 0 2.47106)
(10.9995 0 2.64832)
(11.297 0 2.81749)
(11.6567 0 2.9673)
(12.0863 0 3.08112)
(12.5905 0 3.13507)
(13.1666 0 3.09645)
(13.7978 0 2.92393)
(14.4443 0 2.57233)
(15.0376 0 2.00645)
(15.4846 0 1.22696)
(9.99372 0 0.663749)
(9.98146 0 0.673345)
(9.97018 0 0.692028)
(9.96056 0 0.719465)
(9.9531 0 0.755457)
(9.94843 0 0.799913)
(9.94724 0 0.852826)
(9.95033 0 0.914248)
(9.95864 0 0.98427)
(9.97329 0 1.06299)
(9.99557 0 1.1505)
(10.027 0 1.24683)
(10.0694 0 1.35192)
(10.1248 0 1.46555)
(10.1957 0 1.58729)
(10.2848 0 1.71639)
(10.3955 0 1.85161)
(10.5315 0 1.99108)
(10.697 0 2.13202)
(10.8967 0 2.27037)
(11.1354 0 2.40034)
(11.4179 0 2.51384)
(11.748 0 2.59971)
(12.1274 0 2.6431)
(12.5534 0 2.62498)
(13.0165 0 2.52265)
(13.4963 0 2.31188)
(13.9595 0 1.97223)
(14.36 0 1.49596)
(14.6463 0 0.899297)
(9.99656 0 0.668785)
(9.98994 0 0.678014)
(9.98432 0 0.69596)
(9.98043 0 0.722261)
(9.97887 0 0.756664)
(9.9803 0 0.799003)
(9.98546 0 0.849171)
(9.9952 0 0.907097)
(10.0105 0 0.972721)
(10.0324 0 1.04596)
(10.0622 0 1.12669)
(10.1014 0 1.21468)
(10.1515 0 1.30958)
(10.2147 0 1.41082)
(10.2929 0 1.51756)
(10.3886 0 1.62859)
(10.5045 0 1.74216)
(10.6435 0 1.85588)
(10.8087 0 1.96645)
(11.003 0 2.06939)
(11.2292 0 2.1588)
(11.4894 0 2.22697)
(11.7838 0 2.26418)
(12.1105 0 2.25856)
(12.4633 0 2.19652)
(12.8308 0 2.06387)
(13.1947 0 1.84812)
(13.5302 0 1.54222)
(13.8079 0 1.14922)
(13.9992 0 0.686231)
(9.99934 0 0.670561)
(9.99825 0 0.679361)
(9.99814 0 0.696447)
(9.99982 0 0.721433)
(10.0039 0 0.754016)
(10.0111 0 0.793956)
(10.0223 0 0.841054)
(10.0382 0 0.895122)
(10.0597 0 0.955959)
(10.0881 0 1.02332)
(10.1244 0 1.09687)
(10.17 0 1.17618)
(10.2264 0 1.26063)
(10.2953 0 1.34938)
(10.3785 0 1.44128)
(10.4779 0 1.5348)
(10.5956 0 1.62789)
(10.7336 0 1.71789)
(10.894 0 1.80133)
(11.0783 0 1.87383)
(11.2875 0 1.9299)
(11.5217 0 1.96288)
(11.7791 0 1.96498)
(12.0557 0 1.92751)
(12.3445 0 1.84157)
(12.6346 0 1.69913)
(12.9116 0 1.49484)
(13.158 0 1.22814)
(13.3555 0 0.905348)
(13.488 0 0.540673)
(10.002 0 0.668998)
(10.0063 0 0.677313)
(10.0115 0 0.693434)
(10.0186 0 0.716952)
(10.028 0 0.747519)
(10.0407 0 0.78483)
(10.0574 0 0.828598)
(10.0788 0 0.878531)
(10.106 0 0.934302)
(10.14 0 0.995518)
(10.1817 0 1.06169)
(10.2325 0 1.13219)
(10.2935 0 1.20622)
(10.3663 0 1.28272)
(10.4523 0 1.36035)
(10.5529 0 1.43739)
(10.6695 0 1.51167)
(10.8035 0 1.5805)
(10.9559 0 1.64053)
(11.1271 0 1.68776)
(11.317 0 1.71748)
(11.5243 0 1.72432)
(11.7462 0 1.70244)
(11.978 0 1.64594)
(12.2129 0 1.54943)
(12.442 0 1.40897)
(12.6544 0 1.22314)
(12.8381 0 0.994131)
(12.9818 0 0.728521)
(13.0763 0 0.437208)
(10.0046 0 0.664045)
(10.0141 0 0.671828)
(10.0244 0 0.686896)
(10.0365 0 0.708821)
(10.051 0 0.737218)
(10.0688 0 0.771722)
(10.0905 0 0.811973)
(10.117 0 0.857584)
(10.149 0 0.908122)
(10.1877 0 0.963076)
(10.2338 0 1.02183)
(10.2885 0 1.08361)
(10.3528 0 1.14748)
(10.4278 0 1.21227)
(10.5146 0 1.27652)
(10.6142 0 1.33846)
(10.7276 0 1.39594)
(10.8553 0 1.44641)
(10.9976 0 1.48685)
(11.1542 0 1.5138)
(11.3242 0 1.52346)
(11.5054 0 1.51171)
(11.6948 0 1.47448)
(11.8879 0 1.40801)
(12.0787 0 1.30937)
(12.2602 0 1.1771)
(12.4244 0 1.01175)
(12.5635 0 0.816411)
(12.6702 0 0.596857)
(12.7394 0 0.36122)
(10.0071 0 0.65568)
(10.0215 0 0.662896)
(10.0366 0 0.676843)
(10.0535 0 0.697082)
(10.0728 0 0.723196)
(10.0952 0 0.754773)
(10.1214 0 0.791389)
(10.1523 0 0.832583)
(10.1885 0 0.877835)
(10.231 0 0.926543)
(10.2805 0 0.977994)
(10.3379 0 1.03133)
(10.4041 0 1.08553)
(10.4799 0 1.13936)
(10.566 0 1.19136)
(10.663 0 1.2398)
(10.7714 0 1.28266)
(10.8913 0 1.31763)
(11.0224 0 1.34213)
(11.1639 0 1.35333)
(11.3144 0 1.34826)
(11.4716 0 1.32399)
(11.6324 0 1.2778)
(11.7927 0 1.20751)
(11.9479 0 1.11179)
(12.0924 0 0.990563)
(12.2207 0 0.845257)
(12.3274 0 0.678997)
(12.4081 0 0.496521)
(12.4599 0 0.303846)
(10.0095 0 0.643911)
(10.0285 0 0.650536)
(10.0482 0 0.663315)
(10.0695 0 0.681807)
(10.0931 0 0.70557)
(10.1196 0 0.734157)
(10.1499 0 0.767094)
(10.1846 0 0.803862)
(10.2243 0 0.843881)
(10.2698 0 0.886484)
(10.3218 0 0.930898)
(10.3809 0 0.976221)
(10.4479 0 1.0214)
(10.5232 0 1.06521)
(10.6073 0 1.10624)
(10.7005 0 1.14287)
(10.8028 0 1.17329)
(10.914 0 1.19552)
(11.0336 0 1.20741)
(11.1602 0 1.20676)
(11.2925 0 1.19137)
(11.428 0 1.15922)
(11.5641 0 1.10864)
(11.6973 0 1.03853)
(11.8238 0 0.948536)
(11.9396 0 0.839287)
(12.0408 0 0.712493)
(12.1238 0 0.570963)
(12.186 0 0.418467)
(12.2255 0 0.25946)
(10.0117 0 0.628777)
(10.035 0 0.634795)
(10.0589 0 0.646382)
(10.0843 0 0.663098)
(10.1118 0 0.684487)
(10.1421 0 0.710077)
(10.1759 0 0.739359)
(10.2137 0 0.771777)
(10.2563 0 0.80671)
(10.304 0 0.843456)
(10.3577 0 0.881217)
(10.4176 0 0.919079)
(10.4843 0 0.956008)
(10.5582 0 0.990829)
(10.6394 0 1.02223)
(10.7279 0 1.04877)
(10.8235 0 1.06887)
(10.9258 0 1.08088)
(11.0338 0 1.08309)
(11.1465 0 1.07385)
(11.2621 0 1.0516)
(11.3787 0 1.01504)
(11.4938 0 0.96325)
(11.6046 0 0.895802)
(11.7082 0 0.812914)
(11.8017 0 0.715524)
(11.8823 0 0.605321)
(11.9478 0 0.484695)
(11.9964 0 0.356602)
(12.0271 0 0.224356)
(10.0137 0 0.610341)
(10.041 0 0.615749)
(10.0688 0 0.626141)
(10.0979 0 0.641084)
(10.1289 0 0.660118)
(10.1626 0 0.682757)
(10.1993 0 0.708473)
(10.2398 0 0.73669)
(10.2845 0 0.766769)
(10.3338 0 0.797997)
(10.3883 0 0.829579)
(10.4483 0 0.860625)
(10.5141 0 0.890151)
(10.5857 0 0.917069)
(10.6633 0 0.940201)
(10.7466 0 0.958288)
(10.8353 0 0.970015)
(10.9286 0 0.974046)
(11.0258 0 0.969076)
(11.1256 0 0.953896)
(11.2264 0 0.927471)
(11.3265 0 0.889023)
(11.4239 0 0.838129)
(11.5164 0 0.774793)
(11.6017 0 0.699519)
(11.6778 0 0.613331)
(11.7427 0 0.517761)
(11.795 0 0.414785)
(11.8335 0 0.306707)
(11.8578 0 0.196008)
(10.0155 0 0.588693)
(10.0465 0 0.593499)
(10.0778 0 0.602713)
(10.1103 0 0.615916)
(10.1444 0 0.632653)
(10.1809 0 0.652436)
(10.2201 0 0.674732)
(10.2627 0 0.698961)
(10.309 0 0.724485)
(10.3593 0 0.750605)
(10.4141 0 0.77655)
(10.4735 0 0.801481)
(10.5377 0 0.824487)
(10.6066 0 0.844589)
(10.6801 0 0.86076)
(10.758 0 0.871933)
(10.8397 0 0.877037)
(10.9246 0 0.875029)
(11.0116 0 0.86494)
(11.0997 0 0.845931)
(11.1876 0 0.817348)
(11.2737 0 0.778788)
(11.3563 0 0.730152)
(11.4338 0 0.671688)
(11.5045 0 0.604018)
(11.567 0 0.528134)
(11.6198 0 0.445367)
(11.662 0 0.357323)
(11.693 0 0.265793)
(11.7125 0 0.172649)
(10.0172 0 0.563946)
(10.0515 0 0.568165)
(10.0859 0 0.576237)
(10.1213 0 0.587761)
(10.1582 0 0.602296)
(10.1971 0 0.619359)
(10.2384 0 0.638429)
(10.2826 0 0.658934)
(10.3299 0 0.680258)
(10.3808 0 0.701729)
(10.4353 0 0.722623)
(10.4936 0 0.742165)
(10.5558 0 0.759536)
(10.6216 0 0.773878)
(10.691 0 0.784313)
(10.7634 0 0.789964)
(10.8384 0 0.789981)
(10.9152 0 0.783571)
(10.9931 0 0.770042)
(11.0709 0 0.748838)
(11.1474 0 0.719589)
(11.2216 0 0.68214)
(11.2919 0 0.636591)
(11.3573 0 0.583312)
(11.4163 0 0.522947)
(11.468 0 0.456401)
(11.5114 0 0.384798)
(11.546 0 0.30943)