/*--------------------------------*- C++ -*----------------------------------*\
  =========                 |
  \\      /  F ield         | OpenFOAM: The Open Source CFD Toolbox
   \\    /   O peration     | Website:  https://openfoam.org
    \\  /    A nd           | Version:  7
     \\/     M anipulation  |
\*---------------------------------------------------------------------------*/
FoamFile
{
    version     2.0;
    format      ascii;
    class       volScalarField;
    location    "2.1";
    object      p;
}
// * * * * * * * * * * * * * * * * * * * * * * * * * * * * * * * * * * * * * //

dimensions      [0 2 -2 0 0 0 0];

internalField   nonuniform List<scalar> 
2790
(
147.895
147.802
148.069
148.641
149.421
150.379
151.512
152.819
154.297
155.938
157.738
159.69
161.784
164.01
166.351
168.787
171.291
173.83
176.362
178.836
181.194
183.372
185.302
186.922
188.182
189.056
189.492
189.547
189.598
189.811
147.692
147.71
148.002
148.571
149.347
150.302
151.43
152.732
154.201
155.835
157.625
159.567
161.65
163.865
166.195
168.62
171.116
173.65
176.18
178.658
181.027
183.222
185.176
186.824
188.108
188.983
189.379
189.434
189.567
189.851
147.493
147.581
147.892
148.45
149.214
150.156
151.27
152.553
154.001
155.61
157.372
159.282
161.331
163.507
165.796
168.178
170.631
173.122
175.614
178.061
180.411
182.603
184.575
186.265
187.615
188.591
189.184
189.539
189.855
190.153
147.268
147.386
147.711
148.26
149.009
149.935
151.029
152.287
153.707
155.282
157.007
158.873
160.872
162.993
165.222
167.54
169.925
172.348
174.775
177.166
179.473
181.645
183.626
185.366
186.82
187.972
188.84
189.51
190.063
190.582
147.007
147.14
147.472
148.014
148.747
149.651
150.719
151.947
153.33
154.862
156.536
158.346
160.283
162.334
164.486
166.722
169.021
171.356
173.698
176.011
178.256
180.391
182.373
184.164
185.734
187.076
188.206
189.168
189.979
190.726
146.706
146.844
147.179
147.711
148.424
149.302
150.339
151.529
152.867
154.347
155.963
157.706
159.568
161.536
163.598
165.736
167.932
170.161
172.399
174.614
176.777
178.854
180.816
182.636
184.299
185.801
187.147
188.352
189.372
190.29
146.363
146.502
146.834
147.353
148.043
148.891
149.891
151.037
152.324
153.744
155.292
156.959
158.734
160.608
162.566
164.592
166.668
168.774
170.888
172.984
175.039
177.03
178.938
180.748
182.453
184.054
185.547
186.926
188.091
189.137
145.978
146.116
146.44
146.943
147.607
148.421
149.379
150.475
151.704
153.058
154.529
156.109
157.788
159.555
161.396
163.296
165.237
167.202
169.17
171.122
173.04
174.907
176.714
178.456
180.135
181.753
183.308
184.78
186.03
187.18
145.552
145.685
145.999
146.483
147.117
147.894
148.806
149.847
151.011
152.291
153.678
155.163
156.736
158.385
160.097
161.856
163.646
165.45
167.25
169.029
170.773
172.471
174.119
175.719
177.281
178.815
180.324
181.794
183.065
184.303
145.085
145.213
145.514
145.975
146.578
147.313
148.175
149.156
150.251
151.45
152.746
154.128
155.586
157.107
158.678
160.282
161.905
163.527
165.134
166.708
168.237
169.711
171.13
172.498
173.83
175.149
176.469
177.806
179.006
180.31
144.579
144.701
144.987
145.423
145.991
146.682
147.49
148.407
149.427
150.541
151.739
153.011
154.346
155.729
157.148
158.584
160.023
161.445
162.832
164.168
165.436
166.626
167.734
168.762
169.726
170.654
171.584
172.582
173.544
174.862
144.037
144.152
144.42
144.829
145.36
146.004
146.755
147.605
148.546
149.569
150.664
151.82
153.024
154.262
155.518
156.775
158.015
159.217
160.36
161.423
162.386
163.229
163.937
164.504
164.93
165.239
165.482
165.789
166.169
167.342
143.46
143.567
143.817
144.197
144.689
145.284
145.974
146.753
147.612
148.54
149.528
150.562
151.63
152.715
153.802
154.869
155.898
156.863
157.739
158.5
159.114
159.549
159.772
159.748
159.445
158.847
157.972
156.978
156.027
156.531
142.85
142.949
143.179
143.529
143.98
144.524
145.152
145.858
146.631
147.462
148.339
149.248
150.174
151.102
152.012
152.883
153.689
154.405
154.998
155.431
155.663
155.641
155.304
154.574
153.352
151.523
148.959
145.655
141.701
139.659
142.21
142.3
142.51
142.828
143.238
143.728
144.293
144.924
145.61
146.341
147.104
147.885
148.668
149.434
150.164
150.832
151.411
151.869
152.167
152.26
152.088
151.58
150.638
149.125
146.848
143.518
138.675
131.655
121.181
108.933
3.02211
2.97382
2.82195
2.60797
2.3713
2.12992
1.89057
1.65695
1.43191
1.21776
1.01704
0.833438
0.671744
0.535984
0.427297
0.345177
0.292279
0.272112
0.278824
0.306951
0.350386
0.403914
0.459313
0.506148
0.534411
0.536929
0.507593
0.439156
0.321544
0.148551
2.90226
2.84684
2.70639
2.51011
2.28992
2.062
1.83364
1.60908
1.39134
1.18275
0.986049
0.805348
0.646302
0.513614
0.408284
0.328499
0.277314
0.257234
0.265073
0.296413
0.343493
0.401794
0.461837
0.511908
0.542249
0.545934
0.517801
0.451345
0.33374
0.151432
2.78999
2.72624
2.59256
2.41038
2.20536
1.99058
1.77323
1.55792
1.34779
1.14489
0.952027
0.773702
0.617018
0.487618
0.383317
0.297305
0.249448
0.244069
0.264108
0.297552
0.345543
0.405097
0.465874
0.516482
0.547462
0.551227
0.521505
0.4519
0.330914
0.146428
2.703
2.63057
2.50041
2.3277
2.13435
1.9302
1.72216
1.51512
1.31244
1.11526
0.92622
0.748412
0.59016
0.465822
0.379986
0.308943
0.248515
0.226914
0.24772
0.289155
0.340898
0.402043
0.462548
0.511907
0.541664
0.545008
0.513112
0.439358
0.316238
0.131794
2.67341
2.59251
2.46492
2.29731
2.11051
1.91231
1.70951
1.5072
1.30972
1.11725
0.934906
0.765243
0.614577
0.484351
0.378982
0.30864
0.261742
0.243417
0.256304
0.291001
0.338567
0.393891
0.448238
0.492279
0.517991
0.518396
0.484232
0.410199
0.289611
0.111464
2.72049
2.62936
2.49969
2.33044
2.14232
1.94333
1.74028
1.53808
1.34061
1.15042
0.970065
0.802446
0.650311
0.519359
0.413844
0.33541
0.284272
0.261275
0.265288
0.289984
0.328298
0.374016
0.419336
0.456051
0.476092
0.472123
0.436023
0.36509
0.252083
0.0913805
2.84453
2.74026
2.59842
2.41817
2.21947
2.01186
1.80227
1.59533
1.39446
1.20211
1.01912
0.847346
0.693196
0.560691
0.451808
0.367672
0.309209
0.277041
0.269432
0.281545
0.307527
0.34129
0.375898
0.404146
0.418256
0.409409
0.374369
0.308533
0.206388
0.0714323
3.02187
2.89407
2.72958
2.52911
2.31239
2.09084
1.8715
1.65771
1.45086
1.25295
1.06712
0.895256
0.739473
0.603376
0.489081
0.397799
0.330303
0.286842
0.265881
0.263782
0.275764
0.296416
0.319678
0.339098
0.347496
0.337105
0.304314
0.244699
0.156131
0.0517812
3.19977
3.0395
2.84645
2.62496
2.39265
2.15819
1.92842
1.70773
1.49785
1.29879
1.11148
0.938013
0.780141
0.640193
0.520007
0.420803
0.343307
0.287629
0.252626
0.235685
0.233115
0.240453
0.252571
0.263756
0.267671
0.257738
0.229149
0.177074
0.104202
0.0324535
3.31889
3.14433
2.92938
2.68811
2.44206
2.20036
1.96657
1.74286
1.53091
1.33124
1.144
0.969991
0.810423
0.666937
0.541053
0.433898
0.346177
0.278083
0.228989
0.197254
0.180298
0.174731
0.176429
0.18056
0.18175
0.174183
0.15154
0.108315
0.052477
0.0135712
3.40287
3.19903
2.96441
2.70814
2.45131
2.20453
1.97071
1.74971
1.54121
1.34495
1.16056
0.987972
0.827899
0.68168
0.550717
0.436069
0.338427
0.258188
0.195347
0.149259
0.118488
0.10076
0.0930285
0.0915531
0.0919375
0.0886032
0.0735222
0.0403195
0.00207203
-0.00468294
3.38565
3.14714
2.89681
2.63885
2.38981
2.15468
1.93352
1.72425
1.52582
1.33798
1.16006
0.991353
0.832279
0.684337
0.549134
0.427732
0.320778
0.228908
0.152831
0.0929846
0.0491184
0.0200932
0.00398551
-0.00169169
-0.000323849
0.00243587
-0.00345337
-0.025557
-0.0462569
-0.0221179
3.17195
2.91413
2.68551
2.46307
2.25005
2.0479
1.8553
1.66824
1.48651
1.31201
1.14434
0.981946
0.825155
0.676311
0.537695
0.410405
0.29487
0.191912
0.103069
0.0300008
-0.0262956
-0.0658281
-0.0893689
-0.0980689
-0.0942181
-0.0835518
-0.0784788
-0.0883389
-0.0918892
-0.0385153
2.68789
2.42533
2.29671
2.17858
2.03895
1.89274
1.74564
1.59024
1.42943
1.27177
1.11781
0.963715
0.809671
0.660115
0.518713
0.38645
0.26308
0.14943
0.0480471
-0.0379484
-0.106235
-0.155736
-0.186088
-0.197022
-0.189431
-0.169243
-0.151137
-0.147229
-0.134107
-0.0535916
1.78803
1.538
1.69182
1.81502
1.78473
1.70938
1.62379
1.50601
1.36368
1.22356
1.08672
0.942377
0.789935
0.638719
0.494869
0.358661
0.228166
0.103857
-0.0103215
-0.109348
-0.189475
-0.248682
-0.285604
-0.298456
-0.286368
-0.255047
-0.221284
-0.201243
-0.17176
-0.0670124
141.531
141.611
141.8
142.085
142.451
142.886
143.385
143.938
144.534
145.161
145.808
146.457
147.092
147.693
148.237
148.698
149.044
149.237
149.233
148.975
148.392
147.386
145.825
143.515
140.157
135.255
127.887
116.134
93.9504
34.0141
140.803
140.874
141.04
141.291
141.61
141.989
142.419
142.89
143.393
143.914
144.44
144.953
145.437
145.868
146.223
146.472
146.58
146.506
146.198
145.591
144.601
143.115
140.974
137.947
133.677
127.579
118.622
105.072
85.5748
57.205
140.033
140.094
140.237
140.451
140.723
141.043
141.402
141.791
142.198
142.611
143.014
143.39
143.719
143.98
144.144
144.182
144.055
143.718
143.115
142.176
140.809
138.895
136.269
132.701
127.867
121.313
112.454
100.658
86.4934
70.0169
139.221
139.273
139.392
139.569
139.793
140.052
140.34
140.644
140.955
141.258
141.537
141.775
141.951
142.042
142.019
141.85
141.495
140.907
140.029
138.787
137.091
134.823
131.833
127.925
122.852
116.325
108.05
97.7019
85.2258
70.1922
138.371
138.412
138.506
138.646
138.821
139.019
139.234
139.454
139.668
139.861
140.018
140.119
140.145
140.07
139.865
139.498
138.928
138.108
136.98
135.475
133.506
130.967
127.731
123.642
118.52
112.168
104.389
94.9419
83.6638
70.7636
137.483
137.514
137.584
137.686
137.811
137.949
138.091
138.227
138.344
138.429
138.465
138.433
138.312
138.078
137.701
137.148
136.379
135.35
134.005
132.279
130.096
127.365
123.981
119.827
114.772
108.684
101.441
92.9464
83.1932
72.5951
136.562
136.581
136.627
136.691
136.766
136.844
136.914
136.967
136.99
136.968
136.887
136.726
136.466
136.08
135.542
134.818
133.872
132.66
131.131
129.23
126.889
124.035
120.586
116.455
111.557
105.813
99.1698
91.6177
83.2013
74.2556
135.608
135.618
135.639
135.666
135.692
135.71
135.709
135.681
135.612
135.488
135.294
135.011
134.618
134.092
133.406
132.529
131.426
130.059
128.382
126.348
123.9
120.982
117.533
113.494
108.812
103.448
97.3885
90.6542
83.2955
75.5832
134.628
134.627
134.624
134.614
134.593
134.552
134.483
134.375
134.218
133.996
133.695
133.297
132.782
132.127
131.308
130.296
129.06
127.565
125.773
123.645
121.136
118.203
114.803
110.9
106.464
101.481
95.9567
89.9261
83.4425
76.7323
133.624
133.613
133.586
133.541
133.473
133.376
133.241
133.058
132.816
132.502
132.1
131.596
130.968
130.198
129.261
128.133
126.786
125.191
123.315
121.127
118.594
115.684
112.369
108.628
104.449
99.8316
94.7944
89.3765
83.6307
77.7409
132.601
132.58
132.531
132.451
132.339
132.187
131.989
131.735
131.413
131.013
130.519
129.917
129.189
128.316
127.278
126.053
124.616
122.945
121.012
118.794
116.266
113.408
110.201
106.637
102.714
98.4405
93.8412
88.9548
83.8291
78.6116
131.563
131.534
131.463
131.35
131.195
130.993
130.735
130.414
130.019
129.538
128.96
128.27
127.453
126.491
125.368
124.063
122.558
120.832
118.866
116.642
114.143
111.356
108.272
104.889
101.213
97.2577
93.0484
88.6212
84.0177
79.3566
130.518
130.479
130.388
130.244
130.049
129.798
129.485
129.102
128.639
128.086
127.432
126.665
125.77
124.732
123.538
122.171
120.614
118.854
116.875
114.664
112.211
109.509
106.555
103.352
99.9088
96.2432
92.3791
88.3487
84.1876
79.9914
129.469
129.422
129.311
129.139
128.906
128.611
128.247
127.807
127.282
126.664
125.943
125.108
124.146
123.046
121.795
120.38
118.789
117.011
115.035
112.852
110.457
107.847
105.025
101.995
98.7694
95.3657
91.8061
88.1189
84.3342
80.5294
128.424
128.369
128.241
128.041
127.774
127.438
127.027
126.535
125.956
125.28
124.5
123.607
122.589
121.438
120.143
118.695
117.083
115.3
113.339
111.195
108.866
106.353
103.66
100.794
97.7688
94.6003
91.3089
87.919
84.4558
80.9824
127.388
127.326
127.181
126.957
126.659
126.285
125.832
125.295
124.666
123.941
123.11
122.168
121.105
119.913
118.586
117.115
115.494
113.718
111.782
109.684
107.426
105.009
102.441
99.7287
96.886
93.9277
90.8721
87.74
84.5525
81.3614
126.368
126.3
126.14
125.894
125.567
125.16
124.67
124.092
123.421
122.652
121.779
120.796
119.697
118.475
117.125
115.642
114.021
112.26
110.356
108.309
106.123
103.801
101.351
98.7812
96.1037
93.3327
90.4842
87.5759
84.6257
81.676
125.372
125.298
125.125
124.858
124.506
124.07
123.547
122.934
122.226
121.42
120.512
119.497
118.37
117.126
115.762
114.275
112.662
110.921
109.054
107.061
104.947
102.716
100.377
97.9369
95.4083
92.8036
90.1368
87.423
84.6774
81.9349
124.406
124.327
124.142
123.858
123.483
123.021
122.47
121.826
121.088
120.252
119.315
118.274
117.126
115.868
114.497
113.013
111.413
109.698
107.87
105.932
103.887
101.743
99.5054
97.184
94.7888
92.3313
89.8237
87.279
84.71
82.1457
123.478
123.395
123.199
122.899
122.506
122.021
121.445
120.776
120.012
119.151
118.192
117.132
115.97
114.703
113.331
111.854
110.271
108.585
106.798
104.913
102.935
100.871
98.7275
96.5129
94.2366
91.9089
89.5406
87.1427
84.7263
82.3153
122.596
122.508
122.304
121.99
121.58
121.076
120.48
119.789
119.004
118.124
117.148
116.074
114.902
113.632
112.264
110.797
109.235
107.579
105.832
103.999
102.084
100.093
98.0349
95.9159
93.7451
91.5314
89.2845
87.0139
84.7291
82.4501
121.766
121.676
121.463
121.138
120.713
120.194
119.58
118.873
118.071
117.175
116.186
115.103
113.926
112.657
111.295
109.842
108.302
106.676
104.968
103.183
101.326
99.4032
97.4212
95.3872
93.3092
91.1952
89.0537
86.8931
84.7216
82.5559
120.998
120.905
120.685
120.35
119.913
119.381
118.753
118.031
117.217
116.31
115.311
114.223
113.044
111.778
110.425
108.987
107.469
105.872
104.201
102.461
100.657
98.7952
96.8811
94.9221
92.9251
90.8976
88.8471
86.7809
84.7064
82.6375
120.3
120.203
119.978
119.634
119.187
118.644
118.005
117.272
116.447
115.532
114.528
113.436
112.259
110.997
109.655
108.233
106.736
105.167
103.531
101.832
100.075
98.2664
96.4119
94.518
92.5911
90.6379
88.6652
86.6796
84.6875
82.7008
119.68
119.581
119.35
118.998
118.543
117.99
117.342
116.601
115.768
114.847
113.839
112.747
111.572
110.317
108.985
107.578
106.102
104.558
102.953
101.29
99.5748
97.8128
96.0098
94.1716
92.3043
90.4141
88.507
86.589
84.666
82.7477
119.147
119.045
118.808
118.45
117.987
117.427
116.772
116.024
115.187
114.262
113.252
112.16
110.989
109.741
108.419
107.027
105.569
104.048
102.469
100.838
99.1583
97.4359
95.6762
93.8848
92.0673
90.2294
88.3768
86.5148
84.6489
82.7874
118.711
118.606
118.362
117.995
117.526
116.959
116.299
115.546
114.705
113.778
112.767
111.677
110.509
109.268
107.956
106.576
105.134
103.632
102.077
100.471
98.8207
97.1306
95.406
93.6523
91.8748
90.0787
88.2694
86.4517
84.6307
82.8133
118.385
118.273
118.02
117.647
117.172
116.602
115.937
115.181
114.337
113.408
112.398
111.309
110.145
108.91
107.605
106.236
104.807
103.321
101.783
100.199
98.5714
96.9067
95.2096
93.4853
91.7389
89.9753
88.1995
86.4164
84.6307
82.8485
118.182
118.047
117.777
117.398
116.921
116.348
115.68
114.922
114.077
113.149
112.139
111.053
109.892
108.661
107.362
106.001
104.581
103.106
101.581
100.01
98.3987
96.7511
95.0725
93.3677
91.6417
89.8994
88.1455
86.3846
84.6212
82.8601
118.164
117.964
117.666
117.281
116.801
116.224
115.554
114.794
113.948
113.02
112.011
110.926
109.768
108.54
107.247
105.891
104.477
103.01
101.494
99.9324
98.3311
96.6946
95.0278
93.3354
91.6223
89.8932
88.1528
86.4055
84.6558
82.9078
-50.3366
-30.2339
-10.589
37.0307
29.9287
18.5794
52.7523
40.8719
29.9271
54.0516
43.7292
35.7986
58.3099
50.0998
43.4207
62.6399
55.7907
49.9529
65.8501
60.0103
54.9962
68.3852
63.3889
59.1027
70.5191
66.2061
62.5119
72.3176
68.5512
65.3329
73.8274
70.5043
67.6717
75.0974
72.1382
69.621
76.1677
73.5103
71.2531
77.0701
74.6652
72.6246
77.8308
75.639
73.7806
78.4713
76.4608
74.7566
79.0095
77.1541
75.5814
79.4604
77.7384
76.2781
79.8366
78.2296
76.8659
80.149
78.6413
77.3607
80.4069
78.985
77.7757
80.6188
79.2707
78.1227
80.7911
79.5065
78.4108
80.9319
79.7012
78.6497
81.0434
79.858
78.8438
81.1373
79.9894
79.0053
81.2049
80.0869
79.1277
81.2749
80.1797
79.2377
81.3069
80.2281
79.3002
81.3755
80.3108
79.3894
-0.981098
-0.765959
0.595857
1.49735
1.56935
1.52259
1.50959
1.43586
1.29725
1.17257
1.05863
0.925691
0.77052
0.614825
0.468667
0.32991
0.192925
0.0572416
-0.0709016
-0.183744
-0.276045
-0.345214
-0.389172
-0.404383
-0.387606
-0.343504
-0.290403
-0.250283
-0.204223
-0.078684
5.04246
1.78037
2.37627
2.11629
1.30283
1.13447
1.39706
1.44642
1.24995
1.12294
1.04144
0.924282
0.755134
0.589909
0.442419
0.303797
0.161095
0.0119769
-0.132862
-0.261361
-0.366875
-0.446869
-0.498947
-0.517582
-0.496526
-0.437772
-0.360473
-0.294118
-0.230287
-0.0881615
15.8203
7.33507
4.32703
2.44835
1.80661
1.88221
2.02737
1.58024
1.06653
0.972574
1.03055
0.968762
0.753985
0.568161
0.419998
0.285682
0.138303
-0.0284043
-0.194428
-0.340763
-0.460032
-0.551092
-0.612416
-0.636528
-0.612609
-0.538425
-0.432215
-0.329729
-0.243391
-0.0943948
25.1851
15.3989
9.61906
5.96423
3.92528
2.83816
2.15443
1.63261
1.37148
1.32708
1.35083
1.07401
0.694954
0.496613
0.382073
0.279082
0.134959
-0.0564851
-0.250611
-0.417315
-0.551023
-0.65449
-0.728543
-0.762475
-0.738026
-0.647644
-0.506811
-0.3536
-0.232737
-0.0924473
34.1772
24.4987
17.2247
11.9186
8.20174
5.65719
3.93703
2.81581
2.11427
1.67357
1.39731
1.11359
0.863342
0.673841
0.523235
0.364916
0.161363
-0.0879781
-0.319641
-0.501073
-0.641645
-0.752277
-0.837554
-0.881726
-0.857866
-0.754463
-0.584888
-0.374825
-0.200742
-0.0827277
42.0167
33.1429
25.2857
18.8637
13.9246
10.2322
7.51114
5.52082
4.06548
3.01259
2.26481
1.70431
1.26309
0.911193
0.641501
0.420771
0.202606
-0.0413325
-0.286008
-0.495239
-0.664341
-0.80496
-0.921565
-0.992303
-0.98104
-0.870061
-0.667286
-0.387575
-0.135261
-0.0513017
48.4009
40.6293
32.882
26.0072
20.3695
15.862
12.2831
9.45954
7.25267
5.55003
4.24517
3.22574
2.40867
1.75674
1.2467
0.838002
0.480729
0.1429
-0.170036
-0.436858
-0.653953
-0.830617
-0.968563
-1.04614
-1.02855
-0.898879
-0.673369
-0.387027
-0.112368
-0.0574397
53.6
46.8886
39.6494
32.8268
26.9306
21.9506
17.7659
14.2822
11.4188
9.09033
7.20553
5.67225
4.41713
3.39273
2.55965
1.87271
1.28584
0.768202
0.313976
-0.0703843
-0.385782
-0.63996
-0.833689
-0.950274
-0.963529
-0.85961
-0.649195
-0.369659
-0.105111
-0.16831
57.8413
52.0333
45.4565
38.9823
33.1501
28.0091
23.4971
19.5763
16.2134
13.3593
10.952
8.92554
7.2205
5.7882
4.58562
3.57002
2.7009
1.94808
1.29718
0.743741
0.282767
-0.0924988
-0.38286
-0.577223
-0.658601
-0.619878
-0.476788
-0.278515
-0.133002
-0.398663
61.3011
56.2345
50.3312
44.3394
38.7684
33.6941
29.0876
24.944
21.2641
18.0312
15.2123
12.7658
10.6491
8.82221
7.24765
5.88895
4.71161
3.68749
2.79828
2.03359
1.38561
0.84767
0.417665
0.10061
-0.0961171
-0.174563
-0.158877
-0.109376
-0.14654
-0.601902
64.141
59.6775
54.3909
48.9109
43.6945
38.8235
34.2846
30.089
26.2571
22.7949
19.6913
16.9256
14.4719
12.3028
10.3903
8.70611
7.22268
5.91602
4.76802
3.76619
2.90128
2.16606
1.55637
1.07164
0.710963
0.464182
0.300672
0.156153
-0.0820374
-0.685004
66.492
62.5209
57.7724
52.7782
47.9414
43.3393
38.9644
34.8334
30.9754
27.4091
24.1384
21.1575
18.4549
16.015
13.82
11.8504
10.0861
8.50859
7.10238
5.85544
4.75834
3.8034
2.98466
2.29736
1.73463
1.28079
0.902594
0.539696
0.0997145
-0.624666
68.452
64.887
60.5988
56.0423
51.5726
47.2593
43.0955
39.0978
35.2975
31.7191
28.3752
25.2698
22.4016
19.7647
17.3501
15.1462
13.1403
11.3194
9.67159
8.18694
6.85681
5.67366
4.6305
3.71998
2.93173
2.24753
1.63531
1.04358
0.403009
-0.437077
70.0952
66.8685
62.9722
58.8006
54.6689
50.6383
46.7006
42.8701
39.1768
35.6467
32.2967
29.1367
26.1718
23.4031
20.8284
18.4427
16.2392
14.2099
12.3471
10.6431
9.0908
7.68345
6.41381
5.27342
4.25052
3.32683
2.4739
1.65067
0.808064
-0.157259
71.4785
68.536
64.9737
61.1375
57.3092
53.5426
49.828
46.1763
42.6146
39.1684
35.8562
32.6907
29.6809
26.8324
24.1479
21.6273
19.2682
17.0672
15.0196
13.1205
11.3646
9.74609
8.25825
6.8926
5.63748
4.47611
3.38457
2.33143
1.28302
0.173838
72.6463
69.9442
66.6674
63.1224
59.5631
56.0372
52.5333
49.0589
45.638
42.2943
39.046
35.9072
32.8889
29.9994
27.2445
24.6274
22.1494
19.81
17.6075
15.5393
13.6018
11.7904
10.0992
8.52044
7.0434
5.65339
4.3309
3.05209
1.79367
0.518776
73.6336
71.1359
68.1039
64.8115
61.4892
58.1797
54.87
51.5648
48.2845
45.0507
41.8807
38.7885
35.786
32.8829
30.0869
27.4035
24.8364
22.3874
20.0571
17.8446
15.748
13.7639
11.8874
10.1118
8.42752
6.82207
5.27949
3.7813
2.31021
0.849473
74.4688
72.1452
69.3236
66.2505
63.1363
60.0196
56.8863
53.7385
50.5934
47.4702
44.3848
41.3507
38.3795
35.4818
32.6661
29.9394
27.3068
24.772
22.3372
20.0028
17.7684
15.6317
13.5889
11.6341
9.75924
7.95347
6.20345
4.49401
2.81058
1.14918
75.1748
72.9998
70.3593
67.4764
64.5445
61.5985
58.6239
55.6202
52.6019
49.5859
46.5864
43.6159
40.6856
37.8059
34.9858
32.233
29.5537
26.9524
24.4327
21.9962
19.6434
17.373
15.1822
13.066
11.0175
9.02718
7.08334
5.17254
3.28084
1.41123
75.7705
73.7225
71.2379
68.5199
65.7471
62.9515
60.1183
57.2451
54.3438
51.429
48.5134
45.6082
42.7238
39.8703
37.0566
34.2905
31.5788
28.9269
26.3387
23.8171
21.3631
18.9765
16.655
14.3945
12.189
10.0299
7.90649
5.80595
3.71384
1.63605
76.2718
74.3321
71.9816
69.4062
66.7718
64.1082
61.4001
58.6437
55.8486
53.0275
50.1916
47.3506
44.5142
41.6916
38.8915
36.1216
33.3887
30.6987
28.056
25.4639
22.9241
20.4369
18.0008
15.6123
13.2658
10.9535
8.66519
6.38808
4.1068
1.82763
76.6922
74.8448
72.6093
70.1568
67.6422
65.0935
62.4952
59.8423
57.1425
54.4068
51.6447
48.865
46.0762
43.2868
40.5048
37.7377
34.9923
32.2743
29.5885
26.9385
24.3265
21.753
19.2171
16.7157
14.2437
11.7937
9.35552
6.91632
4.45977
1.99113
77.0427
75.2735
73.136
70.7888
68.3774
65.9279
63.4251
60.8629
58.2475
55.5883
52.8935
50.1706
47.4274
44.6713
41.9098
39.1499
36.3982
33.6603
30.9409
28.2438
25.5713
22.9245
20.3024
17.7025
15.12
12.5474
9.97476
7.38897
4.77299
2.13033
77.334
75.6304
73.5761
71.3184
68.9948
66.6301
64.2094
61.7257
59.1839
56.592
53.9571
51.2859
48.5848
45.8607
43.1204
40.3705
37.6169
34.8651
32.1199
29.3849
26.6625
23.9539
21.2584
18.5736
15.8947
13.2146
10.5232
7.80706
5.04871
2.24934
77.572
75.9231
73.9382
71.7555
69.5057
67.2125
64.8612
62.4443
59.9655
57.4316
54.849
52.2232
49.5599
46.8654
44.1456
41.4066
38.654
35.8931
33.1282
30.363
27.5999
24.84
22.0828
19.3259
16.5647
13.7919
10.9974
8.16768
5.28495
2.34796
77.7686
76.164
74.2362
72.1152
69.9261
67.6919
65.3981
63.0368
60.6105
58.1255
55.5871
53.0001
50.3697
47.7013
45.0002
42.2722
39.5224
36.7556
33.9761
31.1873
28.3916
25.59
22.782
19.9652
17.1351
14.2843
11.4026
8.47634
5.4875
2.4316
77.9202
76.3508
74.468
72.3961
70.2552
68.068
65.8201
63.5032
61.1192
58.6736
56.1711
53.6159
51.0126
48.3659
45.6809
42.9627
40.2162
37.4458
34.6555
31.8487
29.0276
26.1931
23.3446
20.4799
17.5941
14.68
11.7272
8.72196
5.64625
2.49312
78.0494
76.5057
74.6573
72.6225
70.5182
68.3665
66.1534
63.8702
61.5186
59.1031
56.6281
54.0974
51.515
48.8854
46.2131
43.5029
40.7594
37.9868
35.1888
32.3687
29.5285
26.6692
23.79
20.8886
17.9601
14.9971
11.9892
8.92227
5.77812
2.54564
78.1286
76.6012
74.7753
72.7658
70.6861
68.5582
66.3683
64.1078
61.7777
59.3825
56.926
54.4118
51.8437
49.2256
46.5621
43.8575
41.1162
38.3423
35.5394
32.7105
29.8577
26.9817
24.0819
21.1557
18.1982
15.2019
12.1561
9.04634
5.85434
2.56711
78.2171
76.691
74.8774
72.8831
70.8172
68.7021
66.5246
64.276
61.9572
59.5723
57.1252
54.6192
52.0579
49.4451
46.7853
44.0827
41.3415
38.5658
35.7592
32.9245
30.0639
27.178
24.2662
21.3258
18.352
15.337
12.2699
9.1352
5.91214
2.57573
)
;

boundaryField
{
    inlet
    {
        type            zeroGradient;
    }
    outlet
    {
        type            fixedValue;
        value           uniform 0;
    }
    flap
    {
        type            zeroGradient;
    }
    upperWall
    {
        type            zeroGradient;
    }
    lowerWall
    {
        type            zeroGradient;
    }
    frontAndBack
    {
        type            empty;
    }
}


// ************************************************************************* //
