/*--------------------------------*- C++ -*----------------------------------*\
  =========                 |
  \\      /  F ield         | OpenFOAM: The Open Source CFD Toolbox
   \\    /   O peration     | Website:  https://openfoam.org
    \\  /    A nd           | Version:  7
     \\/     M anipulation  |
\*---------------------------------------------------------------------------*/
FoamFile
{
    version     2.0;
    format      ascii;
    class       surfaceScalarField;
    location    "2.1";
    object      phi;
}
// * * * * * * * * * * * * * * * * * * * * * * * * * * * * * * * * * * * * * //

dimensions      [0 3 -1 0 0 0 0];

internalField   nonuniform List<scalar> 
5457
(
0.198417
0.00158262
0.19648
0.0019378
0.194191
0.00228867
0.191507
0.00268429
0.188425
0.003082
0.184947
0.00347763
0.181068
0.00387947
0.176773
0.00429492
0.172043
0.00472911
0.166857
0.00518607
0.161188
0.00566929
0.155006
0.00618173
0.148281
0.00672557
0.140979
0.00730182
0.133069
0.00790985
0.124522
0.00854665
0.115317
0.00920594
0.105439
0.00987708
0.0948957
0.0105438
0.0837126
0.0111831
0.0719485
0.0117641
0.0597009
0.0122476
0.047113
0.0125879
0.0343738
0.0127392
0.02168
0.0126938
0.00903192
0.0126481
-0.00291655
0.0119485
-0.00846982
0.00555327
-0.00804
-0.00042982
-0.00804
0.199928
0.0016547
0.199175
0.00269068
0.197964
0.00350021
0.19633
0.0043182
0.194269
0.00514287
0.191778
0.00596858
0.18885
0.00680737
0.185472
0.00767271
0.181626
0.00857493
0.17729
0.00952235
0.172437
0.0105222
0.167038
0.0115808
0.161061
0.012703
0.154471
0.0138913
0.147236
0.0151453
0.139322
0.01646
0.130704
0.017824
0.121364
0.0192172
0.111299
0.0206085
0.10053
0.0219526
0.0891059
0.023188
0.0771189
0.0242346
0.0647137
0.024993
0.0521072
0.0253457
0.0396481
0.0251529
0.0280992
0.024197
0.018588
0.0214598
0.00879042
0.0153508
0.00118063
0.00717998
-0.00685938
0.19978
0.00187437
0.199086
0.00338495
0.197945
0.00464173
0.196407
0.00585553
0.19448
0.00706981
0.19216
0.0082885
0.189442
0.00952571
0.186316
0.0107991
0.182767
0.0121237
0.178777
0.0135121
0.174324
0.0149752
0.169382
0.0165226
0.163923
0.0181622
0.157915
0.019899
0.151327
0.021734
0.144125
0.023662
0.136279
0.0256696
0.127765
0.0277311
0.118569
0.0298052
0.108691
0.0318302
0.0981597
0.0337194
0.087038
0.0353563
0.075442
0.036589
0.0635657
0.037222
0.0517248
0.0369938
0.0403904
0.0355314
0.0297326
0.0321175
0.0191618
0.0259216
0.0095937
0.016748
0.00273432
0.199703
0.00217154
0.199007
0.0040807
0.197886
0.00576286
0.196374
0.00736717
0.194485
0.00895875
0.192219
0.0105554
0.18957
0.0121743
0.186533
0.013836
0.183098
0.0155591
0.17925
0.0173595
0.174974
0.019251
0.170251
0.021246
0.165059
0.0233545
0.159374
0.0255837
0.153172
0.0279361
0.146426
0.0304075
0.139112
0.032984
0.131205
0.0356383
0.122686
0.0383241
0.113545
0.0409707
0.103789
0.0434758
0.0934471
0.0456982
0.0825867
0.0474495
0.0713248
0.0484839
0.0598337
0.0484849
0.0483106
0.0470546
0.0368056
0.0436225
0.0251839
0.0375434
0.0133331
0.0285989
0.0160674
0.199667
0.00250437
0.198963
0.0047844
0.197862
0.00686478
0.196379
0.00884958
0.19453
0.0108084
0.192314
0.0127709
0.189729
0.0147591
0.18677
0.0167956
0.183427
0.0189017
0.17969
0.0210961
0.175547
0.0233948
0.170981
0.0258118
0.165976
0.028359
0.160515
0.0310445
0.15458
0.033872
0.148149
0.0368383
0.141203
0.0399299
0.133721
0.0431197
0.125685
0.0463607
0.117076
0.0495796
0.107883
0.0526686
0.098105
0.0554764
0.0877559
0.0577985
0.0768709
0.0593689
0.065502
0.0598538
0.0537023
0.0588542
0.0414493
0.0558755
0.0285843
0.0504084
0.0148505
0.0423327
0.0309179
0.199653
0.00285181
0.198948
0.00548891
0.197869
0.00794334
0.196425
0.0102945
0.194624
0.0126092
0.192469
0.0149253
0.189959
0.0172697
0.187087
0.0196674
0.183847
0.022142
0.180228
0.0247143
0.176221
0.0274022
0.171811
0.0302213
0.166986
0.0331845
0.161729
0.036301
0.156026
0.0395754
0.149859
0.0430052
0.143211
0.0465782
0.136061
0.050269
0.12839
0.0540326
0.12017
0.0577987
0.111377
0.0614622
0.101979
0.0648743
0.0919458
0.0678316
0.0812462
0.0700685
0.0698476
0.0712524
0.0577115
0.0709903
0.0447565
0.0688305
0.0308462
0.0643187
0.0158716
0.0573073
0.0467895
0.19965
0.00320201
0.198953
0.00618535
0.197903
0.00899359
0.196503
0.011695
0.19476
0.0143523
0.192677
0.0170083
0.190252
0.0196943
0.187481
0.022438
0.184358
0.0252651
0.180874
0.0281982
0.177019
0.0312571
0.172782
0.0344588
0.168149
0.0378174
0.163107
0.0413434
0.15764
0.0450422
0.151732
0.0489131
0.145364
0.052946
0.138515
0.0571184
0.131157
0.0613906
0.123256
0.0656989
0.114771
0.0699481
0.105644
0.074001
0.0958073
0.0776682
0.0851781
0.0806977
0.0736616
0.0827689
0.0611563
0.0834957
0.0475514
0.0824354
0.0327562
0.079114
0.0167816
0.0732818
0.0635711
0.199654
0.00354761
0.198974
0.00686593
0.197957
0.01001
0.196608
0.0130445
0.194931
0.0160292
0.192929
0.0190099
0.190602
0.0220214
0.187946
0.0250944
0.184955
0.0282562
0.181622
0.0315315
0.177937
0.0349416
0.173891
0.0385052
0.16947
0.0422379
0.164662
0.0461516
0.159451
0.0502538
0.153818
0.0545459
0.147742
0.0590215
0.141198
0.0636631
0.13415
0.0684386
0.126553
0.0732951
0.118349
0.0781524
0.109457
0.0828926
0.0997762
0.0873494
0.0891787
0.0912952
0.0775183
0.0944293
0.0646423
0.0963716
0.050414
0.0966637
0.0347661
0.0947619
0.0177889
0.090259
0.08136
0.199664
0.00388369
0.199006
0.00752421
0.198029
0.0109869
0.196737
0.0143367
0.195134
0.0176322
0.193223
0.0209207
0.191004
0.0242404
0.188474
0.0276241
0.185629
0.0311014
0.182462
0.0346983
0.178965
0.0384382
0.175129
0.0423413
0.170942
0.0464248
0.166391
0.050703
0.161459
0.0551856
0.156127
0.0598779
0.150371
0.0647782
0.144157
0.0698762
0.137446
0.0751499
0.13018
0.0805611
0.122283
0.0860492
0.113653
0.0915225
0.104157
0.0968462
0.0936244
0.101828
0.0818574
0.106196
0.0686443
0.109585
0.0537989
0.111509
0.037235
0.111326
0.0190829
0.108411
0.100443
0.199677
0.00420672
0.199046
0.00815493
0.198114
0.0119189
0.196885
0.0155658
0.195363
0.0191541
0.193552
0.0227324
0.191451
0.0263413
0.189059
0.0300161
0.186372
0.0337878
0.183386
0.0376844
0.180094
0.0417307
0.176486
0.0459487
0.172553
0.0503577
0.168282
0.0549742
0.163656
0.0598115
0.158655
0.064879
0.153252
0.0701814
0.147411
0.0757174
0.141083
0.0814776
0.134203
0.0874414
0.12668
0.0935726
0.11839
0.099812
0.10917
0.106066
0.0988086
0.112189
0.0870445
0.11796
0.0735847
0.123044
0.058146
0.126948
0.0405513
0.12892
0.0209015
0.128061
0.121344
0.199693
0.00451406
0.199094
0.0087538
0.198212
0.0128011
0.197051
0.0167263
0.195617
0.0205884
0.193912
0.0244373
0.191938
0.0283155
0.189693
0.0322602
0.187177
0.0363042
0.184385
0.0404767
0.181311
0.0448043
0.177949
0.0493106
0.17429
0.054017
0.170321
0.0589428
0.166028
0.0641047
0.16139
0.0695174
0.156379
0.0751926
0.150957
0.081139
0.145073
0.0873617
0.138654
0.0938603
0.1316
0.100627
0.123772
0.10764
0.11498
0.114857
0.10497
0.1222
0.09341
0.129521
0.0798929
0.136562
0.0639664
0.142874
0.0452358
0.147651
0.0236132
0.149684
0.144958
0.19971
0.00480363
0.199147
0.0093173
0.198319
0.0136294
0.197232
0.0178135
0.19589
0.0219296
0.194299
0.0260288
0.192459
0.0301553
0.190372
0.0343477
0.188035
0.0386403
0.185448
0.0430637
0.182607
0.0476458
0.179506
0.0524118
0.176137
0.0573852
0.172492
0.0625878
0.168557
0.0680402
0.164312
0.0737619
0.159733
0.0797722
0.154781
0.0860903
0.149407
0.092736
0.143537
0.0997302
0.137069
0.107095
0.129858
0.114851
0.121697
0.123018
0.1123
0.131597
0.101263
0.140558
0.0880402
0.149784
0.0719232
0.158991
0.0520903
0.167484
0.02789
0.173884
0.172848
0.19973
0.00507383
0.199205
0.00984258
0.198434
0.0144001
0.197424
0.018823
0.196181
0.0231726
0.194709
0.0275011
0.19301
0.031854
0.191087
0.036271
0.18894
0.0407877
0.186568
0.0454357
0.183969
0.050244
0.181142
0.0552394
0.17808
0.0604469
0.174777
0.0658908
0.171222
0.0715949
0.167401
0.0775837
0.16329
0.083883
0.158858
0.0905217
0.154061
0.0975337
0.148831
0.10496
0.143075
0.112851
0.136655
0.121271
0.12937
0.130303
0.120924
0.140044
0.11087
0.150611
0.0985379
0.162117
0.0829041
0.174625
0.0624454
0.187943
0.0351354
0.201194
0.207983
0.19975
0.0053234
0.199266
0.0103273
0.198556
0.0151103
0.197627
0.0197514
0.196486
0.0243135
0.195138
0.0288496
0.193586
0.0334062
0.191833
0.0380239
0.189881
0.0427393
0.187732
0.0475846
0.185386
0.0525899
0.182843
0.0577826
0.1801
0.0631894
0.177155
0.0688363
0.174
0.0747497
0.170626
0.0809578
0.167017
0.087492
0.16315
0.0943891
0.15899
0.101694
0.154486
0.109463
0.149564
0.117773
0.144113
0.126722
0.137965
0.13645
0.130862
0.147147
0.12239
0.159083
0.111854
0.172653
0.0980242
0.188455
0.0785575
0.207409
0.0486898
0.231061
0.256673
0.199772
0.00555137
0.19933
0.0107697
0.198682
0.0157575
0.197838
0.0205959
0.196802
0.025349
0.195582
0.0300706
0.19418
0.0348076
0.192602
0.0396018
0.190852
0.0444897
0.188932
0.0495045
0.186846
0.0546763
0.184595
0.0600335
0.182181
0.0656032
0.179605
0.0714126
0.176865
0.0774898
0.173957
0.0838653
0.170875
0.090574
0.167607
0.0976574
0.164133
0.105168
0.160425
0.113171
0.156439
0.121759
0.15211
0.131052
0.147338
0.141222
0.141965
0.15252
0.135729
0.165319
0.128161
0.180221
0.118322
0.198294
0.103962
0.221769
0.0777576
0.257266
0.33443
0.00610144
-0.00610144
0.0116642
-0.00556272
0.0164477
-0.00478355
0.0205671
-0.0041194
0.0241499
-0.00358275
0.0272919
-0.00314199
0.0300675
-0.00277564
0.0325351
-0.00246765
0.0347347
-0.00219951
0.0366834
-0.00194871
0.0383769
-0.00169352
0.0398027
-0.00142579
0.0409635
-0.00116078
0.0418829
-0.000919483
0.042571
-0.000688071
0.0429997
-0.000428701
0.0431653
-0.000165616
0.0431575
7.84507e-06
0.0429965
0.000160933
0.0427464
0.000250147
0.0424835
0.000262946
0.0423173
0.00016619
0.042337
-1.97573e-05
0.0425873
-0.000250301
0.0430653
-0.000478007
0.0437513
-0.000685961
0.0446342
-0.000882917
0.0457332
-0.00109903
0.0470888
-0.00135555
-0.00152819
0.00492566
-0.0110271
0.00973611
-0.0103732
0.0139765
-0.00902397
0.0176717
-0.00781456
0.0209222
-0.00683328
0.0238087
-0.00602843
0.026391
-0.00535798
0.0287161
-0.00479275
0.0308188
-0.00430218
0.0327174
-0.0038473
0.034408
-0.00338419
0.0358703
-0.00288802
0.0370959
-0.00238646
0.0381176
-0.00194109
0.0389731
-0.00154363
0.0396353
-0.00109084
0.0401002
-0.000630577
0.0403597
-0.00025168
0.0403376
0.000183028
0.0399404
0.000647423
0.0391148
0.00108853
0.0379167
0.00136424
0.0364613
0.00143569
0.0349127
0.00129831
0.033473
0.000961645
0.0323428
0.000444281
0.0315767
-0.000116825
0.0312761
-0.000798448
0.0316711
-0.00175058
-0.00293437
0.00369129
-0.0147184
0.00725231
-0.0139342
0.0103783
-0.01215
0.0130964
-0.0105327
0.0154679
-0.00920477
0.0175431
-0.0081036
0.0193618
-0.00717668
0.0209555
-0.00638646
0.0223506
-0.00569726
0.0235674
-0.00506411
0.0246069
-0.00442369
0.0254327
-0.00371388
0.0259986
-0.00295232
0.0263629
-0.0023054
0.0266275
-0.00180819
0.0264802
-0.000943615
0.0254872
0.000362455
0.0236417
0.00159382
0.0214096
0.00241511
0.019088
0.00296901
0.0167845
0.00339212
0.0145621
0.00358661
0.012521
0.00347677
0.0107927
0.00302667
0.00952659
0.00222771
0.00887833
0.00109255
0.008983
-0.000221497
0.00987754
-0.00169299
0.0116145
-0.00348751
-0.00517032
0.00242834
-0.0171467
0.00457965
-0.0160855
0.00638335
-0.0139537
0.00790651
-0.0120559
0.00917306
-0.0104713
0.0102018
-0.00913236
0.0110085
-0.00798337
0.0116027
-0.0069807
0.0119923
-0.00608684
0.0121989
-0.00527072
0.0122565
-0.0044813
0.0121436
-0.00360096
0.0117109
-0.00251965
0.0104956
-0.00109003
0.00830257
0.000384809
0.00579951
0.00155944
0.00375907
0.0024029
0.00203027
0.00332262
0.000324967
0.00412041
-0.00135236
0.00464633
-0.00285412
0.00489389
-0.00410675
0.00483924
-0.00504054
0.00441056
-0.00560225
0.00358838
-0.00578375
0.0024092
-0.00561951
0.000928305
-0.00501256
-0.000828445
-0.00391573
-0.00278982
-0.00261915
-0.00478408
-0.00629583
0.00102954
-0.0181763
0.00166301
-0.016719
0.0020237
-0.0143143
0.0022062
-0.0122384
0.0021891
-0.0104542
0.00198035
-0.0089236
0.00157666
-0.00757967
0.000951978
-0.00635602
6.29878e-05
-0.00519785
-0.00112967
-0.00407806
-0.00265408
-0.0029569
-0.0045044
-0.00175064
-0.00662657
-0.000397478
-0.00855453
0.000837935
-0.0100438
0.00187405
-0.011354
0.00286965
-0.0127302
0.00377917
-0.0140114
0.00460373
-0.0151427
0.00525177
-0.0161139
0.00561756
-0.0168786
0.00565852
-0.0173845
0.00534516
-0.017618
0.004644
-0.0175928
0.00356321
-0.0173499
0.00216628
-0.0169159
0.000494355
-0.0163477
-0.00139663
-0.0156832
-0.00345438
-0.0150486
-0.00541863
-0.00696719
-0.000509338
-0.0176669
-0.00143386
-0.0157945
-0.00255707
-0.0131911
-0.00382281
-0.0109726
-0.00523459
-0.00904242
-0.00679007
-0.00736813
-0.00848254
-0.0058872
-0.010297
-0.00454152
-0.0122045
-0.00329043
-0.0141888
-0.00209368
-0.016232
-0.00091377
-0.0181991
0.0002165
-0.019843
0.00124637
-0.0212158
0.00221079
-0.022507
0.00316528
-0.0236983
0.00406093
-0.02478
0.00486087
-0.0257046
0.00552835
-0.0264395
0.00598658
-0.0269784
0.0061565
-0.0273124
0.00599249
-0.0274363
0.00546907
-0.0273687
0.0045764
-0.0271436
0.00333816
-0.0267841
0.00180677
-0.0263201
3.03584e-05
-0.0258308
-0.00188597
-0.0254117
-0.00387348
-0.02506
-0.00577032
-0.0072983
-0.00208128
-0.0155857
-0.00457854
-0.0132972
-0.00713906
-0.0106306
-0.0097295
-0.00838219
-0.0123093
-0.00646268
-0.0148461
-0.00483131
-0.0173143
-0.00341893
-0.0197047
-0.00215113
-0.0220014
-0.000993724
-0.0241562
6.11366e-05
-0.0260653
0.00099527
-0.027699
0.00185017
-0.0291504
0.00269778
-0.0304842
0.00354457
-0.0316797
0.00436084
-0.0327257
0.00510691
-0.0336069
0.00574211
-0.0342995
0.00622088
-0.0347915
0.00647861
-0.0350869
0.00645191
-0.0351936
0.00609921
-0.0351255
0.00540099
-0.0349105
0.00436139
-0.0345866
0.00301423
-0.0341904
0.00141053
-0.0337762
-0.000383813
-0.0334075
-0.00225464
-0.033152
-0.00412895
-0.0329943
-0.00592809
-0.0073714
-0.00362938
-0.0119563
-0.00756098
-0.00936559
-0.0113687
-0.0068229
-0.0149809
-0.00476993
-0.0183717
-0.00307194
-0.0215152
-0.00168777
-0.0244031
-0.000531042
-0.0269921
0.000437872
-0.0292492
0.00126336
-0.0311965
0.00200839
-0.0329252
0.00272402
-0.0345102
0.00343521
-0.0359491
0.0041366
-0.0372272
0.00482274
-0.0383343
0.00546794
-0.0392635
0.00603607
-0.0400072
0.00648578
-0.0405557
0.00676938
-0.0409075
0.00683045
-0.0410717
0.00661616
-0.0410637
0.00609115
-0.0409058
0.00524313
-0.0406312
0.00408679
-0.0402816
0.00266465
-0.0399037
0.00103255
-0.0395627
-0.000724727
-0.0393117
-0.00250566
-0.039189
-0.00425168
-0.039191
-0.00592606
-0.00724419
-0.00510645
-0.00684982
-0.0103508
-0.00412125
-0.0152071
-0.00196657
-0.0195893
-0.00038781
-0.0234121
0.000750957
-0.0266992
0.00159929
-0.0295101
0.0022799
-0.0319414
0.00286912
-0.0340988
0.00342081
-0.0360431
0.00395268
-0.0377965
0.00447741
-0.0393663
0.00500498
-0.0407585
0.00552885
-0.0419699
0.00603411
-0.0429965
0.00649454
-0.043836
0.00687553
-0.0444865
0.00713631
-0.044947
0.00722992
-0.0452221
0.00710546
-0.0453236
0.00671765
-0.0452703
0.00603793
-0.0450888
0.00506163
-0.0448139
0.00381185
-0.0444877
0.00233848
-0.0441617
0.000706569
-0.0439025
-0.00098398
-0.0437578
-0.00265033
-0.0437543
-0.00425522
-0.0438937
-0.00578668
-0.00697663
-0.0068788
2.89792e-05
-0.013068
0.0020679
-0.0183676
0.00333309
-0.0228388
0.00408333
-0.0266193
0.00453154
-0.0298785
0.00485844
-0.0327204
0.00512175
-0.0352171
0.00536592
-0.037417
0.00562063
-0.0393614
0.00589707
-0.0410828
0.00619881
-0.0426006
0.00652282
-0.0439267
0.006855
-0.0450655
0.00717286
-0.0460182
0.00744728
-0.0467866
0.00764394
-0.0473734
0.00772306
-0.0477827
0.00763922
-0.0480225
0.00734527
-0.0481062
0.00680136
-0.0480535
0.00598528
-0.0478916
0.0048997
-0.047655
0.00357526
-0.047385
0.00206846
-0.0471344
0.000456007
-0.0469633
-0.00115514
-0.0469198
-0.00269381
-0.0470279
-0.00414711
-0.0472894
-0.00552521
-0.0065963
-0.00762934
0.00765832
-0.0143338
0.00877233
-0.0199556
0.00895496
-0.0246787
0.00880641
-0.0286617
0.00851451
-0.0320231
0.00821985
-0.0348872
0.00798592
-0.037358
0.00783664
-0.0395063
0.00776898
-0.0413817
0.0077725
-0.0430221
0.00783915
-0.0444551
0.00795582
-0.045698
0.00809792
-0.0467589
0.00823379
-0.047642
0.00833036
-0.0483519
0.0083538
-0.0488949
0.00826606
-0.0492789
0.00802325
-0.0495138
0.00758019
-0.049613
0.00690054
-0.049595
0.00596726
-0.049485
0.00478971
-0.0493154
0.00340567
-0.0491262
0.00187926
-0.0489683
0.000298081
-0.0488934
-0.00123
-0.0489488
-0.00263844
-0.0491634
-0.00393253
-0.0495389
-0.00514966
-0.00610713
-0.00814745
0.0158058
-0.0154739
0.0160988
-0.0214585
0.0149396
-0.0262882
0.0136361
-0.0302291
0.0124554
-0.0334803
0.011471
-0.0362023
0.010708
-0.0385246
0.0101589
-0.0405309
0.00977526
-0.0422711
0.0095127
-0.0437841
0.00935217
-0.0451029
0.00927458
-0.0462479
0.00924293
-0.0472271
0.00921298
-0.0480441
0.00914738
-0.0487052
0.00901489
-0.0492203
0.00878113
-0.0496004
0.00840341
-0.0498566
0.00783638
-0.0500009
0.00704479
-0.0500489
0.00601526
-0.0500218
0.00476263
-0.0499471
0.00333101
-0.0498603
0.00179246
-0.0498063
0.000244093
-0.0498316
-0.00120473
-0.0499834
-0.00248668
-0.0503001
-0.00361578
-0.0507876
-0.00466222
-0.00550422
-0.00926527
0.025071
-0.0172642
0.0240977
-0.0233133
0.0209887
-0.0278772
0.0182001
-0.0314731
0.0160513
-0.0343761
0.014374
-0.0367702
0.0131021
-0.0388143
0.012203
-0.0405944
0.0115553
-0.0421409
0.0110592
-0.0434846
0.0106959
-0.0446639
0.0104539
-0.0457014
0.0102804
-0.0465994
0.010111
-0.0473563
0.00990429
-0.0479786
0.00963716
-0.0484804
0.009283
-0.0488769
0.0087999
-0.0491794
0.00813888
-0.0493973
0.00726271
-0.0495419
0.00615984
-0.0496286
0.00484928
-0.0496775
0.00337999
-0.0497155
0.00183045
-0.0497781
0.000306659
-0.0499067
-0.00107619
-0.0501516
-0.00224174
-0.0505656
-0.00320173
-0.0511668
-0.00406108
-0.00477911
-0.0113049
0.0363759
-0.0202714
0.0330642
-0.025902
0.0266192
-0.0295861
0.0218842
-0.0324527
0.0189179
-0.0347574
0.0166786
-0.0366228
0.0149676
-0.0382568
0.013837
-0.0397439
0.0130424
-0.0410518
0.012367
-0.0421884
0.0118325
-0.0432074
0.0114729
-0.0441369
0.0112099
-0.0449633
0.0109374
-0.0456717
0.0106127
-0.0462675
0.0102329
-0.0467718
0.00978738
-0.0472056
0.0092337
-0.0475801
0.00851331
-0.0479004
0.00758301
-0.0481725
0.00643196
-0.0484055
0.0050823
-0.0486107
0.00358516
-0.0488015
0.00202132
-0.0489984
0.000503515
-0.0492363
-0.000838285
-0.0495705
-0.00190754
-0.0500743
-0.00269798
-0.0507918
-0.00334355
-0.00392085
-0.0150841
0.0514601
-0.0254194
0.0433995
-0.0297754
0.0309752
-0.0314029
0.0235117
-0.0330889
0.0206039
-0.0345939
0.0181836
-0.0357106
0.0160843
-0.0367935
0.0149199
-0.037964
0.014213
-0.0390116
0.0134146
-0.0399003
0.0127212
-0.0407375
0.0123101
-0.0415724
0.0120448
-0.042352
0.0117171
-0.043033
0.0112937
-0.0436198
0.0108197
-0.044147
0.0103145
-0.0446449
0.00973161
-0.0451224
0.00899086
-0.0455777
0.00803834
-0.0460111
0.00686534
-0.0464266
0.0054978
-0.0468265
0.00398507
-0.0472071
0.0024019
-0.047566
0.000862403
-0.0479261
-0.000478219
-0.0483462
-0.00148745
-0.0489269
-0.00211725
-0.0497591
-0.00251131
-0.00290644
0.207447
0.00576441
0.207033
0.0111829
0.20643
0.0163608
0.205645
0.0213813
0.204684
0.0263094
0.203556
0.0311993
0.202265
0.0360986
0.200817
0.0410491
0.199219
0.0460878
0.197476
0.0512478
0.195593
0.0565593
0.193575
0.0620507
0.191429
0.0677493
0.18916
0.0736823
0.186771
0.0798783
0.184268
0.0863685
0.181653
0.0931887
0.178929
0.100382
0.176095
0.108001
0.173151
0.116116
0.170091
0.124818
0.166912
0.13423
0.16361
0.144524
0.160187
0.155943
0.156668
0.168838
0.15315
0.183739
0.150004
0.201439
0.148925
0.222848
0.160761
0.24543
0.25841
0.236782
0.21249
0.00595713
0.212117
0.0115563
0.211572
0.0169051
0.210865
0.0220882
0.210004
0.0271711
0.208995
0.0322082
0.207846
0.0372473
0.206565
0.0423301
0.20516
0.0474934
0.203637
0.0527701
0.202007
0.0581898
0.200278
0.0637803
0.198459
0.0695682
0.196561
0.0755801
0.194596
0.0818433
0.192576
0.088388
0.190517
0.0952479
0.188435
0.102463
0.186353
0.110084
0.184298
0.118171
0.182312
0.126805
0.180454
0.136088
0.178826
0.146153
0.1776
0.157169
0.177098
0.16934
0.177979
0.182858
0.181665
0.197753
0.19077
0.213743
0.206309
0.229891
0.245251
0.219468
0.217657
0.00612736
0.217328
0.0118858
0.216848
0.0173846
0.216228
0.0227089
0.215474
0.0279247
0.214596
0.0330863
0.213602
0.0382411
0.212502
0.0434306
0.211304
0.0486909
0.21002
0.054054
0.208661
0.0595486
0.20724
0.0652013
0.205771
0.0710371
0.204271
0.0770807
0.202757
0.0833571
0.201252
0.0898931
0.199782
0.0967181
0.198379
0.103866
0.197086
0.111377
0.195958
0.119299
0.195073
0.127689
0.194546
0.136615
0.194546
0.146153
0.195337
0.156378
0.197329
0.167347
0.201135
0.179053
0.207521
0.191367
0.217142
0.204122
0.229699
0.217334
0.228423
0.246527
0.222951
0.00627311
0.222669
0.0121677
0.22226
0.0177936
0.221733
0.0232363
0.221096
0.0285615
0.220359
0.0338233
0.219532
0.0390685
0.218625
0.0443376
0.21765
0.0496658
0.21662
0.0550838
0.21555
0.0606189
0.214455
0.0662956
0.213356
0.0721367
0.212272
0.0781641
0.21123
0.0843989
0.21026
0.0908632
0.209399
0.0975798
0.208691
0.104574
0.208196
0.111872
0.20799
0.119505
0.208175
0.127504
0.208892
0.135898
0.210333
0.144711
0.212762
0.15395
0.216524
0.163585
0.222036
0.173541
0.229744
0.18366
0.24021
0.193655
0.254346
0.203198
0.210032
0.272737
0.228374
0.00639253
0.228143
0.0123983
0.22781
0.0181269
0.227383
0.0236636
0.226871
0.0290735
0.226284
0.03441
0.225634
0.0397188
0.224932
0.0450394
0.224192
0.0504055
0.22343
0.0558461
0.222662
0.0613864
0.221909
0.0670487
0.221193
0.0728526
0.220541
0.0788162
0.219984
0.0849563
0.219558
0.0912886
0.21931
0.0978283
0.219294
0.10459
0.219579
0.111587
0.220254
0.11883
0.221431
0.126327
0.223255
0.134074
0.22591
0.142057
0.229625
0.150234
0.234679
0.158531
0.241399
0.166821
0.25016
0.174899
0.261403
0.182411
0.275597
0.189004
0.193592
0.292037
0.233929
0.00648393
0.233753
0.0125743
0.2335
0.01838
0.233179
0.023985
0.232799
0.0294536
0.23237
0.0348381
0.231906
0.040183
0.23142
0.0455261
0.230926
0.0508994
0.230442
0.0563299
0.229988
0.0618405
0.229586
0.0674502
0.229263
0.0731755
0.229049
0.0790301
0.22898
0.0850254
0.229098
0.0911707
0.229454
0.0974729
0.230107
0.103936
0.231134
0.11056
0.232625
0.11734
0.234691
0.124261
0.237467
0.131298
0.241117
0.138407
0.245832
0.145519
0.251831
0.152532
0.259355
0.159298
0.268641
0.165612
0.279867
0.171186
0.293123
0.175748
0.178789
0.307926
0.239619
0.00654581
0.239501
0.012693
0.239332
0.0185485
0.239122
0.0241952
0.23888
0.0296956
0.238617
0.0351008
0.238347
0.0404534
0.238083
0.0457897
0.237843
0.0511396
0.237645
0.0565277
0.237512
0.0619739
0.237468
0.0674945
0.237541
0.0731019
0.237766
0.0788054
0.23818
0.084611
0.23883
0.0905214
0.239767
0.0965355
0.241055
0.102648
0.242768
0.108847
0.244993
0.115115
0.247833
0.121421
0.251407
0.127724
0.255849
0.133965
0.261308
0.14006
0.267939
0.145901
0.275891
0.151346
0.285281
0.156222
0.296152
0.160314
0.308492
0.163409
0.165241
0.322041
0.245448
0.0065769
0.245389
0.0127518
0.245308
0.0186292
0.245214
0.0242898
0.245115
0.0297945
0.245023
0.0351924
0.244952
0.0405245
0.244917
0.0458247
0.244936
0.0511208
0.245029
0.0564348
0.245219
0.0617838
0.245533
0.0671807
0.246001
0.072634
0.246657
0.0781488
0.247543
0.0837257
0.248703
0.0893615
0.25019
0.0950482
0.252065
0.100772
0.254399
0.106514
0.25727
0.112244
0.260767
0.117924
0.264988
0.123503
0.270038
0.128915
0.276021
0.134077
0.283036
0.138885
0.291164
0.143218
0.300451
0.146935
0.310883
0.149881
0.322395
0.151897
0.152854
0.334781
0.251418
0.00657618
0.251421
0.0127488
0.251431
0.0186193
0.251455
0.0242656
0.251503
0.0297465
0.251586
0.0351091
0.251719
0.0403923
0.251916
0.0456276
0.252196
0.0508405
0.252581
0.0560502
0.253093
0.061271
0.253761
0.0665125
0.254616
0.0717797
0.255691
0.0770732
0.257028
0.0823894
0.258669
0.0877198
0.260667
0.0930508
0.263076
0.0983629
0.26596
0.10363
0.269386
0.108818
0.273427
0.113882
0.27816
0.118771
0.283657
0.123417
0.28999
0.127744
0.297213
0.131662
0.305359
0.135071
0.314431
0.137864
0.324382
0.13993
0.335113
0.141166
0.141514
0.346453
0.257532
0.0065429
0.257598
0.0126827
0.257701
0.0185168
0.257846
0.0241201
0.258044
0.0295492
0.258304
0.0348487
0.258641
0.040055
0.259071
0.0451975
0.259613
0.050299
0.260287
0.0553762
0.261117
0.0604405
0.262131
0.0654983
0.26336
0.0705515
0.264836
0.075597
0.266598
0.0806275
0.268687
0.0856304
0.27115
0.0905882
0.274035
0.0954773
0.277397
0.100268
0.28129
0.104924
0.285772
0.109401
0.290895
0.113647
0.296712
0.117601
0.303259
0.121197
0.310563
0.124359
0.318623
0.12701
0.327414
0.129073
0.336871
0.130473
0.34689
0.131147
0.131074
0.35733
0.263794
0.00647659
0.263924
0.0125524
0.26412
0.0183205
0.264388
0.0238523
0.264736
0.0292016
0.265174
0.0344104
0.265716
0.0395129
0.266378
0.0445359
0.267177
0.0494996
0.268135
0.0544183
0.269275
0.0593006
0.270623
0.0641504
0.272208
0.0689665
0.274062
0.0737432
0.276219
0.07847
0.278718
0.0831318
0.281598
0.0877083
0.284901
0.0921743
0.28867
0.0964989
0.292948
0.100646
0.297777
0.104573
0.303191
0.108232
0.309221
0.111572
0.315882
0.114536
0.323175
0.117065
0.331084
0.119102
0.339563
0.120593
0.348545
0.121492
0.35793
0.121762
0.121403
0.367601
0.270207
0.00637706
0.270401
0.0123578
0.270692
0.0180302
0.271082
0.023462
0.271579
0.028704
0.272194
0.0337956
0.272939
0.0387683
0.273828
0.0436466
0.27488
0.0484481
0.276113
0.0531849
0.277551
0.0578632
0.279216
0.0624845
0.281138
0.0670454
0.283343
0.071538
0.285863
0.0759499
0.28873
0.0802644
0.291979
0.08446
0.295642
0.0885114
0.299752
0.0923882
0.304342
0.0960564
0.309436
0.0994779
0.315057
0.102611
0.321217
0.105413
0.327915
0.107838
0.335138
0.109842
0.342855
0.111385
0.351017
0.112432
0.359554
0.112955
0.368379
0.112937
0.11239
0.377392
0.276773
0.0062444
0.277032
0.0120989
0.277416
0.0176463
0.277928
0.0229502
0.278574
0.0280581
0.279363
0.0330068
0.280306
0.0378253
0.281417
0.0425354
0.282712
0.0471528
0.28421
0.0516871
0.285931
0.0561427
0.287896
0.0605191
0.29013
0.0648113
0.292658
0.06901
0.295506
0.0731018
0.298701
0.0770692
0.30227
0.0808913
0.306238
0.0845432
0.310629
0.0879971
0.315464
0.0912222
0.320756
0.0941853
0.326515
0.0968521
0.332741
0.0991875
0.339421
0.101157
0.346533
0.10273
0.35404
0.103879
0.36189
0.104581
0.370019
0.104825
0.37835
0.104606
0.103941
0.386799
0.283498
0.006079
0.28382
0.0117767
0.284296
0.0171702
0.284928
0.0223189
0.285719
0.027267
0.286677
0.0320484
0.287813
0.0366896
0.289138
0.0412103
0.290667
0.0456238
0.292416
0.049938
0.294403
0.0541556
0.296648
0.0582747
0.29917
0.0622892
0.301991
0.0661891
0.305132
0.0699607
0.308614
0.0735869
0.312457
0.0770478
0.31668
0.0803204
0.321297
0.08338
0.32632
0.0861999
0.331753
0.0887523
0.337595
0.0910097
0.343837
0.0929451
0.350461
0.0945337
0.357437
0.095754
0.364727
0.0965892
0.37228
0.0970283
0.380037
0.0970677
0.387933
0.0967106
0.0959773
0.395896
0.290384
0.00588148
0.290768
0.0113924
0.291335
0.0166039
0.292082
0.021571
0.293015
0.0263346
0.294137
0.0309259
0.295458
0.0353688
0.296988
0.0396807
0.298738
0.0438732
0.300724
0.0479525
0.302959
0.0519201
0.305461
0.0557732
0.308245
0.059505
0.311329
0.0631054
0.314728
0.0665611
0.318459
0.0698561
0.322535
0.0729721
0.326966
0.0758889
0.331761
0.0785849
0.336923
0.081038
0.34245
0.0832258
0.348333
0.085127
0.354556
0.0867218
0.361097
0.0879931
0.367923
0.0889274
0.374997
0.0895158
0.38227
0.0897547
0.389692
0.0896464
0.397203
0.0891991
0.0884339
0.404746
0.297435
0.0056527
0.297879
0.0109476
0.298533
0.01595
0.299394
0.0207104
0.300462
0.0252663
0.301742
0.029646
0.30324
0.0338712
0.304963
0.0379573
0.306922
0.0419141
0.309128
0.0457466
0.311593
0.0494553
0.314329
0.0530369
0.31735
0.0564845
0.320667
0.0597883
0.324292
0.062936
0.328235
0.065913
0.332504
0.0687031
0.337104
0.0712891
0.342036
0.0736529
0.347297
0.0757767
0.35288
0.0776433
0.35877
0.0792368
0.364948
0.0805434
0.371389
0.0815523
0.37806
0.0822562
0.384924
0.0826519
0.391938
0.0827406
0.399056
0.0825288
0.406228
0.0820271
0.0812561
0.413405
0.304654
0.00539372
0.305157
0.0104445
0.305895
0.0152118
0.306864
0.0197415
0.308063
0.0240677
0.309492
0.0282163
0.311157
0.0322065
0.313063
0.0360517
0.315216
0.0397606
0.317626
0.0433369
0.320301
0.0467807
0.323249
0.0500882
0.326481
0.053253
0.330003
0.056266
0.333823
0.059116
0.337946
0.0617903
0.342374
0.0642751
0.347107
0.066556
0.352141
0.0686186
0.357469
0.0704489
0.363078
0.0720342
0.368951
0.0733635
0.375067
0.0744277
0.381398
0.0752211
0.387914
0.0757407
0.394578
0.0759874
0.401353
0.0759658
0.408197
0.0756845
0.415069
0.0751554
0.0743979
0.421927
0.312046
0.00510575
0.312605
0.00988553
0.313424
0.0143928
0.314496
0.0186692
0.315819
0.0227456
0.31739
0.0266451
0.319212
0.0303846
0.321287
0.0339762
0.323621
0.0374271
0.326217
0.0407403
0.329083
0.0439153
0.332222
0.0469488
0.335641
0.0498345
0.339342
0.0525645
0.343329
0.0551291
0.347602
0.0575174
0.352159
0.059718
0.356996
0.0617193
0.362104
0.0635102
0.367473
0.0650804
0.373086
0.0664208
0.378925
0.0675243
0.384967
0.0683858
0.391185
0.0690031
0.397549
0.0693767
0.404027
0.06951
0.410583
0.0694098
0.417182
0.0690855
0.423787
0.0685496
0.0678199
0.430365
0.319615
0.0047901
0.320228
0.00927319
0.321123
0.0134971
0.322293
0.0174991
0.323732
0.0213068
0.325437
0.0249408
0.327405
0.0284161
0.329638
0.031743
0.332138
0.0349278
0.334905
0.0379729
0.337943
0.0408777
0.341253
0.0436389
0.344836
0.0462512
0.348693
0.0487076
0.352822
0.051
0.35722
0.0531195
0.361881
0.0550569
0.366797
0.0568033
0.371957
0.0583503
0.377346
0.0596908
0.382948
0.0608188
0.388742
0.0617302
0.394705
0.0624231
0.40081
0.0628978
0.40703
0.0631569
0.413334
0.0632058
0.419692
0.0630521
0.426072
0.0627058
0.432443
0.0621788
0.0614875
0.438775
0.327365
0.00444814
0.328028
0.0086102
0.328997
0.0125286
0.330259
0.0162365
0.331808
0.0197583
0.333636
0.0231122
0.335741
0.0263111
0.33812
0.0293642
0.340771
0.0322766
0.343694
0.0350504
0.346887
0.0376849
0.350348
0.0401772
0.354077
0.0425229
0.358068
0.0447161
0.362318
0.0467501
0.36682
0.0486178
0.371564
0.0503123
0.37654
0.0518269
0.381735
0.0531558
0.387132
0.0542941
0.392712
0.0552384
0.398455
0.0559872
0.404338
0.0565405
0.410335
0.0569006
0.41642
0.0570715
0.422567
0.0570594
0.428747
0.0568724
0.434932
0.0565204
0.441096
0.0560146
0.0553695
0.447214
0.335301
0.0040812
0.336012
0.0078992
0.337049
0.0114914
0.338399