/*--------------------------------*- C++ -*----------------------------------*\
  =========                 |
  \\      /  F ield         | OpenFOAM: The Open Source CFD Toolbox
   \\    /   O peration     | Website:  https://openfoam.org
    \\  /    A nd           | Version:  7
     \\/     M anipulation  |
\*---------------------------------------------------------------------------*/
FoamFile
{
    version     2.0;
    format      ascii;
    class       surfaceVectorField;
    location    "2.1";
    object      Uf;
}
// * * * * * * * * * * * * * * * * * * * * * * * * * * * * * * * * * * * * * //

dimensions      [0 1 -1 0 0 0 0];

internalField   nonuniform List<vector> 
5457
(
(9.92087 0.0251139 0)
(9.97124 0.0387519 0)
(9.82398 0.0328337 0)
(9.92857 0.0485966 0)
(9.70955 0.0393212 0)
(9.85543 0.0587843 0)
(9.57533 0.0460227 0)
(9.75672 0.0706136 0)
(9.42123 0.0529616 0)
(9.63741 0.0830369 0)
(9.24735 0.0601801 0)
(9.49844 0.0959627 0)
(9.05338 0.0678257 0)
(9.33908 0.109641 0)
(8.83863 0.0760499 0)
(9.15847 0.124318 0)
(8.60217 0.0849858 0)
(8.95577 0.140197 0)
(8.34287 0.0947603 0)
(8.73001 0.157463 0)
(8.05941 0.105502 0)
(8.47999 0.176299 0)
(7.75032 0.117342 0)
(8.20431 0.196884 0)
(7.41404 0.130409 0)
(7.90144 0.219387 0)
(7.04895 0.144822 0)
(7.56977 0.243946 0)
(6.65346 0.160682 0)
(7.20762 0.270651 0)
(6.22612 0.178052 0)
(6.8134 0.299515 0)
(5.76583 0.196933 0)
(6.38573 0.330424 0)
(5.27197 0.217235 0)
(5.92356 0.363088 0)
(4.74478 0.238735 0)
(5.42649 0.396973 0)
(4.18563 0.261028 0)
(4.89506 0.431227 0)
(3.59743 0.28348 0)
(4.33106 0.464602 0)
(2.98504 0.30519 0)
(3.73806 0.495399 0)
(2.35565 0.325051 0)
(3.12177 0.521479 0)
(1.71869 0.342522 0)
(2.49061 0.540514 0)
(1.084 0.361831 0)
(1.85545 0.551616 0)
(0.451596 0.348545 0)
(1.24513 0.562927 0)
(-0.145827 0.10244 0)
(0.608651 0.544651 0)
(-0.423491 -0.206821 0)
(0.0946545 0.25926 0)
(-0.402 -0.360901 0)
(-0.133829 -0.020552 0)
(-0.119584 -0.393734 0)
(9.9964 0.0516856 0)
(9.99704 0.0405168 0)
(9.95875 0.0708823 0)
(9.97849 0.0674775 0)
(9.89818 0.0880141 0)
(9.93372 0.0899024 0)
(9.81648 0.106017 0)
(9.86445 0.113595 0)
(9.71344 0.124959 0)
(9.77425 0.138562 0)
(9.58889 0.144894 0)
(9.66418 0.164699 0)
(9.44249 0.166133 0)
(9.53375 0.192388 0)
(9.2736 0.189011 0)
(9.38223 0.22209 0)
(9.08131 0.213827 0)
(9.20887 0.254209 0)
(8.8645 0.240859 0)
(9.01279 0.289124 0)
(8.62185 0.270379 0)
(8.79289 0.327211 0)
(8.3519 0.302647 0)
(8.54789 0.368842 0)
(8.05303 0.337893 0)
(8.27633 0.414368 0)
(7.72355 0.376293 0)
(7.97663 0.464092 0)
(7.36178 0.417927 0)
(7.64714 0.518228 0)
(6.96611 0.462726 0)
(7.28623 0.576837 0)
(6.53521 0.510396 0)
(6.89234 0.639746 0)
(6.0682 0.560334 0)
(6.46419 0.706437 0)
(5.56497 0.611511 0)
(6.00098 0.775905 0)
(5.02649 0.662364 0)
(5.50265 0.846506 0)
(4.4553 0.710676 0)
(4.9703 0.915774 0)
(3.85595 0.753495 0)
(4.40662 0.980258 0)
(3.23569 0.787138 0)
(3.81652 1.03539 0)
(2.60536 0.807425 0)
(3.20798 1.0754 0)
(1.9824 0.810363 0)
(2.59297 1.09304 0)
(1.40496 0.776739 0)
(1.99583 1.07693 0)
(0.929398 0.646196 0)
(1.41918 0.978207 0)
(0.439521 0.384011 0)
(0.937298 0.716667 0)
(0.0590313 -0.118814 0)
(0.443482 0.343313 0)
(0.174828 -0.335917 0)
(9.98902 0.059453 0)
(9.9948 0.0458957 0)
(9.9543 0.0895113 0)
(9.97366 0.0848887 0)
(9.89723 0.118077 0)
(9.92979 0.119222 0)
(9.82036 0.147953 0)
(9.86349 0.154037 0)
(9.72401 0.179484 0)
(9.77723 0.190479 0)
(9.60802 0.212843 0)
(9.6721 0.228715 0)
(9.4721 0.248464 0)
(9.54788 0.269213 0)
(9.31578 0.286848 0)
(9.40405 0.312584 0)
(9.13834 0.328472 0)
(9.24002 0.359415 0)
(8.93885 0.373795 0)
(9.05512 0.410263 0)
(8.71621 0.423277 0)
(8.84847 0.465685 0)
(8.46912 0.477361 0)
(8.61905 0.526234 0)
(8.19616 0.536457 0)
(8.36565 0.592447 0)
(7.89577 0.600892 0)
(8.08698 0.664803 0)
(7.56634 0.670849 0)
(7.78163 0.743671 0)
(7.20624 0.746283 0)
(7.44814 0.829229 0)
(6.81396 0.826795 0)
(7.08508 0.921343 0)
(6.38827 0.911481 0)
(6.69109 1.01941 0)
(5.92843 0.998739 0)
(6.26511 1.12216 0)
(5.43455 1.08606 0)
(5.80653 1.22739 0)
(4.90798 1.16977 0)
(5.31551 1.33169 0)
(4.3519 1.24482 0)
(4.79343 1.43011 0)
(3.7721 1.30445 0)
(4.24347 1.51578 0)
(3.17829 1.33972 0)
(3.67136 1.5793 0)
(2.58624 1.33797 0)
(3.08592 1.60759 0)
(2.01952 1.27278 0)
(2.50257 1.58139 0)
(1.48663 1.09521 0)
(1.92843 1.46402 0)
(0.958088 0.769001 0)
(1.38499 1.21018 0)
(0.479685 0.202314 0)
(0.829367 0.800812 0)
(0.433563 0.133905 0)
(9.98514 0.0716448 0)
(9.99366 0.0531722 0)
(9.95035 0.113679 0)
(9.97085 0.102337 0)
(9.8943 0.154197 0)
(9.92686 0.148018 0)
(9.81872 0.19565 0)
(9.86177 0.193802 0)
(9.72427 0.238898 0)
(9.77733 0.241371 0)
(9.61093 0.284419 0)
(9.67449 0.291268 0)
(9.4785 0.332821 0)
(9.55321 0.344068 0)
(9.32665 0.384777 0)
(9.41308 0.400489 0)
(9.15488 0.44095 0)
(9.25368 0.461259 0)
(8.96251 0.501985 0)
(9.07446 0.52708 0)
(8.74872 0.568525 0)
(8.87477 0.598651 0)
(8.51255 0.641203 0)
(8.65383 0.676671 0)
(8.25294 0.720611 0)
(8.41071 0.76182 0)
(7.9687 0.807258 0)
(8.14445 0.854723 0)
(7.6586 0.901491 0)
(7.85397 0.955889 0)
(7.32132 1.00338 0)
(7.53815 1.06562 0)
(6.9556 1.11259 0)
(7.19585 1.18388 0)
(6.56024 1.22813 0)
(6.82591 1.31009 0)
(6.13429 1.34814 0)
(6.42728 1.4429 0)
(5.67727 1.46955 0)
(5.99907 1.57985 0)
(5.18945 1.58769 0)
(5.54078 1.717 0)
(4.67236 1.69592 0)
(5.05253 1.84843 0)
(4.12933 1.78501 0)
(4.53548 1.96569 0)
(3.56624 1.84236 0)
(3.9923 2.05713 0)
(2.99169 1.85053 0)
(3.42722 2.10694 0)
(2.41553 1.78225 0)
(2.84731 2.09424 0)
(1.84028 1.60021 0)
(2.25596 1.98846 0)
(1.25919 1.27818 0)
(1.6601 1.75275 0)
(0.666653 0.789293 0)
(1.02382 1.36746 0)
(0.522944 0.786851 0)
(9.98336 0.0844471 0)
(9.99316 0.0613219 0)
(9.94817 0.136899 0)
(9.96956 0.119985 0)
(9.89308 0.188114 0)
(9.9257 0.176321 0)
(9.81896 0.240267 0)
(9.86191 0.232799 0)
(9.72648 0.294579 0)
(9.77951 0.291205 0)
(9.6157 0.351781 0)
(9.67922 0.352404 0)
(9.48646 0.412599 0)
(9.56105 0.417117 0)
(9.33848 0.477808 0)
(9.42469 0.486154 0)
(9.17135 0.548183 0)
(9.26976 0.560353 0)
(8.98452 0.624484 0)
(9.09582 0.640534 0)
(8.77733 0.707468 0)
(8.90231 0.727511 0)
(8.54904 0.797879 0)
(8.68858 0.822091 0)
(8.29881 0.896428 0)
(8.45391 0.925064 0)
(8.02577 1.00374 0)
(8.19751 1.03716 0)
(7.72898 1.12027 0)
(7.91852 1.159 0)
(7.40744 1.24621 0)
(7.61607 1.29099 0)
(7.06014 1.38129 0)
(7.28922 1.43318 0)
(6.68607 1.52457 0)
(6.93699 1.58511 0)
(6.28425 1.67415 0)
(6.55836 1.74547 0)
(5.8538 1.82672 0)
(6.15226 1.91182 0)
(5.39416 1.97715 0)
(5.71764 2.08006 0)
(4.90525 2.11791 0)
(5.25354 2.24395 0)
(4.3878 2.23843 0)
(4.75925 2.39442 0)
(3.84355 2.32433 0)
(4.23452 2.51898 0)
(3.2751 2.3567 0)
(3.67953 2.60098 0)
(2.68511 2.31031 0)
(3.09542 2.61941 0)
(2.07247 2.1547 0)
(2.48145 2.54699 0)
(1.42922 1.86707 0)
(1.83974 2.35337 0)
(0.742523 1.41923 0)
(1.13126 2.02415 0)
(0.543243 1.51411 0)
(9.98263 0.0975462 0)
(9.99299 0.0698294 0)
(9.9474 0.159851 0)
(9.96922 0.137652 0)
(9.89347 0.221448 0)
(9.92592 0.204024 0)
(9.82123 0.284212 0)
(9.86372 0.270809 0)
(9.73119 0.349484 0)
(9.78373 0.339724 0)
(9.62346 0.418167 0)
(9.68647 0.411854 0)
(9.49793 0.491095 0)
(9.57195 0.488071 0)
(9.35434 0.569136 0)
(9.43993 0.569281 0)
(9.19233 0.653167 0)
(9.29009 0.656413 0)
(9.01142 0.744058 0)
(9.12203 0.750393 0)
(8.81104 0.84267 0)
(8.93527 0.852131 0)
(8.59057 0.949851 0)
(8.72923 0.962531 0)
(8.34929 1.06641 0)
(8.50327 1.08247 0)
(8.08647 1.19307 0)
(8.25669 1.21278 0)
(7.8013 1.33039 0)
(7.98875 1.35415 0)
(7.49295 1.47865 0)
(7.69864 1.5071 0)
(7.16054 1.63771 0)
(7.3855 1.67181 0)
(6.80307 1.80673 0)
(7.04835 1.84792 0)
(6.41948 1.98392 0)
(6.68609 2.03432 0)
(6.00852 2.16604 0)
(6.29737 2.22875 0)
(5.56884 2.34797 0)
(5.88059 2.42735 0)
(5.09895 2.52203 0)
(5.43378 2.62408 0)
(4.59729 2.67735 0)
(4.95462 2.81007 0)
(4.06231 2.79923 0)
(4.44042 2.97295 0)
(3.49238 2.86881 0)
(3.88816 3.09631 0)
(2.88557 2.86258 0)
(3.29495 3.15955 0)
(2.23782 2.75356 0)
(2.65669 3.13752 0)
(1.54231 2.52064 0)
(1.97469 3.00278 0)
(0.793582 2.13092 0)
(1.20716 2.74016 0)
(0.556693 2.29137 0)
(9.98249 0.110684 0)
(9.99301 0.0784042 0)
(9.94767 0.182415 0)
(9.96952 0.155118 0)
(9.89516 0.253936 0)
(9.92717 0.231 0)
(9.82513 0.326909 0)
(9.86688 0.307651 0)
(9.73798 0.402717 0)
(9.78964 0.386688 0)
(9.63383 0.48241 0)
(9.69587 0.469332 0)
(9.5126 0.566945 0)
(9.58556 0.556596 0)
(9.37406 0.657286 0)
(9.45851 0.649478 0)
(9.21791 0.754408 0)
(9.31446 0.749 0)
(9.04371 0.859277 0)
(9.15306 0.856175 0)
(8.85097 0.972847 0)
(8.97387 0.972008 0)
(8.63909 1.09606 0)
(8.77639 1.09749 0)
(8.40744 1.2298 0)
(8.56001 1.2336 0)
(8.15533 1.37488 0)
(8.32408 1.38123 0)
(7.88199 1.53197 0)
(8.06786 1.54121 0)
(7.58659 1.70145 0)
(7.79056 1.71414 0)
(7.26821 1.88332 0)
(7.49125 1.90036 0)
(6.92573 2.07695 0)
(7.16882 2.09971 0)
(6.55784 2.28079 0)
(6.82194 2.31135 0)
(6.16282 2.49194 0)
(6.4489 2.53339 0)
(5.73853 2.70566 0)
(6.04744 2.76249 0)
(5.28219 2.91477 0)
(5.61464 2.99324 0)
(4.79036 3.10888 0)
(5.14671 3.21757 0)
(4.25891 3.27388 0)
(4.63894 3.42394 0)
(3.68308 3.3915 0)
(4.0857 3.59677 0)
(3.05782 3.43929 0)
(3.48105 3.71612 0)
(2.37757 3.39137 0)
(2.81818 3.75768 0)
(1.63781 3.22572 0)
(2.09904 3.69351 0)
(0.839082 2.90037 0)
(1.27887 3.50399 0)
(0.573335 3.1132 0)
(9.98272 0.123648 0)
(9.99316 0.0868665 0)
(9.94869 0.204414 0)
(9.97024 0.172186 0)
(9.89787 0.28539 0)
(9.92921 0.257106 0)
(9.8304 0.368131 0)
(9.87115 0.343151 0)
(9.74655 0.45404 0)
(9.79702 0.431869 0)
(9.64647 0.544283 0)
(9.70716 0.524563 0)
(9.53012 0.639926 0)
(9.60157 0.622364 0)
(9.3973 0.742026 0)
(9.48009 0.726367 0)
(9.24775 0.851644 0)
(9.3425 0.837672 0)
(9.08109 0.969834 0)
(9.18852 0.95738 0)
(8.89686 1.09764 0)
(9.01776 1.08658 0)
(8.69454 1.23609 0)
(8.82975 1.22637 0)
(8.47352 1.38617 0)
(8.62395 1.37779 0)
(8.23311 1.54879 0)
(8.39971 1.54187 0)
(7.97253 1.72472 0)
(8.15632 1.71953 0)
(7.69089 1.91452 0)
(7.8929 1.91154 0)
(7.38711 2.11838 0)
(7.60844 2.11842 0)
(7.05988 2.33594 0)
(7.30164 2.3403 0)
(6.70748 2.56604 0)
(6.97087 2.5767 0)
(6.32766 2.80633 0)
(6.61396 2.8263 0)
(5.91745 3.05283 0)
(6.228 3.0865 0)
(5.47287 3.29925 0)
(5.80909 3.3529 0)
(4.98881 3.53631 0)
(5.35208 3.61864 0)
(4.45893 3.75102 0)
(4.8504 3.87358 0)
(3.87591 3.92603 0)
(4.29605 4.10348 0)
(3.23212 4.03939 0)
(3.68029 4.28919 0)
(2.5207 4.0645 0)
(2.99335 4.40625 0)
(1.7383 3.97563 0)
(2.2373 4.42405 0)
(0.889444 3.71824 0)
(1.36334 4.31576 0)
(0.598747 3.98436 0)
(9.9832 0.136279 0)
(9.99339 0.0950958 0)
(9.95028 0.225691 0)
(9.97129 0.188694 0)
(9.90144 0.315653 0)
(9.93188 0.282197 0)
(9.83683 0.407692 0)
(9.87634 0.377145 0)
(9.75668 0.503227 0)
(9.80565 0.475056 0)
(9.66114 0.603513 0)
(9.72011 0.577291 0)
(9.55019 0.70971 0)
(9.61971 0.685075 0)
(9.4237 0.822962 0)
(9.50435 0.799591 0)
(9.28145 0.944411 0)
(9.37385 0.922017 0)
(9.1231 1.07519 0)
(9.228 1.05353 0)
(8.94827 1.21645 0)
(9.06646 1.19532 0)
(8.75647 1.36928 0)
(8.88882 1.34854 0)
(8.54712 1.5348 0)
(8.69457 1.51437 0)
(8.31956 1.71403 0)
(8.48313 1.69393 0)
(8.07296 1.90789 0)
(8.25376 1.88829 0)
(7.80636 2.11712 0)
(8.00557 2.0984 0)
(7.51853 2.34219 0)
(7.73743 2.32505 0)
(7.20787 2.58312 0)
(7.44788 2.56869 0)
(6.8723 2.83929 0)
(7.135 2.82938 0)
(6.50901 3.10908 0)
(6.79618 3.10648 0)
(6.11417 3.38954 0)
(6.42788 3.39837 0)
(5.68267 3.67568 0)
(6.02531 3.70196 0)
(5.20784 3.95979 0)
(5.58204 4.01206 0)
(4.68122 4.2305 0)
(5.08969 4.32046 0)
(4.09287 4.47178 0)
(4.53777 4.61482 0)
(3.43222 4.66198 0)
(3.91433 4.87726 0)
(2.68995 4.77258 0)
(3.20545 5.08296 0)
(1.86175 4.77183 0)
(2.41116 5.19735 0)
(0.954143 4.58915 0)
(1.47624 5.18371 0)
(0.639188 4.91888 0)
(9.98385 0.148454 0)
(9.99368 0.103006 0)
(9.95231 0.246105 0)
(9.97258 0.204511 0)
(9.90571 0.344576 0)
(9.93505 0.306135 0)
(9.84426 0.445411 0)
(9.88232 0.409478 0)
(9.76816 0.550054 0)
(9.81538 0.516059 0)
(9.67758 0.659826 0)
(9.73452 0.627283 0)
(9.57253 0.775973 0)
(9.63974 0.744453 0)
(9.45293 0.899715 0)
(9.53098 0.868828 0)
(9.31861 1.03227 0)
(9.40815 1.00166 0)
(9.16931 1.17486 0)
(9.27107 1.1442 0)
(9.00468 1.32869 0)
(9.11947 1.29771 0)
(8.82431 1.49499 0)
(8.95302 1.46344 0)
(8.62767 1.67496 0)
(8.77128 1.64266 0)
(8.41411 1.86976 0)
(8.5737 1.83662 0)
(8.18282 2.0805 0)
(8.35958 2.04657 0)
(7.93276 2.30817 0)
(8.12804 2.27366 0)
(7.6626 2.55356 0)
(7.87791 2.51898 0)
(7.37054 2.81715 0)
(7.60761 2.78342 0)
(7.05416 3.099 0)
(7.31503 3.06762 0)
(6.71015 3.39844 0)
(6.99726 3.37179 0)
(6.33398 3.71376 0)
(6.65027 3.6955 0)
(5.9195 4.04168 0)
(6.26854 4.03726 0)
(5.45852 4.37655 0)
(5.84454 4.394 0)
(4.94043 4.70929 0)
(5.36814 4.7601 0)
(4.35222 5.02588 0)
(4.82619 5.12604 0)
(3.67924 5.30549 0)
(4.20274 5.47631 0)
(2.9073 5.51749 0)
(3.47763 5.78671 0)
(2.02756 5.62236 0)
(2.64491 6.01878 0)
(1.04508 5.52884 0)
(1.63771 6.12327 0)
(0.704488 5.94247 0)
(9.98463 0.160076 0)
(9.99402 0.110531 0)
(9.95469 0.265531 0)
(9.97406 0.21953 0)
(9.91058 0.372018 0)
(9.93862 0.328796 0)
(9.85255 0.481122 0)
(9.88896 0.440007 0)
(9.78083 0.594317 0)
(9.82604 0.554704 0)
(9.69559 0.712981 0)
(9.75019 0.674329 0)
(9.59688 0.83843 0)
(9.66141 0.800247 0)
(9.48467 0.971953 0)
(9.55971 0.933785 0)
(9.35885 1.11484 0)
(9.44504 1.07626 0)
(9.21924 1.26837 0)
(9.3173 1.22898 0)
(9.06556 1.43386 0)
(9.1763 1.39328 0)
(8.89746 1.61261 0)
(9.02179 1.57051 0)
(8.7145 1.80593 0)
(8.8534 1.76202 0)
(8.51607 2.01515 0)
(8.67068 1.96921 0)
(8.3014 2.24158 0)
(8.473 2.19347 0)
(8.06948 2.48645 0)
(8.25953 2.43622 0)
(7.81893 2.75097 0)
(8.02914 2.69884 0)
(7.54784 3.03617 0)
(7.78027 2.98272 0)
(7.25364 3.34285 0)
(7.51077 3.28916 0)
(6.93269 3.67146 0)
(7.21761 3.61931 0)
(6.57999 4.02181 0)
(6.89658 3.97408 0)
(6.1886 4.39265 0)
(6.54174 4.35389 0)
(5.74902 4.78101 0)
(6.14481 4.75821 0)
(5.24851 5.18102 0)
(5.69431 5.18483 0)
(4.6705 5.58203 0)
(5.17449 5.62839 0)
(3.99464 5.96574 0)
(4.56471 6.07791 0)
(3.19832 6.30093 0)
(3.83616 6.51269 0)
(2.26179 6.53997 0)
(2.97084 6.89323 0)
(1.18066 6.56448 0)
(1.87926 7.15716 0)
(0.812903 7.09885 0)
(9.98552 0.171068 0)
(9.99439 0.117622 0)
(9.95735 0.283863 0)
(9.9757 0.233662 0)
(9.91593 0.397853 0)
(9.94253 0.350071 0)
(9.86158 0.514675 0)
(9.89614 0.468605 0)
(9.79452 0.635837 0)
(9.8375 0.590838 0)
(9.71494 0.762762 0)
(9.76693 0.718245 0)
(9.62296 0.896826 0)
(9.68449 0.852241 0)
(9.51858 1.03938 0)
(9.59023 0.994208 0)
(9.40177 1.19176 0)
(9.48416 1.14551 0)
(9.27242 1.35534 0)
(9.36626 1.30753 0)
(9.13035 1.53147 0)
(9.23642 1.48165 0)
(8.97528 1.72157 0)
(9.0945 1.66928 0)
(8.80687 1.92705 0)
(8.94023 1.87189 0)
(8.62462 2.14939 0)
(8.77326 2.09099 0)
(8.42785 2.39009 0)
(8.59309 2.32813 0)
(8.21562 2.65071 0)
(8.39902 2.58496 0)
(7.98664 2.93282 0)
(8.19006 2.86322 0)
(7.73907 3.23805 0)
(7.9648 3.16474 0)
(7.47036 3.56805 0)
(7.72124 3.4915 0)
(7.17686 3.92443 0)
(7.45654 3.84565 0)
(6.85346 4.30872 0)
(7.16663 4.22953 0)
(6.49288 4.72206 0)
(6.84571 4.64559 0)
(6.08487 5.16478 0)
(6.48545 5.09627 0)
(5.61498 5.63542 0)
(6.07383 5.58357 0)
(5.06313 6.12882 0)
(5.59338 6.10801 0)
(4.40201 6.63273 0)
(5.01924 6.6664 0)
(3.59616 7.12022 0)
(4.3125 7.24735 0)
(2.60451 7.5398 0)
(3.4359 7.81915 0)
(1.3945 7.73985 0)
(2.25684 8.31431 0)
(1.00289 8.46467 0)
(9.98649 0.181366 0)
(9.9948 0.124238 0)
(9.96023 0.301012 0)
(9.97745 0.246835 0)
(9.92169 0.421971 0)
(9.94671 0.369866 0)
(9.87121 0.545939 0)
(9.90378 0.495162 0)
(9.80906 0.674454 0)
(9.84963 0.624329 0)
(9.73544 0.808981 0)
(9.78458 0.758874 0)
(9.65051 0.950941 0)
(9.70876 0.900249 0)
(9.55434 1.10173 0)
(9.62225 1.04988 0)
(9.44698 1.26275 0)
(9.52514 1.20917 0)
(9.32838 1.43539 0)
(9.41749 1.37955 0)
(9.19847 1.62111 0)
(9.2993 1.56245 0)
(9.05709 1.82137 0)
(9.17051 1.75934 0)
(8.904 2.0377 0)
(9.03099 1.97177 0)
(8.73885 2.27171 0)
(8.88054 2.20134 0)
(8.56111 2.5251 0)
(8.71883 2.44976 0)
(8.37003 2.79969 0)
(8.54534 2.7189 0)
(8.16449 3.09745 0)
(8.35933 3.01076 0)
(7.94292 3.42057 0)
(8.15968 3.32764 0)
(7.70304 3.77152 0)
(7.94476 3.67213 0)
(7.44156 4.15313 0)
(7.71222 4.04731 0)
(7.15375 4.56865 0)
(7.45862 4.45686 0)
(6.83276 5.02181 0)
(7.17895 4.90526 0)
(6.46852 5.51675 0)
(6.86583 5.39806 0)
(6.04619 6.05763 0)
(6.50824 5.94195 0)
(5.54352 6.64749 0)
(6.08924 6.54487 0)
(4.92689 7.28567 0)
(5.58269 7.21528 0)
(4.1452 7.96017 0)
(4.94255 7.95999 0)
(3.12227 8.63262 0)
(4.10986 8.77429 0)
(1.75677 9.12742 0)
(2.87935 9.62014 0)
(1.36544 10.1853 0)
(9.98752 0.190922 0)
(9.99522 0.130348 0)
(9.96328 0.316902 0)
(9.9793 0.258991 0)
(9.92778 0.444281 0)
(9.9511 0.388106 0)
(9.88136 0.574803 0)
(9.91178 0.519585 0)
(9.82431 0.710042 0)
(9.86229 0.655069 0)
(9.75689 0.851489 0)
(9.80297 0.796085 0)
(9.67928 1.0006 0)
(9.73398 0.944117 0)
(9.59163 1.15881 0)
(9.65548 1.10062 0)
(9.49405 1.32756 0)
(9.56763 1.26703 0)
(9.3866 1.50828 0)
(9.47056 1.4448 0)
(9.26931 1.70246 0)
(9.36438 1.63539 0)
(9.14215 1.91163 0)
(9.24916 1.84034 0)
(9.00502 2.13742 0)
(9.1249 2.06123 0)
(8.85775 2.38152 0)
(8.99158 2.29974 0)
(8.70001 2.64581 0)
(8.84907 2.55771 0)
(8.5313 2.93233 0)
(8.69711 2.83714 0)
(8.35085 3.2434 0)
(8.5353 3.1403 0)
(8.15748 3.58169 0)
(8.36292 3.4698 0)
(7.94948 3.95039 0)
(8.17894 3.82876 0)
(7.7243 4.35337 0)
(7.98177 4.22097 0)
(7.4782 4.7955 0)
(7.76906 4.65124 0)
(7.20564 5.28297 0)
(7.53733 5.12576 0)
(6.89826 5.82375 0)
(7.28136 5.65273 0)
(6.54312 6.42823 0)
(6.9932 6.24332 0)
(6.11951 7.10986 0)
(6.66017 6.91304 0)
(5.59271 7.88584 0)
(6.26174 7.68421 0)
(4.90121 8.77616 0)
(5.75754 8.59041 0)
(3.92787 9.80029 0)
(5.08829 9.68311 0)
(2.43449 10.8567 0)
(3.98152 11.0483 0)
(2.14806 12.5698 0)
(9.9886 0.199696 0)
(9.99566 0.135931 0)
(9.96648 0.331473 0)
(9.98121 0.270086 0)
(9.93412 0.464699 0)
(9.95565 0.404729 0)
(9.8919 0.601162 0)
(9.92007 0.5418 0)
(9.84012 0.742461 0)
(9.87538 0.682967 0)
(9.77908 0.89011 0)
(9.82195 0.829775 0)
(9.70901 1.04559 0)
(9.76 0.983725 0)
(9.63012 1.21036 0)
(9.68975 1.14629 0)
(9.54259 1.38588 0)
(9.61142 1.31892 0)
(9.4466 1.57361 0)
(9.52524 1.50309 0)
(9.34228 1.77507 0)
(9.43143 1.70028 0)
(9.22973 1.99183 0)
(9.33018 1.91203 0)
(9.10905 2.22556 0)
(9.22167 2.13996 0)
(8.98023 2.47805 0)
(9.10605 2.38581 0)
(8.84323 2.75127 0)
(8.98344 2.65147 0)
(8.69785 3.04743 0)
(8.8539 2.93903 0)
(8.54375 3.3691 0)
(8.71739 3.25092 0)
(8.38033 3.71929 0)
(8.57375 3.58995 0)
(8.20665 4.10171 0)
(8.42266 3.95954 0)
(8.02124 4.52101 0)
(8.26355 4.36396 0)
(7.82195 4.98323 0)
(8.09551 4.80866 0)
(7.60549 5.49642 0)
(7.91722 5.30086 0)
(7.36688 6.0716 0)
(7.7267 5.85044 0)
(7.09823 6.72447 0)
(7.52113 6.47129 0)
(6.78644 7.47822 0)
(7.29633 7.18402 0)
(6.40804 8.36968 0)
(7.04692 8.02103 0)
(5.91612 9.46346 0)
(6.76288 9.03888 0)
(5.19811 10.9064 0)
(6.46356 10.3535 0)
(3.88788 13.1801 0)
(6.1951 12.3013 0)
(5.27046 16.3777 0)
(0.305072 -0.204554 0)
(0.169199 -0.298799 0)
(0.583208 -0.171879 0)
(0.405363 -0.265983 0)
(0.822385 -0.141181 0)
(0.645338 -0.223325 0)
(1.02836 -0.116878 0)
(0.860722 -0.187776 0)
(1.20749 -0.0978036 0)
(1.04609 -0.159457 0)
(1.36459 -0.0825482 0)
(1.20687 -0.136537 0)
(1.50337 -0.0701567 0)
(1.34864 -0.117768 0)
(1.62676 -0.0598934 0)
(1.47504 -0.102228 0)
(1.73673 -0.0510743 0)
(1.58836 -0.0889672 0)
(1.83417 -0.0430893 0)
(1.68998 -0.0769612 0)
(1.91884 -0.0355598 0)
(1.78037 -0.0653032 0)
(1.99013 -0.0284837 0)
(1.85901 -0.0536809 0)
(2.04817 -0.0221067 0)
(1.92509 -0.042671 0)
(2.09415 -0.0165156 0)
(1.97886 -0.0330025 0)
(2.12855 -0.0114339 0)
(2.02205 -0.0241132 0)
(2.14999 -0.00648005 0)
(2.05534 -0.0146689 0)
(2.15827 -0.00102631 0)
(2.07694 -0.00553303 0)
(2.15787 0.0048382 0)
(2.08796 0.000255905 0)
(2.14983 0.00947894 0)
(2.08944 0.00512561 0)
(2.13732 0.0111628 0)
(2.07904 0.00777885 0)
(2.12417 0.00882884 0)
(2.05695 0.00798374 0)
(2.11586 0.00241304 0)
(2.02521 0.00492681 0)
(2.11685 -0.00678817 0)
(1.98859 -0.000571882 0)
(2.12937 -0.0166827 0)
(1.95271 -0.00707396 0)
(2.15327 -0.0252028 0)
(1.92292 -0.0131902 0)
(2.18756 -0.0310917 0)
(1.90463 -0.0184815 0)
(2.23171 -0.0343946 0)
(1.90162 -0.0232262 0)
(2.28666 -0.0356998 0)
(1.91209 -0.0282286 0)
(2.35444 -0.0344493 0)
(1.94094 -0.0339948 0)
(2.01351 -0.0374193 0)
(0.246283 -0.415424 0)
(0.117184 -0.540018 0)
(0.486805 -0.363908 0)
(0.322051 -0.495996 0)
(0.698826 -0.306264 0)
(0.515108 -0.421293 0)
(0.883584 -0.258444 0)
(0.690835 -0.356214 0)
(1.04611 -0.220257 0)
(0.842848 -0.304127 0)
(1.19043 -0.189416 0)
(0.975298 -0.261969 0)
(1.31955 -0.164176 0)
(1.0921 -0.227335 0)
(1.4358 -0.143102 0)
(1.19582 -0.19855 0)
(1.54094 -0.124718 0)
(1.2882 -0.174017 0)
(1.63587 -0.107547 0)
(1.37047 -0.151943 0)
(1.7204 -0.0906032 0)
(1.44346 -0.130496 0)
(1.79351 -0.0740452 0)
(1.5068 -0.108734 0)
(1.8548 -0.0588314 0)
(1.55858 -0.0877279 0)
(1.90588 -0.0445868 0)
(1.59762 -0.0696705 0)
(1.94866 -0.0292756 0)
(1.62668 -0.0540961 0)
(1.98176 -0.0146358 0)
(1.65147 -0.0373251 0)
(2.00501 -0.00535763 0)
(1.6563 -0.0210668 0)
(2.01799 -0.00176312 0)
(1.62616 -0.00820974 0)
(2.01688 -0.000197474 0)
(1.57528 0.00582934 0)
(1.99702 0.00132939 0)
(1.51338 0.020133 0)
(1.95574 0.0020686 0)
(1.44066 0.0330506 0)
(1.89584 0.00164094 0)
(1.35773 0.0404438 0)
(1.82306 0.000536827 0)
(1.26907 0.0415567 0)
(1.74563 -0.000903205 0)
(1.18181 0.0366925 0)
(1.67365 -0.00308438 0)
(1.10439 0.0265359 0)
(1.61714 -0.00653115 0)
(1.04766 0.0119701 0)
(1.57883 -0.0115843 0)
(1.01644 -0.00307322 0)
(1.56381 -0.0195291 0)
(1.01643 -0.0205081 0)
(1.58356 -0.031 0)
(1.04603 -0.0439014 0)
(1.13863 -0.071851 0)
(0.184564 -0.63183 0)
(0.0749164 -0.720788 0)
(0.362615 -0.564181 0)
(0.228384 -0.666267 0)
(0.518915 -0.481236 0)
(0.354719 -0.567233 0)
(0.654822 -0.410469 0)
(0.473084 -0.480116 0)
(0.773396 -0.353012 0)
(0.572503 -0.409674 0)
(0.877155 -0.305973 0)
(0.657075 -0.352147 0)
(0.96809 -0.267037 0)
(0.728818 -0.304501 0)
(1.04777 -0.234346 0)
(0.789055 -0.264572 0)
(1.11753 -0.205936 0)
(0.838536 -0.230447 0)
(1.17837 -0.179488 0)
(0.877823 -0.199999 0)
(1.23034 -0.152839 0)
(0.908725 -0.17058 0)
(1.27164 -0.125861 0)
(0.932257 -0.139827 0)
(1.29993 -0.102288 0)
(0.945129 -0.108529 0)
(1.31815 -0.0862377 0)
(0.94279 -0.0827462 0)
(1.33137 -0.0734717 0)
(0.903206 -0.0633675 0)
(1.32401 -0.0540242 0)
(0.836433 -0.0322877 0)
(1.27436 -0.026547 0)
(0.774845 0.0121092 0)
(1.18209 0.00260364 0)
(0.693674 0.0519901 0)
(1.07048 0.0307896 0)
(0.593723 0.0769197 0)
(0.954402 0.056283 0)
(0.494028 0.0923276 0)
(0.839223 0.0745279 0)
(0.39709 0.102994 0)
(0.728104 0.0827217 0)
(0.30481 0.106327 0)
(0.626051 0.080386 0)
(0.222219 0.100636 0)
(0.539633 0.0677145 0)
(0.154488 0.0855389 0)
(0.47633 0.0452952 0)
(0.107158 0.0614719 0)
(0.443916 0.018057 0)
(0.0854649 0.029436 0)
(0.44915 -0.0096438 0)
(0.0825182 -0.00582675 0)
(0.493877 -0.0438855 0)
(0.122121 -0.0434842 0)
(0.580723 -0.0852613 0)
(0.182344 -0.0874606 0)
(0.283865 -0.1266 0)
(0.121417 -0.772742 0)
(0.0360957 -0.839708 0)
(0.228983 -0.687389 0)
(0.128018 -0.769133 0)
(0.319167 -0.584345 0)
(0.178688 -0.65144 0)
(0.395326 -0.496817 0)
(0.231976 -0.549547 0)
(0.458653 -0.425104 0)
(0.268973 -0.466044 0)
(0.51009 -0.3657 0)
(0.295296 -0.396852 0)
(0.550425 -0.315845 0)
(0.310985 -0.338728 0)
(0.580137 -0.273465 0)
(0.316384 -0.28919 0)
(0.599616 -0.236842 0)
(0.310268 -0.246205 0)
(0.609946 -0.204131 0)
(0.290812 -0.208158 0)
(0.612827 -0.172763 0)
(0.259306 -0.172802 0)
(0.60718 -0.13995 0)
(0.217123 -0.135575 0)
(0.585547 -0.102901 0)
(0.162823 -0.092624 0)
(0.524779 -0.0592371 0)
(0.0914541 -0.0391237 0)
(0.415129 -0.0106931 0)
(0.00806738 0.0134855 0)
(0.289976 0.0388289 0)
(-0.0981634 0.0533595 0)
(0.187953 0.081757 0)
(-0.184768 0.0802782 0)
(0.101514 0.110365 0)
(-0.259092 0.108383 0)
(0.0162483 0.126558 0)
(-0.334536 0.131233 0)
(-0.0676179 0.135098 0)
(-0.403939 0.144488 0)
(-0.142706 0.136498 0)
(-0.465248 0.148592 0)
(-0.205337 0.128982 0)
(-0.516485 0.143462 0)
(-0.252027 0.111595 0)
(-0.554153 0.127665 0)
(-0.280113 0.0847326 0)
(-0.576168 0.101414 0)
(-0.289188 0.0499286 0)
(-0.581125 0.0664802 0)
(-0.280975 0.0087524 0)
(-0.570149 0.0250109 0)
(-0.250628 -0.0374375 0)
(-0.553125 -0.0217932 0)
(-0.195787 -0.0863207 0)
(-0.510281 -0.0716562 0)
(-0.130958 -0.131248 0)
(-0.46486 -0.119977 0)
(-0.41734 -0.154159 0)
(0.0514771 -0.846145 0)
(-0.00364976 -0.890127 0)
(0.0831507 -0.742931 0)
(0.0184935 -0.799423 0)
(0.101185 -0.625267 0)
(-0.00957162 -0.668279 0)
(0.11031 -0.526347 0)
(-0.027292 -0.557866 0)
(0.109455 -0.444174 0)
(-0.0589681 -0.465283 0)
(0.0990174 -0.375216 0)
(-0.0982499 -0.38778 0)
(0.0788328 -0.316089 0)
(-0.146071 -0.3216 0)
(0.0475989 -0.263634 0)
(-0.202125 -0.263312 0)
(0.00314939 -0.21558 0)
(-0.267124 -0.210246 0)
(-0.0564835 -0.17018 0)
(-0.342162 -0.161056 0)
(-0.132704 -0.124009 0)
(-0.426795 -0.11402 0)
(-0.22522 -0.0732449 0)
(-0.520402 -0.0659113 0)
(-0.331328 -0.0182984 0)
(-0.616653 -0.0146116 0)
(-0.427727 0.0316366 0)
(-0.709198 0.0300755 0)
(-0.502189 0.067913 0)
(-0.780346 0.0656755 0)
(-0.567699 0.0949615 0)
(-0.845344 0.098191 0)
(-0.636512 0.120971 0)
(-0.908189 0.126258 0)
(-0.700568 0.144785 0)
(-0.965812 0.150173 0)
(-0.757136 0.160301 0)
(-1.01693 0.167266 0)
(-0.805697 0.165369 0)
(-1.05957 0.17469 0)
(-0.843929 0.160255 0)
(-1.09237 0.171808 0)
(-0.869226 0.144617 0)
(-1.11414 0.15846 0)
(-0.880898 0.118469 0)
(-1.1242 0.134422 0)
(-0.87964 0.0833303 0)
(-1.12288 0.100703 0)
(-0.867493 0.0414199 0)
(-1.11145 0.0597768 0)
(-0.845796 -0.00637588 0)
(-1.09259 0.0133192 0)
(-0.817387 -0.0578595 0)
(-1.068 -0.03674 0)
(-0.784159 -0.10746 0)
(-1.03875 -0.0887254 0)
(-0.752431 -0.147818 0)
(-1.01443 -0.13589 0)
(-1.00082 -0.170598 0)
(-0.0254669 -0.843213 0)
(-0.0475645 -0.865183 0)
(-0.0716929 -0.722923 0)
(-0.0993871 -0.755216 0)
(-0.127853 -0.595854 0)
(-0.203144 -0.615841 0)
(-0.19114 -0.489552 0)
(-0.293042 -0.500169 0)
(-0.26173 -0.400015 0)
(-0.390972 -0.402449 0)
(-0.339503 -0.324035 0)
(-0.49141 -0.320186 0)
(-0.424127 -0.258091 0)
(-0.59423 -0.249789 0)
(-0.514852 -0.199433 0)
(-0.698645 -0.188142 0)
(-0.610223 -0.146001 0)
(-0.803768 -0.133094 0)
(-0.709442 -0.095924 0)
(-0.908485 -0.0826864 0)
(-0.811599 -0.0480736 0)
(-1.01089 -0.0352355 0)
(-0.909955 -0.00312084 0)
(-1.10609 0.00815121 0)
(-0.992148 0.037116 0)
(-1.19076 0.0458174 0)
(-1.06079 0.0730156 0)
(-1.2603 0.0793506 0)
(-1.12535 0.106025 0)
(-1.32516 0.110926 0)
(-1.18492 0.134696 0)
(-1.38431 0.138953 0)
(-1.239 0.157948 0)
(-1.43697 0.162396 0)
(-1.28523 0.175183 0)
(-1.48157 0.180334 0)
(-1.32197 0.183971 0)
(-1.51703 0.190669 0)
(-1.34892 0.182594 0)
(-1.54276 0.19145 0)
(-1.36562 0.17067 0)
(-1.55855 0.181948 0)
(-1.37181 0.148294 0)
(-1.56455 0.162134 0)
(-1.36843 0.116231 0)
(-1.56143 0.132466 0)
(-1.35718 0.0762761 0)
(-1.55045 0.0943423 0)
(-1.33921 0.0306263 0)
(-1.53364 0.0498564 0)
(-1.31601 -0.0192028 0)
(-1.51399 0.000817931 0)
(-1.29154 -0.07072 0)
(-1.4901 -0.0496126 0)
(-1.27058 -0.119485 0)
(-1.47062 -0.0994899 0)
(-1.253 -0.159482 0)
(-1.45851 -0.14471 0)
(-1.45502 -0.178706 0)
(-0.104064 -0.762907 0)
(-0.0958821 -0.763259 0)
(-0.228927 -0.631895 0)
(-0.218658 -0.635809 0)
(-0.356953 -0.503294 0)
(-0.391812 -0.4963 0)
(-0.486475 -0.396648 0)
(-0.545626 -0.382088 0)
(-0.615463 -0.307576 0)
(-0.697068 -0.287633 0)
(-0.742303 -0.23278 0)
(-0.841934 -0.209947 0)
(-0.865717 -0.168634 0)
(-0.979377 -0.145063 0)
(-0.985236 -0.112084 0)
(-1.10888 -0.0891151 0)
(-1.10007 -0.0613738 0)
(-1.22802 -0.0401948 0)
(-1.20781 -0.0160584 0)
(-1.33617 0.00241449 0)
(-1.30326 0.0234816 0)
(-1.43317 0.0383782 0)
(-1.38495 0.0580201 0)
(-1.5182 0.0696588 0)
(-1.45752 0.0897124 0)
(-1.59352 0.0991721 0)
(-1.52421 0.119426 0)
(-1.66235 0.127223 0)
(-1.58399 0.146355 0)
(-1.72377 0.152824 0)
(-1.63628 0.169133 0)
(-1.77728 0.174743 0)
(-1.68035 0.18648 0)
(-1.82226 0.191837 0)
(-1.71497 0.196996 0)
(-1.85792 0.202924 0)
(-1.73957 0.198978 0)
(-1.88378 0.20634 0)
(-1.75434 0.191218 0)
(-1.89984 0.200636 0)
(-1.75968 0.173394 0)
(-1.90652 0.185188 0)
(-1.75628 0.14587 0)
(-1.90458 0.160115 0)
(-1.74553 0.109712 0)
(-1.89519 0.126242 0)
(-1.72933 0.0666838 0)
(-1.88 0.0851876 0)
(-1.70952 0.0189891 0)
(-1.86136 0.0389227 0)
(-1.68881 -0.0308467 0)
(-1.84256 -0.0103409 0)
(-1.67038 -0.0801775 0)
(-1.82376 -0.0593111 0)
(-1.6576 -0.126379 0)
(-1.81196 -0.106052 0)
(-1.64971 -0.164597 0)
(-1.80805 -0.148666 0)
(-1.80934 -0.180496 0)
(-0.181469 -0.611348 0)
(-0.147025 -0.585522 0)
(-0.378049 -0.477767 0)
(-0.333429 -0.447819 0)
(-0.568435 -0.356294 0)
(-0.568014 -0.318534 0)
(-0.749047 -0.258974 0)
(-0.773024 -0.217429 0)
(-0.918584 -0.17986 0)
(-0.96237 -0.136722 0)
(-1.07576 -0.11429 0)
(-1.1316 -0.0733429 0)
(-1.22016 -0.0590202 0)
(-1.28209 -0.0225317 0)
(-1.34961 -0.0127507 0)
(-1.41541 0.0181398 0)
(-1.46246 0.025484 0)
(-1.53286 0.0511013 0)
(-1.55982 0.0577411 0)
(-1.63611 0.079318 0)
(-1.64626 0.0865273 0)
(-1.72715 0.10504 0)
(-1.72551 0.113583 0)
(-1.81011 0.129335 0)
(-1.79745 0.139093 0)
(-1.88488 0.152064 0)
(-1.86136 0.16247 0)
(-1.95135 0.1731 0)
(-1.91672 0.182734 0)
(-2.00909 0.191622 0)
(-1.96317 0.198737 0)
(-2.05781 0.206536 0)
(-2.00036 0.209272 0)
(-2.09725 0.216682 0)
(-2.02778 0.212969 0)
(-2.1271 0.220816 0)
(-2.04538 0.208447 0)
(-2.1473 0.217545 0)
(-2.05359 0.19479 0)
(-2.15815 0.205744 0)
(-2.05318 0.17183 0)
(-2.16034 0.184944 0)
(-2.04529 0.140154 0)
(-2.15489 0.155435 0)
(-2.03156 0.101083 0)
(-2.14325 0.118294 0)
(-2.01408 0.0564887 0)
(-2.12729 0.0753076 0)
(-1.99518 0.00859246 0)
(-2.10951 0.0284926 0)
(-1.97814 -0.0398285 0)
(-2.09287 -0.019526 0)
(-1.96559 -0.0863151 0)
(-2.07971 -0.0659144 0)
(-1.95945 -0.129353 0)
(-2.07456 -0.109204 0)
(-1.95955 -0.164848 0)
(-2.07716 -0.148615 0)
(-2.08159 -0.177381 0)
(-0.255323 -0.400695 0)
(-0.206889 -0.335449 0)
(-0.51754 -0.277608 0)
(-0.451683 -0.197059 0)
(-0.760356 -0.172625 0)
(-0.728961 -0.091811 0)
(-0.979463 -0.0889141 0)
(-0.962166 -0.0176777 0)
(-1.17061 -0.0250944 0)
(-1.16522 0.0334226 0)
(-1.33496 0.0210634 0)
(-1.34022 0.069498 0)
(-1.47551 0.0554954 0)
(-1.4913 0.0967342 0)
(-1.59707 0.0829132 0)
(-1.62197 0.118859 0)
(-1.70494 0.10685 0)
(-1.73713 0.138367 0)
(-1.80216 0.128914 0)
(-1.83982 0.156105 0)