/*--------------------------------*- C++ -*----------------------------------*\
  =========                 |
  \\      /  F ield         | OpenFOAM: The Open Source CFD Toolbox
   \\    /   O peration     | Website:  https://openfoam.org
    \\  /    A nd           | Version:  7
     \\/     M anipulation  |
\*---------------------------------------------------------------------------*/
FoamFile
{
    version     2.0;
    format      ascii;
    class       surfaceScalarField;
    location    "8.93";
    object      phi;
}
// * * * * * * * * * * * * * * * * * * * * * * * * * * * * * * * * * * * * * //

dimensions      [1 0 -1 0 0 0 0];

internalField   nonuniform List<scalar> 
23692
(
1.19504e-05
-3.15959e-07
1.24843e-05
-5.3378e-07
1.31974e-05
-7.12983e-07
1.40603e-05
-8.62597e-07
1.50524e-05
-9.91704e-07
1.61598e-05
-1.10707e-06
1.73742e-05
-1.21388e-06
1.86908e-05
-1.31602e-06
2.01073e-05
-1.41591e-06
2.16224e-05
-1.51448e-06
2.32343e-05
-1.61121e-06
2.49394e-05
-1.7044e-06
2.67317e-05
-1.79157e-06
2.86023e-05
-1.86986e-06
3.05397e-05
-1.93652e-06
3.25298e-05
-1.98928e-06
3.45571e-05
-2.02652e-06
3.66054e-05
-2.04741e-06
3.86581e-05
-2.05188e-06
4.06995e-05
-2.04052e-06
4.27149e-05
-2.01444e-06
4.46908e-05
-1.97511e-06
4.6616e-05
-1.92423e-06
4.84804e-05
-1.86359e-06
5.02763e-05
-1.79495e-06
5.19971e-05
-1.72001e-06
5.36383e-05
-1.64033e-06
5.51965e-05
-1.55733e-06
5.66696e-05
-1.47224e-06
5.80566e-05
-1.38613e-06
5.93574e-05
-1.29992e-06
6.05726e-05
-1.21435e-06
6.17034e-05
-1.13005e-06
6.27517e-05
-1.04752e-06
6.37197e-05
-9.67164e-07
6.46097e-05
-8.89275e-07
6.54246e-05
-8.14087e-07
6.61671e-05
-7.41761e-07
6.68402e-05
-6.72407e-07
6.7447e-05
-6.06087e-07
6.79905e-05
-5.42827e-07
6.84738e-05
-4.82622e-07
6.88999e-05
-4.2544e-07
6.92717e-05
-3.7123e-07
6.95922e-05
-3.19922e-07
6.98642e-05
-2.71432e-07
7.00904e-05
-2.25661e-07
7.02734e-05
-1.82502e-07
7.04157e-05
-1.41833e-07
7.05197e-05
-1.03523e-07
7.05875e-05
-6.74289e-08
7.06213e-05
-3.33973e-08
7.06229e-05
-1.26062e-09
7.05941e-05
2.91059e-08
7.05366e-05
5.78429e-08
7.04517e-05
8.51048e-08
7.03408e-05
1.1108e-07
7.0205e-05
1.35977e-07
7.00451e-05
1.6002e-07
6.98617e-05
1.83457e-07
6.96551e-05
2.06565e-07
6.94255e-05
2.29655e-07
6.91724e-05
2.5308e-07
6.8895e-05
2.77251e-07
6.85923e-05
3.02648e-07
6.82622e-05
3.29848e-07
6.79025e-05
3.59554e-07
6.75096e-05
3.92646e-07
6.70791e-05
4.30253e-07
6.6605e-05
4.73864e-07
6.60791e-05
5.25509e-07
6.54907e-05
5.88052e-07
6.48247e-05
6.65692e-07
6.40594e-05
7.64862e-07
6.31632e-05
8.95864e-07
6.20868e-05
1.07603e-06
6.07503e-05
1.336e-06
5.90166e-05
1.73329e-06
5.66288e-05
2.38739e-06
5.303e-05
3.59839e-06
6.69069e-06
4.6339e-05
1.27757e-05
-6.4352e-07
1.33427e-05
-1.10071e-06
1.41025e-05
-1.47253e-06
1.50226e-05
-1.78239e-06
1.60812e-05
-2.04997e-06
1.72636e-05
-2.28905e-06
1.85607e-05
-2.51042e-06
1.99674e-05
-2.72218e-06
2.14815e-05
-2.92939e-06
2.31017e-05
-3.13399e-06
2.48262e-05
-3.33492e-06
2.66512e-05
-3.52867e-06
2.85705e-05
-3.71003e-06
3.05745e-05
-3.87305e-06
3.26508e-05
-4.012e-06
3.47845e-05
-4.12207e-06
3.69588e-05
-4.1999e-06
3.9156e-05
-4.24373e-06
4.13585e-05
-4.2534e-06
4.3549e-05
-4.23013e-06
4.57117e-05
-4.17623e-06
4.78323e-05
-4.09479e-06
4.98984e-05
-3.98931e-06
5.18993e-05
-3.86353e-06
5.38264e-05
-3.72114e-06
5.5673e-05
-3.56566e-06
5.74339e-05
-3.40035e-06
5.91057e-05
-3.22813e-06
6.06859e-05
-3.05159e-06
6.21736e-05
-2.87295e-06
6.35687e-05
-2.6941e-06
6.48719e-05
-2.5166e-06
6.60844e-05
-2.34174e-06
6.72083e-05
-2.17057e-06
6.82459e-05
-2.00391e-06
6.91999e-05
-1.84238e-06
7.0073e-05
-1.68645e-06
7.08685e-05
-1.53647e-06
7.15896e-05
-1.39266e-06
7.22394e-05
-1.25513e-06
7.28212e-05
-1.12395e-06
7.33384e-05
-9.99103e-07
7.37942e-05
-8.8052e-07
7.41917e-05
-7.68093e-07
7.45341e-05
-6.61674e-07
7.48243e-05
-5.61089e-07
7.50654e-05
-4.66132e-07
7.526e-05
-3.76576e-07
7.54108e-05
-2.92171e-07
7.55204e-05
-2.12643e-07
7.55911e-05
-1.37697e-07
7.56252e-05
-6.70112e-08
7.56245e-05
-2.43426e-10
7.55911e-05
6.28551e-08
7.55266e-05
1.22599e-07
7.54327e-05
1.79305e-07
7.53106e-05
2.33364e-07
7.51615e-05
2.85201e-07
7.49864e-05
3.3528e-07
7.47858e-05
3.84107e-07
7.45602e-05
4.32248e-07
7.43095e-05
4.80334e-07
7.40334e-05
5.29082e-07
7.37313e-05
5.79319e-07
7.34018e-05
6.3201e-07
7.30432e-05
6.88303e-07
7.26529e-05
7.49589e-07
7.22277e-05
8.17594e-07
7.17632e-05
8.94502e-07
7.12536e-05
9.83157e-07
7.06914e-05
1.08736e-06
7.00667e-05
1.21235e-06
6.93665e-05
1.36557e-06
6.8573e-05
1.55796e-06
6.76623e-05
1.80611e-06
6.66019e-05
2.136e-06
6.53481e-05
2.5894e-06
6.38458e-05
3.23508e-06
6.20418e-05
4.19095e-06
5.99754e-05
5.66443e-06
7.94322e-06
5.87224e-05
1.36538e-05
-9.78877e-07
1.42513e-05
-1.69805e-06
1.50557e-05
-2.2767e-06
1.60328e-05
-2.75921e-06
1.7159e-05
-3.17577e-06
1.84183e-05
-3.5479e-06
1.9801e-05
-3.89256e-06
2.13019e-05
-4.22245e-06
2.29187e-05
-4.54554e-06
2.46504e-05
-4.86494e-06
2.64953e-05
-5.17903e-06
2.84498e-05
-5.48231e-06
3.05071e-05
-5.76656e-06
3.26574e-05
-6.02241e-06
3.48871e-05
-6.24077e-06
3.718e-05
-6.41405e-06
3.9518e-05
-6.53688e-06
4.18817e-05
-6.60646e-06
4.42518e-05
-6.62251e-06
4.66096e-05
-6.58695e-06
4.89378e-05
-6.5034e-06
5.12207e-05
-6.37669e-06
5.34448e-05
-6.21238e-06
5.55985e-05
-6.0163e-06
5.76727e-05
-5.79425e-06
5.96598e-05
-5.55177e-06
6.15544e-05
-5.29395e-06
6.33526e-05
-5.02539e-06
6.50521e-05
-4.75011e-06
6.66517e-05
-4.47158e-06
6.81514e-05
-4.19276e-06
6.95518e-05
-3.91609e-06
7.08546e-05
-3.64358e-06
7.20618e-05
-3.37685e-06
7.31759e-05
-3.11716e-06
7.41999e-05
-2.8655e-06
7.51369e-05
-2.6226e-06
7.59903e-05
-2.38897e-06
7.67634e-05
-2.16495e-06
7.74598e-05
-1.95075e-06
7.80831e-05
-1.74642e-06
7.86367e-05
-1.55196e-06
7.91241e-05
-1.36725e-06
7.95489e-05
-1.19211e-06
7.99142e-05
-1.02632e-06
8.02233e-05
-8.69587e-07
8.04794e-05
-7.21601e-07
8.06854e-05
-5.82002e-07
8.08442e-05
-4.50396e-07
8.09584e-05
-3.26358e-07
8.10306e-05
-2.09423e-07
8.10631e-05
-9.90934e-08
8.10581e-05
5.13593e-09
8.10177e-05
1.03687e-07
8.09435e-05
1.97032e-07
8.08374e-05
2.85688e-07
8.07008e-05
3.70255e-07
8.05347e-05
4.51388e-07
8.03404e-05
5.29794e-07
8.01183e-05
6.06249e-07
7.9869e-05
6.81606e-07
7.95925e-05
7.56817e-07
7.92886e-05
8.32956e-07
7.89566e-05
9.1125e-07
7.85953e-05
9.93118e-07
7.82032e-05
1.08023e-06
7.7778e-05
1.17459e-06
7.73167e-05
1.27864e-06
7.68155e-05
1.3954e-06
7.62696e-05
1.52872e-06
7.5673e-05
1.68361e-06
7.50182e-05
1.86669e-06
7.42965e-05
2.08692e-06
7.34973e-05
2.35668e-06
7.26097e-05
2.69327e-06
7.16242e-05
3.12107e-06
7.05389e-05
3.67423e-06
6.93741e-05
4.39937e-06
6.82083e-05
5.35627e-06
6.72675e-05
6.60484e-06
8.1324e-06
6.70778e-05
1.45902e-05
-1.31972e-06
1.5215e-05
-2.32269e-06
1.60623e-05
-3.1237e-06
1.70959e-05
-3.79245e-06
1.82902e-05
-4.3697e-06
1.96282e-05
-4.88535e-06
2.10994e-05
-5.36314e-06
2.26985e-05
-5.82091e-06
2.44236e-05
-6.26992e-06
2.6274e-05
-6.71459e-06
2.82486e-05
-7.15276e-06
3.03438e-05
-7.57669e-06
3.2553e-05
-7.97479e-06
3.48653e-05
-8.33376e-06
3.72662e-05
-8.6407e-06
3.97379e-05
-8.88476e-06
4.22604e-05
-9.0583e-06
4.48123e-05
-9.1573e-06
4.73722e-05
-9.18136e-06
4.99195e-05
-9.13314e-06
5.24349e-05
-9.01777e-06
5.49014e-05
-8.84207e-06
5.73039e-05
-8.61384e-06
5.963e-05
-8.3413e-06
6.18694e-05
-8.03259e-06
6.40142e-05
-7.69547e-06
6.60584e-05
-7.33709e-06
6.79979e-05
-6.96383e-06
6.98302e-05
-6.58134e-06
7.15541e-05
-6.19443e-06
7.31696e-05
-5.80721e-06
7.46776e-05
-5.42308e-06
7.60798e-05
-5.04481e-06
7.73786e-05
-4.67464e-06
7.85767e-05
-4.31433e-06
7.96774e-05
-3.96521e-06
8.0684e-05
-3.6283e-06
8.16002e-05
-3.30429e-06
8.24298e-05
-2.99364e-06
8.31766e-05
-2.69663e-06
8.38443e-05
-2.41333e-06
8.44368e-05
-2.1437e-06
8.4958e-05
-1.88758e-06
8.54113e-05
-1.64473e-06
8.58006e-05
-1.41481e-06
8.61291e-05
-1.19743e-06
8.64003e-05
-9.92136e-07
8.66173e-05
-7.9843e-07
8.67833e-05
-6.15765e-07
8.6901e-05
-4.43547e-07
8.69732e-05
-2.81136e-07
8.70025e-05
-1.2784e-07
8.6991e-05
1.70109e-08
8.69411e-05
1.54021e-07
8.68546e-05
2.83842e-07
8.67333e-05
4.07212e-07
8.65789e-05
5.24952e-07
8.63925e-05
6.37951e-07
8.61753e-05
7.47165e-07
8.5928e-05
8.53632e-07
8.56512e-05
9.58487e-07
8.5345e-05
1.06299e-06
8.50094e-05
1.16853e-06
8.46438e-05
1.27671e-06
8.42474e-05
1.38932e-06
8.3819e-05
1.50847e-06
8.33568e-05
1.63661e-06
8.28585e-05
1.77667e-06
8.23214e-05
1.93219e-06
8.17422e-05
2.10752e-06
8.11174e-05
2.30807e-06
8.0443e-05
2.54065e-06
7.97156e-05
2.81387e-06
7.89331e-05
3.13871e-06
7.8097e-05
3.52894e-06
7.7216e-05
4.00152e-06
7.63136e-05
4.57613e-06
7.54394e-05
5.27308e-06
7.46877e-05
6.10749e-06
7.42166e-05
7.07546e-06
8.12196e-06
7.42265e-05
1.55903e-05
-1.66489e-06
1.624e-05
-2.97223e-06
1.71284e-05
-4.01186e-06
1.82177e-05
-4.88143e-06
1.94807e-05
-5.63225e-06
2.0899e-05
-6.30309e-06
2.24617e-05
-6.92519e-06
2.41636e-05
-7.52215e-06
2.60035e-05
-8.10899e-06
2.79815e-05
-8.69172e-06
3.00972e-05
-9.26758e-06
3.23477e-05
-9.82625e-06
3.47261e-05
-1.03522e-05
3.72209e-05
-1.08275e-05
3.9816e-05
-1.12348e-05
4.24916e-05
-1.15593e-05
4.52252e-05
-1.17907e-05
4.79927e-05
-1.19237e-05
5.077e-05
-1.19575e-05
5.3534e-05
-1.1896e-05
5.62632e-05
-1.17459e-05
5.89387e-05
-1.15163e-05
6.15438e-05
-1.12178e-05
6.40647e-05
-1.08611e-05
6.64905e-05
-1.04572e-05
6.88123e-05
-1.00162e-05
7.10239e-05
-9.54756e-06
7.3121e-05
-9.05973e-06
7.51008e-05
-8.56005e-06
7.69624e-05
-8.05486e-06
7.87057e-05
-7.54948e-06
8.03321e-05
-7.04834e-06
8.18434e-05
-6.55504e-06
8.32423e-05
-6.07248e-06
8.45319e-05
-5.60292e-06
8.57158e-05
-5.14809e-06
8.67978e-05
-4.70926e-06
8.77818e-05
-4.28733e-06
8.8672e-05
-3.88288e-06
8.94725e-05
-3.49622e-06
9.01875e-05
-3.12745e-06
9.08212e-05
-2.7765e-06
9.13776e-05
-2.44315e-06
9.18607e-05
-2.12704e-06
9.22744e-05
-1.82774e-06
9.26225e-05
-1.54473e-06
9.29085e-05
-1.27741e-06
9.31358e-05
-1.02512e-06
9.33078e-05
-7.87152e-07
9.34276e-05
-5.62725e-07
9.3498e-05
-3.51011e-07
9.35218e-05
-1.51118e-07
9.35015e-05
3.7798e-08
9.34394e-05
2.16527e-07
9.33376e-05
3.85934e-07
9.31982e-05
5.46988e-07
9.30226e-05
7.00741e-07
9.28125e-05
8.48316e-07
9.25689e-05
9.90911e-07
9.22928e-05
1.12981e-06
9.19849e-05
1.26642e-06
9.16457e-05
1.40226e-06
9.12751e-05
1.53901e-06
9.08732e-05
1.67853e-06
9.04395e-05
1.82293e-06
8.99732e-05
1.97457e-06
8.94734e-05
2.13617e-06
8.89389e-05
2.31086e-06
8.83684e-05
2.5023e-06
8.77608e-05
2.71477e-06
8.71152e-05
2.95331e-06
8.64315e-05
3.22386e-06
8.57116e-05
3.53331e-06
8.49603e-05
3.88953e-06
8.41876e-05
4.30113e-06
8.34119e-05
4.77672e-06
8.2664e-05
5.32347e-06
8.19923e-05
5.94426e-06
8.14662e-05
6.6331e-06
8.11732e-05
7.36789e-06
8.0994e-06
8.11952e-05
1.66594e-05
-2.01421e-06
1.73324e-05
-3.64506e-06
1.82608e-05
-4.94002e-06
1.94055e-05
-6.02571e-06
2.07378e-05
-6.9641e-06
2.22384e-05
-7.8031e-06
2.38962e-05
-8.58224e-06
2.57065e-05
-9.33168e-06
2.76691e-05
-1.00708e-05
2.97859e-05
-1.08076e-05
3.20578e-05
-1.15385e-05
3.44826e-05
-1.22501e-05
3.70535e-05
-1.2922e-05
3.97579e-05
-1.35308e-05
4.25775e-05
-1.40533e-05
4.54897e-05
-1.44703e-05
4.84683e-05
-1.47682e-05
5.1486e-05
-1.49401e-05
5.45149e-05
-1.49853e-05
5.75289e-05
-1.49087e-05
6.05037e-05
-1.47194e-05
6.3418e-05
-1.44294e-05
6.62535e-05
-1.4052e-05
6.8995e-05
-1.36014e-05
7.16305e-05
-1.30914e-05
7.41507e-05
-1.25352e-05
7.6549e-05
-1.19446e-05
7.88208e-05
-1.13304e-05
8.09637e-05
-1.07017e-05
8.29767e-05
-1.00666e-05
8.48602e-05
-9.43176e-06
8.66156e-05
-8.80263e-06
8.82455e-05
-8.18373e-06
8.97527e-05
-7.57861e-06
9.1141e-05
-6.99009e-06
9.24143e-05
-6.42026e-06
9.35768e-05
-5.87069e-06
9.4633e-05
-5.34245e-06
9.55873e-05
-4.83623e-06
9.64445e-05
-4.35238e-06
9.7209e-05
-3.891e-06
9.78854e-05
-3.45195e-06
9.84781e-05
-3.03494e-06
9.89914e-05
-2.63952e-06
9.94296e-05
-2.2651e-06
9.97967e-05
-1.91102e-06
0.000100097
-1.57652e-06
0.000100333
-1.26077e-06
0.000100509
-9.62881e-07
0.000100629
-6.81873e-07
0.000100695
-4.16721e-07
0.000100711
-1.66324e-07
0.000100679
7.03457e-08
0.000100602
2.94273e-07
0.000100482
5.06562e-07
0.00010032
7.08424e-07
0.00010012
9.01145e-07
9.98828e-05
1.08607e-06
9.96093e-05
1.26464e-06
9.93008e-05
1.43835e-06
9.89585e-05
1.60883e-06
9.85829e-05
1.77783e-06
9.81747e-05
1.94722e-06
9.7734e-05
2.11906e-06
9.72612e-05
2.29561e-06
9.67562e-05
2.47935e-06
9.62191e-05
2.67302e-06
9.565e-05
2.87966e-06
9.50493e-05
3.10267e-06
9.44179e-05
3.34577e-06
9.37577e-05
3.61307e-06
9.30721e-05
3.90896e-06
9.2367e-05
4.23799e-06
9.16514e-05
4.60458e-06
9.09395e-05
5.01246e-06
9.0252e-05
5.46376e-06
8.96172e-05
5.9577e-06
8.90722e-05
6.48869e-06
8.86608e-05
7.04391e-06
8.84273e-05
7.60077e-06
8.12489e-06
8.84013e-05
1.78032e-05
-2.36836e-06
1.84988e-05
-4.34049e-06
1.94669e-05
-5.9078e-06
2.06671e-05
-7.22548e-06
2.20699e-05
-8.36645e-06
2.36555e-05
-9.38801e-06
2.54128e-05
-1.03389e-05
2.73387e-05
-1.12567e-05
2.94349e-05
-1.21662e-05
3.17056e-05
-1.30774e-05
3.41541e-05
-1.39859e-05
3.67793e-05
-1.48742e-05
3.95741e-05
-1.57157e-05
4.25242e-05
-1.64797e-05
4.56082e-05
-1.7136e-05
4.8799e-05
-1.76599e-05
5.2066e-05
-1.80338e-05
5.53766e-05
-1.82494e-05
5.86987e-05
-1.83061e-05
6.20021e-05
-1.82108e-05
6.52593e-05
-1.79753e-05
6.84463e-05
-1.7615e-05
7.1543e-05
-1.71473e-05
7.45329e-05
-1.659e-05
7.74032e-05
-1.59603e-05
8.01441e-05
-1.52747e-05
8.27487e-05
-1.45479e-05
8.52128e-05
-1.37931e-05
8.7534e-05
-1.30216e-05
8.97118e-05
-1.22431e-05
9.1747e-05
-1.14657e-05
9.36417e-05
-1.0696e-05
9.53987e-05
-9.93953e-06
9.70218e-05
-9.20045e-06
9.8515e-05
-8.48209e-06
9.98829e-05
-7.78698e-06
0.00010113
-7.11691e-06
0.000102262
-6.47313e-06
0.000103283
-5.85641e-06
0.000104199
-5.26712e-06
0.000105014
-4.70533e-06
0.000105734
-4.17083e-06
0.000106364
-3.66322e-06
0.000106907
-3.1819e-06
0.000107369
-2.72616e-06
0.000107754
-2.29514e-06
0.000108066
-1.88792e-06
0.00010831
-1.50348e-06
0.000108488
-1.14071e-06
0.000108605
-7.9844e-07
0.000108665
-4.75442e-07
0.000108669
-1.70401e-07
0.000108622
1.17913e-07
0.000108526
3.90693e-07
0.000108384
6.49303e-07
0.000108198
8.95203e-07
0.000107969
1.12991e-06
0.000107701
1.35497e-06
0.000107393
1.57203e-06
0.000107049
1.78279e-06
0.000106669
1.98904e-06
0.000106254
2.19269e-06
0.000105806
2.39574e-06
0.000105324
2.60032e-06
0.000104811
2.80871e-06
0.000104267
3.02332e-06
0.000103693
3.24673e-06
0.00010309
3.48162e-06
0.000102462
3.73084e-06
0.00010181
3.99727e-06
0.000101139
4.28378e-06
0.000100454
4.59305e-06
9.97644e-05
4.92734e-06
9.90803e-05
5.28812e-06
9.84167e-05
5.67558e-06
9.77919e-05
6.08789e-06
9.72286e-05
6.52048e-06
9.67516e-05
6.96506e-06
9.6386e-05
7.40889e-06
9.61518e-05
7.83443e-06
8.22037e-06
9.60557e-05
1.90274e-05
-2.72863e-06
1.97458e-05
-5.05877e-06
2.07541e-05
-6.91571e-06
2.20108e-05
-8.48179e-06
2.34864e-05
-9.84141e-06
2.51606e-05
-1.10616e-05
2.70238e-05
-1.22012e-05
2.9075e-05
-1.3307e-05
3.13196e-05
-1.44098e-05
3.37654e-05
-1.55222e-05
3.64187e-05
-1.66381e-05
3.928e-05
-1.77344e-05
4.23415e-05
-1.87759e-05
4.55855e-05
-1.97224e-05
4.89856e-05
-2.05349e-05
5.25086e-05
-2.11815e-05
5.61169e-05
-2.16408e-05
5.97718e-05
-2.19029e-05
6.34354e-05
-2.19684e-05
6.70728e-05
-2.18468e-05
7.0653e-05
-2.1554e-05
7.41492e-05
-2.11098e-05
7.75395e-05
-2.05362e-05
8.08064e-05
-1.98554e-05
8.39364e-05
-1.90889e-05
8.69197e-05
-1.82566e-05
8.97496e-05
-1.73764e-05
9.24221e-05
-1.64642e-05
9.49356e-05
-1.55337e-05
9.729e-05
-1.45962e-05
9.94871e-05
-1.36614e-05
0.00010153
-1.27371e-05
0.000103421
-1.18296e-05
0.000105166
-1.09439e-05
0.000106769
-1.00838e-05
0.000108235
-9.25213e-06
0.00010957
-8.45096e-06
0.00011078
-7.68165e-06
0.00011187
-6.94502e-06
0.000112845
-6.24144e-06
0.000113712
-5.57089e-06
0.000114475
-4.93307e-06
0.000115141
-4.32743e-06
0.000115713
-3.75323e-06
0.000116197
-3.20955e-06
0.000116599
-2.69538e-06
0.000116921
-2.20955e-06
0.000117169
-1.75086e-06
0.000117347
-1.31797e-06
0.000117459
-9.09524e-07
0.000117508
-5.24054e-07
0.000117499
-1.60049e-07
0.000117433
1.83949e-07
0.000117315
5.09362e-07
0.000117147
8.17827e-07
0.000116932
1.11105e-06
0.000116671
1.39075e-06
0.000116368
1.65868e-06
0.000116023
1.91664e-06
0.00011564
2.16649e-06
0.000115219
2.41014e-06
0.000114762
2.64957e-06
0.000114271
2.88683e-06
0.000113747
3.12403e-06
0.000113192
3.36332e-06
0.000112608
3.60692e-06
0.000111998
3.85705e-06
0.000111363
4.11593e-06
0.000110708
4.38567e-06
0.000110037
4.66822e-06
0.000109355
4.96522e-06
0.000108669
5.27783e-06
0.00010799
5.60652e-06
0.000107326
5.95072e-06
0.000106693
6.30856e-06
0.000106104
6.67644e-06
0.000105575
7.04872e-06
0.000105122
7.41749e-06
0.000104758
7.77256e-06
0.000104489
8.10191e-06
8.39316e-06
0.000104316
2.03378e-05
-3.09681e-06
2.10803e-05
-5.80106e-06
2.21302e-05
-7.96526e-06
2.34456e-05
-9.79675e-06
2.49971e-05
-1.13923e-05
2.67654e-05
-1.28292e-05
2.87432e-05
-1.41782e-05
3.09337e-05
-1.54966e-05
3.33477e-05
-1.68227e-05
3.59985e-05
-1.81719e-05
3.88964e-05
-1.95348e-05
4.20432e-05
-2.08798e-05
4.54284e-05
-2.21599e-05
4.90291e-05
-2.33217e-05
5.28107e-05
-2.43151e-05
5.6731e-05
-2.51002e-05
6.07434e-05
-2.56517e-05
6.4801e-05
-2.5959e-05
6.88595e-05
-2.60253e-05
7.28786e-05
-2.58643e-05
7.68236e-05
-2.54974e-05
8.06655e-05
-2.49502e-05
8.43809e-05
-2.425e-05
8.79516e-05
-2.34246e-05
9.13642e-05
-2.24999e-05
9.46091e-05
-2.14999e-05
9.76804e-05
-2.04462e-05
0.000100575
-1.93572e-05
0.000103292
-1.82491e-05
0.000105832
-1.71351e-05
0.000108199
-1.60264e-05
0.000110395
-1.49319e-05
0.000112426
-1.38589e-05
0.000114296
-1.28128e-05
0.000116012
-1.17981e-05
0.000117579
-1.08179e-05
0.000119003
-9.87429e-06
0.000120292
-8.96886e-06
0.000121451
-8.10239e-06
0.000122486
-7.27517e-06
0.000123403
-6.4871e-06
0.000124209
-5.73772e-06
0.000124909
-5.0263e-06
0.000125509
-4.35191e-06
0.000126014
-3.71343e-06
0.000126429
-3.1096e-06
0.000126759
-2.53906e-06
0.00012701
-2.00035e-06
0.000127184
-1.49194e-06
0.000127288
-1.0122e-06
0.000127324
-5.59494e-07
0.000127297
-1.32093e-07
0.00012721
2.71709e-07
0.000127066
6.53597e-07
0.000126869
1.01549e-06
0.000126621
1.3593e-06
0.000126325
1.68696e-06
0.000125984
2.00037e-06
0.000125599
2.30147e-06
0.000125174
2.59222e-06
0.000124709
2.8746e-06
0.000124208
3.15059e-06
0.000123673
3.4222e-06
0.000123105
3.69143e-06
0.000122508
3.96022e-06
0.000121885
4.23051e-06
0.000121237
4.50409e-06
0.00012057
4.78261e-06
0.000119888
5.06749e-06
0.000119196
5.35982e-06
0.000118501
5.66022e-06
0.000117809
5.96875e-06
0.00011713
6.28469e-06
0.000116474
6.60641e-06
0.000115851
6.93118e-06
0.000115272
7.25507e-06
0.000114747
7.57291e-06
0.000114285
7.87833e-06
0.000113893
8.1641e-06
0.000113572
8.42257e-06
8.64694e-06
0.000113317
2.17406e-05
-3.47502e-06
2.25091e-05
-6.56936e-06
2.36032e-05
-9.05895e-06
2.49807e-05
-1.11737e-05
2.66129e-05
-1.30238e-05
2.84831e-05
-1.46985e-05
3.05881e-05
-1.62823e-05
3.29381e-05
-1.78455e-05
3.55519e-05
-1.94354e-05
3.84505e-05
-2.10693e-05
4.16485e-05
-2.27315e-05
4.51474e-05
-2.43774e-05
4.89315e-05
-2.59425e-05
5.2968e-05
-2.73566e-05
5.72102e-05
-2.85558e-05
6.16034e-05
-2.94919e-05
6.60897e-05
-3.01363e-05
7.06126e-05
-3.04803e-05
7.51206e-05
-3.05316e-05
7.95684e-05
-3.03105e-05
8.39181e-05
-2.98454e-05
8.81389e-05
-2.91693e-05
9.22068e-05
-2.83163e-05
9.61039e-05
-2.73199e-05
9.98172e-05
-2.62115e-05
0.000103338
-2.50195e-05
0.000106663
-2.37688e-05
0.000109788
-2.24812e-05
0.000112716
-2.11749e-05
0.000115448
-1.98652e-05
0.000117987
-1.85647e-05
0.00012034
-1.72833e-05
0.000122512
-1.60291e-05
0.000124509
-1.48083e-05
0.000126338
-1.36255e-05
0.000128006
-1.24841e-05
0.000129519
-1.13864e-05
0.000130886
-1.03339e-05
0.000132112
-9.32736e-06
0.000133205
-8.36694e-06
0.000134172
-7.45237e-06
0.000135018
-6.583e-06
0.000135751
-5.7579e-06
0.000136376
-4.97588e-06
0.0001369
-4.23558e-06
0.000137327
-3.53551e-06
0.000137663
-2.87406e-06
0.000137913
-2.2495e-06
0.000138082
-1.66007e-06
0.000138174
-1.10391e-06
0.000138195
-5.79143e-07
0.000138148
-8.39009e-08
0.000138036
3.83807e-07
0.000137864
8.25993e-07
0.000137636
1.24483e-06
0.000137353
1.64245e-06
0.000137019
2.0209e-06
0.000136638
2.38224e-06
0.000136211
2.72851e-06
0.000135742
3.06172e-06
0.000135233
3.38385e-06
0.000134686
3.69685e-06
0.000134106
4.00263e-06
0.000133494
4.303e-06
0.000132855
4.59969e-06
0.000132191
4.89426e-06
0.000131507
5.1881e-06
0.000130806
5.48235e-06
0.000130096
5.77784e-06
0.00012938
6.07498e-06
0.000128666
6.37372e-06
0.000127961
6.67345e-06
0.000127272
6.9729e-06
0.000126608
7.27007e-06
0.000125976
7.56223e-06
0.000125385
7.84593e-06
0.00012484
8.11705e-06
0.000124346
8.37104e-06
0.000123907
8.60313e-06
0.00012352
8.80882e-06
8.98469e-06
0.000123181
2.32422e-05
-3.86563e-06
2.40396e-05
-7.36651e-06
2.51814e-05
-1.02004e-05
2.66257e-05
-1.26174e-05
2.83458e-05
-1.47432e-05
3.0329e-05
-1.66809e-05
3.25799e-05
-1.85321e-05
3.5119e-05
-2.03835e-05
3.79769e-05
-2.22921e-05
4.11839e-05
-2.42749e-05
4.47583e-05
-2.63045e-05
4.86976e-05
-2.83152e-05
5.29752e-05
-3.02185e-05
5.75425e-05
-3.19223e-05
6.23359e-05
-3.33475e-05
6.72845e-05
-3.44387e-05
7.23169e-05
-3.5167e-05
7.73668e-05
-3.55285e-05
8.23757e-05
-3.55387e-05
8.72941e-05
-3.52271e-05
9.2082e-05
-3.46315e-05
9.67081e-05
-3.37936e-05
0.000101149
-3.27553e-05
0.000105388
-3.15569e-05
0.000109413
-3.02352e-05
0.000113219
-2.88233e-05
0.000116802
-2.73499e-05
0.000120162
-2.58396e-05
0.000123302
-2.43129e-05
0.000126225
-2.27871e-05
0.000128938
-2.12757e-05
0.000131447
-1.979e-05
0.000133758
-1.83386e-05
0.000135879
-1.69281e-05
0.000137819
-1.55635e-05
0.000139585
-1.42482e-05
0.000141184
-1.29845e-05
0.000142626
-1.1774e-05
0.000143917
-1.06171e-05
0.000145066
-9.51394e-06
0.000146079
-8.46395e-06
0.000146963
-7.46624e-06
0.000147726
-6.51961e-06
0.000148374
-5.6226e-06
0.000148913
-4.77359e-06
0.00014935
-3.97079e-06
0.000149689
-3.2123e-06
0.000149937
-2.49616e-06
0.000150098
-1.82033e-06
0.000150178
-1.1827e-06
0.000150181
-5.81138e-07
0.000150112
-1.37358e-08
0.000149974
5.21806e-07
0.000149773
1.02801e-06
0.000149511
1.5072e-06
0.000149193
1.96164e-06
0.00014882
2.39354e-06
0.000148398
2.80504e-06
0.000147929
3.19825e-06
0.000147415
3.5752e-06
0.000146861
3.93785e-06
0.00014627
4.28807e-06
0.000145645
4.62762e-06
0.00014499
4.95815e-06
0.000144309
5.2811e-06
0.000143605
5.59776e-06
0.000142884
5.90915e-06
0.00014215
6.216e-06
0.000141408
6.51873e-06
0.000140666
6.81735e-06
0.000139927
7.11144e-06
0.0001392
7.40014e-06
0.00013849
7.68207e-06
0.000137804
7.9554e-06
0.000137148
8.21783e-06
0.000136527
8.4667e-06
0.000135944
8.69913e-06
0.000135402
8.91211e-06
0.000134902
9.10281e-06
0.000134441
9.26881e-06
9.4087e-06
0.000134016
2.48493e-05
-4.27129e-06
2.56793e-05
-8.1962e-06
2.68736e-05
-1.13943e-05
2.83914e-05
-1.41345e-05
3.02093e-05
-1.65604e-05
3.23223e-05
-1.87929e-05
3.47466e-05
-2.09554e-05
3.75188e-05
-2.31545e-05
4.06849e-05
-2.54569e-05
4.42851e-05
-2.78737e-05
4.83377e-05
-3.03556e-05
5.28292e-05
-3.28052e-05
5.77137e-05
-3.51013e-05
6.29195e-05
-3.71264e-05
6.83607e-05
-3.87869e-05
7.39475e-05
-4.00237e-05
7.95947e-05
-4.08123e-05
8.52264e-05
-4.11583e-05
9.07787e-05
-4.1089e-05
9.61998e-05
-4.06462e-05
0.000101449
-3.98792e-05
0.000106497
-3.88395e-05
0.000111322
-3.75779e-05
0.000115909
-3.61417e-05
0.000120249
-3.45737e-05
0.000124339
-3.29115e-05
0.000128179
-3.11874e-05
0.00013177
-2.94289e-05
0.000135118
-2.76587e-05
0.000138228
-2.58954e-05
0.000141108
-2.41539e-05
0.000143766
-2.24462e-05
0.000146211
-2.07814e-05
0.000148451
-1.91664e-05
0.000150495
-1.76063e-05
0.000152353
-1.61045e-05
0.000154034
-1.46634e-05
0.000155546
-1.3284e-05
0.000156897
-1.1967e-05
0.000158096
-1.07118e-05
0.000159152
-9.5178e-06
0.000160071
-8.38374e-06
0.000160861
-7.30808e-06
0.000161529
-6.28907e-06
0.000162081
-5.32475e-06
0.000162525
-4.41303e-06
0.000162865
-3.55173e-06
0.000163109
-2.73858e-06
0.000163261
-1.97129e-06
0.000163327
-1.24751e-06
0.000163312
-5.64914e-07
0.00016322
7.87979e-08
0.000163056
6.86152e-07
0.000162825
1.25987e-06
0.000162531
1.80253e-06
0.000162176
2.31654e-06
0.000161766
2.80423e-06
0.000161304
3.26782e-06
0.000160793
3.70946e-06
0.000160237
4.13116e-06
0.000159641
4.53485e-06
0.000159006
4.92231e-06
0.000158339
5.29517e-06
0.000157642
5.65489e-06
0.000156921
6.00272e-06
0.000156178
6.3397e-06
0.000155421
6.66661e-06
0.000154652
6.98393e-06
0.000153879
7.29186e-06
0.000153106
7.59023e-06
0.000152338
7.87855e-06
0.000151582
8.15601e-06
0.000150842
8.42145e-06
0.000150123
8.67343e-06
0.00014943
8.9103e-06
0.000148766
9.13027e-06
0.000148133
9.33153e-06
0.000147532
9.51236e-06
0.000146963
9.67129e-06
0.000146423
9.80723e-06
9.92002e-06
0.000145911
2.65691e-05
-4.69488e-06
2.74363e-05
-9.0631e-06
2.86895e-05
-1.26469e-05
3.02899e-05
-1.57343e-05
3.22204e-05
-1.849e-05
3.44879e-05
-2.10593e-05
3.71274e-05
-2.35938e-05
4.01975e-05
-2.62232e-05
4.37629e-05
-2.90209e-05
4.78712e-05
-3.19804e-05
5.25324e-05
-3.50151e-05
5.77105e-05
-3.79815e-05
6.33293e-05
-4.07183e-05
6.92865e-05
-4.30817e-05
7.54699e-05
-4.49684e-05
8.17702e-05
-4.6322e-05
8.80895e-05
-4.71295e-05
9.43448e-05
-4.74116e-05
0.00010047
-4.72116e-05
0.000106412
-4.65865e-05
0.000112134
-4.55986e-05
0.000117607
-4.43108e-05
0.000122814
-4.2783e-05
0.000127745
-4.10698e-05
0.000132393
-3.92198e-05
0.000136759
-3.7275e-05
0.000140844
-3.52712e-05
0.000144656
-3.32382e-05
0.0001482
-3.12008e-05
0.000151486
-2.91787e-05
0.000154522
-2.71879e-05
0.000157318
-2.52408e-05
0.000159886
-2.33468e-05
0.000162234
-2.1513e-05
0.000164374
-1.97444e-05
0.000166316
-1.80443e-05
0.000168069
-1.64147e-05
0.000169644
-1.48566e-05
0.000171048
-1.337e-05
0.000172293
-1.19544e-05
0.000173385
-1.06084e-05
0.000174333
-9.33061e-06
0.000175146
-8.11906e-06
0.00017583
-6.97162e-06
0.000176393
-5.88599e-06
0.000176841
-4.85975e-06
0.000177181
-3.89037e-06
0.000177419
-2.97531e-06
0.000177561
-2.11199e-06
0.000177612
-1.29783e-06
0.000177579
-5.30267e-07
0.000177465
1.93385e-07
0.000177276
8.75929e-07
0.000177017
1.52025e-06
0.000176691
2.1291e-06
0.000176303
2.70504e-06
0.000175857
3.25049e-06
0.000175358
3.76774e-06
0.000174809
4.25896e-06
0.000174214
4.72616e-06
0.000173578
5.17123e-06
0.000172905
5.59585e-06
0.000172199
6.00157e-06
0.000171464
6.38972e-06
0.000170705
6.76141e-06
0.000169927
7.11754e-06
0.000169135
7.45876e-06
0.000168333
7.78546e-06
0.000167527
8.09779e-06
0.000166721
8.39563e-06
0.00016592
8.6786e-06
0.00016513
8.94613e-06
0.000164353
9.19744e-06
0.000163594
9.43162e-06
0.000162856
9.64768e-06
0.000162141
9.84462e-06
0.000161451
1.00215e-05
0.000160785
1.01776e-05
0.000160143
1.03124e-05
0.000159524
1.04256e-05
1.05178e-05
0.000158925
2.84093e-05
-5.13967e-06
2.93195e-05
-9.97304e-06
3.06399e-05
-1.39668e-05
3.23359e-05
-1.74296e-05
3.44007e-05
-2.05538e-05
3.68603e-05
-2.35179e-05
3.97776e-05
-2.65098e-05
4.32398e-05
-2.9684e-05
4.73306e-05
-3.31101e-05
5.20964e-05
-3.67444e-05
5.75237e-05
-4.04406e-05
6.35389e-05
-4.39948e-05
7.00241e-05
-4.72015e-05
7.68405e-05
-4.9896e-05
8.38485e-05
-5.19742e-05
9.09216e-05
-5.33929e-05
9.79526e-05
-5.41583e-05
0.000104856
-5.43121e-05
0.000111564
-5.39179e-05
0.00011803
-5.30497e-05
0.000124218
-5.17846e-05
0.000130107
-5.01973e-05
0.000135683
-4.83568e-05
0.00014094
-4.63249e-05
0.000145878
-4.41556e-05
0.000150501
-4.1895e-05
0.000154814
-3.9582e-05
0.000158826
-3.72484e-05
0.000162548
-3.49204e-05
0.000165991
-3.26189e-05
0.000169165
-3.03603e-05
0.000172084
-2.81573e-05
0.000174759
-2.60194e-05
0.000177202
-2.39535e-05
0.000179424
-2.19644e-05
0.000181437
-2.00551e-05
0.000183251
-1.82273e-05
0.000184878
-1.64814e-05
0.000186327
-1.48172e-05
0.000187608
-1.32334e-05
0.00018873
-1.17286e-05
0.000189702
-1.03006e-05
0.000190532
-8.94722e-06
0.000191228
-7.66582e-06
0.000191797
-6.45374e-06
0.000192247
-5.30817e-06
0.000192584
-4.22625e-06
0.000192815
-3.20512e-06
0.000192947
-2.24191e-06
0.000192984
-1.33377e-06
0.000192933
-4.77907e-07
0.000192798
3.28713e-07
0.000192586
1.08918e-06
0.000192301
1.80658e-06
0.000191947
2.48378e-06
0.000191529
3.12348e-06
0.000191052
3.72819e-06
0.00019052
4.30025e-06
0.000189938
4.84186e-06
0.00018931
5.35504e-06
0.00018864
5.84164e-06
0.000187932
6.30333e-06
0.000187192
6.74157e-06
0.000186425
7.15763e-06
0.000185633
7.5526e-06
0.000184824
7.92732e-06
0.000184
8.28245e-06
0.000183167
8.6184e-06
0.000182329
8.93544e-06
0.00018149
9.23359e-06
0.000180656
9.51276e-06
0.000179829
9.7727e-06
0.000179013
1.00131e-05
0.00017821
1.02335e-05
0.000177424
1.04336e-05
0.000176655
1.0613e-05
0.000175904
1.07716e-05
0.000175172
1.09091e-05
0.000174458
1.10258e-05
0.00017376
1.11221e-05
1.11989e-05
0.000173079
3.0378e-05
-5.60946e-06
3.13387e-05
-1.09334e-05
3.27377e-05
-1.53652e-05
3.4548e-05
-1.9239e-05
3.67796e-05
-2.27845e-05
3.94887e-05
-2.62257e-05
4.27763e-05
-2.9796e-05
4.67639e-05
-3.367e-05
5.15472e-05
-3.78918e-05
5.71535e-05
-4.23489e-05
6.35248e-05
-4.68099e-05
7.05321e-05
-5.10001e-05
7.80072e-05
-5.46744e-05
8.57732e-05
-5.76597e-05
9.36666e-05
-5.98654e-05
0.000101549
-6.12725e-05
0.000109308
-6.19153e-05
0.000116861
-6.1862e-05
0.000124144
-6.11989e-05
0.000131116
-6.00193e-05
0.00013775
-5.84153e-05
0.000144028
-5.64733e-05
0.000149945
-5.42712e-05
0.000155501
-5.18777e-05
0.000160699
-4.93514e-05
0.000165549
-4.67421e-05
0.00017006
-4.40909e-05
0.000174246
-4.14315e-05
0.000178119
-3.87909e-05
0.000181693
-3.61906e-05
0.000184982
-3.36472e-05
0.000188
-3.11733e-05
0.000190762
-2.87782e-05
0.000193279
-2.64685e-05
0.000195566
-2.42485e-05
0.000197633
-2.21208e-05
0.000199495
-2.00864e-05
0.000201161
-1.81453e-05
0.000202642
-1.62966e-05
0.00020395
-1.45386e-05
0.000205092
-1.28693e-05
0.00020608
-1.1286e-05
0.00020692
-9.78604e-06
0.000207623
-8.36633e-06
0.000208195
-7.02377e-06
0.000208643
-5.75516e-06
0.000208976
-4.55727e-06
0.000209199
-3.42689e-06
0.00020932
-2.36084e-06
0.000209343
-1.35601e-06
0.000209276
-4.09351e-07
0.000209123
4.82502e-07
0.000208891
1.32292e-06
0.000208583
2.11515e-06
0.000208206
2.86221e-06
0.000207763
3.56689e-06
0.000207261
4.23181e-06
0.000206702
4.85936e-06
0.000206093
5.4518e-06
0.000205437
6.01116e-06
0.00020474
6.53931e-06
0.000204006
7.03792e-06
0.000203239
7.50846e-06
0.000202445
7.95223e-06
0.000201627
8.37032e-06
0.000200791
8.76365e-06