/*--------------------------------*- C++ -*----------------------------------*\
  =========                 |
  \\      /  F ield         | OpenFOAM: The Open Source CFD Toolbox
   \\    /   O peration     | Website:  https://openfoam.org
    \\  /    A nd           | Version:  7
     \\/     M anipulation  |
\*---------------------------------------------------------------------------*/
FoamFile
{
    version     2.0;
    format      ascii;
    class       volScalarField;
    location    "8.96";
    object      T;
}
// * * * * * * * * * * * * * * * * * * * * * * * * * * * * * * * * * * * * * //

dimensions      [0 0 0 1 0 0 0];

internalField   nonuniform List<scalar> 
12013
(
300.139
300.421
300.71
301.002
301.297
301.59
301.882
302.17
302.453
302.73
303
303.262
303.517
303.762
303.999
304.227
304.447
304.658
304.861
305.056
305.244
305.424
305.597
305.763
305.923
306.078
306.226
306.37
306.509
306.644
306.775
306.902
307.027
307.149
307.27
307.389
307.508
307.627
307.748
307.87
307.996
308.126
308.261
308.403
308.554
308.715
308.889
309.077
309.282
309.506
309.753
310.025
310.327
310.661
311.033
311.447
311.908
312.422
312.995
313.632
314.343
315.134
316.013
316.992
318.08
319.288
320.629
322.117
323.769
325.602
327.636
329.896
332.409
335.209
338.338
341.848
345.808
350.317
355.52
361.662
369.206
300.139
300.421
300.71
301.003
301.297
301.591
301.883
302.171
302.455
302.732
303.002
303.264
303.518
303.764
304.001
304.23
304.449
304.661
304.864
305.059
305.246
305.426
305.599
305.766
305.926
306.08
306.229
306.373
306.512
306.647
306.778
306.905
307.03
307.152
307.272
307.392
307.511
307.63
307.75
307.873
307.998
308.128
308.263
308.406
308.556
308.717
308.891
309.079
309.283
309.507
309.754
310.026
310.327
310.661
311.033
311.446
311.906
312.419
312.99
313.627
314.336
315.125
316.003
316.979
318.064
319.268
320.604
322.087
323.732
325.556
327.579
329.825
332.32
335.095
338.189
341.65
345.536
349.926
354.92
360.643
367.207
300.139
300.422
300.711
301.004
301.299
301.593
301.885
302.174
302.457
302.735
303.005
303.268
303.522
303.768
304.006
304.234
304.454
304.666
304.869
305.064
305.252
305.432
305.605
305.772
305.932
306.087
306.236
306.379
306.518
306.653
306.784
306.911
307.036
307.158
307.279
307.398
307.517
307.636
307.756
307.879
308.004
308.133
308.269
308.411
308.561
308.722
308.895
309.082
309.286
309.51
309.756
310.027
310.327
310.661
311.031
311.443
311.901
312.412
312.982
313.615
314.321
315.106
315.98
316.95
318.028
319.224
320.551
322.022
323.652
325.457
327.456
329.671
332.126
334.848
337.87
341.23
344.971
349.141
353.788
358.94
364.56
300.139
300.423
300.712
301.006
301.301
301.596
301.889
302.178
302.462
302.74
303.011
303.274
303.529
303.776
304.013
304.242
304.463
304.675
304.878
305.074
305.262
305.442
305.615
305.782
305.943
306.097
306.246
306.39
306.529
306.664
306.795
306.922
307.047
307.169
307.289
307.408
307.527
307.646
307.766
307.888
308.013
308.143
308.277
308.419
308.569
308.729
308.902
309.088
309.292
309.514
309.759
310.029
310.328
310.66
311.028
311.438
311.894
312.401
312.967
313.596
314.297
315.076
315.942
316.903
317.97
319.153
320.464
321.915
323.52
325.295
327.256
329.423
331.815
334.456
337.37
340.583
344.121
348.007
352.249
356.829
361.676
300.14
300.424
300.714
301.008
301.305
301.6
301.894
302.184
302.469
302.748
303.019
303.283
303.539
303.786
304.025
304.254
304.475
304.687
304.891
305.087
305.276
305.456
305.63
305.797
305.958
306.112
306.262
306.405
306.545
306.679
306.81
306.938
307.062
307.184
307.305
307.424
307.542
307.661
307.781
307.902
308.027
308.156
308.29
308.431
308.581
308.74
308.912
309.098
309.3
309.521
309.764
310.033
310.329
310.658
311.024
311.43
311.882
312.386
312.946
313.569
314.261
315.031
315.886
316.835
317.886
319.05
320.338
321.761
323.332
325.064
326.972
329.072
331.38
333.913
336.687
339.718
343.016
346.587
350.418
354.476
358.696
300.14
300.425
300.717
301.012
301.309
301.606
301.901
302.192
302.478
302.758
303.031
303.296
303.553
303.801
304.04
304.27
304.492
304.705
304.91
305.106
305.295
305.476
305.65
305.818
305.979
306.134
306.283
306.427
306.566
306.701
306.832
306.96
307.084
307.206
307.326
307.445
307.563
307.681
307.801
307.922
308.046
308.175
308.308
308.449
308.597
308.756
308.926
309.11
309.311
309.53
309.772
310.037
310.331
310.657
311.019
311.421
311.867
312.364
312.917
313.531
314.213
314.971
315.811
316.742
317.773
318.912
320.169
321.555
323.081
324.758
326.599
328.615
330.818
333.22
335.831
338.656
341.697
344.946
348.386
351.981
355.679
300.141
300.427
300.72
301.017
301.316
301.615
301.911
302.204
302.491
302.772
303.047
303.313
303.571
303.82
304.061
304.292
304.515
304.729
304.934
305.131
305.321
305.503
305.677
305.845
306.007
306.162
306.312
306.456
306.595
306.73
306.861
306.989
307.113
307.235
307.354
307.473
307.591
307.709
307.828
307.948
308.072
308.2
308.332
308.472
308.619
308.776
308.945
309.128
309.326
309.543
309.782
310.044
310.335
310.656
311.013
311.409
311.848
312.337
312.88
313.483
314.152
314.894
315.715
316.624
317.628
318.735
319.954
321.294
322.765
324.375
326.134
328.051
330.133
332.388
334.819
337.426
340.204
343.143
346.22
349.406
352.662
300.142
300.43
300.725
301.024
301.324
301.625
301.923
302.218
302.507
302.791
303.067
303.335
303.594
303.845
304.087
304.32
304.544
304.759
304.966
305.164
305.354
305.537
305.712
305.881
306.043
306.199
306.348
306.493
306.633
306.768
306.899
307.026
307.15
307.272
307.391
307.51
307.627
307.744
307.863
307.983
308.105
308.232
308.364
308.502
308.647
308.803
308.97
309.15
309.346
309.56
309.795
310.054
310.339
310.656
311.006
311.394
311.825
312.304
312.835
313.424
314.076
314.798
315.597
316.478
317.449
318.518
319.691
320.977
322.382
323.914
325.58
327.385
329.335
331.431
333.674
336.06
338.581
341.225
343.971
346.796
349.67
300.143
300.433
300.73
301.032
301.335
301.638
301.939
302.236
302.528
302.814
303.092
303.362
303.624
303.877
304.121
304.355
304.581
304.798
305.006
305.205
305.397
305.58
305.757
305.926
306.089
306.245
306.395
306.54
306.68
306.815
306.946
307.074
307.198
307.319
307.438
307.556
307.673
307.79
307.907
308.026
308.148
308.273
308.403
308.54
308.684
308.837
309.002
309.179
309.372
309.583
309.813
310.067
310.347
310.656
310.999
311.378
311.799
312.265
312.781
313.353
313.986
314.685
315.455
316.304
317.237
318.261
319.381
320.604
321.935
323.38
324.943
326.628
328.436
330.368
332.421
334.59
336.865
339.234
341.681
344.185
346.725
300.144
300.437
300.737
301.042
301.348
301.654
301.958
302.259
302.554
302.842
303.123
303.396
303.661
303.916
304.162
304.399
304.627
304.845
305.055
305.256
305.449
305.634
305.812
305.982
306.146
306.303
306.454
306.599
306.739
306.875
307.006
307.133
307.257
307.378
307.497
307.614
307.73
307.846
307.963
308.081
308.201
308.325
308.454
308.588
308.73
308.881
309.042
309.217
309.406
309.612
309.837
310.085
310.358
310.659
310.993
311.361
311.769
312.221
312.72
313.272
313.881
314.553
315.292
316.103
316.993
317.965
319.026
320.179
321.429
322.78
324.234
325.793
327.456
329.223
331.088
333.047
335.09
337.206
339.382
341.601
343.846
300.146
300.443
300.746
301.054
301.364
301.674
301.982
302.286
302.585
302.877
303.162
303.438
303.706
303.965
304.214
304.453
304.683
304.904
305.116
305.32
305.514
305.701
305.88
306.052
306.216
306.374
306.526
306.672
306.813
306.948
307.08
307.207
307.33
307.451
307.569
307.686
307.801
307.916
308.032
308.148
308.267
308.389
308.516
308.648
308.787
308.935
309.093
309.264
309.448
309.649
309.869
310.109
310.374
310.666
310.989
311.345
311.738
312.173
312.653
313.182
313.764
314.405
315.108
315.877
316.718
317.635
318.63
319.709
320.873
322.124
323.465
324.895
326.414
328.017
329.702
331.462
333.289
335.174
337.104
339.069
341.053
300.148
300.449
300.757
301.069
301.384
301.699
302.011
302.32
302.623
302.92
303.209
303.49
303.761
304.023
304.276
304.519
304.752
304.976
305.191
305.397
305.594
305.783
305.963
306.137
306.303
306.462
306.614
306.761
306.902
307.038
307.17
307.297
307.42
307.541
307.658
307.774
307.889
308.002
308.116
308.232
308.349
308.469
308.593
308.722
308.859
309.003
309.157
309.323
309.502
309.697
309.909
310.142
310.398
310.679
310.989
311.331
311.708
312.124
312.581
313.084
313.637
314.244
314.907
315.631
316.42
317.276
318.202
319.202
320.276
321.426
322.653
323.955
325.331
326.777
328.29
329.864
331.491
333.164
334.874
336.61
338.362
300.151
300.456
300.77
301.088
301.408
301.728
302.046
302.361
302.669
302.972
303.266
303.551
303.828
304.095
304.352
304.599
304.836
305.063
305.281
305.49
305.69
305.881
306.064
306.24
306.407
306.568
306.722
306.869
307.011
307.147
307.279
307.406
307.529
307.649
307.766
307.881
307.994
308.107
308.22
308.333
308.448
308.566
308.687
308.813
308.946
309.087
309.236
309.397
309.57
309.758
309.963
310.186
310.432
310.701
310.997
311.323
311.682
312.076
312.509
312.984
313.505
314.074
314.694
315.37
316.103
316.896
317.751
318.669
319.653
320.701
321.814
322.991
324.23
325.527
326.878
328.279
329.723
331.204
332.714
334.246
335.791
300.154
300.465
300.785
301.11
301.436
301.763
302.088
302.409
302.725
303.033
303.334
303.625
303.908
304.18
304.442
304.694
304.936
305.168
305.39
305.603
305.806
306
306.186
306.364
306.533
306.695
306.851
306.999
307.142
307.279
307.411
307.538
307.661
307.78
307.896
308.01
308.122
308.233
308.344
308.455
308.568
308.683
308.801
308.924
309.053
309.189
309.333
309.488
309.655
309.835
310.031
310.245
310.478
310.735
311.016
311.324
311.662
312.034
312.44
312.885
313.371
313.901
314.477
315.102
315.777
316.505
317.288
318.125
319.018
319.966
320.969
322.026
323.134
324.29
325.491
326.732
328.009
329.316
330.647
331.996
333.357
300.157
300.476
300.803
301.136
301.471
301.806
302.139
302.467
302.791
303.107
303.415
303.714
304.003
304.282
304.55
304.809
305.056
305.293
305.52
305.737
305.945
306.143
306.332
306.512
306.684
306.848
307.005
307.155
307.299
307.436
307.568
307.695
307.818
307.937
308.052
308.165
308.276
308.385
308.494
308.603
308.713
308.825
308.94
309.059
309.183
309.314
309.452
309.601
309.76
309.932
310.118
310.321
310.542
310.784
311.049
311.338
311.655
312.002
312.381
312.794
313.244
313.733
314.263
314.836
315.453
316.116
316.826
317.583
318.387
319.239
320.137
321.079
322.064
323.09
324.152
325.247
326.372
327.522
328.692
329.878
331.073
300.161
300.489
300.825
301.167
301.511
301.855
302.198
302.536
302.869
303.194
303.511
303.819
304.116
304.403
304.679
304.944
305.199
305.442
305.675
305.897
306.11
306.312
306.505
306.688
306.863
307.03
307.189
307.34
307.485
307.623
307.756
307.883
308.005
308.123
308.238
308.349
308.459
308.566
308.672
308.779
308.886
308.994
309.105
309.22
309.34
309.465
309.597
309.738
309.89
310.052
310.228
310.419
310.627
310.854
311.101
311.371
311.666
311.987
312.337
312.718
313.131
313.578
314.062
314.582
315.142
315.741
316.38
317.059
317.779
318.538
319.336
320.172
321.043
321.947
322.883
323.846
324.833
325.842
326.867
327.906
328.955
300.166
300.504
300.851
301.203
301.559
301.915
302.268
302.618
302.962
303.298
303.625
303.943
304.25
304.547
304.832
305.105
305.368
305.619
305.858
306.087
306.305
306.512
306.709
306.897
307.075
307.245
307.406
307.559
307.705
307.845
307.978
308.105
308.227
308.344
308.458
308.568
308.675
308.78
308.884
308.988
309.092
309.196
309.303
309.413
309.527
309.647
309.773
309.906
310.049
310.202
310.367
310.545
310.739
310.95
311.179
311.429
311.7
311.995
312.316
312.664
313.04
313.446
313.883
314.353
314.856
315.392
315.963
316.569
317.208
317.88
318.586
319.322
320.088
320.883
321.703
322.546
323.41
324.291
325.188
326.096
327.013
300.172
300.522
300.881
301.247
301.615
301.984
302.351
302.714
303.071
303.42
303.759
304.089
304.408
304.716
305.012
305.295
305.567
305.827
306.075
306.31
306.535
306.748
306.951
307.143
307.325
307.498
307.662
307.817
307.965
308.105
308.238
308.366
308.487
308.604
308.716
308.825
308.93
309.033
309.134
309.235
309.335
309.436
309.538
309.643
309.751
309.864
309.983
310.108
310.242
310.385
310.538
310.704
310.883
311.078
311.289
311.517
311.765
312.034
312.326
312.641
312.98
313.346
313.738
314.159
314.607
315.085
315.591
316.127
316.691
317.283
317.902
318.548
319.219
319.913
320.629
321.364
322.117
322.885
323.667
324.458
325.258
300.179
300.543
300.917
301.298
301.681
302.066
302.448
302.827
303.199
303.563
303.917
304.261
304.594
304.915
305.223
305.518
305.801
306.071
306.328
306.573
306.805
307.025
307.233
307.43
307.617
307.794
307.96
308.118
308.267
308.409
308.543
308.67
308.792
308.907
309.018
309.125
309.228
309.329
309.427
309.524
309.62
309.717
309.814
309.914
310.016
310.122
310.233
310.35
310.474
310.607
310.749
310.901
311.066
311.244
311.436
311.644
311.869
312.112
312.375
312.657
312.962
313.288
313.638
314.011
314.408
314.83
315.276
315.747
316.242
316.76
317.302
317.865
318.449
319.053
319.676
320.315
320.969
321.636
322.314
323.003
323.699
300.187
300.568
300.959
301.357
301.759
302.162
302.562
302.959
303.349
303.73
304.102
304.463
304.811
305.148
305.47
305.78
306.075
306.357
306.624
306.878
307.119
307.347
307.562
307.765
307.957
308.138
308.308
308.468
308.619
308.762
308.897
309.024
309.145
309.26
309.369
309.474
309.575
309.673
309.768
309.861
309.953
310.045
310.137
310.231
310.327
310.426
310.529
310.638
310.752
310.874
311.004
311.143
311.293
311.454
311.628
311.816
312.018
312.236
312.471
312.723
312.993
313.283
313.592
313.921
314.271
314.641
315.032
315.443
315.875
316.326
316.797
317.286
317.793
318.316
318.855
319.408
319.974
320.552
321.14
321.736
322.339
300.197
300.597
301.008
301.427
301.85
302.274
302.696
303.113
303.524
303.926
304.318
304.698
305.066
305.419
305.759
306.084
306.394
306.689
306.968
307.233
307.484
307.721
307.943
308.153
308.35
308.535
308.709
308.872
309.026
309.17
309.305
309.433
309.553
309.667
309.775
309.877
309.976
310.07
310.162
310.251
310.338
310.425
310.512
310.6
310.689
310.781
310.876
310.976
311.081
311.192
311.31
311.436
311.571
311.716
311.872
312.04
312.22
312.414
312.623
312.846
313.084
313.339
313.611
313.899
314.205
314.528
314.868
315.225
315.6
315.991
316.398
316.821
317.259
317.711
318.176
318.653
319.141
319.64
320.147
320.663
321.184
300.208
300.631
301.066
301.508
301.956
302.404
302.851
303.293
303.729
304.155
304.57
304.972
305.361
305.735
306.094
306.437
306.763
307.073
307.366
307.644
307.905
308.151
308.382
308.599
308.802
308.992
309.17
309.336
309.492
309.637
309.773
309.901
310.02
310.133
310.239
310.339
310.435
310.526
310.614
310.699
310.782
310.863
310.944
311.026
311.108
311.193
311.28
311.37
311.465
311.566
311.672
311.785
311.906
312.036
312.174
312.323
312.483
312.654
312.837
313.033
313.243
313.465
313.702
313.953
314.219
314.499
314.794
315.103
315.427
315.764
316.115
316.479
316.856
317.245
317.645
318.055
318.475
318.904
319.341
319.785
320.235
300.221
300.671
301.132
301.603
302.079
302.557
303.032
303.503
303.967
304.42
304.862
305.291
305.704
306.101
306.481
306.844
307.189
307.516
307.824
308.115
308.388
308.645
308.885
309.109
309.319
309.514
309.696
309.865
310.023
310.17
310.306
310.433
310.552
310.663
310.767
310.865
310.957
311.045
311.128
311.209
311.287
311.363
311.438
311.513
311.589
311.666
311.745
311.826
311.912
312.001
312.096
312.197
312.304
312.418
312.541
312.672
312.812
312.962
313.122
313.293
313.475
313.669
313.874
314.092
314.321
314.563
314.817
315.084
315.362
315.652
315.954
316.266
316.589
316.923
317.265
317.617
317.978
318.346
318.721
319.102
319.489
300.236
300.717
301.21
301.714
302.223
302.734
303.243
303.747
304.243
304.729
305.201
305.659
306.1
306.523
306.928
307.313
307.678
308.023
308.348
308.653
308.94
309.207
309.457
309.689
309.905
310.106
310.292
310.465
310.624
310.772
310.909
311.035
311.153
311.262
311.363
311.458
311.547
311.631
311.71
311.786
311.858
311.929
311.998
312.067
312.135
312.204
312.275
312.348
312.424
312.503
312.587
312.675
312.769
312.87
312.977
313.091
313.213
313.343
313.482
313.631
313.788
313.955
314.133
314.32
314.518
314.726
314.944
315.172
315.411
315.659
315.917
316.185
316.461
316.746
317.04
317.341
317.649
317.964
318.285
318.612
318.944
300.254
300.77
301.301
301.842
302.39
302.94
303.487
304.03
304.563
305.085
305.593
306.083
306.556
307.008
307.439
307.849
308.236
308.601
308.944
309.265
309.565
309.844
310.104
310.344
310.567
310.773
310.963
311.138
311.299
311.448
311.584
311.71
311.826
311.933
312.032
312.123
312.208
312.287
312.362
312.433
312.5
312.564
312.627
312.689
312.75
312.812
312.875
312.939
313.005
313.075
313.148
313.225
313.306
313.393
313.486
313.585
313.691
313.803
313.923
314.051
314.186
314.33
314.482
314.643
314.812
314.99
315.177
315.372
315.576
315.788
316.009
316.237
316.473
316.716
316.967
317.224
317.487
317.756
318.031
318.31
318.595
300.275
300.833
301.406
301.992
302.584
303.178
303.771
304.357
304.933
305.496
306.043
306.571
307.078
307.563
308.023
308.46
308.871
309.257
309.619
309.956
310.27
310.561
310.83
311.079
311.308
311.519
311.712
311.889
312.052
312.201
312.336
312.461
312.574
312.678
312.774
312.861
312.942
313.017
313.086
313.151
313.213
313.272
313.328
313.383
313.437
313.491
313.546
313.602
313.659
313.719
313.782
313.848
313.918
313.993
314.073
314.158
314.248
314.344
314.447
314.556
314.672
314.795
314.926
315.063
315.208
315.36
315.519
315.686
315.859
316.04
316.228
316.423
316.624
316.831
317.045
317.264
317.489
317.718
317.953
318.192
318.435
300.298
300.905
301.529
302.165
302.809
303.455
304.098
304.735
305.36
305.969
306.56
307.129
307.675
308.194
308.687
309.151
309.588
309.996
310.377
310.731
311.059
311.361
311.64
311.896
312.131
312.346
312.542
312.721
312.884
313.032
313.166
313.288
313.399
313.5
313.591
313.674
313.75
313.82
313.884
313.943
313.999
314.051
314.101
314.149
314.196
314.243
314.29
314.338
314.387
314.438
314.491
314.547
314.607
314.671
314.738
314.81
314.887
314.97
315.057
315.15
315.249
315.354
315.465
315.582
315.705
315.834
315.97
316.112
316.26
316.415
316.575
316.74
316.912
317.089
317.271
317.457
317.649
317.845
318.045
318.249
318.457
300.326
300.989
301.671
302.366
303.069
303.775
304.477
305.17
305.85
306.512
307.151
307.766
308.353
308.91
309.436
309.931
310.393
310.825
311.225
311.595
311.936
312.249
312.537
312.799
313.039
313.257
313.454
313.633
313.795
313.942
314.074
314.193
314.3
314.396
314.483
314.561
314.632
314.696
314.754
314.807
314.857
314.903
314.946
314.988
315.028
315.068
315.107
315.147
315.188
315.231
315.276
315.323
315.373
315.427
315.484
315.545
315.61
315.679
315.754
315.833
315.917
316.006
316.1
316.2
316.305
316.415
316.531
316.652
316.778
316.909
317.046
317.187
317.333
317.484
317.639
317.799
317.962
318.13
318.301
318.475
318.653
300.358
301.087
301.836
302.599
303.371
304.144
304.913
305.671
306.412
307.131
307.825
308.489
309.12
309.717
310.278
310.804
311.293
311.746
312.165
312.55
312.903
313.226
313.521
313.788
314.03
314.249
314.447
314.625
314.785
314.928
315.056
315.171
315.273
315.365
315.446
315.519
315.584
315.642
315.694
315.741
315.785
315.824
315.862
315.897
315.93
315.963
315.996
316.029
316.063
316.099
316.136
316.175
316.217
316.261
316.309
316.36
316.415
316.474
316.537
316.604
316.675
316.751
316.832
316.917
317.006
317.1
317.199
317.303
317.41
317.523
317.64
317.76
317.885
318.014
318.147
318.284
318.424
318.567
318.713
318.862
319.014
300.396
301.2
302.026
302.868
303.719
304.57
305.414
306.244
307.054
307.837
308.589
309.305
309.984
310.622
311.219
311.775
312.289
312.764
313.199
313.598
313.961
314.291
314.59
314.86
315.103
315.321
315.517
315.692
315.848
315.987
316.11
316.219
316.316
316.401
316.476
316.543
316.602
316.654
316.7
316.741
316.779
316.812
316.844
316.873
316.901
316.928
316.955
316.982
317.009
317.038
317.069
317.101
317.136
317.173
317.214
317.257
317.303
317.353
317.406
317.464
317.525
317.59
317.658
317.731
317.808
317.889
317.974
318.063
318.156
318.252
318.352
318.456
318.564
318.675
318.789
318.906
319.026
319.15
319.275
319.404
319.534
300.439
301.331
302.247
303.18
304.12
305.059
305.989
306.9
307.785
308.637
309.451
310.223
310.95
311.629
312.262
312.846
313.384
313.877
314.327
314.735
315.105
315.439
315.739
316.009
316.25
316.465
316.656
316.826
316.976
317.109
317.226
317.329
317.419
317.498
317.567
317.627
317.68
317.726
317.766
317.802
317.833
317.862
317.888
317.912
317.935
317.957
317.979
318.001
318.024
318.048
318.073
318.1
318.129
318.161
318.195
318.232
318.272
318.315
318.361
318.41
318.463
318.519
318.579
318.642
318.709
318.779
318.853
318.93
319.011
319.095
319.182
319.272
319.365
319.461
319.56
319.662
319.766
319.872
319.981
320.092
320.205
300.489
301.483
302.502
303.539
304.582
305.621
306.646
307.646
308.613
309.539
310.418
311.247
312.022
312.742
313.407
314.017
314.574
315.081
315.541
315.955
316.327
316.661
316.959
317.225
317.461
317.67
317.855
318.017
318.16
318.285
318.395
318.49
318.573
318.645
318.708
318.762
318.809
318.849
318.884
318.915
318.942
318.966
318.988
319.009
319.028
319.046
319.065
319.084
319.103
319.124
319.145
319.169
319.194
319.222
319.252
319.285
319.32
319.358
319.399
319.443
319.489
319.539
319.592
319.648
319.707
319.77
319.835
319.903
319.974
320.047
320.124
320.203
320.285
320.369
320.456
320.544
320.635
320.728
320.823
320.92
321.018
300.547
301.658
302.797
303.952
305.112
306.263
307.394
308.491
309.546
310.549
311.496
312.38
313.201
313.957
314.65
315.281
315.852
316.367
316.831
317.245
317.615
317.944
318.236
318.494
318.721
318.921
319.097
319.251
319.385
319.502
319.603
319.691
319.767
319.832
319.889
319.937
319.979
320.015
320.046
320.074
320.098
320.119
320.139
320.157
320.174
320.191
320.208
320.225
320.243
320.262
320.283
320.305
320.328
320.354
320.382
320.412
320.445
320.48
320.518
320.558
320.601
320.647
320.696
320.747
320.8
320.856
320.915
320.977
321.04
321.107
321.175
321.246
321.319
321.393
321.47
321.549
321.629
321.711
321.795
321.88
321.966
300.614
301.86
303.135
304.427
305.718
306.995
308.241
309.443
310.59
311.672
312.683
313.621
314.482
315.268
315.981
316.624
317.202
317.718
318.178
318.586
318.948
319.267
319.548
319.795
320.011
320.2
320.365
320.508
320.633
320.741
320.835
320.915
320.985
321.045
321.097
321.141
321.18
321.213
321.242
321.268
321.291
321.312
321.331
321.349
321.367
321.384
321.402
321.42
321.439
321.459
321.48
321.503
321.527
321.553
321.581
321.612
321.644
321.678
321.715
321.754
321.795
321.839
321.885
321.933
321.983
322.036
322.09
322.147
322.206
322.266
322.329
322.393
322.459
322.527
322.596
322.666
322.738
322.812
322.886
322.961
323.038
300.691
302.092
303.524
304.97
306.409
307.824
309.195
310.507
311.747
312.905
313.977
314.959
315.851
316.657
317.38
318.026
318.6
319.108
319.557
319.953
320.301
320.605
320.872
321.104
321.307
321.483
321.636
321.769
321.885
321.985
322.072
322.147
322.212
322.268
322.318
322.361
322.398
322.432
322.461
322.488
322.513
322.536
322.558
322.579
322.599
322.62
322.641
322.662
322.684
322.707
322.732
322.757
322.784
322.813
322.843
322.875
322.909
322.945
322.983
323.022
323.063
323.107
323.152
323.199
323.247
323.298
323.35
323.403
323.458
323.515
323.573
323.633
323.694
323.756
323.819
323.883
323.948
324.014
324.081
324.149
324.217
300.78
302.359
303.969
305.588
307.191
308.756
310.259
311.683
313.013
314.24
315.361
316.375
317.287
318.1
318.819
319.454
320.013
320.503
320.933
321.309
321.637
321.923
322.172
322.389
322.578
322.742
322.885
323.009
323.117
323.212
323.294
323.367
323.43
323.486
323.536
323.58
323.62
323.657
323.69
323.721
323.751
323.779
323.806
323.833
323.859
323.885
323.912
323.939
323.967
323.995
324.025
324.055
324.087
324.12
324.154
324.19
324.227
324.266
324.305
324.347
324.39
324.434
324.479
324.526
324.574
324.624
324.675
324.726
324.779
324.833
324.888
324.944
325.001
325.059
325.117
325.176
325.235
325.296
325.356
325.417
325.479
300.88
302.663
304.475
306.288
308.072
309.796
311.434
312.965
314.378
315.659
316.808
317.832
318.739
319.538
320.24
320.854
321.39
321.856
322.263
322.616
322.923
323.189
323.421
323.623
323.799
323.953
324.087
324.205
324.309
324.401
324.482
324.554
324.62
324.679
324.732
324.781
324.827
324.87
324.91
324.948
324.985
325.021
325.056
325.09
325.125
325.159
325.193
325.228
325.263
325.299
325.335
325.372
325.409
325.448
325.487
325.528
325.569
325.611
325.654
325.698
325.743
325.789
325.836
325.883
325.932
325.981
326.031
326.081
326.132
326.184
326.237
326.289
326.343
326.396
326.45
326.505
326.559
326.614
326.669
326.724
326.779
300.995
303.009
305.049
307.077
309.055
310.945
312.713
314.327
315.784
317.087
318.241
319.258
320.148
320.924
321.598
322.183
322.689
323.127
323.507
323.835
324.12
324.368
324.584
324.772
324.937
325.083
325.212
325.326
325.429
325.521
325.604
325.68
325.75
325.815
325.875
325.932
325.986
326.037
326.086
326.134
326.18
326.226
326.27
326.314
326.358
326.401
326.444
326.488
326.531
326.574
326.618
326.662
326.706
326.75
326.795
326.84
326.885
326.931
326.977
327.024
327.071
327.119
327.167
327.215
327.263
327.312
327.361
327.411
327.46
327.51
327.559
327.609
327.659
327.709
327.759
327.809
327.858
327.908
327.957
328.007
328.056
301.124
303.398
305.693
307.957
310.136
312.16
314.009
315.674
317.156
318.461
319.603
320.596
321.455
322.197
322.835
323.384
323.856
324.263
324.614
324.918
325.182
325.411
325.613
325.79
325.947
326.087
326.213
326.327
326.43
326.525
326.613
326.695
326.772
326.844
326.913
326.979
327.042
327.103
327.162
327.22
327.276
327.331
327.386
327.439
327.492
327.544
327.596
327.647
327.698
327.749
327.799
327.849
327.899
327.948
327.997
328.047
328.096
328.145
328.194
328.243
328.291
328.34
328.388
328.437
328.485
328.533
328.581
328.628
328.676
328.723
328.77
328.816
328.863
328.909
328.954
329
329.045
329.089
329.133
329.177
329.22
301.264
303.824
306.399
308.886
311.207
313.328
315.233
316.922
318.402
319.688
320.799
321.753
322.57
323.268
323.865
324.375
324.812
325.187
325.51
325.791
326.035
326.249
326.439
326.607
326.758
326.895
327.019
327.133
327.239
327.338
327.431
327.519
327.602
327.682
327.758
327.832
327.904
327.973
328.041
328.107
328.172
328.235
328.297
328.359
328.419
328.478
328.537
328.594
328.651
328.707
328.762
328.817
328.871
328.924
328.977
329.029
329.081
329.132
329.182
329.233
329.282
329.331
329.379
329.427
329.475
329.522
329.568
329.614
329.659
329.704
329.748
329.791
329.834
329.876
329.918
329.959
330
330.04
330.08
330.118
330.157
301.397
304.239
307.041
309.676
312.092
314.263
316.185
317.864
319.319
320.569
321.638
322.548
323.322
323.98
324.539
325.015
325.422
325.772
326.074
326.336
326.566
326.768
326.949
327.111
327.257
327.391
327.514
327.629
327.736
327.837
327.933
328.024
328.111
328.195
328.276
328.355
328.431
328.506
328.578
328.649
328.719
328.787
328.854
328.919
328.984
329.047
329.109
329.17
329.23
329.289
329.347
329.405
329.461
329.516
329.571
329.625
329.678
329.73
329.781
329.832
329.882
329.931
329.979
330.026
330.073
330.119
330.164
330.209
330.252
330.295
330.338
330.379
330.42
330.46
330.499
330.538
330.576
330.613
330.649
330.685
330.72
379.327
387.257
393.942
399.783
404.98
409.64
413.824
417.564
420.875
423.757
426.198
428.176
429.655
430.587
430.904
430.514
429.289
427.031
423.41
417.766
408.454
402.162
397.348
393.413
390.068
387.151
384.561
382.23
380.11
378.163
376.363
374.688
373.12
371.646
370.252
368.931
367.672
366.47
365.317
364.209
363.142
362.11
361.111
360.141
359.198
358.278
357.381
356.503
355.643
354.799
353.971
353.156
352.353
351.562
350.782
350.011
349.249
348.495
347.75
347.011
346.28
345.555
344.837
344.125
343.419
342.719
342.024
341.336
340.654
339.978
339.307
338.643
337.985
337.333
336.688
336.049
335.417
334.791
334.173
333.562
332.958
332.361
331.772
331.192
330.619
330.055
329.5
328.953
328.416
327.888
327.369
326.86
326.361
325.873
325.394
324.926
324.469
324.023
323.587
323.162
322.748
322.346
321.954
321.573
321.204
320.845
320.497
320.16
319.833
319.517
319.211
318.916
318.63
318.353
318.086
317.829
317.58
317.339
317.107
316.883
316.666
316.457
316.255
316.06
315.871
315.688
315.511
315.339
315.173
315.011
314.854
314.702
314.553
314.409
314.268
314.13
313.995
313.863
313.734
313.607
313.483
313.36
313.24
313.121
313.004
312.888
312.774
312.661
312.549
312.439
312.329
312.22
312.112
312.004
311.898
311.792
311.687
311.583
311.48
311.377
311.277
374.595
381.48
387.693
393.288
398.342
402.913
407.04
410.745
414.035
416.908
419.35
421.337
422.835
423.797
424.159
423.838
422.721
420.65
417.41
412.731
406.569
401.245
396.808
393.053
389.809
386.956
384.408
382.108
380.01
378.08
376.294
374.629
373.07
371.602
370.214
368.897
367.643
366.444
365.295
364.189
363.124
362.094
361.097
360.128
359.186
358.268
357.371
356.494
355.635
354.792
353.964
353.15
352.348
351.557
350.777
350.007
349.245
348.492
347.746
347.008
346.277
345.552
344.834
344.122
343.416
342.716
342.022
341.334
340.652
339.975
339.305
338.641
337.983
337.331
336.686
336.047
335.415
334.789
334.171
333.56
332.956
332.359
331.771
331.19
330.618
330.053
329.498
328.952
328.414
327.886
327.367
326.859
326.36
325.871
325.393
324.925
324.468
324.021
323.586
323.161
322.747
322.344
321.953
321.572
321.203
320.844
320.496
320.159
319.832
319.516
319.211
318.915
318.629
318.353
318.086
317.828
317.579
317.339
317.107
316.882
316.666
316.457
316.255
316.059
315.87
315.688
315.511
315.339
315.173
315.011
314.854
314.702
314.553
314.409
314.268
314.13
313.995
313.863
313.734
313.607
313.483
313.36
313.24
313.121
313.004
312.889
312.774
312.661
312.55
312.439
312.329
312.22
312.112
312.005
311.898
311.792
311.687
311.583
311.48
311.378
311.278
370.521
376.407
381.984
387.173
391.96
396.35
400.353
403.973
407.209
410.052
412.484
414.482
416.011
417.027
417.475
417.285
416.37
414.627
411.95
408.293
403.874
399.585
395.717
392.29
389.247
386.525
384.07
381.836
379.787
377.895
376.139
374.498
372.958
371.506
370.131
368.825
367.58
366.389
365.246
364.146
363.086
362.06
361.066
360.101
359.161
358.246
357.351
356.476
355.619
354.777
353.951
353.137
352.336
351.547
350.767
349.998
349.237
348.484
347.739
347.001
346.27
345.546
344.828
344.116
343.411
342.711
342.017
341.329
340.647