/*--------------------------------*- C++ -*----------------------------------*\
  =========                 |
  \\      /  F ield         | OpenFOAM: The Open Source CFD Toolbox
   \\    /   O peration     | Website:  https://openfoam.org
    \\  /    A nd           | Version:  7
     \\/     M anipulation  |
\*---------------------------------------------------------------------------*/
FoamFile
{
    version     2.0;
    format      ascii;
    class       volScalarField;
    location    "1.6";
    object      p;
}
// * * * * * * * * * * * * * * * * * * * * * * * * * * * * * * * * * * * * * //

dimensions      [0 2 -2 0 0 0 0];

internalField   nonuniform List<scalar> 
2790
(
146.958
146.866
147.134
147.705
148.486
149.445
150.578
151.886
153.364
155.006
156.807
158.76
160.855
163.082
165.424
167.861
170.367
172.908
175.441
177.916
180.276
182.454
184.386
186.006
187.266
188.14
188.577
188.632
188.684
188.896
146.756
146.773
147.066
147.635
148.412
149.367
150.496
151.798
153.269
154.903
156.694
158.637
160.721
162.937
165.268
167.695
170.192
172.727
175.259
177.738
180.108
182.304
184.259
185.909
187.193
188.068
188.465
188.522
188.653
188.935
146.557
146.644
146.956
147.515
148.279
149.221
150.335
151.619
153.068
154.678
156.441
158.352
160.402
162.579
164.869
167.253
169.706
172.199
174.692
177.141
179.492
181.686
183.659
185.349
186.701
187.677
188.27
188.625
188.938
189.235
146.332
146.45
146.775
147.324
148.074
149
150.094
151.354
152.774
154.35
156.075
157.942
159.943
162.065
164.295
166.615
169.001
171.425
173.854
176.246
178.554
180.727
182.71
184.45
185.905
187.057
187.925
188.595
189.146
189.664
146.071
146.203
146.536
147.078
147.811
148.716
149.785
151.013
152.397
153.929
155.605
157.416
159.353
161.406
163.559
165.797
168.096
170.433
172.776
175.091
177.337
179.474
181.457
183.248
184.819
186.162
187.291
188.253
189.063
189.81
145.769
145.908
146.243
146.775
147.488
148.367
149.404
150.595
151.934
153.415
155.031
156.776
158.638
160.608
162.671
164.811
167.007
169.238
171.477
173.694
175.858
177.936
179.899
181.721
183.385
184.886
186.233
187.438
188.458
189.375
145.426
145.566
145.898
146.417
147.107
147.956
148.957
150.103
151.39
152.812
154.361
156.028
157.805
159.679
161.638
163.666
165.744
167.851
169.966
172.064
174.12
176.112
178.021
179.832
181.539
183.14
184.634
186.013
187.177
188.224
145.041
145.179
145.503
146.007
146.671
147.486
148.444
149.541
150.77
152.125
153.597
155.178
156.859
158.626
160.469
162.37
164.313
166.279
168.248
170.202
172.121
173.989
175.798
177.541
179.22
180.839
182.395
183.867
185.117
186.269
144.615
144.748
145.062
145.546
146.181
146.958
147.871
148.913
150.078
151.358
152.746
154.232
155.806
157.457
159.169
160.93
162.721
164.527
166.328
168.109
169.854
171.553
173.202
174.804
176.366
177.902
179.411
180.882
182.154
183.393
144.148
144.276
144.577
145.038
145.641
146.377
147.239
148.222
149.317
150.517
151.814
153.197
154.656
156.178
157.75
159.356
160.98
162.604
164.212
165.788
167.318
168.794
170.213
171.582
172.916
174.235
175.556
176.894
178.095
179.401
143.642
143.764
144.049
144.486
145.054
145.746
146.554
147.472
148.493
149.607
150.806
152.08
153.415
154.8
156.22
157.658
159.098
160.521
161.91
163.247
164.517
165.709
166.817
167.847
168.811
169.741
170.671
171.67
172.633
173.952
143.099
143.214
143.482
143.891
144.423
145.068
145.819
146.669
147.611
148.635
149.731
150.888
152.093
153.332
154.59
155.849
157.09
158.293
159.438
160.502
161.466
162.311
163.021
163.588
164.015
164.326
164.568
164.876
165.256
166.431
142.521
142.628
142.878
143.259
143.751
144.347
145.038
145.818
146.677
147.606
148.595
149.63
150.699
151.786
152.873
153.942
154.972
155.939
156.817
157.579
158.195
158.632
158.856
158.833
158.531
157.933
157.058
156.063
155.111
155.615
141.911
142.01
142.241
142.59
143.042
143.586
144.215
144.922
145.696
146.528
147.405
148.315
149.243
150.172
151.083
151.955
152.764
153.481
154.075
154.51
154.744
154.724
154.389
153.659
152.438
150.609
148.044
144.737
140.778
138.732
141.271
141.361
141.572
141.89
142.3
142.791
143.356
143.987
144.674
145.406
146.17
146.952
147.736
148.504
149.234
149.904
150.485
150.945
151.245
151.339
151.17
150.664
149.723
148.212
145.937
142.606
137.761
130.735
120.245
107.972
2.46409
2.36733
2.11768
1.7865
1.43028
1.07084
0.717011
0.377021
0.0593698
-0.228561
-0.480387
-0.689229
-0.849144
-0.958034
-1.01405
-1.01935
-0.980866
-0.90642
-0.799319
-0.663022
-0.501586
-0.32198
-0.134729
0.0490576
0.220089
0.371149
0.493943
0.553261
0.505729
0.302987
2.24976
2.1456
1.9248
1.62876
1.30075
0.962301
0.624961
0.298431
-0.0083758
-0.287926
-0.533758
-0.7381
-0.897837
-1.00973
-1.05496
-1.04125
-0.986905
-0.906429
-0.801605
-0.666906
-0.505766
-0.324556
-0.134921
0.0506781
0.225266
0.380308
0.496905
0.551103
0.498975
0.290222
2.0882
1.97785
1.77544
1.50391
1.1984
0.877476
0.554007
0.238956
-0.0581364
-0.329449
-0.571627
-0.770259
-0.905834
-1.00047
-1.06077
-1.06226
-1.00923
-0.923916
-0.813355
-0.676457
-0.517596
-0.33881
-0.151207
0.0334252
0.207445
0.355303
0.465278
0.515644
0.459874
0.250092
2.00103
1.88254
1.6904
1.43399
1.14466
0.837303
0.525026
0.21942
-0.0688781
-0.327061
-0.547699
-0.746977
-0.91322
-1.01276
-1.06391
-1.06614
-1.02196
-0.944281
-0.839594
-0.709624
-0.557245
-0.385812
-0.203775
-0.0216347
0.144832
0.290268
0.399559
0.448783
0.39807
0.19802
2.02414
1.89435
1.70721
1.45722
1.17575
0.875767
0.570573
0.272029
-0.0104988
-0.270176
-0.504148
-0.706696
-0.86934
-0.983795
-1.04947
-1.06796
-1.0432
-0.983206
-0.893232
-0.775893
-0.633923
-0.47125
-0.295902
-0.118137
0.0446019
0.187259
0.297712
0.35264
0.317169
0.14556
2.15668
2.01656
1.82117
1.56736
1.28191
0.979509
0.672449
0.371977
0.0830022
-0.189313
-0.433905
-0.645933
-0.820362
-0.952478
-1.0401
-1.08327
-1.08458
-1.0487
-0.97929
-0.878802
-0.749848
-0.596422
-0.42681
-0.255448
-0.0918382
0.0552145
0.17144
0.2362
0.220978
0.0958468
2.36874
2.20842
1.99391
1.725
1.42601
1.11379
0.798053
0.484646
0.184053
-0.0966333
-0.353574
-0.581463
-0.775488
-0.931427
-1.04662
-1.11988
-1.15181
-1.14432
-1.09919
-1.01803
-0.903215
-0.759179
-0.594427
-0.42306
-0.253817
-0.0968394
0.0307996
0.109069
0.117304
0.0494863
2.59041
2.40295
2.16409
1.87868
1.56778
1.24306
0.91674
0.596129
0.285927
-0.0076276
-0.28026
-0.527627
-0.745348
-0.929259
-1.07593
-1.18279
-1.24834
-1.2719
-1.25318
-1.19244
-1.09161
-0.955636
-0.792892
-0.616089
-0.434102
-0.260746
-0.115918
-0.0206731
0.0135287
0.00682638
2.75181
2.55439
2.30237
2.00425
1.68384
1.3526
1.0184
0.688792
0.368892
0.0626902
-0.226301
-0.49443
-0.737654
-0.951616
-1.13192
-1.27439
-1.37529
-1.43139
-1.44005
-1.39988
-1.31201
-1.18134
-1.01699
-0.827748
-0.625938
-0.429468
-0.261797
-0.146252
-0.0847168
-0.0319233
2.86103
2.65531
2.39383
2.0862
1.75569
1.41777
1.07998
0.746683
0.420844
0.104829
-0.198857
-0.487113
-0.755988
-1.00064
-1.21549
-1.39453
-1.53165
-1.62092
-1.65713
-1.63689
-1.5603
-1.43173
-1.25908
-1.05137
-0.823368
-0.59716
-0.401147
-0.262192
-0.173457
-0.0663698
2.8883
2.66143
2.38871
2.07791
1.7517
1.42079
1.09027
0.761934
0.436614
0.115387
-0.199932
-0.506505
-0.800177
-1.07531
-1.3249
-1.54088
-1.7146
-1.83727
-1.9008
-1.89942
-1.83178
-1.7014
-1.51489
-1.28221
-1.02148
-0.759067
-0.529328
-0.364096
-0.24974
-0.0958919
2.74725
2.51363
2.25341
1.96411
1.66383
1.35796
1.04877
0.73582
0.418365
0.0969415
-0.226664
-0.54946
-0.866794
-1.17195
-1.45622
-1.7093
-1.91984
-2.07603
-2.16663
-2.183
-2.12176
-1.98536
-1.77976
-1.51611
-1.21626
-0.911417
-0.642625
-0.448352
-0.311055
-0.11977
2.41567
2.18736
1.97541
1.746
1.50055
1.23973
0.966308
0.678663
0.375236
0.0574141
-0.27201
-0.609503
-0.949745
-1.28471
-1.60374
-1.89412
-2.14171
-2.33158
-2.44909
-2.48225
-2.42503
-2.27868
-2.04933
-1.7494
-1.40445
-1.05134
-0.738217
-0.511945
-0.355014
-0.137154
1.84363
1.63898
1.55005
1.44545
1.28922
1.09025
0.863998
0.608691
0.322021
0.00873358
-0.325866
-0.677691
-1.04094
-1.4061
-1.7603
-2.08831
-2.37324
-2.59703
-2.74153
-2.79099
-2.73608
-2.57657
-2.31956
-1.97878
-1.58328
-1.17669
-0.814075
-0.552181
-0.378891
-0.146891
0.91825
0.758809
0.975136
1.11703
1.08028
0.94417
0.769861
0.549728
0.276725
-0.0354385
-0.376795
-0.743919
-1.1314
-1.52803
-1.91829
-2.28444
-2.60703
-2.86501
-3.0367
-3.10233
-3.04859
-2.87334
-2.5855
-2.20041
-1.74981
-1.28566
-0.868645
-0.566147
-0.378918
-0.147537
140.591
140.672
140.861
141.146
141.512
141.948
142.447
143.001
143.597
144.226
144.873
145.523
146.16
146.762
147.308
147.77
148.117
148.312
148.311
148.055
147.473
146.47
144.912
142.604
139.248
134.347
126.978
115.216
93.0022
32.9249
139.863
139.934
140.101
140.351
140.671
141.05
141.481
141.953
142.456
142.978
143.505
144.019
144.504
144.936
145.293
145.543
145.653
145.581
145.275
144.67
143.683
142.2
140.062
137.039
132.772
126.678
117.724
104.177
84.6863
56.3544
139.092
139.154
139.297
139.511
139.784
140.104
140.464
140.853
141.261
141.674
142.078
142.455
142.786
143.047
143.213
143.252
143.127
142.792
142.192
141.255
139.892
137.981
135.358
131.795
126.966
120.421
111.574
99.7986
85.6756
69.2911
138.281
138.332
138.451
138.629
138.852
139.113
139.4
139.706
140.017
140.32
140.601
140.84
141.017
141.109
141.088
140.92
140.567
139.981
139.105
137.866
136.173
133.909
130.924
127.021
121.956
115.44
107.182
96.8611
84.4283
69.4616
137.429
137.47
137.565
137.705
137.88
138.079
138.294
138.515
138.729
138.923
139.081
139.183
139.21
139.136
138.933
138.567
137.999
137.181
136.056
134.553
132.587
130.053
126.822
122.739
117.626
111.286
103.524
94.1016
82.8584
70.0056
136.541
136.572
136.642
136.744
136.869
137.007
137.15
137.287
137.405
137.49
137.527
137.496
137.376
137.143
136.767
136.216
135.449
134.422
133.079
131.356
129.176
126.449
123.071
118.923
113.876
107.799
100.572
92.0984
82.3731
71.8114
135.619
135.639
135.684
135.749
135.824
135.902
135.973
136.026
136.049
136.029
135.948
135.788
135.528
135.144
134.607
133.885
132.94
131.73
130.204
128.305
125.967
123.117
119.673
115.548
110.658
104.923
98.2931
90.7574
82.362
73.442
134.665
134.675
134.695
134.723
134.749
134.767
134.767
134.739
134.67
134.547
134.354
134.071
133.68
133.155
132.47
131.594
130.493
129.127
127.453
125.421
122.976
120.062
116.617
112.583
107.907
102.551
96.5007
89.7781
82.4335
74.7368
133.684
133.683
133.68
133.67
133.649
133.608
133.54
133.433
133.275
133.054
132.754
132.356
131.842
131.188
130.37
129.359
128.125
126.631
124.842
122.715
120.208
117.278
113.882
109.983
105.551
100.573
95.0557
89.0322
82.5564
75.8538
132.679
132.668
132.641
132.596
132.529
132.431
132.297
132.114
131.872
131.559
131.158
130.654
130.027
129.258
128.322
127.195
125.849
124.255
122.38
120.194
117.662
114.754
111.442
107.704
103.527
98.9132
93.8791
88.4643
82.7211
76.8328
131.655
131.634
131.585
131.506
131.393
131.242
131.044
130.79
130.469
130.069
129.576
128.974
128.246
127.374
126.337
125.112
123.677
122.006
120.074
117.857
115.331
112.473
109.268
105.705
101.783
97.5106
92.9117
88.0249
82.8977
77.677
130.617
130.587
130.516
130.404
130.249
130.046
129.789
129.468
129.073
128.593
128.015
127.326
126.509
125.547
124.424
123.12
121.615
119.89
117.925
115.701
113.203
110.416
107.333
103.95
100.273
96.3164
92.1052
87.6749
83.0669
78.3992
129.57
129.532
129.44
129.297
129.102
128.851
128.538
128.155
127.692
127.14
126.486
125.718
124.823
123.786
122.592
121.225
119.669
117.909
115.93
113.719
111.266
108.563
105.608
102.404
98.9595
95.2912
91.4233
87.3878
83.2198
79.0149
128.521
128.474
128.363
128.191
127.958
127.663
127.299
126.858
126.334
125.716
124.995
124.16
123.198
122.098
120.847
119.432
117.841
116.063
114.086
111.903
109.507
106.896
104.072
101.04
97.8115
94.4039
90.8392
87.1455
83.3525
79.5375
127.474
127.42
127.291
127.092
126.825
126.488
126.078
125.586
125.006
124.331
123.551
122.657
121.639
120.488
119.193
117.744
116.132
114.348
112.387
110.242
107.912
105.397
102.701
99.8324
96.8034
93.63
90.3327
86.9353
83.4631
79.9789
126.438
126.376
126.231
126.007
125.708
125.335
124.882
124.344
123.715
122.989
122.159
121.216
120.153
118.961
117.633
116.162
114.54
112.763
110.826
108.727
106.467
104.048
101.477
98.7611
95.914
92.9504
89.8883
86.7484
83.5516
80.3496
125.417
125.349
125.189
124.943
124.616
124.209
123.718
123.14
122.469
121.699
120.826
119.843
118.743
117.521
116.17
114.686
113.065
111.302
109.396
107.349
105.16
102.836
100.382
97.8086
95.1265
92.3499
89.4947
86.5786
83.6193
80.659
124.42
124.346
124.173
123.906
123.554
123.117
122.594
121.98
121.272
120.466
119.558
118.542
117.414
116.17
114.805
113.317
111.702
109.961
108.092
106.097
103.981
101.747
99.404
96.9603
94.427
91.8167
89.1434
86.4221
83.6678
80.9155
123.453
123.374
123.189
122.904
122.53
122.068
121.516
120.872
120.133
119.296
118.359
117.318
116.169
114.91
113.538
112.052
110.451
108.735
106.905
104.965
102.918
100.771
98.5297
96.2044
93.8046
91.3418
88.828
86.2763
83.6994
81.1263
122.524
122.441
122.245
121.945
121.551
121.066
120.49
119.82
119.056
118.194
117.235
116.174
115.011
113.743
112.37
110.892
109.308
107.62
105.831
103.944
101.964
99.8965
97.7496
95.5312
93.2507
90.9181
88.5441
86.14
83.7166
81.298
121.641
121.553
121.349
121.035
120.624
120.12
119.523
118.833
118.047
117.166
116.189
115.114
113.942
112.67
111.301
109.833
108.27
106.612
104.863
103.027
101.11
99.1171
97.0555
94.9331
92.7583
90.5403
88.2885
86.0125
83.7218
81.4364
120.811
120.72
120.507
120.182
119.757
119.237
118.623
117.915
117.112
116.216
115.226
114.142
112.964
111.693
110.33
108.877
107.334
105.707
103.997
102.21
100.351
98.4257
96.441
94.404
92.3226
90.2049
88.0593
85.8942
83.7178
81.547
120.042
119.948
119.728
119.393
118.956
118.423
117.795
117.072
116.257
115.349
114.35
113.26
112.081
110.813
109.459
108.02
106.5
104.902
103.23
101.488
99.6816
97.8172
95.9007
93.939
91.9393
89.9087
87.8549
85.7853
83.707
81.6343
119.343
119.246
119.021
118.677
118.229
117.685
117.045
116.312
115.487
114.571
113.565
112.473
111.294
110.032
108.688
107.265
105.766
104.196
102.558
100.857
99.0987
97.2882
95.4317
93.5357
91.6066
89.6511
87.6759
85.6877
83.693
81.7036
118.722
118.623
118.391
118.04
117.584
117.03
116.382
115.64
114.807
113.885
112.876
111.782
110.606
109.35
108.017
106.609
105.131
103.586
101.979
100.315
98.5983
96.8348
95.0301
93.1903
91.3214
89.4295
87.5208
85.6012
83.6765
81.7567
118.189
118.087
117.849
117.491
117.027
116.466
115.811
115.063
114.224
113.299
112.288
111.195
110.022
108.773
107.45
106.057
104.597
103.075
101.496
99.8628
98.1819
96.4582
94.6973
92.9047
91.0861
89.2472
87.3936
85.5308
83.6642
81.8022
117.752
117.647
117.402
117.036
116.565
115.999
115.337
114.584
113.742
112.814
111.803
110.711
109.542
108.3
106.986
105.606
104.162
102.659
101.103
99.4959
97.8445
96.1534
94.428
92.6735
90.8953
89.0988
87.2891
85.4713
83.6504
81.8333
117.426
117.314
117.06
116.687
116.212
115.641
114.975
114.218
113.373
112.444
111.433
110.343
109.178
107.941
106.635
105.265
103.835
102.348
100.809
99.2235
97.5954
95.93
94.2323
92.5076
90.7608
88.9972
87.2216
85.439
83.654
81.8728
117.223
117.088
116.817
116.438
115.96
115.386
114.718
113.959
113.114
112.184
111.174
110.086
108.924
107.692
106.392
105.03
103.609
102.133
100.607
99.0352
97.4229
95.7748
94.0957
92.3907
90.6648
88.9227
87.1693
85.4093
83.647
81.8874
117.204
117.005
116.706
116.32
115.84
115.263
114.592
113.831
112.984
112.055
111.045
109.959
108.8
107.571
106.276
104.92
103.505
102.037
100.519
98.9573
97.3554
95.7184
94.0513
92.3588
90.6459
88.9172
87.1775
85.4313
83.6829
81.9367
-51.804
-31.7708
-11.851
36.273
29.3453
18.3579
52.1598
40.3949
29.6038
53.4005
43.1391
35.2789
57.611
49.4475
42.8163
61.9015
55.0867
49.2806
65.0667
59.2489
54.2534
67.5564
62.5727
58.2961
69.649
65.3416
61.6505
71.411
67.6451
64.4253
72.8892
69.5629
66.7259
74.1328
71.168
68.6443
75.1817
72.517
70.2523
76.0675
73.6545
71.6058
76.816
74.6158
72.7492
77.4483
75.4295
73.7175
77.9819
76.1187
74.5386
78.4312
76.702
75.2352
78.8085
77.1951
75.8257
79.1241
77.611
76.3255
79.387
77.9605
76.7473
79.605
78.2534
77.1023
79.7843
78.497
77.3991
79.9323
78.6999
77.647
80.051
78.8648
77.8499
80.1519
79.0038
78.0197
80.2255
79.1079
78.1492
80.3004
79.2061
78.2651
80.3358
79.2582
78.3316
80.4063
79.343
78.423
-1.56037
-1.28288
0.0776594
0.873375
0.96071
0.835822
0.7104
0.527594
0.25667
-0.0631154
-0.414352
-0.798809
-1.21332
-1.64419
-2.07236
-2.47759
-2.83833
-3.1308
-3.32984
-3.41173
-3.359
-3.16683
-2.84623
-2.41383
-1.90403
-1.3786
-0.901613
-0.550982
-0.350524
-0.137644
4.97302
1.61531
1.84549
1.58473
0.951226
0.669399
0.682122
0.57858
0.28023
-0.0643572
-0.428174
-0.832157
-1.27832
-1.74778
-2.21616
-2.66115
-3.06002
-3.3868
-3.61294
-3.71091
-3.65937
-3.45074
-3.09642
-2.61365
-2.04204
-1.45195
-0.910513
-0.50188
-0.285767
-0.114236
15.6074
7.12183
4.03718
2.33498
1.63586
1.3997
1.19239
0.788493
0.309227
-0.0693622
-0.419997
-0.83624
-1.31911
-1.8324
-2.3427
-2.82673
-3.2621
-3.62084
-3.87062
-3.98077
-3.92883
-3.70588
-3.31719
-2.78469
-2.14572
-1.49738
-0.896551
-0.416568
-0.173564
-0.0741041
24.7572
15.0434
9.32477
5.74962
3.65143
2.41792
1.62479
1.06949
0.655935
0.236053
-0.239765
-0.774437
-1.34235
-1.91077
-2.45996
-2.97793
-3.44531
-3.83036
-4.09587
-4.20968
-4.15056
-3.91102
-3.49098
-2.88002
-2.17104
-1.52048
-0.864774
-0.293351
-0.0135624
-0.0158805
33.6367
24.021
16.7932
11.5084
7.77014
5.1763
3.39393
2.17579
1.30878
0.599456
-0.031172
-0.62997
-1.23996
-1.86978
-2.49246
-3.07921
-3.60288
-4.02535
-4.30501
-4.41175
-4.32957
-4.05244
-3.58356
-2.9482
-2.23814
-1.4706
-0.727996
-0.104188
0.16693
0.0653365
41.3835
32.5473
24.7176
18.3067
13.3531
9.61325
6.809
4.70183
3.08988
1.81283
0.766815
-0.129956
-0.945826
-1.71594
-2.43987
-3.10223
-3.679
-4.13403
-4.42879
-4.53679
-4.44313
-4.13879
-3.62663
-2.93907
-2.14816
-1.32267
-0.576919
-0.0147911
0.317519
0.172623
47.6788
39.9256
32.1922
25.3179
19.6562
15.0927
11.4247
8.48033
6.11158
4.18661
2.59542
1.24732
0.0713857
-0.976278
-1.9123
-2.73571
-3.43369
-3.98182
-4.34854
-4.50331
-4.42229
-4.09582
-3.53993
-2.80416
-1.96689
-1.11322
-0.347932
0.219393
0.486369
0.201554
52.8015
46.094
38.8541
32.018
26.0872
21.0461
16.7711
13.1646
10.1375
7.59494
5.44449
3.60543
2.01249
0.619707
-0.598427
-1.65073
-2.53284
-3.22845
-3.71301
-3.96174
-3.95766
-3.69792
-3.19889
-2.50112
-1.67416
-0.815186
-0.0494218
0.483968
0.64081
0.155244
56.9799
51.1651
44.5755
38.0765
32.2016
26.9955
22.3924
18.3501
14.8301
11.7783
9.13201
6.83059
4.82148
3.06405
1.53192
0.212447
-0.894893
-1.78038
-2.42784
-2.82091
-2.94936
-2.81457
-2.43528
-1.85409
-1.14139
-0.393327
0.269413
0.701059
0.721812
-0.00733035
60.3881
55.3079
49.3835
43.3596
37.7412
32.6002
27.9043
23.6453
19.8204
16.4102
13.3811
10.6953
8.31704
6.21638
4.37207
2.7725
1.41516
0.305176
-0.547665
-1.13348
-1.4476
-1.4961
-1.30155
-0.908214
-0.384962
0.17454
0.650978
0.895737
0.719797
-0.251114
63.1863
58.7052
53.3929
47.8769
42.6114
37.6751
33.0518
28.7503
24.7887
21.1712
17.8874
14.9197
12.2488
9.85712
7.73145
5.86407
4.25311
2.90169
1.81579
1.00073
0.456778
0.174223
0.128485
0.275757
0.549918
0.860897
1.09314
1.102
0.707474
-0.444732
65.5043
61.5138
56.7374
51.7061
46.8211
42.1574
37.7054
33.4798
29.5084
25.8093
22.3874
19.2401
16.3617
13.7458
11.3873
9.28337
7.43463
5.84411
4.51596
3.45281
2.6522
2.10261
1.77929
1.6405
1.62445
1.64738
1.60217
1.35639
0.754084
-0.505553
67.4393
63.8542
59.5379
54.945
50.4299
46.0601
41.8274
37.747
33.8497
30.1598
26.6913
23.4514
20.4438
17.6705
15.1333
12.8344
10.7768
8.96473
7.40187
6.08965
5.02454
4.19473
3.57682
3.13255
2.80622
2.52301
2.18832
1.68828
0.898322
-0.418382
69.0642
65.8178
61.8944
57.6886
53.515
49.4339
45.4359
41.5345
37.7594
34.1371
30.686
27.4187
24.345
21.4725
18.8079
16.3569
14.1255
12.1187
10.3407
8.79281
7.47137
6.3655
5.45421
4.70381
4.06595
3.47639
2.85539
2.11038
1.14803
-0.206046
70.4352
67.4742
63.8865
60.0189
56.153
52.3421
48.5756
44.8639
41.2343
37.7129
34.3196
31.0698
27.9762
25.0501
22.301
19.7375
17.367
15.196
13.229
11.4677
9.90925
8.54414
7.35442
6.31154
5.37489
4.49135
3.59638
2.618
1.4896
0.0926526
71.5959
68.8768
65.5769
62.0037
58.4115
54.8474
51.2995
47.7752
44.2986
40.8944
37.582
34.3778
31.2961
28.3496
25.5496
22.9063
20.4282
18.1226
15.9946
14.0465
12.2761
10.676
9.23126
7.91847
6.70454
5.54679
4.3946
3.19376
1.89811
0.43587
72.5806
70.0675
67.0151
63.6981
60.3474
57.0055
53.6592
50.3131
46.988
43.7062
40.4863
37.3444
34.2949
31.3512
28.5254
25.8282
23.269
20.8555
18.5932
16.4849
14.5297
12.7218
11.0493
9.49338
8.02777
6.61883
5.22759
3.8138
2.34543
0.787031
73.4168
71.0798
68.2405
65.1463
62.0083
58.8647
55.7016
52.5209
49.3404
46.1799
43.0567
39.9857
36.9809
34.0557
31.2221
28.4912
25.8725
23.3738
21.0012
18.758
16.6441
14.6553
12.7827
11.0113
9.32033
7.6837
6.0714
4.45325
2.80588
1.11959
74.1267
71.9403
69.285
66.3846
63.433
60.4654
57.467
54.4376
51.3922
48.3482
45.321
42.3243
39.3714
36.4748
33.6464
30.8969
28.2359
25.6713
23.2092
20.8534
18.6047
16.4605
14.4137
12.453
10.5619
8.72004
6.90387
5.0899
3.2592
1.4182
74.7288
72.6714
70.1748
67.4426
64.6542
61.8417
58.9903
56.0977
53.1764
50.2416
47.3068
44.3845
41.4866
38.6249
35.8107
33.0541
30.3645
27.7497
25.2159
22.7671
20.405
18.1279
15.9307
13.8046
11.7366
9.71026
7.7066
5.70612
3.69143
1.67729
75.2382
73.2912
70.9312
68.3448
65.6986
63.0224
60.301
57.5309
54.7221
51.8879
49.0401
46.1896
43.3473
40.5239
37.7297
34.9745
32.267
29.6149
27.0243
24.4995
22.0424
19.6525
17.3261
15.0561
12.8322
10.6406
8.4653
6.2889
4.09395
1.89783
75.6679
73.815
71.5725
69.1121
66.5891
64.0317
61.4246
58.763
56.055
53.312
50.5444
47.7616
44.9734
42.1893
39.4188
36.6708
33.9537
31.2747
28.6398
26.0532
23.5174
21.0323
18.5953
16.2008
13.84
11.5011
9.16985
6.82972
4.46241
2.08438
76.0283
74.2554
72.1133
69.7609
67.3442
64.8895
62.3819
59.8153
57.1965
54.5351
51.8401
49.1198
46.3825
43.637
40.8918
38.155
35.4343
32.7366
30.0676
27.4314
24.8308
22.2659
19.735
17.2332
14.7531
12.2839
9.81238
7.32222
4.7941
2.24153
76.3297
74.6241
72.5672
70.3068
67.9807
65.614
63.1919
60.7076
58.1664
55.5768
52.9463
50.2823
47.5919
44.8829
42.163
39.4395
36.7196
34.0095
31.3147
28.6392
25.9856
23.3545
20.7445
18.1513
15.5681
12.9851
10.3891
7.76395
5.08933
2.37451
76.5776
74.928
72.9424
70.7592
68.5093
66.2168
63.8671
61.4529
58.9782
56.4503
53.876
51.2614
48.6128
45.9372
43.2412
40.5318
37.8152
35.0974
32.3834
29.677
26.9808
24.2955
21.6196
18.9495
16.2787
13.5975
10.8933
8.14932
5.34467
2.48402
76.7832
75.1793
73.2523
71.1327
68.9457
66.7145
64.4247
62.0687
59.6496
57.1737
54.6469
52.0744
49.4621
46.8157
44.1415
41.4456
38.7338
36.0117
33.2837
30.5535
27.8236
25.0945
22.3651
19.6316
16.8878
14.1242
11.328
8.48228
5.56533
2.57636
76.9428
75.3749
73.4943
71.4253
69.2882
67.1059
64.8641
62.5547
60.1803
57.7463
55.2579
52.72
50.1373
47.5153
44.8596
42.1757
39.469
36.7445
34.0065
31.2585
28.5025
25.7392
22.9673
20.1833
17.3807
14.5502
11.6788
8.74918
5.73935
2.64382
77.0783
75.5371
73.6919
71.6613
69.562
67.4166
65.2112
62.9374
60.597
58.1951
55.7363
53.2249
50.6653
48.0623
45.4212
42.7471
40.0449
37.3194
34.5745
31.8135
29.0383
26.2495
23.4457
20.6233
17.7759
14.894
11.9644
8.96922
5.88584
2.70207
77.162
75.6376
73.8156
71.811
69.7373
67.6167
65.4355
63.1855
60.868
58.4876
56.0486
53.5551
51.0111
48.4211
45.79
43.1226
40.4236
37.6976
34.9482
32.1786
29.3907
26.5848
23.7595
20.9112
18.0334
15.1163
12.1463
9.10539
5.9703
2.72504
77.253
75.7302
73.9209
71.9319
69.8726
67.7652
65.5971
63.3597
61.0541
58.6848
56.256
53.7714
51.235
48.6512
46.0246
43.36
40.6619
37.9347
35.1822
32.4072
29.6118
26.7962
23.959
21.0964
18.2021
15.2661
12.2745
9.20801
6.04082
2.74282
)
;

boundaryField
{
    inlet
    {
        type            zeroGradient;
    }
    outlet
    {
        type            fixedValue;
        value           uniform 0;
    }
    flap
    {
        type            zeroGradient;
    }
    upperWall
    {
        type            zeroGradient;
    }
    lowerWall
    {
        type            zeroGradient;
    }
    frontAndBack
    {
        type            empty;
    }
}


// ************************************************************************* //
