/*--------------------------------*- C++ -*----------------------------------*\
  =========                 |
  \\      /  F ield         | OpenFOAM: The Open Source CFD Toolbox
   \\    /   O peration     | Website:  https://openfoam.org
    \\  /    A nd           | Version:  7
     \\/     M anipulation  |
\*---------------------------------------------------------------------------*/
FoamFile
{
    version     2.0;
    format      ascii;
    class       surfaceScalarField;
    location    "1.6";
    object      phi;
}
// * * * * * * * * * * * * * * * * * * * * * * * * * * * * * * * * * * * * * //

dimensions      [0 3 -1 0 0 0 0];

internalField   nonuniform List<scalar> 
5457
(
0.198417
0.00158278
0.196479
0.00193805
0.19419
0.00228895
0.191506
0.00268454
0.188424
0.00308217
0.184946
0.00347769
0.181066
0.0038794
0.176772
0.00429471
0.172043
0.00472875
0.166857
0.00518557
0.161189
0.00566866
0.155008
0.006181
0.148283
0.00672477
0.140982
0.00730101
0.133073
0.00790907
0.124527
0.00854596
0.115322
0.0092054
0.105445
0.00987674
0.0949011
0.0105437
0.0837178
0.0111833
0.0719533
0.0117645
0.0597052
0.0122482
0.0471168
0.0125884
0.0343774
0.0127394
0.0216845
0.0126929
0.00904052
0.0126439
-0.00288354
0.0119241
-0.0084323
0.00554875
-0.00801412
-0.000418179
-0.00801412
0.199928
0.00165502
0.199175
0.00269117
0.197963
0.00350075
0.196329
0.00431867
0.194268
0.0051432
0.191777
0.00596869
0.188849
0.00680722
0.185471
0.00767227
0.181626
0.00857419
0.17729
0.00952133
0.172438
0.010521
0.167039
0.0115794
0.161063
0.0127014
0.154474
0.0138897
0.147239
0.0151438
0.139327
0.0164588
0.130709
0.0178231
0.121369
0.0192168
0.111304
0.0206087
0.100534
0.0219535
0.0891085
0.0231896
0.0771199
0.0242367
0.0647128
0.0249955
0.0521041
0.0253481
0.0396424
0.0251546
0.0280896
0.0241967
0.0185569
0.0214568
0.00873779
0.0153678
0.00114816
0.00717145
-0.00686596
0.19978
0.00187485
0.199086
0.0033857
0.197944
0.00464254
0.196406
0.00585625
0.194479
0.00707032
0.192159
0.0082887
0.189441
0.00952552
0.186315
0.0107985
0.182766
0.0121227
0.178777
0.0135106
0.174324
0.0149733
0.169383
0.0165205
0.163925
0.0181599
0.157918
0.0198967
0.15133
0.0217318
0.144129
0.0236602
0.136283
0.0256682
0.12777
0.0277305
0.118573
0.0298055
0.108695
0.0318317
0.0981622
0.0337221
0.0870388
0.0353601
0.0754405
0.0365938
0.0635612
0.0372274
0.0517163
0.0369995
0.0403758
0.0355372
0.0297095
0.0321231
0.0191468
0.0259305
0.00956874
0.0167496
0.00270278
0.199703
0.00217219
0.199007
0.00408169
0.197885
0.00576394
0.196373
0.00736814
0.194484
0.00895944
0.192217
0.0105557
0.189569
0.0121741
0.186532
0.0138352
0.183097
0.0155578
0.17925
0.0173576
0.174975
0.0192486
0.170252
0.0212432
0.16506
0.0233515
0.159376
0.0255806
0.153175
0.0279331
0.14643
0.0304049
0.139116
0.0329821
0.131209
0.0356373
0.122691
0.0383244
0.11355
0.0409725
0.103793
0.0434792
0.0934494
0.0457034
0.0825869
0.0474562
0.0713224
0.048492
0.0598281
0.0484939
0.0483015
0.0470638
0.0367942
0.0436304
0.0251756
0.0375491
0.0133305
0.0285946
0.0160333
0.199667
0.00250518
0.198963
0.00478564
0.197861
0.00686614
0.196378
0.0088508
0.194528
0.0108092
0.192313
0.0127713
0.189728
0.0147588
0.186769
0.0167946
0.183426
0.0189001
0.17969
0.0210938
0.175547
0.0233919
0.170982
0.0258085
0.165978
0.0283553
0.160518
0.0310407
0.154583
0.0338683
0.148153
0.0368349
0.141207
0.0399273
0.133727
0.0431182
0.12569
0.0463606
0.117082
0.0495813
0.107888
0.0526724
0.0981094
0.0554823
0.0877591
0.0578066
0.0768723
0.0593788
0.0655012
0.059865
0.0536994
0.0588655
0.0414452
0.0558847
0.0285813
0.050413
0.0148505
0.0423253
0.0308838
0.199652
0.00285278
0.198948
0.0054904
0.197869
0.00794497
0.196424
0.010296
0.194623
0.0126103
0.192468
0.0149258
0.189958
0.0172694
0.187086
0.0196663
0.183846
0.0221401
0.180228
0.0247116
0.176221
0.0273988
0.171812
0.0302173
0.166987
0.0331801
0.161732
0.0362964
0.156029
0.0395708
0.149863
0.043001
0.143216
0.0465748
0.136067
0.0502667
0.128396
0.0540319
0.120177
0.0577999
0.111384
0.0614658
0.101986
0.0648803
0.0919521
0.0678402
0.0812515
0.0700794
0.0698517
0.0712648
0.0577142
0.071003
0.044758
0.0688409
0.0308477
0.0643234
0.0158736
0.0572994
0.0467575
0.19965
0.00320313
0.198953
0.00618708
0.197902
0.00899549
0.196502
0.0116967
0.194758
0.0143535
0.192675
0.0170089
0.190251
0.019694
0.18748
0.0224368
0.184357
0.0252629
0.180874
0.0281951
0.17702
0.0312532
0.172783
0.0344542
0.168151
0.0378123
0.163109
0.0413379
0.157643
0.0450368
0.151736
0.048908
0.145369
0.0529416
0.138521
0.0571152
0.131164
0.061389
0.123264
0.0656994
0.114779
0.069951
0.105653
0.0740066
0.0958164
0.0776766
0.0851871
0.0807087
0.07367
0.0827819
0.0611638
0.0835092
0.0475578
0.0824469
0.0327614
0.0791198
0.0167853
0.0732755
0.0635428
0.199654
0.00354889
0.198973
0.0068679
0.197957
0.0100122
0.196607
0.0130464
0.19493
0.0160307
0.192928
0.0190105
0.190601
0.0220211
0.187945
0.025093
0.184954
0.0282537
0.181621
0.0315279
0.177938
0.0349371
0.173892
0.0384999
0.169472
0.042232
0.164665
0.0461453
0.159454
0.0502474
0.153822
0.0545398
0.147748
0.0590161
0.141204
0.0636589
0.134157
0.0684359
0.126562
0.0732945
0.118359
0.0781542
0.109468
0.0828973
0.0997878
0.0873571
0.0891907
0.0913058
0.0775304
0.0944422
0.0646539
0.0963856
0.0504244
0.0966764
0.0347745
0.0947696
0.0177941
0.0902559
0.0813369
0.199664
0.00388513
0.199005
0.00752642
0.198028
0.0109893
0.196736
0.0143389
0.195132
0.0176338
0.193222
0.0209214
0.191003
0.02424
0.188473
0.0276225
0.185628
0.0310986
0.182462
0.0346943
0.178966
0.0384331
0.17513
0.0423353
0.170944
0.0464181
0.166394
0.0506958
0.161463
0.0551783
0.156132
0.0598708
0.150376
0.0647717
0.144164
0.0698708
0.137454
0.075146
0.13019
0.0805591
0.122294
0.0860496
0.113666
0.0915257
0.10417
0.0968526
0.093639
0.101837
0.0818726
0.106209
0.0686594
0.109599
0.0538128
0.111523
0.0372463
0.111336
0.0190896
0.108413
0.100426
0.199677
0.00420831
0.199046
0.00815737
0.198114
0.0119216
0.196884
0.0155682
0.195362
0.0191558
0.193551
0.0227331
0.19145
0.0263409
0.189058
0.0300144
0.186372
0.0337847
0.183386
0.03768
0.180094
0.0417251
0.176487
0.045942
0.172555
0.0503502
0.168285
0.0549661
0.16366
0.0598032
0.15866
0.0648708
0.153258
0.0701738
0.147418
0.0757107
0.141092
0.0814722
0.134213
0.0874379
0.126691
0.0935714
0.118403
0.0998135
0.109186
0.106071
0.0988254
0.112197
0.0870624
0.117972
0.073603
0.123058
0.0581632
0.126963
0.0405654
0.128934
0.02091
0.128068
0.121336
0.199693
0.0045158
0.199093
0.00875647
0.198211
0.0128041
0.19705
0.016729
0.195616
0.0205903
0.193911
0.0244381
0.191936
0.0283151
0.189693
0.0322583
0.187176
0.0363008
0.184385
0.0404719
0.181312
0.0447981
0.17795
0.0493032
0.174292
0.0540088
0.170324
0.0589339
0.166032
0.0640955
0.161394
0.0695082
0.156384
0.0751837
0.150964
0.081131
0.145081
0.0873549
0.138664
0.0938551
0.131612
0.100624
0.123786
0.107639
0.114997
0.11486
0.104989
0.122205
0.0934303
0.12953
0.0799142
0.136574
0.0639872
0.14289
0.0452534
0.147668
0.0236239
0.149697
0.14496
0.19971
0.00480552
0.199147
0.0093202
0.198318
0.0136326
0.197231
0.0178163
0.195889
0.0219316
0.194298
0.0260297
0.192458
0.0301548
0.190371
0.0343457
0.188035
0.0386366
0.185448
0.0430585
0.182607
0.0476391
0.179507
0.0524038
0.176139
0.0573762
0.172495
0.0625781
0.168561
0.06803
0.164317
0.0737516
0.159739
0.0797622
0.154788
0.086081
0.149416
0.0927278
0.143547
0.0997233
0.137081
0.10709
0.129872
0.114849
0.121714
0.123018
0.112319
0.1316
0.101285
0.140564
0.0880648
0.149795
0.0719483
0.159006
0.0521127
0.167503
0.0279044
0.173906
0.172865
0.19973
0.00507587
0.199204
0.0098457
0.198433
0.0144036
0.197423
0.0188261
0.19618
0.0231748
0.194708
0.0275021
0.193009
0.0318534
0.191086
0.0362688
0.188939
0.0407837
0.186567
0.0454301
0.18397
0.0502368
0.181143
0.0552308
0.178082
0.0604372
0.17478
0.0658803
0.171226
0.0715838
0.167405
0.0775724
0.163295
0.0838719
0.158865
0.0905112
0.154069
0.097524
0.148841
0.104951
0.143087
0.112844
0.136669
0.121266
0.129387
0.130299
0.120944
0.140043
0.110895
0.150613
0.0985661
0.162123
0.082935
0.174638
0.0624755
0.187963
0.0351569
0.201224
0.208022
0.19975
0.00532557
0.199265
0.0103307
0.198555
0.0151139
0.197626
0.0197547
0.196485
0.0243159
0.195137
0.0288507
0.193585
0.0334056
0.191832
0.0380216
0.18988
0.042735
0.187732
0.0475786
0.185387
0.0525822
0.182844
0.0577735
0.180102
0.063179
0.177157
0.068825
0.174003
0.0747378
0.17063
0.0809457
0.167022
0.08748
0.163156
0.0943774
0.158997
0.101683
0.154495
0.109453
0.149575
0.117764
0.144126
0.126715
0.137982
0.136444
0.130883
0.147142
0.122416
0.159081
0.111886
0.172653
0.0980628
0.188461
0.0786003
0.207425
0.0487263
0.231098
0.256748
0.199772
0.00555368
0.199329
0.0107733
0.198682
0.0157613
0.197837
0.0205994
0.196802
0.0253515
0.195581
0.0300716
0.194179
0.034807
0.192602
0.0395992
0.190851
0.0444852
0.188932
0.0494981
0.186846
0.0546682
0.184596
0.0600238
0.182182
0.0655922
0.179607
0.0714006
0.176867
0.0774772
0.173961
0.0838524
0.17088
0.0905611
0.167612
0.0976448
0.16414
0.105155
0.160433
0.11316
0.156449
0.121748
0.152122
0.131042
0.147353
0.141213
0.141984
0.152511
0.135755
0.16531
0.128196
0.180212
0.11837
0.198287
0.104026
0.221769
0.0778319
0.257293
0.33458
0.00830677
-0.00830677
0.015322
-0.00701522
0.0212214
-0.00589937
0.026311
-0.00508962
0.0307687
-0.00445768
0.0346873
-0.00391863
0.0381276
-0.00344034
0.0411357
-0.00300809
0.0437446
-0.0026089
0.0459741
-0.00222951
0.0478292
-0.0018551
0.0493319
-0.00150267
0.050511
-0.00117908
0.051391
-0.00088
0.0520308
-0.000639802
0.052501
-0.000470218
0.0527718
-0.000270799
0.0526988
7.29794e-05
0.0521854
0.0005134
0.0512684
0.000916988
0.0500671
0.00120133
0.0487611
0.00130596
0.0475562
0.00120498
0.0466522
0.000903927
0.0461726
0.000479631
0.0461
7.26021e-05
0.0466051
-0.000505078
0.0479685
-0.00136341
0.0505704
-0.00260191
-0.0039562
0.00583858
-0.0141454
0.0114359
-0.0126126
0.0163159
-0.0107793
0.0205422
-0.00931595
0.024239
-0.00815443
0.0274768
-0.00715647
0.0302944
-0.00625794
0.0327189
-0.00543255
0.034772
-0.004662
0.0364656
-0.0039231
0.0377716
-0.00316113
0.0387166
-0.00244768
0.0392665
-0.00172893
0.0390629
-0.000676414
0.037812
0.00061109
0.0355708
0.00177099
0.0327611
0.00253892
0.029801
0.00303301
0.0269232
0.00339124
0.0242371
0.0036031
0.0218458
0.00359264
0.0198715
0.00328022
0.0184317
0.00264482
0.0176264
0.00170915
0.0173798
0.000726244
0.0178011
-0.000348635
0.0191263
-0.00183035
0.0216334
-0.00387047
0.0254567
-0.00642525
-0.00887135
0.0036855
-0.0178308
0.00729579
-0.0162229
0.0104436
-0.0139271
0.0131328
-0.0120052
0.0153905
-0.0104121
0.0172354
-0.00900136
0.0186738
-0.0076964
0.0197011
-0.00645986
0.0203182
-0.00527905
0.0205557
-0.00416058
0.0202557
-0.00286116
0.0189185
-0.00111049
0.0164076
0.000781948
0.0134437
0.00228747
0.0106531
0.00340173
0.00796239
0.00446169
0.0052381
0.00526321
0.00254209
0.00572903
4.56809e-05
0.00588765
-0.00208909
0.00573787
-0.00376721
0.00527076
-0.00496456
0.00447757
-0.00566059
0.00334085
-0.00583247
0.00188103
-0.00531574
0.000209521
-0.00396622
-0.00169816
-0.00172857
-0.00406799
0.00118312
-0.00678216
0.00484968
-0.0100918
-0.0127327
0.00172353
-0.0195544
0.0032384
-0.0177377
0.00445424
-0.0151429
0.00536915
-0.0129201
0.00592337
-0.0109663
0.00610048
-0.00917848
0.00587436
-0.00747028
0.0051912
-0.0057767
0.00394177
-0.00402961
0.00185411
-0.00207292
-0.0010336
2.65487e-05
-0.00390198
0.0017579
-0.00630758
0.00318754
-0.0086296
0.00460949
-0.011059
0.00583114
-0.0134228
0.00682546
-0.0156547
0.00749509
-0.0176915
0.00776583
-0.0194361
0.00763225
-0.0207992
0.007101
-0.02171
0.00618159
-0.0221232
0.00489078
-0.0220483
0.0032659
-0.0215134
0.00134616
-0.0204306
-0.00087333
-0.0187678
-0.00336091
-0.0167601
-0.00607567
-0.0144779
-0.00906437
-0.0122871
-0.0122827
-0.0149046
-0.000274715
-0.0192797
-0.000782692
-0.0172298
-0.00151646
-0.0144092
-0.00248459
-0.011952
-0.00377228
-0.00967861
-0.00540355
-0.0075472
-0.00739743
-0.0054764
-0.00976275
-0.00341138
-0.0125114
-0.00128094
-0.0153201
0.0007357
-0.0177851
0.00249162
-0.0200878
0.00406058
-0.0224517
0.00555144
-0.0247486
0.00690642
-0.0269484
0.00803088
-0.0289768
0.00885385
-0.030774
0.00929229
-0.032294
0.00928591
-0.0334817
0.00881988
-0.0342853
0.00790459
-0.0346692
0.00656557
-0.0346185
0.00484004
-0.0341281
0.0027755
-0.0332028
0.0004209
-0.0319243
-0.0021519
-0.0303894
-0.00489574
-0.0287493
-0.00771582
-0.0271581
-0.0106556
-0.025784
-0.0136567
-0.0162449
-0.00214821
-0.0171314
-0.00463796
-0.01474
-0.00719651
-0.0118506
-0.00988703
-0.00926145
-0.0127053
-0.00686038
-0.0156396
-0.00461284
-0.0186862
-0.0024298
-0.0217915
-0.000306112
-0.02466
0.00158759
-0.0272204
0.00329612
-0.0296533
0.00492444
-0.0320504
0.00645772
-0.0343593
0.00786034
-0.0365229
0.00907007
-0.0384972
0.0100051
-0.0402323
0.010589
-0.0416876
0.0107476
-0.0428314
0.0104297
-0.0436319
0.00962038
-0.0440622
0.00833487
-0.0441095
0.00661288
-0.0437813
0.00451181
-0.0430938
0.00208797
-0.0420786
-0.000594287
-0.0408262
-0.00340424
-0.039495
-0.00622699
-0.0382059
-0.00900496
-0.037093
-0.0117684
-0.0362162
-0.0145335
-0.0169667
-0.00393112
-0.0132003
-0.00810382
-0.0105673
-0.0121796
-0.00777488
-0.016157
-0.00528403
-0.0200357
-0.00298165
-0.0237763
-0.000872263
-0.0272311
0.001025
-0.0302842
0.00274693
-0.0330597
0.00436308
-0.0357126
0.0059491
-0.038246
0.00745782
-0.0406421
0.00885379
-0.0428693
0.0100876
-0.0448915
0.0110923
-0.0466759
0.0117895
-0.0481893
0.0121024
-0.0494047
0.011963
-0.050301
0.011326
-0.0508598
0.0101792
-0.0510687
0.0085437
-0.0509268
0.00647107
-0.0504511
0.00403602
-0.0496722
0.00130907
-0.0486687
-0.00159775
-0.0475331
-0.00453981
-0.0463988
-0.00736134
-0.04539
-0.0100137
-0.0446165
-0.0125419
-0.0441134
-0.0150367
-0.0172357
-0.00549365
-0.00770668
-0.0110836
-0.00497736
-0.0163291
-0.00252943
-0.0211839
-0.000429229
-0.0255145
0.00134904
-0.0293341
0.0029473
-0.0327411
0.00443198
-0.0358816
0.0058874
-0.0388285
0.00731004
-0.0415759
0.00869645
-0.0441292
0.0100111
-0.0464825
0.0112071
-0.0486198
0.0122249
-0.0505203
0.0129928
-0.0521625
0.0134317
-0.0535253
0.0134651
-0.0545904
0.013028
-0.055343
0.0120786
-0.0557714
0.0106077
-0.0558703
0.00864258
-0.055645
0.00624578
-0.0551125
0.00350355
-0.0543149
0.000511489
-0.0533472
-0.00256552
-0.0523226
-0.00556434
-0.0513564
-0.00832755
-0.0505689
-0.0108013
-0.050057
-0.0130538
-0.0498564
-0.0152372
-0.0171566
-0.00703262
-0.000674059
-0.0135098
0.00149981
-0.0192199
0.00318068
-0.0242097
0.00456059
-0.0286115
0.00575081
-0.0325696
0.00690537
-0.0361736
0.00803598
-0.0394601
0.00917395
-0.0424701
0.01032
-0.0452258
0.0114522
-0.0477424
0.0125278
-0.0500257
0.0134903
-0.0520723
0.0142716
-0.053873
0.0147935
-0.0554152
0.0149739
-0.0566848
0.0147348
-0.0576678
0.0140111
-0.0583513
0.0127621
-0.0587239
0.0109803
-0.0587807
0.00869941
-0.0585289
0.00599397
-0.0579933
0.00296789
-0.05723
-0.000251719
-0.0563275
-0.00346804
-0.0554051
-0.00648672
-0.0545786
-0.00915408
-0.0539682
-0.0114117
-0.0536697
-0.0133524
-0.0537217
-0.0151852
-0.0168096
-0.00756276
0.0068887
-0.0143942
0.00833121
-0.0203671
0.00915365
-0.0256192
0.00981262
-0.0302665
0.0103981
-0.0343761
0.011015
-0.0380396
0.0116995
-0.0413275
0.0124618
-0.0442943
0.0132867
-0.0469787
0.0141366
-0.0494071
0.0149562
-0.0515948
0.015678
-0.0535477
0.0162245
-0.0552645
0.0165102
-0.0567385
0.0164479
-0.0579594
0.0159556
-0.0589141
0.0149658
-0.0595879
0.0134359
-0.0599666
0.011359
-0.0600408
0.00877359
-0.0598143
0.00576749
-0.0593151
0.00246865
-0.0586093
-0.000957572
-0.0577845
-0.00429277
-0.0569542
-0.00731703
-0.0562429
-0.00986535
-0.0557763
-0.0118783
-0.0556568
-0.0134719
-0.0559264
-0.0149155
-0.0162349
-0.0076512
0.0145399
-0.0147839
0.0154639
-0.0210043
0.015374
-0.0263656
0.0151739
-0.0310023
0.0150348
-0.0350363
0.015049
-0.0385779
0.015241
-0.0417195
0.0156034
-0.044532
0.0160993
-0.0470651
0.0166697
-0.0493522
0.0172432
-0.0514147
0.0177405
-0.0532645
0.0180742
-0.054905
0.0181508
-0.0563328
0.0178758
-0.0575388
0.0171616
-0.0585088
0.0159357
-0.0592241
0.0141513
-0.059664
0.0117989
-0.0598106
0.0089202
-0.0596598
0.00561663
-0.059236
0.00204489
-0.0586094
-0.00158418
-0.0578667
-0.00503542
-0.0571214
-0.00806242
-0.0565068
-0.01048
-0.0561581
-0.012227
-0.056191
-0.013439
-0.0566558
-0.0144507
-0.0154428
-0.00797101
0.0225109
-0.015316
0.022809
-0.0215224
0.0215804
-0.0266845
0.0203361
-0.0310284
0.0193787
-0.0347425
0.0187631
-0.0379647
0.0184633
-0.0408058
0.0184445
-0.0433486
0.0186421
-0.0456467
0.0189678
-0.0477344
0.0193309
-0.0496348
0.019641
-0.0513627
0.0198021
-0.0529239
0.0197119
-0.054316
0.019268
-0.0555298
0.0183754
-0.0565489
0.0169548
-0.0573501
0.0149524
-0.0579042
0.012353
-0.0581811
0.00919715
-0.0581629
0.00559838
-0.057862
0.00174404
-0.0573471
-0.00209907
-0.0567029
-0.00567964
-0.0560444
-0.00872091
-0.0555162
-0.0110082
-0.0552665
-0.0124767
-0.0554301
-0.0132754
-0.0560768
-0.013804
-0.0144282
-0.00866808
0.031179
-0.0162896
0.0304305
-0.0222022
0.027493
-0.0267759
0.0249097
-0.0304921
0.0230949
-0.0336262
0.0218973
-0.0363225
0.0211596
-0.0387021
0.0208241
-0.0408567
0.0207967
-0.0428336
0.0209447
-0.0446579
0.0211552
-0.0463503
0.0213333
-0.047926
0.0213778
-0.0493915
0.0211774
-0.0507444
0.0206209
-0.0519751
0.019606
-0.0530661
0.0180458
-0.0539905
0.0158768
-0.054711
0.0130736
-0.0551835
0.00966956
-0.0553693
0.00578424
-0.0552595
0.00163425
-0.0549105
-0.00244807
-0.0544026
-0.00618756
-0.05385
-0.00927349
-0.0534109
-0.0114473
-0.0532489
-0.0126386
-0.0535244
-0.013
-0.0543456
-0.0129828
-0.0131764
-0.010044
0.041223
-0.0182127
0.0385992
-0.0233983
0.0326785
-0.0267952
0.0283067
-0.0294699
0.0257695
-0.0317634
0.0241908
-0.033727
0.0231232
-0.0354802
0.0225774
-0.0371315
0.022448
-0.0387035
0.0225167
-0.0401962
0.022648
-0.0416239
0.022761
-0.0430036
0.0227575
-0.0443416
0.0225154
-0.0456344
0.0219138
-0.0468732
0.0208448
-0.0480425
0.0192151
-0.0491157
0.01695
-0.0500506
0.0140085
-0.0507893
0.0104083
-0.0512676
0.00626255
-0.0514443
0.00181089
-0.0513449
-0.00254746
-0.0510443
-0.0064882
-0.0506464
-0.00967135
-0.0503225
-0.0117712
-0.0502505
-0.0127106
-0.0506203
-0.0126302
-0.0516099
-0.0119932
-0.0116691
-0.012866
0.054089
-0.022064
0.0477972
-0.0256515
0.036266
-0.0267852
0.0294404
-0.0279048
0.0268892
-0.0291744
0.0254603
-0.0302195
0.0241683
-0.0311735
0.0235313
-0.0322228
0.0234973
-0.033322
0.0236159
-0.0344129
0.0237388
-0.0355066
0.0238548
-0.0366292
0.0238801
-0.0377862
0.0236725
-0.0389703
0.0230978
-0.0401747
0.0220492
-0.0413917
0.0204322
-0.0426022
0.0181605
-0.0437674
0.0151737
-0.044826
0.0114669
-0.0456956
0.00713215
-0.0462953
0.00241059
-0.0465897
-0.00225309
-0.0466297
-0.00644819
-0.0464926
-0.00980845
-0.0463588
-0.011905
-0.0464091
-0.0126603
-0.0468601
-0.0121793
-0.0480055
-0.0108477
-0.00987922
0.207446
0.00576687
0.207033
0.0111866
0.20643
0.0163649
0.205644
0.021385
0.204683
0.026312
0.203555
0.0312005
0.202264
0.0360979
0.200816
0.0410464
0.199219
0.0460831
0.197476
0.0512411
0.195593
0.0565507
0.193576
0.0620405
0.191431
0.0677377
0.189162
0.0736697
0.186774
0.079865
0.184272
0.0863549
0.181658
0.0931751
0.178934
0.100368
0.176101
0.107988
0.173157
0.116104
0.170099
0.124806
0.166922
0.134219
0.163623
0.144512
0.160204
0.155929
0.156692
0.168822
0.153186
0.183718
0.150062
0.201411
0.149024
0.222807
0.160963
0.245354
0.25822
0.237323
0.21249
0.00595971
0.212116
0.0115602
0.211572
0.0169094
0.210865
0.0220921
0.210003
0.0271738
0.208994
0.0322094
0.207845
0.0372465
0.206565
0.0423273
0.205159
0.0474884
0.203637
0.052763
0.202007
0.0581807
0.200278
0.0637695
0.19846
0.0695561
0.196563
0.0755669
0.194598
0.0818295
0.192579
0.0883739
0.19052
0.0952338
0.188439
0.10245
0.186357
0.110071
0.184303
0.118158
0.182317
0.126792
0.180461
0.136075
0.178834
0.146139
0.177611
0.157153
0.177115
0.169318
0.178006
0.182827
0.181712
0.197705
0.190856
0.213662
0.206458
0.229753
0.245014
0.219664
0.217657
0.00613008
0.217327
0.01189
0.216848
0.0173891
0.216227
0.022713
0.215473
0.0279275
0.214595
0.0330875
0.213601
0.0382403
0.212501
0.0434276
0.211304
0.0486857
0.21002
0.0540465
0.208662
0.0595392
0.207241
0.0651901
0.205773
0.0710245
0.204272
0.0770671
0.202759
0.0833429
0.201254
0.0898787
0.199784
0.0967039
0.198382
0.103852
0.197088
0.111364
0.19596
0.119287
0.195075
0.127677
0.194547
0.136603
0.194547
0.146139
0.195338
0.156362
0.197331
0.167325
0.201138
0.17902
0.207527
0.191316
0.217146
0.204043
0.229685
0.217214
0.228246
0.246452
0.222951
0.00627596
0.222669
0.012172
0.22226
0.0177983
0.221732
0.0232405
0.221095
0.0285645
0.220358
0.0338245
0.219531
0.0390676
0.218624
0.0443344
0.217649
0.0496603
0.21662
0.0550761
0.21555
0.0606091
0.214456
0.066284
0.213357
0.0721238
0.212274
0.0781501
0.211232
0.0843845
0.210262
0.0908486
0.2094
0.0975656
0.208692
0.10456
0.208197
0.11186
0.207989
0.119494
0.208173
0.127493
0.208888
0.135888
0.210326
0.144701
0.212751
0.153937
0.216508
0.163569
0.222011
0.173517
0.229704
0.183623
0.240145
0.193601
0.254239
0.20312
0.209921
0.272565
0.228374
0.0063955
0.228143
0.0124028
0.227809
0.0181318
0.227382
0.023668
0.22687
0.0290766
0.226283
0.0344112
0.225633
0.0397179
0.224931
0.0450361
0.224192
0.0503997
0.22343
0.055838
0.222663
0.0613763
0.22191
0.0670367
0.221194
0.0728393
0.220543
0.078802
0.219985
0.0849417
0.21956
0.0912741
0.219311
0.0978145
0.219294
0.104577
0.219578
0.111576
0.220252
0.118821
0.221426
0.126319
0.223246
0.134068
0.225895
0.142051
0.229603
0.150229
0.234647
0.158525
0.241351
0.166812
0.250089
0.174886
0.261299
0.182391
0.275445
0.188974
0.193551
0.291815
0.233929
0.00648701
0.233753
0.012579
0.2335
0.018385
0.233178
0.0239895
0.232798
0.0294568
0.23237
0.0348394
0.231906
0.0401819
0.231419
0.0455226
0.230925
0.0508934
0.230442
0.0563216
0.229988
0.0618299
0.229587
0.0674379
0.229264
0.0731619
0.229051
0.0790157
0.228982
0.0850108
0.229099
0.0911565
0.229454
0.0974597
0.230107
0.103924
0.231132
0.11055
0.23262
0.117333
0.234682
0.124257
0.237453
0.131297
0.241096
0.138408
0.245802
0.145524
0.251787
0.152539
0.259292
0.159308
0.268553
0.165625
0.279743
0.171201
0.292949
0.175768
0.178817
0.307684
0.239619
0.00654899
0.239501
0.0126978
0.239332
0.0185538
0.239122
0.0241998
0.238879
0.0296988
0.238617
0.035102
0.238346
0.0404523
0.238083
0.0457861
0.237843
0.0511334
0.237646
0.056519
0.237512
0.0619631
0.237469
0.0674819
0.237542
0.073088
0.237767
0.0787909
0.238182
0.0845964
0.238831
0.0905075
0.239767
0.0965231
0.241054
0.102638
0.242765
0.10884
0.244987
0.11511
0.247823
0.121421
0.251391
0.127729
0.255825
0.133974
0.261273
0.140075
0.267889
0.145923
0.275822
0.151376
0.285186
0.15626
0.296023
0.160364
0.308318
0.163473
0.165325
0.32181
0.245448
0.00658017
0.245389
0.0127568
0.245308
0.0186346
0.245213
0.0242945
0.245115
0.0297977
0.245023
0.0351936
0.244952
0.0405232
0.244917
0.0458208
0.244936
0.0511143
0.24503
0.0564258
0.24522
0.0617726
0.245534
0.0671677
0.246002
0.0726199
0.246659
0.0781341
0.247544
0.0837113
0.248704
0.0893481
0.25019
0.0950366
0.252064
0.100763
0.254396
0.106508
0.257264
0.112243
0.260757
0.117928
0.264972
0.123514
0.270013
0.128933
0.275985
0.134103
0.282987
0.138921
0.291097
0.143266
0.30036
0.146997
0.310764
0.14996
0.322239
0.151997
0.152981
0.334583
0.251418
0.00657953
0.251421
0.0127539
0.25143
0.0186247
0.251455
0.0242703
0.251503
0.0297497
0.251586
0.0351102
0.251718
0.0403908
0.251916
0.0456235
0.252196
0.0508336
0.252581
0.0560408
0.253094
0.0612595
0.253763
0.0664992
0.254618
0.0717653
0.255693
0.0770584
0.25703
0.082375
0.258671
0.0877066
0.260668
0.0930398
0.263076
0.0983551
0.265958
0.103626
0.269381
0.108819
0.273418
0.113891
0.278145
0.118787
0.283635
0.123443
0.289958
0.12778
0.297169
0.131711
0.305301
0.135134
0.314354
0.137944
0.324282
0.140032
0.334987
0.141292
0.141669
0.346298
0.257532
0.00654632
0.257598
0.0126878
0.257701
0.0185223
0.257846
0.0241249
0.258043
0.0295524
0.258304
0.0348496
0.258641
0.0400534
0.259072
0.0451931
0.259613
0.0502919
0.260288
0.0553665
0.261119
0.0604285
0.262133
0.0654847
0.263362
0.0705367
0.264838
0.075582
0.2666
0.080613
0.268689
0.0856175
0.271151
0.0905777
0.274036
0.0954705
0.277396
0.100266
0.281287
0.104928
0.285765
0.109413
0.290885
0.113667
0.296695
0.117632
0.303235
0.12124
0.310529
0.124416
0.318579
0.127084
0.327357
0.129166
0.336799
0.130589
0.346802
0.131289
0.131246
0.357225
0.263794
0.00648006
0.263924
0.0125576
0.26412
0.0183261
0.264388
0.0238571
0.264736
0.0292047
0.265174
0.0344113
0.265716
0.0395111
0.266378
0.0445312
0.267178
0.0494921
0.268136
0.0544081
0.269277
0.0592882
0.270625
0.0641363
0.272211
0.0689513
0.274065
0.0737278
0.276222
0.0784553
0.278721
0.0831188
0.281601
0.0876981
0.284903
0.0921681
0.288672
0.0964979
0.292948
0.100651
0.297775
0.104587
0.303186
0.108256
0.309212
0.111607
0.315868
0.114584
0.323156
0.117128
0.331057
0.119183
0.339529
0.120694
0.348503
0.121616
0.357881
0.121911
0.121581
0.367546
0.270207
0.00638055
0.270401
0.012363
0.270692
0.0180357
0.271082
0.0234667
0.27158
0.028707
0.272195
0.0337963
0.272939
0.0387662
0.273829
0.0436415
0.274881
0.0484402
0.276115
0.0531743
0.277553
0.0578503
0.279219
0.0624698
0.281141
0.0670297
0.283347
0.0715221
0.285867
0.0759347
0.288735
0.0802509
0.291984
0.0844496
0.295647
0.0885051
0.299757
0.0923875
0.304346
0.0960627
0.30944
0.0994926
0.315059
0.102636
0.321217
0.105449
0.327913
0.107888
0.335134
0.109908
0.342848
0.111468
0.351008
0.112534
0.359544
0.113079
0.36837
0.113086
0.112566
0.377386
0.276773
0.00624791
0.277032
0.0121042
0.277416
0.0176518
0.277928
0.0229548
0.278574
0.028061
0.279363
0.0330073
0.280306
0.0378229
0.281418
0.04253
0.282714
0.0471444
0.284212
0.0516759
0.285933
0.0561291
0.287899
0.0605038
0.290134
0.0647949
0.292663
0.0689934
0.295512
0.0730858
0.298708
0.0770551
0.302277
0.0808801
0.306246
0.0845363
0.310638
0.0879958
0.315472
0.0912279
0.320765
0.0941996
0.326525
0.0968765
0.332751
0.0992235
0.339432
0.101207
0.346545
0.102795
0.354053
0.10396
0.361906
0.104681
0.37004
0.104946
0.378377
0.104749
0.104107
0.386836
0.283498
0.00608249
0.28382
0.0117819
0.284297
0.0171756
0.284928
0.0223234
0.285719
0.0272696
0.286678
0.0320486
0.287814
0.0366869
0.289139
0.0412045
0.290669
0.0456149
0.292419
0.0499262
0.294406
0.0541414
0.296651
0.0582586
0.299174
0.062272
0.301996
0.0661715
0.305138
0.0699438
0.308622
0.0735717
0.312466
0.0770354
0.31669
0.0803123
0.321309
0.0833773
0.326333
0.086204
0.331768
0.0887648
0.337612
0.0910319
0.343857
0.0929786
0.350484
0.0945799
0.357464
0.0958145
0.364759
0.0966654
0.372319
0.0971217
0.380085
0.0971794
0.387992
0.0968419
0.0961292
0.39597
0.290384
0.00588493
0.290768
0.0113975
0.291335
0.0166092
0.292083
0.0215753
0.293015
0.0263371
0.294138
0.0309258
0.295459
0.0353657
0.296989
0.0396744
0.298741
0.0438638
0.300727
0.0479402
0.302963
0.0519052
0.305465
0.0557563
0.30825
0.0594868
0.311335
0.0630867
0.314736
0.0665429
0.318468
0.0698395
0.322546
0.0729581
0.326979
0.0758788
0.331776
0.07858
0.336941
0.0810395
0.342471
0.0832351
0.348357
0.0851455
0.354585
0.0867508
0.361131
0.0880339
0.367964
0.0889813
0.375046
0.089584
0.382329
0.0898382
0.389762
0.0897462
0.397288
0.0893159
0.0885681
0.404849
0.297435
0.00565609
0.29788
0.0109526
0.298534
0.0159551
0.299394
0.0207145
0.300463
0.0252684
0.301743
0.0296456
0.303241
0.0338678
0.304965
0.0379506
0.306925
0.0419042
0.309131
0.0457337
0.311597
0.0494397
0.314334
0.0530192
0.317355
0.0564653
0.320674
0.0597684
0.3243
0.0629163
0.328245
0.0658946
0.332516
0.068687
0.337118
0.0712765
0.342053
0.073645
0.347318
0.0757748
0.352905
0.0776485
0.3588
0.0792503
0.364984
0.0805664
0.371432
0.081586
0.378112
0.0823016
0.384986
0.0827099
0.392012
0.0828121
0.399144
0.0826143
0.406333
0.0821271
0.0813708
0.41353
0.304654
0.00539701
0.305157
0.0104493
0.305896
0.0152167
0.306865
0.0197453
0.308064
0.0240696
0.309494
0.0282156
0.311159
0.0322026
0.313065
0.0360446
0.315219
0.0397502
0.317629
0.0433234
0.320305
0.0467644
0.323254
0.0500696
0.326487
0.0532328
0.33001
0.0562448
0.333832
0.0590948
0.337956
0.06177
0.342387
0.0642567
0.347123
0.0665406
0.35216
0.0686073
0.357492
0.0704428
0.363106
0.0720345
0.368985
0.0733711
0.375108
0.0744438
0.381448
0.0752464
0.387973
0.0757763
0.394649
0.0760339
0.401437
0.0760239
0.408297
0.0757545
0.415187
0.0752376
0.0744924
0.422065
0.312046
0.00510892
0.312606
0.00989014
0.313425
0.0143975
0.314497
0.0186728
0.31582
0.0227472
0.317391
0.026644
0.319214
0.0303804
0.321289
0.0339687
0.323623
0.0374162
0.326221
0.0407262
0.329087
0.0438984
0.332227
0.0469294
0.335646
0.0498133
0.339349
0.0525421
0.343338
0.0551063
0.347613
0.0574951
0.352172
0.0596971
0.357012
0.0617009
0.362124
0.0634953
0.367497
0.0650698
0.373116
0.0664156
0.378961
0.0675254
0.385011
0.0683942
0.391238
0.0690195
0.397612
0.0694018
0.404102
0.0695444
0.410672
0.0694539
0.417286
0.0691397
0.42391
0.0686139
0.0678942
0.430508
0.319615
0.00479313
0.320228
0.00927756
0.321124
0.0135014
0.322294
0.0175023
0.323734
0.021308
0.325438
0.0249393
0.327407
0.0284115
0.329641
0.0317352
0.33214
0.0349166
0.334908
0.0379584
0.337946
0.0408602
0.341257
0.0436188
0.344841
0.046229
0.348699
0.048684
0.35283
0.0509757
0.357229
0.0530953
0.361893
0.0550336
0.366812
0.0567819
0.371976
0.0583317
0.37737
0.0596757
0.382977
0.0608082
0.388778
0.0617249
0.394748
0.0624238
0.400862
0.0629052
0.407093
0.0631716
0.413409
0.0632282
0.41978
0.0630825
0.426176
0.0627445
0.432564
0.0622258
0.0615427
0.438915
0.327365
0.00445099
0.328029
0.00861429
0.328998
0.0125326
0.33026
0.0162393
0.331809
0.0197592
0.333638
0.0231104
0.335743
0.0263064
0.338122
0.0293561
0.340774
0.0322652
0.343697
0.0350356
0.34689
0.0376671
0.350352
0.0401567
0.354081
0.0425001
0.358073
0.0446916
0.362324
0.0467246
0.366828
0.0485921
0.371574
0.050287
0.376553
0.0518028
0.381751
0.0531337
0.387152
0.0542747
0.392738
0.0552227
0.398487
0.0559757
0.404377
0.0565339
0.410383
0.0568994
0.416478
0.0570762
0.422636
0.0570704
0.428828
0.05689
0.435028
0.0565447
0.441208
0.0560456
0.0554072
0.447344
0.335301
0.00408386
0.336012
0.00790298
0.33705
0.011495
0.3384
0.0148893
0.340051
0.0181076
0.341996
0.0211657
0.344228
0.0240749
0.346741
0.0268432
0.349531