/*--------------------------------*- C++ -*----------------------------------*\
  =========                 |
  \\      /  F ield         | OpenFOAM: The Open Source CFD Toolbox
   \\    /   O peration     | Website:  https://openfoam.org
    \\  /    A nd           | Version:  7
     \\/     M anipulation  |
\*---------------------------------------------------------------------------*/
FoamFile
{
    version     2.0;
    format      ascii;
    class       volVectorField;
    location    "1.6";
    object      U;
}
// * * * * * * * * * * * * * * * * * * * * * * * * * * * * * * * * * * * * * //

dimensions      [0 1 -1 0 0 0 0];

internalField   nonuniform List<vector> 
2790
(
(9.94398 0.0205281 0)
(9.87569 0.0295965 0)
(9.77513 0.0360011 0)
(9.64931 0.0425695 0)
(9.50391 0.0493996 0)
(9.33984 0.0564423 0)
(9.15627 0.063829 0)
(8.95231 0.0717231 0)
(8.72711 0.0802646 0)
(8.4797 0.0895804 0)
(8.20887 0.0997977 0)
(7.91324 0.111047 0)
(7.59127 0.123459 0)
(7.24138 0.137162 0)
(6.86193 0.152268 0)
(6.45142 0.168865 0)
(6.00852 0.186993 0)
(5.53234 0.206616 0)
(5.02263 0.22759 0)
(4.48012 0.249614 0)
(3.90684 0.272183 0)
(3.30651 0.294535 0)
(2.68498 0.315629 0)
(2.05034 0.334289 0)
(1.41158 0.350573 0)
(0.797801 0.372728 0)
(0.110369 0.323673 0)
(-0.465611 -0.113125 0)
(-0.453027 -0.291982 0)
(-0.22946 -0.420129 0)
(9.99849 0.0407179 0)
(9.98142 0.0624092 0)
(9.93567 0.0791747 0)
(9.86404 0.0966643 0)
(9.7708 0.115166 0)
(9.65692 0.134529 0)
(9.52178 0.155014 0)
(9.36454 0.176977 0)
(9.18436 0.200736 0)
(8.98029 0.226571 0)
(8.75113 0.254759 0)
(8.49548 0.285568 0)
(8.21179 0.31925 0)
(7.89841 0.356019 0)
(7.55364 0.396012 0)
(7.1758 0.439254 0)
(6.7634 0.485585 0)
(6.31528 0.534584 0)
(5.83086 0.585465 0)
(5.31048 0.636965 0)
(4.75572 0.687221 0)
(4.16994 0.733666 0)
(3.55877 0.772966 0)
(2.93096 0.801082 0)
(2.2993 0.813677 0)
(1.69212 0.807033 0)
(1.10585 0.746578 0)
(0.657799 0.547206 0)
(0.180895 0.221198 0)
(-0.00740543 -0.454304 0)
(9.99558 0.0432321 0)
(9.97552 0.075316 0)
(9.93173 0.103404 0)
(9.86477 0.132437 0)
(9.7776 0.163129 0)
(9.67132 0.195468 0)
(9.5456 0.229807 0)
(9.39981 0.26666 0)
(9.23329 0.306518 0)
(9.04525 0.349843 0)
(8.83468 0.397096 0)
(8.60039 0.448733 0)
(8.34102 0.505193 0)
(8.05508 0.566855 0)
(7.74096 0.633996 0)
(7.39704 0.706715 0)
(7.02171 0.784824 0)
(6.61357 0.86772 0)
(6.17156 0.954204 0)
(5.69525 1.04228 0)
(5.18521 1.12893 0)
(4.6435 1.20985 0)
(4.07427 1.27923 0)
(3.48476 1.3294 0)
(2.88611 1.35011 0)
(2.29855 1.32638 0)
(1.7306 1.22063 0)
(1.21496 0.97328 0)
(0.699748 0.570703 0)
(0.356056 -0.158524 0)
(9.99402 0.0495344 0)
(9.97177 0.0932682 0)
(9.9278 0.133653 0)
(9.86212 0.174302 0)
(9.77676 0.216531 0)
(9.67275 0.260758 0)
(9.55003 0.307521 0)
(9.40817 0.357497 0)
(9.24666 0.411359 0)
(9.06494 0.469758 0)
(8.86227 0.533337 0)
(8.63776 0.602741 0)
(8.39041 0.678593 0)
(8.11908 0.761461 0)
(7.82257 0.851797 0)
(7.49959 0.949847 0)
(7.14885 1.05552 0)
(6.76907 1.16822 0)
(6.35913 1.28661 0)
(5.91825 1.4083 0)
(5.44617 1.52954 0)
(4.94362 1.64479 0)
(4.41275 1.74627 0)
(3.85778 1.82337 0)
(3.28523 1.86151 0)
(2.7057 1.84045 0)
(2.1248 1.72608 0)
(1.55344 1.47805 0)
(0.957323 1.08357 0)
(0.509466 0.500733 0)
(9.9933 0.0572588 0)
(9.96991 0.111039 0)
(9.92585 0.162208 0)
(9.86133 0.213467 0)
(9.77781 0.266483 0)
(9.67612 0.32204 0)
(9.55626 0.380821 0)
(9.41789 0.443595 0)
(9.2606 0.511146 0)
(9.08393 0.58424 0)
(8.88727 0.663635 0)
(8.66994 0.750088 0)
(8.43114 0.844337 0)
(8.17001 0.947066 0)
(7.88563 1.05884 0)
(7.57705 1.18003 0)
(7.24326 1.31064 0)
(6.88323 1.45015 0)
(6.49594 1.59721 0)
(6.08042 1.74934 0)
(5.63587 1.90247 0)
(5.16184 2.05043 0)
(4.65849 2.18434 0)
(4.1269 2.29194 0)
(3.56904 2.35678 0)
(2.98848 2.35753 0)
(2.38637 2.26507 0)
(1.76595 2.0476 0)
(1.08971 1.69079 0)
(0.536779 1.15216 0)
(9.99301 0.0655939 0)
(9.96919 0.128799 0)
(9.92549 0.190241 0)
(9.8624 0.25199 0)
(9.78111 0.315734 0)
(9.68221 0.382474 0)
(9.56572 0.453022 0)
(9.43138 0.528234 0)
(9.27883 0.608992 0)
(9.10765 0.696172 0)
(8.91733 0.79064 0)
(8.70728 0.893257 0)
(8.47681 1.00486 0)
(8.2252 1.12624 0)
(7.95168 1.25805 0)
(7.65544 1.40075 0)
(7.33561 1.55448 0)
(6.99126 1.7188 0)
(6.62135 1.89251 0)
(6.22471 2.07321 0)
(5.80004 2.25688 0)
(5.34585 2.43729 0)
(4.86055 2.60535 0)
(4.34257 2.74843 0)
(3.79027 2.84979 0)
(3.20245 2.88842 0)
(2.57643 2.83833 0)
(1.91334 2.67145 0)
(1.17271 2.37321 0)
(0.550145 1.89235 0)
(9.99296 0.0741403 0)
(9.96923 0.146429 0)
(9.9263 0.217634 0)
(9.86496 0.289466 0)
(9.78624 0.36354 0)
(9.69061 0.441012 0)
(9.57806 0.522836 0)
(9.44837 0.60997 0)
(9.30126 0.703391 0)
(9.13636 0.804073 0)
(8.95319 0.912976 0)
(8.75123 1.03105 0)
(8.52985 1.15923 0)
(8.28838 1.29838 0)
(8.0261 1.44925 0)
(7.74222 1.6124 0)
(7.43585 1.7881 0)
(7.106 1.97607 0)
(6.75145 2.17532 0)
(6.37072 2.38376 0)
(5.96189 2.59772 0)
(5.52251 2.81142 0)
(5.04947 3.01626 0)
(4.53902 3.20014 0)
(3.98674 3.3469 0)
(3.38803 3.43617 0)
(2.73738 3.4434 0)
(2.03638 3.34129 0)
(1.24189 3.11276 0)
(0.563737 2.69118 0)
(9.99305 0.0826636 0)
(9.96977 0.16374 0)
(9.92799 0.244225 0)
(9.86872 0.325681 0)
(9.79294 0.40966 0)
(9.70102 0.497421 0)
(9.59294 0.590044 0)
(9.46853 0.688583 0)
(9.32756 0.794101 0)
(9.16971 0.907659 0)
(8.99455 1.03031 0)
(8.80161 1.16309 0)
(8.5903 1.30702 0)
(8.35998 1.46307 0)
(8.10993 1.63209 0)
(7.8393 1.81478 0)
(7.54713 2.01155 0)
(7.23223 2.22238 0)
(6.89312 2.4466 0)
(6.52786 2.68257 0)
(6.13388 2.92727 0)
(5.70774 3.17573 0)
(5.24498 3.42039 0)
(4.73991 3.6503 0)
(4.18572 3.85039 0)
(3.57507 4.00105 0)
(2.89988 4.07797 0)
(2.16247 4.05219 0)
(1.31641 3.90094 0)
(0.583488 3.53835 0)
(9.99325 0.0910141 0)
(9.97069 0.18056 0)
(9.93038 0.269866 0)
(9.87349 0.360471 0)
(9.80099 0.453891 0)
(9.71319 0.551455 0)
(9.61008 0.654348 0)
(9.49153 0.763712 0)
(9.35736 0.880692 0)
(9.20729 1.00643 0)
(9.04097 1.14207 0)
(8.85796 1.28874 0)
(8.65773 1.44754 0)
(8.43966 1.61957 0)
(8.20301 1.8058 0)
(7.94691 2.0071 0)
(7.67025 2.22411 0)
(7.37167 2.45711 0)
(7.04936 2.70587 0)
(6.70092 2.96938 0)
(6.3231 3.24549 0)
(5.91153 3.53039 0)
(5.46039 3.81798 0)
(4.9622 4.09897 0)
(4.40776 4.35991 0)
(3.78688 4.58218 0)
(3.08812 4.74112 0)
(2.31326 4.80431 0)
(1.41108 4.74047 0)
(0.614633 4.44038 0)
(9.99352 0.0990882 0)
(9.97187 0.196749 0)
(9.93333 0.294418 0)
(9.87911 0.393674 0)
(9.81022 0.496031 0)
(9.72692 0.602866 0)
(9.62923 0.71545 0)
(9.51706 0.835008 0)
(9.39027 0.96276 0)
(9.24867 1.09993 0)
(9.09195 1.24773 0)
(8.91974 1.40738 0)
(8.73156 1.5801 0)
(8.52683 1.76709 0)
(8.30483 1.96949 0)
(8.06465 2.18837 0)
(7.80513 2.42463 0)
(7.52473 2.67896 0)
(7.2214 2.95168 0)
(6.89234 3.24256 0)
(6.53371 3.55052 0)
(6.1403 3.87323 0)
(5.70506 4.20647 0)
(5.21869 4.54321 0)
(4.66941 4.87233 0)
(4.04347 5.17693 0)
(3.32442 5.4323 0)
(2.51052 5.60188 0)
(1.54246 5.64309 0)
(0.664459 5.41687 0)
(9.99383 0.10681 0)
(9.97327 0.212188 0)
(9.93672 0.317749 0)
(9.88545 0.425141 0)
(9.82045 0.535895 0)
(9.74201 0.651431 0)
(9.65014 0.773087 0)
(9.54481 0.902164 0)
(9.42596 1.03995 0)
(9.29343 1.18773 0)
(9.147 1.3468 0)
(8.98637 1.51846 0)
(8.81114 1.70405 0)
(8.62079 1.90487 0)
(8.41465 2.12225 0)
(8.19185 2.35748 0)
(7.95121 2.61179 0)
(7.69113 2.88631 0)
(7.40944 3.182 0)
(7.1031 3.49952 0)
(6.76792 3.8391 0)
(6.39806 4.20014 0)
(5.98549 4.58078 0)
(5.51925 4.97696 0)
(4.98482 5.381 0)
(4.36397 5.77934 0)
(3.63282 6.14903 0)
(2.78112 6.45063 0)
(1.73428 6.62838 0)
(0.745363 6.50244 0)
(9.99419 0.114122 0)
(9.97483 0.226781 0)
(9.94048 0.339744 0)
(9.89239 0.454737 0)
(9.83155 0.573321 0)
(9.75826 0.696952 0)
(9.67257 0.827028 0)
(9.57451 0.964905 0)
(9.46405 1.11193 0)
(9.34113 1.26946 0)
(9.20561 1.43884 0)
(9.05727 1.62148 0)
(8.8958 1.81877 0)
(8.72078 2.03218 0)
(8.53165 2.26319 0)
(8.32761 2.51333 0)
(8.10758 2.78417 0)
(7.87005 3.07731 0)
(7.61287 3.3944 0)
(7.33305 3.73708 0)
(7.02634 4.10697 0)
(6.68672 4.50548 0)
(6.30567 4.93351 0)
(5.87115 5.39083 0)
(5.36619 5.87477 0)
(4.76768 6.37775 0)
(4.04185 6.88292 0)
(3.1628 7.35347 0)
(2.02595 7.72343 0)
(0.881503 7.75721 0)
(9.99459 0.12098 0)
(9.97653 0.240449 0)
(9.94453 0.360303 0)
(9.89982 0.482344 0)
(9.84337 0.608165 0)
(9.7755 0.73926 0)
(9.69631 0.877067 0)
(9.60585 1.02299 0)
(9.50419 1.17843 0)
(9.39134 1.34479 0)
(9.26725 1.52348 0)
(9.13179 1.71596 0)
(8.98479 1.92372 0)
(8.82594 2.14835 0)
(8.65483 2.39147 0)
(8.47083 2.65484 0)
(8.27305 2.94036 0)
(8.06018 3.25009 0)
(7.83037 3.58633 0)
(7.58093 3.95172 0)
(7.308 4.34926 0)
(7.006 4.78246 0)
(6.66678 5.25529 0)
(6.27836 5.77204 0)
(5.82276 6.33674 0)
(5.2733 6.95151 0)
(4.58592 7.61297 0)
(3.71183 8.30075 0)
(2.49006 8.95886 0)
(1.12575 9.29462 0)
(9.995 0.127347 0)
(9.97834 0.253127 0)
(9.94883 0.379341 0)
(9.90766 0.507859 0)
(9.85579 0.64031 0)
(9.79356 0.778214 0)
(9.72111 0.923044 0)
(9.63855 1.07624 0)
(9.54602 1.23925 0)
(9.44361 1.41349 0)
(9.33136 1.60043 0)
(9.20929 1.80157 0)
(9.07733 2.01849 0)
(8.93534 2.25285 0)
(8.78311 2.50641 0)
(8.62023 2.78112 0)
(8.44609 3.07915 0)
(8.25976 3.40295 0)
(8.05987 3.75542 0)
(7.84437 4.14001 0)
(7.61026 4.56103 0)
(7.35314 5.02388 0)
(7.0664 5.5355 0)
(6.73999 6.10491 0)
(6.35799 6.74384 0)
(5.89485 7.46743 0)
(5.30247 8.29498 0)
(4.51157 9.24729 0)
(3.27208 10.3428 0)
(1.60745 11.3631 0)
(9.99544 0.133198 0)
(9.98023 0.264765 0)
(9.95331 0.396787 0)
(9.91583 0.53119 0)
(9.86869 0.669634 0)
(9.81227 0.81366 0)
(9.74676 0.964766 0)
(9.67232 1.12442 0)
(9.58917 1.29408 0)
(9.49748 1.4752 0)
(9.39741 1.66927 0)
(9.28908 1.87783 0)
(9.1726 2.1025 0)
(9.048 2.34499 0)
(8.91529 2.60717 0)
(8.77435 2.89112 0)
(8.62494 3.19918 0)
(8.46661 3.53411 0)
(8.29866 3.89922 0)
(8.11994 4.29857 0)
(7.92878 4.7374 0)
(7.72264 5.22252 0)
(7.49772 5.76317 0)
(7.24818 6.37215 0)
(6.9646 7.06794 0)
(6.63158 7.87842 0)
(6.21645 8.84919 0)
(5.66996 10.0637 0)
(4.69667 11.7313 0)
(2.69307 14.6025 0)
(0.267153 -0.336151 0)
(0.587839 -0.268294 0)
(0.909585 -0.215059 0)
(1.19267 -0.177423 0)
(1.43414 -0.149406 0)
(1.64302 -0.127009 0)
(1.82619 -0.108375 0)
(1.987 -0.0925481 0)
(2.12721 -0.0788386 0)
(2.24802 -0.0666896 0)
(2.35005 -0.0556825 0)
(2.4338 -0.0458786 0)
(2.50057 -0.0367528 0)
(2.55187 -0.0295107 0)
(2.58919 -0.0283925 0)
(2.61609 -0.032776 0)
(2.63574 -0.0378707 0)
(2.64291 -0.0382044 0)
(2.62826 -0.0319027 0)
(2.59147 -0.0214534 0)
(2.53654 -0.0099673 0)
(2.47125 -0.000220768 0)
(2.40566 0.00600937 0)
(2.35038 0.00815126 0)
(2.31539 0.00605807 0)
(2.30387 0.00129298 0)
(2.31265 -0.00108222 0)
(2.35613 -0.00514484 0)
(2.44871 -0.015616 0)
(2.65726 -0.0337301 0)
(0.150287 -0.577095 0)
(0.433251 -0.487343 0)
(0.691813 -0.401559 0)
(0.924184 -0.336822 0)
(1.12445 -0.286957 0)
(1.29791 -0.245736 0)
(1.44906 -0.210265 0)
(1.58 -0.179202 0)
(1.69187 -0.15158 0)
(1.78554 -0.126452 0)
(1.86104 -0.102346 0)
(1.91719 -0.0813223 0)
(1.95405 -0.0662427 0)
(1.972 -0.0504436 0)
(1.93869 -0.0275607 0)
(1.84583 -0.00200897 0)
(1.71226 0.0221941 0)
(1.56326 0.0451083 0)
(1.41674 0.065021 0)
(1.27666 0.0792373 0)
(1.14811 0.0854648 0)
(1.03721 0.0823105 0)
(0.950232 0.0699583 0)
(0.892503 0.0492259 0)
(0.872721 0.0261555 0)
(0.873762 0.00556805 0)
(0.915385 -0.0177429 0)
(1.0137 -0.0558697 0)
(1.16378 -0.107326 0)
(1.43959 -0.15849 0)
(0.0779284 -0.819178 0)
(0.28012 -0.727148 0)
(0.439484 -0.614013 0)
(0.590443 -0.521773 0)
(0.715885 -0.447572 0)
(0.81901 -0.384438 0)
(0.90154 -0.328737 0)
(0.963633 -0.278784 0)
(1.00497 -0.233704 0)
(1.02612 -0.193238 0)
(1.02604 -0.15407 0)
(1.00051 -0.106666 0)
(0.898873 -0.0471295 0)
(0.740345 0.0144739 0)
(0.602431 0.0722148 0)
(0.470456 0.115197 0)
(0.332898 0.141263 0)
(0.194181 0.15462 0)
(0.0617896 0.159209 0)
(-0.0556072 0.155566 0)
(-0.150863 0.143441 0)
(-0.223947 0.122239 0)
(-0.271186 0.0921651 0)
(-0.290871 0.0556173 0)
(-0.287744 0.0190958 0)
(-0.23619 -0.0232611 0)
(-0.148739 -0.0774656 0)
(-0.0127275 -0.143717 0)
(0.144133 -0.221165 0)
(0.378541 -0.283882 0)
(0.0240044 -0.942216 0)
(0.133828 -0.839634 0)
(0.185471 -0.703509 0)
(0.245803 -0.590821 0)
(0.282908 -0.496696 0)
(0.301823 -0.414376 0)
(0.301513 -0.3397 0)
(0.28013 -0.269967 0)
(0.234114 -0.202611 0)
(0.160705 -0.132116 0)
(0.0279909 -0.0506972 0)
(-0.139689 0.028846 0)
(-0.252375 0.089946 0)
(-0.370188 0.134593 0)
(-0.49089 0.170435 0)
(-0.610887 0.200676 0)
(-0.727506 0.220218 0)
(-0.835957 0.226849 0)
(-0.931705 0.221629 0)
(-1.01037 0.205587 0)
(-1.06781 0.179347 0)
(-1.10112 0.143811 0)
(-1.10866 0.100118 0)
(-1.0918 0.0494993 0)
(-1.0575 -0.0082178 0)
(-0.981639 -0.0716985 0)
(-0.887008 -0.139921 0)
(-0.776263 -0.21168 0)
(-0.658404 -0.287819 0)
(-0.553094 -0.347485 0)
(-0.0258419 -0.969487 0)
(-0.0130762 -0.853555 0)
(-0.0649996 -0.703664 0)
(-0.100317 -0.578293 0)
(-0.157016 -0.468317 0)
(-0.228969 -0.369965 0)
(-0.318815 -0.278828 0)
(-0.42665 -0.191566 0)
(-0.552391 -0.105235 0)
(-0.700113 -0.0195648 0)
(-0.835199 0.0535184 0)
(-0.946181 0.111314 0)
(-1.06381 0.163433 0)
(-1.1805 0.210631 0)
(-1.29361 0.247084 0)
(-1.39984 0.272442 0)
(-1.49631 0.284576 0)
(-1.5801 0.282105 0)
(-1.64845 0.265633 0)
(-1.69868 0.236415 0)
(-1.72847 0.195921 0)
(-1.73641 0.145893 0)
(-1.72234 0.0883306 0)
(-1.68726 0.0251224 0)
(-1.63139 -0.0438689 0)
(-1.55784 -0.115028 0)
(-1.476 -0.186698 0)
(-1.39166 -0.259376 0)
(-1.31567 -0.330724 0)
(-1.26839 -0.385841 0)
(-0.0799128 -0.900178 0)
(-0.16201 -0.770749 0)
(-0.303908 -0.618397 0)
(-0.430546 -0.487846 0)
(-0.567478 -0.371398 0)
(-0.710514 -0.26639 0)
(-0.859487 -0.168903 0)
(-1.01287 -0.0764213 0)
(-1.16946 0.0102545 0)
(-1.3006 0.0823941 0)
(-1.42293 0.144878 0)
(-1.54413 0.200257 0)
(-1.66216 0.248918 0)
(-1.77427 0.289432 0)
(-1.8781 0.318935 0)
(-1.9712 0.33556 0)
(-2.05139 0.337598 0)
(-2.11678 0.324215 0)
(-2.16569 0.295999 0)
(-2.19658 0.254413 0)
(-2.20833 0.201431 0)
(-2.20054 0.139293 0)
(-2.17427 0.0702389 0)
(-2.13304 -0.00338985 0)
(-2.07285 -0.0789875 0)
(-2.0067 -0.153016 0)
(-1.93922 -0.223767 0)
(-1.87698 -0.292113 0)
(-1.82866 -0.357615 0)
(-1.80499 -0.40973 0)
(-0.134584 -0.744501 0)
(-0.297867 -0.607911 0)
(-0.517401 -0.461054 0)
(-0.715235 -0.334874 0)
(-0.910336 -0.22323 0)
(-1.09954 -0.121386 0)
(-1.28224 -0.0272046 0)
(-1.44559 0.0534778 0)
(-1.5861 0.121578 0)
(-1.72178 0.18369 0)
(-1.85143 0.240247 0)
(-1.97487 0.290031 0)
(-2.09068 0.331826 0)
(-2.19713 0.363829 0)
(-2.29252 0.383868 0)
(-2.37517 0.390083 0)
(-2.44359 0.381057 0)
(-2.49655 0.356277 0)
(-2.533 0.316427 0)
(-2.55209 0.263193 0)
(-2.55338 0.198992 0)
(-2.53715 0.12661 0)
(-2.50498 0.0486011 0)
(-2.46032 -0.032493 0)
(-2.40427 -0.11172 0)
(-2.34601 -0.185619 0)
(-2.29091 -0.25304 0)
(-2.24577 -0.315269 0)
(-2.21681 -0.373904 0)
(-2.20619 -0.42107 0)
(-0.18724 -0.516123 0)
(-0.417491 -0.383623 0)
(-0.699089 -0.253333 0)
(-0.94816 -0.138006 0)
(-1.17801 -0.034024 0)
(-1.38035 0.0493239 0)
(-1.55721 0.117481 0)
(-1.71969 0.179194 0)
(-1.87144 0.236824 0)
(-2.01353 0.290165 0)
(-2.14595 0.337982 0)
(-2.26865 0.378963 0)
(-2.381 0.411472 0)
(-2.48206 0.43355 0)
(-2.57073 0.443131 0)
(-2.64595 0.438446 0)
(-2.70673 0.418277 0)
(-2.75221 0.382309 0)
(-2.78167 0.331347 0)
(-2.79461 0.267269 0)
(-2.79092 0.192809 0)
(-2.77134 0.111159 0)
(-2.73756 0.025594 0)
(-2.69173 -0.0603052 0)
(-2.64022 -0.141204 0)
(-2.58891 -0.213397 0)
(-2.54398 -0.27602 0)
(-2.5124 -0.331098 0)
(-2.49823 -0.38199 0)
(-2.49641 -0.422934 0)
(-0.244043 -0.24382 0)
(-0.526841 -0.0862218 0)
(-0.836496 0.0240071 0)
(-1.09933 0.101915 0)
(-1.32943 0.160425 0)
(-1.53666 0.214319 0)
(-1.72446 0.264892 0)
(-1.89581 0.312584 0)
(-2.05264 0.357347 0)
(-2.19641 0.398807 0)
(-2.328 0.435572 0)
(-2.4479 0.465944 0)
(-2.55614 0.487954 0)
(-2.65234 0.499455 0)
(-2.73595 0.498338 0)
(-2.80628 0.482842 0)
(-2.86263 0.451828 0)
(-2.90429 0.405079 0)
(-2.93058 0.343502 0)
(-2.94099 0.269162 0)
(-2.93553 0.185103 0)
(-2.91516 0.0949295 0)
(-2.88206 0.00266252 0)
(-2.83834 -0.0866341 0)
(-2.79121 -0.167787 0)
(-2.74584 -0.237147 0)
(-2.70921 -0.293949 0)
(-2.68874 -0.341033 0)
(-2.68663 -0.383359 0)
(-2.69165 -0.4175 0)
(-0.262848 0.185032 0)
(-0.563328 0.246647 0)
(-0.886696 0.290393 0)
(-1.16258 0.327507 0)
(-1.40716 0.359744 0)
(-1.62399 0.389914 0)
(-1.81687 0.419442 0)
(-1.98963 0.449108 0)
(-2.14528 0.478469 0)
(-2.28607 0.506342 0)
(-2.41358 0.530887 0)
(-2.5288 0.549952 0)
(-2.63223 0.561196 0)
(-2.72395 0.562214 0)
(-2.80372 0.550748 0)
(-2.87112 0.524951 0)
(-2.92554 0.48366 0)
(-2.96626 0.426665 0)
(-2.99246 0.354933 0)
(-3.00345 0.270724 0)
(-2.99909 0.177478 0)
(-2.9803 0.0793994 0)
(-2.94897 -0.018752 0)
(-2.90891 -0.110951 0)
(-2.86587 -0.191756 0)
(-2.82553 -0.257565 0)
(-2.7957 -0.307784 0)
(-2.78452 -0.346079 0)
(-2.79274 -0.379055 0)
(-2.80367 -0.406131 0)
(-0.258214 0.524543 0)
(-0.57297 0.569025 0)
(-0.913317 0.57278 0)
(-1.19772 0.570023 0)
(-1.44473 0.567005 0)
(-1.65927 0.567693 0)
(-1.847 0.573051 0)
(-2.01291 0.582861 0)
(-2.16096 0.595762 0)
(-2.29406 0.609623 0)
(-2.41421 0.62191 0)
(-2.52273 0.629939 0)
(-2.62042 0.630954 0)
(-2.70763 0.622231 0)
(-2.78434 0.601278 0)
(-2.85023 0.566083 0)
(-2.9047 0.515364 0)
(-2.94688 0.448838 0)
(-2.9757 0.367471 0)
(-2.99007 0.27368 0)
(-2.98949 0.171342 0)
(-2.97452 0.065474 0)
(-2.94659 -0.0381879 0)
(-2.91074 -0.133105 0)
(-2.8717 -0.213374 0)
(-2.8357 -0.275214 0)
(-2.81147 -0.318255 0)
(-2.80821 -0.346959 0)
(-2.82566 -0.369708 0)
(-2.84205 -0.38938 0)
(-0.264414 0.904327 0)
(-0.594339 0.914807 0)
(-0.941181 0.864104 0)
(-1.21918 0.811598 0)
(-1.45345 0.768382 0)
(-1.65239 0.737326 0)
(-1.82398 0.717603 0)
(-1.97431 0.707595 0)
(-2.10809 0.704658 0)
(-2.22858 0.70543 0)
(-2.33787 0.706513 0)
(-2.43736 0.70467 0)
(-2.52795 0.696728 0)
(-2.61014 0.679605 0)
(-2.68399 0.650514 0)
(-2.74921 0.607206 0)
(-2.80515 0.54821 0)
(-2.85079 0.473083 0)
(-2.8847 0.382707 0)
(-2.90528 0.279602 0)
(-2.91139 0.168126 0)
(-2.90287 0.0542788 0)
(-2.8805 -0.0550374 0)
(-2.84998 -0.152845 0)
(-2.81537 -0.232732 0)
(-2.78344 -0.290485 0)
(-2.76399 -0.325929 0)
(-2.76761 -0.344253 0)
(-2.7936 -0.355712 0)
(-2.81534 -0.367336 0)
(-0.286772 1.31297 0)
(-0.639975 1.27534 0)
(-0.985188 1.15016 0)
(-1.23866 1.03623 0)
(-1.44179 0.949896 0)
(-1.6103 0.887845 0)
(-1.7541 0.844543 0)
(-1.87973 0.81677 0)
(-1.99237 0.800409 0)
(-2.09523 0.790398 0)
(-2.18997 0.782343 0)
(-2.27771 0.772584 0)
(-2.35933 0.757616 0)
(-2.43535 0.733984 0)
(-2.50585 0.698568 0)
(-2.57053 0.648862 0)
(-2.62873 0.583162 0)
(-2.67932 0.500793 0)
(-2.72059 0.40245 0)
(-2.75037 0.290625 0)
(-2.7666 0.170051 0)
(-2.7681 0.0477511 0)
(-2.75457 -0.067995 0)
(-2.73156 -0.169476 0)
(-2.70283 -0.249648 0)
(-2.67548 -0.303559 0)
(-2.66047 -0.331248 0)
(-2.67018 -0.338511 0)
(-2.70429 -0.337371 0)
(-2.73148 -0.339833 0)
(-0.335804 1.76517 0)
(-0.73227 1.65569 0)
(-1.06754 1.41568 0)
(-1.26843 1.22256 0)
(-1.41517 1.09498 0)
(-1.53674 1.00787 0)
(-1.64114 0.945124 0)
(-1.73284 0.903653 0)
(-1.81752 0.878286 0)
(-1.89791 0.861185 0)
(-1.97434 0.846897 0)
(-2.04723 0.831824 0)
(-2.1174 0.812353 0)
(-2.18537 0.784636 0)
(-2.25118 0.745191 0)
(-2.31455 0.691273 0)
(-2.37491 0.620942 0)
(-2.43122 0.533203 0)
(-2.48168 0.428382 0)
(-2.52363 0.308711 0)
(-2.55402 0.179087 0)
(-2.57021 0.0475825 0)
(-2.57034 -0.0756504 0)
(-2.55853 -0.181879 0)
(-2.5388 -0.263432 0)
(-2.51795 -0.314186 0)
(-2.50794 -0.334413 0)
(-2.52328 -0.330234 0)
(-2.56515 -0.314856 0)
(-2.59793 -0.306243 0)
(-0.457359 2.47004 0)
(-0.912181 2.16289 0)
(-1.22787 1.66219 0)
(-1.3221 1.33521 0)
(-1.3724 1.18089 0)
(-1.4309 1.08695 0)
(-1.48672 1.01118 0)
(-1.53546 0.961373 0)
(-1.5857 0.933874 0)
(-1.63965 0.914661 0)
(-1.69432 0.897392 0)
(-1.74886 0.879903 0)
(-1.80433 0.858864 0)
(-1.8614 0.82985 0)
(-1.91996 0.788941 0)
(-1.97968 0.73328 0)
(-2.0403 0.660782 0)
(-2.10119 0.570097 0)
(-2.16086 0.461058 0)
(-2.21663 0.335433 0)
(-2.26485 0.197929 0)
(-2.30165 0.0572938 0)
(-2.32327 -0.0742927 0)
(-2.32936 -0.186808 0)
(-2.32484 -0.271702 0)
(-2.31526 -0.32092 0)
(-2.31284 -0.334838 0)
(-2.33402 -0.319449 0)
(-2.38323 -0.287849 0)
(-2.42178 -0.265174 0)
(9.99589 0.138603 0)
(9.98221 0.275517 0)
(9.95803 0.412894 0)
(9.9244 0.552704 0)
(9.88223 0.696629 0)
(9.83191 0.846224 0)
(9.77366 1.003 0)
(9.70775 1.16844 0)
(9.63445 1.344 0)
(9.55403 1.53115 0)
(9.46676 1.73139 0)
(9.37291 1.94627 0)
(9.27274 2.17741 0)
(9.1665 2.42656 0)
(9.05445 2.69563 0)
(8.93681 2.98675 0)
(8.81377 3.30237 0)
(8.68546 3.64537 0)
(8.55198 4.01925 0)
(8.41331 4.42839 0)
(8.26942 4.87841 0)
(8.12021 5.37675 0)
(7.96566 5.93356 0)
(7.80611 6.56318 0)
(7.64287 7.28664 0)
(7.48114 8.13654 0)
(7.33456 9.16686 0)
(7.29425 10.4713 0)
(7.76243 12.195 0)
(7.9659 14.9159 0)
(9.99638 0.143573 0)
(9.9843 0.285391 0)
(9.96298 0.427648 0)
(9.93339 0.572345 0)
(9.89637 0.721179 0)
(9.85237 0.875712 0)
(9.80164 1.03745 0)
(9.74452 1.20789 0)
(9.68136 1.38847 0)
(9.61252 1.58066 0)
(9.53841 1.78594 0)
(9.45943 2.00584 0)
(9.37601 2.24197 0)
(9.28864 2.49606 0)
(9.19784 2.77 0)
(9.10419 3.06589 0)
(9.00832 3.38615 0)
(8.91101 3.73362 0)
(8.81315 4.11175 0)
(8.71595 4.52478 0)
(8.62101 4.9781 0)
(8.53073 5.47872 0)
(8.44884 6.03592 0)
(8.38167 6.66222 0)
(8.34049 7.37475 0)
(8.34755 8.19679 0)
(8.44205 9.1582 0)
(8.6803 10.2917 0)
(9.33185 11.5404 0)
(9.83006 12.6132 0)
(9.99688 0.14802 0)
(9.98647 0.294222 0)
(9.96811 0.440824 0)
(9.9427 0.589846 0)
(9.91102 0.742989 0)
(9.87352 0.901806 0)
(9.83053 1.0678 0)
(9.78243 1.24243 0)
(9.72965 1.42714 0)
(9.67265 1.62335 0)
(9.61195 1.83252 0)
(9.54809 2.05612 0)
(9.4817 2.29571 0)
(9.41347 2.55296 0)
(9.34419 2.82965 0)
(9.27479 3.12779 0)
(9.20635 3.44964 0)
(9.14022 3.79783 0)
(9.07807 4.17545 0)
(9.02214 4.58627 0)
(8.97543 5.03484 0)
(8.94224 5.52681 0)
(8.92885 6.06909 0)
(8.94482 6.67002 0)
(9.00466 7.33888 0)
(9.13053 8.08409 0)
(9.35341 8.90712 0)
(9.6825 9.79609 0)
(10.2465 10.6984 0)
(10.9308 11.4013 0)
(9.99739 0.151893 0)
(9.9887 0.301902 0)
(9.97339 0.452256 0)
(9.95226 0.604977 0)
(9.92604 0.761756 0)
(9.89519 0.924132 0)
(9.86009 1.09358 0)
(9.82117 1.27154 0)
(9.77893 1.4594 0)
(9.73393 1.65854 0)
(9.68678 1.87036 0)
(9.63817 2.09625 0)
(9.58888 2.33769 0)
(9.53981 2.59621 0)
(9.492 2.87346 0)
(9.44667 3.17125 0)
(9.40533 3.49157 0)
(9.36977 3.83667 0)
(9.3423 4.20913 0)
(9.32589 4.61188 0)
(9.32444 5.04832 0)
(9.34326 5.52224 0)
(9.38958 6.03771 0)
(9.47328 6.59861 0)
(9.6075 7.20759 0)
(9.80898 7.86414 0)
(10.1003 8.56089 0)
(10.4897 9.28282 0)
(11.0434 10.0196 0)
(11.8304 10.6579 0)
(9.99792 0.155142 0)
(9.99098 0.30834 0)
(9.97877 0.46181 0)
(9.962 0.61756 0)
(9.94132 0.777264 0)
(9.91721 0.94243 0)
(9.89008 1.1145 0)
(9.86041 1.29486 0)
(9.82878 1.48485 0)
(9.79581 1.68579 0)
(9.76222 1.89897 0)
(9.7288 2.12571 0)
(9.69648 2.36733 0)
(9.66633 2.62522 0)
(9.63959 2.90083 0)
(9.61775 3.19569 0)
(9.60258 3.51144 0)
(9.59625 3.84985 0)
(9.60144 4.21284 0)
(9.62153 4.60243 0)
(9.66081 5.0207 0)
(9.72479 5.46962 0)
(9.82052 5.95079 0)
(9.95688 6.46481 0)
(10.1449 7.01055 0)
(10.3974 7.58403 0)
(10.7316 8.17704 0)
(11.1588 8.77484 0)
(11.7017 9.36588 0)
(12.4478 9.87545 0)
(9.99845 0.157727 0)
(9.99327 0.31345 0)
(9.9842 0.469357 0)
(9.97182 0.627429 0)
(9.95672 0.789306 0)
(9.93937 0.956458 0)
(9.92023 1.13028 0)
(9.89982 1.31209 0)
(9.87876 1.50316 0)
(9.85773 1.70473 0)
(9.83754 1.91798 0)
(9.81907 2.1441 0)
(9.80337 2.38427 0)
(9.79164 2.63966 0)
(9.78526 2.91149 0)
(9.78589 3.20098 0)
(9.79548 3.50936 0)
(9.8164 3.83787 0)
(9.85149 4.18774 0)
(9.90422 4.56006 0)
(9.97886 4.95573 0)
(10.0806 5.3752 0)
(10.2157 5.81817 0)
(10.3917 6.28316 0)
(10.6173 6.76689 0)
(10.9021 7.26356 0)
(11.2571 7.76395 0)
(11.69 8.25255 0)
(12.2016 8.71273 0)
(12.8704 9.10317 0)
(9.99898 0.159606 0)
(9.99557 0.317154 0)
(9.98964 0.474785 0)
(9.98165 0.634437 0)
(9.97212 0.797704 0)
(9.9615 0.966006 0)
(9.95029 1.14067 0)
(9.93903 1.32296 0)
(9.92839 1.51405 0)
(9.9191 1.71508 0)
(9.91201 1.9271 0)
(9.90808 2.15117 0)
(9.90843 2.38829 0)
(9.91434 2.63941 0)
(9.9273 2.90547 0)
(9.94902 3.18737 0)
(9.98156 3.48591 0)
(10.0273 3.80182 0)
(10.089 4.13566 0)
(10.1701 4.48771 0)
(10.2745 4.85786 0)
(10.4066 5.24542 0)
(10.5719 5.64878 0)
(10.7761 6.06515 0)
(11.0257 6.49003 0)
(11.3268 6.91676 0)
(11.6856 7.33603 0)
(12.106 7.73451 0)
(12.5817 8.09776 0)
(13.1811 8.4055 0)
(9.9995 0.160747 0)
(9.99786 0.319385 0)
(9.99504 0.477995 0)
(9.9914 0.638456 0)
(9.98737 0.802305 0)
(9.9834 0.970901 0)
(9.97998 1.1455 0)
(9.9777 1.32728 0)
(9.97722 1.51732 0)
(9.97932 1.71664 0)
(9.98488 1.92618 0)
(9.99491 2.14682 0)
(10.0105 2.37937 0)
(10.0331 2.62456 0)
(10.0641 2.88306 0)
(10.1053 3.15543 0)
(10.1586 3.44208 0)
(10.2264 3.74324 0)
(10.3113 4.0589 0)
(10.4163 4.38868 0)
(10.5448 4.73173 0)
(10.7006 5.08651 0)
(10.8878 5.45066 0)
(11.1107 5.82065 0)
(11.3735 6.19162 0)
(11.6799 6.55705 0)
(12.0326 6.90873 0)
(12.4332 7.23645 0)
(12.8739 7.52921 0)
(13.4121 7.77589 0)
(10 0.16112 0)
(10.0001 0.32009 0)
(10.0004 0.478908 0)
(10.001 0.639385 0)
(10.0023 0.802992 0)
(10.0049 0.971013 0)
(10.009 1.14463 0)
(10.0155 1.32491 0)
(10.0248 1.51286 0)
(10.0378 1.70935 0)
(10.0555 1.91519 0)
(10.0787 2.13109 0)
(10.1087 2.35767 0)
(10.1467 2.59546 0)
(10.1943 2.84483 0)
(10.253 3.10604 0)
(10.3248 3.37916 0)
(10.4118 3.66399 0)
(10.5163 3.96006 0)
(10.6409 4.26649 0)
(10.7884 4.58191 0)
(10.9617 4.90431 0)
(11.1639 5.2309 0)
(11.3978 5.55801 0)
(11.666 5.88091 0)
(11.9703 6.19382 0)
(12.3116 6.48992 0)
(12.6895 6.7615 0)
(13.0964 7.00034 0)
(13.5805 7.19969 0)
(10.0005 0.160706 0)
(10.0023 0.319224 0)
(10.0055 0.477464 0)
(10.0103 0.637151 0)
(10.0169 0.79968 0)
(10.0257 0.966255 0)
(10.0372 1.13797 0)
(10.052 1.3158 0)
(10.0707 1.50062 0)
(10.0941 1.6932 0)
(10.1231 1.8942 0)
(10.1586 2.10417 0)
(10.2019 2.32354 0)
(10.2541 2.55262 0)
(10.3165 2.79156 0)
(10.3909 3.04033 0)
(10.4787 3.29869 0)
(10.582 3.56614 0)
(10.7026 3.84185 0)
(10.8427 4.12461 0)
(11.0045 4.41273 0)
(11.1902 4.70397 0)
(11.4017 4.99549 0)
(11.6408 5.28371 0)
(11.9089 5.5644 0)
(12.2065 5.83263 0)
(12.5331 6.08292 0)
(12.8875 6.30947 0)
(13.2626 6.50632 0)
(13.7 6.66939 0)
(10.001 0.159488 0)
(10.0044 0.31676 0)
(10.0105 0.473622 0)
(10.0193 0.631706 0)
(10.031 0.792322 0)
(10.0458 0.95659 0)
(10.0642 1.12551 0)
(10.0869 1.29995 0)
(10.1145 1.48068 0)
(10.1476 1.66834 0)
(10.1871 1.86344 0)
(10.2341 2.0664 0)
(10.2894 2.27746 0)
(10.3542 2.49675 0)
(10.4299 2.72419 0)
(10.5178 2.95956 0)
(10.6193 3.20236 0)
(10.736 3.45185 0)
(10.8696 3.70697 0)
(11.0215 3.96632 0)
(11.1936 4.22808 0)
(11.3871 4.48997 0)
(11.6035 4.74925 0)
(11.8435 5.0027 0)
(12.1076 5.24662 0)
(12.3955 5.47698 0)
(12.7061 5.68948 0)
(13.0375 5.87983 0)
(13.3836 6.04387 0)
(13.7808 6.17911 0)
(10.0015 0.157458 0)
(10.0065 0.312682 0)
(10.0153 0.467363 0)
(10.028 0.623033 0)
(10.0444 0.780911 0)
(10.0649 0.942024 0)
(10.0899 1.10727 0)
(10.12 1.27743 0)
(10.1558 1.45315 0)
(10.1979 1.63495 0)
(10.2471 1.82323 0)
(10.3044 2.01822 0)
(10.3705 2.22005 0)
(10.4466 2.42867 0)
(10.5337 2.64384 0)
(10.6331 2.86513 0)
(10.7459 3.09191 0)
(10.8735 3.32327 0)
(11.0169 3.55801 0)
(11.1776 3.79466 0)
(11.3564 4.03139 0)
(11.5543 4.26602 0)
(11.7721 4.49605 0)
(12.0098 4.71865 0)
(12.2673 4.93073 0)
(12.5439 5.12906 0)
(12.838 5.31035 0)
(13.1477 5.47148 0)
(13.4677 5.60957 0)
(13.8303 5.72313 0)
(10.0019 0.154615 0)
(10.0084 0.306989 0)
(10.0199 0.458691 0)
(10.0361 0.611145 0)
(10.057 0.765473 0)
(10.0829 0.922612 0)
(10.1141 1.08336 0)
(10.1511 1.2484 0)
(10.1944 1.41826 0)
(10.2447 1.59336 0)
(10.3027 1.77396 0)
(10.3691 1.96019 0)
(10.4448 2.15204 0)
(10.5306 2.34931 0)
(10.6275 2.55164 0)
(10.7364 2.75849 0)
(10.8584 2.9691 0)
(10.9943 3.18247 0)
(11.1451 3.39737 0)
(11.3115 3.61233 0)
(11.4943 3.8256 0)
(11.6938 4.03519 0)
(11.9103 4.23888 0)
(12.1435 4.43428 0)
(12.3929 4.61887 0)
(12.6573 4.79009 0)
(12.9353 4.94549 0)
(13.2248 5.0828 0)
(13.5214 5.20008 0)
(13.8542 5.29647 0)
(10.0024 0.150966 0)
(10.0102 0.299693 0)
(10.0241 0.447629 0)
(10.0437 0.59608 0)
(10.0689 0.746073 0)
(10.0997 0.89845 0)
(10.1365 1.05392 0)
(10.1798 1.21304 0)
(10.2301 1.37628 0)
(10.2878 1.54392 0)
(10.3535 1.71613 0)
(10.428 1.89294 0)
(10.5119 2.0742 0)
(10.606 2.25965 0)
(10.711 2.44882 0)
(10.8276 2.64108 0)
(10.9567 2.83561 0)
(11.0988 3.03139 0)
(11.2546 3.22722 0)
(11.4246 3.42169 0)
(11.609 3.61318 0)
(11.8079 3.79994 0)
(12.0212 3.98007 0)
(12.2484 4.15155 0)
(12.4886 4.31239 0)
(12.7408 4.46061 0)
(13.0032 4.59438 0)
(13.2742 4.7121 0)
(13.5499 4.81246 0)
(13.8568 4.89502 0)
(10.0027 0.146521 0)
(10.0119 0.290822 0)
(10.0281 0.434219 0)
(10.0508 0.577904 0)
(10.0798 0.722808 0)
(10.1152 0.869675 0)
(10.1572 1.01912 0)
(10.2062 1.17162 0)
(10.2626 1.32754 0)
(10.3268 1.48707 0)
(10.3994 1.65029 0)
(10.4809 1.81713 0)
(10.5718 1.98739 0)
(10.6727 2.1607 0)
(10.7842 2.33656 0)
(10.9069 2.51428 0)
(11.0413 2.69303 0)
(11.1878 2.87183 0)
(11.3466 3.04951 0)
(11.5182 3.22477 0)
(11.7023 3.3962 0)
(11.899 3.56226 0)
(12.1077 3.72134 0)
(12.3279 3.87182 0)
(12.5586 4.01211 0)
(12.7986 4.14072 0)
(13.0465 4.2563 0)
(13.3005 4.35773 0)
(13.5576 4.44415 0)
(13.8418 4.51539 0)
(10.0031 0.1413 0)
(10.0134 0.280412 0)
(10.0317 0.418522 0)
(10.0573 0.556708 0)
(10.0898 0.695801 0)
(10.1293 0.836458 0)
(10.1759 0.979204 0)
(10.23 1.12443 0)
(10.2919 1.27241 0)
(10.3618 1.42327 0)
(10.4403 1.57701 0)
(10.5277 1.73349 0)
(10.6244 1.89245 0)
(10.7309 2.05347 0)
(10.8475 2.21602 0)
(10.9748 2.37942 0)
(11.1128 2.54285 0)
(11.262 2.70536 0)
(11.4223 2.8659 0)
(11.5939 3.0233 0)
(11.7764 3.17631 0)
(11.9696 3.32365 0)
(12.1729 3.46397 0)
(12.3855 3.59598 0)
(12.6065 3.71845 0)
(12.8348 3.83025 0)
(13.0689 3.9304 0)
(13.3075 4.01815 0)
(13.5479 4.09293 0)
(13.8123 4.15473 0)
(10.0034 0.135326 0)
(10.0148 0.268511 0)
(10.035 0.400614 0)
(10.0632 0.5326 0)
(10.0989 0.665205 0)
(10.142 0.798998 0)
(10.1928 0.934423 0)
(10.2514 1.0718 0)
(10.3179 1.21131 0)
(10.3928 1.35304 0)
(10.4762 1.4969 0)
(10.5685 1.64273 0)
(10.6699 1.79022 0)
(10.7808 1.93893 0)
(10.9013 2.08832 0)
(11.0317 2.23772 0)
(11.1721 2.38636 0)
(11.3226 2.53339 0)
(11.4831 2.67783 0)
(11.6534 2.81867 0)
(11.8332 2.95484 0)
(12.0221 3.08527 0)
(12.2193 3.20886 0)