/*--------------------------------*- C++ -*----------------------------------*\
  =========                 |
  \\      /  F ield         | OpenFOAM: The Open Source CFD Toolbox
   \\    /   O peration     | Website:  https://openfoam.org
    \\  /    A nd           | Version:  7
     \\/     M anipulation  |
\*---------------------------------------------------------------------------*/
FoamFile
{
    version     2.0;
    format      ascii;
    class       surfaceVectorField;
    location    "1.6";
    object      Uf;
}
// * * * * * * * * * * * * * * * * * * * * * * * * * * * * * * * * * * * * * //

dimensions      [0 1 -1 0 0 0 0];

internalField   nonuniform List<vector> 
5457
(
(9.92086 0.0251165 0)
(9.97124 0.0387558 0)
(9.82396 0.0328371 0)
(9.92855 0.0486028 0)
(9.70951 0.0393246 0)
(9.8554 0.0587913 0)
(9.57528 0.0460254 0)
(9.75668 0.0706199 0)
(9.42118 0.052963 0)
(9.63736 0.0830415 0)
(9.24729 0.0601798 0)
(9.49838 0.0959644 0)
(9.05332 0.0678232 0)
(9.33903 0.109639 0)
(8.83859 0.0760449 0)
(9.15842 0.124312 0)
(8.60215 0.0849782 0)
(8.95574 0.140186 0)
(8.34287 0.0947501 0)
(8.73 0.157448 0)
(8.05944 0.105489 0)
(8.48 0.176279 0)
(7.75039 0.117327 0)
(8.20436 0.196861 0)
(7.41415 0.130392 0)
(7.90153 0.219361 0)
(7.0491 0.144805 0)
(7.5699 0.243918 0)
(6.65364 0.160666 0)
(7.20779 0.270625 0)
(6.22635 0.178037 0)
(6.81361 0.299491 0)
(5.76608 0.196922 0)
(6.38596 0.330404 0)
(5.27224 0.217228 0)
(5.92381 0.363075 0)
(4.74505 0.238734 0)
(5.42675 0.39697 0)
(4.18589 0.261034 0)
(4.8953 0.431233 0)
(3.59767 0.283493 0)
(4.33128 0.464618 0)
(2.98526 0.305208 0)
(3.73823 0.495422 0)
(2.35584 0.32507 0)
(3.12187 0.521502 0)
(1.71887 0.342528 0)
(2.49065 0.540523 0)
(1.08422 0.361783 0)
(1.85544 0.551577 0)
(0.452026 0.347908 0)
(1.24496 0.56274 0)
(-0.144177 0.102664 0)
(0.608109 0.543539 0)
(-0.421615 -0.203622 0)
(0.0960941 0.259049 0)
(-0.400706 -0.356821 0)
(-0.136066 -0.0199954 0)
(-0.118433 -0.392467 0)
(9.99639 0.0516932 0)
(9.99704 0.0405247 0)
(9.95873 0.0708922 0)
(9.97847 0.0674899 0)
(9.89814 0.088024 0)
(9.9337 0.0899163 0)
(9.81643 0.106026 0)
(9.86441 0.113608 0)
(9.71338 0.124963 0)
(9.7742 0.138571 0)
(9.58883 0.144894 0)
(9.66412 0.164702 0)
(9.44244 0.166127 0)
(9.53369 0.192384 0)
(9.27356 0.188999 0)
(9.38217 0.222077 0)
(9.08129 0.213808 0)
(9.20883 0.254187 0)
(8.8645 0.240833 0)
(9.01277 0.289093 0)
(8.62189 0.270347 0)
(8.7929 0.327172 0)
(8.35197 0.30261 0)
(8.54793 0.368796 0)
(8.05314 0.337854 0)
(8.27641 0.414317 0)
(7.72371 0.376254 0)
(7.97675 0.464039 0)
(7.36197 0.417892 0)
(7.6473 0.518177 0)
(6.96633 0.462697 0)
(7.28642 0.576792 0)
(6.53544 0.510377 0)
(6.89256 0.639714 0)
(6.06844 0.560328 0)
(6.46442 0.706422 0)
(5.56519 0.611522 0)
(6.00121 0.775913 0)
(5.02668 0.662393 0)
(5.50286 0.84654 0)
(4.45542 0.710721 0)
(4.97047 0.915835 0)
(3.856 0.753551 0)
(4.40672 0.980344 0)
(3.23564 0.787192 0)
(3.81652 1.03549 0)
(2.6052 0.807454 0)
(3.20786 1.0755 0)
(1.98212 0.810315 0)
(2.5927 1.09311 0)
(1.40448 0.776445 0)
(1.99534 1.07692 0)
(0.927844 0.645701 0)
(1.41822 0.978071 0)
(0.436889 0.382254 0)
(0.936379 0.717463 0)
(0.0574079 -0.120589 0)
(0.440321 0.342905 0)
(0.174325 -0.336239 0)
(9.98901 0.0594658 0)
(9.9948 0.0459076 0)
(9.95428 0.0895278 0)
(9.97365 0.0849074 0)
(9.89719 0.118094 0)
(9.92977 0.119243 0)
(9.82031 0.147966 0)
(9.86345 0.154056 0)
(9.72396 0.179492 0)
(9.77718 0.190492 0)
(9.60796 0.212843 0)
(9.67204 0.22872 0)
(9.47204 0.248454 0)
(9.54782 0.269208 0)
(9.31573 0.286827 0)
(9.40399 0.312567 0)
(9.13831 0.328439 0)
(9.23998 0.359384 0)
(8.93884 0.373752 0)
(9.05509 0.410219 0)
(8.71622 0.423223 0)
(8.84847 0.465628 0)
(8.46917 0.4773 0)
(8.61908 0.526167 0)
(8.19624 0.536392 0)
(8.36571 0.592372 0)
(7.89589 0.600827 0)
(8.08708 0.664725 0)
(7.5665 0.67079 0)
(7.78177 0.743596 0)
(7.20643 0.746236 0)
(7.44832 0.829163 0)
(6.81417 0.826767 0)
(7.08528 0.921295 0)
(6.38849 0.911479 0)
(6.69132 1.01939 0)
(5.92864 0.99877 0)
(6.26534 1.12217 0)
(5.43473 1.08612 0)
(5.80675 1.22745 0)
(4.90811 1.16987 0)
(5.31569 1.3318 0)
(4.35194 1.24496 0)
(4.79356 1.43027 0)
(3.77203 1.30461 0)
(4.24351 1.51598 0)
(3.17806 1.33988 0)
(3.67127 1.57953 0)
(2.58581 1.3381 0)
(3.08567 1.60784 0)
(2.01879 1.27287 0)
(2.50213 1.58165 0)
(1.48547 1.09548 0)
(1.9277 1.46428 0)
(0.957342 0.769586 0)
(1.3842 1.21059 0)
(0.478437 0.201732 0)
(0.828535 0.800885 0)
(0.432761 0.13236 0)
(9.98513 0.0716626 0)
(9.99366 0.0531881 0)
(9.95033 0.113702 0)
(9.97084 0.102362 0)
(9.89426 0.15422 0)
(9.92683 0.148046 0)
(9.81867 0.195669 0)
(9.86173 0.193828 0)
(9.72421 0.238909 0)
(9.77728 0.24139 0)
(9.61087 0.284419 0)
(9.67444 0.291276 0)
(9.47844 0.332808 0)
(9.55315 0.344061 0)
(9.3266 0.38475 0)
(9.41303 0.400467 0)
(9.15484 0.440907 0)
(9.25363 0.461219 0)
(8.9625 0.501927 0)
(9.07443 0.527023 0)
(8.74873 0.568454 0)
(8.87477 0.598577 0)
(8.5126 0.64112 0)
(8.65385 0.676583 0)
(8.25301 0.720522 0)
(8.41077 0.761721 0)
(7.96882 0.807169 0)
(8.14454 0.85462 0)
(7.65875 0.901408 0)
(7.8541 0.955788 0)
(7.32151 1.00332 0)
(7.53832 1.06553 0)
(6.95581 1.11255 0)
(7.19605 1.18381 0)
(6.56047 1.22812 0)
(6.82615 1.31005 0)
(6.13453 1.34818 0)
(6.42754 1.44291 0)
(5.67749 1.46964 0)
(5.99933 1.57992 0)
(5.18963 1.58785 0)
(5.54102 1.71714 0)
(4.67247 1.69614 0)
(5.05273 1.84864 0)
(4.12935 1.78528 0)
(4.53562 1.96598 0)
(3.56612 1.84267 0)
(3.99234 2.05748 0)
(2.9914 1.85085 0)
(3.42714 2.10733 0)
(2.41507 1.78258 0)
(2.84709 2.09466 0)
(1.83971 1.60058 0)
(2.25559 1.98882 0)
(1.25878 1.27845 0)
(1.65969 1.75302 0)
(0.666526 0.788671 0)
(1.02352 1.36726 0)
(0.523122 0.785182 0)
(9.98335 0.0844701 0)
(9.99316 0.0613416 0)
(9.94815 0.136929 0)
(9.96955 0.120016 0)
(9.89304 0.188144 0)
(9.92567 0.176356 0)
(9.81891 0.240292 0)
(9.86187 0.232831 0)
(9.72642 0.294594 0)
(9.77946 0.291228 0)
(9.61564 0.351782 0)
(9.67916 0.352414 0)
(9.4864 0.412583 0)
(9.56099 0.41711 0)
(9.33843 0.477774 0)
(9.42463 0.486128 0)
(9.17132 0.548129 0)
(9.26971 0.560305 0)
(8.9845 0.624412 0)
(9.09579 0.640465 0)
(8.77734 0.707378 0)
(8.9023 0.727421 0)
(8.54908 0.797775 0)
(8.68861 0.821983 0)
(8.29889 0.896315 0)
(8.45397 0.924943 0)
(8.02589 1.00362 0)
(8.1976 1.03703 0)
(7.72913 1.12016 0)
(7.91866 1.15887 0)
(7.40763 1.24612 0)
(7.61625 1.29087 0)
(7.06037 1.38123 0)
(7.28944 1.43309 0)
(6.68633 1.52456 0)
(6.93724 1.58505 0)
(6.28452 1.67419 0)
(6.55864 1.74547 0)
(5.85408 1.82682 0)
(6.15257 1.91188 0)
(5.39442 1.97734 0)
(5.71795 2.08021 0)
(4.90547 2.11818 0)
(5.25384 2.24419 0)
(4.38796 2.23878 0)
(4.75952 2.39476 0)
(3.84361 2.32475 0)
(4.23474 2.5194 0)
(3.27506 2.35716 0)
(3.67966 2.60147 0)
(2.68497 2.31075 0)
(3.09546 2.61991 0)
(2.07226 2.15504 0)
(2.4814 2.54741 0)
(1.42906 1.86706 0)
(1.83965 2.35358 0)
(0.742526 1.41826 0)
(1.13121 2.0238 0)
(0.543462 1.51244 0)
(9.98262 0.0975742 0)
(9.99298 0.0698531 0)
(9.94738 0.159887 0)
(9.96921 0.13769 0)
(9.89344 0.221485 0)
(9.92589 0.204066 0)
(9.82118 0.284243 0)
(9.86368 0.270848 0)
(9.73113 0.349503 0)
(9.78367 0.339752 0)
(9.62341 0.418169 0)
(9.68641 0.411867 0)
(9.49788 0.491077 0)
(9.57189 0.488064 0)
(9.35429 0.569095 0)
(9.43988 0.569249 0)
(9.19229 0.653103 0)
(9.29005 0.656357 0)
(9.0114 0.743971 0)
(9.122 0.750311 0)
(8.81106 0.842562 0)
(8.93526 0.852024 0)
(8.59061 0.949726 0)
(8.72925 0.962403 0)
(8.34937 1.06627 0)
(8.50333 1.08233 0)
(8.08659 1.19293 0)
(8.25679 1.21262 0)
(7.80146 1.33025 0)
(7.98889 1.354 0)
(7.49316 1.47853 0)
(7.69883 1.50696 0)
(7.16078 1.63762 0)
(7.38573 1.67168 0)
(6.80335 1.80669 0)
(7.04863 1.84784 0)
(6.41979 1.98394 0)
(6.6864 2.03429 0)
(6.00886 2.16614 0)
(6.29772 2.2288 0)
(5.56919 2.34817 0)
(5.88096 2.42749 0)
(5.09929 2.52233 0)
(5.43418 2.62432 0)
(4.5976 2.67775 0)
(4.95501 2.81043 0)
(4.06258 2.79972 0)
(4.4408 2.97341 0)
(3.49258 2.86934 0)
(3.8885 3.09685 0)
(2.88571 2.86308 0)
(3.29524 3.16011 0)
(2.2379 2.75389 0)
(2.65691 3.138 0)
(1.54238 2.52055 0)
(1.97486 3.003 0)
(0.793682 2.12991 0)
(1.2073 2.73979 0)
(0.556941 2.2898 0)
(9.98248 0.110717 0)
(9.99301 0.0784317 0)
(9.94765 0.182457 0)
(9.9695 0.155161 0)
(9.89512 0.253979 0)
(9.92714 0.231048 0)
(9.82509 0.326945 0)
(9.86684 0.307696 0)
(9.73792 0.402739 0)
(9.78959 0.386721 0)
(9.63377 0.482413 0)
(9.69581 0.469347 0)
(9.51254 0.566924 0)
(9.5855 0.556587 0)
(9.37401 0.657239 0)
(9.45845 0.649442 0)
(9.21787 0.754333 0)
(9.31441 0.748934 0)
(9.0437 0.859175 0)
(9.15303 0.85608 0)
(8.85098 0.97272 0)
(8.97387 0.971885 0)
(8.63914 1.09591 0)
(8.77642 1.09734 0)
(8.40753 1.22963 0)
(8.56007 1.23343 0)
(8.15545 1.37471 0)
(8.32418 1.38105 0)
(7.88216 1.5318 0)
(8.06801 1.54102 0)
(7.58681 1.7013 0)
(7.79076 1.71397 0)
(7.26847 1.8832 0)
(7.49149 1.9002 0)
(6.92604 2.07689 0)
(7.16911 2.09959 0)
(6.55819 2.28079 0)
(6.82229 2.31129 0)
(6.16322 2.49202 0)
(6.44929 2.53341 0)
(5.73896 2.70585 0)
(6.04788 2.7626 0)
(5.28264 2.91507 0)
(5.61512 2.99347 0)
(4.79082 3.1093 0)
(5.14723 3.21792 0)
(4.25935 3.2744 0)
(4.63947 3.42441 0)
(3.6835 3.39207 0)
(4.08623 3.59733 0)
(3.05819 3.43983 0)
(3.48155 3.71672 0)
(2.37789 3.39174 0)
(2.81863 3.7582 0)
(1.63807 3.22566 0)
(2.09942 3.69378 0)
(0.839266 2.89945 0)
(1.27915 3.50369 0)
(0.573613 3.11181 0)
(9.98271 0.123686 0)
(9.99315 0.0868979 0)
(9.94867 0.204463 0)
(9.97023 0.172235 0)
(9.89784 0.28544 0)
(9.92919 0.257161 0)
(9.83035 0.368172 0)
(9.87111 0.343202 0)
(9.7465 0.454065 0)
(9.79697 0.431907 0)
(9.64641 0.544286 0)
(9.70711 0.52458 0)
(9.53006 0.639902 0)
(9.60151 0.622355 0)
(9.39725 0.741972 0)
(9.48003 0.726326 0)
(9.24771 0.851558 0)
(9.34246 0.837598 0)
(9.08107 0.969717 0)
(9.1885 0.957272 0)
(8.89688 1.09749 0)
(9.01776 1.08644 0)
(8.69459 1.23592 0)
(8.82978 1.2262 0)
(8.47361 1.38598 0)
(8.62402 1.3776 0)
(8.23324 1.54859 0)
(8.39982 1.54166 0)
(7.97271 1.72452 0)
(8.15647 1.71932 0)
(7.69111 1.91434 0)
(7.8931 1.91133 0)
(7.38739 2.11823 0)
(7.60869 2.11823 0)
(7.06021 2.33583 0)
(7.30195 2.34014 0)
(6.70786 2.566 0)
(6.97124 2.5766 0)
(6.3281 2.80638 0)
(6.61439 2.82628 0)
(5.91794 3.05299 0)
(6.22849 3.08657 0)
(5.47341 3.29952 0)
(5.80964 3.35309 0)
(4.98939 3.53672 0)
(5.35269 3.61895 0)
(4.45954 3.75154 0)
(4.85105 3.87403 0)
(3.87652 3.92662 0)
(4.29674 4.10404 0)
(3.2327 4.03997 0)
(3.68098 4.28981 0)
(2.52122 4.06493 0)
(2.994 4.40683 0)
(1.73872 3.97566 0)
(2.23786 4.42441 0)
(0.889704 3.71748 0)
(1.36374 4.31561 0)
(0.599061 3.98322 0)
(9.98319 0.136322 0)
(9.99338 0.095131 0)
(9.95026 0.225747 0)
(9.97128 0.188749 0)
(9.90141 0.31571 0)
(9.93185 0.282259 0)
(9.83678 0.407739 0)
(9.8763 0.377202 0)
(9.75662 0.503256 0)
(9.8056 0.475099 0)
(9.66108 0.603516 0)
(9.72006 0.57731 0)
(9.55013 0.709683 0)
(9.61965 0.685065 0)
(9.42366 0.822901 0)
(9.50429 0.799546 0)
(9.28141 0.944314 0)
(9.37381 0.921935 0)
(9.12309 1.07506 0)
(9.22798 1.05341 0)
(8.94829 1.21628 0)
(9.06646 1.19516 0)
(8.75652 1.36909 0)
(8.88885 1.34835 0)
(8.54721 1.53458 0)
(8.69464 1.51415 0)
(8.31969 1.7138 0)
(8.48324 1.69369 0)
(8.07314 1.90765 0)
(8.25392 1.88804 0)
(7.80659 2.1169 0)
(8.00578 2.09815 0)
(7.51881 2.342 0)
(7.73769 2.32481 0)
(7.20822 2.58297 0)
(7.4482 2.56849 0)
(6.87271 2.8392 0)
(7.13538 2.82923 0)
(6.50948 3.10908 0)
(6.79663 3.10641 0)
(6.11471 3.38964 0)
(6.42841 3.39839 0)
(5.68329 3.67591 0)
(6.02592 3.70209 0)
(5.20852 3.96015 0)
(5.58273 4.01232 0)
(4.68195 4.231 0)
(5.09044 4.32087 0)
(4.09363 4.47238 0)
(4.53858 4.61536 0)
(3.43297 4.6626 0)
(3.91517 4.87789 0)
(2.69064 4.77309 0)
(3.20627 5.08359 0)
(1.86231 4.77201 0)
(2.41189 5.19784 0)
(0.95448 4.58863 0)
(1.47677 5.18378 0)
(0.639546 4.91808 0)
(9.98384 0.148502 0)
(9.99367 0.103045 0)
(9.95229 0.246167 0)
(9.97257 0.204573 0)
(9.90568 0.344639 0)
(9.93502 0.306204 0)
(9.84421 0.445464 0)
(9.88228 0.409541 0)
(9.76811 0.550087 0)
(9.81533 0.516106 0)
(9.67753 0.659831 0)
(9.73446 0.627304 0)
(9.57248 0.775943 0)
(9.63968 0.744441 0)
(9.45289 0.899648 0)
(9.53093 0.868778 0)
(9.31858 1.03216 0)
(9.40811 1.00157 0)
(9.1693 1.17471 0)
(9.27105 1.14407 0)
(9.0047 1.32851 0)
(9.11948 1.29753 0)
(8.82436 1.49478 0)
(8.95305 1.46322 0)
(8.62776 1.67472 0)
(8.77135 1.64241 0)
(8.41424 1.8695 0)
(8.57381 1.83636 0)
(8.183 2.08024 0)
(8.35974 2.04629 0)
(7.933 2.30791 0)
(8.12825 2.27338 0)
(7.6629 2.55332 0)
(7.87817 2.51871 0)
(7.3709 2.81695 0)
(7.60793 2.78317 0)
(7.05459 3.09886 0)
(7.31542 3.06742 0)
(6.71065 3.39838 0)
(6.99772 3.37166 0)
(6.33456 3.7138 0)
(6.65082 3.69545 0)
(5.92017 4.04184 0)
(6.26918 4.03732 0)
(5.45928 4.37685 0)
(5.84527 4.3942 0)
(4.94127 4.70974 0)
(5.36897 4.76044 0)
(4.35312 5.02645 0)
(4.82711 5.12652 0)
(3.68015 5.30614 0)
(4.20372 5.47692 0)
(2.90816 5.5181 0)
(3.47862 5.78739 0)
(2.02827 5.62273 0)
(2.64582 6.01941 0)
(1.0455 5.52863 0)
(1.63837 6.12361 0)
(0.704911 5.94208 0)
(9.98463 0.160129 0)
(9.99401 0.110574 0)
(9.95467 0.265599 0)
(9.97405 0.219597 0)
(9.91054 0.372087 0)
(9.9386 0.328871 0)
(9.85251 0.48118 0)
(9.88892 0.440076 0)
(9.78078 0.594353 0)
(9.826 0.554755 0)
(9.69553 0.712986 0)
(9.75013 0.674352 0)
(9.59682 0.838397 0)
(9.66136 0.800234 0)
(9.48463 0.971878 0)
(9.55966 0.93373 0)
(9.35882 1.11472 0)
(9.445 1.07616 0)
(9.21923 1.26821 0)
(9.31728 1.22884 0)
(9.06558 1.43366 0)
(9.17631 1.39309 0)
(8.89752 1.61236 0)
(9.02182 1.57028 0)
(8.71459 1.80566 0)
(8.85347 1.76175 0)
(8.5162 2.01486 0)
(8.67079 1.96891 0)
(8.30159 2.24127 0)
(8.47315 2.19316 0)
(8.06972 2.48615 0)
(8.25973 2.43589 0)
(7.81922 2.75069 0)
(8.02939 2.69853 0)
(7.5482 3.03592 0)
(7.78059 2.98243 0)
(7.25407 3.34266 0)
(7.51116 3.2889 0)
(6.9332 3.67134 0)
(7.21808 3.61911 0)
(6.5806 4.02178 0)
(6.89713 3.97396 0)
(6.1893 4.39274 0)
(6.54239 4.35387 0)
(5.74983 4.78124 0)
(6.14558 4.75832 0)
(5.24943 5.18139 0)
(5.6952 5.18508 0)
(4.67151 5.58255 0)
(5.1755 5.62879 0)
(3.99571 5.96639 0)
(4.56583 6.07848 0)
(3.19936 6.30163 0)
(3.83733 6.5134 0)
(2.26267 6.54057 0)
(2.97196 6.89401 0)
(1.1812 6.56466 0)
(1.88011 7.15783 0)
(0.813433 7.09899 0)
(9.98551 0.171125 0)
(9.99439 0.117668 0)
(9.95733 0.283938 0)
(9.97568 0.233734 0)
(9.9159 0.397928 0)
(9.94251 0.350152 0)
(9.86153 0.514738 0)
(9.8961 0.46868 0)
(9.79447 0.635875 0)
(9.83746 0.590894 0)
(9.71489 0.762767 0)
(9.76688 0.71827 0)
(9.6229 0.89679 0)
(9.68444 0.852227 0)
(9.51854 1.0393 0)
(9.59018 0.994149 0)
(9.40175 1.19164 0)
(9.48412 1.14541 0)
(9.27242 1.35516 0)
(9.36624 1.30737 0)
(9.13037 1.53125 0)
(9.23643 1.48144 0)
(8.97533 1.7213 0)
(9.09453 1.66903 0)
(8.80696 1.92675 0)
(8.94029 1.8716 0)
(8.62475 2.14907 0)
(8.77336 2.09066 0)
(8.42803 2.38976 0)
(8.59324 2.32778 0)
(8.21585 2.65037 0)
(8.39922 2.5846 0)
(7.98693 2.93249 0)
(8.19032 2.86286 0)
(7.73942 3.23775 0)
(7.96511 3.16439 0)
(7.47078 3.56779 0)
(7.72162 3.49119 0)
(7.17737 3.92424 0)
(7.45699 3.84539 0)
(6.85406 4.30861 0)
(7.16717 4.22933 0)
(6.4936 4.72205 0)
(6.84636 4.64547 0)
(6.08572 5.16491 0)
(6.48623 5.09627 0)
(5.61597 5.63569 0)
(6.07475 5.5837 0)
(5.06426 6.12926 0)
(5.59447 6.10829 0)
(4.40324 6.63335 0)
(5.02049 6.66687 0)
(3.59741 7.12101 0)
(4.31388 7.24804 0)
(2.60564 7.54066 0)
(3.43731 7.82005 0)
(1.39522 7.74052 0)
(2.258 8.31535 0)
(1.00362 8.46552 0)
(9.98648 0.181428 0)
(9.99479 0.124288 0)
(9.96021 0.301092 0)
(9.97744 0.246913 0)
(9.92166 0.422053 0)
(9.94668 0.369954 0)
(9.87117 0.546006 0)
(9.90374 0.495243 0)
(9.80901 0.674496 0)
(9.84958 0.624389 0)
(9.73539 0.808987 0)
(9.78453 0.7589 0)
(9.65046 0.950902 0)
(9.70871 0.900233 0)
(9.5543 1.10164 0)
(9.6222 1.04981 0)
(9.44695 1.26261 0)
(9.52511 1.20906 0)
(9.32837 1.4352 0)
(9.41747 1.37938 0)
(9.19848 1.62087 0)
(9.2993 1.56222 0)
(9.05714 1.82108 0)
(9.17054 1.75907 0)
(8.90409 2.03738 0)
(9.03106 1.97145 0)
(8.73898 2.27136 0)
(8.88064 2.20098 0)
(8.56128 2.52473 0)
(8.71897 2.44938 0)
(8.37025 2.79931 0)
(8.54553 2.7185 0)
(8.16476 3.09707 0)
(8.35957 3.01036 0)
(7.94326 3.42022 0)
(8.15997 3.32725 0)
(7.70344 3.77121 0)
(7.94512 3.67177 0)
(7.44205 4.15286 0)
(7.71265 4.04698 0)
(7.15434 4.56845 0)
(7.45913 4.45658 0)
(6.83347 5.0217 0)
(7.17957 4.90506 0)
(6.46937 5.51675 0)
(6.86659 5.39793 0)
(6.04721 6.05776 0)
(6.50917 5.94194 0)
(5.54474 6.6478 0)
(6.09038 6.54499 0)
(4.92831 7.28619 0)
(5.58407 7.21559 0)
(4.14675 7.96097 0)
(4.94419 7.96056 0)
(3.12377 8.63373 0)
(4.1117 8.77523 0)
(1.75784 9.12875 0)
(2.88107 9.6216 0)
(1.3666 10.1872 0)
(9.98751 0.190989 0)
(9.99522 0.130402 0)
(9.96327 0.316988 0)
(9.97929 0.259075 0)
(9.92775 0.444368 0)
(9.95107 0.3882 0)
(9.88132 0.574876 0)
(9.91175 0.519671 0)
(9.82426 0.710086 0)
(9.86224 0.655132 0)
(9.75684 0.851494 0)
(9.80292 0.796113 0)
(9.67923 1.00056 0)
(9.73393 0.9441 0)
(9.59159 1.15872 0)
(9.65544 1.10055 0)
(9.49402 1.32741 0)
(9.56759 1.2669 0)
(9.3866 1.50807 0)
(9.47054 1.44461 0)
(9.26933 1.7022 0)
(9.36439 1.63516 0)
(9.1422 1.91133 0)
(9.24919 1.84005 0)
(9.00511 2.13707 0)
(9.12496 2.06089 0)
(8.85787 2.38114 0)
(8.99167 2.29936 0)
(8.70017 2.64541 0)
(8.8492 2.5573 0)
(8.53151 2.93192 0)
(8.69729 2.83672 0)
(8.3511 3.24299 0)
(8.53551 3.13987 0)
(8.15779 3.58129 0)
(8.36319 3.46937 0)
(7.94985 3.95001 0)
(8.17926 3.82834 0)
(7.72475 4.35304 0)
(7.98216 4.22059 0)
(7.47875 4.79522 0)
(7.76952 4.65089 0)
(7.20631 5.28274 0)
(7.53789 5.12545 0)
(6.89909 5.82361 0)
(7.28206 5.65248 0)
(6.54415 6.42819 0)
(6.99408 6.24313 0)
(6.1208 7.10996 0)
(6.6613 6.91294 0)
(5.59431 7.88615 0)
(6.26321 7.68423 0)
(4.90314 8.77683 0)
(5.75946 8.59068 0)
(3.93001 9.80158 0)
(5.09076 9.68385 0)
(2.43632 10.859 0)
(3.98437 11.05 0)
(2.15026 12.5734 0)
(9.98859 0.199767 0)
(9.99566 0.135987 0)
(9.96646 0.331564 0)
(9.9812 0.270175 0)
(9.93409 0.464791 0)
(9.95563 0.404828 0)
(9.89186 0.601239 0)
(9.92004 0.541891 0)
(9.84008 0.742508 0)
(9.87533 0.683034 0)
(9.77903 0.890116 0)
(9.82191 0.829804 0)
(9.70896 1.04555 0)
(9.75996 0.983707 0)
(9.63008 1.21026 0)
(9.6897 1.14622 0)
(9.54257 1.38572 0)
(9.61138 1.31879 0)
(9.44659 1.57339 0)
(9.52522 1.5029 0)
(9.34229 1.7748 0)
(9.43143 1.70002 0)
(9.22978 1.99151 0)
(9.33021 1.91172 0)
(9.10912 2.22519 0)
(9.22173 2.1396 0)
(8.98034 2.47764 0)
(9.10614 2.38541 0)
(8.84337 2.75084 0)
(8.98356 2.65104 0)
(8.69804 3.04699 0)
(8.85405 2.93858 0)
(8.54398 3.36865 0)
(8.71758 3.25046 0)
(8.38061 3.71885 0)
(8.57398 3.58949 0)
(8.20698 4.10128 0)
(8.42294 3.95909 0)
(8.02164 4.52061 0)
(8.26387 4.36352 0)
(7.82243 4.98286 0)
(8.0959 4.80824 0)
(7.60609 5.49608 0)
(7.91769 5.30046 0)
(7.36763 6.0713 0)
(7.72729 5.85005 0)
(7.0992 6.72421 0)
(7.5219 6.47091 0)
(6.78773 7.47802 0)
(7.29737 7.18364 0)
(6.4098 8.36961 0)
(7.04838 8.02065 0)
(5.91851 9.46369 0)
(6.765 9.03856 0)
(5.20132 10.9074 0)
(6.46685 10.3535 0)
(3.8916 13.184 0)
(6.20075 12.3025 0)
(5.27995 16.385 0)
(0.415338 -0.302628 0)
(0.20872 -0.406798 0)
(0.766099 -0.241995 0)
(0.510545 -0.335435 0)
(1.06107 -0.196466 0)
(0.800699 -0.275418 0)
(1.31555 -0.163582 0)
(1.05843 -0.232002 0)
(1.53843 -0.138341 0)
(1.27929 -0.198397 0)
(1.73436 -0.117803 0)
(1.47046 -0.170286 0)
(1.90638 -0.100556 0)
(1.63762 -0.145971 0)
(2.05679 -0.0857753 0)
(1.7835 -0.124616 0)
(2.18723 -0.0728367 0)
(1.90954 -0.105526 0)
(2.29871 -0.0612518 0)
(2.01678 -0.088051 0)
(2.39146 -0.0508391 0)
(2.10555 -0.0715336 0)
(2.46659 -0.0413702 0)
(2.1755 -0.0565752 0)
(2.52555 -0.033175 0)
(2.22731 -0.0433436 0)
(2.56955 -0.0289582 0)
(2.26194 -0.0315853 0)
(2.60154 -0.030558 0)
(2.26394 -0.0224217 0)
(2.62505 -0.0352929 0)
(2.23096 -0.0160894 0)
(2.63859 -0.0380355 0)
(2.174 -0.00904709 0)
(2.63494 -0.0350912 0)
(2.10308 0.00238057 0)
(2.60927 -0.0267405 0)
(2.0225 0.0163515 0)
(2.56342 -0.015779 0)
(1.93407 0.0285157 0)
(2.50335 -0.00515227 0)
(1.84233 0.0364756 0)
(2.43806 0.00285708 0)
(1.75423 0.0387159 0)
(2.37781 0.00706752 0)
(1.67795 0.0348787 0)
(2.33261 0.00711717 0)
(1.62144 0.0255466 0)
(2.30863 0.003704 0)
(1.59406 0.0132351 0)
(2.305 0.000119574 0)
(1.58881 0.00195608 0)
(2.33025 -0.00308925 0)
(1.61402 -0.0132867 0)
(2.39842 -0.0103178 0)
(1.68491 -0.0350191 0)
(2.52852 -0.0245648 0)
(1.80625 -0.0652513 0)
(2.04842 -0.0968713 0)
(0.291929 -0.532756 0)
(0.114107 -0.692725 0)
(0.571797 -0.444964 0)
(0.356685 -0.603074 0)
(0.815795 -0.369577 0)
(0.565648 -0.503244 0)
(1.02711 -0.312187 0)
(0.757313 -0.424652 0)
(1.21195 -0.266593 0)
(0.920167 -0.362927 0)
(1.37384 -0.228212 0)
(1.05846 -0.310988 0)
(1.51472 -0.194919 0)
(1.1753 -0.265519 0)
(1.63594 -0.165556 0)
(1.27182 -0.225055 0)
(1.7386 -0.139166 0)
(1.34842 -0.188572 0)
(1.82328 -0.114543 0)
(1.40583 -0.154936 0)
(1.88858 -0.09196 0)
(1.44354 -0.121895 0)
(1.93583 -0.0738726 0)
(1.45885 -0.0921548 0)
(1.96332 -0.0584376 0)
(1.42646 -0.0635566 0)
(1.95314 -0.0391389 0)
(1.35617 -0.0242781 0)
(1.8906 -0.0149375 0)
(1.27056 0.0214155 0)
(1.77854 0.00994794 0)
(1.15814 0.0605979 0)
(1.63805 0.0335143 0)
(1.02258 0.0848225 0)
(1.49005 0.0549457 0)
(0.878718 0.0989363 0)
(1.34616 0.0720442 0)
(0.739264 0.108009 0)
(1.21185 0.0823138 0)
(0.610529 0.112046 0)
(1.09229 0.0839065 0)
(0.498623 0.109082 0)
(0.993575 0.0762082 0)
(0.406632 0.0972439 0)
(0.921583 0.059716 0)
(0.339523 0.0765553 0)
(0.881322 0.0378285 0)
(0.300816 0.0483036 0)
(0.868991 0.0159848 0)
(0.292488 0.0200402 0)
(0.890053 -0.00594812 0)
(0.318786 -0.00939312 0)
(0.956317 -0.0365785 0)
(0.383323 -0.0481495 0)
(1.08167 -0.0812902 0)
(0.500486 -0.0994125 0)
(1.27284 -0.132602 0)
(0.653956 -0.161134 0)
(0.909064 -0.217224 0)
(0.184275 -0.773713 0)
(0.0509664 -0.873211 0)
(0.364789 -0.671257 0)
(0.206974 -0.775701 0)
(0.522179 -0.568444 0)
(0.312478 -0.650201 0)
(0.656641 -0.485116 0)
(0.418123 -0.547236 0)
(0.769523 -0.416382 0)
(0.499397 -0.463408 0)
(0.861768 -0.35692 0)
(0.560416 -0.391159 0)
(0.933691 -0.304059 0)
(0.601527 -0.326552 0)
(0.985056 -0.256513 0)
(0.621882 -0.267613 0)
(1.01591 -0.213713 0)
(0.619542 -0.213531 0)
(1.02778 -0.173888 0)
(0.593412 -0.164315 0)
(1.01278 -0.130651 0)
(0.527018 -0.110328 0)
(0.945925 -0.0772534 0)
(0.430413 -0.0418096 0)
(0.820381 -0.0166959 0)
(0.323249 0.0287449 0)
(0.672187 0.0429994 0)
(0.185079 0.0821027 0)
(0.532655 0.0934492 0)
(0.0557705 0.119213 0)
(0.39812 0.128075 0)
(-0.0702157 0.152666 0)
(0.261905 0.147862 0)
(-0.197304 0.175838 0)
(0.127104 0.156887 0)
(-0.320888 0.18688 0)
(0.00228404 0.157409 0)
(-0.434958 0.187518 0)
(-0.104455 0.149576 0)
(-0.532989 0.178431 0)
(-0.18836 0.132967 0)
(-0.609336 0.160034 0)
(-0.248228 0.107382 0)
(-0.662533 0.13274 0)
(-0.283029 0.0741096 0)
(-0.689925 0.0967022 0)
(-0.291623 0.0375748 0)
(-0.691333 0.0531613 0)
(-0.265787 -0.00182954 0)
(-0.672621 0.00578157 0)
(-0.198311 -0.0500395 0)
(-0.608914 -0.0457528 0)
(-0.0864286 -0.110195 0)
(-0.517873 -0.107013 0)
(0.0591562 -0.181978 0)
(-0.394495 -0.174199 0)
(0.242484 -0.252149 0)
(-0.257135 -0.253085 0)
(-0.0872766 -0.311773 0)
(0.0861764 -0.891538 0)
(-0.000918711 -0.957615 0)
(0.16192 -0.772385 0)
(0.0603761 -0.848135 0)
(0.222712 -0.647838 0)
(0.0602359 -0.706963 0)
(0.268458 -0.544321 0)
(0.0727429 -0.588942 0)
(0.296168 -0.456028 0)
(0.0629461 -0.488074 0)
(0.305024 -0.377484 0)
(0.0364271 -0.398856 0)
(0.293718 -0.30525 0)
(-0.0086508 -0.316958 0)
(0.25956 -0.236692 0)
(-0.0732601 -0.239312 0)
(0.197088 -0.167785 0)
(-0.159139 -0.162993 0)
(0.0927056 -0.0918933 0)
(-0.269704 -0.0818667 0)
(-0.05168 -0.0114009 0)
(-0.403604 0.00102373 0)
(-0.195099 0.0590309 0)
(-0.542935 0.0661846 0)
(-0.315379 0.112003 0)
(-0.658091 0.117176 0)
(-0.43148 0.1523 0)
(-0.775343 0.165446 0)
(-0.552951 0.185375 0)
(-0.892248 0.204351 0)
(-0.671139 0.21033 0)
(-1.00536 0.233547 0)
(-0.782733 0.223494 0)
(-1.11191 0.250403 0)
(-0.884573 0.22427 0)
(-1.20803 0.25332 0)
(-0.971803 0.213704 0)
(-1.29008 0.243083 0)
(-1.03996 0.192624 0)
(-1.35452 0.220821 0)
(-1.0855 0.161791 0)
(-1.39814 0.18769 0)
(-1.10616 0.122226 0)
(-1.41877 0.14499 0)
(-1.10241 0.0751112 0)
(-1.4155 0.0945328 0)
(-1.07567 0.0209856 0)
(-1.38953 0.0380447 0)
(-1.02153 -0.0395788 0)
(-1.34444 -0.0240989 0)
(-0.938391 -0.105402 0)
(-1.26974 -0.0905514 0)
(-0.838007 -0.175372 0)
(-1.1815 -0.159828 0)
(-0.723897 -0.249294 0)
(-1.08396 -0.232817 0)
(-0.614353 -0.317295 0)
(-0.987035 -0.308029 0)
(-0.910743 -0.364954 0)
(-0.0137358 -0.912214 0)
(-0.0528773 -0.944162 0)
(-0.0391346 -0.779505 0)
(-0.0875429 -0.823846 0)
(-0.075823 -0.641728 0)
(-0.184454 -0.672706 0)
(-0.12423 -0.523962 0)
(-0.265432 -0.544811 0)
(-0.188614 -0.419729 0)
(-0.362247 -0.430763 0)
(-0.270178 -0.324941 0)
(-0.469742 -0.327968 0)
(-0.369872 -0.235718 0)
(-0.589151 -0.232359 0)
(-0.488138 -0.148916 0)
(-0.719761 -0.141324 0)
(-0.625571 -0.0629116 0)
(-0.860927 -0.0518124 0)
(-0.766003 0.0165401 0)
(-1.00036 0.0290553 0)
(-0.889256 0.0820711 0)
(-1.12907 0.0960785 0)
(-1.00439 0.137062 0)
(-1.24516 0.15288 0)
(-1.12259 0.18675 0)
(-1.36298 0.204074 0)
(-1.23743 0.228639 0)
(-1.47739 0.247888 0)
(-1.34742 0.259611 0)
(-1.58586 0.28144 0)
(-1.44884 0.278436 0)
(-1.68552 0.302952 0)
(-1.5387 0.283355 0)
(-1.77385 0.310445 0)
(-1.6147 0.273967 0)
(-1.84844 0.302905 0)
(-1.67408 0.251199 0)
(-1.90707 0.280908 0)
(-1.71426 0.21641 0)
(-1.94763 0.24581 0)
(-1.73346 0.171206 0)
(-1.9684 0.199348 0)
(-1.73092 0.117456 0)
(-1.96848 0.143486 0)
(-1.7064 0.0571042 0)
(-1.9483 0.080338 0)
(-1.66014 -0.00896101 0)
(-1.91015 0.0118954 0)
(-1.59621 -0.079023 0)
(-1.85212 -0.0593801 0)
(-1.51947 -0.150434 0)
(-1.78227 -0.131904 0)
(-1.43746 -0.222602 0)
(-1.70761 -0.202974 0)
(-1.3579 -0.294623 0)
(-1.63432 -0.273687 0)
(-1.2892 -0.357953 0)
(-1.57216 -0.342487 0)
(-1.53669 -0.397773 0)
(-0.107411 -0.836237 0)
(-0.107249 -0.83896 0)
(-0.231898 -0.695483 0)
(-0.229938 -0.704798 0)
(-0.359826 -0.553901 0)
(-0.410654 -0.553258 0)
(-0.494352 -0.430317 0)
(-0.572891 -0.422168 0)
(-0.635263 -0.319521 0)
(-0.738907 -0.305333 0)
(-0.781981 -0.218229 0)
(-0.905028 -0.200454 0)
(-0.934311 -0.123215 0)
(-1.07086 -0.103095 0)
(-1.08957 -0.0336013 0)
(-1.22923 -0.0126813 0)
(-1.233 0.0458933 0)
(-1.37778 0.0642159 0)
(-1.36102 0.113263 0)
(-1.51119 0.130175 0)
(-1.48266 0.172237 0)
(-1.63718 0.189889 0)
(-1.60252 0.224297 0)
(-1.7595 0.243132 0)
(-1.71797 0.268933 0)
(-1.87642 0.288951 0)
(-1.82615 0.304007 0)
(-1.9857 0.325547 0)
(-1.92486 0.327148 0)
(-2.08531 0.350626 0)
(-2.01161 0.336567 0)
(-2.17318 0.362323 0)
(-2.08438 0.330987 0)
(-2.24749 0.359065 0)
(-2.14157 0.310276 0)
(-2.30667 0.340216 0)
(-2.1816 0.275455 0)
(-2.34935 0.306403 0)
(-2.20311 0.228239 0)
(-2.37434 0.259191 0)
(-2.20548 0.170733 0)
(-2.38085 0.200785 0)
(-2.18906 0.105179 0)
(-2.36885 0.133755 0)
(-2.15469 0.0338645 0)
(-2.33962 0.0604371 0)
(-2.10393 -0.040737 0)
(-2.29668 -0.0167956 0)
(-2.04131 -0.11556 0)
(-2.23856 -0.0939375 0)
(-1.97475 -0.187969 0)
(-2.17636 -0.167771 0)
(-1.91029 -0.257531 0)
(-2.11507 -0.236886 0)
(-1.85465 -0.324473 0)
(-2.06138 -0.302271 0)
(-1.81081 -0.383361 0)
(-2.02274 -0.364476 0)
(-2.00559 -0.415445 0)
(-0.196556 -0.677022 0)
(-0.160912 -0.646445 0)
(-0.405191 -0.53536 0)
(-0.357679 -0.505279 0)
(-0.608979 -0.398718 0)
(-0.608245 -0.362978 0)
(-0.80785 -0.279719 0)
(-0.831697 -0.240864 0)
(-1.00179 -0.172917 0)
(-1.04417 -0.132703 0)
(-1.18882 -0.0748579 0)
(-1.23995 -0.0379047 0)
(-1.36156 0.0126545 0)
(-1.41972 0.0434899 0)
(-1.51421 0.0871209 0)
(-1.58264 0.113798 0)
(-1.65298 0.152263 0)
(-1.72877 0.176481 0)
(-1.78563 0.21163 0)
(-1.86765 0.23495 0)
(-1.9123 0.264841 0)
(-1.99869 0.287578 0)
(-2.0321 0.310679 0)
(-2.12176 0.333344 0)
(-2.14346 0.347636 0)
(-2.23584 0.370826 0)
(-2.24458 0.373729 0)
(-2.33959 0.39813 0)
(-2.33379 0.386939 0)
(-2.43163 0.413158 0)
(-2.40946 0.385624 0)
(-2.51056 0.414107 0)
(-2.47023 0.368815 0)
(-2.57516 0.39967 0)
(-2.51505 0.33659 0)
(-2.62438 0.369453 0)
(-2.54299 0.290128 0)
(-2.65734 0.324202 0)
(-2.55343 0.231476 0)
(-2.67335 0.265685 0)
(-2.54634 0.163234 0)
(-2.67215 0.196479 0)
(-2.52255 0.0880717 0)
(-2.65425 0.11965 0)
(-2.48361 0.0085386 0)
(-2.62127 0.0378917 0)
(-2.43344 -0.0716329 0)
(-2.57603 -0.0451552 0)
(-2.37666 -0.148228 0)
(-2.52225 -0.125273 0)
(-2.31994 -0.218927 0)
(-2.46746 -0.198333 0)
(-2.2695 -0.283783 0)
(-2.41745 -0.263423 0)
(-2.23082 -0.344236 0)
(-2.37908 -0.322138 0)
(-2.20567 -0.397205 0)
(-2.35752 -0.377094 0)
(-2.3513 -0.422032 0)
(-0.274682 -0.450665 0)
(-0.215641 -0.377411 0)
(-0.55418 -0.319256 0)
(-0.472166 -0.237994 0)
(-0.816453 -0.196358 0)
(-0.767792 -0.118089 0)
(-1.05919 -0.0866361 0)
(-1.02374 -0.0195657 0)
(-1.27573 0.00715197 0)
(-1.25372 0.0600412 0)
(-1.46671 0.0829951 0)
(-1.45851 0.128077 0)
(-1.63705 0.147969 0)
(-1.64084 0.188045 0)
(-1.79408 0.207665 0)
(-1.80775 0.243898 0)
(-1.94143 0.263176 0)
(-1.96204 0.295681 0)
(-2.07879 0.313788 0)
(-2.10497 0.343452 0)
(-2.20646 0.358228 0)
(-2.23697 0.386035 0)
(-2.32412 0.395023 0)
(-2.35828 0.421945 0)
(-2.43099 0.422379 0)
(-2.46857 0.449396 0)
(-2.52601 0.438283 0)
(-2.5672 0.466343 0)
(-2.60813 0.440816 0)
(-2.65334 0.47071 0)
(-2.67627 0.428482 0)
(-2.72612 0.460737 0)
(-2.72952 0.400508 0)
(-2.78468 0.435252 0)
(-2.76715 0.357133 0)
(-2.82825 0.394003 0)
(-2.78857 0.299691 0)
(-2.85613 0.337847 0)
(-2.79351 0.230484 0)
(-2.8678 0.26876 0)
(-2.78225 0.152472 0)
(-2.86323 0.189639 0)
(-2.75563 0.0688875 0)
(-2.84325 0.103865 0)
(-2.71575 -0.0168423 0)
(-2.80981 0.0148053 0)
(-2.66736 -0.100271 0)
(-2.76504 -0.0725061 0)
(-2.61613 -0.176869 0)
(-2.71571 -0.153544 0)
(-2.56782 -0.244334 0)
(-2.66737 -0.224365 0)
(-2.52844 -0.30323 0)
(-2.6266 -0.284141 0)
(-2.50285 -0.35624 0)
(-2.60057 -0.335286 0)
(-2.49282 -0.402217 0)
(-2.59243 -0.382123 0)
(-2.59403 -0.420095 0)
(-0.351631 -0.165963 0)
(-0.253445 -0.03301 0)
(-0.67549 -0.031766 0)
(-0.545085 0.071714 0)
(-0.960995 0.0624956 0)
(-0.861596 0.148493 0)
(-1.21049 0.13082 0)
(-1.13095 0.207887 0)
(-1.43057 0.18705 0)
(-1.36829 0.25595 0)
(-1.62848 0.239303 0)
(-1.58033 0.300077 0)
(-1.80868 0.288453 0)
(-1.77066 0.34096 0)
(-1.97301 0.334698 0)
(-1.94272 0.38005 0)
(-2.1235 0.377829 0)
(-2.09896 0.41743 0)
(-2.26129 0.41697 0)
(-2.24124 0.452284 0)
(-2.38712 0.450576 0)
(-2.37079 0.483078 0)
(-2.50128 0.476817 0)
(-2.48835 0.507909 0)
(-2.60362 0.493636 0)
(-2.59418 0.524631 0)
(-2.69365 0.498903 0)