/*--------------------------------*- C++ -*----------------------------------*\
  =========                 |
  \\      /  F ield         | OpenFOAM: The Open Source CFD Toolbox
   \\    /   O peration     | Website:  https://openfoam.org
    \\  /    A nd           | Version:  7
     \\/     M anipulation  |
\*---------------------------------------------------------------------------*/
FoamFile
{
    version     2.0;
    format      ascii;
    class       volVectorField;
    location    "4.68";
    object      U;
}
// * * * * * * * * * * * * * * * * * * * * * * * * * * * * * * * * * * * * * //

dimensions      [0 1 -1 0 0 0 0];

internalField   nonuniform List<vector> 
12013
(
(0.100577 -0.000160109 0)
(0.102931 -0.000294878 0)
(0.106723 -0.000419706 0)
(0.11162 -0.000535214 0)
(0.117529 -0.000644079 0)
(0.124354 -0.000747547 0)
(0.132007 -0.000846054 0)
(0.140406 -0.000939622 0)
(0.149473 -0.00102795 0)
(0.159129 -0.00111055 0)
(0.169294 -0.00118684 0)
(0.179887 -0.00125622 0)
(0.190827 -0.00131817 0)
(0.202033 -0.00137228 0)
(0.213424 -0.00141827 0)
(0.224925 -0.001456 0)
(0.236463 -0.00148551 0)
(0.247969 -0.00150698 0)
(0.259381 -0.00152072 0)
(0.270645 -0.00152715 0)
(0.28171 -0.00152675 0)
(0.292535 -0.00152011 0)
(0.303085 -0.00150781 0)
(0.313329 -0.00149048 0)
(0.323246 -0.00146874 0)
(0.332818 -0.00144319 0)
(0.342034 -0.00141445 0)
(0.350885 -0.00138305 0)
(0.359369 -0.00134951 0)
(0.367487 -0.00131433 0)
(0.375242 -0.00127796 0)
(0.382641 -0.00124078 0)
(0.389692 -0.00120316 0)
(0.396407 -0.00116544 0)
(0.402797 -0.00112788 0)
(0.408876 -0.00109072 0)
(0.414658 -0.00105417 0)
(0.420158 -0.00101844 0)
(0.425392 -0.000983666 0)
(0.430376 -0.000949939 0)
(0.435126 -0.000917346 0)
(0.439657 -0.000885974 0)
(0.443986 -0.000855876 0)
(0.448128 -0.000827052 0)
(0.452099 -0.00079947 0)
(0.455915 -0.000773087 0)
(0.459588 -0.000747848 0)
(0.463135 -0.000723681 0)
(0.466568 -0.000700474 0)
(0.4699 -0.00067808 0)
(0.473145 -0.000656315 0)
(0.476313 -0.000634962 0)
(0.479417 -0.00061377 0)
(0.482466 -0.000592451 0)
(0.48547 -0.000570669 0)
(0.488438 -0.000548027 0)
(0.491378 -0.000524061 0)
(0.494297 -0.000498227 0)
(0.497201 -0.000469889 0)
(0.500095 -0.000438302 0)
(0.502982 -0.000402586 0)
(0.505863 -0.000361699 0)
(0.508739 -0.000314388 0)
(0.511608 -0.000259141 0)
(0.514465 -0.000194106 0)
(0.517302 -0.000116989 0)
(0.520107 -2.4913e-05 0)
(0.522862 8.59542e-05 0)
(0.525544 0.000220769 0)
(0.528118 0.000386425 0)
(0.530536 0.000592512 0)
(0.53273 0.000852871 0)
(0.534603 0.00118826 0)
(0.536013 0.00163119 0)
(0.536743 0.00223505 0)
(0.536454 0.00309232 0)
(0.534592 0.00437272 0)
(0.530182 0.00641377 0)
(0.521476 0.0100146 0)
(0.505439 0.017998 0)
(0.488808 0.0490452 0)
(0.100534 -0.000488736 0)
(0.10288 -0.000903549 0)
(0.106659 -0.00128623 0)
(0.111547 -0.00163983 0)
(0.117449 -0.00197289 0)
(0.124268 -0.00228923 0)
(0.131917 -0.00259021 0)
(0.140313 -0.00287594 0)
(0.149378 -0.00314554 0)
(0.159033 -0.00339752 0)
(0.169199 -0.00363014 0)
(0.179793 -0.00384164 0)
(0.190735 -0.00403042 0)
(0.201944 -0.00419525 0)
(0.213338 -0.00433529 0)
(0.224843 -0.00445017 0)
(0.236384 -0.00454002 0)
(0.247894 -0.00460538 0)
(0.259311 -0.0046472 0)
(0.270579 -0.00466675 0)
(0.281648 -0.00466555 0)
(0.292476 -0.00464533 0)
(0.303028 -0.00460789 0)
(0.313275 -0.00455512 0)
(0.323194 -0.00448893 0)
(0.332767 -0.00441114 0)
(0.341983 -0.00432356 0)
(0.350834 -0.00422788 0)
(0.359317 -0.00412569 0)
(0.367434 -0.00401846 0)
(0.375187 -0.00390755 0)
(0.382582 -0.00379417 0)
(0.38963 -0.00367942 0)
(0.39634 -0.00356427 0)
(0.402725 -0.00344958 0)
(0.408798 -0.00333611 0)
(0.414572 -0.00322451 0)
(0.420065 -0.00311529 0)
(0.42529 -0.0030089 0)
(0.430264 -0.0029057 0)
(0.435002 -0.002806 0)
(0.439521 -0.00270999 0)
(0.443836 -0.00261777 0)
(0.447963 -0.00252932 0)
(0.451918 -0.00244463 0)
(0.455715 -0.00236359 0)
(0.459369 -0.00228605 0)
(0.462894 -0.00221173 0)
(0.466304 -0.00214026 0)
(0.469611 -0.00207119 0)
(0.472828 -0.00200396 0)
(0.475967 -0.00193793 0)
(0.479038 -0.00187234 0)
(0.482052 -0.00180632 0)
(0.485019 -0.00173881 0)
(0.487948 -0.0016686 0)
(0.490845 -0.00159426 0)
(0.493718 -0.00151412 0)
(0.496573 -0.00142625 0)
(0.499415 -0.0013284 0)
(0.502247 -0.00121787 0)
(0.50507 -0.00109152 0)
(0.507885 -0.000945524 0)
(0.510691 -0.000775306 0)
(0.513482 -0.000575255 0)
(0.516252 -0.000338435 0)
(0.51899 -5.6117e-05 0)
(0.52168 0.00028315 0)
(0.5243 0.000694443 0)
(0.526819 0.00119784 0)
(0.529196 0.00182103 0)
(0.531374 0.00260337 0)
(0.533275 0.00360276 0)
(0.53479 0.00490745 0)
(0.535765 0.0066574 0)
(0.535983 0.00908373 0)
(0.535142 0.0125839 0)
(0.532816 0.0178705 0)
(0.528464 0.0262934 0)
(0.522013 0.0404616 0)
(0.520976 0.0650565 0)
(0.100489 -0.000831138 0)
(0.102812 -0.00155078 0)
(0.106565 -0.00221032 0)
(0.111434 -0.00281947 0)
(0.11732 -0.00339314 0)
(0.124128 -0.00393792 0)
(0.131767 -0.00445621 0)
(0.140157 -0.00494822 0)
(0.149218 -0.00541245 0)
(0.158871 -0.00584635 0)
(0.169037 -0.00624691 0)
(0.179633 -0.0066111 0)
(0.190579 -0.0069362 0)
(0.201792 -0.00722003 0)
(0.213193 -0.00746118 0)
(0.224705 -0.00765902 0)
(0.236253 -0.00781374 0)
(0.247771 -0.00792628 0)
(0.259195 -0.00799829 0)
(0.270469 -0.00803193 0)
(0.281544 -0.00802984 0)
(0.292379 -0.00799496 0)
(0.302936 -0.00793044 0)
(0.313187 -0.0078395 0)
(0.323108 -0.00772542 0)
(0.332683 -0.00759136 0)
(0.3419 -0.00744042 0)
(0.35075 -0.0072755 0)
(0.359232 -0.00709936 0)
(0.367345 -0.0069145 0)
(0.375093 -0.00672325 0)
(0.382483 -0.00652773 0)
(0.389524 -0.0063298 0)
(0.396225 -0.00613113 0)
(0.4026 -0.00593323 0)
(0.40866 -0.00573736 0)
(0.414422 -0.00554463 0)
(0.419899 -0.00535592 0)
(0.425108 -0.00517203 0)
(0.430063 -0.00499359 0)
(0.434781 -0.00482107 0)
(0.439277 -0.00465475 0)
(0.443568 -0.0044948 0)
(0.447668 -0.00434128 0)
(0.451593 -0.00419415 0)
(0.455358 -0.00405323 0)
(0.458978 -0.00391817 0)
(0.462465 -0.00378846 0)
(0.465833 -0.00366347 0)
(0.469096 -0.00354241 0)
(0.472265 -0.00342438 0)
(0.475353 -0.00330825 0)
(0.478368 -0.00319273 0)
(0.481323 -0.00307627 0)
(0.484226 -0.00295706 0)
(0.487086 -0.002833 0)
(0.48991 -0.00270166 0)
(0.492706 -0.00256021 0)
(0.495478 -0.00240539 0)
(0.498233 -0.00223335 0)
(0.500972 -0.00203959 0)
(0.503699 -0.00181876 0)
(0.506414 -0.0015645 0)
(0.509116 -0.00126915 0)
(0.511801 -0.000923421 0)
(0.514463 -0.000515867 0)
(0.517095 -3.21057e-05 0)
(0.519681 0.000546389 0)
(0.522207 0.00124343 0)
(0.524648 0.00209037 0)
(0.526975 0.00312954 0)
(0.529149 0.00441945 0)
(0.531121 0.00604303 0)
(0.532833 0.00812072 0)
(0.534215 0.0108318 0)
(0.535203 0.0144489 0)
(0.535762 0.0193933 0)
(0.535967 0.0263213 0)
(0.536174 0.0362604 0)
(0.537476 0.0507201 0)
(0.54362 0.0708936 0)
(0.100445 -0.00118483 0)
(0.102737 -0.00223582 0)
(0.106453 -0.00319253 0)
(0.111293 -0.00407666 0)
(0.117156 -0.00490904 0)
(0.123945 -0.00569936 0)
(0.131571 -0.00645124 0)
(0.139951 -0.007165 0)
(0.149007 -0.00783849 0)
(0.158658 -0.00846801 0)
(0.168825 -0.0090492 0)
(0.179426 -0.00957762 0)
(0.190378 -0.0100493 0)
(0.201601 -0.0104611 0)
(0.213012 -0.010811 0)
(0.224535 -0.011098 0)
(0.236096 -0.0113224 0)
(0.247625 -0.0114855 0)
(0.259061 -0.0115898 0)
(0.270347 -0.0116384 0)
(0.281434 -0.0116352 0)
(0.292277 -0.0115843 0)
(0.302842 -0.0114904 0)
(0.3131 -0.0113581 0)
(0.323026 -0.0111922 0)
(0.332604 -0.0109974 0)
(0.341822 -0.010778 0)
(0.350672 -0.0105383 0)
(0.359151 -0.0102822 0)
(0.36726 -0.0100135 0)
(0.375002 -0.00973553 0)
(0.382384 -0.00945124 0)
(0.389414 -0.00916341 0)
(0.396103 -0.00887445 0)
(0.402462 -0.0085865 0)
(0.408507 -0.0083014 0)
(0.414249 -0.00802072 0)
(0.419706 -0.00774583 0)
(0.42489 -0.00747779 0)
(0.42982 -0.00721746 0)
(0.434509 -0.00696549 0)
(0.438974 -0.00672234 0)
(0.44323 -0.0064883 0)
(0.447293 -0.00626343 0)
(0.451178 -0.00604762 0)
(0.4549 -0.0058405 0)
(0.458471 -0.00564155 0)
(0.461908 -0.00545008 0)
(0.465221 -0.00526517 0)
(0.468425 -0.00508573 0)
(0.471531 -0.00491038 0)
(0.47455 -0.00473749 0)
(0.477493 -0.00456515 0)
(0.480369 -0.00439111 0)
(0.483189 -0.00421279 0)
(0.485961 -0.00402718 0)
(0.488691 -0.00383084 0)
(0.491388 -0.00361975 0)
(0.494056 -0.00338928 0)
(0.4967 -0.00313399 0)
(0.499325 -0.00284757 0)
(0.501933 -0.00252255 0)
(0.504525 -0.00215012 0)
(0.507101 -0.00171975 0)
(0.50966 -0.00121878 0)
(0.512197 -0.000631767 0)
(0.514707 6.05383e-05 0)
(0.517182 0.000882338 0)
(0.519612 0.00186398 0)
(0.521984 0.00304455 0)
(0.524282 0.0044752 0)
(0.526491 0.00622387 0)
(0.528595 0.00838204 0)
(0.530585 0.0110742 0)
(0.532472 0.0144708 0)
(0.534301 0.0188046 0)
(0.536199 0.0243878 0)
(0.538438 0.0316208 0)
(0.541549 0.0409671 0)
(0.546459 0.0528043 0)
(0.554752 0.0668143 0)
(0.100401 -0.00155058 0)
(0.102659 -0.00295872 0)
(0.10633 -0.00423421 0)
(0.111133 -0.00541427 0)
(0.116967 -0.00652505 0)
(0.123734 -0.00757951 0)
(0.131344 -0.00858266 0)
(0.139713 -0.00953499 0)
(0.148764 -0.0104336 0)
(0.158415 -0.0112736 0)
(0.168587 -0.0120492 0)
(0.179196 -0.0127543 0)
(0.19016 -0.0133837 0)
(0.201397 -0.0139332 0)
(0.212826 -0.0144 0)
(0.224367 -0.0147828 0)
(0.235947 -0.0150819 0)
(0.247496 -0.0152993 0)
(0.258951 -0.0154381 0)
(0.270255 -0.0155024 0)
(0.281357 -0.0154975 0)
(0.292216 -0.015429 0)
(0.302794 -0.0153031 0)
(0.313062 -0.0151259 0)
(0.322996 -0.0149039 0)
(0.33258 -0.0146431 0)
(0.3418 -0.0143496 0)
(0.350651 -0.0140289 0)
(0.359127 -0.0136864 0)
(0.367231 -0.013327 0)
(0.374965 -0.0129551 0)
(0.382336 -0.0125747 0)
(0.389352 -0.0121895 0)
(0.396025 -0.0118027 0)
(0.402367 -0.0114171 0)
(0.408389 -0.0110352 0)
(0.414108 -0.0106591 0)
(0.419537 -0.0102904 0)
(0.424691 -0.00993067 0)
(0.429588 -0.00958099 0)
(0.434241 -0.00924224 0)
(0.438666 -0.00891501 0)
(0.44288 -0.00859963 0)
(0.446896 -0.00829611 0)
(0.450731 -0.00800424 0)
(0.454399 -0.00772358 0)
(0.457912 -0.00745345 0)
(0.461286 -0.00719291 0)
(0.464533 -0.00694074 0)
(0.467666 -0.00669541 0)
(0.470695 -0.00645508 0)
(0.473633 -0.00621757 0)
(0.476489 -0.00598033 0)
(0.479274 -0.00574044 0)
(0.481997 -0.00549451 0)
(0.484665 -0.00523863 0)
(0.487288 -0.00496829 0)
(0.48987 -0.00467832 0)
(0.492419 -0.00436271 0)
(0.49494 -0.00401455 0)
(0.497437 -0.00362578 0)
(0.499913 -0.00318703 0)
(0.502371 -0.00268732 0)
(0.504812 -0.00211364 0)
(0.507237 -0.00145057 0)
(0.509645 -0.000679551 0)
(0.512035 0.000222132 0)
(0.514404 0.00128224 0)
(0.51675 0.00253467 0)
(0.519072 0.00402167 0)
(0.52137 0.0057963 0)
(0.523649 0.00792555 0)
(0.525923 0.0104941 0)
(0.528221 0.0136082 0)
(0.530602 0.0173997 0)
(0.533168 0.0220261 0)
(0.536091 0.0276641 0)
(0.539647 0.0344845 0)
(0.544248 0.0425939 0)
(0.550446 0.051909 0)
(0.558887 0.0619172 0)
(0.100358 -0.00192946 0)
(0.102584 -0.0037201 0)
(0.106205 -0.00533734 0)
(0.110968 -0.00683581 0)
(0.116768 -0.00824643 0)
(0.12351 -0.00958541 0)
(0.131102 -0.0108593 0)
(0.139462 -0.0120687 0)
(0.14851 -0.01321 0)
(0.158165 -0.0142769 0)
(0.168347 -0.015262 0)
(0.178971 -0.0161576 0)
(0.189956 -0.0169571 0)
(0.201216 -0.0176549 0)
(0.212671 -0.0182476 0)
(0.22424 -0.0187334 0)
(0.235849 -0.0191129 0)
(0.247427 -0.0193884 0)
(0.25891 -0.0195638 0)
(0.270241 -0.0196447 0)
(0.281368 -0.0196375 0)
(0.292248 -0.0195494 0)
(0.302845 -0.0193883 0)
(0.313129 -0.0191621 0)
(0.323076 -0.0188788 0)
(0.332669 -0.0185463 0)
(0.341894 -0.0181722 0)
(0.350746 -0.0177636 0)
(0.359221 -0.0173273 0)
(0.367319 -0.0168693 0)
(0.375044 -0.0163954 0)
(0.382402 -0.0159107 0)
(0.389403 -0.0154198 0)
(0.396057 -0.0149267 0)
(0.402375 -0.0144349 0)
(0.408371 -0.0139476 0)
(0.41406 -0.0134674 0)
(0.419456 -0.0129964 0)
(0.424574 -0.0125365 0)
(0.42943 -0.0120891 0)
(0.434039 -0.0116552 0)
(0.438418 -0.0112356 0)
(0.44258 -0.0108304 0)
(0.446541 -0.0104399 0)
(0.450317 -0.0100637 0)
(0.453921 -0.00970127 0)
(0.457367 -0.00935169 0)
(0.460668 -0.00901374 0)
(0.463837 -0.00868582 0)
(0.466888 -0.00836599 0)
(0.46983 -0.00805192 0)
(0.472675 -0.00774089 0)
(0.475434 -0.00742974 0)
(0.478116 -0.00711482 0)
(0.48073 -0.00679194 0)
(0.483284 -0.00645628 0)
(0.485788 -0.00610231 0)
(0.488246 -0.00572373 0)
(0.490667 -0.0053133 0)
(0.493055 -0.00486275 0)
(0.495416 -0.00436255 0)
(0.497754 -0.00380172 0)
(0.500073 -0.00316752 0)
(0.502377 -0.00244513 0)
(0.504669 -0.0016172 0)
(0.506952 -0.000663264 0)
(0.509228 0.000441045 0)
(0.511502 0.00172458 0)
(0.51378 0.00322145 0)
(0.51607 0.00497243 0)
(0.518386 0.00702622 0)
(0.52075 0.00944056 0)
(0.523194 0.0122831 0)
(0.525771 0.0156309 0)
(0.528556 0.0195683 0)
(0.531661 0.0241796 0)
(0.535242 0.0295354 0)
(0.539508 0.0356673 0)
(0.544716 0.0425268 0)
(0.551146 0.0499266 0)
(0.559021 0.0574707 0)
(0.100314 -0.00232279 0)
(0.102513 -0.00452136 0)
(0.106085 -0.00650474 0)
(0.110804 -0.00834564 0)
(0.11657 -0.0100794 0)
(0.123287 -0.0117253 0)
(0.130864 -0.0132914 0)
(0.139218 -0.0147783 0)
(0.148268 -0.0161817 0)
(0.157934 -0.0174938 0)
(0.168134 -0.0187053 0)
(0.178784 -0.0198068 0)
(0.189799 -0.02079 0)
(0.201096 -0.0216481 0)
(0.212589 -0.0223765 0)
(0.2242 -0.0229734 0)
(0.235851 -0.0234392 0)
(0.24747 -0.0237769 0)
(0.258994 -0.0239914 0)
(0.270362 -0.0240893 0)
(0.281524 -0.0240787 0)
(0.292436 -0.0239686 0)
(0.30306 -0.0237685 0)
(0.313367 -0.0234884 0)
(0.323332 -0.023138 0)
(0.332938 -0.0227271 0)
(0.342173 -0.022265 0)
(0.351029 -0.0217604 0)
(0.359503 -0.0212216 0)
(0.367596 -0.0206563 0)
(0.375311 -0.0200712 0)
(0.382655 -0.0194728 0)
(0.389637 -0.0188666 0)
(0.396268 -0.0182575 0)
(0.402559 -0.0176499 0)
(0.408524 -0.0170475 0)
(0.414178 -0.0164536 0)
(0.419534 -0.0158707 0)
(0.424609 -0.0153011 0)
(0.429418 -0.0147463 0)
(0.433976 -0.0142078 0)
(0.438298 -0.0136861 0)
(0.442401 -0.0131819 0)
(0.446298 -0.012695 0)
(0.450005 -0.0122252 0)
(0.453536 -0.0117716 0)
(0.456904 -0.0113332 0)
(0.460123 -0.0109083 0)
(0.463205 -0.0104951 0)
(0.466163 -0.0100911 0)
(0.469008 -0.0096936 0)
(0.47175 -0.00929929 0)
(0.474401 -0.00890437 0)
(0.47697 -0.00850449 0)
(0.479467 -0.00809464 0)
(0.481898 -0.00766916 0)
(0.484274 -0.00722159 0)
(0.486601 -0.00674463 0)
(0.488886 -0.00622999 0)
(0.491136 -0.00566827 0)
(0.493357 -0.00504878 0)
(0.495554 -0.00435937 0)
(0.497734 -0.00358614 0)
(0.499902 -0.0027132 0)
(0.502064 -0.00172236 0)
(0.504227 -0.000592646 0)
(0.506398 0.000700097 0)
(0.508587 0.00218338 0)
(0.510806 0.00388851 0)
(0.513073 0.00585103 0)
(0.51541 0.00811085 0)
(0.517848 0.0107119 0)
(0.520429 0.0137008 0)
(0.523209 0.0171245 0)
(0.526264 0.0210252 0)
(0.529689 0.0254328 0)
(0.533599 0.0303528 0)
(0.538129 0.0357504 0)
(0.543417 0.0415298 0)
(0.549581 0.0475152 0)
(0.556663 0.0534419 0)
(0.100269 -0.00273236 0)
(0.102447 -0.00536473 0)
(0.105975 -0.00774018 0)
(0.110652 -0.00994921 0)
(0.116385 -0.0120315 0)
(0.12308 -0.0140089 0)
(0.130645 -0.0158908 0)
(0.138999 -0.0176781 0)
(0.14806 -0.0193652 0)
(0.157747 -0.0209428 0)
(0.167978 -0.0223996 0)
(0.178667 -0.0237243 0)
(0.189728 -0.0249064 0)
(0.201076 -0.0259378 0)
(0.212626 -0.0268131 0)
(0.224294 -0.0275298 0)
(0.236004 -0.0280885 0)
(0.247681 -0.0284927 0)
(0.25926 -0.0287483 0)
(0.270681 -0.0288636 0)
(0.281891 -0.0288481 0)
(0.292847 -0.0287128 0)
(0.303509 -0.0284691 0)
(0.313847 -0.0281292 0)
(0.323838 -0.0277047 0)
(0.333464 -0.0272074 0)
(0.342712 -0.0266486 0)
(0.351575 -0.0260387 0)
(0.36005 -0.0253877 0)
(0.368138 -0.0247047 0)
(0.375843 -0.023998 0)
(0.383171 -0.0232751 0)
(0.390132 -0.0225427 0)
(0.396736 -0.0218067 0)
(0.402995 -0.0210723 0)
(0.408924 -0.0203439 0)
(0.414537 -0.0196252 0)
(0.419848 -0.0189195 0)
(0.424872 -0.0182292 0)
(0.429626 -0.0175564 0)
(0.434124 -0.0169024 0)
(0.438382 -0.0162682 0)
(0.442416 -0.0156542 0)
(0.44624 -0.0150605 0)
(0.449869 -0.0144864 0)
(0.453317 -0.0139312 0)
(0.456598 -0.0133933 0)
(0.459725 -0.012871 0)
(0.462709 -0.0123619 0)
(0.465565 -0.0118632 0)
(0.468303 -0.0113717 0)
(0.470933 -0.0108835 0)
(0.473467 -0.0103942 0)
(0.475914 -0.00989871 0)
(0.478284 -0.00939139 0)
(0.480585 -0.00886579 0)
(0.482827 -0.00831465 0)
(0.485016 -0.00772986 0)
(0.48716 -0.00710232 0)
(0.489268 -0.00642179 0)
(0.491346 -0.00567684 0)
(0.493402 -0.00485466 0)
(0.495443 -0.00394086 0)
(0.497477 -0.00291939 0)
(0.499513 -0.00177227 0)
(0.50156 -0.000479465 0)
(0.503631 0.000981318 0)
(0.505739 0.0026343 0)
(0.507901 0.00450576 0)
(0.510139 0.00662376 0)
(0.512481 0.00901748 0)
(0.514959 0.011716 0)
(0.517617 0.0147461 0)
(0.520506 0.0181296 0)
(0.523687 0.0218783 0)
(0.527231 0.0259888 0)
(0.531211 0.0304345 0)
(0.535704 0.0351584 0)
(0.540771 0.0400654 0)
(0.546446 0.0450203 0)
(0.552703 0.0498566 0)
(0.100223 -0.0031604 0)
(0.102388 -0.00625336 0)
(0.105877 -0.00904856 0)
(0.110516 -0.0116533 0)
(0.116221 -0.0141117 0)
(0.1229 -0.0164475 0)
(0.130462 -0.0186715 0)
(0.138825 -0.0207844 0)
(0.147909 -0.0227796 0)
(0.157631 -0.0246456 0)
(0.167909 -0.0263689 0)
(0.178655 -0.0279359 0)
(0.189782 -0.0293341 0)
(0.201202 -0.0305537 0)
(0.212828 -0.031588 0)
(0.224575 -0.032434 0)
(0.236364 -0.0330925 0)
(0.24812 -0.0335677 0)
(0.259774 -0.0338666 0)
(0.271264 -0.0339989 0)
(0.282539 -0.0339763 0)
(0.293552 -0.0338116 0)
(0.304264 -0.0335187 0)
(0.314645 -0.0331117 0)
(0.324671 -0.0326048 0)
(0.334323 -0.0320118 0)
(0.34359 -0.0313459 0)
(0.352464 -0.0306199 0)
(0.360943 -0.0298452 0)
(0.369027 -0.0290328 0)
(0.37672 -0.0281923 0)
(0.384031 -0.0273326 0)
(0.390967 -0.0264615 0)
(0.397541 -0.0255861 0)
(0.403764 -0.0247123 0)
(0.409651 -0.0238453 0)
(0.415216 -0.0229895 0)
(0.420473 -0.0221485 0)
(0.42544 -0.0213253 0)
(0.43013 -0.0205222 0)
(0.43456 -0.0197407 0)
(0.438745 -0.0189819 0)
(0.442701 -0.0182463 0)
(0.446442 -0.0175338 0)
(0.449983 -0.0168438 0)
(0.453338 -0.0161751 0)
(0.456521 -0.0155261 0)
(0.459545 -0.0148947 0)
(0.462423 -0.0142781 0)
(0.465166 -0.0136732 0)
(0.467787 -0.0130761 0)
(0.470296 -0.0124826 0)
(0.472704 -0.0118876 0)
(0.475021 -0.0112855 0)
(0.477257 -0.0106699 0)
(0.47942 -0.0100339 0)
(0.48152 -0.0093695 0)
(0.483566 -0.00866806 0)
(0.485566 -0.00791991 0)
(0.487529 -0.00711438 0)
(0.489462 -0.00623973 0)
(0.491375 -0.00528304 0)
(0.493278 -0.00423018 0)
(0.495179 -0.00306576 0)
(0.49709 -0.00177304 0)
(0.499023 -0.00033404 0)
(0.500993 0.00127041 0)
(0.503016 0.00306001 0)
(0.505111 0.00505491 0)
(0.507303 0.00727499 0)
(0.509619 0.00973887 0)
(0.51209 0.0124624 0)
(0.514753 0.0154567 0)
(0.51765 0.0187257 0)
(0.520825 0.022263 0)
(0.524323 0.0260484 0)
(0.528188 0.0300446 0)
(0.532454 0.0341944 0)
(0.53714 0.03842 0)
(0.542241 0.0426262 0)
(0.547712 0.0467108 0)
(0.100175 -0.00360957 0)
(0.102336 -0.00719132 0)
(0.105794 -0.010436 0)
(0.110402 -0.0134663 0)
(0.116087 -0.0163308 0)
(0.122759 -0.0190548 0)
(0.130329 -0.0216501 0)
(0.138715 -0.024117 0)
(0.147838 -0.0264473 0)
(0.157613 -0.0286275 0)
(0.167958 -0.0306414 0)
(0.178784 -0.0324725 0)
(0.190001 -0.0341061 0)
(0.201519 -0.0355302 0)
(0.213247 -0.036737 0)
(0.2251 -0.0377229 0)
(0.236994 -0.0384886 0)
(0.248851 -0.0390392 0)
(0.260602 -0.039383 0)
(0.272184 -0.0395315 0)
(0.283542 -0.0394984 0)
(0.294629 -0.039299 0)
(0.305406 -0.0389495 0)
(0.315843 -0.0384667 0)
(0.325913 -0.0378672 0)
(0.3356 -0.0371672 0)
(0.344892 -0.0363824 0)
(0.353781 -0.0355272 0)
(0.362265 -0.0346156 0)
(0.370345 -0.0336598 0)
(0.378027 -0.0326715 0)
(0.385317 -0.0316607 0)
(0.392226 -0.0306367 0)
(0.398764 -0.0296074 0)
(0.404945 -0.0285799 0)
(0.410783 -0.02756 0)
(0.416293 -0.0265529 0)
(0.42149 -0.0255627 0)
(0.426389 -0.0245927 0)
(0.431007 -0.0236455 0)
(0.435359 -0.0227229 0)
(0.439461 -0.021826 0)
(0.443328 -0.0209554 0)
(0.446976 -0.0201108 0)
(0.450418 -0.0192916 0)
(0.45367 -0.0184965 0)
(0.456745 -0.0177235 0)
(0.459656 -0.0169702 0)
(0.462416 -0.0162335 0)
(0.465037 -0.0155098 0)
(0.467531 -0.0147949 0)
(0.469909 -0.0140839 0)
(0.472182 -0.0133713 0)
(0.47436 -0.0126512 0)
(0.476454 -0.0119165 0)
(0.478473 -0.0111599 0)
(0.480427 -0.0103731 0)
(0.482325 -0.00954696 0)
(0.484176 -0.00867164 0)
(0.485989 -0.00773642 0)
(0.487776 -0.00672972 0)
(0.489545 -0.00563911 0)
(0.491307 -0.00445134 0)
(0.493073 -0.00315236 0)
(0.494858 -0.00172749 0)
(0.496673 -0.000161535 0)
(0.498535 0.00156087 0)
(0.500461 0.00345447 0)
(0.502472 0.00553322 0)
(0.50459 0.00780942 0)
(0.506839 0.0102927 0)
(0.509247 0.0129889 0)
(0.511842 0.0158981 0)
(0.514655 0.0190139 0)
(0.517714 0.0223206 0)
(0.521045 0.0257926 0)
(0.524668 0.0293928 0)
(0.528595 0.0330729 0)
(0.532823 0.0367747 0)
(0.537333 0.0404335 0)
(0.542076 0.0439874 0)
(0.100123 -0.0040829 0)
(0.10229 -0.00818368 0)
(0.105728 -0.0119101 0)
(0.110314 -0.0153984 0)
(0.115989 -0.018702 0)
(0.122667 -0.0218472 0)
(0.13026 -0.0248463 0)
(0.138687 -0.0276991 0)
(0.147868 -0.0303954 0)
(0.157721 -0.032919 0)
(0.168159 -0.0352506 0)
(0.179093 -0.0373706 0)
(0.19043 -0.0392612 0)
(0.202077 -0.0409084 0)
(0.21394 -0.0423027 0)
(0.225929 -0.0434398 0)
(0.237957 -0.0443205 0)
(0.249946 -0.0449507 0)
(0.261821 -0.0453404 0)
(0.273519 -0.045503 0)
(0.284981 -0.0454547 0)
(0.296162 -0.0452135 0)
(0.30702 -0.0447983 0)
(0.317525 -0.0442288 0)
(0.327651 -0.0435243 0)
(0.337381 -0.0427038 0)
(0.346703 -0.0417853 0)
(0.35561 -0.0407859 0)
(0.364102 -0.0397214 0)
(0.372178 -0.0386063 0)
(0.379846 -0.0374537 0)
(0.387113 -0.0362754 0)
(0.393989 -0.0350819 0)
(0.400486 -0.0338823 0)
(0.406618 -0.0326846 0)
(0.4124 -0.0314956 0)
(0.417846 -0.0303211 0)
(0.422972 -0.0291656 0)
(0.427794 -0.028033 0)
(0.432329 -0.0269262 0)
(0.436592 -0.0258471 0)
(0.4406 -0.0247969 0)
(0.444367 -0.0237763 0)
(0.44791 -0.022785 0)
(0.451243 -0.0218221 0)
(0.454379 -0.0208862 0)
(0.457335 -0.019975 0)
(0.460121 -0.0190858 0)
(0.462753 -0.0182153 0)
(0.465241 -0.0173593 0)
(0.467598 -0.0165133 0)
(0.469836 -0.0156722 0)
(0.471965 -0.0148299 0)
(0.473997 -0.0139801 0)
(0.475941 -0.0131156 0)
(0.477809 -0.0122286 0)
(0.47961 -0.0113107 0)
(0.481354 -0.0103526 0)
(0.483051 -0.00934477 0)
(0.484713 -0.00827665 0)
(0.486349 -0.00713732 0)
(0.48797 -0.00591529 0)
(0.489588 -0.00459865 0)
(0.491216 -0.00317526 0)
(0.492867 -0.00163286 0)
(0.494556 4.06065e-05 0)
(0.496298 0.00185657 0)
(0.49811 0.00382508 0)
(0.500011 0.0059546 0)
(0.502021 0.00825127 0)
(0.50416 0.0107181 0)
(0.506449 0.0133539 0)
(0.508909 0.0161528 0)
(0.51156 0.019103 0)
(0.514418 0.0221861 0)
(0.517496 0.0253771 0)
(0.5208 0.0286442 0)
(0.524328 0.0319497 0)
(0.528068 0.0352519 0)
(0.531998 0.0385078 0)
(0.536075 0.0416802 0)
(0.100066 -0.00458383 0)
(0.10225 -0.00923662 0)
(0.10568 -0.01348 0)
(0.110255 -0.017462 0)
(0.115934 -0.0212411 0)
(0.122634 -0.0248443 0)
(0.130268 -0.0282839 0)
(0.138758 -0.0315586 0)
(0.148025 -0.034656 0)
(0.157984 -0.0375565 0)
(0.168548 -0.040237 0)
(0.179625 -0.042674 0)
(0.191119 -0.0448464 0)
(0.202933 -0.0467374 0)
(0.214968 -0.0483356 0)
(0.227131 -0.049636 0)
(0.23933 -0.0506396 0)
(0.251483 -0.0513531 0)
(0.263513 -0.0517885 0)
(0.275353 -0.0519616 0)
(0.286945 -0.0518913 0)
(0.29824 -0.0515987 0)
(0.309196 -0.0511061 0)
(0.319783 -0.0504361 0)
(0.329975 -0.0496114 0)
(0.339756 -0.0486538 0)
(0.349114 -0.0475844 0)
(0.358042 -0.0464226 0)
(0.366541 -0.0451867 0)
(0.374612 -0.0438932 0)
(0.382263 -0.0425572 0)
(0.389501 -0.0411922 0)
(0.396337 -0.03981 0)
(0.402786 -0.0384211 0)
(0.40886 -0.0370345 0)
(0.414574 -0.0356577 0)
(0.419946 -0.0342974 0)
(0.42499 -0.0329586 0)
(0.429724 -0.0316456 0)
(0.434164 -0.0303616 0)
(0.438326 -0.0291088 0)
(0.442227 -0.0278885 0)
(0.445882 -0.0267013 0)
(0.449307 -0.0255469 0)
(0.452517 -0.0244243 0)
(0.455526 -0.0233317 0)
(0.458349 -0.0222669 0)
(0.461 -0.0212268 0)
(0.463491 -0.0202076 0)
(0.465836 -0.0192051 0)
(0.468046 -0.0182143 0)
(0.470133 -0.0172297 0)
(0.472109 -0.0162453 0)
(0.473986 -0.0152542 0)
(0.475773 -0.0142492 0)
(0.477482 -0.0132223 0)
(0.479124 -0.0121652 0)
(0.480709 -0.011069 0)
(0.482247 -0.00992424 0)
(0.483751 -0.00872126 0)
(0.485232 -0.00744999 0)
(0.4867 -0.00610023 0)
(0.488168 -0.00466171 0)
(0.48965 -0.00312439 0)
(0.491158 -0.0014786 0)
(0.492707 0.000284704 0)
(0.494311 0.00217331 0)
(0.495987 0.00419332 0)
(0.49775 0.00634889 0)
(0.499616 0.00864167 0)
(0.501602 0.0110703 0)
(0.503723 0.0136298 0)
(0.505992 0.0163113 0)
(0.508421 0.0191017 0)
(0.511018 0.0219834 0)
(0.513787 0.0249346 0)
(0.516727 0.0279303 0)
(0.519829 0.0309422 0)
(0.523079 0.0339414 0)
(0.526455 0.0368995 0)
(0.529924 0.0397942 0)
(0.100004 -0.0051163 0)
(0.102216 -0.0103576 0)
(0.105653 -0.0151567 0)
(0.11023 -0.019672 0)
(0.115929 -0.0239672 0)
(0.12267 -0.0280697 0)
(0.13037 -0.0319914 0)
(0.138951 -0.0357294 0)
(0.148334 -0.0392682 0)
(0.158436 -0.0425841 0)
(0.169166 -0.0456492 0)
(0.18043 -0.0484356 0)
(0.192126 -0.0509179 0)
(0.204152 -0.0530759 0)
(0.216405 -0.0548962 0)
(0.228785 -0.0563726 0)
(0.241197 -0.0575064 0)
(0.253552 -0.0583059 0)
(0.265771 -0.0587849 0)
(0.277784 -0.0589624 0)
(0.28953 -0.0588605 0)
(0.30096 -0.0585038 0)
(0.312032 -0.0579185 0)
(0.322715 -0.0571308 0)
(0.332983 -0.0561669 0)
(0.34282 -0.0550522 0)
(0.352216 -0.0538107 0)
(0.361166 -0.0524648 0)
(0.36967 -0.0510353 0)
(0.377732 -0.0495412 0)
(0.385358 -0.0479995 0)
(0.39256 -0.0464254 0)
(0.399348 -0.0448325 0)
(0.405736 -0.0432324 0)
(0.411741 -0.0416352 0)
(0.417377 -0.0400495 0)
(0.422661 -0.0384825 0)
(0.42761 -0.0369401 0)
(0.432242 -0.0354267 0)
(0.436572 -0.033946 0)
(0.440619 -0.0325002 0)
(0.444398 -0.031091 0)
(0.447926 -0.0297188 0)
(0.451219 -0.0283833 0)
(0.454293 -0.0270833 0)
(0.457161 -0.025817 0)
(0.459839 -0.0245818 0)
(0.462341 -0.0233745 0)
(0.46468 -0.022191 0)
(0.466869 -0.0210269 0)
(0.468921 -0.0198769 0)
(0.470847 -0.0187354 0)
(0.472661 -0.0175961 0)
(0.474373 -0.016452 0)
(0.475994 -0.015296 0)
(0.477537 -0.0141202 0)
(0.479013 -0.0129166 0)
(0.480431 -0.0116766 0)
(0.481805 -0.0103915 0)
(0.483145 -0.00905252 0)
(0.484463 -0.00765067 0)
(0.485771 -0.00617719 0)
(0.487081 -0.00462361 0)
(0.488405 -0.00298192 0)
(0.489758 -0.0012449 0)
(0.49115 0.00059381 0)
(0.492598 0.00253908 0)
(0.494113 0.004594 0)
(0.495709 0.00675967 0)
(0.497398 0.00903492 0)
(0.499193 0.011416 0)
(0.501103 0.0138963 0)
(0.503138 0.0164664 0)
(0.505301 0.0191138 0)
(0.507598 0.0218236 0)
(0.510025 0.0245781 0)
(0.512579 0.0273583 0)
(0.515249 0.0301439 0)
(0.518021 0.032915 0)
(0.520876 0.0356528 0)
(0.523789 0.0383445 0)
(0.0999355 -0.0056848 0)
(0.102188 -0.0115555 0)
(0.105646 -0.0169534 0)
(0.110243 -0.0220465 0)
(0.115981 -0.0269036 0)
(0.122788 -0.0315525 0)
(0.130583 -0.0360039 0)
(0.139288 -0.0402527 0)
(0.148828 -0.0442797 0)
(0.159117 -0.0480557 0)
(0.170063 -0.0515472 0)
(0.181565 -0.0547201 0)
(0.193518 -0.0575441 0)
(0.205812 -0.0599949 0)
(0.218336 -0.0620565 0)
(0.230984 -0.0637216 0)
(0.243654 -0.0649922 0)
(0.256253 -0.065878 0)
(0.268698 -0.0663958 0)
(0.280915 -0.066568 0)
(0.292842 -0.0664208 0)
(0.304428 -0.0659832 0)
(0.315632 -0.0652854 0)
(0.32642 -0.0643581 0)
(0.336771 -0.0632316 0)
(0.346669 -0.0619351 0)
(0.356103 -0.0604959 0)
(0.365071 -0.0589399 0)
(0.373574 -0.0572907 0)
(0.381618 -0.0555696 0)
(0.389211 -0.0537961 0)
(0.396364 -0.0519872 0)
(0.40309 -0.050158 0)
(0.409405 -0.0483216 0)
(0.415326 -0.0464893 0)
(0.420867 -0.0446707 0)
(0.426048 -0.0428735 0)
(0.430886 -0.0411044 0)
(0.435398 -0.0393682 0)
(0.439602 -0.0376688 0)
(0.443517 -0.0360089 0)
(0.447158 -0.0343899 0)
(0.450544 -0.0328125 0)
(0.453689 -0.0312762 0)
(0.45661 -0.0297797 0)
(0.459323 -0.0283212 0)
(0.461841 -0.0268978 0)
(0.46418 -0.0255061 0)
(0.466354 -0.0241418 0)
(0.468375 -0.0228004 0)
(0.470256 -0.0214764 0)
(0.472011 -0.020164 0)
(0.473651 -0.0188569 0)
(0.475189 -0.0175483 0)
(0.476636 -0.0162311 0)
(0.478005 -0.0148978 0)
(0.479305 -0.0135407 0)
(0.480551 -0.0121519 0)
(0.481751 -0.0107234 0)
(0.482919 -0.00924751 0)
(0.484066 -0.0077164 0)
(0.485204 -0.00612277 0)
(0.486345 -0.0044598 0)
(0.4875 -0.00272137 0)
(0.488681 -0.000902293 0)
(0.489901 0.00100175 0)
(0.49117 0.00299335 0)
(0.492501 0.00507354 0)
(0.493903 0.00724163 0)
(0.495386 0.00949496 0)
(0.496958 0.0118289 0)
(0.498626 0.0142366 0)
(0.500394 0.0167095 0)
(0.502264 0.0192369 0)
(0.504236 0.0218066 0)
(0.506306 0.0244053 0)
(0.508468 0.0270189 0)
(0.510713 0.0296332 0)
(0.513027 0.0322344 0)
(0.515397 0.0348104 0)
(0.5178 0.0373541 0)
(0.0998583 -0.00629459 0)
(0.102165 -0.0128411 0)
(0.105664 -0.0188862 0)
(0.110299 -0.0246073 0)
(0.116099 -0.0300785 0)
(0.123002 -0.0353277 0)
(0.130926 -0.0403641 0)
(0.1398 -0.0451795 0)
(0.149545 -0.0497494 0)
(0.160077 -0.0540381 0)
(0.171299 -0.0580043 0)
(0.183104 -0.0616067 0)
(0.195378 -0.0648083 0)
(0.208003 -0.0675801 0)
(0.22086 -0.0699029 0)
(0.233832 -0.0717686 0)
(0.246812 -0.0731799 0)
(0.2597 -0.0741491 0)
(0.272408 -0.0746964 0)
(0.28486 -0.0748487 0)
(0.296992 -0.0746371 0)
(0.308753 -0.0740957 0)
(0.320099 -0.0732599 0)
(0.331002 -0.0721654 0)
(0.341437 -0.0708471 0)
(0.351393 -0.0693384 0)
(0.36086 -0.0676709 0)
(0.369838 -0.0658737 0)
(0.378329 -0.0639736 0)
(0.386342 -0.0619949 0)
(0.393886 -0.059959 0)
(0.400974 -0.0578854 0)
(0.407622 -0.0557906 0)
(0.413846 -0.0536894 0)
(0.419662 -0.0515942 0)
(0.42509 -0.0495153 0)
(0.430148 -0.0474617 0)
(0.434855 -0.0454401 0)
(0.439228 -0.0434563 0)
(0.443288 -0.0415141 0)
(0.447051 -0.0396165 0)
(0.450536 -0.0377651 0)
(0.45376 -0.0359604 0)
(0.45674 -0.034202 0)
(0.459492 -0.0324887 0)
(0.462032 -0.0308182 0)
(0.464375 -0.0291876 0)
(0.466536 -0.0275933 0)
(0.46853 -0.0260311 0)
(0.470369 -0.024496 0)
(0.472068 -0.0229827 0)
(0.473639 -0.0214854 0)
(0.475095 -0.0199977 0)
(0.476449 -0.0185132 0)
(0.477712 -0.0170248 0)
(0.478896 -0.0155256 0)
(0.480014 -0.0140083 0)
(0.481076 -0.0124658 0)
(0.482095 -0.010891 0)
(0.483082 -0.00927699 0)
(0.484048 -0.00761725 0)
(0.485005 -0.00590579 0)
(0.485963 -0.00413722 0)
(0.486935 -0.00230697 0)
(0.48793 -0.000411384 0)
(0.488959 0.00155253 0)
(0.490031 0.0035857 0)
(0.491156 0.005688 0)
(0.492341 0.00785786 0)
(0.493594 0.0100922 0)
(0.494919 0.0123864 0)
(0.496321 0.0147344 0)
(0.497802 0.0171289 0)
(0.499362 0.0195614 0)
(0.500999 0.0220227 0)
(0.502709 0.0245027 0)
(0.504484 0.0269915 0)
(0.506318 0.0294791 0)
(0.508199 0.0319563 0)
(0.510117 0.0344152 0)
(0.512054 0.0368525 0)
(0.0997711 -0.00695184 0)
(0.102148 -0.0142273 0)
(0.105707 -0.0209746 0)