/*--------------------------------*- C++ -*----------------------------------*\
  =========                 |
  \\      /  F ield         | OpenFOAM: The Open Source CFD Toolbox
   \\    /   O peration     | Website:  https://openfoam.org
    \\  /    A nd           | Version:  7
     \\/     M anipulation  |
\*---------------------------------------------------------------------------*/
FoamFile
{
    version     2.0;
    format      ascii;
    class       surfaceScalarField;
    location    "9.42";
    object      phi;
}
// * * * * * * * * * * * * * * * * * * * * * * * * * * * * * * * * * * * * * //

dimensions      [1 0 -1 0 0 0 0];

internalField   nonuniform List<scalar> 
23692
(
1.19557e-05
-3.2132e-07
1.24974e-05
-5.4155e-07
1.32195e-05
-7.22014e-07
1.40919e-05
-8.72137e-07
1.50935e-05
-1.0013e-06
1.62104e-05
-1.11657e-06
1.74343e-05
-1.22345e-06
1.87608e-05
-1.32611e-06
2.01885e-05
-1.42718e-06
2.17167e-05
-1.52767e-06
2.33444e-05
-1.62708e-06
2.50686e-05
-1.72356e-06
2.68836e-05
-1.81441e-06
2.87808e-05
-1.89653e-06
3.07484e-05
-1.96691e-06
3.27721e-05
-2.02303e-06
3.4836e-05
-2.06311e-06
3.69229e-05
-2.08621e-06
3.90159e-05
-2.09221e-06
4.10983e-05
-2.0817e-06
4.31549e-05
-2.05585e-06
4.51719e-05
-2.0162e-06
4.71372e-05
-1.96452e-06
4.90407e-05
-1.90269e-06
5.0874e-05
-1.83257e-06
5.26307e-05
-1.75592e-06
5.43058e-05
-1.67437e-06
5.5896e-05
-1.5894e-06
5.7399e-05
-1.50228e-06
5.88139e-05
-1.41412e-06
6.01405e-05
-1.32586e-06
6.13795e-05
-1.23827e-06
6.25322e-05
-1.15199e-06
6.36005e-05
-1.06754e-06
6.45865e-05
-9.85305e-07
6.54928e-05
-9.05607e-07
6.63222e-05
-8.28672e-07
6.70775e-05
-7.54662e-07
6.77618e-05
-6.83684e-07
6.83783e-05
-6.15801e-07
6.89299e-05
-5.51035e-07
6.94199e-05
-4.89379e-07
6.98513e-05
-4.30801e-07
7.02271e-05
-3.75245e-07
7.05503e-05
-3.2264e-07
7.08237e-05
-2.72901e-07
7.10502e-05
-2.25928e-07
7.12323e-05
-1.81611e-07
7.13725e-05
-1.39827e-07
7.14734e-05
-1.00443e-07
7.15371e-05
-6.33151e-08
7.15658e-05
-2.82829e-08
7.15613e-05
4.81071e-09
7.15255e-05
3.60968e-08
7.146e-05
6.5701e-08
7.13665e-05
9.37858e-08
7.12461e-05
1.2054e-07
7.11001e-05
1.46171e-07
7.09294e-05
1.70904e-07
7.07345e-05
1.94985e-07
7.05158e-05
2.18692e-07
7.02735e-05
2.42335e-07
7.00072e-05
2.66267e-07
6.97162e-05
2.909e-07
6.93994e-05
3.16715e-07
6.9055e-05
3.44289e-07
6.86805e-05
3.7433e-07
6.82726e-05
4.07719e-07
6.78267e-05
4.45589e-07
6.7337e-05
4.89436e-07
6.67954e-05
5.41297e-07
6.61911e-05
6.04046e-07
6.55088e-05
6.81898e-07
6.47271e-05
7.81304e-07
6.38142e-05
9.126e-07
6.27206e-05
1.09317e-06
6.13664e-05
1.35375e-06
5.9614e-05
1.75205e-06
5.72056e-05
2.408e-06
5.35822e-05
3.62299e-06
6.73211e-06
4.68497e-05
1.27811e-05
-6.54366e-07
1.33563e-05
-1.11668e-06
1.41256e-05
-1.49112e-06
1.50558e-05
-1.80202e-06
1.61245e-05
-2.06971e-06
1.73169e-05
-2.30859e-06
1.8624e-05
-2.53011e-06
2.00413e-05
-2.74295e-06
2.15673e-05
-2.95261e-06
2.32014e-05
-3.16124e-06
2.49427e-05
-3.36778e-06
2.67882e-05
-3.56841e-06
2.8732e-05
-3.75749e-06
3.07647e-05
-3.92853e-06
3.28738e-05
-4.07525e-06
3.50439e-05
-4.19236e-06
3.72577e-05
-4.27613e-06
3.94968e-05
-4.32458e-06
4.17429e-05
-4.33744e-06
4.39779e-05
-4.31596e-06
4.61854e-05
-4.26253e-06
4.83504e-05
-4.18039e-06
5.046e-05
-4.07323e-06
5.25031e-05
-3.94496e-06
5.44708e-05
-3.79945e-06
5.63561e-05
-3.64038e-06
5.81537e-05
-3.47115e-06
5.98599e-05
-3.29481e-06
6.14725e-05
-3.11403e-06
6.29903e-05
-2.93111e-06
6.44132e-05
-2.74798e-06
6.5742e-05
-2.56627e-06
6.69781e-05
-2.3873e-06
6.81234e-05
-2.21211e-06
6.91804e-05
-2.04155e-06
7.01518e-05
-1.87626e-06
7.10406e-05
-1.7167e-06
7.18499e-05
-1.56322e-06
7.25829e-05
-1.41603e-06
7.32431e-05
-1.27526e-06
7.38337e-05
-1.14096e-06
7.4358e-05
-1.0131e-06
7.48195e-05
-8.91621e-07
7.52213e-05
-7.76404e-07
7.55665e-05
-6.673e-07
7.58583e-05
-5.64128e-07
7.60996e-05
-4.66682e-07
7.62932e-05
-3.7473e-07
7.64419e-05
-2.88019e-07
7.65482e-05
-2.06271e-07
7.66145e-05
-1.29187e-07
7.6643e-05
-5.64359e-08
7.66359e-05
1.23012e-08
7.6595e-05
7.72983e-08
7.65221e-05
1.3883e-07
7.64189e-05
1.97233e-07
7.62868e-05
2.52899e-07
7.61269e-05
3.06251e-07
7.59402e-05
3.57752e-07
7.57273e-05
4.0791e-07
7.54888e-05
4.57287e-07
7.52246e-05
5.06515e-07
7.49346e-05
5.56313e-07
7.46179e-05
6.07506e-07
7.42734e-05
6.61062e-07
7.38994e-05
7.18133e-07
7.34935e-05
7.80114e-07
7.30522e-05
8.48736e-07
7.25714e-05
9.26194e-07
7.20452e-05
1.01534e-06
7.14662e-05
1.11999e-06
7.08245e-05
1.24541e-06
7.01069e-05
1.39906e-06
6.92959e-05
1.59192e-06
6.83675e-05
1.84064e-06
6.72889e-05
2.17128e-06
6.60165e-05
2.62577e-06
6.4495e-05
3.27309e-06
6.2671e-05
4.23162e-06
6.05838e-05
5.70973e-06
7.99813e-06
5.93173e-05
1.36592e-05
-9.952e-07
1.42651e-05
-1.7225e-06
1.50794e-05
-2.30524e-06
1.60671e-05
-2.78938e-06
1.72038e-05
-3.2061e-06
1.84735e-05
-3.57792e-06
1.98667e-05
-3.92281e-06
2.13787e-05
-4.2544e-06
2.3008e-05
-4.58137e-06
2.47545e-05
-4.90715e-06
2.66175e-05
-5.23011e-06
2.85941e-05
-5.5443e-06
3.06781e-05
-5.8408e-06
3.28597e-05
-6.10937e-06
3.51253e-05
-6.34005e-06
3.74583e-05
-6.52448e-06
3.98397e-05
-6.65671e-06
4.22495e-05
-6.73358e-06
4.46676e-05
-6.75465e-06
4.70744e-05
-6.72186e-06
4.94517e-05
-6.63899e-06
5.17833e-05
-6.51113e-06
5.40551e-05
-6.3441e-06
5.6255e-05
-6.14404e-06
5.83735e-05
-5.91703e-06
6.04029e-05
-5.66885e-06
6.23374e-05
-5.40483e-06
6.41732e-05
-5.12975e-06
6.59078e-05
-4.84777e-06
6.75401e-05
-4.56249e-06
6.90699e-05
-4.27695e-06
7.04981e-05
-3.99366e-06
7.18264e-05
-3.71468e-06
7.30567e-05
-3.44164e-06
7.41918e-05
-3.17586e-06
7.52347e-05
-2.9183e-06
7.61885e-05
-2.66972e-06
7.70566e-05
-2.43062e-06
7.78427e-05
-2.20134e-06
7.85502e-05
-1.98206e-06
7.91829e-05
-1.77287e-06
7.97442e-05
-1.57371e-06
8.02377e-05
-1.38449e-06
8.0667e-05
-1.20501e-06
8.10353e-05
-1.03504e-06
8.13461e-05
-8.74288e-07
8.16024e-05
-7.22434e-07
8.18074e-05
-5.79113e-07
8.19638e-05
-4.43928e-07
8.20745e-05
-3.16448e-07
8.21419e-05
-1.96203e-07
8.21686e-05
-8.26819e-08
8.21567e-05
2.46003e-08
8.21082e-05
1.26072e-07
8.20252e-05
2.2218e-07
8.19092e-05
3.13457e-07
8.17619e-05
4.00506e-07
8.15843e-05
4.83979e-07
8.13776e-05
5.64585e-07
8.11425e-05
6.43095e-07
8.08795e-05
7.20365e-07
8.05887e-05
7.97345e-07
8.02699e-05
8.7511e-07
7.99224e-05
9.54887e-07
7.95453e-05
1.0381e-06
7.91368e-05
1.12642e-06
7.86949e-05
1.22186e-06
7.82165e-05
1.32687e-06
7.76979e-05
1.44449e-06
7.71344e-05
1.57858e-06
7.65199e-05
1.73416e-06
7.5847e-05
1.91788e-06
7.5107e-05
2.13876e-06
7.42893e-05
2.40919e-06
7.33829e-05
2.74656e-06
7.23784e-05
3.17532e-06
7.1274e-05
3.72974e-06
7.009e-05
4.4566e-06
6.89053e-05
5.41588e-06
6.79468e-05
6.66774e-06
8.20028e-06
6.77442e-05
1.45954e-05
-1.34141e-06
1.52289e-05
-2.35579e-06
1.60863e-05
-3.16245e-06
1.71306e-05
-3.83346e-06
1.83358e-05
-4.41094e-06
1.96845e-05
-4.92614e-06
2.11664e-05
-5.40426e-06
2.2777e-05
-5.86446e-06
2.45153e-05
-6.31897e-06
2.63815e-05
-6.77274e-06
2.83756e-05
-7.22354e-06
3.04951e-05
-7.66302e-06
3.27337e-05
-8.07858e-06
3.50808e-05
-8.45568e-06
3.75218e-05
-8.78015e-06
4.00382e-05
-9.04006e-06
4.26093e-05
-9.2269e-06
4.52128e-05
-9.33616e-06
4.78263e-05
-9.36721e-06
5.04281e-05
-9.32278e-06
5.29983e-05
-9.20823e-06
5.55188e-05
-9.03074e-06
5.79742e-05
-8.79852e-06
6.03513e-05
-8.52022e-06
6.26396e-05
-8.20439e-06
6.48309e-05
-7.85915e-06
6.69189e-05
-7.49195e-06
6.88996e-05
-7.10945e-06
7.07703e-05
-6.71749e-06
7.25298e-05
-6.32107e-06
7.41781e-05
-5.9244e-06
7.57163e-05
-5.53097e-06
7.71462e-05
-5.14362e-06
7.84701e-05
-4.76464e-06
7.96909e-05
-4.39579e-06
8.08119e-05
-4.03845e-06
8.18366e-05
-3.69361e-06
8.27688e-05
-3.36198e-06
8.36123e-05
-3.04401e-06
8.4371e-05
-2.73995e-06
8.50487e-05
-2.44988e-06
8.56495e-05
-2.17375e-06
8.61771e-05
-1.91138e-06
8.66353e-05
-1.66251e-06
8.70278e-05
-1.42681e-06
8.7358e-05
-1.20386e-06
8.76294e-05
-9.93223e-07
8.78453e-05
-7.94377e-07
8.80087e-05
-6.06774e-07
8.81225e-05
-4.29812e-07
8.81897e-05
-2.62843e-07
8.82126e-05
-1.05164e-07
8.81937e-05
4.38817e-08
8.81353e-05
1.84888e-07
8.80393e-05
3.18501e-07
8.79076e-05
4.45466e-07
8.77417e-05
5.6661e-07
8.75431e-05
6.8282e-07
8.73128e-05
7.95052e-07
8.70516e-05
9.04343e-07
8.67602e-05
1.01183e-06
8.64388e-05
1.11876e-06
8.60874e-05
1.22654e-06
8.57054e-05
1.33676e-06
8.52922e-05
1.45123e-06
8.48464e-05
1.57205e-06
8.43664e-05
1.70168e-06
8.38499e-05
1.84307e-06
8.32943e-05
1.99977e-06
8.26964e-05
2.17615e-06
8.20526e-05
2.37764e-06
8.1359e-05
2.61108e-06
8.06122e-05
2.88513e-06
7.98102e-05
3.21079e-06
7.89544e-05
3.60191e-06
7.80537e-05
4.07549e-06
7.71317e-05
4.65129e-06
7.62381e-05
5.34967e-06
7.54677e-05
6.18579e-06
7.49792e-05
7.15579e-06
8.20479e-06
7.49742e-05
1.55952e-05
-1.69176e-06
1.62536e-05
-3.01399e-06
1.71523e-05
-4.06093e-06
1.82525e-05
-4.93342e-06
1.95265e-05
-5.68451e-06
2.09556e-05
-6.35476e-06
2.25292e-05
-6.97733e-06
2.42429e-05
-7.57758e-06
2.60965e-05
-8.17188e-06
2.80914e-05
-8.76694e-06
3.02285e-05
-9.35992e-06
3.2506e-05
-9.93968e-06
3.49175e-05
-1.04893e-05
3.74518e-05
-1.09891e-05
4.00926e-05
-1.142e-05
4.28192e-05
-1.17657e-05
4.56082e-05
-1.20149e-05
4.84343e-05
-1.21614e-05
5.12724e-05
-1.22043e-05
5.40981e-05
-1.21475e-05
5.6889e-05
-1.19981e-05
5.96251e-05
-1.17658e-05
6.22892e-05
-1.14616e-05
6.4867e-05
-1.1097e-05
6.73469e-05
-1.06833e-05
6.97201e-05
-1.02313e-05
7.19801e-05
-9.75086e-06
7.41223e-05
-9.25066e-06
7.61441e-05
-8.73836e-06
7.80446e-05
-8.22051e-06
7.98238e-05
-7.7026e-06
8.14829e-05
-7.18916e-06
8.30242e-05
-6.6839e-06
8.44502e-05
-6.18973e-06
8.57643e-05
-5.70897e-06
8.69702e-05
-5.24335e-06
8.80716e-05
-4.79414e-06
8.90727e-05
-4.36225e-06
8.99778e-05
-3.94823e-06
9.07911e-05
-3.55238e-06
9.15168e-05
-3.1748e-06
9.21593e-05
-2.81538e-06
9.27226e-05
-2.47389e-06
9.32108e-05
-2.14997e-06
9.36279e-05
-1.84317e-06
9.39776e-05
-1.55294e-06
9.42638e-05
-1.27869e-06
9.44898e-05
-1.01975e-06
9.4659e-05
-7.7539e-07
9.47746e-05
-5.44833e-07
9.48395e-05
-3.27239e-07
9.48565e-05
-1.21704e-07
9.48282e-05
7.26071e-08
9.4757e-05
2.56467e-07
9.46452e-05
4.30746e-07
9.44945e-05
5.96421e-07
9.43068e-05
7.5455e-07
9.40836e-05
9.06254e-07
9.38261e-05
1.05273e-06
9.35353e-05
1.19527e-06
9.32119e-05
1.33526e-06
9.28565e-05
1.47423e-06
9.24691e-05
1.61387e-06
9.20498e-05
1.75603e-06
9.15981e-05
1.90282e-06
9.11133e-05
2.05662e-06
9.05946e-05
2.22015e-06
9.00409e-05
2.39657e-06
8.94508e-05
2.58953e-06
8.88233e-05
2.80334e-06
8.81575e-05
3.04308e-06
8.74534e-05
3.31468e-06
8.6713e-05
3.6251e-06
8.59411e-05
3.98223e-06
8.51478e-05
4.39472e-06
8.43516e-05
4.87121e-06
8.35834e-05
5.4189e-06
8.28919e-05
6.04069e-06
8.23466e-05
6.73054e-06
8.20356e-05
7.46633e-06
8.19882e-06
8.2041e-05
1.6664e-05
-2.04605e-06
1.73456e-05
-3.69538e-06
1.82842e-05
-4.99937e-06
1.94398e-05
-6.08864e-06
2.0783e-05
-7.02731e-06
2.22943e-05
-7.86555e-06
2.39629e-05
-8.64538e-06
2.57852e-05
-9.39923e-06
2.77623e-05
-1.01483e-05
2.98976e-05
-1.09014e-05
3.21934e-05
-1.1655e-05
3.46491e-05
-1.23945e-05
3.72583e-05
-1.30976e-05
4.00086e-05
-1.37385e-05
4.28815e-05
-1.42918e-05
4.5853e-05
-1.47363e-05
4.8896e-05
-1.50568e-05
5.19814e-05
-1.52457e-05
5.50802e-05
-1.5302e-05
5.81646e-05
-1.52308e-05
6.12093e-05
-1.50418e-05
6.4192e-05
-1.47474e-05
6.70936e-05
-1.43621e-05
6.98985e-05
-1.39008e-05
7.25942e-05
-1.33779e-05
7.51711e-05
-1.28072e-05
7.76225e-05
-1.22012e-05
7.99439e-05
-1.15709e-05
8.21326e-05
-1.0926e-05
8.41878e-05
-1.02747e-05
8.61102e-05
-9.62384e-06
8.79011e-05
-8.97908e-06
8.95632e-05
-8.34498e-06
9.10997e-05
-7.72519e-06
9.25143e-05
-7.12252e-06
9.3811e-05
-6.53911e-06
9.49943e-05
-5.97649e-06
9.60688e-05
-5.43574e-06
9.7039e-05
-4.91753e-06
9.79097e-05
-4.42218e-06
9.86856e-05
-3.94977e-06
9.93712e-05
-3.50016e-06
9.99712e-05
-3.073e-06
0.00010049
-2.66784e-06
0.000100932
-2.28407e-06
0.0001013
-1.92102e-06
0.0001016
-1.57791e-06
0.000101835
-1.2539e-06
0.000102008
-9.48074e-07
0.000102124
-6.59468e-07
0.000102184
-3.87037e-07
0.000102193
-1.29674e-07
0.000102152
1.13648e-07
0.000102065
3.439e-07
0.000101934
5.62196e-07
0.000101761
7.6976e-07
0.000101548
9.6788e-07
0.000101296
1.15791e-06
0.000101008
1.34126e-06
0.000100684
1.51947e-06
0.000100325
1.69413e-06
9.99325e-05
1.867e-06
9.95064e-05
2.03997e-06
9.90472e-05
2.21508e-06
9.85553e-05
2.39461e-06
9.80307e-05
2.58103e-06
9.74736e-05
2.7771e-06
9.6884e-05
2.98587e-06
9.62624e-05
3.21076e-06
9.56099e-05
3.4555e-06
9.49284e-05
3.72423e-06
9.42213e-05
4.02136e-06
9.34944e-05
4.35147e-06
9.27572e-05
4.719e-06
9.20237e-05
5.12769e-06
9.13146e-05
5.5797e-06
9.06587e-05
6.07426e-06
9.00931e-05
6.60575e-06
8.96618e-05
7.16133e-06
8.94092e-05
7.71834e-06
8.24239e-06
8.93651e-05
1.78075e-05
-2.40492e-06
1.85114e-05
-4.39918e-06
1.94895e-05
-5.97725e-06
2.07004e-05
-7.29913e-06
2.21139e-05
-8.44033e-06
2.37098e-05
-9.46096e-06
2.54779e-05
-1.04128e-05
2.74159e-05
-1.13366e-05
2.95276e-05
-1.22592e-05
3.1819e-05
-1.3192e-05
3.42952e-05
-1.41303e-05
3.69567e-05
-1.50551e-05
3.97973e-05
-1.59371e-05
4.28023e-05
-1.67425e-05
4.59497e-05
-1.74382e-05
4.9211e-05
-1.79965e-05
5.25537e-05
-1.83984e-05
5.59434e-05
-1.86343e-05
5.93463e-05
-1.87038e-05
6.27304e-05
-1.86138e-05
6.6067e-05
-1.83772e-05
6.93312e-05
-1.80104e-05
7.25019e-05
-1.75317e-05
7.55622e-05
-1.69599e-05
7.84988e-05
-1.63134e-05
8.13019e-05
-1.56091e-05
8.39646e-05
-1.48626e-05
8.64824e-05
-1.40876e-05
8.88532e-05
-1.32957e-05
9.10765e-05
-1.24969e-05
9.31534e-05
-1.16996e-05
9.50861e-05
-1.09106e-05
9.68776e-05
-1.01354e-05
9.85318e-05
-9.37826e-06
0.000100053
-8.64258e-06
0.000101446
-7.93084e-06
0.000102715
-7.24485e-06
0.000103866
-6.58583e-06
0.000104904
-5.95453e-06
0.000105834
-5.35128e-06
0.000106662
-4.77612e-06
0.000107391
-4.22881e-06
0.000108028
-3.70892e-06
0.000108577
-3.21583e-06
0.000109042
-2.74879e-06
0.000109429
-2.30694e-06
0.000109741
-1.88933e-06
0.000109983
-1.49492e-06
0.000110158
-1.1226e-06
0.000110271
-7.71186e-07
0.000110324
-4.3944e-07
0.000110321
-1.26045e-07
0.000110265
1.70234e-07
0.000110158
4.50587e-07
0.000110005
7.16396e-07
0.000109806
9.69134e-07
0.000109563
1.21031e-06
0.00010928
1.4415e-06
0.000108957
1.66431e-06
0.000108596
1.88046e-06
0.000108199
2.09175e-06
0.000107766
2.30006e-06
0.000107298
2.50741e-06
0.000106797
2.71594e-06
0.000106264
2.92791e-06
0.000105699
3.14577e-06
0.000105104
3.37206e-06
0.00010448
3.60953e-06
0.000103829
3.861e-06
0.000103155
4.12938e-06
0.000102461
4.41755e-06
0.000101754
4.72823e-06
0.000101041
5.06368e-06
0.000100335
5.42539e-06
9.96481e-05
5.81355e-06
9.90009e-05
6.22635e-06
9.84154e-05
6.6592e-06
9.79168e-05
7.1038e-06
9.75301e-05
7.54738e-06
9.72755e-05
7.97238e-06
8.35746e-06
9.71598e-05
1.90312e-05
-2.76968e-06
1.97578e-05
-5.12555e-06
2.07757e-05
-6.99493e-06
2.20427e-05
-8.56574e-06
2.35283e-05
-9.92545e-06
2.52124e-05
-1.11445e-05
2.70861e-05
-1.22858e-05
2.915e-05
-1.33997e-05
3.14117e-05
-1.45201e-05
3.38816e-05
-1.5661e-05
3.65684e-05
-1.68161e-05
3.94742e-05
-1.79599e-05
4.25917e-05
-1.90536e-05
4.5903e-05
-2.00527e-05
4.93801e-05
-2.09142e-05
5.29876e-05
-2.16029e-05
5.66857e-05
-2.20953e-05
6.04332e-05
-2.23806e-05
6.41901e-05
-2.24595e-05
6.79198e-05
-2.23422e-05
7.15896e-05
-2.20458e-05
7.51721e-05
-2.15916e-05
7.86444e-05
-2.10027e-05
8.19886e-05
-2.03028e-05
8.51909e-05
-1.95145e-05
8.82416e-05
-1.86585e-05
9.11339e-05
-1.77537e-05
9.3864e-05
-1.68164e-05
9.64304e-05
-1.58608e-05
9.88333e-05
-1.48986e-05
0.000101075
-1.39396e-05
0.000103157
-1.29919e-05
0.000105085
-1.20619e-05
0.000106862
-1.11546e-05
0.000108495
-1.02737e-05
0.000109987
-9.42219e-06
0.000111345
-8.60205e-06
0.000112575
-7.81463e-06
0.000113683
-7.06069e-06
0.000114673
-6.34055e-06
0.000115552
-5.65418e-06
0.000116325
-5.00121e-06
0.000116998
-4.38107e-06
0.000117577
-3.79297e-06
0.000118065
-3.23597e-06
0.000118468
-2.70902e-06
0.00011879
-2.21095e-06
0.000119036
-1.74052e-06
0.000119211
-1.2964e-06
0.000119318
-8.77188e-07
0.00011936
-4.81435e-07
0.000119343
-1.07633e-07
0.000119268
2.4569e-07
0.000119139
5.79975e-07
0.000118959
8.96888e-07
0.00011873
1.19814e-06
0.000118455
1.48545e-06
0.000118137
1.76057e-06
0.000117776
2.0253e-06
0.000117375
2.2815e-06
0.000116936
2.53107e-06
0.00011646
2.77601e-06
0.000115949
3.01835e-06
0.000115405
3.2602e-06
0.000114829
3.50373e-06
0.000114223
3.75115e-06
0.00011359
4.00471e-06
0.000112933
4.26662e-06
0.000112254
4.539e-06
0.00011156
4.82382e-06
0.000110854
5.12273e-06
0.000110145
5.43691e-06
0.000109441
5.76683e-06
0.000108754
6.11194e-06
0.000108097
6.47036e-06
0.000107484
6.83849e-06
0.000106932
7.21071e-06
0.000106456
7.57907e-06
0.000106069
7.93339e-06
0.00010578
8.26164e-06
8.55141e-06
0.000105585
2.03413e-05
-3.14209e-06
2.10914e-05
-5.87556e-06
2.21506e-05
-8.05378e-06
2.34756e-05
-9.89037e-06
2.50364e-05
-1.14857e-05
2.6814e-05
-1.29215e-05
2.88021e-05
-1.42732e-05
3.10062e-05
-1.5603e-05
3.34401e-05
-1.69531e-05
3.61205e-05
-1.83405e-05
3.90605e-05
-1.97551e-05
4.22635e-05
-2.11618e-05
4.57194e-05
-2.25084e-05
4.94036e-05
-2.37358e-05
5.32795e-05
-2.47888e-05
5.73015e-05
-2.56236e-05
6.142e-05
-2.62126e-05
6.55854e-05
-2.65446e-05
6.97506e-05
-2.66234e-05
7.38738e-05
-2.6464e-05
7.79187e-05
-2.60894e-05
8.18555e-05
-2.5527e-05
8.56602e-05
-2.48061e-05
8.93144e-05
-2.39556e-05
9.28044e-05
-2.30032e-05
9.6121e-05
-2.19737e-05
9.92583e-05
-2.08896e-05
0.000102213
-1.97701e-05
0.000104986
-1.86317e-05
0.000107577
-1.74882e-05
0.000109989
-1.63507e-05
0.000112227
-1.52285e-05
0.000114295
-1.41289e-05
0.000116199
-1.30574e-05
0.000117945
-1.20184e-05
0.000119539
-1.10149e-05
0.000120988
-1.00492e-05
0.000122297
-9.12273e-06
0.000123474
-8.23614e-06
0.000124524
-7.38973e-06
0.000125454
-6.58331e-06
0.00012627
-5.81639e-06
0.000126979
-5.08818e-06
0.000127584
-4.39771e-06
0.000128093
-3.74383e-06
0.00012851
-3.12524e-06
0.000128841
-2.54056e-06
0.000129089
-1.9883e-06
0.000129261
-1.46691e-06
0.000129359
-9.74757e-07
0.000129389
-5.10172e-07
0.000129353
-7.14863e-08
0.000129256
3.43028e-07
0.000129102
7.35133e-07
0.000128892
1.10677e-06
0.000128631
1.45986e-06
0.000128321
1.79631e-06
0.000127963
2.11803e-06
0.000127562
2.42697e-06
0.000127119
2.72507e-06
0.000126636
3.01432e-06
0.000126115
3.2967e-06
0.000125559
3.57421e-06
0.00012497
3.84884e-06
0.000124351
4.12257e-06
0.000123705
4.39731e-06
0.000123035
4.67487e-06
0.000122344
4.95691e-06
0.000121638
5.24485e-06
0.000120922
5.53979e-06
0.000120201
5.84236e-06
0.000119485
6.15263e-06
0.000118782
6.46988e-06
0.000118101
6.7925e-06
0.000117453
7.11775e-06
0.000116849
7.44172e-06
0.0001163
7.75921e-06
0.000115814
8.06389e-06
0.000115398
8.3485e-06
0.000115054
8.60541e-06
8.82784e-06
0.000114777
2.17436e-05
-3.52429e-06
2.25194e-05
-6.65114e-06
2.36221e-05
-9.15616e-06
2.50083e-05
-1.12762e-05
2.6649e-05
-1.31258e-05
2.85277e-05
-1.47995e-05
3.06432e-05
-1.63879e-05
3.30087e-05
-1.79677e-05
3.56474e-05
-1.95908e-05
3.85842e-05
-2.12763e-05
4.18372e-05
-2.30069e-05
4.54089e-05
-2.47324e-05
4.9283e-05
-2.63812e-05
5.34237e-05
-2.78753e-05
5.77809e-05
-2.91447e-05
6.22955e-05
-3.01368e-05
6.69057e-05
-3.08214e-05
7.15519e-05
-3.11894e-05
7.61799e-05
-3.125e-05
8.07428e-05
-3.10255e-05
8.52015e-05
-3.05466e-05
8.95245e-05
-2.98486e-05
9.36876e-05
-2.89677e-05
9.76727e-05
-2.79393e-05
0.000101467
-2.67962e-05
0.000105063
-2.5568e-05
0.000108456
-2.42807e-05
0.000111643
-2.29566e-05
0.000114628
-2.16145e-05
0.000117411
-2.02701e-05
0.000119998
-1.89359e-05
0.000122393
-1.76224e-05
0.000124603
-1.63374e-05
0.000126634
-1.50873e-05
0.000128494
-1.38765e-05
0.000130189
-1.27086e-05
0.000131726
-1.15856e-05
0.000133114
-1.0509e-05
0.000134359
-9.47954e-06
0.000135467
-8.49727e-06
0.000136447
-7.56183e-06
0.000137304
-6.67253e-06
0.000138046
-5.82835e-06
0.000138677
-5.02808e-06
0.000139205
-4.27031e-06
0.000139634
-3.55349e-06
0.00013997
-2.87599e-06
0.000140219
-2.23605e-06
0.000140385
-1.63189e-06
0.000140473
-1.06163e-06
0.000140487
-5.23351e-07
0.000140431
-1.53257e-08
0.00014031
4.64463e-07
0.000140128
9.18264e-07
0.000139887
1.34821e-06
0.000139591
1.75638e-06
0.000139243
2.14486e-06
0.000138846
2.51569e-06
0.000138402
2.8709e-06
0.000137915
3.2125e-06
0.000137387
3.54249e-06
0.000136821
3.8628e-06
0.00013622
4.17534e-06
0.000135586
4.48192e-06
0.000134925
4.78427e-06
0.000134238
5.08396e-06
0.00013353
5.38238e-06
0.000132806
5.68067e-06
0.000132071
5.97965e-06
0.000131331
6.27977e-06
0.000130591
6.58097e-06
0.000129861
6.88264e-06
0.000129147
7.18352e-06
0.000128457
7.48163e-06
0.0001278
7.77423e-06
0.000127183
8.05788e-06
0.000126613
8.32848e-06
0.000126095
8.58147e-06
0.000125631
8.81211e-06
0.00012522
9.01592e-06
9.18949e-06
0.000124857
2.32447e-05
-3.91867e-06
2.40488e-05
-7.45507e-06
2.51985e-05
-1.03055e-05
2.66506e-05
-1.27277e-05
2.8378e-05
-1.48527e-05
3.03692e-05
-1.67899e-05
3.26315e-05
-1.86493e-05
3.519e-05
-2.05253e-05
3.8081e-05
-2.24807e-05
4.13396e-05
-2.45339e-05
4.49874e-05
-2.66535e-05
4.9022e-05
-2.87657e-05
5.3414e-05
-3.07719e-05
5.81103e-05
-3.25703e-05
6.30419e-05
-3.40748e-05
6.81325e-05
-3.5226e-05
7.33065e-05
-3.59939e-05
7.84942e-05
-3.63755e-05
8.36346e-05
-3.63889e-05
8.86771e-05
-3.60664e-05
9.35807e-05
-3.54487e-05
9.83141e-05
-3.45803e-05
0.000102854
-3.35057e-05
0.000107183
-3.2267e-05
0.000111291
-3.09029e-05
0.000115173
-2.94476e-05
0.000118824
-2.79308e-05
0.000122247
-2.63777e-05
0.000125444
-2.48095e-05
0.000128419
-2.32435e-05
0.000131178
-2.16938e-05
0.000133729
-2.01714e-05
0.000136078
-1.8685e-05
0.000138233
-1.72413e-05
0.000140203
-1.58452e-05
0.000141996
-1.44999e-05
0.00014362
-1.32079e-05
0.000145083
-1.19704e-05
0.000146392
-1.07879e-05
0.000147557
-9.66024e-06
0.000148583
-8.58693e-06
0.000149479
-7.56695e-06
0.000150251
-6.59904e-06
0.000150905
-5.68166e-06
0.000151449
-4.81314e-06
0.000151889
-3.99164e-06
0.000152229
-3.21524e-06
0.000152476
-2.48194e-06
0.000152635
-1.78968e-06
0.00015271
-1.13635e-06
0.000152708
-5.19824e-07
0.000152631
6.19307e-08
0.000152485
6.11193e-07
0.000152274
1.13046e-06
0.000152
1.62211e-06
0.000151669
2.08842e-06
0.000151283
2.53158e-06
0.000150845
2.95376e-06
0.000150359
3.35704e-06
0.000149828
3.74346e-06
0.000149256
4.11498e-06
0.000148646
4.47346e-06
0.000148
4.82067e-06
0.000147324
5.15823e-06
0.000146621
5.48761e-06
0.000145894
5.81008e-06
0.00014515
6.12667e-06
0.000144392
6.43811e-06
0.000143627
6.74482e-06
0.000142859
7.04682e-06
0.000142096
7.3437e-06
0.000141344
7.63459e-06
0.000140608
7.91813e-06
0.000139897
8.1925e-06
0.000139215
8.4554e-06
0.000138568
8.7042e-06
0.00013796
8.93601e-06
0.000137393
9.14787e-06
0.000136868
9.33695e-06
0.000136382
9.50086e-06
9.63824e-06
0.000135932
2.48512e-05
-4.32784e-06
2.56874e-05
-8.29095e-06
2.68886e-05
-1.15064e-05
2.8413e-05
-1.42515e-05
3.02372e-05
-1.66762e-05
3.23581e-05
-1.891e-05
3.47965e-05
-2.10868e-05
3.75953e-05
-2.3323e-05
4.08076e-05
-2.56919e-05
4.44791e-05
-2.82042e-05
4.86304e-05
-3.08034e-05
5.32457e-05
-3.33796e-05
5.82737e-05
-3.57984e-05
6.36357e-05
-3.79308e-05
6.92388e-05
-3.96764e-05
7.49873e-05
-4.09729e-05
8.07915e-05
-4.17964e-05
8.65726e-05
-4.2155e-05
9.22649e-05
-4.20795e-05
9.78158e-05
-4.16156e-05
0.000103185
-4.0816e-05
0.000108342
-3.97357e-05
0.000113266
-3.84281e-05
0.000117943
-3.69427e-05
0.000122366
-3.53239e-05
0.000126531
-3.36106e-05
0.000130438
-3.18361e-05
0.00013409
-3.00285e-05
0.000137493
-2.82109e-05
0.000140654
-2.64021e-05
0.000143579
-2.46174e-05
0.000146278
-2.28686e-05
0.000148759
-2.11648e-05
0.000151033
-1.95129e-05
0.000153107
-1.79179e-05
0.000154991
-1.6383e-05
0.000156696
-1.49105e-05
0.000158228
-1.35015e-05
0.000159598
-1.21561e-05
0.000160813
-1.08741e-05
0.000161882
-9.65449e-06
0.000162813
-8.49596e-06
0.000163612
-7.39693e-06
0.000164287
-6.35554e-06
0.000164845
-5.36979e-06
0.000165292
-4.43753e-06
0.000165635
-3.55654e-06
0.000165878
-2.72452e-06
0.000166029
-1.93915e-06
0.000166092
-1.19809e-06
0.000166072
-4.99003e-07
0.000165974
1.60528e-07
0.000165803
7.83056e-07
0.000165563
1.37127e-06
0.000165258
1.92775e-06
0.000164892
2.45493e-06
0.000164469
2.95513e-06
0.000163993
3.43059e-06
0.000163467
3.88344e-06
0.000162895
4.3157e-06
0.000162281
4.72929e-06
0.000161628
5.12598e-06
0.000160942
5.5074e-06
0.000160225
5.87501e-06
0.000159482
6.23005e-06
0.000158719
6.57357e-06
0.000157939
6.90634e-06
0.000157148
7.22884e-06
0.000156351
7.54126e-06
0.000155554
7.84347e-06
0.000154763
8.13496e-06
0.000153982
8.41493e-06
0.000153217
8.68222e-06
0.000152474
8.93543e-06
0.000151756
9.1729e-06
0.000151066
9.39287e-06
0.000150408
9.59355e-06
0.000149782
9.77325e-06
0.000149188
9.93051e-06
0.000148624
1.00643e-05
1.01745e-05
0.000148087
2.65704e-05
-4.75469e-06
2.74431e-05
-9.16338e-06
2.87021e-05
-1.2765e-05
3.03078e-05
-1.58567e-05
3.22439e-05
-1.86116e-05
3.45205e-05
-2.11859e-05
3.71796e-05
-2.37449e-05
4.02883e-05
-2.64306e-05
4.392e-05
-2.93224e-05
4.81273e-05
-3.24102e-05
5.29196e-05
-3.55943e-05
5.82553e-05
-3.87138e-05
6.40493e-05
-4.15908e-05
7.019e-05
-4.40699e-05
7.65571e-05
-4.60418e-05
8.30354e-05
-4.74495e-05
8.95231e-05
-4.82823e-05
9.59352e-05
-4.85653e-05
0.000102204
-4.83466e-05
0.000108278
-4.76876e-05
0.000114119
-4.6655e-05
0.0001197
-4.53152e-05
0.000125005
-4.37309e-05
0.000130023
-4.19589e-05
0.000134751
-4.00494e-05
0.000139188
-3.80458e-05
0.000143338
-3.59845e-05
0.000147207
-3.38962e-05
0.000150804
-3.18057e-05
0.000154137
-2.97331e-05
0.000157216
-2.76945e-05
0.000160051
-2.57021e-05
0.000162654
-2.37654e-05
0.000165034
-2.18912e-05
0.000167202
-2.00845e-05
0.000169169
-1.83484e-05
0.000170945
-1.66848e-05
0.00017254
-1.50945e-05
0.000173963
-1.35773e-05
0.000175223
-1.21326e-05
0.000176329
-1.07589e-05
0.000177289
-9.45465e-06
0.000178111
-8.21782e-06
0.000178803
-7.04619e-06
0.000179372
-5.93737e-06
0.000179825
-4.88889e-06
0.000180168
-3.89818e-06
0.000180407
-2.96266e-06
0.000180549
-2.07972e-06
0.000180599
-1.24676e-06
0.000180562
-4.61225e-07
0.000180444
2.79653e-07
0.000180249
9.78721e-07
0.000179982
1.63887e-06
0.000179648
2.26284e-06
0.00017925
2.85321e-06
0.000178794
3.41239e-06
0.000178282
3.94267e-06
0.00017772
4.44622e-06
0.000177111
4.92505e-06
0.000176459
5.38102e-06
0.00017577
5.81584e-06
0.000175046
6.23104e-06
0.000174293
6.62792e-06
0.000173516
7.00762e-06
0.000172718
7.37103e-06
0.000171906
7.71878e-06
0.000171083
8.05129e-06
0.000170255
8.36868e-06
0.000169428
8.67085e-06
0.000168605
8.95744e-06
0.000167791
9.22786e-06
0.000166992
9.48136e-06
0.00016621
9.71705e-06
0.000165448
9.93394e-06
0.000164709
1.01311e-05
0.000163995
1.03075e-05
0.000163305
1.04626e-05
0.000162639
1.05958e-05
0.000161995
1.0707e-05
1.07967e-05
0.000161372
2.84098e-05
-5.20247e-06
2.93248e-05
-1.00781e-05
3.06499e-05
-1.40897e-05
3.23501e-05
-1.75562e-05
3.44204e-05
-2.06811e-05
3.68927e-05
-2.36573e-05
3.98395e-05
-2.66905e-05
4.33596e-05
-2.99495e-05
4.75458e-05
-3.35072e-05
5.24468e-05
-3.73097e-05
5.80441e-05
-4.11901e-05
6.42536e-05
-4.49216e-05
7.09451e-05
-4.82805e-05
7.7969e-05
-5.10919e-05
8.51778e-05
-5.32487e-05
9.24398e-05
-5.47096e-05
9.96452e-05
-5.54858e-05
0.000106707
-5.5625e-05
0.000113559
-5.51965e-05
0.000120153
-5.42799e-05
0.000126457
-5.29567e-05
0.000132449
-5.13051e-05
0.000138117
-4.93971e-05
0.000143457
-4.72966e-05
0.000148469
-4.50593e-05
0.000153157
-4.27322e-05
0.00015753
-4.03549e-05
0.000161596
-3.796e-05
0.000165366
-3.55737e-05
0.000168852
-3.3217e-05
0.000172066
-3.09064e-05
0.00017502
-2.86544e-05
0.000177727
-2.64704e-05
0.000180199
-2.43611e-05
0.000182447
-2.23311e-05
0.000184484
-2.03833e-05
0.00018632
-1.85191e-05
0.000187966
-1.67389e-05
0.000189433
-1.5042e-05
0.000190729
-1.34272e-05
0.000191865
-1.18929e-05
0.000192849
-1.04368e-05
0.000193689
-9.05642e-06
0.000194393
-7.74924e-06
0.00019497
-6.51244e-06
0.000195426
-5.34314e-06
0.000195767
-4.23845e-06
0.000196001
-3.19543e-06
0.000196134
-2.21121e-06
0.000196171
-1.28291e-06
0.000196119
-4.07717e-07
0.000195982
4.17443e-07
0.000195766
1.19571e-06
0.000195476
1.93018e-06
0.000195116
2.62372e-06
0.000194691
3.27902e-06
0.000194205
3.89859e-06
0.000193664
4.48478e-06
0.000193071
5.03978e-06
0.000192431
5.5656e-06
0.000191748
6.06409e-06
0.000191027
6.5369e-06
0.000190273
6.98549e-06
0.00018949
7.41114e-06
0.000188683
7.81491e-06
0.000187856
8.19765e-06
0.000187015
8.56e-06
0.000186164
8.9024e-06
0.000185307
9.22509e-06
0.00018445
9.52813e-06
0.000183595
9.81141e-06
0.000182748
1.00747e-05
0.000181911
1.03177e-05
0.000181088
1.054e-05
0.00018028
1.07413e-05
0.000179489
1.09212e-05
0.000178716
1.10796e-05
0.000177962
1.12164e-05
0.000177225
1.13318e-05
0.000176506
1.14262e-05
1.15006e-05
0.000175801
3.03776e-05
-5.67497e-06
3.13423e-05
-1.10425e-05
3.27449e-05
-1.54918e-05
3.45586e-05
-1.93693e-05
3.67975e-05
-2.29191e-05
3.95266e-05
-2.63853e-05
4.28608e-05
-3.00235e-05
4.69352e-05
-3.40226e-05
5.1853e-05
-3.84236e-05
5.76385e-05
-4.30937e-05
6.42221e-05
-4.7772e-05
7.14594e-05
-5.21572e-05
7.91677e-05
-5.59869e-05
8.71591e-05
-5.90814e-05
9.52634e-05
-6.13511e-05
0.000103338
-6.27825e-05
0.000111272
-6.3417e-05
0.000118979
-6.33303e-05
0.0001264
-6.26155e-05
0.000133494
-6.13715e-05
0.000140235
-5.96952e-05
0.000146609
-5.76764e-05
0.00015261
-5.53959e-05
0.000158239
-5.29241e-05
0.000163504
-5.03215e-05
0.000168412
-4.76384e-05
0.000172977
-4.49168e-05
0.000177209
-4.21905e-05
0.000181125
-3.94869e-05
0.000184737
-3.68273e-05
0.000188061
-3.42282e-05
0.000191111
-3.17021e-05
0.000193901
-2.9258e-05
0.000196444
-2.69024e-05
0.000198755
-2.46393e-05
0.000200844
-2.2471e-05
0.000202726
-2.03983e-05
0.00020441
-1.8421e-05
0.000205908
-1.65381e-05
0.00020723
-1.47476e-05
0.000208386
-1.30473e-05
0.000209386
-1.14345e-05
0.000210237
-9.90621e-06
0.000210949
-8.45943e-06
0.000211529
-7.0909e-06
0.000211985
-5.79733e-06
0.000212324
-4.57544e-06
0.000212552
-3.42198e-06
0.000212676
-2.33373e-06
0.000212702
-1.30756e-06
0.000212636
-3.40391e-07
0.000212483
5.71165e-07
0.000212249
1.43051e-06
0.00021194
2.24093e-06
0.000211559
3.00541e-06
0.000211112
3.72676e-06
0.000210604
4.40757e-06
0.000210039
5.05027e-06
0.000209422
5.65707e-06
0.000208759
6.23001e-06
0.000208052
6.77096e-06
0.000207308
7.28156e-06
0.00020653
7.7633e-06
0.000205724
8.21745e-06
0.000204894
8.64511e-06
0.000204045