/*--------------------------------*- C++ -*----------------------------------*\
  =========                 |
  \\      /  F ield         | OpenFOAM: The Open Source CFD Toolbox
   \\    /   O peration     | Website:  https://openfoam.org
    \\  /    A nd           | Version:  7
     \\/     M anipulation  |
\*---------------------------------------------------------------------------*/
FoamFile
{
    version     2.0;
    format      ascii;
    class       volScalarField;
    location    "2.7";
    object      p;
}
// * * * * * * * * * * * * * * * * * * * * * * * * * * * * * * * * * * * * * //

dimensions      [0 2 -2 0 0 0 0];

internalField   nonuniform List<scalar> 
2790
(
147.998
147.905
148.173
148.744
149.524
150.482
151.614
152.921
154.398
156.039
157.838
159.789
161.883
164.108
166.448
168.884
171.388
173.927
176.458
178.932
181.29
183.467
185.397
187.018
188.277
189.151
189.587
189.642
189.693
189.906
147.795
147.813
148.105
148.674
149.45
150.404
151.532
152.833
154.302
155.935
157.725
159.666
161.749
163.963
166.292
168.718
171.213
173.746
176.276
178.754
181.122
183.317
185.271
186.919
188.203
189.078
189.474
189.529
189.661
189.946
147.596
147.684
147.996
148.554
149.317
150.258
151.372
152.654
154.102
155.71
157.472
159.382
161.43
163.605
165.894
168.276
170.727
173.218
175.71
178.157
180.506
182.698
184.67
186.36
187.71
188.686
189.279
189.634
189.949
190.248
147.372
147.49
147.814
148.363
149.112
150.037
151.131
152.389
153.808
155.383
157.107
158.972
160.971
163.091
165.32
167.637
170.022
172.445
174.871
177.262
179.568
181.74
183.721
185.46
186.915
188.066
188.934
189.605
190.158
190.677
147.111
147.243
147.576
148.117
148.85
149.754
150.821
152.049
153.431
154.962
156.636
158.446
160.382
162.432
164.584
166.82
169.118
171.452
173.794
176.106
178.351
180.486
182.468
184.258
185.828
187.17
188.3
189.263
190.074
190.82
146.81
146.948
147.283
147.815
148.527
149.405
150.441
151.63
152.968
154.448
156.063
157.806
159.667
161.635
163.696
165.834
168.029
170.258
172.494
174.709
176.872
178.949
180.91
182.731
184.393
185.895
187.241
188.446
189.466
190.384
146.467
146.606
146.938
147.457
148.146
148.994
149.994
151.139
152.425
153.845
155.392
157.058
158.833
160.706
162.663
164.689
166.765
168.871
170.983
173.079
175.134
177.124
179.032
180.842
182.547
184.147
185.641
187.02
188.184
189.231
146.082
146.22
146.544
147.046
147.71
148.524
149.482
150.577
151.805
153.158
154.629
156.209
157.887
159.653
161.494
163.393
165.334
167.298
169.266
171.217
173.134
175.001
176.808
178.55
180.228
181.846
183.401
184.873
186.122
187.273
145.656
145.789
146.103
146.586
147.221
147.997
148.909
149.949
151.113
152.392
153.779
155.263
156.836
158.484
160.195
161.953
163.743
165.546
167.345
169.124
170.867
172.565
174.212
175.812
177.374
178.908
180.416
181.886
183.157
184.395
145.19
145.318
145.618
146.079
146.682
147.417
148.278
149.259
150.353
151.552
152.847
154.228
155.685
157.206
158.775
160.379
162.001
163.623
165.229
166.803
168.331
169.805
171.222
172.59
173.922
175.24
176.56
177.897
179.098
180.402
144.684
144.806
145.091
145.527
146.095
146.786
147.593
148.51
149.529
150.642
151.84
153.111
154.445
155.828
157.245
158.682
160.119
161.54
162.927
164.262
165.529
166.719
167.826
168.853
169.817
170.745
171.675
172.673
173.635
174.953
144.142
144.256
144.525
144.933
145.464
146.108
146.858
147.708
148.648
149.67
150.765
151.92
153.123
154.36
155.616
156.873
158.111
159.312
160.455
161.517
162.478
163.321
164.029
164.594
165.02
165.329
165.571
165.878
166.259
167.432
143.565
143.672
143.921
144.301
144.793
145.388
146.078
146.856
147.714
148.642
149.629
150.663
151.73
152.814
153.9
154.967
155.994
156.958
157.834
158.593
159.206
159.64
159.862
159.837
159.534
158.935
158.059
157.065
156.116
156.619
142.955
143.054
143.284
143.634
144.085
144.628
145.256
145.961
146.734
147.564
148.44
149.348
150.274
151.201
152.11
152.98
153.786
154.5
155.092
155.524
155.754
155.732
155.393
154.661
153.438
151.608
149.044
145.74
141.788
139.748
142.316
142.406
142.616
142.934
143.343
143.833
144.397
145.027
145.713
146.443
147.205
147.986
148.768
149.534
150.262
150.929
151.507
151.964
152.261
152.352
152.179
151.67
150.725
149.211
146.933
143.601
138.757
131.737
121.266
109.027
2.82026
2.78682
2.67538
2.51828
2.34694
2.17605
2.01069
1.8526
1.70246
1.56037
1.42619
1.29973
1.18079
1.0693
0.966109
0.874093
0.79769
0.739664
0.697682
0.667683
0.646584
0.632623
0.621699
0.605314
0.574849
0.524269
0.451228
0.354876
0.23499
0.0952286
2.73546
2.69682
2.59271
2.44816
2.28929
2.129
1.97236
1.82138
1.6769
1.53921
1.40845
1.28468
1.16777
1.05744
0.954301
0.861705
0.785365
0.72931
0.691368
0.664332
0.645002
0.632609
0.623929
0.609661
0.581109
0.530991
0.457465
0.359963
0.23774
0.091924
2.64986
2.60431
2.50464
2.37088
2.22433
2.07507
1.92778
1.78459
1.64641
1.5137
1.38687
1.26633
1.1521
1.04351
0.940706
0.847743
0.772352
0.71906
0.680792
0.650807
0.635847
0.630505
0.628819
0.619309
0.591762
0.541636
0.468382
0.370101
0.245523
0.0929018
2.57652
2.5242
2.42702
2.30123
2.16485
2.02508
1.8861
1.74998
1.61761
1.48952
1.36636
1.249
1.13786
1.03186
0.929293
0.833115
0.755257
0.710184
0.685163
0.659904
0.637991
0.631107
0.63079
0.623183
0.597113
0.546001
0.469548
0.370858
0.244547
0.0905886
2.54007
2.48093
2.38613
2.26512
2.13496
2.00088
1.86691
1.73508
1.60628
1.48103
1.36
1.24429
1.13502
1.03234
0.93548
0.84685
0.771043
0.713284
0.67991
0.660807
0.645471
0.639819
0.638231
0.629008
0.601495
0.549289
0.472075
0.368629
0.240086
0.0855417
2.55931
2.49049
2.39644
2.2749
2.14453
2.01012
1.87596
1.7442
1.61583
1.49139
1.37133
1.25641
1.14746
1.04499
0.949824
0.864421
0.792643
0.737792
0.700217
0.675031
0.658278
0.649531
0.643134
0.629143
0.597936
0.543166
0.46303
0.358959
0.229974
0.0789636
2.63949
2.56112
2.45834
2.32897
2.19016
2.04852
1.90837
1.7719
1.64014
1.51361
1.39263
1.27766
1.16919
1.06751
0.97289
0.887429
0.81574
0.760636
0.720669
0.692114
0.67204
0.658298
0.645474
0.625238
0.589213
0.531373
0.449319
0.343792
0.215685
0.072304
2.775
2.67801
2.55558
2.40878
2.25404
2.09904
1.94843
1.80432
1.66731
1.53752
1.41469
1.29874
1.19002
1.08875
0.9957
0.912532
0.841662
0.785077
0.741951
0.709544
0.685071
0.665514
0.645739
0.618715
0.577266
0.515817
0.431581
0.324834
0.198742
0.0656403
2.93195
2.80608
2.65401
2.48372
2.31104
2.14258
1.98138
1.82942
1.68724
1.55437
1.43036
1.31477
1.2072
1.10762
1.0166
0.935368
0.865389
0.807707
0.761759
0.725545
0.69642
0.670994
0.644427
0.610723
0.563797
0.49856
0.411934
0.303922
0.180721
0.0589816
3.0606
2.90268
2.7273
2.53449
2.3435
2.16297
1.99527
1.83995
1.69615
1.5629
1.43924
1.32464
1.21877
1.12154
1.03315
0.954106
0.885152
0.826797
0.778637
0.739135
0.705765
0.674989
0.642228
0.602316
0.550158
0.481135
0.391892
0.282464
0.162608
0.0524223
3.14968
2.9604
2.75798
2.54808
2.34568
2.1576
1.98598
1.82987
1.68751
1.55696
1.43643
1.32493
1.22228
1.1286
1.04378
0.967605
0.900133
0.841622
0.791935
0.749929
0.713159
0.677952
0.639866
0.594402
0.537385
0.464637
0.372229
0.261388
0.14489
0.046036
3.16212
2.94037
2.71308
2.49117
2.28833
2.10593
1.9418
1.79319
1.65825
1.53494
1.42084
1.31463
1.21676
1.12798
1.04796
0.9756
0.910224
0.852066
0.801513
0.757924
0.718895
0.680456
0.638076
0.587743
0.526162
0.449719
0.35436
0.241519
0.127853
0.039868
3.00807
2.75054
2.534
2.33672
2.16012
2.0029
1.86057
1.72896
1.60806
1.49723
1.3932
1.29425
1.20228
1.11966
1.04594
0.978574
0.915903
0.858416
0.807502
0.763301
0.723378
0.683137
0.63759
0.583024
0.517064
0.436878
0.338434
0.22325
0.111658
0.0339389
2.5856
2.30539
2.17668
2.07182
1.95859
1.85082
1.7473
1.6416
1.53984
1.44653
1.35633
1.26574
1.17967
1.10411
1.03857
0.977722
0.918208
0.861281
0.810186
0.766331
0.727125
0.686758
0.639225
0.580913
0.51053
0.42639
0.324709
0.206967
0.0965632
0.0282364
1.7318
1.44365
1.58253
1.71149
1.69916
1.66335
1.61718
1.54138
1.45776
1.38666
1.31503
1.23252
1.15006
1.08171
1.02705
0.974853
0.918567
0.86129
0.809636
0.767048
0.730518
0.692049
0.643765
0.581965
0.506779
0.418234
0.313226
0.192954
0.0829242
0.0227998
141.637
141.717
141.906
142.191
142.556
142.991
143.489
144.041
144.637
145.264
145.91
146.558
147.192
147.793
148.336
148.795
149.14
149.332
149.327
149.067
148.482
147.474
145.912
143.599
140.239
135.334
127.963
116.209
94.0313
34.1431
140.909
140.98
141.147
141.397
141.716
142.094
142.523
142.995
143.497
144.017
144.542
145.055
145.537
145.968
146.321
146.569
146.676
146.601
146.291
145.683
144.691
143.203
141.059
138.029
133.755
127.652
118.689
105.131
85.6207
57.215
140.139
140.201
140.344
140.558
140.829
141.149
141.508
141.896
142.303
142.714
143.117
143.492
143.82
144.08
144.243
144.28
144.151
143.813
143.208
142.267
140.899
138.982
136.352
132.78
127.941
121.38
112.51
100.698
86.5033
69.9687
139.329
139.38
139.499
139.676
139.899
140.158
140.445
140.75
141.06
141.362
141.64
141.878
142.053
142.143
142.119
141.948
141.592
141.003
140.122
138.878
137.18
134.909
131.915
128.002
122.923
116.387
108.099
97.7319
85.2268
70.1508
138.479
138.519
138.614
138.754
138.928
139.126
139.34
139.56
139.773
139.966
140.122
140.223
140.247
140.171
139.966
139.597
139.026
138.204
137.074
135.566
133.594
131.053
127.813
123.718
118.59
112.228
104.436
94.9719
83.6702
70.739
137.592
137.622
137.692
137.794
137.918
138.056
138.197
138.333
138.45
138.534
138.569
138.537
138.415
138.179
137.801
137.247
136.477
135.446
134.099
132.371
130.185
127.451
124.063
119.903
114.842
108.744
101.49
92.9809
83.2082
72.5855
136.67
136.69
136.735
136.8
136.874
136.951
137.021
137.074
137.096
137.074
136.992
136.831
136.569
136.183
135.643
134.918
133.971
132.757
131.227
129.323
126.979
124.122
120.668
116.533
111.629
105.877
99.2236
91.659
83.2269
74.2628
135.718
135.727
135.748
135.775
135.801
135.818
135.817
135.788
135.719
135.595
135.4
135.116
134.723
134.196
133.508
132.63
131.526
130.157
128.479
126.442
123.992
121.071
117.618
113.575
108.887
103.516
97.4485
90.7044
83.3339
75.6085
134.738
134.737
134.733
134.724
134.702
134.661
134.592
134.484
134.326
134.104
133.802
133.403
132.887
132.232
131.412
130.398
129.161
127.665
125.872
123.741
121.229
118.294
114.891
110.984
106.543
101.555
96.0243
89.9864
83.4945
76.7754
133.734
133.723
133.696
133.651
133.583
133.485
133.35
133.167
132.925
132.61
132.208
131.703
131.075
130.304
129.366
128.237
126.889
125.292
123.415
121.225
118.69
115.778
112.46
108.717
104.534
99.9122
94.8704
89.4475
83.6963
77.8011
132.712
132.691
132.642
132.562
132.449
132.298
132.099
131.845
131.523
131.122
130.628
130.025
129.297
128.423
127.384
126.158
124.721
123.048
121.115
118.895
116.366
113.505
110.297
106.73
102.804
98.5283
93.9261
89.0367
83.9079
78.6877
131.675
131.645
131.574
131.462
131.307
131.104
130.846
130.525
130.129
129.649
129.07
128.38
127.562
126.6
125.476
124.17
122.664
120.938
118.971
116.746
114.246
111.457
108.372
104.988
101.31
97.353
93.1422
88.7137
84.1091
79.4475
130.63
130.592
130.5
130.356
130.161
129.91
129.597
129.214
128.751
128.198
127.544
126.776
125.88
124.843
123.648
122.28
120.723
118.962
116.983
114.771
112.317
109.614
106.659
103.456
100.012
96.3461
92.4817
88.4514
84.2907
80.0958
129.582
129.536
129.425
129.252
129.02
128.724
128.36
127.92
127.395
126.777
126.056
125.22
124.258
123.158
121.907
120.492
118.9
117.122
115.145
112.962
110.567
107.957
105.134
102.104
98.8792
95.4759
91.9172
88.2312
84.4482
80.6458
128.538
128.483
128.355
128.155
127.888
127.552
127.141
126.649
126.07
125.394
124.614
123.72
122.703
121.552
120.257
118.808
117.196
115.413
113.453
111.309
108.98
106.467
103.774
100.909
97.885
94.7177
91.4279
88.0402
84.5797
81.1097
127.503
127.441
127.296
127.072
126.774
126.4
125.947
125.41
124.781
124.056
123.226
122.283
121.22
120.029
118.702
117.231
115.61
113.834
111.898
109.801
107.544
105.128
102.56
99.8495
97.0082
94.0518
90.9985
87.8693
84.6853
81.4982
126.484
126.416
126.256
126.01
125.683
125.276
124.786
124.208
123.537
122.768
121.896
120.913
119.814
118.593
117.243
115.76
114.14
112.379
110.476
108.43
106.245
103.924
101.475
98.9071
96.2317
93.4631
90.6175
87.7126
84.7663
81.8211
125.489
125.415
125.242
124.975
124.623
124.187
123.664
123.051
122.344
121.538
120.63
119.615
118.489
117.245
115.882
114.396
112.783
111.043
109.177
107.186
105.073
102.843
100.505
98.0678
95.5416
92.9397
90.2762
87.5662
84.8248
82.0871
124.524
124.445
124.26
123.975
123.601
123.139
122.588
121.945
121.207
120.371
119.435
118.394
117.247
115.99
114.62
113.136
111.537
109.823
107.996
106.059
104.017
101.874
99.6384
97.3194
94.927
92.4726
89.9686
87.4279
84.8633
82.304
123.596
123.513
123.318
123.018
122.624
122.14
121.565
120.896
120.132
119.272
118.313
117.254
116.092
114.826
113.455
111.979
110.398
108.713
106.927
105.044
103.068
101.006
98.8645
96.6525
94.3793
92.0549
89.6903
87.2965
84.8847
82.4787
122.715
122.627
122.423
122.11
121.699
121.196
120.6
119.91
119.126
118.246
117.27
116.197
115.026
113.757
112.39
110.925
109.364
107.709
105.964
104.132
102.219
100.231
98.1754
96.0593
93.8916
91.6815
89.4383
87.1719
84.8917
82.6177
121.886
121.796
121.583
121.258
120.834
120.315
119.702
118.994
118.193
117.299
116.31
115.228
114.052
112.783
111.423
109.972
108.433
106.808
105.102
103.319
101.465
99.5443
97.5649
95.534
93.4592
91.3488
89.2112
87.0547
84.8877
82.727
121.119
121.025
120.806
120.471
120.035
119.503
118.875
118.154
117.34
116.434
115.437
114.349
113.172
111.906
110.555
109.119
107.602
106.007
104.338
102.6
100.799
98.939
97.0278
95.0718
93.0781
91.0542
89.0076
86.9456
84.8754
82.8113
120.421
120.325
120.1
119.756
119.31
118.766
118.128
117.396
116.572
115.658
114.654
113.564
112.387
111.127
109.786
108.366
106.871
105.304
103.67
101.973
100.219
98.4126
96.561
94.6702
92.7467
90.7971
88.8282
86.8467
84.8589
82.8766
119.802
119.703
119.472
119.121
118.666
118.113
117.466
116.725
115.894
114.974
113.967
112.876
111.702
110.448
109.118
107.713
106.238
104.697
103.094
101.433
99.7203
97.9611
96.161
94.3259
92.462
90.5753
88.672
86.758
84.8391
82.9252
119.269
119.168
118.931
118.573
118.11
117.551
116.897
116.15
115.313
114.389
113.381
112.29
111.12
109.873
108.553
107.163
105.706
104.188
102.612
100.983
99.3055
97.5859
95.8291
94.0409
92.2267
90.3923
88.5434
86.6853
84.8234
82.966
118.834
118.729
118.485
118.119
117.65
117.084
116.424
115.673
114.832
113.906
112.897
111.808
110.642
109.401
108.091
106.713
105.273
103.774
102.22
100.617
98.9693
97.282
95.5604
93.8098
92.0355
90.2429
88.4372
86.6233
84.8062
82.9928
118.508
118.397
118.144
117.771
117.297
116.727
116.063
115.308
114.465
113.537
112.528
111.441
110.278
109.044
107.741
106.374
104.947
103.463
101.928
100.346
98.721
97.0591
95.365
93.6438
91.9006
90.1404
88.3682
86.5887
84.8068
83.0285
118.306
118.171
117.901
117.522
117.046
116.473
115.807
115.05
114.206
113.278
112.27
111.184
110.025
108.796
107.499
106.14
104.722
103.249
101.726
100.158
98.549
96.9042
95.2285
93.5268
91.8041
90.0652
88.3148
86.5575
84.7977
83.0405
118.287
118.088
117.79
117.405
116.926
116.35
115.68
114.922
114.077
113.149
112.142
111.058
109.901
108.675
107.384
106.03
104.618
103.153
101.639
100.08
98.4817
96.848
95.1841
93.4948
91.7849
90.0592
88.3222
86.5785
84.8324
83.0881
-50.0453
-29.899
-10.3922
36.9758
29.7712
18.2178
52.6227
40.6736
29.6421
53.9611
43.6022
35.6319
58.2485
50.0101
43.303
62.6012
55.7302
49.8728
65.8363
59.9812
54.9541
68.3961
63.3893
59.0948
70.5527
66.233
62.5337
72.3721
68.6018
65.3808
73.9008
70.5759
67.7425
75.1878
72.2285
69.7118
76.2733
73.6169
71.3612
77.1891
74.7861
72.7478
77.9615
75.7724
73.9166
78.6122
76.6047
74.9036
79.1591
77.3071
75.7375
79.6174
77.8988
76.4418
79.9998
78.3962
77.0358
80.3173
78.813
77.5356
80.5793
79.1607
77.9546
80.7944
79.4496
78.3046
80.9693
79.6877
78.5949
81.1119
79.8842
78.8354
81.2248
80.0423
79.0305
81.3198
80.1745
79.1928
81.388
80.2726
79.3155
81.4583
80.3656
79.4257
81.4906
80.4141
79.4883
81.5591
80.4968
79.5774
-1.1566
-0.974366
0.411834
1.39078
1.45808
1.45913
1.48244
1.43642
1.36183
1.32224
1.27844
1.20029
1.11348
1.05092
1.01228
0.972656
0.919087
0.859158
0.80569
0.765323
0.734142
0.700278
0.652583
0.587143
0.506172
0.412279
0.303805
0.181407
0.0711201
0.017602
4.59786
1.40825
2.26581
1.98314
1.03117
0.966559
1.34673
1.4105
1.28459
1.26228
1.25288
1.16923
1.06242
1.00609
0.996648
0.977329
0.923479
0.855143
0.796886
0.759934
0.738302
0.713114
0.667546
0.597589
0.508925
0.407988
0.295834
0.172485
0.0616387
0.0127297
15.4764
7.00671
4.05954
2.03392
1.44598
1.86404
2.07375
1.44823
0.931598
1.01059
1.24163
1.19264
1.0271
0.961535
0.987026
0.994544
0.931657
0.845295
0.7793
0.749096
0.743984
0.733396
0.691381
0.614749
0.515468
0.405068
0.288916
0.166992
0.0561826
0.00831369
24.968
15.1447
9.33288
5.62982
3.65154
2.70955
1.92606
1.34264
1.17156
1.58151
1.7358
1.243
0.822362
0.733375
0.887644
1.0358
0.967123
0.844045
0.761552
0.737208
0.75352
0.764358
0.726961
0.639781
0.526376
0.403625
0.282453
0.165055
0.0568221
0.00426857
34.0226
24.3091
17.0117
11.6975
7.99417
5.47053
3.7139
2.60833
2.00437
1.79162
1.49977
1.17403
0.905876
0.904051
1.24072
1.3127
0.989337
0.765982
0.669424
0.673638
0.74513
0.811181
0.784898
0.678848
0.54579
0.405738
0.275012
0.163294
0.0660016
-2.70223e-05
41.9123
33.0153
25.1405
18.7078
13.7665
10.0846
7.37637
5.41769
4.02432
3.06137
2.33921
1.79733
1.38453
1.19407
1.22118
1.15327
1.00408
0.846995
0.765765
0.783328
0.879765
0.940143
0.856234
0.706172
0.552048
0.393915
0.250181
0.147196
0.0893848
-0.00649779
48.3437
40.557
32.7951
25.9102
20.2719
15.7767
12.2167
9.42045
7.2586
5.61997
4.36984
3.39221
2.63466
2.11714
1.80576
1.55984
1.32127
1.08824
0.933101
0.88327
0.910899
0.936845
0.897554
0.780427
0.618303
0.435442
0.271956
0.164548
0.169272
0.00193366
53.5831
46.8631
39.6149
32.7872
26.8937
21.9253
17.7587
14.3019
11.4795
9.20705
7.37953
5.90182
4.72217
3.8201
3.15208
2.62552
2.16745
1.77237
1.47985
1.30247
1.20982
1.14196
1.04191
0.884441
0.690174
0.48572
0.303482
0.170996
0.124633
-0.119998
57.8585
52.0469
45.4668
38.9926
33.1662
28.0378
23.5456
19.6532
16.3296
13.5258
11.1751
9.21254
7.58945
6.26977
5.20827
4.338
3.60227
2.98514
2.49523
2.12992
1.86038
1.63816
1.41499
1.16762
0.905072
0.647001
0.415985
0.227782
0.0722794
-0.362574
61.3473
56.2809
50.3787
44.391
38.8288
33.7692
29.1842
25.0699
21.428
18.2427
15.4802
13.1003
11.0653
9.34103
7.88873
6.66085
5.61446
4.72585
3.98583
3.38236
2.88907
2.46706
2.07751
1.69769
1.32614
0.972719
0.648912
0.35353
0.0423464
-0.562498
64.2123
59.7515
54.4692
48.9962
43.7911
38.9366
34.4202
30.2539
26.4592
23.0426
19.9939
17.2932
14.9171
12.8407
11.0356
9.46825
8.10603
6.92456
5.9076
5.03874
4.29397
3.64171
3.05027
2.49742
1.97476
1.48295
1.02237
0.578533
0.0999642
-0.629999
66.5847
62.6182
57.8761
52.891
48.0671
43.4825
39.1305
35.0283
31.2061
27.6832
24.4643
21.5444
18.9131
16.5562
14.4554
12.5883
10.9314
9.46391
8.16872
7.0286
6.02222
5.12374
4.30697
3.55108
2.84373
2.17852
1.54772
0.931216
0.285297
-0.549397
68.5631
65.0038
60.7235
56.1775
51.7216
47.4261
43.2848
39.3149
35.5485
32.0106
28.7145
25.6649
22.8609
20.2973
17.9644
15.849
13.9354
12.208
10.6519
9.25137
7.98834
6.84183
5.79025
4.81478
3.90134
3.03926
2.21656
1.41305
0.596681
-0.344332
70.222
67.0017
63.1141
58.9538
54.8363
50.8232
46.9073
43.1031
39.4412
35.9483
32.6418
29.5318
26.6238
23.9189
21.4145
19.1039
16.9783
15.0268
13.2381
11.5995
10.0962
8.71147
7.42776
6.22853
5.0996
4.02856
3.00213
2.00265
1.00849
-0.0538138
71.6186
68.683
65.1298
61.3051
57.4909
53.7414
50.0473
46.4201
42.8873
39.4749
36.2015
33.0802
30.1201
27.3268
24.702
22.2445
19.9502
17.8128
15.8245
13.9757
12.2552
10.6498
9.14543
7.72794
6.38411
5.10147
3.86717
2.66658
1.48548
0.280279
72.7976
70.1025
66.8349
63.3014
59.7558
56.2461
52.7614
49.3097
45.915
42.6015
39.3876
36.2876
33.3123
30.4699
27.7653
25.2009
22.7761
20.4883
18.3327
16.303
14.3907
12.586
10.8777
9.25388
7.70281
6.21284
4.77217
3.36868
1.9923
0.621488
73.7943
71.3034
68.2806
64.9994
61.6902
58.3959
55.104
51.8194
48.5627
45.3557
42.216
39.1575
36.1919
33.3287
30.575
27.9352
25.4115
23.0039
20.7104
18.527
16.4482
14.4664
12.573
10.7583
9.01187
7.3233
5.68179
4.07673
2.49954
0.943676
74.6371
72.3202
69.5075
66.445
63.3433
60.2407
57.1237
53.9945
50.8705
47.771
44.7121
41.7069
38.7673
35.9033
33.1228
30.4319
27.8346
25.3328
22.9265
20.614
18.3916
16.2541
14.1949
12.2058
10.2782
8.40231
6.56827
4.76598
2.98648
1.23222
75.3491
73.1806
70.5487
67.6759
64.7555
61.8226
58.8628
55.8758
52.8763
49.8811
46.9046
43.959
41.0554
38.204
35.413
32.6895
30.0385
27.4633
24.9655
22.5449
20.1997
17.9263
15.7195
13.5729
11.4788
9.42841
7.41211
5.41971
3.44079
1.48222
75.9497
73.9079
71.4314
68.7228
65.9607
63.1771
60.3573
57.499
54.6142
51.7176
48.8218
45.9379
43.0761
40.2461
37.4564
34.7141
32.025
29.3934
26.8218
24.3114
21.8615
19.4699
17.1328
14.8449
12.5993
10.3878
8.20097
6.02804
3.85678
1.69534
76.4547
74.5209
72.178
69.6114
66.9868
64.334
61.6379
58.8947
56.1142
53.309
50.49
47.6671
44.8497
42.0467
39.2662
36.5154
33.8004
31.1259
28.4954
25.9106
23.3721
20.8785
18.427
16.0131
13.6308
11.2721
8.92759
6.58579
4.2328
1.87619
76.878
75.0361
72.8076
70.3632
67.8576
65.3186
62.7311
60.0899
57.4029
54.6808
51.9334
49.169
46.396
43.6227
40.8566
38.1047
35.3731
32.6668
29.9895
27.3438
24.7306
22.1495
19.5983
17.0733
14.5687
12.0769
9.5884
7.09107
4.56965
2.03015
77.2305
75.4664
73.3355
70.9957
68.5924
66.1517
63.6585
61.1067
58.5024
55.855
53.1726
50.4627
47.7326
44.9896
42.2409
39.493
36.7518
34.0223
31.3084
28.613
25.9376
23.282
20.6447
18.0224
15.4097
12.7991
10.1809
7.54264
4.868
2.16102
77.5231
75.8244
73.7761
71.5252
69.209
66.8523
64.4401
61.9655
59.4334
56.8517
54.2274
51.5669
48.8768
46.1634
43.4332
40.6925
37.9467
35.2007
32.4585
29.723
26.9961
24.2779
21.5671
18.8608
16.1537
13.4387
10.7057
7.94182
5.13036
2.27284
77.7621
76.1177
74.1383
71.9619
69.7188
67.4328
65.0891
62.6802
60.2098
57.6848
55.1111
52.4944
49.8401
47.1542
44.4424
41.7104
38.9633
36.2059
33.4421
30.6747
27.9057
25.1355
22.363
19.5852
16.7973
13.992
11.1592
8.28588
5.35489
2.36536
77.9591
76.3588
74.4361
72.3209
70.138
67.9103
65.6233
63.269
60.8502
58.3728
55.842
53.2627
50.6397
47.9782
45.2834
42.5604
39.8143
37.0493
34.2692
31.4769
28.6742
25.8616
23.0382
20.2012
17.3456
14.4642
11.5469
8.5804
5.54741
2.44388
78.111
76.5456
74.6676
72.601
70.4658
68.2845
66.0428
63.7322
61.3549
58.9159
56.42
53.8713
51.2741
48.6331
45.9529
43.2384
40.494
37.724
34.9319
32.1205
29.2915
26.4456
23.5817
20.697
17.7868
14.8436
11.8573
8.81452
5.69804
2.50138
78.2402
76.7003
74.8564
72.8267
70.7276
68.5814
66.374
64.0966
61.7509
59.3413
56.8721
54.347
51.7699
49.1448
46.4763
43.7688
41.0264
38.2531
35.4524
32.6268
29.7782
26.907
24.0122
21.0912
18.1389
15.148
12.1081
9.00572
5.82338
2.55067
78.3194
76.7957
74.9741
72.9694
70.8947
68.772
66.5874
64.3324
62.0078
59.6179
57.1668
54.6576
52.094
49.4799
46.8194
44.1167
41.3759
38.6006
35.7943
32.9595
30.0978
27.2097
24.2943
21.3486
18.3678
15.3443
12.2676
9.12383
5.89539
2.57019
78.4078
76.8852
75.0758
73.0862
71.0252
68.9151
66.7427
64.4993
62.1858
59.8061
57.364
54.8627
52.3056
49.6964
47.0393
44.3382
41.5971
38.8197
36.0093
33.1684
30.2987
27.4006
24.4731
21.5133
18.5164
15.4746
12.377
9.20893
5.9502
2.57683
)
;

boundaryField
{
    inlet
    {
        type            zeroGradient;
    }
    outlet
    {
        type            fixedValue;
        value           uniform 0;
    }
    flap
    {
        type            zeroGradient;
    }
    upperWall
    {
        type            zeroGradient;
    }
    lowerWall
    {
        type            zeroGradient;
    }
    frontAndBack
    {
        type            empty;
    }
}


// ************************************************************************* //
