/*--------------------------------*- C++ -*----------------------------------*\
  =========                 |
  \\      /  F ield         | OpenFOAM: The Open Source CFD Toolbox
   \\    /   O peration     | Website:  https://openfoam.org
    \\  /    A nd           | Version:  7
     \\/     M anipulation  |
\*---------------------------------------------------------------------------*/
FoamFile
{
    version     2.0;
    format      ascii;
    class       surfaceScalarField;
    location    "2.7";
    object      phi;
}
// * * * * * * * * * * * * * * * * * * * * * * * * * * * * * * * * * * * * * //

dimensions      [0 3 -1 0 0 0 0];

internalField   nonuniform List<scalar> 
5457
(
0.198418
0.00158247
0.19648
0.00193754
0.194192
0.00228833
0.191508
0.0026839
0.188426
0.00308159
0.184949
0.00347721
0.18107
0.00387905
0.176775
0.00429452
0.172047
0.00472873
0.166861
0.00518572
0.161192
0.00566898
0.155011
0.00618145
0.148285
0.00672532
0.140984
0.00730161
0.133074
0.00790967
0.124527
0.00854651
0.115322
0.00920583
0.105445
0.009877
0.0949008
0.0105438
0.0837177
0.0111831
0.0719536
0.0117641
0.0597058
0.0122477
0.0471178
0.0125881
0.0343782
0.0127395
0.0216838
0.0126944
0.00903424
0.0126496
-0.00291779
0.011952
-0.00847238
0.00555459
-0.00804285
-0.00042953
-0.00804285
0.199928
0.0016544
0.199175
0.00269016
0.197964
0.00349953
0.196331
0.00431742
0.19427
0.00514204
0.19178
0.00596773
0.188852
0.00680653
0.185475
0.0076719
0.181629
0.00857417
0.177294
0.00952165
0.172441
0.0105216
0.167042
0.0115802
0.161065
0.0127024
0.154476
0.0138908
0.147241
0.0151449
0.139327
0.0164597
0.130709
0.0178237
0.121369
0.019217
0.111305
0.0206083
0.100535
0.0219526
0.0891115
0.0231881
0.0771244
0.0242348
0.064719
0.0249934
0.0521122
0.0253464
0.0396525
0.0251541
0.0281031
0.0241989
0.0185927
0.0214624
0.00879503
0.0153523
0.00118249
0.00718301
-0.00686036
0.19978
0.00187392
0.199086
0.00338417
0.197945
0.00464071
0.196408
0.00585436
0.194482
0.00706856
0.192162
0.00828723
0.189444
0.00952445
0.186318
0.0107979
0.18277
0.0121226
0.178781
0.013511
0.174328
0.0149742
0.169386
0.0165217
0.163928
0.0181614
0.15792
0.0198983
0.151332
0.0217334
0.14413
0.0236615
0.136284
0.0256692
0.127771
0.0277307
0.118574
0.0298049
0.108696
0.0318301
0.098165
0.0337195
0.0870432
0.0353566
0.0754471
0.0365896
0.0635705
0.0372229
0.0517293
0.0369953
0.0403947
0.0355336
0.0297368
0.0321203
0.0191646
0.0259245
0.00959667
0.016751
0.00273631
0.199703
0.00217094
0.199007
0.00407966
0.197887
0.0057615
0.196375
0.00736561
0.194487
0.00895708
0.19222
0.0105537
0.189572
0.0121726
0.186536
0.0138344
0.183101
0.0155576
0.179254
0.017358
0.174978
0.0192497
0.170255
0.0212448
0.165063
0.0233535
0.159379
0.0255828
0.153177
0.0279353
0.146431
0.0304068
0.139117
0.0329835
0.13121
0.0356379
0.122691
0.0383239
0.11355
0.0409706
0.103794
0.0434759
0.093452
0.0456986
0.0825913
0.0474502
0.0713292
0.0484851
0.0598379
0.0484866
0.0483145
0.047057
0.0368091
0.0436257
0.0251866
0.037547
0.0133349
0.0286026
0.0160712
0.199667
0.00250362
0.198964
0.0047831
0.197862
0.00686309
0.19638
0.00884764
0.194531
0.0108063
0.192316
0.0127688
0.189732
0.0147569
0.186773
0.0167935
0.18343
0.0188998
0.179694
0.0210943
0.175551
0.0233931
0.170985
0.0258104
0.165981
0.0283577
0.16052
0.0310434
0.154584
0.0338711
0.148154
0.0368375
0.141208
0.0399293
0.133727
0.0431193
0.12569
0.0463605
0.117081
0.0495796
0.107888
0.0526689
0.0981096
0.055477
0.0877603
0.0577995
0.0768749
0.0593704
0.0655056
0.0598559
0.0537056
0.058857
0.0414522
0.0558791
0.0285865
0.0504126
0.0148517
0.0423374
0.030923
0.199653
0.00285092
0.198948
0.00548735
0.19787
0.0079413
0.196426
0.0102922
0.194625
0.0126067
0.192471
0.0149228
0.189961
0.0172671
0.18709
0.0196649
0.18385
0.0221397
0.180232
0.0247121
0.176225
0.0274002
0.171816
0.0302195
0.166991
0.0331829
0.161734
0.0362997
0.156031
0.0395742
0.149864
0.0430042
0.143216
0.0465776
0.136067
0.0502686
0.128395
0.0540325
0.120176
0.0577989
0.111382
0.0614628
0.101984
0.0648752
0.09195
0.067833
0.08125
0.0700705
0.069851
0.071255
0.0577144
0.0709936
0.0447588
0.0688346
0.030848
0.0643235
0.0158726
0.0573128
0.0467955
0.19965
0.00320096
0.198954
0.00618353
0.197904
0.00899122
0.196504
0.0116923
0.194761
0.0143494
0.192679
0.0170053
0.190254
0.0196913
0.187484
0.0224351
0.184362
0.0252624
0.180878
0.0281957
0.177023
0.0312548
0.172786
0.0344567
0.168154
0.0378155
0.163112
0.0413417
0.157645
0.0450408
0.151737
0.048912
0.14537
0.0529452
0.13852
0.057118
0.131162
0.0613905
0.123262
0.0656993
0.114776
0.0699489
0.105649
0.0740024
0.0958116
0.07767
0.0851819
0.0807001
0.0736648
0.082772
0.0611589
0.0834995
0.0475535
0.08244
0.0327576
0.0791194
0.0167824
0.073288
0.0635779
0.199655
0.00354641
0.198974
0.00686384
0.197958
0.0100073
0.196609
0.0130413
0.194933
0.0160259
0.192931
0.0190064
0.190605
0.022018
0.187949
0.025091
0.184958
0.028253
0.181626
0.0315284
0.177942
0.0349388
0.173896
0.0385027
0.169475
0.0422356
0.164668
0.0461496
0.159456
0.0502521
0.153824
0.0545446
0.147748
0.0590206
0.141204
0.0636627
0.134156
0.0684386
0.126559
0.0732957
0.118355
0.0781535
0.109463
0.0828944
0.0997808
0.0873518
0.0891826
0.0912983
0.0775216
0.0944331
0.0646449
0.0963762
0.0504159
0.096669
0.0347673
0.094768
0.0177895
0.0902658
0.0813674
0.199664
0.00388234
0.199006
0.00752185
0.19803
0.0109838
0.196738
0.0143332
0.195135
0.0176284
0.193225
0.0209167
0.191006
0.0242364
0.188477
0.0276203
0.185632
0.0310977
0.182466
0.0346948
0.17897
0.0384349
0.175134
0.0423383
0.170948
0.0464221
0.166397
0.0507006
0.161465
0.0551836
0.156133
0.0598763
0.150377
0.0647771
0.144164
0.0698756
0.137453
0.0751499
0.130187
0.0805618
0.12229
0.0860506
0.113659
0.0915246
0.104162
0.0968492
0.0936288
0.101831
0.0818609
0.106201
0.068647
0.10959
0.0538007
0.111515
0.0372361
0.111333
0.0190833
0.108419
0.100451
0.199677
0.00420523
0.199047
0.00815231
0.198115
0.0119155
0.196886
0.0155619
0.195365
0.0191498
0.193554
0.0227279
0.191453
0.0263369
0.189062
0.0300117
0.186376
0.0337836
0.18339
0.0376804
0.180098
0.0417269
0.176491
0.0459452
0.172559
0.0503545
0.168288
0.0549714
0.163663
0.059809
0.158662
0.064877
0.153259
0.07018
0.147418
0.0757166
0.141091
0.0814775
0.13421
0.0874421
0.126687
0.0935742
0.118397
0.0998146
0.109176
0.10607
0.0988138
0.112194
0.0870486
0.117966
0.0735877
0.123051
0.0581478
0.126955
0.0405522
0.128928
0.0209019
0.128069
0.121353
0.199693
0.00451241
0.199094
0.00875091
0.198212
0.0127974
0.197052
0.016722
0.195618
0.0205837
0.193914
0.0244324
0.19194
0.0283106
0.189697
0.0322554
0.187181
0.0362994
0.184389
0.0404722
0.181316
0.0448
0.177955
0.0493065
0.174296
0.0540133
0.170328
0.0589394
0.166035
0.0641018
0.161397
0.0695149
0.156386
0.0751907
0.150965
0.0811379
0.145081
0.0873614
0.138662
0.093861
0.131608
0.100628
0.12378
0.107643
0.114987
0.114862
0.104976
0.122205
0.0934148
0.129528
0.0798962
0.13657
0.0639683
0.142883
0.0452365
0.14766
0.0236132
0.149692
0.144966
0.199711
0.00480184
0.199147
0.00931415
0.198319
0.0136253
0.197233
0.0178087
0.195892
0.0219244
0.194301
0.0260234
0.192462
0.0301498
0.190375
0.0343423
0.188039
0.038635
0.185453
0.0430586
0.182612
0.0476409
0.179511
0.0524072
0.176144
0.0573809
0.172499
0.0625839
0.168564
0.0680366
0.16432
0.0737589
0.159741
0.0797698
0.15479
0.0860887
0.149416
0.0927354
0.143547
0.0997306
0.137079
0.107096
0.129867
0.114855
0.121706
0.123023
0.112307
0.131604
0.101269
0.140566
0.0880442
0.149794
0.0719251
0.159002
0.0520904
0.167495
0.0278893
0.173893
0.172855
0.19973
0.00507189
0.199205
0.00983916
0.198435
0.0143957
0.197425
0.0188178
0.196183
0.023167
0.194711
0.0274952
0.193013
0.031848
0.19109
0.036265
0.188943
0.0407818
0.186572
0.04543
0.183974
0.0502385
0.181147
0.0552341
0.178086
0.0604419
0.174784
0.0658861
0.17123
0.0715907
0.167409
0.0775799
0.163299
0.0838799
0.158868
0.0905195
0.154071
0.0975325
0.148842
0.10496
0.143086
0.112852
0.136666
0.121275
0.129381
0.130308
0.120933
0.140052
0.110878
0.150621
0.0985428
0.162129
0.082906
0.174639
0.0624444
0.187956
0.0351332
0.201205
0.207988
0.199751
0.0053213
0.199266
0.0103237
0.198556
0.0151055
0.197628
0.0197458
0.196488
0.0243074
0.19514
0.0288432
0.193588
0.0333996
0.191836
0.0380174
0.189885
0.0427328
0.187737
0.0475783
0.185391
0.0525837
0.182849
0.0577766
0.180107
0.0631837
0.177163
0.0688308
0.174009
0.0747446
0.170635
0.0809532
0.167027
0.087488
0.163161
0.0943859
0.159001
0.101692
0.154498
0.109463
0.149577
0.117774
0.144126
0.126726
0.137978
0.136456
0.130874
0.147156
0.1224
0.159095
0.111861
0.172668
0.098026
0.188474
0.078554
0.207428
0.0486832
0.231075
0.256671
0.199772
0.00554913
0.19933
0.0107658
0.198683
0.0157523
0.197839
0.0205899
0.196804
0.0253424
0.195584
0.0300636
0.194183
0.0348005
0.192606
0.0395946
0.190856
0.0444826
0.188937
0.0494975
0.186851
0.0546694
0.184601
0.0600267
0.182188
0.0655966
0.179613
0.0714062
0.176873
0.0774837
0.173967
0.0838596
0.170886
0.0905689
0.167619
0.0976532
0.164146
0.105164
0.160439
0.11317
0.156454
0.121759
0.152126
0.131054
0.147353
0.141228
0.141979
0.15253
0.135742
0.165333
0.12817
0.18024
0.118324
0.198319
0.103954
0.221798
0.0777388
0.257291
0.33441
0.00509827
-0.00509827
0.00984916
-0.00475088
0.0139052
-0.00405604
0.0173244
-0.00341919
0.0202208
-0.00289639
0.022695
-0.00247419
0.02483
-0.00213503
0.0266931
-0.00186306
0.0283353
-0.00164223
0.0297935
-0.00145823
0.0310945
-0.00130097
0.0322581
-0.00116359
0.0332942
-0.00103615
0.0341913
-0.000897033
0.0349084
-0.000717105
0.0353978
-0.000489453
0.035651
-0.000253189
0.035717
-6.60153e-05
0.0356345
8.24962e-05
0.0354239
0.000210626
0.0351056
0.000318328
0.0347568
0.00034875
0.0344896
0.000267253
0.0344092
8.04237e-05
0.0345751
-0.000165998
0.0349939
-0.000418778
0.0356483
-0.000654365
0.0365153
-0.00086696
0.0375331
-0.00101786
-0.000962302
0.00435754
-0.00945581
0.00858493
-0.00897827
0.0122693
-0.00774044
0.0154292
-0.00657905
0.0181617
-0.00562892
0.0205531
-0.00486561
0.0226724
-0.00425429
0.0245734
-0.00376405
0.0262959
-0.00336479
0.0278679
-0.00303016
0.0293095
-0.00274263
0.0306397
-0.00249377
0.031877
-0.00227347
0.0330275
-0.0020475
0.0340651
-0.00175473
0.0349414
-0.00136568
0.0356263
-0.000938104
0.0361582
-0.000597964
0.0366003
-0.000359603
0.0369396
-0.000128637
0.0371396
0.000118279
0.0372686
0.000219746
0.0374078
0.000128076
0.037575
-8.67827e-05
0.0377848
-0.000375796
0.0380154
-0.000649319
0.0382693
-0.000908312
0.0385538
-0.00115143
0.0388944
-0.00135845
-0.00142696
0.00343157
-0.0128874
0.00668647
-0.0122332
0.00949078
-0.0105447
0.0118887
-0.00897696
0.0139575
-0.00769769
0.0157607
-0.00666883
0.0173508
-0.00584441
0.0187679
-0.00518118
0.0200403
-0.00463717
0.0211854
-0.00417529
0.0222138
-0.003771
0.0231378
-0.00341781
0.0239817
-0.00311737
0.024768
-0.00283375
0.0254801
-0.00246686
0.0260636
-0.00194911
0.0264643
-0.0013388
0.0267572
-0.000890865
0.0269661
-0.000568579
0.02689
-5.25408e-05
0.0264559
0.000552376
0.0256325
0.00104321
0.0245283
0.00123225
0.0233135
0.00112803
0.0221501
0.000787636
0.0211669
0.000333881
0.0203788
-0.000120264
0.0198166
-0.000589238
0.0196375
-0.00117929
-0.00184073
0.00245312
-0.0153405
0.00458013
-0.0143602
0.00632192
-0.0122865
0.00778034
-0.0104354
0.00900603
-0.00892338
0.0100368
-0.00769964
0.0109073
-0.00671482
0.0116439
-0.00591786
0.0122657
-0.00525895
0.0127818
-0.00469143
0.0131906
-0.0041797
0.0134853
-0.00371253
0.0136834
-0.00331551
0.0138313
-0.00298169
0.0139532
-0.00258875
0.0140202
-0.00201613
0.0137409
-0.00105949
0.0127773
7.27783e-05
0.0113025
0.000906258
0.00988765
0.00136226
0.00869734
0.00174269
0.00759053
0.00215002
0.00650876
0.00231403
0.00550297
0.00213381
0.00467502
0.00161559
0.0041742
0.000834699
0.00404749
6.4407e-06
0.00434384
-0.000885587
0.00498008
-0.00181553
-0.00259324
0.00135032
-0.0166908
0.00222579
-0.0152357
0.00280024
-0.012861
0.00319822
-0.0108333
0.00343829
-0.00916344
0.00353998
-0.00780133
0.00352116
-0.006696
0.00339768
-0.00579438
0.00318346
-0.00504473
0.00288856
-0.00439654
0.00251188
-0.00380302
0.0020257
-0.00322636
0.00135093
-0.00264074
0.000411499
-0.00204225
-0.000759239
-0.00141801
-0.00209798
-0.000677395
-0.00328311
0.000125643
-0.00407011
0.000859779
-0.00464374
0.00147989
-0.00525386
0.00197238
-0.00585479
0.00234362
-0.0063291
0.00262433
-0.00667958
0.0026645
-0.00691793
0.00237217
-0.00705385
0.00175152
-0.00710316
0.000884004
-0.00699111
-0.000105609
-0.00678315
-0.00109355
-0.00653562
-0.00206306
-0.00283649
2.64009e-05
-0.0167172
-0.000363106
-0.0148462
-0.00100891
-0.0122152
-0.00175754
-0.0100847
-0.00261325
-0.00830773
-0.00355586
-0.00685872
-0.00457553
-0.00567633
-0.00566453
-0.00470538
-0.00681573
-0.00389353
-0.00801565
-0.00319662
-0.00924086
-0.00257781
-0.0104608
-0.00200646
-0.0116413
-0.0014602
-0.0127589
-0.000924645
-0.0137956
-0.000381288
-0.0146364
0.000163385
-0.015242
0.000731248
-0.0157006
0.00131839
-0.0160706
0.00184983
-0.0163672
0.00226906
-0.0165897
0.0025661
-0.0166924
0.00272703
-0.0166923
0.00266441
-0.0166345
0.0023144
-0.0165622
0.00167921
-0.0165005
0.000822231
-0.0164457
-0.000160323
-0.0163843
-0.00115504
-0.0163212
-0.00212614
-0.00291637
-0.00127309
-0.0154441
-0.00306831
-0.0130509
-0.00495994
-0.0103236
-0.00689892
-0.00814575
-0.00882463
-0.00638202
-0.0107129
-0.00497047
-0.0125379
-0.00385132
-0.0142771
-0.00296614
-0.0159127
-0.00225796
-0.017432
-0.00167736
-0.0188278
-0.001182
-0.020091
-0.00074324
-0.0212102
-0.000340953
-0.0221698
3.49024e-05
-0.0229489
0.000397867
-0.0235673
0.000781774
-0.0240505
0.00121442
-0.0244009
0.00166875
-0.0246324
0.00208142
-0.0247657
0.0024023
-0.0248082
0.00260866
-0.0247553
0.00267408
-0.0246328
0.00254196
-0.0244866
0.00216816
-0.0243596
0.00155222
-0.0242784
0.000740989
-0.02425
-0.000188698
-0.0242587
-0.00114639
-0.0242917
-0.00209312
-0.0028546
-0.00269376
-0.0127504
-0.00578769
-0.009957
-0.00888017
-0.00723108
-0.011836
-0.0051899
-0.0145782
-0.0036398
-0.0170858
-0.00246286
-0.0193504
-0.00158672
-0.0213766
-0.000939985
-0.0231731
-0.000461511
-0.0247502
-0.000100252
-0.0261094
0.000177194
-0.0272572
0.000404588
-0.0282134
0.000615226
-0.0290076
0.000829138
-0.029675
0.00106531
-0.0302305
0.00133723
-0.0306612
0.00164514
-0.0309576
0.00196513
-0.0311291
0.00225286
-0.0311948
0.00246804
-0.03117
0.00258382
-0.0310679
0.002572
-0.030918
0.0023921
-0.0307615
0.0020117
-0.0306376
0.00142827
-0.0305732
0.000676569
-0.030579
-0.000182883
-0.0306427
-0.00108265
-0.0307576
-0.00197825
-0.00266701
-0.00418156
-0.0085688
-0.00851797
-0.0056206
-0.012676
-0.00307302
-0.0164501
-0.00141585
-0.0197764
-0.000313431
-0.0226229
0.000383573
-0.0250136
0.000803951
-0.0270128
0.00105923
-0.0286913
0.00121702
-0.0301089
0.00131737
-0.0313213
0.00138955
-0.0323706
0.00145389
-0.0332752
0.00151984
-0.0340465
0.00160041
-0.0346916
0.0017104
-0.0352137
0.00185935
-0.035611
0.00204244
-0.0358824
0.00223654
-0.036036
0.00240645
-0.0360874
0.00251943
-0.0360542
0.00255069
-0.0359576
0.00247533
-0.0358282
0.00226271
-0.0357032
0.00188674
-0.0356174
0.00134241
-0.0355961
0.000655334
-0.0356504
-0.000128586
-0.0357741
-0.000958989
-0.0359638
-0.00178848
-0.00240573
-0.00592417
-0.00264463
-0.0117073
0.00016257
-0.0165332
0.0017528
-0.0205358
0.00258676
-0.0238143
0.00296513
-0.0265187
0.00308794
-0.0287973
0.00308254
-0.0307384
0.00300036
-0.0323974
0.00287598
-0.0338193
0.00273926
-0.0350407
0.00261096
-0.0360876
0.00250078
-0.0369795
0.00241175
-0.0377301
0.002351
-0.0383499
0.00233025
-0.0388472
0.00235662
-0.0392269
0.00242221
-0.0394931
0.00250272
-0.039653
0.00256636
-0.0397193
0.00258571
-0.0397098
0.00254116
-0.0396486
0.00241416
-0.039567
0.00218112
-0.039499
0.00181867
-0.0394742
0.0013177
-0.0395146
0.000695702
-0.0396299
-1.33502e-05
-0.0398197
-0.000769126
-0.0400793
-0.0015289
-0.00208602
-0.00736033
0.0047157
-0.0136882
0.00649041
-0.0187554
0.00682002
-0.0229096
0.00674096
-0.0263317
0.0063872
-0.0291592
0.00591546
-0.0315031
0.0054265
-0.0334615
0.00495869
-0.0351093
0.00452378
-0.0365041
0.00413405
-0.0376923
0.00379922
-0.0387073
0.00351571
-0.0395688
0.00327332
-0.0402896
0.00307173
-0.0408819
0.00292261
-0.0413594
0.00283409
-0.0417327
0.00279556
-0.0420084
0.00277837
-0.0421916
0.00274956
-0.0422914
0.00268552
-0.0423245
0.0025743
-0.0423166
0.00240619
-0.0422992
0.00216374
-0.042304
0.00182346
-0.0423563
0.00137006
-0.0424719
0.000811245
-0.0426585
0.00017329
-0.0429153
-0.000512405
-0.0432432
-0.00120092
-0.00170659
-0.0080841
0.0127998
-0.0150559
0.0134622
-0.0206616
0.0124257
-0.0250567
0.0111361
-0.0285338
0.00986427
-0.0313181
0.00869975
-0.0335809
0.00768932
-0.0354509
0.00682869
-0.037011
0.00608384
-0.0383212
0.00544426
-0.0394356
0.00491362
-0.0403933
0.00447346
-0.0412114
0.0040914
-0.041896
0.00375635
-0.0424591
0.00348564
-0.0429201
0.0032951
-0.043296
0.00317151
-0.0435941
0.00307642
-0.0438149
0.00297042
-0.0439622
0.00283276
-0.0440502
0.00266235
-0.0441058
0.00246179
-0.044162
0.00221995
-0.0442488
0.00191026
-0.0443865
0.00150773
-0.0445846
0.00100935
-0.0448482
0.000436863
-0.0451807
-0.000179848
-0.0455807
-0.000800913
-0.00126136
-0.00938063
0.0221804
-0.0172666
0.0213482
-0.0230802
0.0182394
-0.0273456
0.0154014
-0.030598
0.0131167
-0.0331269
0.0112286
-0.0351448
0.0097073
-0.0368148
0.00849871
-0.0382129
0.00748188
-0.0393831
0.0066145
-0.0403852
0.00591565
-0.0412667
0.00535496
-0.0420357
0.0048604
-0.0426822
0.00440292
-0.0432141
0.0040175
-0.0436604
0.00374144
-0.0440474
0.00355852
-0.0443814
0.00341037
-0.0446544
0.00324338
-0.0448609
0.00303931
-0.0450119
0.00281339
-0.0451366
0.00258648
-0.0452716
0.00235492
-0.0454467
0.00208531
-0.0456771
0.00173822
-0.0459662
0.00129842
-0.0463146
0.000785271
-0.0467265
0.000232069
-0.0472033
-0.000324124
-0.000741979
-0.0117615
0.0339419
-0.0208701
0.0304568
-0.0264189
0.0237882
-0.029948
0.0189305
-0.032617
0.0157858
-0.0346515
0.013263
-0.0362393
0.0112951
-0.0376022
0.00986163
-0.0387835
0.00866318
-0.039766
0.00759699
-0.0406179
0.00676757
-0.0414119
0.00614898
-0.0421387
0.00558713
-0.0427522
0.00501642
-0.0432499
0.00451523
-0.0436804
0.00417191
-0.0440872
0.00396536
-0.0444734
0.00379662
-0.0448153
0.00358523
-0.0450928
0.00331678
-0.0453121
0.0030327
-0.0455079
0.00278229
-0.0457245
0.00257158
-0.0459935
0.00235425
-0.0463244
0.00206913
-0.0467116
0.00168559
-0.0471491
0.0012228
-0.0476438
0.00072673
-0.0482055
0.000237605
-0.000135223
-0.0160866
0.0500285
-0.0267865
0.0411567
-0.0312661
0.0282678
-0.0328655
0.0205299
-0.0345571
0.0174773
-0.0358814
0.0145874
-0.036821
0.0122346
-0.0377888
0.0108294
-0.0387577
0.00963208
-0.0395177
0.00835697
-0.0401709
0.00742079
-0.0408748
0.00685292
-0.0415885
0.00630083
-0.0421869
0.00561476
-0.0426436
0.004972
-0.0430508
0.00457911
-0.0434883
0.00440278
-0.04395
0.00425837
-0.0443831
0.00401829
-0.0447443
0.003678
-0.0450342
0.00332267
-0.0452991
0.0030471
-0.0455979
0.00287046
-0.045966
0.00272231
-0.0464049
0.00250807
-0.0468967
0.00217737
-0.0474263
0.00175242
-0.0480045
0.00130489
-0.0486574
0.000890502
0.000579663
0.207447
0.00576202
0.207034
0.0111787
0.206431
0.0163552
0.205646
0.0213749
0.204686
0.0263023
0.203558
0.0311919
0.202267
0.036091
0.200821
0.0410414
0.199223
0.04608
0.197481
0.05124
0.195598
0.0565516
0.193582
0.062043
0.191437
0.0677416
0.189168
0.0736748
0.186781
0.079871
0.184279
0.0863615
0.181666
0.0931822
0.178943
0.100376
0.176111
0.107997
0.173167
0.116113
0.170109
0.124817
0.166932
0.134232
0.16363
0.14453
0.160207
0.155953
0.156686
0.168854
0.153164
0.183763
0.150009
0.201473
0.14891
0.222897
0.160697
0.245504
0.258552
0.236556
0.21249
0.00595458
0.212117
0.0115518
0.211573
0.0168992
0.210867
0.0220813
0.210006
0.0271635
0.208997
0.0322002
0.207849
0.037239
0.206569
0.0423217
0.205164
0.0474849
0.203643
0.0527615
0.202013
0.0581811
0.200284
0.0637716
0.198467
0.0695595
0.19657
0.0755714
0.194606
0.0818347
0.192588
0.0883795
0.190531
0.0952398
0.188451
0.102456
0.18637
0.110077
0.184318
0.118166
0.182333
0.126802
0.180478
0.136087
0.178852
0.146156
0.177627
0.157178
0.177125
0.169356
0.178004
0.182884
0.181683
0.197794
0.190774
0.213807
0.206287
0.229991
0.245409
0.21943
0.217657
0.00612467
0.217328
0.0118811
0.216849
0.0173783
0.216229
0.0227016
0.215476
0.0279166
0.214598
0.0330777
0.213605
0.0382322
0.212505
0.0434215
0.211308
0.0486816
0.210025
0.0540445
0.208668
0.059539
0.207248
0.0651915
0.20578
0.0710272
0.204281
0.0770706
0.202768
0.0833469
0.201265
0.0898829
0.199797
0.0967081
0.198396
0.103856
0.197105
0.111368
0.19598
0.119291
0.195099
0.127683
0.194574
0.136611
0.194578
0.146153
0.195372
0.156384
0.197368
0.167359
0.201177
0.179075
0.207567
0.191404
0.217196
0.204178
0.229771
0.217416
0.228539
0.24664
0.222951
0.00627027
0.22267
0.0121627
0.222261
0.0177869
0.221734
0.0232285
0.221098
0.0285529
0.220361
0.0338141
0.219534
0.0390589
0.218628
0.0443277
0.217654
0.0496557
0.216625
0.0550735
0.215556
0.0606083
0.214463
0.0662847
0.213364
0.0721255
0.212283
0.0781525
0.211242
0.084387
0.210274
0.090851
0.209415
0.0975675
0.20871
0.104562
0.208218
0.11186
0.208015
0.119494
0.208204
0.127494
0.208925
0.13589
0.210372
0.144706
0.212807
0.153949
0.216576
0.16359
0.222098
0.173554
0.229819
0.183683
0.240305
0.193691
0.254471
0.203251
0.210106
0.272903
0.228374
0.00638954
0.228144
0.012393
0.227811
0.0181199
0.227384
0.0236554
0.226872
0.0290644
0.226286
0.0344002
0.225636
0.0397086
0.224935
0.0450288
0.224197
0.0503945
0.223435
0.0558348
0.222669
0.0613748
0.221917
0.0670365
0.221203
0.07284
0.220552
0.078803
0.219996
0.0849425
0.219573
0.0912742
0.219327
0.0978134
0.219314
0.104575
0.219603
0.111571
0.220282
0.118815
0.221464
0.126312
0.223293
0.134061
0.225955
0.142045
0.229678
0.150225
0.234743
0.158525
0.241476
0.16682
0.250255
0.174904
0.261522
0.182424
0.275748
0.189025
0.193623
0.292231
0.233929
0.00648079
0.233753
0.0125688
0.233501
0.0183726
0.23318
0.0239763
0.2328
0.029444
0.232373
0.0348278
0.231909
0.0401721
0.231423
0.0455147
0.23093
0.0508876
0.230447
0.0563177
0.229994
0.0618277
0.229594
0.0674368
0.229273
0.0731614
0.229061
0.0790151
0.228993
0.0850096
0.229114
0.091154
0.229472
0.0974553
0.230129
0.103917
0.23116
0.110541
0.232655
0.11732
0.234726
0.124241
0.237509
0.131278
0.241167
0.138387
0.245892
0.1455
0.251903
0.152514
0.259442
0.159281
0.268749
0.165598
0.28
0.171173
0.293288
0.175737
0.178778
0.308133
0.23962
0.00654253
0.239501
0.0126872
0.239333
0.0185409
0.239123
0.0241861
0.238882
0.0296855
0.23862
0.0350899
0.23835
0.0404419
0.238087
0.0457777
0.237847
0.051127
0.237651
0.0565144
0.237518
0.06196
0.237475
0.0674798
0.237551
0.0730862
0.237777
0.0787886
0.238194
0.084593
0.238846
0.0905021
0.239786
0.0965149
0.241077
0.102626
0.242794
0.108824
0.245025
0.11509
0.247871
0.121395
0.251451
0.127697
0.255902
0.133936
0.261372
0.14003
0.268016
0.14587
0.275984
0.151314
0.285394
0.156188
0.29629
0.160277
0.308659
0.163367
0.165193
0.322244
0.245448
0.00657349
0.24539
0.0127458
0.245309
0.0186212
0.245215
0.0242803
0.245117
0.0297839
0.245025
0.0351809
0.244955
0.0405123
0.244921
0.0458119
0.24494
0.0511073
0.245034
0.0564206
0.245226
0.0617688
0.245541
0.0671646
0.24601
0.0726168
0.246669
0.0781302
0.247556
0.0837056
0.248718
0.0893397
0.250209
0.0950246
0.252088
0.100747
0.254426
0.106486
0.257302
0.112214
0.260806
0.117891
0.265034
0.123468
0.270092
0.128878
0.276086
0.134037
0.283114
0.138842
0.291258
0.14317
0.300563
0.146883
0.311018
0.149822
0.322555
0.15183
0.152776
0.334971
0.251418
0.00657265
0.251421
0.0127426
0.251431
0.018611
0.251456
0.0242557
0.251504
0.0297354
0.251588
0.0350971
0.251721
0.0403795
0.251919
0.0456141
0.2522
0.0508262
0.252586
0.0560351
0.253099
0.0612549
0.253769
0.0664951
0.254625
0.0717609
0.255702
0.0770528
0.257041
0.0823671
0.258685
0.0876954
0.260686
0.093024
0.263099
0.0983336
0.265987
0.103598
0.269418
0.108782
0.273465
0.113844
0.278205
0.118729
0.283711
0.123371
0.290054
0.127694
0.297289
0.131607
0.305449
0.13501
0.314537
0.137795
0.324506
0.139853
0.335258
0.141078
0.141413
0.346622
0.257532
0.00653926
0.257599
0.0126762
0.257701
0.0185082
0.257847
0.0241099
0.258045
0.0295377
0.258306
0.0348362
0.258644
0.0400417
0.259074
0.0451834
0.259617
0.050284
0.260291
0.0553602
0.261123
0.0604233
0.262138
0.0654797
0.263368
0.0705312
0.264846
0.0755749
0.26661
0.0806031
0.268702
0.0856036
0.271167
0.0905585
0.274056
0.0954445
0.277422
0.100232
0.28132
0.104884
0.285807
0.109357
0.290938
0.113598
0.296762
0.117548
0.303319
0.121137
0.310633
0.124293
0.318706
0.126937
0.32751
0.128991
0.336982
0.130381
0.347018
0.131043
0.130956
0.357474
0.263794
0.00647286
0.263924
0.0125458
0.264121
0.0183117
0.264389
0.0238418
0.264737
0.0291898
0.265176
0.0343976
0.265718
0.0394991
0.26638
0.0445212
0.267181
0.0494839
0.268139
0.0544014
0.26928
0.0592825
0.270629
0.0641307
0.272215
0.0689449
0.274071
0.0737194
0.27623
0.0784437
0.278731
0.0831026
0.281614
0.087676
0.28492
0.0921383
0.288693
0.0964589
0.292976
0.100601
0.297809
0.104524
0.30323
0.108178
0.309266
0.111511
0.315935
0.114468
0.323237
0.11699
0.331155
0.119019
0.339645
0.1205
0.348638
0.121388
0.358035
0.121646
0.121273
0.367718
0.270207
0.00637325
0.270401
0.012351
0.270692
0.0180212
0.271083
0.0234513
0.27158
0.0286919
0.272196
0.0337823
0.272941
0.0387541
0.273831
0.0436313
0.274883
0.0484318
0.276117
0.0531673
0.277555
0.0578442
0.279222
0.0624637
0.281144
0.0670226
0.283351
0.0715128
0.285873
0.0759219
0.288742
0.0802332
0.291993
0.0844253
0.295659
0.0884726
0.299772
0.0923451
0.304365
0.0960084
0.309465
0.0994244
0.315091
0.102552
0.321255
0.105347
0.32796
0.107764
0.335189
0.109761
0.342914
0.111295
0.351083
0.112331
0.359628
0.112843
0.368461
0.112813
0.112253
0.377481
0.276774
0.00624053
0.277032
0.0120921
0.277416
0.0176372
0.277928
0.0229393
0.278575
0.0280458
0.279364
0.0329933
0.280307
0.0378107
0.281419
0.0425198
0.282714
0.047136
0.284213
0.0516689
0.285934
0.0561229
0.2879
0.0604975
0.290135
0.0647875
0.292665
0.0689836
0.295514
0.0730724
0.298711
0.0770364
0.302282
0.0808546
0.306252
0.0845022
0.310646
0.0879513
0.315483
0.0911711
0.320779
0.0941285
0.326542
0.0967889
0.332771
0.0991173
0.339456
0.10108
0.346572
0.102644
0.354084
0.103783
0.361939
0.104476
0.370072
0.104709
0.378407
0.104478
0.103801
0.386859
0.283498
0.0060751
0.28382
0.0117698
0.284297
0.017161
0.284928
0.0223078
0.285719
0.0272545
0.286678
0.0320347
0.287814
0.0366748
0.289139
0.0411943
0.290669
0.0456066
0.292418
0.0499194
0.294406
0.0541353
0.296651
0.0582524
0.299174
0.0622646
0.301995
0.0661618
0.305137
0.0699302
0.308621
0.0735529
0.312466
0.0770097
0.31669
0.0802778
0.321309
0.0833324
0.326334
0.0861468
0.331769
0.0886932
0.337614
0.090944
0.343859
0.0928723
0.350485
0.0944532
0.357464
0.0956652
0.364756
0.0964914
0.372311
0.096921
0.38007
0.0969501
0.387966
0.0965822
0.0958377
0.395929
0.290384
0.00587757
0.290768
0.0113854
0.291335
0.0165946
0.292082
0.0215599
0.293015
0.0263221
0.294137
0.0309121
0.295458
0.0353538
0.296988
0.0396646
0.298739
0.0438558
0.300725
0.0479336
0.302961
0.0518995
0.305463
0.0557505
0.308247
0.0594799
0.311332
0.0630775
0.314732
0.06653
0.318463
0.0698213
0.32254
0.0729331
0.326972
0.0758453
0.331769
0.0785362
0.336932
0.0809837
0.342459
0.0831655
0.348343
0.0850601
0.354568
0.0866479
0.361109
0.0879116
0.367937
0.0888379
0.37501
0.0894178
0.382283
0.0896477
0.389704
0.08953
0.397213
0.0890729
0.0882975
0.404753
0.297435
0.00564881
0.297879
0.0109407
0.298533
0.0159408
0.299394
0.0206993
0.300462
0.0252537
0.301742
0.0296322
0.303239
0.0338563
0.304963
0.0379412
0.306922
0.0418967
0.309128
0.0457277
0.311593
0.0494347
0.314329
0.0530141
0.31735
0.0564593
0.320667
0.0597602
0.324292
0.0629046
0.328236
0.0658779
0.332505
0.0686638
0.337105
0.0712452
0.342038
0.073604
0.347299
0.0757223
0.352882
0.0775829
0.358772
0.07917
0.36495
0.0804698
0.37139
0.0814715
0.37806
0.0821678
0.384922
0.0825555
0.391934
0.082636
0.399048
0.0824156
0.406216
0.0819052
0.0811253
0.413388
0.304654
0.00538988
0.305157
0.0104377
0.305895
0.0152027
0.306864
0.0197305
0.308062
0.0240554
0.309492
0.0282027
0.311156
0.0321917
0.313062
0.0360358
0.315215
0.0397433
0.317625
0.0433182
0.320299
0.0467602
0.323248
0.0500656
0.326479
0.053228
0.330001
0.0562381
0.333821
0.0590848
0.337943
0.0617555
0.342371
0.0642362
0.347104
0.0665126
0.352137
0.0685702
0.357464
0.0703952
0.363073
0.0719748
0.368945
0.0732979
0.375059
0.0743558
0.381388
0.0751423
0.387901
0.0756549
0.394562
0.0758943
0.401333
0.0758653
0.408172
0.0755764
0.415038
0.0750396
0.0742745
0.421888
0.312046
0.00510199
0.312605
0.00987885
0.313424
0.0143839
0.314496
0.0186586
0.315818
0.0227335
0.317389
0.0266317
0.31921
0.0303701
0.321285
0.0339606
0.323619
0.0374101
0.326215
0.0407219
0.32908
0.0438952
0.332219
0.0469266
0.335637
0.04981
0.339338
0.0525372
0.343324
0.0550986
0.347596
0.0574833
0.352152
0.05968
0.356988
0.061677
0.362095
0.0634632
0.367462
0.0650283
0.373073
0.0663633
0.37891
0.067461
0.38495
0.0683166
0.391164
0.0689277
0.397524
0.0692948
0.403997
0.0694216
0.410547
0.0693147
0.41714
0.0689839
0.423738
0.0684413
0.0677051
0.430308
0.319615
0.00478646
0.320227
0.00926672
0.321123
0.0134884
0.322292
0.0174887
0.323731
0.0212951
0.325435
0.0249279
0.327403
0.028402
0.329636
0.0317279
0.332134
0.0349114
0.334901
0.0379551
0.337938
0.0408582
0.341247
0.0436174
0.34483
0.0462274
0.348686
0.0486812
0.352814
0.0509706
0.35721
0.0530867
0.36187
0.0550203
0.366784
0.0567627
0.371942
0.0583053
0.37733
0.059641
0.382929
0.060764
0.38872
0.0616702
0.394679
0.0623577
0.40078
0.0628267
0.406994
0.0630801
0.413293
0.0631232
0.419644
0.0629637
0.426016
0.0626116
0.432378
0.062079
0.0613822
0.438701
0.327365
0.00444465
0.328028
0.00860401
0.328996
0.0125203
0.330258
0.0162266
0.331806
0.0197471
0.333634
0.0230998
0.335738
0.0262977
0.338117
0.0293497
0.340767
0.032261
0.343689
0.0350334
0.346881
0.0376663
0.350341
0.0401568
0.354068
0.0425003
0.358059
0.0446909
0.362307
0.0467221
0.366807
0.0485867
0.37155
0.0502778
0.376524
0.0517886
0.381715
0.0531134
0.387109
0.0542473
0.392686
0.0551872
0.398425
0.0559312
0.404303
0.0564797
0.410295
0.0568347
0.416375
0.0570005
0.422515
0.0569834
0.428687