/*--------------------------------*- C++ -*----------------------------------*\
  =========                 |
  \\      /  F ield         | OpenFOAM: The Open Source CFD Toolbox
   \\    /   O peration     | Website:  https://openfoam.org
    \\  /    A nd           | Version:  7
     \\/     M anipulation  |
\*---------------------------------------------------------------------------*/
FoamFile
{
    version     2.0;
    format      ascii;
    class       volVectorField;
    location    "2.7";
    object      U;
}
// * * * * * * * * * * * * * * * * * * * * * * * * * * * * * * * * * * * * * //

dimensions      [0 1 -1 0 0 0 0];

internalField   nonuniform List<vector> 
2790
(
(9.94399 0.0205243 0)
(9.87571 0.0295901 0)
(9.77519 0.0359932 0)
(9.6494 0.0425612 0)
(9.50403 0.0493917 0)
(9.33999 0.0564357 0)
(9.15644 0.0638243 0)
(8.95249 0.0717209 0)
(8.7273 0.0802652 0)
(8.47988 0.089584 0)
(8.20904 0.0998042 0)
(7.91339 0.111056 0)
(7.5914 0.123471 0)
(7.24147 0.137175 0)
(6.862 0.152282 0)
(6.45145 0.168878 0)
(6.00853 0.187004 0)
(5.53233 0.206623 0)
(5.02262 0.227592 0)
(4.48011 0.249611 0)
(3.90683 0.272173 0)
(3.30653 0.294519 0)
(2.68501 0.31561 0)
(2.05039 0.334276 0)
(1.4116 0.350591 0)
(0.797885 0.37287 0)
(0.110535 0.324972 0)
(-0.469531 -0.114874 0)
(-0.453777 -0.297088 0)
(-0.231148 -0.423815 0)
(9.9985 0.0407066 0)
(9.98145 0.0623902 0)
(9.93572 0.0791513 0)
(9.86413 0.0966396 0)
(9.77091 0.115142 0)
(9.65707 0.134509 0)
(9.52195 0.154999 0)
(9.36471 0.176969 0)
(9.18455 0.200735 0)
(8.98047 0.226578 0)
(8.7513 0.254773 0)
(8.49563 0.285589 0)
(8.21192 0.319276 0)
(7.89851 0.356047 0)
(7.55371 0.396041 0)
(7.17585 0.439279 0)
(6.76343 0.485603 0)
(6.3153 0.534592 0)
(5.8309 0.58546 0)
(5.31054 0.636944 0)
(4.75583 0.687186 0)
(4.17011 0.733622 0)
(3.55903 0.772921 0)
(2.93132 0.801055 0)
(2.29975 0.813707 0)
(1.6928 0.807209 0)
(1.10702 0.747189 0)
(0.658813 0.547868 0)
(0.186309 0.224519 0)
(-0.00819167 -0.453747 0)
(9.99559 0.0432131 0)
(9.97555 0.0752841 0)
(9.93178 0.103365 0)
(9.86486 0.132396 0)
(9.77772 0.16309 0)
(9.67147 0.195434 0)
(9.54577 0.229783 0)
(9.4 0.266647 0)
(9.23349 0.306517 0)
(9.04544 0.349855 0)
(8.83486 0.39712 0)
(8.60056 0.448768 0)
(8.34117 0.505235 0)
(8.0552 0.566902 0)
(7.74105 0.634043 0)
(7.39711 0.706755 0)
(7.02176 0.784851 0)
(6.61361 0.867726 0)
(6.1716 0.954185 0)
(5.69531 1.04223 0)
(5.18531 1.12885 0)
(4.64367 1.20974 0)
(4.07453 1.2791 0)
(3.48515 1.32927 0)
(2.88665 1.35001 0)
(2.29931 1.32635 0)
(1.73172 1.22069 0)
(1.21617 0.972929 0)
(0.701085 0.570081 0)
(0.357993 -0.156642 0)
(9.99403 0.0495078 0)
(9.9718 0.0932236 0)
(9.92786 0.133598 0)
(9.86221 0.174244 0)
(9.77688 0.216476 0)
(9.6729 0.260711 0)
(9.55021 0.307486 0)
(9.40835 0.357476 0)
(9.24686 0.411355 0)
(9.06513 0.469771 0)
(8.86246 0.533367 0)
(8.63794 0.602786 0)
(8.39056 0.67865 0)
(8.11921 0.761526 0)
(7.82267 0.851862 0)
(7.49967 0.949904 0)
(7.1489 1.05556 0)
(6.7691 1.16824 0)
(6.35915 1.28659 0)
(5.91827 1.40823 0)
(5.44622 1.52941 0)
(4.94371 1.64461 0)
(4.41291 1.74606 0)
(3.85804 1.82312 0)
(3.28563 1.86126 0)
(2.70625 1.84021 0)
(2.12553 1.72589 0)
(1.55418 1.47776 0)
(0.957901 1.0836 0)
(0.509407 0.502234 0)
(9.99331 0.0572246 0)
(9.96993 0.110981 0)
(9.92591 0.162138 0)
(9.86142 0.213392 0)
(9.77793 0.266412 0)
(9.67627 0.321978 0)
(9.55643 0.380774 0)
(9.41808 0.443566 0)
(9.2608 0.511139 0)
(9.08413 0.584255 0)
(8.88747 0.663671 0)
(8.67012 0.750143 0)
(8.4313 0.844408 0)
(8.17014 0.947148 0)
(7.88574 1.05893 0)
(7.57713 1.18011 0)
(7.24331 1.3107 0)
(6.88325 1.45018 0)
(6.49593 1.5972 0)
(6.08039 1.74927 0)
(5.63584 1.90234 0)
(5.16182 2.05022 0)
(4.65851 2.18406 0)
(4.12699 2.29161 0)
(3.56922 2.35642 0)
(2.98874 2.35718 0)
(2.38673 2.26481 0)
(1.76632 2.04751 0)
(1.08995 1.69127 0)
(0.536634 1.15403 0)
(9.99302 0.0655522 0)
(9.96922 0.128729 0)
(9.92554 0.190155 0)
(9.86249 0.251898 0)
(9.78122 0.315646 0)
(9.68236 0.382398 0)
(9.56589 0.452963 0)
(9.43157 0.528197 0)
(9.27903 0.608981 0)
(9.10785 0.696188 0)
(8.91753 0.790682 0)
(8.70746 0.893322 0)
(8.47698 1.00495 0)
(8.22534 1.12633 0)
(7.9518 1.25815 0)
(7.65552 1.40085 0)
(7.33565 1.55456 0)
(6.99126 1.71885 0)
(6.62131 1.89252 0)
(6.22465 2.07316 0)
(5.79994 2.25675 0)
(5.34573 2.43708 0)
(4.86044 2.60505 0)
(4.34247 2.74806 0)
(3.79021 2.84937 0)
(3.20243 2.88802 0)
(2.57647 2.83805 0)
(1.9134 2.67144 0)
(1.17271 2.37384 0)
(0.549953 1.89425 0)
(9.99297 0.074091 0)
(9.96926 0.146347 0)
(9.92635 0.217532 0)
(9.86504 0.289357 0)
(9.78636 0.363436 0)
(9.69076 0.440921 0)
(9.57823 0.522766 0)
(9.44856 0.609926 0)
(9.30146 0.703376 0)
(9.13656 0.804089 0)
(8.95339 0.913023 0)
(8.75141 1.03113 0)
(8.53002 1.15933 0)
(8.28853 1.29849 0)
(8.02622 1.44937 0)
(7.7423 1.61253 0)
(7.43589 1.78821 0)
(7.106 1.97615 0)
(6.7514 2.17536 0)
(6.37062 2.38373 0)
(5.96174 2.59762 0)
(5.52231 2.81123 0)
(5.04924 3.01597 0)
(4.53877 3.19976 0)
(3.98647 3.34646 0)
(3.38777 3.43575 0)
(2.73716 3.4431 0)
(2.03618 3.3413 0)
(1.24172 3.11339 0)
(0.563504 2.69298 0)
(9.99306 0.0826068 0)
(9.9698 0.163644 0)
(9.92805 0.244107 0)
(9.86881 0.325556 0)
(9.79306 0.40954 0)
(9.70117 0.497316 0)
(9.59311 0.589962 0)
(9.46872 0.68853 0)
(9.32777 0.794082 0)
(9.16992 0.907675 0)
(8.99476 1.03036 0)
(8.8018 1.16318 0)
(8.59048 1.30714 0)
(8.36014 1.4632 0)
(8.11005 1.63224 0)
(7.83939 1.81493 0)
(7.54718 2.01169 0)
(7.23223 2.2225 0)
(6.89307 2.44668 0)
(6.52775 2.68259 0)
(6.13369 2.92721 0)
(5.70749 3.17558 0)
(5.24466 3.42014 0)
(4.73953 3.64995 0)
(4.18529 3.84997 0)
(3.57462 4.00062 0)
(2.89943 4.07765 0)
(2.16207 4.05215 0)
(1.3161 3.90149 0)
(0.583216 3.53997 0)
(9.99326 0.0909497 0)
(9.97071 0.180452 0)
(9.93044 0.269733 0)
(9.87358 0.360328 0)
(9.80111 0.453754 0)
(9.71334 0.551335 0)
(9.61025 0.654253 0)
(9.49172 0.76365 0)
(9.35756 0.880668 0)
(9.2075 1.00645 0)
(9.04118 1.14213 0)
(8.85816 1.28883 0)
(8.65792 1.44767 0)
(8.43982 1.61972 0)
(8.20315 1.80597 0)
(7.94701 2.00728 0)
(7.67031 2.22428 0)
(7.37168 2.45727 0)
(7.04932 2.70599 0)
(6.70081 2.96945 0)
(6.32291 3.24549 0)
(5.91125 3.53031 0)
(5.46002 3.8178 0)
(4.96173 4.09868 0)
(4.4072 4.35954 0)
(3.78627 4.58178 0)
(3.0875 4.74077 0)
(2.31268 4.80419 0)
(1.41064 4.74086 0)
(0.614315 4.44173 0)
(9.99352 0.0990163 0)
(9.9719 0.196628 0)
(9.93338 0.294269 0)
(9.8792 0.393515 0)
(9.81033 0.495877 0)
(9.72707 0.60273 0)
(9.6294 0.715343 0)
(9.51725 0.834937 0)
(9.39048 0.962731 0)
(9.24888 1.09994 0)
(9.09216 1.24778 0)
(8.91994 1.40748 0)
(8.73175 1.58024 0)
(8.527 1.76726 0)
(8.30498 1.96968 0)
(8.06477 2.18857 0)
(7.80521 2.42484 0)
(7.52477 2.67916 0)
(7.22138 2.95186 0)
(6.89225 3.24269 0)
(6.53354 3.55059 0)
(6.14002 3.87323 0)
(5.70466 4.20638 0)
(5.21817 4.54301 0)
(4.66877 4.87204 0)
(4.04273 5.17657 0)
(3.32364 5.43194 0)
(2.50977 5.60166 0)
(1.5419 5.64326 0)
(0.664082 5.41787 0)
(9.99384 0.106731 0)
(9.97329 0.212055 0)
(9.93677 0.317585 0)
(9.88554 0.424965 0)
(9.82057 0.535724 0)
(9.74215 0.65128 0)
(9.65031 0.772968 0)
(9.54501 0.902083 0)
(9.42616 1.03991 0)
(9.29364 1.18774 0)
(9.14722 1.34685 0)
(8.98659 1.51857 0)
(8.81135 1.70419 0)
(8.62098 1.90505 0)
(8.41483 2.12246 0)
(8.192 2.35771 0)
(7.95132 2.61203 0)
(7.6912 2.88654 0)
(7.40946 3.18222 0)
(7.10305 3.49972 0)
(6.76778 3.83925 0)
(6.39781 4.20024 0)
(5.9851 4.5808 0)
(5.51872 4.97688 0)
(4.98412 5.38083 0)
(4.36313 5.77906 0)
(3.63188 6.14869 0)
(2.78018 6.45031 0)
(1.73355 6.62828 0)
(0.744893 6.50298 0)
(9.9942 0.114036 0)
(9.97486 0.226635 0)
(9.94053 0.339565 0)
(9.89247 0.454545 0)
(9.83166 0.573134 0)
(9.75841 0.696786 0)
(9.67275 0.826895 0)
(9.5747 0.964814 0)
(9.46426 1.11189 0)
(9.34135 1.26946 0)
(9.20584 1.4389 0)
(9.05749 1.62158 0)
(8.89602 1.81892 0)
(8.72099 2.03237 0)
(8.53185 2.26342 0)
(8.32779 2.51358 0)
(8.10774 2.78443 0)
(7.87017 3.07758 0)
(7.61295 3.39466 0)
(7.33306 3.73734 0)
(7.02627 4.1072 0)
(6.68653 4.50568 0)
(6.30534 4.93366 0)
(5.87064 5.39091 0)
(5.36547 5.87475 0)
(4.76674 6.37762 0)
(4.04073 6.88265 0)
(3.16161 7.35307 0)
(2.02495 7.723 0)
(0.880867 7.75711 0)
(9.99459 0.120886 0)
(9.97656 0.240291 0)
(9.94459 0.360108 0)
(9.89991 0.482134 0)
(9.84349 0.607962 0)
(9.77565 0.739078 0)
(9.69648 0.87692 0)
(9.60605 1.02289 0)
(9.5044 1.17838 0)
(9.39157 1.34479 0)
(9.26748 1.52354 0)
(9.13203 1.71606 0)
(8.98503 1.92388 0)
(8.82618 2.14854 0)
(8.65506 2.3917 0)
(8.47105 2.6551 0)
(8.27325 2.94064 0)
(8.06036 3.25038 0)
(7.83051 3.58664 0)
(7.58102 3.95202 0)
(7.30802 4.34957 0)
(7.00591 4.78276 0)
(6.66655 5.25557 0)
(6.27792 5.7723 0)
(5.82206 6.33694 0)
(5.2723 6.95161 0)
(4.58459 7.61288 0)
(3.71027 8.30036 0)
(2.48861 8.95806 0)
(1.12477 9.29356 0)
(9.99501 0.127247 0)
(9.97837 0.252957 0)
(9.94888 0.379131 0)
(9.90775 0.507633 0)
(9.85591 0.64009 0)
(9.79371 0.778017 0)
(9.72128 0.922884 0)
(9.63874 1.07613 0)
(9.54623 1.23918 0)
(9.44383 1.41348 0)
(9.3316 1.60048 0)
(9.20954 1.80168 0)
(9.07758 2.01864 0)
(8.9356 2.25304 0)
(8.78337 2.50664 0)
(8.62049 2.78139 0)
(8.44635 3.07944 0)
(8.26001 3.40326 0)
(8.0601 3.75575 0)
(7.84457 4.14036 0)
(7.61041 4.5614 0)
(7.35319 5.02428 0)
(7.06631 5.53593 0)
(6.73968 6.10537 0)
(6.35738 6.74431 0)
(5.89381 7.46787 0)
(5.3009 8.29527 0)
(4.50943 9.24714 0)
(3.26972 10.3417 0)
(1.60571 11.3603 0)
(9.99544 0.13309 0)
(9.98025 0.264583 0)
(9.95336 0.396561 0)
(9.91591 0.530948 0)
(9.8688 0.669397 0)
(9.81242 0.813447 0)
(9.74693 0.964591 0)
(9.67252 1.12429 0)
(9.58938 1.294 0)
(9.49771 1.47518 0)
(9.39766 1.66931 0)
(9.28934 1.87793 0)
(9.17287 2.10264 0)
(9.04828 2.34518 0)
(8.91558 2.6074 0)
(8.77465 2.89138 0)
(8.62526 3.19947 0)
(8.46694 3.53443 0)
(8.29899 3.89956 0)
(8.12027 4.29895 0)
(7.92909 4.73782 0)
(7.72289 5.22301 0)
(7.49785 5.76374 0)
(7.24811 6.37284 0)
(6.96419 7.06877 0)
(6.63063 7.87937 0)
(6.21468 8.85015 0)
(5.66698 10.0643 0)
(4.69233 11.7304 0)
(2.68934 14.5956 0)
(0.16451 -0.17342 0)
(0.372954 -0.152775 0)
(0.591384 -0.124556 0)
(0.783397 -0.100303 0)
(0.943697 -0.0810463 0)
(1.07795 -0.0658906 0)
(1.19246 -0.0539586 0)
(1.29172 -0.0445508 0)
(1.37882 -0.0370621 0)
(1.4559 -0.0309908 0)
(1.52455 -0.0259688 0)
(1.58589 -0.0217211 0)
(1.64072 -0.0179302 0)
(1.68909 -0.0140967 0)
(1.72982 -0.00966135 0)
(1.76055 -0.00452074 0)
(1.77939 0.000625291 0)
(1.78698 0.00457978 0)
(1.7859 0.00658182 0)
(1.77819 0.0073731 0)
(1.7647 0.00762028 0)
(1.74727 0.00720349 0)
(1.73052 0.00608667 0)
(1.72034 0.00448572 0)
(1.72171 0.00212052 0)
(1.73629 -0.000635125 0)
(1.76337 -0.00372355 0)
(1.80172 -0.00718073 0)
(1.84926 -0.010485 0)
(1.91263 -0.0114882 0)
(0.126744 -0.368974 0)
(0.324569 -0.339736 0)
(0.520298 -0.284509 0)
(0.694765 -0.234631 0)
(0.843737 -0.194562 0)
(0.971867 -0.162934 0)
(1.08415 -0.138024 0)
(1.18416 -0.118362 0)
(1.27434 -0.102631 0)
(1.35639 -0.0897438 0)
(1.43149 -0.0789508 0)
(1.50054 -0.0697769 0)
(1.5644 -0.0616639 0)
(1.62381 -0.0534689 0)
(1.67865 -0.0436719 0)
(1.72725 -0.0319293 0)
(1.76709 -0.020093 0)
(1.79727 -0.0103354 0)
(1.82066 -0.00159413 0)
(1.8403 0.00745402 0)
(1.85407 0.0131879 0)
(1.86165 0.0137895 0)
(1.86747 0.00874063 0)
(1.87524 -0.000393334 0)
(1.88397 -0.0109847 0)
(1.89464 -0.0211337 0)
(1.9069 -0.0300737 0)
(1.92019 -0.0370271 0)
(1.93503 -0.0408692 0)
(1.95859 -0.038236 0)
(0.0922284 -0.566743 0)
(0.255427 -0.527992 0)
(0.403337 -0.446939 0)
(0.536182 -0.372708 0)
(0.648923 -0.312704 0)
(0.745804 -0.265003 0)
(0.830412 -0.227147 0)
(0.905294 -0.196954 0)
(0.972256 -0.172462 0)
(1.03251 -0.152053 0)
(1.08677 -0.134673 0)
(1.13546 -0.119874 0)
(1.17919 -0.107314 0)
(1.21916 -0.0954111 0)
(1.25639 -0.0807905 0)
(1.29003 -0.0613939 0)
(1.31688 -0.0415036 0)
(1.33283 -0.0300278 0)
(1.34396 -0.025636 0)
(1.35143 -0.0191952 0)
(1.33991 -0.00884833 0)
(1.30848 -0.00143977 0)
(1.25833 0.000153034 0)
(1.19681 -0.00279052 0)
(1.13493 -0.00685803 0)
(1.07933 -0.0103467 0)
(1.03706 -0.0129007 0)
(1.00151 -0.017001 0)
(0.980349 -0.0222084 0)
(0.988234 -0.0282843 0)
(0.0610385 -0.710141 0)
(0.180153 -0.65541 0)
(0.269987 -0.551756 0)
(0.35358 -0.459412 0)
(0.421142 -0.385145 0)
(0.477769 -0.326008 0)
(0.525352 -0.279027 0)
(0.565403 -0.241495 0)
(0.599169 -0.210954 0)
(0.627528 -0.185288 0)
(0.650811 -0.163016 0)
(0.668738 -0.143607 0)
(0.680771 -0.127383 0)
(0.687455 -0.114013 0)
(0.692082 -0.10054 0)
(0.697316 -0.0837635 0)
(0.70506 -0.0592593 0)
(0.679051 -0.0290743 0)
(0.601982 -0.0041189 0)
(0.522593 0.0180069 0)
(0.466673 0.0421083 0)
(0.411557 0.0589513 0)
(0.355471 0.0655729 0)
(0.30109 0.0614225 0)
(0.252724 0.0473302 0)
(0.214715 0.0265571 0)
(0.200433 0.00461041 0)
(0.207231 -0.0154334 0)
(0.227493 -0.0388965 0)
(0.273976 -0.0618034 0)
(0.0296554 -0.802601 0)
(0.096558 -0.726841 0)
(0.120915 -0.604236 0)
(0.150457 -0.500103 0)
(0.165951 -0.416248 0)
(0.174974 -0.349192 0)
(0.177337 -0.295773 0)
(0.173801 -0.253032 0)
(0.16518 -0.218299 0)
(0.152272 -0.189154 0)
(0.135565 -0.163568 0)
(0.114823 -0.140107 0)
(0.0881617 -0.117942 0)
(0.0469754 -0.0962732 0)
(-0.00773479 -0.0720687 0)
(-0.0711749 -0.0413208 0)
(-0.142597 -0.0028455 0)
(-0.182847 0.0310526 0)
(-0.214956 0.0503434 0)
(-0.248176 0.0594933 0)
(-0.276575 0.0680313 0)
(-0.302551 0.0756222 0)
(-0.323587 0.0757627 0)
(-0.339075 0.0659481 0)
(-0.349353 0.047275 0)
(-0.355526 0.0227826 0)
(-0.35524 -0.00333258 0)
(-0.3441 -0.0277438 0)
(-0.334042 -0.0511783 0)
(-0.327218 -0.068931 0)
(-0.00390669 -0.834857 0)
(0.00365621 -0.735044 0)
(-0.0399983 -0.596956 0)
(-0.0692601 -0.486183 0)
(-0.110455 -0.396368 0)
(-0.154668 -0.32462 0)
(-0.203274 -0.267339 0)
(-0.255747 -0.221182 0)
(-0.311745 -0.183157 0)
(-0.370758 -0.150799 0)
(-0.431818 -0.122163 0)
(-0.493321 -0.0958581 0)
(-0.553615 -0.0711976 0)
(-0.61173 -0.0482023 0)
(-0.666339 -0.0269607 0)
(-0.71536 -0.00619046 0)
(-0.749251 0.0136093 0)
(-0.773442 0.0344292 0)
(-0.794332 0.0546136 0)
(-0.811513 0.0687349 0)
(-0.824155 0.0770599 0)
(-0.831552 0.0811441 0)
(-0.833695 0.0781368 0)
(-0.832123 0.0665 0)
(-0.829132 0.0470574 0)
(-0.826598 0.0224662 0)
(-0.82448 -0.00377736 0)
(-0.820218 -0.0301933 0)
(-0.819746 -0.0538927 0)
(-0.822331 -0.0716338 0)
(-0.0437828 -0.798901 0)
(-0.100515 -0.675169 0)
(-0.207279 -0.532307 0)
(-0.299428 -0.420116 0)
(-0.3957 -0.330342 0)
(-0.490476 -0.259381 0)
(-0.583089 -0.203447 0)
(-0.672194 -0.159311 0)
(-0.756626 -0.124017 0)
(-0.835553 -0.095154 0)
(-0.908488 -0.0708323 0)
(-0.975005 -0.0496721 0)
(-1.03462 -0.0307928 0)
(-1.0872 -0.013537 0)
(-1.13132 0.00265777 0)
(-1.16521 0.0185444 0)
(-1.19186 0.0345589 0)
(-1.21221 0.0502535 0)
(-1.22662 0.0639783 0)
(-1.23573 0.0739855 0)
(-1.23979 0.0796846 0)
(-1.23891 0.0807799 0)
(-1.23396 0.0756286 0)
(-1.2269 0.0632233 0)
(-1.2201 0.0441432 0)
(-1.21537 0.0204129 0)
(-1.21312 -0.00524141 0)
(-1.2125 -0.0305383 0)
(-1.21611 -0.054053 0)
(-1.22074 -0.0715546 0)
(-0.0892151 -0.695226 0)
(-0.207115 -0.553452 0)
(-0.375106 -0.412645 0)
(-0.523841 -0.305828 0)
(-0.665571 -0.224414 0)
(-0.796054 -0.162742 0)
(-0.914724 -0.11593 0)
(-1.02162 -0.0805253 0)
(-1.11693 -0.0537796 0)
(-1.20103 -0.0333489 0)
(-1.27464 -0.0173646 0)
(-1.33697 -0.00457053 0)
(-1.38929 0.00640471 0)
(-1.43262 0.0164275 0)
(-1.46889 0.0263542 0)
(-1.49948 0.0370422 0)
(-1.52391 0.0486309 0)
(-1.54175 0.0600549 0)
(-1.55319 0.0696708 0)
(-1.55891 0.0762374 0)
(-1.55957 0.0791381 0)
(-1.55586 0.0778146 0)
(-1.54902 0.0712119 0)
(-1.54098 0.058657 0)
(-1.53386 0.040554 0)
(-1.52939 0.0184471 0)
(-1.52833 -0.00551322 0)
(-1.53076 -0.029448 0)
(-1.5372 -0.0519173 0)
(-1.54269 -0.0682605 0)
(-0.140862 -0.52576 0)
(-0.318197 -0.37605 0)
(-0.541628 -0.248722 0)
(-0.737037 -0.157717 0)
(-0.91323 -0.0914622 0)
(-1.06732 -0.0445561 0)
(-1.19706 -0.0141489 0)
(-1.30548 0.00519667 0)
(-1.39645 0.0175894 0)
(-1.47318 0.025679 0)
(-1.53807 0.0312029 0)
(-1.59439 0.0356536 0)
(-1.64311 0.0398094 0)
(-1.68491 0.0441811 0)
(-1.72027 0.0492071 0)
(-1.74938 0.0551865 0)
(-1.7722 0.0619987 0)
(-1.78866 0.0688233 0)
(-1.79903 0.0743836 0)
(-1.80387 0.0776089 0)
(-1.80395 0.0778508 0)
(-1.80023 0.0745426 0)
(-1.7941 0.0669389 0)
(-1.78737 0.0545425 0)
(-1.7819 0.037606 0)
(-1.77931 0.0172938 0)
(-1.78058 -0.00470705 0)
(-1.78627 -0.0269004 0)
(-1.79543 -0.0478409 0)
(-1.80175 -0.0626619 0)
(-0.203751 -0.305651 0)
(-0.45077 -0.155514 0)
(-0.725088 -0.0297294 0)
(-0.940373 0.0337413 0)
(-1.11871 0.0652399 0)
(-1.26489 0.0787058 0)
(-1.38788 0.0838613 0)
(-1.49252 0.0846962 0)
(-1.58184 0.0831265 0)
(-1.65832 0.0804484 0)
(-1.72401 0.0775512 0)
(-1.78044 0.0748862 0)
(-1.82871 0.0727027 0)
(-1.86962 0.0713393 0)
(-1.90374 0.0711797 0)
(-1.93155 0.0724054 0)
(-1.95331 0.0747252 0)
(-1.96927 0.0773177 0)
(-1.97968 0.0791023 0)
(-1.98504 0.0791797 0)
(-1.98608 0.0769771 0)
(-1.98388 0.0720206 0)
(-1.9799 0.0637476 0)
(-1.97581 0.0517227 0)
(-1.97325 0.0360413 0)
(-1.97365 0.017564 0)
(-1.9781 -0.00239227 0)
(-1.98735 -0.0228005 0)
(-1.9993 -0.0420994 0)
(-2.00656 -0.0555158 0)
(-0.266972 0.0657931 0)
(-0.54578 0.177272 0)
(-0.829805 0.204984 0)
(-1.05451 0.213443 0)
(-1.24067 0.208249 0)
(-1.39456 0.196162 0)
(-1.52219 0.181263 0)
(-1.62858 0.165612 0)
(-1.71787 0.150359 0)
(-1.79329 0.136344 0)
(-1.85743 0.124108 0)
(-1.91223 0.113695 0)
(-1.95892 0.104875 0)
(-1.99826 0.0976462 0)
(-2.03088 0.0922808 0)
(-2.05746 0.0889084 0)
(-2.0786 0.0871125 0)
(-2.09467 0.0859561 0)
(-2.10594 0.0843757 0)
(-2.11273 0.0815935 0)
(-2.11568 0.0771991 0)
(-2.11591 0.070893 0)
(-2.11492 0.0622432 0)
(-2.1143 0.0507861 0)
(-2.11544 0.0364116 0)
(-2.11961 0.0196765 0)
(-2.12805 0.00159128 0)
(-2.14084 -0.0170254 0)
(-2.15571 -0.0347043 0)
(-2.16404 -0.0469632 0)
(-0.288471 0.434862 0)
(-0.597864 0.477414 0)
(-0.915396 0.451243 0)
(-1.15762 0.409208 0)
(-1.35024 0.363263 0)
(-1.50397 0.319114 0)
(-1.62826 0.279618 0)
(-1.73031 0.245331 0)
(-1.81509 0.215563 0)
(-1.88611 0.189993 0)
(-1.94627 0.168611 0)
(-1.99783 0.150837 0)
(-2.04203 0.135712 0)
(-2.07934 0.122818 0)
(-2.11026 0.112451 0)
(-2.13566 0.104851 0)
(-2.15649 0.0994866 0)
(-2.17326 0.0951645 0)
(-2.18608 0.0906772 0)
(-2.195 0.0853299 0)
(-2.20052 0.0789627 0)
(-2.20374 0.0715444 0)
(-2.20623 0.0627665 0)
(-2.20955 0.0520578 0)
(-2.21487 0.0390253 0)
(-2.22322 0.0238932 0)
(-2.23579 0.00744348 0)
(-2.25274 -0.00944849 0)
(-2.27079 -0.025591 0)
(-2.28034 -0.0369099 0)
(-0.331998 0.857147 0)
(-0.689381 0.835447 0)
(-1.0343 0.72043 0)
(-1.27653 0.60861 0)
(-1.4595 0.514774 0)
(-1.60063 0.43594 0)
(-1.71219 0.371266 0)
(-1.80318 0.31909 0)
(-1.87892 0.27571 0)
(-1.94229 0.239219 0)
(-1.99616 0.209504 0)
(-2.04317 0.185413 0)
(-2.08434 0.164803 0)
(-2.11942 0.146651 0)
(-2.1485 0.131569 0)
(-2.17272 0.120257 0)
(-2.19353 0.112068 0)
(-2.21159 0.1053 0)
(-2.22669 0.0983941 0)
(-2.23841 0.0907235 0)
(-2.24695 0.0825178 0)
(-2.25348 0.074159 0)
(-2.25973 0.0654826 0)
(-2.26729 0.0557162 0)
(-2.27714 0.0440789 0)
(-2.29005 0.0304517 0)
(-2.30716 0.0154883 0)
(-2.32867 9.04879e-05 0)
(-2.35002 -0.0146631 0)
(-2.361 -0.0251582 0)
(-0.419341 1.35887 0)
(-0.850128 1.24231 0)
(-1.21238 0.99464 0)
(-1.42503 0.790636 0)
(-1.57451 0.648368 0)
(-1.68826 0.536245 0)
(-1.77653 0.448512 0)
(-1.84951 0.382313 0)
(-1.91236 0.328362 0)
(-1.96545 0.282183 0)
(-2.01089 0.245398 0)
(-2.05228 0.216839 0)
(-2.09046 0.19217 0)
(-2.12359 0.169264 0)
(-2.15078 0.14965 0)
(-2.17369 0.135232 0)
(-2.19472 0.125234 0)
(-2.21477 0.116941 0)
(-2.23301 0.108124 0)
(-2.24822 0.0982512 0)
(-2.26018 0.0881846 0)
(-2.27017 0.0789598 0)
(-2.2803 0.0706062 0)
(-2.29234 0.0620112 0)
(-2.30708 0.0518469 0)
(-2.32492 0.0395997 0)
(-2.34681 0.0258709 0)
(-2.37301 0.0117474 0)
(-2.39815 -0.00170176 0)
(-2.41072 -0.0113999 0)
(-0.603648 2.2363 0)
(-1.12112 1.84957 0)
(-1.4888 1.28423 0)
(-1.61649 0.905525 0)
(-1.69391 0.738943 0)
(-1.76558 0.611109 0)
(-1.81956 0.506309 0)
(-1.86765 0.432102 0)
(-1.91599 0.371902 0)
(-1.95765 0.31639 0)
(-1.9924 0.273996 0)
(-2.02724 0.244465 0)
(-2.06339 0.218336 0)
(-2.09566 0.191049 0)
(-2.12101 0.166466 0)
(-2.14219 0.149456 0)
(-2.16364 0.139046 0)
(-2.18666 0.130445 0)
(-2.20923 0.120205 0)
(-2.22878 0.108014 0)
(-2.24445 0.0957936 0)
(-2.25786 0.0856455 0)
(-2.27184 0.0778821 0)
(-2.28856 0.0708118 0)
(-2.30855 0.0622938 0)
(-2.33167 0.0513225 0)
(-2.3585 0.0385288 0)
(-2.38939 0.0254603 0)
(-2.41873 0.0134436 0)
(-2.43331 0.00472153 0)
(9.9959 0.138488 0)
(9.98224 0.275324 0)
(9.95808 0.412654 0)
(9.92448 0.552446 0)
(9.88234 0.696376 0)
(9.83205 0.845995 0)
(9.77383 1.00281 0)
(9.70794 1.1683 0)
(9.63466 1.34391 0)
(9.55426 1.53112 0)
(9.46701 1.73142 0)
(9.37318 1.94636 0)
(9.27302 2.17755 0)
(9.16681 2.42674 0)
(9.05478 2.69585 0)
(8.93717 2.98699 0)
(8.81415 3.30264 0)
(8.68588 3.64566 0)
(8.55243 4.01958 0)
(8.4138 4.42877 0)
(8.26992 4.87885 0)
(8.1207 5.37729 0)
(7.96609 5.93425 0)
(7.8064 6.56408 0)
(7.64287 7.28785 0)
(7.48055 8.13815 0)
(7.33288 9.16897 0)
(7.29033 10.4739 0)
(7.75259 12.198 0)
(7.94316 14.9175 0)
(9.99638 0.143451 0)
(9.98433 0.285185 0)
(9.96303 0.427393 0)
(9.93346 0.57207 0)
(9.89648 0.720909 0)
(9.8525 0.875466 0)
(9.80181 1.03725 0)
(9.74471 1.20773 0)
(9.68157 1.38837 0)
(9.61276 1.58062 0)
(9.53867 1.78596 0)
(9.4597 2.00591 0)
(9.37631 2.24209 0)
(9.28897 2.49622 0)
(9.19821 2.77019 0)
(9.10459 3.0661 0)
(9.00878 3.38638 0)
(8.91152 3.73388 0)
(8.81374 4.11204 0)
(8.71661 4.52511 0)
(8.62175 4.97851 0)
(8.53153 5.47926 0)
(8.44969 6.03665 0)
(8.38249 6.66327 0)
(8.34117 7.37629 0)
(8.34787 8.19909 0)
(8.44156 9.1617 0)
(8.67832 10.2972 0)
(9.32722 11.5496 0)
(9.82063 12.6319 0)
(9.99688 0.147891 0)
(9.98649 0.294004 0)
(9.96816 0.440554 0)
(9.94277 0.589555 0)
(9.91112 0.742701 0)
(9.87365 0.901544 0)
(9.83069 1.06758 0)
(9.78261 1.24226 0)
(9.72986 1.42703 0)
(9.67288 1.6233 0)
(9.61221 1.83252 0)
(9.54838 2.05618 0)
(9.48202 2.29581 0)
(9.41382 2.55309 0)
(9.34459 2.82981 0)
(9.27524 3.12797 0)
(9.20688 3.44983 0)
(9.14083 3.79802 0)
(9.0788 4.17567 0)
(9.02299 4.58651 0)
(8.97643 5.03516 0)
(8.94339 5.52725 0)
(8.93018 6.06976 0)
(8.94633 6.67105 0)
(9.00634 7.34051 0)
(9.13235 8.0867 0)
(9.35537 8.91133 0)
(9.68478 9.80302 0)
(10.2499 10.7099 0)
(10.9364 11.421 0)
(9.9974 0.151757 0)
(9.98872 0.301673 0)
(9.97344 0.451972 0)
(9.95233 0.60467 0)
(9.92614 0.761452 0)
(9.89532 0.923854 0)
(9.86024 1.09335 0)
(9.82135 1.27135 0)
(9.77913 1.45927 0)
(9.73416 1.65848 0)
(9.68703 1.87034 0)
(9.63845 2.09629 0)
(9.5892 2.33776 0)
(9.54018 2.59631 0)
(9.49242 2.87358 0)
(9.44718 3.17137 0)
(9.40592 3.49168 0)
(9.37048 3.83678 0)
(9.34316 4.20922 0)
(9.32692 4.61199 0)
(9.3257 5.04846 0)
(9.34479 5.52248 0)
(9.39143 6.03813 0)
(9.47553 6.59936 0)
(9.61027 7.2089 0)
(9.81245 7.86633 0)
(10.1048 8.56448 0)
(10.4957 9.28854 0)
(11.0519 10.0283 0)
(11.843 10.6707 0)
(9.99792 0.155 0)
(9.991 0.3081 0)
(9.97881 0.461511 0)
(9.96206 0.617237 0)
(9.94141 0.776943 0)
(9.91733 0.942134 0)
(9.89022 1.11425 0)
(9.86059 1.29466 0)
(9.82898 1.48471 0)
(9.79604 1.6857 0)
(9.76247 1.89894 0)
(9.72908 2.12572 0)
(9.6968 2.36737 0)
(9.66671 2.62528 0)
(9.64004 2.90089 0)
(9.61829 3.19573 0)
(9.60323 3.51146 0)
(9.59704 3.84983 0)
(9.60241 4.21278 0)
(9.62273 4.60234 0)
(9.6623 5.02059 0)
(9.72664 5.46954 0)
(9.82283 5.9508 0)
(9.9598 6.46502 0)
(10.1486 7.0111 0)
(10.4022 7.58514 0)
(10.7379 8.17898 0)
(11.1672 8.77791 0)
(11.7129 9.37039 0)
(12.4637 9.8816 0)
(9.99845 0.157578 0)
(9.99329 0.313198 0)
(9.98424 0.469045 0)
(9.97188 0.627091 0)
(9.95681 0.78897 0)
(9.93949 0.956146 0)
(9.92037 1.13001 0)
(9.89998 1.31187 0)
(9.87894 1.503 0)
(9.85795 1.70462 0)
(9.83778 1.91792 0)
(9.81935 2.14408 0)
(9.8037 2.38427 0)
(9.79202 2.63967 0)
(9.78571 2.91149 0)
(9.78644 3.20094 0)
(9.79617 3.50926 0)
(9.81724 3.83771 0)
(9.85254 4.18749 0)
(9.90554 4.55972 0)
(9.98052 4.9553 0)
(10.0827 5.37468 0)
(10.2184 5.81761 0)
(10.3951 6.2826 0)
(10.6217 6.76639 0)
(10.9077 7.2632 0)
(11.2643 7.76381 0)
(11.6995 8.25268 0)
(12.214 8.71313 0)
(12.8874 9.10374 0)
(9.99898 0.159451 0)
(9.99559 0.316892 0)
(9.98968 0.474459 0)
(9.98171 0.634083 0)
(9.9722 0.797352 0)
(9.96161 0.965678 0)
(9.95041 1.14039 0)
(9.93918 1.32272 0)
(9.92856 1.51387 0)
(9.9193 1.71495 0)
(9.91224 1.92702 0)
(9.90835 2.15112 0)
(9.90874 2.38825 0)
(9.91472 2.63936 0)
(9.92775 2.90539 0)
(9.94958 3.18723 0)
(9.98225 3.48569 0)
(10.0282 3.80149 0)
(10.0901 4.13518 0)
(10.1715 4.48707 0)
(10.2762 4.85704 0)
(10.4089 5.24439 0)
(10.5748 5.64755 0)
(10.7798 6.06369 0)
(11.0303 6.48834 0)
(11.3328 6.91481 0)
(11.6932 7.33375 0)
(12.1157 7.73178 0)
(12.5941 8.09439 0)
(13.1974 8.40112 0)
(9.99951 0.160586 0)
(9.99787 0.319114 0)
(9.99507 0.477658 0)
(9.99145 0.638089 0)
(9.98744 0.801939 0)
(9.98349 0.970559 0)
(9.98009 1.1452 0)
(9.97783 1.32703 0)
(9.97738 1.51712 0)
(9.9795 1.7165 0)
(9.98509 1.92608 0)
(9.99515 2.14674 0)
(10.0108 2.37929 0)
(10.0335 2.62446 0)
(10.0645 2.88291 0)
(10.1058 3.15519 0)
(10.1593 3.44172 0)
(10.2273 3.74272 0)
(10.3124 4.05818 0)
(10.4177 4.38773 0)
(10.5466 4.73049 0)
(10.7029 5.08495 0)
(10.8907 5.44872 0)
(11.1143 5.81827 0)
(11.3781 6.18872 0)
(11.6857 6.55352 0)
(12.0399 6.90442 0)
(12.4424 7.23112 0)
(12.8853 7.52254 0)
(13.4266 7.76743 0)
(10 0.160954 0)
(10.0001 0.31981 0)
(10.0004 0.47856 0)
(10.001 0.639006 0)
(10.0024 0.802613 0)
(10.0049 0.970658 0)
(10.0091 1.14431 0)
(10.0156 1.32465 0)
(10.0249 1.51264 0)
(10.038 1.70918 0)
(10.0556 1.91505 0)
(10.0789 2.13097 0)
(10.1089 2.35755 0)
(10.147 2.5953 0)
(10.1947 2.8446 0)
(10.2535 3.1057 0)
(10.3254 3.37866 0)
(10.4126 3.66328 0)
(10.5173 3.9591 0)
(10.6422 4.26522 0)
(10.79 4.58026 0)
(10.9638 4.90221 0)
(11.1665 5.22827 0)
(11.4011 5.55474 0)
(11.6702 5.87689 0)
(11.9756 6.18887 0)
(12.3181 6.48384 0)
(12.6975 6.754 0)
(13.1061 6.99105 0)
(13.5925 7.18817 0)
(10.0005 0.160535 0)
(10.0023 0.318937 0)
(10.0056 0.477106 0)
(10.0104 0.636761 0)
(10.017 0.799289 0)
(10.0258 0.965889 0)
(10.0373 1.13764 0)
(10.0521 1.31552 0)
(10.0708 1.5004 0)
(10.0942 1.69302 0)
(10.1232 1.89405 0)
(10.1588 2.10403 0)
(10.2021 2.32338 0)
(10.2543 2.5524 0)
(10.3169 2.79125 0)
(10.3913 3.03988 0)
(10.4793 3.29806 0)
(10.5827 3.56526 0)
(10.7035 3.84066 0)
(10.8439 4.12304 0)
(11.006 4.4107 0)
(11.192 4.70139 0)
(11.404 4.99223 0)
(11.6437 5.27967 0)
(11.9125 5.55941 0)
(12.2109 5.8265 0)
(12.5385 6.07542 0)
(12.894 6.3003 0)
(13.2703 6.49513 0)
(13.7091 6.65577 0)
(10.001 0.159313 0)
(10.0044 0.316466 0)
(10.0106 0.473256 0)
(10.0194 0.631308 0)
(10.031 0.791923 0)
(10.0458 0.956215 0)
(10.0643 1.12517 0)
(10.087 1.29966 0)
(10.1145 1.48044 0)
(10.1477 1.66814 0)
(10.1872 1.86327 0)
(10.2342 2.06623 0)
(10.2895 2.27726 0)
(10.3545 2.49648 0)
(10.4302 2.72382 0)
(10.5181 2.95903 0)
(10.6197 3.20161 0)
(10.7366 3.45082 0)
(10.8703 3.70559 0)
(11.0225 3.9645 0)
(11.1947 4.22572 0)
(11.3886 4.48697 0)
(11.6053 4.74549 0)
(11.8458 4.99803 0)
(12.1104 5.24088 0)
(12.3989 5.46996 0)
(12.7101 5.68096 0)
(13.0422 5.86953 0)
(13.389 6.03147 0)
(13.787 6.16426 0)
(10.0015 0.15728 0)
(10.0065 0.312383 0)
(10.0153 0.466991 0)
(10.028 0.622628 0)
(10.0444 0.780505 0)
(10.0649 0.941642 0)
(10.09 1.10693 0)
(10.1201 1.27714 0)
(10.1559 1.45291 0)
(10.198 1.63475 0)
(10.2472 1.82304 0)
(10.3044 2.01803 0)
(10.3706 2.21983 0)
(10.4467 2.42837 0)
(10.5339 2.64341 0)
(10.6333 2.86454 0)
(10.7462 3.09107 0)
(10.8739 3.32211 0)
(11.0174 3.55647 0)
(11.1782 3.79263 0)
(11.3572 4.02878 0)
(11.5554 4.26271 0)
(11.7733 4.49191 0)
(12.0114 4.71353 0)
(12.2692 4.92448 0)
(12.5461 5.12147 0)
(12.8406 5.30121 0)
(13.1506 5.46054 0)
(13.4709 5.59656 0)
(13.8338 5.70778 0)
(10.0019 0.154436 0)
(10.0084 0.306686 0)
(10.0199 0.458315 0)
(10.0361 0.610736 0)
(10.057 0.765064 0)
(10.0829 0.922227 0)
(10.1141 1.08302 0)
(10.1511 1.2481 0)
(10.1944 1.41801 0)
(10.2447 1.59315 0)
(10.3027 1.77377 0)
(10.3691 1.95999 0)
(10.4448 2.1518 0)
(10.5306 2.34899 0)
(10.6276 2.55119 0)
(10.7365 2.75785 0)
(10.8585 2.9682 0)
(10.9945 3.18123 0)
(11.1453 3.39572 0)
(11.3119 3.61017 0)
(11.4947 3.82282 0)
(11.6944 4.03168 0)
(11.911 4.23452 0)
(12.1443 4.42892 0)
(12.3938 4.61234 0)
(12.6584 4.78223 0)
(12.9364 4.93609 0)
(13.226 5.07167 0)
(13.5226 5.18699 0)
(13.8552 5.2812 0)
(10.0024 0.150785 0)
(10.0102 0.29939 0)
(10.0241 0.447251 0)
(10.0437 0.59567 0)
(10.0689 0.745663 0)
(10.0997 0.898065 0)
(10.1365 1.05357 0)
(10.1798 1.21275 0)
(10.23 1.37603 0)
(10.2877 1.54371 0)
(10.3535 1.71594 0)
(10.428 1.89274 0)
(10.5119 2.07396 0)
(10.606 2.25932 0)
(10.7109 2.44835 0)
(10.8276 2.64041 0)
(10.9567 2.83468 0)
(11.0988 3.03012 0)
(11.2546 3.22553 0)
(11.4246 3.41947 0)
(11.609 3.61035 0)
(11.808 3.79637 0)
(12.0213 3.97563 0)
(12.2484 4.14613 0)
(12.4886 4.30582 0)
(12.7407 4.45275 0)
(13.003 4.58506 0)
(13.2738 4.70115 0)
(13.5492 4.79971 0)
(13.8557 4.8803 0)
(10.0027 0.146341 0)
(10.0119 0.290519 0)
(10.0281 0.433842 0)
(10.0508 0.577497 0)
(10.0798 0.7224 0)
(10.1151 0.869294 0)
(10.1571 1.01878 0)
(10.2061 1.17133 0)
(10.2625 1.32729 0)
(10.3268 1.48686 0)
(10.3993 1.6501 0)
(10.4808 1.81694 0)
(10.5717 1.98716 0)
(10.6726 2.16038 0)
(10.7841 2.3361 0)
(10.9068 2.51362 0)
(11.0411 2.69212 0)
(11.1875 2.87057 0)
(11.3464 3.04783 0)
(11.5179 3.22258 0)
(11.702 3.3934 0)
(11.8986 3.55873 0)
(12.1072 3.71698 0)
(12.3273 3.8665 0)
(12.5578 4.00571 0)
(12.7976 4.13311 0)
(13.0451 4.24733 0)
(13.2987 4.34727 0)
(13.5553 4.43207 0)
(13.8389 4.50156 0)
(10.0031 0.141121 0)
(10.0134 0.280111 0)
(10.0317 0.41815 0)
(10.0573 0.556306 0)
(10.0898 0.695401 0)
(10.1293 0.836084 0)
(10.1759 0.978873 0)
(10.23 1.12415 0)
(10.2918 1.27218 0)
(10.3617 1.42308 0)
(10.4402 1.57684 0)
(10.5275 1.73332 0)
(10.6242 1.89224 0)
(10.7307 2.05318 0)
(10.8473 2.2156 0)
(10.9745 2.3788 0)
(11.1125 2.54197 0)
(11.2616 2.70416 0)
(11.4219 2.86429 0)
(11.5933 3.0212 0)
(11.7757 3.17363 0)
(11.9687 3.32028 0)
(12.1718 3.45981 0)
(12.3842 3.59093 0)
(12.605 3.7124 0)
(12.8329 3.82308 0)
(13.0666 3.92201 0)
(13.3046 4.00842 0)
(13.5443 4.08177 0)
(13.8079 4.14205 0)
(10.0034 0.13515 0)
(10.0148 0.268215 0)
(10.035 0.400249 0)
(10.0632 0.532207 0)
(10.0988 0.664814 0)
(10.142 0.798636 0)
(10.1927 0.934106 0)
(10.2513 1.07153 0)
(10.3178 1.2111 0)
(10.3927 1.35286 0)