/*--------------------------------*- C++ -*----------------------------------*\
  =========                 |
  \\      /  F ield         | OpenFOAM: The Open Source CFD Toolbox
   \\    /   O peration     | Website:  https://openfoam.org
    \\  /    A nd           | Version:  7
     \\/     M anipulation  |
\*---------------------------------------------------------------------------*/
FoamFile
{
    version     2.0;
    format      ascii;
    class       surfaceVectorField;
    location    "2.7";
    object      Uf;
}
// * * * * * * * * * * * * * * * * * * * * * * * * * * * * * * * * * * * * * //

dimensions      [0 1 -1 0 0 0 0];

internalField   nonuniform List<vector> 
5457
(
(9.92088 0.0251114 0)
(9.97124 0.0387482 0)
(9.824 0.0328299 0)
(9.92858 0.0485901 0)
(9.70958 0.0393165 0)
(9.85546 0.0587756 0)
(9.57539 0.0460172 0)
(9.75676 0.0706033 0)
(9.42131 0.0529558 0)
(9.63747 0.0830257 0)
(9.24745 0.0601742 0)
(9.49853 0.095951 0)
(9.0535 0.0678198 0)
(9.33919 0.109629 0)
(8.83877 0.0760441 0)
(9.1586 0.124306 0)
(8.60233 0.0849803 0)
(8.95592 0.140186 0)
(8.34305 0.0947551 0)
(8.73018 0.157452 0)
(8.0596 0.105497 0)
(8.48017 0.176289 0)
(7.75053 0.117338 0)
(8.20451 0.196875 0)
(7.41426 0.130405 0)
(7.90166 0.219379 0)
(7.04918 0.144818 0)
(7.56999 0.243938 0)
(6.6537 0.160679 0)
(7.20785 0.270645 0)
(6.22637 0.178049 0)
(6.81365 0.29951 0)
(5.76608 0.196931 0)
(6.38598 0.330419 0)
(5.27223 0.217233 0)
(5.92382 0.363085 0)
(4.74504 0.238733 0)
(5.42676 0.396972 0)
(4.18588 0.261027 0)
(4.89532 0.431227 0)
(3.59768 0.283479 0)
(4.33133 0.464605 0)
(2.98529 0.30519 0)
(3.73832 0.495405 0)
(2.35589 0.325054 0)
(3.12202 0.521488 0)
(1.71891 0.342531 0)
(2.49085 0.540529 0)
(1.08419 0.361863 0)
(1.85568 0.551643 0)
(0.451712 0.348634 0)
(1.24534 0.562991 0)
(-0.14589 0.102421 0)
(0.60878 0.544813 0)
(-0.423619 -0.20707 0)
(0.0946412 0.259321 0)
(-0.402142 -0.361209 0)
(-0.133734 -0.0205381 0)
(-0.11967 -0.393874 0)
(9.9964 0.051678 0)
(9.99705 0.0405095 0)
(9.95877 0.0708709 0)
(9.9785 0.0674644 0)
(9.89821 0.0879999 0)
(9.93375 0.089885 0)
(9.81654 0.106001 0)
(9.86449 0.113575 0)
(9.71351 0.124942 0)
(9.77432 0.138539 0)
(9.58899 0.144877 0)
(9.66427 0.164675 0)
(9.44261 0.166115 0)
(9.53386 0.192365 0)
(9.27375 0.188994 0)
(9.38236 0.222066 0)
(9.08147 0.213811 0)
(9.20902 0.254186 0)
(8.86468 0.240844 0)
(9.01296 0.289103 0)
(8.62205 0.270365 0)
(8.79308 0.327191 0)
(8.35211 0.302634 0)
(8.54809 0.368824 0)
(8.05325 0.337881 0)
(8.27654 0.414351 0)
(7.72379 0.376283 0)
(7.97685 0.464077 0)
(7.36203 0.417918 0)
(7.64738 0.518214 0)
(6.96637 0.462718 0)
(7.28648 0.576825 0)
(6.53547 0.51039 0)
(6.8926 0.639736 0)
(6.06847 0.56033 0)
(6.46446 0.706429 0)
(5.56525 0.61151 0)
(6.00125 0.7759 0)
(5.02677 0.662366 0)
(5.50292 0.846504 0)
(4.45557 0.710681 0)
(4.97057 0.915776 0)
(3.85622 0.753506 0)
(4.40689 0.980266 0)
(3.23595 0.787156 0)
(3.81678 1.03541 0)
(2.60561 0.807456 0)
(3.20823 1.07543 0)
(1.98262 0.810419 0)
(2.5932 1.09308 0)
(1.40516 0.77684 0)
(1.99605 1.07702 0)
(0.929637 0.646338 0)
(1.41937 0.978329 0)
(0.439752 0.384262 0)
(0.937489 0.716736 0)
(0.0591245 -0.118666 0)
(0.443697 0.343458 0)
(0.174901 -0.335965 0)
(9.98902 0.0594402 0)
(9.99481 0.0458848 0)
(9.95432 0.0894922 0)
(9.97368 0.0848691 0)
(9.89726 0.118054 0)
(9.92982 0.119196 0)
(9.82042 0.147926 0)
(9.86353 0.154006 0)
(9.72409 0.179455 0)
(9.7773 0.190445 0)
(9.60812 0.212814 0)
(9.67218 0.22868 0)
(9.47222 0.248435 0)
(9.54799 0.269178 0)
(9.31592 0.28682 0)
(9.40418 0.312549 0)
(9.1385 0.328445 0)
(9.24017 0.359381 0)
(8.93903 0.37377 0)
(9.05529 0.410231 0)
(8.7164 0.423252 0)
(8.84866 0.465655 0)
(8.46932 0.477339 0)
(8.61925 0.526207 0)
(8.19638 0.536437 0)
(8.36587 0.592422 0)
(7.896 0.600874 0)
(8.08721 0.66478 0)
(7.56658 0.670833 0)
(7.78186 0.743651 0)
(7.20649 0.746269 0)
(7.44839 0.829212 0)
(6.81422 0.826784 0)
(7.08533 0.921328 0)
(6.38853 0.911472 0)
(6.69135 1.0194 0)
(5.9287 0.998734 0)
(6.26537 1.12215 0)
(5.43482 1.08606 0)
(5.80679 1.22739 0)
(4.90825 1.16978 0)
(5.31577 1.3317 0)
(4.35216 1.24483 0)
(4.79369 1.43013 0)
(3.77235 1.30448 0)
(4.24372 1.5158 0)
(3.17853 1.33976 0)
(3.6716 1.57934 0)
(2.58647 1.33804 0)
(3.08614 1.60765 0)
(2.01973 1.27289 0)
(2.50278 1.58148 0)
(1.48684 1.09533 0)
(1.92863 1.46415 0)
(0.958231 0.769098 0)
(1.38517 1.21031 0)
(0.479833 0.202378 0)
(0.829493 0.800952 0)
(0.4337 0.134002 0)
(9.98515 0.0716269 0)
(9.99367 0.0531577 0)
(9.95037 0.113652 0)
(9.97087 0.102311 0)
(9.89434 0.154164 0)
(9.92688 0.147984 0)
(9.81877 0.195612 0)
(9.86181 0.193761 0)
(9.72435 0.238858 0)
(9.7774 0.241326 0)
(9.61102 0.284378 0)
(9.67458 0.291221 0)
(9.47862 0.332779 0)
(9.55332 0.34402 0)
(9.32679 0.384737 0)
(9.41321 0.400442 0)
(9.15504 0.440912 0)
(9.25383 0.461213 0)
(8.96269 0.501949 0)
(9.07463 0.527037 0)
(8.74892 0.568492 0)
(8.87496 0.598611 0)
(8.51276 0.641172 0)
(8.65403 0.676634 0)
(8.25316 0.720583 0)
(8.41093 0.761786 0)
(7.96893 0.807233 0)
(8.14468 0.854692 0)
(7.65884 0.901469 0)
(7.85421 0.955863 0)
(7.32157 1.00337 0)
(7.5384 1.0656 0)
(6.95586 1.11257 0)
(7.1961 1.18386 0)
(6.5605 1.22812 0)
(6.82617 1.31007 0)
(6.13455 1.34813 0)
(6.42754 1.44289 0)
(5.67752 1.46955 0)
(5.99933 1.57985 0)
(5.1897 1.5877 0)
(5.54103 1.71701 0)
(4.6726 1.69594 0)
(5.05277 1.84845 0)
(4.12957 1.78505 0)
(4.53571 1.96573 0)
(3.56646 1.84242 0)
(3.99252 2.05718 0)
(2.99189 1.85061 0)
(3.42742 2.10701 0)
(2.41572 1.78237 0)
(2.8475 2.09435 0)
(1.84045 1.60034 0)
(2.25613 1.9886 0)
(1.25933 1.27832 0)
(1.66025 1.75292 0)
(0.666746 0.789443 0)
(1.02393 1.36764 0)
(0.523021 0.787039 0)
(9.98337 0.0844241 0)
(9.99316 0.0613036 0)
(9.94819 0.136865 0)
(9.96958 0.119952 0)
(9.89311 0.188071 0)
(9.92573 0.176278 0)
(9.81901 0.240219 0)
(9.86195 0.232748 0)
(9.72655 0.294527 0)
(9.77958 0.291148 0)
(9.6158 0.351727 0)
(9.67931 0.352345 0)
(9.48658 0.412545 0)
(9.56116 0.417057 0)
(9.33863 0.477756 0)
(9.42482 0.486095 0)
(9.17151 0.548133 0)
(9.26991 0.560296 0)
(8.9847 0.624437 0)
(9.09599 0.64048 0)
(8.77753 0.707424 0)
(8.9025 0.72746 0)
(8.54925 0.797839 0)
(8.68879 0.822044 0)
(8.29904 0.896392 0)
(8.45414 0.925021 0)
(8.02601 1.00371 0)
(8.19774 1.03712 0)
(7.72922 1.12024 0)
(7.91877 1.15897 0)
(7.40769 1.24619 0)
(7.61632 1.29096 0)
(7.0604 1.38127 0)
(7.28948 1.43316 0)
(6.68633 1.52456 0)
(6.93725 1.58509 0)
(6.2845 1.67414 0)
(6.55862 1.74547 0)
(5.85405 1.82672 0)
(6.15252 1.91182 0)
(5.3944 1.97716 0)
(5.71789 2.08007 0)
(4.90548 2.11794 0)
(5.25378 2.24397 0)
(4.38801 2.23848 0)
(4.75948 2.39447 0)
(3.84375 2.3244 0)
(4.23473 2.51904 0)
(3.27528 2.3568 0)
(3.67971 2.60107 0)
(2.68528 2.31044 0)
(3.09559 2.61953 0)
(2.07261 2.15486 0)
(2.4816 2.54715 0)
(1.42933 1.86726 0)
(1.83986 2.35356 0)
(0.742587 1.41944 0)
(1.13133 2.02438 0)
(0.543293 1.51436 0)
(9.98264 0.0975181 0)
(9.99299 0.0698075 0)
(9.94742 0.159809 0)
(9.96924 0.137613 0)
(9.89351 0.221396 0)
(9.92595 0.203972 0)
(9.82129 0.284153 0)
(9.86377 0.270748 0)
(9.73126 0.349421 0)
(9.78379 0.339656 0)
(9.62357 0.418102 0)
(9.68656 0.411783 0)
(9.49806 0.49103 0)
(9.57206 0.487999 0)
(9.35449 0.569072 0)
(9.44007 0.569209 0)
(9.19249 0.653106 0)
(9.29025 0.656344 0)
(9.0116 0.744 0)
(9.12221 0.750327 0)
(8.81125 0.842616 0)
(8.93546 0.852069 0)
(8.59079 0.949802 0)
(8.72944 0.962473 0)
(8.34953 1.06637 0)
(8.5035 1.08242 0)
(8.08671 1.19303 0)
(8.25694 1.21273 0)
(7.80155 1.33036 0)
(7.98901 1.35411 0)
(7.49322 1.47863 0)
(7.69891 1.50707 0)
(7.1608 1.63769 0)
(7.38577 1.67178 0)
(6.80334 1.80672 0)
(7.04863 1.8479 0)
(6.41974 1.98392 0)
(6.68636 2.03432 0)
(6.00878 2.16605 0)
(6.29763 2.22876 0)
(5.56908 2.34799 0)
(5.88084 2.42737 0)
(5.09918 2.52207 0)
(5.43402 2.62412 0)
(4.5975 2.67741 0)
(4.95484 2.81013 0)
(4.0625 2.79932 0)
(4.44062 2.97304 0)
(3.49255 2.86893 0)
(3.88834 3.09643 0)
(2.88572 2.86274 0)
(3.2951 3.15969 0)
(2.23794 2.75375 0)
(2.65681 3.13771 0)
(1.5424 2.52087 0)
(1.97479 3.00301 0)
(0.793628 2.13118 0)
(1.20722 2.74043 0)
(0.556729 2.29167 0)
(9.9825 0.110651 0)
(9.99301 0.0783787 0)
(9.94769 0.182365 0)
(9.96953 0.155072 0)
(9.89519 0.253874 0)
(9.9272 0.230938 0)
(9.82519 0.326839 0)
(9.86693 0.307579 0)
(9.73805 0.402641 0)
(9.78971 0.386608 0)
(9.63393 0.482332 0)
(9.69596 0.469249 0)
(9.51272 0.566867 0)
(9.58567 0.556511 0)
(9.37421 0.657209 0)
(9.45864 0.649394 0)
(9.21808 0.754334 0)
(9.31462 0.748917 0)
(9.0439 0.859207 0)
(9.15324 0.856096 0)
(8.85117 0.972782 0)
(8.97407 0.971934 0)
(8.63932 1.096 0)
(8.77661 1.09742 0)
(8.40768 1.22974 0)
(8.56025 1.23353 0)
(8.15558 1.37483 0)
(8.32433 1.38118 0)
(7.88225 1.53193 0)
(8.06813 1.54116 0)
(7.58687 1.70142 0)
(7.79084 1.71411 0)
(7.26849 1.8833 0)
(7.49153 1.90033 0)
(6.92602 2.07695 0)
(7.16911 2.09969 0)
(6.55811 2.28079 0)
(6.82224 2.31134 0)
(6.16309 2.49196 0)
(6.44918 2.5334 0)
(5.73879 2.7057 0)
(6.04772 2.76252 0)
(5.28243 2.91482 0)
(5.6149 2.9933 0)
(4.79058 3.10896 0)
(5.14695 3.21765 0)
(4.25909 3.27399 0)
(4.63915 3.42404 0)
(3.68324 3.39164 0)
(4.08588 3.5969 0)
(3.05795 3.43946 0)
(3.4812 3.71629 0)
(2.37767 3.39159 0)
(2.8183 3.75789 0)
(1.63788 3.22598 0)
(2.09912 3.69377 0)
(0.839119 2.90067 0)
(1.27891 3.50429 0)
(0.57336 3.11353 0)
(9.98273 0.12361 0)
(9.99316 0.0868373 0)
(9.94871 0.204357 0)
(9.97026 0.172133 0)
(9.89791 0.285318 0)
(9.92924 0.257036 0)
(9.83045 0.368049 0)
(9.87119 0.343068 0)
(9.74663 0.453952 0)
(9.79709 0.431778 0)
(9.64657 0.544192 0)
(9.70726 0.524467 0)
(9.53024 0.639835 0)
(9.60168 0.622266 0)
(9.39745 0.741936 0)
(9.48022 0.726269 0)
(9.24792 0.851557 0)
(9.34266 0.837576 0)
(9.08128 0.969751 0)
(9.18871 0.957288 0)
(8.89708 1.09756 0)
(9.01797 1.0865 0)
(8.69478 1.23602 0)
(8.82998 1.22629 0)
(8.47377 1.3861 0)
(8.6242 1.37772 0)
(8.23338 1.54873 0)
(8.39998 1.54181 0)
(7.97281 1.72468 0)
(8.1566 1.71948 0)
(7.69118 1.91449 0)
(7.8932 1.9115 0)
(7.38741 2.11836 0)
(7.60874 2.11839 0)
(7.06018 2.33593 0)
(7.30196 2.34028 0)
(6.70778 2.56605 0)
(6.97119 2.5767 0)
(6.32796 2.80636 0)
(6.61428 2.82632 0)
(5.91773 3.05288 0)
(6.2283 3.08654 0)
(5.47313 3.29932 0)
(5.80937 3.35297 0)
(4.98904 3.53642 0)
(5.35234 3.61874 0)
(4.45913 3.75115 0)
(4.85063 3.87371 0)
(3.87608 3.9262 0)
(4.29625 4.10364 0)
(3.23224 4.0396 0)
(3.68044 4.28939 0)
(2.52079 4.06475 0)
(2.99347 4.4065 0)
(1.73837 3.97592 0)
(2.23737 4.42434 0)
(0.889474 3.71857 0)
(1.36337 4.31609 0)
(0.598765 3.98472 0)
(9.9832 0.136236 0)
(9.99339 0.0950629 0)
(9.9503 0.225626 0)
(9.9713 0.188635 0)
(9.90148 0.315572 0)
(9.93191 0.282118 0)
(9.83688 0.407599 0)
(9.87639 0.377052 0)
(9.75676 0.503128 0)
(9.80572 0.474953 0)
(9.66124 0.603409 0)
(9.72021 0.577182 0)
(9.55032 0.709605 0)
(9.61983 0.684964 0)
(9.42385 0.822859 0)
(9.50449 0.79948 0)
(9.28162 0.94431 0)
(9.37402 0.921908 0)
(9.1233 1.0751 0)
(9.22819 1.05343 0)
(8.94849 1.21635 0)
(9.06667 1.19522 0)
(8.75671 1.3692 0)
(8.88905 1.34845 0)
(8.54739 1.53472 0)
(8.69483 1.51428 0)
(8.31984 1.71396 0)
(8.48341 1.69385 0)
(8.07326 1.90783 0)
(8.25406 1.88822 0)
(7.80667 2.11708 0)
(8.00589 2.09835 0)
(7.51885 2.34217 0)
(7.73776 2.325 0)
(7.2082 2.58312 0)
(7.44823 2.56867 0)
(6.87264 2.8393 0)
(7.13535 2.82938 0)
(6.50933 3.10912 0)
(6.79653 3.10651 0)
(6.11448 3.3896 0)
(6.42822 3.39843 0)
(5.68296 3.67577 0)
(6.02564 3.70205 0)
(5.20809 3.95992 0)
(5.58234 4.01218 0)
(4.68144 4.23067 0)
(5.08995 4.32063 0)
(4.09305 4.47199 0)
(4.53799 4.61502 0)
(3.43235 4.66222 0)
(3.9145 4.8775 0)
(2.69004 4.77286 0)
(3.20557 5.08324 0)
(1.86181 4.77215 0)
(2.41123 5.19767 0)
(0.954167 4.58951 0)
(1.47627 5.18407 0)
(0.639198 4.91927 0)
(9.98386 0.148405 0)
(9.99368 0.102969 0)
(9.95233 0.246032 0)
(9.97259 0.204446 0)
(9.90575 0.344485 0)
(9.93508 0.306047 0)
(9.84432 0.445307 0)
(9.88237 0.409374 0)
(9.76825 0.549942 0)
(9.81545 0.515944 0)
(9.67769 0.65971 0)
(9.73461 0.627161 0)
(9.57266 0.775855 0)
(9.63986 0.744327 0)
(9.45309 0.899598 0)
(9.53113 0.868702 0)
(9.31879 1.03216 0)
(9.40832 1.00154 0)
(9.16951 1.17475 0)
(9.27126 1.14408 0)
(9.00491 1.32859 0)
(9.11969 1.29759 0)
(8.82457 1.49489 0)
(8.95327 1.46333 0)
(8.62795 1.67487 0)
(8.77155 1.64255 0)
(8.41441 1.86968 0)
(8.57399 1.83653 0)
(8.18314 2.08044 0)
(8.3599 2.04649 0)
(7.9331 2.30812 0)
(8.12838 2.27359 0)
(7.66296 2.55352 0)
(7.87827 2.51893 0)
(7.37091 2.81714 0)
(7.60799 2.78339 0)
(7.05453 3.09901 0)
(7.31542 3.06762 0)
(6.71052 3.39848 0)
(6.99765 3.37182 0)
(6.33433 3.71384 0)
(6.65066 3.69556 0)
(5.91984 4.0418 0)
(6.26892 4.03737 0)
(5.45882 4.37671 0)
(5.84488 4.39416 0)
(4.94069 4.70949 0)
(5.36844 4.7603 0)
(4.35243 5.02612 0)
(4.82645 5.12629 0)
(3.67938 5.30578 0)
(4.20293 5.4766 0)
(2.90739 5.51781 0)
(3.47776 5.78704 0)
(2.02761 5.62271 0)
(2.64498 6.01914 0)
(1.04509 5.52922 0)
(1.63772 6.12365 0)
(0.704487 5.94287 0)
(9.98464 0.160022 0)
(9.99402 0.110491 0)
(9.95471 0.26545 0)
(9.97408 0.219458 0)
(9.91061 0.371917 0)
(9.93865 0.328699 0)
(9.85261 0.481007 0)
(9.889 0.439892 0)
(9.78091 0.594193 0)
(9.82611 0.554577 0)
(9.69569 0.712851 0)
(9.75028 0.674193 0)
(9.59701 0.838297 0)
(9.66153 0.800108 0)
(9.48483 0.97182 0)
(9.55985 0.933645 0)
(9.35904 1.11471 0)
(9.44521 1.07612 0)
(9.21945 1.26825 0)
(9.3175 1.22884 0)
(9.0658 1.43374 0)
(9.17653 1.39315 0)
(8.89773 1.61249 0)
(9.02204 1.57038 0)
(8.71479 1.80582 0)
(8.85368 1.7619 0)
(8.51638 2.01506 0)
(8.67099 1.9691 0)
(8.30175 2.24149 0)
(8.47334 2.19337 0)
(8.06985 2.48639 0)
(8.25989 2.43613 0)
(7.81931 2.75093 0)
(8.02953 2.69878 0)
(7.54825 3.03615 0)
(7.78069 2.98268 0)
(7.25405 3.34287 0)
(7.5112 3.28914 0)
(6.93311 3.67151 0)
(7.21806 3.61933 0)
(6.5804 4.0219 0)
(6.89702 3.97415 0)
(6.18899 4.39279 0)
(6.54217 4.35401 0)
(5.74937 4.78121 0)
(6.14522 4.75839 0)
(5.24881 5.18127 0)
(5.69468 5.18507 0)
(4.67074 5.58233 0)
(5.17479 5.62869 0)
(3.99481 5.96608 0)
(4.56494 6.07827 0)
(3.19841 6.3013 0)
(3.8363 6.51309 0)
(2.26182 6.54036 0)
(2.9709 6.89365 0)
(1.18066 6.56488 0)
(1.87925 7.15758 0)
(0.81288 7.09925 0)
(9.98553 0.171008 0)
(9.9944 0.117578 0)
(9.95737 0.283775 0)
(9.97571 0.233583 0)
(9.91597 0.397742 0)
(9.94256 0.349965 0)
(9.86163 0.514548 0)
(9.89619 0.468479 0)
(9.7946 0.635699 0)
(9.83757 0.590698 0)
(9.71505 0.762618 0)
(9.76703 0.718096 0)
(9.62309 0.896678 0)
(9.68461 0.852087 0)
(9.51874 1.03923 0)
(9.59037 0.994052 0)
(9.40196 1.19162 0)
(9.48433 1.14536 0)
(9.27264 1.35519 0)
(9.36646 1.30738 0)
(9.13059 1.53133 0)
(9.23666 1.4815 0)
(8.97556 1.72143 0)
(9.09476 1.66914 0)
(8.80718 1.92692 0)
(8.94052 1.87175 0)
(8.62496 2.14927 0)
(8.77359 2.09086 0)
(8.42821 2.38999 0)
(8.59345 2.32801 0)
(8.21602 2.65062 0)
(8.39942 2.58486 0)
(7.98706 2.93276 0)
(8.19049 2.86313 0)
(7.73952 3.23802 0)
(7.96526 3.16468 0)
(7.47082 3.56805 0)
(7.72173 3.49147 0)
(7.17734 3.92448 0)
(7.45704 3.84567 0)
(6.85393 4.30882 0)
(7.16714 4.2296 0)
(6.49334 4.72222 0)
(6.84622 4.64572 0)
(6.08529 5.16501 0)
(6.48594 5.09648 0)
(5.61535 5.63572 0)
(6.07428 5.58386 0)
(5.06343 6.12919 0)
(5.59376 6.10838 0)
(4.40221 6.63315 0)
(5.01952 6.66684 0)
(3.59626 7.12067 0)
(4.31266 7.24785 0)
(2.60452 7.54025 0)
(3.43594 7.81965 0)
(1.39447 7.74026 0)
(2.25678 8.31476 0)
(1.00282 8.46505 0)
(9.9865 0.181302 0)
(9.9948 0.12419 0)
(9.96025 0.300915 0)
(9.97746 0.246749 0)
(9.92173 0.42185 0)
(9.94673 0.369751 0)
(9.87127 0.5458 0)
(9.90383 0.495025 0)
(9.80914 0.674303 0)
(9.8497 0.624177 0)
(9.73555 0.808823 0)
(9.78468 0.758711 0)
(9.65064 0.950778 0)
(9.70888 0.90008 0)
(9.55451 1.10157 0)
(9.62239 1.04971 0)
(9.44717 1.26258 0)
(9.52532 1.209 0)
(9.3286 1.43523 0)
(9.4177 1.37938 0)
(9.19872 1.62095 0)
(9.29954 1.56228 0)
(9.05737 1.82121 0)
(9.17078 1.75917 0)
(8.90432 2.03755 0)
(9.0313 1.9716 0)
(8.73921 2.27157 0)
(8.88089 2.20118 0)
(8.56151 2.52498 0)
(8.71921 2.44962 0)
(8.37046 2.79958 0)
(8.54577 2.71876 0)
(8.16496 3.09736 0)
(8.3598 3.01065 0)
(7.94342 3.42052 0)
(8.16019 3.32755 0)
(7.70356 3.77151 0)
(7.94531 3.67208 0)
(7.4421 4.15317 0)
(7.7128 4.04731 0)
(7.15431 4.56875 0)
(7.45921 4.45692 0)
(6.8333 5.02199 0)
(7.17955 4.90541 0)
(6.46904 5.51702 0)
(6.86643 5.39829 0)
(6.04665 6.05799 0)
(6.5088 5.94229 0)
(5.54389 6.64794 0)
(6.08972 6.54532 0)
(4.92714 7.28619 0)
(5.58305 7.21584 0)
(4.1453 7.96073 0)
(4.94275 7.96063 0)
(3.12222 8.63314 0)
(4.10985 8.77492 0)
(1.75666 9.12782 0)
(2.87916 9.62066 0)
(1.36524 10.1856 0)
(9.98753 0.190853 0)
(9.99523 0.130297 0)
(9.9633 0.316798 0)
(9.97931 0.258899 0)
(9.92782 0.44415 0)
(9.95112 0.387982 0)
(9.88142 0.574653 0)
(9.91183 0.519437 0)
(9.82439 0.709877 0)
(9.86236 0.654904 0)
(9.75699 0.851316 0)
(9.80306 0.795908 0)
(9.67941 1.00042 0)
(9.7341 0.943932 0)
(9.59179 1.15863 0)
(9.65563 1.10043 0)
(9.49424 1.32737 0)
(9.56781 1.26684 0)
(9.38683 1.5081 0)
(9.47077 1.4446 0)
(9.26957 1.70228 0)
(9.36463 1.6352 0)
(9.14245 1.91146 0)
(9.24944 1.84015 0)
(9.00536 2.13724 0)
(9.12522 2.06104 0)
(8.85813 2.38136 0)
(8.99194 2.29956 0)
(8.70043 2.64566 0)
(8.84948 2.55754 0)
(8.53177 2.9322 0)
(8.69757 2.83698 0)
(8.35136 3.24329 0)
(8.5358 3.14016 0)
(8.15803 3.58161 0)
(8.36348 3.46969 0)
(7.95007 3.95035 0)
(8.17955 3.82868 0)
(7.72492 4.3534 0)
(7.98242 4.22095 0)
(7.47885 4.7956 0)
(7.76975 4.65129 0)
(7.2063 5.28316 0)
(7.53804 5.12589 0)
(6.8989 5.82406 0)
(7.28208 5.65298 0)
(6.5437 6.42866 0)
(6.99389 6.2437 0)
(6.11999 7.11042 0)
(6.66079 6.91358 0)
(5.59303 7.88651 0)
(6.26222 7.68491 0)
(4.9013 8.77689 0)
(5.75779 8.59125 0)
(3.9277 9.80095 0)
(5.0882 9.68399 0)
(2.43416 10.857 0)
(3.98102 11.0489 0)
(2.14753 12.5697 0)
(9.98861 0.199622 0)
(9.99567 0.135876 0)
(9.9665 0.331361 0)
(9.98123 0.269988 0)
(9.93416 0.464558 0)
(9.95568 0.404596 0)
(9.89196 0.601 0)
(9.92012 0.541641 0)
(9.84021 0.742283 0)
(9.87544 0.682789 0)
(9.77919 0.889922 0)
(9.82205 0.829584 0)
(9.70914 1.0454 0)
(9.76013 0.983524 0)
(9.63028 1.21016 0)
(9.6899 1.14608 0)
(9.54279 1.38568 0)
(9.6116 1.31871 0)
(9.44683 1.57341 0)
(9.52546 1.50288 0)
(9.34255 1.77487 0)
(9.43168 1.70006 0)
(9.23004 1.99163 0)
(9.33047 1.91181 0)
(9.1094 2.22536 0)
(9.222 2.13975 0)
(8.98063 2.47786 0)
(9.10643 2.3856 0)
(8.84367 2.75108 0)
(8.98387 2.65126 0)
(8.69835 3.04726 0)
(8.85438 2.93884 0)
(8.54431 3.36895 0)
(8.71793 3.25074 0)
(8.38094 3.71917 0)
(8.57436 3.58979 0)
(8.20731 4.10164 0)
(8.42333 3.95943 0)
(8.02196 4.52101 0)
(8.26428 4.36389 0)
(7.8227 4.98331 0)
(8.0963 4.80867 0)
(7.60628 5.49661 0)
(7.91806 5.30098 0)
(7.36766 6.07193 0)
(7.72757 5.85068 0)
(7.09897 6.72496 0)
(7.52201 6.47171 0)
(6.78708 7.47891 0)
(7.29715 7.18465 0)
(6.40848 8.37056 0)
(7.04761 8.02191 0)
(5.91622 9.46449 0)
(6.76328 9.04003 0)
(5.19772 10.9073 0)
(6.4634 10.3549 0)
(3.88694 13.1801 0)
(6.19371 12.3024 0)
(5.26689 16.3767 0)
(0.254914 -0.163221 0)
(0.145627 -0.249672 0)
(0.492458 -0.138834 0)
(0.348761 -0.227165 0)
(0.69526 -0.112574 0)
(0.555841 -0.18936 0)
(0.866219 -0.0907895 0)
(0.739081 -0.155858 0)
(1.01104 -0.073559 0)
(0.893717 -0.128909 0)
(1.13475 -0.0599959 0)
(1.02491 -0.107517 0)
(1.2415 -0.0493109 0)
(1.1383 -0.0905878 0)
(1.33465 -0.0408512 0)
(1.23794 -0.0771813 0)
(1.41676 -0.0340627 0)
(1.32658 -0.0664261 0)
(1.48968 -0.0285098 0)
(1.40615 -0.0575906 0)
(1.55472 -0.0238703 0)
(1.47802 -0.0501661 0)
(1.6129 -0.0198483 0)
(1.54322 -0.0438088 0)
(1.66471 -0.0160363 0)
(1.60256 -0.0380896 0)
(1.70956 -0.0119055 0)
(1.65645 -0.0321967 0)
(1.74542 -0.00712176 0)
(1.70423 -0.0251307 0)
(1.76989 -0.00197847 0)
(1.7439 -0.0167476 0)
(1.78255 0.00257891 0)
(1.77324 -0.00845874 0)
(1.78585 0.00556884 0)
(1.79213 -0.0021534 0)
(1.78173 0.00697274 0)
(1.80328 0.00262745 0)
(1.7712 0.00749521 0)
(1.80925 0.00654987 0)
(1.75528 0.00741437 0)
(1.80939 0.00966529 0)
(1.73784 0.00665175 0)
(1.80446 0.0103389 0)
(1.72448 0.00529576 0)
(1.799 0.00773575 0)
(1.72046 0.00331725 0)
(1.79779 0.00227292 0)
(1.72876 0.000759164 0)
(1.80284 -0.0045806 0)
(1.7497 -0.00216089 0)
(1.81546 -0.0112829 0)
(1.78241 -0.00543149 0)
(1.83513 -0.0172138 0)
(1.82576 -0.00881312 0)
(1.86095 -0.0222678 0)
(1.87666 -0.0109806 0)
(1.89215 -0.025526 0)
(1.93561 -0.0235629 0)
(0.217877 -0.354529 0)
(0.109486 -0.463069 0)
(0.429246 -0.312452 0)
(0.289998 -0.429299 0)
(0.613466 -0.259868 0)
(0.461818 -0.36137 0)
(0.77146 -0.214836 0)
(0.615474 -0.299895 0)
(0.908086 -0.178937 0)
(0.74633 -0.250525 0)
(1.02766 -0.150628 0)
(0.858835 -0.211438 0)
(1.13362 -0.12831 0)
(0.95728 -0.180506 0)
(1.22867 -0.11059 0)
(1.04473 -0.155934 0)
(1.3148 -0.0962643 0)
(1.1233 -0.136101 0)
(1.39339 -0.0844118 0)
(1.19445 -0.119671 0)
(1.46548 -0.0744187 0)
(1.25913 -0.105757 0)
(1.53199 -0.0657689 0)
(1.318 -0.0938902 0)
(1.59385 -0.0576154 0)
(1.37179 -0.0835743 0)
(1.65138 -0.048629 0)
(1.42148 -0.0734899 0)
(1.70326 -0.0378708 0)
(1.46752 -0.0614938 0)
(1.74707 -0.0260819 0)
(1.50864 -0.0467294 0)
(1.78131 -0.0152725 0)
(1.54198 -0.031341 0)
(1.80791 -0.00601699 0)
(1.56505 -0.0195055 0)
(1.83002 0.00287588 0)
(1.58231 -0.0114531 0)
(1.84698 0.0102867 0)
(1.59587 -0.00400024 0)
(1.85698 0.0134851 0)
(1.59699 0.00359128 0)
(1.86343 0.0112952 0)
(1.58507 0.0065145 0)
(1.87039 0.00422822 0)
(1.5629 0.00370722 0)
(1.87875 -0.00562571 0)
(1.53602 -0.00245263 0)
(1.88924 -0.0159986 0)
(1.50945 -0.0103698 0)
(1.90077 -0.0255503 0)
(1.48699 -0.0174943 0)
(1.91347 -0.0335088 0)
(1.47198 -0.0238942 0)
(1.92769 -0.0389252 0)
(1.46085 -0.0295743 0)
(1.94472 -0.0395684 0)
(1.45769 -0.0340675 0)
(1.47341 -0.0349404 0)
(0.171578 -0.547599 0)
(0.0766335 -0.63112 0)
(0.334324 -0.48795 0)
(0.21779 -0.584933 0)
(0.474539 -0.410267 0)
(0.336662 -0.492292 0)
(0.594434 -0.343064 0)
(0.444881 -0.4092 0)
(0.697873 -0.289138 0)
(0.535032 -0.342599 0)
(0.788034 -0.246301 0)
(0.611787 -0.289798 0)
(0.867539 -0.212231 0)
(0.677882 -0.247974 0)
(0.938396 -0.184854 0)
(0.735349 -0.214641 0)
(1.00202 -0.162379 0)
(0.785712 -0.187568 0)
(1.05927 -0.143466 0)
(0.830021 -0.164896 0)
(1.11069 -0.127362 0)
(0.86879 -0.145412 0)
(1.15689 -0.113669 0)
(0.902098 -0.12868 0)
(1.19909 -0.101433 0)
(0.929979 -0.114597 0)
(1.2384 -0.0881882 0)
(0.953306 -0.10171 0)
(1.27401 -0.0712081 0)
(0.974237 -0.0864505 0)
(1.30318 -0.0515676 0)
(0.993674 -0.0666925 0)
(1.32321 -0.0358342 0)
(1.01097 -0.0447278 0)
(1.33786 -0.0278581 0)
(1.00594 -0.0290598 0)
(1.34831 -0.0224541 0)
(0.972972 -0.0181089 0)
(1.3445 -0.0140836 0)
(0.937012 -0.00163387 0)
(1.3228 -0.00518832 0)
(0.903292 0.0167716 0)
(1.28162 -0.000652885 0)
(0.860019 0.0309266 0)
(1.22641 -0.00130116 0)
(0.8069 0.0356681 0)
(1.16567 -0.00479997 0)
(0.748948 0.03188 0)
(1.1075 -0.00858153 0)
(0.693825 0.0217342 0)
(1.05834 -0.0116084 0)
(0.647023 0.00899559 0)
(1.01894 -0.0149264 0)
(0.618744 -0.00316369 0)
(0.990831 -0.0195736 0)
(0.604371 -0.0151345 0)
(0.981873 -0.02521 0)
(0.603921 -0.0295746 0)
(0.631105 -0.045072 0)
(0.122656 -0.683103 0)
(0.045347 -0.751254 0)
(0.229006 -0.604202 0)
(0.138356 -0.686637 0)
(0.316096 -0.506136 0)
(0.195451 -0.573609 0)
(0.389017 -0.422722 0)
(0.252018 -0.475679 0)
(0.450301 -0.35593 0)
(0.293547 -0.39715 0)
(0.501842 -0.302798 0)
(0.326372 -0.334592 0)
(0.545363 -0.260485 0)
(0.351344 -0.284905 0)
(0.582197 -0.226407 0)
(0.369602 -0.24516 0)
(0.613286 -0.198275 0)
(0.382174 -0.212718 0)
(0.639092 -0.174286 0)
(0.3899 -0.18528 0)
(0.659528 -0.153427 0)
(0.393188 -0.161172 0)
(0.674264 -0.135592 0)
(0.391781 -0.139776 0)
(0.68417 -0.120778 0)
(0.384466 -0.12188 0)
(0.691567 -0.107357 0)
(0.367215 -0.10702 0)
(0.697661 -0.0922519 0)
(0.342174 -0.0907219 0)
(0.701012 -0.0716578 0)
(0.31307 -0.068986 0)
(0.687047 -0.0443472 0)
(0.281232 -0.0353962 0)
(0.638865 -0.0167457 0)
(0.248102 0.00237401 0)
(0.565123 0.00681178 0)
(0.193513 0.0288638 0)
(0.494383 0.0299136 0)
(0.137208 0.0423624 0)
(0.434867 0.0504292 0)
(0.0950491 0.0529128 0)
(0.379527 0.0622226 0)
(0.054503 0.0637386 0)
(0.325438 0.0635225 0)
(0.0159416 0.0669804 0)
(0.275149 0.0544606 0)
(-0.0189923 0.0603052 0)
(0.233751 0.0370678 0)
(-0.0483143 0.0445811 0)
(0.20871 0.0157149 0)
(-0.0704054 0.0224889 0)
(0.202375 -0.00529171 0)
(-0.0774035 0.00016943 0)
(0.217192 -0.0270247 0)
(-0.0684342 -0.0227462 0)
(0.249004 -0.0502131 0)
(-0.0532746 -0.0455303 0)
(-0.0266211 -0.0634981 0)
(0.0675161 -0.765174 0)
(0.0128744 -0.817381 0)
(0.111289 -0.666271 0)
(0.0501071 -0.728497 0)
(0.140012 -0.552792 0)
(0.0404582 -0.600428 0)
(0.159911 -0.458677 0)
(0.0405982 -0.49382 0)
(0.171914 -0.383121 0)
(0.0277482 -0.407835 0)
(0.176999 -0.322802 0)
(0.0101531 -0.339011 0)
(0.176058 -0.274658 0)
(-0.0129685 -0.284106 0)
(0.169884 -0.235873 0)
(-0.0409731 -0.240045 0)
(0.159173 -0.2039 0)
(-0.0732824 -0.204053 0)
(0.144428 -0.176514 0)
(-0.109243 -0.173634 0)
(0.125594 -0.151978 0)
(-0.148126 -0.146647 0)
(0.101285 -0.129157 0)
(-0.189249 -0.121472 0)
(0.0675467 -0.107237 0)
(-0.232727 -0.0970751 0)
(0.020575 -0.0843156 0)
(-0.282377 -0.0733013 0)
(-0.0379619 -0.0568785 0)
(-0.337037 -0.0496937 0)
(-0.104899 -0.022313 0)
(-0.393267 -0.0231784 0)
(-0.164155 0.013901 0)
(-0.445924 0.0041976 0)
(-0.203505 0.0405828 0)
(-0.478144 0.0280458 0)
(-0.232187 0.0548637 0)
(-0.504644 0.0471335 0)
(-0.262693 0.0637113 0)
(-0.529845 0.0613353 0)
(-0.292739 0.0717814 0)
(-0.550365 0.0711587 0)
(-0.316455 0.0756916 0)
(-0.567051 0.0777998 0)
(-0.333979 0.070914 0)
(-0.578641 0.0771251 0)
(-0.345897 0.0567231 0)
(-0.585599 0.0670416 0)
(-0.352693 0.0351752 0)
(-0.589243 0.0483318 0)
(-0.355158 0.00988106 0)
(-0.591062 0.0238173 0)
(-0.349555 -0.0153923 0)
(-0.58986 -0.00277816 0)
(-0.339158 -0.0393211 0)
(-0.582159 -0.0280876 0)
(-0.326781 -0.0599486 0)
(-0.576894 -0.0517379 0)
(-0.574774 -0.0694541 0)
(0.00132005 -0.785547 0)
(-0.0238448 -0.818674 0)
(-0.0181553 -0.666825 0)
(-0.0484293 -0.709873 0)
(-0.0504453 -0.542231 0)
(-0.123639 -0.570278 0)
(-0.0878768 -0.441812 0)
(-0.184344 -0.459695 0)
(-0.130662 -0.360923 0)
(-0.253078 -0.36975 0)
(-0.177793 -0.296322 0)
(-0.322572 -0.29805 0)
(-0.228777 -0.244536 0)
(-0.393181 -0.240842 0)
(-0.283227 -0.202397 0)
(-0.463971 -0.19493 0)
(-0.340787 -0.167172 0)
(-0.534186 -0.157488 0)
(-0.400782 -0.136652 0)
(-0.603156 -0.126245 0)
(-0.462043 -0.109168 0)
(-0.670153 -0.099402 0)
(-0.523038 -0.0836752 0)
(-0.734163 -0.0755428 0)
(-0.582065 -0.0598374 0)
(-0.794118 -0.0536779 0)
(-0.637945 -0.0377085 0)
(-0.849466 -0.0331877 0)
(-0.689781 -0.0166997 0)
(-0.898831 -0.0133621 0)
(-0.73182 0.00359112 0)
(-0.940284 0.00559053 0)
(-0.7621 0.0238949 0)
(-0.970555 0.0244302 0)
(-0.785031 0.0444008 0)
(-0.992827 0.0430057 0)
(-0.803528 0.0615899 0)
(-1.01047 0.0589158 0)
(-0.818362 0.0728476 0)
(-1.02362 0.0705613 0)
(-0.829486 0.0790776 0)
(-1.03197 0.0779136 0)
(-0.834621 0.0796584 0)
(-1.03523 0.0808443 0)
(-0.834616 0.0723879 0)
(-1.03383 0.0771223 0)
(-0.831727 0.0568949 0)
(-1.02951 0.0654089 0)
(-0.828112 0.0349087 0)
(-1.02462 0.0463365 0)
(-0.825023 0.00950122 0)
(-1.02098 0.022153 0)
(-0.822287 -0.0168275 0)
(-1.0188 -0.00421748 0)
(-0.819213 -0.0419014 0)
(-1.01636 -0.0296672 0)
(-0.816059 -0.0626572 0)
(-1.01793 -0.0533198 0)
(-1.02154 -0.0714101 0)
(-0.0636546 -0.737774 0)
(-0.066499 -0.756328 0)
(-0.153415 -0.604592 0)
(-0.153815 -0.624034 0)
(-0.247997 -0.476882 0)
(-0.291193 -0.481966 0)
(-0.344946 -0.375765 0)
(-0.411635 -0.37131 0)
(-0.441231 -0.295285 0)
(-0.530635 -0.284043 0)
(-0.535644 -0.231748 0)
(-0.643265 -0.215994 0)
(-0.626895 -0.181643 0)
(-0.748907 -0.163409 0)
(-0.713856 -0.141875 0)
(-0.846905 -0.122879 0)
(-0.795635 -0.109758 0)
(-0.93678 -0.0913315 0)
(-0.871598 -0.0831384 0)
(-1.01829 -0.0662447 0)
(-0.941388 -0.0603786 0)
(-1.09156 -0.0455787 0)
(-1.00455 -0.0403453 0)
(-1.15599 -0.0279829 0)
(-1.06051 -0.022268 0)
(-1.21196 -0.0125337 0)
(-1.10849 -0.00553637 0)
(-1.25991 0.00125273 0)
(-1.14745 0.0105061 0)
(-1.30011 0.0139431 0)
(-1.17837 0.026456 0)
(-1.33235 0.02675 0)
(-1.20252 0.0423124 0)
(-1.35788 0.0405723 0)
(-1.22004 0.0570339 0)
(-1.37698 0.0544342 0)
(-1.23162 0.0689221 0)
(-1.3899 0.0662918 0)
(-1.23828 0.076801 0)
(-1.39732 0.0747047 0)
(-1.24041 0.0802257 0)
(-1.39968 0.0792059 0)
(-1.23776 0.078235 0)
(-1.39739 0.0792747 0)
(-1.23164 0.0695001 0)
(-1.39149 0.0735779 0)
(-1.22433 0.0537972 0)
(-1.38394 0.0612761 0)
(-1.21798 0.0324198 0)
(-1.37698 0.0428324 0)
(-1.21392 0.00773905 0)
(-1.37238 0.0199641 0)
(-1.2125 -0.0177387 0)
(-1.37073 -0.00496393 0)
(-1.21293 -0.0421552 0)
(-1.37163 -0.029445 0)
(-1.21458 -0.0626993 0)
(-1.37666 -0.0524917 0)
(-1.38172 -0.0698976 0)
(-0.134688 -0.625186 0)
(-0.115038 -0.62441 0)
(-0.289385 -0.48389 0)
(-0.262656 -0.476097 0)
(-0.444009 -0.359875 0)
(-0.458367 -0.33759 0)
(-0.591801 -0.265607 0)
(-0.630439 -0.236573 0)
(-0.728912 -0.193946 0)
(-0.7894 -0.161995 0)
(-0.854292 -0.139616 0)
(-0.931687 -0.107025 0)
(-0.967522 -0.0984391 0)
(-1.05589 -0.0673235 0)
(-1.06883 -0.0673122 0)
(-1.16355 -0.0389409 0)
(-1.15865 -0.0436863 0)
(-1.25669 -0.0186675 0)
(-1.23751 -0.0254523 0)
(-1.33711 -0.00395928 0)
(-1.30547 -0.011044 0)
(-1.40636 0.00683271 0)
(-1.36286 0.000851512 0)
(-1.46568 0.0152327 0)
(-1.41067 0.0113562 0)
(-1.5162 0.0226161 0)
(-1.45038 0.0213315 0)
(-1.55877 0.0297598 0)
(-1.48375 0.0316344 0)
(-1.59458 0.0373334 0)
(-1.51153 0.0427673 0)
(-1.62443 0.0457561 0)
(-1.53306 0.0542747 0)
(-1.64805 0.0549623 0)
(-1.54788 0.0648054 0)
(-1.6652 0.0641022 0)
(-1.55645 0.0729149 0)
(-1.67611 0.0717523 0)
(-1.55974 0.0776704 0)
(-1.68139 0.0767489 0)
(-1.5585 0.0784842 0)
(-1.68176 0.0784518 0)
(-1.55339 0.0745527 0)
(-1.67805 0.0762483 0)
(-1.5459 0.0650095 0)
(-1.67156 0.0692403 0)
(-1.53808 0.0497137 0)
(-1.66417 0.0568542 0)
(-1.53188 0.0296326 0)
(-1.65788 0.039412 0)
(-1.52866 0.00661009 0)
(-1.65435 0.0182285 0)
(-1.52895 -0.0173376 0)
(-1.65445 -0.00481096 0)
(-1.53214 -0.0405484 0)
(-1.65851 -0.0278078 0)
(-1.53788 -0.0599913 0)
(-1.66631 -0.0496111 0)
(-1.67222 -0.0653042 0)
(-0.209078 -0.451799 0)
(-0.172306 -0.419631 0)
(-0.425898 -0.313147 0)
(-0.384483 -0.268751 0)
(-0.633801 -0.203763 0)
(-0.633358 -0.143467 0)
(-0.822504 -0.124985 0)
(-0.838705 -0.064539 0)
(-0.988822 -0.0682894 0)
(-1.01597 -0.0139498 0)
(-1.13114 -0.0295342 0)
(-1.16611 0.0166684 0)