/*--------------------------------*- C++ -*----------------------------------*\
  =========                 |
  \\      /  F ield         | OpenFOAM: The Open Source CFD Toolbox
   \\    /   O peration     | Website:  https://openfoam.org
    \\  /    A nd           | Version:  7
     \\/     M anipulation  |
\*---------------------------------------------------------------------------*/
FoamFile
{
    version     2.0;
    format      ascii;
    class       volScalarField;
    location    "4";
    object      p;
}
// * * * * * * * * * * * * * * * * * * * * * * * * * * * * * * * * * * * * * //

dimensions      [0 2 -2 0 0 0 0];

internalField   nonuniform List<scalar> 
2790
(
147.157
147.064
147.332
147.903
148.683
149.64
150.772
152.079
153.556
155.197
156.996
158.947
161.041
163.265
165.606
168.041
170.546
173.085
175.616
178.091
180.449
182.627
184.557
186.178
187.438
188.312
188.748
188.803
188.854
189.067
146.954
146.972
147.264
147.832
148.609
149.563
150.691
151.991
153.46
155.093
156.883
158.824
160.907
163.12
165.45
167.875
170.371
172.904
175.435
177.913
180.281
182.476
184.431
186.079
187.364
188.238
188.635
188.69
188.822
189.107
146.756
146.843
147.155
147.712
148.476
149.417
150.53
151.812
153.26
154.868
156.63
158.539
160.587
162.763
165.051
167.433
169.885
172.376
174.868
177.315
179.665
181.858
183.83
185.52
186.871
187.847
188.44
188.795
189.111
189.409
146.531
146.649
146.973
147.522
148.271
149.196
150.289
151.547
152.966
154.541
156.264
158.13
160.128
162.249
164.477
166.795
169.179
171.602
174.029
176.42
178.727
180.899
182.881
184.62
186.075
187.227
188.095
188.766
189.319
189.838
146.27
146.402
146.735
147.276
148.008
148.912
149.98
151.207
152.589
154.12
155.794
157.603
159.539
161.59
163.741
165.977
168.275
170.61
172.952
175.265
177.51
179.645
181.627
183.418
184.988
186.331
187.461
188.424
189.235
189.982
145.969
146.107
146.442
146.974
147.686
148.564
149.6
150.789
152.126
153.606
155.221
156.963
158.824
160.792
162.853
164.991
167.186
169.415
171.652
173.867
176.03
178.107
180.069
181.89
183.553
185.055
186.401
187.607
188.627
189.545
145.627
145.766
146.097
146.616
147.305
148.153
149.152
150.297
151.583
153.003
154.55
156.216
157.991
159.863
161.82
163.846
165.922
168.028
170.141
172.237
174.292
176.283
178.19
180.001
181.707
183.307
184.801
186.18
187.345
188.392
145.242
145.379
145.703
146.206
146.869
147.683
148.64
149.736
150.963
152.316
153.787
155.366
157.045
158.811
160.651
162.55
164.491
166.455
168.423
170.374
172.292
174.159
175.966
177.708
179.387
181.006
182.561
184.033
185.283
186.434
144.816
144.949
145.263
145.746
146.38
147.156
148.067
149.108
150.271
151.55
152.936
154.421
155.993
157.641
159.352
161.11
162.9
164.703
166.502
168.281
170.024
171.722
173.37
174.97
176.532
178.067
179.575
181.046
182.317
183.555
144.349
144.477
144.778
145.238
145.841
146.575
147.436
148.417
149.511
150.709
152.004
153.386
154.843
156.363
157.932
159.536
161.158
162.78
164.386
165.959
167.487
168.961
170.379
171.747
173.08
174.398
175.719
177.056
178.257
179.561
143.844
143.965
144.251
144.686
145.254
145.945
146.752
147.669
148.688
149.8
150.997
152.269
153.602
154.985
156.402
157.838
159.276
160.697
162.083
163.418
164.685
165.875
166.982
168.01
168.974
169.902
170.832
171.831
172.793
174.111
143.302
143.416
143.684
144.093
144.624
145.267
146.017
146.866
147.806
148.829
149.923
151.077
152.28
153.517
154.773
156.029
157.267
158.468
159.61
160.672
161.634
162.476
163.184
163.749
164.175
164.485
164.727
165.035
165.416
166.59
142.725
142.832
143.081
143.461
143.953
144.547
145.237
146.015
146.873
147.8
148.787
149.82
150.887
151.971
153.056
154.123
155.15
156.113
156.989
157.748
158.36
158.795
159.016
158.991
158.687
158.089
157.214
156.221
155.272
155.777
142.115
142.214
142.444
142.793
143.244
143.787
144.415
145.12
145.893
146.722
147.598
148.506
149.431
150.358
151.267
152.136
152.941
153.655
154.246
154.678
154.908
154.885
154.546
153.813
152.59
150.76
148.196
144.893
140.943
138.906
141.476
141.566
141.776
142.094
142.502
142.993
143.557
144.186
144.872
145.601
146.363
147.143
147.925
148.69
149.418
150.085
150.662
151.119
151.415
151.505
151.332
150.821
149.876
148.361
146.081
142.748
137.904
130.885
120.42
108.191
1.5307
1.50965
1.43529
1.33151
1.22161
1.11648
1.01941
0.930768
0.849923
0.77576
0.706952
0.642203
0.580438
0.520923
0.463332
0.407758
0.354637
0.304571
0.258121
0.215677
0.177526
0.144143
0.116447
0.094946
0.0786092
0.0653156
0.0527585
0.0396698
0.0254325
0.00981784
1.47593
1.45142
1.38165
1.28637
1.18535
1.08788
0.997047
0.913411
0.83652
0.765417
0.698925
0.635874
0.57529
0.516522
0.459337
0.403942
0.350897
0.300907
0.254544
0.212125
0.173953
0.140769
0.113554
0.0927311
0.0773352
0.0649498
0.0530194
0.0403633
0.0265175
0.0118153
1.41823
1.3886
1.32156
1.23401
1.14222
1.05311
0.969292
0.891423
0.819178
0.751736
0.68806
0.62711
0.568012
0.510213
0.453582
0.398463
0.34558
0.295788
0.24972
0.207607
0.169616
0.136541
0.109771
0.0900792
0.0759252
0.0643297
0.0526434
0.0401732
0.0264004
0.0105733
1.366
1.33135
1.26599
1.18473
1.10108
1.01948
0.942113
0.869621
0.801768
0.737842
0.676921
0.61807
0.560511
0.503775
0.44782
0.393097
0.340461
0.290914
0.24519
0.203473
0.165644
0.132245
0.10503
0.0858561
0.073381
0.0634112
0.0532292
0.0415566
0.0278644
0.0104983
1.33503
1.29555
1.23204
1.15488
1.07671
0.999894
0.926553
0.857339
0.792111
0.730253
0.670929
0.613285
0.556619
0.500541
0.445078
0.390725
0.338362
0.289009
0.243479
0.202132
0.165203
0.133352
0.1076
0.0886516
0.0745537
0.0624032
0.0502639
0.0380056
0.025513
0.00950367
1.33806
1.29262
1.23043
1.15346
1.07638
1.00001
0.926891
0.857731
0.792476
0.730557
0.671166
0.613483
0.556848
0.500912
0.445723
0.391752
0.339782
0.290694
0.245233
0.203886
0.167069
0.135614
0.110461
0.0916122
0.0770687
0.0642032
0.0515158
0.038421
0.0244219
0.00782619
1.38337
1.33018
1.26299
1.18201
1.09936
1.01834
0.941252
0.86879
0.800815
0.736696
0.675594
0.616687
0.559317
0.503096
0.44801
0.394431
0.34301
0.29448
0.249459
0.2084
0.171774
0.140252
0.114353
0.0938633
0.0775426
0.0632752
0.0496133
0.0357763
0.0211164
0.00661144
1.4723
1.40634
1.32539
1.23143
1.13718
1.04672
0.962112
0.883743
0.811234
0.743738
0.680218
0.619726
0.561507
0.505005
0.450062
0.396916
0.346108
0.298279
0.253955
0.213499
0.177283
0.145767
0.119198
0.096985
0.0789153
0.0631513
0.048081
0.0325991
0.0170736
0.00498236
1.59378
1.50452
1.40004
1.28522
1.17473
1.07254
0.979536
0.895012
0.817835
0.747107
0.681508
0.619876
0.561316
0.504975
0.450506
0.398021
0.348012
0.301131
0.257858
0.218369
0.182686
0.150799
0.123028
0.0994185
0.0796154
0.0623468
0.0458728
0.0288315
0.0128731
0.00346221
1.71943
1.59612
1.46624
1.33152
1.20309
1.08733
0.985188
0.895454
0.815851
0.743801
0.677447
0.61551
0.557081
0.501546
0.448169
0.396729
0.347768
0.302168
0.260456
0.222447
0.187566
0.155581
0.126749
0.10142
0.0797294
0.0608728
0.0429633
0.0245172
0.00850657
0.00194418
1.81379
1.66022
1.50119
1.346
1.20607
1.08338
0.977125
0.885232
0.80507
0.733468
0.667853
0.606831
0.54971
0.495695
0.443719
0.393314
0.34524
0.300916
0.261126
0.22528
0.191968
0.160239
0.130218
0.102836
0.0790503
0.0586063
0.0394696
0.020006
0.00428966
0.000498612
1.85892
1.66876
1.48462
1.31318
1.16713
1.04509
0.942286
0.854728
0.779249
0.71201
0.649682
0.591176
0.536728
0.485684
0.436204
0.387211
0.339927
0.296952
0.259733
0.227056
0.19613
0.164917
0.13344
0.103492
0.0772478
0.0552452
0.0353031
0.0154154
0.000359082
-0.000831044
1.78702
1.5416
1.35328
1.19642
1.06846
0.96468
0.87743
0.802211
0.737716
0.679827
0.623653
0.568821
0.518037
0.471479
0.425764
0.378365
0.33124
0.289311
0.255502
0.227622
0.2004
0.170056
0.136619
0.103241
0.0739224
0.0504067
0.030338
0.0108483
-0.00316301
-0.00200443
1.45382
1.16715
1.05202
0.973383
0.897922
0.837329
0.782387
0.728044
0.680713
0.638029
0.590842
0.539563
0.49279
0.452944
0.413223
0.367623
0.31916
0.277195
0.247757
0.227134
0.205603
0.176502
0.140154
0.101923
0.0685228
0.0435416
0.0243815
0.00642199
-0.00615762
-0.00298098
0.685082
0.364028
0.497048
0.641455
0.657366
0.672696
0.670232
0.637261
0.607331
0.588274
0.555075
0.505491
0.461592
0.431505
0.401354
0.357151
0.303609
0.258679
0.23464
0.225396
0.212768
0.185321
0.144471
0.0992154
0.0602075
0.0338155
0.0171437
0.00233381
-0.00848536
-0.00371972
140.797
140.878
141.066
141.351
141.716
142.151
142.649
143.201
143.796
144.423
145.068
145.716
146.349
146.949
147.492
147.951
148.295
148.486
148.48
148.22
147.633
146.625
145.06
142.746
139.383
134.476
127.104
115.349
93.1784
33.3455
140.07
140.141
140.307
140.557
140.876
141.254
141.683
142.154
142.656
143.176
143.7
144.213
144.695
145.124
145.478
145.724
145.831
145.754
145.444
144.834
143.841
142.351
140.205
137.172
132.895
126.788
117.818
104.252
84.726
56.2769
139.3
139.362
139.504
139.718
139.99
140.309
140.667
141.056
141.462
141.873
142.275
142.65
142.978
143.237
143.399
143.435
143.305
142.966
142.36
141.418
140.047
138.128
135.496
131.92
127.076
120.508
111.627
99.795
85.5667
68.9638
138.49
138.541
138.66
138.837
139.06
139.319
139.605
139.909
140.219
140.521
140.799
141.036
141.211
141.3
141.275
141.103
140.746
140.156
139.274
138.028
136.328
134.055
131.057
127.14
122.054
115.509
107.207
96.8181
84.2805
69.1568
137.64
137.681
137.775
137.915
138.089
138.287
138.501
138.72
138.933
139.125
139.281
139.381
139.405
139.328
139.122
138.752
138.18
137.357
136.225
134.716
132.742
130.197
126.953
122.853
117.718
111.347
103.541
94.0579
82.7304
69.766
136.753
136.784
136.853
136.955
137.079
137.217
137.358
137.493
137.61
137.694
137.728
137.695
137.573
137.337
136.958
136.402
135.632
134.599
133.251
131.521
129.332
126.595
123.203
119.038
113.969
107.863
100.597
92.071
82.2774
71.629
135.832
135.852
135.897
135.961
136.036
136.113
136.182
136.234
136.256
136.234
136.152
135.99
135.728
135.34
134.8
134.074
133.125
131.91
130.378
128.472
126.126
123.266
119.808
115.668
110.757
104.997
98.3332
90.7553
82.3068
73.3233
134.88
134.889
134.91
134.937
134.963
134.98
134.979
134.95
134.88
134.755
134.56
134.275
133.881
133.354
132.666
131.786
130.681
129.311
127.631
125.592
123.14
120.216
116.759
112.711
108.018
102.64
96.5633
89.8086
82.4258
74.6867
133.9
133.9
133.896
133.886
133.864
133.823
133.753
133.645
133.487
133.265
132.962
132.563
132.047
131.39
130.569
129.555
128.317
126.819
125.025
122.892
120.378
117.44
114.034
110.123
105.677
100.683
95.1455
89.0996
82.5988
75.8703
132.897
132.886
132.86
132.814
132.746
132.648
132.512
132.329
132.086
131.771
131.369
130.863
130.235
129.463
128.525
127.395
126.046
124.448
122.569
120.378
117.84
114.926
111.606
107.858
103.671
99.0456
93.9986
88.57
82.8126
76.9112
131.875
131.855
131.805
131.725
131.613
131.461
131.262
131.007
130.686
130.284
129.79
129.187
128.457
127.583
126.544
125.317
123.879
122.205
120.27
118.049
115.518
112.656
109.445
105.876
101.947
97.6676
93.0617
88.1684
83.0357
77.8117
130.839
130.81
130.738
130.626
130.47
130.268
130.01
129.688
129.292
128.812
128.233
127.542
126.724
125.761
124.636
123.33
121.823
120.096
118.128
115.902
113.401
110.611
107.524
104.138
100.458
96.4984
92.2852
87.8543
83.2476
78.5841
129.795
129.756
129.665
129.521
129.326
129.075
128.761
128.378
127.914
127.361
126.707
125.939
125.043
124.005
122.809
121.441
119.884
118.122
116.142
113.93
111.475
108.771
105.815
102.61
99.165
95.4976
91.632
87.6006
83.4391
79.2437
128.747
128.701
128.59
128.417
128.184
127.889
127.525
127.084
126.56
125.941
125.22
124.384
123.422
122.321
121.07
119.654
118.063
116.284
114.307
112.123
109.727
107.117
104.293
101.263
98.0373
94.6336
91.0745
87.3885
83.6058
79.8041
127.703
127.649
127.52
127.321
127.054
126.717
126.306
125.815
125.235
124.559
123.779
122.885
121.868
120.717
119.421
117.972
116.361
114.577
112.616
110.472
108.144
105.63
102.937
100.073
97.0483
93.8813
90.5921
87.2051
83.7457
80.2773
126.669
126.607
126.462
126.238
125.94
125.566
125.114
124.576
123.948
123.222
122.392
121.449
120.386
119.195
117.868
116.397
114.776
113
111.065
108.968
106.71
104.295
101.727
99.0172
96.1767
93.2212
90.1691
87.0413
83.8591
80.6743
125.651
125.583
125.423
125.176
124.85
124.443
123.953
123.375
122.704
121.935
121.063
120.08
118.981
117.76
116.411
114.928
113.308
111.547
109.644
107.599
105.415
103.095
100.646
98.0793
95.4051
92.6379
89.794
86.8912
83.9473
81.0049
124.656
124.582
124.409
124.142
123.791
123.355
122.832
122.219
121.511
120.706
119.799
118.784
117.657
116.414
115.051
113.565
111.953
110.214
108.348
106.358
104.245
102.017
99.6805
97.2443
94.7198
92.1198
89.4584
86.7509
84.0124
81.2778
123.691
123.613
123.427
123.143
122.769
122.308
121.756
121.113
120.375
119.54
118.604
117.564
116.417
115.16
113.79
112.307
110.709
108.996
107.17
105.234
103.193
101.051
98.8173
96.5001
94.1097
91.6575
89.156
86.6182
84.0569
81.501
122.765
122.681
122.486
122.186
121.793
121.309
120.734
120.065
119.302
118.442
117.483
116.425
115.263
113.998
112.628
111.152
109.572
107.888
106.103
104.221
102.247
100.186
98.0469
95.837
93.5661
91.2444
88.8826
86.4921
84.0837
81.6816
121.884
121.796
121.592
121.279
120.869
120.366
119.77
119.08
118.296
117.417
116.442
115.369
114.199
112.93
111.564
110.1
108.54
106.886
105.142
103.312
101.401
99.4151
97.3612
95.2475
93.0824
90.8751
88.6352
86.3722
84.0957
81.8258
121.056
120.965
120.753
120.428
120.004
119.485
118.872
118.165
117.365
116.47
115.482
114.401
113.226
111.958
110.598
109.148
107.61
105.987
104.283
102.502
100.649
98.7308
96.7539
94.7255
92.6536
90.5463
88.412
86.2593
84.0963
81.9397
120.289
120.195
119.976
119.642
119.205
118.673
118.047
117.326
116.512
115.607
114.61
113.523
112.346
111.082
109.732
108.297
106.781
105.188
103.521
101.785
99.9856
98.1282
96.2196
94.2664
92.2758
90.2552
88.2121
86.154
84.088
82.0282
119.592
119.495
119.27
118.927
118.481
117.938
117.3
116.568
115.745
114.831
113.829
112.739
111.563
110.305
108.964
107.546
106.052
104.487
102.854
101.16
99.4076
97.6042
95.7554
93.8675
91.9472
90.0012
88.036
86.0585
84.075
82.0973
118.973
118.874
118.643
118.292
117.837
117.285
116.638
115.898
115.068
114.148
113.142
112.052
110.879
109.626
108.297
106.894
105.421
103.881
102.28
100.622
98.9115
97.1549
95.3576
93.5257
91.6651
89.7821
87.8826
85.9728
84.0583
82.149
118.441
118.339
118.103
117.745
117.282
116.723
116.07
115.323
114.487
113.564
112.557
111.467
110.298
109.052
107.734
106.345
104.89
103.374
101.8
100.173
98.4983
96.7815
95.0277
93.2427
91.432
89.6014
87.7564
85.9025
84.0451
82.1925
118.006
117.901
117.657
117.291
116.822
116.257
115.598
114.846
114.007
113.081
112.073
110.985
109.82
108.581
107.272
105.896
104.458
102.961
101.409
99.8086
98.1635
96.4791
94.7606
93.0133
91.2426
89.4539
87.6522
85.8426
84.0301
82.2215
117.68
117.569
117.316
116.944
116.47
115.9
115.237
114.482
113.64
112.713
111.705
110.619
109.457
108.225
106.924
105.558
104.133
102.651
101.118
99.5382
97.9163
96.2573
94.5664
92.8486
91.109
89.3527
87.5846
85.8096
84.0323
82.2588
117.478
117.343
117.073
116.695
116.219
115.647
114.981
114.224
113.381
112.454
111.447
110.363
109.205
107.977
106.682
105.324
103.908
102.437
100.917
99.3513
97.7451
96.1032
94.4307
92.7325
91.0134
89.2784
87.5322
85.7793
84.0243
82.2719
117.46
117.261
116.963
116.578
116.099
115.523
114.855
114.096
113.252
112.325
111.319
110.237
109.081
107.857
106.566
105.214
103.805
102.342
100.83
99.2739
97.678
96.0473
94.3866
92.7008
90.9946
89.2728
87.54
85.8007
84.0593
82.3199
-50.6522
-30.448
-11.1024
35.9575
28.6259
16.8204
51.5209
39.49
28.3558
52.9122
42.5132
34.4997
57.2359
48.9673
42.2307
61.614
54.7203
48.843
64.8752
59.0045
53.9648
67.4595
62.4422
58.1395
69.6377
65.3108
61.6064
71.4758
67.7009
64.4769
73.021
69.6934
66.8585
74.3225
71.3619
68.8447
75.4208
72.7642
70.5088
76.348
73.9456
71.9081
77.1306
74.9425
73.0881
77.7904
75.7845
74.085
78.3455
76.4954
74.9277
78.8112
77.0949
75.64
79.2003
77.5992
76.241
79.5238
78.0222
76.7472
79.7912
78.3755
77.1718
80.0112
78.6694
77.5269
80.1904
78.9119
77.8217
80.3369
79.1123
78.0662
80.4531
79.2737
78.2647
80.5508
79.4087
78.4298
80.6213
79.5091
78.5549
80.6932
79.6037
78.6668
80.7266
79.6535
78.7305
80.7955
79.7365
78.82
-2.3219
-2.17476
-0.734111
0.359705
0.420765
0.484517
0.539131
0.515164
0.505937
0.54087
0.532916
0.471613
0.41959
0.401126
0.388626
0.346427
0.282172
0.229933
0.213907
0.22388
0.225627
0.19974
0.151172
0.0951591
0.0479185
0.0199273
0.00813498
-0.000985462
-0.00986498
-0.0041832
3.10103
0.0334117
1.3017
0.94626
-0.216724
-0.110683
0.419672
0.483049
0.458721
0.538974
0.524246
0.40969
0.336633
0.355037
0.394092
0.356185
0.266527
0.193284
0.183829
0.221912
0.246058
0.220595
0.158871
0.0866402
0.0276944
-0.00165693
-0.00405514
-0.00268967
-0.00960845
-0.00432094
14.1274
5.70495
2.86164
0.609999
0.156078
1.14807
1.37146
0.368038
-0.0926332
0.188971
0.533028
0.414382
0.302795
0.364097
0.443301
0.371642
0.220753
0.102154
0.104779
0.20434
0.28659
0.260598
0.175515
0.0789319
0.00306982
-0.0287376
-0.0169331
0.00130258
-0.00493337
-0.00406955
23.7835
13.9299
8.09266
4.34715
2.50396
1.79479
0.775115
0.0890509
0.19506
1.31354
1.3771
0.319605
-0.112652
-0.0108937
0.35177
0.441222
0.222333
0.0353591
0.0643358
0.270752
0.380389
0.313756
0.184052
0.0514583
-0.0485581
-0.0847701
-0.0490665
0.00490024
0.00422649
-0.00396752
32.9132
23.1702
15.8624
10.5622
6.90035
4.41018
2.58119
1.52288
1.13708
1.20686
0.717951
0.141769
-0.0584886
0.509716
1.11599
0.772615
0.137619
-0.265207
-0.315996
0.073883
0.460629
0.402157
0.210807
0.0346638
-0.0901122
-0.126209
-0.0500752
0.0584684
0.0434783
-0.00306654
40.8594
31.9452
24.0641
17.634
12.7042
9.04677
6.36142
4.45826
3.16326
2.27825
1.49552
0.880416
0.554724
0.66435
0.711359
0.528559
0.0727235
-0.309187
-0.205281
0.627489
0.939317
0.474383
0.169715
-0.0564611
-0.209742
-0.262896
-0.173837
0.0400705
0.0904817
-0.00754143
47.3406
39.5429
31.7735
24.887
19.2591
14.7894
11.2575
8.4962
6.38706
4.80227
3.56348
2.57375
1.87002
1.47366
1.19142
0.875491
0.414627
0.0487126
0.077252
0.467614
0.60396
0.447598
0.198491
-0.0413951
-0.217943
-0.262361
-0.0775205
0.252074
0.27313
-0.0102525
52.6198
45.8935
38.6404
31.8131
25.9288
20.9784
16.8329
13.4032
10.6199
8.39039
6.5847
5.113
3.9668
3.12948
2.49039
1.90404
1.31507
0.86331
0.702063
0.774418
0.793052
0.625554
0.333174
0.055914
-0.135007
-0.185424
-0.06428
0.129816
0.253431
-0.0670856
56.9268
51.1127
44.531
38.0588
32.2401
27.1255
22.6513
18.7823
15.4884
12.7152
10.3856
8.43742
6.83965
5.55689
4.50925
3.6013
2.79954
2.16314
1.75959
1.54935
1.36332
1.07322
0.712503
0.385161
0.153707
0.052432
0.0839224
0.175458
0.184566
-0.305109
60.4415
55.375
49.4735
43.489
37.9342
32.8866
28.3176
24.2229
20.604
17.4422
14.6999
12.3375
10.3226
8.61976
7.17526
5.93064
4.8564
3.96658
3.28264
2.77206
2.33167
1.87473
1.4084
0.990938
0.667508
0.458897
0.355143
0.287242
0.107569
-0.524544
63.3278
58.8685
53.5886
48.1199
42.9222
38.0785
33.5761
29.4266
25.6507
22.254
19.2243
16.5409
14.1817
12.1209
10.3242
8.75421
7.38515
6.2116
5.23248
4.42034
3.71252
3.05196
2.42891
1.87005
1.4031
1.03776
0.755282
0.490032
0.120485
-0.607489
65.7183
61.7542
57.0156
52.0356
47.2191
42.6446
38.305
34.2176
30.4118
26.9064
23.7049
20.8016
18.1861
15.8436
13.7535
11.8923
10.2402
8.78567
7.51894
6.41746
5.44144
4.55181
3.7329
2.99272
2.34397
1.78696
1.29892
0.82366
0.272007
-0.539447
67.7121
64.1559
59.8798
55.3393
50.8909
46.6049
42.475
38.5184
34.7669
31.2448
27.9649
24.9314
22.143
19.5941
17.2743
15.17
13.2679
11.5567
10.0251
8.65515
7.42027
6.29316
5.2578
4.31188
3.45714
2.68739
1.98
1.29048
0.557531
-0.346271
69.3843
66.1675
62.2846
58.1303
54.0201
50.0162
46.1109
42.3191
38.6709
35.1927
31.9015
28.8072
25.9148
23.2254
20.7359
18.44
16.3298
14.3969
12.6316
11.0204
9.54516
8.18639
6.92975
5.76793
4.69612
3.70467
2.77321
1.86829
0.949588
-0.0664254
70.7924
67.8607
64.3125
60.494
56.6872
52.9465
49.2627
45.6471
42.1271
38.7286
35.47
32.3641
29.4199
26.6426
24.0341
21.5934
19.3171
17.1999
15.2352
13.4132
11.7214
10.1459
8.67457
7.29835
6.00933
4.79661
3.64279
2.52322
1.41189
0.25866
71.9816
69.2906
66.0283
62.5012
58.963
55.462
51.9872
48.5465
45.1641
41.864
38.6645
35.5796
32.6202
29.7944
27.1071
24.5608
22.1556
19.8893
17.7579
15.7552
13.8725
12.1
10.4277
8.84661
7.34795
5.92082
4.55055
3.21878
1.9081
0.592599
72.9873
70.5007
67.4833
64.2087
60.907
57.6212
54.339
51.0651
47.8203
44.6264
41.5007
38.4572
35.5076
32.6613
29.9254
27.3047
24.8016
22.4165
20.1478
17.9919
15.9433
13.995
12.1389
10.3672
8.67096
7.04011
5.46208
3.9224
2.40798
0.909222
73.8381
71.5256
68.7186
65.6628
62.5685
59.4744
56.367
53.2483
50.136
47.0492
44.0041
41.0139
38.0903
35.2433
32.4811
29.8099
27.2338
24.7551
22.3742
20.0896
17.898
15.7946
13.7731
11.8267
9.94733
8.12554
6.35023
4.609
2.8901
1.1938
74.5574
72.3934
69.7672
66.9012
63.9884
61.0639
58.1135
55.137
52.149
49.1664
46.2035
43.2727
40.3852
37.551
34.7786
32.0751
29.4458
26.8942
24.4222
22.0299
19.7157
17.4765
15.3076
13.203
11.1556
9.15667
7.19582
5.26148
3.34156
1.44124
75.1644
73.1272
70.6565
67.9549
65.2004
62.4252
59.6148
56.7668
53.8935
51.0093
48.1271
45.258
42.4123
39.5996
36.8286
34.1066
31.4395
28.8318
26.2863
23.8044
21.3857
19.0284
16.729
14.4824
12.2823
10.1203
7.98663
5.86966
3.75616
1.65295
75.6753
73.7461
71.4091
68.8494
66.2326
63.5882
60.9015
58.1687
55.3995
52.6067
49.8013
46.9932
44.1918
41.4061
38.6445
35.9141
33.2213
30.571
27.9667
25.4106
22.9034
20.444
18.0299
15.6568
13.3189
11.0084
8.71538
6.42802
4.13181
1.83322
76.1036
74.2664
72.044
69.6066
67.1088
64.5783
62.0001
59.3693
56.6936
53.984
51.25
48.5004
45.7435
42.9876
40.2404
37.5091
34.7999
32.1178
29.467
26.85
24.2681
21.7211
19.207
16.7222
14.2613
11.8166
9.37845
6.93442
4.46896
1.98718
76.4607
74.7014
72.5766
70.244
67.8485
65.4163
62.9325
60.391
57.798
55.163
52.4941
49.799
47.085
44.3595
41.6298
38.9026
36.1838
33.4786
30.7913
28.1246
25.4804
22.8588
20.2584
17.6759
15.1063
12.542
9.97324
7.38738
4.768
2.11839
76.7574
75.0635
73.0213
70.7777
68.4693
66.1212
63.7184
61.2542
58.7334
56.164
53.5533
50.9076
48.2335
45.5376
42.8266
40.1065
37.3832
34.6617
31.946
29.2394
26.5436
23.8592
21.1851
18.5183
15.8538
13.1844
10.5001
7.78803
5.03124
2.23072
76.9998
75.3602
73.3871
71.2179
68.9828
66.7054
64.3711
61.9726
59.5136
57.0009
54.4408
51.8388
49.2007
46.5323
43.8396
41.1283
38.4038
35.6709
32.9336
30.1951
27.4572
24.7207
21.9846
19.2461
16.5004
13.7403
10.9557
8.13355
5.25671
2.32382
77.1997
75.6043
73.6879
71.58
69.405
67.186
64.9084
62.5645
60.1571
57.6921
55.1749
52.6104
50.0035
47.3596
44.6839
41.9818
39.2582
36.5177
33.7641
31.0006
28.229
25.4501
22.6629
19.8649
17.0512
14.2146
11.3451
8.42936
5.45011
2.4029
77.354
75.7934
73.9218
71.8626
69.7354
67.5628
65.3305
63.0303
60.6644
58.2378
55.7555
53.2217
50.6406
48.0171
45.3561
42.6624
39.9407
37.1952
34.4296
31.6469
28.8491
26.0366
23.2089
20.363
17.4944
14.5958
11.657
8.66463
5.60154
2.46093
77.4848
75.95
74.1124
72.09
69.999
67.8615
65.6635
63.3966
61.0622
58.6651
56.2095
53.6993
51.1383
48.5308
45.8815
43.1947
40.4749
37.7262
34.952
32.1552
29.3376
26.4999
23.6411
20.7588
17.848
14.9014
11.9088
8.85658
5.72739
2.51058
77.5653
76.0466
74.2313
72.234
70.1674
68.0533
65.8783
63.6336
61.3205
58.9431
56.5055
54.0112
51.4638
48.8673
46.2259
43.5441
40.8258
38.0751
35.2954
32.4892
29.6586
26.8039
23.9245
21.0174
18.078
15.0987
12.0691
8.97531
5.79987
2.53049
77.654
76.1364
74.3334
72.3511
70.2982
68.1968
66.0339
63.8009
61.4988
59.1315
56.703
54.2165
51.6755
49.084
46.446
43.7657
41.0473
38.2944
35.5106
32.6984
29.8596
26.9949
24.1033
21.1822
18.2266
15.2289
12.1784
9.06026
5.8545
2.53712
)
;

boundaryField
{
    inlet
    {
        type            zeroGradient;
    }
    outlet
    {
        type            fixedValue;
        value           uniform 0;
    }
    flap
    {
        type            zeroGradient;
    }
    upperWall
    {
        type            zeroGradient;
    }
    lowerWall
    {
        type            zeroGradient;
    }
    frontAndBack
    {
        type            empty;
    }
}


// ************************************************************************* //
