/*--------------------------------*- C++ -*----------------------------------*\
  =========                 |
  \\      /  F ield         | OpenFOAM: The Open Source CFD Toolbox
   \\    /   O peration     | Website:  https://openfoam.org
    \\  /    A nd           | Version:  7
     \\/     M anipulation  |
\*---------------------------------------------------------------------------*/
FoamFile
{
    version     2.0;
    format      ascii;
    class       volVectorField;
    location    "4";
    object      U;
}
// * * * * * * * * * * * * * * * * * * * * * * * * * * * * * * * * * * * * * //

dimensions      [0 1 -1 0 0 0 0];

internalField   nonuniform List<vector> 
2790
(
(9.94399 0.0205231 0)
(9.87572 0.0295875 0)
(9.77521 0.0359893 0)
(9.64944 0.0425558 0)
(9.50409 0.049385 0)
(9.34007 0.0564277 0)
(9.15656 0.0638151 0)
(8.95264 0.0717106 0)
(8.72748 0.0802541 0)
(8.48011 0.0895722 0)
(8.2093 0.0997921 0)
(7.91368 0.111044 0)
(7.59173 0.123459 0)
(7.24183 0.137163 0)
(6.86238 0.152271 0)
(6.45186 0.168869 0)
(6.00895 0.186997 0)
(5.53277 0.206619 0)
(5.02306 0.227591 0)
(4.48054 0.249612 0)
(3.90726 0.272178 0)
(3.30694 0.294528 0)
(2.68539 0.315623 0)
(2.05073 0.334293 0)
(1.4119 0.350611 0)
(0.798128 0.372888 0)
(0.110839 0.325109 0)
(-0.469553 -0.114837 0)
(-0.453762 -0.297171 0)
(-0.231161 -0.423863 0)
(9.9985 0.0407028 0)
(9.98145 0.0623824 0)
(9.93575 0.0791394 0)
(9.86417 0.0966237 0)
(9.77098 0.115122 0)
(9.65716 0.134486 0)
(9.52207 0.154972 0)
(9.36487 0.17694 0)
(9.18474 0.200704 0)
(8.9807 0.226546 0)
(8.75156 0.25474 0)
(8.49592 0.285556 0)
(8.21225 0.319244 0)
(7.89888 0.356018 0)
(7.5541 0.396015 0)
(7.17626 0.439258 0)
(6.76387 0.485589 0)
(6.31575 0.534584 0)
(5.83135 0.58546 0)
(5.31099 0.636954 0)
(4.75627 0.687206 0)
(4.17053 0.733651 0)
(3.55942 0.77296 0)
(2.93167 0.801104 0)
(2.30007 0.813764 0)
(1.69306 0.807272 0)
(1.10726 0.747287 0)
(0.658961 0.547972 0)
(0.186554 0.224677 0)
(-0.0081994 -0.453703 0)
(9.99559 0.0432067 0)
(9.97556 0.075271 0)
(9.9318 0.103345 0)
(9.8649 0.132369 0)
(9.77779 0.163057 0)
(9.67155 0.195395 0)
(9.54589 0.229738 0)
(9.40015 0.266597 0)
(9.23367 0.306464 0)
(9.04566 0.349799 0)
(8.83512 0.397063 0)
(8.60085 0.448712 0)
(8.34149 0.505182 0)
(8.05555 0.566852 0)
(7.74144 0.633999 0)
(7.39751 0.706719 0)
(7.02219 0.784825 0)
(6.61404 0.867712 0)
(6.17204 0.954184 0)
(5.69574 1.04225 0)
(5.18574 1.12888 0)
(4.64408 1.20979 0)
(4.07492 1.27916 0)
(3.4855 1.32935 0)
(2.88697 1.35011 0)
(2.29957 1.32646 0)
(1.73194 1.22083 0)
(1.21633 0.973067 0)
(0.701197 0.570217 0)
(0.358072 -0.156461 0)
(9.99403 0.0494988 0)
(9.97181 0.0932054 0)
(9.92788 0.13357 0)
(9.86225 0.174207 0)
(9.77694 0.21643 0)
(9.67299 0.260657 0)
(9.55032 0.307424 0)
(9.4085 0.357408 0)
(9.24704 0.411282 0)
(9.06535 0.469695 0)
(8.86271 0.53329 0)
(8.63823 0.602709 0)
(8.39089 0.678576 0)
(8.11957 0.761457 0)
(7.82305 0.851801 0)
(7.50007 0.949854 0)
(7.14932 1.05553 0)
(6.76953 1.16822 0)
(6.35959 1.28658 0)
(5.9187 1.40825 0)
(5.44664 1.52946 0)
(4.94412 1.64468 0)
(4.41329 1.74615 0)
(3.85839 1.82323 0)
(3.28594 1.86139 0)
(2.70651 1.84037 0)
(2.12574 1.72607 0)
(1.55433 1.47795 0)
(0.957997 1.08379 0)
(0.509441 0.502429 0)
(9.99331 0.0572131 0)
(9.96994 0.110958 0)
(9.92593 0.162102 0)
(9.86146 0.213345 0)
(9.77799 0.266352 0)
(9.67635 0.321908 0)
(9.55655 0.380694 0)
(9.41823 0.443479 0)
(9.26099 0.511045 0)
(9.08435 0.584156 0)
(8.88773 0.663571 0)
(8.67041 0.750044 0)
(8.43163 0.844313 0)
(8.1705 0.94706 0)
(7.88613 1.05885 0)
(7.57754 1.18005 0)
(7.24373 1.31065 0)
(6.88369 1.45015 0)
(6.49637 1.59719 0)
(6.08083 1.7493 0)
(5.63627 1.90239 0)
(5.16224 2.0503 0)
(4.6589 2.18417 0)
(4.12734 2.29176 0)
(3.56953 2.3566 0)
(2.989 2.35738 0)
(2.38693 2.26504 0)
(1.76647 2.04775 0)
(1.09004 1.69153 0)
(0.536673 1.15429 0)
(9.99302 0.0655381 0)
(9.96923 0.1287 0)
(9.92556 0.190111 0)
(9.86253 0.25184 0)
(9.78129 0.315573 0)
(9.68245 0.382312 0)
(9.56602 0.452866 0)
(9.43172 0.52809 0)
(9.27921 0.608866 0)
(9.10808 0.696068 0)
(8.91779 0.790559 0)
(8.70777 0.893201 0)
(8.47731 1.00483 0)
(8.22571 1.12623 0)
(7.9522 1.25806 0)
(7.65594 1.40077 0)
(7.3361 1.5545 0)
(6.99172 1.71882 0)
(6.62177 1.89251 0)
(6.22511 2.07319 0)
(5.80039 2.25682 0)
(5.34616 2.43718 0)
(4.86084 2.60519 0)
(4.34283 2.74823 0)
(3.79053 2.84958 0)
(3.2027 2.88827 0)
(2.57668 2.83833 0)
(1.91355 2.67174 0)
(1.1728 2.37416 0)
(0.549992 1.89457 0)
(9.99297 0.0740742 0)
(9.96927 0.146312 0)
(9.92637 0.217481 0)
(9.86509 0.289288 0)
(9.78643 0.36335 0)
(9.69085 0.44082 0)
(9.57835 0.52265 0)
(9.44872 0.609798 0)
(9.30166 0.703239 0)
(9.13679 0.803945 0)
(8.95366 0.912877 0)
(8.75172 1.03098 0)
(8.53037 1.15919 0)
(8.28891 1.29836 0)
(8.02663 1.44926 0)
(7.74274 1.61244 0)
(7.43636 1.78814 0)
(7.10648 1.97611 0)
(6.75189 2.17536 0)
(6.37111 2.38377 0)
(5.96222 2.5977 0)
(5.52277 2.81135 0)
(5.04967 3.01614 0)
(4.53915 3.19998 0)
(3.98681 3.34672 0)
(3.38805 3.43604 0)
(2.73737 3.44343 0)
(2.03634 3.34165 0)
(1.24181 3.11377 0)
(0.563543 2.69336 0)
(9.99306 0.0825874 0)
(9.96981 0.163605 0)
(9.92807 0.244047 0)
(9.86885 0.325475 0)
(9.79313 0.40944 0)
(9.70126 0.497198 0)
(9.59324 0.589828 0)
(9.46889 0.688382 0)
(9.32797 0.793922 0)
(9.17015 0.907508 0)
(8.99504 1.03019 0)
(8.80212 1.163 0)
(8.59084 1.30697 0)
(8.36054 1.46305 0)
(8.11049 1.6321 0)
(7.83986 1.81482 0)
(7.54767 2.01161 0)
(7.23274 2.22245 0)
(6.89359 2.44667 0)
(6.52827 2.68263 0)
(6.13421 2.9273 0)
(5.70799 3.17573 0)
(5.24512 3.42034 0)
(4.73994 3.6502 0)
(4.18565 3.85028 0)
(3.57492 4.00097 0)
(2.89966 4.07804 0)
(2.16223 4.05257 0)
(1.3162 3.90193 0)
(0.583253 3.54041 0)
(9.99326 0.0909276 0)
(9.97072 0.180407 0)
(9.93046 0.269665 0)
(9.87362 0.360237 0)
(9.80118 0.45364 0)
(9.71344 0.5512 0)
(9.61038 0.6541 0)
(9.49189 0.76348 0)
(9.35776 0.880485 0)
(9.20774 1.00626 0)
(9.04147 1.14193 0)
(8.85849 1.28863 0)
(8.65829 1.44748 0)
(8.44024 1.61954 0)
(8.20361 1.80581 0)
(7.9475 2.00715 0)
(7.67084 2.22418 0)
(7.37223 2.4572 0)
(7.04988 2.70598 0)
(6.70138 2.9695 0)
(6.32347 3.24559 0)
(5.91179 3.53048 0)
(5.46053 3.81803 0)
(4.96219 4.09898 0)
(4.4076 4.3599 0)
(3.78659 4.58219 0)
(3.08774 4.74123 0)
(2.31285 4.80467 0)
(1.41074 4.74136 0)
(0.614351 4.44223 0)
(9.99352 0.0989915 0)
(9.97191 0.196577 0)
(9.9334 0.294192 0)
(9.87924 0.393412 0)
(9.8104 0.495749 0)
(9.72717 0.602579 0)
(9.62953 0.715169 0)
(9.51742 0.834745 0)
(9.39069 0.962523 0)
(9.24913 1.09972 0)
(9.09246 1.24756 0)
(8.92029 1.40725 0)
(8.73215 1.58002 0)
(8.52744 1.76705 0)
(8.30546 1.9695 0)
(8.0653 2.18841 0)
(7.80578 2.42472 0)
(7.52536 2.67908 0)
(7.222 2.95183 0)
(6.89287 3.24273 0)
(6.53416 3.55071 0)
(6.14063 3.87342 0)
(5.70523 4.20665 0)
(5.21868 4.54336 0)
(4.66921 4.87246 0)
(4.04309 5.17706 0)
(3.32391 5.43247 0)
(2.50995 5.60222 0)
(1.54199 5.64383 0)
(0.664113 5.41843 0)
(9.99384 0.106703 0)
(9.9733 0.211998 0)
(9.9368 0.317499 0)
(9.88558 0.424851 0)
(9.82063 0.535582 0)
(9.74225 0.65111 0)
(9.65044 0.772774 0)
(9.54518 0.901867 0)
(9.42638 1.03968 0)
(9.2939 1.18749 0)
(9.14753 1.3466 0)
(8.98695 1.51831 0)
(8.81176 1.70394 0)
(8.62145 1.90481 0)
(8.41534 2.12224 0)
(8.19256 2.35752 0)
(7.95193 2.61188 0)
(7.69185 2.88645 0)
(7.41013 3.18218 0)
(7.10374 3.49976 0)
(6.76847 3.83937 0)
(6.39849 4.20045 0)
(5.98575 4.58111 0)
(5.51931 4.97729 0)
(4.98463 5.38133 0)
(4.36353 5.77964 0)
(3.63217 6.14931 0)
(2.78036 6.45096 0)
(1.73362 6.62892 0)
(0.744913 6.50359 0)
(9.9942 0.114005 0)
(9.97487 0.226573 0)
(9.94055 0.33947 0)
(9.89252 0.454418 0)
(9.83173 0.572976 0)
(9.75851 0.696599 0)
(9.67288 0.82668 0)
(9.57488 0.964574 0)
(9.46448 1.11163 0)
(9.34162 1.26919 0)
(9.20616 1.43861 0)
(9.05787 1.62129 0)
(8.89645 1.81864 0)
(8.72148 2.0321 0)
(8.53239 2.26316 0)
(8.32839 2.51335 0)
(8.10839 2.78425 0)
(7.87086 3.07745 0)
(7.61368 3.39461 0)
(7.33382 3.73736 0)
(7.02704 4.10732 0)
(6.6873 4.5059 0)
(6.30608 4.934 0)
(5.87132 5.39137 0)
(5.36606 5.87533 0)
(4.76721 6.3783 0)
(4.04105 6.8834 0)
(3.16178 7.35383 0)
(2.02499 7.72372 0)
(0.880857 7.75775 0)
(9.99459 0.120853 0)
(9.97657 0.240223 0)
(9.94461 0.360005 0)
(9.89995 0.481996 0)
(9.84356 0.607789 0)
(9.77575 0.738872 0)
(9.69662 0.876683 0)
(9.60623 1.02263 0)
(9.50463 1.17809 0)
(9.39184 1.34448 0)
(9.26781 1.52321 0)
(9.13242 1.71574 0)
(8.98547 1.92355 0)
(8.82669 2.14822 0)
(8.65563 2.3914 0)
(8.47169 2.65484 0)
(8.27395 2.94042 0)
(8.06111 3.25022 0)
(7.83132 3.58655 0)
(7.58186 3.95203 0)
(7.30889 4.34968 0)
(7.00679 4.783 0)
(6.6674 5.25595 0)
(6.27871 5.77283 0)
(5.82275 6.33762 0)
(5.27284 6.95242 0)
(4.58495 7.61379 0)
(3.71041 8.30128 0)
(2.48856 8.95887 0)
(1.12469 9.29416 0)
(9.99501 0.12721 0)
(9.97838 0.252883 0)
(9.94891 0.379018 0)
(9.90779 0.507482 0)
(9.85598 0.639901 0)
(9.79381 0.777792 0)
(9.72142 0.922624 0)
(9.63893 1.07584 0)
(9.54646 1.23887 0)
(9.44412 1.41314 0)
(9.33194 1.60012 0)
(9.20994 1.80131 0)
(9.07805 2.01828 0)
(8.93614 2.25268 0)
(8.78397 2.5063 0)
(8.62116 2.78108 0)
(8.44709 3.07918 0)
(8.26083 3.40306 0)
(8.06098 3.75562 0)
(7.8455 4.14034 0)
(7.61138 4.5615 0)
(7.35419 5.02452 0)
(7.0673 5.53634 0)
(6.74063 6.10597 0)
(6.35822 6.74511 0)
(5.89448 7.46886 0)
(5.30131 8.2964 0)
(4.5095 9.24832 0)
(3.26947 10.3426 0)
(1.60542 11.3606 0)
(9.99545 0.13305 0)
(9.98026 0.264503 0)
(9.95339 0.39644 0)
(9.91595 0.530785 0)
(9.86888 0.669193 0)
(9.81252 0.813203 0)
(9.74707 0.964309 0)
(9.6727 1.12398 0)
(9.58962 1.29366 0)
(9.498 1.47481 0)
(9.39801 1.66892 0)
(9.28976 1.87752 0)
(9.17335 2.10223 0)
(9.04884 2.34477 0)
(8.91622 2.60701 0)
(8.77537 2.89101 0)
(8.62606 3.19915 0)
(8.46783 3.53417 0)
(8.29995 3.89938 0)
(8.12131 4.29888 0)
(7.93018 4.73788 0)
(7.72403 5.22323 0)
(7.49901 5.76417 0)
(7.24924 6.3735 0)
(6.96524 7.06968 0)
(6.63149 7.88056 0)
(6.2152 8.85162 0)
(5.66695 10.0659 0)
(4.69157 11.7318 0)
(2.68848 14.595 0)
(0.128627 -0.131318 0)
(0.299207 -0.118685 0)
(0.475458 -0.0948074 0)
(0.625875 -0.0729768 0)
(0.746025 -0.0554519 0)
(0.841178 -0.0418528 0)
(0.917477 -0.0314594 0)
(0.979696 -0.0236457 0)
(1.03137 -0.0178755 0)
(1.07524 -0.0136839 0)
(1.11348 -0.0106726 0)
(1.14769 -0.00849735 0)
(1.17897 -0.00685402 0)
(1.20789 -0.0054769 0)
(1.23456 -0.00415541 0)
(1.25869 -0.00276189 0)
(1.27983 -0.0012662 0)
(1.29753 0.000298161 0)
(1.31147 0.00192601 0)
(1.32134 0.00371606 0)
(1.32652 0.00575177 0)
(1.32642 0.00777795 0)
(1.32056 0.00944635 0)
(1.30951 0.0103546 0)
(1.29568 0.0101348 0)
(1.28225 0.008905 0)
(1.27148 0.00706742 0)
(1.26423 0.00487113 0)
(1.26079 0.00237762 0)
(1.26373 -0.000329085 0)
(0.105558 -0.296377 0)
(0.269652 -0.27795 0)
(0.431109 -0.228596 0)
(0.571339 -0.181928 0)
(0.687151 -0.144278 0)
(0.783198 -0.115032 0)
(0.864452 -0.0926659 0)
(0.934651 -0.0758211 0)
(0.996532 -0.0633319 0)
(1.0522 -0.0541956 0)
(1.1033 -0.0475593 0)
(1.1511 -0.0426876 0)
(1.19648 -0.0389294 0)
(1.23998 -0.0357122 0)
(1.28182 -0.0325755 0)
(1.32192 -0.0292348 0)
(1.36004 -0.0256271 0)
(1.39592 -0.0218628 0)
(1.42948 -0.0180387 0)
(1.46084 -0.0140296 0)
(1.49 -0.00956604 0)
(1.51611 -0.00469868 0)
(1.53808 -0.00011799 0)
(1.55562 0.00310096 0)
(1.56985 0.004366 0)
(1.58305 0.00398468 0)
(1.59702 0.00277706 0)
(1.61241 0.00108607 0)
(1.62909 -0.000970771 0)
(1.64895 -0.00257713 0)
(0.0806612 -0.462312 0)
(0.218313 -0.434894 0)
(0.343288 -0.360445 0)
(0.45156 -0.290192 0)
(0.540327 -0.233782 0)
(0.614334 -0.189891 0)
(0.677331 -0.156156 0)
(0.732001 -0.130513 0)
(0.780331 -0.111238 0)
(0.823868 -0.0968872 0)
(0.863838 -0.0862447 0)
(0.901191 -0.0782647 0)
(0.936626 -0.072019 0)
(0.970592 -0.0666845 0)
(1.0033 -0.0615825 0)
(1.0347 -0.0562732 0)
(1.06457 -0.0506498 0)
(1.09261 -0.0449208 0)
(1.11871 -0.0393574 0)
(1.14315 -0.0338591 0)
(1.16651 -0.0277001 0)
(1.18902 -0.0201634 0)
(1.20989 -0.012126 0)
(1.22777 -0.0063294 0)
(1.24203 -0.00462903 0)
(1.25379 -0.0062753 0)
(1.26437 -0.0095858 0)
(1.27376 -0.0132027 0)
(1.28182 -0.0162676 0)
(1.29175 -0.0165779 0)
(0.0573006 -0.58805 0)
(0.16133 -0.545819 0)
(0.242137 -0.44905 0)
(0.312772 -0.360553 0)
(0.367985 -0.290921 0)
(0.41375 -0.237053 0)
(0.452182 -0.195726 0)
(0.484847 -0.164252 0)
(0.512977 -0.140492 0)
(0.537559 -0.122708 0)
(0.559383 -0.10945 0)
(0.579084 -0.09947 0)
(0.597164 -0.0916613 0)
(0.614019 -0.0850352 0)
(0.629923 -0.0787519 0)
(0.644995 -0.0722238 0)
(0.65905 -0.0652514 0)
(0.671651 -0.0580856 0)
(0.682209 -0.051235 0)
(0.690851 -0.0450182 0)
(0.698685 -0.039165 0)
(0.70741 -0.03288 0)
(0.716488 -0.0256728 0)
(0.721541 -0.0181881 0)
(0.718209 -0.0120652 0)
(0.707661 -0.00768228 0)
(0.693541 -0.00498291 0)
(0.676838 -0.00423962 0)
(0.65826 -0.00595488 0)
(0.637543 -0.00704847 0)
(0.0334357 -0.676049 0)
(0.0977107 -0.613869 0)
(0.128905 -0.497991 0)
(0.159078 -0.396917 0)
(0.176263 -0.319115 0)
(0.189455 -0.259157 0)
(0.198327 -0.213154 0)
(0.203707 -0.178007 0)
(0.206257 -0.151352 0)
(0.206545 -0.131297 0)
(0.205007 -0.116288 0)
(0.202002 -0.104992 0)
(0.197895 -0.0962239 0)
(0.193076 -0.0889063 0)
(0.187943 -0.0820895 0)
(0.182857 -0.0750287 0)
(0.177723 -0.0673311 0)
(0.172262 -0.0590668 0)
(0.16482 -0.050634 0)
(0.154551 -0.0422632 0)
(0.139677 -0.0334318 0)
(0.122739 -0.0231797 0)
(0.103036 -0.0116906 0)
(0.0854001 -0.00185073 0)
(0.0702005 0.00371678 0)
(0.059019 0.00492319 0)
(0.0541404 0.00420366 0)
(0.0512279 0.00213132 0)
(0.0481073 -0.00102852 0)
(0.037029 -0.00987626 0)
(0.00797493 -0.720092 0)
(0.0271508 -0.633957 0)
(0.00639352 -0.502037 0)
(-0.00661269 -0.393631 0)
(-0.0301787 -0.31134 0)
(-0.0530814 -0.248642 0)
(-0.0778699 -0.200881 0)
(-0.103541 -0.164688 0)
(-0.129653 -0.137446 0)
(-0.155802 -0.117091 0)
(-0.181728 -0.101963 0)
(-0.207219 -0.0906798 0)
(-0.232049 -0.0820088 0)
(-0.256001 -0.0748542 0)
(-0.278854 -0.0683131 0)
(-0.300323 -0.0617077 0)
(-0.320074 -0.0546316 0)
(-0.337829 -0.0469732 0)
(-0.353514 -0.0388863 0)
(-0.367251 -0.0306493 0)
(-0.379325 -0.0224754 0)
(-0.389567 -0.0145239 0)
(-0.398023 -0.00724123 0)
(-0.405631 -0.00161653 0)
(-0.412086 0.00152861 0)
(-0.419255 0.00199636 0)
(-0.425454 0.0018582 0)
(-0.431054 0.00215113 0)
(-0.437077 0.00109214 0)
(-0.444753 -0.00372396 0)
(-0.0213508 -0.713191 0)
(-0.0518498 -0.599725 0)
(-0.123227 -0.460127 0)
(-0.182167 -0.353195 0)
(-0.245191 -0.271078 0)
(-0.305499 -0.209924 0)
(-0.36281 -0.164364 0)
(-0.416269 -0.130685 0)
(-0.465454 -0.10611 0)
(-0.510193 -0.0884816 0)
(-0.550582 -0.0760302 0)
(-0.586934 -0.0672991 0)
(-0.619654 -0.061027 0)
(-0.649161 -0.056128 0)
(-0.675799 -0.0517716 0)
(-0.699728 -0.0473711 0)
(-0.720933 -0.0425533 0)
(-0.739328 -0.0371031 0)
(-0.754944 -0.0309178 0)
(-0.768038 -0.0240146 0)
(-0.779013 -0.0165372 0)
(-0.788219 -0.00877422 0)
(-0.796135 -0.00140247 0)
(-0.802874 0.0044402 0)
(-0.809122 0.0075419 0)
(-0.815958 0.0084343 0)
(-0.822884 0.00788291 0)
(-0.829671 0.00605427 0)
(-0.836309 0.00222831 0)
(-0.840358 -0.00303549 0)
(-0.0567815 -0.651239 0)
(-0.137347 -0.517863 0)
(-0.256796 -0.37876 0)
(-0.359668 -0.274636 0)
(-0.459318 -0.198567 0)
(-0.549896 -0.144698 0)
(-0.630529 -0.106974 0)
(-0.701169 -0.0808278 0)
(-0.76254 -0.0630852 0)
(-0.815807 -0.0515393 0)
(-0.862107 -0.0443469 0)
(-0.902532 -0.0400522 0)
(-0.938028 -0.0374733 0)
(-0.969417 -0.0356378 0)
(-0.997381 -0.0338907 0)
(-1.02235 -0.0318378 0)
(-1.04449 -0.0292674 0)
(-1.06376 -0.0260332 0)
(-1.08018 -0.0219654 0)
(-1.09395 -0.0169132 0)
(-1.10551 -0.0108831 0)
(-1.11538 -0.00422023 0)
(-1.12427 0.00216755 0)
(-1.13133 0.00724857 0)
(-1.13842 0.0102979 0)
(-1.14561 0.0113605 0)
(-1.153 0.0110631 0)
(-1.16069 0.0094745 0)
(-1.16812 0.00589766 0)
(-1.17224 0.00151935 0)
(-0.0988614 -0.531502 0)
(-0.231998 -0.386588 0)
(-0.401182 -0.257559 0)
(-0.542621 -0.167578 0)
(-0.670498 -0.105129 0)
(-0.781836 -0.0637471 0)
(-0.877171 -0.0378328 0)
(-0.957971 -0.0226399 0)
(-1.02424 -0.0148804 0)
(-1.07955 -0.0114163 0)
(-1.12651 -0.01053 0)
(-1.1672 -0.0111673 0)
(-1.2031 -0.0125409 0)
(-1.23514 -0.0140065 0)
(-1.26369 -0.0150364 0)
(-1.28929 -0.0153768 0)
(-1.31214 -0.0150271 0)
(-1.33217 -0.0139557 0)
(-1.34931 -0.0119206 0)
(-1.36376 -0.00858292 0)
(-1.37609 -0.00385317 0)
(-1.38712 0.00178845 0)
(-1.39616 0.00732166 0)
(-1.4048 0.0117364 0)
(-1.41323 0.0144775 0)
(-1.42154 0.0154075 0)
(-1.43002 0.014948 0)
(-1.43902 0.0131754 0)
(-1.44765 0.0097647 0)
(-1.45238 0.00609997 0)
(-0.153642 -0.352421 0)
(-0.352724 -0.209856 0)
(-0.588767 -0.093609 0)
(-0.775999 -0.0199241 0)
(-0.924648 0.0168597 0)
(-1.04231 0.0335624 0)
(-1.13532 0.0387817 0)
(-1.20945 0.0374908 0)
(-1.27092 0.0332808 0)
(-1.32233 0.0279131 0)
(-1.36599 0.0222488 0)
(-1.40356 0.0166264 0)
(-1.43622 0.0113056 0)
(-1.46503 0.00667167 0)
(-1.49116 0.00312283 0)
(-1.51518 0.000659951 0)
(-1.53716 -0.000992183 0)
(-1.55682 -0.00195834 0)
(-1.57389 -0.0019242 0)
(-1.58844 -0.000329465 0)
(-1.60091 0.00308039 0)
(-1.61173 0.00782915 0)
(-1.6222 0.0129143 0)
(-1.63254 0.0171134 0)
(-1.64265 0.0196095 0)
(-1.65239 0.0203072 0)
(-1.66203 0.0196253 0)
(-1.67196 0.0177313 0)
(-1.68109 0.0145463 0)
(-1.68575 0.0113961 0)
(-0.231897 -0.0921634 0)
(-0.488119 0.0717221 0)
(-0.742186 0.126021 0)
(-0.931813 0.137982 0)
(-1.08445 0.134694 0)
(-1.20617 0.123344 0)
(-1.30366 0.108714 0)
(-1.38231 0.093291 0)
(-1.4464 0.0783826 0)
(-1.49948 0.0648694 0)
(-1.54447 0.053101 0)
(-1.58337 0.0428166 0)
(-1.61736 0.0338067 0)
(-1.6473 0.0263176 0)
(-1.67414 0.0205923 0)
(-1.69872 0.0163785 0)
(-1.72124 0.0130177 0)
(-1.74127 0.0101259 0)
(-1.75829 0.00811991 0)
(-1.77247 0.00793842 0)
(-1.78478 0.0101719 0)
(-1.79642 0.0144225 0)
(-1.8082 0.0193694 0)
(-1.82021 0.0234317 0)
(-1.83198 0.0255996 0)
(-1.84307 0.0258087 0)
(-1.85365 0.0246451 0)
(-1.86423 0.0225357 0)
(-1.87367 0.0196114 0)
(-1.87827 0.0169677 0)
(-0.283912 0.296201 0)
(-0.56844 0.353007 0)
(-0.854929 0.338888 0)
(-1.06738 0.303376 0)
(-1.23144 0.262155 0)
(-1.35751 0.221483 0)
(-1.45569 0.184841 0)
(-1.53352 0.153045 0)
(-1.59615 0.125866 0)
(-1.64764 0.103428 0)
(-1.69147 0.0853981 0)
(-1.72983 0.0704503 0)
(-1.76357 0.0575059 0)
(-1.79326 0.0466979 0)
(-1.81999 0.0385293 0)
(-1.84497 0.0325915 0)
(-1.86846 0.0275942 0)
(-1.88954 0.0226526 0)
(-1.90717 0.0183254 0)
(-1.92137 0.0162102 0)
(-1.93352 0.0174235 0)
(-1.94543 0.021497 0)
(-1.95821 0.0266124 0)
(-1.97177 0.0306886 0)
(-1.9852 0.0324488 0)
(-1.9976 0.0319029 0)
(-2.009 0.0299874 0)
(-2.02003 0.0275487 0)
(-2.02966 0.0248815 0)
(-2.03421 0.022718 0)
(-0.337385 0.699137 0)
(-0.680818 0.691736 0)
(-1.007 0.585425 0)
(-1.2282 0.479976 0)
(-1.38926 0.391392 0)
(-1.5084 0.31688 0)
(-1.59886 0.256856 0)
(-1.66995 0.209157 0)
(-1.72688 0.170308 0)
(-1.77344 0.139487 0)
(-1.81368 0.116145 0)
(-1.85013 0.0974848 0)
(-1.88282 0.080934 0)
(-1.9114 0.0667229 0)
(-1.9371 0.0562191 0)
(-1.96188 0.0490252 0)
(-1.98618 0.0428148 0)
(-2.00833 0.0357698 0)
(-2.02624 0.028627 0)
(-2.0397 0.0241246 0)
(-2.0508 0.0243402 0)
(-2.06236 0.0286929 0)
(-2.07591 0.0345091 0)
(-2.09115 0.0389034 0)
(-2.10647 0.0402218 0)
(-2.1203 0.0386184 0)
(-2.13241 0.0356123 0)
(-2.14365 0.0326907 0)
(-2.15326 0.030284 0)
(-2.15774 0.0285923 0)
(-0.443859 1.20057 0)
(-0.873699 1.09091 0)
(-1.22888 0.846806 0)
(-1.42934 0.646266 0)
(-1.56508 0.508189 0)
(-1.6633 0.399016 0)
(-1.73563 0.317788 0)
(-1.79338 0.258527 0)
(-1.84066 0.210163 0)
(-1.87898 0.171026 0)
(-1.91313 0.143235 0)
(-1.94663 0.122341 0)
(-1.97791 0.102754 0)
(-2.00451 0.0850319 0)
(-2.02784 0.0725709 0)
(-2.05151 0.0653102 0)
(-2.0766 0.0589768 0)
(-2.10015 0.0499312 0)
(-2.1182 0.0391523 0)
(-2.12999 0.0314154 0)
(-2.13886 0.0306079 0)
(-2.1493 0.0359165 0)
(-2.16356 0.0431878 0)
(-2.18083 0.0482969 0)
(-2.19846 0.0490946 0)
(-2.21391 0.0459856 0)
(-2.22654 0.0413815 0)
(-2.23757 0.0377503 0)
(-2.24689 0.0356477 0)
(-2.25121 0.034445 0)
(-0.658197 2.14259 0)
(-1.18785 1.72997 0)
(-1.56156 1.13735 0)
(-1.68675 0.742648 0)
(-1.75929 0.587332 0)
(-1.8211 0.463068 0)
(-1.86247 0.368687 0)
(-1.90093 0.302662 0)
(-1.93782 0.243217 0)
(-1.96563 0.192391 0)
(-1.99015 0.16337 0)
(-2.01955 0.146377 0)
(-2.04978 0.126415 0)
(-2.07365 0.104481 0)
(-2.09271 0.0890086 0)
(-2.11414 0.0822737 0)
(-2.14063 0.0764895 0)
(-2.16686 0.0647649 0)
(-2.18538 0.0484981 0)
(-2.19428 0.0360231 0)
(-2.19914 0.0343846 0)
(-2.20747 0.0421077 0)
(-2.22247 0.0522679 0)
(-2.24239 0.0588476 0)
(-2.26301 0.0591419 0)
(-2.28036 0.0539775 0)
(-2.29319 0.0470704 0)
(-2.30339 0.0424301 0)
(-2.312 0.0408174 0)
(-2.3161 0.040212 0)
(9.9959 0.138446 0)
(9.98225 0.275238 0)
(9.9581 0.412523 0)
(9.92453 0.55227 0)
(9.88241 0.696155 0)
(9.83215 0.845731 0)
(9.77398 1.0025 0)
(9.70813 1.16795 0)
(9.6349 1.34353 0)
(9.55456 1.53071 0)
(9.46737 1.73099 0)
(9.3736 1.9459 0)
(9.27353 2.17708 0)
(9.16739 2.42628 0)
(9.05545 2.69539 0)
(8.93793 2.98657 0)
(8.81501 3.30225 0)
(8.68683 3.64534 0)
(8.55348 4.01934 0)
(8.41494 4.42863 0)
(8.27116 4.87886 0)
(8.12202 5.37748 0)
(7.96747 5.93466 0)
(7.80779 6.56477 0)
(7.6442 7.28888 0)
(7.48173 8.1396 0)
(7.33367 9.1709 0)
(7.29027 10.4764 0)
(7.7502 12.201 0)
(7.93548 14.9206 0)
(9.99638 0.143406 0)
(9.98434 0.285093 0)
(9.96305 0.427252 0)
(9.93351 0.571881 0)
(9.89656 0.720671 0)
(9.85261 0.875181 0)
(9.80195 1.03692 0)
(9.7449 1.20736 0)
(9.68181 1.38796 0)
(9.61306 1.58017 0)
(9.53903 1.78548 0)
(9.46014 2.00541 0)
(9.37683 2.24158 0)
(9.28958 2.4957 0)
(9.19891 2.76967 0)
(9.10539 3.06561 0)
(9.00969 3.38592 0)
(8.91254 3.73348 0)
(8.81488 4.11171 0)
(8.71788 4.52489 0)
(8.62314 4.97844 0)
(8.53304 5.47937 0)
(8.45131 6.03701 0)
(8.3842 6.66394 0)
(8.34293 7.37738 0)
(8.34958 8.20072 0)
(8.44307 9.1641 0)
(8.67937 10.3007 0)
(9.32743 11.555 0)
(9.81922 12.6415 0)
(9.99688 0.147843 0)
(9.9865 0.293906 0)
(9.96819 0.440404 0)
(9.94282 0.589352 0)
(9.9112 0.742446 0)
(9.87376 0.901237 0)
(9.83084 1.06722 0)
(9.78281 1.24186 0)
(9.7301 1.42658 0)
(9.67319 1.62281 0)
(9.61258 1.832 0)
(9.54883 2.05562 0)
(9.48255 2.29524 0)
(9.41445 2.5525 0)
(9.34532 2.82922 0)
(9.27608 3.12738 0)
(9.20784 3.44927 0)
(9.14192 3.79752 0)
(9.08003 4.17523 0)
(9.02437 4.58618 0)
(8.97797 5.03496 0)
(8.94511 5.52724 0)
(8.93208 6.06999 0)
(8.94841 6.67161 0)
(9.00861 7.34152 0)
(9.13482 8.08833 0)
(9.35805 8.91387 0)
(9.68778 9.80691 0)
(10.2537 10.7159 0)
(10.9414 11.4304 0)
(9.9974 0.151705 0)
(9.98873 0.301568 0)
(9.97346 0.451812 0)
(9.95238 0.604453 0)
(9.92622 0.761179 0)
(9.89543 0.923524 0)
(9.86039 1.09296 0)
(9.82154 1.27092 0)
(9.77938 1.45878 0)
(9.73447 1.65794 0)
(9.68741 1.86977 0)
(9.63891 2.09567 0)
(9.58975 2.33712 0)
(9.54082 2.59565 0)
(9.49317 2.8729 0)
(9.44805 3.1707 0)
(9.40692 3.49103 0)
(9.37163 3.83615 0)
(9.34447 4.20865 0)
(9.32842 4.6115 0)
(9.3274 5.0481 0)
(9.34671 5.52228 0)
(9.39361 6.03816 0)
(9.478 6.5997 0)
(9.61309 7.20965 0)
(9.81569 7.86765 0)
(10.1086 8.56658 0)
(10.5003 9.29171 0)
(11.0578 10.0329 0)
(11.8508 10.6769 0)
(9.99792 0.154945 0)
(9.99101 0.307988 0)
(9.97884 0.461341 0)
(9.96211 0.617006 0)
(9.94149 0.776651 0)
(9.91743 0.941782 0)
(9.89037 1.11383 0)
(9.86078 1.29419 0)
(9.82923 1.48418 0)
(9.79634 1.68512 0)
(9.76285 1.89831 0)
(9.72954 2.12504 0)
(9.69735 2.36666 0)
(9.66736 2.62454 0)
(9.64081 2.90012 0)
(9.61918 3.19495 0)
(9.60427 3.51068 0)
(9.59825 3.84907 0)
(9.6038 4.21206 0)
(9.62432 4.60167 0)
(9.66413 5.02002 0)
(9.72875 5.4691 0)
(9.82526 5.95053 0)
(9.96261 6.465 0)
(10.1519 7.0114 0)
(10.406 7.58586 0)
(10.7425 8.18023 0)
(11.1728 8.77981 0)
(11.7199 9.37301 0)
(12.4726 9.88496 0)
(9.99845 0.15752 0)
(9.9933 0.31308 0)
(9.98427 0.468864 0)
(9.97193 0.626846 0)
(9.95688 0.78866 0)
(9.93959 0.955771 0)
(9.92051 1.12957 0)
(9.90017 1.31136 0)
(9.87919 1.50243 0)
(9.85825 1.70399 0)
(9.83816 1.91724 0)
(9.81981 2.14334 0)
(9.80425 2.38348 0)
(9.79267 2.63884 0)
(9.78649 2.91062 0)
(9.78735 3.20005 0)
(9.79723 3.50835 0)
(9.81849 3.83679 0)
(9.85398 4.18658 0)
(9.90721 4.55884 0)
(9.98246 4.95447 0)
(10.0849 5.37394 0)
(10.221 5.81698 0)
(10.3982 6.28213 0)
(10.6252 6.76612 0)
(10.9119 7.26317 0)
(11.2694 7.76406 0)
(11.7057 8.25323 0)
(12.2214 8.71397 0)
(12.8968 9.10479 0)
(9.99898 0.15939 0)
(9.9956 0.316767 0)
(9.9897 0.474268 0)
(9.98175 0.633824 0)
(9.97226 0.797024 0)
(9.9617 0.96528 0)
(9.95055 1.13992 0)
(9.93937 1.32219 0)
(9.9288 1.51326 0)
(9.9196 1.71427 0)
(9.91261 1.92628 0)
(9.9088 2.15032 0)
(9.90929 2.38738 0)
(9.91537 2.63844 0)
(9.92852 2.90442 0)
(9.9505 3.18621 0)
(9.98332 3.48463 0)
(10.0294 3.8004 0)
(10.0916 4.13408 0)
(10.1732 4.48596 0)
(10.2782 4.85594 0)
(10.4112 5.24332 0)
(10.5775 5.64651 0)
(10.783 6.06271 0)
(11.0341 6.48743 0)
(11.3372 6.91397 0)
(11.6985 7.33297 0)
(12.122 7.73103 0)
(12.6016 8.09359 0)
(13.2066 8.40014 0)
(9.99951 0.160521 0)
(9.99788 0.318983 0)
(9.99509 0.477457 0)
(9.99149 0.637816 0)
(9.98751 0.801592 0)
(9.98359 0.970138 0)
(9.98022 1.1447 0)
(9.97801 1.32646 0)
(9.9776 1.51648 0)
(9.97979 1.71577 0)
(9.98545 1.92528 0)
(9.99559 2.14586 0)
(10.0114 2.37834 0)
(10.0341 2.62344 0)
(10.0653 2.88183 0)
(10.1067 3.15404 0)
(10.1604 3.44051 0)
(10.2285 3.74146 0)
(10.3139 4.05687 0)
(10.4194 4.38637 0)
(10.5486 4.72909 0)
(10.7052 5.08351 0)
(10.8934 5.44724 0)
(11.1175 5.81676 0)
(11.3818 6.18716 0)
(11.6901 6.55188 0)
(12.0451 6.90266 0)
(12.4485 7.22918 0)
(12.8925 7.5203 0)
(13.4351 7.76472 0)
(10 0.160887 0)
(10.0001 0.319672 0)
(10.0004 0.478349 0)
(10.0011 0.63872 0)
(10.0025 0.802248 0)
(10.005 0.970214 0)
(10.0093 1.14379 0)
(10.0157 1.32404 0)
(10.0251 1.51195 0)
(10.0383 1.70841 0)
(10.056 1.9142 0)
(10.0793 2.13003 0)
(10.1094 2.35652 0)
(10.1476 2.59419 0)
(10.1954 2.84341 0)
(10.2544 3.10442 0)
(10.3265 3.3773 0)
(10.4138 3.66184 0)
(10.5187 3.95757 0)
(10.6439 4.2636 0)
(10.792 4.57855 0)
(10.9661 4.9004 0)
(11.1692 5.22635 0)
(11.4043 5.5527 0)
(11.6739 5.87469 0)
(11.9798 6.18647 0)
(12.3231 6.48118 0)
(12.7032 6.751 0)
(13.1127 6.98759 0)
(13.6001 7.1841 0)
(10.0005 0.160465 0)
(10.0023 0.318793 0)
(10.0056 0.476886 0)
(10.0104 0.636462 0)
(10.017 0.798908 0)
(10.0259 0.965424 0)
(10.0374 1.13709 0)
(10.0522 1.31488 0)
(10.071 1.49967 0)
(10.0945 1.6922 0)
(10.1235 1.89314 0)
(10.1592 2.10302 0)
(10.2026 2.32227 0)
(10.2549 2.5512 0)
(10.3176 2.78995 0)
(10.3921 3.03847 0)
(10.4803 3.29654 0)
(10.5838 3.56363 0)
(10.7049 3.83892 0)
(10.8455 4.12116 0)
(11.0078 4.40868 0)
(11.1942 4.69922 0)
(11.4065 4.98989 0)
(11.6466 5.27713 0)
(11.9159 5.55663 0)
(12.2148 5.82342 0)
(12.543 6.07198 0)
(12.8991 6.29641 0)
(13.2761 6.49069 0)
(13.7158 6.65064 0)
(10.001 0.159241 0)
(10.0044 0.316317 0)
(10.0106 0.473028 0)
(10.0194 0.630996 0)
(10.0311 0.791526 0)
(10.0459 0.95573 0)
(10.0644 1.12459 0)
(10.0871 1.29899 0)
(10.1147 1.47967 0)
(10.1479 1.66727 0)
(10.1875 1.8623 0)
(10.2345 2.06516 0)
(10.29 2.27608 0)
(10.355 2.49519 0)
(10.4308 2.72241 0)
(10.5189 2.95749 0)
(10.6206 3.19994 0)
(10.7377 3.44901 0)
(10.8715 3.70363 0)
(11.0239 3.96238 0)
(11.1965 4.22342 0)
(11.3906 4.48447 0)
(11.6076 4.74276 0)
(11.8485 4.99503 0)
(12.1135 5.23757 0)
(12.4024 5.46629 0)
(12.7141 5.67686 0)
(13.0467 5.86492 0)
(13.3941 6.02625 0)
(13.7927 6.15833 0)
(10.0015 0.157205 0)
(10.0065 0.312229 0)
(10.0154 0.466755 0)
(10.028 0.622307 0)
(10.0444 0.780094 0)
(10.065 0.941139 0)
(10.0901 1.10633 0)
(10.1202 1.27644 0)
(10.156 1.45211 0)
(10.1982 1.63384 0)
(10.2475 1.82202 0)
(10.3048 2.0169 0)
(10.371 2.21858 0)
(10.4472 2.42699 0)
(10.5345 2.6419 0)
(10.634 2.86288 0)
(10.747 3.08926 0)
(10.8748 3.32014 0)
(11.0186 3.55432 0)
(11.1795 3.79029 0)
(11.3587 4.02621 0)
(11.5571 4.25991 0)
(11.7754 4.48883 0)
(12.0137 4.71014 0)
(12.2719 4.92073 0)
(12.5491 5.11731 0)
(12.844 5.29657 0)
(13.1544 5.45536 0)
(13.4751 5.59075 0)
(13.8384 5.70126 0)
(10.0019 0.154359 0)
(10.0084 0.306528 0)
(10.0199 0.458073 0)
(10.0361 0.610405 0)
(10.0571 0.764641 0)
(10.0829 0.921707 0)
(10.1142 1.0824 0)
(10.1512 1.24738 0)
(10.1946 1.41718 0)
(10.2449 1.5922 0)
(10.3029 1.7727 0)
(10.3694 1.95881 0)
(10.4451 2.15048 0)
(10.531 2.34753 0)
(10.628 2.54958 0)
(10.7371 2.75609 0)
(10.8592 2.96626 0)
(10.9953 3.17911 0)
(11.1463 3.3934 0)
(11.313 3.60762 0)
(11.496 3.82003 0)
(11.6959 4.02862 0)
(11.9127 4.23115 0)
(12.1463 4.4252 0)
(12.396 4.60823 0)
(12.6609 4.77768 0)
(12.9392 4.93104 0)
(13.229 5.06607 0)
(13.5259 5.18076 0)
(13.8588 5.27428 0)
(10.0024 0.150706 0)
(10.0102 0.299228 0)
(10.0241 0.447004 0)
(10.0438 0.595332 0)
(10.0689 0.74523 0)
(10.0997 0.897532 0)
(10.1366 1.05294 0)
(10.1799 1.212 0)
(10.2301 1.37517 0)
(10.2879 1.54273 0)
(10.3537 1.71484 0)
(10.4282 1.8915 0)
(10.5121 2.07259 0)
(10.6063 2.2578 0)
(10.7113 2.44667 0)
(10.8281 2.63856 0)
(10.9572 2.83264 0)
(11.0995 3.02788 0)
(11.2554 3.22306 0)
(11.4255 3.41676 0)
(11.6101 3.60737 0)
(11.8091 3.79309 0)
(12.0226 3.97202 0)
(12.25 4.14215 0)
(12.4904 4.30144 0)
(12.7426 4.44791 0)
(13.0052 4.57972 0)
(13.2761 4.69526 0)
(13.5517 4.79321 0)
(13.8583 4.87313 0)
(10.0027 0.146261 0)
(10.0119 0.290355 0)
(10.0281 0.433591 0)
(10.0508 0.577153 0)
(10.0798 0.72196 0)
(10.1152 0.868752 0)
(10.1572 1.01813 0)
(10.2062 1.17057 0)
(10.2626 1.32642 0)
(10.3268 1.48586 0)
(10.3994 1.64897 0)
(10.4809 1.81567 0)
(10.5718 1.98574 0)
(10.6728 2.15881 0)
(10.7844 2.33435 0)
(10.9071 2.51169 0)
(11.0415 2.68999 0)
(11.188 2.86822 0)
(11.347 3.04525 0)
(11.5185 3.21974 0)
(11.7027 3.39027 0)
(11.8994 3.55529 0)
(12.1082 3.7132 0)
(12.3284 3.86235 0)
(12.559 4.00114 0)
(12.7989 4.12808 0)
(13.0465 4.2418 0)
(13.3003 4.34121 0)
(13.5569 4.42542 0)
(13.8405 4.49428 0)
(10.0031 0.141041 0)
(10.0134 0.279947 0)
(10.0317 0.417896 0)
(10.0573 0.555959 0)
(10.0898 0.694956 0)
(10.1293 0.835537 0)
(10.1759 0.978217 0)
(10.23 1.12338 0)
(10.2918 1.27129 0)
(10.3618 1.42206 0)
(10.4402 1.57569 0)
(10.5276 1.73202 0)
(10.6243 1.89079 0)
(10.7308 2.05157 0)
(10.8475 2.21381 0)
(10.9747 2.37682 0)
(11.1127 2.53978 0)
(11.2619 2.70174 0)
(11.4222 2.86163 0)
(11.5937 3.01827 0)
(11.7761 3.17041 0)
(11.9692 3.31673 0)
(12.1724 3.45592 0)
(12.3849 3.58666 0)
(12.6057 3.70772 0)
(12.8336 3.81795 0)
(13.0674 3.91639 0)
(13.3055 4.00229 0)
(13.5452 4.07508 0)
(13.8087 4.13477 0)
(10.0034 0.135069 0)
(10.0148 0.268051 0)
(10.035 0.399996 0)