/*--------------------------------*- C++ -*----------------------------------*\
  =========                 |
  \\      /  F ield         | OpenFOAM: The Open Source CFD Toolbox
   \\    /   O peration     | Website:  https://openfoam.org
    \\  /    A nd           | Version:  7
     \\/     M anipulation  |
\*---------------------------------------------------------------------------*/
FoamFile
{
    version     2.0;
    format      ascii;
    class       surfaceVectorField;
    location    "4";
    object      Uf;
}
// * * * * * * * * * * * * * * * * * * * * * * * * * * * * * * * * * * * * * //

dimensions      [0 1 -1 0 0 0 0];

internalField   nonuniform List<vector> 
5457
(
(9.92088 0.0251095 0)
(9.97125 0.0387457 0)
(9.82402 0.0328267 0)
(9.92859 0.0485849 0)
(9.70961 0.0393118 0)
(9.85548 0.0587677 0)
(9.57544 0.0460112 0)
(9.7568 0.0705928 0)
(9.42138 0.0529484 0)
(9.63754 0.0830126 0)
(9.24755 0.0601655 0)
(9.49862 0.0959354 0)
(9.05363 0.06781 0)
(9.33931 0.109611 0)
(8.83894 0.0760334 0)
(9.15875 0.124287 0)
(8.60254 0.0849688 0)
(8.95611 0.140165 0)
(8.34329 0.0947432 0)
(8.7304 0.157431 0)
(8.05987 0.105485 0)
(8.48043 0.176267 0)
(7.75084 0.117326 0)
(8.2048 0.196853 0)
(7.4146 0.130393 0)
(7.90199 0.219357 0)
(7.04955 0.144808 0)
(7.57035 0.243919 0)
(6.65409 0.16067 0)
(7.20824 0.270628 0)
(6.22679 0.178041 0)
(6.81406 0.299496 0)
(5.76651 0.196925 0)
(6.38641 0.330409 0)
(5.27267 0.21723 0)
(5.92426 0.363079 0)
(4.74548 0.238733 0)
(5.4272 0.396972 0)
(4.18632 0.26103 0)
(4.89577 0.431233 0)
(3.59809 0.283487 0)
(4.33176 0.464617 0)
(2.98568 0.305202 0)
(3.73873 0.495424 0)
(2.35625 0.32507 0)
(3.12241 0.521514 0)
(1.71923 0.34255 0)
(2.4912 0.540562 0)
(1.08447 0.361883 0)
(1.85598 0.55168 0)
(0.45195 0.348713 0)
(1.24559 0.563026 0)
(-0.145767 0.102508 0)
(0.609049 0.544919 0)
(-0.423594 -0.207093 0)
(0.0947037 0.259413 0)
(-0.402147 -0.361274 0)
(-0.133604 -0.0205098 0)
(-0.11968 -0.393878 0)
(9.99641 0.0516721 0)
(9.99705 0.0405044 0)
(9.95879 0.070861 0)
(9.97851 0.0674539 0)
(9.89824 0.087986 0)
(9.93377 0.0898691 0)
(9.81659 0.105984 0)
(9.86453 0.113554 0)
(9.71359 0.12492 0)
(9.77438 0.138513 0)
(9.58909 0.144852 0)
(9.66436 0.164644 0)
(9.44275 0.166087 0)
(9.53398 0.192329 0)
(9.27392 0.188964 0)
(9.38251 0.222027 0)
(9.08168 0.213779 0)
(9.2092 0.254144 0)
(8.86492 0.240811 0)
(9.01318 0.289059 0)
(8.62233 0.270332 0)
(8.79334 0.327146 0)
(8.35242 0.302601 0)
(8.54839 0.368779 0)
(8.0536 0.337851 0)
(8.27687 0.414308 0)
(7.72417 0.376255 0)
(7.97721 0.464037 0)
(7.36243 0.417895 0)
(7.64777 0.518179 0)
(6.96679 0.4627 0)
(7.28689 0.576796 0)
(6.53591 0.510379 0)
(6.89303 0.639715 0)
(6.06892 0.560326 0)
(6.4649 0.706417 0)
(5.5657 0.611515 0)
(6.00169 0.7759 0)
(5.02722 0.66238 0)
(5.50337 0.846516 0)
(4.456 0.710706 0)
(4.97101 0.915801 0)
(3.85662 0.75354 0)
(4.40731 0.980304 0)
(3.23632 0.7872 0)
(3.81717 1.03546 0)
(2.60594 0.807509 0)
(3.20859 1.07549 0)
(1.98291 0.810479 0)
(2.59352 1.09316 0)
(1.40538 0.776921 0)
(1.99632 1.0771 0)
(0.929846 0.646438 0)
(1.4196 0.978452 0)
(0.439946 0.384392 0)
(0.937645 0.716842 0)
(0.0592169 -0.118566 0)
(0.443875 0.343583 0)
(0.174937 -0.335879 0)
(9.98903 0.0594304 0)
(9.99481 0.0458771 0)
(9.95434 0.0894757 0)
(9.97368 0.0848535 0)
(9.89729 0.11803 0)
(9.92984 0.119172 0)
(9.82047 0.147896 0)
(9.86357 0.153974 0)
(9.72416 0.179419 0)
(9.77736 0.190406 0)
(9.60822 0.212772 0)
(9.67227 0.228633 0)
(9.47235 0.248388 0)
(9.54811 0.269125 0)
(9.31609 0.286769 0)
(9.40433 0.312491 0)
(9.1387 0.32839 0)
(9.24035 0.359318 0)
(8.93927 0.373714 0)
(9.05551 0.410166 0)
(8.71667 0.423196 0)
(8.84891 0.465588 0)
(8.46963 0.477284 0)
(8.61954 0.52614 0)
(8.19671 0.536385 0)
(8.36619 0.592358 0)
(7.89637 0.600827 0)
(8.08756 0.664721 0)
(7.56697 0.670793 0)
(7.78225 0.743599 0)
(7.2069 0.746238 0)
(7.44879 0.829168 0)
(6.81464 0.826764 0)
(7.08575 0.921297 0)
(6.38896 0.911465 0)
(6.69179 1.01938 0)
(5.92914 0.998741 0)
(6.26581 1.12215 0)
(5.43525 1.08608 0)
(5.80722 1.2274 0)
(4.90867 1.16982 0)
(5.31619 1.33173 0)
(4.35256 1.24489 0)
(4.7941 1.43018 0)
(3.77272 1.30455 0)
(4.2441 1.51588 0)
(3.17886 1.33985 0)
(3.67195 1.57944 0)
(2.58675 1.33815 0)
(3.08645 1.60777 0)
(2.01997 1.27301 0)
(2.50304 1.58162 0)
(1.48704 1.09547 0)
(1.92884 1.46431 0)
(0.958365 0.769235 0)
(1.38533 1.21048 0)
(0.479919 0.202536 0)
(0.829597 0.801124 0)
(0.433757 0.134173 0)
(9.98515 0.0716132 0)
(9.99367 0.0531474 0)
(9.95039 0.113629 0)
(9.97087 0.10229 0)
(9.89437 0.154131 0)
(9.92691 0.147952 0)
(9.81882 0.195571 0)
(9.86185 0.193719 0)
(9.72442 0.238808 0)
(9.77746 0.241274 0)
(9.61113 0.28432 0)
(9.67467 0.291159 0)
(9.47875 0.332714 0)
(9.55343 0.34395 0)
(9.32696 0.384667 0)
(9.41336 0.400364 0)
(9.15524 0.440837 0)
(9.25401 0.46113 0)
(8.96293 0.501872 0)
(9.07485 0.526949 0)
(8.74919 0.568414 0)
(8.87522 0.598522 0)
(8.51307 0.641096 0)
(8.65432 0.676545 0)
(8.2535 0.720512 0)
(8.41126 0.761701 0)
(7.9693 0.807169 0)
(8.14503 0.854614 0)
(7.65923 0.901413 0)
(7.85459 0.955793 0)
(7.32199 1.00332 0)
(7.53881 1.06554 0)
(6.95628 1.11255 0)
(7.19653 1.18382 0)
(6.56093 1.22811 0)
(6.82661 1.31005 0)
(6.13499 1.34814 0)
(6.42798 1.44289 0)
(5.67795 1.46958 0)
(5.99977 1.57987 0)
(5.19012 1.58776 0)
(5.54145 1.71706 0)
(4.67299 1.69602 0)
(5.05318 1.84852 0)
(4.12993 1.78515 0)
(4.53609 1.96583 0)
(3.56679 1.84254 0)
(3.99287 2.05731 0)
(2.99218 1.85076 0)
(3.42773 2.10717 0)
(2.41596 1.78254 0)
(2.84776 2.09453 0)
(1.84064 1.60053 0)
(2.25634 1.98881 0)
(1.25945 1.27852 0)
(1.6604 1.75314 0)
(0.666808 0.789638 0)
(1.02402 1.36787 0)
(0.523057 0.78727 0)
(9.98337 0.0844066 0)
(9.99316 0.0612908 0)
(9.94821 0.136835 0)
(9.96958 0.119926 0)
(9.89315 0.18803 0)
(9.92575 0.176238 0)
(9.81906 0.240165 0)
(9.86199 0.232695 0)
(9.72663 0.294462 0)
(9.77964 0.291083 0)
(9.6159 0.351653 0)
(9.6794 0.352268 0)
(9.48672 0.412462 0)
(9.56128 0.416969 0)
(9.3388 0.477666 0)
(9.42497 0.485998 0)
(9.17172 0.548037 0)
(9.2701 0.560192 0)
(8.98494 0.624338 0)
(9.09621 0.640371 0)
(8.7778 0.707324 0)
(8.90276 0.727349 0)
(8.54956 0.797742 0)
(8.68909 0.821934 0)
(8.29938 0.8963 0)
(8.45447 0.924915 0)
(8.02639 1.00362 0)
(8.19811 1.03703 0)
(7.72962 1.12017 0)
(7.91916 1.15888 0)
(7.40811 1.24613 0)
(7.61674 1.29089 0)
(7.06083 1.38124 0)
(7.28992 1.43311 0)
(6.68677 1.52455 0)
(6.9377 1.58506 0)
(6.28494 1.67415 0)
(6.55907 1.74546 0)
(5.85449 1.82676 0)
(6.15297 1.91185 0)
(5.39482 1.97723 0)
(5.71833 2.08013 0)
(4.90588 2.11804 0)
(5.2542 2.24407 0)
(4.38838 2.23861 0)
(4.75987 2.39459 0)
(3.84408 2.32456 0)
(4.23509 2.5192 0)
(3.27557 2.35699 0)
(3.68003 2.60127 0)
(2.68551 2.31066 0)
(3.09585 2.61976 0)
(2.07279 2.1551 0)
(2.48181 2.54741 0)
(1.42945 1.86751 0)
(1.84001 2.35384 0)
(0.742649 1.4197 0)
(1.13142 2.02466 0)
(0.543332 1.51465 0)
(9.98264 0.0974966 0)
(9.99299 0.0697921 0)
(9.94744 0.159773 0)
(9.96925 0.137582 0)
(9.89354 0.221344 0)
(9.92597 0.203924 0)
(9.82134 0.284088 0)
(9.86381 0.270684 0)
(9.73134 0.349342 0)
(9.78386 0.339577 0)
(9.62367 0.418011 0)
(9.68665 0.41169 0)
(9.49819 0.490928 0)
(9.57218 0.487893 0)
(9.35466 0.568961 0)
(9.44022 0.569092 0)
(9.1927 0.652988 0)
(9.29044 0.656218 0)
(9.01185 0.743878 0)
(9.12243 0.750195 0)
(8.81153 0.842493 0)
(8.93573 0.851934 0)
(8.59111 0.949682 0)
(8.72975 0.96234 0)
(8.34988 1.06625 0)
(8.50384 1.08229 0)
(8.0871 1.19293 0)
(8.25731 1.21261 0)
(7.80197 1.33027 0)
(7.98941 1.35401 0)
(7.49365 1.47856 0)
(7.69934 1.50698 0)
(7.16125 1.63764 0)
(7.38623 1.67172 0)
(6.8038 1.80671 0)
(7.0491 1.84787 0)
(6.4202 1.98393 0)
(6.68683 2.03431 0)
(6.00923 2.1661 0)
(6.29811 2.22879 0)
(5.56952 2.34808 0)
(5.8813 2.42744 0)
(5.09959 2.52219 0)
(5.43446 2.62423 0)
(4.59788 2.67757 0)
(4.95525 2.81028 0)
(4.06284 2.79951 0)
(4.44099 2.97323 0)
(3.49284 2.86916 0)
(3.88867 3.09666 0)
(2.88595 2.863 0)
(3.29537 3.15997 0)
(2.23812 2.75404 0)
(2.65703 3.13801 0)
(1.54252 2.52117 0)
(1.97494 3.00333 0)
(0.793689 2.1315 0)
(1.20731 2.74077 0)
(0.556767 2.29202 0)
(9.9825 0.110625 0)
(9.99302 0.0783606 0)
(9.94771 0.182322 0)
(9.96954 0.155035 0)
(9.89523 0.253813 0)
(9.92722 0.230883 0)
(9.82524 0.326761 0)
(9.86697 0.307504 0)
(9.73813 0.402548 0)
(9.78978 0.386516 0)
(9.63404 0.482224 0)
(9.69606 0.469139 0)
(9.51286 0.566745 0)
(9.58579 0.556386 0)
(9.37439 0.657077 0)
(9.4588 0.649256 0)
(9.21829 0.754194 0)
(9.31481 0.748769 0)
(9.04415 0.859062 0)
(9.15347 0.855941 0)
(8.85146 0.972636 0)
(8.97435 0.971775 0)
(8.63965 1.09585 0)
(8.77692 1.09727 0)
(8.40805 1.22961 0)
(8.5606 1.23338 0)
(8.15598 1.37471 0)
(8.32472 1.38104 0)
(7.88269 1.53182 0)
(8.06856 1.54104 0)
(7.58732 1.70134 0)
(7.7913 1.714 0)
(7.26896 1.88325 0)
(7.49201 1.90025 0)
(6.9265 2.07692 0)
(7.16961 2.09965 0)
(6.5586 2.28081 0)
(6.82274 2.31134 0)
(6.16357 2.49201 0)
(6.44969 2.53344 0)
(5.73925 2.7058 0)
(6.04821 2.7626 0)
(5.28287 2.91497 0)
(5.61538 2.99343 0)
(4.79098 3.10916 0)
(5.14739 3.21783 0)
(4.25945 3.27422 0)
(4.63955 3.42428 0)
(3.68355 3.39191 0)
(4.08623 3.59719 0)
(3.05819 3.43978 0)
(3.48148 3.71662 0)
(2.37786 3.39193 0)
(2.81852 3.75825 0)
(1.638 3.22635 0)
(2.09928 3.69415 0)
(0.83918 2.90105 0)
(1.279 3.50469 0)
(0.573398 3.11394 0)
(9.98273 0.12358 0)
(9.99316 0.0868166 0)
(9.94873 0.204307 0)
(9.97027 0.172091 0)
(9.89794 0.285248 0)
(9.92926 0.256972 0)
(9.83051 0.367959 0)
(9.87124 0.342983 0)
(9.74671 0.453843 0)
(9.79715 0.431671 0)
(9.64668 0.544066 0)
(9.70735 0.524341 0)
(9.53038 0.639694 0)
(9.60181 0.622123 0)
(9.39763 0.741782 0)
(9.48039 0.72611 0)
(9.24814 0.851394 0)
(9.34286 0.837405 0)
(9.08154 0.969581 0)
(9.18895 0.957108 0)
(8.89738 1.09739 0)
(9.01825 1.08631 0)
(8.69512 1.23585 0)
(8.83031 1.2261 0)
(8.47415 1.38594 0)
(8.62457 1.37754 0)
(8.2338 1.54858 0)
(8.40039 1.54164 0)
(7.97327 1.72455 0)
(8.15705 1.71933 0)
(7.69166 1.91439 0)
(7.89368 1.91137 0)
(7.38792 2.11829 0)
(7.60926 2.1183 0)
(7.0607 2.3359 0)
(7.30249 2.34022 0)
(6.7083 2.56606 0)
(6.97174 2.57669 0)
(6.32848 2.80643 0)
(6.61482 2.82637 0)
(5.91823 3.053 0)
(6.22884 3.08664 0)
(5.47361 3.2995 0)
(5.80989 3.35312 0)
(4.98948 3.53665 0)
(5.35282 3.61895 0)
(4.45952 3.75143 0)
(4.85107 3.87399 0)
(3.87641 3.92653 0)
(4.29662 4.10398 0)
(3.23251 4.03997 0)
(3.68076 4.28977 0)
(2.52099 4.06515 0)
(2.9937 4.40692 0)
(1.73849 3.97635 0)
(2.23754 4.42479 0)
(0.889536 3.71901 0)
(1.36347 4.31655 0)
(0.598802 3.98519 0)
(9.98321 0.136202 0)
(9.99339 0.0950395 0)
(9.95032 0.225569 0)
(9.97131 0.188587 0)
(9.90151 0.315492 0)
(9.93193 0.282045 0)
(9.83694 0.407497 0)
(9.87643 0.376955 0)
(9.75684 0.503003 0)
(9.80579 0.474833 0)
(9.66135 0.603265 0)
(9.7203 0.577039 0)
(9.55046 0.709444 0)
(9.61996 0.684801 0)
(9.42404 0.822682 0)
(9.50465 0.799298 0)
(9.28185 0.944122 0)
(9.37423 0.921712 0)
(9.12357 1.0749 0)
(9.22844 1.05322 0)
(8.9488 1.21616 0)
(9.06696 1.19501 0)
(8.75707 1.369 0)
(8.88939 1.34824 0)
(8.54779 1.53454 0)
(8.69522 1.51407 0)
(8.32028 1.71379 0)
(8.48384 1.69365 0)
(8.07374 1.90768 0)
(8.25454 1.88804 0)
(7.80719 2.11696 0)
(8.0064 2.0982 0)
(7.51939 2.34208 0)
(7.73831 2.32489 0)
(7.20876 2.58308 0)
(7.4488 2.5686 0)
(6.8732 2.83931 0)
(7.13594 2.82937 0)
(6.5099 3.1092 0)
(6.79712 3.10655 0)
(6.11503 3.38974 0)
(6.42881 3.39853 0)
(5.68349 3.67597 0)
(6.02621 3.70223 0)
(5.20858 3.96019 0)
(5.58288 4.01244 0)
(4.68187 4.231 0)
(5.09044 4.32095 0)
(4.09341 4.47237 0)
(4.53841 4.61541 0)
(3.43263 4.66266 0)
(3.91484 4.87795 0)
(2.69024 4.77333 0)
(3.20582 5.08373 0)
(1.86194 4.77264 0)
(2.4114 5.19819 0)
(0.954229 4.59001 0)
(1.47636 5.1846 0)
(0.639232 4.9198 0)
(9.98386 0.148368 0)
(9.99368 0.102943 0)
(9.95235 0.245968 0)
(9.9726 0.204392 0)
(9.90578 0.344395 0)
(9.9351 0.305966 0)
(9.84437 0.445192 0)
(9.88241 0.409265 0)
(9.76833 0.549802 0)
(9.81552 0.515809 0)
(9.6778 0.659547 0)
(9.73471 0.627 0)
(9.57281 0.775672 0)
(9.63999 0.744144 0)
(9.45328 0.899397 0)
(9.5313 0.868498 0)
(9.31902 1.03194 0)
(9.40853 1.00131 0)
(9.16979 1.17452 0)
(9.27152 1.14385 0)
(9.00523 1.32836 0)
(9.12 1.29735 0)
(8.82494 1.49467 0)
(8.95362 1.46308 0)
(8.62836 1.67465 0)
(8.77195 1.64232 0)
(8.41487 1.86948 0)
(8.57445 1.8363 0)
(8.18364 2.08026 0)
(8.3604 2.04628 0)
(7.93365 2.30798 0)
(8.12893 2.27342 0)
(7.66354 2.55342 0)
(7.87885 2.51879 0)
(7.37151 2.81709 0)
(7.6086 2.7833 0)
(7.05515 3.09902 0)
(7.31606 3.06759 0)
(6.71114 3.39856 0)
(6.9983 3.37186 0)
(6.33494 3.71399 0)
(6.65132 3.69568 0)
(5.92042 4.04203 0)
(6.26956 4.03757 0)
(5.45936 4.37702 0)
(5.84549 4.39444 0)
(4.94117 4.70988 0)
(5.369 4.76068 0)
(4.35283 5.02658 0)
(4.82692 5.12674 0)
(3.6797 5.30629 0)
(4.20331 5.47713 0)
(2.90761 5.51836 0)
(3.47804 5.78762 0)
(2.02774 5.62327 0)
(2.64516 6.01974 0)
(1.04515 5.52978 0)
(1.63781 6.12426 0)
(0.704513 5.94346 0)
(9.98465 0.15998 0)
(9.99402 0.110462 0)
(9.95473 0.265379 0)
(9.97409 0.219398 0)
(9.91065 0.371816 0)
(9.93868 0.328609 0)
(9.85267 0.480878 0)
(9.88905 0.439771 0)
(9.781 0.594036 0)
(9.82618 0.554426 0)
(9.69581 0.712669 0)
(9.75038 0.674015 0)
(9.59716 0.838092 0)
(9.66166 0.799903 0)
(9.48502 0.971595 0)
(9.56003 0.933417 0)
(9.35927 1.11447 0)
(9.44543 1.07587 0)
(9.21973 1.26799 0)
(9.31776 1.22858 0)
(9.06613 1.43348 0)
(9.17684 1.39288 0)
(8.89811 1.61223 0)
(9.02241 1.57011 0)
(8.71523 1.80558 0)
(8.8541 1.76163 0)
(8.51687 2.01483 0)
(8.67146 1.96884 0)
(8.30228 2.24129 0)
(8.47386 2.19313 0)
(8.07043 2.48622 0)
(8.26047 2.43592 0)
(7.81994 2.7508 0)
(8.03016 2.69861 0)
(7.5489 3.03608 0)
(7.78135 2.98257 0)
(7.25473 3.34287 0)
(7.5119 3.2891 0)
(6.9338 3.67159 0)
(7.21878 3.61936 0)
(6.58108 4.02207 0)
(6.89776 3.97427 0)
(6.18965 4.39305 0)
(6.5429 4.35423 0)
(5.74999 4.78156 0)
(6.14591 4.75872 0)
(5.24936 5.18172 0)
(5.69531 5.18551 0)
(4.6712 5.58286 0)
(5.17534 5.62923 0)
(3.99516 5.96668 0)
(4.56537 6.07889 0)
(3.19865 6.30194 0)
(3.83661 6.51377 0)
(2.26195 6.541 0)
(2.97107 6.89435 0)
(1.18071 6.56551 0)
(1.87931 7.15826 0)
(0.812885 7.09989 0)
(9.98553 0.170962 0)
(9.9944 0.117546 0)
(9.95738 0.283696 0)
(9.97572 0.233518 0)
(9.916 0.397631 0)
(9.94258 0.349866 0)
(9.86169 0.514406 0)
(9.89623 0.468347 0)
(9.79468 0.635526 0)
(9.83764 0.590533 0)
(9.71517 0.762417 0)
(9.76713 0.717899 0)
(9.62324 0.896451 0)
(9.68475 0.851861 0)
(9.51894 1.03898 0)
(9.59055 0.9938 0)
(9.40221 1.19135 0)
(9.48456 1.14508 0)
(9.27293 1.35491 0)
(9.36673 1.30708 0)
(9.13094 1.53104 0)
(9.23698 1.48119 0)
(8.97596 1.72114 0)
(9.09514 1.66883 0)
(8.80764 1.92664 0)
(8.94096 1.87145 0)
(8.62547 2.14901 0)
(8.77408 2.09056 0)
(8.42879 2.38975 0)
(8.59401 2.32773 0)
(8.21664 2.65042 0)
(8.40004 2.58461 0)
(7.98773 2.9326 0)
(8.19117 2.86293 0)
(7.74024 3.23793 0)
(7.96599 3.16453 0)
(7.47157 3.56803 0)
(7.7225 3.4914 0)
(7.17811 3.92455 0)
(7.45784 3.84569 0)
(6.8547 4.309 0)
(7.16796 4.22972 0)
(6.49409 4.72251 0)
(6.84704 4.64595 0)
(6.086 5.16542 0)
(6.48674 5.09684 0)
(5.61599 5.63624 0)
(6.07501 5.58435 0)
(5.06396 6.12982 0)
(5.5944 6.109 0)
(4.4026 6.63387 0)
(5.02003 6.66759 0)
(3.5965 7.12143 0)
(4.313 7.24867 0)
(2.60462 7.54099 0)
(3.43609 7.82049 0)
(1.39448 7.74094 0)
(2.25678 8.31553 0)
(1.00277 8.46569 0)
(9.9865 0.181251 0)
(9.9948 0.124155 0)
(9.96026 0.30083 0)
(9.97747 0.246678 0)
(9.92176 0.421729 0)
(9.94676 0.369644 0)
(9.87133 0.545644 0)
(9.90387 0.49488 0)
(9.80923 0.674114 0)
(9.84977 0.623996 0)
(9.73567 0.808601 0)
(9.78478 0.758495 0)
(9.6508 0.950527 0)
(9.70902 0.899832 0)
(9.55471 1.10129 0)
(9.62258 1.04943 0)
(9.44742 1.26228 0)
(9.52555 1.2087 0)
(9.3289 1.43492 0)
(9.41798 1.37905 0)
(9.19908 1.62063 0)
(9.29988 1.56194 0)
(9.05779 1.82089 0)
(9.17118 1.75883 0)
(8.9048 2.03723 0)
(9.03176 1.97126 0)
(8.73975 2.27127 0)
(8.88141 2.20084 0)
(8.56211 2.5247 0)
(8.7198 2.4493 0)
(8.37112 2.79934 0)
(8.54643 2.71848 0)
(8.16568 3.09717 0)
(8.36052 3.01041 0)
(7.9442 3.4204 0)
(8.16097 3.32737 0)
(7.70438 3.77147 0)
(7.94615 3.67198 0)
(7.44296 4.15323 0)
(7.71368 4.0473 0)
(7.15518 4.56893 0)
(7.46014 4.45703 0)
(6.83417 5.0223 0)
(7.18049 4.90565 0)
(6.46986 5.51748 0)
(6.86735 5.39868 0)
(6.04739 6.0586 0)
(6.50967 5.94285 0)
(5.54452 6.64869 0)
(6.09049 6.54606 0)
(4.92759 7.28706 0)
(5.58366 7.21673 0)
(4.14554 7.96164 0)
(4.94313 7.96164 0)
(3.12226 8.63401 0)
(4.10995 8.77595 0)
(1.75657 9.12852 0)
(2.87901 9.62154 0)
(1.36505 10.1861 0)
(9.98754 0.190798 0)
(9.99523 0.13026 0)
(9.96332 0.316705 0)
(9.97932 0.258822 0)
(9.92785 0.444018 0)
(9.95115 0.387865 0)
(9.88147 0.574483 0)
(9.91187 0.51928 0)
(9.82448 0.70967 0)
(9.86243 0.654707 0)
(9.75712 0.851073 0)
(9.80317 0.795673 0)
(9.67957 1.00015 0)
(9.73424 0.943661 0)
(9.592 1.15833 0)
(9.65582 1.10013 0)
(9.4945 1.32705 0)
(9.56804 1.26651 0)
(9.38714 1.50775 0)
(9.47106 1.44425 0)
(9.26995 1.70192 0)
(9.36498 1.63483 0)
(9.14288 1.91109 0)
(9.24985 1.83976 0)
(9.00586 2.13688 0)
(9.1257 2.06065 0)
(8.8587 2.38101 0)
(8.99249 2.29917 0)
(8.70107 2.64533 0)
(8.8501 2.55717 0)
(8.53248 2.93191 0)
(8.69827 2.83664 0)
(8.35214 3.24305 0)
(8.53657 3.13986 0)
(8.15888 3.58145 0)
(8.36433 3.46946 0)
(7.95098 3.95028 0)
(8.18047 3.82853 0)
(7.72588 4.35343 0)
(7.98341 4.2209 0)
(7.47983 4.79577 0)
(7.77078 4.65137 0)
(7.20729 5.28349 0)
(7.53911 5.12613 0)
(6.89987 5.82456 0)
(7.28315 5.6534 0)
(6.5446 6.42936 0)
(6.99493 6.24433 0)
(6.12075 7.11131 0)
(6.66173 6.91443 0)
(5.59357 7.88758 0)
(6.26298 7.68599 0)
(4.90154 8.77805 0)
(5.75825 8.59254 0)
(3.9276 9.80201 0)
(5.08822 9.68534 0)
(2.43382 10.8577 0)
(3.98052 11.05 0)
(2.14695 12.5699 0)
(9.98861 0.199562 0)
(9.99567 0.135835 0)
(9.96652 0.33126 0)
(9.98124 0.269905 0)
(9.9342 0.464415 0)
(9.9557 0.40447 0)
(9.89202 0.600816 0)
(9.92016 0.541472 0)
(9.8403 0.742058 0)
(9.87552 0.682577 0)
(9.77931 0.889659 0)
(9.82215 0.82933 0)
(9.70931 1.0451 0)
(9.76027 0.983231 0)
(9.63049 1.20983 0)
(9.69009 1.14575 0)
(9.54306 1.38531 0)
(9.61184 1.31835 0)
(9.44715 1.57302 0)
(9.52575 1.50248 0)
(9.34293 1.77447 0)
(9.43204 1.69965 0)
(9.23049 1.99122 0)
(9.33089 1.91138 0)
(9.10992 2.22495 0)
(9.2225 2.13931 0)
(8.98123 2.47745 0)
(9.107 2.38516 0)
(8.84435 2.75071 0)
(8.98453 2.65084 0)
(8.69911 3.04692 0)
(8.85512 2.93844 0)
(8.54515 3.36866 0)
(8.71876 3.25039 0)
(8.38186 3.71896 0)
(8.57527 3.5895 0)
(8.20831 4.10152 0)
(8.42433 3.95922 0)
(8.02302 4.521 0)
(8.26537 4.3638 0)
(7.82383 4.98346 0)
(8.09747 4.80871 0)
(7.60743 5.49693 0)
(7.91928 5.30119 0)
(7.36881 6.07247 0)
(7.72884 5.8511 0)
(7.10006 6.72575 0)
(7.52327 6.47238 0)
(6.78803 7.47997 0)
(7.29834 7.18562 0)
(6.40918 8.37189 0)
(7.04862 8.02322 0)
(5.9165 9.46603 0)
(6.76393 9.0417 0)
(5.19735 10.9088 0)
(6.46336 10.3568 0)
(3.88588 13.1805 0)
(6.19215 12.3042 0)
(5.26268 16.3759 0)
(0.202812 -0.125077 0)
(0.117092 -0.198642 0)
(0.395948 -0.106889 0)
(0.284429 -0.184696 0)
(0.557561 -0.0840226 0)
(0.453283 -0.150901 0)
(0.688412 -0.0643191 0)
(0.598607 -0.119293 0)
(0.793759 -0.0487336 0)
(0.716588 -0.0937726 0)
(0.87878 -0.0367182 0)
(0.812188 -0.0738927 0)
(0.947899 -0.0275993 0)
(0.890965 -0.0586534 0)
(1.00483 -0.0207951 0)
(0.957173 -0.0471736 0)
(1.05265 -0.0158047 0)
(1.01395 -0.0386787 0)
(1.09378 -0.0121962 0)
(1.06372 -0.0324873 0)
(1.1301 -0.00959796 0)
(1.10839 -0.028012 0)
(1.16295 -0.0076855 0)
(1.14939 -0.0247401 0)
(1.19317 -0.00617369 0)
(1.18772 -0.022212 0)
(1.22106 -0.00482405 0)
(1.22394 -0.0200221 0)
(1.24653 -0.00346697 0)
(1.25819 -0.0178505 0)
(1.26919 -0.00202298 0)
(1.29031 -0.0155101 0)
(1.28861 -0.000493365 0)
(1.31993 -0.0129726 0)
(1.30442 0.00110236 0)
(1.34672 -0.0103191 0)
(1.31636 0.00281034 0)
(1.37048 -0.00760113 0)
(1.32395 0.00472175 0)
(1.39109 -0.00472215 0)
(1.32658 0.00675275 0)
(1.40826 -0.00159662 0)
(1.32342 0.00860218 0)
(1.42126 0.00187028 0)
(1.3147 0.00989506 0)
(1.42932 0.00505041 0)
(1.30215 0.010246 0)
(1.43256 0.00709374 0)
(1.28866 0.00952724 0)
(1.43277 0.00744558 0)
(1.2768 0.00799719 0)
(1.43265 0.00638779 0)
(1.26788 0.0059824 0)
(1.43425 0.00469371 0)
(1.26261 0.00363928 0)
(1.43832 0.00271032 0)
(1.26153 0.00104044 0)
(1.44494 0.000541233 0)
(1.45634 -0.00199322 0)
(0.180759 -0.287274 0)
(0.0931094 -0.375684 0)
(0.356495 -0.253568 0)
(0.243983 -0.352755 0)
(0.506496 -0.205541 0)
(0.387199 -0.29096 0)
(0.631162 -0.163328 0)
(0.511449 -0.232946 0)
(0.735294 -0.12983 0)
(0.613739 -0.186464 0)
(0.823327 -0.103983 0)
(0.698766 -0.150403 0)
(0.898881 -0.0843441 0)
(0.770891 -0.122767 0)
(0.964883 -0.0696511 0)
(0.833326 -0.101859 0)
(1.02368 -0.0588184 0)
(0.888431 -0.0862434 0)
(1.07713 -0.0509171 0)
(0.938033 -0.0747046 0)
(1.12667 -0.0451526 0)
(0.98357 -0.0662169 0)
(1.17336 -0.040831 0)
(1.02614 -0.0598975 0)
(1.2179 -0.03734 0)
(1.06655 -0.0549624 0)
(1.26067 -0.0341626 0)
(1.10529 -0.0507196 0)
(1.3017 -0.0309251 0)
(1.14256 -0.046609 0)
(1.34082 -0.0274525 0)
(1.17831 -0.0422837 0)
(1.37779 -0.0237674 0)
(1.21231 -0.0376763 0)
(1.41249 -0.0199736 0)
(1.24426 -0.0329563 0)
(1.44499 -0.0160581 0)
(1.27409 -0.0283034 0)
(1.47535 -0.0118245 0)
(1.302 -0.0236015 0)
(1.50297 -0.00716144 0)
(1.32825 -0.0183743 0)
(1.52689 -0.0024357 0)
(1.35256 -0.0123079 0)
(1.54639 0.00147225 0)
(1.37399 -0.00623864 0)
(1.56213 0.00372592 0)
(1.39169 -0.00180457 0)
(1.57602 0.00417762 0)
(1.40594 -0.000221548 0)
(1.58987 0.00338808 0)
(1.41842 -0.0010735 0)
(1.60463 0.00194167 0)
(1.43069 -0.00306937 0)
(1.62072 6.99371e-05 0)
(1.44309 -0.0055557 0)
(1.63775 -0.00176435 0)
(1.45546 -0.00800279 0)
(1.47035 -0.00875917 0)
(0.146994 -0.448767 0)
(0.0689809 -0.519656 0)
(0.28552 -0.398115 0)
(0.189822 -0.485227 0)
(0.401641 -0.325738 0)
(0.292713 -0.399385 0)
(0.49744 -0.262324 0)
(0.382166 -0.320282 0)
(0.577541 -0.212099 0)
(0.454156 -0.257766 0)
(0.645505 -0.173225 0)
(0.514042 -0.209471 0)
(0.704119 -0.143488 0)
(0.564756 -0.172506 0)
(0.755543 -0.120991 0)
(0.608424 -0.144467 0)
(0.80148 -0.104148 0)
(0.646654 -0.123405 0)
(0.843287 -0.0916296 0)
(0.680714 -0.107726 0)
(0.882037 -0.0823024 0)
(0.711611 -0.0961014 0)
(0.918543 -0.0751791 0)
(0.740137 -0.0873863 0)
(0.953365 -0.0693836 0)
(0.766895 -0.0805642 0)
(0.98681 -0.064164 0)
(0.792306 -0.0747283 0)
(1.01893 -0.0589596 0)
(0.81661 -0.0691225 0)
(1.04957 -0.0534951 0)
(0.839849 -0.0632476 0)
(1.07845 -0.0478195 0)
(0.861812 -0.0569794 0)
(1.10547 -0.0421724 0)
(0.882132 -0.0505818 0)
(1.13081 -0.0366411 0)
(0.900458 -0.0444419 0)
(1.15487 -0.0308164 0)
(0.917002 -0.0385702 0)
(1.17781 -0.0239768 0)
(0.932599 -0.0323033 0)
(1.19919 -0.0161927 0)
(0.948213 -0.0249836 0)
(1.21809 -0.00926231 0)
(0.963188 -0.0171814 0)
(1.23406 -0.00548938 0)
(0.974655 -0.0108307 0)
(1.24744 -0.00544233 0)
(0.98012 -0.0076036 0)
(1.25907 -0.00791077 0)
(0.980727 -0.00734241 0)
(1.269 -0.0113726 0)
(0.978956 -0.00829051 0)
(1.27762 -0.0147168 0)
(0.975298 -0.00998441 0)
(1.28618 -0.0164209 0)
(0.97004 -0.0122963 0)
(0.964646 -0.0124506 0)
(0.110599 -0.567187 0)
(0.0453681 -0.627981 0)
(0.205694 -0.498013 0)
(0.12952 -0.576168 0)
(0.281105 -0.40533 0)
(0.185521 -0.469798 0)
(0.341495 -0.326153 0)
(0.235925 -0.375338 0)
(0.391241 -0.264309 0)
(0.272124 -0.302046 0)
(0.432835 -0.216636 0)
(0.301603 -0.245621 0)
(0.468102 -0.180177 0)
(0.325254 -0.202433 0)
(0.498376 -0.152514 0)
(0.344277 -0.16955 0)
(0.524708 -0.131706 0)
(0.359617 -0.144707 0)
(0.547956 -0.116158 0)
(0.372052 -0.126089 0)
(0.568819 -0.104519 0)
(0.382195 -0.112191 0)
(0.587855 -0.0956123 0)
(0.390543 -0.10172 0)
(0.605492 -0.0883878 0)
(0.397529 -0.0935305 0)
(0.622025 -0.0819311 0)
(0.403547 -0.0865964 0)
(0.637591 -0.0755269 0)
(0.408933 -0.0800327 0)
(0.652114 -0.0687793 0)
(0.413926 -0.0731869 0)
(0.665303 -0.0617113 0)
(0.418387 -0.0657917 0)
(0.676787 -0.0547012 0)
(0.421957 -0.0580735 0)
(0.686511 -0.0481637 0)
(0.423515 -0.0506361 0)
(0.695112 -0.0421266 0)
(0.422701 -0.0439195 0)
(0.703467 -0.0360601 0)
(0.419181 -0.0373773 0)
(0.711605 -0.0293195 0)
(0.415075 -0.0298088 0)
(0.717505 -0.0219752 0)
(0.409762 -0.0205967 0)
(0.718346 -0.0151633 0)
(0.40347 -0.0113058 0)
(0.712545 -0.00989995 0)
(0.394205 -0.00440224 0)
(0.700895 -0.00634872 0)
(0.38334 -0.00106477 0)
(0.685341 -0.0046157 0)
(0.373841 -0.00010756 0)
(0.667049 -0.005087 0)
(0.364033 -0.000587454 0)
(0.648109 -0.00649514 0)
(0.353184 -0.00279661 0)
(0.337286 -0.00863187 0)
(0.0689995 -0.64533 0)
(0.0207053 -0.695561 0)
(0.116186 -0.556622 0)
(0.0624308 -0.621293 0)
(0.147623 -0.448058 0)
(0.0676493 -0.49915 0)
(0.16852 -0.358481 0)
(0.0762324 -0.394389 0)
(0.183606 -0.289495 0)
(0.0730423 -0.315475 0)
(0.194023 -0.23643 0)
(0.0681867 -0.254675 0)
(0.200743 -0.195791 0)
(0.0602284 -0.208136 0)
(0.204471 -0.164839 0)
(0.050083 -0.172639 0)
(0.205798 -0.141444 0)
(0.038302 -0.14578 0)
(0.205205 -0.123882 0)
(0.0253715 -0.12562 0)
(0.203091 -0.110707 0)
(0.0116395 -0.110561 0)
(0.199807 -0.10066 0)
(-0.00260866 -0.0992474 0)
(0.195659 -0.0926088 0)
(-0.0170773 -0.0904809 0)
(0.190926 -0.0855386 0)
(-0.0314625 -0.0831987 0)
(0.185872 -0.0786013 0)
(-0.0454558 -0.0764907 0)
(0.180673 -0.0712259 0)
(-0.0587333 -0.0696288 0)
(0.175223 -0.0632483 0)
(-0.0711752 -0.06215 0)
(0.168874 -0.0549008 0)
(-0.0827836 -0.0539313 0)
(0.160296 -0.0464986 0)
(-0.0943471 -0.0451725 0)
(0.147987 -0.0379003 0)
(-0.10635 -0.0362638 0)
(0.131518 -0.028367 0)
(-0.119824 -0.0273765 0)
(0.111981 -0.0175038 0)
(-0.133414 -0.018225 0)
(0.0925798 -0.00682945 0)
(-0.147494 -0.00936517 0)
(0.0759446 0.000899763 0)
(-0.160115 -0.00190297 0)
(0.0642178 0.00431278 0)
(-0.170943 0.00206957 0)
(0.0572034 0.00456772 0)
(-0.180118 0.00271499 0)
(0.0526655 0.00317987 0)
(-0.185657 0.00227992 0)
(0.0484917 0.000570283 0)
(-0.189913 0.0015566 0)
(0.0433134 -0.00539952 0)
(-0.194485 -0.00019934 0)
(-0.203862 -0.0062262 0)
(0.0212385 -0.677539 0)
(-0.00668795 -0.716363 0)
(0.0175347 -0.568785 0)
(-0.0123495 -0.617751 0)
(0.000452184 -0.448481 0)
(-0.0584168 -0.4832 0)
(-0.0178833 -0.352977 0)
(-0.09439 -0.377673 0)
(-0.0404761 -0.280365 0)
(-0.137685 -0.295364 0)
(-0.0650659 -0.225047 0)
(-0.17929 -0.233304 0)
(-0.0908016 -0.183001 0)
(-0.22034 -0.186297 0)
(-0.116995 -0.15123 0)
(-0.259905 -0.150937 0)
(-0.143225 -0.12739 0)
(-0.297554 -0.124561 0)
(-0.169211 -0.109617 0)
(-0.332997 -0.105095 0)
(-0.194747 -0.0963888 0)
(-0.366155 -0.0908678 0)
(-0.219657 -0.0863961 0)
(-0.397077 -0.0804903 0)
(-0.243794 -0.0784742 0)
(-0.425852 -0.0727345 0)
(-0.267023 -0.0716227 0)
(-0.452581 -0.0665243 0)
(-0.289143 -0.0650499 0)
(-0.477326 -0.060987 0)
(-0.309836 -0.0582119 0)
(-0.500026 -0.0554676 0)
(-0.328701 -0.0508481 0)
(-0.520503 -0.0495448 0)
(-0.345422 -0.0429781 0)
(-0.538579 -0.0430227 0)
(-0.36 -0.0348171 0)
(-0.554229 -0.0358862 0)
(-0.372884 -0.0266112 0)
(-0.567644 -0.0282506 0)
(-0.384566 -0.0185472 0)
(-0.579169 -0.0202831 0)
(-0.39487 -0.0109261 0)
(-0.588893 -0.0121153 0)
(-0.403676 -0.00446249 0)
(-0.597079 -0.00426733 0)
(-0.410214 -6.27518e-05 0)
(-0.604252 0.00179237 0)
(-0.415929 0.00175969 0)
(-0.610604 0.0052239 0)
(-0.422019 0.00192811 0)
(-0.617606 0.00599617 0)
(-0.42833 0.00200291 0)
(-0.624169 0.00560049 0)
(-0.434284 0.00162796 0)
(-0.630363 0.00461507 0)
(-0.438343 -0.00128714 0)
(-0.636693 0.00183678 0)
(-0.642556 -0.00376771 0)
(-0.0310779 -0.657136 0)
(-0.0390661 -0.685924 0)
(-0.0868318 -0.53076 0)
(-0.0945986 -0.564433 0)
(-0.148484 -0.4073 0)
(-0.190012 -0.425634 0)
(-0.212017 -0.312627 0)
(-0.270918 -0.319753 0)
(-0.27416 -0.240866 0)
(-0.352255 -0.240048 0)
(-0.333676 -0.187416 0)
(-0.427697 -0.181578 0)
(-0.389439 -0.147726 0)
(-0.49667 -0.138977 0)
(-0.440953 -0.118544 0)
(-0.558719 -0.108255 0)
(-0.487977 -0.0974011 0)
(-0.613997 -0.0865196 0)
(-0.530519 -0.0823303 0)
(-0.663 -0.0714924 0)
(-0.568817 -0.0717168 0)
(-0.706344 -0.0613322 0)
(-0.603249 -0.0642005 0)
(-0.744733 -0.054563 0)
(-0.634247 -0.0586068 0)
(-0.778841 -0.0499441 0)
(-0.662229 -0.0539758 0)
(-0.809289 -0.0464379 0)
(-0.687479 -0.0495976 0)
(-0.83659 -0.0432895 0)
(-0.710081 -0.044991 0)
(-0.861041 -0.04 0)
(-0.729951 -0.0398607 0)
(-0.882711 -0.0362678 0)
(-0.746998 -0.0340474 0)
(-0.901545 -0.0319019 0)
(-0.761322 -0.0275075 0)
(-0.91756 -0.0267619 0)
(-0.77333 -0.0203206 0)
(-0.930995 -0.0207821 0)
(-0.78362 -0.0127021 0)
(-0.942263 -0.0140344 0)
(-0.792539 -0.00513239 0)
(-0.9518 -0.0068275 0)
(-0.800297 0.00148395 0)
(-0.960203 0.000224065 0)
(-0.806768 0.00597251 0)
(-0.967101 0.00544975 0)
(-0.8128 0.00798277 0)
(-0.973773 0.00855314 0)
(-0.819392 0.0081619 0)
(-0.980783 0.00954829 0)
(-0.826258 0.00697951 0)
(-0.98794 0.00921268 0)
(-0.832487 0.00416415 0)
(-0.995183 0.00781483 0)
(-0.837328 -0.000372136 0)
(-1.00222 0.00426492 0)
(-1.0063 -0.000606172 0)
(-0.0874294 -0.585348 0)
(-0.0778214 -0.600293 0)
(-0.19541 -0.449143 0)
(-0.184673 -0.461171 0)
(-0.303559 -0.32732 0)
(-0.328989 -0.324653 0)
(-0.407554 -0.237056 0)
(-0.451144 -0.224944 0)
(-0.503517 -0.171954 0)
(-0.564908 -0.154629 0)
(-0.58976 -0.126061 0)
(-0.665866 -0.106623 0)
(-0.665705 -0.094057 0)
(-0.75385 -0.0745313 0)
(-0.731867 -0.0720625 0)
(-0.82957 -0.0534371 0)
(-0.789243 -0.0573812 0)
(-0.893392 -0.0401035 0)
(-0.839007 -0.0479861 0)
(-0.947679 -0.0321856 0)
(-0.882327 -0.0422252 0)
(-0.994308 -0.0279231 0)
(-0.920237 -0.0387782 0)
(-1.03486 -0.0260173 0)
(-0.9536 -0.0365666 0)
(-1.07056 -0.0254152 0)
(-0.983208 -0.0347747 0)
(-1.10228 -0.0251835 0)
(-1.00964 -0.0328765 0)
(-1.13054 -0.0247621 0)
(-1.03321 -0.0305679 0)
(-1.15582 -0.0238717 0)
(-1.05397 -0.0276696 0)
(-1.17832 -0.0223994 0)
(-1.07186 -0.0240236 0)
(-1.19797 -0.020229 0)
(-1.08696 -0.0194695 0)
(-1.21474 -0.0171398 0)
(-1.09964 -0.0139342 0)
(-1.22886 -0.012896 0)
(-1.11047 -0.00759148 0)
(-1.2408 -0.0074589 0)
(-1.12001 -0.00106451 0)
(-1.25125 -0.00117345 0)
(-1.12811 0.0046777 0)
(-1.26022 0.0049175 0)
(-1.13534 0.00875502 0)
(-1.26806 0.0095319 0)
(-1.14229 0.0108229 0)
(-1.27583 0.0123898 0)
(-1.1494 0.0112136 0)
(-1.28358 0.0133817 0)
(-1.15663 0.0102783 0)
(-1.29151 0.0130134 0)
(-1.16351 0.00770745 0)
(-1.29986 0.0113516 0)
(-1.17054 0.00373467 0)
(-1.30788 0.00778982 0)
(-1.31231 0.00373477 0)
(-0.150166 -0.459911 0)
(-0.126252 -0.453214 0)
(-0.313567 -0.322844 0)
(-0.292361 -0.304909 0)