/*--------------------------------*- C++ -*----------------------------------*\
  =========                 |
  \\      /  F ield         | OpenFOAM: The Open Source CFD Toolbox
   \\    /   O peration     | Website:  https://openfoam.org
    \\  /    A nd           | Version:  7
     \\/     M anipulation  |
\*---------------------------------------------------------------------------*/
FoamFile
{
    version     2.0;
    format      ascii;
    class       volScalarField;
    location    "1.81";
    object      T;
}
// * * * * * * * * * * * * * * * * * * * * * * * * * * * * * * * * * * * * * //

dimensions      [0 0 0 1 0 0 0];

internalField   nonuniform List<scalar> 
12013
(
300.024
300.073
300.124
300.178
300.234
300.294
300.356
300.422
300.492
300.565
300.643
300.725
300.812
300.903
301
301.102
301.211
301.325
301.445
301.572
301.706
301.847
301.996
302.152
302.317
302.49
302.672
302.864
303.066
303.278
303.501
303.736
303.983
304.243
304.517
304.805
305.108
305.428
305.765
306.121
306.497
306.893
307.312
307.756
308.225
308.721
309.247
309.805
310.397
311.025
311.692
312.402
313.157
313.96
314.816
315.728
316.701
317.739
318.848
320.032
321.299
322.654
324.105
325.659
327.326
329.115
331.037
333.104
335.329
337.729
340.321
343.128
346.173
349.488
353.112
357.093
361.498
366.42
372.001
378.48
386.312
300.024
300.073
300.124
300.178
300.234
300.294
300.356
300.422
300.492
300.565
300.643
300.725
300.812
300.903
301
301.102
301.211
301.325
301.445
301.572
301.706
301.847
301.996
302.152
302.317
302.49
302.672
302.864
303.066
303.278
303.501
303.736
303.983
304.243
304.517
304.805
305.109
305.428
305.766
306.121
306.497
306.894
307.313
307.756
308.225
308.721
309.247
309.805
310.396
311.025
311.692
312.401
313.156
313.959
314.814
315.726
316.698
317.735
318.843
320.026
321.291
322.644
324.093
325.645
327.309
329.094
331.011
333.072
335.29
337.681
340.262
343.053
346.079
349.368
352.956
356.886
361.216
366.017
371.385
377.441
384.289
300.024
300.073
300.124
300.178
300.234
300.294
300.356
300.422
300.492
300.565
300.643
300.725
300.811
300.903
301
301.102
301.211
301.325
301.445
301.572
301.706
301.847
301.996
302.152
302.317
302.49
302.673
302.865
303.066
303.279
303.502
303.737
303.984
304.244
304.517
304.806
305.109
305.429
305.766
306.122
306.498
306.894
307.313
307.756
308.225
308.721
309.247
309.805
310.396
311.024
311.69
312.399
313.153
313.955
314.809
315.72
316.69
317.726
318.831
320.012
321.274
322.623
324.067
325.613
327.27
329.046
330.953
333.001
335.204
337.574
340.13
342.889
345.874
349.108
352.621
356.447
360.627
365.204
370.22
375.7
381.599
300.024
300.073
300.124
300.178
300.234
300.294
300.356
300.422
300.491
300.565
300.643
300.725
300.811
300.903
301
301.103
301.211
301.325
301.445
301.572
301.706
301.847
301.996
302.153
302.317
302.491
302.673
302.865
303.067
303.279
303.502
303.737
303.984
304.245
304.518
304.806
305.11
305.43
305.767
306.123
306.499
306.895
307.314
307.757
308.226
308.722
309.247
309.804
310.395
311.022
311.688
312.396
313.148
313.949
314.802
315.71
316.678
317.71
318.812
319.988
321.244
322.587
324.023
325.56
327.206
328.968
330.858
332.885
335.062
337.401
339.917
342.625
345.544
348.693
352.093
355.769
359.74
364.026
368.631
373.533
378.655
300.024
300.073
300.124
300.178
300.234
300.294
300.356
300.422
300.491
300.565
300.643
300.725
300.811
300.903
301
301.103
301.211
301.325
301.445
301.572
301.706
301.848
301.996
302.153
302.318
302.491
302.674
302.866
303.068
303.28
303.503
303.738
303.986
304.246
304.52
304.808
305.111
305.431
305.769
306.124
306.5
306.896
307.315
307.758
308.226
308.722
309.247
309.803
310.393
311.019
311.684
312.39
313.141
313.94
314.79
315.695
316.659
317.687
318.783
319.953
321.201
322.535
323.96
325.483
327.111
328.854
330.72
332.717
334.857
337.151
339.611
342.249
345.079
348.116
351.371
354.858
358.584
362.548
366.736
371.11
375.601
300.024
300.073
300.124
300.178
300.234
300.293
300.356
300.422
300.491
300.565
300.643
300.725
300.811
300.903
301
301.103
301.211
301.325
301.446
301.573
301.707
301.848
301.997
302.153
302.318
302.492
302.675
302.867
303.069
303.281
303.505
303.74
303.987
304.247
304.521
304.81
305.113
305.433
305.771
306.126
306.502
306.898
307.317
307.759
308.227
308.722
309.246
309.802
310.391
311.015
311.679
312.383
313.131
313.927
314.773
315.674
316.633
317.654
318.743
319.904
321.142
322.462
323.872
325.376
326.983
328.699
330.532
332.49
334.583
336.818
339.206
341.756
344.477
347.377
350.463
353.737
357.197
360.834
364.624
368.53
372.498
300.024
300.073
300.124
300.178
300.234
300.293
300.356
300.422
300.491
300.565
300.642
300.725
300.811
300.903
301
301.103
301.211
301.325
301.446
301.573
301.707
301.848
301.997
302.154
302.319
302.493
302.676
302.868
303.07
303.283
303.506
303.742
303.989
304.249
304.523
304.812
305.116
305.436
305.773
306.129
306.504
306.9
307.318
307.76
308.228
308.722
309.245
309.8
310.387
311.01
311.671
312.372
313.117
313.909
314.75
315.645
316.598
317.611
318.69
319.839
321.063
322.367
323.756
325.237
326.815
328.497
330.29
332.199
334.232
336.397
338.698
341.144
343.738
346.483
349.382
352.431
355.622
358.94
362.362
365.855
369.379
300.024
300.073
300.124
300.178
300.234
300.293
300.356
300.422
300.491
300.565
300.642
300.724
300.811
300.903
301
301.103
301.211
301.325
301.446
301.573
301.707
301.849
301.998
302.155
302.32
302.494
302.677
302.869
303.072
303.284
303.508
303.744
303.991
304.252
304.526
304.815
305.119
305.439
305.776
306.132
306.507
306.902
307.32
307.762
308.228
308.722
309.244
309.796
310.382
311.002
311.66
312.358
313.099
313.885
314.721
315.608
316.552
317.555
318.621
319.755
320.962
322.245
323.61
325.061
326.605
328.245
329.988
331.839
333.803
335.884
338.087
340.414
342.868
345.448
348.151
350.971
353.898
356.915
360.001
363.129
366.27
300.024
300.073
300.124
300.178
300.234
300.293
300.356
300.421
300.491
300.564
300.642
300.724
300.811
300.903
301
301.103
301.211
301.325
301.446
301.574
301.708
301.85
301.999
302.156
302.321
302.495
302.678
302.871
303.074
303.287
303.511
303.746
303.994
304.255
304.529
304.818
305.122
305.442
305.779
306.135
306.51
306.905
307.322
307.763
308.228
308.721
309.241
309.792
310.375
310.992
311.646
312.34
313.075
313.855
314.683
315.561
316.494
317.484
318.535
319.651
320.836
322.094
323.429
324.845
326.347
327.939
329.625
331.408
333.292
335.28
337.374
339.574
341.879
344.287
346.792
349.387
352.06
354.797
357.578
360.384
363.19
300.024
300.073
300.124
300.177
300.234
300.293
300.355
300.421
300.491
300.564
300.642
300.724
300.811
300.903
301
301.103
301.211
301.326
301.447
301.574
301.709
301.85
302
302.157
302.323
302.497
302.68
302.873
303.076
303.289
303.514
303.75
303.998
304.259
304.533
304.822
305.126
305.446
305.783
306.138
306.513
306.908
307.324
307.764
308.228
308.719
309.237
309.785
310.365
310.979
311.628
312.316
313.045
313.817
314.635
315.502
316.421
317.396
318.428
319.523
320.682
321.911
323.211
324.586
326.041
327.577
329.198
330.906
332.703
334.59
336.566
338.632
340.785
343.019
345.33
347.707
350.142
352.62
355.126
357.644
360.155
300.024
300.073
300.124
300.177
300.234
300.293
300.355
300.421
300.49
300.564
300.642
300.724
300.811
300.903
301
301.103
301.211
301.326
301.447
301.575
301.709
301.851
302.001
302.158
302.324
302.499
302.682
302.876
303.079
303.292
303.517
303.753
304.001
304.263
304.537
304.826
305.13
305.45
305.787
306.142
306.516
306.91
307.326
307.764
308.227
308.715
309.231
309.776
310.352
310.961
311.605
312.286
313.006
313.769
314.576
315.429
316.333
317.289
318.3
319.369
320.499
321.693
322.954
324.283
325.684
327.158
328.708
330.334
332.037
333.818
335.673
337.602
339.601
341.665
343.786
345.958
348.17
350.412
352.67
354.931
357.181
300.024
300.073
300.124
300.177
300.233
300.292
300.355
300.421
300.49
300.564
300.641
300.723
300.81
300.902
301
301.102
301.211
301.326
301.447
301.575
301.71
301.852
302.002
302.16
302.326
302.501
302.685
302.878
303.082
303.296
303.521
303.757
304.006
304.267
304.542
304.831
305.135
305.455
305.792
306.146
306.52
306.913
307.327
307.764
308.224
308.71
309.223
309.764
310.335
310.938
311.575
312.248
312.959
313.71
314.504
315.342
316.227
317.162
318.148
319.188
320.285
321.44
322.656
323.934
325.277
326.684
328.158
329.697
331.303
332.973
334.705
336.497
338.345
340.243
342.185
344.164
346.171
348.196
350.23
352.262
354.281
300.024
300.073
300.123
300.177
300.233
300.292
300.354
300.42
300.49
300.563
300.641
300.723
300.81
300.902
300.999
301.102
301.211
301.326
301.447
301.576
301.711
301.853
302.003
302.161
302.328
302.503
302.687
302.881
303.085
303.299
303.525
303.762
304.01
304.272
304.547
304.836
305.14
305.46
305.796
306.15
306.523
306.915
307.327
307.762
308.22
308.703
309.212
309.748
310.313
310.91
311.539
312.202
312.902
313.64
314.418
315.238
316.102
317.012
317.971
318.979
320.038
321.151
322.318
323.541
324.821
326.157
327.551
329.001
330.506
332.065
333.675
335.333
337.034
338.774
340.547
342.346
344.165
345.994
347.827
349.654
351.467
300.024
300.072
300.123
300.177
300.233
300.292
300.354
300.42
300.489
300.562
300.64
300.722
300.809
300.902
300.999
301.102
301.211
301.326
301.448
301.576
301.711
301.854
302.005
302.163
302.33
302.505
302.69
302.884
303.089
303.303
303.529
303.766
304.015
304.277
304.552
304.842
305.146
305.465
305.801
306.154
306.525
306.916
307.326
307.759
308.214
308.692
309.197
309.727
310.286
310.875
311.494
312.147
312.833
313.556
314.317
315.116
315.957
316.84
317.767
318.74
319.759
320.826
321.941
323.105
324.319
325.582
326.893
328.252
329.657
331.106
332.596
334.124
335.686
337.277
338.892
340.526
342.171
343.823
345.475
347.119
348.748
300.024
300.072
300.123
300.176
300.232
300.291
300.353
300.419
300.488
300.562
300.639
300.722
300.809
300.901
300.998
301.102
301.211
301.326
301.448
301.576
301.712
301.855
302.006
302.165
302.332
302.508
302.693
302.888
303.093
303.308
303.534
303.771
304.021
304.283
304.558
304.847
305.151
305.47
305.805
306.157
306.526
306.915
307.324
307.753
308.204
308.679
309.177
309.702
310.253
310.832
311.441
312.081
312.753
313.458
314.199
314.976
315.791
316.644
317.538
318.472
319.448
320.466
321.527
322.63
323.776
324.964
326.192
327.461
328.766
330.108
331.482
332.886
334.316
335.768
337.237
338.718
340.208
341.699
343.188
344.668
346.135
300.024
300.072
300.123
300.176
300.232
300.29
300.352
300.418
300.487
300.561
300.638
300.721
300.808
300.9
300.998
301.101
301.21
301.326
301.448
301.577
301.713
301.856
302.007
302.166
302.334
302.51
302.696
302.891
303.096
303.312
303.538
303.776
304.026
304.288
304.563
304.852
305.155
305.474
305.808
306.158
306.526
306.913
307.318
307.744
308.191
308.66
309.153
309.669
310.212
310.781
311.377
312.003
312.658
313.345
314.064
314.817
315.603
316.425
317.283
318.176
319.107
320.074
321.079
322.12
323.197
324.31
325.456
326.635
327.845
329.083
330.347
331.633
332.94
334.263
335.597
336.94
338.288
339.635
340.977
342.311
343.632
300.024
300.072
300.122
300.175
300.231
300.29
300.352
300.417
300.486
300.56
300.637
300.719
300.807
300.899
300.997
301.1
301.209
301.325
301.447
301.577
301.713
301.857
302.008
302.168
302.336
302.513
302.699
302.894
303.1
303.316
303.543
303.781
304.031
304.293
304.568
304.856
305.159
305.477
305.809
306.158
306.524
306.908
307.31
307.732
308.174
308.637
309.122
309.63
310.163
310.72
311.303
311.913
312.551
313.217
313.913
314.639
315.395
316.183
317.003
317.855
318.738
319.654
320.601
321.58
322.589
323.627
324.693
325.786
326.903
328.042
329.202
330.38
331.571
332.775
333.987
335.204
336.423
337.64
338.852
340.055
341.247
300.023
300.072
300.122
300.175
300.23
300.289
300.35
300.416
300.485
300.558
300.636
300.718
300.805
300.897
300.995
301.099
301.208
301.324
301.447
301.576
301.713
301.857
302.009
302.169
302.337
302.515
302.701
302.897
303.103
303.319
303.546
303.785
304.035
304.297
304.572
304.86
305.162
305.478
305.809
306.156
306.52
306.9
307.298
307.715
308.151
308.607
309.084
309.583
310.104
310.649
311.217
311.81
312.428
313.073
313.744
314.441
315.167
315.92
316.7
317.509
318.345
319.209
320.099
321.016
321.958
322.923
323.912
324.922
325.951
326.998
328.061
329.136
330.223
331.318
332.418
333.521
334.624
335.724
336.819
337.905
338.981
300.023
300.071
300.121
300.174
300.229
300.287
300.349
300.414
300.483
300.556
300.634
300.716
300.803
300.895
300.993
301.097
301.207
301.323
301.445
301.575
301.712
301.856
302.009
302.169
302.338
302.516
302.703
302.899
303.106
303.322
303.549
303.788
304.038
304.3
304.574
304.861
305.162
305.477
305.806
306.151
306.511
306.888
307.282
307.693
308.122
308.571
309.039
309.527
310.036
310.567
311.119
311.694
312.292
312.913
313.558
314.226
314.919
315.636
316.378
317.143
317.931
318.743
319.578
320.434
321.31
322.207
323.121
324.053
325
325.96
326.933
327.915
328.905
329.9
330.899
331.899
332.898
333.893
334.883
335.865
336.838
300.023
300.071
300.121
300.173
300.228
300.286
300.347
300.412
300.481
300.554
300.631
300.713
300.8
300.893
300.991
301.094
301.204
301.32
301.443
301.573
301.711
301.855
302.008
302.169
302.338
302.516
302.703
302.9
303.107
303.324
303.551
303.789
304.039
304.3
304.574
304.86
305.16
305.473
305.8
306.142
306.498
306.871
307.259
307.664
308.087
308.527
308.985
309.462
309.958
310.473
311.008
311.564
312.14
312.737
313.355
313.994
314.654
315.335
316.037
316.759
317.501
318.262
319.042
319.839
320.654
321.484
322.329
323.187
324.057
324.938
325.827
326.723
327.625
328.53
329.437
330.344
331.249
332.151
333.047
333.936
334.817
300.023
300.07
300.12
300.172
300.227
300.284
300.345
300.41
300.479
300.551
300.628
300.71
300.797
300.89
300.987
301.091
301.201
301.317
301.44
301.571
301.708
301.853
302.006
302.167
302.337
302.515
302.703
302.9
303.106
303.323
303.55
303.788
304.038
304.298
304.571
304.856
305.154
305.465
305.789
306.127
306.48
306.847
307.23
307.628
308.043
308.473
308.921
309.385
309.867
310.367
310.885
311.42
311.975
312.547
313.138
313.746
314.374
315.018
315.681
316.361
317.057
317.769
318.496
319.238
319.994
320.762
321.542
322.331
323.13
323.937
324.75
325.568
326.39
327.213
328.038
328.861
329.683
330.5
331.313
332.119
332.917
300.023
300.07
300.119
300.171
300.225
300.282
300.343
300.407
300.476
300.548
300.625
300.707
300.793
300.885
300.983
301.087
301.197
301.313
301.436
301.567
301.704
301.849
302.002
302.164
302.333
302.512
302.7
302.897
303.103
303.32
303.547
303.785
304.033
304.293
304.564
304.848
305.143
305.451
305.773
306.107
306.455
306.817
307.193
307.584
307.989
308.41
308.846
309.298
309.765
310.248
310.748
311.263
311.794
312.342
312.905
313.484
314.079
314.688
315.312
315.951
316.603
317.269
317.946
318.636
319.336
320.046
320.765
321.491
322.225
322.964
323.708
324.455
325.204
325.954
326.704
327.453
328.199
328.941
329.678
330.41
331.134
300.023
300.069
300.118
300.169
300.223
300.28
300.34
300.404
300.472
300.544
300.621
300.702
300.788
300.88
300.978
301.081
301.191
301.307
301.431
301.561
301.698
301.844
301.997
302.158
302.328
302.506
302.694
302.891
303.097
303.314
303.54
303.777
304.024
304.283
304.552
304.834
305.127
305.432
305.749
306.079
306.422
306.778
307.147
307.529
307.926
308.336
308.76
309.198
309.65
310.116
310.597
311.092
311.6
312.123
312.659
313.208
313.771
314.346
314.933
315.533
316.143
316.764
317.395
318.035
318.684
319.34
320.003
320.671
321.345
322.022
322.703
323.386
324.07
324.753
325.436
326.118
326.796
327.471
328.141
328.806
329.464
300.022
300.068
300.117
300.167
300.221
300.277
300.337
300.4
300.467
300.539
300.615
300.696
300.782
300.874
300.971
301.074
301.184
301.3
301.423
301.553
301.69
301.835
301.988
302.15
302.319
302.497
302.685
302.881
303.087
303.303
303.528
303.764
304.01
304.266
304.534
304.813
305.102
305.404
305.717
306.042
306.379
306.728
307.089
307.463
307.849
308.248
308.66
309.084
309.521
309.97
310.431
310.905
311.391
311.889
312.399
312.919
313.451
313.993
314.545
315.107
315.678
316.257
316.844
317.439
318.039
318.646
319.257
319.873
320.492
321.113
321.737
322.361
322.986
323.61
324.233
324.854
325.472
326.086
326.696
327.301
327.901
300.022
300.067
300.115
300.165
300.218
300.274
300.333
300.395
300.462
300.533
300.609
300.689
300.775
300.866
300.962
301.065
301.174
301.29
301.413
301.542
301.679
301.824
301.977
302.137
302.307
302.484
302.671
302.866
303.071
303.286
303.51
303.744
303.988
304.243
304.507
304.783
305.069
305.366
305.674
305.994
306.324
306.666
307.019
307.383
307.759
308.146
308.545
308.955
309.376
309.807
310.25
310.703
311.167
311.641
312.124
312.617
313.119
313.63
314.149
314.675
315.209
315.749
316.295
316.847
317.404
317.964
318.529
319.096
319.665
320.236
320.808
321.38
321.952
322.523
323.091
323.658
324.221
324.781
325.337
325.889
326.435
300.022
300.066
300.113
300.162
300.214
300.269
300.328
300.39
300.456
300.526
300.601
300.681
300.765
300.856
300.952
301.054
301.163
301.278
301.4
301.529
301.665
301.809
301.961
302.121
302.289
302.466
302.651
302.846
303.049
303.262
303.484
303.716
303.958
304.209
304.471
304.743
305.025
305.317
305.619
305.932
306.256
306.589
306.934
307.288
307.653
308.028
308.413
308.808
309.213
309.628
310.051
310.484
310.926
311.376
311.835
312.301
312.775
313.255
313.742
314.236
314.734
315.238
315.747
316.259
316.775
317.294
317.816
318.339
318.863
319.388
319.913
320.438
320.962
321.484
322.004
322.522
323.036
323.548
324.055
324.558
325.056
300.021
300.065
300.111
300.159
300.211
300.265
300.322
300.383
300.448
300.518
300.591
300.67
300.754
300.844
300.939
301.04
301.148
301.262
301.383
301.511
301.646
301.789
301.94
302.099
302.266
302.441
302.625
302.818
303.019
303.23
303.45
303.679
303.917
304.165
304.423
304.69
304.967
305.253
305.549
305.855
306.171
306.496
306.831
307.175
307.528
307.89
308.262
308.642
309.031
309.428
309.833
310.246
310.666
311.093
311.528
311.968
312.415
312.867
313.324
313.786
314.253
314.723
315.196
315.672
316.151
316.632
317.114
317.597
318.08
318.563
319.046
319.528
320.008
320.487
320.963
321.437
321.908
322.375
322.838
323.297
323.752
300.021
300.064
300.109
300.156
300.206
300.259
300.315
300.375
300.439
300.508
300.58
300.658
300.741
300.829
300.923
301.023
301.129
301.242
301.362
301.489
301.623
301.764
301.913
302.07
302.235
302.409
302.59
302.781
302.979
303.187
303.404
303.629
303.864
304.107
304.36
304.622
304.893
305.173
305.462
305.76
306.067
306.383
306.707
307.04
307.381
307.73
308.088
308.453
308.825
309.205
309.591
309.984
310.383
310.788
311.199
311.615
312.036
312.461
312.89
313.323
313.759
314.197
314.638
315.081
315.525
315.971
316.417
316.863
317.309
317.754
318.198
318.641
319.082
319.521
319.958
320.392
320.823
321.25
321.674
322.093
322.509
300.02
300.062
300.106
300.152
300.201
300.253
300.308
300.366
300.429
300.496
300.567
300.643
300.725
300.812
300.904
301.002
301.107
301.218
301.336
301.461
301.593
301.732
301.879
302.034
302.197
302.367
302.546
302.733
302.929
303.132
303.345
303.566
303.796
304.034
304.281
304.537
304.801
305.073
305.354
305.643
305.941
306.246
306.56
306.88
307.209
307.544
307.887
308.236
308.592
308.954
309.322
309.695
310.074
310.457
310.845
311.237
311.633
312.032
312.435
312.839
313.247
313.656
314.066
314.478
314.89
315.303
315.715
316.128
316.539
316.95
317.359
317.766
318.171
318.575
318.975
319.372
319.767
320.158
320.545
320.929
321.308
300.02
300.06
300.103
300.147
300.195
300.245
300.299
300.356
300.417
300.482
300.552
300.626
300.706
300.791
300.881
300.978
301.08
301.189
301.305
301.427
301.557
301.694
301.838
301.989
302.148
302.316
302.491
302.674
302.865
303.064
303.271
303.487
303.711
303.943
304.183
304.431
304.687
304.951
305.223
305.502
305.789
306.083
306.385
306.693
307.008
307.329
307.656
307.989
308.328
308.672
309.021
309.374
309.732
310.094
310.459
310.828
311.2
311.574
311.95
312.329
312.708
313.089
313.471
313.853
314.235
314.617
314.999
315.38
315.759
316.138
316.514
316.889
317.261
317.631
317.998
318.362
318.723
319.081
319.435
319.785
320.132
300.019
300.058
300.099
300.142
300.188
300.237
300.289
300.344
300.403
300.466
300.534
300.607
300.684
300.767
300.855
300.949
301.049
301.155
301.268
301.387
301.513
301.647
301.787
301.935
302.09
302.253
302.423
302.601
302.786
302.98
303.181
303.39
303.607
303.831
304.063
304.303
304.55
304.804
305.065
305.334
305.609
305.891
306.179
306.473
306.773
307.079
307.39
307.706
308.027
308.352
308.682
309.015
309.352
309.692
310.035
310.381
310.728
311.078
311.429
311.781
312.135
312.488
312.843
313.197
313.55
313.903
314.255
314.606
314.956
315.304
315.649
315.993
316.334
316.673
317.009
317.342
317.672
317.999
318.322
318.641
318.957
300.018
300.056
300.095
300.136
300.18
300.227
300.277
300.33
300.388
300.449
300.514
300.584
300.659
300.739
300.824
300.915
301.012
301.115
301.224
301.34
301.462
301.591
301.727
301.87
302.02
302.177
302.342
302.513
302.693
302.879
303.073
303.274
303.482
303.698
303.92
304.15
304.386
304.629
304.879
305.135
305.397
305.665
305.938
306.217
306.502
306.791
307.084
307.382
307.685
307.991
308.3
308.613
308.928
309.246
309.566
309.888
310.212
310.537
310.863
311.189
311.516
311.843
312.17
312.497
312.822
313.147
313.471
313.793
314.113
314.432
314.749
315.063
315.375
315.684
315.99
316.294
316.594
316.891
317.185
317.476
317.762
300.017
300.053
300.09
300.13
300.172
300.217
300.264
300.315
300.37
300.429
300.491
300.559
300.63
300.707
300.789
300.877
300.97
301.069
301.174
301.285
301.402
301.526
301.657
301.794
301.938
302.089
302.246
302.411
302.582
302.761
302.946
303.137
303.336
303.541
303.753
303.971
304.195
304.426
304.662
304.904
305.151
305.404
305.661
305.923
306.19
306.461
306.737
307.015
307.297
307.583
307.871
308.162
308.454
308.749
309.046
309.344
309.643
309.943
310.243
310.543
310.844
311.144
311.444
311.743
312.041
312.338
312.634
312.927
313.219
313.509
313.797
314.083
314.366
314.647
314.924
315.199
315.471
315.74
316.005
316.268
316.527
300.016
300.05
300.086
300.123
300.163
300.205
300.251
300.299
300.351
300.407
300.467
300.531
300.599
300.672
300.751
300.834
300.923
301.017
301.117
301.223
301.335
301.453
301.577
301.708
301.845
301.988
302.137
302.293
302.456
302.625
302.8
302.981
303.168
303.362
303.561
303.766
303.976
304.192
304.414
304.64
304.871
305.107
305.347
305.591
305.839
306.09
306.345
306.603
306.864
307.127
307.393
307.66
307.93
308.2
308.472
308.745
309.018
309.292
309.566
309.84
310.113
310.386
310.658
310.93
311.2
311.468
311.735
312.001
312.264
312.526
312.785
313.042
313.297
313.549
313.798
314.045
314.289
314.53
314.768
315.003
315.234
300.015
300.047
300.08
300.116
300.153
300.193
300.236
300.282
300.331
300.383
300.44
300.5
300.565
300.634
300.708
300.787
300.871
300.96
301.055
301.155
301.261
301.372
301.489
301.612
301.741
301.876
302.016
302.163
302.315
302.473
302.636
302.806
302.981
303.161
303.346
303.537
303.732
303.932
304.137
304.346
304.56
304.777
304.998
305.222
305.449
305.68
305.913
306.149
306.387
306.627
306.868
307.111
307.355
307.601
307.847
308.093
308.34
308.587
308.833
309.079
309.325
309.57
309.813
310.056
310.297
310.537
310.775
311.012
311.247
311.479
311.71
311.938
312.164
312.387
312.608
312.827
313.043
313.256
313.466
313.674
313.878
300.014
300.044
300.075
300.108
300.143
300.181
300.221
300.263
300.309
300.359
300.412
300.469
300.529
300.595
300.664
300.738
300.817
300.9
300.989
301.082
301.181
301.285
301.395
301.509
301.629
301.755
301.885
302.021
302.162
302.309
302.46
302.617
302.778
302.944
303.114
303.289
303.468
303.651
303.838
304.029
304.223
304.421
304.621
304.825
305.03
305.239
305.449
305.661
305.875
306.09
306.306
306.524
306.742
306.96
307.179
307.398
307.617
307.835
308.054
308.271
308.488
308.704
308.918
309.132
309.344
309.554
309.763
309.97
310.176
310.379
310.58
310.78
310.977
311.171
311.364
311.554
311.742
311.927
312.109
312.289
312.467
300.013
300.041
300.07
300.1
300.133
300.168
300.205
300.245
300.288
300.334
300.384
300.437
300.493
300.554
300.619
300.688
300.761
300.839
300.921
301.008
301.1
301.196
301.298
301.404
301.514
301.63
301.75
301.875
302.005
302.139
302.277
302.42
302.567
302.718
302.873
303.032
303.194
303.36
303.528
303.7
303.875
304.052
304.231
304.413
304.596
304.781
304.968
305.155
305.344
305.534
305.725
305.915
306.107
306.298
306.489
306.681
306.871
307.061
307.251
307.44
307.627
307.814
307.999
308.184
308.366
308.547
308.727
308.905
309.081
309.255
309.427
309.597
309.766
309.932
310.096
310.258
310.417
310.575
310.73
310.883
311.033
300.012
300.038
300.065
300.093
300.124
300.156
300.191
300.228
300.268
300.311
300.357
300.406
300.459
300.515
300.575
300.639
300.707
300.779
300.856
300.936
301.021
301.11
301.203
301.3
301.402
301.508
301.618
301.732
301.85
301.972
302.098
302.228
302.361
302.497
302.637
302.779
302.925
303.073
303.224
303.377
303.532
303.688
303.847
304.007
304.168
304.331
304.494
304.658
304.823
304.988
305.153
305.318
305.484
305.649
305.813
305.978
306.141
306.304
306.466
306.627
306.786
306.945
307.102
307.258
307.412
307.565
307.716
307.866
308.014
308.16
308.304
308.447
308.587
308.726
308.863
308.998
309.13
309.261
309.39
309.517
309.641
300.012
300.035
300.06
300.087
300.115
300.145
300.178
300.213
300.25
300.29
300.333
300.379
300.428
300.481
300.537
300.596
300.659
300.726
300.797
300.871
300.95
301.032
301.118
301.207
301.301
301.398
301.499
301.603
301.711
301.822
301.937
302.054
302.174
302.297
302.423
302.551
302.681
302.813
302.948
303.083
303.22
303.359
303.499
303.639
303.78
303.922
304.065
304.207
304.35
304.493
304.636
304.778
304.92
305.061
305.202
305.342
305.481
305.619
305.756
305.892
306.027
306.16
306.292
306.423
306.552
306.68
306.806
306.93
307.053
307.174
307.293
307.411
307.527
307.641
307.753
307.863
307.972
308.079
308.184
308.287
308.389
300.011
300.033
300.057
300.082
300.109
300.137
300.168
300.201
300.236
300.274
300.314
300.358
300.404
300.454
300.506
300.562
300.622
300.685
300.751
300.821
300.894
300.971
301.051
301.135
301.222
301.312
301.405
301.502
301.602
301.704
301.809
301.917
302.027
302.14
302.254
302.371
302.489
302.608
302.729
302.852
302.975
303.099
303.223
303.349
303.474
303.6
303.726
303.852
303.978
304.103
304.228
304.352
304.476
304.599
304.721
304.842
304.962
305.08
305.198
305.314
305.429
305.543
305.655
305.766
305.875
305.983
306.089
306.194
306.297
306.398
306.498
306.596
306.693
306.787
306.881
306.972
307.062
307.15
307.236
307.321
307.405
300.011
300.032
300.055
300.079
300.105
300.133
300.162
300.194
300.228
300.265
300.304
300.346
300.39
300.438
300.489
300.543
300.6
300.661
300.725
300.792
300.862
300.936
301.013
301.093
301.176
301.262
301.352
301.444
301.539
301.636
301.736
301.839
301.943
302.049
302.157
302.267
302.378
302.49
302.604
302.718
302.833
302.949
303.065
303.182
303.298
303.415
303.531
303.647
303.763
303.878
303.993
304.107
304.22
304.332
304.444
304.554
304.663
304.771
304.877
304.982
305.086
305.188
305.289
305.389
305.487
305.583
305.678
305.771
305.863
305.953
306.041
306.128
306.213
306.297
306.379
306.459
306.538
306.615
306.691
306.765
306.838
396.667
404.756
411.546
417.446
422.659
427.294
431.411
435.044
438.206
440.898
443.106
444.809
445.97
446.541
446.457
445.627
443.925
441.158
437
430.799
420.919
414.056
408.665
404.143
400.2
396.674
393.462
390.495
387.725
385.116
382.64
380.277
378.009
375.824
373.709
371.657
369.659
367.71
365.803
363.935
362.1
360.297
358.521
356.772
355.048
353.347
351.669
350.015
348.385
346.779
345.198
343.644
342.118
340.621
339.155
337.721
336.321
334.956
333.627
332.336
331.083
329.869
328.695
327.56
326.466
325.412
324.398
323.423
322.487
321.589
320.727
319.902
319.112
318.356
317.633
316.94
316.277
315.643
315.037
314.456
313.899
313.366
312.854
312.363
311.892
311.44
311.004
310.585
310.182
309.793
309.418
309.055
308.705
308.367
308.04
307.724
307.417
307.12
306.832
306.553
306.283
306.021
305.766
305.52
305.281
305.049
304.824
304.606
304.394
304.19
303.991
303.799
303.614
303.434
303.26
303.093
302.931
302.775
302.624
302.479
302.34
302.206
302.077
301.953
301.835
301.721
301.613
301.509
301.411
301.316
301.227
301.142
301.061
300.984
300.912
300.843
300.778
300.717
300.66
300.606
300.556
300.509
300.464
300.423
300.385
300.349
300.316
300.286
300.258
300.232
300.208
300.186
300.166
300.148
300.131
300.116
300.103
300.09
300.079
300.069
300.061
391.907
398.961
405.288
410.95
416.026
420.576
424.641
428.241
431.385
434.068
436.278
437.991
439.171
439.772
439.732
438.969
437.373
434.792
431.013
425.775
419.042
413.146
408.131
403.79
399.948
396.485
393.315
390.378
387.63
385.038
382.575
380.222
377.962
375.783
373.674
371.626
369.632
367.686
365.782
363.915
362.083
360.281
358.506
356.758
355.034
353.334
351.657
350.003
348.373
346.767
345.187
343.632
342.106
340.609
339.143
337.709
336.309
334.944
333.616
332.325
331.072
329.858
328.684
327.55
326.457
325.403
324.389
323.414
322.479
321.581
320.72
319.896
319.106
318.35
317.627
316.935
316.273
315.639
315.033
314.452
313.896
313.363
312.851
312.361
311.89
311.438
311.002
310.584
310.18
309.791
309.416
309.054
308.705
308.367
308.039
307.723
307.417
307.12
306.832
306.553
306.283
306.021
305.766
305.52
305.28
305.049
304.824
304.606
304.394
304.19
303.991
303.799
303.614
303.434
303.26
303.093
302.931
302.775
302.624
302.479
302.34
302.206
302.077
301.953
301.835
301.722
301.613
301.509
301.411
301.316
301.227
301.142
301.061
300.984
300.912
300.843
300.778
300.718
300.66
300.606
300.556
300.509
300.464
300.423
300.385
300.349
300.316
300.286
300.258
300.232
300.208
300.186
300.166
300.148
300.131
300.116
300.103
300.09
300.079
300.069
300.061
387.788
393.85
399.552
404.818
409.637
414.015
417.963
421.486
424.581
427.24
429.444
431.17
432.384
433.041
433.089
432.457
431.063
428.807
425.589
421.372
416.38
411.515
407.067
403.05
399.409
396.076
392.997
390.125
387.425
384.868
382.433
380.102
377.86
375.695
373.598
371.559
369.573
367.634
365.735
363.874
362.045
360.246
358.475
356.728
355.006
353.307
351.631
349.978
348.348
346.743
345.162
343.609
342.082
340.586
339.12
337.686
336.286
334.922
333.593
332.303
331.05
329.837
328.664
327.531
326.438
325.385
324.372
323.398
322.464
321.567
320.707
319.883
319.095
318.34