/*--------------------------------*- C++ -*----------------------------------*\
  =========                 |
  \\      /  F ield         | OpenFOAM: The Open Source CFD Toolbox
   \\    /   O peration     | Website:  https://openfoam.org
    \\  /    A nd           | Version:  7
     \\/     M anipulation  |
\*---------------------------------------------------------------------------*/
FoamFile
{
    version     2.0;
    format      ascii;
    class       volScalarField;
    location    "5.7";
    object      T;
}
// * * * * * * * * * * * * * * * * * * * * * * * * * * * * * * * * * * * * * //

dimensions      [0 0 0 1 0 0 0];

internalField   nonuniform List<scalar> 
12013
(
300.09
300.272
300.459
300.649
300.841
301.033
301.225
301.415
301.602
301.787
301.968
302.144
302.316
302.484
302.647
302.804
302.957
303.105
303.247
303.386
303.519
303.649
303.775
303.897
304.015
304.131
304.244
304.355
304.464
304.572
304.68
304.787
304.895
305.004
305.115
305.229
305.347
305.47
305.599
305.735
305.879
306.033
306.199
306.378
306.573
306.784
307.015
307.268
307.545
307.85
308.185
308.555
308.962
309.41
309.904
310.448
311.048
311.708
312.435
313.234
314.113
315.079
316.139
317.303
318.58
319.981
321.517
323.203
325.051
327.08
329.309
331.76
334.459
337.44
340.741
344.414
348.526
353.174
358.502
364.751
372.383
300.09
300.272
300.46
300.65
300.842
301.034
301.225
301.416
301.603
301.788
301.969
302.145
302.318
302.485
302.648
302.806
302.958
303.106
303.249
303.387
303.521
303.651
303.776
303.898
304.017
304.133
304.246
304.357
304.466
304.574
304.681
304.789
304.897
305.006
305.117
305.231
305.349
305.472
305.601
305.736
305.881
306.035
306.201
306.379
306.574
306.785
307.016
307.268
307.545
307.85
308.185
308.554
308.96
309.408
309.902
310.445
311.044
311.704
312.429
313.227
314.104
315.068
316.126
317.287
318.561
319.958
321.49
323.17
325.011
327.032
329.249
331.685
334.365
337.32
340.586
344.209
348.247
352.775
357.892
363.72
370.369
300.09
300.273
300.46
300.65
300.843
301.035
301.227
301.417
301.605
301.79
301.971
302.148
302.32
302.488
302.651
302.809
302.962
303.11
303.253
303.391
303.525
303.655
303.78
303.903
304.021
304.137
304.25
304.361
304.47
304.578
304.686
304.793
304.901
305.01
305.121
305.235
305.353
305.476
305.604
305.74
305.884
306.038
306.203
306.382
306.576
306.787
307.017
307.269
307.546
307.85
308.184
308.552
308.958
309.404
309.897
310.439
311.036
311.693
312.416
313.211
314.085
315.045
316.098
317.253
318.52
319.909
321.431
323.098
324.924
326.924
329.117
331.522
334.161
337.062
340.254
343.775
347.665
351.971
356.739
361.994
367.696
300.09
300.273
300.461
300.652
300.844
301.037
301.229
301.42
301.608
301.793
301.975
302.152
302.325
302.493
302.656
302.814
302.967
303.116
303.259
303.398
303.532
303.661
303.787
303.909
304.028
304.144
304.257
304.368
304.477
304.585
304.693
304.8
304.908
305.017
305.128
305.242
305.359
305.482
305.61
305.745
305.889
306.043
306.208
306.386
306.579
306.79
307.019
307.271
307.546
307.849
308.182
308.549
308.953
309.398
309.888
310.428
311.022
311.676
312.395
313.185
314.053
315.006
316.052
317.198
318.453
319.828
321.333
322.979
324.78
326.749
328.903
331.258
333.833
336.65
339.733
343.104
346.789
350.808
355.167
359.847
364.775
300.09
300.274
300.462
300.654
300.846
301.04
301.233
301.424
301.613
301.799
301.981
302.158
302.332
302.5
302.664
302.822
302.976
303.124
303.268
303.407
303.541
303.671
303.797
303.92
304.038
304.154
304.268
304.379
304.488
304.596
304.703
304.81
304.918
305.027
305.138
305.251
305.369
305.491
305.619
305.754
305.897
306.05
306.215
306.392
306.585
306.794
307.023
307.273
307.547
307.849
308.18
308.545
308.946
309.389
309.875
310.411
311.001
311.65
312.363
313.147
314.007
314.95
315.984
317.116
318.355
319.71
321.191
322.808
324.573
326.499
328.597
330.884
333.372
336.079
339.019
342.205
345.648
349.348
353.293
357.448
361.747
300.091
300.275
300.464
300.656
300.85
301.044
301.238
301.43
301.619
301.806
301.988
302.167
302.341
302.51
302.674
302.833
302.988
303.136
303.281
303.42
303.554
303.685
303.811
303.934
304.053
304.169
304.282
304.393
304.502
304.61
304.718
304.825
304.932
305.041
305.151
305.265
305.382
305.503
305.631
305.765
305.908
306.06
306.224
306.401
306.592
306.8
307.028
307.276
307.549
307.848
308.177
308.539
308.937
309.376
309.858
310.389
310.973
311.615
312.32
313.094
313.943
314.873
315.892
317.005
318.222
319.551
321
322.579
324.297
326.165
328.194
330.394
332.775
335.349
338.121
341.099
344.279
347.655
351.206
354.896
358.672
300.091
300.276
300.466
300.659
300.854
301.049
301.244
301.437
301.628
301.815
301.999
302.178
302.353
302.523
302.688
302.848
303.003
303.153
303.297
303.437
303.572
303.703
303.83
303.952
304.072
304.188
304.301
304.412
304.522
304.63
304.737
304.844
304.951
305.059
305.17
305.283
305.399
305.52
305.647
305.781
305.923
306.074
306.237
306.412
306.602
306.809
307.034
307.281
307.551
307.847
308.173
308.532
308.926
309.359
309.836
310.361
310.937
311.57
312.265
313.026
313.861
314.774
315.772
316.862
318.051
319.346
320.755
322.286
323.946
325.745
327.689
329.787
332.045
334.467
337.056
339.812
342.727
345.788
348.973
352.252
355.585
300.092
300.278
300.469
300.664
300.86
301.056
301.252
301.447
301.639
301.827
302.012
302.193
302.369
302.54
302.706
302.867
303.023
303.173
303.319
303.459
303.595
303.726
303.853
303.976
304.096
304.213
304.326
304.437
304.547
304.655
304.762
304.868
304.975
305.083
305.193
305.306
305.422
305.542
305.668
305.801
305.942
306.092
306.253
306.427
306.615
306.82
307.043
307.287
307.554
307.847
308.169
308.522
308.911
309.338
309.808
310.324
310.891
311.513
312.194
312.941
313.757
314.649
315.623
316.683
317.838
319.092
320.453
321.926
323.519
325.236
327.084
329.067
331.188
333.447
335.845
338.375
341.029
343.792
346.645
349.561
352.511
300.093
300.28
300.473
300.669
300.867
301.065
301.263
301.459
301.653
301.843
302.03
302.212
302.389
302.562
302.729
302.891
303.048
303.2
303.346
303.487
303.624
303.756
303.883
304.007
304.127
304.244
304.358
304.469
304.578
304.686
304.793
304.899
305.006
305.114
305.223
305.335
305.45
305.57
305.695
305.827
305.966
306.115
306.274
306.446
306.632
306.834
307.054
307.295
307.558
307.847
308.164
308.511
308.894
309.313
309.774
310.28
310.835
311.443
312.108
312.836
313.631
314.497
315.441
316.467
317.581
318.787
320.092
321.5
323.015
324.641
326.383
328.241
330.216
332.308
334.511
336.82
339.224
341.71
344.26
346.855
349.47
300.093
300.283
300.478
300.676
300.876
301.076
301.276
301.474
301.67
301.862
302.051
302.235
302.415
302.589
302.758
302.922
303.08
303.233
303.38
303.522
303.66
303.793
303.921
304.045
304.166
304.283
304.397
304.508
304.618
304.726
304.832
304.938
305.045
305.152
305.261
305.372
305.486
305.605
305.728
305.859
305.997
306.143
306.301
306.47
306.654
306.853
307.069
307.306
307.564
307.848
308.158
308.499
308.873
309.284
309.734
310.227
310.768
311.359
312.006
312.711
313.48
314.317
315.226
316.212
317.279
318.431
319.673
321.007
322.437
323.965
325.593
327.321
329.147
331.068
333.08
335.176
337.345
339.575
341.852
344.159
346.48
300.095
300.287
300.484
300.684
300.887
301.09
301.292
301.493
301.691
301.886
302.077
302.264
302.446
302.622
302.793
302.959
303.119
303.273
303.422
303.566
303.704
303.838
303.967
304.092
304.214
304.331
304.446
304.557
304.667
304.774
304.881
304.987
305.093
305.199
305.307
305.417
305.53
305.648
305.77
305.899
306.035
306.179
306.334
306.501
306.681
306.876
307.088
307.32
307.573
307.85
308.153
308.486
308.85
309.25
309.688
310.166
310.69
311.262
311.887
312.567
313.306
314.109
314.979
315.919
316.934
318.026
319.198
320.453
321.792
323.217
324.726
326.321
327.997
329.751
331.578
333.471
335.42
337.416
339.446
341.498
343.558
300.096
300.291
300.491
300.694
300.9
301.106
301.312
301.516
301.717
301.915
302.109
302.299
302.483
302.662
302.836
303.004
303.166
303.322
303.473
303.618
303.759
303.894
304.024
304.15
304.272
304.39
304.505
304.617
304.726
304.834
304.94
305.046
305.151
305.257
305.364
305.473
305.585
305.701
305.821
305.948
306.082
306.224
306.375
306.539
306.715
306.906
307.113
307.339
307.586
307.855
308.15
308.473
308.826
309.213
309.636
310.098
310.603
311.153
311.752
312.403
313.109
313.874
314.7
315.59
316.548
317.575
318.673
319.844
321.088
322.406
323.796
325.257
326.786
328.379
330.03
331.732
333.479
335.261
337.069
338.892
340.72
300.098
300.296
300.5
300.707
300.916
301.126
301.335
301.543
301.749
301.95
302.148
302.341
302.529
302.711
302.888
303.058
303.223
303.382
303.535
303.682
303.824
303.961
304.093
304.22
304.342
304.461
304.577
304.689
304.799
304.906
305.012
305.117
305.222
305.327
305.433
305.541
305.651
305.765
305.884
306.008
306.139
306.278
306.427
306.586
306.758
306.943
307.145
307.364
307.603
307.864
308.149
308.461
308.802
309.174
309.58
310.023
310.506
311.032
311.603
312.221
312.891
313.614
314.393
315.23
316.126
317.085
318.106
319.19
320.338
321.548
322.819
324.15
325.536
326.974
328.459
329.985
331.545
333.133
334.74
336.359
337.98
300.1
300.302
300.51
300.722
300.935
301.15
301.364
301.576
301.786
301.993
302.195
302.392
302.584
302.77
302.95
303.124
303.292
303.454
303.609
303.759
303.903
304.042
304.175
304.303
304.427
304.547
304.663
304.776
304.886
304.994
305.099
305.204
305.308
305.412
305.517
305.623
305.732
305.844
305.96
306.082
306.21
306.345
306.49
306.644
306.811
306.991
307.186
307.397
307.628
307.879
308.153
308.452
308.779
309.135
309.522
309.945
310.404
310.902
311.442
312.026
312.656
313.334
314.063
314.843
315.676
316.564
317.506
318.502
319.553
320.657
321.812
323.016
324.267
325.559
326.889
328.252
329.642
331.054
332.481
333.916
335.353
300.102
300.31
300.523
300.739
300.958
301.178
301.398
301.616
301.831
302.043
302.25
302.453
302.649
302.84
303.024
303.203
303.374
303.539
303.698
303.851
303.997
304.138
304.274
304.404
304.529
304.65
304.767
304.88
304.991
305.098
305.204
305.308
305.411
305.514
305.618
305.722
305.829
305.939
306.052
306.171
306.295
306.427
306.567
306.716
306.877
307.05
307.238
307.441
307.662
307.903
308.165
308.45
308.76
309.098
309.466
309.865
310.298
310.767
311.274
311.821
312.409
313.041
313.717
314.439
315.207
316.023
316.885
317.795
318.75
319.751
320.794
321.878
323
324.156
325.343
326.557
327.792
329.044
330.309
331.58
332.853
300.105
300.318
300.537
300.76
300.986
301.213
301.439
301.663
301.885
302.103
302.317
302.525
302.727
302.923
303.113
303.296
303.472
303.641
303.804
303.96
304.11
304.253
304.391
304.523
304.651
304.773
304.891
305.005
305.115
305.223
305.329
305.432
305.534
305.636
305.738
305.841
305.946
306.053
306.164
306.279
306.399
306.526
306.661
306.805
306.96
307.126
307.305
307.499
307.709
307.938
308.186
308.456
308.75
309.069
309.414
309.789
310.195
310.633
311.105
311.613
312.158
312.741
313.364
314.026
314.729
315.473
316.258
317.082
317.945
318.846
319.783
320.754
321.756
322.787
323.842
324.919
326.014
327.123
328.241
329.366
330.492
300.108
300.329
300.555
300.785
301.019
301.253
301.487
301.719
301.949
302.174
302.395
302.61
302.819
303.022
303.218
303.406
303.588
303.762
303.929
304.09
304.243
304.39
304.531
304.665
304.794
304.918
305.038
305.153
305.264
305.372
305.477
305.58
305.681
305.782
305.882
305.983
306.085
306.19
306.297
306.408
306.525
306.647
306.776
306.914
307.061
307.22
307.39
307.574
307.773
307.989
308.223
308.477
308.752
309.05
309.373
309.722
310.099
310.505
310.941
311.409
311.91
312.445
313.014
313.617
314.256
314.93
315.638
316.381
317.156
317.963
318.8
319.665
320.556
321.47
322.406
323.359
324.327
325.306
326.294
327.288
328.283
300.112
300.341
300.576
300.815
301.057
301.301
301.544
301.785
302.024
302.258
302.487
302.711
302.928
303.138
303.341
303.537
303.725
303.905
304.077
304.242
304.4
304.551
304.695
304.833
304.964
305.09
305.211
305.327
305.439
305.547
305.652
305.755
305.855
305.954
306.053
306.152
306.252
306.353
306.457
306.564
306.676
306.793
306.916
307.047
307.187
307.337
307.497
307.671
307.858
308.06
308.279
308.516
308.772
309.049
309.348
309.671
310.018
310.391
310.791
311.22
311.676
312.162
312.678
313.224
313.801
314.407
315.042
315.707
316.399
317.118
317.862
318.629
319.418
320.227
321.053
321.894
322.748
323.611
324.482
325.358
326.236
300.117
300.355
300.6
300.85
301.103
301.357
301.611
301.863
302.112
302.357
302.596
302.83
303.056
303.276
303.487
303.69
303.886
304.073
304.252
304.422
304.585
304.741
304.889
305.03
305.164
305.293
305.415
305.533
305.645
305.754
305.859
305.961
306.061
306.158
306.255
306.352
306.449
306.547
306.647
306.75
306.857
306.968
307.085
307.209
307.341
307.482
307.632
307.794
307.969
308.157
308.36
308.58
308.816
309.072
309.347
309.642
309.96
310.301
310.665
311.053
311.467
311.906
312.37
312.861
313.377
313.919
314.486
315.077
315.691
316.328
316.987
317.665
318.361
319.074
319.801
320.541
321.292
322.052
322.818
323.589
324.362
300.123
300.372
300.629
300.891
301.156
301.423
301.689
301.954
302.216
302.473
302.724
302.969
303.207
303.436
303.658
303.87
304.074
304.269
304.456
304.633
304.802
304.963
305.115
305.261
305.398
305.53
305.654
305.774
305.887
305.996
306.102
306.203
306.302
306.398
306.493
306.587
306.681
306.776
306.872
306.97
307.072
307.178
307.288
307.405
307.528
307.66
307.8
307.951
308.112
308.286
308.473
308.675
308.892
309.125
309.376
309.645
309.934
310.242
310.571
310.921
311.293
311.686
312.102
312.54
312.999
313.481
313.983
314.507
315.05
315.612
316.192
316.789
317.401
318.027
318.666
319.315
319.974
320.641
321.313
321.99
322.67
300.129
300.392
300.663
300.939
301.218
301.5
301.781
302.061
302.337
302.608
302.874
303.132
303.382
303.624
303.857
304.081
304.295
304.499
304.694
304.879
305.055
305.222
305.38
305.53
305.672
305.806
305.934
306.055
306.17
306.28
306.385
306.486
306.584
306.679
306.772
306.863
306.954
307.046
307.138
307.231
307.327
307.427
307.531
307.64
307.755
307.877
308.006
308.145
308.294
308.453
308.625
308.808
309.006
309.218
309.445
309.688
309.948
310.225
310.52
310.834
311.166
311.516
311.886
312.274
312.682
313.107
313.551
314.012
314.49
314.984
315.493
316.016
316.552
317.1
317.66
318.228
318.805
319.389
319.978
320.572
321.168
300.137
300.416
300.702
300.995
301.292
301.59
301.889
302.186
302.479
302.767
303.048
303.322
303.588
303.844
304.09
304.327
304.552
304.767
304.972
305.166
305.35
305.524
305.688
305.843
305.989
306.127
306.258
306.381
306.498
306.609
306.714
306.815
306.912
307.006
307.097
307.186
307.274
307.361
307.449
307.538
307.628
307.722
307.819
307.92
308.026
308.139
308.258
308.385
308.521
308.666
308.821
308.988
309.167
309.358
309.562
309.78
310.013
310.261
310.524
310.803
311.097
311.408
311.735
312.078
312.436
312.811
313.201
313.605
314.024
314.456
314.902
315.359
315.828
316.307
316.795
317.291
317.795
318.305
318.821
319.34
319.863
300.146
300.443
300.749
301.061
301.377
301.696
302.015
302.332
302.645
302.952
303.252
303.544
303.827
304.1
304.361
304.612
304.851
305.078
305.294
305.498
305.691
305.873
306.044
306.205
306.356
306.499
306.632
306.758
306.877
306.989
307.095
307.195
307.291
307.384
307.473
307.559
307.644
307.728
307.811
307.895
307.98
308.068
308.158
308.251
308.349
308.452
308.561
308.677
308.8
308.931
309.072
309.222
309.382
309.553
309.736
309.931
310.138
310.358
310.591
310.838
311.098
311.372
311.66
311.961
312.276
312.604
312.945
313.299
313.665
314.042
314.431
314.829
315.238
315.655
316.081
316.513
316.953
317.397
317.847
318.301
318.758
300.157
300.475
300.803
301.138
301.477
301.819
302.162
302.502
302.838
303.167
303.489
303.802
304.105
304.396
304.675
304.942
305.196
305.438
305.666
305.881
306.084
306.275
306.454
306.622
306.779
306.926
307.063
307.192
307.312
307.426
307.532
307.633
307.728
307.819
307.906
307.99
308.072
308.152
308.231
308.31
308.39
308.471
308.554
308.64
308.729
308.823
308.922
309.027
309.138
309.256
309.382
309.516
309.659
309.812
309.975
310.147
310.331
310.525
310.731
310.949
311.178
311.418
311.67
311.934
312.21
312.497
312.794
313.103
313.422
313.75
314.089
314.436
314.791
315.154
315.524
315.901
316.283
316.671
317.062
317.458
317.857
300.169
300.512
300.866
301.227
301.594
301.963
302.333
302.7
303.062
303.418
303.765
304.101
304.427
304.739
305.039
305.324
305.595
305.852
306.094
306.322
306.536
306.736
306.924
307.099
307.262
307.414
307.555
307.687
307.81
307.925
308.032
308.133
308.227
308.317
308.402
308.483
308.562
308.638
308.713
308.787
308.862
308.937
309.013
309.092
309.174
309.259
309.348
309.442
309.542
309.647
309.76
309.88
310.007
310.142
310.286
310.439
310.601
310.772
310.953
311.144
311.345
311.556
311.776
312.007
312.248
312.498
312.757
313.026
313.303
313.589
313.883
314.185
314.493
314.809
315.13
315.458
315.79
316.127
316.469
316.813
317.161
300.183
300.556
300.939
301.332
301.73
302.131
302.532
302.93
303.323
303.708
304.083
304.447
304.798
305.135
305.457
305.763
306.053
306.326
306.584
306.826
307.052
307.263
307.46
307.642
307.812
307.969
308.115
308.25
308.375
308.492
308.599
308.7
308.794
308.882
308.965
309.044
309.12
309.192
309.263
309.333
309.402
309.471
309.541
309.613
309.687
309.764
309.844
309.929
310.018
310.112
310.212
310.318
310.431
310.551
310.678
310.812
310.955
311.106
311.265
311.432
311.608
311.792
311.985
312.186
312.396
312.614
312.84
313.074
313.315
313.564
313.819
314.081
314.35
314.624
314.903
315.188
315.477
315.77
316.067
316.367
316.67
300.2
300.606
301.025
301.453
301.888
302.325
302.763
303.197
303.625
304.044
304.452
304.846
305.226
305.59
305.937
306.266
306.576
306.869
307.143
307.399
307.639
307.861
308.067
308.258
308.434
308.597
308.747
308.886
309.013
309.131
309.24
309.34
309.433
309.52
309.601
309.677
309.75
309.819
309.886
309.951
310.015
310.079
310.143
310.208
310.275
310.345
310.417
310.492
310.571
310.655
310.744
310.838
310.938
311.044
311.156
311.275
311.4
311.533
311.672
311.819
311.973
312.134
312.303
312.479
312.662
312.852
313.049
313.252
313.462
313.679
313.901
314.129
314.362
314.601
314.844
315.091
315.343
315.598
315.856
316.117
316.381
300.219
300.665
301.125
301.595
302.071
302.551
303.031
303.506
303.974
304.432
304.876
305.306
305.718
306.112
306.486
306.839
307.172
307.485
307.777
308.049
308.302
308.536
308.752
308.951
309.134
309.303
309.457
309.599
309.728
309.847
309.956
310.056
310.149
310.234
310.313
310.387
310.456
310.522
310.585
310.646
310.706
310.765
310.823
310.883
310.943
311.005
311.07
311.138
311.208
311.283
311.362
311.445
311.534
311.627
311.727
311.831
311.942
312.058
312.181
312.31
312.445
312.587
312.735
312.889
313.049
313.215
313.387
313.565
313.748
313.937
314.131
314.33
314.533
314.741
314.953
315.168
315.387
315.61
315.835
316.063
316.293
300.242
300.734
301.241
301.759
302.285
302.814
303.342
303.864
304.378
304.879
305.365
305.833
306.28
306.707
307.111
307.491
307.848
308.182
308.492
308.781
309.047
309.293
309.519
309.726
309.916
310.089
310.247
310.392
310.523
310.643
310.753
310.852
310.944
311.027
311.104
311.176
311.243
311.305
311.365
311.422
311.477
311.531
311.585
311.639
311.694
311.751
311.809
311.869
311.933
312
312.07
312.145
312.223
312.306
312.394
312.487
312.585
312.689
312.797
312.911
313.03
313.155
313.285
313.421
313.562
313.708
313.859
314.015
314.176
314.341
314.511
314.685
314.863
315.044
315.23
315.418
315.61
315.804
316.001
316.2
316.401
300.268
300.814
301.376
301.951
302.533
303.118
303.701
304.278
304.843
305.393
305.925
306.435
306.922
307.383
307.819
308.228
308.61
308.965
309.295
309.599
309.879
310.136
310.371
310.586
310.781
310.959
311.121
311.268
311.401
311.521
311.63
311.729
311.819
311.902
311.977
312.046
312.11
312.17
312.226
312.28
312.332
312.382
312.432
312.482
312.532
312.583
312.636
312.691
312.749
312.809
312.873
312.94
313.01
313.085
313.164
313.247
313.335
313.427
313.524
313.625
313.732
313.842
313.958
314.078
314.203
314.332
314.466
314.604
314.746
314.891
315.041
315.194
315.351
315.511
315.673
315.839
316.007
316.178
316.35
316.525
316.701
300.299
300.907
301.534
302.173
302.821
303.47
304.117
304.754
305.377
305.982
306.564
307.121
307.649
308.149
308.617
309.055
309.463
309.84
310.187
310.507
310.8
311.067
311.31
311.532
311.732
311.914
312.078
312.226
312.36
312.48
312.589
312.687
312.776
312.856
312.93
312.997
313.059
313.116
313.17
313.221
313.27
313.318
313.365
313.411
313.458
313.506
313.555
313.606
313.659
313.714
313.773
313.834
313.899
313.967
314.039
314.114
314.194
314.277
314.365
314.457
314.552
314.652
314.756
314.864
314.976
315.091
315.21
315.333
315.46
315.589
315.722
315.858
315.997
316.138
316.282
316.428
316.577
316.727
316.88
317.033
317.189
300.335
301.016
301.716
302.431
303.154
303.878
304.596
305.302
305.989
306.654
307.291
307.897
308.47
309.009
309.511
309.978
310.41
310.808
311.173
311.506
311.81
312.086
312.336
312.562
312.766
312.95
313.116
313.264
313.398
313.518
313.626
313.723
313.811
313.89
313.962
314.027
314.088
314.144
314.196
314.246
314.293
314.339
314.384
314.429
314.474
314.519
314.566
314.615
314.665
314.718
314.773
314.83
314.891
314.955
315.022
315.092
315.166
315.243
315.323
315.408
315.495
315.586
315.681
315.779
315.881
315.985
316.093
316.204
316.318
316.434
316.553
316.675
316.799
316.925
317.053
317.183
317.315
317.449
317.584
317.72
317.857
300.376
301.142
301.928
302.73
303.539
304.347
305.146
305.929
306.688
307.418
308.113
308.772
309.39
309.968
310.504
310.998
311.453
311.869
312.248
312.593
312.905
313.188
313.442
313.671
313.877
314.062
314.228
314.376
314.509
314.628
314.735
314.832
314.918
314.997
315.068
315.133
315.193
315.249
315.301
315.35
315.398
315.444
315.489
315.533
315.578
315.624
315.671
315.718
315.768
315.82
315.873
315.929
315.988
316.049
316.114
316.181
316.251
316.324
316.4
316.478
316.56
316.645
316.733
316.824
316.917
317.013
317.112
317.213
317.317
317.423
317.53
317.64
317.752
317.866
317.981
318.098
318.215
318.335
318.455
318.576
318.698
300.425
301.288
302.174
303.075
303.983
304.887
305.777
306.644
307.48
308.28
309.037
309.748
310.412
311.027
311.593
312.112
312.586
313.017
313.407
313.759
314.077
314.362
314.619
314.849
315.054
315.239
315.404
315.551
315.683
315.802
315.908
316.004
316.091
316.17
316.242
316.308
316.369
316.426
316.48
316.531
316.58
316.628
316.675
316.722
316.769
316.817
316.865
316.915
316.966
317.018
317.073
317.13
317.188
317.249
317.313
317.379
317.447
317.518
317.591
317.666
317.745
317.825
317.908
317.993
318.081
318.17
318.262
318.356
318.451
318.548
318.647
318.747
318.849
318.952
319.056
319.161
319.267
319.374
319.481
319.59
319.698
300.48
301.456
302.457
303.474
304.493
305.504
306.495
307.454
308.373
309.244
310.063
310.826
311.531
312.179
312.772
313.31
313.798
314.238
314.634
314.989
315.308
315.594
315.849
316.078
316.282
316.465
316.628
316.775
316.906
317.025
317.131
317.228
317.316
317.397
317.471
317.54
317.605
317.665
317.723
317.778
317.832
317.884
317.936
317.987
318.039
318.091
318.143
318.196
318.251
318.307
318.365
318.424
318.484
318.547
318.611
318.677
318.746
318.816
318.888
318.962
319.038
319.116
319.195
319.276
319.359
319.444
319.53
319.617
319.706
319.796
319.887
319.979
320.072
320.166
320.26
320.355
320.451
320.547
320.644
320.74
320.837
300.545
301.651
302.784
303.93
305.076
306.206
307.306
308.363
309.367
310.311
311.188
311.997
312.738
313.412
314.022
314.573
315.068
315.51
315.905
316.259
316.575
316.857
317.108
317.334
317.535
317.716
317.878
318.024
318.156
318.276
318.385
318.485
318.577
318.662
318.741
318.815
318.885
318.952
319.016
319.078
319.139
319.198
319.257
319.315
319.373
319.431
319.49
319.549
319.609
319.67
319.731
319.794
319.858
319.924
319.99
320.058
320.128
320.199
320.271
320.344
320.419
320.495
320.572
320.65
320.729
320.81
320.891
320.973
321.056
321.14
321.224
321.309
321.394
321.48
321.565
321.652
321.738
321.825
321.911
321.998
322.084
300.619
301.874
303.157
304.451
305.738
306.998
308.215
309.373
310.46
311.47
312.4
313.245
314.008
314.694
315.31
315.86
316.352
316.79
317.181
317.529
317.839
318.116
318.364
318.586
318.785
318.965
319.127
319.275
319.409
319.532
319.646
319.751
319.848
319.94
320.026
320.108
320.187
320.262
320.335
320.406
320.475
320.543
320.61
320.677
320.743
320.809
320.875
320.941
321.007
321.074
321.141
321.209
321.277
321.346
321.415
321.486
321.557
321.628
321.701
321.774
321.848
321.923
321.998
322.073
322.15
322.226
322.303
322.38
322.458
322.536
322.614
322.692
322.77
322.848
322.926
323.004
323.081
323.159
323.236
323.313
323.389
300.702
302.127
303.581
305.04
306.482
307.881
309.218
310.475
311.632
312.689
313.645
314.506
315.278
315.966
316.579
317.124
317.607
318.037
318.419
318.759
319.062
319.333
319.577
319.796
319.994
320.173
320.337
320.488
320.626
320.755
320.874
320.986
321.092
321.192
321.288
321.379
321.467
321.552
321.635
321.716
321.795
321.872
321.949
322.024
322.099
322.173
322.246
322.319
322.392
322.465
322.537
322.61
322.682
322.754
322.827
322.899
322.972
323.045
323.117
323.19
323.263
323.336
323.409
323.482
323.555
323.628
323.701
323.773
323.845
323.917
323.989
324.061
324.132
324.202
324.273
324.342
324.412
324.481
324.549
324.617
324.684
300.796
302.412
304.055
305.697
307.306
308.845
310.28
311.6
312.802
313.886
314.857
315.723
316.491
317.171
317.773
318.305
318.775
319.192
319.562
319.892
320.187
320.451
320.69
320.906
321.103
321.283
321.45
321.604
321.747
321.882
322.008
322.128
322.243
322.352
322.457
322.558
322.655
322.75
322.843
322.933
323.021
323.108
323.193
323.277
323.359
323.441
323.521
323.6
323.679
323.756
323.833
323.91
323.985
324.06
324.135
324.209
324.282
324.355
324.428
324.5
324.572
324.643
324.713
324.783
324.853
324.921
324.99
325.057
325.124
325.191
325.256
325.322
325.386
325.45
325.513
325.575
325.636
325.697
325.757
325.816
325.874
300.896
302.716
304.566
306.403
308.153
309.788
311.292
312.656
313.883
314.976
315.944
316.799
317.552
318.214
318.797
319.309
319.762
320.162
320.518
320.836
321.121
321.378
321.612
321.825
322.02
322.201
322.369
322.526
322.674
322.814
322.947
323.073
323.195
323.311
323.424
323.533
323.639
323.741
323.842
323.939
324.035
324.129
324.22
324.31
324.399
324.486
324.571
324.655
324.737
324.819
324.899
324.978
325.055
325.132
325.208
325.282
325.356
325.429
325.501
325.571
325.641
325.71
325.778
325.845
325.911
325.976
326.041
326.104
326.166
326.228
326.288
326.347
326.406
326.464
326.52
326.576
326.631
326.685
326.738
326.79
326.841
300.984
302.991
305.035
307
308.844
310.541
312.079
313.459
314.684
315.767
316.718
317.552
318.282
318.921
319.482
319.974
320.409
320.793
321.135
321.442
321.717
321.967
322.195
322.404
322.598
322.778
322.946
323.104
323.254
323.396
323.532
323.662
323.787
323.908
324.025
324.138
324.248
324.355
324.459
324.561
324.661
324.758
324.853
324.947
325.038
325.128
325.216
325.302
325.387
325.47
325.552
325.632
325.711
325.788
325.865
325.939
326.013
326.085
326.157
326.226
326.295
326.362
326.429
326.494
326.558
326.62
326.682
326.742
326.801
326.86
326.917
326.973
327.027
327.081
327.134
327.185
327.236
327.286
327.334
327.382
327.428
382.567
390.529
397.223
403.058
408.234
412.86
416.999
420.685
423.934
426.748
429.114
431.013
432.41
433.257
433.489
433.017
431.71
429.374
425.678
419.964
410.586
404.231
399.357
395.363
391.962
388.991
386.349
383.967
381.796
379.8
377.951
376.228
374.611
373.088
371.645
370.273
368.963
367.709
366.503
365.34
364.215
363.125
362.064
361.031
360.022
359.035
358.067
357.116
356.18
355.259
354.349
353.45
352.561
351.68
350.807
349.941
349.081
348.227
347.379
346.535
345.695
344.86
344.029
343.202
342.379
341.56
340.745
339.935
339.129
338.327
337.53
336.738
335.951
335.169
334.394
333.625
332.862
332.107
331.359
330.619
329.888
329.166
328.453
327.75
327.057
326.376
325.706
325.048
324.402
323.769
323.149
322.543
321.951
321.373
320.809
320.261
319.727
319.208
318.704
318.216
317.743
317.285
316.842
316.414
316.001
315.603
315.22
314.851
314.496
314.155
313.827
313.513
313.212
312.923
312.646
312.381
312.127
311.885
311.653
311.431
311.219
311.016
310.822
310.637
310.46
310.29
310.128
309.973
309.824
309.682
309.545
309.414
309.287
309.166
309.049
308.936
308.827
308.722
308.62
308.521
308.424
308.33
308.239
308.149
308.061
307.975
307.89
307.807
307.724
307.643
307.562
307.481
307.401
307.322
307.242
307.162
307.083
307.003
306.923
306.844
306.765
377.819
384.74
390.967
396.558
401.593
406.132
410.216
413.867
417.096
419.9
422.266
424.174
425.589
426.466
426.742
426.337
425.138
422.989
419.674
414.925
408.697
403.31
398.813
395
391.7
388.793
386.194
383.842
381.694
379.716
377.88
376.167
374.56
373.043
371.606
370.239
368.934
367.683
366.48
365.32
364.197
363.109
362.05
361.019
360.011
359.025
358.058
357.108
356.173
355.252
354.343
353.444
352.555
351.675
350.803
349.937
349.078
348.224
347.375
346.532
345.692
344.857
344.026
343.199
342.377
341.558
340.743
339.932
339.126
338.324
337.527
336.735
335.948
335.167
334.392
333.623
332.86
332.105
331.357
330.617
329.886
329.163
328.45
327.747
327.055
326.373
325.703
325.045
324.4
323.767
323.147
322.541
321.949
321.371
320.807
320.259
319.725
319.206
318.702
318.214
317.741
317.283
316.84
316.412
316
315.602
315.219
314.85
314.495
314.154
313.826
313.512
313.211
312.922
312.645
312.38
312.127
311.884
311.652
311.43
311.218
311.016
310.822
310.637
310.46
310.29
310.128
309.973
309.824
309.682
309.545
309.414
309.288
309.166
309.049
308.937
308.828
308.722
308.62
308.521
308.425
308.331
308.239
308.149
308.062
307.976
307.891
307.807
307.725
307.643
307.562
307.482
307.402
307.322
307.242
307.163
307.083
307.004
306.924
306.844
306.765
373.718
379.643
385.239
390.428
395.199
399.56
403.522
407.091
410.266
413.04
415.398
417.315
418.761
419.691
420.053
419.778
418.779
416.956
414.203
410.476
405.99
401.639
397.712
394.227
391.13
388.355
385.848
383.563
381.466
379.526
377.721
376.032
374.444
372.944
371.521
370.165
368.869
367.626
366.43
365.276
364.159
363.075
362.02
360.992
359.987
359.004
358.039
357.091
356.157
355.238
354.33
353.433
352.545
351.666
350.794
349.929
349.07
348.217
347.369
346.525
345.687
344.852
344.021
343.194
342.372
341.553
340.738
339.928
339.122
338.32
337.523
336.731
335.944
335.163