/*--------------------------------*- C++ -*----------------------------------*\
  =========                 |
  \\      /  F ield         | OpenFOAM: The Open Source CFD Toolbox
   \\    /   O peration     | Website:  https://openfoam.org
    \\  /    A nd           | Version:  7
     \\/     M anipulation  |
\*---------------------------------------------------------------------------*/
FoamFile
{
    version     2.0;
    format      ascii;
    class       volScalarField;
    location    "1.7";
    object      p;
}
// * * * * * * * * * * * * * * * * * * * * * * * * * * * * * * * * * * * * * //

dimensions      [0 2 -2 0 0 0 0];

internalField   nonuniform List<scalar> 
2790
(
148.753
148.661
148.929
149.501
150.283
151.242
152.376
153.685
155.164
156.808
158.609
160.563
162.659
164.886
167.228
169.665
172.171
174.711
177.243
179.718
182.076
184.254
186.184
187.804
189.063
189.937
190.374
190.43
190.481
190.693
148.55
148.568
148.861
149.431
150.208
151.164
152.294
153.597
155.069
156.704
158.496
160.44
162.525
164.741
167.072
169.499
171.996
174.531
177.062
179.54
181.909
184.104
186.058
187.706
188.99
189.865
190.262
190.318
190.45
190.733
148.351
148.439
148.751
149.31
150.075
151.018
152.133
153.418
154.868
156.479
158.243
160.155
162.205
164.383
166.673
169.057
171.51
174.002
176.495
178.943
181.293
183.486
185.458
187.148
188.498
189.474
190.067
190.422
190.736
191.034
148.126
148.244
148.569
149.12
149.87
150.797
151.892
153.153
154.574
156.151
157.877
159.745
161.746
163.869
166.099
168.419
170.805
173.229
175.657
178.049
180.356
182.528
184.51
186.249
187.704
188.856
189.723
190.393
190.945
191.463
147.864
147.997
148.33
148.873
149.607
150.513
151.583
152.812
154.196
155.73
157.407
159.219
161.157
163.21
165.364
167.601
169.901
172.238
174.58
176.894
179.14
181.276
183.258
185.049
186.619
187.961
189.091
190.052
190.863
191.609
147.563
147.702
148.037
148.57
149.284
150.164
151.202
152.393
153.733
155.216
156.833
158.578
160.442
162.412
164.476
166.616
168.813
171.044
173.282
175.498
177.662
179.74
181.702
183.523
185.186
186.687
188.033
189.238
190.257
191.174
147.22
147.359
147.692
148.212
148.903
149.752
150.754
151.901
153.19
154.612
156.162
157.831
159.608
161.484
163.443
165.471
167.55
169.657
171.772
173.869
175.925
177.917
179.826
181.636
183.342
184.943
186.436
187.814
188.978
190.024
146.834
146.972
147.297
147.801
148.466
149.281
150.241
151.339
152.569
153.925
155.398
156.981
158.662
160.431
162.274
164.175
166.119
168.085
170.055
172.009
173.928
175.796
177.604
179.347
181.026
182.645
184.2
185.671
186.92
188.071
146.407
146.541
146.855
147.34
147.976
148.754
149.667
150.71
151.876
153.158
154.547
156.035
157.61
159.261
160.975
162.736
164.528
166.334
168.136
169.917
171.663
173.362
175.012
176.613
178.176
179.711
181.219
182.689
183.96
185.198
145.94
146.068
146.369
146.831
147.435
148.172
149.035
150.019
151.115
152.317
153.615
154.999
156.459
157.983
159.555
161.162
162.787
164.412
166.021
167.598
169.129
170.605
172.025
173.395
174.729
176.049
177.369
178.707
179.907
181.211
145.433
145.555
145.841
146.278
146.848
147.54
148.35
149.269
150.291
151.407
152.607
153.881
155.218
156.604
158.025
159.465
160.906
162.331
163.721
165.059
166.33
167.523
168.633
169.663
170.629
171.56
172.491
173.49
174.452
175.77
144.89
145.005
145.274
145.684
146.216
146.862
147.614
148.466
149.409
150.434
151.531
152.689
153.896
155.136
156.396
157.656
158.899
160.103
161.25
162.316
163.282
164.128
164.84
165.41
165.839
166.152
166.397
166.705
167.087
168.26
144.311
144.419
144.669
145.05
145.544
146.14
146.832
147.613
148.474
149.404
150.394
151.431
152.501
153.59
154.679
155.75
156.781
157.75
158.63
159.394
160.012
160.452
160.679
160.659
160.361
159.768
158.896
157.906
156.958
157.462
143.701
143.8
144.031
144.381
144.834
145.379
146.009
146.717
147.492
148.325
149.204
150.116
151.045
151.976
152.889
153.763
154.573
155.292
155.889
156.327
156.563
156.547
156.216
155.491
154.275
152.453
149.896
146.598
142.65
140.61
143.06
143.15
143.361
143.68
144.09
144.582
145.149
145.781
146.469
147.203
147.968
148.752
149.538
150.307
151.04
151.712
152.295
152.757
153.06
153.157
152.992
152.49
151.554
150.049
147.781
144.46
139.627
132.619
122.155
109.913
4.37913
4.29736
4.07537
3.77286
3.44054
3.09899
2.75623
2.41916
2.09502
1.79024
1.50946
1.25579
1.03487
0.855986
0.719263
0.620483
0.559746
0.530876
0.523673
0.528245
0.54224
0.568033
0.604716
0.646105
0.684789
0.71321
0.720356
0.684463
0.552905
0.285706
4.19955
4.11016
3.91039
3.63671
3.32859
3.00553
2.6775
2.35252
2.03833
1.7419
1.46798
1.21884
0.99968
0.819529
0.677308
0.587079
0.539326
0.525432
0.526305
0.532112
0.544511
0.56825
0.603698
0.644481
0.683854
0.717163
0.731584
0.691405
0.553062
0.282275
4.0573
3.96127
3.77531
3.52234
3.23434
2.92752
2.61249
2.29799
1.99235
1.70392
1.43799
1.18789
0.967388
0.815663
0.688942
0.583929
0.526227
0.510079
0.512194
0.520921
0.534479
0.557135
0.590936
0.629423
0.667411
0.701186
0.710593
0.665588
0.521696
0.253723
3.9737
3.86982
3.69177
3.45142
3.17851
2.8849
2.58116
2.27573
1.97654
1.69439
1.44692
1.23261
0.989101
0.806183
0.681887
0.588193
0.530129
0.505084
0.497524
0.497729
0.503871
0.519152
0.544753
0.576727
0.611562
0.64186
0.64771
0.604537
0.47107
0.207609
3.98523
3.87205
3.69976
3.46345
3.19902
2.91337
2.61805
2.32179
2.03248
1.75741
1.50011
1.26699
1.04998
0.866746
0.724337
0.617258
0.543314
0.497611
0.469775
0.452539
0.444282
0.44698
0.461327
0.484669
0.513632
0.53696
0.541794
0.506681
0.393048
0.160525
4.10259
3.97674
3.79785
3.56136
3.29441
3.00863
2.71485
2.42045
2.13197
1.85231
1.58811
1.34649
1.12671
0.935786
0.776985
0.649286
0.551011
0.477932
0.423364
0.382538
0.354438
0.340414
0.340955
0.353948
0.37577
0.395609
0.403659
0.380851
0.293432
0.112854
4.30569
4.16052
3.96367
3.71435
3.43606
3.14189
2.84245
2.54329
2.24727
1.96255
1.69399
1.44374
1.21353
1.00758
0.828016
0.674801
0.547053
0.442164
0.356434
0.287469
0.235281
0.201271
0.186072
0.188071
0.203851
0.22383
0.240451
0.23453
0.179409
0.0651202
4.53478
4.36326
4.14115
3.8735
3.58126
3.27993
2.97183
2.6666
2.3683
2.07929
1.80359
1.54299
1.29907
1.07436
0.870567
0.688348
0.527761
0.388021
0.268044
0.167726
0.0884591
0.0322873
0.00038895
-0.00819139
0.00194816
0.0281031
0.0584684
0.07409
0.0572588
0.0176292
4.71939
4.52415
4.29
4.01121
3.71117
3.40079
3.09003
2.78169
2.48007
2.18713
1.90462
1.63352
1.37476
1.12981
0.900126
0.686974
0.491563
0.315008
0.158682
0.0247932
-0.0835582
-0.163187
-0.212034
-0.230095
-0.220328
-0.185352
-0.137082
-0.0952757
-0.0685461
-0.0294959
4.8552
4.6533
4.4006
4.11067
3.80298
3.48867
3.17683
2.87003
2.56958
2.27591
1.98915
1.7092
1.43625
1.17109
0.915134
0.670276
0.439003
0.224385
0.0302138
-0.138893
-0.27779
-0.381679
-0.447225
-0.473224
-0.460794
-0.412806
-0.342301
-0.269692
-0.195191
-0.0761031
4.91363
4.69442
4.42919
4.13245
3.82648
3.52041
3.21878
2.92221
2.62991
2.34081
2.05384
1.76797
1.48269
1.1984
0.916617
0.639982
0.372339
0.118758
-0.114503
-0.320259
-0.490986
-0.619807
-0.701695
-0.73403
-0.716368
-0.65163
-0.554468
-0.446491
-0.32099
-0.121949
4.81734
4.58553
4.32953
4.0512
3.76919
3.48899
3.21209
2.93681
2.66083
2.38238
2.09983
1.8115
1.51631
1.21445
0.907711
0.599548
0.295205
0.00178646
-0.271891
-0.515853
-0.719855
-0.874498
-0.972634
-1.01006
-0.985046
-0.900286
-0.771967
-0.623983
-0.444897
-0.166799
4.52825
4.29571
4.08339
3.86177
3.63351
3.4002
3.1637
2.92085
2.66861
2.40608
2.13209
1.84455
1.54181
1.22398
0.893222
0.553836
0.212429
-0.121875
-0.437606
-0.72176
-0.961012
-1.14299
-1.25793
-1.29984
-1.266
-1.15844
-0.994351
-0.801343
-0.566249
-0.210407
3.98639
3.77176
3.67834
3.5794
3.44055
3.27315
3.09073
2.88914
2.66495
2.42119
2.15855
1.87427
1.56584
1.23329
0.879286
0.508893
0.129909
-0.246655
-0.606635
-0.933722
-1.21112
-1.42296
-1.55622
-1.6029
-1.55955
-1.42702
-1.22237
-0.978428
-0.684442
-0.252433
3.06727
2.8939
3.10231
3.25209
3.23475
3.13796
3.01796
2.86271
2.66488
2.43875
2.1885
1.90904
1.59591
1.24926
0.872463
0.471145
0.053928
-0.366554
-0.773479
-1.14699
-1.46642
-1.712
-1.86651
-1.91942
-1.86691
-1.70794
-1.45774
-1.15539
-0.79854
-0.292524
142.379
142.46
142.649
142.935
143.302
143.739
144.239
144.794
145.392
146.022
146.671
147.323
147.961
148.565
149.113
149.577
149.927
150.125
150.126
149.874
149.297
148.298
146.746
144.446
141.099
136.21
128.858
117.124
94.9631
35.0372
141.65
141.721
141.888
142.139
142.46
142.84
143.272
143.745
144.25
144.773
145.302
145.818
146.304
146.739
147.097
147.35
147.463
147.394
147.091
146.491
145.508
144.031
141.899
138.884
134.628
128.548
119.613
106.095
86.6453
58.3657
140.878
140.94
141.083
141.299
141.572
141.893
142.254
142.644
143.054
143.468
143.874
144.253
144.585
144.849
145.018
145.059
144.937
144.605
144.008
143.076
141.718
139.813
137.197
133.643
128.826
122.294
113.465
101.711
87.6111
71.2429
140.065
140.117
140.236
140.415
140.639
140.9
141.189
141.496
141.808
142.113
142.395
142.636
142.816
142.91
142.891
142.726
142.376
141.794
140.921
139.687
138
135.742
132.764
128.871
123.817
117.314
109.072
98.7689
86.3551
71.4073
139.213
139.254
139.349
139.49
139.665
139.866
140.082
140.304
140.519
140.715
140.874
140.978
141.007
140.935
140.735
140.372
139.807
138.993
137.872
136.374
134.414
131.886
128.663
124.589
119.487
113.16
105.413
96.0075
84.7833
71.9508
138.324
138.354
138.425
138.528
138.653
138.793
138.936
139.074
139.193
139.28
139.318
139.289
139.172
138.941
138.568
138.019
137.256
136.233
134.894
133.176
131.002
128.282
124.912
120.773
115.737
109.673
102.46
94.0023
84.2953
73.7532
137.4
137.42
137.466
137.531
137.607
137.685
137.757
137.811
137.836
137.817
137.738
137.58
137.322
136.94
136.406
135.687
134.745
133.539
132.017
130.124
127.792
124.948
121.512
117.396
112.516
106.794
100.178
92.658
84.2804
75.3798
136.444
136.454
136.475
136.503
136.531
136.549
136.55
136.523
136.455
136.334
136.142
135.861
135.472
134.949
134.266
133.394
132.296
130.934
129.264
127.237
124.798
121.89
118.453
114.428
109.762
104.418
98.3815
91.6743
84.3469
76.6696
135.462
135.461
135.458
135.449
135.429
135.389
135.321
135.215
135.059
134.839
134.54
134.144
133.632
132.98
132.164
131.156
129.925
128.435
126.65
124.528
122.027
119.103
115.715
111.824
107.402
102.436
96.931
90.9221
84.463
77.7792
134.455
134.444
134.418
134.373
134.306
134.21
134.076
133.894
133.653
133.341
132.942
132.439
131.814
131.047
130.113
128.989
127.646
126.055
124.185
122.003
119.477
116.575
113.27
109.54
105.373
100.769
95.7471
90.346
84.6186
78.748
133.429
133.409
133.36
133.281
133.169
133.018
132.821
132.568
132.248
131.849
131.357
130.756
130.03
129.16
128.125
126.902
125.47
123.802
121.875
119.662
117.14
114.288
111.09
107.534
103.62
99.358
94.7703
89.8963
84.7835
79.579
132.389
132.36
132.289
132.177
132.022
131.82
131.564
131.243
130.849
130.37
129.793
129.105
128.289
127.33
126.208
124.906
123.404
121.682
119.72
117.5
115.006
112.224
109.147
105.771
102.101
98.1538
93.9526
89.5336
84.9384
80.2851
131.341
131.302
131.211
131.068
130.873
130.623
130.31
129.928
129.466
128.914
128.261
127.494
126.6
125.565
124.372
123.007
121.453
119.695
117.719
115.512
113.062
110.364
107.414
104.215
100.777
97.1168
93.2575
89.2317
85.0746
80.8818
130.289
130.243
130.132
129.959
129.727
129.432
129.068
128.629
128.105
127.487
126.767
125.932
124.971
123.872
122.622
121.209
119.62
117.843
115.868
113.688
111.295
108.688
105.868
102.84
99.6175
96.216
92.6583
88.9724
85.1882
81.3829
129.241
129.186
129.058
128.858
128.591
128.255
127.845
127.353
126.774
126.098
125.319
124.425
123.408
122.258
120.963
119.515
117.904
116.122
114.162
112.019
109.691
107.178
104.486
101.621
98.5958
95.427
92.1349
88.7434
85.2776
81.8006
128.202
128.14
127.995
127.771
127.472
127.099
126.646
126.108
125.48
124.754
123.923
122.98
121.917
120.726
119.398
117.927
116.306
114.529
112.593
110.495
108.236
105.819
103.249
100.536
97.6916
94.7309
91.6722
88.536
85.3434
82.1459
127.179
127.111
126.951
126.704
126.377
125.97
125.48
124.901
124.23
123.46
122.586
121.603
120.503
119.28
117.93
116.445
114.823
113.061
111.155
109.107
106.919
104.595
102.142
99.5693
96.8881
94.1127
91.2589
88.3444
85.3868
82.4285
126.18
126.106
125.932
125.665
125.313
124.876
124.352
123.738
123.03
122.223
121.314
120.297
119.169
117.924
116.558
115.069
113.454
111.711
109.842
107.846
105.729
103.494
101.15
98.7058
96.1718
93.5609
90.887
88.1651
85.4101
82.6571
125.21
125.131
124.946
124.661
124.286
123.823
123.271
122.626
121.887
121.049
120.111
119.069
117.919
116.658
115.285
113.798
112.195
110.477
108.646
106.703
104.654
102.505
100.262
97.9342
95.532
93.0667
90.5503
87.9958
85.4159
82.8396
124.279
124.196
124
123.699
123.305
122.819
122.242
121.572
120.806
119.944
118.982
117.92
116.755
115.486
114.111
112.63
111.044
109.353
107.561
105.671
103.688
101.618
99.4671
97.2449
94.9603
92.6233
90.2448
87.8358
85.4071
82.9829
123.394
123.306
123.101
122.787
122.375
121.871
121.273
120.581
119.794
118.911
117.932
116.856
115.681
114.407
113.035
111.565
109.998
108.336
106.584
104.744
102.822
100.825
98.7583
96.6305
94.4501
92.226
89.9676
87.6847
85.3865
83.0932
122.561
122.47
122.257
121.931
121.505
120.984
120.369
119.659
118.855
117.957
116.965
115.879
114.698
113.424
112.058
110.601
109.055
107.423
105.708
103.916
102.052
100.12
98.1292
96.0854
93.9967
91.8712
89.7173
87.5433
85.3575
83.1766
121.79
121.696
121.476
121.14
120.702
120.168
119.538
118.814
117.997
117.087
116.085
114.992
113.81
112.539
111.18
109.738
108.213
106.609
104.931
103.183
101.371
99.499
97.5749
95.605
93.5964
91.5565
89.4926
87.4123
85.3226
83.2378
121.089
120.992
120.766
120.421
119.973
119.427
118.786
118.051
117.223
116.305
115.297
114.201
113.018
111.752
110.403
108.975
107.472
105.895
104.251
102.543
100.777
98.9579
97.0926
95.187
93.2476
91.2812
89.2944
87.2939
85.2861
83.2829
120.466
120.367
120.135
119.783
119.325
118.77
118.12
117.376
116.54
115.616
114.604
113.506
112.326
111.065
109.727
108.314
106.83
105.278
103.664
101.992
100.266
98.4933
96.6787
94.8281
92.9477
91.0436
89.1218
87.1883
85.249
83.3138
119.931
119.829
119.591
119.231
118.767
118.204
117.547
116.796
115.955
115.027
114.012
112.915
111.738
110.484
109.155
107.756
106.29
104.76
103.173
101.531
99.8407
98.1068
96.3349
94.5305
92.6993
90.8469
88.9791
87.1012
85.2186
83.3398
119.494
119.388
119.143
118.775
118.303
117.735
117.071
116.316
115.471
114.539
113.524
112.428
111.255
110.007
108.687
107.3
105.849
104.339
102.773
101.157
99.4956
97.7935
96.0562
94.2891
92.4974
90.6864
88.8614
87.0274
85.1894
83.3544
119.166
119.054
118.8
118.425
117.949
117.375
116.708
115.948
115.1
114.167
113.152
112.058
110.888
109.645
108.333
106.956
105.518
104.023
102.475
100.879
99.2404
97.5634
95.8532
94.1151
92.3541
90.5753
88.7836
86.9839
85.1809
83.3809
118.962
118.827
118.555
118.175
117.696
117.12
116.45
115.688
114.839
113.906
112.891
111.799
110.632
109.394
108.088
106.718
105.289
103.805
102.269
100.687
99.0637
97.4035
95.7115
93.9926
92.2519
90.4941
88.7241
86.9464
85.1656
83.3866
118.943
118.743
118.444
118.057
117.575
116.996
116.323
115.559
114.709
113.776
112.762
111.671
110.507
109.272
107.971
106.607
105.184
103.707
102.18
100.607
98.9941
97.3449
95.6645
93.958
92.23
90.4853
88.7287
86.9646
85.1973
83.4313
-49.4221
-29.3865
-9.57989
38.3129
31.3609
20.2942
54.1198
42.3541
31.546
55.3641
45.1129
37.2557
59.5734
51.4208
44.7975
63.8604
57.0575
51.2624
67.0227
61.2181
56.2354
69.508
64.538
60.2746
71.5928
67.2989
63.6209
73.3436
69.5904
66.3829
74.8071
71.4923
68.6663
76.0325
73.0777
70.5636
77.0602
74.4039
72.1471
77.9221
75.5156
73.4732
78.6444
76.4489
74.5868
79.2487
77.2329
75.5235
79.753
77.8909
76.3119
80.1721
78.4424
76.975
80.5188
78.9033
77.5318
80.804
79.2872
77.9982
81.0368
79.6053
78.3873
81.2257
79.8679
78.7108
81.3773
80.0828
78.9778
81.4996
80.2589
79.198
81.5949
80.3995
79.3757
81.6751
80.5171
79.5233
81.7314
80.6033
79.6343
81.7926
80.6873
79.7356
81.8186
80.7297
79.7921
81.8843
80.8096
79.8784
0.5026
0.787286
2.1569
2.99371
3.10127
3.02623
2.96996
2.8664
2.68361
2.4694
2.23204
1.95858
1.64073
1.27968
0.880063
0.447594
-0.00892636
-0.475718
-0.933562
-1.35896
-1.7269
-2.01293
-2.19416
-2.25669
-2.19634
-2.0097
-1.70817
-1.33691
-0.910263
-0.331264
6.90047
3.58987
3.91717
3.67875
3.03793
2.81938
2.93978
2.94078
2.73677
2.52115
2.29888
2.03309
1.70891
1.33208
0.909568
0.445924
-0.0509497
-0.566797
-1.08048
-1.56491
-1.98974
-2.32501
-2.54127
-2.61982
-2.55556
-2.3412
-1.9818
-1.52795
-1.0197
-0.368459
17.5524
9.09471
6.04774
4.33388
3.68643
3.55304
3.48859
3.15706
2.76278
2.55464
2.38606
2.13951
1.80547
1.41074
0.966349
0.472742
-0.0643235
-0.630469
-1.20294
-1.75164
-2.24088
-2.63763
-2.90466
-3.00781
-2.94334
-2.70118
-2.28215
-1.72996
-1.12115
-0.403346
26.7389
17.0402
11.3379
7.77823
5.73299
4.57485
3.87698
3.41314
3.15614
2.93651
2.65823
2.3077
1.9179
1.50427
1.04697
0.528768
-0.0457918
-0.66016
-1.29044
-1.90705
-2.46696
-2.93281
-3.25373
-3.39239
-3.35767
-3.12031
-2.65412
-1.94938
-1.2164
-0.436698
35.6298
26.0345
18.8341
13.586
9.90029
7.37402
5.67998
4.57549
3.86487
3.3429
2.92411
2.55716
2.17807
1.73598
1.2173
0.635186
0.00492611
-0.662508
-1.35068
-2.03015
-2.65726
-3.18723
-3.56993
-3.76692
-3.76798
-3.50029
-2.86475
-2.12399
-1.33115
-0.472552
43.3819
34.5725
26.7788
20.4138
15.5193
11.8562
9.15144
7.16905
5.71126
4.62002
3.7911
3.13455
2.56108
2.00264
1.42205
0.799614
0.123971
-0.603486
-1.36217
-2.11352
-2.8091
-3.40137
-3.8422
-4.08744
-4.09852
-3.81608
-3.22315
-2.44251
-1.47562
-0.496908
49.6798
41.9565
34.263
27.4395
21.8424
17.3612
13.7967
10.9793
8.76449
7.02283
5.64123
4.51939
3.56949
2.72173
1.92538
1.14334
0.349776
-0.46693
-1.29955
-2.12085
-2.8886
-3.55378
-4.06148
-4.3539
-4.3786
-4.08867
-3.47552
-2.61414
-1.58881
-0.591971
54.7997
48.1226
40.9238
34.1399
28.2743
23.3143
19.1392
15.6539
12.7715
10.3973
8.43467
6.79362
5.39314
4.1635
3.04816
2.00353
0.998304
0.0146847
-0.948584
-1.8744
-2.72942
-3.46885
-4.03907
-4.38261
-4.4472
-4.19077
-3.60317
-2.73768
-1.69797
-0.762532
58.9693
53.1839
46.6338
40.1848
34.3712
29.24
24.7275
20.7934
17.3999
14.4917
12.0015
9.85954
7.99833
6.35567
4.87763
3.52035
2.25089
1.04868
-0.0919232
-1.16001
-2.1291
-2.96036
-3.60578
-4.0133
-4.13476
-3.93564
-3.41522
-2.63085
-1.70758
-0.959919
62.3633
57.3101
51.4219
45.4431
39.879
34.8033
30.185
26.0166
22.2952
18.9992
16.0902
13.5214
11.2433
9.20729
7.36815
5.68721
4.13407
2.68866
1.34357
0.105619
-1.00447
-1.95422
-2.70265
-3.2055
-3.4234
-3.33331
-2.94567
-2.32442
-1.60419
-1.09221
65.1425
60.6853
55.4045
49.9273
44.7078
39.8255
35.265
31.0352
27.153
23.6202
20.4211
17.53
14.9154
12.5437
10.3816
8.39885
6.57078
4.88049
3.32105
1.897
0.624431
-0.470465
-1.35453
-1.9927
-2.35593
-2.43197
-2.23975
-1.84618
-1.38027
-1.11571
67.4373
63.467
58.7171
53.7176
48.8697
44.2487
39.8448
35.6726
31.7584
28.117
24.7488
21.6436
18.7853
16.1541
13.7284
11.4876
9.41416
7.49578
5.72751
4.11307
2.6651
1.40411
0.355738
-0.453884
-1.00508
-1.29406
-1.34462
-1.2208
-1.03466
-1.01562
69.3454
65.7768
61.4816
56.9138
52.4271
48.0891
43.8913
39.8481
35.9883
32.3336
28.8933
25.6681
22.6531
19.8394
17.2156
14.7698
12.4916
10.3735
8.41328
6.61476
4.98816
3.54932
2.31746
1.31118
0.542687
0.0101422
-0.311298
-0.478084
-0.580795
-0.802429
70.9405
67.7068
63.7992
59.6118
55.4587
51.3996
47.4248
43.5466
39.7929
36.1876
32.7448
29.4718
26.3712
23.442
20.6805
18.0819
15.6417
13.3571
11.2283
9.25973
7.46002
5.84146
4.4182
3.20308
2.203
1.41305
0.810138
0.347602
-0.0440625
-0.503783
72.2793
69.3272
65.7504
61.8951
58.0423
54.2449
50.4914
46.7913
43.1701
39.6513
36.2514
32.9811
29.8476
26.8551
24.0056
21.2993
18.7364
16.3177
14.0457
11.9254
9.96433
8.17228
6.55966
5.13518
3.90227
2.85487
1.97304
1.21988
0.543856
-0.154945
73.406
70.6923
67.3986
63.832
60.2463
56.6881
53.1447
49.6224
46.1438
42.731
39.4009
36.1659
33.0358
30.0181
27.1182
24.3401
21.6873
19.1633
16.7721
14.5195
12.4122
10.4583
8.66542
7.03954
5.582
4.28665
3.13697
2.10448
1.15136
0.210008
74.3556
71.8444
68.7938
65.4782
62.1283
58.7858
55.4368
52.0847
48.749
45.4502
42.2043
39.0243
35.9213
32.9044
29.9814
27.1587
24.4418
21.8362
19.3473
16.9809
14.7437
12.6421
10.6822
8.86806
7.19974
5.67152
4.26984
2.97267
1.75169
0.564121
75.1559
72.8176
69.9761
66.8787
63.7362
60.5863
57.4143
54.2212
51.0234
47.8392
44.6838
41.5697
38.5083
35.5096
32.5825
29.735
26.9741
24.3061
21.7375
19.2744
16.9229
14.6889
12.577
10.5901
8.72757
6.98413
5.34849
3.80302
2.32527
0.89012
75.83
73.6392
70.978
68.0701
65.1095
62.1306
59.1181
56.0709
53.0026
49.9296
46.8655
43.8222
40.8107
37.8413
34.9234
32.0656
29.2756
26.5607
23.9276
21.3827
18.9319
16.5802
14.3317
12.1883
10.149
8.20875
6.35783
4.58129
2.85987
1.17992
76.3965
74.3318
71.8259
69.0826
66.2811
63.4531
60.5831
57.668
54.7194
51.7513
48.7761
45.8045
42.8469
39.9134
37.0133
34.1555
31.348
28.5984
25.9137
23.3002
20.7635
18.3085
15.9383
13.6545
11.4555
9.33678
7.2892
5.29934
3.34933
1.43234
76.8713
74.9142
72.5419
69.9411
67.2782
64.5827
61.8388
59.0423
56.2025
53.3315
50.4404
47.5387
44.636
41.7417
38.8649
36.0143
33.198
30.4236
27.6979
25.0273
22.4172
19.872
17.3945
14.9856
12.6438
10.3642
8.13828
5.9532
3.79153
1.64993
77.2677
75.4023
73.1447
70.6667
68.124
65.544
62.911
60.2197
57.4774
54.6949
51.8816
49.046
46.1969
43.3428
40.4923
37.6537
34.835
32.0434
29.2858
26.5682
23.8958
21.2726
18.7012
16.1821
13.7134
11.2901
8.90387
6.54199
4.18699
1.83694
77.5966
75.8089
73.6492
71.2767
68.8373
66.3572
63.8208
61.2217
58.5659
55.8625
53.1198
50.3453
47.5467
44.7319
41.9087
39.0851
36.2683
33.4656
30.6834
27.9275
25.2029
22.5131
19.8603
17.2449
14.6646
12.1143
9.58544
7.06534
4.53638
1.99669
77.8688
76.1463
74.0696
71.7867
69.4355
67.0409
64.5875
62.0683
59.4878
56.8541
54.1742
51.4548
48.7026
45.9247
43.1284
40.3209
37.5091
34.6997
31.899
29.1123
26.3442
23.5982
20.8759
18.1774
15.5003
12.8391
10.1851
7.52549
4.84248
2.1332
78.0902
76.4219
74.4146
72.2069
69.9298
67.6072
65.2241
62.7728
60.2568
57.6831
55.0579
52.3869
49.676
46.9316
44.1604
41.3689
38.5636
35.7509
32.9363
30.1252
27.3216
24.5287
21.7479
18.9789
16.219
13.4626
10.7008
7.92041
5.10371
2.24632
78.2725
76.6484
74.698
72.5522
70.3362
68.0731
65.7481
63.3533
60.8912
58.3679
55.7889
53.1591
50.4839
47.7689
45.02
42.2435
39.4453
36.6312
33.8067
30.9765
28.1444
25.3133
22.4843
19.6569
16.8279
13.9917
11.1389
8.25654
5.32641
2.34169
78.4126
76.8233
74.918
72.8213
70.6538
68.4381
66.1596
63.8099
61.3911
58.9085
56.367
53.7708
51.1248
48.4341
45.7042
42.9406
40.149
37.3348
34.5031
31.6583
28.8039
25.9426
23.0752
20.2008
17.3163
14.4154
11.4889
8.5233
5.50073
2.41226
78.5328
76.9691
75.0981
73.0387
70.9079
68.728
66.4847
64.1694
61.7836
59.3321
56.8192
54.2489
51.6255
48.9537
46.2385
43.4852
40.6991
37.8852
35.0484
32.1927
29.3217
26.4375
23.5408
20.6306
17.7033
14.7527
11.7692
8.739
5.64397
2.47143
78.606
77.0584
75.2098
73.1758
71.0698
68.9138
66.6941
64.4018
62.0382
59.6075
57.1138
54.561
51.9528
49.2938
46.5887
43.8425
41.0602
38.2468
35.4067
32.544
29.6618
26.7622
23.8459
20.9114
17.9552
14.9708
11.9481
8.87316
5.72771
2.49744
78.6915
77.145
75.3089
73.29
71.1979
69.0548
66.8475
64.5674
62.2152
59.7952
57.3112
54.7669
52.1661
49.5129
46.8121
44.0686
41.2872
38.4727
35.6296
32.7618
29.8725
26.9636
24.0357
21.0873
18.1147
15.1113
12.0666
8.96597
5.7885
2.50873
)
;

boundaryField
{
    inlet
    {
        type            zeroGradient;
    }
    outlet
    {
        type            fixedValue;
        value           uniform 0;
    }
    flap
    {
        type            zeroGradient;
    }
    upperWall
    {
        type            zeroGradient;
    }
    lowerWall
    {
        type            zeroGradient;
    }
    frontAndBack
    {
        type            empty;
    }
}


// ************************************************************************* //
