/*--------------------------------*- C++ -*----------------------------------*\
  =========                 |
  \\      /  F ield         | OpenFOAM: The Open Source CFD Toolbox
   \\    /   O peration     | Website:  https://openfoam.org
    \\  /    A nd           | Version:  7
     \\/     M anipulation  |
\*---------------------------------------------------------------------------*/
FoamFile
{
    version     2.0;
    format      ascii;
    class       surfaceScalarField;
    location    "1.7";
    object      phi;
}
// * * * * * * * * * * * * * * * * * * * * * * * * * * * * * * * * * * * * * //

dimensions      [0 3 -1 0 0 0 0];

internalField   nonuniform List<scalar> 
5457
(
0.198417
0.00158328
0.196478
0.00193905
0.194187
0.00229043
0.191501
0.00268648
0.188416
0.00308454
0.184936
0.00348044
0.181053
0.00388246
0.176755
0.00429801
0.172023
0.00473223
0.166834
0.00518913
0.161162
0.00567221
0.154977
0.00618443
0.148249
0.00672797
0.140945
0.00730385
0.133034
0.00791144
0.124486
0.00854773
0.11528
0.00920646
0.105403
0.00987698
0.0948598
0.0105431
0.0836782
0.0111817
0.0719163
0.0117619
0.0596716
0.0122447
0.0470876
0.012584
0.0343533
0.0127343
0.0216661
0.0126872
0.00902872
0.0126374
-0.00290261
0.0119313
-0.0084547
0.00555209
-0.00802991
-0.00042479
-0.00802991
0.199927
0.00165603
0.199173
0.00269319
0.19796
0.00350374
0.196324
0.00432259
0.19426
0.00514796
0.191767
0.00597421
0.188836
0.00681337
0.185455
0.00767891
0.181606
0.00858117
0.177266
0.00952847
0.172411
0.0105281
0.167009
0.0115862
0.161029
0.0127078
0.154437
0.0138953
0.1472
0.0151485
0.139286
0.0164622
0.130667
0.017825
0.121327
0.0192171
0.111263
0.020607
0.100495
0.0219499
0.089073
0.023184
0.0770885
0.0242291
0.0646865
0.0249861
0.0520836
0.0253372
0.0396282
0.0251425
0.0280812
0.0241844
0.0185637
0.0214489
0.00876278
0.015353
0.00116554
0.00717245
-0.00686437
0.19978
0.00187636
0.199084
0.00338871
0.197941
0.00464701
0.196401
0.00586209
0.194472
0.00707741
0.192149
0.0082969
0.189428
0.00953466
0.186299
0.0108084
0.182747
0.0121331
0.178754
0.0135212
0.174298
0.0149839
0.169353
0.0165307
0.163892
0.0181694
0.157882
0.0199052
0.151292
0.0217388
0.144088
0.0236654
0.136242
0.0256713
0.127728
0.0277311
0.118532
0.0298033
0.108655
0.0318264
0.0981255
0.0337137
0.087006
0.0353487
0.0754125
0.0365795
0.063539
0.0372108
0.0517003
0.0369812
0.0403666
0.0355181
0.0297097
0.0321058
0.019148
0.0259146
0.00957892
0.0167416
0.00271455
0.199702
0.00217419
0.199005
0.00408569
0.197882
0.00576988
0.196369
0.00737589
0.194477
0.00896885
0.192207
0.0105665
0.189556
0.0121862
0.186516
0.0138483
0.183077
0.0155715
0.179227
0.0173717
0.174948
0.0192627
0.170222
0.0212568
0.165027
0.0233643
0.15934
0.0255921
0.153136
0.0279428
0.14639
0.0304123
0.139074
0.0329867
0.131167
0.0356386
0.122648
0.038322
0.113508
0.0409661
0.103753
0.0434687
0.0934133
0.0456887
0.0825551
0.0474377
0.0712956
0.0484702
0.0598071
0.0484697
0.0482865
0.0470387
0.0367852
0.0436071
0.0251699
0.0375299
0.0133268
0.0285847
0.0160413
0.199667
0.00250768
0.198962
0.00479064
0.197858
0.00687354
0.196373
0.00886047
0.194521
0.010821
0.192303
0.0127849
0.189715
0.0147739
0.186753
0.016811
0.183407
0.0189173
0.179667
0.0211114
0.17552
0.0234095
0.170952
0.0258255
0.165944
0.0283713
0.160481
0.0310552
0.154543
0.0338807
0.148111
0.0368446
0.141164
0.0399336
0.133682
0.0431206
0.125646
0.0463586
0.117037
0.0495744
0.107846
0.0526604
0.0980692
0.0554652
0.0877224
0.0577846
0.07684
0.0593526
0.0654741
0.0598356
0.0536779
0.0588348
0.0414294
0.0558556
0.0285706
0.0503887
0.0148444
0.0423109
0.0308858
0.199652
0.00285579
0.198946
0.00549639
0.197866
0.00795385
0.196419
0.0103076
0.194615
0.0126243
0.192458
0.0149421
0.189945
0.0172875
0.18707
0.0196859
0.183826
0.0221608
0.180205
0.0247328
0.176194
0.02742
0.171782
0.030238
0.166954
0.0331996
0.161695
0.0363141
0.155989
0.0395861
0.149821
0.0430132
0.143171
0.0465832
0.136021
0.0502706
0.128349
0.0540307
0.12013
0.0577931
0.111337
0.061453
0.101941
0.0648615
0.0919103
0.0678154
0.0812135
0.0700494
0.0698184
0.0712307
0.0576865
0.0709668
0.0447365
0.0688055
0.0308327
0.0642926
0.0158655
0.0572781
0.0467513
0.199649
0.00320664
0.198951
0.00619408
0.197899
0.00900586
0.196497
0.0117102
0.194751
0.01437
0.192665
0.0170279
0.190238
0.0197152
0.187464
0.0224597
0.184338
0.0252871
0.18085
0.0282199
0.176992
0.0312781
0.172752
0.0344785
0.168116
0.0378354
0.163071
0.0413591
0.157602
0.0450552
0.151692
0.048923
0.145323
0.0529524
0.138473
0.0571211
0.131114
0.0613891
0.123214
0.0656932
0.114729
0.0699381
0.105604
0.0739867
0.0957695
0.0776497
0.0851434
0.0806754
0.0736308
0.0827434
0.0611302
0.0834674
0.047531
0.0824048
0.0327424
0.0790811
0.0167752
0.0732453
0.0635264
0.199654
0.0035529
0.198972
0.0068759
0.197954
0.010024
0.196602
0.0130619
0.194923
0.0160495
0.192918
0.0190322
0.190588
0.0220454
0.187929
0.0251192
0.184934
0.0282814
0.181598
0.0315564
0.17791
0.0349658
0.17386
0.0385281
0.169437
0.0422588
0.164626
0.0461701
0.159412
0.0502693
0.153777
0.054558
0.1477
0.0590297
0.141154
0.0636671
0.134105
0.0684379
0.126509
0.0732895
0.118305
0.0781417
0.109415
0.0828769
0.0997357
0.0873287
0.0891414
0.0912698
0.0774852
0.0943996
0.0646145
0.0963381
0.0503923
0.0966269
0.0347515
0.0947219
0.0177819
0.090215
0.0813083
0.199663
0.00388964
0.199004
0.00753542
0.198025
0.0110026
0.196731
0.0143563
0.195125
0.017655
0.193211
0.0209459
0.190989
0.0242674
0.188456
0.0276522
0.185608
0.0311299
0.182438
0.0347267
0.178938
0.0384658
0.175098
0.0423674
0.170908
0.0464489
0.166354
0.0507244
0.161419
0.0552039
0.156085
0.0598924
0.150326
0.0647884
0.144112
0.0698817
0.137399
0.0751503
0.130133
0.0805559
0.122236
0.0860382
0.113608
0.0915055
0.104113
0.0968233
0.0935839
0.101799
0.0818213
0.106162
0.0686139
0.109546
0.0537753
0.111466
0.0372191
0.111278
0.0190751
0.108359
0.100383
0.199676
0.00421334
0.199044
0.00816738
0.198111
0.0119364
0.196879
0.0155876
0.195355
0.0191794
0.19354
0.0227604
0.191436
0.0263714
0.189041
0.0300475
0.186351
0.0338198
0.183362
0.0377163
0.180066
0.0417617
0.176455
0.0459782
0.172519
0.0503851
0.168244
0.0549988
0.163615
0.0598327
0.158612
0.0648962
0.153206
0.070194
0.147363
0.0757249
0.141034
0.0814793
0.134153
0.087437
0.126629
0.0935616
0.11834
0.0997942
0.109123
0.106041
0.0987642
0.112157
0.0870046
0.117922
0.0735508
0.122999
0.0581195
0.126897
0.0405333
0.128864
0.0208927
0.128
0.121276
0.199692
0.00452133
0.199092
0.00876749
0.198208
0.0128204
0.197045
0.0167503
0.195608
0.0206163
0.1939
0.0244682
0.191923
0.0283488
0.189676
0.032295
0.187156
0.0363396
0.18436
0.0405121
0.181283
0.0448389
0.177917
0.0493437
0.174254
0.054048
0.170282
0.0589709
0.165986
0.0641293
0.161344
0.0695377
0.15633
0.075208
0.150906
0.0811489
0.14502
0.0873654
0.1386
0.0938572
0.131545
0.100616
0.123718
0.107622
0.114928
0.114831
0.104921
0.122165
0.093365
0.129477
0.0798542
0.13651
0.0639358
0.142815
0.0452149
0.147585
0.0236029
0.149612
0.144879
0.19971
0.00481156
0.199145
0.00933223
0.198315
0.0136504
0.197226
0.0178397
0.195882
0.02196
0.194288
0.0260626
0.192445
0.0301917
0.190354
0.0343858
0.188014
0.0386793
0.185423
0.0431028
0.182578
0.0476842
0.179473
0.0524488
0.176101
0.05742
0.172452
0.0626196
0.168513
0.0680683
0.164265
0.0737857
0.159683
0.0797909
0.154728
0.0861031
0.149352
0.0927422
0.14348
0.0997291
0.13701
0.107086
0.129799
0.114833
0.121639
0.12299
0.112244
0.13156
0.101211
0.14051
0.0879953
0.149726
0.0718871
0.158923
0.0520653
0.167407
0.0278775
0.173799
0.172757
0.199729
0.00508241
0.199203
0.00985873
0.19843
0.0144229
0.197418
0.0188514
0.196173
0.0232057
0.194698
0.0275379
0.192996
0.0318935
0.191069
0.0363125
0.188918
0.0408303
0.186542
0.0454785
0.18394
0.0502863
0.181109
0.0552803
0.178043
0.0604856
0.174736
0.0659266
0.171177
0.071627
0.167352
0.0776113
0.163237
0.0839053
0.158803
0.090538
0.154002
0.0975431
0.148769
0.104961
0.143011
0.112844
0.13659
0.121255
0.129306
0.130275
0.120861
0.140005
0.110811
0.150559
0.0984848
0.162052
0.0828606
0.174548
0.0624147
0.187853
0.0351201
0.201094
0.207877
0.19975
0.00533261
0.199264
0.0103447
0.198552
0.0151347
0.197621
0.019782
0.196478
0.0243491
0.195127
0.0288893
0.193571
0.0334489
0.191815
0.0380689
0.18986
0.0427855
0.187707
0.0476313
0.185357
0.0526361
0.18281
0.0578276
0.180063
0.0632323
0.177113
0.0688763
0.173954
0.0747861
0.170576
0.0809897
0.166962
0.0875186
0.163091
0.0944094
0.158927
0.101707
0.15442
0.109469
0.149495
0.117769
0.144041
0.126708
0.137893
0.136424
0.13079
0.147107
0.122321
0.159029
0.11179
0.172583
0.0979703
0.188368
0.0785185
0.207305
0.0486705
0.230942
0.256547
0.199771
0.00556122
0.199328
0.0107883
0.198679
0.0157836
0.197832
0.0206286
0.196794
0.0253871
0.19557
0.0301131
0.194166
0.0348536
0.192585
0.0396502
0.19083
0.0445396
0.188907
0.049555
0.186816
0.0547266
0.184561
0.0600827
0.182143
0.0656505
0.179562
0.0714572
0.176817
0.0775308
0.173905
0.0839019
0.170818
0.0906053
0.167545
0.0976826
0.164067
0.105186
0.160354
0.113181
0.156364
0.121759
0.152031
0.131041
0.147256
0.141199
0.141881
0.152482
0.135646
0.165264
0.128083
0.180146
0.118254
0.198197
0.103911
0.221647
0.0777337
0.257119
0.334281
0.00761365
-0.00761365
0.014206
-0.00659234
0.019803
-0.00559696
0.0246461
-0.0048431
0.0288961
-0.00425004
0.0326419
-0.00374585
0.03594
-0.00329805
0.0388299
-0.0028899
0.04134
-0.00251008
0.0434934
-0.00215348
0.0453048
-0.00181139
0.0467549
-0.00145011
0.0478426
-0.00108765
0.0486061
-0.000763543
0.0490691
-0.000462919
0.0492738
-0.000204773
0.0492897
-1.58939e-05
0.049174
0.000115768
0.0489009
0.000273084
0.0483659
0.00053496
0.0475094
0.00085647
0.0463739
0.00113552
0.0450987
0.00127522
0.0438725
0.00122618
0.0428947
0.000977869
0.0423361
0.000558577
0.0422404
9.5696e-05
0.0428849
-0.000644492
0.0445695
-0.00168461
-0.00299022
0.00556129
-0.0131749
0.0109483
-0.0119793
0.015679
-0.0103277
0.0197994
-0.00896342
0.0234256
-0.0078763
0.0266293
-0.00694953
0.0294496
-0.00611842
0.0319092
-0.00534949
0.0340229
-0.00462378
0.035812
-0.00394255
0.0373057
-0.00330511
0.038456
-0.00260038
0.0392826
-0.00191426
0.0397972
-0.00127813
0.039577
-0.000242712
0.0384042
0.000968032
0.0362602
0.00212804
0.0334664
0.00290965
0.0303502
0.00338924
0.0271821
0.00370305
0.0241449
0.00389368
0.0214062
0.00387419
0.0191326
0.0035489
0.0174402
0.00291856
0.0163669
0.00205111
0.015914
0.00101147
0.0162894
-0.000279643
0.0177787
-0.00213379
0.0207165
-0.00462243
-0.00719159
0.00373407
-0.016909
0.00738061
-0.0156259
0.0105807
-0.0135278
0.0133457
-0.0117284
0.0157155
-0.0102461
0.0177205
-0.00895447
0.019378
-0.00777593
0.0206858
-0.00665726
0.0216221
-0.00556006
0.0221908
-0.00451133
0.0225347
-0.003649
0.0223862
-0.00245189
0.0210053
-0.000533315
0.0183544
0.00137274
0.0153248
0.00278689
0.0124139
0.00387893
0.00953969
0.00500229
0.00658666
0.00586267
0.00362243
0.00635347
0.000819539
0.00650594
-0.00162607
0.00633929
-0.00362842
0.00587654
-0.00515385
0.00507433
-0.0061312
0.00389591
-0.00646329
0.0023832
-0.00603963
0.000587808
-0.00464681
-0.00167246
-0.00223265
-0.00454795
0.00117591
-0.00803099
-0.0105536
0.00202913
-0.0189381
0.00380142
-0.0173982
0.00527286
-0.0149993
0.00644049
-0.012896
0.00728666
-0.0110923
0.00780418
-0.009472
0.00799356
-0.00796531
0.00784196
-0.00650566
0.00728668
-0.00500478
0.00610348
-0.00332814
0.00372087
-0.00126639
0.000477644
0.000791334
-0.00227338
0.00221771
-0.00456029
0.00365965
-0.0069135
0.00514009
-0.00942279
0.00638823
-0.0118669
0.00744642
-0.0141879
0.00818369
-0.0163365
0.00850201
-0.018225
0.00839446
-0.0197723
0.00788662
-0.0209003
0.00700453
-0.0215649
0.00573895
-0.0217463
0.00407725
-0.0214095
0.00204642
-0.0204969
-0.000324852
-0.0190487
-0.00312063
-0.0172272
-0.00636946
-0.0154369
-0.00982123
-0.0124708
0.00018822
-0.0191264
0.000117244
-0.0173272
-0.000235291
-0.0146467
-0.000769436
-0.0123619
-0.00161673
-0.010245
-0.00280232
-0.0082864
-0.00436661
-0.00640102
-0.00635381
-0.00451847
-0.00880029
-0.0025583
-0.0116183
-0.000510094
-0.0142084
0.00132363
-0.0163667
0.00294969
-0.0186362
0.00448722
-0.0209548
0.00597827
-0.0231908
0.00737605
-0.025355
0.00855242
-0.0273591
0.0094505
-0.0291482
0.00997282
-0.0306915
0.0100453
-0.0319485
0.00965151
-0.0328736
0.00881173
-0.0334256
0.0075565
-0.0335917
0.00590511
-0.03339
0.00387551
-0.0328445
0.00150088
-0.031986
-0.00118331
-0.0308984
-0.00420822
-0.0297536
-0.00751424
-0.028708
-0.0108669
-0.0135742
-0.00155945
-0.0175669
-0.0035552
-0.0153314
-0.0056564
-0.0125456
-0.00794267
-0.0100756
-0.0103924
-0.00779525
-0.0130144
-0.00566441
-0.0158007
-0.00361473
-0.0187095
-0.00160964
-0.0215481
0.000280298
-0.0240579
0.00199971
-0.0263467
0.00361245
-0.0286059
0.00520891
-0.0308459
0.00672716
-0.0330151
0.00814754
-0.0350457
0.00940666
-0.0369062
0.0104129
-0.0385485
0.0110928
-0.0399412
0.0113655
-0.0410688
0.0111729
-0.0419169
0.0104996
-0.04247
0.00936474
-0.0427182
0.00780477
-0.042672
0.00585884
-0.0423641
0.00356769
-0.0418364
0.00097318
-0.0411483
-0.00187146
-0.0403934
-0.00496307
-0.0396785
-0.00822922
-0.0390534
-0.0114919
-0.0141476
-0.00334345
-0.0142235
-0.00703647
-0.0116384
-0.0107174
-0.00886459
-0.014361
-0.00643209
-0.0179375
-0.0042187
-0.0214052
-0.00219675
-0.024703
-0.000316875
-0.027674
0.00136137
-0.0303261
0.00293234
-0.0328023
0.0044759
-0.035196
0.00600623
-0.0374826
0.00749551
-0.0396527
0.00889721
-0.0416725
0.0101673
-0.0435054
0.0112396
-0.0451257
0.0120333
-0.0465069
0.0124739
-0.0476336
0.0124921
-0.048502
0.0120413
-0.0491125
0.0111102
-0.0494679
0.00972009
-0.0495768
0.00791365
-0.0494609
0.00574301
-0.0491597
0.00326648
-0.0487204
0.000533857
-0.0482099
-0.00238196
-0.0477106
-0.00546236
-0.0472918
-0.00864803
-0.046982
-0.0118017
-0.0143395
-0.00502546
-0.00919801
-0.0101706
-0.00649328
-0.0150795
-0.0039557
-0.0196385
-0.00187303
-0.0237932
-6.4028e-05
-0.027478
0.001488
-0.0307173
0.00292247
-0.0336522
0.00429622
-0.0363994
0.0056796
-0.0389821
0.00705856
-0.0414007
0.00842479
-0.0436509
0.00974578
-0.0457273
0.0109736
-0.0476129
0.0120529
-0.0492882
0.0129149
-0.0507381
0.0134832
-0.0519495
0.0136853
-0.0529166
0.0134593
-0.0536416
0.0127663
-0.0541309
0.0115995
-0.054395
0.00998423
-0.0544518
0.00797041
-0.0543314
0.00562261
-0.0540775
0.00301254
-0.0537475
0.000203938
-0.0533978
-0.00273167
-0.0531042
-0.00575598
-0.0529177
-0.00883451
-0.0528666
-0.0118528
-0.01424
-0.00664622
-0.0025518
-0.0129518
-0.000187743
-0.0184183
0.00151083
-0.0232158
0.00292444
-0.0274029
0.00412313
-0.0311303
0.00521536
-0.0345044
0.0062966
-0.037593
0.00738479
-0.0404209
0.00850756
-0.0430185
0.00965619
-0.0454017
0.010808
-0.0475794
0.0119234
-0.0495549
0.0129492
-0.0513244
0.0138223
-0.0528802
0.0144707
-0.0542155
0.0148184
-0.0553247
0.0147946
-0.0562067
0.0143413
-0.0568652
0.0134247
-0.0573081
0.0120424
-0.0575489
0.010225
-0.0576094
0.00803089
-0.0575238
0.0055371
-0.0573397
0.00282843
-0.0571174
-1.83547e-05
-0.0569156
-0.00293356
-0.0567964
-0.00587519
-0.0568068
-0.00882407
-0.0569746
-0.011685
-0.0139185
-0.00749071
0.00493892
-0.0141483
0.00646981
-0.0199268
0.00728937
-0.0249718
0.0079694
-0.0294004
0.00855179
-0.0333142
0.00912915
-0.0367866
0.00976897
-0.0398963
0.0104945
-0.0426972
0.0113085
-0.045231
0.01219
-0.0475265
0.0131035
-0.0496032
0.0140001
-0.0514733
0.0148193
-0.0531417
0.0154908
-0.0546088
0.0159378
-0.0558728
0.0160824
-0.0569314
0.0158532
-0.0577839
0.0151938
-0.0584324
0.0140732
-0.0588831
0.0124931
-0.0591484
0.0104903
-0.0592506
0.00813314
-0.0592258
0.00551231
-0.0591246
0.00272719
-0.0590091
-0.000133853
-0.0589393
-0.00300332
-0.0589722
-0.00584233
-0.0591553
-0.00864096
-0.0595135
-0.0113269
-0.0134145
-0.00764873
0.0125876
-0.0146769
0.013498
-0.020797
0.0134095
-0.0260335
0.0132059
-0.0305257
0.013044
-0.0344113
0.0130147
-0.0378016
0.0131593
-0.0407929
0.0134858
-0.0434586
0.0139741
-0.0458513
0.0145826
-0.0480079
0.0152601
-0.0499553
0.0159475
-0.0517121
0.016576
-0.0532892
0.0170679
-0.0546913
0.0173399
-0.0559188
0.0173099
-0.0569693
0.0169036
-0.0578393
0.0160638
-0.058526
0.01476
-0.0590304
0.0129974
-0.0593607
0.0108207
-0.059537
0.00830937
-0.0595946
0.00556993
-0.0595866
0.00271923
-0.059577
-0.000143523
-0.0596274
-0.00295286
-0.0597944
-0.00567534
-0.0601305
-0.00830488
-0.06066
-0.0107974
-0.0127404
-0.00804147
0.0206291
-0.0154024
0.020859
-0.0215951
0.0196021
-0.0267139
0.0183248
-0.0309876
0.0173176
-0.0346096
0.0166368
-0.0377238
0.0162734
-0.040447
0.0162091
-0.0428663
0.0163934
-0.0450382
0.0167546
-0.0470017
0.0172236
-0.0487868
0.0177326
-0.0504163
0.0182055
-0.0519046
0.0185562
-0.0532586
0.0186938
-0.0544784
0.0185297
-0.0555592
0.0179845
-0.0564923
0.0169969
-0.0572667
0.0155345
-0.0578742
0.0136049
-0.0583148
0.0112612
-0.0586024
0.00859696
-0.0587689
0.00573642
-0.0588681
0.0028184
-0.0589668
-4.47875e-05
-0.0591294
-0.00279023
-0.0594143
-0.00539043
-0.0598845
-0.00783473
-0.0605724
-0.0101095
-0.0118971
-0.00885801
0.0294871
-0.0166129
0.0286138
-0.0226039
0.0255931
-0.0272154
0.0229363
-0.0309347
0.021037
-0.0340353
0.0197374
-0.036668
0.0189061
-0.0389652
0.0185062
-0.0410237
0.018452
-0.0428929
0.0186238
-0.0446035
0.0189342
-0.046185
0.0193142
-0.0476637
0.0196842
-0.0490564
0.0199489
-0.0503705
0.0200079
-0.0516053
0.0197645
-0.0527528
0.019132
-0.0537972
0.0180413
-0.0547169
0.0164541
-0.0554894
0.0143774
-0.0561008
0.0118727
-0.0565532
0.00904936
-0.0568704
0.00605356
-0.0571018
0.00304985
-0.0573193
0.000172654
-0.0575909
-0.00251858
-0.0579776
-0.00500378
-0.0585596
-0.00725271
-0.0593952
-0.00927391
-0.0108801
-0.0104092
0.0398963
-0.0188276
0.0370322
-0.0241762
0.0309417
-0.0276863
0.0264464
-0.0304402
0.0237909
-0.0327575
0.0220547
-0.0346986
0.0208473
-0.0364045
0.0202121
-0.0379911
0.0200385
-0.0394769
0.0201096
-0.0408685
0.0203258
-0.0421937
0.0206393
-0.0434843
0.0209748
-0.0447601
0.0212247
-0.0460288
0.0212766
-0.0472899
0.0210256
-0.048534
0.0203761
-0.0497395
0.0192468
-0.0508719
0.0175866
-0.0518899
0.0153954
-0.0527575
0.0127403
-0.0534564
0.00974824
-0.053991
0.00658821
-0.0544027
0.00346154
-0.0547657
0.000535599
-0.0551531
-0.00213113
-0.0556259
-0.00453104
-0.0562892
-0.00658942
-0.0572577
-0.0083054
-0.00968591
-0.0134852
0.0533815
-0.023023
0.0465701
-0.0268573
0.0347759
-0.0281561
0.0277452
-0.0294419
0.0250767
-0.0307882
0.023401
-0.0318403
0.0218993
-0.0327763
0.0211481
-0.0337976
0.0210599
-0.0348324
0.0211445
-0.0358319
0.0213253
-0.0368297
0.0216371
-0.0378737
0.0220187
-0.038987
0.0223381
-0.0401769
0.0224665
-0.0414465
0.0222952
-0.0427916
0.0217212
-0.0441914
0.0206465
-0.0456028
0.018998
-0.046964
0.0167566
-0.048208
0.0139843
-0.0492815
0.0108217
-0.0501515
0.00745822
-0.050834
0.00414408
-0.0514045
0.00110607
-0.0519392
-0.00159643
-0.0524907
-0.00397952
-0.0531938
-0.00588637
-0.0542673
-0.00723191
-0.00830466
0.207446
0.00577492
0.207032
0.0112027
0.206427
0.0163887
0.205639
0.0214162
0.204676
0.0263501
0.203544
0.0312448
0.20225
0.0361479
0.200799
0.0411011
0.199197
0.0461416
0.197449
0.0513025
0.195562
0.056614
0.19354
0.0621045
0.19139
0.0678013
0.189115
0.0737318
0.186721
0.0799244
0.184213
0.0864104
0.181592
0.0932256
0.178862
0.100413
0.176023
0.108025
0.173072
0.116132
0.170007
0.124824
0.166822
0.134225
0.163515
0.144506
0.160088
0.155909
0.156566
0.168786
0.153048
0.183664
0.14991
0.201335
0.148851
0.222707
0.160737
0.245233
0.258107
0.236911
0.212489
0.00596828
0.212115
0.0115773
0.211569
0.0169348
0.21086
0.0221253
0.209995
0.0272144
0.208983
0.0322567
0.207831
0.0372999
0.206547
0.0423858
0.205137
0.0475512
0.203611
0.052829
0.201976
0.0582489
0.200241
0.0638388
0.198417
0.0696253
0.196514
0.0756349
0.194544
0.0818952
0.192518
0.0884359
0.190453
0.0952911
0.188364
0.102501
0.186275
0.110115
0.184213
0.118194
0.182218
0.126819
0.180353
0.136091
0.178717
0.146143
0.177482
0.157144
0.176973
0.169295
0.177848
0.182789
0.181532
0.197652
0.190642
0.213596
0.206195
0.229681
0.244947
0.219354
0.217657
0.00613916
0.217326
0.0119081
0.216845
0.017416
0.216222
0.0227482
0.215465
0.0279707
0.214584
0.0331378
0.213587
0.0382971
0.212483
0.04349
0.211281
0.0487527
0.209993
0.0541173
0.20863
0.0596125
0.207203
0.0652649
0.205729
0.0710996
0.204223
0.0771413
0.202703
0.0834151
0.201191
0.0899476
0.199714
0.0967684
0.198304
0.103911
0.197002
0.111416
0.195865
0.119331
0.194971
0.127713
0.194433
0.136629
0.194421
0.146154
0.195199
0.156365
0.197178
0.167316
0.200967
0.178999
0.207334
0.191284
0.216929
0.204002
0.229443
0.217166
0.228199
0.246191
0.22295
0.00628556
0.222667
0.0121912
0.222256
0.0178267
0.221727
0.0232778
0.221087
0.0286101
0.220347
0.0338779
0.219517
0.0391279
0.218606
0.0444008
0.217627
0.0497318
0.216593
0.0551516
0.215517
0.0606876
0.214418
0.0663644
0.213313
0.0722049
0.212223
0.0782308
0.211175
0.0844635
0.210197
0.0909249
0.209328
0.0976379
0.208612
0.104628
0.208107
0.111921
0.20789
0.119548
0.208064
0.127539
0.208768
0.135925
0.210194
0.144728
0.212605
0.153954
0.216346
0.163575
0.221833
0.173513
0.229507
0.18361
0.239929
0.19358
0.254003
0.203092
0.209892
0.27231
0.228373
0.00640561
0.228141
0.0124229
0.227806
0.0181618
0.227377
0.0237073
0.226862
0.0291248
0.226272
0.0344676
0.225619
0.0397817
0.224913
0.0451064
0.224169
0.0504756
0.223403
0.0559184
0.22263
0.0614601
0.221872
0.0671229
0.22115
0.0729266
0.220491
0.0788894
0.219927
0.0850279
0.219494
0.091358
0.219237
0.0978949
0.219211
0.104653
0.219486
0.111646
0.220149
0.118885
0.221313
0.126376
0.223121
0.134117
0.225757
0.142092
0.229451
0.15026
0.234479
0.158547
0.241167
0.166825
0.249887
0.17489
0.261079
0.182388
0.275208
0.188964
0.193537
0.291562
0.233928
0.00649763
0.233751
0.0126002
0.233497
0.0184165
0.233173
0.0240308
0.23279
0.0295075
0.232359
0.0348987
0.231892
0.0402492
0.231401
0.0455968
0.230903
0.0509737
0.230415
0.0564068
0.229956
0.0619191
0.229549
0.0675299
0.22922
0.0732555
0.228999
0.0791098
0.228923
0.0851043
0.229033
0.0912482
0.229379
0.0975485
0.230023
0.104009
0.231038
0.110631
0.232516
0.117407
0.234566
0.124325
0.237325
0.131358
0.240955
0.138462
0.245646
0.145569
0.251616
0.152577
0.259104
0.159337
0.268347
0.165646
0.27952
0.171215
0.292709
0.175775
0.178817
0.307429
0.239619
0.0065601
0.239499
0.01272
0.239329
0.0185867
0.239117
0.0242431
0.238872
0.0297519
0.238607
0.0351643
0.238333
0.040523
0.238065
0.0458642
0.237821
0.051218
0.237619
0.0566091
0.23748
0.0620576
0.237431
0.0675797
0.237498
0.073188
0.237716
0.0788918
0.238123
0.0846973
0.238764
0.0906072
0.239692
0.0966206
0.24097
0.102732
0.24267
0.10893
0.244882
0.115196
0.247706
0.121501
0.251261
0.127803
0.255682
0.134042
0.261115
0.140136
0.267716
0.145976
0.275631
0.151422
0.284978
0.1563
0.295798
0.160396
0.308075
0.163498
0.165342
0.32155
0.245447
0.00659175
0.245388
0.0127798
0.245305
0.0186689
0.245209
0.0243397
0.245107
0.0298532
0.245013
0.0352587
0.244939
0.0405971
0.2449
0.0459027
0.244915
0.0512032
0.245004
0.0565206
0.245189
0.0618724
0.245497
0.0672713
0.245959
0.0727262
0.246609
0.0782419
0.247487
0.0838196
0.248638
0.0894558
0.250116
0.0951428
0.251981
0.100867
0.254302
0.106609
0.257159
0.112339
0.26064
0.11802
0.264842
0.1236
0.26987
0.129014
0.275827
0.134178
0.282813
0.138991
0.290906
0.143329
0.300151
0.147054
0.310537
0.150011
0.321993
0.152042
0.153018
0.334317
0.251417
0.00659156
0.251419
0.0127779
0.251428
0.0186604
0.25145
0.0243172
0.251496
0.0298074
0.251577
0.035178
0.251706
0.0404679
0.2519
0.045709
0.252176
0.0509267
0.252556
0.0561403
0.253064
0.0613644
0.253727
0.0666084
0.254576
0.0718777
0.255645
0.0771729
0.256974
0.0824906
0.258607
0.0878223
0.260595
0.0931547
0.262994
0.0984682
0.265866
0.103737
0.269278
0.108927
0.273303
0.113994
0.278017
0.118886
0.283494
0.123537
0.289802
0.12787
0.296997
0.131796
0.305112
0.135214
0.314147
0.138019
0.324056
0.140101
0.334741
0.141357
0.141729
0.34603
0.257532
0.00655876
0.257597
0.0127126
0.257698
0.0185592
0.257842
0.0241735
0.258037
0.0296122
0.258295
0.0349199
0.25863
0.0401334
0.259057
0.0452821
0.259595
0.0503887
0.260265
0.0554703
0.261091
0.0605383
0.2621
0.0655992
0.263322
0.0706551
0.264792
0.0757031
0.266547
0.0807358
0.268629
0.085741
0.271082
0.090701
0.273958
0.0955928
0.277308
0.100387
0.281188
0.105046
0.285654
0.109528
0.290761
0.113779
0.296558
0.117741
0.303084
0.121344
0.310362
0.124517
0.318395
0.127181
0.327155
0.129259
0.336578
0.130679
0.34656
0.131375
0.131329
0.35696
0.263793
0.00649286
0.263923
0.0125831
0.264118
0.018364
0.264384
0.0239072
0.26473
0.0292663
0.265166
0.0344838
0.265706
0.0395938
0.266365
0.0446233
0.267161
0.0495926
0.268115
0.054516
0.269251
0.0594025
0.270594
0.0642559
0.272174
0.0690753
0.274022
0.073855
0.276173
0.0785848
0.278664
0.0832497
0.281536
0.0878295
0.28483
0.0922992
0.288588
0.0966281
0.292855
0.10078
0.29767
0.104713
0.303069
0.10838
0.309082
0.111728
0.315724
0.114702
0.322996
0.117244
0.330882
0.119296
0.339336
0.120805
0.348291
0.121724
0.357649
0.122017
0.121686
0.367291
0.270206
0.00639367
0.2704
0.0123891
0.27069
0.0180747
0.271079
0.0235181
0.271575
0.0287702
0.272188
0.0338708
0.27293
0.0388513
0.273817
0.0437364
0.274866
0.0485438
0.276096
0.0532858
0.27753
0.0579687
0.279192
0.0625941
0.281108
0.0671587
0.283309
0.071655
0.285823
0.0760705
0.288684
0.0803888
0.291925
0.0845886
0.295579
0.0886445
0.299681
0.0925267
0.30426
0.096201
0.309343
0.0996297
0.314951
0.102772
0.321097
0.105583
0.327779
0.10802
0.334986
0.110038
0.342685
0.111597
0.350828
0.112661
0.359347
0.113205
0.368153
0.113211
0.112691
0.377148
0.276773
0.00626128
0.277032
0.0121308
0.277415
0.0176915
0.277926
0.0230072
0.27857
0.0281256
0.279358
0.0330835
0.280299
0.0379099
0.281408
0.0426271
0.282701
0.0472507
0.284196
0.0517905
0.285914
0.0562511
0.287876
0.060632
0.290106
0.0649285
0.29263
0.0691313
0.295473
0.0732273
0.298663
0.0771991
0.302226
0.0810259
0.306187
0.0846832
0.31057
0.0881431
0.315396
0.0913751
0.32068
0.0943463
0.326429
0.0970224
0.332643
0.0993685
0.339312
0.101351
0.346412
0.102938
0.353907
0.104102
0.361745
0.104823
0.369862
0.105088
0.378182
0.104891
0.104251
0.386623
0.283498
0.00609605
0.28382
0.0118089
0.284295
0.0172159
0.284926
0.0223765
0.285716
0.0273352
0.286674
0.032126
0.287808
0.0367755
0.289132
0.0413034
0.290659
0.0457234
0.292407
0.0500434
0.294391
0.0542662
0.296633
0.0583902
0.299152
0.0624094
0.30197
0.0663138
0.305107
0.07009
0.308585
0.0737211
0.312424
0.0771872
0.316642
0.0804657
0.321253
0.0835318
0.326269
0.086359
0.331695
0.08892
0.337531
0.091187
0.343766
0.0931334
0.350382
0.0947345
0.357351
0.0959688
0.364634
0.0968197
0.37218
0.0972763
0.379933
0.0973349
0.387825
0.0969988
0.0962883
0.395788
0.290384
0.00589859
0.290768
0.0114247
0.291334
0.0166498
0.292082
0.0216289
0.293014
0.0264032
0.294136
0.031004
0.295456
0.0354552
0.296985
0.0397746
0.298735
0.0439737
0.300719
0.048059
0.302953
0.0520321
0.305453
0.0558903
0.308235
0.059627
0.311317
0.0632323
0.314714
0.0666929
0.318442
0.0699931
0.322514
0.0731147
0.326942
0.0760375
0.331734
0.0787403
0.336892
0.081201
0.342414
0.0833974
0.348293
0.0853082
0.354513
0.0869138
0.36105
0.0881972
0.367874
0.089145
0.374945
0.0897482
0.382219
0.0900032
0.389641
0.0899125
0.397156
0.0894841
0.0887388
0.404705
0.297435
0.00566975
0.29788
0.0109798
0.298534
0.0159957
0.299394
0.0207681
0.300463
0.0253347
0.301743
0.029724
0.30324
0.0339576
0.304964
0.0380512
0.306923
0.0420148
0.309128
0.0458535
0.311593
0.0495678
0.314328
0.0531547
0.317348
0.0566073
0.320664
0.0599162
0.324288
0.0630689
0.32823
0.0660512
0.332498
0.068847
0.337096
0.0714392
0.342026
0.0738098
0.347286
0.0759412
0.352867
0.0778161
0.358757
0.0794189
0.364935
0.0807358
0.371376
0.0817561
0.378049
0.0824724
0.384915
0.0828815
0.391934
0.0829848
0.399058
0.0827884
0.406239
0.082303
0.0815492
0.413429
0.304654
0.00541059
0.305158
0.0104764
0.305896
0.015257
0.306866
0.0197986
0.308065
0.0241355
0.309496
0.0282936
0.311161
0.0322921
0.313067
0.036145
0.315221
0.0398606
0.317632
0.0434431
0.320307
0.0468926
0.323256
0.0502055
0.326488
0.0533754
0.330011
0.0563934
0.333831
0.0592486
0.337954
0.0619282
0.342383
0.0644186
0.347116
0.0667056
0.352151
0.0687748
0.35748
0.0706123
0.363091
0.0722056
0.368966
0.0735435
0.375085
0.0746172
0.38142
0.0754208
0.387941
0.0759515
0.394612
0.0762101
0.401396
0.0762012
0.408251
0.0759331
0.415136
0.0754178
0.0746745
0.422011
0.312047
0.00512229
0.312606
0.00991677
0.313426
0.0144372
0.314499
0.0187253
0.315823
0.0228122
0.317395
0.0267209
0.319219
0.0304688
0.321296
0.0340679
0.323631
0.0375254
0.326229
0.0408448
0.329096
0.0440255
0.332238
0.0470643
0.335658
0.0499552
0.339361
0.0526902
0.34335
0.0552598
0.347625
0.0576532
0.352184
0.0598593
0.357023
0.0618664
0.362135
0.0636636
0.367507
0.0652404
0.373124
0.0665881
0.378968
0.0676994
0.385016
0.0685694
0.391241
0.0691958
0.397614
0.069579
0.404101
0.0697225
0.41067
0.0696328
0.417283
0.0693196
0.423906
0.0687949
0.0680765
0.430504
0.319616
0.00480615
0.320229
0.00930352
0.321126
0.0135402
0.322298
0.0175535
0.323738
0.0213714
0.325445
0.0250145
0.327416
0.0284979
0.329651
0.0318322
0.332153
0.0350235
0.334923
0.0380746
0.337964
0.040985
0.341277
0.0437514
0.344863
0.0463687
0.348724
0.04883
0.352856
0.0511272
0.357258
0.0532516
0.361923
0.0551941
0.366843
0.0569459
0.372008
0.0584987
0.377404
0.0598452
0.383012
0.0609796
0.388813
0.061898
0.394785
0.0625982
0.4009
0.0630806
0.407131
0.0633478
0.413448
0.0634051
0.419821
0.06326
0.426218
0.0629225
0.432609
0.0624043
0.0617216
0.438964
0.327366
0.00446355
0.32803
0.00863931
0.329
0.0125699
0.330265
0.0162888
0.331816
0.0198204
0.333648
0.023183
0.335756
0.0263898
0.338138
0.0294499
0.340793
0.0323687
0.343719
0.0351483
0.346916
0.0377881
0.350382
0.0402855
0.354115
0.0426359
0.358111
0.0448336
0.362366
0.0468722
0.366873
0.0487446
0.371624
0.0504438
0.376606
0.0519632
0.381808
0.0532971
0.387212
0.0544407
0.392801
0.0553907
0.398554
0.0561454
0.404447
0.0567048
0.410457
0.0570712
0.416556
0.0572487
0.422717
0.0572433
0.428914
0.057063
0.435119
0.0567177
0.441305
0.0562184
0.0555797
0.447447
0.335302
0.0040958
0.336014
0.00792677
0.337054
0.0115305
0.338406
0.0149364
0.34006
0.0181659
0.342009
0.0212348
0.344244