/*--------------------------------*- C++ -*----------------------------------*\
  =========                 |
  \\      /  F ield         | OpenFOAM: The Open Source CFD Toolbox
   \\    /   O peration     | Website:  https://openfoam.org
    \\  /    A nd           | Version:  7
     \\/     M anipulation  |
\*---------------------------------------------------------------------------*/
FoamFile
{
    version     2.0;
    format      ascii;
    class       volVectorField;
    location    "1.7";
    object      U;
}
// * * * * * * * * * * * * * * * * * * * * * * * * * * * * * * * * * * * * * //

dimensions      [0 1 -1 0 0 0 0];

internalField   nonuniform List<vector> 
2790
(
(9.94397 0.0205339 0)
(9.87564 0.0296089 0)
(9.77503 0.0360203 0)
(9.64912 0.0425955 0)
(9.50361 0.0494322 0)
(9.33941 0.0564813 0)
(9.1557 0.0638739 0)
(8.95157 0.0717733 0)
(8.72621 0.0803191 0)
(8.47862 0.0896381 0)
(8.20761 0.0998571 0)
(7.9118 0.111106 0)
(7.58967 0.123517 0)
(7.23962 0.137215 0)
(6.86005 0.152315 0)
(6.44942 0.168902 0)
(6.00645 0.187017 0)
(5.53024 0.206624 0)
(5.02054 0.227579 0)
(4.47809 0.249581 0)
(3.9049 0.272124 0)
(3.30473 0.294448 0)
(2.68339 0.315513 0)
(2.04899 0.334143 0)
(1.41051 0.35039 0)
(0.797014 0.372477 0)
(0.110711 0.324474 0)
(-0.467926 -0.113521 0)
(-0.453561 -0.294314 0)
(-0.230201 -0.421868 0)
(9.99848 0.0407362 0)
(9.98138 0.0624468 0)
(9.93556 0.0792321 0)
(9.86385 0.0967412 0)
(9.77049 0.115261 0)
(9.65649 0.134643 0)
(9.5212 0.155143 0)
(9.36379 0.177121 0)
(9.18345 0.20089 0)
(8.9792 0.226732 0)
(8.74986 0.254923 0)
(8.49403 0.28573 0)
(8.21018 0.319404 0)
(7.89665 0.356158 0)
(7.55175 0.39613 0)
(7.17381 0.439343 0)
(6.76134 0.485638 0)
(6.31319 0.534592 0)
(5.8288 0.585422 0)
(5.30848 0.636864 0)
(4.75385 0.68706 0)
(4.16825 0.733445 0)
(3.55731 0.772686 0)
(2.92978 0.800749 0)
(2.29842 0.813301 0)
(1.69159 0.806634 0)
(1.10596 0.746473 0)
(0.657734 0.547209 0)
(0.183584 0.222554 0)
(-0.00774269 -0.454201 0)
(9.99557 0.043263 0)
(9.97548 0.0753792 0)
(9.93162 0.1035 0)
(9.86458 0.132566 0)
(9.77731 0.163289 0)
(9.6709 0.195658 0)
(9.54504 0.230024 0)
(9.39909 0.2669 0)
(9.23241 0.306776 0)
(9.04419 0.350114 0)
(8.83344 0.397372 0)
(8.59898 0.449006 0)
(8.33945 0.505452 0)
(8.05335 0.567091 0)
(7.7391 0.634197 0)
(7.39507 0.706866 0)
(7.01967 0.784913 0)
(6.61149 0.867732 0)
(6.16947 0.954128 0)
(5.69322 1.04211 0)
(5.18329 1.12865 0)
(4.64174 1.20946 0)
(4.07273 1.27874 0)
(3.48349 1.32881 0)
(2.88515 1.34946 0)
(2.29791 1.32568 0)
(1.73039 1.22002 0)
(1.21497 0.972626 0)
(0.700146 0.570127 0)
(0.356909 -0.15765 0)
(9.99401 0.0495775 0)
(9.97173 0.0933561 0)
(9.9277 0.133786 0)
(9.86193 0.17448 0)
(9.77646 0.216753 0)
(9.67233 0.261021 0)
(9.54947 0.307821 0)
(9.40745 0.357828 0)
(9.24578 0.411716 0)
(9.06388 0.470132 0)
(8.86104 0.53372 0)
(8.63636 0.60312 0)
(8.38884 0.678956 0)
(8.11736 0.761794 0)
(7.82071 0.852082 0)
(7.49761 0.950067 0)
(7.14678 1.05566 0)
(6.76694 1.16826 0)
(6.35699 1.28652 0)
(5.91613 1.40807 0)
(5.44414 1.52916 0)
(4.94172 1.64425 0)
(4.41103 1.74559 0)
(3.8563 1.82255 0)
(3.28403 1.86058 0)
(2.70479 1.83946 0)
(2.12422 1.72515 0)
(1.5531 1.47719 0)
(0.957178 1.08306 0)
(0.509253 0.501036 0)
(9.99329 0.0573141 0)
(9.96986 0.111151 0)
(9.92575 0.162379 0)
(9.86114 0.213696 0)
(9.77751 0.266768 0)
(9.6757 0.322377 0)
(9.55569 0.381205 0)
(9.41717 0.44402 0)
(9.25971 0.511604 0)
(9.08287 0.584721 0)
(8.88604 0.664126 0)
(8.66853 0.750576 0)
(8.42955 0.844806 0)
(8.16826 0.947499 0)
(7.88374 1.05922 0)
(7.57503 1.18033 0)
(7.24114 1.31083 0)
(6.88104 1.45021 0)
(6.4937 1.59712 0)
(6.07818 1.74908 0)
(5.63368 1.90203 0)
(5.15975 2.04978 0)
(4.65655 2.18349 0)
(4.12516 2.29092 0)
(3.56755 2.35562 0)
(2.98726 2.35628 0)
(2.38545 2.26387 0)
(1.76531 2.04657 0)
(1.08931 1.69021 0)
(0.53651 1.15239 0)
(9.993 0.0656615 0)
(9.96915 0.128937 0)
(9.92538 0.19045 0)
(9.86221 0.25227 0)
(9.78081 0.316081 0)
(9.68179 0.382885 0)
(9.56515 0.453491 0)
(9.43065 0.528753 0)
(9.27793 0.609552 0)
(9.10658 0.69676 0)
(8.91608 0.791242 0)
(8.70585 0.893857 0)
(8.4752 1.00544 0)
(8.22343 1.12677 0)
(7.94975 1.25852 0)
(7.65337 1.40113 0)
(7.33342 1.55474 0)
(6.98898 1.71891 0)
(6.61901 1.89245 0)
(6.22235 2.07294 0)
(5.79769 2.25639 0)
(5.34356 2.43656 0)
(4.85838 2.60438 0)
(4.34056 2.74723 0)
(3.78848 2.84841 0)
(3.20091 2.88693 0)
(2.5752 2.83686 0)
(1.91243 2.67017 0)
(1.17212 2.37237 0)
(0.54983 1.89226 0)
(9.99295 0.0742201 0)
(9.96919 0.146592 0)
(9.92619 0.217882 0)
(9.86477 0.289796 0)
(9.78594 0.363951 0)
(9.69018 0.441499 0)
(9.57749 0.523391 0)
(9.44764 0.610585 0)
(9.30036 0.704054 0)
(9.13527 0.80477 0)
(8.95192 0.913692 0)
(8.74977 1.03177 0)
(8.52821 1.15992 0)
(8.28657 1.29902 0)
(8.02412 1.44982 0)
(7.74009 1.61288 0)
(7.43359 1.78844 0)
(7.10363 1.97624 0)
(6.749 2.1753 0)
(6.36822 2.38351 0)
(5.95937 2.59721 0)
(5.52001 2.81063 0)
(5.04706 3.01518 0)
(4.53674 3.19879 0)
(3.98465 3.34532 0)
(3.38619 3.43444 0)
(2.73586 3.44164 0)
(2.03522 3.33968 0)
(1.24114 3.11154 0)
(0.563371 2.69064 0)
(9.99304 0.0827557 0)
(9.96973 0.163928 0)
(9.92789 0.24451 0)
(9.86853 0.326062 0)
(9.79264 0.410135 0)
(9.70059 0.497984 0)
(9.59236 0.590686 0)
(9.4678 0.689294 0)
(9.32665 0.794869 0)
(9.16861 0.908468 0)
(8.99327 1.03114 0)
(8.80013 1.16393 0)
(8.58864 1.30784 0)
(8.35813 1.46383 0)
(8.1079 1.63278 0)
(7.83711 1.81536 0)
(7.54478 2.01199 0)
(7.22976 2.22264 0)
(6.89054 2.44664 0)
(6.52521 2.68235 0)
(6.13118 2.92676 0)
(5.70505 3.17491 0)
(5.24233 3.41924 0)
(4.73736 3.64882 0)
(4.18334 3.84862 0)
(3.57294 3.99906 0)
(2.89807 4.07589 0)
(2.16107 4.05018 0)
(1.31551 3.89926 0)
(0.583066 3.53726 0)
(9.99324 0.0911185 0)
(9.97064 0.180773 0)
(9.93028 0.27019 0)
(9.8733 0.360903 0)
(9.80069 0.45443 0)
(9.71276 0.552094 0)
(9.6095 0.655077 0)
(9.49079 0.764521 0)
(9.35644 0.881568 0)
(9.20618 1.00736 0)
(9.03967 1.14302 0)
(8.85646 1.2897 0)
(8.65603 1.44848 0)
(8.43777 1.62046 0)
(8.20093 1.80661 0)
(7.94464 2.0078 0)
(7.66782 2.22465 0)
(7.36909 2.45746 0)
(7.04666 2.70598 0)
(6.69811 2.96922 0)
(6.32022 3.24501 0)
(5.90862 3.52957 0)
(5.45749 3.81678 0)
(4.95937 4.09739 0)
(4.40508 4.35797 0)
(3.78443 4.57994 0)
(3.08602 4.73868 0)
(2.31161 4.80185 0)
(1.41001 4.73822 0)
(0.614144 4.43865 0)
(9.99351 0.099205 0)
(9.97183 0.196987 0)
(9.93322 0.29478 0)
(9.87892 0.394158 0)
(9.80991 0.496633 0)
(9.72649 0.603581 0)
(9.62865 0.716268 0)
(9.51631 0.835917 0)
(9.38935 0.963745 0)
(9.24755 1.10097 0)
(9.09063 1.2488 0)
(8.91822 1.40847 0)
(8.72983 1.58118 0)
(8.52489 1.76812 0)
(8.30269 1.97043 0)
(8.06232 2.18919 0)
(7.80262 2.42529 0)
(7.52205 2.67942 0)
(7.21857 2.95189 0)
(6.88937 3.24247 0)
(6.53064 3.55009 0)
(6.13717 3.87243 0)
(5.7019 4.20525 0)
(5.21557 4.54155 0)
(4.66641 4.87023 0)
(4.04069 5.17443 0)
(3.32199 5.42948 0)
(2.50858 5.5989 0)
(1.54119 5.64019 0)
(0.663883 5.41436 0)
(9.99382 0.106939 0)
(9.97322 0.212452 0)
(9.93661 0.31815 0)
(9.88526 0.425677 0)
(9.82015 0.536562 0)
(9.74157 0.652223 0)
(9.64955 0.773995 0)
(9.54406 0.903173 0)
(9.42502 1.04104 0)
(9.2923 1.18889 0)
(9.14567 1.348 0)
(8.98483 1.51969 0)
(8.80938 1.70526 0)
(8.61882 1.90604 0)
(8.41246 2.12333 0)
(8.18945 2.35844 0)
(7.9486 2.61259 0)
(7.68834 2.88689 0)
(7.40647 3.18232 0)
(7.09997 3.49954 0)
(6.76466 3.83876 0)
(6.39469 4.19939 0)
(5.98205 4.57957 0)
(5.51582 4.97524 0)
(4.98147 5.37877 0)
(4.36081 5.77659 0)
(3.62999 6.14582 0)
(2.77882 6.44708 0)
(1.73274 6.62471 0)
(0.744664 6.499 0)
(9.99418 0.114264 0)
(9.97479 0.22707 0)
(9.94037 0.340183 0)
(9.89219 0.455325 0)
(9.83124 0.574053 0)
(9.75783 0.697823 0)
(9.67199 0.828025 0)
(9.57375 0.966016 0)
(9.46311 1.11314 0)
(9.33999 1.27074 0)
(9.20426 1.44018 0)
(9.0557 1.62284 0)
(8.89401 1.82012 0)
(8.71877 2.03349 0)
(8.52941 2.26442 0)
(8.32514 2.51444 0)
(8.10489 2.78511 0)
(7.86714 3.07804 0)
(7.60976 3.39486 0)
(7.32975 3.73723 0)
(7.02287 4.10674 0)
(6.68311 4.50481 0)
(6.30195 4.93234 0)
(5.86737 5.38911 0)
(5.36243 5.87244 0)
(4.76406 6.37479 0)
(4.03853 6.87932 0)
(3.16001 7.34929 0)
(2.02402 7.71884 0)
(0.880606 7.7526 0)
(9.99458 0.121134 0)
(9.97649 0.240763 0)
(9.94443 0.36078 0)
(9.89963 0.482983 0)
(9.84307 0.608963 0)
(9.77507 0.740208 0)
(9.69572 0.878155 0)
(9.6051 1.02421 0)
(9.50325 1.17976 0)
(9.3902 1.3462 0)
(9.26589 1.52495 0)
(9.13021 1.71746 0)
(8.98298 1.92523 0)
(8.8239 2.14981 0)
(8.65254 2.39286 0)
(8.4683 2.65612 0)
(8.27028 2.94147 0)
(8.05717 3.25098 0)
(7.82712 3.58696 0)
(7.57746 3.95201 0)
(7.30432 4.34917 0)
(7.00213 4.78191 0)
(6.66275 5.25421 0)
(6.2742 5.77036 0)
(5.81854 6.33437 0)
(5.26914 6.94839 0)
(4.58197 7.60901 0)
(3.70836 8.29592 0)
(2.48753 8.9532 0)
(1.1245 9.28845 0)
(9.99499 0.127514 0)
(9.9783 0.253466 0)
(9.94873 0.379856 0)
(9.90747 0.50855 0)
(9.85549 0.641173 0)
(9.79313 0.779241 0)
(9.72052 0.924224 0)
(9.63779 1.07756 0)
(9.54507 1.24068 0)
(9.44246 1.41502 0)
(9.33 1.60203 0)
(9.20769 1.80322 0)
(9.07549 2.02015 0)
(8.93326 2.25448 0)
(8.78078 2.50797 0)
(8.61764 2.78257 0)
(8.44324 3.08044 0)
(8.25665 3.40403 0)
(8.0565 3.75622 0)
(7.84074 4.14049 0)
(7.60638 4.56111 0)
(7.34901 5.02349 0)
(7.06204 5.53457 0)
(6.73542 6.10334 0)
(6.35327 6.74152 0)
(5.89003 7.46425 0)
(5.2977 8.29078 0)
(4.5071 9.24187 0)
(3.2685 10.3359 0)
(1.60551 11.3546 0)
(9.99543 0.133376 0)
(9.98019 0.265129 0)
(9.95321 0.39734 0)
(9.91564 0.531933 0)
(9.86839 0.670562 0)
(9.81184 0.814765 0)
(9.74617 0.966037 0)
(9.67157 1.12584 0)
(9.58823 1.29563 0)
(9.49633 1.47686 0)
(9.39604 1.67102 0)
(9.28748 1.87963 0)
(9.17075 2.10432 0)
(9.0459 2.34679 0)
(8.91292 2.60891 0)
(8.77171 2.89275 0)
(8.62202 3.20066 0)
(8.46341 3.53539 0)
(8.29516 3.90023 0)
(8.11616 4.29927 0)
(7.9247 4.7377 0)
(7.71826 5.22236 0)
(7.49303 5.76245 0)
(7.24319 6.37078 0)
(6.95932 7.0658 0)
(6.62602 7.87535 0)
(6.21066 8.84496 0)
(5.66405 10.0579 0)
(4.69111 11.7233 0)
(2.68952 14.5899 0)
(0.246186 -0.299127 0)
(0.543478 -0.243809 0)
(0.846302 -0.197072 0)
(1.11488 -0.162982 0)
(1.34501 -0.137317 0)
(1.54457 -0.116736 0)
(1.71996 -0.099549 0)
(1.87432 -0.0848549 0)
(2.00916 -0.0720565 0)
(2.12558 -0.0607316 0)
(2.22455 -0.0504523 0)
(2.30618 -0.0406412 0)
(2.36964 -0.0312644 0)
(2.41568 -0.0213616 0)
(2.44612 -0.0114302 0)
(2.46222 -0.00769172 0)
(2.46687 -0.0110441 0)
(2.46418 -0.0187145 0)
(2.45482 -0.0252159 0)
(2.4354 -0.0268321 0)
(2.40102 -0.0231258 0)
(2.35037 -0.015724 0)
(2.28796 -0.00721691 0)
(2.22267 7.8927e-05 0)
(2.16518 0.00421085 0)
(2.12626 0.00348716 0)
(2.11186 -0.000939461 0)
(2.12213 -0.00335238 0)
(2.17427 -0.00774445 0)
(2.32049 -0.018955 0)
(0.147601 -0.532276 0)
(0.414006 -0.460366 0)
(0.663775 -0.383122 0)
(0.889412 -0.322615 0)
(1.08514 -0.275603 0)
(1.25597 -0.236796 0)
(1.40632 -0.20334 0)
(1.53824 -0.173735 0)
(1.65259 -0.147106 0)
(1.75002 -0.123179 0)
(1.83171 -0.101347 0)
(1.89867 -0.0782718 0)
(1.94775 -0.0576131 0)
(1.9801 -0.045383 0)
(1.99785 -0.0330006 0)
(1.96438 -0.01312 0)
(1.87857 0.00810021 0)
(1.74951 0.0274834 0)
(1.59656 0.046275 0)
(1.43666 0.0640589 0)
(1.28018 0.0787013 0)
(1.13452 0.0867463 0)
(1.00756 0.0853408 0)
(0.906541 0.0740899 0)
(0.839037 0.0548578 0)
(0.80486 0.0322399 0)
(0.799341 0.00894848 0)
(0.844976 -0.0211679 0)
(0.947307 -0.0668825 0)
(1.17636 -0.120266 0)
(0.0850145 -0.769427 0)
(0.282273 -0.694139 0)
(0.445693 -0.590698 0)
(0.599308 -0.50381 0)
(0.729188 -0.434009 0)
(0.838897 -0.375175 0)
(0.930638 -0.323631 0)
(1.00509 -0.27716 0)
(1.06175 -0.23439 0)
(1.09983 -0.19582 0)
(1.11981 -0.164825 0)
(1.1273 -0.135732 0)
(1.11219 -0.090734 0)
(0.997593 -0.034469 0)
(0.833548 0.0227424 0)
(0.694933 0.0814082 0)
(0.5553 0.12672 0)
(0.406213 0.154789 0)
(0.254778 0.168612 0)
(0.106539 0.171979 0)
(-0.0252255 0.167107 0)
(-0.135376 0.154212 0)
(-0.224149 0.132325 0)
(-0.287535 0.102708 0)
(-0.320788 0.0685786 0)
(-0.315331 0.0294079 0)
(-0.274543 -0.0210251 0)
(-0.173475 -0.0880919 0)
(-0.0408009 -0.171938 0)
(0.184575 -0.238503 0)
(0.0370893 -0.903563 0)
(0.153865 -0.816592 0)
(0.220786 -0.690781 0)
(0.293293 -0.58418 0)
(0.343934 -0.496169 0)
(0.378443 -0.420437 0)
(0.396433 -0.353237 0)
(0.397699 -0.29189 0)
(0.380357 -0.2338 0)
(0.342639 -0.175406 0)
(0.276374 -0.109224 0)
(0.100448 -0.0259973 0)
(-0.0594165 0.0532894 0)
(-0.161862 0.110544 0)
(-0.284578 0.151721 0)
(-0.4072 0.185831 0)
(-0.530784 0.216576 0)
(-0.651775 0.236874 0)
(-0.765558 0.243757 0)
(-0.868245 0.238313 0)
(-0.954865 0.22214 0)
(-1.02167 0.196483 0)
(-1.06633 0.16133 0)
(-1.08776 0.11649 0)
(-1.08332 0.0629514 0)
(-1.0526 0.00157569 0)
(-0.988226 -0.0692175 0)
(-0.90265 -0.148958 0)
(-0.806066 -0.231369 0)
(-0.722103 -0.290319 0)
(-0.00863802 -0.95211 0)
(0.0211728 -0.850335 0)
(-0.00902934 -0.707943 0)
(-0.0233454 -0.589472 0)
(-0.0598052 -0.48651 0)
(-0.109772 -0.395684 0)
(-0.177598 -0.312706 0)
(-0.264975 -0.23341 0)
(-0.374556 -0.153061 0)
(-0.508007 -0.0693414 0)
(-0.657448 0.0126341 0)
(-0.76422 0.0750957 0)
(-0.875859 0.124469 0)
(-0.989924 0.176308 0)
(-1.10407 0.223982 0)
(-1.21481 0.260364 0)
(-1.3194 0.28682 0)
(-1.41499 0.3005 0)
(-1.49926 0.299464 0)
(-1.57013 0.284295 0)
(-1.62511 0.256647 0)
(-1.66184 0.218251 0)
(-1.67922 0.170016 0)
(-1.67786 0.112776 0)
(-1.65846 0.048187 0)
(-1.62279 -0.023269 0)
(-1.57008 -0.10121 0)
(-1.5109 -0.183943 0)
(-1.45508 -0.264367 0)
(-1.42176 -0.322912 0)
(-0.0590093 -0.909526 0)
(-0.119176 -0.789249 0)
(-0.237487 -0.641839 0)
(-0.342448 -0.517132 0)
(-0.460186 -0.405988 0)
(-0.586306 -0.306045 0)
(-0.720895 -0.213272 0)
(-0.863008 -0.125356 0)
(-1.01079 -0.0418166 0)
(-1.14801 0.0327057 0)
(-1.26084 0.0969528 0)
(-1.37468 0.156026 0)
(-1.48771 0.208628 0)
(-1.5983 0.256162 0)
(-1.70359 0.297113 0)
(-1.80123 0.327677 0)
(-1.88906 0.346312 0)
(-1.96526 0.350996 0)
(-2.02867 0.340565 0)
(-2.0784 0.315544 0)
(-2.11347 0.277557 0)
(-2.1331 0.228571 0)
(-2.13744 0.170288 0)
(-2.12791 0.104328 0)
(-2.10649 0.0326005 0)
(-2.07451 -0.0439656 0)
(-2.03601 -0.124081 0)
(-1.99726 -0.205872 0)
(-1.96559 -0.284005 0)
(-1.95114 -0.34218 0)
(-0.113761 -0.781263 0)
(-0.254757 -0.648173 0)
(-0.452893 -0.503164 0)
(-0.63268 -0.379154 0)
(-0.812257 -0.269865 0)
(-0.987867 -0.17211 0)
(-1.15706 -0.0827028 0)
(-1.31662 -0.00154005 0)
(-1.45447 0.0673368 0)
(-1.5802 0.129011 0)
(-1.70197 0.186949 0)
(-1.81909 0.241041 0)
(-1.93075 0.289363 0)
(-2.03574 0.330915 0)
(-2.13227 0.363996 0)
(-2.21879 0.386177 0)
(-2.29394 0.395647 0)
(-2.35673 0.390847 0)
(-2.4067 0.371106 0)
(-2.44369 0.337053 0)
(-2.46762 0.290321 0)
(-2.47871 0.233024 0)
(-2.47784 0.167335 0)
(-2.46668 0.0953919 0)
(-2.4476 0.0192996 0)
(-2.42199 -0.0595968 0)
(-2.39528 -0.139709 0)
(-2.37174 -0.219462 0)
(-2.35641 -0.294806 0)
(-2.35213 -0.35081 0)
(-0.170596 -0.577171 0)
(-0.381027 -0.439691 0)
(-0.643845 -0.308662 0)
(-0.87765 -0.196057 0)
(-1.09436 -0.0970067 0)
(-1.29023 -0.0121189 0)
(-1.46189 0.0577927 0)
(-1.61284 0.11813 0)
(-1.75455 0.174919 0)
(-1.88749 0.228832 0)
(-2.01241 0.279501 0)
(-2.12913 0.32601 0)
(-2.23739 0.366791 0)
(-2.33655 0.40032 0)
(-2.42568 0.424691 0)
(-2.50388 0.437831 0)
(-2.57042 0.43804 0)
(-2.62486 0.424085 0)
(-2.66712 0.395612 0)
(-2.69732 0.353381 0)
(-2.71581 0.299099 0)
(-2.72327 0.235037 0)
(-2.72095 0.16369 0)
(-2.7108 0.0875394 0)
(-2.69545 0.00879883 0)
(-2.67664 -0.07074 0)
(-2.65971 -0.149576 0)
(-2.6484 -0.226645 0)
(-2.64561 -0.298674 0)
(-2.64821 -0.351503 0)
(-0.230985 -0.324844 0)
(-0.501371 -0.179545 0)
(-0.80195 -0.0548913 0)
(-1.05392 0.0305537 0)
(-1.27516 0.0942626 0)
(-1.46986 0.146805 0)
(-1.64633 0.195854 0)
(-1.807 0.242592 0)
(-1.95431 0.287768 0)
(-2.08955 0.331089 0)
(-2.21384 0.37195 0)
(-2.32773 0.409092 0)
(-2.43153 0.440843 0)
(-2.52518 0.465386 0)
(-2.60833 0.480712 0)
(-2.68062 0.484839 0)
(-2.74171 0.476152 0)
(-2.79143 0.453609 0)
(-2.82982 0.417046 0)
(-2.85712 0.367344 0)
(-2.87381 0.306327 0)
(-2.88074 0.236473 0)
(-2.87938 0.160576 0)
(-2.8718 0.0813882 0)
(-2.86053 0.00121918 0)
(-2.84832 -0.077826 0)
(-2.83985 -0.154613 0)
(-2.83895 -0.228494 0)
(-2.84658 -0.296764 0)
(-2.8546 -0.346143 0)
(-0.263542 0.0883487 0)
(-0.5565 0.165379 0)
(-0.869433 0.210404 0)
(-1.13512 0.249216 0)
(-1.36907 0.282201 0)
(-1.57548 0.312222 0)
(-1.75865 0.341573 0)
(-1.92216 0.371286 0)
(-2.06919 0.401836 0)
(-2.20204 0.432512 0)
(-2.32243 0.462122 0)
(-2.43152 0.489018 0)
(-2.53008 0.511245 0)
(-2.6185 0.526702 0)
(-2.69687 0.533227 0)
(-2.76514 0.528809 0)
(-2.82319 0.511849 0)
(-2.87093 0.481397 0)
(-2.90833 0.437401 0)
(-2.93556 0.380854 0)
(-2.95303 0.313722 0)
(-2.9616 0.238711 0)
(-2.96276 0.158931 0)
(-2.95869 0.0774391 0)
(-2.95189 -0.00326203 0)
(-2.94573 -0.0812133 0)
(-2.9447 -0.155452 0)
(-2.95293 -0.225719 0)
(-2.96969 -0.289914 0)
(-2.98241 -0.335954 0)
(-0.26068 0.432229 0)
(-0.571398 0.477305 0)
(-0.905835 0.483584 0)
(-1.18434 0.48318 0)
(-1.42442 0.481474 0)
(-1.63155 0.482381 0)
(-1.81175 0.48785 0)
(-1.97008 0.498202 0)
(-2.11066 0.51277 0)
(-2.23652 0.530015 0)
(-2.34984 0.54804 0)
(-2.45217 0.56472 0)
(-2.54462 0.577739 0)
(-2.6279 0.584678 0)
(-2.70237 0.583154 0)
(-2.76813 0.571028 0)
(-2.82512 0.546641 0)
(-2.87315 0.509043 0)
(-2.912 0.458238 0)
(-2.94156 0.395327 0)
(-2.962 0.322468 0)
(-2.97403 0.242648 0)
(-2.97905 0.159337 0)
(-2.97925 0.0759422 0)
(-2.97724 -0.00483477 0)
(-2.97666 -0.0812445 0)
(-2.98224 -0.152567 0)
(-2.99859 -0.218823 0)
(-3.02364 -0.278642 0)
(-3.04074 -0.321512 0)
(-0.268831 0.81087 0)
(-0.599411 0.821054 0)
(-0.945635 0.77187 0)
(-1.22206 0.72065 0)
(-1.45328 0.677983 0)
(-1.64804 0.646734 0)
(-1.81453 0.626836 0)
(-1.95914 0.617331 0)
(-2.08682 0.616154 0)
(-2.20099 0.62052 0)
(-2.30395 0.627696 0)
(-2.39737 0.635066 0)
(-2.48257 0.639937 0)
(-2.56046 0.639536 0)
(-2.63154 0.631187 0)
(-2.69597 0.612545 0)
(-2.75361 0.581807 0)
(-2.80408 0.537951 0)
(-2.8468 0.480981 0)
(-2.88122 0.41211 0)
(-2.90705 0.333746 0)
(-2.92461 0.249235 0)
(-2.93506 0.162449 0)
(-2.94054 0.0772163 0)
(-2.94375 -0.00349773 0)
(-2.94851 -0.0781713 0)
(-2.95995 -0.146367 0)
(-2.98351 -0.208254 0)
(-3.01627 -0.263295 0)
(-3.03763 -0.303004 0)
(-0.29501 1.22537 0)
(-0.654098 1.18525 0)
(-1.00391 1.05946 0)
(-1.26015 0.945065 0)
(-1.46416 0.857896 0)
(-1.63175 0.794463 0)
(-1.77297 0.750086 0)
(-1.89485 0.722301 0)
(-2.00295 0.707414 0)
(-2.10061 0.700828 0)
(-2.18969 0.698895 0)
(-2.27171 0.698667 0)
(-2.34808 0.697156 0)
(-2.41983 0.691201 0)
(-2.48757 0.677769 0)
(-2.55145 0.654243 0)
(-2.61124 0.61861 0)
(-2.66631 0.569684 0)
(-2.71562 0.507381 0)
(-2.75793 0.432986 0)
(-2.79227 0.349193 0)
(-2.81825 0.259795 0)
(-2.83653 0.169178 0)
(-2.84895 0.0817539 0)
(-2.85831 0.000869942 0)
(-2.86847 -0.072172 0)
(-2.88511 -0.137285 0)
(-2.91487 -0.194544 0)
(-2.95478 -0.244195 0)
(-2.98038 -0.280435 0)
(-0.35023 1.69024 0)
(-0.758432 1.57454 0)
(-1.10304 1.33088 0)
(-1.31069 1.13479 0)
(-1.46222 1.00468 0)
(-1.58617 0.914212 0)
(-1.69037 0.84882 0)
(-1.78021 0.806441 0)
(-1.86201 0.781993 0)
(-1.93848 0.767763 0)
(-2.01005 0.759287 0)
(-2.0777 0.75386 0)
(-2.14299 0.748414 0)
(-2.20716 0.739331 0)
(-2.27088 0.723138 0)
(-2.33433 0.696904 0)
(-2.39731 0.658331 0)
(-2.45899 0.605931 0)
(-2.51786 0.539384 0)
(-2.57186 0.459959 0)
(-2.61894 0.370685 0)
(-2.65761 0.27595 0)
(-2.68747 0.180776 0)
(-2.7097 0.0903472 0)
(-2.72718 0.00863577 0)
(-2.7435 -0.0633024 0)
(-2.76484 -0.125801 0)
(-2.79948 -0.178361 0)
(-2.84575 -0.221607 0)
(-2.87553 -0.253458 0)
(-0.481733 2.42674 0)
(-0.953852 2.10188 0)
(-1.28263 1.58934 0)
(-1.38696 1.25294 0)
(-1.44585 1.09512 0)
(-1.5102 0.995359 0)
(-1.56766 0.914673 0)
(-1.61602 0.862769 0)
(-1.6651 0.835648 0)
(-1.71654 0.81827 0)
(-1.76705 0.806102 0)
(-1.81669 0.798223 0)
(-1.86767 0.791827 0)
(-1.92167 0.782574 0)
(-1.97936 0.766427 0)
(-2.04106 0.740186 0)
(-2.1068 0.701257 0)
(-2.176 0.647718 0)
(-2.24694 0.578811 0)
(-2.31677 0.495592 0)
(-2.38217 0.401297 0)
(-2.43994 0.300891 0)
(-2.48765 0.200045 0)
(-2.52491 0.105037 0)
(-2.55452 0.0210518 0)
(-2.57935 -0.051066 0)
(-2.60562 -0.112097 0)
(-2.64353 -0.160274 0)
(-2.69491 -0.195633 0)
(-2.72879 -0.221376 0)
(9.99588 0.138794 0)
(9.98217 0.275907 0)
(9.95793 0.413486 0)
(9.92422 0.553499 0)
(9.88193 0.697623 0)
(9.83148 0.847409 0)
(9.77309 1.00436 0)
(9.707 1.16997 0)
(9.63351 1.34567 0)
(9.55288 1.53295 0)
(9.46539 1.73328 0)
(9.3713 1.94823 0)
(9.27088 2.1794 0)
(9.16438 2.42854 0)
(9.05205 2.69756 0)
(8.93413 2.98859 0)
(8.81079 3.30406 0)
(8.68218 3.64687 0)
(8.54837 4.0205 0)
(8.40938 4.42933 0)
(8.26515 4.87897 0)
(8.11558 5.37686 0)
(7.96066 5.93313 0)
(7.8007 6.56211 0)
(7.63703 7.28483 0)
(7.47479 8.13381 0)
(7.32759 9.16301 0)
(7.28633 10.466 0)
(7.75234 12.1877 0)
(7.95253 14.905 0)
(9.99637 0.143776 0)
(9.98426 0.285806 0)
(9.96288 0.428279 0)
(9.9332 0.573193 0)
(9.89608 0.72224 0)
(9.85194 0.876977 0)
(9.80107 1.03891 0)
(9.74378 1.20952 0)
(9.68043 1.39027 0)
(9.61138 1.58259 0)
(9.53705 1.78798 0)
(9.45782 2.00796 0)
(9.37415 2.24414 0)
(9.28651 2.49824 0)
(9.19543 2.77214 0)
(9.10147 3.06794 0)
(9.00529 3.38808 0)
(8.90765 3.73538 0)
(8.80946 4.11327 0)
(8.71189 4.52601 0)
(8.61658 4.97897 0)
(8.52589 5.47917 0)
(8.44356 6.03586 0)
(8.3759 6.66157 0)
(8.33416 7.37343 0)
(8.34055 8.19468 0)
(8.43417 9.1552 0)
(8.67122 10.2877 0)
(9.3209 11.5356 0)
(9.81673 12.6087 0)
(9.99687 0.148236 0)
(9.98643 0.294663 0)
(9.96801 0.441495 0)
(9.94252 0.590748 0)
(9.91073 0.744117 0)
(9.8731 0.903155 0)
(9.82997 1.06936 0)
(9.7817 1.24418 0)
(9.72873 1.42906 0)
(9.67152 1.62543 0)
(9.61059 1.83472 0)
(9.5465 2.05841 0)
(9.47985 2.29807 0)
(9.41134 2.55533 0)
(9.34177 2.83201 0)
(9.27205 3.13008 0)
(9.20329 3.45182 0)
(9.13681 3.79985 0)
(9.07431 4.17727 0)
(9.01799 4.58781 0)
(8.97086 5.03606 0)
(8.93722 5.52764 0)
(8.92335 6.06948 0)
(8.93877 6.66989 0)
(8.99799 7.33817 0)
(9.12313 8.08276 0)
(9.34513 8.90516 0)
(9.67322 9.79361 0)
(10.2361 10.6957 0)
(10.9191 11.3992 0)
(9.99738 0.152121 0)
(9.98866 0.302369 0)
(9.9733 0.452967 0)
(9.95208 0.605932 0)
(9.92576 0.762953 0)
(9.89479 0.925564 0)
(9.85954 1.09524 0)
(9.82045 1.2734 0)
(9.77803 1.46145 0)
(9.73282 1.66077 0)
(9.68544 1.87272 0)
(9.63659 2.09872 0)
(9.58704 2.34024 0)
(9.53769 2.5988 0)
(9.48958 2.87605 0)
(9.44394 3.17379 0)
(9.40226 3.49402 0)
(9.36634 3.83899 0)
(9.33849 4.21126 0)
(9.32167 4.61378 0)
(9.31978 5.04993 0)
(9.33813 5.5235 0)
(9.38393 6.03858 0)
(9.46705 6.59904 0)
(9.60063 7.20755 0)
(9.80139 7.8636 0)
(10.0919 8.55988 0)
(10.4805 9.28144 0)
(11.0333 10.0179 0)
(11.8192 10.6563 0)
(9.99791 0.155384 0)
(9.99094 0.308833 0)
(9.97868 0.46256 0)
(9.96182 0.618569 0)
(9.94105 0.778529 0)
(9.91681 0.943945 0)
(9.88954 1.11625 0)
(9.85972 1.29684 0)
(9.8279 1.48704 0)
(9.79473 1.68816 0)
(9.76091 1.9015 0)
(9.72725 2.12836 0)
(9.69467 2.37008 0)
(9.66423 2.62803 0)
(9.6372 2.90366 0)
(9.61504 3.19849 0)
(9.59953 3.51418 0)
(9.59283 3.85248 0)
(9.59762 4.21532 0)
(9.61728 4.6047 0)
(9.65611 5.02272 0)
(9.71959 5.47136 0)
(9.81478 5.95218 0)
(9.95056 6.46584 0)
(10.1379 7.01118 0)
(10.3897 7.58425 0)
(10.7232 8.17686 0)
(11.1496 8.77429 0)
(11.6917 9.36503 0)
(12.437 9.8744 0)
(9.99844 0.15798 0)
(9.99324 0.313968 0)
(9.98411 0.470146 0)
(9.97165 0.628491 0)
(9.95646 0.790639 0)
(9.93899 0.958056 0)
(9.91971 1.13213 0)
(9.89915 1.31418 0)
(9.8779 1.50548 0)
(9.85668 1.70724 0)
(9.83627 1.92067 0)
(9.81757 2.14694 0)
(9.80161 2.38722 0)
(9.78959 2.64269 0)
(9.78291 2.91457 0)
(9.78322 3.20406 0)
(9.79247 3.5124 0)
(9.81301 3.84083 0)
(9.84769 4.19058 0)
(9.9 4.56274 0)
(9.97417 4.9582 0)
(10.0754 5.37742 0)
(10.21 5.82011 0)
(10.3854 6.28479 0)
(10.6103 6.76819 0)
(10.8944 7.26451 0)
(11.2487 7.76455 0)
(11.6809 8.25281 0)
(12.1917 8.71267 0)
(12.8598 9.10282 0)
(9.99897 0.159872 0)
(9.99554 0.317697 0)
(9.98956 0.475612 0)
(9.98149 0.63555 0)
(9.97187 0.799103 0)
(9.96114 0.967685 0)
(9.9498 1.14262 0)
(9.93839 1.32517 0)
(9.92758 1.5165 0)
(9.91809 1.71774 0)
(9.91079 1.92996 0)
(9.90663 2.1542 0)
(9.90673 2.39144 0)
(9.91236 2.64267 0)
(9.92502 2.9088 0)
(9.94642 3.19072 0)
(9.97861 3.48926 0)
(10.024 3.80512 0)
(10.0853 4.13887 0)
(10.1659 4.49079 0)
(10.2698 4.86079 0)
(10.4015 5.24814 0)
(10.5662 5.65129 0)
(10.7699 6.0674 0)
(11.0188 6.49201 0)
(11.3193 6.91845 0)
(11.6773 7.33742 0)
(12.0969 7.73559 0)
(12.5719 8.09853 0)
(13.1705 8.40594 0)
(9.9995 0.161024 0)
(9.99783 0.319952 0)
(9.99496 0.478859 0)
(9.99125 0.63962 0)
(9.98714 0.803769 0)
(9.98306 0.972659 0)
(9.97952 1.14755 0)
(9.97709 1.3296 0)
(9.97645 1.5199 0)
(9.97837 1.71945 0)
(9.98372 1.92921 0)
(9.99353 2.15003 0)
(10.0089 2.38273 0)
(10.0312 2.62805 0)
(10.0619 2.88664 0)
(10.1028 3.15907 0)
(10.1558 3.44573 0)
(10.2232 3.74688 0)
(10.3077 4.06249 0)
(10.4123 4.39219 0)
(10.5403 4.73512 0)
(10.6956 5.08976 0)
(10.8823 5.45373 0)
(11.1046 5.82353 0)
(11.3667 6.19429 0)
(11.6724 6.55949 0)
(12.0245 6.91092 0)
(12.4243 7.23838 0)
(12.8643 7.53086 0)
(13.4016 7.77723 0)
(10 0.16141 0)
(10.0001 0.32068 0)
(10.0003 0.479808 0)
(10.0008 0.640598 0)
(10.0021 0.804517 0)
(10.0046 0.972847 0)
(10.0086 1.14676 0)
(10.0149 1.32734 0)
(10.0241 1.51555 0)
(10.0369 1.7123 0)
(10.0544 1.91837 0)
(10.0774 2.13448 0)
(10.1071 2.36124 0)
(10.1449 2.59917 0)
(10.1922 2.84867 0)
(10.2506 3.10996 0)
(10.3221 3.38313 0)
(10.4087 3.66798 0)
(10.5128 3.96404 0)
(10.637 4.27043 0)
(10.784 4.58577 0)
(10.9569 4.90807 0)
(11.1585 5.23455 0)
(11.3919 5.56151 0)
(11.6595 5.88427 0)
(11.9632 6.197 0)
(12.3037 6.49293 0)
(12.6809 6.76432 0)
(13.087 7.00294 0)
(13.5702 7.20206 0)
(10.0005 0.161005 0)
(10.0023 0.319836 0)
(10.0055 0.478396 0)
(10.0102 0.638408 0)
(10.0167 0.801263 0)
(10.0254 0.968162 0)
(10.0368 1.14019 0)
(10.0515 1.31833 0)
(10.07 1.50344 0)
(10.0933 1.69629 0)
(10.1221 1.89754 0)
(10.1574 2.10774 0)
(10.2005 2.32731 0)
(10.2524 2.55656 0)
(10.3146 2.79564 0)
(10.3887 3.04452 0)
(10.4762 3.30297 0)
(10.5791 3.57047 0)
(10.6994 3.84621 0)
(10.8391 4.12896 0)
(11.0005 4.41706 0)
(11.1856 4.70825 0)
(11.3966 4.9997 0)
(11.6352 5.28785 0)
(11.9027 5.56844 0)
(12.1997 5.83657 0)
(12.5256 6.08675 0)
(12.8793 6.31318 0)
(13.2536 6.50991 0)
(13.6901 6.67286 0)
(10.001 0.159797 0)
(10.0044 0.317391 0)
(10.0105 0.474584 0)
(10.0192 0.633004 0)
(10.0308 0.793959 0)
(10.0455 0.958563 0)
(10.0639 1.12781 0)
(10.0865 1.30257 0)
(10.1139 1.48361 0)
(10.1469 1.67155 0)
(10.1862 1.86693 0)
(10.233 2.07013 0)
(10.2881 2.28142 0)
(10.3528 2.5009 0)
(10.4282 2.72852 0)
(10.5158 2.96402 0)
(10.617 3.20693 0)
(10.7334 3.45651 0)
(10.8666 3.7117 0)
(11.0182 3.97109 0)
(11.1898 4.23286 0)
(11.3829 4.49475 0)
(11.5988 4.75402 0)
(11.8383 5.00744 0)
(12.1019 5.25133 0)
(12.3892 5.48165 0)
(12.6991 5.69412 0)
(13.0298 5.88445 0)
(13.3752 6.04847 0)
(13.7715 6.1837 0)
(10.0015 0.157775 0)
(10.0064 0.31333 0)
(10.0153 0.468352 0)
(10.0279 0.624368 0)
(10.0442 0.782595 0)
(10.0647 0.944056 0)
(10.0896 1.10965 0)
(10.1196 1.28014 0)
(10.1553 1.45618 0)
(10.1973 1.63829 0)
(10.2464 1.82685 0)
(10.3034 2.02211 0)
(10.3694 2.22419 0)
(10.4453 2.43302 0)
(10.5322 2.64838 0)
(10.6313 2.86985 0)
(10.7439 3.09677 0)
(10.8711 3.32824 0)
(11.0143 3.56309 0)
(11.1746 3.79982 0)
(11.353 4.0366 0)
(11.5506 4.27128 0)
(11.7678 4.50134 0)
(12.0051 4.72397 0)
(12.2621 4.93609 0)
(12.5381 5.13444 0)
(12.8317 5.31578 0)
(13.1407 5.47696 0)
(13.46 5.61512 0)
(13.8219 5.7288 0)
(10.0019 0.15494 0)
(10.0084 0.307651 0)
(10.0198 0.459702 0)
(10.036 0.61251 0)
(10.0569 0.767197 0)
(10.0827 0.924694 0)
(10.1138 1.0858 0)
(10.1508 1.25118 0)
(10.194 1.42138 0)
(10.2442 1.5968 0)
(10.3021 1.7777 0)
(10.3683 1.96422 0)
(10.4439 2.15633 0)
(10.5295 2.35384 0)
(10.6262 2.55639 0)
(10.7349 2.76344 0)
(10.8566 2.97422 0)
(10.9923 3.18774 0)
(11.1428 3.40277 0)
(11.3089 3.61784 0)
(11.4914 3.83121 0)
(11.6906 4.04089 0)
(11.9066 4.24467 0)
(12.1394 4.44015 0)
(12.3883 4.62482 0)
(12.6523 4.79613 0)
(12.9297 4.95163 0)
(13.2187 5.08908 0)
(13.5147 5.20652 0)
(13.8468 5.30311 0)
(10.0024 0.151295 0)
(10.0102 0.300367 0)
(10.0241 0.448657 0)
(10.0437 0.597469 0)
(10.0688 0.747829 0)
(10.0996 0.900572 0)
(10.1364 1.0564 0)
(10.1796 1.21589 0)
(10.2298 1.37947 0)
(10.2874 1.54744 0)
(10.353 1.71997 0)
(10.4274 1.89708 0)
(10.5112 2.07863 0)
(10.6051 2.26434 0)
(10.71 2.45375 0)
(10.8265 2.64623 0)
(10.9553 2.84096 0)
(11.0972 3.03692 0)
(11.2528 3.23292 0)
(11.4225 3.42753 0)
(11.6066 3.61916 0)
(11.8052 3.80605 0)
(12.0182 3.98629 0)
(12.245 4.15791 0)
(12.4848 4.31887 0)
(12.7366 4.46723 0)
(12.9986 4.60116 0)
(13.2691 4.71908 0)
(13.5443 4.81966 0)
(13.8507 4.90248 0)
(10.0027 0.146854 0)
(10.0119 0.291503 0)
(10.0281 0.435258 0)
(10.0508 0.57931 0)
(10.0798 0.724585 0)
(10.1151 0.871825 0)
(10.1571 1.02164 0)
(10.206 1.17451 0)
(10.2624 1.33078 0)
(10.3266 1.49065 0)
(10.3991 1.65421 0)
(10.4805 1.82137 0)
(10.5713 1.99193 0)
(10.6721 2.16552 0)
(10.7835 2.34163 0)
(10.9061 2.5196 0)
(11.0403 2.69858 0)
(11.1866 2.87758 0)
(11.3453 3.05545 0)
(11.5166 3.23089 0)
(11.7005 3.40249 0)
(11.8969 3.5687 0)
(12.1054 3.72794 0)
(12.3253 3.87859 0)
(12.5557 4.01905 0)
(12.7954 4.14784 0)
(13.0428 4.26362 0)
(13.2965 4.36528 0)
(13.5532 4.45196 0)
(13.8371 4.52351 0)
(10.0031 0.141635 0)
(10.0134 0.281095 0)
(10.0317 0.419566 0)
(10.0573 0.558121 0)
(10.0898 0.697588 0)
(10.1293 0.838622 0)
(10.1759 0.981743 0)
(10.23 1.12734 0)
(10.2918 1.27569 0)
(10.3618 1.4269 0)
(10.4402 1.58098 0)
(10.5275 1.73779 0)
(10.6242 1.89706 0)
(10.7306 2.05838 0)
(10.8472 2.22121 0)
(10.9743 2.38487 0)
(11.1123 2.54854 0)
(11.2613 2.71128 0)
(11.4215 2.87203 0)
(11.5929 3.02964 0)
(11.7752 3.18285 0)
(11.9682 3.33037 0)
(12.1713 3.47088 0)
(12.3837 3.60308 0)
(12.6045 3.72575 0)
(12.8326 3.83775 0)
(13.0665 3.93813 0)
(13.3048 4.02613 0)
(13.5449 4.10119 0)
(13.809 4.16332 0)
(10.0034 0.13566 0)
(10.0148 0.269192 0)
(10.035 0.401655 0)
(10.0632 0.53401 0)
(10.0989 0.666989 0)
(10.1421 0.80116 0)
(10.1929 0.936962 0)
(10.2514 1.07471 0)
(10.318 1.2146 0)
(10.3929 1.35668 0)
(10.4763 1.5009 0)
(10.5686 1.64706 0)
(10.67 1.79487 0)
(10.7808 1.94389 0)
(10.9013 2.09357 0)
(11.0317 2.24325 0)
(11.172 2.39216 0)
(11.3225 2.53942 0)
(11.4829 2.6841 0)
(11.6531 2.82516 0)
(11.8328 2.96155 0)
(12.0215 3.09218 0)