/*--------------------------------*- C++ -*----------------------------------*\
  =========                 |
  \\      /  F ield         | OpenFOAM: The Open Source CFD Toolbox
   \\    /   O peration     | Website:  https://openfoam.org
    \\  /    A nd           | Version:  7
     \\/     M anipulation  |
\*---------------------------------------------------------------------------*/
FoamFile
{
    version     2.0;
    format      ascii;
    class       surfaceVectorField;
    location    "1.7";
    object      Uf;
}
// * * * * * * * * * * * * * * * * * * * * * * * * * * * * * * * * * * * * * //

dimensions      [0 1 -1 0 0 0 0];

internalField   nonuniform List<vector> 
5457
(
(9.92084 0.0251257 0)
(9.97123 0.0387682 0)
(9.82388 0.0328529 0)
(9.92851 0.048628 0)
(9.70936 0.0393472 0)
(9.85529 0.0588296 0)
(9.57504 0.0460547 0)
(9.75648 0.0706712 0)
(9.42081 0.0529989 0)
(9.63705 0.0831054 0)
(9.24679 0.0602218 0)
(9.49795 0.0960401 0)
(9.05267 0.0678708 0)
(9.33845 0.109725 0)
(8.83776 0.0760973 0)
(9.15768 0.124408 0)
(8.60115 0.0850343 0)
(8.95483 0.14029 0)
(8.3417 0.0948087 0)
(8.72891 0.157556 0)
(8.05809 0.105549 0)
(8.47874 0.176389 0)
(7.74887 0.117386 0)
(8.20292 0.19697 0)
(7.41247 0.130448 0)
(7.89992 0.219465 0)
(7.04727 0.144855 0)
(7.56813 0.244013 0)
(6.6517 0.160707 0)
(7.2059 0.270706 0)
(6.22432 0.178068 0)
(6.81161 0.299553 0)
(5.76399 0.196938 0)
(6.38389 0.330442 0)
(5.27014 0.217227 0)
(5.92171 0.363084 0)
(4.74299 0.238711 0)
(5.42467 0.396945 0)
(4.18391 0.260987 0)
(4.89328 0.431171 0)
(3.59581 0.28342 0)
(4.32938 0.464516 0)
(2.98358 0.305107 0)
(3.73649 0.49528 0)
(2.35438 0.324939 0)
(3.12035 0.521321 0)
(1.71766 0.342364 0)
(2.48938 0.540307 0)
(1.0833 0.361566 0)
(1.85446 0.551329 0)
(0.451436 0.348189 0)
(1.2443 0.562447 0)
(-0.14513 0.10286 0)
(0.608334 0.54387 0)
(-0.422735 -0.204998 0)
(0.0949044 0.259205 0)
(-0.401495 -0.358853 0)
(-0.134989 -0.0203114 0)
(-0.118972 -0.39324 0)
(9.99636 0.0517212 0)
(9.99703 0.0405496 0)
(9.95866 0.0709397 0)
(9.97843 0.0675405 0)
(9.89799 0.0880912 0)
(9.93359 0.0899932 0)
(9.81618 0.106112 0)
(9.86421 0.113711 0)
(9.71301 0.125068 0)
(9.7739 0.138699 0)
(9.58833 0.145015 0)
(9.66369 0.164854 0)
(9.44178 0.166263 0)
(9.53312 0.192558 0)
(9.27274 0.189147 0)
(9.38144 0.222269 0)
(9.08029 0.213966 0)
(9.20793 0.254394 0)
(8.86332 0.240996 0)
(9.0117 0.28931 0)
(8.62053 0.27051 0)
(8.79165 0.327393 0)
(8.35044 0.302768 0)
(8.54651 0.369014 0)
(8.05145 0.338001 0)
(8.27481 0.414524 0)
(7.72187 0.376383 0)
(7.975 0.464228 0)
(7.36002 0.417995 0)
(7.64542 0.518336 0)
(6.9643 0.462767 0)
(7.28444 0.576913 0)
(6.53337 0.510407 0)
(6.8905 0.639784 0)
(6.06636 0.56031 0)
(6.46234 0.706431 0)
(5.56317 0.61145 0)
(5.99914 0.775852 0)
(5.02475 0.662262 0)
(5.50085 0.846401 0)
(4.45365 0.71053 0)
(4.96857 0.915612 0)
(3.85443 0.7533 0)
(4.405 0.980036 0)
(3.23432 0.786885 0)
(3.81502 1.0351 0)
(2.60418 0.8071 0)
(3.20663 1.07504 0)
(1.98141 0.809928 0)
(2.59178 1.09258 0)
(1.40406 0.776194 0)
(1.99475 1.07637 0)
(0.928183 0.645651 0)
(1.41817 0.977712 0)
(0.438139 0.382942 0)
(0.936351 0.716769 0)
(0.0582772 -0.119867 0)
(0.441865 0.342953 0)
(0.174583 -0.336161 0)
(9.98898 0.059513 0)
(9.99479 0.0459446 0)
(9.95421 0.0896076 0)
(9.97361 0.0849829 0)
(9.89704 0.118207 0)
(9.92966 0.119358 0)
(9.82007 0.148111 0)
(9.86326 0.154209 0)
(9.7236 0.179667 0)
(9.77688 0.190683 0)
(9.60746 0.213046 0)
(9.67162 0.228947 0)
(9.4714 0.248682 0)
(9.54725 0.269466 0)
(9.31493 0.287076 0)
(9.40327 0.312852 0)
(9.13733 0.328704 0)
(9.23909 0.359692 0)
(8.93769 0.374025 0)
(9.05404 0.410541 0)
(8.7149 0.423497 0)
(8.84724 0.465957 0)
(8.46767 0.477567 0)
(8.61767 0.526493 0)
(8.19459 0.53664 0)
(8.36414 0.592683 0)
(7.8941 0.601045 0)
(8.08535 0.665009 0)
(7.56458 0.670965 0)
(7.7799 0.743838 0)
(7.20442 0.746355 0)
(7.44634 0.829348 0)
(6.8121 0.826817 0)
(7.08322 0.921407 0)
(6.3864 0.911447 0)
(6.68921 1.01941 0)
(5.92659 0.998644 0)
(6.26323 1.12209 0)
(5.43276 1.0859 0)
(5.80467 1.22725 0)
(4.90628 1.16954 0)
(5.31372 1.33147 0)
(4.3503 1.24451 0)
(4.79173 1.42981 0)
(3.77063 1.30407 0)
(4.24188 1.51538 0)
(3.17695 1.33926 0)
(3.66989 1.57882 0)
(2.58502 1.33743 0)
(3.08459 1.60704 0)
(2.01833 1.27222 0)
(2.50135 1.58079 0)
(1.48548 1.09485 0)
(1.92731 1.46349 0)
(0.957401 0.768971 0)
(1.38403 1.20985 0)
(0.478946 0.20189 0)
(0.828662 0.800502 0)
(0.433081 0.132937 0)
(9.98511 0.0717284 0)
(9.99365 0.0532372 0)
(9.95026 0.113813 0)
(9.9708 0.102462 0)
(9.89412 0.154376 0)
(9.92673 0.148199 0)
(9.81843 0.195869 0)
(9.86154 0.194032 0)
(9.72385 0.239152 0)
(9.77699 0.241644 0)
(9.61037 0.284701 0)
(9.67401 0.291576 0)
(9.47779 0.333124 0)
(9.55258 0.344404 0)
(9.3258 0.385094 0)
(9.41231 0.400846 0)
(9.15387 0.441273 0)
(9.25275 0.461627 0)
(8.96135 0.502306 0)
(9.07337 0.52745 0)
(8.74741 0.568835 0)
(8.87354 0.599014 0)
(8.51111 0.641492 0)
(8.65244 0.677017 0)
(8.25137 0.72087 0)
(8.40919 0.762138 0)
(7.96702 0.807478 0)
(8.14281 0.855002 0)
(7.65682 0.90166 0)
(7.85222 0.956118 0)
(7.31948 1.00349 0)
(7.53632 1.06579 0)
(6.95372 1.11263 0)
(7.19396 1.18397 0)
(6.55834 1.22809 0)
(6.82399 1.3101 0)
(6.1324 1.34802 0)
(6.42535 1.44282 0)
(5.67542 1.46934 0)
(5.99716 1.57968 0)
(5.18767 1.58739 0)
(5.53891 1.71673 0)
(4.67066 1.69553 0)
(5.05074 1.84805 0)
(4.12775 1.78453 0)
(4.53379 1.96521 0)
(3.56478 1.84179 0)
(3.99073 2.05655 0)
(2.99035 1.8499 0)
(3.42579 2.10628 0)
(2.41432 1.78162 0)
(2.84603 2.09354 0)
(1.83926 1.59969 0)
(2.25483 1.98776 0)
(1.2585 1.27777 0)
(1.6592 1.75212 0)
(0.666339 0.788569 0)
(1.02324 1.36679 0)
(0.522882 0.785575 0)
(9.98333 0.0845545 0)
(9.99315 0.061403 0)
(9.94808 0.137072 0)
(9.96951 0.120141 0)
(9.89289 0.188344 0)
(9.92557 0.176546 0)
(9.81867 0.240549 0)
(9.86168 0.233085 0)
(9.72606 0.294905 0)
(9.77916 0.291544 0)
(9.61514 0.352143 0)
(9.67874 0.352789 0)
(9.48576 0.412988 0)
(9.56042 0.417537 0)
(9.33763 0.478216 0)
(9.42391 0.4866 0)
(9.17034 0.548599 0)
(9.26882 0.560814 0)
(8.98335 0.624898 0)
(9.09472 0.640999 0)
(8.77601 0.707868 0)
(8.90106 0.727967 0)
(8.54758 0.798254 0)
(8.68719 0.822527 0)
(8.29722 0.896766 0)
(8.45238 0.925467 0)
(8.02407 1.00403 0)
(8.19584 1.03752 0)
(7.72717 1.1205 0)
(7.91675 1.1593 0)
(7.40556 1.24636 0)
(7.6142 1.29121 0)
(7.05821 1.38136 0)
(7.28728 1.43331 0)
(6.68411 1.52455 0)
(6.93501 1.58514 0)
(6.28229 1.67401 0)
(6.55636 1.74539 0)
(5.85187 1.82647 0)
(6.15027 1.91162 0)
(5.39229 1.97679 0)
(5.71569 2.07974 0)
(4.90346 2.11743 0)
(5.25166 2.2435 0)
(4.38612 2.23785 0)
(4.75746 2.39385 0)
(3.842 2.32365 0)
(4.23286 2.51828 0)
(3.2737 2.35595 0)
(3.67802 2.60019 0)
(2.6839 2.30952 0)
(3.09409 2.61855 0)
(2.07147 2.15392 0)
(2.48032 2.54608 0)
(1.42853 1.86626 0)
(1.83887 2.35245 0)
(0.742222 1.41809 0)
(1.13072 2.02311 0)
(0.54317 1.51254 0)
(9.98259 0.0976773 0)
(9.99297 0.0699267 0)
(9.94731 0.160061 0)
(9.96917 0.13784 0)
(9.89329 0.221729 0)
(9.92579 0.204294 0)
(9.82094 0.284557 0)
(9.86349 0.271153 0)
(9.73077 0.349883 0)
(9.78338 0.340131 0)
(9.62291 0.41861 0)
(9.68598 0.412316 0)
(9.49723 0.491572 0)
(9.57132 0.488576 0)
(9.35348 0.569635 0)
(9.43915 0.569816 0)
(9.19131 0.653677 0)
(9.28915 0.656968 0)
(9.01024 0.744566 0)
(9.12093 0.750953 0)
(8.80971 0.843163 0)
(8.934 0.852683 0)
(8.58909 0.950315 0)
(8.72781 0.96306 0)
(8.34768 1.06683 0)
(8.50171 1.08296 0)
(8.08473 1.19343 0)
(8.255 1.21321 0)
(7.79946 1.33068 0)
(7.98694 1.35452 0)
(7.49103 1.47885 0)
(7.69673 1.50738 0)
(7.15855 1.63781 0)
(7.38351 1.67198 0)
(6.80105 1.80672 0)
(7.0463 1.84798 0)
(6.41744 1.98377 0)
(6.684 2.03425 0)
(6.0065 2.16576 0)
(6.29528 2.22854 0)
(5.56687 2.34755 0)
(5.87853 2.42699 0)
(5.09706 2.52147 0)
(5.43179 2.62356 0)
(4.59552 2.67666 0)
(4.95272 2.8094 0)
(4.06068 2.79842 0)
(4.43865 2.97214 0)
(3.49092 2.8679 0)
(3.88656 3.09537 0)
(2.88432 2.8616 0)
(3.29355 3.1585 0)
(2.23683 2.75252 0)
(2.65553 3.13639 0)
(1.54163 2.51949 0)
(1.97383 3.00156 0)
(0.793274 2.12945 0)
(1.20663 2.73877 0)
(0.5566 2.2895 0)
(9.98246 0.110839 0)
(9.993 0.0785177 0)
(9.94757 0.182663 0)
(9.96946 0.155337 0)
(9.89497 0.254269 0)
(9.92704 0.231314 0)
(9.82484 0.327317 0)
(9.86665 0.308052 0)
(9.73756 0.403188 0)
(9.78929 0.387164 0)
(9.63327 0.482934 0)
(9.69539 0.469871 0)
(9.51189 0.567509 0)
(9.58492 0.557185 0)
(9.3732 0.657878 0)
(9.45772 0.650105 0)
(9.21688 0.755014 0)
(9.31351 0.74965 0)
(9.04252 0.859882 0)
(9.15194 0.856833 0)
(8.84962 0.973436 0)
(8.9726 0.972659 0)
(8.63759 1.09661 0)
(8.77495 1.09812 0)
(8.4058 1.2303 0)
(8.55842 1.23418 0)
(8.15356 1.37532 0)
(8.32235 1.38176 0)
(7.8801 1.53232 0)
(8.06601 1.54166 0)
(7.58461 1.70171 0)
(7.7886 1.71449 0)
(7.26615 1.88346 0)
(7.48919 1.90059 0)
(6.92363 2.07696 0)
(7.16669 2.09981 0)
(6.55571 2.28065 0)
(6.81977 2.31129 0)
(6.1607 2.49164 0)
(6.44671 2.53317 0)
(5.73645 2.7052 0)
(6.04527 2.76209 0)
(5.28019 2.91413 0)
(5.61253 2.99266 0)
(4.78848 3.10808 0)
(5.14469 3.2168 0)
(4.25717 3.27293 0)
(4.63705 3.423 0)
(3.68154 3.39041 0)
(4.08399 3.59566 0)
(3.05651 3.43808 0)
(3.47956 3.71486 0)
(2.37655 3.39005 0)
(2.81697 3.75628 0)
(1.63712 3.22425 0)
(2.09814 3.69198 0)
(0.838759 2.89857 0)
(1.27832 3.50225 0)
(0.573218 3.11101 0)
(9.98269 0.123827 0)
(9.99314 0.0869962 0)
(9.9486 0.2047 0)
(9.97019 0.172436 0)
(9.89769 0.285774 0)
(9.92908 0.257466 0)
(9.8301 0.368601 0)
(9.87091 0.343609 0)
(9.74613 0.454584 0)
(9.79667 0.432413 0)
(9.64591 0.544889 0)
(9.70668 0.525181 0)
(9.5294 0.640579 0)
(9.60093 0.62304 0)
(9.39643 0.742712 0)
(9.47929 0.727086 0)
(9.24671 0.852347 0)
(9.34155 0.838419 0)
(9.07988 0.970538 0)
(9.1874 0.958139 0)
(8.8955 1.09833 0)
(9.01647 1.08734 0)
(8.69302 1.23674 0)
(8.8283 1.22709 0)
(8.47185 1.38677 0)
(8.62233 1.37847 0)
(8.2313 1.54931 0)
(8.39795 1.54249 0)
(7.97059 1.72516 0)
(8.15441 1.72006 0)
(7.68884 1.91485 0)
(7.89087 1.91197 0)
(7.38498 2.11857 0)
(7.6063 2.11872 0)
(7.05768 2.33598 0)
(7.29943 2.34044 0)
(6.70524 2.5659 0)
(6.9686 2.57668 0)
(6.32543 2.80602 0)
(6.61166 2.82609 0)
(5.91525 3.05232 0)
(6.2257 3.08608 0)
(5.47074 3.29854 0)
(5.80683 3.35226 0)
(4.98679 3.5354 0)
(5.34991 3.61778 0)
(4.45707 3.74991 0)
(4.84837 3.8725 0)
(3.87426 3.92474 0)
(4.29421 4.10219 0)
(3.23072 4.03794 0)
(3.67869 4.2877 0)
(2.51962 4.06288 0)
(2.99204 4.40458 0)
(1.73758 3.97382 0)
(2.23634 4.42219 0)
(0.889095 3.7161 0)
(1.36276 4.31365 0)
(0.598605 3.98183 0)
(9.98316 0.136482 0)
(9.99337 0.0952416 0)
(9.95019 0.226016 0)
(9.97123 0.188975 0)
(9.90126 0.316089 0)
(9.93175 0.282602 0)
(9.83653 0.408225 0)
(9.87611 0.377661 0)
(9.75626 0.503845 0)
(9.8053 0.47567 0)
(9.66057 0.604201 0)
(9.71963 0.577987 0)
(9.54947 0.710453 0)
(9.61908 0.685839 0)
(9.42282 0.823744 0)
(9.50355 0.800405 0)
(9.2804 0.945214 0)
(9.37289 0.922864 0)
(9.12189 1.076 0)
(9.22687 1.0544 0)
(8.94689 1.21724 0)
(9.06515 1.19618 0)
(8.75492 1.37004 0)
(8.88734 1.34938 0)
(8.54542 1.5355 0)
(8.69293 1.51515 0)
(8.3177 1.71465 0)
(8.48133 1.69464 0)
(8.07097 1.90841 0)
(8.25181 1.88891 0)
(7.80425 2.11752 0)
(8.00348 2.09891 0)
(7.51631 2.34244 0)
(7.73522 2.32541 0)
(7.20558 2.5832 0)
(7.44557 2.5689 0)
(6.86996 2.83917 0)
(7.13261 2.8294 0)
(6.50664 3.10876 0)
(6.79374 3.10628 0)
(6.11182 3.38899 0)
(6.42543 3.39794 0)
(5.68038 3.67489 0)
(6.02289 3.70128 0)
(5.20565 3.95876 0)
(5.5797 4.01111 0)
(4.6792 4.22924 0)
(5.08747 4.31925 0)
(4.09107 4.47028 0)
(4.53574 4.61334 0)
(3.4307 4.66026 0)
(3.91256 4.87552 0)
(2.68876 4.77064 0)
(3.204 5.08097 0)
(1.86096 4.76966 0)
(2.41009 5.19513 0)
(0.953757 4.58665 0)
(1.4756 5.18121 0)
(0.639014 4.91597 0)
(9.98382 0.14868 0)
(9.99366 0.103168 0)
(9.95222 0.246468 0)
(9.97252 0.204824 0)
(9.90553 0.345063 0)
(9.93492 0.306585 0)
(9.84397 0.446008 0)
(9.88209 0.410051 0)
(9.76774 0.550746 0)
(9.81503 0.516741 0)
(9.67702 0.660598 0)
(9.73403 0.628058 0)
(9.57181 0.776807 0)
(9.6391 0.745303 0)
(9.45205 0.900594 0)
(9.53019 0.869737 0)
(9.31756 1.03318 0)
(9.40718 1.00261 0)
(9.16808 1.17577 0)
(9.26992 1.14517 0)
(9.00328 1.32959 0)
(9.11815 1.29867 0)
(8.82274 1.49585 0)
(8.95152 1.46438 0)
(8.62593 1.67576 0)
(8.76961 1.64355 0)
(8.41221 1.87048 0)
(8.57185 1.83745 0)
(8.18077 2.08112 0)
(8.35758 2.0473 0)
(7.93058 2.30865 0)
(8.12588 2.27427 0)
(7.6603 2.55388 0)
(7.87561 2.51943 0)
(7.36814 2.81729 0)
(7.60519 2.78369 0)
(7.05168 3.09892 0)
(7.31252 3.06769 0)
(6.70763 3.39812 0)
(6.99467 3.37162 0)
(6.33146 3.71319 0)
(6.64765 3.69506 0)
(5.91702 4.04083 0)
(6.26593 4.03654 0)
(5.45614 4.37541 0)
(5.84198 4.39298 0)
(4.93821 4.70785 0)
(5.3657 4.75875 0)
(4.35023 5.02415 0)
(4.82394 5.12436 0)
(3.67754 5.30348 0)
(4.20075 5.4743 0)
(2.90597 5.5152 0)
(3.47599 5.78438 0)
(2.02667 5.61979 0)
(2.6437 6.01615 0)
(1.04464 5.52592 0)
(1.63697 6.12034 0)
(0.704273 5.93913 0)
(9.9846 0.160326 0)
(9.994 0.110709 0)
(9.9546 0.265932 0)
(9.97401 0.219873 0)
(9.91039 0.372556 0)
(9.93849 0.329291 0)
(9.85226 0.481782 0)
(9.88873 0.440638 0)
(9.78041 0.595084 0)
(9.82569 0.555455 0)
(9.69502 0.713837 0)
(9.7497 0.675183 0)
(9.59616 0.839356 0)
(9.66077 0.801187 0)
(9.48378 0.972931 0)
(9.55891 0.934791 0)
(9.35779 1.11585 0)
(9.44407 1.07731 0)
(9.218 1.26939 0)
(9.31615 1.23006 0)
(9.06414 1.43487 0)
(9.17497 1.39436 0)
(8.89586 1.61358 0)
(9.02027 1.57157 0)
(8.71272 1.80685 0)
(8.8517 1.76303 0)
(8.51412 2.01598 0)
(8.66879 1.97015 0)
(8.29929 2.24229 0)
(8.47094 2.19431 0)
(8.06722 2.48703 0)
(8.2573 2.43693 0)
(7.81652 2.75138 0)
(8.02675 2.6994 0)
(7.54532 3.03637 0)
(7.77774 2.98309 0)
(7.25101 3.34283 0)
(7.50812 3.2893 0)
(6.93 3.67118 0)
(7.21486 3.61919 0)
(6.57727 4.02123 0)
(6.89376 3.97367 0)
(6.1859 4.39175 0)
(6.5389 4.35315 0)
(5.7464 4.77977 0)
(6.142 4.75712 0)
(5.24603 5.17942 0)
(5.6916 5.18336 0)
(4.66825 5.58006 0)
(5.17195 5.62651 0)
(3.99271 5.96341 0)
(4.56243 6.07562 0)
(3.19679 6.29825 0)
(3.83426 6.51 0)
(2.26075 6.53696 0)
(2.96942 6.89016 0)
(1.18014 6.5611 0)
(1.87838 7.15372 0)
(0.812635 7.09501 0)
(9.98549 0.171341 0)
(9.99438 0.117816 0)
(9.95725 0.284302 0)
(9.97564 0.234036 0)
(9.91575 0.398442 0)
(9.9424 0.35061 0)
(9.86128 0.515399 0)
(9.89591 0.469294 0)
(9.7941 0.636677 0)
(9.83716 0.591659 0)
(9.71438 0.763702 0)
(9.76645 0.719179 0)
(9.62223 0.897845 0)
(9.68386 0.85327 0)
(9.51769 1.04046 0)
(9.58942 0.995311 0)
(9.40071 1.19288 0)
(9.48318 1.14667 0)
(9.27117 1.35647 0)
(9.3651 1.30872 0)
(9.12891 1.5326 0)
(9.23508 1.48284 0)
(8.97366 1.72266 0)
(9.09296 1.67046 0)
(8.80506 1.92808 0)
(8.93849 1.87303 0)
(8.62262 2.15034 0)
(8.77133 2.09205 0)
(8.42567 2.39093 0)
(8.59097 2.32909 0)
(8.21327 2.6514 0)
(8.39672 2.5858 0)
(7.98413 2.93333 0)
(8.18758 2.86389 0)
(7.73642 3.23835 0)
(7.96216 3.16521 0)
(7.46758 3.56809 0)
(7.71844 3.49173 0)
(7.17399 3.92419 0)
(7.45361 3.84561 0)
(6.85052 4.30815 0)
(7.1636 4.22917 0)
(6.48993 4.72113 0)
(6.84262 4.64486 0)
(6.08196 5.16346 0)
(6.48235 5.09514 0)
(5.6122 5.63366 0)
(6.07078 5.58199 0)
(5.06057 6.12661 0)
(5.59049 6.10594 0)
(4.39977 6.63007 0)
(5.0166 6.66382 0)
(3.59436 7.11711 0)
(4.31025 7.24426 0)
(2.60326 7.53628 0)
(3.43419 7.81556 0)
(1.39388 7.73592 0)
(2.25577 8.31027 0)
(1.00255 8.46022 0)
(9.98646 0.181663 0)
(9.99478 0.124448 0)
(9.96013 0.301489 0)
(9.97739 0.24724 0)
(9.92151 0.422612 0)
(9.94658 0.37045 0)
(9.87092 0.546726 0)
(9.90355 0.495908 0)
(9.80864 0.67537 0)
(9.84928 0.625219 0)
(9.73488 0.810006 0)
(9.7841 0.759888 0)
(9.64979 0.952054 0)
(9.70812 0.901367 0)
(9.55345 1.10291 0)
(9.62144 1.05108 0)
(9.44591 1.26397 0)
(9.52416 1.21044 0)
(9.32712 1.43664 0)
(9.41633 1.38085 0)
(9.19701 1.62235 0)
(9.29794 1.56376 0)
(9.05544 1.82258 0)
(9.16895 1.76064 0)
(8.90216 2.03886 0)
(9.02923 1.97303 0)
(8.73681 2.27279 0)
(8.87858 2.20253 0)
(8.55887 2.52606 0)
(8.71666 2.45086 0)
(8.36759 2.8005 0)
(8.54297 2.71986 0)
(8.16187 3.09808 0)
(8.35676 3.01156 0)
(7.94013 3.42098 0)
(8.15691 3.32823 0)
(7.70009 3.77167 0)
(7.94181 3.67248 0)
(7.43847 4.15297 0)
(7.7091 4.04737 0)
(7.15057 4.56813 0)
(7.45535 4.45657 0)
(6.82951 5.02088 0)
(7.17557 4.90459 0)
(6.46528 5.51537 0)
(6.86239 5.39692 0)
(6.04303 6.05574 0)
(6.50481 5.9403 0)
(5.54055 6.64505 0)
(6.0859 6.54265 0)
(4.92424 7.28265 0)
(5.57958 7.21242 0)
(4.14303 7.95657 0)
(4.93983 7.95647 0)
(3.12073 8.62849 0)
(4.10773 8.7701 0)
(1.756 9.12283 0)
(2.87801 9.61537 0)
(1.365 10.1801 0)
(9.98749 0.191243 0)
(9.99521 0.130574 0)
(9.96319 0.317417 0)
(9.97924 0.259427 0)
(9.9276 0.444972 0)
(9.95097 0.388734 0)
(9.88107 0.575654 0)
(9.91156 0.520388 0)
(9.8239 0.711032 0)
(9.86194 0.656027 0)
(9.75633 0.852598 0)
(9.80249 0.797179 0)
(9.67856 1.00181 0)
(9.73335 0.945325 0)
(9.59074 1.1601 0)
(9.65468 1.10192 0)
(9.49298 1.32889 0)
(9.56665 1.2684 0)
(9.38534 1.50964 0)
(9.4694 1.44621 0)
(9.26785 1.70383 0)
(9.36302 1.63683 0)
(9.14048 1.91298 0)
(9.24759 1.84177 0)
(9.00315 2.13871 0)
(9.12312 2.06263 0)
(8.85566 2.38274 0)
(8.98958 2.30108 0)
(8.69771 2.64691 0)
(8.84685 2.55895 0)
(8.52879 2.93329 0)
(8.69467 2.83826 0)
(8.34812 3.24417 0)
(8.53263 3.14125 0)
(8.15455 3.58223 0)
(8.36003 3.47055 0)
(7.94635 3.95065 0)
(8.17583 3.82926 0)
(7.72099 4.35332 0)
(7.97845 4.22117 0)
(7.47474 4.79507 0)
(7.76554 4.65108 0)
(7.20207 5.28209 0)
(7.53363 5.12517 0)
(6.89463 5.82235 0)
(7.27754 5.65165 0)
(6.53951 6.42624 0)
(6.98931 6.24165 0)
(6.11603 7.1072 0)
(6.65629 6.9107 0)
(5.58952 7.88245 0)
(6.25802 7.68109 0)
(4.89851 8.77201 0)
(5.75418 8.58643 0)
(3.92593 9.79542 0)
(5.08557 9.67822 0)
(2.43352 10.8513 0)
(3.9798 11.0426 0)
(2.14751 12.5636 0)
(9.98857 0.20004 0)
(9.99565 0.136172 0)
(9.96639 0.332024 0)
(9.98116 0.270552 0)
(9.93395 0.465441 0)
(9.95552 0.4054 0)
(9.89161 0.602075 0)
(9.91985 0.542659 0)
(9.83971 0.743525 0)
(9.87504 0.683994 0)
(9.77852 0.891305 0)
(9.82148 0.830948 0)
(9.70829 1.04689 0)
(9.75938 0.985023 0)
(9.62923 1.21175 0)
(9.68895 1.14769 0)
(9.54152 1.38733 0)
(9.61044 1.3204 0)
(9.44533 1.5751 0)
(9.52408 1.50462 0)
(9.34081 1.77657 0)
(9.43006 1.70184 0)
(9.22805 1.99332 0)
(9.3286 1.9136 0)
(9.10714 2.227 0)
(9.21987 2.14151 0)
(8.9781 2.47941 0)
(9.10402 2.3873 0)
(8.84087 2.75253 0)
(8.98118 2.65287 0)
(8.69525 3.04855 0)
(8.85139 2.94032 0)
(8.54092 3.37003 0)
(8.71463 3.25204 0)
(8.37726 3.71999 0)
(8.57074 3.59087 0)
(8.20334 4.10213 0)
(8.41939 3.96022 0)
(8.0177 4.5211 0)
(8.26001 4.36433 0)
(7.8182 4.98292 0)
(8.09172 4.80866 0)
(7.60155 5.49563 0)
(7.91319 5.30043 0)
(7.3628 6.07025 0)
(7.72245 5.84947 0)
(7.09407 6.72244 0)
(7.51671 6.46969 0)
(6.78232 7.47541 0)
(7.29181 7.18164 0)
(6.40414 8.36595 0)
(7.04243 8.01772 0)
(5.91269 9.4587 0)
(6.75863 9.03447 0)
(5.19556 10.9006 0)
(6.45995 10.3478 0)
(3.88669 13.1737 0)
(6.19296 12.2942 0)
(5.27158 16.3704 0)
(0.380683 -0.271799 0)
(0.196894 -0.372855 0)
(0.7103 -0.22072 0)
(0.478742 -0.315215 0)
(0.990148 -0.180231 0)
(0.755039 -0.2613 0)
(1.2323 -0.150303 0)
(1.00215 -0.220764 0)
(1.4448 -0.12715 0)
(1.21507 -0.189155 0)
(1.6321 -0.108245 0)
(1.40027 -0.162778 0)
(1.797 -0.0922898 0)
(1.56314 -0.139934 0)
(1.94149 -0.0785322 0)
(1.70628 -0.11972 0)
(2.067 -0.0664617 0)
(1.83087 -0.101529 0)
(2.17467 -0.0556534 0)
(1.9378 -0.0850482 0)
(2.26524 -0.0456054 0)
(2.02813 -0.0698482 0)
(2.33775 -0.0360088 0)
(2.10243 -0.0545965 0)
(2.39213 -0.0263722 0)
(2.15869 -0.0399826 0)
(2.43031 -0.0164553 0)
(2.19789 -0.0274054 0)
(2.45345 -0.00958331 0)
(2.22199 -0.0162228 0)
(2.46369 -0.0093479 0)
(2.2133 -0.00700672 0)
(2.46449 -0.0148335 0)
(2.17272 -0.000530996 0)
(2.4587 -0.0219264 0)
(2.10685 0.00377634 0)
(2.44504 -0.0260143 0)
(2.02569 0.00869756 0)
(2.4183 -0.0250011 0)
(1.93603 0.0166357 0)
(2.37547 -0.0194691 0)
(1.8406 0.0260047 0)
(2.3187 -0.0115213 0)
(1.74244 0.0336631 0)
(2.25494 -0.00361258 0)
(1.64776 0.0369116 0)
(2.19363 0.0021202 0)
(1.56461 0.034654 0)
(2.14473 0.00385333 0)
(1.50211 0.0269836 0)
(2.1168 0.0013003 0)
(1.46556 0.0150495 0)
(2.11202 -0.0021315 0)
(1.4556 0.0025174 0)
(2.14424 -0.00552217 0)
(1.48355 -0.0165537 0)
(2.22847 -0.0132827 0)
(1.56079 -0.0422471 0)
(1.74843 -0.0732185 0)
(0.278065 -0.496751 0)
(0.116308 -0.645202 0)
(0.547415 -0.422206 0)
(0.348139 -0.572795 0)
(0.783952 -0.35323 0)
(0.554734 -0.482159 0)
(0.989968 -0.29939 0)
(0.74436 -0.408582 0)
(1.17128 -0.256432 0)
(0.907161 -0.350548 0)
(1.33146 -0.220268 0)
(1.04743 -0.301996 0)
(1.47248 -0.188715 0)
(1.16848 -0.2596 0)
(1.59546 -0.16058 0)
(1.27167 -0.221614 0)
(1.70115 -0.135286 0)
(1.35717 -0.187026 0)
(1.7906 -0.112393 0)
(1.42492 -0.155704 0)
(1.86529 -0.0899473 0)
(1.47576 -0.127447 0)
(1.9228 -0.0680659 0)
(1.51299 -0.0979039 0)
(1.96413 -0.0515711 0)
(1.52997 -0.0703694 0)
(1.98986 -0.0392658 0)
(1.48885 -0.0458753 0)
(1.97885 -0.0231791 0)
(1.4157 -0.00850577 0)
(1.92021 -0.0026367 0)
(1.32965 0.0331232 0)
(1.81301 0.017676 0)
(1.21693 0.0710953 0)
(1.67332 0.036767 0)
(1.07786 0.0949121 0)
(1.51751 0.0550607 0)
(0.925669 0.107945 0)
(1.35911 0.0712926 0)
(0.771598 0.115154 0)
(1.20725 0.0826757 0)
(0.627476 0.118223 0)
(1.07031 0.086052 0)
(0.49957 0.114853 0)
(0.956628 0.0797826 0)
(0.391707 0.102724 0)
(0.872009 0.0645888 0)
(0.309503 0.0824836 0)
(0.818347 0.043684 0)
(0.259124 0.0565988 0)
(0.795702 0.0207334 0)
(0.244765 0.0272515 0)
(0.814469 -0.00592976 0)
(0.262399 -0.00735636 0)
(0.888934 -0.0437521 0)
(0.33575 -0.0548061 0)
(1.03583 -0.0932555 0)
(0.453253 -0.115922 0)
(0.680467 -0.176093 0)
(0.186704 -0.732233 0)
(0.0610519 -0.828067 0)
(0.369031 -0.643037 0)
(0.218069 -0.747156 0)
(0.529037 -0.547773 0)
(0.33324 -0.63156 0)
(0.667287 -0.469326 0)
(0.4463 -0.534621 0)
(0.785777 -0.404944 0)
(0.536561 -0.45602 0)
(0.886024 -0.349711 0)
(0.60867 -0.389122 0)
(0.9689 -0.300673 0)
(0.663535 -0.329927 0)
(1.03429 -0.256031 0)
(0.701396 -0.275791 0)
(1.0811 -0.215335 0)
(0.721055 -0.224897 0)
(1.10954 -0.180507 0)
(0.721232 -0.178168 0)
(1.12674 -0.150452 0)
(0.698092 -0.140708 0)
(1.11931 -0.113502 0)
(0.613873 -0.0923132 0)
(1.05027 -0.0629377 0)
(0.526386 -0.019605 0)
(0.917722 -0.00620513 0)
(0.417865 0.0492708 0)
(0.766242 0.0517248 0)
(0.274485 0.0976657 0)
(0.620697 0.103793 0)
(0.143867 0.132725 0)
(0.476984 0.140587 0)
(0.0122576 0.167121 0)
(0.329333 0.161618 0)
(-0.122781 0.191239 0)
(0.181121 0.170275 0)
(-0.25539 0.202354 0)
(0.040977 0.169572 0)
(-0.380853 0.202316 0)
(-0.0813034 0.160737 0)
(-0.490045 0.192478 0)
(-0.181421 0.143399 0)
(-0.578521 0.174213 0)
(-0.257692 0.117693 0)
(-0.645238 0.146878 0)
(-0.30656 0.0858471 0)
(-0.687648 0.110105 0)
(-0.323164 0.0492273 0)
(-0.702056 0.0657626 0)
(-0.301982 0.00449271 0)
(-0.683963 0.015837 0)
(-0.232341 -0.0541578 0)
(-0.631385 -0.0439961 0)
(-0.111633 -0.129514 0)
(-0.538062 -0.116814 0)
(0.0587954 -0.204823 0)
(-0.423434 -0.201403 0)
(-0.268764 -0.258414 0)
(0.101456 -0.860597 0)
(0.0142256 -0.927437 0)
(0.190071 -0.754438 0)
(0.0875189 -0.831898 0)
(0.263643 -0.638118 0)
(0.105879 -0.700256 0)
(0.322024 -0.540701 0)
(0.134974 -0.587845 0)
(0.364333 -0.458756 0)
(0.142065 -0.49368 0)
(0.390209 -0.387239 0)
(0.134336 -0.411611 0)
(0.399678 -0.32293 0)
(0.109417 -0.337962 0)
(0.392098 -0.263192 0)
(0.0663617 -0.269511 0)
(0.364334 -0.204952 0)
(0.00290036 -0.202437 0)
(0.305174 -0.142711 0)
(-0.0826839 -0.131439 0)
(0.186043 -0.0681082 0)
(-0.190537 -0.0488328 0)
(0.0238822 0.0131723 0)
(-0.331886 0.0297936 0)
(-0.113669 0.0815745 0)
(-0.467638 0.0815244 0)
(-0.228015 0.130887 0)
(-0.575893 0.131354 0)
(-0.345675 0.168572 0)
(-0.694323 0.180133 0)
(-0.47114 0.20102 0)
(-0.811006 0.218586 0)
(-0.593346 0.226604 0)
(-0.925093 0.248776 0)
(-0.709397 0.240274 0)
(-1.03338 0.26695 0)
(-0.816824 0.241068 0)
(-1.13241 0.270784 0)
(-0.91125 0.230323 0)
(-1.21919 0.261044 0)
(-0.988616 0.209465 0)
(-1.28999 0.239459 0)
(-1.04502 0.179116 0)
(-1.34175 0.207653 0)
(-1.07825 0.139178 0)
(-1.37277 0.166116 0)
(-1.08731 0.0900408 0)
(-1.38281 0.11523 0)
(-1.07048 0.0326303 0)
(-1.37089 0.0564693 0)
(-1.02484 -0.0333979 0)
(-1.33769 -0.00875234 0)
(-0.952434 -0.108611 0)
(-1.27915 -0.082092 0)
(-0.861358 -0.189671 0)
(-1.20677 -0.163599 0)
(-0.771846 -0.260492 0)
(-1.13057 -0.246299 0)
(-1.07193 -0.30536 0)
(0.00941098 -0.90183 0)
(-0.0338237 -0.936655 0)
(0.00586219 -0.77999 0)
(-0.0490014 -0.828505 0)
(-0.0117646 -0.649415 0)
(-0.123258 -0.683798 0)
(-0.0384718 -0.538606 0)
(-0.182897 -0.563497 0)
(-0.0808363 -0.44164 0)
(-0.259996 -0.45597 0)
(-0.140116 -0.354691 0)
(-0.348039 -0.36009 0)
(-0.218331 -0.273532 0)
(-0.449247 -0.27159 0)
(-0.31769 -0.193715 0)
(-0.563992 -0.187187 0)
(-0.440014 -0.111702 0)
(-0.692672 -0.10348 0)
(-0.580917 -0.0288434 0)
(-0.82801 -0.0201453 0)
(-0.710418 0.0434917 0)
(-0.959143 0.0510401 0)
(-0.818336 0.0994875 0)
(-1.06945 0.111055 0)
(-0.931811 0.150079 0)
(-1.18178 0.164953 0)
(-1.04774 0.19986 0)
(-1.29411 0.214575 0)
(-1.15954 0.241956 0)
(-1.40383 0.258491 0)
(-1.26775 0.273434 0)
(-1.50802 0.292638 0)
(-1.36795 0.293579 0)
(-1.60423 0.31573 0)
(-1.45741 0.299989 0)
(-1.69013 0.325311 0)
(-1.53457 0.29197 0)
(-1.76397 0.319935 0)
(-1.59743 0.270636 0)
(-1.82426 0.300134 0)
(-1.64368 0.237679 0)
(-1.86929 0.267548 0)
(-1.67128 0.194422 0)
(-1.89747 0.224017 0)
(-1.67959 0.141738 0)
(-1.90833 0.170926 0)
(-1.6695 0.0808676 0)
(-1.90288 0.109529 0)
(-1.64222 0.012886 0)
(-1.88248 0.0414157 0)
(-1.5993 -0.0617738 0)
(-1.84865 -0.0318813 0)
(-1.54492 -0.142082 0)
(-1.80304 -0.110702 0)
(-1.48768 -0.223674 0)
(-1.75408 -0.193003 0)
(-1.4354 -0.29329 0)
(-1.71033 -0.272522 0)
(-1.68645 -0.332378 0)
(-0.0779725 -0.850106 0)
(-0.0863853 -0.860286 0)
(-0.17776 -0.716425 0)
(-0.186966 -0.733077 0)
(-0.28282 -0.58023 0)
(-0.34519 -0.585701 0)
(-0.397134 -0.462224 0)
(-0.487564 -0.459281 0)
(-0.519619 -0.356614 0)
(-0.636221 -0.346941 0)
(-0.650719 -0.260213 0)
(-0.787087 -0.24615 0)
(-0.790033 -0.169839 0)
(-0.938979 -0.15337 0)
(-0.935475 -0.0840855 0)
(-1.08981 -0.0666826 0)
(-1.0774 -0.0050007 0)
(-1.23263 0.0113377 0)
(-1.20289 0.0644454 0)
(-1.36411 0.0789751 0)
(-1.31733 0.126136 0)
(-1.48141 0.139298 0)
(-1.4303 0.182012 0)
(-1.59688 0.196115 0)
(-1.54229 0.232111 0)
(-1.70923 0.247295 0)
(-1.65076 0.276393 0)
(-1.81702 0.292435 0)
(-1.75229 0.312212 0)
(-1.91793 0.329654 0)
(-1.84531 0.336883 0)
(-2.01001 0.356299 0)
(-1.92743 0.348626 0)
(-2.0915 0.370598 0)
(-1.99706 0.345843 0)
(-2.16099 0.370739 0)
(-2.05344 0.328204 0)
(-2.21768 0.35585 0)
(-2.09585 0.296778 0)
(-2.26104 0.326509 0)
(-2.1235 0.253357 0)
(-2.29054 0.284339 0)
(-2.13591 0.199778 0)
(-2.3059 0.231377 0)
(-2.1336 0.137702 0)
(-2.30764 0.169586 0)
(-2.11821 0.0688928 0)
(-2.2973 0.100829 0)
(-2.09182 -0.0052251 0)
(-2.27705 0.0268542 0)
(-2.05741 -0.0835445 0)
(-2.24825 -0.0504218 0)
(-2.01967 -0.164488 0)
(-2.21565 -0.130559 0)
(-1.98392 -0.244471 0)
(-2.1845 -0.211367 0)
(-1.95267 -0.312745 0)
(-2.161 -0.288197 0)
(-2.15163 -0.346418 0)
(-0.167172 -0.715513 0)
(-0.142179 -0.69655 0)
(-0.351823 -0.576535 0)
(-0.317892 -0.556494 0)
(-0.535871 -0.4419 0)
(-0.548369 -0.413852 0)
(-0.718048 -0.325163 0)
(-0.755165 -0.293196 0)
(-0.896875 -0.221572 0)
(-0.953307 -0.187761 0)
(-1.07026 -0.12794 0)
(-1.13905 -0.0954612 0)
(-1.23515 -0.0426064 0)
(-1.30948 -0.0134448 0)
(-1.3837 0.0324868 0)
(-1.46473 0.0563977 0)
(-1.5163 0.0978056 0)
(-1.60451 0.118609 0)
(-1.64011 0.157634 0)
(-1.73384 0.176768 0)
(-1.7598 0.213672 0)
(-1.85719 0.231604 0)
(-1.87413 0.264913 0)
(-1.97411 0.282205 0)
(-1.98264 0.30989 0)
(-2.08407 0.327067 0)
(-2.08362 0.347258 0)
(-2.18615 0.364929 0)
(-2.17527 0.374954 0)
(-2.27897 0.393887 0)
(-2.25629 0.390855 0)
(-2.36133 0.411743 0)
(-2.32534 0.393275 0)
(-2.43218 0.41674 0)
(-2.38168 0.381094 0)
(-2.4908 0.407491 0)
(-2.4251 0.354283 0)
(-2.53691 0.383508 0)
(-2.45563 0.313966 0)
(-2.57051 0.345496 0)
(-2.47339 0.262015 0)
(-2.59172 0.295128 0)
(-2.47884 0.200572 0)
(-2.60099 0.234605 0)
(-2.47305 0.131793 0)
(-2.5994 0.166234 0)
(-2.45799 0.0578004 0)
(-2.58874 0.0923164 0)
(-2.43602 -0.0196772 0)
(-2.57152 0.0147314 0)
(-2.41049 -0.0991741 0)
(-2.54932 -0.0641761 0)
(-2.38553 -0.179109 0)
(-2.52749 -0.143694 0)
(-2.36459 -0.256684 0)
(-2.51007 -0.222124 0)
(-2.3491 -0.322473 0)
(-2.50101 -0.295967 0)
(-2.50017 -0.351117 0)
(-0.251273 -0.509252 0)
(-0.20079 -0.450444 0)
(-0.50853 -0.374959 0)
(-0.441199 -0.310478 0)
(-0.753975 -0.253032 0)
(-0.722898 -0.184676 0)
(-0.981927 -0.147124 0)
(-0.965786 -0.0853791 0)
(-1.18966 -0.05507 0)
(-1.18476 -0.00284968 0)
(-1.3739 0.0224191 0)
(-1.38004 0.064662 0)
(-1.53587 0.0876006 0)
(-1.55411 0.123998 0)
(-1.68261 0.146185 0)
(-1.70992 0.17798 0)
(-1.81997 0.201553 0)
(-1.85443 0.229732 0)
(-1.94911 0.253863 0)
(-1.98852 0.278766 0)
(-2.07003 0.302477 0)
(-2.11312 0.324865 0)
(-2.18255 0.346157 0)
(-2.22843 0.366927 0)
(-2.28637 0.383355 0)
(-2.33446 0.403397 0)
(-2.38065 0.41236 0)
(-2.43087 0.432607 0)
(-2.46441 0.431183 0)
(-2.517 0.452597 0)
(-2.5369 0.437934 0)
(-2.59225 0.461353 0)
(-2.59747 0.431146 0)
(-2.65606 0.45721 0)
(-2.64583 0.410019 0)
(-2.70815 0.43904 0)
(-2.68208 0.374749 0)
(-2.74847 0.406598 0)
(-2.70655 0.326564 0)
(-2.77722 0.360711 0)
(-2.71975 0.267451 0)
(-2.79481 0.303148 0)
(-2.72259 0.19979 0)
(-2.802 0.236288 0)
(-2.71657 0.12607 0)
(-2.80017 0.162749 0)
(-2.70387 0.0486396 0)
(-2.7913 0.0851398 0)
(-2.68738 -0.0304953 0)
(-2.77799 0.00562751 0)
(-2.66989 -0.109687 0)
(-2.76248 -0.0735981 0)
(-2.65521 -0.18765 0)
(-2.74978 -0.151418 0)
(-2.64589 -0.262229 0)
(-2.74367 -0.226913 0)
(-2.64333 -0.324773 0)
(-2.7461 -0.297249 0)
(-2.7514 -0.34868 0)
(-0.332311 -0.253063 0)
(-0.247263 -0.124966 0)
(-0.647588 -0.117963 0)
(-0.528935 -0.00897697 0)
(-0.920914 -0.0126794 0)
(-0.835692 0.0705346 0)
(-1.16079 0.0620275 0)
(-1.09452 0.133306 0)
(-1.37015 0.12022 0)
(-1.32211 0.183507 0)
(-1.55651 0.171036 0)
(-1.52267 0.226636 0)
(-1.72522 0.218944 0)
(-1.70249 0.26716 0)
(-1.87965 0.26491 0)
(-1.86458 0.305931 0)
(-2.02105 0.30917 0)
(-2.01175 0.34412 0)
(-2.15093 0.351275 0)
(-2.1458 0.381355 0)
(-2.27009 0.390299 0)
(-2.26813 0.416762 0)
(-2.37897 0.424778 0)
(-2.37963 0.448915 0)
(-2.47775 0.452968 0)
(-2.48081 0.476021 0)
(-2.56622 0.472958 0)
(-2.57184 0.496117 0)
(-2.64401 0.482751 0)