/*--------------------------------*- C++ -*----------------------------------*\
  =========                 |
  \\      /  F ield         | OpenFOAM: The Open Source CFD Toolbox
   \\    /   O peration     | Website:  https://openfoam.org
    \\  /    A nd           | Version:  7
     \\/     M anipulation  |
\*---------------------------------------------------------------------------*/
FoamFile
{
    version     2.0;
    format      ascii;
    class       volVectorField;
    location    "9.03";
    object      U;
}
// * * * * * * * * * * * * * * * * * * * * * * * * * * * * * * * * * * * * * //

dimensions      [0 1 -1 0 0 0 0];

internalField   nonuniform List<vector> 
12013
(
(0.100958 -0.000256276 0)
(0.104674 -0.000442978 0)
(0.110282 -0.000604053 0)
(0.117248 -0.00074627 0)
(0.125415 -0.000876257 0)
(0.134644 -0.000999126 0)
(0.144841 -0.00111907 0)
(0.155954 -0.00123943 0)
(0.167958 -0.00136245 0)
(0.180845 -0.00148904 0)
(0.194605 -0.00161875 0)
(0.20922 -0.00174983 0)
(0.224651 -0.00187952 0)
(0.240835 -0.00200443 0)
(0.257682 -0.00212101 0)
(0.275081 -0.00222593 0)
(0.2929 -0.00231639 0)
(0.310997 -0.00239035 0)
(0.329225 -0.00244655 0)
(0.34744 -0.00248449 0)
(0.365505 -0.00250438 0)
(0.383295 -0.00250694 0)
(0.400697 -0.00249331 0)
(0.417617 -0.00246491 0)
(0.433973 -0.00242328 0)
(0.449702 -0.00237004 0)
(0.464753 -0.00230679 0)
(0.47909 -0.00223505 0)
(0.492689 -0.00215624 0)
(0.505534 -0.00207168 0)
(0.51762 -0.00198252 0)
(0.528949 -0.00188982 0)
(0.539529 -0.00179449 0)
(0.549375 -0.00169733 0)
(0.558503 -0.00159902 0)
(0.566934 -0.00150015 0)
(0.574691 -0.00140123 0)
(0.581801 -0.00130269 0)
(0.58829 -0.00120486 0)
(0.594185 -0.00110806 0)
(0.599515 -0.00101253 0)
(0.604309 -0.000918463 0)
(0.608597 -0.000826012 0)
(0.612406 -0.000735303 0)
(0.615766 -0.000646423 0)
(0.618706 -0.000559422 0)
(0.621253 -0.00047432 0)
(0.623435 -0.000391108 0)
(0.62528 -0.000309743 0)
(0.626813 -0.000230143 0)
(0.628061 -0.000152184 0)
(0.629048 -7.56974e-05 0)
(0.629799 -4.93385e-07 0)
(0.630337 7.3669e-05 0)
(0.630685 0.000146935 0)
(0.630865 0.000219593 0)
(0.630899 0.000292021 0)
(0.630808 0.00036469 0)
(0.63061 0.000438166 0)
(0.630324 0.000513135 0)
(0.629967 0.00059043 0)
(0.629553 0.000671065 0)
(0.629095 0.000756285 0)
(0.628604 0.000847624 0)
(0.628087 0.000946993 0)
(0.627548 0.0010568 0)
(0.626987 0.00118012 0)
(0.626397 0.00132095 0)
(0.625765 0.00148457 0)
(0.625065 0.00167818 0)
(0.62426 0.00191176 0)
(0.62329 0.00219973 0)
(0.622064 0.00256364 0)
(0.620447 0.00303712 0)
(0.618227 0.00367524 0)
(0.615067 0.00457325 0)
(0.610408 0.00590586 0)
(0.603264 0.00802028 0)
(0.591858 0.0117368 0)
(0.573051 0.019988 0)
(0.554298 0.0532489 0)
(0.10087 -0.000780431 0)
(0.104564 -0.00135552 0)
(0.110139 -0.0018488 0)
(0.117077 -0.00228357 0)
(0.125219 -0.0026807 0)
(0.134426 -0.00305579 0)
(0.144602 -0.00342172 0)
(0.155696 -0.00378874 0)
(0.167685 -0.00416367 0)
(0.18056 -0.00454937 0)
(0.194314 -0.00494443 0)
(0.208929 -0.00534353 0)
(0.224368 -0.00573824 0)
(0.240568 -0.00611825 0)
(0.257439 -0.00647276 0)
(0.27487 -0.00679168 0)
(0.292727 -0.00706659 0)
(0.310868 -0.00729129 0)
(0.329144 -0.007462 0)
(0.34741 -0.0075773 0)
(0.365528 -0.00763777 0)
(0.38337 -0.00764568 0)
(0.400824 -0.00760449 0)
(0.417794 -0.00751845 0)
(0.434198 -0.00739227 0)
(0.449971 -0.00723084 0)
(0.465064 -0.00703896 0)
(0.47944 -0.00682125 0)
(0.493074 -0.00658199 0)
(0.50595 -0.00632513 0)
(0.518065 -0.00605422 0)
(0.529419 -0.00577239 0)
(0.540022 -0.00548242 0)
(0.549887 -0.00518672 0)
(0.559032 -0.00488738 0)
(0.567477 -0.00458619 0)
(0.575246 -0.00428467 0)
(0.582366 -0.00398412 0)
(0.588862 -0.00368562 0)
(0.594762 -0.00339007 0)
(0.600096 -0.00309824 0)
(0.604891 -0.00281071 0)
(0.609178 -0.00252798 0)
(0.612986 -0.00225041 0)
(0.616342 -0.00197827 0)
(0.619276 -0.00171173 0)
(0.621816 -0.00145087 0)
(0.623989 -0.00119564 0)
(0.625822 -0.000945923 0)
(0.627343 -0.000701469 0)
(0.628575 -0.000461904 0)
(0.629546 -0.000226709 0)
(0.630278 4.70321e-06 0)
(0.630795 0.000232935 0)
(0.63112 0.00045848 0)
(0.631274 0.000682184 0)
(0.63128 0.000905207 0)
(0.631158 0.00112898 0)
(0.630927 0.00135524 0)
(0.630604 0.00158607 0)
(0.630207 0.00182401 0)
(0.629749 0.00207214 0)
(0.629245 0.00233421 0)
(0.628704 0.00261486 0)
(0.628136 0.00291983 0)
(0.627543 0.00325631 0)
(0.626927 0.00363348 0)
(0.626282 0.00406314 0)
(0.625598 0.00456086 0)
(0.624854 0.00514755 0)
(0.624018 0.005852 0)
(0.62304 0.00671513 0)
(0.621851 0.00779686 0)
(0.620347 0.00918832 0)
(0.618379 0.0110336 0)
(0.615733 0.0135704 0)
(0.612106 0.0172073 0)
(0.607071 0.022678 0)
(0.600078 0.0313772 0)
(0.591028 0.0460345 0)
(0.587928 0.0718274 0)
(0.100769 -0.00132086 0)
(0.104403 -0.00232098 0)
(0.109908 -0.0031713 0)
(0.116786 -0.00392031 0)
(0.124875 -0.00460436 0)
(0.134034 -0.0052503 0)
(0.144168 -0.00588048 0)
(0.155225 -0.00651274 0)
(0.167184 -0.007159 0)
(0.180037 -0.00782424 0)
(0.193782 -0.00850616 0)
(0.208401 -0.00919556 0)
(0.22386 -0.00987783 0)
(0.240096 -0.0105351 0)
(0.257022 -0.0111486 0)
(0.274521 -0.0117007 0)
(0.292462 -0.0121769 0)
(0.310697 -0.0125662 0)
(0.329076 -0.0128622 0)
(0.347449 -0.0130622 0)
(0.365676 -0.0131674 0)
(0.383627 -0.0131816 0)
(0.401188 -0.0131109 0)
(0.41826 -0.0129627 0)
(0.434761 -0.0127451 0)
(0.450626 -0.0124665 0)
(0.465804 -0.0121354 0)
(0.480257 -0.0117596 0)
(0.493961 -0.0113466 0)
(0.506902 -0.0109033 0)
(0.519074 -0.0104357 0)
(0.530479 -0.00994934 0)
(0.541126 -0.00944892 0)
(0.55103 -0.00893862 0)
(0.560208 -0.00842206 0)
(0.568681 -0.00790231 0)
(0.576474 -0.007382 0)
(0.583612 -0.00686335 0)
(0.590123 -0.00634823 0)
(0.596034 -0.0058382 0)
(0.601375 -0.00533453 0)
(0.606174 -0.00483826 0)
(0.610461 -0.00435021 0)
(0.614265 -0.00387102 0)
(0.617615 -0.00340112 0)
(0.62054 -0.0029408 0)
(0.623067 -0.00249016 0)
(0.625224 -0.00204915 0)
(0.627038 -0.00161752 0)
(0.628536 -0.00119484 0)
(0.629743 -0.000780455 0)
(0.630685 -0.000373458 0)
(0.631384 2.71557e-05 0)
(0.631865 0.000422324 0)
(0.632151 0.000813053 0)
(0.632262 0.00120084 0)
(0.632221 0.00158768 0)
(0.632048 0.00197604 0)
(0.631761 0.00236886 0)
(0.631378 0.00276971 0)
(0.630916 0.00318288 0)
(0.630389 0.00361355 0)
(0.629812 0.00406804 0)
(0.629194 0.00455408 0)
(0.628544 0.00508117 0)
(0.627869 0.00566119 0)
(0.627171 0.00630908 0)
(0.626448 0.00704392 0)
(0.625693 0.0078905 0)
(0.624893 0.00888156 0)
(0.624028 0.0100613 0)
(0.623067 0.0114907 0)
(0.621969 0.0132558 0)
(0.620682 0.0154817 0)
(0.619143 0.0183538 0)
(0.617293 0.0221539 0)
(0.615102 0.0273171 0)
(0.612652 0.0345221 0)
(0.610319 0.0448341 0)
(0.609225 0.0598436 0)
(0.613277 0.080987 0)
(0.10066 -0.00186997 0)
(0.104212 -0.0033337 0)
(0.109615 -0.00456782 0)
(0.116403 -0.0056554 0)
(0.124412 -0.00664832 0)
(0.133498 -0.00758573 0)
(0.143567 -0.00850047 0)
(0.154569 -0.00941878 0)
(0.166485 -0.0103583 0)
(0.179311 -0.0113265 0)
(0.193046 -0.0123203 0)
(0.207681 -0.0133262 0)
(0.223181 -0.0143228 0)
(0.239487 -0.0152837 0)
(0.256509 -0.0161813 0)
(0.274131 -0.0169895 0)
(0.292214 -0.0176868 0)
(0.310609 -0.018257 0)
(0.329159 -0.0186904 0)
(0.347709 -0.0189835 0)
(0.366115 -0.0191376 0)
(0.384242 -0.0191588 0)
(0.401973 -0.0190557 0)
(0.419208 -0.0188394 0)
(0.435861 -0.0185218 0)
(0.451868 -0.0181154 0)
(0.467175 -0.0176323 0)
(0.481747 -0.0170844 0)
(0.495558 -0.0164825 0)
(0.508594 -0.0158365 0)
(0.52085 -0.0151553 0)
(0.53233 -0.0144469 0)
(0.543043 -0.0137183 0)
(0.553002 -0.0129755 0)
(0.562228 -0.0122237 0)
(0.570742 -0.0114674 0)
(0.578568 -0.0107104 0)
(0.585732 -0.00995589 0)
(0.592263 -0.00920659 0)
(0.598189 -0.00846472 0)
(0.603539 -0.00773213 0)
(0.608342 -0.00701028 0)
(0.612628 -0.00630035 0)
(0.616427 -0.00560322 0)
(0.619767 -0.00491952 0)
(0.622677 -0.00424961 0)
(0.625185 -0.00359364 0)
(0.62732 -0.00295148 0)
(0.629107 -0.00232278 0)
(0.630574 -0.00170688 0)
(0.631747 -0.00110281 0)
(0.632649 -0.000509246 0)
(0.633304 7.52056e-05 0)
(0.633738 0.00065189 0)
(0.633971 0.00122239 0)
(0.634027 0.00178896 0)
(0.633925 0.00235448 0)
(0.633686 0.00292247 0)
(0.633329 0.00349713 0)
(0.632871 0.0040835 0)
(0.632329 0.0046876 0)
(0.631719 0.00531671 0)
(0.631053 0.00597957 0)
(0.630345 0.00668681 0)
(0.629603 0.00745139 0)
(0.628837 0.0082893 0)
(0.628051 0.00922041 0)
(0.627249 0.0102697 0)
(0.62643 0.0114689 0)
(0.625592 0.0128589 0)
(0.624728 0.0144935 0)
(0.623831 0.0164435 0)
(0.622894 0.0188044 0)
(0.621916 0.0217061 0)
(0.620913 0.0253257 0)
(0.61994 0.029905 0)
(0.619131 0.035768 0)
(0.618769 0.0433302 0)
(0.6194 0.0530737 0)
(0.621967 0.0654032 0)
(0.628103 0.0800743 0)
(0.100548 -0.00242606 0)
(0.104009 -0.00438911 0)
(0.109285 -0.00603495 0)
(0.115957 -0.00748708 0)
(0.12386 -0.00881267 0)
(0.132852 -0.010064 0)
(0.142838 -0.0112857 0)
(0.153769 -0.0125132 0)
(0.165632 -0.013771 0)
(0.178429 -0.0150694 0)
(0.192166 -0.0164045 0)
(0.206838 -0.0177583 0)
(0.222416 -0.0191015 0)
(0.238841 -0.0203983 0)
(0.256023 -0.0216104 0)
(0.27384 -0.0227024 0)
(0.292148 -0.0236444 0)
(0.310788 -0.0244146 0)
(0.329596 -0.0249997 0)
(0.34841 -0.0253948 0)
(0.367076 -0.0256022 0)
(0.385457 -0.02563 0)
(0.40343 -0.0254903 0)
(0.420892 -0.0251981 0)
(0.437757 -0.0247698 0)
(0.453956 -0.0242224 0)
(0.469439 -0.0235723 0)
(0.484169 -0.0228355 0)
(0.49812 -0.0220267 0)
(0.51128 -0.0211591 0)
(0.523645 -0.0202448 0)
(0.535219 -0.0192946 0)
(0.546013 -0.0183175 0)
(0.556042 -0.0173219 0)
(0.565325 -0.0163145 0)
(0.573886 -0.0153014 0)
(0.58175 -0.0142876 0)
(0.588944 -0.0132774 0)
(0.595497 -0.0122743 0)
(0.601436 -0.0112812 0)
(0.606794 -0.0103007 0)
(0.611598 -0.00933448 0)
(0.615879 -0.00838421 0)
(0.619667 -0.00745099 0)
(0.622991 -0.0065356 0)
(0.62588 -0.00563851 0)
(0.628362 -0.00475985 0)
(0.630466 -0.00389944 0)
(0.632218 -0.00305676 0)
(0.633644 -0.00223092 0)
(0.634771 -0.00142061 0)
(0.635623 -0.000624071 0)
(0.636225 0.000160475 0)
(0.6366 0.000934812 0)
(0.63677 0.0017012 0)
(0.636758 0.00246269 0)
(0.636584 0.00322311 0)
(0.636268 0.00398703 0)
(0.63583 0.00475989 0)
(0.635286 0.00554815 0)
(0.634655 0.0063595 0)
(0.633952 0.00720306 0)
(0.633192 0.00808978 0)
(0.632387 0.00903276 0)
(0.631551 0.0100478 0)
(0.630694 0.011154 0)
(0.629825 0.0123748 0)
(0.628954 0.013739 0)
(0.628088 0.0152821 0)
(0.627235 0.0170485 0)
(0.626405 0.0190941 0)
(0.625613 0.0214891 0)
(0.624879 0.0243224 0)
(0.624243 0.0277055 0)
(0.62377 0.0317761 0)
(0.623569 0.0366989 0)
(0.623823 0.0426583 0)
(0.624815 0.0498331 0)
(0.626963 0.0583366 0)
(0.630827 0.0680927 0)
(0.637066 0.0786089 0)
(0.100434 -0.0029886 0)
(0.103805 -0.00548383 0)
(0.10894 -0.00757012 0)
(0.115475 -0.00941408 0)
(0.123254 -0.0110981 0)
(0.132133 -0.0126881 0)
(0.142019 -0.0142416 0)
(0.15287 -0.015805 0)
(0.164678 -0.0174103 0)
(0.177455 -0.0190717 0)
(0.191216 -0.0207845 0)
(0.205965 -0.0225252 0)
(0.221678 -0.0242557 0)
(0.238298 -0.0259285 0)
(0.255729 -0.0274933 0)
(0.273841 -0.028903 0)
(0.29248 -0.0301184 0)
(0.311474 -0.0311109 0)
(0.330647 -0.0318635 0)
(0.349825 -0.0323699 0)
(0.368848 -0.0326337 0)
(0.387568 -0.0326657 0)
(0.40586 -0.0324824 0)
(0.423616 -0.0321033 0)
(0.440749 -0.03155 0)
(0.457191 -0.0308445 0)
(0.472891 -0.0300084 0)
(0.487811 -0.0290621 0)
(0.50193 -0.0280245 0)
(0.515236 -0.0269128 0)
(0.527726 -0.0257424 0)
(0.539407 -0.0245267 0)
(0.550291 -0.0232778 0)
(0.560394 -0.0220058 0)
(0.569738 -0.0207196 0)
(0.578347 -0.0194266 0)
(0.586248 -0.0181333 0)
(0.593468 -0.0168449 0)
(0.600038 -0.0155658 0)
(0.605986 -0.0142999 0)
(0.611344 -0.01305 0)
(0.616142 -0.0118185 0)
(0.62041 -0.0106073 0)
(0.624178 -0.00941781 0)
(0.627477 -0.00825087 0)
(0.630335 -0.00710706 0)
(0.632781 -0.00598649 0)
(0.634843 -0.00488887 0)
(0.636548 -0.00381352 0)
(0.637923 -0.00275929 0)
(0.638994 -0.00172453 0)
(0.639785 -0.00070703 0)
(0.640321 0.00029537 0)
(0.640626 0.00128492 0)
(0.640722 0.00226464 0)
(0.640632 0.00323842 0)
(0.640375 0.00421104 0)
(0.639973 0.00518809 0)
(0.639445 0.00617616 0)
(0.638808 0.00718301 0)
(0.638081 0.00821775 0)
(0.63728 0.00929109 0)
(0.636421 0.0104157 0)
(0.635519 0.0116065 0)
(0.634589 0.0128812 0)
(0.633646 0.0142609 0)
(0.632702 0.0157707 0)
(0.631774 0.0174405 0)
(0.630877 0.0193063 0)
(0.630029 0.0214112 0)
(0.629253 0.0238064 0)
(0.628579 0.0265532 0)
(0.62805 0.0297228 0)
(0.627724 0.0333967 0)
(0.627687 0.0376638 0)
(0.628056 0.0426134 0)
(0.628995 0.0483205 0)
(0.630717 0.0548202 0)
(0.633483 0.0620663 0)
(0.637573 0.0698728 0)
(0.643215 0.0778495 0)
(0.100317 -0.0035581 0)
(0.103608 -0.00661591 0)
(0.108597 -0.00917195 0)
(0.114982 -0.0114361 0)
(0.122622 -0.013506 0)
(0.131376 -0.0154619 0)
(0.141154 -0.0173756 0)
(0.151921 -0.0193059 0)
(0.163682 -0.0212941 0)
(0.176461 -0.0233591 0)
(0.190288 -0.0254954 0)
(0.205178 -0.0276729 0)
(0.221113 -0.0298424 0)
(0.238033 -0.0319421 0)
(0.255834 -0.0339068 0)
(0.274372 -0.0356754 0)
(0.293476 -0.0371977 0)
(0.312955 -0.0384373 0)
(0.332616 -0.0393732 0)
(0.352272 -0.0399986 0)
(0.371751 -0.0403188 0)
(0.390899 -0.0403487 0)
(0.409583 -0.0401097 0)
(0.427695 -0.0396274 0)
(0.445147 -0.0389293 0)
(0.461871 -0.0380433 0)
(0.477817 -0.0369968 0)
(0.492952 -0.0358152 0)
(0.507255 -0.0345223 0)
(0.520717 -0.0331393 0)
(0.533338 -0.0316853 0)
(0.545128 -0.030177 0)
(0.5561 -0.0286289 0)
(0.566274 -0.0270537 0)
(0.575672 -0.025462 0)
(0.584322 -0.023863 0)
(0.59225 -0.0222643 0)
(0.599487 -0.0206726 0)
(0.606063 -0.019093 0)
(0.612008 -0.01753 0)
(0.617355 -0.0159871 0)
(0.622134 -0.0144672 0)
(0.626377 -0.0129724 0)
(0.630114 -0.0115043 0)
(0.633375 -0.010064 0)
(0.636189 -0.00865201 0)
(0.638586 -0.00726843 0)
(0.640595 -0.00591286 0)
(0.642241 -0.00458441 0)
(0.643553 -0.00328168 0)
(0.644555 -0.00200268 0)
(0.645273 -0.000744778 0)
(0.645733 0.000494598 0)
(0.645958 0.0017182 0)
(0.64597 0.00292983 0)
(0.645792 0.0041343 0)
(0.645444 0.00533723 0)
(0.644948 0.00654517 0)
(0.644322 0.00776571 0)
(0.643586 0.00900767 0)
(0.642757 0.0102813 0)
(0.641855 0.0115984 0)
(0.640896 0.0129727 0)
(0.639898 0.0144203 0)
(0.638878 0.0159597 0)
(0.637853 0.0176124 0)
(0.636843 0.0194032 0)
(0.635867 0.0213609 0)
(0.634947 0.0235186 0)
(0.634111 0.0259139 0)
(0.633389 0.0285893 0)
(0.632822 0.0315915 0)
(0.63246 0.0349703 0)
(0.632367 0.0387758 0)
(0.632625 0.0430537 0)
(0.633335 0.0478367 0)
(0.634618 0.0531329 0)
(0.636611 0.0589087 0)
(0.639453 0.0650692 0)
(0.643259 0.0714383 0)
(0.648074 0.0777523 0)
(0.100198 -0.00413619 0)
(0.103421 -0.00778502 0)
(0.108267 -0.0108405 0)
(0.114497 -0.013554 0)
(0.121991 -0.0160393 0)
(0.130613 -0.0183911 0)
(0.14028 -0.0206972 0)
(0.150971 -0.0230315 0)
(0.162706 -0.0254464 0)
(0.17553 -0.0279667 0)
(0.189492 -0.0305854 0)
(0.204619 -0.0332642 0)
(0.220897 -0.0359388 0)
(0.238261 -0.0385294 0)
(0.256588 -0.0409515 0)
(0.275714 -0.0431273 0)
(0.295439 -0.0449933 0)
(0.315549 -0.046505 0)
(0.33583 -0.0476377 0)
(0.356079 -0.048385 0)
(0.37611 -0.0487556 0)
(0.395763 -0.04877 0)
(0.414902 -0.0484561 0)
(0.433416 -0.0478468 0)
(0.45122 -0.0469768 0)
(0.468249 -0.045881 0)
(0.484455 -0.0445932 0)
(0.49981 -0.0431446 0)
(0.514296 -0.0415641 0)
(0.52791 -0.0398776 0)
(0.540654 -0.0381079 0)
(0.55254 -0.0362752 0)
(0.563587 -0.0343968 0)
(0.573817 -0.0324877 0)
(0.583254 -0.0305607 0)
(0.591927 -0.0286264 0)
(0.599866 -0.0266941 0)
(0.607103 -0.0247712 0)
(0.613668 -0.0228639 0)
(0.619594 -0.0209774 0)
(0.624914 -0.0191157 0)
(0.629659 -0.0172821 0)
(0.633861 -0.015479 0)
(0.637551 -0.0137082 0)
(0.64076 -0.0119708 0)
(0.643518 -0.0102674 0)
(0.645853 -0.00859802 0)
(0.647795 -0.0069621 0)
(0.64937 -0.00535855 0)
(0.650607 -0.0037857 0)
(0.651531 -0.00224124 0)
(0.652166 -0.000722209 0)
(0.65254 0.000774431 0)
(0.652676 0.00225199 0)
(0.652596 0.0037151 0)
(0.652322 0.0051694 0)
(0.651877 0.00662131 0)
(0.65128 0.00807814 0)
(0.650552 0.00954827 0)
(0.649713 0.0110413 0)
(0.648782 0.0125681 0)
(0.647778 0.0141411 0)
(0.64672 0.0157746 0)
(0.645628 0.0174847 0)
(0.644521 0.0192895 0)
(0.64342 0.0212095 0)
(0.642348 0.0232678 0)
(0.641327 0.0254896 0)
(0.640386 0.0279028 0)
(0.639556 0.0305374 0)
(0.638871 0.0334246 0)
(0.638375 0.0365958 0)
(0.638117 0.0400802 0)
(0.638156 0.0439018 0)
(0.638558 0.0480747 0)
(0.639399 0.0525972 0)
(0.640758 0.0574442 0)
(0.642709 0.0625591 0)
(0.645315 0.0678473 0)
(0.648606 0.0731735 0)
(0.652557 0.0783713 0)
(0.100075 -0.00472543 0)
(0.103247 -0.00899232 0)
(0.107959 -0.0125774 0)
(0.114035 -0.0157705 0)
(0.121381 -0.0187026 0)
(0.129872 -0.0214836 0)
(0.139436 -0.02422 0)
(0.15007 -0.0270037 0)
(0.16182 -0.0299011 0)
(0.174758 -0.0329438 0)
(0.188956 -0.0361223 0)
(0.204457 -0.0393858 0)
(0.221244 -0.0426498 0)
(0.239235 -0.0458098 0)
(0.25828 -0.048757 0)
(0.278177 -0.051393 0)
(0.298694 -0.0536398 0)
(0.319585 -0.0554446 0)
(0.340612 -0.0567806 0)
(0.361552 -0.0576439 0)
(0.382212 -0.0580491 0)
(0.402425 -0.0580243 0)
(0.422054 -0.0576062 0)
(0.440992 -0.0568366 0)
(0.459157 -0.0557588 0)
(0.476488 -0.0544157 0)
(0.492944 -0.0528482 0)
(0.508503 -0.0510942 0)
(0.523153 -0.049188 0)
(0.536893 -0.0471604 0)
(0.549735 -0.0450382 0)
(0.561692 -0.0428452 0)
(0.572787 -0.0406016 0)
(0.583045 -0.0383247 0)
(0.592494 -0.0360294 0)
(0.601165 -0.033728 0)
(0.609091 -0.0314309 0)
(0.616303 -0.0291468 0)
(0.622835 -0.0268826 0)
(0.628721 -0.0246441 0)
(0.633994 -0.022436 0)
(0.638686 -0.0202617 0)
(0.64283 -0.0181239 0)
(0.646458 -0.0160246 0)
(0.6496 -0.0139649 0)
(0.652288 -0.0119454 0)
(0.654549 -0.00996599 0)
(0.656413 -0.00802594 0)
(0.657908 -0.00612396 0)
(0.65906 -0.00425813 0)
(0.659897 -0.00242588 0)
(0.660442 -0.000623987 0)
(0.660725 0.0011511 0)
(0.660766 0.00290335 0)
(0.660589 0.0046382 0)
(0.660217 0.00636198 0)
(0.659671 0.00808174 0)
(0.658973 0.00980537 0)
(0.658142 0.0115417 0)
(0.657201 0.0133008 0)
(0.656169 0.0150937 0)
(0.655066 0.016933 0)
(0.653913 0.0188325 0)
(0.652731 0.0208075 0)
(0.651543 0.022875 0)
(0.65037 0.0250531 0)
(0.649238 0.0273615 0)
(0.648172 0.029821 0)
(0.647203 0.0324531 0)
(0.646361 0.035279 0)
(0.645683 0.0383189 0)
(0.645209 0.0415906 0)
(0.644982 0.0451067 0)
(0.645049 0.0488728 0)
(0.64546 0.052884 0)
(0.646264 0.0571212 0)
(0.647506 0.061548 0)
(0.64922 0.0661078 0)
(0.651425 0.0707235 0)
(0.654112 0.0753002 0)
(0.657236 0.0797364 0)
(0.0999448 -0.005329 0)
(0.103086 -0.0102405 0)
(0.107678 -0.0143861 0)
(0.113604 -0.0180902 0)
(0.120809 -0.0215028 0)
(0.129178 -0.0247508 0)
(0.138657 -0.0279631 0)
(0.149272 -0.0312539 0)
(0.161102 -0.0347067 0)
(0.174259 -0.038361 0)
(0.188841 -0.0422011 0)
(0.2049 -0.046157 0)
(0.222407 -0.050115 0)
(0.241246 -0.0539372 0)
(0.261223 -0.057484 0)
(0.282087 -0.0606332 0)
(0.303562 -0.0632917 0)
(0.325366 -0.0654005 0)
(0.347237 -0.0669338 0)
(0.368938 -0.0678936 0)
(0.390268 -0.0683036 0)
(0.411059 -0.0682027 0)
(0.431179 -0.0676387 0)
(0.450527 -0.0666642 0)
(0.469028 -0.0653326 0)
(0.486629 -0.0636958 0)
(0.503298 -0.0618027 0)
(0.519019 -0.0596981 0)
(0.533789 -0.0574222 0)
(0.547614 -0.0550108 0)
(0.560509 -0.0524951 0)
(0.572495 -0.0499021 0)
(0.583597 -0.047255 0)
(0.593845 -0.0445737 0)
(0.60327 -0.0418747 0)
(0.611905 -0.039172 0)
(0.619784 -0.0364773 0)
(0.626942 -0.0338001 0)
(0.633415 -0.0311482 0)
(0.639235 -0.028528 0)
(0.644439 -0.0259443 0)
(0.649058 -0.0234012 0)
(0.653126 -0.0209013 0)
(0.656676 -0.0184466 0)
(0.659738 -0.0160385 0)
(0.662342 -0.0136772 0)
(0.664519 -0.0113625 0)
(0.666297 -0.00909371 0)
(0.667704 -0.00686915 0)
(0.668766 -0.0046867 0)
(0.669512 -0.00254355 0)
(0.669964 -0.000436481 0)
(0.670153 0.00163868 0)
(0.6701 0.00368676 0)
(0.669827 0.0057139 0)
(0.669358 0.00772693 0)
(0.668714 0.00973327 0)
(0.667918 0.0117411 0)
(0.666991 0.0137596 0)
(0.665953 0.0157985 0)
(0.664827 0.0178689 0)
(0.663633 0.0199827 0)
(0.662393 0.0221528 0)
(0.661129 0.0243929 0)
(0.659865 0.0267178 0)
(0.658625 0.0291427 0)
(0.657434 0.0316833 0)
(0.656319 0.0343552 0)
(0.65531 0.0371732 0)
(0.654436 0.0401507 0)
(0.65373 0.0432984 0)
(0.653227 0.0466234 0)
(0.652961 0.0501272 0)
(0.652967 0.0538041 0)
(0.653278 0.0576399 0)
(0.653923 0.0616096 0)
(0.654924 0.0656773 0)
(0.65629 0.0697955 0)
(0.658018 0.0739068 0)
(0.660086 0.0779477 0)
(0.662448 0.0818577 0)
(0.0998057 -0.0059506 0)
(0.102935 -0.0115335 0)
(0.107426 -0.0162717 0)
(0.113213 -0.02052 0)
(0.120287 -0.0244501 0)
(0.128552 -0.0282096 0)
(0.13798 -0.0319546 0)
(0.148636 -0.0358279 0)
(0.16065 -0.0399342 0)
(0.174178 -0.0443191 0)
(0.189344 -0.0489542 0)
(0.206198 -0.0537381 0)
(0.224679 -0.0585146 0)
(0.244613 -0.0631016 0)
(0.265741 -0.0673223 0)
(0.287754 -0.071029 0)
(0.310323 -0.0741157 0)
(0.333134 -0.0765218 0)
(0.355903 -0.0782272 0)
(0.378385 -0.0792452 0)
(0.400378 -0.0796128 0)
(0.421721 -0.0793831 0)
(0.44229 -0.0786176 0)
(0.461994 -0.0773816 0)
(0.48077 -0.0757399 0)
(0.498577 -0.0737543 0)
(0.515393 -0.0714823 0)
(0.531211 -0.0689757 0)
(0.546036 -0.0662811 0)
(0.559882 -0.063439 0)
(0.572771 -0.060485 0)
(0.584728 -0.0574495 0)
(0.595784 -0.0543585 0)
(0.605971 -0.0512339 0)
(0.615325 -0.0480942 0)
(0.623882 -0.0449549 0)
(0.631677 -0.0418285 0)
(0.638747 -0.0387256 0)
(0.645128 -0.0356545 0)
(0.650855 -0.0326221 0)
(0.655964 -0.0296335 0)
(0.660489 -0.0266928 0)
(0.664463 -0.0238029 0)
(0.667919 -0.0209658 0)
(0.670887 -0.0181826 0)
(0.673398 -0.0154536 0)
(0.675482 -0.0127784 0)
(0.677168 -0.0101559 0)
(0.678483 -0.00758448 0)
(0.679455 -0.00506162 0)
(0.680109 -0.00258425 0)
(0.680471 -0.000149557 0)
(0.68057 0.00224718 0)
(0.680427 0.00461203 0)
(0.680064 0.0069517 0)
(0.679506 0.00927323 0)
(0.678774 0.0115842 0)
(0.67789 0.0138928 0)
(0.676876 0.0162079 0)
(0.675754 0.0185392 0)
(0.674546 0.0208968 0)
(0.673273 0.0232916 0)
(0.671958 0.0257351 0)
(0.670623 0.0282389 0)
(0.669293 0.0308151 0)
(0.667992 0.0334757 0)
(0.666744 0.0362321 0)
(0.665576 0.0390949 0)
(0.664515 0.0420732 0)
(0.663587 0.0451737 0)
(0.662822 0.0484002 0)
(0.662245 0.0517526 0)
(0.661883 0.0552255 0)
(0.661761 0.0588083 0)
(0.661897 0.0624835 0)
(0.662306 0.066227 0)
(0.662995 0.0700082 0)
(0.663963 0.0737906 0)
(0.665195 0.0775338 0)
(0.666667 0.0811967 0)
(0.668339 0.0847437 0)
(0.0996549 -0.00659427 0)
(0.102794 -0.0128768 0)
(0.107204 -0.018241 0)
(0.112867 -0.0230697 0)
(0.119828 -0.0275593 0)
(0.128018 -0.0318843 0)
(0.13745 -0.0362362 0)
(0.148242 -0.0407938 0)
(0.16059 -0.0456866 0)
(0.174698 -0.050961 0)
(0.19071 -0.0565617 0)
(0.208645 -0.0623373 0)
(0.228379 -0.0680713 0)
(0.249656 -0.0735256 0)
(0.272135 -0.0784823 0)
(0.295434 -0.0827703 0)
(0.319181 -0.0862773 0)
(0.343032 -0.088948 0)
(0.366692 -0.0907761 0)
(0.389917 -0.0917916 0)
(0.412512 -0.0920501 0)
(0.43433 -0.091622 0)
(0.455261 -0.0905853 0)
(0.475229 -0.0890195 0)
(0.494186 -0.0870017 0)
(0.512104 -0.0846044 0)
(0.528975 -0.0818937 0)
(0.5448 -0.0789288 0)
(0.559596 -0.0757623 0)
(0.573383 -0.0724396 0)
(0.58619 -0.0690003 0)
(0.598049 -0.0654779 0)
(0.608994 -0.0619011 0)
(0.619062 -0.0582937 0)
(0.628292 -0.0546758 0)
(0.636721 -0.0510641 0)
(0.644387 -0.047472 0)
(0.651329 -0.0439108 0)
(0.657584 -0.0403893 0)
(0.663188 -0.0369145 0)
(0.668177 -0.0334919 0)
(0.672585 -0.0301255 0)
(0.676445 -0.0268182 0)
(0.679791 -0.023572 0)
(0.682653 -0.0203877 0)
(0.685062 -0.0172656 0)
(0.687048 -0.0142051 0)
(0.688638 -0.0112048 0)
(0.689861 -0.00826292 0)
(0.690744 -0.00537682 0)
(0.691311 -0.00254328 0)
(0.691592 0.000240833 0)
(0.691609 0.00298054 0)
(0.691385 0.00568271 0)
(0.690944 0.00835437 0)
(0.690309 0.0110026 0)
(0.689502 0.013635 0)
(0.688546 0.0162594 0)
(0.687461 0.0188843 0)
(0.686271 0.0215185 0)
(0.684998 0.0241713 0)
(0.683662 0.0268521 0)
(0.682288 0.0295705 0)
(0.680897 0.032336 0)
(0.679513 0.0351579 0)
(0.678159 0.0380446 0)
(0.676859 0.0410041 0)
(0.675636 0.0440424 0)
(0.674515 0.0471641 0)
(0.673519 0.0503712 0)
(0.672669 0.0536628 0)
(0.671987 0.0570345 0)
(0.671492 0.0604784 0)
(0.671197 0.0639818 0)
(0.671115 0.0675285 0)
(0.671249 0.0710976 0)
(0.6716 0.0746654 0)
(0.67216 0.0782055 0)
(0.672912 0.0816905 0)
(0.673833 0.0850942 0)
(0.674891 0.0883966 0)
(0.0994895 -0.00726447 0)
(0.102661 -0.0142772 0)
(0.107013 -0.0203035 0)
(0.112571 -0.0257524 0)
(0.119445 -0.0308516 0)
(0.127608 -0.0358114 0)
(0.137126 -0.0408704 0)
(0.148195 -0.0462529 0)
(0.161088 -0.0521128 0)
(0.176055 -0.0584842 0)
(0.193229 -0.0652604 0)
(0.212564 -0.0722129 0)
(0.233832 -0.0790444 0)
(0.256669 -0.0854524 0)
(0.280638 -0.0911792 0)
(0.305296 -0.0960393 0)
(0.330229 -0.0999244 0)
(0.35508 -0.102796 0)
(0.379556 -0.104669 0)
(0.403423 -0.105597 0)
(0.426505 -0.10566 0)
(0.448673 -0.104947 0)
(0.469838 -0.103557 0)
(0.489943 -0.101582 0)
(0.508956 -0.0991143 0)
(0.526867 -0.0962359 0)
(0.543677 -0.093022 0)
(0.559403 -0.0895389 0)
(0.574068 -0.0858448 0)
(0.587703 -0.0819899 0)
(0.600341 -0.0780171 0)
(0.612022 -0.0739631 0)
(0.622783 -0.0698585 0)
(0.632666 -0.065729 0)
(0.64171 -0.061596 0)
(0.649957 -0.0574769 0)
(0.657447 -0.0533861 0)
(0.664218 -0.0493352 0)
(0.670309 -0.0453331 0)
(0.675756 -0.0413871 0)
(0.680596 -0.0375027 0)
(0.684863 -0.0336839 0)
(0.688591 -0.0299334 0)
(0.691812 -0.0262529 0)
(0.694556 -0.0226431 0)
(0.696855 -0.0191041 0)
(0.698737 -0.0156349 0)
(0.70023 -0.0122343 0)
(0.701362 -0.00889994 0)
(0.702159 -0.00562935 0)
(0.702647 -0.00241934 0)
(0.702853 0.000734176 0)
(0.702798 0.00383678 0)
(0.702507 0.00689526 0)
(0.702003 0.00991664 0)
(0.701308 0.012908 0)
(0.700445 0.0158765 0)
(0.699436 0.0188298 0)
(0.698301 0.0217755 0)
(0.697064 0.0247216 0)
(0.695746 0.0276759 0)
(0.694369 0.0306464 0)
(0.692955 0.0336407 0)
(0.691525 0.036666 0)
(0.690102 0.039729 0)
(0.688707 0.0428355 0)
(0.687361 0.0459898 0)
(0.686087 0.049195 0)
(0.684904 0.0524523 0)
(0.683831 0.0557607 0)
(0.682885 0.0591167 0)
(0.682081 0.0625142 0)
(0.681433 0.0659445 0)
(0.680948 0.0693961 0)
(0.680631 0.0728547 0)
(0.680483 0.0763045 0)
(0.680499 0.0797277 0)
(0.680669 0.0831061 0)
(0.680979 0.0864218 0)
(0.681407 0.0896586 0)
(0.681931 0.092806 0)
(0.0993064 -0.00796615 0)
(0.102534 -0.0157434 0)
(0.106855 -0.0224711 0)
(0.112333 -0.028587 0)
(0.119159 -0.0343583 0)
(0.127364 -0.0400459 0)
(0.137092 -0.0459515 0)
(0.148641 -0.0523538 0)
(0.162363 -0.0594228 0)
(0.178533 -0.0671524 0)
(0.197227 -0.0753462 0)
(0.218281 -0.0836653 0)
(0.241324 -0.0917143 0)
(0.265866 -0.0991255 0)
(0.291384 -0.105613 0)
(0.317379 -0.110991 0)
(0.343422 -0.115172 0)
(0.369156 -0.118144 0)
(0.394304 -0.119955 0)
(0.418656 -0.120689 0)
(0.44206 -0.12045 0)
(0.464414 -0.119354 0)
(0.485653 -0.117515 0)
(0.505739 -0.115045 0)
(0.524661 -0.112047 0)
(0.542423 -0.108613 0)
(0.559043 -0.104829 0)
(0.574547 -0.100766 0)
(0.588969 -0.0964875 0)
(0.602347 -0.0920483 0)
(0.614722 -0.0874944 0)
(0.626137 -0.0828647 0)
(0.636635 -0.0781917 0)
(0.646259 -0.0735024 0)
(0.655054 -0.068819 0)
(0.663062 -0.0641598 0)
(0.670322 -0.0595393 0)
(0.676877 -0.0549693 0)
(0.682764 -0.0504589 0)
(0.68802 -0.0460154 0)
(0.692682 -0.0416439 0)
(0.696783 -0.0373482 0)
(0.700358 -0.033131 0)
(0.703438 -0.0289935 0)
(0.706053 -0.0249363 0)
(0.708234 -0.020959 0)
(0.710008 -0.0170605 0)
(0.711403 -0.0132393 0)
(0.712446 -0.00949295 0)
(0.713163 -0.00581889 0)
(0.713578 -0.00221387 0)
(0.71372 0.0013268 0)
(0.713607 0.00480912 0)
(0.713264 0.00823985 0)
(0.712713 0.0116258 0)
(0.711978 0.0149739 0)
(0.711078 0.0182908 0)
(0.710037 0.0215835 0)
(0.708875 0.0248587 0)
(0.707613 0.0281232 0)
(0.706274 0.0313838 0)
(0.704876 0.0346465 0)
(0.703443 0.0379173 0)
(0.701993 0.0412014 0)
(0.700547 0.0445032 0)
(0.699126 0.047826 0)
(0.697746 0.051172 0)
(0.696428 0.0545421 0)
(0.695187 0.0579352 0)
(0.694038 0.0613488 0)
(0.692995 0.0647786 0)
(0.692068 0.0682182 0)
(0.691265 0.0716595 0)
(0.690591 0.075093 0)
(0.690047 0.0785077 0)
(0.689632 0.0818916 0)
(0.689338 0.0852326 0)
(0.689157 0.0885185 0)
(0.689076 0.0917379 0)
(0.689078 0.0948812 0)
(0.689147 0.0979441 0)
(0.0991018 -0.00870496 0)
(0.102411 -0.017286 0)
(0.106732 -0.0247604 0)
(0.112163 -0.0316 0)
(0.118997 -0.038126 0)
(0.127348 -0.0446715 0)
(0.137468 -0.051621 0)
(0.149773 -0.0593109 0)
(0.164688 -0.067902 0)
(0.182459 -0.0772996 0)
(0.203037 -0.0871658 0)
(0.226081 -0.0970184 0)
(0.251056 -0.106358 0)
(0.277349 -0.114764 0)
(0.304365 -0.121944 0)
(0.331582 -0.127736 0)
(0.358572 -0.132087 0)
(0.385 -0.135027 0)
(0.410618 -0.136643 0)
(0.435249 -0.137053 0)
(0.458773 -0.136393 0)
(0.481116 -0.1348 0)
(0.50224 -0.132411 0)
(0.522131 -0.129352 0)
(0.540795 -0.125739 0)
(0.558255 -0.121675 0)
(0.574541 -0.117251 0)
(0.589692 -0.112546 0)
(0.603749 -0.107627 0)
(0.61676 -0.102553 0)
(0.62877 -0.0973726 0)
(0.639826 -0.0921255 0)
(0.649978 -0.086846 0)
(0.659269 -0.081562 0)
(0.667746 -0.0762962 0)
(0.675453 -0.0710669 0)
(0.682431 -0.0658891 0)
(0.688722 -0.0607741 0)
(0.694363 -0.0557312 0)
(0.699392 -0.050767 0)
(0.703845 -0.0458866 0)
(0.707756 -0.0410934 0)
(0.711157 -0.0363894 0)
(0.71408 -0.0317758 0)
(0.716554 -0.0272526 0)
(0.718608 -0.0228191 0)
(0.72027 -0.0184741 0)
(0.721567 -0.0142155 0)
(0.722525 -0.0100411 0)
(0.723167 -0.00594794 0)
(0.723519 -0.00193285 0)
(0.723607 0.00200933 0)
(0.723449 0.0058849 0)
(0.72307 0.00970055 0)
(0.722491 0.0134628 0)
(0.721734 0.0171779 0)
(0.720819 0.0208523 0)
(0.719768 0.0244918 0)
(0.718601 0.0281026 0)
(0.717338 0.0316901 0)
(0.715999 0.0352598 0)
(0.714604 0.0388165 0)
(0.713172 0.0423644 0)
(0.711722 0.045907 0)
(0.710272 0.0494471 0)
(0.70884 0.0529863 0)
(0.707441 0.0565252 0)
(0.706091 0.0600633 0)
(0.704802 0.0635988 0)
(0.703588 0.0671285 0)
(0.702457 0.0706481 0)
(0.701417 0.0741519 0)
(0.700473 0.0776335 0)
(0.699627 0.0810852 0)
(0.69888 0.0844993 0)
(0.698227 0.0878674 0)
(0.697664 0.0911814 0)
(0.697181 0.0944336 0)
(0.696769 0.0976173 0)
(0.696415 0.100727 0)
(0.696107 0.103763 0)
(0.0988716 -0.00948764 0)
(0.102294 -0.018919 0)
(0.10665 -0.0271937 0)
(0.11208 -0.0348302 0)
(0.119001 -0.0422257 0)
(0.12765 -0.0498155 0)
(0.138417 -0.0580873 0)
(0.151844 -0.0674227 0)
(0.168383 -0.0779203 0)
(0.188168 -0.0893227 0)
(0.210946 -0.101094 0)
(0.236157 -0.112589 0)
(0.263102 -0.123218 0)
(0.291068 -0.132538 0)
(0.319425 -0.14028 0)
(0.347654 -0.146327 0)
(0.375353 -0.150682 0)
(0.402225 -0.153425 0)
(0.428063 -0.154689 0)