# vtk DataFile Version 2.0

ASCII

DATASET UNSTRUCTURED_GRID

POINTS 44 double 

0.00000000000000000e+00  1.20000000000000002e-02  0.00000000000000000e+00
0.00000000000000000e+00  1.20000000000000002e-02  8.00000000000000017e-03
0.00000000000000000e+00  0.00000000000000000e+00  8.00000000000000017e-03
0.00000000000000000e+00  0.00000000000000000e+00  0.00000000000000000e+00
0.00000000000000000e+00  1.20000000000000002e-02  1.60000000000000003e-02
0.00000000000000000e+00  0.00000000000000000e+00  1.60000000000000003e-02
0.00000000000000000e+00  1.20000000000000002e-02  2.40000000000000005e-02
0.00000000000000000e+00  0.00000000000000000e+00  2.40000000000000005e-02
0.00000000000000000e+00  1.20000000000000002e-02  3.20000000000000007e-02
0.00000000000000000e+00  0.00000000000000000e+00  3.20000000000000007e-02
0.00000000000000000e+00  1.20000000000000002e-02  4.00000000000000008e-02
0.00000000000000000e+00  0.00000000000000000e+00  4.00000000000000008e-02
0.00000000000000000e+00  1.20000000000000002e-02  4.80000000000000010e-02
0.00000000000000000e+00  0.00000000000000000e+00  4.80000000000000010e-02
0.00000000000000000e+00  1.20000000000000002e-02  5.60000000000000012e-02
0.00000000000000000e+00  0.00000000000000000e+00  5.60000000000000012e-02
0.00000000000000000e+00  1.20000000000000002e-02  6.40000000000000013e-02
0.00000000000000000e+00  0.00000000000000000e+00  6.40000000000000013e-02
0.00000000000000000e+00  1.20000000000000002e-02  7.19999999999999946e-02
0.00000000000000000e+00  0.00000000000000000e+00  7.19999999999999946e-02
0.00000000000000000e+00  1.20000000000000002e-02  8.00000000000000017e-02
0.00000000000000000e+00  0.00000000000000000e+00  8.00000000000000017e-02
1.20000000000000002e-02  1.20000000000000002e-02  8.00000000000000017e-02
1.20000000000000002e-02  0.00000000000000000e+00  8.00000000000000017e-02
1.20000000000000002e-02  1.20000000000000002e-02  0.00000000000000000e+00
1.20000000000000002e-02  0.00000000000000000e+00  0.00000000000000000e+00
1.20000000000000002e-02  0.00000000000000000e+00  8.00000000000000017e-03
1.20000000000000002e-02  1.20000000000000002e-02  8.00000000000000017e-03
1.20000000000000002e-02  0.00000000000000000e+00  1.60000000000000003e-02
1.20000000000000002e-02  1.20000000000000002e-02  1.60000000000000003e-02
1.20000000000000002e-02  0.00000000000000000e+00  2.40000000000000005e-02
1.20000000000000002e-02  1.20000000000000002e-02  2.40000000000000005e-02
1.20000000000000002e-02  0.00000000000000000e+00  3.20000000000000007e-02
1.20000000000000002e-02  1.20000000000000002e-02  3.20000000000000007e-02
1.20000000000000002e-02  0.00000000000000000e+00  4.00000000000000008e-02
1.20000000000000002e-02  1.20000000000000002e-02  4.00000000000000008e-02
1.20000000000000002e-02  0.00000000000000000e+00  4.80000000000000010e-02
1.20000000000000002e-02  1.20000000000000002e-02  4.80000000000000010e-02
1.20000000000000002e-02  0.00000000000000000e+00  5.60000000000000012e-02
1.20000000000000002e-02  1.20000000000000002e-02  5.60000000000000012e-02
1.20000000000000002e-02  0.00000000000000000e+00  6.40000000000000013e-02
1.20000000000000002e-02  1.20000000000000002e-02  6.40000000000000013e-02
1.20000000000000002e-02  0.00000000000000000e+00  7.19999999999999946e-02
1.20000000000000002e-02  1.20000000000000002e-02  7.19999999999999946e-02

CELLS 0 0


CELL_TYPES 0


POINT_DATA 44

SCALARS Rank unsigned_int
LOOKUP_TABLE default
0 0 0 0 0 0 0 0 0 0 0 0 0 0 0 0 0 0 0 0 0 0 0 0 0 0 0 0 0 0 0 0 0 0 0 0 0 0 0 0 0 0 0 0 

VECTORS Displacements0 double
-2.08683477861920448e-09 0.00000000000000000e+00 1.18774810590560839e-09 
3.47473175798464770e-07 0.00000000000000000e+00 4.28625369622839503e-07 
3.47451214852665201e-07 0.00000000000000000e+00 4.28596038224046343e-07 
-2.16397111310729333e-09 0.00000000000000000e+00 1.21175716792985682e-09 
1.18778891425248284e-06 0.00000000000000000e+00 7.64663995452886076e-07 
1.18761159227462204e-06 0.00000000000000000e+00 7.64705229071015005e-07 
2.42233516018004251e-06 0.00000000000000000e+00 1.02530191253553309e-06 
2.42204730233464590e-06 0.00000000000000000e+00 1.02550662804286164e-06 
3.94809179895794730e-06 0.00000000000000000e+00 1.21511793552050065e-06 
3.94844678641047498e-06 0.00000000000000000e+00 1.21560034052152774e-06 
5.67745832056037483e-06 0.00000000000000000e+00 1.34317997056575118e-06 
5.67743168624834584e-06 0.00000000000000000e+00 1.34309375331699657e-06 
7.53428089448599400e-06 0.00000000000000000e+00 1.42146869320719538e-06 
7.53431243622230530e-06 0.00000000000000000e+00 1.42127462812054076e-06 
9.45878400563775426e-06 0.00000000000000000e+00 1.46454679747833004e-06 
9.45873299103284338e-06 0.00000000000000000e+00 1.46447274407226158e-06 
1.14151565332469103e-05 0.00000000000000000e+00 1.48660811702057760e-06 
1.14151669581356712e-05 0.00000000000000000e+00 1.48666167733950658e-06 
1.33856282007486476e-05 0.00000000000000000e+00 1.49689289510183027e-06 
1.33856513453410913e-05 0.00000000000000000e+00 1.49687879173037010e-06 
1.53558333856346088e-05 0.00000000000000000e+00 1.50046515006489932e-06 
1.53557002694563655e-05 0.00000000000000000e+00 1.50042002973578574e-06 
1.53669023119300089e-05 0.00000000000000000e+00 -1.46041146814381022e-06 
1.53669233668625290e-05 0.00000000000000000e+00 -1.46040283684220861e-06 
-2.68844787811590034e-09 0.00000000000000000e+00 -1.55488415240794343e-09 
-2.75209876783789354e-09 0.00000000000000000e+00 -1.55604422907277309e-09 
3.38996596735338304e-07 0.00000000000000000e+00 -4.24555750466922756e-07 
3.38989745990929679e-07 0.00000000000000000e+00 -4.24572625430278009e-07 
1.17912699415984840e-06 0.00000000000000000e+00 -7.58713786090215539e-07 
1.17905257116899437e-06 0.00000000000000000e+00 -7.59051286042170135e-07 
2.41330241596264724e-06 0.00000000000000000e+00 -1.01739123032863454e-06 
2.41348530104979007e-06 0.00000000000000000e+00 -1.01722118707641134e-06 
3.94212557946382895e-06 0.00000000000000000e+00 -1.20433221717261677e-06 
3.94204983593510505e-06 0.00000000000000000e+00 -1.20423913820431127e-06 
5.67361896153028566e-06 0.00000000000000000e+00 -1.32771443015379731e-06 
5.67361823490683522e-06 0.00000000000000000e+00 -1.32779934571526307e-06 
7.53208983658973931e-06 0.00000000000000000e+00 -1.40161412235446660e-06 
7.53207764859166488e-06 0.00000000000000000e+00 -1.40177994112973733e-06 
9.45904260073251911e-06 0.00000000000000000e+00 -1.43919335270443807e-06 
9.45902813493243862e-06 0.00000000000000000e+00 -1.43926067051225395e-06 
1.14167559208118386e-05 0.00000000000000000e+00 -1.45459200442960010e-06 
1.14167144553739692e-05 0.00000000000000000e+00 -1.45469176929647606e-06 
1.33879709150204271e-05 0.00000000000000000e+00 -1.46008778326511522e-06 
1.33879238002004183e-05 0.00000000000000000e+00 -1.46009560188419422e-06 

