# vtk DataFile Version 2.0

ASCII

DATASET UNSTRUCTURED_GRID

POINTS 44 double 

0.00000000000000000e+00  1.20000000000000002e-02  0.00000000000000000e+00
0.00000000000000000e+00  1.20000000000000002e-02  8.00000000000000017e-03
0.00000000000000000e+00  0.00000000000000000e+00  8.00000000000000017e-03
0.00000000000000000e+00  0.00000000000000000e+00  0.00000000000000000e+00
0.00000000000000000e+00  1.20000000000000002e-02  1.60000000000000003e-02
0.00000000000000000e+00  0.00000000000000000e+00  1.60000000000000003e-02
0.00000000000000000e+00  1.20000000000000002e-02  2.40000000000000005e-02
0.00000000000000000e+00  0.00000000000000000e+00  2.40000000000000005e-02
0.00000000000000000e+00  1.20000000000000002e-02  3.20000000000000007e-02
0.00000000000000000e+00  0.00000000000000000e+00  3.20000000000000007e-02
0.00000000000000000e+00  1.20000000000000002e-02  4.00000000000000008e-02
0.00000000000000000e+00  0.00000000000000000e+00  4.00000000000000008e-02
0.00000000000000000e+00  1.20000000000000002e-02  4.80000000000000010e-02
0.00000000000000000e+00  0.00000000000000000e+00  4.80000000000000010e-02
0.00000000000000000e+00  1.20000000000000002e-02  5.60000000000000012e-02
0.00000000000000000e+00  0.00000000000000000e+00  5.60000000000000012e-02
0.00000000000000000e+00  1.20000000000000002e-02  6.40000000000000013e-02
0.00000000000000000e+00  0.00000000000000000e+00  6.40000000000000013e-02
0.00000000000000000e+00  1.20000000000000002e-02  7.19999999999999946e-02
0.00000000000000000e+00  0.00000000000000000e+00  7.19999999999999946e-02
0.00000000000000000e+00  1.20000000000000002e-02  8.00000000000000017e-02
0.00000000000000000e+00  0.00000000000000000e+00  8.00000000000000017e-02
1.20000000000000002e-02  1.20000000000000002e-02  8.00000000000000017e-02
1.20000000000000002e-02  0.00000000000000000e+00  8.00000000000000017e-02
1.20000000000000002e-02  1.20000000000000002e-02  0.00000000000000000e+00
1.20000000000000002e-02  0.00000000000000000e+00  0.00000000000000000e+00
1.20000000000000002e-02  0.00000000000000000e+00  8.00000000000000017e-03
1.20000000000000002e-02  1.20000000000000002e-02  8.00000000000000017e-03
1.20000000000000002e-02  0.00000000000000000e+00  1.60000000000000003e-02
1.20000000000000002e-02  1.20000000000000002e-02  1.60000000000000003e-02
1.20000000000000002e-02  0.00000000000000000e+00  2.40000000000000005e-02
1.20000000000000002e-02  1.20000000000000002e-02  2.40000000000000005e-02
1.20000000000000002e-02  0.00000000000000000e+00  3.20000000000000007e-02
1.20000000000000002e-02  1.20000000000000002e-02  3.20000000000000007e-02
1.20000000000000002e-02  0.00000000000000000e+00  4.00000000000000008e-02
1.20000000000000002e-02  1.20000000000000002e-02  4.00000000000000008e-02
1.20000000000000002e-02  0.00000000000000000e+00  4.80000000000000010e-02
1.20000000000000002e-02  1.20000000000000002e-02  4.80000000000000010e-02
1.20000000000000002e-02  0.00000000000000000e+00  5.60000000000000012e-02
1.20000000000000002e-02  1.20000000000000002e-02  5.60000000000000012e-02
1.20000000000000002e-02  0.00000000000000000e+00  6.40000000000000013e-02
1.20000000000000002e-02  1.20000000000000002e-02  6.40000000000000013e-02
1.20000000000000002e-02  0.00000000000000000e+00  7.19999999999999946e-02
1.20000000000000002e-02  1.20000000000000002e-02  7.19999999999999946e-02

CELLS 0 0


CELL_TYPES 0


POINT_DATA 44

SCALARS Rank unsigned_int
LOOKUP_TABLE default
0 0 0 0 0 0 0 0 0 0 0 0 0 0 0 0 0 0 0 0 0 0 0 0 0 0 0 0 0 0 0 0 0 0 0 0 0 0 0 0 0 0 0 0 

VECTORS Displacements0 double
-1.22742199231920144e-06 0.00000000000000000e+00 1.42583993181192055e-06 
6.01212517734671381e-04 0.00000000000000000e+00 5.58282311559305487e-04 
6.01199220538298738e-04 0.00000000000000000e+00 5.58300776607189219e-04 
-1.28662929200964310e-06 0.00000000000000000e+00 1.49246479308321779e-06 
1.81164965674945476e-03 0.00000000000000000e+00 8.36516978783778350e-04 
1.81137611608776588e-03 0.00000000000000000e+00 8.36734763914406452e-04 
3.37102095642393979e-03 0.00000000000000000e+00 9.03945060670290805e-04 
3.37072816122517722e-03 0.00000000000000000e+00 9.04175831454700997e-04 
5.08791426656998811e-03 0.00000000000000000e+00 8.33480779814477690e-04 
5.08886797819338172e-03 0.00000000000000000e+00 8.33625835094710561e-04 
6.87060209665170916e-03 0.00000000000000000e+00 6.87506424099369067e-04 
6.87046956245760277e-03 0.00000000000000000e+00 6.87202398064172266e-04 
8.67602025695684079e-03 0.00000000000000000e+00 5.06894146164061027e-04 
8.67579077672177984e-03 0.00000000000000000e+00 5.06741394599334333e-04 
1.04883176409053692e-02 0.00000000000000000e+00 3.17498988284416585e-04 
1.04883235417231185e-02 0.00000000000000000e+00 3.17493740204432108e-04 
1.23134333422787994e-02 0.00000000000000000e+00 1.24035368879649470e-04 
1.23134203844606719e-02 0.00000000000000000e+00 1.24070836961508342e-04 
1.41514705927120107e-02 0.00000000000000000e+00 -7.66860528931588917e-05 
1.41514730304401742e-02 0.00000000000000000e+00 -7.66844089931358400e-05 
1.59948474729977239e-02 0.00000000000000000e+00 -2.86266826871225434e-04 
1.59946595705611587e-02 0.00000000000000000e+00 -2.86272288584021872e-04 
1.56762350039121069e-02 0.00000000000000000e+00 -3.05150693693724030e-03 
1.56762689904574315e-02 0.00000000000000000e+00 -3.05155477351698196e-03 
-2.01848207000918925e-06 0.00000000000000000e+00 -1.33148251682481440e-06 
-2.06637377127131573e-06 0.00000000000000000e+00 -1.38472843340137902e-06 
5.03645918982400425e-04 0.00000000000000000e+00 -6.48829933006310738e-04 
5.03580456061240205e-04 0.00000000000000000e+00 -6.48794885719900698e-04 
1.62465493801678697e-03 0.00000000000000000e+00 -1.11031529817148464e-03 
1.62451400676542923e-03 0.00000000000000000e+00 -1.11087708830039859e-03 
3.11050251836802322e-03 0.00000000000000000e+00 -1.46201584465596116e-03 
3.11072281769778775e-03 0.00000000000000000e+00 -1.46184775840308345e-03 
4.79086831343345301e-03 0.00000000000000000e+00 -1.74318649610812884e-03 
4.79072564655850727e-03 0.00000000000000000e+00 -1.74335358174090719e-03 
6.56014946050466254e-03 0.00000000000000000e+00 -1.98075896469916907e-03 
6.56007446580066014e-03 0.00000000000000000e+00 -1.98095531293755386e-03 
8.36091708912548373e-03 0.00000000000000000e+00 -2.19638079239519758e-03 
8.36092630690934112e-03 0.00000000000000000e+00 -2.19655587171831059e-03 
1.01723302900537729e-02 0.00000000000000000e+00 -2.40759133924959515e-03 
1.01723152439590816e-02 0.00000000000000000e+00 -2.40755950735629899e-03 
1.19964728557487212e-02 0.00000000000000000e+00 -2.62167340192345517e-03 
1.19964562647385409e-02 0.00000000000000000e+00 -2.62168514043686560e-03 
1.38329895647944737e-02 0.00000000000000000e+00 -2.83766984600087929e-03 
1.38329404308575980e-02 0.00000000000000000e+00 -2.83763905575812759e-03 

