# vtk DataFile Version 2.0

ASCII

DATASET UNSTRUCTURED_GRID

POINTS 21 double 

0.00000000000000000e+00  6.00000000000000099e-03  4.00000000000000008e-03
0.00000000000000000e+00  6.00000000000000099e-03  1.20000000000000020e-02
0.00000000000000000e+00  6.00000000000000099e-03  2.00000000000000004e-02
0.00000000000000000e+00  5.99999999999999926e-03  2.80000000000000041e-02
0.00000000000000000e+00  6.00000000000000099e-03  3.60000000000000042e-02
0.00000000000000000e+00  6.00000000000000099e-03  4.39999999999999974e-02
0.00000000000000000e+00  6.00000000000000099e-03  5.19999999999999976e-02
0.00000000000000000e+00  5.99999999999999926e-03  5.99999999999999908e-02
0.00000000000000000e+00  5.99999999999999926e-03  6.79999999999999910e-02
0.00000000000000000e+00  6.00000000000000012e-03  7.59999999999999981e-02
6.00000000000000099e-03  6.00000000000000099e-03  8.00000000000000017e-02
1.20000000000000020e-02  6.00000000000000099e-03  4.00000000000000008e-03
1.20000000000000020e-02  6.00000000000000099e-03  1.19999999999999985e-02
1.20000000000000020e-02  6.00000000000000099e-03  2.00000000000000004e-02
1.20000000000000020e-02  6.00000000000000099e-03  2.80000000000000041e-02
1.20000000000000020e-02  6.00000000000000099e-03  3.59999999999999973e-02
1.20000000000000020e-02  6.00000000000000099e-03  4.40000000000000044e-02
1.20000000000000020e-02  6.00000000000000099e-03  5.19999999999999976e-02
1.20000000000000020e-02  6.00000000000000099e-03  5.99999999999999978e-02
1.20000000000000002e-02  5.99999999999999926e-03  6.79999999999999910e-02
1.20000000000000002e-02  6.00000000000000012e-03  7.59999999999999981e-02

CELLS 0 0


CELL_TYPES 0


POINT_DATA 21

SCALARS Rank unsigned_int
LOOKUP_TABLE default
0 0 0 0 0 0 0 0 0 0 0 0 0 0 0 0 0 0 0 0 0 

VECTORS Forces0 double
1.63033963803143056e-01 -5.86880409337122331e-19 -2.27887016358766445e-02 
1.53997683022503884e-01 1.28447940312747040e-18 -5.43562174050985780e-02 
1.41494216129666062e-01 -4.24077197581169539e-20 -7.74179436890396894e-02 
1.24343499380852873e-01 -2.51312609390262538e-18 -8.90603333759088234e-02 
1.01890700480922192e-01 1.95840437525804692e-20 -8.77291834642888457e-02 
6.91234932478335257e-02 1.89380582410211617e-20 -6.74941157700577749e-02 
4.68136416627036311e-02 3.52845158601689904e-20 -4.94596304278872093e-02 
4.42436107813214199e-02 3.18187083725591731e-20 -4.88568644685836023e-02 
4.54677596160123695e-02 1.38092755224983540e-20 -5.11646944140641408e-02 
3.85568662972291185e-02 1.40129846432481707e-44 -4.34902105971525718e-02 
-2.97084947358115001e-04 3.56981807673990279e-20 -2.42598075246656247e-04 
4.12062729043682018e-04 -1.09476442525376334e-47 -5.51879331112856595e-05 
4.19871375869335485e-04 2.18594810538368581e-27 -1.52849312450402966e-04 
4.20172420530381962e-04 1.00849488322175270e-22 -2.33580250189908446e-04 
4.17108311981767154e-04 -4.95560381032634128e-21 -3.01614030310043012e-04 
4.09145752318818218e-04 0.00000000000000000e+00 -3.54421931233307480e-04 
4.00028126868573724e-04 -1.38183302277967874e-22 -3.91867388570038512e-04 
3.97767890787325184e-04 -1.75162308040602134e-46 -4.21337067959914153e-04 
4.03980343537886795e-04 -1.07656623977033351e-20 -4.47074650693005658e-04 
4.14270944530241783e-04 1.15046720443081537e-20 -4.67039593516475264e-04 
4.03815489975664936e-04 -1.11011827660308610e-20 -4.55570174642055839e-04 

