# vtk DataFile Version 2.0

ASCII

DATASET UNSTRUCTURED_GRID

POINTS 44 double 

0.00000000000000000e+00  1.20000000000000002e-02  0.00000000000000000e+00
0.00000000000000000e+00  1.20000000000000002e-02  8.00000000000000017e-03
0.00000000000000000e+00  0.00000000000000000e+00  8.00000000000000017e-03
0.00000000000000000e+00  0.00000000000000000e+00  0.00000000000000000e+00
0.00000000000000000e+00  1.20000000000000002e-02  1.60000000000000003e-02
0.00000000000000000e+00  0.00000000000000000e+00  1.60000000000000003e-02
0.00000000000000000e+00  1.20000000000000002e-02  2.40000000000000005e-02
0.00000000000000000e+00  0.00000000000000000e+00  2.40000000000000005e-02
0.00000000000000000e+00  1.20000000000000002e-02  3.20000000000000007e-02
0.00000000000000000e+00  0.00000000000000000e+00  3.20000000000000007e-02
0.00000000000000000e+00  1.20000000000000002e-02  4.00000000000000008e-02
0.00000000000000000e+00  0.00000000000000000e+00  4.00000000000000008e-02
0.00000000000000000e+00  1.20000000000000002e-02  4.80000000000000010e-02
0.00000000000000000e+00  0.00000000000000000e+00  4.80000000000000010e-02
0.00000000000000000e+00  1.20000000000000002e-02  5.60000000000000012e-02
0.00000000000000000e+00  0.00000000000000000e+00  5.60000000000000012e-02
0.00000000000000000e+00  1.20000000000000002e-02  6.40000000000000013e-02
0.00000000000000000e+00  0.00000000000000000e+00  6.40000000000000013e-02
0.00000000000000000e+00  1.20000000000000002e-02  7.19999999999999946e-02
0.00000000000000000e+00  0.00000000000000000e+00  7.19999999999999946e-02
0.00000000000000000e+00  1.20000000000000002e-02  8.00000000000000017e-02
0.00000000000000000e+00  0.00000000000000000e+00  8.00000000000000017e-02
1.20000000000000002e-02  1.20000000000000002e-02  8.00000000000000017e-02
1.20000000000000002e-02  0.00000000000000000e+00  8.00000000000000017e-02
1.20000000000000002e-02  1.20000000000000002e-02  0.00000000000000000e+00
1.20000000000000002e-02  0.00000000000000000e+00  0.00000000000000000e+00
1.20000000000000002e-02  0.00000000000000000e+00  8.00000000000000017e-03
1.20000000000000002e-02  1.20000000000000002e-02  8.00000000000000017e-03
1.20000000000000002e-02  0.00000000000000000e+00  1.60000000000000003e-02
1.20000000000000002e-02  1.20000000000000002e-02  1.60000000000000003e-02
1.20000000000000002e-02  0.00000000000000000e+00  2.40000000000000005e-02
1.20000000000000002e-02  1.20000000000000002e-02  2.40000000000000005e-02
1.20000000000000002e-02  0.00000000000000000e+00  3.20000000000000007e-02
1.20000000000000002e-02  1.20000000000000002e-02  3.20000000000000007e-02
1.20000000000000002e-02  0.00000000000000000e+00  4.00000000000000008e-02
1.20000000000000002e-02  1.20000000000000002e-02  4.00000000000000008e-02
1.20000000000000002e-02  0.00000000000000000e+00  4.80000000000000010e-02
1.20000000000000002e-02  1.20000000000000002e-02  4.80000000000000010e-02
1.20000000000000002e-02  0.00000000000000000e+00  5.60000000000000012e-02
1.20000000000000002e-02  1.20000000000000002e-02  5.60000000000000012e-02
1.20000000000000002e-02  0.00000000000000000e+00  6.40000000000000013e-02
1.20000000000000002e-02  1.20000000000000002e-02  6.40000000000000013e-02
1.20000000000000002e-02  0.00000000000000000e+00  7.19999999999999946e-02
1.20000000000000002e-02  1.20000000000000002e-02  7.19999999999999946e-02

CELLS 0 0


CELL_TYPES 0


POINT_DATA 44

SCALARS Rank unsigned_int
LOOKUP_TABLE default
0 0 0 0 0 0 0 0 0 0 0 0 0 0 0 0 0 0 0 0 0 0 0 0 0 0 0 0 0 0 0 0 0 0 0 0 0 0 0 0 0 0 0 0 

VECTORS Displacements0 double
-3.20797663001259301e-06 0.00000000000000000e+00 4.57695105711020596e-06 
1.16346153772011905e-03 0.00000000000000000e+00 1.01684719827364943e-03 
1.16342423285882915e-03 0.00000000000000000e+00 1.01706862744273805e-03 
-3.43001167400118837e-06 0.00000000000000000e+00 4.95849058021208960e-06 
3.73954258205517424e-03 0.00000000000000000e+00 1.45162345368009260e-03 
3.73919244044640560e-03 0.00000000000000000e+00 1.45209041060656834e-03 
7.25823961705962268e-03 0.00000000000000000e+00 1.30448445594675850e-03 
7.25820955267517977e-03 0.00000000000000000e+00 1.30493605050229205e-03 
1.13469258020528763e-02 0.00000000000000000e+00 6.72708463269676253e-04 
1.13483655249861856e-02 0.00000000000000000e+00 6.72873890476610031e-04 
1.57820659472097044e-02 0.00000000000000000e+00 -3.22097657534228810e-04 
1.57818798488718222e-02 0.00000000000000000e+00 -3.22530050457675924e-04 
2.04185937213380159e-02 0.00000000000000000e+00 -1.57117169562783279e-03 
2.04183451119046983e-02 0.00000000000000000e+00 -1.57163008549612328e-03 
2.51619358368804294e-02 0.00000000000000000e+00 -2.98524918265208588e-03 
2.51616565826074112e-02 0.00000000000000000e+00 -2.98540578011157170e-03 
2.99568462566623325e-02 0.00000000000000000e+00 -4.50249958083229554e-03 
2.99569155005209031e-02 0.00000000000000000e+00 -4.50236450878171383e-03 
3.47674635581290067e-02 0.00000000000000000e+00 -6.07728114525989994e-03 
3.47675167015761982e-02 0.00000000000000000e+00 -6.07721557304550120e-03 
3.95676915069463550e-02 0.00000000000000000e+00 -7.67314673403036301e-03 
3.95679130091322953e-02 0.00000000000000000e+00 -7.67308895732549991e-03 
3.71737970697369885e-02 0.00000000000000000e+00 -1.48643136036947197e-02 
3.71738662775615292e-02 0.00000000000000000e+00 -1.48643452332389812e-02 
-7.20328974929560868e-06 0.00000000000000000e+00 -1.54824135028455196e-06 
-7.52946996251491023e-06 0.00000000000000000e+00 -1.51780028666975708e-06 
8.27891905057192689e-04 0.00000000000000000e+00 -1.41132907674907672e-03 
8.27953506514745273e-04 0.00000000000000000e+00 -1.41133765133149972e-03 
2.94513209672024427e-03 0.00000000000000000e+00 -2.68745593752025115e-03 
2.94492234403082205e-03 0.00000000000000000e+00 -2.68830751385544953e-03 
5.98086269947125174e-03 0.00000000000000000e+00 -4.00146795884338997e-03 
5.98128763487595656e-03 0.00000000000000000e+00 -4.00119690134921081e-03 
9.66949183475934899e-03 0.00000000000000000e+00 -5.40451964422268387e-03 
9.66931995109432917e-03 0.00000000000000000e+00 -5.40445923178147197e-03 
1.38080808603071870e-02 0.00000000000000000e+00 -6.89428466842560358e-03 
1.38079984631613653e-02 0.00000000000000000e+00 -6.89441966221750278e-03 
1.82420713599354828e-02 0.00000000000000000e+00 -8.44962493806953804e-03 
1.82418859949572618e-02 0.00000000000000000e+00 -8.44988341917081096e-03 
2.28614765681200531e-02 0.00000000000000000e+00 -1.00443082125548037e-02 
2.28615052001356345e-02 0.00000000000000000e+00 -1.00444738201896835e-02 
2.75911679309606556e-02 0.00000000000000000e+00 -1.16556151558821763e-02 
2.75909210270832150e-02 0.00000000000000000e+00 -1.16559177412214419e-02 
3.23761474347362688e-02 0.00000000000000000e+00 -1.32667906262495944e-02 
3.23761263179804387e-02 0.00000000000000000e+00 -1.32668091090161599e-02 

