# vtk DataFile Version 2.0

ASCII

DATASET UNSTRUCTURED_GRID

POINTS 21 double 

0.00000000000000000e+00  6.00000000000000099e-03  4.00000000000000008e-03
0.00000000000000000e+00  6.00000000000000099e-03  1.20000000000000020e-02
0.00000000000000000e+00  6.00000000000000099e-03  2.00000000000000004e-02
0.00000000000000000e+00  5.99999999999999926e-03  2.80000000000000041e-02
0.00000000000000000e+00  6.00000000000000099e-03  3.60000000000000042e-02
0.00000000000000000e+00  6.00000000000000099e-03  4.39999999999999974e-02
0.00000000000000000e+00  6.00000000000000099e-03  5.19999999999999976e-02
0.00000000000000000e+00  5.99999999999999926e-03  5.99999999999999908e-02
0.00000000000000000e+00  5.99999999999999926e-03  6.79999999999999910e-02
0.00000000000000000e+00  6.00000000000000012e-03  7.59999999999999981e-02
6.00000000000000099e-03  6.00000000000000099e-03  8.00000000000000017e-02
1.20000000000000020e-02  6.00000000000000099e-03  4.00000000000000008e-03
1.20000000000000020e-02  6.00000000000000099e-03  1.19999999999999985e-02
1.20000000000000020e-02  6.00000000000000099e-03  2.00000000000000004e-02
1.20000000000000020e-02  6.00000000000000099e-03  2.80000000000000041e-02
1.20000000000000020e-02  6.00000000000000099e-03  3.59999999999999973e-02
1.20000000000000020e-02  6.00000000000000099e-03  4.40000000000000044e-02
1.20000000000000020e-02  6.00000000000000099e-03  5.19999999999999976e-02
1.20000000000000020e-02  6.00000000000000099e-03  5.99999999999999978e-02
1.20000000000000002e-02  5.99999999999999926e-03  6.79999999999999910e-02
1.20000000000000002e-02  6.00000000000000012e-03  7.59999999999999981e-02

CELLS 0 0


CELL_TYPES 0


POINT_DATA 21

SCALARS Rank unsigned_int
LOOKUP_TABLE default
0 0 0 0 0 0 0 0 0 0 0 0 0 0 0 0 0 0 0 0 0 

VECTORS Forces0 double
2.84272147110686046e-01 -1.68632156342074007e-25 -3.55044228172134019e-02 
2.67588401944018894e-01 -1.98545551836958448e-20 -7.65737137531161405e-02 
2.34759281165744238e-01 -2.08313140948810977e-18 -9.57251662331990161e-02 
1.90300725855216152e-01 -1.89089867935675671e-20 -9.30850646534553405e-02 
1.41588643661347630e-01 1.81869796890312914e-20 -7.65995367907241070e-02 
9.92126988703797980e-02 1.01156924140709480e-18 -5.66884715832382743e-02 
6.80675493786391944e-02 1.53181723931682765e-24 -3.99190106000604158e-02 
4.19830802592507310e-02 1.57001634075200865e-20 -2.49012117515849916e-02 
2.36924701654043571e-02 -2.42967374482380007e-19 -1.40992383167319272e-02 
1.71074835810402642e-02 1.62713926136166803e-19 -1.01744818336507361e-02 
-1.16830083497738058e-03 2.90566457769234702e-20 -1.92799861133355799e-03 
-8.58098766590946737e-05 2.08823378955904045e-22 1.05840977373604301e-05 
-8.12219750132033269e-05 -1.18198531765012360e-22 2.39629516462479343e-05 
-7.05668740331034900e-05 -4.60851774373677803e-22 2.91260116053940905e-05 
-5.86966768042415925e-05 7.45880353296936502e-22 2.88946107911424609e-05 
-5.08842851487296637e-05 -1.52000860485607065e-22 2.76310732088298609e-05 
-4.79610552834540269e-05 1.58980321407266702e-22 2.74602729210938409e-05 
-4.64847705496418788e-05 -1.65909761959048277e-22 2.73096772047961723e-05 
-4.88956131740572429e-05 -6.78089881719898992e-22 2.90983823854778366e-05 
-5.32439545603779444e-05 0.00000000000000000e+00 3.18093371315710593e-05 
-6.52021656690451092e-05 -4.93038358070589964e-22 3.90417307616261253e-05 

