# vtk DataFile Version 2.0

ASCII

DATASET UNSTRUCTURED_GRID

POINTS 44 double 

0.00000000000000000e+00  1.20000000000000002e-02  0.00000000000000000e+00
0.00000000000000000e+00  1.20000000000000002e-02  8.00000000000000017e-03
0.00000000000000000e+00  0.00000000000000000e+00  8.00000000000000017e-03
0.00000000000000000e+00  0.00000000000000000e+00  0.00000000000000000e+00
0.00000000000000000e+00  1.20000000000000002e-02  1.60000000000000003e-02
0.00000000000000000e+00  0.00000000000000000e+00  1.60000000000000003e-02
0.00000000000000000e+00  1.20000000000000002e-02  2.40000000000000005e-02
0.00000000000000000e+00  0.00000000000000000e+00  2.40000000000000005e-02
0.00000000000000000e+00  1.20000000000000002e-02  3.20000000000000007e-02
0.00000000000000000e+00  0.00000000000000000e+00  3.20000000000000007e-02
0.00000000000000000e+00  1.20000000000000002e-02  4.00000000000000008e-02
0.00000000000000000e+00  0.00000000000000000e+00  4.00000000000000008e-02
0.00000000000000000e+00  1.20000000000000002e-02  4.80000000000000010e-02
0.00000000000000000e+00  0.00000000000000000e+00  4.80000000000000010e-02
0.00000000000000000e+00  1.20000000000000002e-02  5.60000000000000012e-02
0.00000000000000000e+00  0.00000000000000000e+00  5.60000000000000012e-02
0.00000000000000000e+00  1.20000000000000002e-02  6.40000000000000013e-02
0.00000000000000000e+00  0.00000000000000000e+00  6.40000000000000013e-02
0.00000000000000000e+00  1.20000000000000002e-02  7.19999999999999946e-02
0.00000000000000000e+00  0.00000000000000000e+00  7.19999999999999946e-02
0.00000000000000000e+00  1.20000000000000002e-02  8.00000000000000017e-02
0.00000000000000000e+00  0.00000000000000000e+00  8.00000000000000017e-02
1.20000000000000002e-02  1.20000000000000002e-02  8.00000000000000017e-02
1.20000000000000002e-02  0.00000000000000000e+00  8.00000000000000017e-02
1.20000000000000002e-02  1.20000000000000002e-02  0.00000000000000000e+00
1.20000000000000002e-02  0.00000000000000000e+00  0.00000000000000000e+00
1.20000000000000002e-02  0.00000000000000000e+00  8.00000000000000017e-03
1.20000000000000002e-02  1.20000000000000002e-02  8.00000000000000017e-03
1.20000000000000002e-02  0.00000000000000000e+00  1.60000000000000003e-02
1.20000000000000002e-02  1.20000000000000002e-02  1.60000000000000003e-02
1.20000000000000002e-02  0.00000000000000000e+00  2.40000000000000005e-02
1.20000000000000002e-02  1.20000000000000002e-02  2.40000000000000005e-02
1.20000000000000002e-02  0.00000000000000000e+00  3.20000000000000007e-02
1.20000000000000002e-02  1.20000000000000002e-02  3.20000000000000007e-02
1.20000000000000002e-02  0.00000000000000000e+00  4.00000000000000008e-02
1.20000000000000002e-02  1.20000000000000002e-02  4.00000000000000008e-02
1.20000000000000002e-02  0.00000000000000000e+00  4.80000000000000010e-02
1.20000000000000002e-02  1.20000000000000002e-02  4.80000000000000010e-02
1.20000000000000002e-02  0.00000000000000000e+00  5.60000000000000012e-02
1.20000000000000002e-02  1.20000000000000002e-02  5.60000000000000012e-02
1.20000000000000002e-02  0.00000000000000000e+00  6.40000000000000013e-02
1.20000000000000002e-02  1.20000000000000002e-02  6.40000000000000013e-02
1.20000000000000002e-02  0.00000000000000000e+00  7.19999999999999946e-02
1.20000000000000002e-02  1.20000000000000002e-02  7.19999999999999946e-02

CELLS 0 0


CELL_TYPES 0


POINT_DATA 44

SCALARS Rank unsigned_int
LOOKUP_TABLE default
0 0 0 0 0 0 0 0 0 0 0 0 0 0 0 0 0 0 0 0 0 0 0 0 0 0 0 0 0 0 0 0 0 0 0 0 0 0 0 0 0 0 0 0 

VECTORS Displacements0 double
-7.16005240869492498e-09 0.00000000000000000e+00 4.96678558143855697e-09 
1.84499760581253564e-06 0.00000000000000000e+00 2.11828728853391553e-06 
1.84484825487233766e-06 0.00000000000000000e+00 2.11846678504251833e-06 
-7.54501967104943334e-09 0.00000000000000000e+00 5.27340407966287301e-09 
5.93721896756782841e-06 0.00000000000000000e+00 3.58203014778278418e-06 
5.93631993581898792e-06 0.00000000000000000e+00 3.58280600986496539e-06 
1.15836288580478995e-05 0.00000000000000000e+00 4.57359070125017771e-06 
1.15820678555426063e-05 0.00000000000000000e+00 4.57423322121946908e-06 
1.82153266092036354e-05 0.00000000000000000e+00 5.21224113327603096e-06 
1.82166870574037031e-05 0.00000000000000000e+00 5.21382427353163622e-06 
2.54679332217336329e-05 0.00000000000000000e+00 5.60203077726765314e-06 
2.54676628240628261e-05 0.00000000000000000e+00 5.60149768559973452e-06 
3.30716524756786455e-05 0.00000000000000000e+00 5.81390176909119866e-06 
3.30714616466462532e-05 0.00000000000000000e+00 5.81315117598849265e-06 
4.08276510603512819e-05 0.00000000000000000e+00 5.90763427373615052e-06 
4.08273874171361802e-05 0.00000000000000000e+00 5.90736003694637366e-06 
4.86192125196448772e-05 0.00000000000000000e+00 5.93593319164515282e-06 
4.86191842889523878e-05 0.00000000000000000e+00 5.93615870368682750e-06 
5.63977958708391033e-05 0.00000000000000000e+00 5.93953328419406254e-06 
5.63977242722053093e-05 0.00000000000000000e+00 5.93968056636119950e-06 
6.41563117144496628e-05 0.00000000000000000e+00 5.94531627385693700e-06 
6.41559980391586803e-05 0.00000000000000000e+00 5.94522780553941792e-06 
6.41659908901452247e-05 0.00000000000000000e+00 -5.70900394559154590e-06 
6.41661512774877919e-05 0.00000000000000000e+00 -5.70910664777163704e-06 
-9.04720503358041345e-09 0.00000000000000000e+00 -6.35410977049885702e-09 
-9.29989786864641978e-09 0.00000000000000000e+00 -6.70955103949873221e-09 
1.79327902545554775e-06 0.00000000000000000e+00 -2.08474596474092047e-06 
1.79310498546506218e-06 0.00000000000000000e+00 -2.08448303999344016e-06 
5.88655109472171563e-06 0.00000000000000000e+00 -3.52733229452455705e-06 
5.88613275817445140e-06 0.00000000000000000e+00 -3.52894242267590322e-06 
1.15322086235262293e-05 0.00000000000000000e+00 -4.49473522385124684e-06 
1.15326971774856886e-05 0.00000000000000000e+00 -4.49382277326499806e-06 
1.81779329651497081e-05 0.00000000000000000e+00 -5.11035725229444026e-06 
1.81774295096984363e-05 0.00000000000000000e+00 -5.11036522848287727e-06 
2.54407958039048977e-05 0.00000000000000000e+00 -5.47343854697635861e-06 
2.54407619721115400e-05 0.00000000000000000e+00 -5.47385033208758241e-06 
3.30497920215280756e-05 0.00000000000000000e+00 -5.66278624999557098e-06 
3.30497164735339116e-05 0.00000000000000000e+00 -5.66340556669126436e-06 
4.08137075884248347e-05 0.00000000000000000e+00 -5.73348779903485089e-06 
4.08136656656580155e-05 0.00000000000000000e+00 -5.73370907977963396e-06 
4.86106410534554469e-05 0.00000000000000000e+00 -5.73511806260011610e-06 
4.86105457941708963e-05 0.00000000000000000e+00 -5.73525870044763199e-06 
5.63925213685297883e-05 0.00000000000000000e+00 -5.71975310820991213e-06 
5.63922870041532227e-05 0.00000000000000000e+00 -5.71961417053462665e-06 

