# vtk DataFile Version 2.0

ASCII

DATASET UNSTRUCTURED_GRID

POINTS 44 double 

0.00000000000000000e+00  1.20000000000000002e-02  0.00000000000000000e+00
0.00000000000000000e+00  1.20000000000000002e-02  8.00000000000000017e-03
0.00000000000000000e+00  0.00000000000000000e+00  8.00000000000000017e-03
0.00000000000000000e+00  0.00000000000000000e+00  0.00000000000000000e+00
0.00000000000000000e+00  1.20000000000000002e-02  1.60000000000000003e-02
0.00000000000000000e+00  0.00000000000000000e+00  1.60000000000000003e-02
0.00000000000000000e+00  1.20000000000000002e-02  2.40000000000000005e-02
0.00000000000000000e+00  0.00000000000000000e+00  2.40000000000000005e-02
0.00000000000000000e+00  1.20000000000000002e-02  3.20000000000000007e-02
0.00000000000000000e+00  0.00000000000000000e+00  3.20000000000000007e-02
0.00000000000000000e+00  1.20000000000000002e-02  4.00000000000000008e-02
0.00000000000000000e+00  0.00000000000000000e+00  4.00000000000000008e-02
0.00000000000000000e+00  1.20000000000000002e-02  4.80000000000000010e-02
0.00000000000000000e+00  0.00000000000000000e+00  4.80000000000000010e-02
0.00000000000000000e+00  1.20000000000000002e-02  5.60000000000000012e-02
0.00000000000000000e+00  0.00000000000000000e+00  5.60000000000000012e-02
0.00000000000000000e+00  1.20000000000000002e-02  6.40000000000000013e-02
0.00000000000000000e+00  0.00000000000000000e+00  6.40000000000000013e-02
0.00000000000000000e+00  1.20000000000000002e-02  7.19999999999999946e-02
0.00000000000000000e+00  0.00000000000000000e+00  7.19999999999999946e-02
0.00000000000000000e+00  1.20000000000000002e-02  8.00000000000000017e-02
0.00000000000000000e+00  0.00000000000000000e+00  8.00000000000000017e-02
1.20000000000000002e-02  1.20000000000000002e-02  8.00000000000000017e-02
1.20000000000000002e-02  0.00000000000000000e+00  8.00000000000000017e-02
1.20000000000000002e-02  1.20000000000000002e-02  0.00000000000000000e+00
1.20000000000000002e-02  0.00000000000000000e+00  0.00000000000000000e+00
1.20000000000000002e-02  0.00000000000000000e+00  8.00000000000000017e-03
1.20000000000000002e-02  1.20000000000000002e-02  8.00000000000000017e-03
1.20000000000000002e-02  0.00000000000000000e+00  1.60000000000000003e-02
1.20000000000000002e-02  1.20000000000000002e-02  1.60000000000000003e-02
1.20000000000000002e-02  0.00000000000000000e+00  2.40000000000000005e-02
1.20000000000000002e-02  1.20000000000000002e-02  2.40000000000000005e-02
1.20000000000000002e-02  0.00000000000000000e+00  3.20000000000000007e-02
1.20000000000000002e-02  1.20000000000000002e-02  3.20000000000000007e-02
1.20000000000000002e-02  0.00000000000000000e+00  4.00000000000000008e-02
1.20000000000000002e-02  1.20000000000000002e-02  4.00000000000000008e-02
1.20000000000000002e-02  0.00000000000000000e+00  4.80000000000000010e-02
1.20000000000000002e-02  1.20000000000000002e-02  4.80000000000000010e-02
1.20000000000000002e-02  0.00000000000000000e+00  5.60000000000000012e-02
1.20000000000000002e-02  1.20000000000000002e-02  5.60000000000000012e-02
1.20000000000000002e-02  0.00000000000000000e+00  6.40000000000000013e-02
1.20000000000000002e-02  1.20000000000000002e-02  6.40000000000000013e-02
1.20000000000000002e-02  0.00000000000000000e+00  7.19999999999999946e-02
1.20000000000000002e-02  1.20000000000000002e-02  7.19999999999999946e-02

CELLS 0 0


CELL_TYPES 0


POINT_DATA 44

SCALARS Rank unsigned_int
LOOKUP_TABLE default
0 0 0 0 0 0 0 0 0 0 0 0 0 0 0 0 0 0 0 0 0 0 0 0 0 0 0 0 0 0 0 0 0 0 0 0 0 0 0 0 0 0 0 0 

VECTORS Displacements0 double
-4.30214307209720321e-06 0.00000000000000000e+00 6.98775986130498630e-06 
1.32363402528979171e-03 0.00000000000000000e+00 1.12758684764706026e-03 
1.32360647938616332e-03 0.00000000000000000e+00 1.12776969936767666e-03 
-4.54589091648631427e-06 0.00000000000000000e+00 7.36573250241512323e-06 
4.33015930145191994e-03 0.00000000000000000e+00 1.56116018394206234e-03 
4.32977940899567822e-03 0.00000000000000000e+00 1.56163276218815100e-03 
8.48152400774960721e-03 0.00000000000000000e+00 1.24362525160662523e-03 
8.48173263532406470e-03 0.00000000000000000e+00 1.24411528314259407e-03 
1.33431738716431048e-02 0.00000000000000000e+00 2.64684255776255484e-04 
1.33449016552650811e-02 0.00000000000000000e+00 2.64934365539593909e-04 
1.86451813999129537e-02 0.00000000000000000e+00 -1.23808039461464035e-03 
1.86449906112639979e-02 0.00000000000000000e+00 -1.23839637068899524e-03 
2.41997115200358950e-02 0.00000000000000000e+00 -3.12941138834751682e-03 
2.41994278569061874e-02 0.00000000000000000e+00 -3.12988812486250743e-03 
2.98762548774322012e-02 0.00000000000000000e+00 -5.27808098867757307e-03 
2.98758316995414372e-02 0.00000000000000000e+00 -5.27816114541284406e-03 
3.55965505691738238e-02 0.00000000000000000e+00 -7.57913507302320714e-03 
3.55966585606439928e-02 0.00000000000000000e+00 -7.57896192712297426e-03 
4.13187661958184169e-02 0.00000000000000000e+00 -9.95169706119979763e-03 
4.13187394694909671e-02 0.00000000000000000e+00 -9.95153092595982107e-03 
4.70285079374775997e-02 0.00000000000000000e+00 -1.23436658805887410e-02 
4.70289425834488489e-02 0.00000000000000000e+00 -1.23438613341539244e-02 
4.34349954897486831e-02 0.00000000000000000e+00 -2.08900610368364069e-02 
4.34350710556776903e-02 0.00000000000000000e+00 -2.08902105545806065e-02 
-9.73884104674158652e-06 0.00000000000000000e+00 -1.68511343849591091e-06 
-1.01507515885669933e-05 0.00000000000000000e+00 -1.72613090643290029e-06 
8.83561686070483999e-04 0.00000000000000000e+00 -1.65833775753803313e-03 
8.83666085381131818e-04 0.00000000000000000e+00 -1.65825214274324911e-03 
3.24975526071672946e-03 0.00000000000000000e+00 -3.24222700236835712e-03 
3.24952301419516136e-03 0.00000000000000000e+00 -3.24310993237199177e-03 
6.69656163164042764e-03 0.00000000000000000e+00 -4.96564090991233244e-03 
6.69707167365541679e-03 0.00000000000000000e+00 -4.96546414273218994e-03 
1.09383867493259498e-02 0.00000000000000000e+00 -6.89535397991660696e-03 
1.09383735381156973e-02 0.00000000000000000e+00 -6.89534809377917446e-03 
1.57527340175224184e-02 0.00000000000000000e+00 -9.02555761669419573e-03 
1.57526773656541177e-02 0.00000000000000000e+00 -9.02565646696383561e-03 
2.09633016691663961e-02 0.00000000000000000e+00 -1.13081913449004437e-02 
2.09629548474921414e-02 0.00000000000000000e+00 -1.13085377806362835e-02 
2.64295976888576645e-02 0.00000000000000000e+00 -1.36805854994369903e-02 
2.64295737955746492e-02 0.00000000000000000e+00 -1.36808866096471918e-02 
3.20469537070196334e-02 0.00000000000000000e+00 -1.60892223860417578e-02 
3.20464926315568305e-02 0.00000000000000000e+00 -1.60896143886736856e-02 
3.77334388934246825e-02 0.00000000000000000e+00 -1.84989820255772146e-02 
3.77334159280565407e-02 0.00000000000000000e+00 -1.84989108752214269e-02 

