# vtk DataFile Version 2.0

ASCII

DATASET UNSTRUCTURED_GRID

POINTS 44 double 

0.00000000000000000e+00  1.20000000000000002e-02  0.00000000000000000e+00
0.00000000000000000e+00  1.20000000000000002e-02  8.00000000000000017e-03
0.00000000000000000e+00  0.00000000000000000e+00  8.00000000000000017e-03
0.00000000000000000e+00  0.00000000000000000e+00  0.00000000000000000e+00
0.00000000000000000e+00  1.20000000000000002e-02  1.60000000000000003e-02
0.00000000000000000e+00  0.00000000000000000e+00  1.60000000000000003e-02
0.00000000000000000e+00  1.20000000000000002e-02  2.40000000000000005e-02
0.00000000000000000e+00  0.00000000000000000e+00  2.40000000000000005e-02
0.00000000000000000e+00  1.20000000000000002e-02  3.20000000000000007e-02
0.00000000000000000e+00  0.00000000000000000e+00  3.20000000000000007e-02
0.00000000000000000e+00  1.20000000000000002e-02  4.00000000000000008e-02
0.00000000000000000e+00  0.00000000000000000e+00  4.00000000000000008e-02
0.00000000000000000e+00  1.20000000000000002e-02  4.80000000000000010e-02
0.00000000000000000e+00  0.00000000000000000e+00  4.80000000000000010e-02
0.00000000000000000e+00  1.20000000000000002e-02  5.60000000000000012e-02
0.00000000000000000e+00  0.00000000000000000e+00  5.60000000000000012e-02
0.00000000000000000e+00  1.20000000000000002e-02  6.40000000000000013e-02
0.00000000000000000e+00  0.00000000000000000e+00  6.40000000000000013e-02
0.00000000000000000e+00  1.20000000000000002e-02  7.19999999999999946e-02
0.00000000000000000e+00  0.00000000000000000e+00  7.19999999999999946e-02
0.00000000000000000e+00  1.20000000000000002e-02  8.00000000000000017e-02
0.00000000000000000e+00  0.00000000000000000e+00  8.00000000000000017e-02
1.20000000000000002e-02  1.20000000000000002e-02  8.00000000000000017e-02
1.20000000000000002e-02  0.00000000000000000e+00  8.00000000000000017e-02
1.20000000000000002e-02  1.20000000000000002e-02  0.00000000000000000e+00
1.20000000000000002e-02  0.00000000000000000e+00  0.00000000000000000e+00
1.20000000000000002e-02  0.00000000000000000e+00  8.00000000000000017e-03
1.20000000000000002e-02  1.20000000000000002e-02  8.00000000000000017e-03
1.20000000000000002e-02  0.00000000000000000e+00  1.60000000000000003e-02
1.20000000000000002e-02  1.20000000000000002e-02  1.60000000000000003e-02
1.20000000000000002e-02  0.00000000000000000e+00  2.40000000000000005e-02
1.20000000000000002e-02  1.20000000000000002e-02  2.40000000000000005e-02
1.20000000000000002e-02  0.00000000000000000e+00  3.20000000000000007e-02
1.20000000000000002e-02  1.20000000000000002e-02  3.20000000000000007e-02
1.20000000000000002e-02  0.00000000000000000e+00  4.00000000000000008e-02
1.20000000000000002e-02  1.20000000000000002e-02  4.00000000000000008e-02
1.20000000000000002e-02  0.00000000000000000e+00  4.80000000000000010e-02
1.20000000000000002e-02  1.20000000000000002e-02  4.80000000000000010e-02
1.20000000000000002e-02  0.00000000000000000e+00  5.60000000000000012e-02
1.20000000000000002e-02  1.20000000000000002e-02  5.60000000000000012e-02
1.20000000000000002e-02  0.00000000000000000e+00  6.40000000000000013e-02
1.20000000000000002e-02  1.20000000000000002e-02  6.40000000000000013e-02
1.20000000000000002e-02  0.00000000000000000e+00  7.19999999999999946e-02
1.20000000000000002e-02  1.20000000000000002e-02  7.19999999999999946e-02

CELLS 0 0


CELL_TYPES 0


POINT_DATA 44

SCALARS Rank unsigned_int
LOOKUP_TABLE default
0 0 0 0 0 0 0 0 0 0 0 0 0 0 0 0 0 0 0 0 0 0 0 0 0 0 0 0 0 0 0 0 0 0 0 0 0 0 0 0 0 0 0 0 

VECTORS Displacements0 double
7.71318270571434630e-08 0.00000000000000000e+00 0.00000000000000000e+00 
7.96953930808258525e-05 0.00000000000000000e+00 3.19685054176663738e-05 
7.96909992198630788e-05 0.00000000000000000e+00 3.19636664923325479e-05 
8.14836279262957366e-08 0.00000000000000000e+00 1.00323968705898870e-09 
1.12196167479506427e-04 0.00000000000000000e+00 1.20021931575976602e-05 
1.12218598445335701e-04 0.00000000000000000e+00 1.20143792161152936e-05 
1.05848379962858411e-04 0.00000000000000000e+00 -4.80788628671574175e-06 
1.05813377896613224e-04 0.00000000000000000e+00 -4.80605132448233069e-06 
8.91554976074762434e-05 0.00000000000000000e+00 -9.56674782263868261e-06 
8.91352434752210157e-05 0.00000000000000000e+00 -9.52308683240559328e-06 
7.59670509941443587e-05 0.00000000000000000e+00 -7.91064871830648196e-06 
7.59867115117207034e-05 0.00000000000000000e+00 -7.88134972985826599e-06 
6.73080468143979934e-05 0.00000000000000000e+00 -5.06867566011546210e-06 
6.73067438102895065e-05 0.00000000000000000e+00 -5.07200140164856910e-06 
6.22181523037265759e-05 0.00000000000000000e+00 -2.16752763776944408e-06 
6.22196775142377277e-05 0.00000000000000000e+00 -2.16763412542448529e-06 
6.11582732307734553e-05 0.00000000000000000e+00 5.08391724368125517e-07 
6.11574813914908625e-05 0.00000000000000000e+00 5.09718912160505502e-07 
6.33962894332725158e-05 0.00000000000000000e+00 2.08340362593311918e-06 
6.34028616355715945e-05 0.00000000000000000e+00 2.07960197103074731e-06 
6.63060417721762519e-05 0.00000000000000000e+00 2.32904904052380864e-06 
6.62901110219664180e-05 0.00000000000000000e+00 2.32783080594854965e-06 
6.70850715967273115e-05 0.00000000000000000e+00 -2.10186801478489711e-06 
6.70849869435105020e-05 0.00000000000000000e+00 -2.10340029608725907e-06 
9.16733470759042680e-08 0.00000000000000000e+00 -2.00994714645895311e-09 
9.84599549736861722e-08 0.00000000000000000e+00 -2.48768173512048900e-09 
5.84031082877507922e-05 0.00000000000000000e+00 -3.14012232958864196e-05 
5.83996487942442551e-05 0.00000000000000000e+00 -3.14147788233202694e-05 
1.01684737274455067e-04 0.00000000000000000e+00 -1.51241798163675433e-05 
1.01761822879593774e-04 0.00000000000000000e+00 -1.50609294843496678e-05 
1.04383773503009656e-04 0.00000000000000000e+00 3.19849584321537360e-06 
1.04351761071024728e-04 0.00000000000000000e+00 3.20122440996131916e-06 
9.00132356481375662e-05 0.00000000000000000e+00 9.21646453903587268e-06 
9.00389810058020311e-05 0.00000000000000000e+00 9.25904521542748229e-06 
7.62607420029141810e-05 0.00000000000000000e+00 7.92298146426338647e-06 
7.62467626349368655e-05 0.00000000000000000e+00 7.95150224066548466e-06 
6.68915754652627160e-05 0.00000000000000000e+00 5.16998992123986260e-06 
6.68867553253958669e-05 0.00000000000000000e+00 5.17258840355962345e-06 
6.16763317973161273e-05 0.00000000000000000e+00 2.28326732577645453e-06 
6.16756555299634632e-05 0.00000000000000000e+00 2.28437381536335689e-06 
6.10068103654744768e-05 0.00000000000000000e+00 -3.58117417515419317e-07 
6.09984897469551359e-05 0.00000000000000000e+00 -3.72719455361315668e-07 
6.36761086349193025e-05 0.00000000000000000e+00 -1.82770664701845003e-06 
6.36748087022889731e-05 0.00000000000000000e+00 -1.82902546254940337e-06 

