# vtk DataFile Version 2.0

ASCII

DATASET UNSTRUCTURED_GRID

POINTS 44 double 

0.00000000000000000e+00  1.20000000000000002e-02  0.00000000000000000e+00
0.00000000000000000e+00  1.20000000000000002e-02  8.00000000000000017e-03
0.00000000000000000e+00  0.00000000000000000e+00  8.00000000000000017e-03
0.00000000000000000e+00  0.00000000000000000e+00  0.00000000000000000e+00
0.00000000000000000e+00  1.20000000000000002e-02  1.60000000000000003e-02
0.00000000000000000e+00  0.00000000000000000e+00  1.60000000000000003e-02
0.00000000000000000e+00  1.20000000000000002e-02  2.40000000000000005e-02
0.00000000000000000e+00  0.00000000000000000e+00  2.40000000000000005e-02
0.00000000000000000e+00  1.20000000000000002e-02  3.20000000000000007e-02
0.00000000000000000e+00  0.00000000000000000e+00  3.20000000000000007e-02
0.00000000000000000e+00  1.20000000000000002e-02  4.00000000000000008e-02
0.00000000000000000e+00  0.00000000000000000e+00  4.00000000000000008e-02
0.00000000000000000e+00  1.20000000000000002e-02  4.80000000000000010e-02
0.00000000000000000e+00  0.00000000000000000e+00  4.80000000000000010e-02
0.00000000000000000e+00  1.20000000000000002e-02  5.60000000000000012e-02
0.00000000000000000e+00  0.00000000000000000e+00  5.60000000000000012e-02
0.00000000000000000e+00  1.20000000000000002e-02  6.40000000000000013e-02
0.00000000000000000e+00  0.00000000000000000e+00  6.40000000000000013e-02
0.00000000000000000e+00  1.20000000000000002e-02  7.19999999999999946e-02
0.00000000000000000e+00  0.00000000000000000e+00  7.19999999999999946e-02
0.00000000000000000e+00  1.20000000000000002e-02  8.00000000000000017e-02
0.00000000000000000e+00  0.00000000000000000e+00  8.00000000000000017e-02
1.20000000000000002e-02  1.20000000000000002e-02  8.00000000000000017e-02
1.20000000000000002e-02  0.00000000000000000e+00  8.00000000000000017e-02
1.20000000000000002e-02  1.20000000000000002e-02  0.00000000000000000e+00
1.20000000000000002e-02  0.00000000000000000e+00  0.00000000000000000e+00
1.20000000000000002e-02  0.00000000000000000e+00  8.00000000000000017e-03
1.20000000000000002e-02  1.20000000000000002e-02  8.00000000000000017e-03
1.20000000000000002e-02  0.00000000000000000e+00  1.60000000000000003e-02
1.20000000000000002e-02  1.20000000000000002e-02  1.60000000000000003e-02
1.20000000000000002e-02  0.00000000000000000e+00  2.40000000000000005e-02
1.20000000000000002e-02  1.20000000000000002e-02  2.40000000000000005e-02
1.20000000000000002e-02  0.00000000000000000e+00  3.20000000000000007e-02
1.20000000000000002e-02  1.20000000000000002e-02  3.20000000000000007e-02
1.20000000000000002e-02  0.00000000000000000e+00  4.00000000000000008e-02
1.20000000000000002e-02  1.20000000000000002e-02  4.00000000000000008e-02
1.20000000000000002e-02  0.00000000000000000e+00  4.80000000000000010e-02
1.20000000000000002e-02  1.20000000000000002e-02  4.80000000000000010e-02
1.20000000000000002e-02  0.00000000000000000e+00  5.60000000000000012e-02
1.20000000000000002e-02  1.20000000000000002e-02  5.60000000000000012e-02
1.20000000000000002e-02  0.00000000000000000e+00  6.40000000000000013e-02
1.20000000000000002e-02  1.20000000000000002e-02  6.40000000000000013e-02
1.20000000000000002e-02  0.00000000000000000e+00  7.19999999999999946e-02
1.20000000000000002e-02  1.20000000000000002e-02  7.19999999999999946e-02

CELLS 0 0


CELL_TYPES 0


POINT_DATA 44

SCALARS Rank unsigned_int
LOOKUP_TABLE default
0 0 0 0 0 0 0 0 0 0 0 0 0 0 0 0 0 0 0 0 0 0 0 0 0 0 0 0 0 0 0 0 0 0 0 0 0 0 0 0 0 0 0 0 

VECTORS Displacements0 double
-4.51178217894714471e-06 0.00000000000000000e+00 5.83868573316193186e-06 
1.18807702901877008e-03 0.00000000000000000e+00 1.06584954073952911e-03 
1.18803400785653761e-03 0.00000000000000000e+00 1.06604088204695249e-03 
-4.77742320391730257e-06 0.00000000000000000e+00 6.20913066009479847e-06 
3.98879398185052365e-03 0.00000000000000000e+00 1.53881340718598067e-03 
3.98841770313366518e-03 0.00000000000000000e+00 1.53917381885080315e-03 
7.95407158488536589e-03 0.00000000000000000e+00 1.32218595808026359e-03 
7.95420497348883759e-03 0.00000000000000000e+00 1.32264902791066029e-03 
1.26829268628030466e-02 0.00000000000000000e+00 4.57785213541511346e-04 
1.26845580043960619e-02 0.00000000000000000e+00 4.58070565154391693e-04 
1.79013635860790395e-02 0.00000000000000000e+00 -9.43568803995856534e-04 
1.79011632358987635e-02 0.00000000000000000e+00 -9.43849777876070925e-04 
2.34118898506956025e-02 0.00000000000000000e+00 -2.75623264242519546e-03 
2.34116466189065002e-02 0.00000000000000000e+00 -2.75669331194424490e-03 
2.90750949174817461e-02 0.00000000000000000e+00 -4.85418875046607703e-03 
2.90746773619726985e-02 0.00000000000000000e+00 -4.85432028229163155e-03 
3.48022186099399208e-02 0.00000000000000000e+00 -7.13148667969709226e-03 
3.48023384617046072e-02 0.00000000000000000e+00 -7.13130592475458812e-03 
4.05408362794460256e-02 0.00000000000000000e+00 -9.50009904517393200e-03 
4.05407712904321052e-02 0.00000000000000000e+00 -9.49991817481599284e-03 
4.62699302232288598e-02 0.00000000000000000e+00 -1.18979394219038397e-02 
4.62705175904731605e-02 0.00000000000000000e+00 -1.18981705161344542e-02 
4.26565814037845256e-02 0.00000000000000000e+00 -2.04529975688351878e-02 
4.26566597250185378e-02 0.00000000000000000e+00 -2.04531365091524253e-02 
-7.94569147660661789e-06 0.00000000000000000e+00 -8.48575980898226475e-07 
-8.36708796316844305e-06 0.00000000000000000e+00 -8.90481410817378638e-07 
8.10950030197842876e-04 0.00000000000000000e+00 -1.52008640323397196e-03 
8.11084766564018969e-04 0.00000000000000000e+00 -1.51999668749275437e-03 
3.02383153376679058e-03 0.00000000000000000e+00 -3.01200037117767836e-03 
3.02367221485340485e-03 0.00000000000000000e+00 -3.01280674243214162e-03 
6.30598595662902085e-03 0.00000000000000000e+00 -4.66107461004262869e-03 
6.30652177150199840e-03 0.00000000000000000e+00 -4.66094422268927867e-03 
1.04040429593779335e-02 0.00000000000000000e+00 -6.52884297519101212e-03 
1.04040812161843021e-02 0.00000000000000000e+00 -6.52881682130490668e-03 
1.51066349821953709e-02 0.00000000000000000e+00 -8.61027897893750470e-03 
1.51066183128279186e-02 0.00000000000000000e+00 -8.61034287203270125e-03 
2.02377264897051906e-02 0.00000000000000000e+00 -1.08620448499272548e-02 
2.02373962544172038e-02 0.00000000000000000e+00 -1.08623491811098254e-02 
2.56561755206324432e-02 0.00000000000000000e+00 -1.32235899978611626e-02 
2.56561475009107233e-02 0.00000000000000000e+00 -1.32238990834082550e-02 
3.12539799531861007e-02 0.00000000000000000e+00 -1.56370343167911222e-02 
3.12533994978499707e-02 0.00000000000000000e+00 -1.56375118440039915e-02 
3.69434869283529477e-02 0.00000000000000000e+00 -1.80584359135964809e-02 
3.69434369398163667e-02 0.00000000000000000e+00 -1.80583885795268760e-02 

