# vtk DataFile Version 2.0

ASCII

DATASET UNSTRUCTURED_GRID

POINTS 21 double 

0.00000000000000000e+00  6.00000000000000099e-03  4.00000000000000008e-03
0.00000000000000000e+00  6.00000000000000099e-03  1.20000000000000020e-02
0.00000000000000000e+00  6.00000000000000099e-03  2.00000000000000004e-02
0.00000000000000000e+00  5.99999999999999926e-03  2.80000000000000041e-02
0.00000000000000000e+00  6.00000000000000099e-03  3.60000000000000042e-02
0.00000000000000000e+00  6.00000000000000099e-03  4.39999999999999974e-02
0.00000000000000000e+00  6.00000000000000099e-03  5.19999999999999976e-02
0.00000000000000000e+00  5.99999999999999926e-03  5.99999999999999908e-02
0.00000000000000000e+00  5.99999999999999926e-03  6.79999999999999910e-02
0.00000000000000000e+00  6.00000000000000012e-03  7.59999999999999981e-02
6.00000000000000099e-03  6.00000000000000099e-03  8.00000000000000017e-02
1.20000000000000020e-02  6.00000000000000099e-03  4.00000000000000008e-03
1.20000000000000020e-02  6.00000000000000099e-03  1.19999999999999985e-02
1.20000000000000020e-02  6.00000000000000099e-03  2.00000000000000004e-02
1.20000000000000020e-02  6.00000000000000099e-03  2.80000000000000041e-02
1.20000000000000020e-02  6.00000000000000099e-03  3.59999999999999973e-02
1.20000000000000020e-02  6.00000000000000099e-03  4.40000000000000044e-02
1.20000000000000020e-02  6.00000000000000099e-03  5.19999999999999976e-02
1.20000000000000020e-02  6.00000000000000099e-03  5.99999999999999978e-02
1.20000000000000002e-02  5.99999999999999926e-03  6.79999999999999910e-02
1.20000000000000002e-02  6.00000000000000012e-03  7.59999999999999981e-02

CELLS 0 0


CELL_TYPES 0


POINT_DATA 21

SCALARS Rank unsigned_int
LOOKUP_TABLE default
0 0 0 0 0 0 0 0 0 0 0 0 0 0 0 0 0 0 0 0 0 

VECTORS Forces0 double
2.24519493771332818e-01 -2.24827331826950168e-20 -3.39013464894252492e-02 
2.17334667345643273e-01 1.82166408866601088e-18 -8.07202168407439580e-02 
1.92072369158001105e-01 2.87146892710747585e-23 -1.08310437043554753e-01 
1.56898175103581589e-01 -2.00321692854376516e-20 -1.13167607278248553e-01 
1.21572309076313362e-01 -4.82392743308132424e-23 -1.02729045440827185e-01 
8.99732204273098884e-02 3.66467562460443931e-20 -8.39563478397243740e-02 
7.52206528132244728e-02 1.83442725215265834e-18 -7.41333759921102564e-02 
6.93814956210499767e-02 1.56103714135340218e-20 -7.01458587141188805e-02 
6.15858401722392812e-02 5.25486924121806402e-46 -6.27807476559437416e-02 
5.26301259471943228e-02 2.34444776915043964e-20 -5.36833951564885184e-02 
-1.73847782135724306e-03 6.38531638218982998e-20 -1.68201784123908822e-03 
-1.24322217009116684e-04 1.49881017379120451e-26 1.81799670949018816e-05 
-1.20202274836181264e-04 9.25267567944994210e-23 4.62869593432978189e-05 
-1.05037033077558492e-04 1.30217397846626415e-21 6.02689548585519272e-05 
-8.53532221168655709e-05 1.18543715257018158e-22 6.21617935047964331e-05 
-6.77399497964044996e-05 -1.31732703719804952e-22 5.75662443846601567e-05 
-5.27542353718909941e-05 1.45202626163368491e-22 4.93644867481107271e-05 
-3.46121900290120708e-05 -3.95386654893256095e-22 3.41835448429230986e-05 
-1.53989155453509690e-05 3.55409301844790534e-22 1.56014565830716355e-05 
1.70970243126414314e-06 1.69569780347347400e-22 -1.88271299864173728e-06 
1.11309103048671522e-05 -3.23206316605595835e-22 -1.17670336721109007e-05 

