# vtk DataFile Version 2.0

ASCII

DATASET UNSTRUCTURED_GRID

POINTS 21 double 

0.00000000000000000e+00  6.00000000000000099e-03  4.00000000000000008e-03
0.00000000000000000e+00  6.00000000000000099e-03  1.20000000000000020e-02
0.00000000000000000e+00  6.00000000000000099e-03  2.00000000000000004e-02
0.00000000000000000e+00  5.99999999999999926e-03  2.80000000000000041e-02
0.00000000000000000e+00  6.00000000000000099e-03  3.60000000000000042e-02
0.00000000000000000e+00  6.00000000000000099e-03  4.39999999999999974e-02
0.00000000000000000e+00  6.00000000000000099e-03  5.19999999999999976e-02
0.00000000000000000e+00  5.99999999999999926e-03  5.99999999999999908e-02
0.00000000000000000e+00  5.99999999999999926e-03  6.79999999999999910e-02
0.00000000000000000e+00  6.00000000000000012e-03  7.59999999999999981e-02
6.00000000000000099e-03  6.00000000000000099e-03  8.00000000000000017e-02
1.20000000000000020e-02  6.00000000000000099e-03  4.00000000000000008e-03
1.20000000000000020e-02  6.00000000000000099e-03  1.19999999999999985e-02
1.20000000000000020e-02  6.00000000000000099e-03  2.00000000000000004e-02
1.20000000000000020e-02  6.00000000000000099e-03  2.80000000000000041e-02
1.20000000000000020e-02  6.00000000000000099e-03  3.59999999999999973e-02
1.20000000000000020e-02  6.00000000000000099e-03  4.40000000000000044e-02
1.20000000000000020e-02  6.00000000000000099e-03  5.19999999999999976e-02
1.20000000000000020e-02  6.00000000000000099e-03  5.99999999999999978e-02
1.20000000000000002e-02  5.99999999999999926e-03  6.79999999999999910e-02
1.20000000000000002e-02  6.00000000000000012e-03  7.59999999999999981e-02

CELLS 0 0


CELL_TYPES 0


POINT_DATA 21

SCALARS Rank unsigned_int
LOOKUP_TABLE default
0 0 0 0 0 0 0 0 0 0 0 0 0 0 0 0 0 0 0 0 0 

VECTORS Forces0 double
1.15028287153190803e-04 -1.68399617720862875e-22 -7.42613573505393661e-09 
1.06254233968038644e-04 1.68848813130129516e-22 -5.70328003088381199e-09 
9.61914100994686538e-05 3.36765907344797323e-22 -2.10461703458598147e-09 
8.49783494904138618e-05 7.32110265201194053e-25 4.87331201694402745e-09 
7.26864866050608668e-05 1.67744062264620298e-22 1.42574039677850073e-08 
5.93518548000407766e-05 -1.68366022030445898e-22 2.52490359862861378e-08 
4.49586342272582145e-05 3.36724823216723745e-22 3.73837850783189560e-08 
2.94102382653843220e-05 -3.05252660415960489e-30 5.09047087075807758e-08 
1.22032861957167276e-05 1.68244763693147325e-22 6.67235367452288184e-08 
-7.10145884661824311e-06 1.68333637909545457e-22 7.89415686492341718e-08 
1.08797940595320656e-07 3.78546411625025869e-29 8.45630157746831107e-05 
-1.38763525399337663e-05 -1.68327324568494473e-22 8.57043748059846452e-10 
-6.29922776311877243e-06 1.68335701488245117e-22 -7.59338264044364867e-10 
1.18015412268627198e-06 1.68343884256268354e-22 -3.35133555483559359e-09 
8.56026634847353919e-06 1.68277225679130720e-22 -6.80116769004180058e-09 
1.58302257844924607e-05 1.63132611699963113e-55 -1.07182556061584151e-08 
2.29826814384822252e-05 1.68360752189562346e-22 -1.49297195924846459e-08 
3.00399318843269998e-05 -1.68364342622257378e-22 -1.97064016137591604e-08 
3.69288884825040432e-05 3.18159288247483476e-25 -2.46388478982619340e-08 
4.34912451474759961e-05 1.68376914776576953e-22 -2.52619227247854331e-08 
5.28356394010969882e-05 -3.37241257588761924e-22 -3.19640637232152835e-08 

