# vtk DataFile Version 2.0

ASCII

DATASET UNSTRUCTURED_GRID

POINTS 21 double 

0.00000000000000000e+00  6.00000000000000099e-03  4.00000000000000008e-03
0.00000000000000000e+00  6.00000000000000099e-03  1.20000000000000020e-02
0.00000000000000000e+00  6.00000000000000099e-03  2.00000000000000004e-02
0.00000000000000000e+00  5.99999999999999926e-03  2.80000000000000041e-02
0.00000000000000000e+00  6.00000000000000099e-03  3.60000000000000042e-02
0.00000000000000000e+00  6.00000000000000099e-03  4.39999999999999974e-02
0.00000000000000000e+00  6.00000000000000099e-03  5.19999999999999976e-02
0.00000000000000000e+00  5.99999999999999926e-03  5.99999999999999908e-02
0.00000000000000000e+00  5.99999999999999926e-03  6.79999999999999910e-02
0.00000000000000000e+00  6.00000000000000012e-03  7.59999999999999981e-02
6.00000000000000099e-03  6.00000000000000099e-03  8.00000000000000017e-02
1.20000000000000020e-02  6.00000000000000099e-03  4.00000000000000008e-03
1.20000000000000020e-02  6.00000000000000099e-03  1.19999999999999985e-02
1.20000000000000020e-02  6.00000000000000099e-03  2.00000000000000004e-02
1.20000000000000020e-02  6.00000000000000099e-03  2.80000000000000041e-02
1.20000000000000020e-02  6.00000000000000099e-03  3.59999999999999973e-02
1.20000000000000020e-02  6.00000000000000099e-03  4.40000000000000044e-02
1.20000000000000020e-02  6.00000000000000099e-03  5.19999999999999976e-02
1.20000000000000020e-02  6.00000000000000099e-03  5.99999999999999978e-02
1.20000000000000002e-02  5.99999999999999926e-03  6.79999999999999910e-02
1.20000000000000002e-02  6.00000000000000012e-03  7.59999999999999981e-02

CELLS 0 0


CELL_TYPES 0


POINT_DATA 21

SCALARS Rank unsigned_int
LOOKUP_TABLE default
0 0 0 0 0 0 0 0 0 0 0 0 0 0 0 0 0 0 0 0 0 

VECTORS Forces0 double
2.72593186539109744e-01 -2.11051260442497942e-18 -3.56213221174026470e-02 
2.52154498954928363e-01 2.15063231625977122e-18 -7.84417163050290522e-02 
2.15626891330382625e-01 1.96155800098682466e-18 -9.91614189270973168e-02 
1.63813021318878482e-01 -7.00649232162408535e-46 -9.43394521208068410e-02 
1.13101920642893941e-01 1.89733856960594156e-20 -7.53648468780458991e-02 
7.70108328463274122e-02 -1.62179070907072827e-18 -5.65026840147100431e-02 
5.42049562712722463e-02 -1.69189588146454775e-20 -4.21982975296071386e-02 
3.72230495104482334e-02 1.56816679657286799e-20 -2.99466954700259649e-02 
2.93699674925796787e-02 2.83291779710745759e-20 -2.39540268197461076e-02 
3.10007709367837413e-02 -1.22982903301458804e-20 -2.53232572986776261e-02 
-1.46946209571288612e-03 7.51815241709222625e-20 -1.76572035194967874e-03 
-1.42673531810796336e-04 9.64772275440433205e-23 1.82303054436647592e-05 
-1.39879166488202572e-04 2.17379787051426065e-22 4.48591553184966965e-05 
-1.28121404749602244e-04 7.68104743626362971e-26 5.97157501772862506e-05 
-1.15263339475036309e-04 1.31416860525936341e-22 6.68868341398705211e-05 
-1.05905068290497738e-04 -1.17499204790194596e-21 7.09124087375286608e-05 
-9.93237471007965762e-05 -1.12001941163832732e-21 7.30802231645615627e-05 
-9.47578832951022636e-05 -3.28429327576129001e-47 7.39350738733339258e-05 
-9.53517637566383801e-05 3.47701278268708003e-22 7.68934362509290416e-05 
-9.96656309615223982e-05 -2.02276387218784316e-22 8.14564667926343184e-05 
-9.92295736932320206e-05 -8.48988256191587180e-25 8.10855201774080247e-05 

