# vtk DataFile Version 2.0

ASCII

DATASET UNSTRUCTURED_GRID

POINTS 44 double 

0.00000000000000000e+00  1.20000000000000002e-02  0.00000000000000000e+00
0.00000000000000000e+00  1.20000000000000002e-02  8.00000000000000017e-03
0.00000000000000000e+00  0.00000000000000000e+00  8.00000000000000017e-03
0.00000000000000000e+00  0.00000000000000000e+00  0.00000000000000000e+00
0.00000000000000000e+00  1.20000000000000002e-02  1.60000000000000003e-02
0.00000000000000000e+00  0.00000000000000000e+00  1.60000000000000003e-02
0.00000000000000000e+00  1.20000000000000002e-02  2.40000000000000005e-02
0.00000000000000000e+00  0.00000000000000000e+00  2.40000000000000005e-02
0.00000000000000000e+00  1.20000000000000002e-02  3.20000000000000007e-02
0.00000000000000000e+00  0.00000000000000000e+00  3.20000000000000007e-02
0.00000000000000000e+00  1.20000000000000002e-02  4.00000000000000008e-02
0.00000000000000000e+00  0.00000000000000000e+00  4.00000000000000008e-02
0.00000000000000000e+00  1.20000000000000002e-02  4.80000000000000010e-02
0.00000000000000000e+00  0.00000000000000000e+00  4.80000000000000010e-02
0.00000000000000000e+00  1.20000000000000002e-02  5.60000000000000012e-02
0.00000000000000000e+00  0.00000000000000000e+00  5.60000000000000012e-02
0.00000000000000000e+00  1.20000000000000002e-02  6.40000000000000013e-02
0.00000000000000000e+00  0.00000000000000000e+00  6.40000000000000013e-02
0.00000000000000000e+00  1.20000000000000002e-02  7.19999999999999946e-02
0.00000000000000000e+00  0.00000000000000000e+00  7.19999999999999946e-02
0.00000000000000000e+00  1.20000000000000002e-02  8.00000000000000017e-02
0.00000000000000000e+00  0.00000000000000000e+00  8.00000000000000017e-02
1.20000000000000002e-02  1.20000000000000002e-02  8.00000000000000017e-02
1.20000000000000002e-02  0.00000000000000000e+00  8.00000000000000017e-02
1.20000000000000002e-02  1.20000000000000002e-02  0.00000000000000000e+00
1.20000000000000002e-02  0.00000000000000000e+00  0.00000000000000000e+00
1.20000000000000002e-02  0.00000000000000000e+00  8.00000000000000017e-03
1.20000000000000002e-02  1.20000000000000002e-02  8.00000000000000017e-03
1.20000000000000002e-02  0.00000000000000000e+00  1.60000000000000003e-02
1.20000000000000002e-02  1.20000000000000002e-02  1.60000000000000003e-02
1.20000000000000002e-02  0.00000000000000000e+00  2.40000000000000005e-02
1.20000000000000002e-02  1.20000000000000002e-02  2.40000000000000005e-02
1.20000000000000002e-02  0.00000000000000000e+00  3.20000000000000007e-02
1.20000000000000002e-02  1.20000000000000002e-02  3.20000000000000007e-02
1.20000000000000002e-02  0.00000000000000000e+00  4.00000000000000008e-02
1.20000000000000002e-02  1.20000000000000002e-02  4.00000000000000008e-02
1.20000000000000002e-02  0.00000000000000000e+00  4.80000000000000010e-02
1.20000000000000002e-02  1.20000000000000002e-02  4.80000000000000010e-02
1.20000000000000002e-02  0.00000000000000000e+00  5.60000000000000012e-02
1.20000000000000002e-02  1.20000000000000002e-02  5.60000000000000012e-02
1.20000000000000002e-02  0.00000000000000000e+00  6.40000000000000013e-02
1.20000000000000002e-02  1.20000000000000002e-02  6.40000000000000013e-02
1.20000000000000002e-02  0.00000000000000000e+00  7.19999999999999946e-02
1.20000000000000002e-02  1.20000000000000002e-02  7.19999999999999946e-02

CELLS 0 0


CELL_TYPES 0


POINT_DATA 44

SCALARS Rank unsigned_int
LOOKUP_TABLE default
0 0 0 0 0 0 0 0 0 0 0 0 0 0 0 0 0 0 0 0 0 0 0 0 0 0 0 0 0 0 0 0 0 0 0 0 0 0 0 0 0 0 0 0 

VECTORS Displacements0 double
-1.94115081986383366e-09 0.00000000000000000e+00 1.05394888394490296e-09 
3.13054934414104050e-07 0.00000000000000000e+00 3.75605478770179869e-07 
3.13012336725374107e-07 0.00000000000000000e+00 3.75668985478410613e-07 
-2.05628425428561693e-09 0.00000000000000000e+00 1.13704691810536457e-09 
1.05095358319847215e-06 0.00000000000000000e+00 6.61370639251194226e-07 
1.05085343085668512e-06 0.00000000000000000e+00 6.61490687417499185e-07 
2.11988919350345595e-06 0.00000000000000000e+00 8.84218218267898899e-07 
2.11975006657406593e-06 0.00000000000000000e+00 8.84317662430669200e-07 
3.44400586931703933e-06 0.00000000000000000e+00 1.06087772017321585e-06 
3.44434523343640945e-06 0.00000000000000000e+00 1.06126390134885193e-06 
4.97508245161729982e-06 0.00000000000000000e+00 1.19852286285740293e-06 
4.97512933197725220e-06 0.00000000000000000e+00 1.19850703803497754e-06 
6.65930676123563884e-06 0.00000000000000000e+00 1.29547866900887494e-06 
6.65936108838540382e-06 0.00000000000000000e+00 1.29530639000554510e-06 
8.44030501110256380e-06 0.00000000000000000e+00 1.35754453321569440e-06 
8.44021156422266221e-06 0.00000000000000000e+00 1.35742296128804529e-06 
1.02769010154339322e-05 0.00000000000000000e+00 1.39238954181810219e-06 
1.02768766480080204e-05 0.00000000000000000e+00 1.39244377419642374e-06 
1.21372507210063368e-05 0.00000000000000000e+00 1.40774095304763406e-06 
1.21373118914708299e-05 0.00000000000000000e+00 1.40771097392190132e-06 
1.39973038623771953e-05 0.00000000000000000e+00 1.41202341312617859e-06 
1.39972312750403768e-05 0.00000000000000000e+00 1.41197525769224818e-06 
1.40088368107706746e-05 0.00000000000000000e+00 -1.38295346638610992e-06 
1.40088945128868531e-05 0.00000000000000000e+00 -1.38295215353082147e-06 
-2.49011069690092401e-09 0.00000000000000000e+00 -1.38966257963017774e-09 
-2.60968948550543547e-09 0.00000000000000000e+00 -1.46788776905423124e-09 
3.05397254388060588e-07 0.00000000000000000e+00 -3.77981295715028884e-07 
3.05429473371588851e-07 0.00000000000000000e+00 -3.77914908150683446e-07 
1.04404209870636461e-06 0.00000000000000000e+00 -6.66295810574188202e-07 
1.04400824217193892e-06 0.00000000000000000e+00 -6.66495040774599454e-07 
2.11247012638279107e-06 0.00000000000000000e+00 -8.89866229167346439e-07 
2.11256224931499087e-06 0.00000000000000000e+00 -8.89722619850386059e-07 
3.43917436692832314e-06 0.00000000000000000e+00 -1.06509399745545270e-06 
3.43912757577488607e-06 0.00000000000000000e+00 -1.06498856578483393e-06 
4.97223837680630241e-06 0.00000000000000000e+00 -1.19839256676505452e-06 
4.97222506943855110e-06 0.00000000000000000e+00 -1.19839262169401693e-06 
6.65789659065645556e-06 0.00000000000000000e+00 -1.29097253761723102e-06 
6.65790258047885299e-06 0.00000000000000000e+00 -1.29111664162617983e-06 
8.44098538845219626e-06 0.00000000000000000e+00 -1.34693883637324870e-06 
8.44104841041456186e-06 0.00000000000000000e+00 -1.34704381464388638e-06 
1.02785512881243669e-05 0.00000000000000000e+00 -1.37389358749422723e-06 
1.02785573866371733e-05 0.00000000000000000e+00 -1.37413974430418104e-06 
1.21396597597322374e-05 0.00000000000000000e+00 -1.38259407424457293e-06 
1.21396181660437474e-05 0.00000000000000000e+00 -1.38262578634649794e-06 

