# vtk DataFile Version 2.0

ASCII

DATASET UNSTRUCTURED_GRID

POINTS 21 double 

0.00000000000000000e+00  6.00000000000000099e-03  4.00000000000000008e-03
0.00000000000000000e+00  6.00000000000000099e-03  1.20000000000000020e-02
0.00000000000000000e+00  6.00000000000000099e-03  2.00000000000000004e-02
0.00000000000000000e+00  5.99999999999999926e-03  2.80000000000000041e-02
0.00000000000000000e+00  6.00000000000000099e-03  3.60000000000000042e-02
0.00000000000000000e+00  6.00000000000000099e-03  4.39999999999999974e-02
0.00000000000000000e+00  6.00000000000000099e-03  5.19999999999999976e-02
0.00000000000000000e+00  5.99999999999999926e-03  5.99999999999999908e-02
0.00000000000000000e+00  5.99999999999999926e-03  6.79999999999999910e-02
0.00000000000000000e+00  6.00000000000000012e-03  7.59999999999999981e-02
6.00000000000000099e-03  6.00000000000000099e-03  8.00000000000000017e-02
1.20000000000000020e-02  6.00000000000000099e-03  4.00000000000000008e-03
1.20000000000000020e-02  6.00000000000000099e-03  1.19999999999999985e-02
1.20000000000000020e-02  6.00000000000000099e-03  2.00000000000000004e-02
1.20000000000000020e-02  6.00000000000000099e-03  2.80000000000000041e-02
1.20000000000000020e-02  6.00000000000000099e-03  3.59999999999999973e-02
1.20000000000000020e-02  6.00000000000000099e-03  4.40000000000000044e-02
1.20000000000000020e-02  6.00000000000000099e-03  5.19999999999999976e-02
1.20000000000000020e-02  6.00000000000000099e-03  5.99999999999999978e-02
1.20000000000000002e-02  5.99999999999999926e-03  6.79999999999999910e-02
1.20000000000000002e-02  6.00000000000000012e-03  7.59999999999999981e-02

CELLS 0 0


CELL_TYPES 0


POINT_DATA 21

SCALARS Rank unsigned_int
LOOKUP_TABLE default
0 0 0 0 0 0 0 0 0 0 0 0 0 0 0 0 0 0 0 0 0 

VECTORS Forces0 double
2.40466454262967588e-01 2.17988248019634468e-20 -3.26197219246413539e-02 
2.00249888371304474e-01 -3.36386684914075170e-18 -6.68940406174072105e-02 
1.58819864000994238e-01 -7.21093147942142069e-24 -8.07830139585328511e-02 
1.25163511308386349e-01 -2.43347620638567073e-18 -8.19779496455143586e-02 
9.98211363138827024e-02 3.32610711144224860e-24 -7.74317493697216086e-02 
7.94740871411669797e-02 -1.81582235125269990e-18 -6.90925414210821071e-02 
6.40492536641316390e-02 -1.73119220102230525e-20 -5.98194693228820684e-02 
5.62459804727615809e-02 1.59138804352413166e-20 -5.47148886542115492e-02 
5.16285714032307663e-02 1.40995205139835883e-20 -5.11114506421832884e-02 
4.19846591898010504e-02 1.19420356837993219e-20 -4.16707358436894104e-02 
-3.35397037939361804e-04 2.75345693672709078e-20 -3.11612728157472209e-04 
3.35489409666035916e-04 7.39621687534700789e-22 -4.38982571056487273e-05 
3.44038586353094837e-04 2.06287910884864183e-21 -1.18500247254807144e-04 
3.38205363326121906e-04 1.10423684822666448e-22 -1.74638813945762126e-04 
3.27051982419909607e-04 0.00000000000000000e+00 -2.16119370884401989e-04 
3.17200571077514825e-04 1.32471798357398213e-22 -2.47419611656178313e-04 
3.08176158606941828e-04 3.73993726080850177e-21 -2.68725788786475196e-04 
2.97345783437095491e-04 -1.56338542944133962e-22 -2.78365683725150534e-04 
2.85350288609512344e-04 -6.93477075856972028e-21 -2.78037996617587903e-04 
2.80118304693634896e-04 6.28167091199418486e-22 -2.77695511278882841e-04 
3.09797972663746965e-04 3.16310053401455759e-22 -3.07807810713677508e-04 

