# vtk DataFile Version 2.0

ASCII

DATASET UNSTRUCTURED_GRID

POINTS 44 double 

0.00000000000000000e+00  1.20000000000000002e-02  0.00000000000000000e+00
0.00000000000000000e+00  1.20000000000000002e-02  8.00000000000000017e-03
0.00000000000000000e+00  0.00000000000000000e+00  8.00000000000000017e-03
0.00000000000000000e+00  0.00000000000000000e+00  0.00000000000000000e+00
0.00000000000000000e+00  1.20000000000000002e-02  1.60000000000000003e-02
0.00000000000000000e+00  0.00000000000000000e+00  1.60000000000000003e-02
0.00000000000000000e+00  1.20000000000000002e-02  2.40000000000000005e-02
0.00000000000000000e+00  0.00000000000000000e+00  2.40000000000000005e-02
0.00000000000000000e+00  1.20000000000000002e-02  3.20000000000000007e-02
0.00000000000000000e+00  0.00000000000000000e+00  3.20000000000000007e-02
0.00000000000000000e+00  1.20000000000000002e-02  4.00000000000000008e-02
0.00000000000000000e+00  0.00000000000000000e+00  4.00000000000000008e-02
0.00000000000000000e+00  1.20000000000000002e-02  4.80000000000000010e-02
0.00000000000000000e+00  0.00000000000000000e+00  4.80000000000000010e-02
0.00000000000000000e+00  1.20000000000000002e-02  5.60000000000000012e-02
0.00000000000000000e+00  0.00000000000000000e+00  5.60000000000000012e-02
0.00000000000000000e+00  1.20000000000000002e-02  6.40000000000000013e-02
0.00000000000000000e+00  0.00000000000000000e+00  6.40000000000000013e-02
0.00000000000000000e+00  1.20000000000000002e-02  7.19999999999999946e-02
0.00000000000000000e+00  0.00000000000000000e+00  7.19999999999999946e-02
0.00000000000000000e+00  1.20000000000000002e-02  8.00000000000000017e-02
0.00000000000000000e+00  0.00000000000000000e+00  8.00000000000000017e-02
1.20000000000000002e-02  1.20000000000000002e-02  8.00000000000000017e-02
1.20000000000000002e-02  0.00000000000000000e+00  8.00000000000000017e-02
1.20000000000000002e-02  1.20000000000000002e-02  0.00000000000000000e+00
1.20000000000000002e-02  0.00000000000000000e+00  0.00000000000000000e+00
1.20000000000000002e-02  0.00000000000000000e+00  8.00000000000000017e-03
1.20000000000000002e-02  1.20000000000000002e-02  8.00000000000000017e-03
1.20000000000000002e-02  0.00000000000000000e+00  1.60000000000000003e-02
1.20000000000000002e-02  1.20000000000000002e-02  1.60000000000000003e-02
1.20000000000000002e-02  0.00000000000000000e+00  2.40000000000000005e-02
1.20000000000000002e-02  1.20000000000000002e-02  2.40000000000000005e-02
1.20000000000000002e-02  0.00000000000000000e+00  3.20000000000000007e-02
1.20000000000000002e-02  1.20000000000000002e-02  3.20000000000000007e-02
1.20000000000000002e-02  0.00000000000000000e+00  4.00000000000000008e-02
1.20000000000000002e-02  1.20000000000000002e-02  4.00000000000000008e-02
1.20000000000000002e-02  0.00000000000000000e+00  4.80000000000000010e-02
1.20000000000000002e-02  1.20000000000000002e-02  4.80000000000000010e-02
1.20000000000000002e-02  0.00000000000000000e+00  5.60000000000000012e-02
1.20000000000000002e-02  1.20000000000000002e-02  5.60000000000000012e-02
1.20000000000000002e-02  0.00000000000000000e+00  6.40000000000000013e-02
1.20000000000000002e-02  1.20000000000000002e-02  6.40000000000000013e-02
1.20000000000000002e-02  0.00000000000000000e+00  7.19999999999999946e-02
1.20000000000000002e-02  1.20000000000000002e-02  7.19999999999999946e-02

CELLS 0 0


CELL_TYPES 0


POINT_DATA 44

SCALARS Rank unsigned_int
LOOKUP_TABLE default
0 0 0 0 0 0 0 0 0 0 0 0 0 0 0 0 0 0 0 0 0 0 0 0 0 0 0 0 0 0 0 0 0 0 0 0 0 0 0 0 0 0 0 0 

VECTORS Displacements0 double
-5.30137112836536469e-09 0.00000000000000000e+00 3.09123283783068464e-09 
8.34504697272193409e-07 0.00000000000000000e+00 1.04239724715798206e-06 
8.34399141199596288e-07 0.00000000000000000e+00 1.04250452560934891e-06 
-5.61316164300154391e-09 0.00000000000000000e+00 3.24985753394303737e-09 
2.87695419000528696e-06 0.00000000000000000e+00 1.86323643467603355e-06 
2.87665693622743045e-06 0.00000000000000000e+00 1.86354374196344808e-06 
5.87485460786832359e-06 0.00000000000000000e+00 2.50218609540920798e-06 
5.87442962339480674e-06 0.00000000000000000e+00 2.50256948851323658e-06 
9.59045149148352730e-06 0.00000000000000000e+00 2.98471971126834726e-06 
9.59119820395220152e-06 0.00000000000000000e+00 2.98557025829572562e-06 
1.38441450204465401e-05 0.00000000000000000e+00 3.33960128091665880e-06 
1.38441680910341218e-05 0.00000000000000000e+00 3.33937520727204338e-06 
1.84804704455484866e-05 0.00000000000000000e+00 3.58608190939105963e-06 
1.84805769578009619e-05 0.00000000000000000e+00 3.58564152014721716e-06 
2.33653275467252342e-05 0.00000000000000000e+00 3.74347502707997089e-06 
2.33651365968121567e-05 0.00000000000000000e+00 3.74320537994752720e-06 
2.83938075763291472e-05 0.00000000000000000e+00 3.82905464902926968e-06 
2.83938078500347964e-05 0.00000000000000000e+00 3.82928655430987350e-06 
3.34849386078248586e-05 0.00000000000000000e+00 3.86359818154615225e-06 
3.34849931967171166e-05 0.00000000000000000e+00 3.86361387115049465e-06 
3.85791968717655103e-05 0.00000000000000000e+00 3.87059477356302559e-06 
3.85792637185605638e-05 0.00000000000000000e+00 3.87057343666673906e-06 
3.85859999213399664e-05 0.00000000000000000e+00 -3.77053188894202620e-06 
3.85861424230525245e-05 0.00000000000000000e+00 -3.77066541915434654e-06 
-6.98750906375125575e-09 0.00000000000000000e+00 -3.89627757644625268e-09 
-7.30954435899806668e-09 0.00000000000000000e+00 -4.08566258941080700e-09 
8.19925179402972476e-07 0.00000000000000000e+00 -1.03005890825589067e-06 
8.20013243601927507e-07 0.00000000000000000e+00 -1.02993201270699591e-06 
2.86225025305725388e-06 0.00000000000000000e+00 -1.84119336381809026e-06 
2.86209431570587820e-06 0.00000000000000000e+00 -1.84189094848343123e-06 
5.85911300421454042e-06 0.00000000000000000e+00 -2.46991906188512811e-06 
5.85939674470355341e-06 0.00000000000000000e+00 -2.46954726840364230e-06 
9.57827670893198786e-06 0.00000000000000000e+00 -2.94229795089714697e-06 
9.57808591773596267e-06 0.00000000000000000e+00 -2.94212849010080155e-06 
1.38342959400264485e-05 0.00000000000000000e+00 -3.28491167753516642e-06 
1.38343328025411965e-05 0.00000000000000000e+00 -3.28500443576694978e-06 
1.84722971041063744e-05 0.00000000000000000e+00 -3.52111683009667558e-06 
1.84723001304277012e-05 0.00000000000000000e+00 -3.52146322441518472e-06 
2.33603092944187882e-05 0.00000000000000000e+00 -3.66811903284552278e-06 
2.33604517926169083e-05 0.00000000000000000e+00 -3.66841419945324251e-06 
2.83911222270302240e-05 0.00000000000000000e+00 -3.74240047650464273e-06 
2.83911110438604096e-05 0.00000000000000000e+00 -3.74304312788537839e-06 
3.34835336169574357e-05 0.00000000000000000e+00 -3.76976031808832324e-06 
3.34834838993892182e-05 0.00000000000000000e+00 -3.76973514242733732e-06 

