# vtk DataFile Version 2.0

ASCII

DATASET UNSTRUCTURED_GRID

POINTS 21 double 

0.00000000000000000e+00  6.00000000000000099e-03  4.00000000000000008e-03
0.00000000000000000e+00  6.00000000000000099e-03  1.20000000000000020e-02
0.00000000000000000e+00  6.00000000000000099e-03  2.00000000000000004e-02
0.00000000000000000e+00  5.99999999999999926e-03  2.80000000000000041e-02
0.00000000000000000e+00  6.00000000000000099e-03  3.60000000000000042e-02
0.00000000000000000e+00  6.00000000000000099e-03  4.39999999999999974e-02
0.00000000000000000e+00  6.00000000000000099e-03  5.19999999999999976e-02
0.00000000000000000e+00  5.99999999999999926e-03  5.99999999999999908e-02
0.00000000000000000e+00  5.99999999999999926e-03  6.79999999999999910e-02
0.00000000000000000e+00  6.00000000000000012e-03  7.59999999999999981e-02
6.00000000000000099e-03  6.00000000000000099e-03  8.00000000000000017e-02
1.20000000000000020e-02  6.00000000000000099e-03  4.00000000000000008e-03
1.20000000000000020e-02  6.00000000000000099e-03  1.19999999999999985e-02
1.20000000000000020e-02  6.00000000000000099e-03  2.00000000000000004e-02
1.20000000000000020e-02  6.00000000000000099e-03  2.80000000000000041e-02
1.20000000000000020e-02  6.00000000000000099e-03  3.59999999999999973e-02
1.20000000000000020e-02  6.00000000000000099e-03  4.40000000000000044e-02
1.20000000000000020e-02  6.00000000000000099e-03  5.19999999999999976e-02
1.20000000000000020e-02  6.00000000000000099e-03  5.99999999999999978e-02
1.20000000000000002e-02  5.99999999999999926e-03  6.79999999999999910e-02
1.20000000000000002e-02  6.00000000000000012e-03  7.59999999999999981e-02

CELLS 0 0


CELL_TYPES 0


POINT_DATA 21

SCALARS Rank unsigned_int
LOOKUP_TABLE default
0 0 0 0 0 0 0 0 0 0 0 0 0 0 0 0 0 0 0 0 0 

VECTORS Forces0 double
2.28604590186178736e-01 2.22640823815214848e-20 -3.34507318959731820e-02 
2.23305223974169936e-01 3.78063951296908871e-18 -8.02462404371906274e-02 
1.94636331436138926e-01 -2.08224566692070876e-20 -1.06228510794769665e-01 
1.52945195071698931e-01 2.00295760904968721e-20 -1.07010755450102593e-01 
1.14397045056633354e-01 -5.13981566221915026e-23 -9.41496527216307000e-02 
8.56808231765532197e-02 -1.83982895721318979e-20 -7.83163754201917500e-02 
7.29972963260590163e-02 5.15760170954689331e-20 -7.09577600008930581e-02 
6.58852057043659151e-02 1.57297713487981787e-20 -6.61215541972387105e-02 
5.87384370708574285e-02 -1.47313044429458354e-18 -5.96991207023640780e-02 
5.32495762454252425e-02 1.18025124774479841e-20 -5.42152949716499591e-02 
-1.50110151220538717e-03 3.08377473595056645e-20 -1.45180710839286223e-03 
-1.06614020667765343e-04 0.00000000000000000e+00 1.50974821393082797e-05 
-1.03986042678419342e-04 9.47081770601632085e-23 3.86758353098421473e-05 
-9.23908234301365640e-05 -8.28822544655563513e-22 5.12684546311439608e-05 
-7.70477280859979685e-05 8.99463962290798885e-22 5.44170162803472122e-05 
-6.31040554186369215e-05 -1.31393446351277860e-22 5.22289672208107970e-05 
-5.00685471361840721e-05 2.88226113195491529e-22 4.58962985081710581e-05 
-3.25533968339249377e-05 2.24571099398493760e-25 3.17076687631532672e-05 
-1.37665744970738483e-05 0.00000000000000000e+00 1.38507382392466735e-05 
5.57893690421169651e-06 1.40298125579014611e-22 -5.77567694907108444e-06 
3.03362581590347469e-05 1.09061681930975754e-21 -3.13394496379295633e-05 

