# vtk DataFile Version 2.0

ASCII

DATASET UNSTRUCTURED_GRID

POINTS 21 double 

0.00000000000000000e+00  6.00000000000000099e-03  4.00000000000000008e-03
0.00000000000000000e+00  6.00000000000000099e-03  1.20000000000000020e-02
0.00000000000000000e+00  6.00000000000000099e-03  2.00000000000000004e-02
0.00000000000000000e+00  5.99999999999999926e-03  2.80000000000000041e-02
0.00000000000000000e+00  6.00000000000000099e-03  3.60000000000000042e-02
0.00000000000000000e+00  6.00000000000000099e-03  4.39999999999999974e-02
0.00000000000000000e+00  6.00000000000000099e-03  5.19999999999999976e-02
0.00000000000000000e+00  5.99999999999999926e-03  5.99999999999999908e-02
0.00000000000000000e+00  5.99999999999999926e-03  6.79999999999999910e-02
0.00000000000000000e+00  6.00000000000000012e-03  7.59999999999999981e-02
6.00000000000000099e-03  6.00000000000000099e-03  8.00000000000000017e-02
1.20000000000000020e-02  6.00000000000000099e-03  4.00000000000000008e-03
1.20000000000000020e-02  6.00000000000000099e-03  1.19999999999999985e-02
1.20000000000000020e-02  6.00000000000000099e-03  2.00000000000000004e-02
1.20000000000000020e-02  6.00000000000000099e-03  2.80000000000000041e-02
1.20000000000000020e-02  6.00000000000000099e-03  3.59999999999999973e-02
1.20000000000000020e-02  6.00000000000000099e-03  4.40000000000000044e-02
1.20000000000000020e-02  6.00000000000000099e-03  5.19999999999999976e-02
1.20000000000000020e-02  6.00000000000000099e-03  5.99999999999999978e-02
1.20000000000000002e-02  5.99999999999999926e-03  6.79999999999999910e-02
1.20000000000000002e-02  6.00000000000000012e-03  7.59999999999999981e-02

CELLS 0 0


CELL_TYPES 0


POINT_DATA 21

SCALARS Rank unsigned_int
LOOKUP_TABLE default
0 0 0 0 0 0 0 0 0 0 0 0 0 0 0 0 0 0 0 0 0 

VECTORS Forces0 double
3.76708384983702904e-01 8.14113823604937446e-19 -1.95755666930991223e-02 
3.70728892474019189e-01 -8.11800972483102084e-19 -2.99341629783524826e-02 
3.50942821355277490e-01 -7.51728741741384213e-19 -2.64233738857135823e-02 
3.18345111018917271e-01 -1.83039827656573548e-24 -1.45826598294275731e-02 
2.08907925211107209e-01 7.47804210654497722e-20 -1.72521612494003370e-03 
1.38490415181607929e-01 1.41128365934155265e-20 3.69793727340913007e-03 
5.05019121350696668e-02 -2.84357867723117129e-20 2.74811839906559429e-03 
7.46393438705172940e-03 3.13024479138325903e-24 5.85071021425741656e-04 
9.93239598278618198e-04 -2.17915430934901179e-21 1.16347402589208717e-04 
6.97416998851554140e-05 -1.44865141908995220e-25 6.79001744718592423e-06 
-4.52475575088151369e-05 -1.67491698027693930e-21 5.68126668523332031e-04 
5.90288976076582228e-05 -1.71056941445900521e-49 -2.93311855730610903e-06 
6.68423032362064302e-05 1.63780786694628278e-22 -5.42983805643216052e-06 
7.64451532446616341e-05 4.99210632354634937e-24 -5.70794214270946696e-06 
8.70646669671064138e-05 4.92901644093539290e-27 -4.03729604652511440e-06 
9.89141996139704762e-05 -1.78800077945804582e-22 -9.42665391610365926e-07 
1.02710145241327643e-04 1.77793748897640127e-22 2.65506513042903376e-06 
1.05038480927704500e-04 -2.36099203039049031e-22 5.58302373458548322e-06 
1.13739515042613908e-04 3.43190617707589114e-22 8.05144684085281838e-06 
1.33641210624466453e-04 2.14597525307483002e-26 1.06094400760875499e-05 
1.78126611009093522e-04 -3.94105247435412433e-22 1.43523879505500781e-05 

