# vtk DataFile Version 2.0

ASCII

DATASET UNSTRUCTURED_GRID

POINTS 21 double 

0.00000000000000000e+00  6.00000000000000099e-03  4.00000000000000008e-03
0.00000000000000000e+00  6.00000000000000099e-03  1.20000000000000020e-02
0.00000000000000000e+00  6.00000000000000099e-03  2.00000000000000004e-02
0.00000000000000000e+00  5.99999999999999926e-03  2.80000000000000041e-02
0.00000000000000000e+00  6.00000000000000099e-03  3.60000000000000042e-02
0.00000000000000000e+00  6.00000000000000099e-03  4.39999999999999974e-02
0.00000000000000000e+00  6.00000000000000099e-03  5.19999999999999976e-02
0.00000000000000000e+00  5.99999999999999926e-03  5.99999999999999908e-02
0.00000000000000000e+00  5.99999999999999926e-03  6.79999999999999910e-02
0.00000000000000000e+00  6.00000000000000012e-03  7.59999999999999981e-02
6.00000000000000099e-03  6.00000000000000099e-03  8.00000000000000017e-02
1.20000000000000020e-02  6.00000000000000099e-03  4.00000000000000008e-03
1.20000000000000020e-02  6.00000000000000099e-03  1.19999999999999985e-02
1.20000000000000020e-02  6.00000000000000099e-03  2.00000000000000004e-02
1.20000000000000020e-02  6.00000000000000099e-03  2.80000000000000041e-02
1.20000000000000020e-02  6.00000000000000099e-03  3.59999999999999973e-02
1.20000000000000020e-02  6.00000000000000099e-03  4.40000000000000044e-02
1.20000000000000020e-02  6.00000000000000099e-03  5.19999999999999976e-02
1.20000000000000020e-02  6.00000000000000099e-03  5.99999999999999978e-02
1.20000000000000002e-02  5.99999999999999926e-03  6.79999999999999910e-02
1.20000000000000002e-02  6.00000000000000012e-03  7.59999999999999981e-02

CELLS 0 0


CELL_TYPES 0


POINT_DATA 21

SCALARS Rank unsigned_int
LOOKUP_TABLE default
0 0 0 0 0 0 0 0 0 0 0 0 0 0 0 0 0 0 0 0 0 

VECTORS Forces0 double
9.90719438529716242e-05 1.68378571881023611e-22 -2.36818980822619560e-09 
9.06014429394829659e-05 -2.25592010404586490e-52 1.12519899110830379e-09 
8.12833204520930033e-05 6.89106101359574480e-30 4.22448032060776522e-09 
7.11701106898356454e-05 -8.20901903881265789e-31 8.39652279561394836e-09 
6.02770439566516653e-05 -1.68369200767596211e-22 1.34746407906199286e-08 
4.85917003822510589e-05 1.68158078880345828e-22 1.93830679756536169e-08 
3.60683336626707563e-05 -1.55359322707848487e-25 2.61574236101429713e-08 
2.26149275520359253e-05 3.36821904736265695e-22 3.40739374255501213e-08 
7.89285553969918592e-06 1.68356693382670924e-22 4.32974988170408147e-08 
-8.15646091918585085e-06 1.26651497830578299e-29 4.98107610654466046e-08 
7.37892266890146090e-08 4.47045474682377157e-30 6.63760432528932539e-05 
-1.45997228067427040e-05 3.36704213209094036e-22 3.27095094333958002e-10 
-7.04008255729952598e-06 -1.68335847697550014e-22 -7.78981979401958718e-10 
4.08816177571132803e-07 -3.36706144775942907e-22 -2.18994835573261534e-09 
7.74408119952509117e-06 1.03433939394069608e-31 -4.07835594629179431e-09 
1.49536361419074264e-05 -6.44176923990827475e-26 -6.36873169450404359e-09 
2.20173155239119900e-05 9.48479203600911781e-26 -9.03994230906911065e-09 
2.89199220226946699e-05 -1.99062569426879989e-52 -1.22003181222267555e-08 
3.55824693202025323e-05 1.68364499746607852e-22 -1.58456525949207572e-08 
4.19204614869351716e-05 -1.68369998987261843e-22 -1.78904609583974422e-08 
4.94805207918099936e-05 3.36973338230363109e-22 -2.16480095887671911e-08 

