# vtk DataFile Version 2.0

ASCII

DATASET UNSTRUCTURED_GRID

POINTS 44 double 

0.00000000000000000e+00  1.20000000000000002e-02  0.00000000000000000e+00
0.00000000000000000e+00  1.20000000000000002e-02  8.00000000000000017e-03
0.00000000000000000e+00  0.00000000000000000e+00  8.00000000000000017e-03
0.00000000000000000e+00  0.00000000000000000e+00  0.00000000000000000e+00
0.00000000000000000e+00  1.20000000000000002e-02  1.60000000000000003e-02
0.00000000000000000e+00  0.00000000000000000e+00  1.60000000000000003e-02
0.00000000000000000e+00  1.20000000000000002e-02  2.40000000000000005e-02
0.00000000000000000e+00  0.00000000000000000e+00  2.40000000000000005e-02
0.00000000000000000e+00  1.20000000000000002e-02  3.20000000000000007e-02
0.00000000000000000e+00  0.00000000000000000e+00  3.20000000000000007e-02
0.00000000000000000e+00  1.20000000000000002e-02  4.00000000000000008e-02
0.00000000000000000e+00  0.00000000000000000e+00  4.00000000000000008e-02
0.00000000000000000e+00  1.20000000000000002e-02  4.80000000000000010e-02
0.00000000000000000e+00  0.00000000000000000e+00  4.80000000000000010e-02
0.00000000000000000e+00  1.20000000000000002e-02  5.60000000000000012e-02
0.00000000000000000e+00  0.00000000000000000e+00  5.60000000000000012e-02
0.00000000000000000e+00  1.20000000000000002e-02  6.40000000000000013e-02
0.00000000000000000e+00  0.00000000000000000e+00  6.40000000000000013e-02
0.00000000000000000e+00  1.20000000000000002e-02  7.19999999999999946e-02
0.00000000000000000e+00  0.00000000000000000e+00  7.19999999999999946e-02
0.00000000000000000e+00  1.20000000000000002e-02  8.00000000000000017e-02
0.00000000000000000e+00  0.00000000000000000e+00  8.00000000000000017e-02
1.20000000000000002e-02  1.20000000000000002e-02  8.00000000000000017e-02
1.20000000000000002e-02  0.00000000000000000e+00  8.00000000000000017e-02
1.20000000000000002e-02  1.20000000000000002e-02  0.00000000000000000e+00
1.20000000000000002e-02  0.00000000000000000e+00  0.00000000000000000e+00
1.20000000000000002e-02  0.00000000000000000e+00  8.00000000000000017e-03
1.20000000000000002e-02  1.20000000000000002e-02  8.00000000000000017e-03
1.20000000000000002e-02  0.00000000000000000e+00  1.60000000000000003e-02
1.20000000000000002e-02  1.20000000000000002e-02  1.60000000000000003e-02
1.20000000000000002e-02  0.00000000000000000e+00  2.40000000000000005e-02
1.20000000000000002e-02  1.20000000000000002e-02  2.40000000000000005e-02
1.20000000000000002e-02  0.00000000000000000e+00  3.20000000000000007e-02
1.20000000000000002e-02  1.20000000000000002e-02  3.20000000000000007e-02
1.20000000000000002e-02  0.00000000000000000e+00  4.00000000000000008e-02
1.20000000000000002e-02  1.20000000000000002e-02  4.00000000000000008e-02
1.20000000000000002e-02  0.00000000000000000e+00  4.80000000000000010e-02
1.20000000000000002e-02  1.20000000000000002e-02  4.80000000000000010e-02
1.20000000000000002e-02  0.00000000000000000e+00  5.60000000000000012e-02
1.20000000000000002e-02  1.20000000000000002e-02  5.60000000000000012e-02
1.20000000000000002e-02  0.00000000000000000e+00  6.40000000000000013e-02
1.20000000000000002e-02  1.20000000000000002e-02  6.40000000000000013e-02
1.20000000000000002e-02  0.00000000000000000e+00  7.19999999999999946e-02
1.20000000000000002e-02  1.20000000000000002e-02  7.19999999999999946e-02

CELLS 0 0


CELL_TYPES 0


POINT_DATA 44

SCALARS Rank unsigned_int
LOOKUP_TABLE default
0 0 0 0 0 0 0 0 0 0 0 0 0 0 0 0 0 0 0 0 0 0 0 0 0 0 0 0 0 0 0 0 0 0 0 0 0 0 0 0 0 0 0 0 

VECTORS Displacements0 double
-8.11881236977904519e-09 0.00000000000000000e+00 4.57325426369537113e-09 
1.38441557386530545e-06 0.00000000000000000e+00 1.68598860714546552e-06 
1.38427661287331627e-06 0.00000000000000000e+00 1.68613616473858408e-06 
-8.54837014229806462e-09 0.00000000000000000e+00 4.83976060215716340e-09 
4.65718607691966513e-06 0.00000000000000000e+00 2.95359986371500932e-06 
4.65669982045491981e-06 0.00000000000000000e+00 2.95408676210804187e-06 
9.35147661441236977e-06 0.00000000000000000e+00 3.89739373630449510e-06 
9.35055199766462200e-06 0.00000000000000000e+00 3.89788160453255943e-06 
1.50646147401588562e-05 0.00000000000000000e+00 4.58254885231947662e-06 
1.50657308074502887e-05 0.00000000000000000e+00 4.58385401161051467e-06 
2.15128819293745176e-05 0.00000000000000000e+00 5.06761710687392920e-06 
2.15129259941057279e-05 0.00000000000000000e+00 5.06723599043937109e-06 
2.84658941920371938e-05 0.00000000000000000e+00 5.39519634144097530e-06 
2.84659920615464910e-05 0.00000000000000000e+00 5.39459265283303997e-06 
3.57395680585942816e-05 0.00000000000000000e+00 5.60496635409997132e-06 
3.57393628031363268e-05 0.00000000000000000e+00 5.60462225665440827e-06 
4.32073252371380516e-05 0.00000000000000000e+00 5.72780198101183974e-06 
4.32073037237429077e-05 0.00000000000000000e+00 5.72806030796611007e-06 
5.07719811668848122e-05 0.00000000000000000e+00 5.78327657776082640e-06 
5.07721172331053656e-05 0.00000000000000000e+00 5.78329555487705342e-06 
5.83487869771557083e-05 0.00000000000000000e+00 5.79719456073762161e-06 
5.83488124458063750e-05 0.00000000000000000e+00 5.79720760695430291e-06 
5.83553933943818483e-05 0.00000000000000000e+00 -5.56720011275439911e-06 
5.83555808928613322e-05 0.00000000000000000e+00 -5.56732638020551435e-06 
-1.01563915323944185e-08 0.00000000000000000e+00 -5.79892323343177486e-09 
-1.06146055433826232e-08 0.00000000000000000e+00 -6.05180916169163025e-09 
1.35713514093764524e-06 0.00000000000000000e+00 -1.64848903911230357e-06 
1.35722179191954771e-06 0.00000000000000000e+00 -1.64832543027644666e-06 
4.62914187937526720e-06 0.00000000000000000e+00 -2.88666579190652169e-06 
4.62896516129435687e-06 0.00000000000000000e+00 -2.88784164016035855e-06 
9.32056226631687533e-06 0.00000000000000000e+00 -3.80270525216027814e-06 
9.32102869513380813e-06 0.00000000000000000e+00 -3.80203811526562918e-06 
1.50408069875375916e-05 0.00000000000000000e+00 -4.46239753494506387e-06 
1.50404320706176095e-05 0.00000000000000000e+00 -4.46226005415450281e-06 
2.14941398952482189e-05 0.00000000000000000e+00 -4.92196511631095399e-06 
2.14942016586170151e-05 0.00000000000000000e+00 -4.92224049592621793e-06 
2.84497198833919602e-05 0.00000000000000000e+00 -5.22995437685614744e-06 
2.84497879192275281e-05 0.00000000000000000e+00 -5.23049539511819039e-06 
3.57280319263997978e-05 0.00000000000000000e+00 -5.42158576998483446e-06 
3.57282510222302991e-05 0.00000000000000000e+00 -5.42188402059477698e-06 
4.31995607314812169e-05 0.00000000000000000e+00 -5.52411212831940525e-06 
4.31996131575778026e-05 0.00000000000000000e+00 -5.52482547613792545e-06 
5.07668308517757476e-05 0.00000000000000000e+00 -5.56601336459632171e-06 
5.07667537089694852e-05 0.00000000000000000e+00 -5.56597544066448930e-06 

