# vtk DataFile Version 2.0

ASCII

DATASET UNSTRUCTURED_GRID

POINTS 21 double 

0.00000000000000000e+00  6.00000000000000099e-03  4.00000000000000008e-03
0.00000000000000000e+00  6.00000000000000099e-03  1.20000000000000020e-02
0.00000000000000000e+00  6.00000000000000099e-03  2.00000000000000004e-02
0.00000000000000000e+00  5.99999999999999926e-03  2.80000000000000041e-02
0.00000000000000000e+00  6.00000000000000099e-03  3.60000000000000042e-02
0.00000000000000000e+00  6.00000000000000099e-03  4.39999999999999974e-02
0.00000000000000000e+00  6.00000000000000099e-03  5.19999999999999976e-02
0.00000000000000000e+00  5.99999999999999926e-03  5.99999999999999908e-02
0.00000000000000000e+00  5.99999999999999926e-03  6.79999999999999910e-02
0.00000000000000000e+00  6.00000000000000012e-03  7.59999999999999981e-02
6.00000000000000099e-03  6.00000000000000099e-03  8.00000000000000017e-02
1.20000000000000020e-02  6.00000000000000099e-03  4.00000000000000008e-03
1.20000000000000020e-02  6.00000000000000099e-03  1.19999999999999985e-02
1.20000000000000020e-02  6.00000000000000099e-03  2.00000000000000004e-02
1.20000000000000020e-02  6.00000000000000099e-03  2.80000000000000041e-02
1.20000000000000020e-02  6.00000000000000099e-03  3.59999999999999973e-02
1.20000000000000020e-02  6.00000000000000099e-03  4.40000000000000044e-02
1.20000000000000020e-02  6.00000000000000099e-03  5.19999999999999976e-02
1.20000000000000020e-02  6.00000000000000099e-03  5.99999999999999978e-02
1.20000000000000002e-02  5.99999999999999926e-03  6.79999999999999910e-02
1.20000000000000002e-02  6.00000000000000012e-03  7.59999999999999981e-02

CELLS 0 0


CELL_TYPES 0


POINT_DATA 21

SCALARS Rank unsigned_int
LOOKUP_TABLE default
0 0 0 0 0 0 0 0 0 0 0 0 0 0 0 0 0 0 0 0 0 

VECTORS Forces0 double
1.77755532795193183e-01 -1.40404639294252678e-18 -2.35349388814157963e-02 
1.53840059364176746e-01 -1.25808089136446878e-18 -5.17440174300914657e-02 
1.30498320581576843e-01 -2.35062020373508532e-18 -6.84856602451484886e-02 
1.00234885247593983e-01 2.03262623697739394e-20 -6.93515465664440445e-02 
7.96871386238020979e-02 0.00000000000000000e+00 -6.67058162344466160e-02 
8.36643025007743762e-02 -1.68155815718978049e-44 -7.98411650721451427e-02 
9.04342842641969041e-02 -3.53896272621953353e-25 -9.37196588188630858e-02 
7.96997318808124189e-02 -1.59431719580439556e-20 -8.64540604257657830e-02 
6.25689691150464466e-02 1.38425132906509990e-20 -6.91583314124058351e-02 
4.80570459931341856e-02 -1.27658359893912788e-18 -5.32527224328633308e-02 
2.35747011493286701e-03 3.68885318344392332e-20 2.14306408451537481e-03 
-9.12870688870753673e-06 -1.67389066182367365e-22 1.14985841182768609e-06 
-2.21488973666420237e-06 -1.04312676574070476e-22 7.70049964979740900e-07 
3.29345588732587948e-06 6.47361209733892241e-23 -1.74706681906392789e-06 
8.77488463911579905e-06 1.41240013956978338e-26 -6.11689463456915326e-06 
1.99609066493545973e-05 2.48141154012332837e-22 -1.67954873170012977e-05 
3.45235464971357475e-05 5.77103330549646365e-22 -3.30317853823026457e-05 
4.78527432876428964e-05 8.75811540203010669e-47 -4.96964462430504595e-05 
5.78223318934808139e-05 -1.76013997434621539e-22 -6.28919758546903133e-05 
7.68830966742258101e-05 -2.03665982928216906e-21 -8.52728516048325842e-05 
1.19967259298534276e-04 -2.48446976960419513e-21 -1.32945058748108248e-04 

