# vtk DataFile Version 2.0

ASCII

DATASET UNSTRUCTURED_GRID

POINTS 21 double 

0.00000000000000000e+00  6.00000000000000099e-03  4.00000000000000008e-03
0.00000000000000000e+00  6.00000000000000099e-03  1.20000000000000020e-02
0.00000000000000000e+00  6.00000000000000099e-03  2.00000000000000004e-02
0.00000000000000000e+00  5.99999999999999926e-03  2.80000000000000041e-02
0.00000000000000000e+00  6.00000000000000099e-03  3.60000000000000042e-02
0.00000000000000000e+00  6.00000000000000099e-03  4.39999999999999974e-02
0.00000000000000000e+00  6.00000000000000099e-03  5.19999999999999976e-02
0.00000000000000000e+00  5.99999999999999926e-03  5.99999999999999908e-02
0.00000000000000000e+00  5.99999999999999926e-03  6.79999999999999910e-02
0.00000000000000000e+00  6.00000000000000012e-03  7.59999999999999981e-02
6.00000000000000099e-03  6.00000000000000099e-03  8.00000000000000017e-02
1.20000000000000020e-02  6.00000000000000099e-03  4.00000000000000008e-03
1.20000000000000020e-02  6.00000000000000099e-03  1.19999999999999985e-02
1.20000000000000020e-02  6.00000000000000099e-03  2.00000000000000004e-02
1.20000000000000020e-02  6.00000000000000099e-03  2.80000000000000041e-02
1.20000000000000020e-02  6.00000000000000099e-03  3.59999999999999973e-02
1.20000000000000020e-02  6.00000000000000099e-03  4.40000000000000044e-02
1.20000000000000020e-02  6.00000000000000099e-03  5.19999999999999976e-02
1.20000000000000020e-02  6.00000000000000099e-03  5.99999999999999978e-02
1.20000000000000002e-02  5.99999999999999926e-03  6.79999999999999910e-02
1.20000000000000002e-02  6.00000000000000012e-03  7.59999999999999981e-02

CELLS 0 0


CELL_TYPES 0


POINT_DATA 21

SCALARS Rank unsigned_int
LOOKUP_TABLE default
0 0 0 0 0 0 0 0 0 0 0 0 0 0 0 0 0 0 0 0 0 

VECTORS Forces0 double
2.11367247839782996e-04 1.67528940827047860e-22 -2.93901302061447862e-08 
2.00904123503743541e-04 3.38578224477025395e-22 -3.87626705565580743e-08 
1.85337852328466856e-04 1.68408952388623788e-22 -3.67168562287957198e-08 
1.65917299026206808e-04 1.68395177662532545e-22 -2.38642051956384954e-08 
1.44040774143949882e-04 1.68383480779750379e-22 -3.38337975730050984e-09 
1.20536995496099318e-04 1.68373048512975978e-22 2.27022391704986205e-08 
9.57378470981022704e-05 -1.71154476403824901e-28 5.27409961172388172e-08 
6.94850236081360519e-05 1.79527566453757346e-28 8.56492403565083178e-08 
4.06936071515116008e-05 1.68331972285422290e-22 1.24954238491993990e-07 
7.51538223744408234e-06 -3.36588032698337775e-22 1.59455774540344283e-07 
2.02711844167792369e-07 4.17619485951905570e-53 1.51346497542563339e-04 
-1.51396333400223457e-05 -9.07425152581044817e-54 1.96466181027959875e-09 
-7.51413026620931293e-06 1.04242547035919890e-29 -2.18288736510759288e-10 
5.69630768808735245e-08 1.68318152146179199e-22 -4.76487300238323642e-09 
7.58371315778778818e-06 1.68201106712610230e-22 -1.12878533275653268e-08 
1.50801240857797674e-05 1.68343549021649881e-22 -1.89305072043314628e-08 
2.25704442414585360e-05 3.36707480308063247e-22 -2.72118341638418336e-08 
3.01772930493615776e-05 1.68363435464084802e-22 -3.64052699651643216e-08 
3.79683702115695434e-05 1.68375169796152898e-22 -4.36566499294149770e-08 
4.50246775921503994e-05 1.68394928742928069e-22 -4.02523425006410256e-08 
5.69342231612524717e-05 1.68432878264148204e-22 -5.82643003547148869e-08 

