# vtk DataFile Version 2.0

ASCII

DATASET UNSTRUCTURED_GRID

POINTS 21 double 

0.00000000000000000e+00  6.00000000000000099e-03  4.00000000000000008e-03
0.00000000000000000e+00  6.00000000000000099e-03  1.20000000000000020e-02
0.00000000000000000e+00  6.00000000000000099e-03  2.00000000000000004e-02
0.00000000000000000e+00  5.99999999999999926e-03  2.80000000000000041e-02
0.00000000000000000e+00  6.00000000000000099e-03  3.60000000000000042e-02
0.00000000000000000e+00  6.00000000000000099e-03  4.39999999999999974e-02
0.00000000000000000e+00  6.00000000000000099e-03  5.19999999999999976e-02
0.00000000000000000e+00  5.99999999999999926e-03  5.99999999999999908e-02
0.00000000000000000e+00  5.99999999999999926e-03  6.79999999999999910e-02
0.00000000000000000e+00  6.00000000000000012e-03  7.59999999999999981e-02
6.00000000000000099e-03  6.00000000000000099e-03  8.00000000000000017e-02
1.20000000000000020e-02  6.00000000000000099e-03  4.00000000000000008e-03
1.20000000000000020e-02  6.00000000000000099e-03  1.19999999999999985e-02
1.20000000000000020e-02  6.00000000000000099e-03  2.00000000000000004e-02
1.20000000000000020e-02  6.00000000000000099e-03  2.80000000000000041e-02
1.20000000000000020e-02  6.00000000000000099e-03  3.59999999999999973e-02
1.20000000000000020e-02  6.00000000000000099e-03  4.40000000000000044e-02
1.20000000000000020e-02  6.00000000000000099e-03  5.19999999999999976e-02
1.20000000000000020e-02  6.00000000000000099e-03  5.99999999999999978e-02
1.20000000000000002e-02  5.99999999999999926e-03  6.79999999999999910e-02
1.20000000000000002e-02  6.00000000000000012e-03  7.59999999999999981e-02

CELLS 0 0


CELL_TYPES 0


POINT_DATA 21

SCALARS Rank unsigned_int
LOOKUP_TABLE default
0 0 0 0 0 0 0 0 0 0 0 0 0 0 0 0 0 0 0 0 0 

VECTORS Forces0 double
9.71014170019487228e-05 -3.73371227092377709e-31 -2.08723289270258134e-09 
8.86841839530094479e-05 3.36748649301009175e-22 1.26867041288340716e-09 
7.94822841853502695e-05 -5.98874402870797284e-30 4.24859912874827270e-09 
6.95337964820136979e-05 1.59309191113245228e-58 8.22933360096653828e-09 
5.88433059796784761e-05 1.68368043709336970e-22 1.30002557258948868e-08 
4.73904446058448555e-05 -2.04129628655171712e-25 1.85010302227121109e-08 
3.51220150496732794e-05 1.68515421742330410e-22 2.47759468399077117e-08 
2.19402130639935113e-05 -1.62701305545069836e-29 3.20225227357376237e-08 
7.52440826233909441e-06 -8.15663058499815566e-56 4.02884825095159914e-08 
-8.14433352477097463e-06 -3.51276860146609759e-26 4.58165479873866677e-08 
6.73601112401318765e-08 3.68986771471540057e-25 6.42627255862756897e-05 
-1.47432901238274578e-05 1.68349740884902935e-22 2.97269442163630671e-10 
-7.18442623169111891e-06 6.77002528223122098e-32 -7.31514709596141248e-10 
2.62339567853057386e-07 1.68354848839901555e-22 -2.03005761327471439e-09 
7.59258783195225007e-06 1.68356920750480958e-22 -3.75050510969776727e-09 
1.47935888710318545e-05 -9.65547230056134603e-32 -5.81877509820876202e-09 
2.18459455029466529e-05 -3.36721079685647461e-22 -8.20996213440371212e-09 
2.87295191420761755e-05 3.36848946522552958e-22 -1.09878851138677461e-08 
3.53625942322784598e-05 -1.52335795078339685e-25 -1.41610074847734091e-08 
4.16627433274005562e-05 -1.79471663434897416e-25 -1.59942533472196223e-08 
4.90153052676314151e-05 -2.11123943446216276e-25 -1.92103429245277743e-08 

