# vtk DataFile Version 2.0

ASCII

DATASET UNSTRUCTURED_GRID

POINTS 44 double 

0.00000000000000000e+00  1.20000000000000002e-02  0.00000000000000000e+00
0.00000000000000000e+00  1.20000000000000002e-02  8.00000000000000017e-03
0.00000000000000000e+00  0.00000000000000000e+00  8.00000000000000017e-03
0.00000000000000000e+00  0.00000000000000000e+00  0.00000000000000000e+00
0.00000000000000000e+00  1.20000000000000002e-02  1.60000000000000003e-02
0.00000000000000000e+00  0.00000000000000000e+00  1.60000000000000003e-02
0.00000000000000000e+00  1.20000000000000002e-02  2.40000000000000005e-02
0.00000000000000000e+00  0.00000000000000000e+00  2.40000000000000005e-02
0.00000000000000000e+00  1.20000000000000002e-02  3.20000000000000007e-02
0.00000000000000000e+00  0.00000000000000000e+00  3.20000000000000007e-02
0.00000000000000000e+00  1.20000000000000002e-02  4.00000000000000008e-02
0.00000000000000000e+00  0.00000000000000000e+00  4.00000000000000008e-02
0.00000000000000000e+00  1.20000000000000002e-02  4.80000000000000010e-02
0.00000000000000000e+00  0.00000000000000000e+00  4.80000000000000010e-02
0.00000000000000000e+00  1.20000000000000002e-02  5.60000000000000012e-02
0.00000000000000000e+00  0.00000000000000000e+00  5.60000000000000012e-02
0.00000000000000000e+00  1.20000000000000002e-02  6.40000000000000013e-02
0.00000000000000000e+00  0.00000000000000000e+00  6.40000000000000013e-02
0.00000000000000000e+00  1.20000000000000002e-02  7.19999999999999946e-02
0.00000000000000000e+00  0.00000000000000000e+00  7.19999999999999946e-02
0.00000000000000000e+00  1.20000000000000002e-02  8.00000000000000017e-02
0.00000000000000000e+00  0.00000000000000000e+00  8.00000000000000017e-02
1.20000000000000002e-02  1.20000000000000002e-02  8.00000000000000017e-02
1.20000000000000002e-02  0.00000000000000000e+00  8.00000000000000017e-02
1.20000000000000002e-02  1.20000000000000002e-02  0.00000000000000000e+00
1.20000000000000002e-02  0.00000000000000000e+00  0.00000000000000000e+00
1.20000000000000002e-02  0.00000000000000000e+00  8.00000000000000017e-03
1.20000000000000002e-02  1.20000000000000002e-02  8.00000000000000017e-03
1.20000000000000002e-02  0.00000000000000000e+00  1.60000000000000003e-02
1.20000000000000002e-02  1.20000000000000002e-02  1.60000000000000003e-02
1.20000000000000002e-02  0.00000000000000000e+00  2.40000000000000005e-02
1.20000000000000002e-02  1.20000000000000002e-02  2.40000000000000005e-02
1.20000000000000002e-02  0.00000000000000000e+00  3.20000000000000007e-02
1.20000000000000002e-02  1.20000000000000002e-02  3.20000000000000007e-02
1.20000000000000002e-02  0.00000000000000000e+00  4.00000000000000008e-02
1.20000000000000002e-02  1.20000000000000002e-02  4.00000000000000008e-02
1.20000000000000002e-02  0.00000000000000000e+00  4.80000000000000010e-02
1.20000000000000002e-02  1.20000000000000002e-02  4.80000000000000010e-02
1.20000000000000002e-02  0.00000000000000000e+00  5.60000000000000012e-02
1.20000000000000002e-02  1.20000000000000002e-02  5.60000000000000012e-02
1.20000000000000002e-02  0.00000000000000000e+00  6.40000000000000013e-02
1.20000000000000002e-02  1.20000000000000002e-02  6.40000000000000013e-02
1.20000000000000002e-02  0.00000000000000000e+00  7.19999999999999946e-02
1.20000000000000002e-02  1.20000000000000002e-02  7.19999999999999946e-02

CELLS 0 0


CELL_TYPES 0


POINT_DATA 44

SCALARS Rank unsigned_int
LOOKUP_TABLE default
0 0 0 0 0 0 0 0 0 0 0 0 0 0 0 0 0 0 0 0 0 0 0 0 0 0 0 0 0 0 0 0 0 0 0 0 0 0 0 0 0 0 0 0 

VECTORS Displacements0 double
-5.29506509441222093e-09 0.00000000000000000e+00 2.90039690303387626e-09 
7.80123016671925411e-07 0.00000000000000000e+00 9.83191895162054234e-07 
7.80014044693954043e-07 0.00000000000000000e+00 9.83300236726218288e-07 
-5.60334812581771055e-09 0.00000000000000000e+00 3.08026693047734973e-09 
2.69626135201805230e-06 0.00000000000000000e+00 1.76448437323481168e-06 
2.69599774575933949e-06 0.00000000000000000e+00 1.76472523539428767e-06 
5.52444022004467315e-06 0.00000000000000000e+00 2.38644671389661241e-06 
5.52401257930887053e-06 0.00000000000000000e+00 2.38678844708748991e-06 
9.06274045652010266e-06 0.00000000000000000e+00 2.86980267109759861e-06 
9.06340074847233953e-06 0.00000000000000000e+00 2.87074856512141347e-06 
1.31488107033734854e-05 0.00000000000000000e+00 3.22955843200171815e-06 
1.31488373341642807e-05 0.00000000000000000e+00 3.22948725684888974e-06 
1.76233871295282130e-05 0.00000000000000000e+00 3.47428730470204508e-06 
1.76235162168971234e-05 0.00000000000000000e+00 3.47385557614585155e-06 
2.23377371531871884e-05 0.00000000000000000e+00 3.62128675196896828e-06 
2.23375006131630924e-05 0.00000000000000000e+00 3.62096698921992336e-06 
2.71770365406101958e-05 0.00000000000000000e+00 3.69441674564304816e-06 
2.71770186713013901e-05 0.00000000000000000e+00 3.69458220249496347e-06 
3.20628288561900686e-05 0.00000000000000000e+00 3.72187598722074666e-06 
3.20628938415138179e-05 0.00000000000000000e+00 3.72188368914909253e-06 
3.69467715987413162e-05 0.00000000000000000e+00 3.72739556439173123e-06 
3.69467715040285111e-05 0.00000000000000000e+00 3.72741166338428248e-06 
3.69575620673386410e-05 0.00000000000000000e+00 -3.60155207331404515e-06 
3.69577000440152135e-05 0.00000000000000000e+00 -3.60161665262668941e-06 
-6.76133204187901298e-09 0.00000000000000000e+00 -3.75549581657986056e-09 
-7.06694345743982607e-09 0.00000000000000000e+00 -3.93363934444576413e-09 
7.67602380738637104e-07 0.00000000000000000e+00 -9.62013677809842080e-07 
7.67675995138608610e-07 0.00000000000000000e+00 -9.61870996717792537e-07 
2.68356940470742540e-06 0.00000000000000000e+00 -1.72581951875551668e-06 
2.68342423169876060e-06 0.00000000000000000e+00 -1.72638713901044343e-06 
5.51091365090054955e-06 0.00000000000000000e+00 -2.33157578428365024e-06 
5.51118818473988347e-06 0.00000000000000000e+00 -2.33123443328468490e-06 
9.05276483338628490e-06 0.00000000000000000e+00 -2.80102149521509184e-06 
9.05260132154033881e-06 0.00000000000000000e+00 -2.80075631288713557e-06 
1.31412826702832545e-05 0.00000000000000000e+00 -3.14727013594797567e-06 
1.31412717548587369e-05 0.00000000000000000e+00 -3.14731195445597507e-06 
1.76174772261443417e-05 0.00000000000000000e+00 -3.38204645209541606e-06 
1.76174252733054127e-05 0.00000000000000000e+00 -3.38241022018844135e-06 
2.23346724541278427e-05 0.00000000000000000e+00 -3.51971451523683992e-06 
2.23348034857498307e-05 0.00000000000000000e+00 -3.51996019090327464e-06 
2.71760819133021355e-05 0.00000000000000000e+00 -3.58203647320424953e-06 
2.71760708451560274e-05 0.00000000000000000e+00 -3.58256203624997948e-06 
3.20630290078919623e-05 0.00000000000000000e+00 -3.60188059880169499e-06 
3.20629617487726474e-05 0.00000000000000000e+00 -3.60184298711444532e-06 

