# vtk DataFile Version 2.0

ASCII

DATASET UNSTRUCTURED_GRID

POINTS 21 double 

0.00000000000000000e+00  6.00000000000000099e-03  4.00000000000000008e-03
0.00000000000000000e+00  6.00000000000000099e-03  1.20000000000000020e-02
0.00000000000000000e+00  6.00000000000000099e-03  2.00000000000000004e-02
0.00000000000000000e+00  5.99999999999999926e-03  2.80000000000000041e-02
0.00000000000000000e+00  6.00000000000000099e-03  3.60000000000000042e-02
0.00000000000000000e+00  6.00000000000000099e-03  4.39999999999999974e-02
0.00000000000000000e+00  6.00000000000000099e-03  5.19999999999999976e-02
0.00000000000000000e+00  5.99999999999999926e-03  5.99999999999999908e-02
0.00000000000000000e+00  5.99999999999999926e-03  6.79999999999999910e-02
0.00000000000000000e+00  6.00000000000000012e-03  7.59999999999999981e-02
6.00000000000000099e-03  6.00000000000000099e-03  8.00000000000000017e-02
1.20000000000000020e-02  6.00000000000000099e-03  4.00000000000000008e-03
1.20000000000000020e-02  6.00000000000000099e-03  1.19999999999999985e-02
1.20000000000000020e-02  6.00000000000000099e-03  2.00000000000000004e-02
1.20000000000000020e-02  6.00000000000000099e-03  2.80000000000000041e-02
1.20000000000000020e-02  6.00000000000000099e-03  3.59999999999999973e-02
1.20000000000000020e-02  6.00000000000000099e-03  4.40000000000000044e-02
1.20000000000000020e-02  6.00000000000000099e-03  5.19999999999999976e-02
1.20000000000000020e-02  6.00000000000000099e-03  5.99999999999999978e-02
1.20000000000000002e-02  5.99999999999999926e-03  6.79999999999999910e-02
1.20000000000000002e-02  6.00000000000000012e-03  7.59999999999999981e-02

CELLS 0 0


CELL_TYPES 0


POINT_DATA 21

SCALARS Rank unsigned_int
LOOKUP_TABLE default
0 0 0 0 0 0 0 0 0 0 0 0 0 0 0 0 0 0 0 0 0 

VECTORS Forces0 double
2.56615378285406494e-04 1.67340789213764379e-22 -3.88514867616600111e-08 
2.44986030998810495e-04 -3.34750803102765936e-22 -5.13487502184608599e-08 
2.24639594026608801e-04 -1.68415527017543799e-22 -4.68860921655457504e-08 
1.98045187698726237e-04 -1.61522547628212526e-29 -2.87614497831230833e-08 
1.68432461217644090e-04 1.34546379834322530e-29 -2.30649395888561589e-09 
1.37699244806486251e-04 5.02761871683146879e-22 2.99975036774203820e-08 
1.06494025983860300e-04 1.68366718159682119e-22 6.67576912209537179e-08 
7.45315689076658853e-05 3.36703856680746141e-22 1.06916349675934580e-07 
4.03682998972316044e-05 3.36654494900621982e-22 1.54946372907570858e-07 
1.55591009488708361e-06 -3.32655856175180497e-29 1.98070038586624452e-07 
2.49216877996353426e-07 8.83175463456760923e-24 1.92336774839742941e-04 
-1.13348166906112008e-05 3.36562114806314269e-22 1.51285723920727559e-09 
-3.66894633168219797e-06 1.68296245582505519e-22 -1.54089682933420736e-09 
4.00494884791713703e-06 -1.68311199440318475e-22 -7.04817646459826591e-09 
1.17068419116797486e-05 2.01691107080385508e-25 -1.46981187994540229e-08 
1.94523578024264975e-05 -1.68337360247304999e-22 -2.36593194810011382e-08 
2.72932477825455677e-05 1.68348697809656634e-22 -3.34406897490233058e-08 
3.53852239235773674e-05 -1.68360324219237284e-22 -4.40798434371076082e-08 
4.39343367823709762e-05 1.68375036356466408e-22 -5.24384552766262224e-08 
5.16952168871040598e-05 -1.69290351900395766e-22 -4.96249592232477883e-08 
6.39598773090204224e-05 1.68445516404256825e-22 -7.22919302713389518e-08 

