# vtk DataFile Version 2.0

ASCII

DATASET UNSTRUCTURED_GRID

POINTS 21 double 

0.00000000000000000e+00  6.00000000000000099e-03  4.00000000000000008e-03
0.00000000000000000e+00  6.00000000000000099e-03  1.20000000000000020e-02
0.00000000000000000e+00  6.00000000000000099e-03  2.00000000000000004e-02
0.00000000000000000e+00  5.99999999999999926e-03  2.80000000000000041e-02
0.00000000000000000e+00  6.00000000000000099e-03  3.60000000000000042e-02
0.00000000000000000e+00  6.00000000000000099e-03  4.39999999999999974e-02
0.00000000000000000e+00  6.00000000000000099e-03  5.19999999999999976e-02
0.00000000000000000e+00  5.99999999999999926e-03  5.99999999999999908e-02
0.00000000000000000e+00  5.99999999999999926e-03  6.79999999999999910e-02
0.00000000000000000e+00  6.00000000000000012e-03  7.59999999999999981e-02
6.00000000000000099e-03  6.00000000000000099e-03  8.00000000000000017e-02
1.20000000000000020e-02  6.00000000000000099e-03  4.00000000000000008e-03
1.20000000000000020e-02  6.00000000000000099e-03  1.19999999999999985e-02
1.20000000000000020e-02  6.00000000000000099e-03  2.00000000000000004e-02
1.20000000000000020e-02  6.00000000000000099e-03  2.80000000000000041e-02
1.20000000000000020e-02  6.00000000000000099e-03  3.59999999999999973e-02
1.20000000000000020e-02  6.00000000000000099e-03  4.40000000000000044e-02
1.20000000000000020e-02  6.00000000000000099e-03  5.19999999999999976e-02
1.20000000000000020e-02  6.00000000000000099e-03  5.99999999999999978e-02
1.20000000000000002e-02  5.99999999999999926e-03  6.79999999999999910e-02
1.20000000000000002e-02  6.00000000000000012e-03  7.59999999999999981e-02

CELLS 0 0


CELL_TYPES 0


POINT_DATA 21

SCALARS Rank unsigned_int
LOOKUP_TABLE default
0 0 0 0 0 0 0 0 0 0 0 0 0 0 0 0 0 0 0 0 0 

VECTORS Forces0 double
3.04872148257580855e-01 1.11314520821094175e-24 -4.16452193805154445e-03 
2.80054072631213125e-01 -1.50546511961266760e-20 -2.31369186669627041e-03 
9.38005574123624425e-02 1.21679826111707310e-20 -4.61400188727822589e-05 
1.33484812581926519e-02 -5.70748761142877177e-21 5.48984550461406357e-05 
3.50244239216536630e-03 1.50381794366463449e-22 1.56765245254841773e-05 
1.28935975327300811e-03 2.02160173087150431e-22 6.03065727170483076e-06 
5.03305615557534964e-04 1.43921854233099333e-22 2.74038713058637863e-06 
1.64714175284445591e-04 1.83698456741467566e-22 1.57721402792214790e-06 
5.72799713761786562e-05 -2.53021751231792071e-27 1.20142822272784222e-06 
-3.51583406370946467e-05 3.34095588761524456e-50 9.08735026984949372e-07 
-6.13412910644936557e-07 5.06949112362383584e-22 5.89051365568354500e-04 
-3.00551699121592828e-05 -1.66360882211363538e-22 3.21910497873868862e-07 
-2.34383274285653145e-05 3.38020193000494921e-22 2.21446696179097434e-07 
-1.47650759060925840e-05 3.39308025638779284e-22 3.36632117277021974e-08 
-3.17883213984095355e-06 2.18332699354251243e-25 -2.79025372946514980e-09 
1.09136968558195090e-05 4.06650987010159297e-29 4.92382077421038329e-08 
2.78291327051344661e-05 1.79978473309354129e-28 1.15068627915224294e-07 
4.80452789833770748e-05 -3.86412490040180555e-29 1.53904415882068741e-07 
7.00911552354185717e-05 -4.15406042148526679e-28 1.56310869161730278e-07 
1.00096659392688656e-04 1.68157657120953772e-22 1.28268425900495709e-07 
1.32738474302476880e-04 -3.95903272682406480e-50 1.30459674226797942e-07 

