# vtk DataFile Version 2.0

ASCII

DATASET UNSTRUCTURED_GRID

POINTS 44 double 

0.00000000000000000e+00  1.20000000000000002e-02  0.00000000000000000e+00
0.00000000000000000e+00  1.20000000000000002e-02  8.00000000000000017e-03
0.00000000000000000e+00  0.00000000000000000e+00  8.00000000000000017e-03
0.00000000000000000e+00  0.00000000000000000e+00  0.00000000000000000e+00
0.00000000000000000e+00  1.20000000000000002e-02  1.60000000000000003e-02
0.00000000000000000e+00  0.00000000000000000e+00  1.60000000000000003e-02
0.00000000000000000e+00  1.20000000000000002e-02  2.40000000000000005e-02
0.00000000000000000e+00  0.00000000000000000e+00  2.40000000000000005e-02
0.00000000000000000e+00  1.20000000000000002e-02  3.20000000000000007e-02
0.00000000000000000e+00  0.00000000000000000e+00  3.20000000000000007e-02
0.00000000000000000e+00  1.20000000000000002e-02  4.00000000000000008e-02
0.00000000000000000e+00  0.00000000000000000e+00  4.00000000000000008e-02
0.00000000000000000e+00  1.20000000000000002e-02  4.80000000000000010e-02
0.00000000000000000e+00  0.00000000000000000e+00  4.80000000000000010e-02
0.00000000000000000e+00  1.20000000000000002e-02  5.60000000000000012e-02
0.00000000000000000e+00  0.00000000000000000e+00  5.60000000000000012e-02
0.00000000000000000e+00  1.20000000000000002e-02  6.40000000000000013e-02
0.00000000000000000e+00  0.00000000000000000e+00  6.40000000000000013e-02
0.00000000000000000e+00  1.20000000000000002e-02  7.19999999999999946e-02
0.00000000000000000e+00  0.00000000000000000e+00  7.19999999999999946e-02
0.00000000000000000e+00  1.20000000000000002e-02  8.00000000000000017e-02
0.00000000000000000e+00  0.00000000000000000e+00  8.00000000000000017e-02
1.20000000000000002e-02  1.20000000000000002e-02  8.00000000000000017e-02
1.20000000000000002e-02  0.00000000000000000e+00  8.00000000000000017e-02
1.20000000000000002e-02  1.20000000000000002e-02  0.00000000000000000e+00
1.20000000000000002e-02  0.00000000000000000e+00  0.00000000000000000e+00
1.20000000000000002e-02  0.00000000000000000e+00  8.00000000000000017e-03
1.20000000000000002e-02  1.20000000000000002e-02  8.00000000000000017e-03
1.20000000000000002e-02  0.00000000000000000e+00  1.60000000000000003e-02
1.20000000000000002e-02  1.20000000000000002e-02  1.60000000000000003e-02
1.20000000000000002e-02  0.00000000000000000e+00  2.40000000000000005e-02
1.20000000000000002e-02  1.20000000000000002e-02  2.40000000000000005e-02
1.20000000000000002e-02  0.00000000000000000e+00  3.20000000000000007e-02
1.20000000000000002e-02  1.20000000000000002e-02  3.20000000000000007e-02
1.20000000000000002e-02  0.00000000000000000e+00  4.00000000000000008e-02
1.20000000000000002e-02  1.20000000000000002e-02  4.00000000000000008e-02
1.20000000000000002e-02  0.00000000000000000e+00  4.80000000000000010e-02
1.20000000000000002e-02  1.20000000000000002e-02  4.80000000000000010e-02
1.20000000000000002e-02  0.00000000000000000e+00  5.60000000000000012e-02
1.20000000000000002e-02  1.20000000000000002e-02  5.60000000000000012e-02
1.20000000000000002e-02  0.00000000000000000e+00  6.40000000000000013e-02
1.20000000000000002e-02  1.20000000000000002e-02  6.40000000000000013e-02
1.20000000000000002e-02  0.00000000000000000e+00  7.19999999999999946e-02
1.20000000000000002e-02  1.20000000000000002e-02  7.19999999999999946e-02

CELLS 0 0


CELL_TYPES 0


POINT_DATA 44

SCALARS Rank unsigned_int
LOOKUP_TABLE default
0 0 0 0 0 0 0 0 0 0 0 0 0 0 0 0 0 0 0 0 0 0 0 0 0 0 0 0 0 0 0 0 0 0 0 0 0 0 0 0 0 0 0 0 

VECTORS Displacements0 double
1.06498938999434184e-06 0.00000000000000000e+00 2.67996401391441492e-07 
6.27298250209957445e-04 0.00000000000000000e+00 5.06844937277911643e-04 
6.27369268233160852e-04 0.00000000000000000e+00 5.06800519140983741e-04 
1.11343375529325377e-06 0.00000000000000000e+00 2.83413541847288330e-07 
1.69578785988726060e-03 0.00000000000000000e+00 6.58846189483703834e-04 
1.69553338568230244e-03 0.00000000000000000e+00 6.59105877258822225e-04 
2.84645688780229590e-03 0.00000000000000000e+00 5.84131892013027457e-04 
2.84614553976352078e-03 0.00000000000000000e+00 5.84259351958545483e-04 
3.84137617843144331e-03 0.00000000000000000e+00 3.91861338356962532e-04 
3.84265143210896047e-03 0.00000000000000000e+00 3.91859879688879510e-04 
4.57380396988159906e-03 0.00000000000000000e+00 1.62808095076206880e-04 
4.57366038614135089e-03 0.00000000000000000e+00 1.62303363818158279e-04 
5.02274303328811671e-03 0.00000000000000000e+00 -5.06126349147520763e-05 
5.02253913792220699e-03 0.00000000000000000e+00 -5.08328356514901208e-05 
5.21118834478252052e-03 0.00000000000000000e+00 -2.19496118592690641e-04 
5.21139601022199347e-03 0.00000000000000000e+00 -2.19396839320520676e-04 
5.20677535382512314e-03 0.00000000000000000e+00 -3.26010581567178805e-04 
5.20684612655000593e-03 0.00000000000000000e+00 -3.26146653037169402e-04 
5.10382165492485884e-03 0.00000000000000000e+00 -3.73537838635305309e-04 
5.10378633584936299e-03 0.00000000000000000e+00 -3.73493067398309397e-04 
4.98113186276492176e-03 0.00000000000000000e+00 -3.80732594806114030e-04 
4.98097179285963108e-03 0.00000000000000000e+00 -3.80870412539470742e-04 
4.98152950923857942e-03 0.00000000000000000e+00 -2.08937234770618631e-04 
4.98144372121355622e-03 0.00000000000000000e+00 -2.08860494137733663e-04 
1.34512908454015322e-06 0.00000000000000000e+00 -5.52023894417898772e-07 
1.39104735060974845e-06 0.00000000000000000e+00 -5.72007572711454026e-07 
5.38260378822194357e-04 0.00000000000000000e+00 -6.00675679287119451e-04 
5.38131155752957584e-04 0.00000000000000000e+00 -6.00690560884430667e-04 
1.56427258669979488e-03 0.00000000000000000e+00 -8.93644021324666829e-04 
1.56407007251259346e-03 0.00000000000000000e+00 -8.94388515944450116e-04 
2.71331981181161842e-03 0.00000000000000000e+00 -9.76075887416214590e-04 
2.71348305530435359e-03 0.00000000000000000e+00 -9.75799325063592539e-04 
3.74590451673379767e-03 0.00000000000000000e+00 -9.06983649484832655e-04 
3.74556109881129997e-03 0.00000000000000000e+00 -9.07391607262580295e-04 
4.52251075389490352e-03 0.00000000000000000e+00 -7.45739825267051131e-04 
4.52254400737578562e-03 0.00000000000000000e+00 -7.46184386191092990e-04 
4.99959200184100713e-03 0.00000000000000000e+00 -5.55489160846331419e-04 
4.99986207884800873e-03 0.00000000000000000e+00 -5.55766393546599461e-04 
5.20349977844395892e-03 0.00000000000000000e+00 -3.86140929906872465e-04 
5.20354631647077653e-03 0.00000000000000000e+00 -3.85985807903296927e-04 
5.20654861993400525e-03 0.00000000000000000e+00 -2.72521126596648924e-04 
5.20668014483997941e-03 0.00000000000000000e+00 -2.71784227032380809e-04 
5.10520987435780435e-03 0.00000000000000000e+00 -2.18552479953449329e-04 
5.10519525379871802e-03 0.00000000000000000e+00 -2.18546647612590661e-04 

