# vtk DataFile Version 2.0

ASCII

DATASET UNSTRUCTURED_GRID

POINTS 44 double 

0.00000000000000000e+00  1.20000000000000002e-02  0.00000000000000000e+00
0.00000000000000000e+00  1.20000000000000002e-02  8.00000000000000017e-03
0.00000000000000000e+00  0.00000000000000000e+00  8.00000000000000017e-03
0.00000000000000000e+00  0.00000000000000000e+00  0.00000000000000000e+00
0.00000000000000000e+00  1.20000000000000002e-02  1.60000000000000003e-02
0.00000000000000000e+00  0.00000000000000000e+00  1.60000000000000003e-02
0.00000000000000000e+00  1.20000000000000002e-02  2.40000000000000005e-02
0.00000000000000000e+00  0.00000000000000000e+00  2.40000000000000005e-02
0.00000000000000000e+00  1.20000000000000002e-02  3.20000000000000007e-02
0.00000000000000000e+00  0.00000000000000000e+00  3.20000000000000007e-02
0.00000000000000000e+00  1.20000000000000002e-02  4.00000000000000008e-02
0.00000000000000000e+00  0.00000000000000000e+00  4.00000000000000008e-02
0.00000000000000000e+00  1.20000000000000002e-02  4.80000000000000010e-02
0.00000000000000000e+00  0.00000000000000000e+00  4.80000000000000010e-02
0.00000000000000000e+00  1.20000000000000002e-02  5.60000000000000012e-02
0.00000000000000000e+00  0.00000000000000000e+00  5.60000000000000012e-02
0.00000000000000000e+00  1.20000000000000002e-02  6.40000000000000013e-02
0.00000000000000000e+00  0.00000000000000000e+00  6.40000000000000013e-02
0.00000000000000000e+00  1.20000000000000002e-02  7.19999999999999946e-02
0.00000000000000000e+00  0.00000000000000000e+00  7.19999999999999946e-02
0.00000000000000000e+00  1.20000000000000002e-02  8.00000000000000017e-02
0.00000000000000000e+00  0.00000000000000000e+00  8.00000000000000017e-02
1.20000000000000002e-02  1.20000000000000002e-02  8.00000000000000017e-02
1.20000000000000002e-02  0.00000000000000000e+00  8.00000000000000017e-02
1.20000000000000002e-02  1.20000000000000002e-02  0.00000000000000000e+00
1.20000000000000002e-02  0.00000000000000000e+00  0.00000000000000000e+00
1.20000000000000002e-02  0.00000000000000000e+00  8.00000000000000017e-03
1.20000000000000002e-02  1.20000000000000002e-02  8.00000000000000017e-03
1.20000000000000002e-02  0.00000000000000000e+00  1.60000000000000003e-02
1.20000000000000002e-02  1.20000000000000002e-02  1.60000000000000003e-02
1.20000000000000002e-02  0.00000000000000000e+00  2.40000000000000005e-02
1.20000000000000002e-02  1.20000000000000002e-02  2.40000000000000005e-02
1.20000000000000002e-02  0.00000000000000000e+00  3.20000000000000007e-02
1.20000000000000002e-02  1.20000000000000002e-02  3.20000000000000007e-02
1.20000000000000002e-02  0.00000000000000000e+00  4.00000000000000008e-02
1.20000000000000002e-02  1.20000000000000002e-02  4.00000000000000008e-02
1.20000000000000002e-02  0.00000000000000000e+00  4.80000000000000010e-02
1.20000000000000002e-02  1.20000000000000002e-02  4.80000000000000010e-02
1.20000000000000002e-02  0.00000000000000000e+00  5.60000000000000012e-02
1.20000000000000002e-02  1.20000000000000002e-02  5.60000000000000012e-02
1.20000000000000002e-02  0.00000000000000000e+00  6.40000000000000013e-02
1.20000000000000002e-02  1.20000000000000002e-02  6.40000000000000013e-02
1.20000000000000002e-02  0.00000000000000000e+00  7.19999999999999946e-02
1.20000000000000002e-02  1.20000000000000002e-02  7.19999999999999946e-02

CELLS 0 0


CELL_TYPES 0


POINT_DATA 44

SCALARS Rank unsigned_int
LOOKUP_TABLE default
0 0 0 0 0 0 0 0 0 0 0 0 0 0 0 0 0 0 0 0 0 0 0 0 0 0 0 0 0 0 0 0 0 0 0 0 0 0 0 0 0 0 0 0 

VECTORS Displacements0 double
-3.48483861124246245e-09 0.00000000000000000e+00 2.21905386139458839e-09 
6.84004071075747385e-07 0.00000000000000000e+00 8.32691327536138262e-07 
6.83969632032685828e-07 0.00000000000000000e+00 8.32818959077018216e-07 
-3.66546669259294993e-09 0.00000000000000000e+00 2.42216901665269195e-09 
2.32042593878713471e-06 0.00000000000000000e+00 1.46310221029424378e-06 
2.32018641837654500e-06 0.00000000000000000e+00 1.46335806688167000e-06 
4.67326128098228711e-06 0.00000000000000000e+00 1.92739905096003573e-06 
4.67284629448984590e-06 0.00000000000000000e+00 1.92758608081201733e-06 
7.52616088036030030e-06 0.00000000000000000e+00 2.25467302984742479e-06 
7.52671870684710003e-06 0.00000000000000000e+00 2.25520954751937014e-06 
1.07259225753470247e-05 0.00000000000000000e+00 2.47803612243627934e-06 
1.07259190007396025e-05 0.00000000000000000e+00 2.47776729941798861e-06 
1.41521826523632467e-05 0.00000000000000000e+00 2.62177508197303562e-06 
1.41521626325350493e-05 0.00000000000000000e+00 2.62146441367204885e-06 
1.77132081735228717e-05 0.00000000000000000e+00 2.70809483857865445e-06 
1.77130734326664939e-05 0.00000000000000000e+00 2.70799461662105314e-06 
2.13467231777111814e-05 0.00000000000000000e+00 2.75354507904390651e-06 
2.13467219701032677e-05 0.00000000000000000e+00 2.75372472140732861e-06 
2.50096206173391536e-05 0.00000000000000000e+00 2.77213549465739742e-06 
2.50096744526510809e-05 0.00000000000000000e+00 2.77214934884902133e-06 
2.86718630477423051e-05 0.00000000000000000e+00 2.77697068192929054e-06 
2.86718899918067164e-05 0.00000000000000000e+00 2.77691298976231784e-06 
2.86806276860484386e-05 0.00000000000000000e+00 -2.71993494083297062e-06 
2.86807502142151082e-05 0.00000000000000000e+00 -2.72007016378531716e-06 
-4.68996195909874314e-09 0.00000000000000000e+00 -2.93392706289419593e-09 
-4.89204122070926896e-09 0.00000000000000000e+00 -3.01413215447999497e-09 
6.72511859825361025e-07 0.00000000000000000e+00 -8.30710958480206681e-07 
6.72531650765395228e-07 0.00000000000000000e+00 -8.30643993269531559e-07 
2.30873749712423134e-06 0.00000000000000000e+00 -1.46025035188241269e-06 
2.30859052545860105e-06 0.00000000000000000e+00 -1.46085991747136265e-06 
4.66055026614593246e-06 0.00000000000000000e+00 -1.92173009099852548e-06 
4.66078998985681059e-06 0.00000000000000000e+00 -1.92137184447383433e-06 
7.51688279667611677e-06 0.00000000000000000e+00 -2.24414864465466339e-06 
7.51672595113052203e-06 0.00000000000000000e+00 -2.24407037958013970e-06 
1.07190304273070060e-05 0.00000000000000000e+00 -2.45948794679288469e-06 
1.07191013719087905e-05 0.00000000000000000e+00 -2.45964091635628525e-06 
1.41470242511742044e-05 0.00000000000000000e+00 -2.59598794859700038e-06 
1.41471013162819736e-05 0.00000000000000000e+00 -2.59632580891644904e-06 
1.77106845569297457e-05 0.00000000000000000e+00 -2.67401665122989246e-06 
1.77107915457776652e-05 0.00000000000000000e+00 -2.67423540996693021e-06 
2.13460654159087724e-05 0.00000000000000000e+00 -2.70963079931556539e-06 
2.13460769996439235e-05 0.00000000000000000e+00 -2.70996871400235402e-06 
2.50101076027909821e-05 0.00000000000000000e+00 -2.72073316021469200e-06 
2.50100476266851404e-05 0.00000000000000000e+00 -2.72068813907254447e-06 

