# vtk DataFile Version 2.0

ASCII

DATASET UNSTRUCTURED_GRID

POINTS 44 double 

0.00000000000000000e+00  1.20000000000000002e-02  0.00000000000000000e+00
0.00000000000000000e+00  1.20000000000000002e-02  8.00000000000000017e-03
0.00000000000000000e+00  0.00000000000000000e+00  8.00000000000000017e-03
0.00000000000000000e+00  0.00000000000000000e+00  0.00000000000000000e+00
0.00000000000000000e+00  1.20000000000000002e-02  1.60000000000000003e-02
0.00000000000000000e+00  0.00000000000000000e+00  1.60000000000000003e-02
0.00000000000000000e+00  1.20000000000000002e-02  2.40000000000000005e-02
0.00000000000000000e+00  0.00000000000000000e+00  2.40000000000000005e-02
0.00000000000000000e+00  1.20000000000000002e-02  3.20000000000000007e-02
0.00000000000000000e+00  0.00000000000000000e+00  3.20000000000000007e-02
0.00000000000000000e+00  1.20000000000000002e-02  4.00000000000000008e-02
0.00000000000000000e+00  0.00000000000000000e+00  4.00000000000000008e-02
0.00000000000000000e+00  1.20000000000000002e-02  4.80000000000000010e-02
0.00000000000000000e+00  0.00000000000000000e+00  4.80000000000000010e-02
0.00000000000000000e+00  1.20000000000000002e-02  5.60000000000000012e-02
0.00000000000000000e+00  0.00000000000000000e+00  5.60000000000000012e-02
0.00000000000000000e+00  1.20000000000000002e-02  6.40000000000000013e-02
0.00000000000000000e+00  0.00000000000000000e+00  6.40000000000000013e-02
0.00000000000000000e+00  1.20000000000000002e-02  7.19999999999999946e-02
0.00000000000000000e+00  0.00000000000000000e+00  7.19999999999999946e-02
0.00000000000000000e+00  1.20000000000000002e-02  8.00000000000000017e-02
0.00000000000000000e+00  0.00000000000000000e+00  8.00000000000000017e-02
1.20000000000000002e-02  1.20000000000000002e-02  8.00000000000000017e-02
1.20000000000000002e-02  0.00000000000000000e+00  8.00000000000000017e-02
1.20000000000000002e-02  1.20000000000000002e-02  0.00000000000000000e+00
1.20000000000000002e-02  0.00000000000000000e+00  0.00000000000000000e+00
1.20000000000000002e-02  0.00000000000000000e+00  8.00000000000000017e-03
1.20000000000000002e-02  1.20000000000000002e-02  8.00000000000000017e-03
1.20000000000000002e-02  0.00000000000000000e+00  1.60000000000000003e-02
1.20000000000000002e-02  1.20000000000000002e-02  1.60000000000000003e-02
1.20000000000000002e-02  0.00000000000000000e+00  2.40000000000000005e-02
1.20000000000000002e-02  1.20000000000000002e-02  2.40000000000000005e-02
1.20000000000000002e-02  0.00000000000000000e+00  3.20000000000000007e-02
1.20000000000000002e-02  1.20000000000000002e-02  3.20000000000000007e-02
1.20000000000000002e-02  0.00000000000000000e+00  4.00000000000000008e-02
1.20000000000000002e-02  1.20000000000000002e-02  4.00000000000000008e-02
1.20000000000000002e-02  0.00000000000000000e+00  4.80000000000000010e-02
1.20000000000000002e-02  1.20000000000000002e-02  4.80000000000000010e-02
1.20000000000000002e-02  0.00000000000000000e+00  5.60000000000000012e-02
1.20000000000000002e-02  1.20000000000000002e-02  5.60000000000000012e-02
1.20000000000000002e-02  0.00000000000000000e+00  6.40000000000000013e-02
1.20000000000000002e-02  1.20000000000000002e-02  6.40000000000000013e-02
1.20000000000000002e-02  0.00000000000000000e+00  7.19999999999999946e-02
1.20000000000000002e-02  1.20000000000000002e-02  7.19999999999999946e-02

CELLS 0 0


CELL_TYPES 0


POINT_DATA 44

SCALARS Rank unsigned_int
LOOKUP_TABLE default
0 0 0 0 0 0 0 0 0 0 0 0 0 0 0 0 0 0 0 0 0 0 0 0 0 0 0 0 0 0 0 0 0 0 0 0 0 0 0 0 0 0 0 0 

VECTORS Displacements0 double
-4.29792197613763658e-09 0.00000000000000000e+00 5.57118991300439100e-09 
5.13320629928527172e-06 0.00000000000000000e+00 3.40069451571210739e-06 
5.13296679302988073e-06 0.00000000000000000e+00 3.40067073837397632e-06 
-4.66480908057640900e-09 0.00000000000000000e+00 5.87130132330082274e-09 
1.03779680903054575e-05 0.00000000000000000e+00 4.29745501563316551e-06 
1.03779239148032002e-05 0.00000000000000000e+00 4.29841294000508404e-06 
1.63088979531720785e-05 0.00000000000000000e+00 4.90078913978402326e-06 
1.63066213304487775e-05 0.00000000000000000e+00 4.90180843780895312e-06 
2.31077473110938877e-05 0.00000000000000000e+00 5.50046901168461907e-06 
2.31081673070093582e-05 0.00000000000000000e+00 5.50337835948504459e-06 
3.07705838053246315e-05 0.00000000000000000e+00 6.03040921387816158e-06 
3.07710739643624742e-05 0.00000000000000000e+00 6.03085313539218565e-06 
3.90314480275123264e-05 0.00000000000000000e+00 6.39666635215227536e-06 
3.90317235750385085e-05 0.00000000000000000e+00 6.39581504710202669e-06 
4.76192520812186167e-05 0.00000000000000000e+00 6.60533710249228137e-06 
4.76192011756752185e-05 0.00000000000000000e+00 6.60474412745333133e-06 
5.63570670713531467e-05 0.00000000000000000e+00 6.69633438736814176e-06 
5.63570864685692053e-05 0.00000000000000000e+00 6.69659680903449133e-06 
6.51222347063805287e-05 0.00000000000000000e+00 6.71744892663366373e-06 
6.51227669338563922e-05 0.00000000000000000e+00 6.71726532342427683e-06 
7.38350991319639227e-05 0.00000000000000000e+00 6.72265156236208316e-06 
7.38332700938263694e-05 0.00000000000000000e+00 6.72202306805088932e-06 
7.39130907783715771e-05 0.00000000000000000e+00 -6.40338365076986841e-06 
7.39133640494824766e-05 0.00000000000000000e+00 -6.40345458695623411e-06 
-6.98753921806299807e-09 0.00000000000000000e+00 -7.12526117649463702e-09 
-7.42202048470369022e-09 0.00000000000000000e+00 -7.46972753023194679e-09 
4.07593491682626480e-06 0.00000000000000000e+00 -3.33655990783137797e-06 
4.07594611335533128e-06 0.00000000000000000e+00 -3.33679532637564276e-06 
9.96017174175692540e-06 0.00000000000000000e+00 -4.33454668222055499e-06 
9.96230295246203700e-06 0.00000000000000000e+00 -4.33398354598556122e-06 
1.62371823111971520e-05 0.00000000000000000e+00 -4.83029109815655778e-06 
1.62371686076232658e-05 0.00000000000000000e+00 -4.82950252988822273e-06 
2.31171024590320719e-05 0.00000000000000000e+00 -5.35420917610050359e-06 
2.31172761516058405e-05 0.00000000000000000e+00 -5.35301387609018548e-06 
3.07453429493298889e-05 0.00000000000000000e+00 -5.84436241205798187e-06 
3.07449915205666762e-05 0.00000000000000000e+00 -5.84377859637411384e-06 
3.89766839334157347e-05 0.00000000000000000e+00 -6.18704963759792455e-06 
3.89762955436930892e-05 0.00000000000000000e+00 -6.18760606816128380e-06 
4.75741388169571448e-05 0.00000000000000000e+00 -6.36983022228207058e-06 
4.75744255049607360e-05 0.00000000000000000e+00 -6.37026731632211333e-06 
5.63462723455959981e-05 0.00000000000000000e+00 -6.43136050863206133e-06 
5.63462008161750552e-05 0.00000000000000000e+00 -6.43239482102364427e-06 
6.51476274222811811e-05 0.00000000000000000e+00 -6.42655493315220199e-06 
6.51474236083252073e-05 0.00000000000000000e+00 -6.42660901989598575e-06 

