# vtk DataFile Version 2.0

ASCII

DATASET UNSTRUCTURED_GRID

POINTS 21 double 

0.00000000000000000e+00  6.00000000000000099e-03  4.00000000000000008e-03
0.00000000000000000e+00  6.00000000000000099e-03  1.20000000000000020e-02
0.00000000000000000e+00  6.00000000000000099e-03  2.00000000000000004e-02
0.00000000000000000e+00  5.99999999999999926e-03  2.80000000000000041e-02
0.00000000000000000e+00  6.00000000000000099e-03  3.60000000000000042e-02
0.00000000000000000e+00  6.00000000000000099e-03  4.39999999999999974e-02
0.00000000000000000e+00  6.00000000000000099e-03  5.19999999999999976e-02
0.00000000000000000e+00  5.99999999999999926e-03  5.99999999999999908e-02
0.00000000000000000e+00  5.99999999999999926e-03  6.79999999999999910e-02
0.00000000000000000e+00  6.00000000000000012e-03  7.59999999999999981e-02
6.00000000000000099e-03  6.00000000000000099e-03  8.00000000000000017e-02
1.20000000000000020e-02  6.00000000000000099e-03  4.00000000000000008e-03
1.20000000000000020e-02  6.00000000000000099e-03  1.19999999999999985e-02
1.20000000000000020e-02  6.00000000000000099e-03  2.00000000000000004e-02
1.20000000000000020e-02  6.00000000000000099e-03  2.80000000000000041e-02
1.20000000000000020e-02  6.00000000000000099e-03  3.59999999999999973e-02
1.20000000000000020e-02  6.00000000000000099e-03  4.40000000000000044e-02
1.20000000000000020e-02  6.00000000000000099e-03  5.19999999999999976e-02
1.20000000000000020e-02  6.00000000000000099e-03  5.99999999999999978e-02
1.20000000000000002e-02  5.99999999999999926e-03  6.79999999999999910e-02
1.20000000000000002e-02  6.00000000000000012e-03  7.59999999999999981e-02

CELLS 0 0


CELL_TYPES 0


POINT_DATA 21

SCALARS Rank unsigned_int
LOOKUP_TABLE default
0 0 0 0 0 0 0 0 0 0 0 0 0 0 0 0 0 0 0 0 0 

VECTORS Forces0 double
1.45766081851696021e-04 3.36824251491886451e-22 -1.20422723125256655e-08 
1.36512093460472092e-04 5.88038732975198953e-25 -1.18318865493812382e-08 
1.25117550879178620e-04 1.68395089428393751e-22 -9.05234871263606819e-09 
1.11947382243132739e-04 3.35810328584647845e-22 -1.61480616529937559e-09 
9.72686405651959700e-05 5.48806547417766499e-29 9.77825932495449213e-09 
8.12231980198065167e-05 1.68373989192445938e-22 2.45301855404505149e-08 
6.38418740640512406e-05 3.37833700994509808e-22 4.21419566204010835e-08 
4.50015480936584631e-05 3.36715095132687274e-22 6.26392530197407783e-08 
2.40066258777609443e-05 1.68341710112373382e-22 8.78844283998638185e-08 
-9.07843768190788631e-08 -3.36624772160786644e-22 1.09385025639138591e-07 
1.50241374326803901e-07 -2.51027896868955009e-22 1.04696129050871431e-04 
-1.49763216509329531e-05 1.68314815793653945e-22 1.16974943469311484e-09 
-7.37859713887556479e-06 4.49467240597080721e-30 -6.68936200602801871e-10 
1.29040118531626889e-07 5.04995194988041823e-22 -3.92094137828947058e-09 
7.54498763655657880e-06 -6.50042772724912631e-26 -8.58766130846610268e-09 
1.48771025063623580e-05 1.68218153032488250e-22 -1.42396144389614989e-08 
2.21458049677813613e-05 1.68352842670568382e-22 -2.06138274628595621e-08 
2.94192509023032849e-05 1.68359896188393612e-22 -2.80250810917465628e-08 
3.66309816822132480e-05 1.68369266447570059e-22 -3.49710523738142869e-08 
4.33756076574227901e-05 2.58948679400859358e-29 -3.44031093076433446e-08 
5.42235414155204003e-05 -5.32464844588679601e-52 -4.60225063832318672e-08 

