# vtk DataFile Version 2.0

ASCII

DATASET UNSTRUCTURED_GRID

POINTS 21 double 

0.00000000000000000e+00  6.00000000000000099e-03  4.00000000000000008e-03
0.00000000000000000e+00  6.00000000000000099e-03  1.20000000000000020e-02
0.00000000000000000e+00  6.00000000000000099e-03  2.00000000000000004e-02
0.00000000000000000e+00  5.99999999999999926e-03  2.80000000000000041e-02
0.00000000000000000e+00  6.00000000000000099e-03  3.60000000000000042e-02
0.00000000000000000e+00  6.00000000000000099e-03  4.39999999999999974e-02
0.00000000000000000e+00  6.00000000000000099e-03  5.19999999999999976e-02
0.00000000000000000e+00  5.99999999999999926e-03  5.99999999999999908e-02
0.00000000000000000e+00  5.99999999999999926e-03  6.79999999999999910e-02
0.00000000000000000e+00  6.00000000000000012e-03  7.59999999999999981e-02
6.00000000000000099e-03  6.00000000000000099e-03  8.00000000000000017e-02
1.20000000000000020e-02  6.00000000000000099e-03  4.00000000000000008e-03
1.20000000000000020e-02  6.00000000000000099e-03  1.19999999999999985e-02
1.20000000000000020e-02  6.00000000000000099e-03  2.00000000000000004e-02
1.20000000000000020e-02  6.00000000000000099e-03  2.80000000000000041e-02
1.20000000000000020e-02  6.00000000000000099e-03  3.59999999999999973e-02
1.20000000000000020e-02  6.00000000000000099e-03  4.40000000000000044e-02
1.20000000000000020e-02  6.00000000000000099e-03  5.19999999999999976e-02
1.20000000000000020e-02  6.00000000000000099e-03  5.99999999999999978e-02
1.20000000000000002e-02  5.99999999999999926e-03  6.79999999999999910e-02
1.20000000000000002e-02  6.00000000000000012e-03  7.59999999999999981e-02

CELLS 0 0


CELL_TYPES 0


POINT_DATA 21

SCALARS Rank unsigned_int
LOOKUP_TABLE default
0 0 0 0 0 0 0 0 0 0 0 0 0 0 0 0 0 0 0 0 0 

VECTORS Forces0 double
2.38546231097163525e-01 0.00000000000000000e+00 -3.11030083551718482e-02 
2.29475414400731575e-01 4.17679413964948818e-20 -7.33155971663260325e-02 
1.96997522174629652e-01 -1.73786735521229101e-18 -9.55061701734697260e-02 
1.48402394817252037e-01 -1.98871935729599602e-20 -9.22838152642689313e-02 
1.03231997146180338e-01 1.56269308287960133e-24 -7.57732639555082493e-02 
7.51629131060248118e-02 1.82922604452684059e-20 -6.16389602101564890e-02 
6.03353205487713248e-02 1.42356741447450708e-18 -5.29901290639491485e-02 
4.97945061430836999e-02 5.60519385729926828e-45 -4.54289492873124964e-02 
4.45247780121685519e-02 1.06722635126637974e-18 -4.12707052814016290e-02 
4.39529016341952128e-02 1.20995456345676850e-20 -4.08195683416918073e-02 
-1.52792003531565480e-03 -7.69954793199237021e-20 -1.61476709244496924e-03 
-2.99540405253292236e-04 -2.95565214033256067e-27 3.77335485439568458e-05 
-2.99637354192353565e-04 1.05151298176233286e-26 9.85651833866176751e-05 
-2.84244287312731777e-04 -1.14344563967605200e-22 1.39756199429678387e-04 
-2.61298627141296554e-04 2.04300820657141997e-25 1.63883848864097669e-04 
-2.37579884625734668e-04 1.35639794645988396e-22 1.75347161887828813e-04 
-2.13993361886955619e-04 -2.29528113636386788e-25 1.76031779926517218e-04 
-1.90003454069891038e-04 1.57207710199843611e-22 1.67258044753865100e-04 
-1.68933059487690290e-04 3.90935655300644792e-21 1.54392871779015915e-04 
-1.48408834545165036e-04 -3.38365556024856559e-21 1.37731796277813909e-04 
-1.13706893517939676e-04 3.05236820381596875e-22 1.05242135773405166e-04 

