# vtk DataFile Version 2.0

ASCII

DATASET UNSTRUCTURED_GRID

POINTS 21 double 

0.00000000000000000e+00  6.00000000000000099e-03  4.00000000000000008e-03
0.00000000000000000e+00  6.00000000000000099e-03  1.20000000000000020e-02
0.00000000000000000e+00  6.00000000000000099e-03  2.00000000000000004e-02
0.00000000000000000e+00  5.99999999999999926e-03  2.80000000000000041e-02
0.00000000000000000e+00  6.00000000000000099e-03  3.60000000000000042e-02
0.00000000000000000e+00  6.00000000000000099e-03  4.39999999999999974e-02
0.00000000000000000e+00  6.00000000000000099e-03  5.19999999999999976e-02
0.00000000000000000e+00  5.99999999999999926e-03  5.99999999999999908e-02
0.00000000000000000e+00  5.99999999999999926e-03  6.79999999999999910e-02
0.00000000000000000e+00  6.00000000000000012e-03  7.59999999999999981e-02
6.00000000000000099e-03  6.00000000000000099e-03  8.00000000000000017e-02
1.20000000000000020e-02  6.00000000000000099e-03  4.00000000000000008e-03
1.20000000000000020e-02  6.00000000000000099e-03  1.19999999999999985e-02
1.20000000000000020e-02  6.00000000000000099e-03  2.00000000000000004e-02
1.20000000000000020e-02  6.00000000000000099e-03  2.80000000000000041e-02
1.20000000000000020e-02  6.00000000000000099e-03  3.59999999999999973e-02
1.20000000000000020e-02  6.00000000000000099e-03  4.40000000000000044e-02
1.20000000000000020e-02  6.00000000000000099e-03  5.19999999999999976e-02
1.20000000000000020e-02  6.00000000000000099e-03  5.99999999999999978e-02
1.20000000000000002e-02  5.99999999999999926e-03  6.79999999999999910e-02
1.20000000000000002e-02  6.00000000000000012e-03  7.59999999999999981e-02

CELLS 0 0


CELL_TYPES 0


POINT_DATA 21

SCALARS Rank unsigned_int
LOOKUP_TABLE default
0 0 0 0 0 0 0 0 0 0 0 0 0 0 0 0 0 0 0 0 0 

VECTORS Forces0 double
5.28218047661551272e-03 3.81157760162148790e-22 -2.05865681093460568e-06 
2.59040417429168279e-03 1.70875813005438746e-22 -1.13736209740755514e-06 
1.07989859380864086e-03 1.82766514408301414e-22 -1.82840874221308648e-07 
5.48334588880551783e-04 1.63445465519913965e-22 2.15718560168949185e-07 
3.84797401329584456e-04 -6.61163688956318145e-31 2.67347035023754364e-07 
2.75588924597162076e-04 4.51750318798522267e-29 2.74914899772366677e-07 
1.74991303366718050e-04 1.68465358910940766e-22 3.15788739134981188e-07 
9.53672072372913028e-05 1.68372929256119858e-22 3.64398952827311602e-07 
3.30925955908578903e-05 5.30665107557072528e-30 4.17588512763396250e-07 
-2.54770901021187153e-05 1.69138024133296593e-22 4.62529486237937155e-07 
3.59075750272517867e-07 2.53427745081049313e-22 3.55498150639740743e-04 
1.37541445349968935e-05 3.18029008446728095e-30 -4.47053900763443476e-09 
2.16764277341167047e-05 3.73592589053084821e-25 -1.47290283093343707e-08 
2.99243563626076090e-05 2.82859697328029662e-31 -2.58317321294989795e-08 
3.85349879660441534e-05 1.34810545975171355e-33 -3.80869952268758796e-08 
4.75958473077926685e-05 1.68336103251513467e-22 -5.09625699245866381e-08 
5.71801871467774025e-05 1.68349246225750998e-22 -6.36745516534857519e-08 
6.75112252513818893e-05 1.70689507428190890e-22 -7.47801250376212616e-08 
7.94669062163233238e-05 1.71119258299569262e-22 -8.16622133195944103e-08 
9.63924021698793162e-05 3.36820929096231320e-22 -9.43222728131347249e-08 
1.06904460714777640e-04 1.68469013609220472e-22 -1.20094616118445356e-07 

