# vtk DataFile Version 2.0

ASCII

DATASET UNSTRUCTURED_GRID

POINTS 44 double 

0.00000000000000000e+00  1.20000000000000002e-02  0.00000000000000000e+00
0.00000000000000000e+00  1.20000000000000002e-02  8.00000000000000017e-03
0.00000000000000000e+00  0.00000000000000000e+00  8.00000000000000017e-03
0.00000000000000000e+00  0.00000000000000000e+00  0.00000000000000000e+00
0.00000000000000000e+00  1.20000000000000002e-02  1.60000000000000003e-02
0.00000000000000000e+00  0.00000000000000000e+00  1.60000000000000003e-02
0.00000000000000000e+00  1.20000000000000002e-02  2.40000000000000005e-02
0.00000000000000000e+00  0.00000000000000000e+00  2.40000000000000005e-02
0.00000000000000000e+00  1.20000000000000002e-02  3.20000000000000007e-02
0.00000000000000000e+00  0.00000000000000000e+00  3.20000000000000007e-02
0.00000000000000000e+00  1.20000000000000002e-02  4.00000000000000008e-02
0.00000000000000000e+00  0.00000000000000000e+00  4.00000000000000008e-02
0.00000000000000000e+00  1.20000000000000002e-02  4.80000000000000010e-02
0.00000000000000000e+00  0.00000000000000000e+00  4.80000000000000010e-02
0.00000000000000000e+00  1.20000000000000002e-02  5.60000000000000012e-02
0.00000000000000000e+00  0.00000000000000000e+00  5.60000000000000012e-02
0.00000000000000000e+00  1.20000000000000002e-02  6.40000000000000013e-02
0.00000000000000000e+00  0.00000000000000000e+00  6.40000000000000013e-02
0.00000000000000000e+00  1.20000000000000002e-02  7.19999999999999946e-02
0.00000000000000000e+00  0.00000000000000000e+00  7.19999999999999946e-02
0.00000000000000000e+00  1.20000000000000002e-02  8.00000000000000017e-02
0.00000000000000000e+00  0.00000000000000000e+00  8.00000000000000017e-02
1.20000000000000002e-02  1.20000000000000002e-02  8.00000000000000017e-02
1.20000000000000002e-02  0.00000000000000000e+00  8.00000000000000017e-02
1.20000000000000002e-02  1.20000000000000002e-02  0.00000000000000000e+00
1.20000000000000002e-02  0.00000000000000000e+00  0.00000000000000000e+00
1.20000000000000002e-02  0.00000000000000000e+00  8.00000000000000017e-03
1.20000000000000002e-02  1.20000000000000002e-02  8.00000000000000017e-03
1.20000000000000002e-02  0.00000000000000000e+00  1.60000000000000003e-02
1.20000000000000002e-02  1.20000000000000002e-02  1.60000000000000003e-02
1.20000000000000002e-02  0.00000000000000000e+00  2.40000000000000005e-02
1.20000000000000002e-02  1.20000000000000002e-02  2.40000000000000005e-02
1.20000000000000002e-02  0.00000000000000000e+00  3.20000000000000007e-02
1.20000000000000002e-02  1.20000000000000002e-02  3.20000000000000007e-02
1.20000000000000002e-02  0.00000000000000000e+00  4.00000000000000008e-02
1.20000000000000002e-02  1.20000000000000002e-02  4.00000000000000008e-02
1.20000000000000002e-02  0.00000000000000000e+00  4.80000000000000010e-02
1.20000000000000002e-02  1.20000000000000002e-02  4.80000000000000010e-02
1.20000000000000002e-02  0.00000000000000000e+00  5.60000000000000012e-02
1.20000000000000002e-02  1.20000000000000002e-02  5.60000000000000012e-02
1.20000000000000002e-02  0.00000000000000000e+00  6.40000000000000013e-02
1.20000000000000002e-02  1.20000000000000002e-02  6.40000000000000013e-02
1.20000000000000002e-02  0.00000000000000000e+00  7.19999999999999946e-02
1.20000000000000002e-02  1.20000000000000002e-02  7.19999999999999946e-02

CELLS 0 0


CELL_TYPES 0


POINT_DATA 44

SCALARS Rank unsigned_int
LOOKUP_TABLE default
0 0 0 0 0 0 0 0 0 0 0 0 0 0 0 0 0 0 0 0 0 0 0 0 0 0 0 0 0 0 0 0 0 0 0 0 0 0 0 0 0 0 0 0 

VECTORS Displacements0 double
1.54450660221090635e-06 0.00000000000000000e+00 -6.98847082151490748e-08 
5.40829922761309253e-04 0.00000000000000000e+00 4.11285304489772050e-04 
5.40837652713510369e-04 0.00000000000000000e+00 4.11274478865248337e-04 
1.53596118146448989e-06 0.00000000000000000e+00 -8.71340340751267225e-09 
1.38192988214434417e-03 0.00000000000000000e+00 4.94124682990046762e-04 
1.38166813685257654e-03 0.00000000000000000e+00 4.94384084593746777e-04 
2.18809500532169202e-03 0.00000000000000000e+00 3.69487955502826432e-04 
2.18793031214751599e-03 0.00000000000000000e+00 3.69579821521264353e-04 
2.73294627175692034e-03 0.00000000000000000e+00 1.42387957236526133e-04 
2.73448903883578842e-03 0.00000000000000000e+00 1.42452156270710128e-04 
2.93799978116883204e-03 0.00000000000000000e+00 -1.12483085536461554e-04 
2.93798628382033493e-03 0.00000000000000000e+00 -1.13175618081900128e-04 
2.80882699770677131e-03 0.00000000000000000e+00 -3.46640290424374276e-04 
2.80837028530510737e-03 0.00000000000000000e+00 -3.46843549622648825e-04 
2.40298530909654855e-03 0.00000000000000000e+00 -5.31935878525095752e-04 
2.40299959857559562e-03 0.00000000000000000e+00 -5.31727539486985426e-04 
1.80890099670595389e-03 0.00000000000000000e+00 -6.60889380661697375e-04 
1.80892483703182444e-03 0.00000000000000000e+00 -6.61062859835457846e-04 
1.11940169089025181e-03 0.00000000000000000e+00 -7.36653587634171665e-04 
1.11933917606694727e-03 0.00000000000000000e+00 -7.36596121269932199e-04 
4.14440121622653432e-04 0.00000000000000000e+00 -7.73910497478587020e-04 
4.14450386704084896e-04 0.00000000000000000e+00 -7.74012292057049689e-04 
3.67900848280190555e-04 0.00000000000000000e+00 2.72495556460066379e-04 
3.67898300303961243e-04 0.00000000000000000e+00 2.72552179822270263e-04 
2.26619097078099621e-06 0.00000000000000000e+00 -2.59664964674521206e-08 
2.24165935420025448e-06 0.00000000000000000e+00 -3.61357736075644748e-08 
4.68799913848575638e-04 0.00000000000000000e+00 -4.77656626168204170e-04 
4.68717148679634148e-04 0.00000000000000000e+00 -4.77658256278996180e-04 
1.29164808613164159e-03 0.00000000000000000e+00 -6.50854192854871802e-04 
1.29154732467360212e-03 0.00000000000000000e+00 -6.51516947833447350e-04 
2.11066787809486688e-03 0.00000000000000000e+00 -6.07339339226716413e-04 
2.11064177369690116e-03 0.00000000000000000e+00 -6.07060026633201590e-04 
2.68874440835371008e-03 0.00000000000000000e+00 -4.25254894653063402e-04 
2.68831170982702320e-03 0.00000000000000000e+00 -4.25817922680471895e-04 
2.91603735946081117e-03 0.00000000000000000e+00 -1.85339147578545652e-04 
2.91616469339604951e-03 0.00000000000000000e+00 -1.85854158401521066e-04 
2.78617270295681337e-03 0.00000000000000000e+00 3.81911423474312335e-05 
2.78651859419559852e-03 0.00000000000000000e+00 3.81255166631064952e-05 
2.37129739368979395e-03 0.00000000000000000e+00 1.97983621105437201e-04 
2.37135338112228139e-03 0.00000000000000000e+00 1.98139423350181091e-04 
1.76896253123970826e-03 0.00000000000000000e+00 2.80722016077269900e-04 
1.76913996481574062e-03 0.00000000000000000e+00 2.81421742505567679e-04 
1.07471319022568648e-03 0.00000000000000000e+00 2.97544109795795132e-04 
1.07469473532130749e-03 0.00000000000000000e+00 2.97549891060363224e-04 

