# vtk DataFile Version 2.0

ASCII

DATASET UNSTRUCTURED_GRID

POINTS 44 double 

0.00000000000000000e+00  1.20000000000000002e-02  0.00000000000000000e+00
0.00000000000000000e+00  1.20000000000000002e-02  8.00000000000000017e-03
0.00000000000000000e+00  0.00000000000000000e+00  8.00000000000000017e-03
0.00000000000000000e+00  0.00000000000000000e+00  0.00000000000000000e+00
0.00000000000000000e+00  1.20000000000000002e-02  1.60000000000000003e-02
0.00000000000000000e+00  0.00000000000000000e+00  1.60000000000000003e-02
0.00000000000000000e+00  1.20000000000000002e-02  2.40000000000000005e-02
0.00000000000000000e+00  0.00000000000000000e+00  2.40000000000000005e-02
0.00000000000000000e+00  1.20000000000000002e-02  3.20000000000000007e-02
0.00000000000000000e+00  0.00000000000000000e+00  3.20000000000000007e-02
0.00000000000000000e+00  1.20000000000000002e-02  4.00000000000000008e-02
0.00000000000000000e+00  0.00000000000000000e+00  4.00000000000000008e-02
0.00000000000000000e+00  1.20000000000000002e-02  4.80000000000000010e-02
0.00000000000000000e+00  0.00000000000000000e+00  4.80000000000000010e-02
0.00000000000000000e+00  1.20000000000000002e-02  5.60000000000000012e-02
0.00000000000000000e+00  0.00000000000000000e+00  5.60000000000000012e-02
0.00000000000000000e+00  1.20000000000000002e-02  6.40000000000000013e-02
0.00000000000000000e+00  0.00000000000000000e+00  6.40000000000000013e-02
0.00000000000000000e+00  1.20000000000000002e-02  7.19999999999999946e-02
0.00000000000000000e+00  0.00000000000000000e+00  7.19999999999999946e-02
0.00000000000000000e+00  1.20000000000000002e-02  8.00000000000000017e-02
0.00000000000000000e+00  0.00000000000000000e+00  8.00000000000000017e-02
1.20000000000000002e-02  1.20000000000000002e-02  8.00000000000000017e-02
1.20000000000000002e-02  0.00000000000000000e+00  8.00000000000000017e-02
1.20000000000000002e-02  1.20000000000000002e-02  0.00000000000000000e+00
1.20000000000000002e-02  0.00000000000000000e+00  0.00000000000000000e+00
1.20000000000000002e-02  0.00000000000000000e+00  8.00000000000000017e-03
1.20000000000000002e-02  1.20000000000000002e-02  8.00000000000000017e-03
1.20000000000000002e-02  0.00000000000000000e+00  1.60000000000000003e-02
1.20000000000000002e-02  1.20000000000000002e-02  1.60000000000000003e-02
1.20000000000000002e-02  0.00000000000000000e+00  2.40000000000000005e-02
1.20000000000000002e-02  1.20000000000000002e-02  2.40000000000000005e-02
1.20000000000000002e-02  0.00000000000000000e+00  3.20000000000000007e-02
1.20000000000000002e-02  1.20000000000000002e-02  3.20000000000000007e-02
1.20000000000000002e-02  0.00000000000000000e+00  4.00000000000000008e-02
1.20000000000000002e-02  1.20000000000000002e-02  4.00000000000000008e-02
1.20000000000000002e-02  0.00000000000000000e+00  4.80000000000000010e-02
1.20000000000000002e-02  1.20000000000000002e-02  4.80000000000000010e-02
1.20000000000000002e-02  0.00000000000000000e+00  5.60000000000000012e-02
1.20000000000000002e-02  1.20000000000000002e-02  5.60000000000000012e-02
1.20000000000000002e-02  0.00000000000000000e+00  6.40000000000000013e-02
1.20000000000000002e-02  1.20000000000000002e-02  6.40000000000000013e-02
1.20000000000000002e-02  0.00000000000000000e+00  7.19999999999999946e-02
1.20000000000000002e-02  1.20000000000000002e-02  7.19999999999999946e-02

CELLS 0 0


CELL_TYPES 0


POINT_DATA 44

SCALARS Rank unsigned_int
LOOKUP_TABLE default
0 0 0 0 0 0 0 0 0 0 0 0 0 0 0 0 0 0 0 0 0 0 0 0 0 0 0 0 0 0 0 0 0 0 0 0 0 0 0 0 0 0 0 0 

VECTORS Displacements0 double
-4.12038697386383516e-06 0.00000000000000000e+00 5.23037334706319111e-06 
1.18212881418956230e-03 0.00000000000000000e+00 1.06510507323833358e-03 
1.18198953135551128e-03 0.00000000000000000e+00 1.06529928725541435e-03 
-4.48022973960522652e-06 0.00000000000000000e+00 5.61533883379136678e-06 
3.98646330256931161e-03 0.00000000000000000e+00 1.54604696395995757e-03 
3.98599231231049848e-03 0.00000000000000000e+00 1.54639037646631984e-03 
7.97879180710699305e-03 0.00000000000000000e+00 1.33244909289758923e-03 
7.97881377716679573e-03 0.00000000000000000e+00 1.33291525452631805e-03 
1.27622437380169561e-02 0.00000000000000000e+00 4.54543205979775732e-04 
1.27638233539993269e-02 0.00000000000000000e+00 4.54911954567255652e-04 
1.80598731289393771e-02 0.00000000000000000e+00 -9.87312461218468537e-04 
1.80597169423444039e-02 0.00000000000000000e+00 -9.87603998604475244e-04 
2.36633969294174420e-02 0.00000000000000000e+00 -2.86743223787776398e-03 
2.36631570055453253e-02 0.00000000000000000e+00 -2.86790889812315632e-03 
2.94259034697618230e-02 0.00000000000000000e+00 -5.05218287580737682e-03 
2.94254853517172052e-02 0.00000000000000000e+00 -5.05228041500972811e-03 
3.52536036672528030e-02 0.00000000000000000e+00 -7.42732218123453181e-03 
3.52538127702625853e-02 0.00000000000000000e+00 -7.42713398952986673e-03 
4.10933775093377252e-02 0.00000000000000000e+00 -9.89815679971979556e-03 
4.10934372351477381e-02 0.00000000000000000e+00 -9.89803247977078318e-03 
4.69204490293512952e-02 0.00000000000000000e+00 -1.24006864047656422e-02 
4.69210657933727890e-02 0.00000000000000000e+00 -1.24008874204197782e-02 
4.31550766500551769e-02 0.00000000000000000e+00 -2.11081012217067161e-02 
4.31552550491577577e-02 0.00000000000000000e+00 -2.11082621383269185e-02 
-7.68828273520469937e-06 0.00000000000000000e+00 -4.69513832069727862e-08 
-8.20541671761815597e-06 0.00000000000000000e+00 -8.01062196142260374e-08 
8.02671126036519356e-04 0.00000000000000000e+00 -1.51653118254953560e-03 
8.02902821621757044e-04 0.00000000000000000e+00 -1.51645541631204722e-03 
3.01062348749719759e-03 0.00000000000000000e+00 -3.02190407125711453e-03 
3.01059954639689570e-03 0.00000000000000000e+00 -3.02266946018739597e-03 
6.30069549623155610e-03 0.00000000000000000e+00 -4.69835422857449708e-03 
6.30129572007505703e-03 0.00000000000000000e+00 -4.69821774816514028e-03 
1.04233362581448857e-02 0.00000000000000000e+00 -6.61490615340897502e-03 
1.04234596842294486e-02 0.00000000000000000e+00 -6.61483626029336306e-03 
1.51723384203397895e-02 0.00000000000000000e+00 -8.76685577266785726e-03 
1.51723426801805700e-02 0.00000000000000000e+00 -8.76689738517668141e-03 
2.03689950668508660e-02 0.00000000000000000e+00 -1.11057929045302872e-02 
2.03686425501916693e-02 0.00000000000000000e+00 -1.11061118094503315e-02 
2.58684181134922891e-02 0.00000000000000000e+00 -1.35652952232638794e-02 
2.58683287412379143e-02 0.00000000000000000e+00 -1.35655982456202064e-02 
3.15578151233590967e-02 0.00000000000000000e+00 -1.60806631539734818e-02 
3.15571285270661306e-02 0.00000000000000000e+00 -1.60811670763802289e-02 
3.73429825870003271e-02 0.00000000000000000e+00 -1.86066308404204198e-02 
3.73428523583764008e-02 0.00000000000000000e+00 -1.86065826781616310e-02 

