# vtk DataFile Version 2.0

ASCII

DATASET UNSTRUCTURED_GRID

POINTS 21 double 

0.00000000000000000e+00  6.00000000000000099e-03  4.00000000000000008e-03
0.00000000000000000e+00  6.00000000000000099e-03  1.20000000000000020e-02
0.00000000000000000e+00  6.00000000000000099e-03  2.00000000000000004e-02
0.00000000000000000e+00  5.99999999999999926e-03  2.80000000000000041e-02
0.00000000000000000e+00  6.00000000000000099e-03  3.60000000000000042e-02
0.00000000000000000e+00  6.00000000000000099e-03  4.39999999999999974e-02
0.00000000000000000e+00  6.00000000000000099e-03  5.19999999999999976e-02
0.00000000000000000e+00  5.99999999999999926e-03  5.99999999999999908e-02
0.00000000000000000e+00  5.99999999999999926e-03  6.79999999999999910e-02
0.00000000000000000e+00  6.00000000000000012e-03  7.59999999999999981e-02
6.00000000000000099e-03  6.00000000000000099e-03  8.00000000000000017e-02
1.20000000000000020e-02  6.00000000000000099e-03  4.00000000000000008e-03
1.20000000000000020e-02  6.00000000000000099e-03  1.19999999999999985e-02
1.20000000000000020e-02  6.00000000000000099e-03  2.00000000000000004e-02
1.20000000000000020e-02  6.00000000000000099e-03  2.80000000000000041e-02
1.20000000000000020e-02  6.00000000000000099e-03  3.59999999999999973e-02
1.20000000000000020e-02  6.00000000000000099e-03  4.40000000000000044e-02
1.20000000000000020e-02  6.00000000000000099e-03  5.19999999999999976e-02
1.20000000000000020e-02  6.00000000000000099e-03  5.99999999999999978e-02
1.20000000000000002e-02  5.99999999999999926e-03  6.79999999999999910e-02
1.20000000000000002e-02  6.00000000000000012e-03  7.59999999999999981e-02

CELLS 0 0


CELL_TYPES 0


POINT_DATA 21

SCALARS Rank unsigned_int
LOOKUP_TABLE default
0 0 0 0 0 0 0 0 0 0 0 0 0 0 0 0 0 0 0 0 0 

VECTORS Forces0 double
4.51581530712640716e-04 1.66632309949932817e-22 -9.06597354200416640e-08 
4.26377630636277222e-04 1.68467715594838461e-22 -1.23444437952649407e-07 
3.75477122649368834e-04 3.04456550850631391e-29 -1.04532069275879860e-07 
3.13582420416342277e-04 1.68404079871486228e-22 -5.49817314279057843e-08 
2.53441224046049808e-04 -1.68388415771496308e-22 1.75307200209833785e-09 
1.98970691715733087e-04 -2.05593742231298256e-30 5.65814229456435347e-08 
1.49709410133064730e-04 3.36727657079673946e-22 1.08612278807962278e-07 
1.03593669013998343e-04 -1.15364888741311481e-29 1.59304970622795010e-07 
5.74448253012820208e-05 1.68322603048516692e-22 2.17414543768496689e-07 
6.89547922086162552e-06 -2.36205579408411788e-25 2.69880955893333835e-07 
2.92100743583986942e-07 9.60263363343889906e-28 2.49393249158559387e-04 
-8.27834090358652102e-06 -4.07831529249907783e-56 1.44190350238337601e-09 
-5.46953606326396485e-07 1.68283486676655870e-22 -2.55801175237232678e-09 
7.23595435288466943e-06 1.22438081600459352e-30 -9.47617632938549852e-09 
1.50879796768905329e-05 -2.59993516884368681e-25 -1.84673352034804222e-08 
2.30432744697476054e-05 -3.97091845575745694e-25 -2.84750086819578273e-08 
3.11294021771968930e-05 8.63297781116204795e-52 -3.88264989169320512e-08 
3.95153518435862250e-05 3.20455727637851463e-30 -4.90835878111464397e-08 
4.86482936442441733e-05 -1.67693769020154450e-24 -5.68852484443242044e-08 
5.72548738604332651e-05 -1.68404481614225156e-22 -5.50120480470840985e-08 
6.82087297131412387e-05 -1.72283471879943051e-29 -8.59092847553344604e-08 

