# vtk DataFile Version 2.0

ASCII

DATASET UNSTRUCTURED_GRID

POINTS 44 double 

0.00000000000000000e+00  1.20000000000000002e-02  0.00000000000000000e+00
0.00000000000000000e+00  1.20000000000000002e-02  8.00000000000000017e-03
0.00000000000000000e+00  0.00000000000000000e+00  8.00000000000000017e-03
0.00000000000000000e+00  0.00000000000000000e+00  0.00000000000000000e+00
0.00000000000000000e+00  1.20000000000000002e-02  1.60000000000000003e-02
0.00000000000000000e+00  0.00000000000000000e+00  1.60000000000000003e-02
0.00000000000000000e+00  1.20000000000000002e-02  2.40000000000000005e-02
0.00000000000000000e+00  0.00000000000000000e+00  2.40000000000000005e-02
0.00000000000000000e+00  1.20000000000000002e-02  3.20000000000000007e-02
0.00000000000000000e+00  0.00000000000000000e+00  3.20000000000000007e-02
0.00000000000000000e+00  1.20000000000000002e-02  4.00000000000000008e-02
0.00000000000000000e+00  0.00000000000000000e+00  4.00000000000000008e-02
0.00000000000000000e+00  1.20000000000000002e-02  4.80000000000000010e-02
0.00000000000000000e+00  0.00000000000000000e+00  4.80000000000000010e-02
0.00000000000000000e+00  1.20000000000000002e-02  5.60000000000000012e-02
0.00000000000000000e+00  0.00000000000000000e+00  5.60000000000000012e-02
0.00000000000000000e+00  1.20000000000000002e-02  6.40000000000000013e-02
0.00000000000000000e+00  0.00000000000000000e+00  6.40000000000000013e-02
0.00000000000000000e+00  1.20000000000000002e-02  7.19999999999999946e-02
0.00000000000000000e+00  0.00000000000000000e+00  7.19999999999999946e-02
0.00000000000000000e+00  1.20000000000000002e-02  8.00000000000000017e-02
0.00000000000000000e+00  0.00000000000000000e+00  8.00000000000000017e-02
1.20000000000000002e-02  1.20000000000000002e-02  8.00000000000000017e-02
1.20000000000000002e-02  0.00000000000000000e+00  8.00000000000000017e-02
1.20000000000000002e-02  1.20000000000000002e-02  0.00000000000000000e+00
1.20000000000000002e-02  0.00000000000000000e+00  0.00000000000000000e+00
1.20000000000000002e-02  0.00000000000000000e+00  8.00000000000000017e-03
1.20000000000000002e-02  1.20000000000000002e-02  8.00000000000000017e-03
1.20000000000000002e-02  0.00000000000000000e+00  1.60000000000000003e-02
1.20000000000000002e-02  1.20000000000000002e-02  1.60000000000000003e-02
1.20000000000000002e-02  0.00000000000000000e+00  2.40000000000000005e-02
1.20000000000000002e-02  1.20000000000000002e-02  2.40000000000000005e-02
1.20000000000000002e-02  0.00000000000000000e+00  3.20000000000000007e-02
1.20000000000000002e-02  1.20000000000000002e-02  3.20000000000000007e-02
1.20000000000000002e-02  0.00000000000000000e+00  4.00000000000000008e-02
1.20000000000000002e-02  1.20000000000000002e-02  4.00000000000000008e-02
1.20000000000000002e-02  0.00000000000000000e+00  4.80000000000000010e-02
1.20000000000000002e-02  1.20000000000000002e-02  4.80000000000000010e-02
1.20000000000000002e-02  0.00000000000000000e+00  5.60000000000000012e-02
1.20000000000000002e-02  1.20000000000000002e-02  5.60000000000000012e-02
1.20000000000000002e-02  0.00000000000000000e+00  6.40000000000000013e-02
1.20000000000000002e-02  1.20000000000000002e-02  6.40000000000000013e-02
1.20000000000000002e-02  0.00000000000000000e+00  7.19999999999999946e-02
1.20000000000000002e-02  1.20000000000000002e-02  7.19999999999999946e-02

CELLS 0 0


CELL_TYPES 0


POINT_DATA 44

SCALARS Rank unsigned_int
LOOKUP_TABLE default
0 0 0 0 0 0 0 0 0 0 0 0 0 0 0 0 0 0 0 0 0 0 0 0 0 0 0 0 0 0 0 0 0 0 0 0 0 0 0 0 0 0 0 0 

VECTORS Displacements0 double
0.00000000000000000e+00 0.00000000000000000e+00 0.00000000000000000e+00 
2.42921800239964353e-07 0.00000000000000000e+00 2.47765744419783091e-07 
2.42944074487928497e-07 0.00000000000000000e+00 2.47773455818204221e-07 
0.00000000000000000e+00 0.00000000000000000e+00 0.00000000000000000e+00 
7.11126318720180790e-07 0.00000000000000000e+00 3.72246594438642465e-07 
7.11047206469105038e-07 0.00000000000000000e+00 3.72372727341420013e-07 
1.26739250990289241e-06 0.00000000000000000e+00 4.12552269922492939e-07 
1.26730873377938397e-06 0.00000000000000000e+00 4.12575369731070420e-07 
1.82290090946645825e-06 0.00000000000000000e+00 4.01654490089785739e-07 
1.82323105933362963e-06 0.00000000000000000e+00 4.01740961299469704e-07 
2.33364226320948658e-06 0.00000000000000000e+00 3.62659053603703885e-07 
2.33364013464740728e-06 0.00000000000000000e+00 3.62468399780982699e-07 
2.77750940017603789e-06 0.00000000000000000e+00 3.13518661973057187e-07 
2.77738742801766318e-06 0.00000000000000000e+00 3.13385729635546179e-07 
3.15128487615641182e-06 0.00000000000000000e+00 2.70933361050538612e-07 
3.15130156004933538e-06 0.00000000000000000e+00 2.70984439066654046e-07 
3.47565235005073322e-06 0.00000000000000000e+00 2.45918609261538315e-07 
3.47568162782507444e-06 0.00000000000000000e+00 2.45885798466873593e-07 
3.77698861316361425e-06 0.00000000000000000e+00 2.34692691090917168e-07 
3.77699259420148588e-06 0.00000000000000000e+00 2.34683922320136096e-07 
4.06835480709397147e-06 0.00000000000000000e+00 2.33547268742903123e-07 
4.06831203651712601e-06 0.00000000000000000e+00 2.33480773144243406e-07 
4.07992428618764650e-06 0.00000000000000000e+00 -2.14413472506159011e-07 
4.07989923225652167e-06 0.00000000000000000e+00 -2.14389466758847101e-07 
0.00000000000000000e+00 0.00000000000000000e+00 0.00000000000000000e+00 
0.00000000000000000e+00 0.00000000000000000e+00 0.00000000000000000e+00 
2.35277771949752832e-07 0.00000000000000000e+00 -2.40797798113188052e-07 
2.35244606379724963e-07 0.00000000000000000e+00 -2.40783161903157927e-07 
7.01932425121558223e-07 0.00000000000000000e+00 -3.61529706317390949e-07 
7.01882724518186399e-07 0.00000000000000000e+00 -3.61809815352891819e-07 
1.25851622859339751e-06 0.00000000000000000e+00 -3.99504270899141066e-07 
1.25856621749974464e-06 0.00000000000000000e+00 -3.99399537051894642e-07 
1.81667007428295959e-06 0.00000000000000000e+00 -3.88356900371524158e-07 
1.81658410410887215e-06 0.00000000000000000e+00 -3.88455939858431269e-07 
2.32991623600925463e-06 0.00000000000000000e+00 -3.50096753241234208e-07 
2.32990090639190735e-06 0.00000000000000000e+00 -3.50253273511945248e-07 
2.77536176044090217e-06 0.00000000000000000e+00 -3.01318497592145753e-07 
2.77545544483808372e-06 0.00000000000000000e+00 -3.01464971770243462e-07 
3.15127652468081224e-06 0.00000000000000000e+00 -2.58131621495952349e-07 
3.15130017575409025e-06 0.00000000000000000e+00 -2.58102331313580756e-07 
3.47728925197896618e-06 0.00000000000000000e+00 -2.30120652331998277e-07 
3.47735322184513303e-06 0.00000000000000000e+00 -2.29926141064923221e-07 
3.77868561383842893e-06 0.00000000000000000e+00 -2.16361547459520655e-07 
3.77865186983252341e-06 0.00000000000000000e+00 -2.16355267301241944e-07 

