# vtk DataFile Version 2.0

ASCII

DATASET UNSTRUCTURED_GRID

POINTS 21 double 

0.00000000000000000e+00  6.00000000000000099e-03  4.00000000000000008e-03
0.00000000000000000e+00  6.00000000000000099e-03  1.20000000000000020e-02
0.00000000000000000e+00  6.00000000000000099e-03  2.00000000000000004e-02
0.00000000000000000e+00  5.99999999999999926e-03  2.80000000000000041e-02
0.00000000000000000e+00  6.00000000000000099e-03  3.60000000000000042e-02
0.00000000000000000e+00  6.00000000000000099e-03  4.39999999999999974e-02
0.00000000000000000e+00  6.00000000000000099e-03  5.19999999999999976e-02
0.00000000000000000e+00  5.99999999999999926e-03  5.99999999999999908e-02
0.00000000000000000e+00  5.99999999999999926e-03  6.79999999999999910e-02
0.00000000000000000e+00  6.00000000000000012e-03  7.59999999999999981e-02
6.00000000000000099e-03  6.00000000000000099e-03  8.00000000000000017e-02
1.20000000000000020e-02  6.00000000000000099e-03  4.00000000000000008e-03
1.20000000000000020e-02  6.00000000000000099e-03  1.19999999999999985e-02
1.20000000000000020e-02  6.00000000000000099e-03  2.00000000000000004e-02
1.20000000000000020e-02  6.00000000000000099e-03  2.80000000000000041e-02
1.20000000000000020e-02  6.00000000000000099e-03  3.59999999999999973e-02
1.20000000000000020e-02  6.00000000000000099e-03  4.40000000000000044e-02
1.20000000000000020e-02  6.00000000000000099e-03  5.19999999999999976e-02
1.20000000000000020e-02  6.00000000000000099e-03  5.99999999999999978e-02
1.20000000000000002e-02  5.99999999999999926e-03  6.79999999999999910e-02
1.20000000000000002e-02  6.00000000000000012e-03  7.59999999999999981e-02

CELLS 0 0


CELL_TYPES 0


POINT_DATA 21

SCALARS Rank unsigned_int
LOOKUP_TABLE default
0 0 0 0 0 0 0 0 0 0 0 0 0 0 0 0 0 0 0 0 0 

VECTORS Forces0 double
9.98035724513772688e-05 1.68375420655483978e-22 -2.57960616993343310e-09 
9.14333583907169282e-05 1.68370467843795068e-22 -3.93997753224734864e-10 
8.23222591647505483e-05 -1.68366315878739998e-22 2.42778963712564704e-09 
7.24763762232981363e-05 1.68363344111951192e-22 6.36209909903266553e-09 
6.18902368767962189e-05 -1.68361587583830383e-22 1.07704594284161412e-08 
5.05502776068011557e-05 1.68415270036061087e-22 1.53095677965870170e-08 
3.84138892053604122e-05 -7.18116214177802586e-32 1.98765592616129500e-08 
2.53928470038648187e-05 1.68388331273252581e-22 2.46302554300687182e-08 
1.12377004695922733e-05 1.68360746033168258e-22 2.97045365915278357e-08 
-4.00636149667241749e-06 -2.25211997370723137e-30 3.23007983601070852e-08 
4.56277327900377850e-08 -7.87098055618560477e-26 5.48195211876889994e-05 
-1.52784342556686169e-05 -3.36702451897356848e-22 3.77763905522977725e-10 
-7.70850924594646905e-06 5.08544638603941345e-31 -4.20805408128339041e-10 
-2.70894836218137591e-07 -1.68360231097446018e-22 -1.46714396720804568e-09 
7.01761175834765878e-06 3.36726371228627666e-22 -2.66744175606636909e-09 
1.41397028282034031e-05 3.04571906140881572e-26 -3.88059120385409721e-09 
2.10682280199017498e-05 1.68365709227156456e-22 -5.10674417861886035e-09 
2.77626525192169256e-05 3.36761481463921051e-22 -6.47633121374705448e-09 
3.41391163815634301e-05 3.36768033799962342e-22 -8.18563809729118542e-09 
4.01189978171948141e-05 3.36731731473685112e-22 -9.50623012543806017e-09 
4.65261537888513247e-05 1.91180610427398511e-30 -1.12067672061913254e-08 

