# vtk DataFile Version 2.0

ASCII

DATASET UNSTRUCTURED_GRID

POINTS 21 double 

0.00000000000000000e+00  6.00000000000000099e-03  4.00000000000000008e-03
0.00000000000000000e+00  6.00000000000000099e-03  1.20000000000000020e-02
0.00000000000000000e+00  6.00000000000000099e-03  2.00000000000000004e-02
0.00000000000000000e+00  5.99999999999999926e-03  2.80000000000000041e-02
0.00000000000000000e+00  6.00000000000000099e-03  3.60000000000000042e-02
0.00000000000000000e+00  6.00000000000000099e-03  4.39999999999999974e-02
0.00000000000000000e+00  6.00000000000000099e-03  5.19999999999999976e-02
0.00000000000000000e+00  5.99999999999999926e-03  5.99999999999999908e-02
0.00000000000000000e+00  5.99999999999999926e-03  6.79999999999999910e-02
0.00000000000000000e+00  6.00000000000000012e-03  7.59999999999999981e-02
6.00000000000000099e-03  6.00000000000000099e-03  8.00000000000000017e-02
1.20000000000000020e-02  6.00000000000000099e-03  4.00000000000000008e-03
1.20000000000000020e-02  6.00000000000000099e-03  1.19999999999999985e-02
1.20000000000000020e-02  6.00000000000000099e-03  2.00000000000000004e-02
1.20000000000000020e-02  6.00000000000000099e-03  2.80000000000000041e-02
1.20000000000000020e-02  6.00000000000000099e-03  3.59999999999999973e-02
1.20000000000000020e-02  6.00000000000000099e-03  4.40000000000000044e-02
1.20000000000000020e-02  6.00000000000000099e-03  5.19999999999999976e-02
1.20000000000000020e-02  6.00000000000000099e-03  5.99999999999999978e-02
1.20000000000000002e-02  5.99999999999999926e-03  6.79999999999999910e-02
1.20000000000000002e-02  6.00000000000000012e-03  7.59999999999999981e-02

CELLS 0 0


CELL_TYPES 0


POINT_DATA 21

SCALARS Rank unsigned_int
LOOKUP_TABLE default
0 0 0 0 0 0 0 0 0 0 0 0 0 0 0 0 0 0 0 0 0 

VECTORS Forces0 double
9.04425837731043187e-05 -3.98271186238569726e-34 -8.95040802672365079e-11 
8.21609094960122611e-05 -3.45671404854311620e-28 2.10178757203866512e-10 
7.32784111547194410e-05 -5.00600798378522799e-35 3.73318079064934343e-10 
6.37905900870484085e-05 -2.68382864633506936e-28 5.44330380336849099e-10 
5.36867492768880870e-05 1.68363253274775232e-22 7.03365611312391534e-10 
4.29446268790317309e-05 1.23295212661626755e-35 8.57478584939763182e-10 
3.15215871450265055e-05 1.68363254216578720e-22 1.03543481040601016e-09 
1.93358605627130905e-05 3.47255151401323100e-35 1.23598425611841740e-09 
6.22637190327713695e-06 -2.61946765371081176e-29 1.48016135573932237e-09 
-8.13887184155421952e-06 -6.84850520104906674e-29 1.50364705150492522e-09 
2.29870405305263724e-09 2.53431234744376181e-22 5.08345673658596177e-05 
-1.56537589908914247e-05 1.68363200610167254e-22 1.59894469226014728e-12 
-8.10242477587587390e-06 1.68363291088351800e-22 -4.61904968119745962e-11 
-6.84495811472869927e-07 4.74570165929866416e-35 -8.28739532228580777e-11 
6.58841527393762494e-06 3.36726528721844764e-22 -1.21499432373153558e-10 
1.36958504990299322e-05 3.36726521125004835e-22 -1.66061877110462614e-10 
2.06050115280589302e-05 1.68363261992380117e-22 -2.21837960796903132e-10 
2.72635860107877940e-05 3.36726478010623738e-22 -2.90859279827093624e-10 
3.35848028531834936e-05 -6.87936677166227232e-35 -3.80511062719693473e-10 
3.94148810050845447e-05 -8.29138110022807617e-29 -5.18206321756134072e-10 
4.44563761642267300e-05 -1.78060066673066741e-34 -5.07999186484411687e-10 

