# vtk DataFile Version 2.0

ASCII

DATASET UNSTRUCTURED_GRID

POINTS 44 double 

0.00000000000000000e+00  1.20000000000000002e-02  0.00000000000000000e+00
0.00000000000000000e+00  1.20000000000000002e-02  8.00000000000000017e-03
0.00000000000000000e+00  0.00000000000000000e+00  8.00000000000000017e-03
0.00000000000000000e+00  0.00000000000000000e+00  0.00000000000000000e+00
0.00000000000000000e+00  1.20000000000000002e-02  1.60000000000000003e-02
0.00000000000000000e+00  0.00000000000000000e+00  1.60000000000000003e-02
0.00000000000000000e+00  1.20000000000000002e-02  2.40000000000000005e-02
0.00000000000000000e+00  0.00000000000000000e+00  2.40000000000000005e-02
0.00000000000000000e+00  1.20000000000000002e-02  3.20000000000000007e-02
0.00000000000000000e+00  0.00000000000000000e+00  3.20000000000000007e-02
0.00000000000000000e+00  1.20000000000000002e-02  4.00000000000000008e-02
0.00000000000000000e+00  0.00000000000000000e+00  4.00000000000000008e-02
0.00000000000000000e+00  1.20000000000000002e-02  4.80000000000000010e-02
0.00000000000000000e+00  0.00000000000000000e+00  4.80000000000000010e-02
0.00000000000000000e+00  1.20000000000000002e-02  5.60000000000000012e-02
0.00000000000000000e+00  0.00000000000000000e+00  5.60000000000000012e-02
0.00000000000000000e+00  1.20000000000000002e-02  6.40000000000000013e-02
0.00000000000000000e+00  0.00000000000000000e+00  6.40000000000000013e-02
0.00000000000000000e+00  1.20000000000000002e-02  7.19999999999999946e-02
0.00000000000000000e+00  0.00000000000000000e+00  7.19999999999999946e-02
0.00000000000000000e+00  1.20000000000000002e-02  8.00000000000000017e-02
0.00000000000000000e+00  0.00000000000000000e+00  8.00000000000000017e-02
1.20000000000000002e-02  1.20000000000000002e-02  8.00000000000000017e-02
1.20000000000000002e-02  0.00000000000000000e+00  8.00000000000000017e-02
1.20000000000000002e-02  1.20000000000000002e-02  0.00000000000000000e+00
1.20000000000000002e-02  0.00000000000000000e+00  0.00000000000000000e+00
1.20000000000000002e-02  0.00000000000000000e+00  8.00000000000000017e-03
1.20000000000000002e-02  1.20000000000000002e-02  8.00000000000000017e-03
1.20000000000000002e-02  0.00000000000000000e+00  1.60000000000000003e-02
1.20000000000000002e-02  1.20000000000000002e-02  1.60000000000000003e-02
1.20000000000000002e-02  0.00000000000000000e+00  2.40000000000000005e-02
1.20000000000000002e-02  1.20000000000000002e-02  2.40000000000000005e-02
1.20000000000000002e-02  0.00000000000000000e+00  3.20000000000000007e-02
1.20000000000000002e-02  1.20000000000000002e-02  3.20000000000000007e-02
1.20000000000000002e-02  0.00000000000000000e+00  4.00000000000000008e-02
1.20000000000000002e-02  1.20000000000000002e-02  4.00000000000000008e-02
1.20000000000000002e-02  0.00000000000000000e+00  4.80000000000000010e-02
1.20000000000000002e-02  1.20000000000000002e-02  4.80000000000000010e-02
1.20000000000000002e-02  0.00000000000000000e+00  5.60000000000000012e-02
1.20000000000000002e-02  1.20000000000000002e-02  5.60000000000000012e-02
1.20000000000000002e-02  0.00000000000000000e+00  6.40000000000000013e-02
1.20000000000000002e-02  1.20000000000000002e-02  6.40000000000000013e-02
1.20000000000000002e-02  0.00000000000000000e+00  7.19999999999999946e-02
1.20000000000000002e-02  1.20000000000000002e-02  7.19999999999999946e-02

CELLS 0 0


CELL_TYPES 0


POINT_DATA 44

SCALARS Rank unsigned_int
LOOKUP_TABLE default
0 0 0 0 0 0 0 0 0 0 0 0 0 0 0 0 0 0 0 0 0 0 0 0 0 0 0 0 0 0 0 0 0 0 0 0 0 0 0 0 0 0 0 0 

VECTORS Displacements0 double
0.00000000000000000e+00 0.00000000000000000e+00 0.00000000000000000e+00 
1.25089667600356174e-07 0.00000000000000000e+00 1.17436996177629433e-07 
1.25112066919164940e-07 0.00000000000000000e+00 1.17411781176114606e-07 
0.00000000000000000e+00 0.00000000000000000e+00 0.00000000000000000e+00 
3.37862597812811261e-07 0.00000000000000000e+00 1.62468614777978745e-07 
3.37725327838873145e-07 0.00000000000000000e+00 1.62508005181648816e-07 
5.60990174754028033e-07 0.00000000000000000e+00 1.57671827570434674e-07 
5.60809095928800270e-07 0.00000000000000000e+00 1.57707615334703697e-07 
7.33942639481318595e-07 0.00000000000000000e+00 1.23192731463287887e-07 
7.34154731590193713e-07 0.00000000000000000e+00 1.23262640636181222e-07 
8.33632374082994475e-07 0.00000000000000000e+00 7.62486100186537283e-08 
8.33636928424090834e-07 0.00000000000000000e+00 7.61236363252212154e-08 
8.52024527062897370e-07 0.00000000000000000e+00 2.49609127763200091e-08 
8.51914955076553022e-07 0.00000000000000000e+00 2.48279345508586769e-08 
7.92049169497030627e-07 0.00000000000000000e+00 -1.65886226101608345e-08 
7.92109640821675356e-07 0.00000000000000000e+00 -1.65175240559390119e-08 
6.81304875441251380e-07 0.00000000000000000e+00 -3.63254309745750135e-08 
6.81339301857281613e-07 0.00000000000000000e+00 -3.63735802165288492e-08 
5.53803311471807664e-07 0.00000000000000000e+00 -3.88661498098699424e-08 
5.53854874933732803e-07 0.00000000000000000e+00 -3.88553271538856185e-08 
4.28400351292731781e-07 0.00000000000000000e+00 -3.51983257875478579e-08 
4.28183272121434002e-07 0.00000000000000000e+00 -3.52295728508680355e-08 
4.35687494889326488e-07 0.00000000000000000e+00 1.45756107502752981e-07 
4.35647167225504265e-07 0.00000000000000000e+00 1.45791986892702993e-07 
0.00000000000000000e+00 0.00000000000000000e+00 0.00000000000000000e+00 
0.00000000000000000e+00 0.00000000000000000e+00 0.00000000000000000e+00 
1.21000505582189081e-07 0.00000000000000000e+00 -1.08243508801295883e-07 
1.20961050420052840e-07 0.00000000000000000e+00 -1.08258329526344174e-07 
3.33606696916793800e-07 0.00000000000000000e+00 -1.43068306657514956e-07 
3.33594916962686723e-07 0.00000000000000000e+00 -1.43303364757079577e-07 
5.56115197384340380e-07 0.00000000000000000e+00 -1.26174842075508553e-07 
5.56196900011671104e-07 0.00000000000000000e+00 -1.26131063251919427e-07 
7.30776620444112666e-07 0.00000000000000000e+00 -7.64424390396790548e-08 
7.30784562648968019e-07 0.00000000000000000e+00 -7.65052626851927906e-08 
8.32141163983241320e-07 0.00000000000000000e+00 -1.29100410731677426e-08 
8.32117345626473158e-07 0.00000000000000000e+00 -1.30003165381907508e-08 
8.51466203127033797e-07 0.00000000000000000e+00 5.22387633461815410e-08 
8.51548019954708979e-07 0.00000000000000000e+00 5.21149547364957753e-08 
7.92803659120844063e-07 0.00000000000000000e+00 1.04311689279061223e-07 
7.92791568429273403e-07 0.00000000000000000e+00 1.04352155852962615e-07 
6.82381964728508398e-07 0.00000000000000000e+00 1.34424694754135419e-07 
6.82480570674568103e-07 0.00000000000000000e+00 1.34666442616598837e-07 
5.55453240989976865e-07 0.00000000000000000e+00 1.44906631190531353e-07 
5.55409512852810769e-07 0.00000000000000000e+00 1.44882407418584949e-07 

