# vtk DataFile Version 2.0

ASCII

DATASET UNSTRUCTURED_GRID

POINTS 44 double 

0.00000000000000000e+00  1.20000000000000002e-02  0.00000000000000000e+00
0.00000000000000000e+00  1.20000000000000002e-02  8.00000000000000017e-03
0.00000000000000000e+00  0.00000000000000000e+00  8.00000000000000017e-03
0.00000000000000000e+00  0.00000000000000000e+00  0.00000000000000000e+00
0.00000000000000000e+00  1.20000000000000002e-02  1.60000000000000003e-02
0.00000000000000000e+00  0.00000000000000000e+00  1.60000000000000003e-02
0.00000000000000000e+00  1.20000000000000002e-02  2.40000000000000005e-02
0.00000000000000000e+00  0.00000000000000000e+00  2.40000000000000005e-02
0.00000000000000000e+00  1.20000000000000002e-02  3.20000000000000007e-02
0.00000000000000000e+00  0.00000000000000000e+00  3.20000000000000007e-02
0.00000000000000000e+00  1.20000000000000002e-02  4.00000000000000008e-02
0.00000000000000000e+00  0.00000000000000000e+00  4.00000000000000008e-02
0.00000000000000000e+00  1.20000000000000002e-02  4.80000000000000010e-02
0.00000000000000000e+00  0.00000000000000000e+00  4.80000000000000010e-02
0.00000000000000000e+00  1.20000000000000002e-02  5.60000000000000012e-02
0.00000000000000000e+00  0.00000000000000000e+00  5.60000000000000012e-02
0.00000000000000000e+00  1.20000000000000002e-02  6.40000000000000013e-02
0.00000000000000000e+00  0.00000000000000000e+00  6.40000000000000013e-02
0.00000000000000000e+00  1.20000000000000002e-02  7.19999999999999946e-02
0.00000000000000000e+00  0.00000000000000000e+00  7.19999999999999946e-02
0.00000000000000000e+00  1.20000000000000002e-02  8.00000000000000017e-02
0.00000000000000000e+00  0.00000000000000000e+00  8.00000000000000017e-02
1.20000000000000002e-02  1.20000000000000002e-02  8.00000000000000017e-02
1.20000000000000002e-02  0.00000000000000000e+00  8.00000000000000017e-02
1.20000000000000002e-02  1.20000000000000002e-02  0.00000000000000000e+00
1.20000000000000002e-02  0.00000000000000000e+00  0.00000000000000000e+00
1.20000000000000002e-02  0.00000000000000000e+00  8.00000000000000017e-03
1.20000000000000002e-02  1.20000000000000002e-02  8.00000000000000017e-03
1.20000000000000002e-02  0.00000000000000000e+00  1.60000000000000003e-02
1.20000000000000002e-02  1.20000000000000002e-02  1.60000000000000003e-02
1.20000000000000002e-02  0.00000000000000000e+00  2.40000000000000005e-02
1.20000000000000002e-02  1.20000000000000002e-02  2.40000000000000005e-02
1.20000000000000002e-02  0.00000000000000000e+00  3.20000000000000007e-02
1.20000000000000002e-02  1.20000000000000002e-02  3.20000000000000007e-02
1.20000000000000002e-02  0.00000000000000000e+00  4.00000000000000008e-02
1.20000000000000002e-02  1.20000000000000002e-02  4.00000000000000008e-02
1.20000000000000002e-02  0.00000000000000000e+00  4.80000000000000010e-02
1.20000000000000002e-02  1.20000000000000002e-02  4.80000000000000010e-02
1.20000000000000002e-02  0.00000000000000000e+00  5.60000000000000012e-02
1.20000000000000002e-02  1.20000000000000002e-02  5.60000000000000012e-02
1.20000000000000002e-02  0.00000000000000000e+00  6.40000000000000013e-02
1.20000000000000002e-02  1.20000000000000002e-02  6.40000000000000013e-02
1.20000000000000002e-02  0.00000000000000000e+00  7.19999999999999946e-02
1.20000000000000002e-02  1.20000000000000002e-02  7.19999999999999946e-02

CELLS 0 0


CELL_TYPES 0


POINT_DATA 44

SCALARS Rank unsigned_int
LOOKUP_TABLE default
0 0 0 0 0 0 0 0 0 0 0 0 0 0 0 0 0 0 0 0 0 0 0 0 0 0 0 0 0 0 0 0 0 0 0 0 0 0 0 0 0 0 0 0 

VECTORS Displacements0 double
-5.53043372315965988e-09 0.00000000000000000e+00 3.32753974147866677e-09 
1.04518835097067059e-06 0.00000000000000000e+00 1.28109628491948155e-06 
1.04508590232599784e-06 0.00000000000000000e+00 1.28125374461602424e-06 
-5.86190169767815687e-09 0.00000000000000000e+00 3.61189170730035172e-09 
3.55423347120799378e-06 0.00000000000000000e+00 2.25371248987202042e-06 
3.55384096822626127e-06 0.00000000000000000e+00 2.25405697310188814e-06 
7.16851268339546064e-06 0.00000000000000000e+00 2.97372453618819809e-06 
7.16798200197266747e-06 0.00000000000000000e+00 2.97407189943350115e-06 
1.15627208554139232e-05 0.00000000000000000e+00 3.47878796660012180e-06 
1.15636540576473056e-05 0.00000000000000000e+00 3.47978394558531270e-06 
1.64856880900859427e-05 0.00000000000000000e+00 3.80842288059387325e-06 
1.64857421353181503e-05 0.00000000000000000e+00 3.80794334765819268e-06 
2.17237694651590685e-05 0.00000000000000000e+00 3.99963465568239413e-06 
2.17237752438348818e-05 0.00000000000000000e+00 3.99898305544383023e-06 
2.71186432485176600e-05 0.00000000000000000e+00 4.09835712880933144e-06 
2.71184314756377101e-05 0.00000000000000000e+00 4.09814038862341557e-06 
3.25796741209768485e-05 0.00000000000000000e+00 4.14340956654487361e-06 
3.25796702266207042e-05 0.00000000000000000e+00 4.14357766159022334e-06 
3.80612807204077486e-05 0.00000000000000000e+00 4.16042393035840949e-06 
3.80613116556353202e-05 0.00000000000000000e+00 4.16040847830318830e-06 
4.35362301678888288e-05 0.00000000000000000e+00 4.16570204125076567e-06 
4.35361830890104896e-05 0.00000000000000000e+00 4.16556811860338238e-06 
4.35475904848145766e-05 0.00000000000000000e+00 -4.05451508635970756e-06 
4.35477111667899284e-05 0.00000000000000000e+00 -4.05461673326494146e-06 
-7.19966589537221580e-09 0.00000000000000000e+00 -4.39614563520683037e-09 
-7.53996124749878623e-09 0.00000000000000000e+00 -4.51791274296847739e-09 
1.03109573453804057e-06 0.00000000000000000e+00 -1.26948264649502853e-06 
1.03116322989490840e-06 0.00000000000000000e+00 -1.26938413887176772e-06 
3.53944013762425456e-06 0.00000000000000000e+00 -2.23388227053118174e-06 
3.53922212599881832e-06 0.00000000000000000e+00 -2.23482658989404494e-06 
7.15196617122895437e-06 0.00000000000000000e+00 -2.94545432084215266e-06 
7.15237013598271502e-06 0.00000000000000000e+00 -2.94491445724153419e-06 
1.15505168176694839e-05 0.00000000000000000e+00 -3.44161989089665696e-06 
1.15502167091005575e-05 0.00000000000000000e+00 -3.44144839185077607e-06 
1.64762746920614042e-05 0.00000000000000000e+00 -3.75858298235322015e-06 
1.64762522981099276e-05 0.00000000000000000e+00 -3.75896575970793311e-06 
2.17161441734345808e-05 0.00000000000000000e+00 -3.93834406019188028e-06 
2.17161939003936730e-05 0.00000000000000000e+00 -3.93901952277653798e-06 
2.71142301866370429e-05 0.00000000000000000e+00 -4.02380895412335976e-06 
2.71143922204855668e-05 0.00000000000000000e+00 -4.02413708412732387e-06 
3.25778091506968138e-05 0.00000000000000000e+00 -4.05268991477419808e-06 
3.25777947706600677e-05 0.00000000000000000e+00 -4.05306321093015351e-06 
3.80606988731907824e-05 0.00000000000000000e+00 -4.05778411532389228e-06 
3.80606214649517231e-05 0.00000000000000000e+00 -4.05774737467918684e-06 

