# vtk DataFile Version 2.0

ASCII

DATASET UNSTRUCTURED_GRID

POINTS 44 double 

0.00000000000000000e+00  1.20000000000000002e-02  0.00000000000000000e+00
0.00000000000000000e+00  1.20000000000000002e-02  8.00000000000000017e-03
0.00000000000000000e+00  0.00000000000000000e+00  8.00000000000000017e-03
0.00000000000000000e+00  0.00000000000000000e+00  0.00000000000000000e+00
0.00000000000000000e+00  1.20000000000000002e-02  1.60000000000000003e-02
0.00000000000000000e+00  0.00000000000000000e+00  1.60000000000000003e-02
0.00000000000000000e+00  1.20000000000000002e-02  2.40000000000000005e-02
0.00000000000000000e+00  0.00000000000000000e+00  2.40000000000000005e-02
0.00000000000000000e+00  1.20000000000000002e-02  3.20000000000000007e-02
0.00000000000000000e+00  0.00000000000000000e+00  3.20000000000000007e-02
0.00000000000000000e+00  1.20000000000000002e-02  4.00000000000000008e-02
0.00000000000000000e+00  0.00000000000000000e+00  4.00000000000000008e-02
0.00000000000000000e+00  1.20000000000000002e-02  4.80000000000000010e-02
0.00000000000000000e+00  0.00000000000000000e+00  4.80000000000000010e-02
0.00000000000000000e+00  1.20000000000000002e-02  5.60000000000000012e-02
0.00000000000000000e+00  0.00000000000000000e+00  5.60000000000000012e-02
0.00000000000000000e+00  1.20000000000000002e-02  6.40000000000000013e-02
0.00000000000000000e+00  0.00000000000000000e+00  6.40000000000000013e-02
0.00000000000000000e+00  1.20000000000000002e-02  7.19999999999999946e-02
0.00000000000000000e+00  0.00000000000000000e+00  7.19999999999999946e-02
0.00000000000000000e+00  1.20000000000000002e-02  8.00000000000000017e-02
0.00000000000000000e+00  0.00000000000000000e+00  8.00000000000000017e-02
1.20000000000000002e-02  1.20000000000000002e-02  8.00000000000000017e-02
1.20000000000000002e-02  0.00000000000000000e+00  8.00000000000000017e-02
1.20000000000000002e-02  1.20000000000000002e-02  0.00000000000000000e+00
1.20000000000000002e-02  0.00000000000000000e+00  0.00000000000000000e+00
1.20000000000000002e-02  0.00000000000000000e+00  8.00000000000000017e-03
1.20000000000000002e-02  1.20000000000000002e-02  8.00000000000000017e-03
1.20000000000000002e-02  0.00000000000000000e+00  1.60000000000000003e-02
1.20000000000000002e-02  1.20000000000000002e-02  1.60000000000000003e-02
1.20000000000000002e-02  0.00000000000000000e+00  2.40000000000000005e-02
1.20000000000000002e-02  1.20000000000000002e-02  2.40000000000000005e-02
1.20000000000000002e-02  0.00000000000000000e+00  3.20000000000000007e-02
1.20000000000000002e-02  1.20000000000000002e-02  3.20000000000000007e-02
1.20000000000000002e-02  0.00000000000000000e+00  4.00000000000000008e-02
1.20000000000000002e-02  1.20000000000000002e-02  4.00000000000000008e-02
1.20000000000000002e-02  0.00000000000000000e+00  4.80000000000000010e-02
1.20000000000000002e-02  1.20000000000000002e-02  4.80000000000000010e-02
1.20000000000000002e-02  0.00000000000000000e+00  5.60000000000000012e-02
1.20000000000000002e-02  1.20000000000000002e-02  5.60000000000000012e-02
1.20000000000000002e-02  0.00000000000000000e+00  6.40000000000000013e-02
1.20000000000000002e-02  1.20000000000000002e-02  6.40000000000000013e-02
1.20000000000000002e-02  0.00000000000000000e+00  7.19999999999999946e-02
1.20000000000000002e-02  1.20000000000000002e-02  7.19999999999999946e-02

CELLS 0 0


CELL_TYPES 0


POINT_DATA 44

SCALARS Rank unsigned_int
LOOKUP_TABLE default
0 0 0 0 0 0 0 0 0 0 0 0 0 0 0 0 0 0 0 0 0 0 0 0 0 0 0 0 0 0 0 0 0 0 0 0 0 0 0 0 0 0 0 0 

VECTORS Displacements0 double
-3.57727476025642267e-06 0.00000000000000000e+00 5.42094249983868476e-06 
1.17428262677094983e-03 0.00000000000000000e+00 1.02826041341125924e-03 
1.17423447146815718e-03 0.00000000000000000e+00 1.02842400745198348e-03 
-3.82987470201514441e-06 0.00000000000000000e+00 5.73922598204323897e-06 
3.82402431980571368e-03 0.00000000000000000e+00 1.47056781258606516e-03 
3.82369251782099101e-03 0.00000000000000000e+00 1.47096797079062595e-03 
7.48989219654337506e-03 0.00000000000000000e+00 1.30111035193599279e-03 
7.48986473719294964e-03 0.00000000000000000e+00 1.30155945903142386e-03 
1.18048956704463956e-02 0.00000000000000000e+00 5.98335595152705950e-04 
1.18062227028567640e-02 0.00000000000000000e+00 5.98647813032510134e-04 
1.65445815740821421e-02 0.00000000000000000e+00 -5.31345336423766357e-04 
1.65444609658574535e-02 0.00000000000000000e+00 -5.31613232614689887e-04 
2.15484654280716573e-02 0.00000000000000000e+00 -1.98618924988420032e-03 
2.15482850716036921e-02 0.00000000000000000e+00 -1.98658079038254321e-03 
2.67007619095822671e-02 0.00000000000000000e+00 -3.66956459296821982e-03 
2.67004330212543516e-02 0.00000000000000000e+00 -3.66969285110481120e-03 
3.19225799515223396e-02 0.00000000000000000e+00 -5.50237836077689148e-03 
3.19226910433327224e-02 0.00000000000000000e+00 -5.50223337537745268e-03 
3.71614590469680275e-02 0.00000000000000000e+00 -7.41442412215773464e-03 
3.71614756884813963e-02 0.00000000000000000e+00 -7.41436568411999418e-03 
4.23885384477830987e-02 0.00000000000000000e+00 -9.35297179904736112e-03 
4.23888100572219761e-02 0.00000000000000000e+00 -9.35302325662280831e-03 
3.94798516906542524e-02 0.00000000000000000e+00 -1.71786385788400761e-02 
3.94799400832501687e-02 0.00000000000000000e+00 -1.71787753509581656e-02 
-8.15323632571707743e-06 0.00000000000000000e+00 -1.29829951734243358e-06 
-8.52851888185355081e-06 0.00000000000000000e+00 -1.35565935528627474e-06 
8.23619743620297110e-04 0.00000000000000000e+00 -1.45558342564385164e-03 
8.23719004255020915e-04 0.00000000000000000e+00 -1.45550058209234306e-03 
2.97363723348229633e-03 0.00000000000000000e+00 -2.80825093159234231e-03 
2.97349609987562075e-03 0.00000000000000000e+00 -2.80901527886765010e-03 
6.08933342293501746e-03 0.00000000000000000e+00 -4.24150781537326396e-03 
6.08978845391908684e-03 0.00000000000000000e+00 -4.24129433657519355e-03 
9.91635014092850584e-03 0.00000000000000000e+00 -5.81959993125983656e-03 
9.91630161265672980e-03 0.00000000000000000e+00 -5.81958489350039351e-03 
1.42630135360876827e-02 0.00000000000000000e+00 -7.54668244216175239e-03 
1.42629800785625468e-02 0.00000000000000000e+00 -7.54679621022367152e-03 
1.89770937672760175e-02 0.00000000000000000e+00 -9.39367238282790701e-03 
1.89768575153206262e-02 0.00000000000000000e+00 -9.39397779343420329e-03 
2.39400338702173490e-02 0.00000000000000000e+00 -1.13183008251635346e-02 
2.39400260651517829e-02 0.00000000000000000e+00 -1.13185481209608380e-02 
2.90599008067124673e-02 0.00000000000000000e+00 -1.32769057687326351e-02 
2.90594953984267199e-02 0.00000000000000000e+00 -1.32773336881180509e-02 
3.42589246358673341e-02 0.00000000000000000e+00 -1.52376261000039728e-02 
3.42588995235476451e-02 0.00000000000000000e+00 -1.52375832660037874e-02 

