# vtk DataFile Version 2.0

ASCII

DATASET UNSTRUCTURED_GRID

POINTS 21 double 

0.00000000000000000e+00  6.00000000000000099e-03  4.00000000000000008e-03
0.00000000000000000e+00  6.00000000000000099e-03  1.20000000000000020e-02
0.00000000000000000e+00  6.00000000000000099e-03  2.00000000000000004e-02
0.00000000000000000e+00  5.99999999999999926e-03  2.80000000000000041e-02
0.00000000000000000e+00  6.00000000000000099e-03  3.60000000000000042e-02
0.00000000000000000e+00  6.00000000000000099e-03  4.39999999999999974e-02
0.00000000000000000e+00  6.00000000000000099e-03  5.19999999999999976e-02
0.00000000000000000e+00  5.99999999999999926e-03  5.99999999999999908e-02
0.00000000000000000e+00  5.99999999999999926e-03  6.79999999999999910e-02
0.00000000000000000e+00  6.00000000000000012e-03  7.59999999999999981e-02
6.00000000000000099e-03  6.00000000000000099e-03  8.00000000000000017e-02
1.20000000000000020e-02  6.00000000000000099e-03  4.00000000000000008e-03
1.20000000000000020e-02  6.00000000000000099e-03  1.19999999999999985e-02
1.20000000000000020e-02  6.00000000000000099e-03  2.00000000000000004e-02
1.20000000000000020e-02  6.00000000000000099e-03  2.80000000000000041e-02
1.20000000000000020e-02  6.00000000000000099e-03  3.59999999999999973e-02
1.20000000000000020e-02  6.00000000000000099e-03  4.40000000000000044e-02
1.20000000000000020e-02  6.00000000000000099e-03  5.19999999999999976e-02
1.20000000000000020e-02  6.00000000000000099e-03  5.99999999999999978e-02
1.20000000000000002e-02  5.99999999999999926e-03  6.79999999999999910e-02
1.20000000000000002e-02  6.00000000000000012e-03  7.59999999999999981e-02

CELLS 0 0


CELL_TYPES 0


POINT_DATA 21

SCALARS Rank unsigned_int
LOOKUP_TABLE default
0 0 0 0 0 0 0 0 0 0 0 0 0 0 0 0 0 0 0 0 0 

VECTORS Forces0 double
3.62504970241189162e-01 -3.73689796517928236e-19 -1.41101591376945282e-02 
3.67071513242488212e-01 1.57593364933274420e-20 -1.91518405852574361e-02 
3.37201228814448306e-01 -1.64426888346715723e-20 -1.36724884288617309e-02 
2.41805769588921499e-01 -3.53237674342958050e-25 -3.68083585719646694e-03 
1.51881376367825921e-01 -4.25012495148242365e-20 1.40558972247787229e-03 
1.68445095746959581e-02 -1.48561149605398460e-20 4.91553187235357577e-04 
1.81255615711212593e-03 4.04161100141577847e-21 9.27465564349577579e-05 
2.16715261804368642e-03 1.37663889262116395e-26 8.69627818526215164e-05 
8.06297837527462837e-04 -1.27246843412417377e-21 3.41549064803410650e-05 
2.88905420936296344e-04 1.79324243303838621e-22 1.30958585146991769e-05 
-2.15335265951617619e-05 7.60237908149007254e-22 5.16819189718006671e-04 
-4.52134122083369678e-07 -1.57858955640090947e-22 2.00999070031397640e-08 
8.26846164075647611e-06 1.75987560436763151e-22 -4.30093168535230603e-07 
2.02406024802333486e-05 -2.15895443029658927e-27 -8.13875292794576727e-07 
2.72229070929312159e-05 1.47717096965072806e-23 -4.37712677237976067e-07 
2.83136085632359996e-05 3.48962186463007314e-22 2.34261398791197512e-07 
3.31225472766241778e-05 2.35203294488113217e-49 8.66077382548985416e-07 
4.81251481050784104e-05 1.71056941445900521e-49 1.73247216731156781e-06 
7.17217729008063444e-05 1.69027911392209795e-22 2.90419567043827712e-06 
1.03104997119538515e-04 -1.34487680210374077e-27 4.32349551154006366e-06 
1.51151434539252674e-04 -3.42113882891801043e-49 6.32796829388264252e-06 

