# vtk DataFile Version 2.0

ASCII

DATASET UNSTRUCTURED_GRID

POINTS 44 double 

0.00000000000000000e+00  1.20000000000000002e-02  0.00000000000000000e+00
0.00000000000000000e+00  1.20000000000000002e-02  8.00000000000000017e-03
0.00000000000000000e+00  0.00000000000000000e+00  8.00000000000000017e-03
0.00000000000000000e+00  0.00000000000000000e+00  0.00000000000000000e+00
0.00000000000000000e+00  1.20000000000000002e-02  1.60000000000000003e-02
0.00000000000000000e+00  0.00000000000000000e+00  1.60000000000000003e-02
0.00000000000000000e+00  1.20000000000000002e-02  2.40000000000000005e-02
0.00000000000000000e+00  0.00000000000000000e+00  2.40000000000000005e-02
0.00000000000000000e+00  1.20000000000000002e-02  3.20000000000000007e-02
0.00000000000000000e+00  0.00000000000000000e+00  3.20000000000000007e-02
0.00000000000000000e+00  1.20000000000000002e-02  4.00000000000000008e-02
0.00000000000000000e+00  0.00000000000000000e+00  4.00000000000000008e-02
0.00000000000000000e+00  1.20000000000000002e-02  4.80000000000000010e-02
0.00000000000000000e+00  0.00000000000000000e+00  4.80000000000000010e-02
0.00000000000000000e+00  1.20000000000000002e-02  5.60000000000000012e-02
0.00000000000000000e+00  0.00000000000000000e+00  5.60000000000000012e-02
0.00000000000000000e+00  1.20000000000000002e-02  6.40000000000000013e-02
0.00000000000000000e+00  0.00000000000000000e+00  6.40000000000000013e-02
0.00000000000000000e+00  1.20000000000000002e-02  7.19999999999999946e-02
0.00000000000000000e+00  0.00000000000000000e+00  7.19999999999999946e-02
0.00000000000000000e+00  1.20000000000000002e-02  8.00000000000000017e-02
0.00000000000000000e+00  0.00000000000000000e+00  8.00000000000000017e-02
1.20000000000000002e-02  1.20000000000000002e-02  8.00000000000000017e-02
1.20000000000000002e-02  0.00000000000000000e+00  8.00000000000000017e-02
1.20000000000000002e-02  1.20000000000000002e-02  0.00000000000000000e+00
1.20000000000000002e-02  0.00000000000000000e+00  0.00000000000000000e+00
1.20000000000000002e-02  0.00000000000000000e+00  8.00000000000000017e-03
1.20000000000000002e-02  1.20000000000000002e-02  8.00000000000000017e-03
1.20000000000000002e-02  0.00000000000000000e+00  1.60000000000000003e-02
1.20000000000000002e-02  1.20000000000000002e-02  1.60000000000000003e-02
1.20000000000000002e-02  0.00000000000000000e+00  2.40000000000000005e-02
1.20000000000000002e-02  1.20000000000000002e-02  2.40000000000000005e-02
1.20000000000000002e-02  0.00000000000000000e+00  3.20000000000000007e-02
1.20000000000000002e-02  1.20000000000000002e-02  3.20000000000000007e-02
1.20000000000000002e-02  0.00000000000000000e+00  4.00000000000000008e-02
1.20000000000000002e-02  1.20000000000000002e-02  4.00000000000000008e-02
1.20000000000000002e-02  0.00000000000000000e+00  4.80000000000000010e-02
1.20000000000000002e-02  1.20000000000000002e-02  4.80000000000000010e-02
1.20000000000000002e-02  0.00000000000000000e+00  5.60000000000000012e-02
1.20000000000000002e-02  1.20000000000000002e-02  5.60000000000000012e-02
1.20000000000000002e-02  0.00000000000000000e+00  6.40000000000000013e-02
1.20000000000000002e-02  1.20000000000000002e-02  6.40000000000000013e-02
1.20000000000000002e-02  0.00000000000000000e+00  7.19999999999999946e-02
1.20000000000000002e-02  1.20000000000000002e-02  7.19999999999999946e-02

CELLS 0 0


CELL_TYPES 0


POINT_DATA 44

SCALARS Rank unsigned_int
LOOKUP_TABLE default
0 0 0 0 0 0 0 0 0 0 0 0 0 0 0 0 0 0 0 0 0 0 0 0 0 0 0 0 0 0 0 0 0 0 0 0 0 0 0 0 0 0 0 0 

VECTORS Displacements0 double
0.00000000000000000e+00 0.00000000000000000e+00 0.00000000000000000e+00 
0.00000000000000000e+00 0.00000000000000000e+00 0.00000000000000000e+00 
0.00000000000000000e+00 0.00000000000000000e+00 0.00000000000000000e+00 
0.00000000000000000e+00 0.00000000000000000e+00 0.00000000000000000e+00 
0.00000000000000000e+00 0.00000000000000000e+00 0.00000000000000000e+00 
0.00000000000000000e+00 0.00000000000000000e+00 0.00000000000000000e+00 
0.00000000000000000e+00 0.00000000000000000e+00 0.00000000000000000e+00 
0.00000000000000000e+00 0.00000000000000000e+00 0.00000000000000000e+00 
0.00000000000000000e+00 0.00000000000000000e+00 0.00000000000000000e+00 
0.00000000000000000e+00 0.00000000000000000e+00 0.00000000000000000e+00 
0.00000000000000000e+00 0.00000000000000000e+00 0.00000000000000000e+00 
0.00000000000000000e+00 0.00000000000000000e+00 0.00000000000000000e+00 
0.00000000000000000e+00 0.00000000000000000e+00 0.00000000000000000e+00 
0.00000000000000000e+00 0.00000000000000000e+00 0.00000000000000000e+00 
0.00000000000000000e+00 0.00000000000000000e+00 0.00000000000000000e+00 
0.00000000000000000e+00 0.00000000000000000e+00 0.00000000000000000e+00 
0.00000000000000000e+00 0.00000000000000000e+00 0.00000000000000000e+00 
0.00000000000000000e+00 0.00000000000000000e+00 0.00000000000000000e+00 
0.00000000000000000e+00 0.00000000000000000e+00 0.00000000000000000e+00 
0.00000000000000000e+00 0.00000000000000000e+00 0.00000000000000000e+00 
0.00000000000000000e+00 0.00000000000000000e+00 0.00000000000000000e+00 
0.00000000000000000e+00 0.00000000000000000e+00 0.00000000000000000e+00 
0.00000000000000000e+00 0.00000000000000000e+00 0.00000000000000000e+00 
0.00000000000000000e+00 0.00000000000000000e+00 0.00000000000000000e+00 
0.00000000000000000e+00 0.00000000000000000e+00 0.00000000000000000e+00 
0.00000000000000000e+00 0.00000000000000000e+00 0.00000000000000000e+00 
0.00000000000000000e+00 0.00000000000000000e+00 0.00000000000000000e+00 
0.00000000000000000e+00 0.00000000000000000e+00 0.00000000000000000e+00 
0.00000000000000000e+00 0.00000000000000000e+00 0.00000000000000000e+00 
0.00000000000000000e+00 0.00000000000000000e+00 0.00000000000000000e+00 
0.00000000000000000e+00 0.00000000000000000e+00 0.00000000000000000e+00 
0.00000000000000000e+00 0.00000000000000000e+00 0.00000000000000000e+00 
0.00000000000000000e+00 0.00000000000000000e+00 0.00000000000000000e+00 
0.00000000000000000e+00 0.00000000000000000e+00 0.00000000000000000e+00 
0.00000000000000000e+00 0.00000000000000000e+00 0.00000000000000000e+00 
0.00000000000000000e+00 0.00000000000000000e+00 0.00000000000000000e+00 
0.00000000000000000e+00 0.00000000000000000e+00 0.00000000000000000e+00 
0.00000000000000000e+00 0.00000000000000000e+00 0.00000000000000000e+00 
0.00000000000000000e+00 0.00000000000000000e+00 0.00000000000000000e+00 
0.00000000000000000e+00 0.00000000000000000e+00 0.00000000000000000e+00 
0.00000000000000000e+00 0.00000000000000000e+00 0.00000000000000000e+00 
0.00000000000000000e+00 0.00000000000000000e+00 0.00000000000000000e+00 
0.00000000000000000e+00 0.00000000000000000e+00 0.00000000000000000e+00 
0.00000000000000000e+00 0.00000000000000000e+00 0.00000000000000000e+00 

