# vtk DataFile Version 2.0

ASCII

DATASET UNSTRUCTURED_GRID

POINTS 21 double 

0.00000000000000000e+00  6.00000000000000099e-03  4.00000000000000008e-03
0.00000000000000000e+00  6.00000000000000099e-03  1.20000000000000020e-02
0.00000000000000000e+00  6.00000000000000099e-03  2.00000000000000004e-02
0.00000000000000000e+00  5.99999999999999926e-03  2.80000000000000041e-02
0.00000000000000000e+00  6.00000000000000099e-03  3.60000000000000042e-02
0.00000000000000000e+00  6.00000000000000099e-03  4.39999999999999974e-02
0.00000000000000000e+00  6.00000000000000099e-03  5.19999999999999976e-02
0.00000000000000000e+00  5.99999999999999926e-03  5.99999999999999908e-02
0.00000000000000000e+00  5.99999999999999926e-03  6.79999999999999910e-02
0.00000000000000000e+00  6.00000000000000012e-03  7.59999999999999981e-02
6.00000000000000099e-03  6.00000000000000099e-03  8.00000000000000017e-02
1.20000000000000020e-02  6.00000000000000099e-03  4.00000000000000008e-03
1.20000000000000020e-02  6.00000000000000099e-03  1.19999999999999985e-02
1.20000000000000020e-02  6.00000000000000099e-03  2.00000000000000004e-02
1.20000000000000020e-02  6.00000000000000099e-03  2.80000000000000041e-02
1.20000000000000020e-02  6.00000000000000099e-03  3.59999999999999973e-02
1.20000000000000020e-02  6.00000000000000099e-03  4.40000000000000044e-02
1.20000000000000020e-02  6.00000000000000099e-03  5.19999999999999976e-02
1.20000000000000020e-02  6.00000000000000099e-03  5.99999999999999978e-02
1.20000000000000002e-02  5.99999999999999926e-03  6.79999999999999910e-02
1.20000000000000002e-02  6.00000000000000012e-03  7.59999999999999981e-02

CELLS 0 0


CELL_TYPES 0


POINT_DATA 21

SCALARS Rank unsigned_int
LOOKUP_TABLE default
0 0 0 0 0 0 0 0 0 0 0 0 0 0 0 0 0 0 0 0 0 

VECTORS Forces0 double
2.86899383443049993e-01 -1.16537883876758303e-24 -3.31765241925985593e-03 
2.47036324387024803e-01 8.85968053835892144e-25 -1.51139431930964307e-03 
7.51155531784804126e-02 3.31250131121506962e-25 2.44820936625128114e-05 
1.12804392312298440e-02 5.66888784346440033e-22 3.60397051997279162e-05 
2.38608446920075433e-03 2.86002524990917719e-22 8.50884674043558531e-06 
8.45597927258837979e-04 1.95021494871699547e-22 3.34610339426071744e-06 
2.63186032596072919e-04 -4.82291995945317141e-28 1.73330457871884941e-06 
3.53435353833211151e-05 1.77761790158817346e-22 1.26178827559709667e-06 
-3.39404556083698218e-05 1.45426264674120002e-25 1.06887047291775711e-06 
-1.13464150779802865e-04 1.63401098287071985e-28 8.55735531539804092e-07 
-2.52917931521679628e-07 -2.53020629766551470e-22 6.59183732898038300e-04 
5.12291443899673087e-05 -1.52571654798916235e-22 -4.52736817197701736e-07 
5.86897208013188057e-05 9.26433434755602129e-29 -4.24899859297673865e-07 
6.60389598187576833e-05 -3.52673755742423774e-29 -7.47968601974033177e-08 
7.55771144467669759e-05 -1.63734382088229061e-22 1.59374430179108749e-07 
8.74300650493920693e-05 3.43050620889447796e-22 2.46518615006648486e-07 
1.01991483653346424e-04 1.68272749384900635e-22 2.57563529572319332e-07 
1.18704572540465037e-04 3.36327977847048039e-22 2.11748775242487431e-07 
1.37317690555336221e-04 1.70528413973129623e-22 1.41144836449519960e-07 
1.64645266245519277e-04 3.35754528453288598e-22 6.80280740518266464e-08 
1.93845528690060018e-04 -1.68519099564825899e-22 4.88528937786242004e-08 

