# vtk DataFile Version 2.0

ASCII

DATASET UNSTRUCTURED_GRID

POINTS 44 double 

0.00000000000000000e+00  1.20000000000000002e-02  0.00000000000000000e+00
0.00000000000000000e+00  1.20000000000000002e-02  8.00000000000000017e-03
0.00000000000000000e+00  0.00000000000000000e+00  8.00000000000000017e-03
0.00000000000000000e+00  0.00000000000000000e+00  0.00000000000000000e+00
0.00000000000000000e+00  1.20000000000000002e-02  1.60000000000000003e-02
0.00000000000000000e+00  0.00000000000000000e+00  1.60000000000000003e-02
0.00000000000000000e+00  1.20000000000000002e-02  2.40000000000000005e-02
0.00000000000000000e+00  0.00000000000000000e+00  2.40000000000000005e-02
0.00000000000000000e+00  1.20000000000000002e-02  3.20000000000000007e-02
0.00000000000000000e+00  0.00000000000000000e+00  3.20000000000000007e-02
0.00000000000000000e+00  1.20000000000000002e-02  4.00000000000000008e-02
0.00000000000000000e+00  0.00000000000000000e+00  4.00000000000000008e-02
0.00000000000000000e+00  1.20000000000000002e-02  4.80000000000000010e-02
0.00000000000000000e+00  0.00000000000000000e+00  4.80000000000000010e-02
0.00000000000000000e+00  1.20000000000000002e-02  5.60000000000000012e-02
0.00000000000000000e+00  0.00000000000000000e+00  5.60000000000000012e-02
0.00000000000000000e+00  1.20000000000000002e-02  6.40000000000000013e-02
0.00000000000000000e+00  0.00000000000000000e+00  6.40000000000000013e-02
0.00000000000000000e+00  1.20000000000000002e-02  7.19999999999999946e-02
0.00000000000000000e+00  0.00000000000000000e+00  7.19999999999999946e-02
0.00000000000000000e+00  1.20000000000000002e-02  8.00000000000000017e-02
0.00000000000000000e+00  0.00000000000000000e+00  8.00000000000000017e-02
1.20000000000000002e-02  1.20000000000000002e-02  8.00000000000000017e-02
1.20000000000000002e-02  0.00000000000000000e+00  8.00000000000000017e-02
1.20000000000000002e-02  1.20000000000000002e-02  0.00000000000000000e+00
1.20000000000000002e-02  0.00000000000000000e+00  0.00000000000000000e+00
1.20000000000000002e-02  0.00000000000000000e+00  8.00000000000000017e-03
1.20000000000000002e-02  1.20000000000000002e-02  8.00000000000000017e-03
1.20000000000000002e-02  0.00000000000000000e+00  1.60000000000000003e-02
1.20000000000000002e-02  1.20000000000000002e-02  1.60000000000000003e-02
1.20000000000000002e-02  0.00000000000000000e+00  2.40000000000000005e-02
1.20000000000000002e-02  1.20000000000000002e-02  2.40000000000000005e-02
1.20000000000000002e-02  0.00000000000000000e+00  3.20000000000000007e-02
1.20000000000000002e-02  1.20000000000000002e-02  3.20000000000000007e-02
1.20000000000000002e-02  0.00000000000000000e+00  4.00000000000000008e-02
1.20000000000000002e-02  1.20000000000000002e-02  4.00000000000000008e-02
1.20000000000000002e-02  0.00000000000000000e+00  4.80000000000000010e-02
1.20000000000000002e-02  1.20000000000000002e-02  4.80000000000000010e-02
1.20000000000000002e-02  0.00000000000000000e+00  5.60000000000000012e-02
1.20000000000000002e-02  1.20000000000000002e-02  5.60000000000000012e-02
1.20000000000000002e-02  0.00000000000000000e+00  6.40000000000000013e-02
1.20000000000000002e-02  1.20000000000000002e-02  6.40000000000000013e-02
1.20000000000000002e-02  0.00000000000000000e+00  7.19999999999999946e-02
1.20000000000000002e-02  1.20000000000000002e-02  7.19999999999999946e-02

CELLS 0 0


CELL_TYPES 0


POINT_DATA 44

SCALARS Rank unsigned_int
LOOKUP_TABLE default
0 0 0 0 0 0 0 0 0 0 0 0 0 0 0 0 0 0 0 0 0 0 0 0 0 0 0 0 0 0 0 0 0 0 0 0 0 0 0 0 0 0 0 0 

VECTORS Displacements0 double
-5.60764700926460033e-09 0.00000000000000000e+00 3.68302953610765806e-09 
1.17706171419818194e-06 0.00000000000000000e+00 1.43179334442701005e-06 
1.17697024029130263e-06 0.00000000000000000e+00 1.43183787239862996e-06 
-5.95220559562147360e-09 0.00000000000000000e+00 3.83414013119442990e-09 
3.96284396229935034e-06 0.00000000000000000e+00 2.49734855493345863e-06 
3.96239548576312077e-06 0.00000000000000000e+00 2.49775458684321055e-06 
7.93292594893210004e-06 0.00000000000000000e+00 3.27061217554430240e-06 
7.93245636621127477e-06 0.00000000000000000e+00 3.27104280717228572e-06 
1.27188976331917696e-05 0.00000000000000000e+00 3.80368665788539961e-06 
1.27201032904412197e-05 0.00000000000000000e+00 3.80476358829930420e-06 
1.80492532229288039e-05 0.00000000000000000e+00 4.14951425337128987e-06 
1.80492380574184294e-05 0.00000000000000000e+00 4.14903881586424919e-06 
2.37042785041945247e-05 0.00000000000000000e+00 4.35093642804835090e-06 
2.37042807939400730e-05 0.00000000000000000e+00 4.35018400990920706e-06 
2.95189435687710508e-05 0.00000000000000000e+00 4.45226435511911835e-06 
2.95186989600005730e-05 0.00000000000000000e+00 4.45191763426175680e-06 
3.53934726698552194e-05 0.00000000000000000e+00 4.49423150401526018e-06 
3.53935593214943373e-05 0.00000000000000000e+00 4.49431068936448720e-06 
4.12812293016374921e-05 0.00000000000000000e+00 4.50874556392981848e-06 
4.12811596007717669e-05 0.00000000000000000e+00 4.50870136128402782e-06 
4.71566958599846180e-05 0.00000000000000000e+00 4.51274740436652515e-06 
4.71567664912788613e-05 0.00000000000000000e+00 4.51264317329915130e-06 
4.71736480577061962e-05 0.00000000000000000e+00 -4.31408396578665398e-06 
4.71737957430377438e-05 0.00000000000000000e+00 -4.31411109112766609e-06 
-7.61004109738761955e-09 0.00000000000000000e+00 -4.71268136687446043e-09 
-7.93288935158880312e-09 0.00000000000000000e+00 -4.92879668815286487e-09 
1.16252440865272350e-06 0.00000000000000000e+00 -1.40564609970618468e-06 
1.16256282107309578e-06 0.00000000000000000e+00 -1.40551949715351522e-06 
3.94740787400417172e-06 0.00000000000000000e+00 -2.44818870668165148e-06 
3.94707383433279208e-06 0.00000000000000000e+00 -2.44933063723845127e-06 
7.91590189975565514e-06 0.00000000000000000e+00 -3.19897138870244714e-06 
7.91629373066663424e-06 0.00000000000000000e+00 -3.19850464677969687e-06 
1.27063635417337463e-05 0.00000000000000000e+00 -3.71028153364223870e-06 
1.27060767784130069e-05 0.00000000000000000e+00 -3.71024395631132597e-06 
1.80392771930662956e-05 0.00000000000000000e+00 -4.03221760067260050e-06 
1.80393141260040827e-05 0.00000000000000000e+00 -4.03257989754574711e-06 
2.36961978422342857e-05 0.00000000000000000e+00 -4.21297253850192404e-06 
2.36962355597274227e-05 0.00000000000000000e+00 -4.21357975626891817e-06 
2.95147402948930873e-05 0.00000000000000000e+00 -4.29444425314280068e-06 
2.95148822155687552e-05 0.00000000000000000e+00 -4.29477263691020064e-06 
3.53922984886607454e-05 0.00000000000000000e+00 -4.31671986853069936e-06 
3.53921865892463486e-05 0.00000000000000000e+00 -4.31709148087247542e-06 
4.12802827975636575e-05 0.00000000000000000e+00 -4.31737880676734148e-06 
4.12801997597041914e-05 0.00000000000000000e+00 -4.31738967900599349e-06 

