# vtk DataFile Version 2.0

ASCII

DATASET UNSTRUCTURED_GRID

POINTS 21 double 

0.00000000000000000e+00  6.00000000000000099e-03  4.00000000000000008e-03
0.00000000000000000e+00  6.00000000000000099e-03  1.20000000000000020e-02
0.00000000000000000e+00  6.00000000000000099e-03  2.00000000000000004e-02
0.00000000000000000e+00  5.99999999999999926e-03  2.80000000000000041e-02
0.00000000000000000e+00  6.00000000000000099e-03  3.60000000000000042e-02
0.00000000000000000e+00  6.00000000000000099e-03  4.39999999999999974e-02
0.00000000000000000e+00  6.00000000000000099e-03  5.19999999999999976e-02
0.00000000000000000e+00  5.99999999999999926e-03  5.99999999999999908e-02
0.00000000000000000e+00  5.99999999999999926e-03  6.79999999999999910e-02
0.00000000000000000e+00  6.00000000000000012e-03  7.59999999999999981e-02
6.00000000000000099e-03  6.00000000000000099e-03  8.00000000000000017e-02
1.20000000000000020e-02  6.00000000000000099e-03  4.00000000000000008e-03
1.20000000000000020e-02  6.00000000000000099e-03  1.19999999999999985e-02
1.20000000000000020e-02  6.00000000000000099e-03  2.00000000000000004e-02
1.20000000000000020e-02  6.00000000000000099e-03  2.80000000000000041e-02
1.20000000000000020e-02  6.00000000000000099e-03  3.59999999999999973e-02
1.20000000000000020e-02  6.00000000000000099e-03  4.40000000000000044e-02
1.20000000000000020e-02  6.00000000000000099e-03  5.19999999999999976e-02
1.20000000000000020e-02  6.00000000000000099e-03  5.99999999999999978e-02
1.20000000000000002e-02  5.99999999999999926e-03  6.79999999999999910e-02
1.20000000000000002e-02  6.00000000000000012e-03  7.59999999999999981e-02

CELLS 0 0


CELL_TYPES 0


POINT_DATA 21

SCALARS Rank unsigned_int
LOOKUP_TABLE default
0 0 0 0 0 0 0 0 0 0 0 0 0 0 0 0 0 0 0 0 0 

VECTORS Forces0 double
2.79269730059365673e-01 -1.09478236467923463e-18 -3.59367125495848871e-02 
2.59131459372198392e-01 2.80311959452246226e-24 -7.74763797524327807e-02 
2.23950543831448606e-01 -1.95349645712862948e-20 -9.68390898198590311e-02 
1.76432708675109101e-01 1.91850305233133861e-20 -9.31824927421793514e-02 
1.28279056935426267e-01 -2.90415124162561047e-24 -7.63272572701896301e-02 
8.93721880050103307e-02 9.35268893191811483e-19 -5.70384912210180339e-02 
6.11462345048884442e-02 1.66474957138054502e-20 -4.04703007822870969e-02 
3.70239600081248912e-02 -4.29037747693315721e-23 -2.49055584513731311e-02 
2.10529284761042726e-02 -1.43125516749777716e-20 -1.42240709833486370e-02 
1.85352767228881728e-02 1.97330590840664025e-19 -1.25209714015752094e-02 
-1.33267604360392655e-03 -2.27708434837879287e-20 -1.93638328062336836e-03 
-1.31984806620244585e-04 2.51285307258680196e-22 1.67331559761603396e-05 
-1.27991747923236705e-04 -5.54722810007049238e-27 3.94654584737311366e-05 
-1.17146454281453390e-04 -9.67487569724864732e-22 5.13009829356054611e-05 
-1.04610676683071952e-04 -1.38122147246948865e-22 5.56366685021266279e-05 
-9.47996798748271024e-05 -8.57698670804731245e-22 5.66480156375826158e-05 
-8.90391045572641316e-05 -1.09476442525376334e-47 5.69522689059293564e-05 
-8.53843203444684483e-05 1.64149624081642483e-22 5.66216959769792939e-05 
-8.68223528992491329e-05 -1.74983391117066985e-22 5.85672946060483479e-05 
-9.17983590668933831e-05 -1.63284771315525465e-25 6.22330920284203511e-05 
-1.03367863420985724e-04 -1.10264864920029037e-21 7.01014005810057019e-05 

