# vtk DataFile Version 2.0

ASCII

DATASET UNSTRUCTURED_GRID

POINTS 44 double 

0.00000000000000000e+00  1.20000000000000002e-02  0.00000000000000000e+00
0.00000000000000000e+00  1.20000000000000002e-02  8.00000000000000017e-03
0.00000000000000000e+00  0.00000000000000000e+00  8.00000000000000017e-03
0.00000000000000000e+00  0.00000000000000000e+00  0.00000000000000000e+00
0.00000000000000000e+00  1.20000000000000002e-02  1.60000000000000003e-02
0.00000000000000000e+00  0.00000000000000000e+00  1.60000000000000003e-02
0.00000000000000000e+00  1.20000000000000002e-02  2.40000000000000005e-02
0.00000000000000000e+00  0.00000000000000000e+00  2.40000000000000005e-02
0.00000000000000000e+00  1.20000000000000002e-02  3.20000000000000007e-02
0.00000000000000000e+00  0.00000000000000000e+00  3.20000000000000007e-02
0.00000000000000000e+00  1.20000000000000002e-02  4.00000000000000008e-02
0.00000000000000000e+00  0.00000000000000000e+00  4.00000000000000008e-02
0.00000000000000000e+00  1.20000000000000002e-02  4.80000000000000010e-02
0.00000000000000000e+00  0.00000000000000000e+00  4.80000000000000010e-02
0.00000000000000000e+00  1.20000000000000002e-02  5.60000000000000012e-02
0.00000000000000000e+00  0.00000000000000000e+00  5.60000000000000012e-02
0.00000000000000000e+00  1.20000000000000002e-02  6.40000000000000013e-02
0.00000000000000000e+00  0.00000000000000000e+00  6.40000000000000013e-02
0.00000000000000000e+00  1.20000000000000002e-02  7.19999999999999946e-02
0.00000000000000000e+00  0.00000000000000000e+00  7.19999999999999946e-02
0.00000000000000000e+00  1.20000000000000002e-02  8.00000000000000017e-02
0.00000000000000000e+00  0.00000000000000000e+00  8.00000000000000017e-02
1.20000000000000002e-02  1.20000000000000002e-02  8.00000000000000017e-02
1.20000000000000002e-02  0.00000000000000000e+00  8.00000000000000017e-02
1.20000000000000002e-02  1.20000000000000002e-02  0.00000000000000000e+00
1.20000000000000002e-02  0.00000000000000000e+00  0.00000000000000000e+00
1.20000000000000002e-02  0.00000000000000000e+00  8.00000000000000017e-03
1.20000000000000002e-02  1.20000000000000002e-02  8.00000000000000017e-03
1.20000000000000002e-02  0.00000000000000000e+00  1.60000000000000003e-02
1.20000000000000002e-02  1.20000000000000002e-02  1.60000000000000003e-02
1.20000000000000002e-02  0.00000000000000000e+00  2.40000000000000005e-02
1.20000000000000002e-02  1.20000000000000002e-02  2.40000000000000005e-02
1.20000000000000002e-02  0.00000000000000000e+00  3.20000000000000007e-02
1.20000000000000002e-02  1.20000000000000002e-02  3.20000000000000007e-02
1.20000000000000002e-02  0.00000000000000000e+00  4.00000000000000008e-02
1.20000000000000002e-02  1.20000000000000002e-02  4.00000000000000008e-02
1.20000000000000002e-02  0.00000000000000000e+00  4.80000000000000010e-02
1.20000000000000002e-02  1.20000000000000002e-02  4.80000000000000010e-02
1.20000000000000002e-02  0.00000000000000000e+00  5.60000000000000012e-02
1.20000000000000002e-02  1.20000000000000002e-02  5.60000000000000012e-02
1.20000000000000002e-02  0.00000000000000000e+00  6.40000000000000013e-02
1.20000000000000002e-02  1.20000000000000002e-02  6.40000000000000013e-02
1.20000000000000002e-02  0.00000000000000000e+00  7.19999999999999946e-02
1.20000000000000002e-02  1.20000000000000002e-02  7.19999999999999946e-02

CELLS 0 0


CELL_TYPES 0


POINT_DATA 44

SCALARS Rank unsigned_int
LOOKUP_TABLE default
0 0 0 0 0 0 0 0 0 0 0 0 0 0 0 0 0 0 0 0 0 0 0 0 0 0 0 0 0 0 0 0 0 0 0 0 0 0 0 0 0 0 0 0 

VECTORS Displacements0 double
-3.38959094637813170e-06 0.00000000000000000e+00 4.59579328367010089e-06 
1.15818130522107139e-03 0.00000000000000000e+00 1.01398872105915808e-03 
1.15836771683329670e-03 0.00000000000000000e+00 1.01412603005398769e-03 
-3.39219694425350535e-06 0.00000000000000000e+00 4.86952289192703336e-06 
3.71709754625961300e-03 0.00000000000000000e+00 1.44697684876301429e-03 
3.71695782221292091e-03 0.00000000000000000e+00 1.44741608092297316e-03 
7.20246238878268722e-03 0.00000000000000000e+00 1.30401079440418217e-03 
7.20256507623041192e-03 0.00000000000000000e+00 1.30452066768617326e-03 
1.12403776446869975e-02 0.00000000000000000e+00 6.86279841333998705e-04 
1.12418900432261493e-02 0.00000000000000000e+00 6.86555481612814017e-04 
1.56087335565361016e-02 0.00000000000000000e+00 -2.81665332223435781e-04 
1.56085796484678983e-02 0.00000000000000000e+00 -2.82021375781905947e-04 
2.01645182105063062e-02 0.00000000000000000e+00 -1.49129184095718632e-03 
2.01641813631388556e-02 0.00000000000000000e+00 -1.49165584263739274e-03 
2.48161204268660465e-02 0.00000000000000000e+00 -2.85331749235646394e-03 
2.48157393254699737e-02 0.00000000000000000e+00 -2.85341164563073305e-03 
2.95109098202816847e-02 0.00000000000000000e+00 -4.30770638313971495e-03 
2.95108022996603027e-02 0.00000000000000000e+00 -4.30759842669982494e-03 
3.42180115948007707e-02 0.00000000000000000e+00 -5.81047090304907896e-03 
3.42177758032714135e-02 0.00000000000000000e+00 -5.81039362145847026e-03 
3.89181765280919856e-02 0.00000000000000000e+00 -7.33156673937129886e-03 
3.89182157855745281e-02 0.00000000000000000e+00 -7.33160468671961545e-03 
3.66338318602304341e-02 0.00000000000000000e+00 -1.43718439119612153e-02 
3.66336773690076958e-02 0.00000000000000000e+00 -1.43719452526428013e-02 
-7.24214896684405694e-06 0.00000000000000000e+00 -1.73721855310437493e-06 
-7.34513412217166657e-06 0.00000000000000000e+00 -1.80976092413985545e-06 
8.28016204196746746e-04 0.00000000000000000e+00 -1.40037746129527581e-03 
8.27845573221709912e-04 0.00000000000000000e+00 -1.40028966314203595e-03 
2.93670022112337264e-03 0.00000000000000000e+00 -2.65908557200195475e-03 
2.93625926482058396e-03 0.00000000000000000e+00 -2.65991501353955197e-03 
5.95307223480696663e-03 0.00000000000000000e+00 -3.94794378444372415e-03 
5.95333236072744573e-03 0.00000000000000000e+00 -3.94769513397070018e-03 
9.60859427407483035e-03 0.00000000000000000e+00 -5.31395068330415329e-03 
9.60833556165263669e-03 0.00000000000000000e+00 -5.31398495448478364e-03 
1.36985803906204615e-02 0.00000000000000000e+00 -6.75553281552087898e-03 
1.36984518162299104e-02 0.00000000000000000e+00 -6.75575472654833028e-03 
1.80689372090289090e-02 0.00000000000000000e+00 -8.25149846042787585e-03 
1.80688124460874691e-02 0.00000000000000000e+00 -8.25187377529879723e-03 
2.26108033104658532e-02 0.00000000000000000e+00 -9.77798456465235957e-03 
2.26109651705394057e-02 0.00000000000000000e+00 -9.77818405262429607e-03 
2.72509164225675539e-02 0.00000000000000000e+00 -1.13146082259606619e-02 
2.72508931635446587e-02 0.00000000000000000e+00 -1.13149002932994049e-02 
3.19368435456003491e-02 0.00000000000000000e+00 -1.28491847678502656e-02 
3.19370565367954190e-02 0.00000000000000000e+00 -1.28491422764786065e-02 

