# vtk DataFile Version 2.0

ASCII

DATASET UNSTRUCTURED_GRID

POINTS 44 double 

0.00000000000000000e+00  1.20000000000000002e-02  0.00000000000000000e+00
0.00000000000000000e+00  1.20000000000000002e-02  8.00000000000000017e-03
0.00000000000000000e+00  0.00000000000000000e+00  8.00000000000000017e-03
0.00000000000000000e+00  0.00000000000000000e+00  0.00000000000000000e+00
0.00000000000000000e+00  1.20000000000000002e-02  1.60000000000000003e-02
0.00000000000000000e+00  0.00000000000000000e+00  1.60000000000000003e-02
0.00000000000000000e+00  1.20000000000000002e-02  2.40000000000000005e-02
0.00000000000000000e+00  0.00000000000000000e+00  2.40000000000000005e-02
0.00000000000000000e+00  1.20000000000000002e-02  3.20000000000000007e-02
0.00000000000000000e+00  0.00000000000000000e+00  3.20000000000000007e-02
0.00000000000000000e+00  1.20000000000000002e-02  4.00000000000000008e-02
0.00000000000000000e+00  0.00000000000000000e+00  4.00000000000000008e-02
0.00000000000000000e+00  1.20000000000000002e-02  4.80000000000000010e-02
0.00000000000000000e+00  0.00000000000000000e+00  4.80000000000000010e-02
0.00000000000000000e+00  1.20000000000000002e-02  5.60000000000000012e-02
0.00000000000000000e+00  0.00000000000000000e+00  5.60000000000000012e-02
0.00000000000000000e+00  1.20000000000000002e-02  6.40000000000000013e-02
0.00000000000000000e+00  0.00000000000000000e+00  6.40000000000000013e-02
0.00000000000000000e+00  1.20000000000000002e-02  7.19999999999999946e-02
0.00000000000000000e+00  0.00000000000000000e+00  7.19999999999999946e-02
0.00000000000000000e+00  1.20000000000000002e-02  8.00000000000000017e-02
0.00000000000000000e+00  0.00000000000000000e+00  8.00000000000000017e-02
1.20000000000000002e-02  1.20000000000000002e-02  8.00000000000000017e-02
1.20000000000000002e-02  0.00000000000000000e+00  8.00000000000000017e-02
1.20000000000000002e-02  1.20000000000000002e-02  0.00000000000000000e+00
1.20000000000000002e-02  0.00000000000000000e+00  0.00000000000000000e+00
1.20000000000000002e-02  0.00000000000000000e+00  8.00000000000000017e-03
1.20000000000000002e-02  1.20000000000000002e-02  8.00000000000000017e-03
1.20000000000000002e-02  0.00000000000000000e+00  1.60000000000000003e-02
1.20000000000000002e-02  1.20000000000000002e-02  1.60000000000000003e-02
1.20000000000000002e-02  0.00000000000000000e+00  2.40000000000000005e-02
1.20000000000000002e-02  1.20000000000000002e-02  2.40000000000000005e-02
1.20000000000000002e-02  0.00000000000000000e+00  3.20000000000000007e-02
1.20000000000000002e-02  1.20000000000000002e-02  3.20000000000000007e-02
1.20000000000000002e-02  0.00000000000000000e+00  4.00000000000000008e-02
1.20000000000000002e-02  1.20000000000000002e-02  4.00000000000000008e-02
1.20000000000000002e-02  0.00000000000000000e+00  4.80000000000000010e-02
1.20000000000000002e-02  1.20000000000000002e-02  4.80000000000000010e-02
1.20000000000000002e-02  0.00000000000000000e+00  5.60000000000000012e-02
1.20000000000000002e-02  1.20000000000000002e-02  5.60000000000000012e-02
1.20000000000000002e-02  0.00000000000000000e+00  6.40000000000000013e-02
1.20000000000000002e-02  1.20000000000000002e-02  6.40000000000000013e-02
1.20000000000000002e-02  0.00000000000000000e+00  7.19999999999999946e-02
1.20000000000000002e-02  1.20000000000000002e-02  7.19999999999999946e-02

CELLS 0 0


CELL_TYPES 0


POINT_DATA 44

SCALARS Rank unsigned_int
LOOKUP_TABLE default
0 0 0 0 0 0 0 0 0 0 0 0 0 0 0 0 0 0 0 0 0 0 0 0 0 0 0 0 0 0 0 0 0 0 0 0 0 0 0 0 0 0 0 0 

VECTORS Displacements0 double
-7.48511673610849805e-09 0.00000000000000000e+00 5.22272453886348516e-09 
1.92674302755737227e-06 0.00000000000000000e+00 2.20029822353873745e-06 
1.92660663926664634e-06 0.00000000000000000e+00 2.20048055699250294e-06 
-7.94290394519120077e-09 0.00000000000000000e+00 5.56006784448389061e-09 
6.15220051013445260e-06 0.00000000000000000e+00 3.71541460784082015e-06 
6.15146745116929232e-06 0.00000000000000000e+00 3.71618031638048027e-06 
1.19812579440452933e-05 0.00000000000000000e+00 4.75059649540603158e-06 
1.19802721642887312e-05 0.00000000000000000e+00 4.75128968057213304e-06 
1.88449106810984344e-05 0.00000000000000000e+00 5.42414434206674238e-06 
1.88469729969291096e-05 0.00000000000000000e+00 5.42576532277552811e-06 
2.63607129765579452e-05 0.00000000000000000e+00 5.83460112583448729e-06 
2.63608416128446704e-05 0.00000000000000000e+00 5.83398093633538931e-06 
3.42401746174006281e-05 0.00000000000000000e+00 6.05717199113479591e-06 
3.42402378129054468e-05 0.00000000000000000e+00 6.05638906849404117e-06 
4.22776948173045781e-05 0.00000000000000000e+00 6.15835230405795651e-06 
4.22775458665960264e-05 0.00000000000000000e+00 6.15805131572532878e-06 
5.03543904998805862e-05 0.00000000000000000e+00 6.19131400124917484e-06 
5.03545056649534514e-05 0.00000000000000000e+00 6.19154009223563450e-06 
5.84220492664484485e-05 0.00000000000000000e+00 6.19657314356469800e-06 
5.84222569794553586e-05 0.00000000000000000e+00 6.19661341611767200e-06 
6.64615764340284118e-05 0.00000000000000000e+00 6.20210000113353283e-06 
6.64612543867767525e-05 0.00000000000000000e+00 6.20193100270852473e-06 
6.64884823410274615e-05 0.00000000000000000e+00 -5.88390006707371477e-06 
6.64885620693876736e-05 0.00000000000000000e+00 -5.88401159412715683e-06 
-9.25656202807791213e-09 0.00000000000000000e+00 -6.60701522951062118e-09 
-9.79573717116747438e-09 0.00000000000000000e+00 -6.92989946231569202e-09 
1.86716241182141677e-06 0.00000000000000000e+00 -2.15149779049057723e-06 
1.86726923437403608e-06 0.00000000000000000e+00 -2.15127017755220172e-06 
6.09930154533164324e-06 0.00000000000000000e+00 -3.63267632423715869e-06 
6.09912304015592978e-06 0.00000000000000000e+00 -3.63430862820528229e-06 
1.19351591920078442e-05 0.00000000000000000e+00 -4.63198470543817244e-06 
1.19358253239770260e-05 0.00000000000000000e+00 -4.63104661753602978e-06 
1.88164411685702330e-05 0.00000000000000000e+00 -5.26928624396195739e-06 
1.88160036618746813e-05 0.00000000000000000e+00 -5.26927896911843039e-06 
2.63434432520620704e-05 0.00000000000000000e+00 -5.64223762637932408e-06 
2.63435809942761047e-05 0.00000000000000000e+00 -5.64272904098602140e-06 
3.42278040621734402e-05 0.00000000000000000e+00 -5.83455922927198167e-06 
3.42279984911579425e-05 0.00000000000000000e+00 -5.83527796322962010e-06 
4.22720959870281449e-05 0.00000000000000000e+00 -5.90596232120046039e-06 
4.22723807569917159e-05 0.00000000000000000e+00 -5.90622203074240316e-06 
5.03537043849611429e-05 0.00000000000000000e+00 -5.90909436075969175e-06 
5.03539007367352704e-05 0.00000000000000000e+00 -5.90930163792315687e-06 
5.84225091731914678e-05 0.00000000000000000e+00 -5.89492528630188733e-06 
5.84224665172149859e-05 0.00000000000000000e+00 -5.89480870243051920e-06 

