# vtk DataFile Version 2.0

ASCII

DATASET UNSTRUCTURED_GRID

POINTS 21 double 

0.00000000000000000e+00  6.00000000000000099e-03  4.00000000000000008e-03
0.00000000000000000e+00  6.00000000000000099e-03  1.20000000000000020e-02
0.00000000000000000e+00  6.00000000000000099e-03  2.00000000000000004e-02
0.00000000000000000e+00  5.99999999999999926e-03  2.80000000000000041e-02
0.00000000000000000e+00  6.00000000000000099e-03  3.60000000000000042e-02
0.00000000000000000e+00  6.00000000000000099e-03  4.39999999999999974e-02
0.00000000000000000e+00  6.00000000000000099e-03  5.19999999999999976e-02
0.00000000000000000e+00  5.99999999999999926e-03  5.99999999999999908e-02
0.00000000000000000e+00  5.99999999999999926e-03  6.79999999999999910e-02
0.00000000000000000e+00  6.00000000000000012e-03  7.59999999999999981e-02
6.00000000000000099e-03  6.00000000000000099e-03  8.00000000000000017e-02
1.20000000000000020e-02  6.00000000000000099e-03  4.00000000000000008e-03
1.20000000000000020e-02  6.00000000000000099e-03  1.19999999999999985e-02
1.20000000000000020e-02  6.00000000000000099e-03  2.00000000000000004e-02
1.20000000000000020e-02  6.00000000000000099e-03  2.80000000000000041e-02
1.20000000000000020e-02  6.00000000000000099e-03  3.59999999999999973e-02
1.20000000000000020e-02  6.00000000000000099e-03  4.40000000000000044e-02
1.20000000000000020e-02  6.00000000000000099e-03  5.19999999999999976e-02
1.20000000000000020e-02  6.00000000000000099e-03  5.99999999999999978e-02
1.20000000000000002e-02  5.99999999999999926e-03  6.79999999999999910e-02
1.20000000000000002e-02  6.00000000000000012e-03  7.59999999999999981e-02

CELLS 0 0


CELL_TYPES 0


POINT_DATA 21

SCALARS Rank unsigned_int
LOOKUP_TABLE default
0 0 0 0 0 0 0 0 0 0 0 0 0 0 0 0 0 0 0 0 0 

VECTORS Forces0 double
1.77469776725821482e-01 -2.18759642382531737e-20 -2.35406432236665158e-02 
1.65905881200201250e-01 -1.33942316291160148e-18 -5.49445934220357743e-02 
1.50159893804743705e-01 4.73539972889458956e-24 -7.62871969239468789e-02 
1.39589702362980100e-01 -1.99340915579896548e-20 -9.18373268597999226e-02 
1.28413869994617735e-01 2.75815266051099919e-18 -1.00435323093517020e-01 
1.01751440247113245e-01 2.29189637526331367e-18 -8.93444191604859383e-02 
7.77044817771682522e-02 -5.43929120675641333e-24 -7.32518752686128066e-02 
7.39431944898777949e-02 1.57836776190025616e-20 -7.24538167637946567e-02 
7.30583035035284184e-02 1.39133960206145934e-20 -7.27395447871075213e-02 
5.59477709773164786e-02 -6.36028180300604777e-24 -5.58626253635995801e-02 
4.61962399740098589e-02 -3.15054602092786209e-22 4.63390732452464427e-02 
4.03822345385283386e-04 -8.74570310337578416e-23 -5.15460622571461047e-05 
4.04718296207926714e-04 -5.53321905971418175e-27 -1.37969103914274937e-04 
3.97615771904604939e-04 -1.07851729581784258e-22 -2.04982888194688245e-04 
3.93416696556662937e-04 1.07866434381492444e-25 -2.61011000190879551e-04 
3.91233312403408589e-04 -1.29806496540742016e-22 -3.07534286850639311e-04 
3.93838784323023120e-04 -4.80021251412798525e-21 -3.46630905990298415e-04 
4.07217359335167552e-04 -7.28781228671302361e-26 -3.84555638655292300e-04 
4.37325534283452026e-04 -5.33783436699039514e-25 -4.29187080481257383e-04 
4.95020969592489184e-04 -2.09197505395505740e-22 -4.93426532903186899e-04 
7.36457867980183753e-04 5.67814179295246546e-25 -7.32918446078554891e-04 

