# vtk DataFile Version 2.0

ASCII

DATASET UNSTRUCTURED_GRID

POINTS 44 double 

0.00000000000000000e+00  1.20000000000000002e-02  0.00000000000000000e+00
0.00000000000000000e+00  1.20000000000000002e-02  8.00000000000000017e-03
0.00000000000000000e+00  0.00000000000000000e+00  8.00000000000000017e-03
0.00000000000000000e+00  0.00000000000000000e+00  0.00000000000000000e+00
0.00000000000000000e+00  1.20000000000000002e-02  1.60000000000000003e-02
0.00000000000000000e+00  0.00000000000000000e+00  1.60000000000000003e-02
0.00000000000000000e+00  1.20000000000000002e-02  2.40000000000000005e-02
0.00000000000000000e+00  0.00000000000000000e+00  2.40000000000000005e-02
0.00000000000000000e+00  1.20000000000000002e-02  3.20000000000000007e-02
0.00000000000000000e+00  0.00000000000000000e+00  3.20000000000000007e-02
0.00000000000000000e+00  1.20000000000000002e-02  4.00000000000000008e-02
0.00000000000000000e+00  0.00000000000000000e+00  4.00000000000000008e-02
0.00000000000000000e+00  1.20000000000000002e-02  4.80000000000000010e-02
0.00000000000000000e+00  0.00000000000000000e+00  4.80000000000000010e-02
0.00000000000000000e+00  1.20000000000000002e-02  5.60000000000000012e-02
0.00000000000000000e+00  0.00000000000000000e+00  5.60000000000000012e-02
0.00000000000000000e+00  1.20000000000000002e-02  6.40000000000000013e-02
0.00000000000000000e+00  0.00000000000000000e+00  6.40000000000000013e-02
0.00000000000000000e+00  1.20000000000000002e-02  7.19999999999999946e-02
0.00000000000000000e+00  0.00000000000000000e+00  7.19999999999999946e-02
0.00000000000000000e+00  1.20000000000000002e-02  8.00000000000000017e-02
0.00000000000000000e+00  0.00000000000000000e+00  8.00000000000000017e-02
1.20000000000000002e-02  1.20000000000000002e-02  8.00000000000000017e-02
1.20000000000000002e-02  0.00000000000000000e+00  8.00000000000000017e-02
1.20000000000000002e-02  1.20000000000000002e-02  0.00000000000000000e+00
1.20000000000000002e-02  0.00000000000000000e+00  0.00000000000000000e+00
1.20000000000000002e-02  0.00000000000000000e+00  8.00000000000000017e-03
1.20000000000000002e-02  1.20000000000000002e-02  8.00000000000000017e-03
1.20000000000000002e-02  0.00000000000000000e+00  1.60000000000000003e-02
1.20000000000000002e-02  1.20000000000000002e-02  1.60000000000000003e-02
1.20000000000000002e-02  0.00000000000000000e+00  2.40000000000000005e-02
1.20000000000000002e-02  1.20000000000000002e-02  2.40000000000000005e-02
1.20000000000000002e-02  0.00000000000000000e+00  3.20000000000000007e-02
1.20000000000000002e-02  1.20000000000000002e-02  3.20000000000000007e-02
1.20000000000000002e-02  0.00000000000000000e+00  4.00000000000000008e-02
1.20000000000000002e-02  1.20000000000000002e-02  4.00000000000000008e-02
1.20000000000000002e-02  0.00000000000000000e+00  4.80000000000000010e-02
1.20000000000000002e-02  1.20000000000000002e-02  4.80000000000000010e-02
1.20000000000000002e-02  0.00000000000000000e+00  5.60000000000000012e-02
1.20000000000000002e-02  1.20000000000000002e-02  5.60000000000000012e-02
1.20000000000000002e-02  0.00000000000000000e+00  6.40000000000000013e-02
1.20000000000000002e-02  1.20000000000000002e-02  6.40000000000000013e-02
1.20000000000000002e-02  0.00000000000000000e+00  7.19999999999999946e-02
1.20000000000000002e-02  1.20000000000000002e-02  7.19999999999999946e-02

CELLS 0 0


CELL_TYPES 0


POINT_DATA 44

SCALARS Rank unsigned_int
LOOKUP_TABLE default
0 0 0 0 0 0 0 0 0 0 0 0 0 0 0 0 0 0 0 0 0 0 0 0 0 0 0 0 0 0 0 0 0 0 0 0 0 0 0 0 0 0 0 0 

VECTORS Displacements0 double
-2.03511844648660807e-09 0.00000000000000000e+00 1.24064498151064089e-09 
3.73329206875567952e-07 0.00000000000000000e+00 4.64071862821094923e-07 
3.73344473172540777e-07 0.00000000000000000e+00 4.64067119332626586e-07 
-2.07765385464786514e-09 0.00000000000000000e+00 1.28085165817719640e-09 
1.27774591448413054e-06 0.00000000000000000e+00 8.26114253666200042e-07 
1.27759231841487815e-06 0.00000000000000000e+00 8.26186446242479580e-07 
2.60090303618922838e-06 0.00000000000000000e+00 1.10036278970712861e-06 
2.60070376338899324e-06 0.00000000000000000e+00 1.10059041575491870e-06 
4.22264097536559478e-06 0.00000000000000000e+00 1.29185956729777511e-06 
4.22313388724390235e-06 0.00000000000000000e+00 1.29234063990920372e-06 
6.04229851051710222e-06 0.00000000000000000e+00 1.41434049417711723e-06 
6.04237905825849328e-06 0.00000000000000000e+00 1.41420835913450977e-06 
7.97874017469232554e-06 0.00000000000000000e+00 1.48496640291079659e-06 
7.97881505976277545e-06 0.00000000000000000e+00 1.48479405351412198e-06 
9.97479778297999720e-06 0.00000000000000000e+00 1.52191907797045777e-06 
9.97481344911660823e-06 0.00000000000000000e+00 1.52182990207955104e-06 
1.19958522594127104e-05 0.00000000000000000e+00 1.53721031577660397e-06 
1.19959134681682054e-05 0.00000000000000000e+00 1.53725008235522599e-06 
1.40200527817177608e-05 0.00000000000000000e+00 1.54125925211872518e-06 
1.40201180676403504e-05 0.00000000000000000e+00 1.54121620855715380e-06 
1.60374499338076617e-05 0.00000000000000000e+00 1.54315711942911334e-06 
1.60373420064739182e-05 0.00000000000000000e+00 1.54308644576366897e-06 
1.60489409494188654e-05 0.00000000000000000e+00 -1.48996897241055965e-06 
1.60489360412679940e-05 0.00000000000000000e+00 -1.48994367697406201e-06 
-2.63975026973791141e-09 0.00000000000000000e+00 -1.61285943837916289e-09 
-2.71569736654052110e-09 0.00000000000000000e+00 -1.62605099575114097e-09 
3.65269284472963807e-07 0.00000000000000000e+00 -4.53625886705511131e-07 
3.65280852048948465e-07 0.00000000000000000e+00 -4.53628449240569273e-07 
1.27034866307831197e-06 0.00000000000000000e+00 -8.08203273156789781e-07 
1.27031704767273648e-06 0.00000000000000000e+00 -8.08566127673146638e-07 
2.59309582670806883e-06 0.00000000000000000e+00 -1.07688216847489233e-06 
2.59335018356347537e-06 0.00000000000000000e+00 -1.07667857741334456e-06 
4.21748182829275619e-06 0.00000000000000000e+00 -1.26456703519202840e-06 
4.21743862360426450e-06 0.00000000000000000e+00 -1.26449401925605058e-06 
6.03920775362221366e-06 0.00000000000000000e+00 -1.38292479075533238e-06 
6.03928103482723308e-06 0.00000000000000000e+00 -1.38305103849950930e-06 
7.97724388229057485e-06 0.00000000000000000e+00 -1.45087808889622595e-06 
7.97731723023996261e-06 0.00000000000000000e+00 -1.45106200169677849e-06 
9.97538865280137379e-06 0.00000000000000000e+00 -1.48399121516972539e-06 
9.97545346682012102e-06 0.00000000000000000e+00 -1.48404939220590410e-06 
1.19977562634734270e-05 0.00000000000000000e+00 -1.49326173400911032e-06 
1.19977827244278670e-05 0.00000000000000000e+00 -1.49338666946169902e-06 
1.40227326762986384e-05 0.00000000000000000e+00 -1.49181925425363853e-06 
1.40227235766078855e-05 0.00000000000000000e+00 -1.49183561517434243e-06 

