# vtk DataFile Version 2.0

ASCII

DATASET UNSTRUCTURED_GRID

POINTS 21 double 

0.00000000000000000e+00  6.00000000000000099e-03  4.00000000000000008e-03
0.00000000000000000e+00  6.00000000000000099e-03  1.20000000000000020e-02
0.00000000000000000e+00  6.00000000000000099e-03  2.00000000000000004e-02
0.00000000000000000e+00  5.99999999999999926e-03  2.80000000000000041e-02
0.00000000000000000e+00  6.00000000000000099e-03  3.60000000000000042e-02
0.00000000000000000e+00  6.00000000000000099e-03  4.39999999999999974e-02
0.00000000000000000e+00  6.00000000000000099e-03  5.19999999999999976e-02
0.00000000000000000e+00  5.99999999999999926e-03  5.99999999999999908e-02
0.00000000000000000e+00  5.99999999999999926e-03  6.79999999999999910e-02
0.00000000000000000e+00  6.00000000000000012e-03  7.59999999999999981e-02
6.00000000000000099e-03  6.00000000000000099e-03  8.00000000000000017e-02
1.20000000000000020e-02  6.00000000000000099e-03  4.00000000000000008e-03
1.20000000000000020e-02  6.00000000000000099e-03  1.19999999999999985e-02
1.20000000000000020e-02  6.00000000000000099e-03  2.00000000000000004e-02
1.20000000000000020e-02  6.00000000000000099e-03  2.80000000000000041e-02
1.20000000000000020e-02  6.00000000000000099e-03  3.59999999999999973e-02
1.20000000000000020e-02  6.00000000000000099e-03  4.40000000000000044e-02
1.20000000000000020e-02  6.00000000000000099e-03  5.19999999999999976e-02
1.20000000000000020e-02  6.00000000000000099e-03  5.99999999999999978e-02
1.20000000000000002e-02  5.99999999999999926e-03  6.79999999999999910e-02
1.20000000000000002e-02  6.00000000000000012e-03  7.59999999999999981e-02

CELLS 0 0


CELL_TYPES 0


POINT_DATA 21

SCALARS Rank unsigned_int
LOOKUP_TABLE default
0 0 0 0 0 0 0 0 0 0 0 0 0 0 0 0 0 0 0 0 0 

VECTORS Forces0 double
2.30386552700302200e-01 -3.34510419707775022e-24 -3.04154045214930606e-02 
2.22678838132230383e-01 -4.19822867485257356e-20 -7.22023411399502352e-02 
1.90627059941061411e-01 1.74438498002556246e-18 -9.40116486480795099e-02 
1.42094632802135995e-01 5.90326828867293897e-24 -9.02522111180598663e-02 
9.86751672697265547e-02 2.05886326415204688e-18 -7.43118966131986053e-02 
7.30976585561193132e-02 1.63353553543930713e-18 -6.16968039438100593e-02 
6.05070996524795721e-02 1.41135908296414765e-18 -5.47562453448207295e-02 
5.14083625456696197e-02 2.23610112700285640e-23 -4.83124706437836129e-02 
4.64140940097025959e-02 1.41163640563236812e-20 -4.42748682821517484e-02 
4.53819322480312551e-02 -9.56558553270085220e-24 -4.33656360133853058e-02 
-1.72161471247854968e-03 1.34524652575182439e-43 -1.77300342754035598e-03 
-3.29389061111764764e-04 -6.37369620001617604e-27 4.19724382564088964e-05 
-3.29057693897748401e-04 1.76980874635586879e-21 1.09888492285418202e-04 
-3.12924331168836455e-04 3.54580206320191870e-21 1.56546855568551446e-04 
-2.89600248606844304e-04 1.23287927951456588e-22 1.85551759309965055e-04 
-2.65726810295983723e-04 -1.33939264084247151e-22 2.01257717550819070e-04 
-2.41907142730586437e-04 2.90000562165679405e-22 2.04817564368145412e-04 
-2.17317817395446542e-04 -5.13184570154535216e-21 1.97104257185621516e-04 
-1.95713508442818394e-04 -3.62244578756481775e-25 1.84248728647471355e-04 
-1.75697709573484980e-04 -1.90181576937045435e-25 1.67801508330733113e-04 
-1.46659539208798752e-04 3.09452010752139312e-22 1.39678828672699728e-04 

