# vtk DataFile Version 2.0

ASCII

DATASET UNSTRUCTURED_GRID

POINTS 21 double 

0.00000000000000000e+00  6.00000000000000099e-03  4.00000000000000008e-03
0.00000000000000000e+00  6.00000000000000099e-03  1.20000000000000020e-02
0.00000000000000000e+00  6.00000000000000099e-03  2.00000000000000004e-02
0.00000000000000000e+00  5.99999999999999926e-03  2.80000000000000041e-02
0.00000000000000000e+00  6.00000000000000099e-03  3.60000000000000042e-02
0.00000000000000000e+00  6.00000000000000099e-03  4.39999999999999974e-02
0.00000000000000000e+00  6.00000000000000099e-03  5.19999999999999976e-02
0.00000000000000000e+00  5.99999999999999926e-03  5.99999999999999908e-02
0.00000000000000000e+00  5.99999999999999926e-03  6.79999999999999910e-02
0.00000000000000000e+00  6.00000000000000012e-03  7.59999999999999981e-02
6.00000000000000099e-03  6.00000000000000099e-03  8.00000000000000017e-02
1.20000000000000020e-02  6.00000000000000099e-03  4.00000000000000008e-03
1.20000000000000020e-02  6.00000000000000099e-03  1.19999999999999985e-02
1.20000000000000020e-02  6.00000000000000099e-03  2.00000000000000004e-02
1.20000000000000020e-02  6.00000000000000099e-03  2.80000000000000041e-02
1.20000000000000020e-02  6.00000000000000099e-03  3.59999999999999973e-02
1.20000000000000020e-02  6.00000000000000099e-03  4.40000000000000044e-02
1.20000000000000020e-02  6.00000000000000099e-03  5.19999999999999976e-02
1.20000000000000020e-02  6.00000000000000099e-03  5.99999999999999978e-02
1.20000000000000002e-02  5.99999999999999926e-03  6.79999999999999910e-02
1.20000000000000002e-02  6.00000000000000012e-03  7.59999999999999981e-02

CELLS 0 0


CELL_TYPES 0


POINT_DATA 21

SCALARS Rank unsigned_int
LOOKUP_TABLE default
0 0 0 0 0 0 0 0 0 0 0 0 0 0 0 0 0 0 0 0 0 

VECTORS Forces0 double
1.74669393878775191e-02 2.80848156972960015e-27 -1.20880140516712291e-05 
7.15765788905683292e-03 3.71485776990509897e-22 -4.04757090158232860e-06 
2.37485338085564142e-03 -2.39212038654542753e-22 -8.58288993242202286e-07 
7.88432451662423868e-04 -1.95318890844789532e-22 2.75937457516022326e-07 
4.10596950499626107e-04 1.64397749163453476e-22 5.21597251039523291e-07 
2.85447406934053220e-04 1.61811578139143578e-22 5.06097661518924569e-07 
1.80416298976141399e-04 -6.22249014558777852e-24 4.73917920239592239e-07 
8.37650937072118799e-05 1.68673620738023453e-22 4.73019786999148207e-07 
9.80136403940000408e-06 1.68404343208257753e-22 5.01794005831898339e-07 
-4.86697326670322526e-05 1.68277578486699512e-22 5.33875737043555660e-07 
3.55381090954432682e-07 -2.53430227489363077e-22 3.90853964062634715e-04 
1.83917336004295087e-05 -9.49488413148666015e-31 -9.78337952591170486e-09 
2.63023521627347476e-05 5.04873779094953012e-22 -2.06784104262905859e-08 
3.44434179490000908e-05 1.67728390584778718e-22 -2.88650074643510350e-08 
4.28439896177437187e-05 -1.68329262444627400e-22 -3.91252187730180681e-08 
5.17288974160154722e-05 1.68336190421189135e-22 -5.13172880584993458e-08 
6.15049973281303722e-05 2.12009960193091627e-24 -6.44401870608594927e-08 
7.26253834518976384e-05 2.50345517503041419e-24 -7.65876619589157410e-08 
8.49754798786462115e-05 2.92911138787122871e-24 -8.07380039809689359e-08 
1.05213365303510176e-04 -3.14049853435832988e-50 -9.85571299367791504e-08 
1.17469942193196723e-04 -1.68469290347082419e-22 -1.18030952835568162e-07 

