# vtk DataFile Version 2.0

ASCII

DATASET UNSTRUCTURED_GRID

POINTS 21 double 

0.00000000000000000e+00  6.00000000000000099e-03  4.00000000000000008e-03
0.00000000000000000e+00  6.00000000000000099e-03  1.20000000000000020e-02
0.00000000000000000e+00  6.00000000000000099e-03  2.00000000000000004e-02
0.00000000000000000e+00  5.99999999999999926e-03  2.80000000000000041e-02
0.00000000000000000e+00  6.00000000000000099e-03  3.60000000000000042e-02
0.00000000000000000e+00  6.00000000000000099e-03  4.39999999999999974e-02
0.00000000000000000e+00  6.00000000000000099e-03  5.19999999999999976e-02
0.00000000000000000e+00  5.99999999999999926e-03  5.99999999999999908e-02
0.00000000000000000e+00  5.99999999999999926e-03  6.79999999999999910e-02
0.00000000000000000e+00  6.00000000000000012e-03  7.59999999999999981e-02
6.00000000000000099e-03  6.00000000000000099e-03  8.00000000000000017e-02
1.20000000000000020e-02  6.00000000000000099e-03  4.00000000000000008e-03
1.20000000000000020e-02  6.00000000000000099e-03  1.19999999999999985e-02
1.20000000000000020e-02  6.00000000000000099e-03  2.00000000000000004e-02
1.20000000000000020e-02  6.00000000000000099e-03  2.80000000000000041e-02
1.20000000000000020e-02  6.00000000000000099e-03  3.59999999999999973e-02
1.20000000000000020e-02  6.00000000000000099e-03  4.40000000000000044e-02
1.20000000000000020e-02  6.00000000000000099e-03  5.19999999999999976e-02
1.20000000000000020e-02  6.00000000000000099e-03  5.99999999999999978e-02
1.20000000000000002e-02  5.99999999999999926e-03  6.79999999999999910e-02
1.20000000000000002e-02  6.00000000000000012e-03  7.59999999999999981e-02

CELLS 0 0


CELL_TYPES 0


POINT_DATA 21

SCALARS Rank unsigned_int
LOOKUP_TABLE default
0 0 0 0 0 0 0 0 0 0 0 0 0 0 0 0 0 0 0 0 0 

VECTORS Forces0 double
2.75575488370249033e-01 -1.94332109792342466e-20 -2.67533199980361514e-02 
2.57958898463266084e-01 1.08640682889132215e-18 -5.57389454534944900e-02 
2.21373193628232046e-01 -1.84241521623009923e-20 -6.68659874545495664e-02 
1.72642604521179188e-01 -5.37590624834840005e-23 -6.18408896422787402e-02 
1.29850080688668101e-01 1.79487345833423267e-20 -5.12666054926928377e-02 
9.36962722219197575e-02 9.02271873005627382e-19 -3.91246176787162780e-02 
6.04005085865706379e-02 -1.67511498922890234e-20 -2.59383019304907647e-02 
3.72765422019238693e-02 -3.41494366730373754e-19 -1.61952580921547913e-02 
2.69101012937871635e-02 3.04040193268604020e-19 -1.17243247933212485e-02 
2.59596492163233321e-02 -1.36658755621372038e-20 -1.13106168493430168e-02 
1.73011678610760942e-04 6.52289618421472834e-23 4.24079553342485713e-04 
1.18868349476026244e-04 1.20300346450267599e-22 -1.13529133276463030e-05 
1.31254122050275025e-04 5.11763491564807670e-22 -2.90217196843337294e-05 
1.39800767766573174e-04 -1.35807804816444487e-21 -4.25995342425202549e-05 
1.49119515179879761e-04 1.44437312118585184e-21 -5.37169287929322996e-05 
1.65954470914224232e-04 -2.49536171785431814e-25 -6.57875493479841611e-05 
1.88700994467503116e-04 1.66258077146117977e-21 -7.89571974437719269e-05 
2.17618083311965768e-04 1.66974614956420817e-22 -9.36983005683544493e-05 
2.44365682927371957e-04 2.35693406967617586e-21 -1.06499247079957580e-04 
2.84403678226800264e-04 2.74040676204580482e-21 -1.24371040449016416e-04 
3.67407178977973814e-04 3.50324616081204268e-46 -1.60387521215048695e-04 

