# vtk DataFile Version 2.0

ASCII

DATASET UNSTRUCTURED_GRID

POINTS 21 double 

0.00000000000000000e+00  6.00000000000000099e-03  4.00000000000000008e-03
0.00000000000000000e+00  6.00000000000000099e-03  1.20000000000000020e-02
0.00000000000000000e+00  6.00000000000000099e-03  2.00000000000000004e-02
0.00000000000000000e+00  5.99999999999999926e-03  2.80000000000000041e-02
0.00000000000000000e+00  6.00000000000000099e-03  3.60000000000000042e-02
0.00000000000000000e+00  6.00000000000000099e-03  4.39999999999999974e-02
0.00000000000000000e+00  6.00000000000000099e-03  5.19999999999999976e-02
0.00000000000000000e+00  5.99999999999999926e-03  5.99999999999999908e-02
0.00000000000000000e+00  5.99999999999999926e-03  6.79999999999999910e-02
0.00000000000000000e+00  6.00000000000000012e-03  7.59999999999999981e-02
6.00000000000000099e-03  6.00000000000000099e-03  8.00000000000000017e-02
1.20000000000000020e-02  6.00000000000000099e-03  4.00000000000000008e-03
1.20000000000000020e-02  6.00000000000000099e-03  1.19999999999999985e-02
1.20000000000000020e-02  6.00000000000000099e-03  2.00000000000000004e-02
1.20000000000000020e-02  6.00000000000000099e-03  2.80000000000000041e-02
1.20000000000000020e-02  6.00000000000000099e-03  3.59999999999999973e-02
1.20000000000000020e-02  6.00000000000000099e-03  4.40000000000000044e-02
1.20000000000000020e-02  6.00000000000000099e-03  5.19999999999999976e-02
1.20000000000000020e-02  6.00000000000000099e-03  5.99999999999999978e-02
1.20000000000000002e-02  5.99999999999999926e-03  6.79999999999999910e-02
1.20000000000000002e-02  6.00000000000000012e-03  7.59999999999999981e-02

CELLS 0 0


CELL_TYPES 0


POINT_DATA 21

SCALARS Rank unsigned_int
LOOKUP_TABLE default
0 0 0 0 0 0 0 0 0 0 0 0 0 0 0 0 0 0 0 0 0 

VECTORS Forces0 double
1.25176528921653284e-04 -1.68134610238099997e-22 -9.04243501254746188e-09 
1.16235913065668118e-04 -5.00683148557017899e-25 -8.11266033550470997e-09 
1.05769697630730727e-04 1.68386649026901624e-22 -4.89498737937662157e-09 
9.39734290010155822e-05 1.69188437266300107e-22 2.29469657047963548e-09 
8.09622002460170354e-05 3.36744659790898934e-22 1.25148914837418081e-08 
6.68007268746632942e-05 1.68366876344730869e-22 2.49586271170943960e-08 
5.14878666688573568e-05 1.68361929622771176e-22 3.90242997589134018e-08 
3.49202957098070145e-05 1.68356293377789191e-22 5.47291410534008367e-08 
1.65428280063576838e-05 3.21567004182967289e-51 7.31004872090743261e-08 
-4.22317036871841665e-06 1.68328568039336024e-22 8.75207930449514398e-08 
1.18683302972264639e-07 -2.04242382689990565e-24 8.89508781962940399e-05 
-1.44926692973709717e-05 3.36676223326723561e-22 9.98688463414806665e-10 
-6.91423519691946527e-06 1.68301512816193054e-22 -6.63969686242324029e-10 
5.66572858368780478e-07 3.36684856036889452e-22 -3.47932988639603316e-09 
7.95095381311523104e-06 1.68347778883513862e-22 -7.33604815938635005e-09 
1.52322893999676564e-05 3.36708729364339909e-22 -1.17968191203451209e-08 
2.24096309680868558e-05 -8.15187010254455377e-32 -1.66076634803250021e-08 
2.95168610730140014e-05 -3.36729703049397960e-22 -2.19996941829864468e-08 
3.64769786992454335e-05 1.68684734112932376e-22 -2.72677834815626588e-08 
4.30625073986483611e-05 2.69905502929989438e-29 -2.72169050092171719e-08 
5.28654911524077488e-05 1.68853466321388573e-22 -3.50021822710355379e-08 

