# vtk DataFile Version 2.0

ASCII

DATASET UNSTRUCTURED_GRID

POINTS 21 double 

0.00000000000000000e+00  6.00000000000000099e-03  4.00000000000000008e-03
0.00000000000000000e+00  6.00000000000000099e-03  1.20000000000000020e-02
0.00000000000000000e+00  6.00000000000000099e-03  2.00000000000000004e-02
0.00000000000000000e+00  5.99999999999999926e-03  2.80000000000000041e-02
0.00000000000000000e+00  6.00000000000000099e-03  3.60000000000000042e-02
0.00000000000000000e+00  6.00000000000000099e-03  4.39999999999999974e-02
0.00000000000000000e+00  6.00000000000000099e-03  5.19999999999999976e-02
0.00000000000000000e+00  5.99999999999999926e-03  5.99999999999999908e-02
0.00000000000000000e+00  5.99999999999999926e-03  6.79999999999999910e-02
0.00000000000000000e+00  6.00000000000000012e-03  7.59999999999999981e-02
6.00000000000000099e-03  6.00000000000000099e-03  8.00000000000000017e-02
1.20000000000000020e-02  6.00000000000000099e-03  4.00000000000000008e-03
1.20000000000000020e-02  6.00000000000000099e-03  1.19999999999999985e-02
1.20000000000000020e-02  6.00000000000000099e-03  2.00000000000000004e-02
1.20000000000000020e-02  6.00000000000000099e-03  2.80000000000000041e-02
1.20000000000000020e-02  6.00000000000000099e-03  3.59999999999999973e-02
1.20000000000000020e-02  6.00000000000000099e-03  4.40000000000000044e-02
1.20000000000000020e-02  6.00000000000000099e-03  5.19999999999999976e-02
1.20000000000000020e-02  6.00000000000000099e-03  5.99999999999999978e-02
1.20000000000000002e-02  5.99999999999999926e-03  6.79999999999999910e-02
1.20000000000000002e-02  6.00000000000000012e-03  7.59999999999999981e-02

CELLS 0 0


CELL_TYPES 0


POINT_DATA 21

SCALARS Rank unsigned_int
LOOKUP_TABLE default
0 0 0 0 0 0 0 0 0 0 0 0 0 0 0 0 0 0 0 0 0 

VECTORS Forces0 double
2.41336511429240654e-04 -1.69186718803800486e-29 -3.62889207963688983e-08 
2.30195041603541861e-04 1.69120830422711378e-29 -4.82911667955942762e-08 
2.11797124576647424e-04 8.01764295189690854e-30 -4.48011553731048694e-08 
1.88058696205439173e-04 1.68398976209705047e-22 -2.85023565425369579e-08 
1.61440212582196881e-04 -1.65605436925595396e-22 -4.10156331867254423e-09 
1.33422106601598138e-04 2.29882343910968435e-24 2.60008377905068653e-08 
1.04575838379419484e-04 -1.68365665500828987e-22 6.02712399250496490e-08 
7.46998411657210591e-05 1.68352244810427227e-22 9.76932678436972281e-08 
4.24978767088164414e-05 1.68329219691545001e-22 1.42546377933064657e-07 
5.73130242178160036e-06 2.33384602422656707e-28 1.82640622272946050e-07 
2.30517797621141520e-07 4.02646321868405282e-24 1.75344165505040981e-04 
-1.30800334229016196e-05 -1.68282386371940407e-22 1.78373461637153244e-09 
-5.43273653865144613e-06 1.68345244184918561e-22 -8.83713066801543484e-10 
2.18407261830645733e-06 1.25438561162477037e-29 -6.00604370244820482e-09 
9.78109618991836570e-06 -6.86759916056817436e-31 -1.31839244553343396e-08 
1.73856762672337106e-05 1.68339941929521815e-22 -2.15739081474135731e-08 
2.50226164332515863e-05 8.61451572520660801e-31 -3.06993898594324218e-08 
3.28298361519340350e-05 -5.65746033112520934e-25 -4.07251773460721678e-08 
4.09750167197939113e-05 -7.06152140177513513e-25 -4.85857000269583516e-08 
4.83203081325182105e-05 -4.53278880403303129e-31 -4.53696435154825173e-08 
6.02859459949660806e-05 -5.82675680423175844e-29 -6.62681576099438546e-08 

