# vtk DataFile Version 2.0

ASCII

DATASET UNSTRUCTURED_GRID

POINTS 44 double 

0.00000000000000000e+00  1.20000000000000002e-02  0.00000000000000000e+00
0.00000000000000000e+00  1.20000000000000002e-02  8.00000000000000017e-03
0.00000000000000000e+00  0.00000000000000000e+00  8.00000000000000017e-03
0.00000000000000000e+00  0.00000000000000000e+00  0.00000000000000000e+00
0.00000000000000000e+00  1.20000000000000002e-02  1.60000000000000003e-02
0.00000000000000000e+00  0.00000000000000000e+00  1.60000000000000003e-02
0.00000000000000000e+00  1.20000000000000002e-02  2.40000000000000005e-02
0.00000000000000000e+00  0.00000000000000000e+00  2.40000000000000005e-02
0.00000000000000000e+00  1.20000000000000002e-02  3.20000000000000007e-02
0.00000000000000000e+00  0.00000000000000000e+00  3.20000000000000007e-02
0.00000000000000000e+00  1.20000000000000002e-02  4.00000000000000008e-02
0.00000000000000000e+00  0.00000000000000000e+00  4.00000000000000008e-02
0.00000000000000000e+00  1.20000000000000002e-02  4.80000000000000010e-02
0.00000000000000000e+00  0.00000000000000000e+00  4.80000000000000010e-02
0.00000000000000000e+00  1.20000000000000002e-02  5.60000000000000012e-02
0.00000000000000000e+00  0.00000000000000000e+00  5.60000000000000012e-02
0.00000000000000000e+00  1.20000000000000002e-02  6.40000000000000013e-02
0.00000000000000000e+00  0.00000000000000000e+00  6.40000000000000013e-02
0.00000000000000000e+00  1.20000000000000002e-02  7.19999999999999946e-02
0.00000000000000000e+00  0.00000000000000000e+00  7.19999999999999946e-02
0.00000000000000000e+00  1.20000000000000002e-02  8.00000000000000017e-02
0.00000000000000000e+00  0.00000000000000000e+00  8.00000000000000017e-02
1.20000000000000002e-02  1.20000000000000002e-02  8.00000000000000017e-02
1.20000000000000002e-02  0.00000000000000000e+00  8.00000000000000017e-02
1.20000000000000002e-02  1.20000000000000002e-02  0.00000000000000000e+00
1.20000000000000002e-02  0.00000000000000000e+00  0.00000000000000000e+00
1.20000000000000002e-02  0.00000000000000000e+00  8.00000000000000017e-03
1.20000000000000002e-02  1.20000000000000002e-02  8.00000000000000017e-03
1.20000000000000002e-02  0.00000000000000000e+00  1.60000000000000003e-02
1.20000000000000002e-02  1.20000000000000002e-02  1.60000000000000003e-02
1.20000000000000002e-02  0.00000000000000000e+00  2.40000000000000005e-02
1.20000000000000002e-02  1.20000000000000002e-02  2.40000000000000005e-02
1.20000000000000002e-02  0.00000000000000000e+00  3.20000000000000007e-02
1.20000000000000002e-02  1.20000000000000002e-02  3.20000000000000007e-02
1.20000000000000002e-02  0.00000000000000000e+00  4.00000000000000008e-02
1.20000000000000002e-02  1.20000000000000002e-02  4.00000000000000008e-02
1.20000000000000002e-02  0.00000000000000000e+00  4.80000000000000010e-02
1.20000000000000002e-02  1.20000000000000002e-02  4.80000000000000010e-02
1.20000000000000002e-02  0.00000000000000000e+00  5.60000000000000012e-02
1.20000000000000002e-02  1.20000000000000002e-02  5.60000000000000012e-02
1.20000000000000002e-02  0.00000000000000000e+00  6.40000000000000013e-02
1.20000000000000002e-02  1.20000000000000002e-02  6.40000000000000013e-02
1.20000000000000002e-02  0.00000000000000000e+00  7.19999999999999946e-02
1.20000000000000002e-02  1.20000000000000002e-02  7.19999999999999946e-02

CELLS 0 0


CELL_TYPES 0


POINT_DATA 44

SCALARS Rank unsigned_int
LOOKUP_TABLE default
0 0 0 0 0 0 0 0 0 0 0 0 0 0 0 0 0 0 0 0 0 0 0 0 0 0 0 0 0 0 0 0 0 0 0 0 0 0 0 0 0 0 0 0 

VECTORS Displacements0 double
-2.61039118232956233e-07 0.00000000000000000e+00 7.75503784521706006e-07 
6.23166940824603313e-04 0.00000000000000000e+00 5.42700569115832279e-04 
6.23213411769566860e-04 0.00000000000000000e+00 5.42705628130778174e-04 
-2.50045919819087172e-07 0.00000000000000000e+00 8.34936173291136313e-07 
1.77232063736964271e-03 0.00000000000000000e+00 7.64252608680663368e-04 
1.77206784570967959e-03 0.00000000000000000e+00 7.64522840073519547e-04 
3.13482978732278943e-03 0.00000000000000000e+00 7.69121072922999234e-04 
3.13462387722798557e-03 0.00000000000000000e+00 7.69266710824983730e-04 
4.49649515620170141e-03 0.00000000000000000e+00 6.54839720755780413e-04 
4.49771176046099685e-03 0.00000000000000000e+00 6.54819606710243954e-04 
5.76633466193168624e-03 0.00000000000000000e+00 4.98320205159699246e-04 
5.76621039417414809e-03 0.00000000000000000e+00 4.97920925119848894e-04 
6.92192441118932335e-03 0.00000000000000000e+00 3.47217920955346035e-04 
6.92168859813378518e-03 0.00000000000000000e+00 3.47079666167439112e-04 
7.97398912604990392e-03 0.00000000000000000e+00 2.25224650646517672e-04 
7.97403361897698615e-03 0.00000000000000000e+00 2.25296283448381458e-04 
8.96210250449687267e-03 0.00000000000000000e+00 1.38236043881006707e-04 
8.96202829153116415e-03 0.00000000000000000e+00 1.38135674643422566e-04 
9.92743106219364825e-03 0.00000000000000000e+00 7.41165986671300228e-05 
9.92766301214697590e-03 0.00000000000000000e+00 7.40515409030072800e-05 
1.08870219250367661e-02 0.00000000000000000e+00 1.74154116810560072e-05 
1.08864319718009715e-02 0.00000000000000000e+00 1.74090657944768771e-05 
1.08141594614131510e-02 0.00000000000000000e+00 -1.43165759610318160e-03 
1.08141443151854293e-02 0.00000000000000000e+00 -1.43165477216343441e-03 
-4.69084536634209890e-07 0.00000000000000000e+00 -1.01897780281010533e-06 
-4.63846689831377205e-07 0.00000000000000000e+00 -1.06280316408365917e-06 
5.28508690104303363e-04 0.00000000000000000e+00 -6.25819415409757164e-04 
5.28390200474879320e-04 0.00000000000000000e+00 -6.25782494865225803e-04 
1.61244662079526287e-03 0.00000000000000000e+00 -9.99461767120639029e-04 
1.61225179829358042e-03 0.00000000000000000e+00 -1.00011105050474614e-03 
2.94219045724753055e-03 0.00000000000000000e+00 -1.20954610040714043e-03 
2.94237732262373104e-03 0.00000000000000000e+00 -1.20930990921729107e-03 
4.31480739878461507e-03 0.00000000000000000e+00 -1.30614931736673266e-03 
4.31459511077049874e-03 0.00000000000000000e+00 -1.30646818108939118e-03 
5.61400771791554544e-03 0.00000000000000000e+00 -1.33243630243294522e-03 
5.61404451084133744e-03 0.00000000000000000e+00 -1.33273520941230655e-03 
6.79795687787875230e-03 0.00000000000000000e+00 -1.32946723156980953e-03 
6.79807329895065326e-03 0.00000000000000000e+00 -1.32964108193768353e-03 
7.87377651046696631e-03 0.00000000000000000e+00 -1.32710216908959447e-03 
7.87380483547234743e-03 0.00000000000000000e+00 -1.32707041951998957e-03 
8.87676706366022708e-03 0.00000000000000000e+00 -1.34431509542723210e-03 
8.87684941643576697e-03 0.00000000000000000e+00 -1.34403313071969127e-03 
9.84889743546687839e-03 0.00000000000000000e+00 -1.38102715638338145e-03 
9.84890360038867541e-03 0.00000000000000000e+00 -1.38102527293536368e-03 

