# vtk DataFile Version 2.0

ASCII

DATASET UNSTRUCTURED_GRID

POINTS 44 double 

0.00000000000000000e+00  1.20000000000000002e-02  0.00000000000000000e+00
0.00000000000000000e+00  1.20000000000000002e-02  8.00000000000000017e-03
0.00000000000000000e+00  0.00000000000000000e+00  8.00000000000000017e-03
0.00000000000000000e+00  0.00000000000000000e+00  0.00000000000000000e+00
0.00000000000000000e+00  1.20000000000000002e-02  1.60000000000000003e-02
0.00000000000000000e+00  0.00000000000000000e+00  1.60000000000000003e-02
0.00000000000000000e+00  1.20000000000000002e-02  2.40000000000000005e-02
0.00000000000000000e+00  0.00000000000000000e+00  2.40000000000000005e-02
0.00000000000000000e+00  1.20000000000000002e-02  3.20000000000000007e-02
0.00000000000000000e+00  0.00000000000000000e+00  3.20000000000000007e-02
0.00000000000000000e+00  1.20000000000000002e-02  4.00000000000000008e-02
0.00000000000000000e+00  0.00000000000000000e+00  4.00000000000000008e-02
0.00000000000000000e+00  1.20000000000000002e-02  4.80000000000000010e-02
0.00000000000000000e+00  0.00000000000000000e+00  4.80000000000000010e-02
0.00000000000000000e+00  1.20000000000000002e-02  5.60000000000000012e-02
0.00000000000000000e+00  0.00000000000000000e+00  5.60000000000000012e-02
0.00000000000000000e+00  1.20000000000000002e-02  6.40000000000000013e-02
0.00000000000000000e+00  0.00000000000000000e+00  6.40000000000000013e-02
0.00000000000000000e+00  1.20000000000000002e-02  7.19999999999999946e-02
0.00000000000000000e+00  0.00000000000000000e+00  7.19999999999999946e-02
0.00000000000000000e+00  1.20000000000000002e-02  8.00000000000000017e-02
0.00000000000000000e+00  0.00000000000000000e+00  8.00000000000000017e-02
1.20000000000000002e-02  1.20000000000000002e-02  8.00000000000000017e-02
1.20000000000000002e-02  0.00000000000000000e+00  8.00000000000000017e-02
1.20000000000000002e-02  1.20000000000000002e-02  0.00000000000000000e+00
1.20000000000000002e-02  0.00000000000000000e+00  0.00000000000000000e+00
1.20000000000000002e-02  0.00000000000000000e+00  8.00000000000000017e-03
1.20000000000000002e-02  1.20000000000000002e-02  8.00000000000000017e-03
1.20000000000000002e-02  0.00000000000000000e+00  1.60000000000000003e-02
1.20000000000000002e-02  1.20000000000000002e-02  1.60000000000000003e-02
1.20000000000000002e-02  0.00000000000000000e+00  2.40000000000000005e-02
1.20000000000000002e-02  1.20000000000000002e-02  2.40000000000000005e-02
1.20000000000000002e-02  0.00000000000000000e+00  3.20000000000000007e-02
1.20000000000000002e-02  1.20000000000000002e-02  3.20000000000000007e-02
1.20000000000000002e-02  0.00000000000000000e+00  4.00000000000000008e-02
1.20000000000000002e-02  1.20000000000000002e-02  4.00000000000000008e-02
1.20000000000000002e-02  0.00000000000000000e+00  4.80000000000000010e-02
1.20000000000000002e-02  1.20000000000000002e-02  4.80000000000000010e-02
1.20000000000000002e-02  0.00000000000000000e+00  5.60000000000000012e-02
1.20000000000000002e-02  1.20000000000000002e-02  5.60000000000000012e-02
1.20000000000000002e-02  0.00000000000000000e+00  6.40000000000000013e-02
1.20000000000000002e-02  1.20000000000000002e-02  6.40000000000000013e-02
1.20000000000000002e-02  0.00000000000000000e+00  7.19999999999999946e-02
1.20000000000000002e-02  1.20000000000000002e-02  7.19999999999999946e-02

CELLS 0 0


CELL_TYPES 0


POINT_DATA 44

SCALARS Rank unsigned_int
LOOKUP_TABLE default
0 0 0 0 0 0 0 0 0 0 0 0 0 0 0 0 0 0 0 0 0 0 0 0 0 0 0 0 0 0 0 0 0 0 0 0 0 0 0 0 0 0 0 0 

VECTORS Displacements0 double
0.00000000000000000e+00 0.00000000000000000e+00 0.00000000000000000e+00 
1.63496306546317188e-07 0.00000000000000000e+00 1.64900480203641724e-07 
1.63518558196434704e-07 0.00000000000000000e+00 1.64856719965324769e-07 
0.00000000000000000e+00 0.00000000000000000e+00 0.00000000000000000e+00 
4.66039540989593709e-07 0.00000000000000000e+00 2.40852774318194273e-07 
4.65935035125100404e-07 0.00000000000000000e+00 2.40922435725017118e-07 
8.10529461513211912e-07 0.00000000000000000e+00 2.49382979687431221e-07 
8.10386108702860855e-07 0.00000000000000000e+00 2.49435328966484162e-07 
1.11655573556293966e-06 0.00000000000000000e+00 2.11331242006373294e-07 
1.11679464365248959e-06 0.00000000000000000e+00 2.11486159702531283e-07 
1.34031615025101253e-06 0.00000000000000000e+00 1.44824188984063046e-07 
1.34037511738405423e-06 0.00000000000000000e+00 1.44659403739069312e-07 
1.45250686994288987e-06 0.00000000000000000e+00 6.15482362100206269e-08 
1.45238326370959065e-06 0.00000000000000000e+00 6.13368057507177268e-08 
1.44202137440940295e-06 0.00000000000000000e+00 -1.82251601109475493e-08 
1.44203271387616865e-06 0.00000000000000000e+00 -1.81951676764284700e-08 
1.32812193350186732e-06 0.00000000000000000e+00 -7.77626389649987659e-08 
1.32813168870057439e-06 0.00000000000000000e+00 -7.78424314846389980e-08 
1.14546868437876835e-06 0.00000000000000000e+00 -1.09826495805758781e-07 
1.14541664865770617e-06 0.00000000000000000e+00 -1.09806314982753763e-07 
9.43453306501670797e-07 0.00000000000000000e+00 -1.12739151651074158e-07 
9.43342093560353638e-07 0.00000000000000000e+00 -1.12959997415421131e-07 
9.48594559344394458e-07 0.00000000000000000e+00 1.78837726945588898e-07 
9.48575455500221890e-07 0.00000000000000000e+00 1.78885135894519325e-07 
0.00000000000000000e+00 0.00000000000000000e+00 0.00000000000000000e+00 
0.00000000000000000e+00 0.00000000000000000e+00 0.00000000000000000e+00 
1.58615373741871687e-07 0.00000000000000000e+00 -1.52067202501432943e-07 
1.58581533903476507e-07 0.00000000000000000e+00 -1.52088146175287492e-07 
4.62023079688906881e-07 0.00000000000000000e+00 -2.17546177783862515e-07 
4.61991804943373842e-07 0.00000000000000000e+00 -2.17804406981529021e-07 
8.05794682816780168e-07 0.00000000000000000e+00 -2.19204814190478648e-07 
8.05857324307238727e-07 0.00000000000000000e+00 -2.19096623894809313e-07 
1.11347588981672283e-06 0.00000000000000000e+00 -1.75397083788135652e-07 
1.11339227686795439e-06 0.00000000000000000e+00 -1.75420581415502994e-07 
1.33876495462746584e-06 0.00000000000000000e+00 -1.02893181566093614e-07 
1.33873440858955555e-06 0.00000000000000000e+00 -1.03043577255452504e-07 
1.45169664526322482e-06 0.00000000000000000e+00 -1.54148375588285216e-08 
1.45183599382651911e-06 0.00000000000000000e+00 -1.55826358748850622e-08 
1.44241874920736201e-06 0.00000000000000000e+00 6.79623556212452250e-08 
1.44244179576396743e-06 0.00000000000000000e+00 6.79887354417647454e-08 
1.32925182390565818e-06 0.00000000000000000e+00 1.33345281644540954e-07 
1.32921259961937800e-06 0.00000000000000000e+00 1.33643720179412926e-07 
1.14735953429315617e-06 0.00000000000000000e+00 1.70578367628766098e-07 
1.14734310644297758e-06 0.00000000000000000e+00 1.70577629712951216e-07 

