# vtk DataFile Version 2.0

ASCII

DATASET UNSTRUCTURED_GRID

POINTS 44 double 

0.00000000000000000e+00  1.20000000000000002e-02  0.00000000000000000e+00
0.00000000000000000e+00  1.20000000000000002e-02  8.00000000000000017e-03
0.00000000000000000e+00  0.00000000000000000e+00  8.00000000000000017e-03
0.00000000000000000e+00  0.00000000000000000e+00  0.00000000000000000e+00
0.00000000000000000e+00  1.20000000000000002e-02  1.60000000000000003e-02
0.00000000000000000e+00  0.00000000000000000e+00  1.60000000000000003e-02
0.00000000000000000e+00  1.20000000000000002e-02  2.40000000000000005e-02
0.00000000000000000e+00  0.00000000000000000e+00  2.40000000000000005e-02
0.00000000000000000e+00  1.20000000000000002e-02  3.20000000000000007e-02
0.00000000000000000e+00  0.00000000000000000e+00  3.20000000000000007e-02
0.00000000000000000e+00  1.20000000000000002e-02  4.00000000000000008e-02
0.00000000000000000e+00  0.00000000000000000e+00  4.00000000000000008e-02
0.00000000000000000e+00  1.20000000000000002e-02  4.80000000000000010e-02
0.00000000000000000e+00  0.00000000000000000e+00  4.80000000000000010e-02
0.00000000000000000e+00  1.20000000000000002e-02  5.60000000000000012e-02
0.00000000000000000e+00  0.00000000000000000e+00  5.60000000000000012e-02
0.00000000000000000e+00  1.20000000000000002e-02  6.40000000000000013e-02
0.00000000000000000e+00  0.00000000000000000e+00  6.40000000000000013e-02
0.00000000000000000e+00  1.20000000000000002e-02  7.19999999999999946e-02
0.00000000000000000e+00  0.00000000000000000e+00  7.19999999999999946e-02
0.00000000000000000e+00  1.20000000000000002e-02  8.00000000000000017e-02
0.00000000000000000e+00  0.00000000000000000e+00  8.00000000000000017e-02
1.20000000000000002e-02  1.20000000000000002e-02  8.00000000000000017e-02
1.20000000000000002e-02  0.00000000000000000e+00  8.00000000000000017e-02
1.20000000000000002e-02  1.20000000000000002e-02  0.00000000000000000e+00
1.20000000000000002e-02  0.00000000000000000e+00  0.00000000000000000e+00
1.20000000000000002e-02  0.00000000000000000e+00  8.00000000000000017e-03
1.20000000000000002e-02  1.20000000000000002e-02  8.00000000000000017e-03
1.20000000000000002e-02  0.00000000000000000e+00  1.60000000000000003e-02
1.20000000000000002e-02  1.20000000000000002e-02  1.60000000000000003e-02
1.20000000000000002e-02  0.00000000000000000e+00  2.40000000000000005e-02
1.20000000000000002e-02  1.20000000000000002e-02  2.40000000000000005e-02
1.20000000000000002e-02  0.00000000000000000e+00  3.20000000000000007e-02
1.20000000000000002e-02  1.20000000000000002e-02  3.20000000000000007e-02
1.20000000000000002e-02  0.00000000000000000e+00  4.00000000000000008e-02
1.20000000000000002e-02  1.20000000000000002e-02  4.00000000000000008e-02
1.20000000000000002e-02  0.00000000000000000e+00  4.80000000000000010e-02
1.20000000000000002e-02  1.20000000000000002e-02  4.80000000000000010e-02
1.20000000000000002e-02  0.00000000000000000e+00  5.60000000000000012e-02
1.20000000000000002e-02  1.20000000000000002e-02  5.60000000000000012e-02
1.20000000000000002e-02  0.00000000000000000e+00  6.40000000000000013e-02
1.20000000000000002e-02  1.20000000000000002e-02  6.40000000000000013e-02
1.20000000000000002e-02  0.00000000000000000e+00  7.19999999999999946e-02
1.20000000000000002e-02  1.20000000000000002e-02  7.19999999999999946e-02

CELLS 0 0


CELL_TYPES 0


POINT_DATA 44

SCALARS Rank unsigned_int
LOOKUP_TABLE default
0 0 0 0 0 0 0 0 0 0 0 0 0 0 0 0 0 0 0 0 0 0 0 0 0 0 0 0 0 0 0 0 0 0 0 0 0 0 0 0 0 0 0 0 

VECTORS Displacements0 double
0.00000000000000000e+00 0.00000000000000000e+00 5.23333240809159046e-09 
1.02563487879581082e-05 0.00000000000000000e+00 4.97096879526525252e-06 
1.02559622699768534e-05 0.00000000000000000e+00 4.97067520152052953e-06 
0.00000000000000000e+00 0.00000000000000000e+00 5.60164796878899956e-09 
1.62395668790440332e-05 0.00000000000000000e+00 4.85461750606975893e-06 
1.62400634807723664e-05 0.00000000000000000e+00 4.85570145435056357e-06 
2.18122072862685506e-05 0.00000000000000000e+00 4.72195870133663701e-06 
2.18086644601184223e-05 0.00000000000000000e+00 4.72448283056538265e-06 
2.78333043642574566e-05 0.00000000000000000e+00 4.94707572077939699e-06 
2.78330121504984818e-05 0.00000000000000000e+00 4.95021510044264987e-06 
3.45317552340416854e-05 0.00000000000000000e+00 5.35630479972576410e-06 
3.45325525775705611e-05 0.00000000000000000e+00 5.35705027894963762e-06 
4.18032301746660493e-05 0.00000000000000000e+00 5.79531858198403860e-06 
4.18029932367606710e-05 0.00000000000000000e+00 5.79549964270818731e-06 
4.96304721310567005e-05 0.00000000000000000e+00 6.21261508273739374e-06 
4.96306597902516059e-05 0.00000000000000000e+00 6.21253652705460850e-06 
5.79343995290775509e-05 0.00000000000000000e+00 6.50450237679693718e-06 
5.79347465527508437e-05 0.00000000000000000e+00 6.50508136494413801e-06 
6.64597908754878836e-05 0.00000000000000000e+00 6.60820140291377099e-06 
6.64607879789321014e-05 0.00000000000000000e+00 6.60755841987633785e-06 
7.48812036093611592e-05 0.00000000000000000e+00 6.57939538360673302e-06 
7.48770788933883990e-05 0.00000000000000000e+00 6.57761265546793847e-06 
7.50543348747458836e-05 0.00000000000000000e+00 -6.20074296482367028e-06 
7.50547181844824960e-05 0.00000000000000000e+00 -6.20099655511869547e-06 
0.00000000000000000e+00 0.00000000000000000e+00 -6.80044433475013202e-09 
0.00000000000000000e+00 0.00000000000000000e+00 -7.07606498390319846e-09 
7.22372289860131104e-06 0.00000000000000000e+00 -4.90259249490329664e-06 
7.22356667827787615e-06 0.00000000000000000e+00 -4.90347346843484939e-06 
1.51991698797908592e-05 0.00000000000000000e+00 -5.07432030416955463e-06 
1.52046026897607847e-05 0.00000000000000000e+00 -5.07085483994182122e-06 
2.17359689301810072e-05 0.00000000000000000e+00 -4.68466379997372778e-06 
2.17347941640606809e-05 0.00000000000000000e+00 -4.68421612202992548e-06 
2.79407824990772972e-05 0.00000000000000000e+00 -4.74604621901613345e-06 
2.79413422418624632e-05 0.00000000000000000e+00 -4.74503285402369940e-06 
3.45260431657455220e-05 0.00000000000000000e+00 -5.08245803664541694e-06 
3.45258967292205339e-05 0.00000000000000000e+00 -5.08137393395572883e-06 
4.17019668220957503e-05 0.00000000000000000e+00 -5.49260488496960123e-06 
4.17014028723681422e-05 0.00000000000000000e+00 -5.49122962827026995e-06 
4.95314762452572440e-05 0.00000000000000000e+00 -5.87685884674480159e-06 
4.95313642192725165e-05 0.00000000000000000e+00 -5.87682353447484691e-06 
5.79110950453134860e-05 0.00000000000000000e+00 -6.11763763027877634e-06 
5.79100977016721509e-05 0.00000000000000000e+00 -6.12024943116750132e-06 
6.65000877888504929e-05 0.00000000000000000e+00 -6.18948317223577769e-06 
6.64996519290517326e-05 0.00000000000000000e+00 -6.18962397180779735e-06 

