# vtk DataFile Version 2.0

ASCII

DATASET UNSTRUCTURED_GRID

POINTS 44 double 

0.00000000000000000e+00  1.20000000000000002e-02  0.00000000000000000e+00
0.00000000000000000e+00  1.20000000000000002e-02  8.00000000000000017e-03
0.00000000000000000e+00  0.00000000000000000e+00  8.00000000000000017e-03
0.00000000000000000e+00  0.00000000000000000e+00  0.00000000000000000e+00
0.00000000000000000e+00  1.20000000000000002e-02  1.60000000000000003e-02
0.00000000000000000e+00  0.00000000000000000e+00  1.60000000000000003e-02
0.00000000000000000e+00  1.20000000000000002e-02  2.40000000000000005e-02
0.00000000000000000e+00  0.00000000000000000e+00  2.40000000000000005e-02
0.00000000000000000e+00  1.20000000000000002e-02  3.20000000000000007e-02
0.00000000000000000e+00  0.00000000000000000e+00  3.20000000000000007e-02
0.00000000000000000e+00  1.20000000000000002e-02  4.00000000000000008e-02
0.00000000000000000e+00  0.00000000000000000e+00  4.00000000000000008e-02
0.00000000000000000e+00  1.20000000000000002e-02  4.80000000000000010e-02
0.00000000000000000e+00  0.00000000000000000e+00  4.80000000000000010e-02
0.00000000000000000e+00  1.20000000000000002e-02  5.60000000000000012e-02
0.00000000000000000e+00  0.00000000000000000e+00  5.60000000000000012e-02
0.00000000000000000e+00  1.20000000000000002e-02  6.40000000000000013e-02
0.00000000000000000e+00  0.00000000000000000e+00  6.40000000000000013e-02
0.00000000000000000e+00  1.20000000000000002e-02  7.19999999999999946e-02
0.00000000000000000e+00  0.00000000000000000e+00  7.19999999999999946e-02
0.00000000000000000e+00  1.20000000000000002e-02  8.00000000000000017e-02
0.00000000000000000e+00  0.00000000000000000e+00  8.00000000000000017e-02
1.20000000000000002e-02  1.20000000000000002e-02  8.00000000000000017e-02
1.20000000000000002e-02  0.00000000000000000e+00  8.00000000000000017e-02
1.20000000000000002e-02  1.20000000000000002e-02  0.00000000000000000e+00
1.20000000000000002e-02  0.00000000000000000e+00  0.00000000000000000e+00
1.20000000000000002e-02  0.00000000000000000e+00  8.00000000000000017e-03
1.20000000000000002e-02  1.20000000000000002e-02  8.00000000000000017e-03
1.20000000000000002e-02  0.00000000000000000e+00  1.60000000000000003e-02
1.20000000000000002e-02  1.20000000000000002e-02  1.60000000000000003e-02
1.20000000000000002e-02  0.00000000000000000e+00  2.40000000000000005e-02
1.20000000000000002e-02  1.20000000000000002e-02  2.40000000000000005e-02
1.20000000000000002e-02  0.00000000000000000e+00  3.20000000000000007e-02
1.20000000000000002e-02  1.20000000000000002e-02  3.20000000000000007e-02
1.20000000000000002e-02  0.00000000000000000e+00  4.00000000000000008e-02
1.20000000000000002e-02  1.20000000000000002e-02  4.00000000000000008e-02
1.20000000000000002e-02  0.00000000000000000e+00  4.80000000000000010e-02
1.20000000000000002e-02  1.20000000000000002e-02  4.80000000000000010e-02
1.20000000000000002e-02  0.00000000000000000e+00  5.60000000000000012e-02
1.20000000000000002e-02  1.20000000000000002e-02  5.60000000000000012e-02
1.20000000000000002e-02  0.00000000000000000e+00  6.40000000000000013e-02
1.20000000000000002e-02  1.20000000000000002e-02  6.40000000000000013e-02
1.20000000000000002e-02  0.00000000000000000e+00  7.19999999999999946e-02
1.20000000000000002e-02  1.20000000000000002e-02  7.19999999999999946e-02

CELLS 0 0


CELL_TYPES 0


POINT_DATA 44

SCALARS Rank unsigned_int
LOOKUP_TABLE default
0 0 0 0 0 0 0 0 0 0 0 0 0 0 0 0 0 0 0 0 0 0 0 0 0 0 0 0 0 0 0 0 0 0 0 0 0 0 0 0 0 0 0 0 

VECTORS Displacements0 double
-8.37162773399312713e-09 0.00000000000000000e+00 5.26554929020954162e-09 
2.26610458512685018e-06 0.00000000000000000e+00 2.38486668638341443e-06 
2.26596294375061596e-06 0.00000000000000000e+00 2.38499284463275258e-06 
-8.79637206462416128e-09 0.00000000000000000e+00 5.62060370490408476e-09 
6.76863426936052220e-06 0.00000000000000000e+00 3.88232671359625518e-06 
6.76778817157916830e-06 0.00000000000000000e+00 3.88307958622142499e-06 
1.27897783116214212e-05 0.00000000000000000e+00 4.87388086208897940e-06 
1.27882691208045058e-05 0.00000000000000000e+00 4.87432342638998427e-06 
1.97961390074279624e-05 0.00000000000000000e+00 5.53912406194659063e-06 
1.97979651964645624e-05 0.00000000000000000e+00 5.54062836935045294e-06 
2.74842912700316497e-05 0.00000000000000000e+00 5.98583222861740480e-06 
2.74842488308961411e-05 0.00000000000000000e+00 5.98535603335325125e-06 
3.56181889656097242e-05 0.00000000000000000e+00 6.27712106051424742e-06 
3.56181343970287878e-05 0.00000000000000000e+00 6.27656242859591547e-06 
4.40282345267019589e-05 0.00000000000000000e+00 6.46587198740332610e-06 
4.40280427047106098e-05 0.00000000000000000e+00 6.46553210748400296e-06 
5.26050698275520542e-05 0.00000000000000000e+00 6.57549215902243707e-06 
5.26051056832027713e-05 0.00000000000000000e+00 6.57563164770691285e-06 
6.12603700558493868e-05 0.00000000000000000e+00 6.62152049001068748e-06 
6.12603252893897233e-05 0.00000000000000000e+00 6.62144458121209840e-06 
6.99142917719255985e-05 0.00000000000000000e+00 6.63539476955756622e-06 
6.99139967137762713e-05 0.00000000000000000e+00 6.63515575128865497e-06 
6.99266512326983500e-05 0.00000000000000000e+00 -6.35374884343450258e-06 
6.99268087242601612e-05 0.00000000000000000e+00 -6.35376249688025057e-06 
-9.46014421795937288e-09 0.00000000000000000e+00 -6.76057213410848340e-09 
-9.81624234396907282e-09 0.00000000000000000e+00 -6.98943090086452017e-09 
2.13755778321926161e-06 0.00000000000000000e+00 -2.34372749537213334e-06 
2.13746116570836764e-06 0.00000000000000000e+00 -2.34361513293037097e-06 
6.67483030430466997e-06 0.00000000000000000e+00 -3.82375044640695672e-06 
6.67467230530505429e-06 0.00000000000000000e+00 -3.82535943563719680e-06 
1.27211345402955531e-05 0.00000000000000000e+00 -4.78252118080831731e-06 
1.27216396185385967e-05 0.00000000000000000e+00 -4.78157252202627681e-06 
1.97582675430188159e-05 0.00000000000000000e+00 -5.41360437218766133e-06 
1.97579463139217319e-05 0.00000000000000000e+00 -5.41366260104150092e-06 
2.74620262220285046e-05 0.00000000000000000e+00 -5.82623733457847133e-06 
2.74620842646083345e-05 0.00000000000000000e+00 -5.82668038933809951e-06 
3.56024005393753917e-05 0.00000000000000000e+00 -6.09082663840577246e-06 
3.56024184932512180e-05 0.00000000000000000e+00 -6.09138008717030710e-06 
4.40188490417052123e-05 0.00000000000000000e+00 -6.25088491279603061e-06 
4.40188314425731065e-05 0.00000000000000000e+00 -6.25113299956252318e-06 
5.26007852896506262e-05 0.00000000000000000e+00 -6.33091207950346040e-06 
5.26006134721892853e-05 0.00000000000000000e+00 -6.33151031055432016e-06 
6.12570287543342135e-05 0.00000000000000000e+00 -6.35824153412938985e-06 
6.12569155491790026e-05 0.00000000000000000e+00 -6.35823565045116945e-06 

