# vtk DataFile Version 2.0

ASCII

DATASET UNSTRUCTURED_GRID

POINTS 21 double 

0.00000000000000000e+00  6.00000000000000099e-03  4.00000000000000008e-03
0.00000000000000000e+00  6.00000000000000099e-03  1.20000000000000020e-02
0.00000000000000000e+00  6.00000000000000099e-03  2.00000000000000004e-02
0.00000000000000000e+00  5.99999999999999926e-03  2.80000000000000041e-02
0.00000000000000000e+00  6.00000000000000099e-03  3.60000000000000042e-02
0.00000000000000000e+00  6.00000000000000099e-03  4.39999999999999974e-02
0.00000000000000000e+00  6.00000000000000099e-03  5.19999999999999976e-02
0.00000000000000000e+00  5.99999999999999926e-03  5.99999999999999908e-02
0.00000000000000000e+00  5.99999999999999926e-03  6.79999999999999910e-02
0.00000000000000000e+00  6.00000000000000012e-03  7.59999999999999981e-02
6.00000000000000099e-03  6.00000000000000099e-03  8.00000000000000017e-02
1.20000000000000020e-02  6.00000000000000099e-03  4.00000000000000008e-03
1.20000000000000020e-02  6.00000000000000099e-03  1.19999999999999985e-02
1.20000000000000020e-02  6.00000000000000099e-03  2.00000000000000004e-02
1.20000000000000020e-02  6.00000000000000099e-03  2.80000000000000041e-02
1.20000000000000020e-02  6.00000000000000099e-03  3.59999999999999973e-02
1.20000000000000020e-02  6.00000000000000099e-03  4.40000000000000044e-02
1.20000000000000020e-02  6.00000000000000099e-03  5.19999999999999976e-02
1.20000000000000020e-02  6.00000000000000099e-03  5.99999999999999978e-02
1.20000000000000002e-02  5.99999999999999926e-03  6.79999999999999910e-02
1.20000000000000002e-02  6.00000000000000012e-03  7.59999999999999981e-02

CELLS 0 0


CELL_TYPES 0


POINT_DATA 21

SCALARS Rank unsigned_int
LOOKUP_TABLE default
0 0 0 0 0 0 0 0 0 0 0 0 0 0 0 0 0 0 0 0 0 

VECTORS Forces0 double
3.51205547801083651e-01 3.78573743420992649e-19 -1.18956002928981806e-02 
3.63882456298335766e-01 1.57707410297807571e-20 -1.52125586060385294e-02 
3.25009513820067264e-01 1.64390598789784058e-20 -9.09431128599773493e-03 
1.90285689981092687e-01 -1.09476442525376334e-47 -1.03252944857498783e-03 
9.23055885756100120e-02 3.09619898356588816e-20 1.16315313908196003e-03 
1.04492754964539952e-02 5.78058535687553872e-21 2.69478777736860886e-04 
2.20764479429839738e-03 -2.89848608180680077e-22 5.84395179035581476e-05 
1.42992648895841519e-03 -8.01447396389673124e-27 3.93789170985768100e-05 
6.13181898233263237e-04 1.79585315729042719e-22 1.75122894325772341e-05 
2.02888447060027208e-04 1.78190422541875855e-22 6.71261079848753893e-06 
-1.61168669780115883e-05 -4.39142736849966638e-22 5.97116266512398705e-04 
3.80066090257761554e-05 -1.60337533293356772e-22 -1.17632147798784047e-06 
4.83950119312249628e-05 -1.21863174286785705e-27 -2.02871928770471567e-06 
5.66100715876397689e-05 -3.08737500320049205e-23 -1.59275943389271104e-06 
5.57349901891944109e-05 1.73536075660875783e-22 -3.78269132944062358e-07 
4.99248816425083803e-05 -1.58975638996423656e-22 5.54870959317548605e-07 
5.14558422403719833e-05 1.99176571563528138e-22 1.12138628775427383e-06 
6.60819415874633196e-05 -8.55284707229502607e-50 1.72908704971171564e-06 
8.94770323306798651e-05 -7.38351251162969047e-50 2.45418473999874709e-06 
1.19850727957678322e-04 -1.67413411774705404e-22 3.27446415030818354e-06 
1.63983488234138372e-04 -6.77872439282847090e-27 4.44203172971337390e-06 

