# vtk DataFile Version 2.0

ASCII

DATASET UNSTRUCTURED_GRID

POINTS 21 double 

0.00000000000000000e+00  6.00000000000000099e-03  4.00000000000000008e-03
0.00000000000000000e+00  6.00000000000000099e-03  1.20000000000000020e-02
0.00000000000000000e+00  6.00000000000000099e-03  2.00000000000000004e-02
0.00000000000000000e+00  5.99999999999999926e-03  2.80000000000000041e-02
0.00000000000000000e+00  6.00000000000000099e-03  3.60000000000000042e-02
0.00000000000000000e+00  6.00000000000000099e-03  4.39999999999999974e-02
0.00000000000000000e+00  6.00000000000000099e-03  5.19999999999999976e-02
0.00000000000000000e+00  5.99999999999999926e-03  5.99999999999999908e-02
0.00000000000000000e+00  5.99999999999999926e-03  6.79999999999999910e-02
0.00000000000000000e+00  6.00000000000000012e-03  7.59999999999999981e-02
6.00000000000000099e-03  6.00000000000000099e-03  8.00000000000000017e-02
1.20000000000000020e-02  6.00000000000000099e-03  4.00000000000000008e-03
1.20000000000000020e-02  6.00000000000000099e-03  1.19999999999999985e-02
1.20000000000000020e-02  6.00000000000000099e-03  2.00000000000000004e-02
1.20000000000000020e-02  6.00000000000000099e-03  2.80000000000000041e-02
1.20000000000000020e-02  6.00000000000000099e-03  3.59999999999999973e-02
1.20000000000000020e-02  6.00000000000000099e-03  4.40000000000000044e-02
1.20000000000000020e-02  6.00000000000000099e-03  5.19999999999999976e-02
1.20000000000000020e-02  6.00000000000000099e-03  5.99999999999999978e-02
1.20000000000000002e-02  5.99999999999999926e-03  6.79999999999999910e-02
1.20000000000000002e-02  6.00000000000000012e-03  7.59999999999999981e-02

CELLS 0 0


CELL_TYPES 0


POINT_DATA 21

SCALARS Rank unsigned_int
LOOKUP_TABLE default
0 0 0 0 0 0 0 0 0 0 0 0 0 0 0 0 0 0 0 0 0 

VECTORS Forces0 double
3.70209622989517484e-01 -1.43901926857992284e-20 -1.07256984936533618e-02 
3.90038584537639343e-01 -3.18994604737983232e-20 -1.22700312364303777e-02 
3.25813514159502937e-01 1.97724098591339187e-19 -5.54827195666500895e-03 
1.41341171619223049e-01 4.91664777737597613e-21 2.15868781679413716e-04 
5.90479617342314633e-02 -1.25336444942019262e-20 7.65461821509477790e-04 
8.41407559667009704e-03 7.31577221215722764e-26 1.42169430773315822e-04 
1.77983122223654552e-03 -5.32882048233830869e-22 3.05548722150503197e-05 
1.10370591748701428e-03 -1.85075111427818259e-22 1.90906731247181674e-05 
6.14964901152285351e-04 5.16889022712319079e-22 1.14115337444186015e-05 
2.40468841240483092e-04 4.90444630121224313e-23 5.33532419466348500e-06 
-8.30149332520111811e-06 3.50640692551252225e-22 4.76850259497798483e-04 
-1.21075137082305172e-04 9.42000582931165556e-23 3.11058152188737724e-06 
-1.17901061612750121e-04 1.28292706084425391e-49 3.73362796205235566e-06 
-1.15392926002131971e-04 -6.29953872901328799e-23 2.03168800375503560e-06 
-1.14729547549752384e-04 2.75628860728257676e-49 4.99879358819973091e-08 
-1.09622461566228016e-04 -9.08740001431346520e-49 -1.17568175511933235e-06 
-9.17223405515571287e-05 1.21076963622785941e-28 -1.38944601062289831e-06 
-6.28715904342456322e-05 1.34065688485936597e-22 -9.83836825740878832e-07 
-2.95504759001748416e-05 -1.51989075227787686e-22 -4.16610426422447339e-07 
6.62993062269801545e-06 -3.68325516706854388e-24 1.93305535746669368e-07 
5.10482594989262431e-05 -3.52368231323150256e-28 9.55519162791019982e-07 

