# vtk DataFile Version 2.0

ASCII

DATASET UNSTRUCTURED_GRID

POINTS 21 double 

0.00000000000000000e+00  6.00000000000000099e-03  4.00000000000000008e-03
0.00000000000000000e+00  6.00000000000000099e-03  1.20000000000000020e-02
0.00000000000000000e+00  6.00000000000000099e-03  2.00000000000000004e-02
0.00000000000000000e+00  5.99999999999999926e-03  2.80000000000000041e-02
0.00000000000000000e+00  6.00000000000000099e-03  3.60000000000000042e-02
0.00000000000000000e+00  6.00000000000000099e-03  4.39999999999999974e-02
0.00000000000000000e+00  6.00000000000000099e-03  5.19999999999999976e-02
0.00000000000000000e+00  5.99999999999999926e-03  5.99999999999999908e-02
0.00000000000000000e+00  5.99999999999999926e-03  6.79999999999999910e-02
0.00000000000000000e+00  6.00000000000000012e-03  7.59999999999999981e-02
6.00000000000000099e-03  6.00000000000000099e-03  8.00000000000000017e-02
1.20000000000000020e-02  6.00000000000000099e-03  4.00000000000000008e-03
1.20000000000000020e-02  6.00000000000000099e-03  1.19999999999999985e-02
1.20000000000000020e-02  6.00000000000000099e-03  2.00000000000000004e-02
1.20000000000000020e-02  6.00000000000000099e-03  2.80000000000000041e-02
1.20000000000000020e-02  6.00000000000000099e-03  3.59999999999999973e-02
1.20000000000000020e-02  6.00000000000000099e-03  4.40000000000000044e-02
1.20000000000000020e-02  6.00000000000000099e-03  5.19999999999999976e-02
1.20000000000000020e-02  6.00000000000000099e-03  5.99999999999999978e-02
1.20000000000000002e-02  5.99999999999999926e-03  6.79999999999999910e-02
1.20000000000000002e-02  6.00000000000000012e-03  7.59999999999999981e-02

CELLS 0 0


CELL_TYPES 0


POINT_DATA 21

SCALARS Rank unsigned_int
LOOKUP_TABLE default
0 0 0 0 0 0 0 0 0 0 0 0 0 0 0 0 0 0 0 0 0 

VECTORS Forces0 double
4.12020103353039427e-04 3.20958316126126134e-29 -7.96718562043417825e-08 
3.90491191700432247e-04 -6.74420835154919436e-29 -1.08373183717795270e-07 
3.45945157259198945e-04 5.78417955167009305e-28 -9.22800839413394646e-08 
2.89926494956620423e-04 -1.68404702113370801e-22 -4.82813619868929562e-08 
2.33998279150555012e-04 -1.68390040151325947e-22 3.70060047155199602e-09 
1.82403998811667606e-04 3.36753782451108433e-22 5.57996251042342330e-08 
1.35198384952874646e-04 1.68364437314092596e-22 1.06863444802384773e-07 
9.07060696259248531e-05 3.36698117466823565e-22 1.57478562083374382e-07 
4.60429678037456834e-05 2.28984986528208270e-28 2.15345174670869784e-07 
-2.82881671384622010e-06 -1.88277745676363024e-29 2.67166982490158895e-07 
2.99226081737761288e-07 -8.35543772046838358e-28 2.52485462587572298e-04 
-4.96154690550784120e-06 4.07831529249907783e-55 7.31510337296712500e-10 
2.78135511486741148e-06 1.68285546875183838e-22 -4.09920916757214071e-09 
1.05850763145770598e-05 2.15289549459010493e-29 -1.15206723617254589e-08 
1.84757024053906280e-05 -1.68322642995101133e-22 -2.08992958403171593e-08 
2.64959989135722841e-05 -3.13214614463929177e-53 -3.13040418494871161e-08 
3.46793522235276452e-05 -5.97644475957437549e-25 -4.20958973395002604e-08 
4.32124917316846057e-05 1.66873196851014250e-22 -5.28747019003031232e-08 
5.24834932751645761e-05 1.80912029012083648e-24 -6.10546754991874180e-08 
6.12972434860369216e-05 -1.66291569433630286e-22 -5.93190421907843413e-08 
7.30100034591853111e-05 -1.70970565302625756e-22 -8.93467688891965051e-08 

