# vtk DataFile Version 2.0

ASCII

DATASET UNSTRUCTURED_GRID

POINTS 21 double 

0.00000000000000000e+00  6.00000000000000099e-03  4.00000000000000008e-03
0.00000000000000000e+00  6.00000000000000099e-03  1.20000000000000020e-02
0.00000000000000000e+00  6.00000000000000099e-03  2.00000000000000004e-02
0.00000000000000000e+00  5.99999999999999926e-03  2.80000000000000041e-02
0.00000000000000000e+00  6.00000000000000099e-03  3.60000000000000042e-02
0.00000000000000000e+00  6.00000000000000099e-03  4.39999999999999974e-02
0.00000000000000000e+00  6.00000000000000099e-03  5.19999999999999976e-02
0.00000000000000000e+00  5.99999999999999926e-03  5.99999999999999908e-02
0.00000000000000000e+00  5.99999999999999926e-03  6.79999999999999910e-02
0.00000000000000000e+00  6.00000000000000012e-03  7.59999999999999981e-02
6.00000000000000099e-03  6.00000000000000099e-03  8.00000000000000017e-02
1.20000000000000020e-02  6.00000000000000099e-03  4.00000000000000008e-03
1.20000000000000020e-02  6.00000000000000099e-03  1.19999999999999985e-02
1.20000000000000020e-02  6.00000000000000099e-03  2.00000000000000004e-02
1.20000000000000020e-02  6.00000000000000099e-03  2.80000000000000041e-02
1.20000000000000020e-02  6.00000000000000099e-03  3.59999999999999973e-02
1.20000000000000020e-02  6.00000000000000099e-03  4.40000000000000044e-02
1.20000000000000020e-02  6.00000000000000099e-03  5.19999999999999976e-02
1.20000000000000020e-02  6.00000000000000099e-03  5.99999999999999978e-02
1.20000000000000002e-02  5.99999999999999926e-03  6.79999999999999910e-02
1.20000000000000002e-02  6.00000000000000012e-03  7.59999999999999981e-02

CELLS 0 0


CELL_TYPES 0


POINT_DATA 21

SCALARS Rank unsigned_int
LOOKUP_TABLE default
0 0 0 0 0 0 0 0 0 0 0 0 0 0 0 0 0 0 0 0 0 

VECTORS Forces0 double
1.13256237009899460e-04 5.40376776256127812e-52 -6.64381932875345498e-09 
1.04513439722775248e-04 -1.67938431944313819e-22 -4.58058509931474361e-09 
9.45434870175051063e-05 1.68381395215004849e-22 -1.01618079727252945e-09 
8.34708565530117044e-05 1.95141354238400487e-29 5.48950867101249644e-09 
7.13608972563990431e-05 1.67755504194211720e-22 1.41106109381777434e-08 
5.82445956929350902e-05 1.94244863046877759e-30 2.42429796573892558e-08 
4.41023774544206844e-05 -6.79405083751131242e-31 3.55396244405899829e-08 
2.88396573924876680e-05 1.68606798898839917e-22 4.82347457509795860e-08 
1.19754157388498043e-05 1.68350669258189539e-22 6.30432272043094096e-08 
-6.86601472298738359e-06 3.36671272799229083e-22 7.43468952701522914e-08 
1.03608352179796312e-07 -2.54362051684716060e-22 8.10544772938177638e-05 
-1.41351101179864602e-05 1.68330504486289354e-22 7.93930794872076924e-10 
-6.56232308590515681e-06 3.36647998305157869e-22 -7.39886362266274425e-10 
9.07745342665008376e-07 3.36690805350118504e-22 -3.14270595248484658e-09 
8.27390919279119567e-06 -1.68422863848616365e-22 -6.34589130149410604e-09 
1.55276779213724966e-05 0.00000000000000000e+00 -1.00243487943144300e-08 
2.26602577292984470e-05 1.68165246464693890e-22 -1.40262288583427885e-08 
2.96857413774129259e-05 1.68364022265650004e-22 -1.85717941760559003e-08 
3.65259380090394197e-05 1.68368427181586528e-22 -2.33204336309351080e-08 
4.30436498353354389e-05 -1.68005232642282237e-22 -2.41761238286048459e-08 
5.20952770346268623e-05 -1.68391061087069446e-22 -3.03188825961615716e-08 

