# vtk DataFile Version 2.0

ASCII

DATASET UNSTRUCTURED_GRID

POINTS 44 double 

0.00000000000000000e+00  1.20000000000000002e-02  0.00000000000000000e+00
0.00000000000000000e+00  1.20000000000000002e-02  8.00000000000000017e-03
0.00000000000000000e+00  0.00000000000000000e+00  8.00000000000000017e-03
0.00000000000000000e+00  0.00000000000000000e+00  0.00000000000000000e+00
0.00000000000000000e+00  1.20000000000000002e-02  1.60000000000000003e-02
0.00000000000000000e+00  0.00000000000000000e+00  1.60000000000000003e-02
0.00000000000000000e+00  1.20000000000000002e-02  2.40000000000000005e-02
0.00000000000000000e+00  0.00000000000000000e+00  2.40000000000000005e-02
0.00000000000000000e+00  1.20000000000000002e-02  3.20000000000000007e-02
0.00000000000000000e+00  0.00000000000000000e+00  3.20000000000000007e-02
0.00000000000000000e+00  1.20000000000000002e-02  4.00000000000000008e-02
0.00000000000000000e+00  0.00000000000000000e+00  4.00000000000000008e-02
0.00000000000000000e+00  1.20000000000000002e-02  4.80000000000000010e-02
0.00000000000000000e+00  0.00000000000000000e+00  4.80000000000000010e-02
0.00000000000000000e+00  1.20000000000000002e-02  5.60000000000000012e-02
0.00000000000000000e+00  0.00000000000000000e+00  5.60000000000000012e-02
0.00000000000000000e+00  1.20000000000000002e-02  6.40000000000000013e-02
0.00000000000000000e+00  0.00000000000000000e+00  6.40000000000000013e-02
0.00000000000000000e+00  1.20000000000000002e-02  7.19999999999999946e-02
0.00000000000000000e+00  0.00000000000000000e+00  7.19999999999999946e-02
0.00000000000000000e+00  1.20000000000000002e-02  8.00000000000000017e-02
0.00000000000000000e+00  0.00000000000000000e+00  8.00000000000000017e-02
1.20000000000000002e-02  1.20000000000000002e-02  8.00000000000000017e-02
1.20000000000000002e-02  0.00000000000000000e+00  8.00000000000000017e-02
1.20000000000000002e-02  1.20000000000000002e-02  0.00000000000000000e+00
1.20000000000000002e-02  0.00000000000000000e+00  0.00000000000000000e+00
1.20000000000000002e-02  0.00000000000000000e+00  8.00000000000000017e-03
1.20000000000000002e-02  1.20000000000000002e-02  8.00000000000000017e-03
1.20000000000000002e-02  0.00000000000000000e+00  1.60000000000000003e-02
1.20000000000000002e-02  1.20000000000000002e-02  1.60000000000000003e-02
1.20000000000000002e-02  0.00000000000000000e+00  2.40000000000000005e-02
1.20000000000000002e-02  1.20000000000000002e-02  2.40000000000000005e-02
1.20000000000000002e-02  0.00000000000000000e+00  3.20000000000000007e-02
1.20000000000000002e-02  1.20000000000000002e-02  3.20000000000000007e-02
1.20000000000000002e-02  0.00000000000000000e+00  4.00000000000000008e-02
1.20000000000000002e-02  1.20000000000000002e-02  4.00000000000000008e-02
1.20000000000000002e-02  0.00000000000000000e+00  4.80000000000000010e-02
1.20000000000000002e-02  1.20000000000000002e-02  4.80000000000000010e-02
1.20000000000000002e-02  0.00000000000000000e+00  5.60000000000000012e-02
1.20000000000000002e-02  1.20000000000000002e-02  5.60000000000000012e-02
1.20000000000000002e-02  0.00000000000000000e+00  6.40000000000000013e-02
1.20000000000000002e-02  1.20000000000000002e-02  6.40000000000000013e-02
1.20000000000000002e-02  0.00000000000000000e+00  7.19999999999999946e-02
1.20000000000000002e-02  1.20000000000000002e-02  7.19999999999999946e-02

CELLS 0 0


CELL_TYPES 0


POINT_DATA 44

SCALARS Rank unsigned_int
LOOKUP_TABLE default
0 0 0 0 0 0 0 0 0 0 0 0 0 0 0 0 0 0 0 0 0 0 0 0 0 0 0 0 0 0 0 0 0 0 0 0 0 0 0 0 0 0 0 0 

VECTORS Displacements0 double
5.77000968063004596e-07 0.00000000000000000e+00 -2.83362596734480564e-08 
2.64820774938226140e-04 0.00000000000000000e+00 1.64939115868251016e-04 
2.64858314338150484e-04 0.00000000000000000e+00 1.64921855724814063e-04 
6.18370954378623904e-07 0.00000000000000000e+00 -2.30737977032215397e-08 
5.56362383325086757e-04 0.00000000000000000e+00 1.49021717132014709e-04 
5.56287418946579287e-04 0.00000000000000000e+00 1.49110340602168039e-04 
7.29020008479018414e-04 0.00000000000000000e+00 5.86486188105437797e-05 
7.28367168168482233e-04 0.00000000000000000e+00 5.84944572665914935e-05 
7.35068570345096851e-04 0.00000000000000000e+00 -3.36462549569547210e-05 
7.35034160590576288e-04 0.00000000000000000e+00 -3.38039310637228187e-05 
6.32228168841795449e-04 0.00000000000000000e+00 -9.35029941332892394e-05 
6.32221529543552756e-04 0.00000000000000000e+00 -9.34456977357838743e-05 
4.80934727285096974e-04 0.00000000000000000e+00 -1.21786768865731298e-04 
4.80976336251237504e-04 0.00000000000000000e+00 -1.21599381808635868e-04 
3.16659633122301986e-04 0.00000000000000000e+00 -1.30767202657914298e-04 
3.16733566656023080e-04 0.00000000000000000e+00 -1.30718735817943866e-04 
1.52322636988848261e-04 0.00000000000000000e+00 -1.32849131398478457e-04 
1.52349583176246851e-04 0.00000000000000000e+00 -1.32864087836434585e-04 
-1.14802981953584528e-05 0.00000000000000000e+00 -1.34101994189809250e-04 
-1.15054105901998935e-05 0.00000000000000000e+00 -1.34111216181179475e-04 
-1.76049658671025120e-04 0.00000000000000000e+00 -1.35662264853121060e-04 
-1.76057414621817049e-04 0.00000000000000000e+00 -1.35663688479840960e-04 
-1.82078683466170826e-04 0.00000000000000000e+00 1.11257105348652703e-04 
-1.82096453878886325e-04 0.00000000000000000e+00 1.11257742246726696e-04 
8.11520292152415959e-07 0.00000000000000000e+00 2.54828930171508584e-08 
8.18484313432907564e-07 0.00000000000000000e+00 3.45479731027727383e-08 
2.25808990616042731e-04 0.00000000000000000e+00 -1.71882433751042969e-04 
2.25778522301756850e-04 0.00000000000000000e+00 -1.71912188895432882e-04 
5.17369901628513657e-04 0.00000000000000000e+00 -1.66039762711252270e-04 
5.17405881355115921e-04 0.00000000000000000e+00 -1.66213084388542963e-04 
6.94260853070103744e-04 0.00000000000000000e+00 -7.91790535263774175e-05 
6.94204961331414561e-04 0.00000000000000000e+00 -7.91374034766296818e-05 
7.14856883626898906e-04 0.00000000000000000e+00 1.31302913283610861e-05 
7.14901556098291755e-04 0.00000000000000000e+00 1.29443967708833588e-05 
6.24532103340745375e-04 0.00000000000000000e+00 7.40082795887733979e-05 
6.24568782099998304e-04 0.00000000000000000e+00 7.40536851165283057e-05 
4.78985445737480694e-04 0.00000000000000000e+00 1.03028298967118142e-04 
4.79012834944095864e-04 0.00000000000000000e+00 1.03177610423710106e-04 
3.16139767269899149e-04 0.00000000000000000e+00 1.11796476468574148e-04 
3.16092965182144788e-04 0.00000000000000000e+00 1.11841683608233973e-04 
1.51059474192588561e-04 0.00000000000000000e+00 1.12468337501854597e-04 
1.50981164634214800e-04 0.00000000000000000e+00 1.12490010338085397e-04 
-1.41622441504698246e-05 0.00000000000000000e+00 1.11570150942454205e-04 
-1.41724044844955522e-05 0.00000000000000000e+00 1.11559035213204525e-04 

