# vtk DataFile Version 2.0

ASCII

DATASET UNSTRUCTURED_GRID

POINTS 44 double 

0.00000000000000000e+00  1.20000000000000002e-02  0.00000000000000000e+00
0.00000000000000000e+00  1.20000000000000002e-02  8.00000000000000017e-03
0.00000000000000000e+00  0.00000000000000000e+00  8.00000000000000017e-03
0.00000000000000000e+00  0.00000000000000000e+00  0.00000000000000000e+00
0.00000000000000000e+00  1.20000000000000002e-02  1.60000000000000003e-02
0.00000000000000000e+00  0.00000000000000000e+00  1.60000000000000003e-02
0.00000000000000000e+00  1.20000000000000002e-02  2.40000000000000005e-02
0.00000000000000000e+00  0.00000000000000000e+00  2.40000000000000005e-02
0.00000000000000000e+00  1.20000000000000002e-02  3.20000000000000007e-02
0.00000000000000000e+00  0.00000000000000000e+00  3.20000000000000007e-02
0.00000000000000000e+00  1.20000000000000002e-02  4.00000000000000008e-02
0.00000000000000000e+00  0.00000000000000000e+00  4.00000000000000008e-02
0.00000000000000000e+00  1.20000000000000002e-02  4.80000000000000010e-02
0.00000000000000000e+00  0.00000000000000000e+00  4.80000000000000010e-02
0.00000000000000000e+00  1.20000000000000002e-02  5.60000000000000012e-02
0.00000000000000000e+00  0.00000000000000000e+00  5.60000000000000012e-02
0.00000000000000000e+00  1.20000000000000002e-02  6.40000000000000013e-02
0.00000000000000000e+00  0.00000000000000000e+00  6.40000000000000013e-02
0.00000000000000000e+00  1.20000000000000002e-02  7.19999999999999946e-02
0.00000000000000000e+00  0.00000000000000000e+00  7.19999999999999946e-02
0.00000000000000000e+00  1.20000000000000002e-02  8.00000000000000017e-02
0.00000000000000000e+00  0.00000000000000000e+00  8.00000000000000017e-02
1.20000000000000002e-02  1.20000000000000002e-02  8.00000000000000017e-02
1.20000000000000002e-02  0.00000000000000000e+00  8.00000000000000017e-02
1.20000000000000002e-02  1.20000000000000002e-02  0.00000000000000000e+00
1.20000000000000002e-02  0.00000000000000000e+00  0.00000000000000000e+00
1.20000000000000002e-02  0.00000000000000000e+00  8.00000000000000017e-03
1.20000000000000002e-02  1.20000000000000002e-02  8.00000000000000017e-03
1.20000000000000002e-02  0.00000000000000000e+00  1.60000000000000003e-02
1.20000000000000002e-02  1.20000000000000002e-02  1.60000000000000003e-02
1.20000000000000002e-02  0.00000000000000000e+00  2.40000000000000005e-02
1.20000000000000002e-02  1.20000000000000002e-02  2.40000000000000005e-02
1.20000000000000002e-02  0.00000000000000000e+00  3.20000000000000007e-02
1.20000000000000002e-02  1.20000000000000002e-02  3.20000000000000007e-02
1.20000000000000002e-02  0.00000000000000000e+00  4.00000000000000008e-02
1.20000000000000002e-02  1.20000000000000002e-02  4.00000000000000008e-02
1.20000000000000002e-02  0.00000000000000000e+00  4.80000000000000010e-02
1.20000000000000002e-02  1.20000000000000002e-02  4.80000000000000010e-02
1.20000000000000002e-02  0.00000000000000000e+00  5.60000000000000012e-02
1.20000000000000002e-02  1.20000000000000002e-02  5.60000000000000012e-02
1.20000000000000002e-02  0.00000000000000000e+00  6.40000000000000013e-02
1.20000000000000002e-02  1.20000000000000002e-02  6.40000000000000013e-02
1.20000000000000002e-02  0.00000000000000000e+00  7.19999999999999946e-02
1.20000000000000002e-02  1.20000000000000002e-02  7.19999999999999946e-02

CELLS 0 0


CELL_TYPES 0


POINT_DATA 44

SCALARS Rank unsigned_int
LOOKUP_TABLE default
0 0 0 0 0 0 0 0 0 0 0 0 0 0 0 0 0 0 0 0 0 0 0 0 0 0 0 0 0 0 0 0 0 0 0 0 0 0 0 0 0 0 0 0 

VECTORS Displacements0 double
-2.64703439299125264e-06 0.00000000000000000e+00 2.88888296372748242e-06 
8.72898266097090966e-04 0.00000000000000000e+00 7.97121698691877494e-04 
8.72890859254037144e-04 0.00000000000000000e+00 7.97190814940652100e-04 
-2.77923837883192748e-06 0.00000000000000000e+00 3.03289071185760400e-06 
2.74415648658989401e-03 0.00000000000000000e+00 1.18429795452239836e-03 
2.74386565035279664e-03 0.00000000000000000e+00 1.18467692204425579e-03 
5.25681240040997387e-03 0.00000000000000000e+00 1.20894848127704995e-03 
5.25662084966902442e-03 0.00000000000000000e+00 1.20941604571190046e-03 
8.13692186352682652e-03 0.00000000000000000e+00 9.56453031053569776e-04 
8.13799114987077792e-03 0.00000000000000000e+00 9.56794869628625581e-04 
1.12286168431000068e-02 0.00000000000000000e+00 5.13486832879590880e-04 
1.12284461495856577e-02 0.00000000000000000e+00 5.13254029802522743e-04 
1.44339186901577265e-02 0.00000000000000000e+00 -5.27076821136810043e-05 
1.44337210788233715e-02 0.00000000000000000e+00 -5.29945625574075596e-05 
1.76893042231106197e-02 0.00000000000000000e+00 -6.90380041584348365e-04 
1.76891553514980614e-02 0.00000000000000000e+00 -6.90475604844700656e-04 
2.09629604577807639e-02 0.00000000000000000e+00 -1.36631064839063147e-03 
2.09629686391229197e-02 0.00000000000000000e+00 -1.36622289294323438e-03 
2.42395759996236193e-02 0.00000000000000000e+00 -2.05981482208568304e-03 
2.42395912759531297e-02 0.00000000000000000e+00 -2.05972047359096258e-03 
2.75125994729186751e-02 0.00000000000000000e+00 -2.75843739451154179e-03 
2.75127772722255429e-02 0.00000000000000000e+00 -2.75844150518783464e-03 
2.64600990959908272e-02 0.00000000000000000e+00 -7.66403941191298385e-03 
2.64601800170804445e-02 0.00000000000000000e+00 -7.66406941275983231e-03 
-4.48155298525363007e-06 0.00000000000000000e+00 -1.75126014283187181e-06 
-4.65251126600290440e-06 0.00000000000000000e+00 -1.88633830457574786e-06 
6.80591825079689388e-04 0.00000000000000000e+00 -1.01391266470761843e-03 
6.80576257727200269e-04 0.00000000000000000e+00 -1.01380416848845722e-03 
2.31723339150364301e-03 0.00000000000000000e+00 -1.84919263753394940e-03 
2.31702003625731089e-03 0.00000000000000000e+00 -1.84985418916409428e-03 
4.60095803957882507e-03 0.00000000000000000e+00 -2.62185083932661234e-03 
4.60125930329830825e-03 0.00000000000000000e+00 -2.62159292590290974e-03 
7.31168050376911852e-03 0.00000000000000000e+00 -3.37092399948790786e-03 
7.31151081863664135e-03 0.00000000000000000e+00 -3.37098894088991557e-03 
1.02918475250668023e-02 0.00000000000000000e+00 -4.10841411635439954e-03 
1.02918210062699009e-02 0.00000000000000000e+00 -4.10860261309512528e-03 
1.34303488385620288e-02 0.00000000000000000e+00 -4.83715650310976956e-03 
1.34302850964652075e-02 0.00000000000000000e+00 -4.83738210115328224e-03 
1.66530276740972753e-02 0.00000000000000000e+00 -5.55581728927446658e-03 
1.66530914121596103e-02 0.00000000000000000e+00 -5.55586183639838853e-03 
1.99146622572634012e-02 0.00000000000000000e+00 -6.26520706329381123e-03 
1.99145643142654913e-02 0.00000000000000000e+00 -6.26529008684778045e-03 
2.31891332281677007e-02 0.00000000000000000e+00 -6.96724252454249474e-03 
2.31890832221038033e-02 0.00000000000000000e+00 -6.96719519728935654e-03 

