# vtk DataFile Version 2.0

ASCII

DATASET UNSTRUCTURED_GRID

POINTS 44 double 

0.00000000000000000e+00  1.20000000000000002e-02  0.00000000000000000e+00
0.00000000000000000e+00  1.20000000000000002e-02  8.00000000000000017e-03
0.00000000000000000e+00  0.00000000000000000e+00  8.00000000000000017e-03
0.00000000000000000e+00  0.00000000000000000e+00  0.00000000000000000e+00
0.00000000000000000e+00  1.20000000000000002e-02  1.60000000000000003e-02
0.00000000000000000e+00  0.00000000000000000e+00  1.60000000000000003e-02
0.00000000000000000e+00  1.20000000000000002e-02  2.40000000000000005e-02
0.00000000000000000e+00  0.00000000000000000e+00  2.40000000000000005e-02
0.00000000000000000e+00  1.20000000000000002e-02  3.20000000000000007e-02
0.00000000000000000e+00  0.00000000000000000e+00  3.20000000000000007e-02
0.00000000000000000e+00  1.20000000000000002e-02  4.00000000000000008e-02
0.00000000000000000e+00  0.00000000000000000e+00  4.00000000000000008e-02
0.00000000000000000e+00  1.20000000000000002e-02  4.80000000000000010e-02
0.00000000000000000e+00  0.00000000000000000e+00  4.80000000000000010e-02
0.00000000000000000e+00  1.20000000000000002e-02  5.60000000000000012e-02
0.00000000000000000e+00  0.00000000000000000e+00  5.60000000000000012e-02
0.00000000000000000e+00  1.20000000000000002e-02  6.40000000000000013e-02
0.00000000000000000e+00  0.00000000000000000e+00  6.40000000000000013e-02
0.00000000000000000e+00  1.20000000000000002e-02  7.19999999999999946e-02
0.00000000000000000e+00  0.00000000000000000e+00  7.19999999999999946e-02
0.00000000000000000e+00  1.20000000000000002e-02  8.00000000000000017e-02
0.00000000000000000e+00  0.00000000000000000e+00  8.00000000000000017e-02
1.20000000000000002e-02  1.20000000000000002e-02  8.00000000000000017e-02
1.20000000000000002e-02  0.00000000000000000e+00  8.00000000000000017e-02
1.20000000000000002e-02  1.20000000000000002e-02  0.00000000000000000e+00
1.20000000000000002e-02  0.00000000000000000e+00  0.00000000000000000e+00
1.20000000000000002e-02  0.00000000000000000e+00  8.00000000000000017e-03
1.20000000000000002e-02  1.20000000000000002e-02  8.00000000000000017e-03
1.20000000000000002e-02  0.00000000000000000e+00  1.60000000000000003e-02
1.20000000000000002e-02  1.20000000000000002e-02  1.60000000000000003e-02
1.20000000000000002e-02  0.00000000000000000e+00  2.40000000000000005e-02
1.20000000000000002e-02  1.20000000000000002e-02  2.40000000000000005e-02
1.20000000000000002e-02  0.00000000000000000e+00  3.20000000000000007e-02
1.20000000000000002e-02  1.20000000000000002e-02  3.20000000000000007e-02
1.20000000000000002e-02  0.00000000000000000e+00  4.00000000000000008e-02
1.20000000000000002e-02  1.20000000000000002e-02  4.00000000000000008e-02
1.20000000000000002e-02  0.00000000000000000e+00  4.80000000000000010e-02
1.20000000000000002e-02  1.20000000000000002e-02  4.80000000000000010e-02
1.20000000000000002e-02  0.00000000000000000e+00  5.60000000000000012e-02
1.20000000000000002e-02  1.20000000000000002e-02  5.60000000000000012e-02
1.20000000000000002e-02  0.00000000000000000e+00  6.40000000000000013e-02
1.20000000000000002e-02  1.20000000000000002e-02  6.40000000000000013e-02
1.20000000000000002e-02  0.00000000000000000e+00  7.19999999999999946e-02
1.20000000000000002e-02  1.20000000000000002e-02  7.19999999999999946e-02

CELLS 0 0


CELL_TYPES 0


POINT_DATA 44

SCALARS Rank unsigned_int
LOOKUP_TABLE default
0 0 0 0 0 0 0 0 0 0 0 0 0 0 0 0 0 0 0 0 0 0 0 0 0 0 0 0 0 0 0 0 0 0 0 0 0 0 0 0 0 0 0 0 

VECTORS Displacements0 double
4.85813999257429229e-07 0.00000000000000000e+00 -1.54184545124188766e-08 
2.35120264222088828e-04 0.00000000000000000e+00 1.46237276337413444e-04 
2.35158105027401937e-04 0.00000000000000000e+00 1.46222868962917705e-04 
5.59766982284343878e-07 0.00000000000000000e+00 -1.60133792513890796e-08 
4.86904576347710252e-04 0.00000000000000000e+00 1.23570371791223091e-04 
4.86819147305782144e-04 0.00000000000000000e+00 1.23696719662119735e-04 
6.17889951943961747e-04 0.00000000000000000e+00 3.82163552032037317e-05 
6.18225134376391224e-04 0.00000000000000000e+00 3.81856616922605352e-05 
6.03911084438030297e-04 0.00000000000000000e+00 -3.91103860329587965e-05 
6.04691983356240702e-04 0.00000000000000000e+00 -3.92440937460677720e-05 
5.04239495790995791e-04 0.00000000000000000e+00 -8.26044348453769210e-05 
5.04224856453335934e-04 0.00000000000000000e+00 -8.25004630746699178e-05 
3.78792504870256687e-04 0.00000000000000000e+00 -9.68778365343475443e-05 
3.78887990368409087e-04 0.00000000000000000e+00 -9.66930415798192223e-05 
2.53793150605855953e-04 0.00000000000000000e+00 -9.92846007806585999e-05 
2.53833234635651749e-04 0.00000000000000000e+00 -9.92738034933230063e-05 
1.29328368263620342e-04 0.00000000000000000e+00 -1.02133104072379098e-04 
1.29316936564257930e-04 0.00000000000000000e+00 -1.02134569432462996e-04 
-2.19778955444613518e-07 0.00000000000000000e+00 -1.05660428750378531e-04 
-2.44748693691997001e-07 0.00000000000000000e+00 -1.05662335033219665e-04 
-1.33178146344301116e-04 0.00000000000000000e+00 -1.07481751478622829e-04 
-1.33229644841864538e-04 0.00000000000000000e+00 -1.07494325816941011e-04 
-1.34979299222725885e-04 0.00000000000000000e+00 9.08959914238829209e-05 
-1.34986938041348561e-04 0.00000000000000000e+00 9.09068167531660763e-05 
6.57045183446712915e-07 0.00000000000000000e+00 1.50139036712581194e-08 
6.94774427440117669e-07 0.00000000000000000e+00 2.74545792678418084e-08 
2.02802129956701569e-04 0.00000000000000000e+00 -1.51253035565571928e-04 
2.02763514555990003e-04 0.00000000000000000e+00 -1.51293822275121409e-04 
4.57694566835041929e-04 0.00000000000000000e+00 -1.38156335720172999e-04 
4.57841207734871903e-04 0.00000000000000000e+00 -1.38243166578813675e-04 
5.96173660942529520e-04 0.00000000000000000e+00 -5.45789263906042136e-05 
5.96123910899579558e-04 0.00000000000000000e+00 -5.45132662547553900e-05 
5.93289068927816679e-04 0.00000000000000000e+00 2.49840947801358034e-05 
5.93382527810343112e-04 0.00000000000000000e+00 2.47677580469222020e-05 
5.01336456137522080e-04 0.00000000000000000e+00 6.98098872750141982e-05 
5.01390830741813768e-04 0.00000000000000000e+00 6.99401839973710075e-05 
3.77808057829659232e-04 0.00000000000000000e+00 8.41929172312048984e-05 
3.77720823655104091e-04 0.00000000000000000e+00 8.44026563751381975e-05 
2.53236344593236594e-04 0.00000000000000000e+00 8.63506223573029524e-05 
2.53189249232858491e-04 0.00000000000000000e+00 8.63639863048096886e-05 
1.28313771514566117e-04 0.00000000000000000e+00 8.83274302394879265e-05 
1.28386029405501607e-04 0.00000000000000000e+00 8.83130324526767827e-05 
-1.40037090178056836e-06 0.00000000000000000e+00 9.06179480055349976e-05 
-1.38324499433697522e-06 0.00000000000000000e+00 9.06064369990740727e-05 

