# vtk DataFile Version 2.0

ASCII

DATASET UNSTRUCTURED_GRID

POINTS 44 double 

0.00000000000000000e+00  1.20000000000000002e-02  0.00000000000000000e+00
0.00000000000000000e+00  1.20000000000000002e-02  8.00000000000000017e-03
0.00000000000000000e+00  0.00000000000000000e+00  8.00000000000000017e-03
0.00000000000000000e+00  0.00000000000000000e+00  0.00000000000000000e+00
0.00000000000000000e+00  1.20000000000000002e-02  1.60000000000000003e-02
0.00000000000000000e+00  0.00000000000000000e+00  1.60000000000000003e-02
0.00000000000000000e+00  1.20000000000000002e-02  2.40000000000000005e-02
0.00000000000000000e+00  0.00000000000000000e+00  2.40000000000000005e-02
0.00000000000000000e+00  1.20000000000000002e-02  3.20000000000000007e-02
0.00000000000000000e+00  0.00000000000000000e+00  3.20000000000000007e-02
0.00000000000000000e+00  1.20000000000000002e-02  4.00000000000000008e-02
0.00000000000000000e+00  0.00000000000000000e+00  4.00000000000000008e-02
0.00000000000000000e+00  1.20000000000000002e-02  4.80000000000000010e-02
0.00000000000000000e+00  0.00000000000000000e+00  4.80000000000000010e-02
0.00000000000000000e+00  1.20000000000000002e-02  5.60000000000000012e-02
0.00000000000000000e+00  0.00000000000000000e+00  5.60000000000000012e-02
0.00000000000000000e+00  1.20000000000000002e-02  6.40000000000000013e-02
0.00000000000000000e+00  0.00000000000000000e+00  6.40000000000000013e-02
0.00000000000000000e+00  1.20000000000000002e-02  7.19999999999999946e-02
0.00000000000000000e+00  0.00000000000000000e+00  7.19999999999999946e-02
0.00000000000000000e+00  1.20000000000000002e-02  8.00000000000000017e-02
0.00000000000000000e+00  0.00000000000000000e+00  8.00000000000000017e-02
1.20000000000000002e-02  1.20000000000000002e-02  8.00000000000000017e-02
1.20000000000000002e-02  0.00000000000000000e+00  8.00000000000000017e-02
1.20000000000000002e-02  1.20000000000000002e-02  0.00000000000000000e+00
1.20000000000000002e-02  0.00000000000000000e+00  0.00000000000000000e+00
1.20000000000000002e-02  0.00000000000000000e+00  8.00000000000000017e-03
1.20000000000000002e-02  1.20000000000000002e-02  8.00000000000000017e-03
1.20000000000000002e-02  0.00000000000000000e+00  1.60000000000000003e-02
1.20000000000000002e-02  1.20000000000000002e-02  1.60000000000000003e-02
1.20000000000000002e-02  0.00000000000000000e+00  2.40000000000000005e-02
1.20000000000000002e-02  1.20000000000000002e-02  2.40000000000000005e-02
1.20000000000000002e-02  0.00000000000000000e+00  3.20000000000000007e-02
1.20000000000000002e-02  1.20000000000000002e-02  3.20000000000000007e-02
1.20000000000000002e-02  0.00000000000000000e+00  4.00000000000000008e-02
1.20000000000000002e-02  1.20000000000000002e-02  4.00000000000000008e-02
1.20000000000000002e-02  0.00000000000000000e+00  4.80000000000000010e-02
1.20000000000000002e-02  1.20000000000000002e-02  4.80000000000000010e-02
1.20000000000000002e-02  0.00000000000000000e+00  5.60000000000000012e-02
1.20000000000000002e-02  1.20000000000000002e-02  5.60000000000000012e-02
1.20000000000000002e-02  0.00000000000000000e+00  6.40000000000000013e-02
1.20000000000000002e-02  1.20000000000000002e-02  6.40000000000000013e-02
1.20000000000000002e-02  0.00000000000000000e+00  7.19999999999999946e-02
1.20000000000000002e-02  1.20000000000000002e-02  7.19999999999999946e-02

CELLS 0 0


CELL_TYPES 0


POINT_DATA 44

SCALARS Rank unsigned_int
LOOKUP_TABLE default
0 0 0 0 0 0 0 0 0 0 0 0 0 0 0 0 0 0 0 0 0 0 0 0 0 0 0 0 0 0 0 0 0 0 0 0 0 0 0 0 0 0 0 0 

VECTORS Displacements0 double
-6.65645922632216192e-09 0.00000000000000000e+00 4.30169017476703235e-09 
1.24069073231807494e-06 0.00000000000000000e+00 1.52960019128640777e-06 
1.24049092999037956e-06 0.00000000000000000e+00 1.52974693086718908e-06 
-7.13394493678349781e-09 0.00000000000000000e+00 4.56985783667982696e-09 
4.23219694726924885e-06 0.00000000000000000e+00 2.71144536277719975e-06 
4.23166433849572824e-06 0.00000000000000000e+00 2.71184634829854271e-06 
8.58369234782199122e-06 0.00000000000000000e+00 3.61586515856661465e-06 
8.58285937062294722e-06 0.00000000000000000e+00 3.61641407323747620e-06 
1.39421326610904204e-05 0.00000000000000000e+00 4.28359893100906451e-06 
1.39432132643959570e-05 0.00000000000000000e+00 4.28496177578285283e-06 
2.00317262214168767e-05 0.00000000000000000e+00 4.75362963840348567e-06 
2.00317564413917553e-05 0.00000000000000000e+00 4.75330289139750778e-06 
2.66104341152171331e-05 0.00000000000000000e+00 5.05951094635377698e-06 
2.66105068015851930e-05 0.00000000000000000e+00 5.05881507232243008e-06 
3.34825112760006783e-05 0.00000000000000000e+00 5.24246280928282290e-06 
3.34822238928986554e-05 0.00000000000000000e+00 5.24208191478278846e-06 
4.05152819655077128e-05 0.00000000000000000e+00 5.33992754387317066e-06 
4.05152805190986057e-05 0.00000000000000000e+00 5.34016813201705262e-06 
4.76210520315840756e-05 0.00000000000000000e+00 5.38119409611014902e-06 
4.76211475448239709e-05 0.00000000000000000e+00 5.38123417107923380e-06 
5.47321832985674090e-05 0.00000000000000000e+00 5.39008464962254124e-06 
5.47322750754651564e-05 0.00000000000000000e+00 5.39017828832086253e-06 
5.47402296455627667e-05 0.00000000000000000e+00 -5.27716769610249584e-06 
5.47404634892630838e-05 0.00000000000000000e+00 -5.27726753510573336e-06 
-9.38562968038046524e-09 0.00000000000000000e+00 -5.40719633549613136e-09 
-9.86394104615469219e-09 0.00000000000000000e+00 -5.64608811575795580e-09 
1.21889623439991558e-06 0.00000000000000000e+00 -1.51086190978119478e-06 
1.21902878036390261e-06 0.00000000000000000e+00 -1.51066823987718296e-06 
4.20907094541942279e-06 0.00000000000000000e+00 -2.67900455450538422e-06 
4.20887802786975087e-06 0.00000000000000000e+00 -2.68000269675373883e-06 
8.55881899113423532e-06 0.00000000000000000e+00 -3.57103129119625742e-06 
8.55928797122162366e-06 0.00000000000000000e+00 -3.57045175183108834e-06 
1.39230380989797701e-05 0.00000000000000000e+00 -4.22752426672515116e-06 
1.39227381862676530e-05 0.00000000000000000e+00 -4.22725679380801991e-06 
2.00161862068494928e-05 0.00000000000000000e+00 -4.68436930147532431e-06 
2.00162012183405359e-05 0.00000000000000000e+00 -4.68460580948552628e-06 
2.65971443588578140e-05 0.00000000000000000e+00 -4.98207240075956150e-06 
2.65971359373780021e-05 0.00000000000000000e+00 -4.98266499260317790e-06 
3.34735144735975903e-05 0.00000000000000000e+00 -5.15659563943121077e-06 
3.34736668774450805e-05 0.00000000000000000e+00 -5.15689217045349709e-06 
4.05100563334814419e-05 0.00000000000000000e+00 -5.24314256846939948e-06 
4.05100022318636028e-05 0.00000000000000000e+00 -5.24375314762851461e-06 
4.76174628437337730e-05 0.00000000000000000e+00 -5.27618875781946474e-06 
4.76173348096810257e-05 0.00000000000000000e+00 -5.27612704576642922e-06 

