# vtk DataFile Version 2.0

ASCII

DATASET UNSTRUCTURED_GRID

POINTS 21 double 

0.00000000000000000e+00  6.00000000000000099e-03  4.00000000000000008e-03
0.00000000000000000e+00  6.00000000000000099e-03  1.20000000000000020e-02
0.00000000000000000e+00  6.00000000000000099e-03  2.00000000000000004e-02
0.00000000000000000e+00  5.99999999999999926e-03  2.80000000000000041e-02
0.00000000000000000e+00  6.00000000000000099e-03  3.60000000000000042e-02
0.00000000000000000e+00  6.00000000000000099e-03  4.39999999999999974e-02
0.00000000000000000e+00  6.00000000000000099e-03  5.19999999999999976e-02
0.00000000000000000e+00  5.99999999999999926e-03  5.99999999999999908e-02
0.00000000000000000e+00  5.99999999999999926e-03  6.79999999999999910e-02
0.00000000000000000e+00  6.00000000000000012e-03  7.59999999999999981e-02
6.00000000000000099e-03  6.00000000000000099e-03  8.00000000000000017e-02
1.20000000000000020e-02  6.00000000000000099e-03  4.00000000000000008e-03
1.20000000000000020e-02  6.00000000000000099e-03  1.19999999999999985e-02
1.20000000000000020e-02  6.00000000000000099e-03  2.00000000000000004e-02
1.20000000000000020e-02  6.00000000000000099e-03  2.80000000000000041e-02
1.20000000000000020e-02  6.00000000000000099e-03  3.59999999999999973e-02
1.20000000000000020e-02  6.00000000000000099e-03  4.40000000000000044e-02
1.20000000000000020e-02  6.00000000000000099e-03  5.19999999999999976e-02
1.20000000000000020e-02  6.00000000000000099e-03  5.99999999999999978e-02
1.20000000000000002e-02  5.99999999999999926e-03  6.79999999999999910e-02
1.20000000000000002e-02  6.00000000000000012e-03  7.59999999999999981e-02

CELLS 0 0


CELL_TYPES 0


POINT_DATA 21

SCALARS Rank unsigned_int
LOOKUP_TABLE default
0 0 0 0 0 0 0 0 0 0 0 0 0 0 0 0 0 0 0 0 0 

VECTORS Forces0 double
3.76517631647092310e-04 1.71721792804920970e-22 -6.96143395945558674e-08 
3.59172418529110236e-04 -2.43142076775230020e-28 -9.53104378282787591e-08 
3.22508319121533719e-04 -5.92819955228633163e-29 -8.34589893211851192e-08 
2.74677162642258032e-04 -1.68404945939740174e-22 -4.69371263187622671e-08 
2.25129859404555325e-04 -1.68390575917394349e-22 -1.70956494446543995e-09 
1.77976065441026125e-04 -1.68378062139999809e-22 4.57275706986231659e-08 
1.33790708608780707e-04 1.50760634428637911e-50 9.41029706170538168e-08 
9.14293552511925666e-05 1.68350071128576202e-22 1.43417050206767243e-07 
4.83800267952068488e-05 -1.16763203249543670e-29 2.00625284389442147e-07 
9.08476696727111106e-07 1.93378111578109773e-29 2.52178934827603093e-07 
2.92270912571674589e-07 5.06862911096867269e-22 2.39713240620999186e-04 
-6.93950394533871368e-06 3.36536087860016526e-22 1.04294308182434104e-09 
7.85919577511987411e-07 -1.68287482544511967e-22 -3.23094651595581938e-09 
8.54908507755211216e-06 -1.47299998440878334e-25 -1.01275023395585280e-08 
1.63778302851384287e-05 1.68322243843610243e-22 -1.90992864712953619e-08 
2.43140863715982971e-05 1.68336383623882777e-22 -2.92388297994294869e-08 
3.23859012035187819e-05 1.68348895362909646e-22 -3.99264291994442215e-08 
4.07764798677905883e-05 1.67658675832147578e-22 -5.08274633829563749e-08 
4.98456243415496526e-05 -1.66658988959970987e-22 -5.91727475618492676e-08 
5.84036314038822185e-05 1.70416667621246691e-22 -5.73443296849526794e-08 
7.02862684433863054e-05 -6.01372059770744020e-51 -8.61937679258216219e-08 

