# vtk DataFile Version 2.0

ASCII

DATASET UNSTRUCTURED_GRID

POINTS 44 double 

0.00000000000000000e+00  1.20000000000000002e-02  0.00000000000000000e+00
0.00000000000000000e+00  1.20000000000000002e-02  8.00000000000000017e-03
0.00000000000000000e+00  0.00000000000000000e+00  8.00000000000000017e-03
0.00000000000000000e+00  0.00000000000000000e+00  0.00000000000000000e+00
0.00000000000000000e+00  1.20000000000000002e-02  1.60000000000000003e-02
0.00000000000000000e+00  0.00000000000000000e+00  1.60000000000000003e-02
0.00000000000000000e+00  1.20000000000000002e-02  2.40000000000000005e-02
0.00000000000000000e+00  0.00000000000000000e+00  2.40000000000000005e-02
0.00000000000000000e+00  1.20000000000000002e-02  3.20000000000000007e-02
0.00000000000000000e+00  0.00000000000000000e+00  3.20000000000000007e-02
0.00000000000000000e+00  1.20000000000000002e-02  4.00000000000000008e-02
0.00000000000000000e+00  0.00000000000000000e+00  4.00000000000000008e-02
0.00000000000000000e+00  1.20000000000000002e-02  4.80000000000000010e-02
0.00000000000000000e+00  0.00000000000000000e+00  4.80000000000000010e-02
0.00000000000000000e+00  1.20000000000000002e-02  5.60000000000000012e-02
0.00000000000000000e+00  0.00000000000000000e+00  5.60000000000000012e-02
0.00000000000000000e+00  1.20000000000000002e-02  6.40000000000000013e-02
0.00000000000000000e+00  0.00000000000000000e+00  6.40000000000000013e-02
0.00000000000000000e+00  1.20000000000000002e-02  7.19999999999999946e-02
0.00000000000000000e+00  0.00000000000000000e+00  7.19999999999999946e-02
0.00000000000000000e+00  1.20000000000000002e-02  8.00000000000000017e-02
0.00000000000000000e+00  0.00000000000000000e+00  8.00000000000000017e-02
1.20000000000000002e-02  1.20000000000000002e-02  8.00000000000000017e-02
1.20000000000000002e-02  0.00000000000000000e+00  8.00000000000000017e-02
1.20000000000000002e-02  1.20000000000000002e-02  0.00000000000000000e+00
1.20000000000000002e-02  0.00000000000000000e+00  0.00000000000000000e+00
1.20000000000000002e-02  0.00000000000000000e+00  8.00000000000000017e-03
1.20000000000000002e-02  1.20000000000000002e-02  8.00000000000000017e-03
1.20000000000000002e-02  0.00000000000000000e+00  1.60000000000000003e-02
1.20000000000000002e-02  1.20000000000000002e-02  1.60000000000000003e-02
1.20000000000000002e-02  0.00000000000000000e+00  2.40000000000000005e-02
1.20000000000000002e-02  1.20000000000000002e-02  2.40000000000000005e-02
1.20000000000000002e-02  0.00000000000000000e+00  3.20000000000000007e-02
1.20000000000000002e-02  1.20000000000000002e-02  3.20000000000000007e-02
1.20000000000000002e-02  0.00000000000000000e+00  4.00000000000000008e-02
1.20000000000000002e-02  1.20000000000000002e-02  4.00000000000000008e-02
1.20000000000000002e-02  0.00000000000000000e+00  4.80000000000000010e-02
1.20000000000000002e-02  1.20000000000000002e-02  4.80000000000000010e-02
1.20000000000000002e-02  0.00000000000000000e+00  5.60000000000000012e-02
1.20000000000000002e-02  1.20000000000000002e-02  5.60000000000000012e-02
1.20000000000000002e-02  0.00000000000000000e+00  6.40000000000000013e-02
1.20000000000000002e-02  1.20000000000000002e-02  6.40000000000000013e-02
1.20000000000000002e-02  0.00000000000000000e+00  7.19999999999999946e-02
1.20000000000000002e-02  1.20000000000000002e-02  7.19999999999999946e-02

CELLS 0 0


CELL_TYPES 0


POINT_DATA 44

SCALARS Rank unsigned_int
LOOKUP_TABLE default
0 0 0 0 0 0 0 0 0 0 0 0 0 0 0 0 0 0 0 0 0 0 0 0 0 0 0 0 0 0 0 0 0 0 0 0 0 0 0 0 0 0 0 0 

VECTORS Displacements0 double
-7.47287842304715382e-09 0.00000000000000000e+00 4.49720088238971603e-09 
1.31547364349136947e-06 0.00000000000000000e+00 1.60229302214887746e-06 
1.31532225272287292e-06 0.00000000000000000e+00 1.60241422626519018e-06 
-7.91418160306209582e-09 0.00000000000000000e+00 4.72219971626110691e-09 
4.44075026169940421e-06 0.00000000000000000e+00 2.81655087777703188e-06 
4.44027632705016284e-06 0.00000000000000000e+00 2.81700741046702927e-06 
8.94088912945108578e-06 0.00000000000000000e+00 3.73004680336130182e-06 
8.94020621305731868e-06 0.00000000000000000e+00 3.73046606038541293e-06 
1.44408687909518869e-05 0.00000000000000000e+00 4.40571591726313084e-06 
1.44420875471590245e-05 0.00000000000000000e+00 4.40689140590460763e-06 
2.06816310625516960e-05 0.00000000000000000e+00 4.89925028649807413e-06 
2.06816173785747708e-05 0.00000000000000000e+00 4.89895576292503818e-06 
2.74520511201095839e-05 0.00000000000000000e+00 5.24486643605414846e-06 
2.74521872766284776e-05 0.00000000000000000e+00 5.24431185560684430e-06 
3.45708726351263184e-05 0.00000000000000000e+00 5.46791297260179217e-06 
3.45706347229641727e-05 0.00000000000000000e+00 5.46741883015946016e-06 
4.18917193457643067e-05 0.00000000000000000e+00 5.59015059529914313e-06 
4.18917473378394901e-05 0.00000000000000000e+00 5.59038597932063156e-06 
4.92995782648961758e-05 0.00000000000000000e+00 5.63960966757182664e-06 
4.92995528225372628e-05 0.00000000000000000e+00 5.63954800643944137e-06 
5.67089908686305201e-05 0.00000000000000000e+00 5.64996346725811364e-06 
5.67090933511727412e-05 0.00000000000000000e+00 5.64999731467276810e-06 
5.67172297630701345e-05 0.00000000000000000e+00 -5.46574582433809683e-06 
5.67174327852174663e-05 0.00000000000000000e+00 -5.46581032452360867e-06 
-9.85382090726480397e-09 0.00000000000000000e+00 -5.73770733895388553e-09 
-1.02854704810250494e-08 0.00000000000000000e+00 -6.01119879522564969e-09 
1.28976606775018295e-06 0.00000000000000000e+00 -1.58020654679284185e-06 
1.28983218024592349e-06 0.00000000000000000e+00 -1.58001960186027818e-06 
4.41431435707119875e-06 0.00000000000000000e+00 -2.77707756259831928e-06 
4.41402729131700505e-06 0.00000000000000000e+00 -2.77816360609322301e-06 
8.91241474395064647e-06 0.00000000000000000e+00 -3.67258065932791063e-06 
8.91273606633795385e-06 0.00000000000000000e+00 -3.67204654196270367e-06 
1.44186163145557900e-05 0.00000000000000000e+00 -4.32866536176173226e-06 
1.44182639541885402e-05 0.00000000000000000e+00 -4.32864837629811037e-06 
2.06636061846894554e-05 0.00000000000000000e+00 -4.79972913511992154e-06 
2.06636514923184791e-05 0.00000000000000000e+00 -4.79994398153984773e-06 
2.74365390807136889e-05 0.00000000000000000e+00 -5.12626028436253675e-06 
2.74365266199921237e-05 0.00000000000000000e+00 -5.12675242319691365e-06 
3.45597895444650982e-05 0.00000000000000000e+00 -5.32980804770448012e-06 
3.45599537931015456e-05 0.00000000000000000e+00 -5.33007782592844249e-06 
4.18850884186283044e-05 0.00000000000000000e+00 -5.43152594015379585e-06 
4.18849658266819106e-05 0.00000000000000000e+00 -5.43236409015242425e-06 
4.92941849741775149e-05 0.00000000000000000e+00 -5.46616953018112749e-06 
4.92941055240942431e-05 0.00000000000000000e+00 -5.46614569390877541e-06 

