# vtk DataFile Version 2.0

ASCII

DATASET UNSTRUCTURED_GRID

POINTS 21 double 

0.00000000000000000e+00  6.00000000000000099e-03  4.00000000000000008e-03
0.00000000000000000e+00  6.00000000000000099e-03  1.20000000000000020e-02
0.00000000000000000e+00  6.00000000000000099e-03  2.00000000000000004e-02
0.00000000000000000e+00  5.99999999999999926e-03  2.80000000000000041e-02
0.00000000000000000e+00  6.00000000000000099e-03  3.60000000000000042e-02
0.00000000000000000e+00  6.00000000000000099e-03  4.39999999999999974e-02
0.00000000000000000e+00  6.00000000000000099e-03  5.19999999999999976e-02
0.00000000000000000e+00  5.99999999999999926e-03  5.99999999999999908e-02
0.00000000000000000e+00  5.99999999999999926e-03  6.79999999999999910e-02
0.00000000000000000e+00  6.00000000000000012e-03  7.59999999999999981e-02
6.00000000000000099e-03  6.00000000000000099e-03  8.00000000000000017e-02
1.20000000000000020e-02  6.00000000000000099e-03  4.00000000000000008e-03
1.20000000000000020e-02  6.00000000000000099e-03  1.19999999999999985e-02
1.20000000000000020e-02  6.00000000000000099e-03  2.00000000000000004e-02
1.20000000000000020e-02  6.00000000000000099e-03  2.80000000000000041e-02
1.20000000000000020e-02  6.00000000000000099e-03  3.59999999999999973e-02
1.20000000000000020e-02  6.00000000000000099e-03  4.40000000000000044e-02
1.20000000000000020e-02  6.00000000000000099e-03  5.19999999999999976e-02
1.20000000000000020e-02  6.00000000000000099e-03  5.99999999999999978e-02
1.20000000000000002e-02  5.99999999999999926e-03  6.79999999999999910e-02
1.20000000000000002e-02  6.00000000000000012e-03  7.59999999999999981e-02

CELLS 0 0


CELL_TYPES 0


POINT_DATA 21

SCALARS Rank unsigned_int
LOOKUP_TABLE default
0 0 0 0 0 0 0 0 0 0 0 0 0 0 0 0 0 0 0 0 0 

VECTORS Forces0 double
2.79702918699102743e-01 2.01111216103910522e-20 -3.12327548416698360e-02 
2.63199365691044185e-01 -2.21289421486192287e-18 -6.62890047315455727e-02 
2.31241547298348810e-01 1.87364284127540572e-20 -8.19423865445181449e-02 
1.88436934889493646e-01 1.72317371407155937e-18 -7.93435671906634471e-02 
1.39940760356833754e-01 4.99231226531738178e-23 -6.47037200319445227e-02 
9.97414894034298755e-02 1.72102516140704246e-20 -4.83896127123514194e-02 
7.35440634046331948e-02 -3.31260125916691327e-20 -3.63586213207744008e-02 
5.10206498009136908e-02 -7.00649232162408535e-46 -2.53223751325583474e-02 
3.01933933681700697e-02 2.97269173814564039e-19 -1.49513340983764478e-02 
1.41334427321178537e-02 -1.39048707181779534e-19 -6.97164990306684777e-03 
-1.24368767280508882e-03 1.18765379005280391e-20 -2.47959566856193348e-03 
-2.81695293218410807e-04 1.12398792447794996e-22 3.11040502523321610e-05 
-2.83676405702973345e-04 -1.42381582345673916e-21 7.33902430708839912e-05 
-2.76411188445659691e-04 3.04770084318086003e-27 9.89755224107296454e-05 
-2.68397077893568466e-04 -1.64214663788064500e-47 1.13671648298660215e-04 
-2.66150380357048583e-04 -2.33291417370735935e-25 1.23519143279924838e-04 
-2.69308295063876873e-04 -2.66880074797401211e-21 1.30903567596557134e-04 
-2.73633003387059256e-04 3.03952252310192167e-21 1.35562506911102057e-04 
-2.82160968652228844e-04 1.74914442197816793e-22 1.40428469781649594e-04 
-2.96449082170988228e-04 -2.91923943016158649e-21 1.47301370699505399e-04 
-3.35182046884089768e-04 -3.30119198798194550e-21 1.66255222097856382e-04 

