# vtk DataFile Version 2.0

ASCII

DATASET UNSTRUCTURED_GRID

POINTS 21 double 

0.00000000000000000e+00  6.00000000000000099e-03  4.00000000000000008e-03
0.00000000000000000e+00  6.00000000000000099e-03  1.20000000000000020e-02
0.00000000000000000e+00  6.00000000000000099e-03  2.00000000000000004e-02
0.00000000000000000e+00  5.99999999999999926e-03  2.80000000000000041e-02
0.00000000000000000e+00  6.00000000000000099e-03  3.60000000000000042e-02
0.00000000000000000e+00  6.00000000000000099e-03  4.39999999999999974e-02
0.00000000000000000e+00  6.00000000000000099e-03  5.19999999999999976e-02
0.00000000000000000e+00  5.99999999999999926e-03  5.99999999999999908e-02
0.00000000000000000e+00  5.99999999999999926e-03  6.79999999999999910e-02
0.00000000000000000e+00  6.00000000000000012e-03  7.59999999999999981e-02
6.00000000000000099e-03  6.00000000000000099e-03  8.00000000000000017e-02
1.20000000000000020e-02  6.00000000000000099e-03  4.00000000000000008e-03
1.20000000000000020e-02  6.00000000000000099e-03  1.19999999999999985e-02
1.20000000000000020e-02  6.00000000000000099e-03  2.00000000000000004e-02
1.20000000000000020e-02  6.00000000000000099e-03  2.80000000000000041e-02
1.20000000000000020e-02  6.00000000000000099e-03  3.59999999999999973e-02
1.20000000000000020e-02  6.00000000000000099e-03  4.40000000000000044e-02
1.20000000000000020e-02  6.00000000000000099e-03  5.19999999999999976e-02
1.20000000000000020e-02  6.00000000000000099e-03  5.99999999999999978e-02
1.20000000000000002e-02  5.99999999999999926e-03  6.79999999999999910e-02
1.20000000000000002e-02  6.00000000000000012e-03  7.59999999999999981e-02

CELLS 0 0


CELL_TYPES 0


POINT_DATA 21

SCALARS Rank unsigned_int
LOOKUP_TABLE default
0 0 0 0 0 0 0 0 0 0 0 0 0 0 0 0 0 0 0 0 0 

VECTORS Forces0 double
3.49816243343705705e-03 2.55868220349086800e-22 -1.26833874163449674e-06 
1.85645656206076429e-03 3.19773829575526405e-23 -7.28837262782071847e-07 
8.87825768859140598e-04 1.77761055847885125e-22 -8.62628528140615036e-08 
5.12889492659238696e-04 -8.83698669562096130e-24 1.87507753296349741e-07 
3.72856409102265704e-04 -1.97416398055796179e-29 2.24433486596529780e-07 
2.70405594663165861e-04 -1.68588598982028950e-22 2.43076452993104174e-07 
1.78121744811722657e-04 -1.74560094024349082e-22 2.89181261728895271e-07 
1.04351572109390425e-04 -1.68361796929602992e-22 3.38427252628970540e-07 
4.44443659813114356e-05 9.05709868895458889e-29 3.91949788659331754e-07 
-1.49438159552396378e-05 1.14519486442746980e-28 4.39034319557146276e-07 
3.51316115007457213e-07 1.56517213266183791e-23 3.40860724740022240e-04 
1.06147349071461707e-05 -1.68233705063853489e-22 -3.26996459749306782e-09 
1.85705570189161232e-05 1.68275008595354154e-22 -1.27138899368090527e-08 
2.68241385646913365e-05 4.62294130407474480e-25 -2.35322572806968002e-08 
3.54463950002294575e-05 7.98874144844475463e-30 -3.54704489820846181e-08 
4.45302418679826959e-05 -3.36673083622624558e-22 -4.80312754902666338e-08 
5.41993318472809105e-05 4.17619485951905570e-53 -6.06690435054230204e-08 
6.45641070789795677e-05 2.22552926012275531e-24 -7.19098369806933044e-08 
7.49385988426168993e-05 -2.58344210570033784e-24 -7.78617919762206345e-08 
9.10982116546814124e-05 -1.68409748140245908e-22 -8.94556123575134950e-08 
1.01418967973214397e-04 1.68468651254645676e-22 -1.16979521051876535e-07 

