# vtk DataFile Version 2.0

ASCII

DATASET UNSTRUCTURED_GRID

POINTS 44 double 

0.00000000000000000e+00  1.20000000000000002e-02  0.00000000000000000e+00
0.00000000000000000e+00  1.20000000000000002e-02  8.00000000000000017e-03
0.00000000000000000e+00  0.00000000000000000e+00  8.00000000000000017e-03
0.00000000000000000e+00  0.00000000000000000e+00  0.00000000000000000e+00
0.00000000000000000e+00  1.20000000000000002e-02  1.60000000000000003e-02
0.00000000000000000e+00  0.00000000000000000e+00  1.60000000000000003e-02
0.00000000000000000e+00  1.20000000000000002e-02  2.40000000000000005e-02
0.00000000000000000e+00  0.00000000000000000e+00  2.40000000000000005e-02
0.00000000000000000e+00  1.20000000000000002e-02  3.20000000000000007e-02
0.00000000000000000e+00  0.00000000000000000e+00  3.20000000000000007e-02
0.00000000000000000e+00  1.20000000000000002e-02  4.00000000000000008e-02
0.00000000000000000e+00  0.00000000000000000e+00  4.00000000000000008e-02
0.00000000000000000e+00  1.20000000000000002e-02  4.80000000000000010e-02
0.00000000000000000e+00  0.00000000000000000e+00  4.80000000000000010e-02
0.00000000000000000e+00  1.20000000000000002e-02  5.60000000000000012e-02
0.00000000000000000e+00  0.00000000000000000e+00  5.60000000000000012e-02
0.00000000000000000e+00  1.20000000000000002e-02  6.40000000000000013e-02
0.00000000000000000e+00  0.00000000000000000e+00  6.40000000000000013e-02
0.00000000000000000e+00  1.20000000000000002e-02  7.19999999999999946e-02
0.00000000000000000e+00  0.00000000000000000e+00  7.19999999999999946e-02
0.00000000000000000e+00  1.20000000000000002e-02  8.00000000000000017e-02
0.00000000000000000e+00  0.00000000000000000e+00  8.00000000000000017e-02
1.20000000000000002e-02  1.20000000000000002e-02  8.00000000000000017e-02
1.20000000000000002e-02  0.00000000000000000e+00  8.00000000000000017e-02
1.20000000000000002e-02  1.20000000000000002e-02  0.00000000000000000e+00
1.20000000000000002e-02  0.00000000000000000e+00  0.00000000000000000e+00
1.20000000000000002e-02  0.00000000000000000e+00  8.00000000000000017e-03
1.20000000000000002e-02  1.20000000000000002e-02  8.00000000000000017e-03
1.20000000000000002e-02  0.00000000000000000e+00  1.60000000000000003e-02
1.20000000000000002e-02  1.20000000000000002e-02  1.60000000000000003e-02
1.20000000000000002e-02  0.00000000000000000e+00  2.40000000000000005e-02
1.20000000000000002e-02  1.20000000000000002e-02  2.40000000000000005e-02
1.20000000000000002e-02  0.00000000000000000e+00  3.20000000000000007e-02
1.20000000000000002e-02  1.20000000000000002e-02  3.20000000000000007e-02
1.20000000000000002e-02  0.00000000000000000e+00  4.00000000000000008e-02
1.20000000000000002e-02  1.20000000000000002e-02  4.00000000000000008e-02
1.20000000000000002e-02  0.00000000000000000e+00  4.80000000000000010e-02
1.20000000000000002e-02  1.20000000000000002e-02  4.80000000000000010e-02
1.20000000000000002e-02  0.00000000000000000e+00  5.60000000000000012e-02
1.20000000000000002e-02  1.20000000000000002e-02  5.60000000000000012e-02
1.20000000000000002e-02  0.00000000000000000e+00  6.40000000000000013e-02
1.20000000000000002e-02  1.20000000000000002e-02  6.40000000000000013e-02
1.20000000000000002e-02  0.00000000000000000e+00  7.19999999999999946e-02
1.20000000000000002e-02  1.20000000000000002e-02  7.19999999999999946e-02

CELLS 0 0


CELL_TYPES 0


POINT_DATA 44

SCALARS Rank unsigned_int
LOOKUP_TABLE default
0 0 0 0 0 0 0 0 0 0 0 0 0 0 0 0 0 0 0 0 0 0 0 0 0 0 0 0 0 0 0 0 0 0 0 0 0 0 0 0 0 0 0 0 

VECTORS Displacements0 double
-7.62804768317210648e-09 0.00000000000000000e+00 4.66726035399772169e-09 
1.61578929406240449e-06 0.00000000000000000e+00 1.92009988708734197e-06 
1.61556604518328587e-06 0.00000000000000000e+00 1.92028468050108560e-06 
-8.15565541938883203e-09 0.00000000000000000e+00 5.02474138445281674e-09 
5.34920598972683303e-06 0.00000000000000000e+00 3.30920105777574870e-06 
5.34852289382506647e-06 0.00000000000000000e+00 3.30980184297838337e-06 
1.06016473351199972e-05 0.00000000000000000e+00 4.28496953816527295e-06 
1.06007247137457983e-05 0.00000000000000000e+00 4.28550577625568926e-06 
1.68573799737751595e-05 0.00000000000000000e+00 4.93452367356596936e-06 
1.68589710495153232e-05 0.00000000000000000e+00 4.93583390854818278e-06 
2.37629126751516344e-05 0.00000000000000000e+00 5.34454369305218848e-06 
2.37630328929046300e-05 0.00000000000000000e+00 5.34385567382371945e-06 
3.10532474502852674e-05 0.00000000000000000e+00 5.58355144247704984e-06 
3.10533406358531991e-05 0.00000000000000000e+00 5.58278228275447854e-06 
3.85438909212403193e-05 0.00000000000000000e+00 5.71251483270932271e-06 
3.85437471623698634e-05 0.00000000000000000e+00 5.71221845072656107e-06 
4.61258232075681624e-05 0.00000000000000000e+00 5.77296515374694896e-06 
4.61258348311943301e-05 0.00000000000000000e+00 5.77320466771154086e-06 
5.37381260564783180e-05 0.00000000000000000e+00 5.79549412773896363e-06 
5.37381219037477497e-05 0.00000000000000000e+00 5.79552362596880185e-06 
6.13395263247277009e-05 0.00000000000000000e+00 5.80275275059084579e-06 
6.13393890125225292e-05 0.00000000000000000e+00 5.80269707279794729e-06 
6.13563511852084907e-05 0.00000000000000000e+00 -5.61276935189726387e-06 
6.13564170696956335e-05 0.00000000000000000e+00 -5.61294550809241764e-06 
-9.55716896633647389e-09 0.00000000000000000e+00 -6.11650736237367111e-09 
-1.00949767968226153e-08 0.00000000000000000e+00 -6.30869299908809477e-09 
1.58558743241457249e-06 0.00000000000000000e+00 -1.89199583748640093e-06 
1.58571041347615395e-06 0.00000000000000000e+00 -1.89186403536827587e-06 
5.31792791062810729e-06 0.00000000000000000e+00 -3.25963775001741841e-06 
5.31768357750467490e-06 0.00000000000000000e+00 -3.26113352095734040e-06 
1.05676091949262233e-05 0.00000000000000000e+00 -4.21559052754482766e-06 
1.05681372308539873e-05 0.00000000000000000e+00 -4.21473612158990224e-06 
1.68322590668779871e-05 0.00000000000000000e+00 -4.84654080936713733e-06 
1.68317203740260782e-05 0.00000000000000000e+00 -4.84652136557099464e-06 
2.37442880364524012e-05 0.00000000000000000e+00 -5.23611358221765197e-06 
2.37442610617101202e-05 0.00000000000000000e+00 -5.23666009613402292e-06 
3.10382715625561709e-05 0.00000000000000000e+00 -5.45869337115730135e-06 
3.10383327333865484e-05 0.00000000000000000e+00 -5.45947124991430874e-06 
3.85345749578121420e-05 0.00000000000000000e+00 -5.56967566834724756e-06 
3.85347123921768120e-05 0.00000000000000000e+00 -5.57005309668409382e-06 
4.61214316026574639e-05 0.00000000000000000e+00 -5.60987891795635010e-06 
4.61214316811178277e-05 0.00000000000000000e+00 -5.61035552348966998e-06 
5.37349983923513067e-05 0.00000000000000000e+00 -5.61759768471239185e-06 
5.37349823958508635e-05 0.00000000000000000e+00 -5.61752285584495645e-06 

