# vtk DataFile Version 2.0

ASCII

DATASET UNSTRUCTURED_GRID

POINTS 44 double 

0.00000000000000000e+00  1.20000000000000002e-02  0.00000000000000000e+00
0.00000000000000000e+00  1.20000000000000002e-02  8.00000000000000017e-03
0.00000000000000000e+00  0.00000000000000000e+00  8.00000000000000017e-03
0.00000000000000000e+00  0.00000000000000000e+00  0.00000000000000000e+00
0.00000000000000000e+00  1.20000000000000002e-02  1.60000000000000003e-02
0.00000000000000000e+00  0.00000000000000000e+00  1.60000000000000003e-02
0.00000000000000000e+00  1.20000000000000002e-02  2.40000000000000005e-02
0.00000000000000000e+00  0.00000000000000000e+00  2.40000000000000005e-02
0.00000000000000000e+00  1.20000000000000002e-02  3.20000000000000007e-02
0.00000000000000000e+00  0.00000000000000000e+00  3.20000000000000007e-02
0.00000000000000000e+00  1.20000000000000002e-02  4.00000000000000008e-02
0.00000000000000000e+00  0.00000000000000000e+00  4.00000000000000008e-02
0.00000000000000000e+00  1.20000000000000002e-02  4.80000000000000010e-02
0.00000000000000000e+00  0.00000000000000000e+00  4.80000000000000010e-02
0.00000000000000000e+00  1.20000000000000002e-02  5.60000000000000012e-02
0.00000000000000000e+00  0.00000000000000000e+00  5.60000000000000012e-02
0.00000000000000000e+00  1.20000000000000002e-02  6.40000000000000013e-02
0.00000000000000000e+00  0.00000000000000000e+00  6.40000000000000013e-02
0.00000000000000000e+00  1.20000000000000002e-02  7.19999999999999946e-02
0.00000000000000000e+00  0.00000000000000000e+00  7.19999999999999946e-02
0.00000000000000000e+00  1.20000000000000002e-02  8.00000000000000017e-02
0.00000000000000000e+00  0.00000000000000000e+00  8.00000000000000017e-02
1.20000000000000002e-02  1.20000000000000002e-02  8.00000000000000017e-02
1.20000000000000002e-02  0.00000000000000000e+00  8.00000000000000017e-02
1.20000000000000002e-02  1.20000000000000002e-02  0.00000000000000000e+00
1.20000000000000002e-02  0.00000000000000000e+00  0.00000000000000000e+00
1.20000000000000002e-02  0.00000000000000000e+00  8.00000000000000017e-03
1.20000000000000002e-02  1.20000000000000002e-02  8.00000000000000017e-03
1.20000000000000002e-02  0.00000000000000000e+00  1.60000000000000003e-02
1.20000000000000002e-02  1.20000000000000002e-02  1.60000000000000003e-02
1.20000000000000002e-02  0.00000000000000000e+00  2.40000000000000005e-02
1.20000000000000002e-02  1.20000000000000002e-02  2.40000000000000005e-02
1.20000000000000002e-02  0.00000000000000000e+00  3.20000000000000007e-02
1.20000000000000002e-02  1.20000000000000002e-02  3.20000000000000007e-02
1.20000000000000002e-02  0.00000000000000000e+00  4.00000000000000008e-02
1.20000000000000002e-02  1.20000000000000002e-02  4.00000000000000008e-02
1.20000000000000002e-02  0.00000000000000000e+00  4.80000000000000010e-02
1.20000000000000002e-02  1.20000000000000002e-02  4.80000000000000010e-02
1.20000000000000002e-02  0.00000000000000000e+00  5.60000000000000012e-02
1.20000000000000002e-02  1.20000000000000002e-02  5.60000000000000012e-02
1.20000000000000002e-02  0.00000000000000000e+00  6.40000000000000013e-02
1.20000000000000002e-02  1.20000000000000002e-02  6.40000000000000013e-02
1.20000000000000002e-02  0.00000000000000000e+00  7.19999999999999946e-02
1.20000000000000002e-02  1.20000000000000002e-02  7.19999999999999946e-02

CELLS 0 0


CELL_TYPES 0


POINT_DATA 44

SCALARS Rank unsigned_int
LOOKUP_TABLE default
0 0 0 0 0 0 0 0 0 0 0 0 0 0 0 0 0 0 0 0 0 0 0 0 0 0 0 0 0 0 0 0 0 0 0 0 0 0 0 0 0 0 0 0 

VECTORS Displacements0 double
0.00000000000000000e+00 0.00000000000000000e+00 0.00000000000000000e+00 
2.32690582035487472e-07 0.00000000000000000e+00 2.30783171777081943e-07 
2.32740870808632481e-07 0.00000000000000000e+00 2.30769806460326202e-07 
0.00000000000000000e+00 0.00000000000000000e+00 0.00000000000000000e+00 
6.79140021034387316e-07 0.00000000000000000e+00 3.41638030846798036e-07 
6.79018119963121732e-07 0.00000000000000000e+00 3.41768425910897723e-07 
1.20018569961879110e-06 0.00000000000000000e+00 3.63114500240403983e-07 
1.20006745671163966e-06 0.00000000000000000e+00 3.63123039517778374e-07 
1.68853557993899596e-06 0.00000000000000000e+00 3.25982151521387722e-07 
1.68881388875363763e-06 0.00000000000000000e+00 3.25976716027332704e-07 
2.09101432494190217e-06 0.00000000000000000e+00 2.62152474617671542e-07 
2.09094861068253630e-06 0.00000000000000000e+00 2.61977824022297628e-07 
2.39577403621436566e-06 0.00000000000000000e+00 1.95191025839600950e-07 
2.39571957250073205e-06 0.00000000000000000e+00 1.95127645430917644e-07 
2.61058024317030281e-06 0.00000000000000000e+00 1.36712984650156798e-07 
2.61067788199878649e-06 0.00000000000000000e+00 1.36732089218168835e-07 
2.75228201578120279e-06 0.00000000000000000e+00 9.71352924976015252e-08 
2.75232948461349253e-06 0.00000000000000000e+00 9.70690158382627635e-08 
2.85445928881251769e-06 0.00000000000000000e+00 8.06249851392719572e-08 
2.85443090030221035e-06 0.00000000000000000e+00 8.06579545673111015e-08 
2.94968565636635272e-06 0.00000000000000000e+00 8.05493265045089635e-08 
2.94956551026528239e-06 0.00000000000000000e+00 8.04406343060202136e-08 
2.95843613537432993e-06 0.00000000000000000e+00 -7.34609402548307680e-08 
2.95838526421303666e-06 0.00000000000000000e+00 -7.34390615803301544e-08 
0.00000000000000000e+00 0.00000000000000000e+00 0.00000000000000000e+00 
0.00000000000000000e+00 0.00000000000000000e+00 0.00000000000000000e+00 
2.27269359530275421e-07 0.00000000000000000e+00 -2.34711977614232784e-07 
2.27174141605653202e-07 0.00000000000000000e+00 -2.34729174711992529e-07 
6.73785686019481091e-07 0.00000000000000000e+00 -3.47742696906762218e-07 
6.73710588866746241e-07 0.00000000000000000e+00 -3.48087736476692549e-07 
1.19417289785300705e-06 0.00000000000000000e+00 -3.69840689624244535e-07 
1.19427596712929207e-06 0.00000000000000000e+00 -3.69732451280156054e-07 
1.68456138205464551e-06 0.00000000000000000e+00 -3.31723845534403496e-07 
1.68450125047150387e-06 0.00000000000000000e+00 -3.31944291472106196e-07 
2.08873929258612332e-06 0.00000000000000000e+00 -2.65812325360006776e-07 
2.08881879121991548e-06 0.00000000000000000e+00 -2.65973423464700031e-07 
2.39457368416172501e-06 0.00000000000000000e+00 -1.97609187631412872e-07 
2.39460245575011038e-06 0.00000000000000000e+00 -1.97625145676349768e-07 
2.61098553062052691e-06 0.00000000000000000e+00 -1.37944579596142811e-07 
2.61089800716832655e-06 0.00000000000000000e+00 -1.37942193564824324e-07 
2.75307714181582988e-06 0.00000000000000000e+00 -9.47318750462815633e-08 
2.75315577560999537e-06 0.00000000000000000e+00 -9.44350831864663970e-08 
2.85568009440723484e-06 0.00000000000000000e+00 -7.54930284431727289e-08 
2.85564518384677368e-06 0.00000000000000000e+00 -7.54823064266137411e-08 

