# vtk DataFile Version 2.0

ASCII

DATASET UNSTRUCTURED_GRID

POINTS 21 double 

0.00000000000000000e+00  6.00000000000000099e-03  4.00000000000000008e-03
0.00000000000000000e+00  6.00000000000000099e-03  1.20000000000000020e-02
0.00000000000000000e+00  6.00000000000000099e-03  2.00000000000000004e-02
0.00000000000000000e+00  5.99999999999999926e-03  2.80000000000000041e-02
0.00000000000000000e+00  6.00000000000000099e-03  3.60000000000000042e-02
0.00000000000000000e+00  6.00000000000000099e-03  4.39999999999999974e-02
0.00000000000000000e+00  6.00000000000000099e-03  5.19999999999999976e-02
0.00000000000000000e+00  5.99999999999999926e-03  5.99999999999999908e-02
0.00000000000000000e+00  5.99999999999999926e-03  6.79999999999999910e-02
0.00000000000000000e+00  6.00000000000000012e-03  7.59999999999999981e-02
6.00000000000000099e-03  6.00000000000000099e-03  8.00000000000000017e-02
1.20000000000000020e-02  6.00000000000000099e-03  4.00000000000000008e-03
1.20000000000000020e-02  6.00000000000000099e-03  1.19999999999999985e-02
1.20000000000000020e-02  6.00000000000000099e-03  2.00000000000000004e-02
1.20000000000000020e-02  6.00000000000000099e-03  2.80000000000000041e-02
1.20000000000000020e-02  6.00000000000000099e-03  3.59999999999999973e-02
1.20000000000000020e-02  6.00000000000000099e-03  4.40000000000000044e-02
1.20000000000000020e-02  6.00000000000000099e-03  5.19999999999999976e-02
1.20000000000000020e-02  6.00000000000000099e-03  5.99999999999999978e-02
1.20000000000000002e-02  5.99999999999999926e-03  6.79999999999999910e-02
1.20000000000000002e-02  6.00000000000000012e-03  7.59999999999999981e-02

CELLS 0 0


CELL_TYPES 0


POINT_DATA 21

SCALARS Rank unsigned_int
LOOKUP_TABLE default
0 0 0 0 0 0 0 0 0 0 0 0 0 0 0 0 0 0 0 0 0 

VECTORS Forces0 double
3.18518756524830970e-01 1.79029855581751109e-20 -2.29701556218145468e-02 
3.02236534787327038e-01 1.72301004990368388e-20 -4.34003922683005583e-02 
2.78182200048360917e-01 -1.90830256194940953e-24 -5.08493238928641525e-02 
2.34965616898565821e-01 1.86017446111006687e-24 -4.62995615860500656e-02 
1.77093334252107548e-01 8.11982884509472632e-19 -3.52968216658625794e-02 
1.11702058980770250e-01 5.02478611455229137e-19 -2.20150046683678033e-02 
5.69184155755361049e-02 -1.66451272872630879e-20 -1.10054736102683653e-02 
5.56295272954343556e-03 1.64421766281984323e-20 -1.02107266908649198e-03 
-4.01557063445741325e-02 -3.20880242695779217e-20 7.74242035124238139e-03 
-6.14829781251648513e-02 -1.52039428625212967e-20 1.17855185939832290e-02 
-1.78439631639988540e-04 9.73113791641154695e-25 -9.27063853971603932e-04 
-5.25511794205337553e-04 2.75564873664249944e-22 3.72415918605280673e-05 
-5.35520587823097756e-04 1.48517805474977426e-22 7.81908407664904271e-05 
-5.44830613794418882e-04 2.80765722109917929e-21 9.99683204375540570e-05 
-5.59496685342842520e-04 -1.63288527978964816e-22 1.10798823495215790e-04 
-5.84400476266403162e-04 2.62863230389812493e-21 1.17162385474331627e-04 
-6.18052054476787675e-04 0.00000000000000000e+00 1.22340748164563205e-04 
-6.60352533759808714e-04 2.96030831769064608e-21 1.28621012234849432e-04 
-7.20375381587791300e-04 1.54824369649256189e-25 1.38825215826295420e-04 
-8.12114282972002991e-04 3.82201081706599329e-21 1.55854134671720257e-04 
-9.71719295120996663e-04 4.36343510057121580e-21 1.86277250573169356e-04 

