# vtk DataFile Version 2.0

ASCII

DATASET UNSTRUCTURED_GRID

POINTS 21 double 

0.00000000000000000e+00  6.00000000000000099e-03  4.00000000000000008e-03
0.00000000000000000e+00  6.00000000000000099e-03  1.20000000000000020e-02
0.00000000000000000e+00  6.00000000000000099e-03  2.00000000000000004e-02
0.00000000000000000e+00  5.99999999999999926e-03  2.80000000000000041e-02
0.00000000000000000e+00  6.00000000000000099e-03  3.60000000000000042e-02
0.00000000000000000e+00  6.00000000000000099e-03  4.39999999999999974e-02
0.00000000000000000e+00  6.00000000000000099e-03  5.19999999999999976e-02
0.00000000000000000e+00  5.99999999999999926e-03  5.99999999999999908e-02
0.00000000000000000e+00  5.99999999999999926e-03  6.79999999999999910e-02
0.00000000000000000e+00  6.00000000000000012e-03  7.59999999999999981e-02
6.00000000000000099e-03  6.00000000000000099e-03  8.00000000000000017e-02
1.20000000000000020e-02  6.00000000000000099e-03  4.00000000000000008e-03
1.20000000000000020e-02  6.00000000000000099e-03  1.19999999999999985e-02
1.20000000000000020e-02  6.00000000000000099e-03  2.00000000000000004e-02
1.20000000000000020e-02  6.00000000000000099e-03  2.80000000000000041e-02
1.20000000000000020e-02  6.00000000000000099e-03  3.59999999999999973e-02
1.20000000000000020e-02  6.00000000000000099e-03  4.40000000000000044e-02
1.20000000000000020e-02  6.00000000000000099e-03  5.19999999999999976e-02
1.20000000000000020e-02  6.00000000000000099e-03  5.99999999999999978e-02
1.20000000000000002e-02  5.99999999999999926e-03  6.79999999999999910e-02
1.20000000000000002e-02  6.00000000000000012e-03  7.59999999999999981e-02

CELLS 0 0


CELL_TYPES 0


POINT_DATA 21

SCALARS Rank unsigned_int
LOOKUP_TABLE default
0 0 0 0 0 0 0 0 0 0 0 0 0 0 0 0 0 0 0 0 0 

VECTORS Forces0 double
2.28331221115414429e-01 1.80065859588597699e-18 -3.50969231785854055e-02 
1.95162504770061584e-01 1.63612763293662874e-18 -7.39388725927059981e-02 
1.60597371428994634e-01 2.11056775434753484e-20 -9.25721949992203558e-02 
1.23031699765085656e-01 3.08021009066242225e-24 -9.10471041440105017e-02 
9.78739372671990071e-02 -3.50324616081204268e-45 -8.52407883497580815e-02 
9.43855844529126464e-02 -1.40129846432481707e-45 -9.12712817684886157e-02 
8.63347616040621296e-02 3.44456352239289951e-20 -8.86478660145516018e-02 
6.66619464849611265e-02 1.56463641866355067e-20 -7.05033735723615967e-02 
5.04726130004109277e-02 -1.27246883292520320e-18 -5.39421179287469868e-02 
3.96684228427822833e-02 -1.03619927274677965e-18 -4.24221141103349117e-02 
-1.38232108572646862e-03 -4.54515372249409530e-20 -1.26765897834377000e-03 
1.54426776280493325e-04 -1.56126335639513839e-22 -2.29884143720796423e-05 
1.58581127821381875e-04 -1.95494368587785512e-21 -6.23173006914554519e-05 
1.52311624761071625e-04 1.74838883595130522e-21 -8.93413582401397392e-05 
1.41925745443574836e-04 -3.68515502043908674e-26 -1.06058362840004075e-04 
1.36579050245878945e-04 2.18952885050752667e-47 -1.19630154366441618e-04 
1.39286441658776359e-04 2.86991920259926504e-22 -1.35040168980144609e-04 
1.41478188260520349e-04 1.58411491163999855e-22 -1.45535516746509645e-04 
1.42444045596416867e-04 1.30947752272241602e-25 -1.50918297944235141e-04 
1.50000676249187006e-04 -3.88819752980953508e-21 -1.60712537539035963e-04 
1.43172518840121505e-04 3.34732625088154026e-22 -1.53395338311564572e-04 

