# vtk DataFile Version 2.0

ASCII

DATASET UNSTRUCTURED_GRID

POINTS 21 double 

0.00000000000000000e+00  6.00000000000000099e-03  4.00000000000000008e-03
0.00000000000000000e+00  6.00000000000000099e-03  1.20000000000000020e-02
0.00000000000000000e+00  6.00000000000000099e-03  2.00000000000000004e-02
0.00000000000000000e+00  5.99999999999999926e-03  2.80000000000000041e-02
0.00000000000000000e+00  6.00000000000000099e-03  3.60000000000000042e-02
0.00000000000000000e+00  6.00000000000000099e-03  4.39999999999999974e-02
0.00000000000000000e+00  6.00000000000000099e-03  5.19999999999999976e-02
0.00000000000000000e+00  5.99999999999999926e-03  5.99999999999999908e-02
0.00000000000000000e+00  5.99999999999999926e-03  6.79999999999999910e-02
0.00000000000000000e+00  6.00000000000000012e-03  7.59999999999999981e-02
6.00000000000000099e-03  6.00000000000000099e-03  8.00000000000000017e-02
1.20000000000000020e-02  6.00000000000000099e-03  4.00000000000000008e-03
1.20000000000000020e-02  6.00000000000000099e-03  1.19999999999999985e-02
1.20000000000000020e-02  6.00000000000000099e-03  2.00000000000000004e-02
1.20000000000000020e-02  6.00000000000000099e-03  2.80000000000000041e-02
1.20000000000000020e-02  6.00000000000000099e-03  3.59999999999999973e-02
1.20000000000000020e-02  6.00000000000000099e-03  4.40000000000000044e-02
1.20000000000000020e-02  6.00000000000000099e-03  5.19999999999999976e-02
1.20000000000000020e-02  6.00000000000000099e-03  5.99999999999999978e-02
1.20000000000000002e-02  5.99999999999999926e-03  6.79999999999999910e-02
1.20000000000000002e-02  6.00000000000000012e-03  7.59999999999999981e-02

CELLS 0 0


CELL_TYPES 0


POINT_DATA 21

SCALARS Rank unsigned_int
LOOKUP_TABLE default
0 0 0 0 0 0 0 0 0 0 0 0 0 0 0 0 0 0 0 0 0 

VECTORS Forces0 double
1.49387553743439094e-01 2.19679824212931371e-20 -1.98964458000415977e-02 
1.40587719880140322e-01 1.19163250968395036e-18 -4.76743045585368286e-02 
1.31666629142382557e-01 2.11796748679061044e-20 -6.96708663150379659e-02 
1.20385827806529552e-01 2.40899445022037205e-18 -8.39507573035845195e-02 
1.04592434865139000e-01 1.95776550704776661e-20 -8.82053919514402679e-02 
7.60481263138420155e-02 9.14800888118874417e-24 -7.30569218249683544e-02 
5.42580446909174882e-02 1.76734842776305457e-20 -5.65770940644901091e-02 
5.28564851249809231e-02 -1.36388685253193561e-18 -5.77218576596755309e-02 
5.56983778821272049e-02 -1.45039139049624724e-18 -6.20491036940311602e-02 
4.73928649210461003e-02 1.16067708851644501e-20 -5.29490156614287194e-02 
2.30772523991316708e-03 -7.20308744141724395e-20 2.08247282177558609e-03 
3.60140156645037061e-04 1.66159186467623580e-22 -4.58184589433781341e-05 
3.64470746116533125e-04 -1.40127879150992168e-26 -1.27080855792522523e-04 
3.61025694230199647e-04 -4.07741231431629933e-21 -1.93890378270343734e-04 
3.55277616225247838e-04 -1.31371731030451600e-46 -2.50076000094541517e-04 
3.46655752145550507e-04 -3.43922256160653561e-26 -2.94111001524713790e-04 
3.40633421925749726e-04 -4.49089165798068288e-21 -3.28282297608960911e-04 
3.41668125108946202e-04 -4.47351841368515142e-21 -3.57151316930407587e-04 
3.49232776859481359e-04 1.87639144534734365e-25 -3.82147422426553371e-04 
3.61344966247739035e-04 9.82038363730981682e-21 -4.03253550707319654e-04 
3.82082501725442610e-04 -3.44279212942088685e-22 -4.26680405565143129e-04 

