# vtk DataFile Version 2.0

ASCII

DATASET UNSTRUCTURED_GRID

POINTS 21 double 

0.00000000000000000e+00  6.00000000000000099e-03  4.00000000000000008e-03
0.00000000000000000e+00  6.00000000000000099e-03  1.20000000000000020e-02
0.00000000000000000e+00  6.00000000000000099e-03  2.00000000000000004e-02
0.00000000000000000e+00  5.99999999999999926e-03  2.80000000000000041e-02
0.00000000000000000e+00  6.00000000000000099e-03  3.60000000000000042e-02
0.00000000000000000e+00  6.00000000000000099e-03  4.39999999999999974e-02
0.00000000000000000e+00  6.00000000000000099e-03  5.19999999999999976e-02
0.00000000000000000e+00  5.99999999999999926e-03  5.99999999999999908e-02
0.00000000000000000e+00  5.99999999999999926e-03  6.79999999999999910e-02
0.00000000000000000e+00  6.00000000000000012e-03  7.59999999999999981e-02
6.00000000000000099e-03  6.00000000000000099e-03  8.00000000000000017e-02
1.20000000000000020e-02  6.00000000000000099e-03  4.00000000000000008e-03
1.20000000000000020e-02  6.00000000000000099e-03  1.19999999999999985e-02
1.20000000000000020e-02  6.00000000000000099e-03  2.00000000000000004e-02
1.20000000000000020e-02  6.00000000000000099e-03  2.80000000000000041e-02
1.20000000000000020e-02  6.00000000000000099e-03  3.59999999999999973e-02
1.20000000000000020e-02  6.00000000000000099e-03  4.40000000000000044e-02
1.20000000000000020e-02  6.00000000000000099e-03  5.19999999999999976e-02
1.20000000000000020e-02  6.00000000000000099e-03  5.99999999999999978e-02
1.20000000000000002e-02  5.99999999999999926e-03  6.79999999999999910e-02
1.20000000000000002e-02  6.00000000000000012e-03  7.59999999999999981e-02

CELLS 0 0


CELL_TYPES 0


POINT_DATA 21

SCALARS Rank unsigned_int
LOOKUP_TABLE default
0 0 0 0 0 0 0 0 0 0 0 0 0 0 0 0 0 0 0 0 0 

VECTORS Forces0 double
2.03283825689253147e-04 8.75545640251487035e-25 -2.67723846212932965e-08 
1.93126186573745230e-04 1.68421934666110398e-22 -3.51185505901102194e-08 
1.78502166338959323e-04 1.65332302710202277e-22 -3.37484101817906252e-08 
1.60480317421418802e-04 -1.68394516136428360e-22 -2.24228040378614914e-08 
1.40193874562824982e-04 -5.19699402331354950e-30 -3.62555657360580133e-09 
1.18291321968343326e-04 -1.70410982944184240e-22 2.07529935548028367e-08 
9.50178348210205416e-05 -1.70000508521068273e-22 4.90267583509886441e-08 
7.01960627780755746e-05 1.68352112344004145e-22 8.02020455267894539e-08 
4.27675949671690842e-05 1.68332884709633516e-22 1.17606228193422813e-07 
1.09698077316969385e-05 1.68296206746075317e-22 1.50367160242275680e-07 
1.92418042956257862e-07 -5.06862873844322159e-22 1.39497921993123839e-04 
-1.74801137325514887e-05 0.00000000000000000e+00 2.17775097597939565e-09 
-9.86747972507390194e-06 3.36609887410176052e-22 4.85420455845993000e-10 
-2.32403366210144917e-06 -1.68319167036641108e-22 -3.58226829865034001e-09 
5.15862216913047981e-06 -1.68421189563199336e-22 -9.68509373772876533e-09 
1.25907742871373576e-05 2.16935220673608473e-25 -1.69665483763783263e-08 
1.99920554300186151e-05 -3.44450469932676398e-25 -2.49199012270841919e-08 
2.74741587319170739e-05 -4.73397684677475015e-25 -3.38260408255390238e-08 
3.50770273395086915e-05 1.68374806445497785e-22 -4.09451131380761047e-08 
4.19513457362123834e-05 -8.92998154838650759e-30 -3.76349153876085320e-08 
5.36557032044077630e-05 1.68430881108465653e-22 -5.47462262343770790e-08 

