# vtk DataFile Version 2.0

ASCII

DATASET UNSTRUCTURED_GRID

POINTS 21 double 

0.00000000000000000e+00  6.00000000000000099e-03  4.00000000000000008e-03
0.00000000000000000e+00  6.00000000000000099e-03  1.20000000000000020e-02
0.00000000000000000e+00  6.00000000000000099e-03  2.00000000000000004e-02
0.00000000000000000e+00  5.99999999999999926e-03  2.80000000000000041e-02
0.00000000000000000e+00  6.00000000000000099e-03  3.60000000000000042e-02
0.00000000000000000e+00  6.00000000000000099e-03  4.39999999999999974e-02
0.00000000000000000e+00  6.00000000000000099e-03  5.19999999999999976e-02
0.00000000000000000e+00  5.99999999999999926e-03  5.99999999999999908e-02
0.00000000000000000e+00  5.99999999999999926e-03  6.79999999999999910e-02
0.00000000000000000e+00  6.00000000000000012e-03  7.59999999999999981e-02
6.00000000000000099e-03  6.00000000000000099e-03  8.00000000000000017e-02
1.20000000000000020e-02  6.00000000000000099e-03  4.00000000000000008e-03
1.20000000000000020e-02  6.00000000000000099e-03  1.19999999999999985e-02
1.20000000000000020e-02  6.00000000000000099e-03  2.00000000000000004e-02
1.20000000000000020e-02  6.00000000000000099e-03  2.80000000000000041e-02
1.20000000000000020e-02  6.00000000000000099e-03  3.59999999999999973e-02
1.20000000000000020e-02  6.00000000000000099e-03  4.40000000000000044e-02
1.20000000000000020e-02  6.00000000000000099e-03  5.19999999999999976e-02
1.20000000000000020e-02  6.00000000000000099e-03  5.99999999999999978e-02
1.20000000000000002e-02  5.99999999999999926e-03  6.79999999999999910e-02
1.20000000000000002e-02  6.00000000000000012e-03  7.59999999999999981e-02

CELLS 0 0


CELL_TYPES 0


POINT_DATA 21

SCALARS Rank unsigned_int
LOOKUP_TABLE default
0 0 0 0 0 0 0 0 0 0 0 0 0 0 0 0 0 0 0 0 0 

VECTORS Forces0 double
2.23420790334605213e-01 -8.82336494242876177e-19 -3.43044546959839700e-02 
2.14796876132042402e-01 1.75874501543388461e-18 -8.08918394450603012e-02 
1.89453784260752989e-01 6.30034078327151058e-24 -1.08065671861693122e-01 
1.56194696923549925e-01 2.00233342543023758e-20 -1.13768451907913265e-01 
1.21585932524884671e-01 2.08998892918459609e-24 -1.03587839727373746e-01 
8.74744734457180428e-02 -4.10111881278661952e-25 -8.22024889831804856e-02 
7.04792635804923351e-02 -1.70768169907826727e-18 -6.99339304590879812e-02 
6.50428069397536862e-02 -1.62651448374100919e-18 -6.62331586038835685e-02 
5.82105066116539241e-02 1.37853704970374867e-20 -5.98090633107008079e-02 
4.93896694317698531e-02 2.15297263105986718e-24 -5.07822869095306342e-02 
-1.80664598392156245e-03 4.77934989866558476e-21 -1.73340668197675442e-03 
-7.09696532925692701e-05 0.00000000000000000e+00 1.05737124920488807e-05 
-6.52040230302211165e-05 1.83776990787132039e-22 2.54845232606826491e-05 
-5.16759624371425781e-05 -3.80757083772203595e-22 3.00039168628934863e-05 
-3.55812891154945696e-05 -5.39139865270254060e-22 2.61746344105045108e-05 
-2.24951219863019705e-05 -1.23250679163642129e-25 1.92815067510486150e-05 
-1.30422711699572789e-05 1.63683193436205000e-22 1.22981716667059814e-05 
-2.06472048595635117e-07 -6.61051777924180154e-24 2.15095697792094544e-07 
1.44163622712197642e-05 -4.37905770101505335e-47 -1.47016165154556104e-05 
2.55494049464729422e-05 4.27181109498222042e-22 -2.64382696020913096e-05 
2.60187737609251179e-05 1.46974734389962119e-25 -2.71211795414496126e-05 

