# vtk DataFile Version 2.0

ASCII

DATASET UNSTRUCTURED_GRID

POINTS 44 double 

0.00000000000000000e+00  1.20000000000000002e-02  0.00000000000000000e+00
0.00000000000000000e+00  1.20000000000000002e-02  8.00000000000000017e-03
0.00000000000000000e+00  0.00000000000000000e+00  8.00000000000000017e-03
0.00000000000000000e+00  0.00000000000000000e+00  0.00000000000000000e+00
0.00000000000000000e+00  1.20000000000000002e-02  1.60000000000000003e-02
0.00000000000000000e+00  0.00000000000000000e+00  1.60000000000000003e-02
0.00000000000000000e+00  1.20000000000000002e-02  2.40000000000000005e-02
0.00000000000000000e+00  0.00000000000000000e+00  2.40000000000000005e-02
0.00000000000000000e+00  1.20000000000000002e-02  3.20000000000000007e-02
0.00000000000000000e+00  0.00000000000000000e+00  3.20000000000000007e-02
0.00000000000000000e+00  1.20000000000000002e-02  4.00000000000000008e-02
0.00000000000000000e+00  0.00000000000000000e+00  4.00000000000000008e-02
0.00000000000000000e+00  1.20000000000000002e-02  4.80000000000000010e-02
0.00000000000000000e+00  0.00000000000000000e+00  4.80000000000000010e-02
0.00000000000000000e+00  1.20000000000000002e-02  5.60000000000000012e-02
0.00000000000000000e+00  0.00000000000000000e+00  5.60000000000000012e-02
0.00000000000000000e+00  1.20000000000000002e-02  6.40000000000000013e-02
0.00000000000000000e+00  0.00000000000000000e+00  6.40000000000000013e-02
0.00000000000000000e+00  1.20000000000000002e-02  7.19999999999999946e-02
0.00000000000000000e+00  0.00000000000000000e+00  7.19999999999999946e-02
0.00000000000000000e+00  1.20000000000000002e-02  8.00000000000000017e-02
0.00000000000000000e+00  0.00000000000000000e+00  8.00000000000000017e-02
1.20000000000000002e-02  1.20000000000000002e-02  8.00000000000000017e-02
1.20000000000000002e-02  0.00000000000000000e+00  8.00000000000000017e-02
1.20000000000000002e-02  1.20000000000000002e-02  0.00000000000000000e+00
1.20000000000000002e-02  0.00000000000000000e+00  0.00000000000000000e+00
1.20000000000000002e-02  0.00000000000000000e+00  8.00000000000000017e-03
1.20000000000000002e-02  1.20000000000000002e-02  8.00000000000000017e-03
1.20000000000000002e-02  0.00000000000000000e+00  1.60000000000000003e-02
1.20000000000000002e-02  1.20000000000000002e-02  1.60000000000000003e-02
1.20000000000000002e-02  0.00000000000000000e+00  2.40000000000000005e-02
1.20000000000000002e-02  1.20000000000000002e-02  2.40000000000000005e-02
1.20000000000000002e-02  0.00000000000000000e+00  3.20000000000000007e-02
1.20000000000000002e-02  1.20000000000000002e-02  3.20000000000000007e-02
1.20000000000000002e-02  0.00000000000000000e+00  4.00000000000000008e-02
1.20000000000000002e-02  1.20000000000000002e-02  4.00000000000000008e-02
1.20000000000000002e-02  0.00000000000000000e+00  4.80000000000000010e-02
1.20000000000000002e-02  1.20000000000000002e-02  4.80000000000000010e-02
1.20000000000000002e-02  0.00000000000000000e+00  5.60000000000000012e-02
1.20000000000000002e-02  1.20000000000000002e-02  5.60000000000000012e-02
1.20000000000000002e-02  0.00000000000000000e+00  6.40000000000000013e-02
1.20000000000000002e-02  1.20000000000000002e-02  6.40000000000000013e-02
1.20000000000000002e-02  0.00000000000000000e+00  7.19999999999999946e-02
1.20000000000000002e-02  1.20000000000000002e-02  7.19999999999999946e-02

CELLS 0 0


CELL_TYPES 0


POINT_DATA 44

SCALARS Rank unsigned_int
LOOKUP_TABLE default
0 0 0 0 0 0 0 0 0 0 0 0 0 0 0 0 0 0 0 0 0 0 0 0 0 0 0 0 0 0 0 0 0 0 0 0 0 0 0 0 0 0 0 0 

VECTORS Displacements0 double
-3.95998871571303829e-06 0.00000000000000000e+00 6.46100151484868026e-06 
1.21238696753820166e-03 0.00000000000000000e+00 1.06642915905399960e-03 
1.21233580711810210e-03 0.00000000000000000e+00 1.06661916954274463e-03 
-4.22354243763325282e-06 0.00000000000000000e+00 6.82631653490823470e-06 
4.00584520056251805e-03 0.00000000000000000e+00 1.52592847105142678e-03 
4.00546972500168911e-03 0.00000000000000000e+00 1.52633087311204165e-03 
7.92289330007567988e-03 0.00000000000000000e+00 1.30862148280458130e-03 
7.92278400817579206e-03 0.00000000000000000e+00 1.30921774880678708e-03 
1.25695022187527535e-02 0.00000000000000000e+00 4.72488429120039057e-04 
1.25708636391254226e-02 0.00000000000000000e+00 4.72919372936064439e-04 
1.76899122916526937e-02 0.00000000000000000e+00 -8.73091859026866451e-04 
1.76897985975761896e-02 0.00000000000000000e+00 -8.73349971311123373e-04 
2.30963540362905291e-02 0.00000000000000000e+00 -2.61141293713537323e-03 
2.30961213402519662e-02 0.00000000000000000e+00 -2.61188305296278928e-03 
2.86507722167792869e-02 0.00000000000000000e+00 -4.62160390211218894e-03 
2.86503469698329745e-02 0.00000000000000000e+00 -4.62171601220523042e-03 
3.42651216319825175e-02 0.00000000000000000e+00 -6.80092937611509463e-03 
3.42652377873587932e-02 0.00000000000000000e+00 -6.80074284723280065e-03 
3.98881148663592852e-02 0.00000000000000000e+00 -9.06490106296875889e-03 
3.98880849689023029e-02 0.00000000000000000e+00 -9.06480230346248458e-03 
4.54962621685874105e-02 0.00000000000000000e+00 -1.13543600359673792e-02 
4.54966913632545711e-02 0.00000000000000000e+00 -1.13544894410375526e-02 
4.20578724960671557e-02 0.00000000000000000e+00 -1.97482360673878823e-02 
4.20579468693586533e-02 0.00000000000000000e+00 -1.97483898665802918e-02 
-9.41303266912631140e-06 0.00000000000000000e+00 -1.39020239208748584e-06 
-9.80693858997029252e-06 0.00000000000000000e+00 -1.43264506025087002e-06 
8.28397388556410385e-04 0.00000000000000000e+00 -1.52574828484013211e-03 
8.28512452561132231e-04 0.00000000000000000e+00 -1.52566447966504307e-03 
3.05085349428920426e-03 0.00000000000000000e+00 -2.99536351796850968e-03 
3.05071649121340088e-03 0.00000000000000000e+00 -2.99612999742153094e-03 
6.31702190400020881e-03 0.00000000000000000e+00 -4.60023178110352798e-03 
6.31753107206399055e-03 0.00000000000000000e+00 -4.60004126143239486e-03 
1.03697923303727822e-02 0.00000000000000000e+00 -6.40593067063384165e-03 
1.03698325790437286e-02 0.00000000000000000e+00 -6.40589123872824327e-03 
1.50043011353854679e-02 0.00000000000000000e+00 -8.41242782237858026e-03 
1.50043029243537244e-02 0.00000000000000000e+00 -8.41247777414056395e-03 
2.00535927460476701e-02 0.00000000000000000e+00 -1.05774865213309720e-02 
2.00532668081799467e-02 0.00000000000000000e+00 -1.05777941319447222e-02 
2.53808412333310918e-02 0.00000000000000000e+00 -1.28411108438909894e-02 
2.53808046709893195e-02 0.00000000000000000e+00 -1.28414096573289255e-02 
3.08776646572242221e-02 0.00000000000000000e+00 -1.51473186873905454e-02 
3.08771583518933738e-02 0.00000000000000000e+00 -1.51477574228592194e-02 
3.64572991068006641e-02 0.00000000000000000e+00 -1.74583178900114336e-02 
3.64572770009009214e-02 0.00000000000000000e+00 -1.74582598996939273e-02 

