# vtk DataFile Version 2.0

ASCII

DATASET UNSTRUCTURED_GRID

POINTS 21 double 

0.00000000000000000e+00  6.00000000000000099e-03  4.00000000000000008e-03
0.00000000000000000e+00  6.00000000000000099e-03  1.20000000000000020e-02
0.00000000000000000e+00  6.00000000000000099e-03  2.00000000000000004e-02
0.00000000000000000e+00  5.99999999999999926e-03  2.80000000000000041e-02
0.00000000000000000e+00  6.00000000000000099e-03  3.60000000000000042e-02
0.00000000000000000e+00  6.00000000000000099e-03  4.39999999999999974e-02
0.00000000000000000e+00  6.00000000000000099e-03  5.19999999999999976e-02
0.00000000000000000e+00  5.99999999999999926e-03  5.99999999999999908e-02
0.00000000000000000e+00  5.99999999999999926e-03  6.79999999999999910e-02
0.00000000000000000e+00  6.00000000000000012e-03  7.59999999999999981e-02
6.00000000000000099e-03  6.00000000000000099e-03  8.00000000000000017e-02
1.20000000000000020e-02  6.00000000000000099e-03  4.00000000000000008e-03
1.20000000000000020e-02  6.00000000000000099e-03  1.19999999999999985e-02
1.20000000000000020e-02  6.00000000000000099e-03  2.00000000000000004e-02
1.20000000000000020e-02  6.00000000000000099e-03  2.80000000000000041e-02
1.20000000000000020e-02  6.00000000000000099e-03  3.59999999999999973e-02
1.20000000000000020e-02  6.00000000000000099e-03  4.40000000000000044e-02
1.20000000000000020e-02  6.00000000000000099e-03  5.19999999999999976e-02
1.20000000000000020e-02  6.00000000000000099e-03  5.99999999999999978e-02
1.20000000000000002e-02  5.99999999999999926e-03  6.79999999999999910e-02
1.20000000000000002e-02  6.00000000000000012e-03  7.59999999999999981e-02

CELLS 0 0


CELL_TYPES 0


POINT_DATA 21

SCALARS Rank unsigned_int
LOOKUP_TABLE default
0 0 0 0 0 0 0 0 0 0 0 0 0 0 0 0 0 0 0 0 0 

VECTORS Forces0 double
1.75664440242440933e-01 2.20153478543595676e-20 -2.36241609692660059e-02 
1.52703958593508909e-01 1.27118172710647005e-18 -5.22451588458261937e-02 
1.29831834744383895e-01 2.11973118796806453e-20 -6.92849627697458142e-02 
1.00204013494847088e-01 -2.03533174078789231e-20 -7.04059618700211415e-02 
7.92286506978442662e-02 1.95670048479807915e-20 -6.72273898435688938e-02 
8.12079654241408405e-02 1.89270594817169756e-20 -7.84225698715973613e-02 
8.50153286945949521e-02 -1.76838120956507113e-20 -8.91151286051890812e-02 
7.29312268841313671e-02 1.59512443923002202e-20 -8.00997835412394221e-02 
5.66707532138059356e-02 1.38507221812528560e-20 -6.35123936449616538e-02 
4.37771437912413755e-02 1.16157162096908935e-20 -4.92001649567112842e-02 
1.68238588175545923e-03 -3.69328913557860202e-20 1.51482779367511766e-03 
8.21575367769533232e-05 -6.65416391540002899e-27 -1.05436207065585213e-05 
8.78129744555334007e-05 1.82389338726474432e-22 -3.09027341148732237e-05 
8.87764460457476110e-05 8.33566064751142194e-27 -4.81056279092672729e-05 
8.85464206458741059e-05 -1.15845576366435762e-21 -6.27999929069234891e-05 
9.35662974298460433e-05 2.47963036269968213e-22 -7.98779240095735343e-05 
1.02850547165514848e-04 1.45479320127019761e-21 -9.96338958723576616e-05 
1.11741373342162063e-04 4.09550029100109346e-26 -1.17384760376829060e-04 
1.20753365409879141e-04 0.00000000000000000e+00 -1.32906996343476491e-04 
1.42296321384285539e-04 -2.17940706176202304e-22 -1.59891245304920397e-04 
1.71369753559820519e-04 3.47011793700510722e-22 -1.92688404796038590e-04 

