# vtk DataFile Version 2.0

ASCII

DATASET UNSTRUCTURED_GRID

POINTS 21 double 

0.00000000000000000e+00  6.00000000000000099e-03  4.00000000000000008e-03
0.00000000000000000e+00  6.00000000000000099e-03  1.20000000000000020e-02
0.00000000000000000e+00  6.00000000000000099e-03  2.00000000000000004e-02
0.00000000000000000e+00  5.99999999999999926e-03  2.80000000000000041e-02
0.00000000000000000e+00  6.00000000000000099e-03  3.60000000000000042e-02
0.00000000000000000e+00  6.00000000000000099e-03  4.39999999999999974e-02
0.00000000000000000e+00  6.00000000000000099e-03  5.19999999999999976e-02
0.00000000000000000e+00  5.99999999999999926e-03  5.99999999999999908e-02
0.00000000000000000e+00  5.99999999999999926e-03  6.79999999999999910e-02
0.00000000000000000e+00  6.00000000000000012e-03  7.59999999999999981e-02
6.00000000000000099e-03  6.00000000000000099e-03  8.00000000000000017e-02
1.20000000000000020e-02  6.00000000000000099e-03  4.00000000000000008e-03
1.20000000000000020e-02  6.00000000000000099e-03  1.19999999999999985e-02
1.20000000000000020e-02  6.00000000000000099e-03  2.00000000000000004e-02
1.20000000000000020e-02  6.00000000000000099e-03  2.80000000000000041e-02
1.20000000000000020e-02  6.00000000000000099e-03  3.59999999999999973e-02
1.20000000000000020e-02  6.00000000000000099e-03  4.40000000000000044e-02
1.20000000000000020e-02  6.00000000000000099e-03  5.19999999999999976e-02
1.20000000000000020e-02  6.00000000000000099e-03  5.99999999999999978e-02
1.20000000000000002e-02  5.99999999999999926e-03  6.79999999999999910e-02
1.20000000000000002e-02  6.00000000000000012e-03  7.59999999999999981e-02

CELLS 0 0


CELL_TYPES 0


POINT_DATA 21

SCALARS Rank unsigned_int
LOOKUP_TABLE default
0 0 0 0 0 0 0 0 0 0 0 0 0 0 0 0 0 0 0 0 0 

VECTORS Forces0 double
2.43636396501293429e-01 9.92482554887292407e-19 -3.23980066306849696e-02 
2.04013359899703650e-01 6.31983287281188662e-20 -6.67533012343930754e-02 
1.63593384669038500e-01 -5.07772197773381540e-24 -8.14793918263965466e-02 
1.29061840795435978e-01 -5.89381153055321787e-24 -8.28334374970358250e-02 
1.01869890583766096e-01 1.95003525264394449e-20 -7.75480287984748745e-02 
7.93850973469709814e-02 -1.74499897060762860e-18 -6.77767136075815152e-02 
6.29370588565136002e-02 -1.81138151543314499e-24 -5.76574783277194816e-02 
5.46210889704078009e-02 -1.28520438262148689e-18 -5.19976425661498806e-02 
4.97592022278975574e-02 1.23087885104679352e-18 -4.81090615665757740e-02 
4.03102738687549506e-02 1.20102474933843732e-20 -3.90340833463020745e-02 
-3.02794875510462578e-04 1.06869558815332916e-20 -2.83613940119495595e-04 
3.18100751259839691e-04 -8.65001943460206949e-22 -4.08436887941674226e-05 
3.27389047793489143e-04 1.86592896532080694e-21 -1.10346355034310792e-04 
3.22242110953287176e-04 2.23650735436140030e-22 -1.62830454134274116e-04 
3.12066917918502279e-04 2.45327946825797331e-22 -2.02044664465643849e-04 
3.04257907100483700e-04 -4.37905770101505335e-47 -2.32931995182845606e-04 
2.99134450590603565e-04 1.39175511940251397e-25 -2.56190407131403784e-04 
2.94258805947727434e-04 -7.20153202211725100e-21 -2.70236529538503628e-04 
2.89295867664542442e-04 3.26673424245887037e-25 -2.75880790476896553e-04 
2.93236038665989135e-04 -1.45366852734460374e-25 -2.83897129799486015e-04 
3.31412680525299420e-04 -3.10192626295471706e-22 -3.21284825771355614e-04 

