# vtk DataFile Version 2.0

ASCII

DATASET UNSTRUCTURED_GRID

POINTS 44 double 

0.00000000000000000e+00  1.20000000000000002e-02  0.00000000000000000e+00
0.00000000000000000e+00  1.20000000000000002e-02  8.00000000000000017e-03
0.00000000000000000e+00  0.00000000000000000e+00  8.00000000000000017e-03
0.00000000000000000e+00  0.00000000000000000e+00  0.00000000000000000e+00
0.00000000000000000e+00  1.20000000000000002e-02  1.60000000000000003e-02
0.00000000000000000e+00  0.00000000000000000e+00  1.60000000000000003e-02
0.00000000000000000e+00  1.20000000000000002e-02  2.40000000000000005e-02
0.00000000000000000e+00  0.00000000000000000e+00  2.40000000000000005e-02
0.00000000000000000e+00  1.20000000000000002e-02  3.20000000000000007e-02
0.00000000000000000e+00  0.00000000000000000e+00  3.20000000000000007e-02
0.00000000000000000e+00  1.20000000000000002e-02  4.00000000000000008e-02
0.00000000000000000e+00  0.00000000000000000e+00  4.00000000000000008e-02
0.00000000000000000e+00  1.20000000000000002e-02  4.80000000000000010e-02
0.00000000000000000e+00  0.00000000000000000e+00  4.80000000000000010e-02
0.00000000000000000e+00  1.20000000000000002e-02  5.60000000000000012e-02
0.00000000000000000e+00  0.00000000000000000e+00  5.60000000000000012e-02
0.00000000000000000e+00  1.20000000000000002e-02  6.40000000000000013e-02
0.00000000000000000e+00  0.00000000000000000e+00  6.40000000000000013e-02
0.00000000000000000e+00  1.20000000000000002e-02  7.19999999999999946e-02
0.00000000000000000e+00  0.00000000000000000e+00  7.19999999999999946e-02
0.00000000000000000e+00  1.20000000000000002e-02  8.00000000000000017e-02
0.00000000000000000e+00  0.00000000000000000e+00  8.00000000000000017e-02
1.20000000000000002e-02  1.20000000000000002e-02  8.00000000000000017e-02
1.20000000000000002e-02  0.00000000000000000e+00  8.00000000000000017e-02
1.20000000000000002e-02  1.20000000000000002e-02  0.00000000000000000e+00
1.20000000000000002e-02  0.00000000000000000e+00  0.00000000000000000e+00
1.20000000000000002e-02  0.00000000000000000e+00  8.00000000000000017e-03
1.20000000000000002e-02  1.20000000000000002e-02  8.00000000000000017e-03
1.20000000000000002e-02  0.00000000000000000e+00  1.60000000000000003e-02
1.20000000000000002e-02  1.20000000000000002e-02  1.60000000000000003e-02
1.20000000000000002e-02  0.00000000000000000e+00  2.40000000000000005e-02
1.20000000000000002e-02  1.20000000000000002e-02  2.40000000000000005e-02
1.20000000000000002e-02  0.00000000000000000e+00  3.20000000000000007e-02
1.20000000000000002e-02  1.20000000000000002e-02  3.20000000000000007e-02
1.20000000000000002e-02  0.00000000000000000e+00  4.00000000000000008e-02
1.20000000000000002e-02  1.20000000000000002e-02  4.00000000000000008e-02
1.20000000000000002e-02  0.00000000000000000e+00  4.80000000000000010e-02
1.20000000000000002e-02  1.20000000000000002e-02  4.80000000000000010e-02
1.20000000000000002e-02  0.00000000000000000e+00  5.60000000000000012e-02
1.20000000000000002e-02  1.20000000000000002e-02  5.60000000000000012e-02
1.20000000000000002e-02  0.00000000000000000e+00  6.40000000000000013e-02
1.20000000000000002e-02  1.20000000000000002e-02  6.40000000000000013e-02
1.20000000000000002e-02  0.00000000000000000e+00  7.19999999999999946e-02
1.20000000000000002e-02  1.20000000000000002e-02  7.19999999999999946e-02

CELLS 0 0


CELL_TYPES 0


POINT_DATA 44

SCALARS Rank unsigned_int
LOOKUP_TABLE default
0 0 0 0 0 0 0 0 0 0 0 0 0 0 0 0 0 0 0 0 0 0 0 0 0 0 0 0 0 0 0 0 0 0 0 0 0 0 0 0 0 0 0 0 

VECTORS Displacements0 double
-6.91599825112541972e-09 0.00000000000000000e+00 4.90294138270896933e-09 
1.81705291891441064e-06 0.00000000000000000e+00 2.09666700679532597e-06 
1.81684757115659775e-06 0.00000000000000000e+00 2.09682799368083681e-06 
-7.43790667494316255e-09 0.00000000000000000e+00 5.25313164313443456e-09 
5.87181363493135122e-06 0.00000000000000000e+00 3.54754965928917764e-06 
5.87108209588125938e-06 0.00000000000000000e+00 3.54824119005247485e-06 
1.14635165120693891e-05 0.00000000000000000e+00 4.52618004121511321e-06 
1.14626185115258517e-05 0.00000000000000000e+00 4.52661105931351271e-06 
1.80274811766077632e-05 0.00000000000000000e+00 5.15641182256576315e-06 
1.80293889638360135e-05 0.00000000000000000e+00 5.15769523884738919e-06 
2.52065753172350503e-05 0.00000000000000000e+00 5.54323771571302328e-06 
2.52066858373154425e-05 0.00000000000000000e+00 5.54258067985332131e-06 
3.27403233145426612e-05 0.00000000000000000e+00 5.75758146579350019e-06 
3.27404396715521651e-05 0.00000000000000000e+00 5.75680903545976476e-06 
4.04378538954799718e-05 0.00000000000000000e+00 5.85847432206389649e-06 
4.04377232590621440e-05 0.00000000000000000e+00 5.85814364147760979e-06 
4.81844131320011278e-05 0.00000000000000000e+00 5.89401335211337278e-06 
4.81844876590043422e-05 0.00000000000000000e+00 5.89420341220724898e-06 
5.59290200334468043e-05 0.00000000000000000e+00 5.90072913669188353e-06 
5.59289837660236372e-05 0.00000000000000000e+00 5.90069055645096473e-06 
6.36471998035847107e-05 0.00000000000000000e+00 5.90506494786881992e-06 
6.36469976778657436e-05 0.00000000000000000e+00 5.90489447480023529e-06 
6.36668985234694376e-05 0.00000000000000000e+00 -5.69414655365364435e-06 
6.36669382946555921e-05 0.00000000000000000e+00 -5.69426402230896881e-06 
-9.10661024673375072e-09 0.00000000000000000e+00 -6.40114542844705120e-09 
-9.64183901265458575e-09 0.00000000000000000e+00 -6.59936434732066065e-09 
1.77357466658265157e-06 0.00000000000000000e+00 -2.06460134911409134e-06 
1.77367251957729828e-06 0.00000000000000000e+00 -2.06449027695602002e-06 
5.82877602205584874e-06 0.00000000000000000e+00 -3.49420170841207877e-06 
5.82851421247331403e-06 0.00000000000000000e+00 -3.49588330063487093e-06 
1.14203261076209392e-05 0.00000000000000000e+00 -4.45146115059843933e-06 
1.14208502040925167e-05 0.00000000000000000e+00 -4.45059081336446115e-06 
1.79967809165509695e-05 0.00000000000000000e+00 -5.06069349795999084e-06 
1.79962529140369205e-05 0.00000000000000000e+00 -5.06077339011946990e-06 
2.51850423270220417e-05 0.00000000000000000e+00 -5.42536923758613566e-06 
2.51850462596094449e-05 0.00000000000000000e+00 -5.42585296645317350e-06 
3.27231781999276313e-05 0.00000000000000000e+00 -5.62264027400116504e-06 
3.27232287704696276e-05 0.00000000000000000e+00 -5.62343038055484798e-06 
4.04273646196643202e-05 0.00000000000000000e+00 -5.70426128235794481e-06 
4.04275033959906408e-05 0.00000000000000000e+00 -5.70462785701382710e-06 
4.81803123245581256e-05 0.00000000000000000e+00 -5.71626803490140960e-06 
4.81803074864713598e-05 0.00000000000000000e+00 -5.71666352932514968e-06 
5.59262126234579362e-05 0.00000000000000000e+00 -5.70451373246566697e-06 
5.59261951527159539e-05 0.00000000000000000e+00 -5.70445682878319193e-06 

