# vtk DataFile Version 2.0

ASCII

DATASET UNSTRUCTURED_GRID

POINTS 44 double 

0.00000000000000000e+00  1.20000000000000002e-02  0.00000000000000000e+00
0.00000000000000000e+00  1.20000000000000002e-02  8.00000000000000017e-03
0.00000000000000000e+00  0.00000000000000000e+00  8.00000000000000017e-03
0.00000000000000000e+00  0.00000000000000000e+00  0.00000000000000000e+00
0.00000000000000000e+00  1.20000000000000002e-02  1.60000000000000003e-02
0.00000000000000000e+00  0.00000000000000000e+00  1.60000000000000003e-02
0.00000000000000000e+00  1.20000000000000002e-02  2.40000000000000005e-02
0.00000000000000000e+00  0.00000000000000000e+00  2.40000000000000005e-02
0.00000000000000000e+00  1.20000000000000002e-02  3.20000000000000007e-02
0.00000000000000000e+00  0.00000000000000000e+00  3.20000000000000007e-02
0.00000000000000000e+00  1.20000000000000002e-02  4.00000000000000008e-02
0.00000000000000000e+00  0.00000000000000000e+00  4.00000000000000008e-02
0.00000000000000000e+00  1.20000000000000002e-02  4.80000000000000010e-02
0.00000000000000000e+00  0.00000000000000000e+00  4.80000000000000010e-02
0.00000000000000000e+00  1.20000000000000002e-02  5.60000000000000012e-02
0.00000000000000000e+00  0.00000000000000000e+00  5.60000000000000012e-02
0.00000000000000000e+00  1.20000000000000002e-02  6.40000000000000013e-02
0.00000000000000000e+00  0.00000000000000000e+00  6.40000000000000013e-02
0.00000000000000000e+00  1.20000000000000002e-02  7.19999999999999946e-02
0.00000000000000000e+00  0.00000000000000000e+00  7.19999999999999946e-02
0.00000000000000000e+00  1.20000000000000002e-02  8.00000000000000017e-02
0.00000000000000000e+00  0.00000000000000000e+00  8.00000000000000017e-02
1.20000000000000002e-02  1.20000000000000002e-02  8.00000000000000017e-02
1.20000000000000002e-02  0.00000000000000000e+00  8.00000000000000017e-02
1.20000000000000002e-02  1.20000000000000002e-02  0.00000000000000000e+00
1.20000000000000002e-02  0.00000000000000000e+00  0.00000000000000000e+00
1.20000000000000002e-02  0.00000000000000000e+00  8.00000000000000017e-03
1.20000000000000002e-02  1.20000000000000002e-02  8.00000000000000017e-03
1.20000000000000002e-02  0.00000000000000000e+00  1.60000000000000003e-02
1.20000000000000002e-02  1.20000000000000002e-02  1.60000000000000003e-02
1.20000000000000002e-02  0.00000000000000000e+00  2.40000000000000005e-02
1.20000000000000002e-02  1.20000000000000002e-02  2.40000000000000005e-02
1.20000000000000002e-02  0.00000000000000000e+00  3.20000000000000007e-02
1.20000000000000002e-02  1.20000000000000002e-02  3.20000000000000007e-02
1.20000000000000002e-02  0.00000000000000000e+00  4.00000000000000008e-02
1.20000000000000002e-02  1.20000000000000002e-02  4.00000000000000008e-02
1.20000000000000002e-02  0.00000000000000000e+00  4.80000000000000010e-02
1.20000000000000002e-02  1.20000000000000002e-02  4.80000000000000010e-02
1.20000000000000002e-02  0.00000000000000000e+00  5.60000000000000012e-02
1.20000000000000002e-02  1.20000000000000002e-02  5.60000000000000012e-02
1.20000000000000002e-02  0.00000000000000000e+00  6.40000000000000013e-02
1.20000000000000002e-02  1.20000000000000002e-02  6.40000000000000013e-02
1.20000000000000002e-02  0.00000000000000000e+00  7.19999999999999946e-02
1.20000000000000002e-02  1.20000000000000002e-02  7.19999999999999946e-02

CELLS 0 0


CELL_TYPES 0


POINT_DATA 44

SCALARS Rank unsigned_int
LOOKUP_TABLE default
0 0 0 0 0 0 0 0 0 0 0 0 0 0 0 0 0 0 0 0 0 0 0 0 0 0 0 0 0 0 0 0 0 0 0 0 0 0 0 0 0 0 0 0 

VECTORS Displacements0 double
-1.03370233455476447e-09 0.00000000000000000e+00 0.00000000000000000e+00 
2.08954652514836646e-07 0.00000000000000000e+00 2.54899269554311948e-07 
2.08878431489591847e-07 0.00000000000000000e+00 2.54955438419208857e-07 
-1.18102710824761555e-09 0.00000000000000000e+00 0.00000000000000000e+00 
6.95588386323700171e-07 0.00000000000000000e+00 4.48432553829375588e-07 
6.95514570482032335e-07 0.00000000000000000e+00 4.48515890247933653e-07 
1.39556888707032103e-06 0.00000000000000000e+00 5.96175621802625424e-07 
1.39552779805176500e-06 0.00000000000000000e+00 5.96257855950018199e-07 
2.25041789863613191e-06 0.00000000000000000e+00 7.10110583294118474e-07 
2.25072989333845681e-06 0.00000000000000000e+00 7.10340109687959649e-07 
3.22905542582227599e-06 0.00000000000000000e+00 7.99445424700149439e-07 
3.22908786964805905e-06 0.00000000000000000e+00 7.99462279591462879e-07 
4.30335534804341338e-06 0.00000000000000000e+00 8.62906619888179909e-07 
4.30336281217901401e-06 0.00000000000000000e+00 8.62821930298224478e-07 
5.43538823395642605e-06 0.00000000000000000e+00 8.99798216162846145e-07 
5.43528943337289479e-06 0.00000000000000000e+00 8.99686207690029233e-07 
6.59133978118965162e-06 0.00000000000000000e+00 9.14730740234650067e-07 
6.59130642463994304e-06 0.00000000000000000e+00 9.14749960527865079e-07 
7.74939976384467562e-06 0.00000000000000000e+00 9.17934774273375511e-07 
7.74944825430671804e-06 0.00000000000000000e+00 9.17941258618175958e-07 
8.90070342725370417e-06 0.00000000000000000e+00 9.19363245612109432e-07 
8.90072460197648325e-06 0.00000000000000000e+00 9.19329562250869361e-07 
8.91019128066545997e-06 0.00000000000000000e+00 -8.12129750497998992e-07 
8.91028429977619808e-06 0.00000000000000000e+00 -8.12148604940899280e-07 
-1.35959232245045024e-09 0.00000000000000000e+00 0.00000000000000000e+00 
-1.50724918452307633e-09 0.00000000000000000e+00 0.00000000000000000e+00 
1.99992011460206998e-07 0.00000000000000000e+00 -2.41174918719374952e-07 
2.00050069373578409e-07 0.00000000000000000e+00 -2.41109643110757706e-07 
6.87061354132472089e-07 0.00000000000000000e+00 -4.22672082131998009e-07 
6.87029737050254178e-07 0.00000000000000000e+00 -4.22810869534552211e-07 
1.38741281691825588e-06 0.00000000000000000e+00 -5.56231517182948577e-07 
1.38739579320331346e-06 0.00000000000000000e+00 -5.56157670102471019e-07 
2.24469351977891178e-06 0.00000000000000000e+00 -6.55788424260560118e-07 
2.24462441044723075e-06 0.00000000000000000e+00 -6.55746647622659576e-07 
3.22582624859426733e-06 0.00000000000000000e+00 -7.31639446149931351e-07 
3.22581230927606769e-06 0.00000000000000000e+00 -7.31586388869869778e-07 
4.30197972764158119e-06 0.00000000000000000e+00 -7.84074377639238456e-07 
4.30200706790537485e-06 0.00000000000000000e+00 -7.84149089639289244e-07 
5.43621759253733061e-06 0.00000000000000000e+00 -8.11242542894030901e-07 
5.43630626857095041e-06 0.00000000000000000e+00 -8.11344316859117458e-07 
6.59393041583864858e-06 0.00000000000000000e+00 -8.17936974852469323e-07 
6.59401641062317137e-06 0.00000000000000000e+00 -8.18112005500948605e-07 
7.75300960374223499e-06 0.00000000000000000e+00 -8.14869373790058751e-07 
7.75296988877301854e-06 0.00000000000000000e+00 -8.14876170313381629e-07 

