# vtk DataFile Version 2.0

ASCII

DATASET UNSTRUCTURED_GRID

POINTS 44 double 

0.00000000000000000e+00  1.20000000000000002e-02  0.00000000000000000e+00
0.00000000000000000e+00  1.20000000000000002e-02  8.00000000000000017e-03
0.00000000000000000e+00  0.00000000000000000e+00  8.00000000000000017e-03
0.00000000000000000e+00  0.00000000000000000e+00  0.00000000000000000e+00
0.00000000000000000e+00  1.20000000000000002e-02  1.60000000000000003e-02
0.00000000000000000e+00  0.00000000000000000e+00  1.60000000000000003e-02
0.00000000000000000e+00  1.20000000000000002e-02  2.40000000000000005e-02
0.00000000000000000e+00  0.00000000000000000e+00  2.40000000000000005e-02
0.00000000000000000e+00  1.20000000000000002e-02  3.20000000000000007e-02
0.00000000000000000e+00  0.00000000000000000e+00  3.20000000000000007e-02
0.00000000000000000e+00  1.20000000000000002e-02  4.00000000000000008e-02
0.00000000000000000e+00  0.00000000000000000e+00  4.00000000000000008e-02
0.00000000000000000e+00  1.20000000000000002e-02  4.80000000000000010e-02
0.00000000000000000e+00  0.00000000000000000e+00  4.80000000000000010e-02
0.00000000000000000e+00  1.20000000000000002e-02  5.60000000000000012e-02
0.00000000000000000e+00  0.00000000000000000e+00  5.60000000000000012e-02
0.00000000000000000e+00  1.20000000000000002e-02  6.40000000000000013e-02
0.00000000000000000e+00  0.00000000000000000e+00  6.40000000000000013e-02
0.00000000000000000e+00  1.20000000000000002e-02  7.19999999999999946e-02
0.00000000000000000e+00  0.00000000000000000e+00  7.19999999999999946e-02
0.00000000000000000e+00  1.20000000000000002e-02  8.00000000000000017e-02
0.00000000000000000e+00  0.00000000000000000e+00  8.00000000000000017e-02
1.20000000000000002e-02  1.20000000000000002e-02  8.00000000000000017e-02
1.20000000000000002e-02  0.00000000000000000e+00  8.00000000000000017e-02
1.20000000000000002e-02  1.20000000000000002e-02  0.00000000000000000e+00
1.20000000000000002e-02  0.00000000000000000e+00  0.00000000000000000e+00
1.20000000000000002e-02  0.00000000000000000e+00  8.00000000000000017e-03
1.20000000000000002e-02  1.20000000000000002e-02  8.00000000000000017e-03
1.20000000000000002e-02  0.00000000000000000e+00  1.60000000000000003e-02
1.20000000000000002e-02  1.20000000000000002e-02  1.60000000000000003e-02
1.20000000000000002e-02  0.00000000000000000e+00  2.40000000000000005e-02
1.20000000000000002e-02  1.20000000000000002e-02  2.40000000000000005e-02
1.20000000000000002e-02  0.00000000000000000e+00  3.20000000000000007e-02
1.20000000000000002e-02  1.20000000000000002e-02  3.20000000000000007e-02
1.20000000000000002e-02  0.00000000000000000e+00  4.00000000000000008e-02
1.20000000000000002e-02  1.20000000000000002e-02  4.00000000000000008e-02
1.20000000000000002e-02  0.00000000000000000e+00  4.80000000000000010e-02
1.20000000000000002e-02  1.20000000000000002e-02  4.80000000000000010e-02
1.20000000000000002e-02  0.00000000000000000e+00  5.60000000000000012e-02
1.20000000000000002e-02  1.20000000000000002e-02  5.60000000000000012e-02
1.20000000000000002e-02  0.00000000000000000e+00  6.40000000000000013e-02
1.20000000000000002e-02  1.20000000000000002e-02  6.40000000000000013e-02
1.20000000000000002e-02  0.00000000000000000e+00  7.19999999999999946e-02
1.20000000000000002e-02  1.20000000000000002e-02  7.19999999999999946e-02

CELLS 0 0


CELL_TYPES 0


POINT_DATA 44

SCALARS Rank unsigned_int
LOOKUP_TABLE default
0 0 0 0 0 0 0 0 0 0 0 0 0 0 0 0 0 0 0 0 0 0 0 0 0 0 0 0 0 0 0 0 0 0 0 0 0 0 0 0 0 0 0 0 

VECTORS Displacements0 double
-2.90585908666364949e-06 0.00000000000000000e+00 3.51131652085203971e-06 
1.06608573554347339e-03 0.00000000000000000e+00 9.25937217171183429e-04 
1.06618645603305572e-03 0.00000000000000000e+00 9.26043100982392787e-04 
-2.93606704718230027e-06 0.00000000000000000e+00 3.72992375065935716e-06 
3.34625750829917624e-03 0.00000000000000000e+00 1.31989243407799645e-03 
3.34599903723012057e-03 0.00000000000000000e+00 1.32034023497894855e-03 
6.37984216934601653e-03 0.00000000000000000e+00 1.23294660827993462e-03 
6.37971526584084868e-03 0.00000000000000000e+00 1.23336796835028968e-03 
9.82298590788406069e-03 0.00000000000000000e+00 7.84083336738503490e-04 
9.82416523501546818e-03 0.00000000000000000e+00 7.84296107652324419e-04 
1.34879658480807890e-02 0.00000000000000000e+00 9.45034346453979199e-05 
1.34876509851248137e-02 0.00000000000000000e+00 9.41608559292747560e-05 
1.72601787322058525e-02 0.00000000000000000e+00 -7.43909747695338866e-04 
1.72597920942616639e-02 0.00000000000000000e+00 -7.44246367868971019e-04 
2.10700492728145734e-02 0.00000000000000000e+00 -1.65989120215461090e-03 
2.10698265889237325e-02 0.00000000000000000e+00 -1.65997359584840569e-03 
2.48888183858647812e-02 0.00000000000000000e+00 -2.61072894977405550e-03 
2.48888683995300529e-02 0.00000000000000000e+00 -2.61065846380505564e-03 
2.87079279501550808e-02 0.00000000000000000e+00 -3.57477380926869747e-03 
2.87080312608903945e-02 0.00000000000000000e+00 -3.57472130322576817e-03 
3.25233104701210390e-02 0.00000000000000000e+00 -4.54207971954942967e-03 
3.25235847491471136e-02 0.00000000000000000e+00 -4.54208594705446823e-03 
3.10705170533836263e-02 0.00000000000000000e+00 -1.02634759852293367e-02 
3.10707000851201988e-02 0.00000000000000000e+00 -1.02635450438938250e-02 
-5.39710607711829523e-06 0.00000000000000000e+00 -1.93457876274107030e-06 
-5.49415734991801942e-06 0.00000000000000000e+00 -2.01618276722721756e-06 
7.93706979064607524e-04 0.00000000000000000e+00 -1.26164387451036669e-03 
7.93600603861415073e-04 0.00000000000000000e+00 -1.26156541192519109e-03 
2.73323954288736022e-03 0.00000000000000000e+00 -2.32553178320744295e-03 
2.73291693883492403e-03 0.00000000000000000e+00 -2.32635054970417934e-03 
5.44086463806495169e-03 0.00000000000000000e+00 -3.34116579229038315e-03 
5.44124043784114612e-03 0.00000000000000000e+00 -3.34088255681585546e-03 
8.64781059260345472e-03 0.00000000000000000e+00 -4.35021107171457144e-03 
8.64770525595660346e-03 0.00000000000000000e+00 -4.35027386769562454e-03 
1.21638085286981338e-02 0.00000000000000000e+00 -5.35918860733615443e-03 
1.21638642718989928e-02 0.00000000000000000e+00 -5.35945146776848139e-03 
1.58541830065795329e-02 0.00000000000000000e+00 -6.36104449163228235e-03 
1.58542210594856507e-02 0.00000000000000000e+00 -6.36141677180499833e-03 
1.96290303327209259e-02 0.00000000000000000e+00 -7.34985453924969293e-03 
1.96291646840482739e-02 0.00000000000000000e+00 -7.34999331760750885e-03 
2.34377374675660693e-02 0.00000000000000000e+00 -8.32707173549984171e-03 
2.34376865632722371e-02 0.00000000000000000e+00 -8.32719358316395125e-03 
2.72553491430459760e-02 0.00000000000000000e+00 -9.29745689008588255e-03 
2.72552413911570368e-02 0.00000000000000000e+00 -9.29741300225247515e-03 

