# vtk DataFile Version 2.0

ASCII

DATASET UNSTRUCTURED_GRID

POINTS 44 double 

0.00000000000000000e+00  1.20000000000000002e-02  0.00000000000000000e+00
0.00000000000000000e+00  1.20000000000000002e-02  8.00000000000000017e-03
0.00000000000000000e+00  0.00000000000000000e+00  8.00000000000000017e-03
0.00000000000000000e+00  0.00000000000000000e+00  0.00000000000000000e+00
0.00000000000000000e+00  1.20000000000000002e-02  1.60000000000000003e-02
0.00000000000000000e+00  0.00000000000000000e+00  1.60000000000000003e-02
0.00000000000000000e+00  1.20000000000000002e-02  2.40000000000000005e-02
0.00000000000000000e+00  0.00000000000000000e+00  2.40000000000000005e-02
0.00000000000000000e+00  1.20000000000000002e-02  3.20000000000000007e-02
0.00000000000000000e+00  0.00000000000000000e+00  3.20000000000000007e-02
0.00000000000000000e+00  1.20000000000000002e-02  4.00000000000000008e-02
0.00000000000000000e+00  0.00000000000000000e+00  4.00000000000000008e-02
0.00000000000000000e+00  1.20000000000000002e-02  4.80000000000000010e-02
0.00000000000000000e+00  0.00000000000000000e+00  4.80000000000000010e-02
0.00000000000000000e+00  1.20000000000000002e-02  5.60000000000000012e-02
0.00000000000000000e+00  0.00000000000000000e+00  5.60000000000000012e-02
0.00000000000000000e+00  1.20000000000000002e-02  6.40000000000000013e-02
0.00000000000000000e+00  0.00000000000000000e+00  6.40000000000000013e-02
0.00000000000000000e+00  1.20000000000000002e-02  7.19999999999999946e-02
0.00000000000000000e+00  0.00000000000000000e+00  7.19999999999999946e-02
0.00000000000000000e+00  1.20000000000000002e-02  8.00000000000000017e-02
0.00000000000000000e+00  0.00000000000000000e+00  8.00000000000000017e-02
1.20000000000000002e-02  1.20000000000000002e-02  8.00000000000000017e-02
1.20000000000000002e-02  0.00000000000000000e+00  8.00000000000000017e-02
1.20000000000000002e-02  1.20000000000000002e-02  0.00000000000000000e+00
1.20000000000000002e-02  0.00000000000000000e+00  0.00000000000000000e+00
1.20000000000000002e-02  0.00000000000000000e+00  8.00000000000000017e-03
1.20000000000000002e-02  1.20000000000000002e-02  8.00000000000000017e-03
1.20000000000000002e-02  0.00000000000000000e+00  1.60000000000000003e-02
1.20000000000000002e-02  1.20000000000000002e-02  1.60000000000000003e-02
1.20000000000000002e-02  0.00000000000000000e+00  2.40000000000000005e-02
1.20000000000000002e-02  1.20000000000000002e-02  2.40000000000000005e-02
1.20000000000000002e-02  0.00000000000000000e+00  3.20000000000000007e-02
1.20000000000000002e-02  1.20000000000000002e-02  3.20000000000000007e-02
1.20000000000000002e-02  0.00000000000000000e+00  4.00000000000000008e-02
1.20000000000000002e-02  1.20000000000000002e-02  4.00000000000000008e-02
1.20000000000000002e-02  0.00000000000000000e+00  4.80000000000000010e-02
1.20000000000000002e-02  1.20000000000000002e-02  4.80000000000000010e-02
1.20000000000000002e-02  0.00000000000000000e+00  5.60000000000000012e-02
1.20000000000000002e-02  1.20000000000000002e-02  5.60000000000000012e-02
1.20000000000000002e-02  0.00000000000000000e+00  6.40000000000000013e-02
1.20000000000000002e-02  1.20000000000000002e-02  6.40000000000000013e-02
1.20000000000000002e-02  0.00000000000000000e+00  7.19999999999999946e-02
1.20000000000000002e-02  1.20000000000000002e-02  7.19999999999999946e-02

CELLS 0 0


CELL_TYPES 0


POINT_DATA 44

SCALARS Rank unsigned_int
LOOKUP_TABLE default
0 0 0 0 0 0 0 0 0 0 0 0 0 0 0 0 0 0 0 0 0 0 0 0 0 0 0 0 0 0 0 0 0 0 0 0 0 0 0 0 0 0 0 0 

VECTORS Displacements0 double
1.61045924812814153e-06 0.00000000000000000e+00 6.32091897471122998e-08 
6.00205829520078743e-04 0.00000000000000000e+00 4.68285948515058251e-04 
6.00308119159485474e-04 0.00000000000000000e+00 4.68278947869467139e-04 
1.78663676257315683e-06 0.00000000000000000e+00 9.13304543080379477e-08 
1.58460665469166472e-03 0.00000000000000000e+00 5.81979065542428953e-04 
1.58430064213461292e-03 0.00000000000000000e+00 5.82340582889825367e-04 
2.58868817058961059e-03 0.00000000000000000e+00 4.66887375478315300e-04 
2.58854841284481517e-03 0.00000000000000000e+00 4.67032747241234150e-04 
3.35318500914225451e-03 0.00000000000000000e+00 2.29985753490969367e-04 
3.35466806524964802e-03 0.00000000000000000e+00 2.29871838453071602e-04 
3.77268872604746277e-03 0.00000000000000000e+00 -3.93261665729050826e-05 
3.77254004033452783e-03 0.00000000000000000e+00 -4.01394199648628155e-05 
3.84197793763313552e-03 0.00000000000000000e+00 -2.85157400248510300e-04 
3.84155319495354088e-03 0.00000000000000000e+00 -2.85364518145865055e-04 
3.61678307896135670e-03 0.00000000000000000e+00 -4.69046822920010545e-04 
3.61709925052212250e-03 0.00000000000000000e+00 -4.68789182166927864e-04 
3.20344455531499598e-03 0.00000000000000000e+00 -5.81238946110190281e-04 
3.20363010953144236e-03 0.00000000000000000e+00 -5.81384781073615619e-04 
2.70740708918946766e-03 0.00000000000000000e+00 -6.35849675613362310e-04 
2.70731216611241497e-03 0.00000000000000000e+00 -6.35788454174709538e-04 
2.20156054316098969e-03 0.00000000000000000e+00 -6.56265309751212153e-04 
2.20137807955169719e-03 0.00000000000000000e+00 -6.56353176728499818e-04 
2.17908074648789831e-03 0.00000000000000000e+00 8.96425724253003230e-05 
2.17894111221458332e-03 0.00000000000000000e+00 8.96914785000743403e-05 
1.82810190723161433e-06 0.00000000000000000e+00 -2.59144978682661474e-07 
1.98061378133209965e-06 0.00000000000000000e+00 -2.77804999217104009e-07 
5.21908905038067782e-04 0.00000000000000000e+00 -5.60587772473973111e-04 
5.21766106203642131e-04 0.00000000000000000e+00 -5.60563355307967109e-04 
1.47406930420714640e-03 0.00000000000000000e+00 -8.00243754463399811e-04 
1.47387633752213399e-03 0.00000000000000000e+00 -8.01037202864294260e-04 
2.48208443356082512e-03 0.00000000000000000e+00 -8.12750603197164847e-04 
2.48241210191168724e-03 0.00000000000000000e+00 -8.12489760735897785e-04 
3.28566819920018830e-03 0.00000000000000000e+00 -6.61146032039376078e-04 
3.28547948888029042e-03 0.00000000000000000e+00 -6.61662293627568801e-04 
3.73970227619054626e-03 0.00000000000000000e+00 -4.26313148701564296e-04 
3.73973568336195307e-03 0.00000000000000000e+00 -4.26865061064116993e-04 
3.82006524975766126e-03 0.00000000000000000e+00 -1.91353740434033079e-04 
3.82032797863251627e-03 0.00000000000000000e+00 -1.91594203285622259e-04 
3.59549239417870231e-03 0.00000000000000000e+00 -1.79418106613249298e-05 
3.59545012323491276e-03 0.00000000000000000e+00 -1.77390947720728806e-05 
3.18142756061743671e-03 0.00000000000000000e+00 7.35124832111995659e-05 
3.18150018803485621e-03 0.00000000000000000e+00 7.43734887073815301e-05 
2.68436751972665928e-03 0.00000000000000000e+00 1.00555767566630483e-04 
2.68439077093566040e-03 0.00000000000000000e+00 1.00590370663603554e-04 

