# vtk DataFile Version 2.0

ASCII

DATASET UNSTRUCTURED_GRID

POINTS 21 double 

0.00000000000000000e+00  6.00000000000000099e-03  4.00000000000000008e-03
0.00000000000000000e+00  6.00000000000000099e-03  1.20000000000000020e-02
0.00000000000000000e+00  6.00000000000000099e-03  2.00000000000000004e-02
0.00000000000000000e+00  5.99999999999999926e-03  2.80000000000000041e-02
0.00000000000000000e+00  6.00000000000000099e-03  3.60000000000000042e-02
0.00000000000000000e+00  6.00000000000000099e-03  4.39999999999999974e-02
0.00000000000000000e+00  6.00000000000000099e-03  5.19999999999999976e-02
0.00000000000000000e+00  5.99999999999999926e-03  5.99999999999999908e-02
0.00000000000000000e+00  5.99999999999999926e-03  6.79999999999999910e-02
0.00000000000000000e+00  6.00000000000000012e-03  7.59999999999999981e-02
6.00000000000000099e-03  6.00000000000000099e-03  8.00000000000000017e-02
1.20000000000000020e-02  6.00000000000000099e-03  4.00000000000000008e-03
1.20000000000000020e-02  6.00000000000000099e-03  1.19999999999999985e-02
1.20000000000000020e-02  6.00000000000000099e-03  2.00000000000000004e-02
1.20000000000000020e-02  6.00000000000000099e-03  2.80000000000000041e-02
1.20000000000000020e-02  6.00000000000000099e-03  3.59999999999999973e-02
1.20000000000000020e-02  6.00000000000000099e-03  4.40000000000000044e-02
1.20000000000000020e-02  6.00000000000000099e-03  5.19999999999999976e-02
1.20000000000000020e-02  6.00000000000000099e-03  5.99999999999999978e-02
1.20000000000000002e-02  5.99999999999999926e-03  6.79999999999999910e-02
1.20000000000000002e-02  6.00000000000000012e-03  7.59999999999999981e-02

CELLS 0 0


CELL_TYPES 0


POINT_DATA 21

SCALARS Rank unsigned_int
LOOKUP_TABLE default
0 0 0 0 0 0 0 0 0 0 0 0 0 0 0 0 0 0 0 0 0 

VECTORS Forces0 double
1.82367130076623203e-04 -5.45967788811530931e-30 -2.04343969800945077e-08 
1.72491717192103624e-04 1.48601671478847985e-24 -2.49851160451334878e-08 
1.59185258756072776e-04 0.00000000000000000e+00 -2.32287126498158408e-08 
1.43178673756450903e-04 3.36784799086401852e-22 -1.40446231688633038e-08 
1.25148311619331361e-04 1.66227147551780882e-22 9.43525083808003241e-10 
1.05488123407360845e-04 1.68375197841354530e-22 2.06454839592130932e-08 
8.43600565268222299e-05 1.66913238960419248e-22 4.41504449235279212e-08 
6.16346116336122875e-05 1.69417269633717899e-22 7.10933891074893363e-08 
3.64274795353867974e-05 -1.68336150011345262e-22 1.04304193801450045e-07 
7.31594858195159033e-06 1.68174827222535831e-22 1.33607026593141996e-07 
1.79582765440599271e-07 -7.57419468656430766e-22 1.25212390815571128e-04 
-1.62675101056817770e-05 1.68300367283594608e-22 1.72154556607418347e-09 
-8.65896310917788489e-06 1.68312289957961190e-22 -1.48294960890702997e-10 
-1.12922918389677137e-06 1.68323871406259120e-22 -3.96302771846234144e-09 
6.32604895396670864e-06 -7.38610609277213700e-31 -9.54438363409683069e-09 
1.37186305547832021e-05 -1.68343261103101769e-22 -1.62670929368981391e-08 
2.10750011463550012e-05 -7.95687909430987721e-31 -2.37882543279588777e-08 
2.84905998050882164e-05 3.36720048021010000e-22 -3.24766772931553765e-08 
3.59519559525672768e-05 -1.68371324357127890e-22 -3.99854488404477699e-08 
4.28114463481971865e-05 -9.90983131803445555e-30 -3.79456623216161395e-08 
5.44005946058392033e-05 -3.36853059444999736e-22 -5.33083910395241907e-08 

