# vtk DataFile Version 2.0

ASCII

DATASET UNSTRUCTURED_GRID

POINTS 44 double 

0.00000000000000000e+00  1.20000000000000002e-02  0.00000000000000000e+00
0.00000000000000000e+00  1.20000000000000002e-02  8.00000000000000017e-03
0.00000000000000000e+00  0.00000000000000000e+00  8.00000000000000017e-03
0.00000000000000000e+00  0.00000000000000000e+00  0.00000000000000000e+00
0.00000000000000000e+00  1.20000000000000002e-02  1.60000000000000003e-02
0.00000000000000000e+00  0.00000000000000000e+00  1.60000000000000003e-02
0.00000000000000000e+00  1.20000000000000002e-02  2.40000000000000005e-02
0.00000000000000000e+00  0.00000000000000000e+00  2.40000000000000005e-02
0.00000000000000000e+00  1.20000000000000002e-02  3.20000000000000007e-02
0.00000000000000000e+00  0.00000000000000000e+00  3.20000000000000007e-02
0.00000000000000000e+00  1.20000000000000002e-02  4.00000000000000008e-02
0.00000000000000000e+00  0.00000000000000000e+00  4.00000000000000008e-02
0.00000000000000000e+00  1.20000000000000002e-02  4.80000000000000010e-02
0.00000000000000000e+00  0.00000000000000000e+00  4.80000000000000010e-02
0.00000000000000000e+00  1.20000000000000002e-02  5.60000000000000012e-02
0.00000000000000000e+00  0.00000000000000000e+00  5.60000000000000012e-02
0.00000000000000000e+00  1.20000000000000002e-02  6.40000000000000013e-02
0.00000000000000000e+00  0.00000000000000000e+00  6.40000000000000013e-02
0.00000000000000000e+00  1.20000000000000002e-02  7.19999999999999946e-02
0.00000000000000000e+00  0.00000000000000000e+00  7.19999999999999946e-02
0.00000000000000000e+00  1.20000000000000002e-02  8.00000000000000017e-02
0.00000000000000000e+00  0.00000000000000000e+00  8.00000000000000017e-02
1.20000000000000002e-02  1.20000000000000002e-02  8.00000000000000017e-02
1.20000000000000002e-02  0.00000000000000000e+00  8.00000000000000017e-02
1.20000000000000002e-02  1.20000000000000002e-02  0.00000000000000000e+00
1.20000000000000002e-02  0.00000000000000000e+00  0.00000000000000000e+00
1.20000000000000002e-02  0.00000000000000000e+00  8.00000000000000017e-03
1.20000000000000002e-02  1.20000000000000002e-02  8.00000000000000017e-03
1.20000000000000002e-02  0.00000000000000000e+00  1.60000000000000003e-02
1.20000000000000002e-02  1.20000000000000002e-02  1.60000000000000003e-02
1.20000000000000002e-02  0.00000000000000000e+00  2.40000000000000005e-02
1.20000000000000002e-02  1.20000000000000002e-02  2.40000000000000005e-02
1.20000000000000002e-02  0.00000000000000000e+00  3.20000000000000007e-02
1.20000000000000002e-02  1.20000000000000002e-02  3.20000000000000007e-02
1.20000000000000002e-02  0.00000000000000000e+00  4.00000000000000008e-02
1.20000000000000002e-02  1.20000000000000002e-02  4.00000000000000008e-02
1.20000000000000002e-02  0.00000000000000000e+00  4.80000000000000010e-02
1.20000000000000002e-02  1.20000000000000002e-02  4.80000000000000010e-02
1.20000000000000002e-02  0.00000000000000000e+00  5.60000000000000012e-02
1.20000000000000002e-02  1.20000000000000002e-02  5.60000000000000012e-02
1.20000000000000002e-02  0.00000000000000000e+00  6.40000000000000013e-02
1.20000000000000002e-02  1.20000000000000002e-02  6.40000000000000013e-02
1.20000000000000002e-02  0.00000000000000000e+00  7.19999999999999946e-02
1.20000000000000002e-02  1.20000000000000002e-02  7.19999999999999946e-02

CELLS 0 0


CELL_TYPES 0


POINT_DATA 44

SCALARS Rank unsigned_int
LOOKUP_TABLE default
0 0 0 0 0 0 0 0 0 0 0 0 0 0 0 0 0 0 0 0 0 0 0 0 0 0 0 0 0 0 0 0 0 0 0 0 0 0 0 0 0 0 0 0 

VECTORS Displacements0 double
-2.10746010988315062e-06 0.00000000000000000e+00 2.15414110703768871e-06 
6.62528080486768844e-04 0.00000000000000000e+00 6.23667854301405717e-04 
6.62510361963440392e-04 0.00000000000000000e+00 6.23720992800156564e-04 
-2.21982339982003396e-06 0.00000000000000000e+00 2.28237207422271257e-06 
2.06771918776212050e-03 0.00000000000000000e+00 9.53750891312083772e-04 
2.06747723694782667e-03 0.00000000000000000e+00 9.53977475093902537e-04 
3.95802482730894453e-03 0.00000000000000000e+00 1.04272947662237096e-03 
3.95775801624816993e-03 0.00000000000000000e+00 1.04299430140759961e-03 
6.14253736025504888e-03 0.00000000000000000e+00 9.51288347935627578e-04 
6.14335091775905853e-03 0.00000000000000000e+00 9.51549393828618039e-04 
8.51644089105651342e-03 0.00000000000000000e+00 7.32254033293488300e-04 
8.51630277636259737e-03 0.00000000000000000e+00 7.32060455843506911e-04 
1.10097236995200572e-02 0.00000000000000000e+00 4.24871051697553199e-04 
1.10095824176443778e-02 0.00000000000000000e+00 4.24653901735655859e-04 
1.35730402278736867e-02 0.00000000000000000e+00 6.04525339609062080e-05 
1.35728861952561369e-02 0.00000000000000000e+00 6.03782869558816201e-05 
1.61765985116922792e-02 0.00000000000000000e+00 -3.43655912443956765e-04 
1.61765493364172674e-02 0.00000000000000000e+00 -3.43587511965925182e-04 
1.87952912681931643e-02 0.00000000000000000e+00 -7.71274736495703578e-04 
1.87953016591249633e-02 0.00000000000000000e+00 -7.71259833022679316e-04 
2.14141503223851844e-02 0.00000000000000000e+00 -1.20938365685351913e-03 
2.14141455562345366e-02 0.00000000000000000e+00 -1.20937311319709809e-03 
2.07553039902638875e-02 0.00000000000000000e+00 -5.13574683263269376e-03 
2.07554011046492994e-02 0.00000000000000000e+00 -5.13578072864666942e-03 
-3.41189203126325477e-06 0.00000000000000000e+00 -1.54680901753305514e-06 
-3.51362195035267479e-06 0.00000000000000000e+00 -1.60606220911234387e-06 
5.43715857949735298e-04 0.00000000000000000e+00 -7.58602608295432727e-04 
5.43654820566602916e-04 0.00000000000000000e+00 -7.58555495984760807e-04 
1.81473922924743365e-03 0.00000000000000000e+00 -1.35484408604808469e-03 
1.81458692578023977e-03 0.00000000000000000e+00 -1.35534747144823138e-03 
3.57267272035875511e-03 0.00000000000000000e+00 -1.87937865444427711e-03 
3.57282875959202481e-03 0.00000000000000000e+00 -1.87915302761741329e-03 
5.65683161731173577e-03 0.00000000000000000e+00 -2.37219976453478245e-03 
5.65665813712394605e-03 0.00000000000000000e+00 -2.37225569724197356e-03 
7.95917980249054302e-03 0.00000000000000000e+00 -2.85049303591150896e-03 
7.95918096591183462e-03 0.00000000000000000e+00 -2.85064979103429169e-03 
1.04026583103883213e-02 0.00000000000000000e+00 -3.32168863509894885e-03 
1.04026341531681076e-02 0.00000000000000000e+00 -3.32187465302646910e-03 
1.29357552512573935e-02 0.00000000000000000e+00 -3.78772495469740459e-03 
1.29357580615446239e-02 0.00000000000000000e+00 -3.78782192565678888e-03 
1.55241450277105054e-02 0.00000000000000000e+00 -4.24627923838083107e-03 
1.55240362134469786e-02 0.00000000000000000e+00 -4.24647987292132555e-03 
1.81378182671981490e-02 0.00000000000000000e+00 -4.69535547263952649e-03 
1.81377423187137517e-02 0.00000000000000000e+00 -4.69534199572392216e-03 

