# vtk DataFile Version 2.0

ASCII

DATASET UNSTRUCTURED_GRID

POINTS 21 double 

0.00000000000000000e+00  6.00000000000000099e-03  4.00000000000000008e-03
0.00000000000000000e+00  6.00000000000000099e-03  1.20000000000000020e-02
0.00000000000000000e+00  6.00000000000000099e-03  2.00000000000000004e-02
0.00000000000000000e+00  5.99999999999999926e-03  2.80000000000000041e-02
0.00000000000000000e+00  6.00000000000000099e-03  3.60000000000000042e-02
0.00000000000000000e+00  6.00000000000000099e-03  4.39999999999999974e-02
0.00000000000000000e+00  6.00000000000000099e-03  5.19999999999999976e-02
0.00000000000000000e+00  5.99999999999999926e-03  5.99999999999999908e-02
0.00000000000000000e+00  5.99999999999999926e-03  6.79999999999999910e-02
0.00000000000000000e+00  6.00000000000000012e-03  7.59999999999999981e-02
6.00000000000000099e-03  6.00000000000000099e-03  8.00000000000000017e-02
1.20000000000000020e-02  6.00000000000000099e-03  4.00000000000000008e-03
1.20000000000000020e-02  6.00000000000000099e-03  1.19999999999999985e-02
1.20000000000000020e-02  6.00000000000000099e-03  2.00000000000000004e-02
1.20000000000000020e-02  6.00000000000000099e-03  2.80000000000000041e-02
1.20000000000000020e-02  6.00000000000000099e-03  3.59999999999999973e-02
1.20000000000000020e-02  6.00000000000000099e-03  4.40000000000000044e-02
1.20000000000000020e-02  6.00000000000000099e-03  5.19999999999999976e-02
1.20000000000000020e-02  6.00000000000000099e-03  5.99999999999999978e-02
1.20000000000000002e-02  5.99999999999999926e-03  6.79999999999999910e-02
1.20000000000000002e-02  6.00000000000000012e-03  7.59999999999999981e-02

CELLS 0 0


CELL_TYPES 0


POINT_DATA 21

SCALARS Rank unsigned_int
LOOKUP_TABLE default
0 0 0 0 0 0 0 0 0 0 0 0 0 0 0 0 0 0 0 0 0 

VECTORS Forces0 double
3.31940393265765083e-04 1.27760965272752758e-29 -5.79147174128743833e-08 
3.17273292213052715e-04 -1.68438073163646322e-22 -7.82169134204759763e-08 
2.87507918269359962e-04 1.63466643754688788e-22 -6.87062248755688902e-08 
2.48167615795726352e-04 1.68404525202017748e-22 -3.90341357689650347e-08 
2.06186250991531670e-04 1.68391674030677988e-22 -1.16584304696137096e-09 
1.65018543633373626e-04 -5.66359882058338508e-30 4.01165571642288315e-08 
1.25430356459288651e-04 5.65836850201942442e-30 8.38793335337724063e-08 
8.66320465358418236e-05 -1.60021041373599310e-29 1.30112533514287034e-07 
4.64860989256587906e-05 1.68324521699526450e-22 1.85169858623013800e-07 
1.69425094658851591e-06 3.36547447329092331e-22 2.35377021918860680e-07 
2.85486228051545157e-07 5.06863015848788641e-22 2.25408338357284513e-04 
-9.21586533609460826e-06 -1.68272525184211230e-22 1.36270480031895644e-09 
-1.51518481665016480e-06 -1.15729670107494261e-29 -2.30803585337727106e-09 
6.23766401503787934e-06 2.23761144987343661e-29 -8.60376870211535348e-09 
1.40581741721169772e-05 2.28262942461368451e-29 -1.70692280601287137e-08 
2.19664699553522345e-05 1.67956943336234516e-22 -2.68417792254629177e-08 
3.00073371917516991e-05 3.03818176030011302e-51 -3.74100382252157782e-08 
3.83481347792170019e-05 -1.67698156259217281e-22 -4.85908273643605620e-08 
4.72941007576393855e-05 -1.25571844553139705e-30 -5.74211902139744682e-08 
5.57259907596229629e-05 3.36804504295848799e-22 -5.58347365278846228e-08 
6.79411128413088394e-05 2.55924931740004205e-29 -8.32446844249141645e-08 

