# vtk DataFile Version 2.0

ASCII

DATASET UNSTRUCTURED_GRID

POINTS 44 double 

0.00000000000000000e+00  1.20000000000000002e-02  0.00000000000000000e+00
0.00000000000000000e+00  1.20000000000000002e-02  8.00000000000000017e-03
0.00000000000000000e+00  0.00000000000000000e+00  8.00000000000000017e-03
0.00000000000000000e+00  0.00000000000000000e+00  0.00000000000000000e+00
0.00000000000000000e+00  1.20000000000000002e-02  1.60000000000000003e-02
0.00000000000000000e+00  0.00000000000000000e+00  1.60000000000000003e-02
0.00000000000000000e+00  1.20000000000000002e-02  2.40000000000000005e-02
0.00000000000000000e+00  0.00000000000000000e+00  2.40000000000000005e-02
0.00000000000000000e+00  1.20000000000000002e-02  3.20000000000000007e-02
0.00000000000000000e+00  0.00000000000000000e+00  3.20000000000000007e-02
0.00000000000000000e+00  1.20000000000000002e-02  4.00000000000000008e-02
0.00000000000000000e+00  0.00000000000000000e+00  4.00000000000000008e-02
0.00000000000000000e+00  1.20000000000000002e-02  4.80000000000000010e-02
0.00000000000000000e+00  0.00000000000000000e+00  4.80000000000000010e-02
0.00000000000000000e+00  1.20000000000000002e-02  5.60000000000000012e-02
0.00000000000000000e+00  0.00000000000000000e+00  5.60000000000000012e-02
0.00000000000000000e+00  1.20000000000000002e-02  6.40000000000000013e-02
0.00000000000000000e+00  0.00000000000000000e+00  6.40000000000000013e-02
0.00000000000000000e+00  1.20000000000000002e-02  7.19999999999999946e-02
0.00000000000000000e+00  0.00000000000000000e+00  7.19999999999999946e-02
0.00000000000000000e+00  1.20000000000000002e-02  8.00000000000000017e-02
0.00000000000000000e+00  0.00000000000000000e+00  8.00000000000000017e-02
1.20000000000000002e-02  1.20000000000000002e-02  8.00000000000000017e-02
1.20000000000000002e-02  0.00000000000000000e+00  8.00000000000000017e-02
1.20000000000000002e-02  1.20000000000000002e-02  0.00000000000000000e+00
1.20000000000000002e-02  0.00000000000000000e+00  0.00000000000000000e+00
1.20000000000000002e-02  0.00000000000000000e+00  8.00000000000000017e-03
1.20000000000000002e-02  1.20000000000000002e-02  8.00000000000000017e-03
1.20000000000000002e-02  0.00000000000000000e+00  1.60000000000000003e-02
1.20000000000000002e-02  1.20000000000000002e-02  1.60000000000000003e-02
1.20000000000000002e-02  0.00000000000000000e+00  2.40000000000000005e-02
1.20000000000000002e-02  1.20000000000000002e-02  2.40000000000000005e-02
1.20000000000000002e-02  0.00000000000000000e+00  3.20000000000000007e-02
1.20000000000000002e-02  1.20000000000000002e-02  3.20000000000000007e-02
1.20000000000000002e-02  0.00000000000000000e+00  4.00000000000000008e-02
1.20000000000000002e-02  1.20000000000000002e-02  4.00000000000000008e-02
1.20000000000000002e-02  0.00000000000000000e+00  4.80000000000000010e-02
1.20000000000000002e-02  1.20000000000000002e-02  4.80000000000000010e-02
1.20000000000000002e-02  0.00000000000000000e+00  5.60000000000000012e-02
1.20000000000000002e-02  1.20000000000000002e-02  5.60000000000000012e-02
1.20000000000000002e-02  0.00000000000000000e+00  6.40000000000000013e-02
1.20000000000000002e-02  1.20000000000000002e-02  6.40000000000000013e-02
1.20000000000000002e-02  0.00000000000000000e+00  7.19999999999999946e-02
1.20000000000000002e-02  1.20000000000000002e-02  7.19999999999999946e-02

CELLS 0 0


CELL_TYPES 0


POINT_DATA 44

SCALARS Rank unsigned_int
LOOKUP_TABLE default
0 0 0 0 0 0 0 0 0 0 0 0 0 0 0 0 0 0 0 0 0 0 0 0 0 0 0 0 0 0 0 0 0 0 0 0 0 0 0 0 0 0 0 0 

VECTORS Displacements0 double
-2.67156597025922382e-06 0.00000000000000000e+00 3.29968321035338195e-06 
1.01991321781101088e-03 0.00000000000000000e+00 8.94438516772912660e-04 
1.01987181794557314e-03 0.00000000000000000e+00 8.94529868904031652e-04 
-2.83814465948904748e-06 0.00000000000000000e+00 3.49375362493700714e-06 
3.19438741473679171e-03 0.00000000000000000e+00 1.28680926055836078e-03 
3.19403614745836228e-03 0.00000000000000000e+00 1.28723741302142359e-03 
6.08731653811254818e-03 0.00000000000000000e+00 1.23214579373750197e-03 
6.08710047993548092e-03 0.00000000000000000e+00 1.23256628074632987e-03 
9.37787710359045540e-03 0.00000000000000000e+00 8.41009151415904321e-04 
9.37912516145113923e-03 0.00000000000000000e+00 8.41234598406620862e-04 
1.28870803387392471e-02 0.00000000000000000e+00 2.22131087971390567e-04 
1.28868947421337914e-02 0.00000000000000000e+00 2.21776630093287793e-04 
1.65013815437487880e-02 0.00000000000000000e+00 -5.39226891851763736e-04 
1.65011572895905137e-02 0.00000000000000000e+00 -5.39551927933481015e-04 
2.01495132718945286e-02 0.00000000000000000e+00 -1.37696053180680475e-03 
2.01493430989268980e-02 0.00000000000000000e+00 -1.37704831557126147e-03 
2.37943856145563723e-02 0.00000000000000000e+00 -2.24749374568748500e-03 
2.37944200352387739e-02 0.00000000000000000e+00 -2.24742535151120507e-03 
2.74276737067097390e-02 0.00000000000000000e+00 -3.12253871937956048e-03 
2.74276626973438374e-02 0.00000000000000000e+00 -3.12248121674602854e-03 
3.10551594016024099e-02 0.00000000000000000e+00 -3.99356270889532090e-03 
3.10552755336709618e-02 0.00000000000000000e+00 -3.99359067970631552e-03 
2.97484421456810158e-02 0.00000000000000000e+00 -9.43540606534181391e-03 
2.97485016382914996e-02 0.00000000000000000e+00 -9.43548222644232173e-03 
-4.94134859722967089e-06 0.00000000000000000e+00 -1.81687005098559241e-06 
-5.15270015152597023e-06 0.00000000000000000e+00 -1.90241471103788640e-06 
7.68039168859688693e-04 0.00000000000000000e+00 -1.19733482168957661e-03 
7.68038617091246559e-04 0.00000000000000000e+00 -1.19726910440056799e-03 
2.63260238389727633e-03 0.00000000000000000e+00 -2.19695919186135326e-03 
2.63235507322814822e-03 0.00000000000000000e+00 -2.19775544075052724e-03 
5.22876289191990910e-03 0.00000000000000000e+00 -3.14169717193480899e-03 
5.22912234757202943e-03 0.00000000000000000e+00 -3.14142903424056204e-03 
8.30322776954799460e-03 0.00000000000000000e+00 -4.07567617829329362e-03 
8.30302113902637445e-03 0.00000000000000000e+00 -4.07569782546668424e-03 
1.16762863732416296e-02 0.00000000000000000e+00 -5.00454200772127919e-03 
1.16761919218818788e-02 0.00000000000000000e+00 -5.00478429568077237e-03 
1.52166607885960078e-02 0.00000000000000000e+00 -5.92232350975900775e-03 
1.52165381323908777e-02 0.00000000000000000e+00 -5.92266259278603508e-03 
1.88372291478481613e-02 0.00000000000000000e+00 -6.82206675098173589e-03 
1.88372427822505219e-02 0.00000000000000000e+00 -6.82224970216760603e-03 
2.24814254909419080e-02 0.00000000000000000e+00 -7.70102676761947550e-03 
2.24813827834273658e-02 0.00000000000000000e+00 -7.70116636850096820e-03 
2.61200644745628596e-02 0.00000000000000000e+00 -8.56931626878046013e-03 
2.61200284558087970e-02 0.00000000000000000e+00 -8.56927624252813713e-03 

