# vtk DataFile Version 2.0

ASCII

DATASET UNSTRUCTURED_GRID

POINTS 44 double 

0.00000000000000000e+00  1.20000000000000002e-02  0.00000000000000000e+00
0.00000000000000000e+00  1.20000000000000002e-02  8.00000000000000017e-03
0.00000000000000000e+00  0.00000000000000000e+00  8.00000000000000017e-03
0.00000000000000000e+00  0.00000000000000000e+00  0.00000000000000000e+00
0.00000000000000000e+00  1.20000000000000002e-02  1.60000000000000003e-02
0.00000000000000000e+00  0.00000000000000000e+00  1.60000000000000003e-02
0.00000000000000000e+00  1.20000000000000002e-02  2.40000000000000005e-02
0.00000000000000000e+00  0.00000000000000000e+00  2.40000000000000005e-02
0.00000000000000000e+00  1.20000000000000002e-02  3.20000000000000007e-02
0.00000000000000000e+00  0.00000000000000000e+00  3.20000000000000007e-02
0.00000000000000000e+00  1.20000000000000002e-02  4.00000000000000008e-02
0.00000000000000000e+00  0.00000000000000000e+00  4.00000000000000008e-02
0.00000000000000000e+00  1.20000000000000002e-02  4.80000000000000010e-02
0.00000000000000000e+00  0.00000000000000000e+00  4.80000000000000010e-02
0.00000000000000000e+00  1.20000000000000002e-02  5.60000000000000012e-02
0.00000000000000000e+00  0.00000000000000000e+00  5.60000000000000012e-02
0.00000000000000000e+00  1.20000000000000002e-02  6.40000000000000013e-02
0.00000000000000000e+00  0.00000000000000000e+00  6.40000000000000013e-02
0.00000000000000000e+00  1.20000000000000002e-02  7.19999999999999946e-02
0.00000000000000000e+00  0.00000000000000000e+00  7.19999999999999946e-02
0.00000000000000000e+00  1.20000000000000002e-02  8.00000000000000017e-02
0.00000000000000000e+00  0.00000000000000000e+00  8.00000000000000017e-02
1.20000000000000002e-02  1.20000000000000002e-02  8.00000000000000017e-02
1.20000000000000002e-02  0.00000000000000000e+00  8.00000000000000017e-02
1.20000000000000002e-02  1.20000000000000002e-02  0.00000000000000000e+00
1.20000000000000002e-02  0.00000000000000000e+00  0.00000000000000000e+00
1.20000000000000002e-02  0.00000000000000000e+00  8.00000000000000017e-03
1.20000000000000002e-02  1.20000000000000002e-02  8.00000000000000017e-03
1.20000000000000002e-02  0.00000000000000000e+00  1.60000000000000003e-02
1.20000000000000002e-02  1.20000000000000002e-02  1.60000000000000003e-02
1.20000000000000002e-02  0.00000000000000000e+00  2.40000000000000005e-02
1.20000000000000002e-02  1.20000000000000002e-02  2.40000000000000005e-02
1.20000000000000002e-02  0.00000000000000000e+00  3.20000000000000007e-02
1.20000000000000002e-02  1.20000000000000002e-02  3.20000000000000007e-02
1.20000000000000002e-02  0.00000000000000000e+00  4.00000000000000008e-02
1.20000000000000002e-02  1.20000000000000002e-02  4.00000000000000008e-02
1.20000000000000002e-02  0.00000000000000000e+00  4.80000000000000010e-02
1.20000000000000002e-02  1.20000000000000002e-02  4.80000000000000010e-02
1.20000000000000002e-02  0.00000000000000000e+00  5.60000000000000012e-02
1.20000000000000002e-02  1.20000000000000002e-02  5.60000000000000012e-02
1.20000000000000002e-02  0.00000000000000000e+00  6.40000000000000013e-02
1.20000000000000002e-02  1.20000000000000002e-02  6.40000000000000013e-02
1.20000000000000002e-02  0.00000000000000000e+00  7.19999999999999946e-02
1.20000000000000002e-02  1.20000000000000002e-02  7.19999999999999946e-02

CELLS 0 0


CELL_TYPES 0


POINT_DATA 44

SCALARS Rank unsigned_int
LOOKUP_TABLE default
0 0 0 0 0 0 0 0 0 0 0 0 0 0 0 0 0 0 0 0 0 0 0 0 0 0 0 0 0 0 0 0 0 0 0 0 0 0 0 0 0 0 0 0 

VECTORS Displacements0 double
-3.58458241463477443e-06 0.00000000000000000e+00 5.83380700339454799e-06 
1.17296887827073124e-03 0.00000000000000000e+00 1.03906824677621793e-03 
1.17292147291221194e-03 0.00000000000000000e+00 1.03924679847188666e-03 
-3.84203180791437005e-06 0.00000000000000000e+00 6.17171339235746824e-06 
3.87470746138568727e-03 0.00000000000000000e+00 1.50004781745778247e-03 
3.87434405979548719e-03 0.00000000000000000e+00 1.50042733460869831e-03 
7.66561307888801672e-03 0.00000000000000000e+00 1.31861860651624838e-03 
7.66552538351774389e-03 0.00000000000000000e+00 1.31917981253827036e-03 
1.21655457593740114e-02 0.00000000000000000e+00 5.51312904303715226e-04 
1.21669553808937229e-02 0.00000000000000000e+00 5.51733343401468283e-04 
1.71267781021425050e-02 0.00000000000000000e+00 -6.97362196993933300e-04 
1.71266651495082176e-02 0.00000000000000000e+00 -6.97615496044350081e-04 
2.23679328632802391e-02 0.00000000000000000e+00 -2.31471760772963397e-03 
2.23677333256837724e-02 0.00000000000000000e+00 -2.31515302315249936e-03 
2.77576501240000620e-02 0.00000000000000000e+00 -4.18782868971343761e-03 
2.77572430044983574e-02 0.00000000000000000e+00 -4.18795694975854400e-03 
3.32103010069542057e-02 0.00000000000000000e+00 -6.22133405915977714e-03 
3.32103921990737697e-02 0.00000000000000000e+00 -6.22114580918215008e-03 
3.86745095645941589e-02 0.00000000000000000e+00 -8.33664596201571899e-03 
3.86745324340918295e-02 0.00000000000000000e+00 -8.33659623299519426e-03 
4.41244061065501139e-02 0.00000000000000000e+00 -1.04772558787914055e-02 
4.41247412668046013e-02 0.00000000000000000e+00 -1.04773252235782870e-02 
4.09140766068554068e-02 0.00000000000000000e+00 -1.86371251881117597e-02 
4.09141554447354922e-02 0.00000000000000000e+00 -1.86372857467997088e-02 
-8.59148733558425383e-06 0.00000000000000000e+00 -1.03637521245980296e-06 
-8.97626942002400022e-06 0.00000000000000000e+00 -1.09575814710109048e-06 
8.10953854044026146e-04 0.00000000000000000e+00 -1.47253807541345024e-03 
8.11062710711205146e-04 0.00000000000000000e+00 -1.47245354802803580e-03 
2.97665303983832112e-03 0.00000000000000000e+00 -2.88537664892049269e-03 
2.97652418078742705e-03 0.00000000000000000e+00 -2.88611329227245108e-03 
6.15771467680150536e-03 0.00000000000000000e+00 -4.41663799767350995e-03 
6.15816692388059059e-03 0.00000000000000000e+00 -4.41641715296144533e-03 
1.01035921770433693e-02 0.00000000000000000e+00 -6.12885963882108149e-03 
1.01035681402132614e-02 0.00000000000000000e+00 -6.12880858894985624e-03 
1.46146178874493292e-02 0.00000000000000000e+00 -8.02032667817178038e-03 
1.46146060444360924e-02 0.00000000000000000e+00 -8.02041831767598586e-03 
1.95257451007484484e-02 0.00000000000000000e+00 -1.00536441998097560e-02 
1.95254522953362750e-02 0.00000000000000000e+00 -1.00539684190124202e-02 
2.47044909655414618e-02 0.00000000000000000e+00 -1.21751008242773733e-02 
2.47044776609431603e-02 0.00000000000000000e+00 -1.21753785428468479e-02 
3.00470790438606451e-02 0.00000000000000000e+00 -1.43338927849035146e-02 
3.00466163941312987e-02 0.00000000000000000e+00 -1.43343131333690029e-02 
3.54700670816549685e-02 0.00000000000000000e+00 -1.64955003408220821e-02 
3.54700515924346177e-02 0.00000000000000000e+00 -1.64954358948342511e-02 

