# vtk DataFile Version 2.0

ASCII

DATASET UNSTRUCTURED_GRID

POINTS 44 double 

0.00000000000000000e+00  1.20000000000000002e-02  0.00000000000000000e+00
0.00000000000000000e+00  1.20000000000000002e-02  8.00000000000000017e-03
0.00000000000000000e+00  0.00000000000000000e+00  8.00000000000000017e-03
0.00000000000000000e+00  0.00000000000000000e+00  0.00000000000000000e+00
0.00000000000000000e+00  1.20000000000000002e-02  1.60000000000000003e-02
0.00000000000000000e+00  0.00000000000000000e+00  1.60000000000000003e-02
0.00000000000000000e+00  1.20000000000000002e-02  2.40000000000000005e-02
0.00000000000000000e+00  0.00000000000000000e+00  2.40000000000000005e-02
0.00000000000000000e+00  1.20000000000000002e-02  3.20000000000000007e-02
0.00000000000000000e+00  0.00000000000000000e+00  3.20000000000000007e-02
0.00000000000000000e+00  1.20000000000000002e-02  4.00000000000000008e-02
0.00000000000000000e+00  0.00000000000000000e+00  4.00000000000000008e-02
0.00000000000000000e+00  1.20000000000000002e-02  4.80000000000000010e-02
0.00000000000000000e+00  0.00000000000000000e+00  4.80000000000000010e-02
0.00000000000000000e+00  1.20000000000000002e-02  5.60000000000000012e-02
0.00000000000000000e+00  0.00000000000000000e+00  5.60000000000000012e-02
0.00000000000000000e+00  1.20000000000000002e-02  6.40000000000000013e-02
0.00000000000000000e+00  0.00000000000000000e+00  6.40000000000000013e-02
0.00000000000000000e+00  1.20000000000000002e-02  7.19999999999999946e-02
0.00000000000000000e+00  0.00000000000000000e+00  7.19999999999999946e-02
0.00000000000000000e+00  1.20000000000000002e-02  8.00000000000000017e-02
0.00000000000000000e+00  0.00000000000000000e+00  8.00000000000000017e-02
1.20000000000000002e-02  1.20000000000000002e-02  8.00000000000000017e-02
1.20000000000000002e-02  0.00000000000000000e+00  8.00000000000000017e-02
1.20000000000000002e-02  1.20000000000000002e-02  0.00000000000000000e+00
1.20000000000000002e-02  0.00000000000000000e+00  0.00000000000000000e+00
1.20000000000000002e-02  0.00000000000000000e+00  8.00000000000000017e-03
1.20000000000000002e-02  1.20000000000000002e-02  8.00000000000000017e-03
1.20000000000000002e-02  0.00000000000000000e+00  1.60000000000000003e-02
1.20000000000000002e-02  1.20000000000000002e-02  1.60000000000000003e-02
1.20000000000000002e-02  0.00000000000000000e+00  2.40000000000000005e-02
1.20000000000000002e-02  1.20000000000000002e-02  2.40000000000000005e-02
1.20000000000000002e-02  0.00000000000000000e+00  3.20000000000000007e-02
1.20000000000000002e-02  1.20000000000000002e-02  3.20000000000000007e-02
1.20000000000000002e-02  0.00000000000000000e+00  4.00000000000000008e-02
1.20000000000000002e-02  1.20000000000000002e-02  4.00000000000000008e-02
1.20000000000000002e-02  0.00000000000000000e+00  4.80000000000000010e-02
1.20000000000000002e-02  1.20000000000000002e-02  4.80000000000000010e-02
1.20000000000000002e-02  0.00000000000000000e+00  5.60000000000000012e-02
1.20000000000000002e-02  1.20000000000000002e-02  5.60000000000000012e-02
1.20000000000000002e-02  0.00000000000000000e+00  6.40000000000000013e-02
1.20000000000000002e-02  1.20000000000000002e-02  6.40000000000000013e-02
1.20000000000000002e-02  0.00000000000000000e+00  7.19999999999999946e-02
1.20000000000000002e-02  1.20000000000000002e-02  7.19999999999999946e-02

CELLS 0 0


CELL_TYPES 0


POINT_DATA 44

SCALARS Rank unsigned_int
LOOKUP_TABLE default
0 0 0 0 0 0 0 0 0 0 0 0 0 0 0 0 0 0 0 0 0 0 0 0 0 0 0 0 0 0 0 0 0 0 0 0 0 0 0 0 0 0 0 0 

VECTORS Displacements0 double
6.30234741473728208e-07 0.00000000000000000e+00 4.39850457712608211e-07 
6.20776670328444737e-04 0.00000000000000000e+00 5.19426766026698586e-04 
6.20825344932558081e-04 0.00000000000000000e+00 5.19416535399056336e-04 
6.69089000458387116e-07 0.00000000000000000e+00 4.77495101384561426e-07 
1.71733497602032125e-03 0.00000000000000000e+00 6.99697489276108879e-04 
1.71707179587270381e-03 0.00000000000000000e+00 6.99960308583707429e-04 
2.94754442214113744e-03 0.00000000000000000e+00 6.54453811358456919e-04 
2.94722689564199834e-03 0.00000000000000000e+00 6.54577234196645520e-04 
4.06987739875588547e-03 0.00000000000000000e+00 4.88025410095384088e-04 
4.07114425807133650e-03 0.00000000000000000e+00 4.88092857636715418e-04 
4.98000112946632000e-03 0.00000000000000000e+00 2.82651531136804759e-04 
4.98004316251634670e-03 0.00000000000000000e+00 2.82105059507920723e-04 
5.64939034461629710e-03 0.00000000000000000e+00 8.74299120048463506e-05 
5.64909324114837644e-03 0.00000000000000000e+00 8.71312904962980267e-05 
6.09392234993427415e-03 0.00000000000000000e+00 -6.19216512920413135e-05 
6.09412280873443228e-03 0.00000000000000000e+00 -6.18045945967913928e-05 
6.38056984777847329e-03 0.00000000000000000e+00 -1.51508775425003437e-04 
6.38064197998022484e-03 0.00000000000000000e+00 -1.51612556484294596e-04 
6.58836814663584826e-03 0.00000000000000000e+00 -1.88550413081970785e-04 
6.58841160296247050e-03 0.00000000000000000e+00 -1.88462869008706980e-04 
6.78445650757465712e-03 0.00000000000000000e+00 -1.92935362889699202e-04 
6.78430068868141750e-03 0.00000000000000000e+00 -1.93013493086621193e-04 
6.78480098361011578e-03 0.00000000000000000e+00 -5.00272763308386831e-04 
6.78472060825169310e-03 0.00000000000000000e+00 -5.00249923338641250e-04 
8.01480514777592881e-07 0.00000000000000000e+00 -7.51155897809561695e-07 
8.00282614948979738e-07 0.00000000000000000e+00 -7.68742874815539663e-07 
5.31867239550439484e-04 0.00000000000000000e+00 -6.06230900193698908e-04 
5.31806291806561130e-04 0.00000000000000000e+00 -6.06241681963335072e-04 
1.57669875563413650e-03 0.00000000000000000e+00 -9.27425732724701936e-04 
1.57652969969392792e-03 0.00000000000000000e+00 -9.28160650301983951e-04 
2.79339847907165073e-03 0.00000000000000000e+00 -1.05295021170353034e-03 
2.79359114094095791e-03 0.00000000000000000e+00 -1.05269065408323550e-03 
3.94611954204397881e-03 0.00000000000000000e+00 -1.03388480089139975e-03 
3.94583944773765558e-03 0.00000000000000000e+00 -1.03425375492274211e-03 
4.89996993360467502e-03 0.00000000000000000e+00 -9.24411192610217363e-04 
4.90001332641412050e-03 0.00000000000000000e+00 -9.24874851640821241e-04 
5.60333835806894713e-03 0.00000000000000000e+00 -7.77730843539880872e-04 
5.60369464129188873e-03 0.00000000000000000e+00 -7.78023669990259969e-04 
6.07255486486590456e-03 0.00000000000000000e+00 -6.43301884879184777e-04 
6.07261766134903173e-03 0.00000000000000000e+00 -6.43134099144300692e-04 
6.37390133082498325e-03 0.00000000000000000e+00 -5.51241355764736955e-04 
6.37409820172975781e-03 0.00000000000000000e+00 -5.50609237380509427e-04 
6.58738376152432151e-03 0.00000000000000000e+00 -5.07038603674463953e-04 
6.58739195280413914e-03 0.00000000000000000e+00 -5.06995355159805313e-04 

