# vtk DataFile Version 2.0

ASCII

DATASET UNSTRUCTURED_GRID

POINTS 44 double 

0.00000000000000000e+00  1.20000000000000002e-02  0.00000000000000000e+00
0.00000000000000000e+00  1.20000000000000002e-02  8.00000000000000017e-03
0.00000000000000000e+00  0.00000000000000000e+00  8.00000000000000017e-03
0.00000000000000000e+00  0.00000000000000000e+00  0.00000000000000000e+00
0.00000000000000000e+00  1.20000000000000002e-02  1.60000000000000003e-02
0.00000000000000000e+00  0.00000000000000000e+00  1.60000000000000003e-02
0.00000000000000000e+00  1.20000000000000002e-02  2.40000000000000005e-02
0.00000000000000000e+00  0.00000000000000000e+00  2.40000000000000005e-02
0.00000000000000000e+00  1.20000000000000002e-02  3.20000000000000007e-02
0.00000000000000000e+00  0.00000000000000000e+00  3.20000000000000007e-02
0.00000000000000000e+00  1.20000000000000002e-02  4.00000000000000008e-02
0.00000000000000000e+00  0.00000000000000000e+00  4.00000000000000008e-02
0.00000000000000000e+00  1.20000000000000002e-02  4.80000000000000010e-02
0.00000000000000000e+00  0.00000000000000000e+00  4.80000000000000010e-02
0.00000000000000000e+00  1.20000000000000002e-02  5.60000000000000012e-02
0.00000000000000000e+00  0.00000000000000000e+00  5.60000000000000012e-02
0.00000000000000000e+00  1.20000000000000002e-02  6.40000000000000013e-02
0.00000000000000000e+00  0.00000000000000000e+00  6.40000000000000013e-02
0.00000000000000000e+00  1.20000000000000002e-02  7.19999999999999946e-02
0.00000000000000000e+00  0.00000000000000000e+00  7.19999999999999946e-02
0.00000000000000000e+00  1.20000000000000002e-02  8.00000000000000017e-02
0.00000000000000000e+00  0.00000000000000000e+00  8.00000000000000017e-02
1.20000000000000002e-02  1.20000000000000002e-02  8.00000000000000017e-02
1.20000000000000002e-02  0.00000000000000000e+00  8.00000000000000017e-02
1.20000000000000002e-02  1.20000000000000002e-02  0.00000000000000000e+00
1.20000000000000002e-02  0.00000000000000000e+00  0.00000000000000000e+00
1.20000000000000002e-02  0.00000000000000000e+00  8.00000000000000017e-03
1.20000000000000002e-02  1.20000000000000002e-02  8.00000000000000017e-03
1.20000000000000002e-02  0.00000000000000000e+00  1.60000000000000003e-02
1.20000000000000002e-02  1.20000000000000002e-02  1.60000000000000003e-02
1.20000000000000002e-02  0.00000000000000000e+00  2.40000000000000005e-02
1.20000000000000002e-02  1.20000000000000002e-02  2.40000000000000005e-02
1.20000000000000002e-02  0.00000000000000000e+00  3.20000000000000007e-02
1.20000000000000002e-02  1.20000000000000002e-02  3.20000000000000007e-02
1.20000000000000002e-02  0.00000000000000000e+00  4.00000000000000008e-02
1.20000000000000002e-02  1.20000000000000002e-02  4.00000000000000008e-02
1.20000000000000002e-02  0.00000000000000000e+00  4.80000000000000010e-02
1.20000000000000002e-02  1.20000000000000002e-02  4.80000000000000010e-02
1.20000000000000002e-02  0.00000000000000000e+00  5.60000000000000012e-02
1.20000000000000002e-02  1.20000000000000002e-02  5.60000000000000012e-02
1.20000000000000002e-02  0.00000000000000000e+00  6.40000000000000013e-02
1.20000000000000002e-02  1.20000000000000002e-02  6.40000000000000013e-02
1.20000000000000002e-02  0.00000000000000000e+00  7.19999999999999946e-02
1.20000000000000002e-02  1.20000000000000002e-02  7.19999999999999946e-02

CELLS 0 0


CELL_TYPES 0


POINT_DATA 44

SCALARS Rank unsigned_int
LOOKUP_TABLE default
0 0 0 0 0 0 0 0 0 0 0 0 0 0 0 0 0 0 0 0 0 0 0 0 0 0 0 0 0 0 0 0 0 0 0 0 0 0 0 0 0 0 0 0 

VECTORS Displacements0 double
-4.53809877750478158e-06 0.00000000000000000e+00 6.49300739398739854e-06 
1.31074597296391721e-03 0.00000000000000000e+00 1.12034388303952864e-03 
1.31070384373737801e-03 0.00000000000000000e+00 1.12053160827120415e-03 
-4.80290083779318089e-06 0.00000000000000000e+00 6.86415042122981434e-06 
4.29038262703309876e-03 0.00000000000000000e+00 1.55542729111235760e-03 
4.29000002366121055e-03 0.00000000000000000e+00 1.55587302631921129e-03 
8.40733522394856644e-03 0.00000000000000000e+00 1.25022976098831777e-03 
8.40730080856861954e-03 0.00000000000000000e+00 1.25078794159502998e-03 
1.32351992967891102e-02 0.00000000000000000e+00 2.93746729262418793e-04 
1.32366738731537949e-02 0.00000000000000000e+00 2.94112771492892160e-04 
1.85111085042015573e-02 0.00000000000000000e+00 -1.18415162832936991e-03 
1.85109487538503772e-02 0.00000000000000000e+00 -1.18445596077263165e-03 
2.40500194586819906e-02 0.00000000000000000e+00 -3.05310708888493956e-03 
2.40497451637056020e-02 0.00000000000000000e+00 -3.05355438777784888e-03 
2.97204193709131696e-02 0.00000000000000000e+00 -5.18605136063465030e-03 
2.97200188356889286e-02 0.00000000000000000e+00 -5.18618164130226541e-03 
3.54393525294378064e-02 0.00000000000000000e+00 -7.47945751336885796e-03 
3.54395013427433875e-02 0.00000000000000000e+00 -7.47931961522384139e-03 
4.11613634654395127e-02 0.00000000000000000e+00 -9.84931990187145473e-03 
4.11612838141179119e-02 0.00000000000000000e+00 -9.84915117491612022e-03 
4.68692131766276429e-02 0.00000000000000000e+00 -1.22388463930859556e-02 
4.68696776892392336e-02 0.00000000000000000e+00 -1.22390468615857263e-02 
4.32793064105697622e-02 0.00000000000000000e+00 -2.07817311238893340e-02 
4.32793756652073355e-02 0.00000000000000000e+00 -2.07818849290909644e-02 
-9.68379625274360757e-06 0.00000000000000000e+00 -1.42350164749795325e-06 
-1.00863106086215848e-05 0.00000000000000000e+00 -1.46416908310045141e-06 
8.78608518700913291e-04 0.00000000000000000e+00 -1.64381127121932262e-03 
8.78703244329349931e-04 0.00000000000000000e+00 -1.64373236053649320e-03 
3.22846594308675867e-03 0.00000000000000000e+00 -3.21111110402269107e-03 
3.22830521418322313e-03 0.00000000000000000e+00 -3.21197827690183468e-03 
6.65045108590872798e-03 0.00000000000000000e+00 -4.91393999354512202e-03 
6.65100971999440203e-03 0.00000000000000000e+00 -4.91374646487215561e-03 
1.08618166369497601e-02 0.00000000000000000e+00 -6.82354689643853082e-03 
1.08618116635129554e-02 0.00000000000000000e+00 -6.82353747540036335e-03 
1.56464615470250923e-02 0.00000000000000000e+00 -8.93734522577243479e-03 
1.56464251071601577e-02 0.00000000000000000e+00 -8.93743780083581033e-03 
2.08324721156431247e-02 0.00000000000000000e+00 -1.12090259742176103e-02 
2.08321463706811275e-02 0.00000000000000000e+00 -1.12093537044465202e-02 
2.62834235707273059e-02 0.00000000000000000e+00 -1.35770530729569915e-02 
2.62833891991397853e-02 0.00000000000000000e+00 -1.35773594593873968e-02 
3.18938791425173937e-02 0.00000000000000000e+00 -1.59843036590525608e-02 
3.18933670080715492e-02 0.00000000000000000e+00 -1.59847608979034848e-02 
3.75788589945623419e-02 0.00000000000000000e+00 -1.83932693185640539e-02 
3.75788398324170339e-02 0.00000000000000000e+00 -1.83932172986038499e-02 

