# vtk DataFile Version 2.0

ASCII

DATASET UNSTRUCTURED_GRID

POINTS 44 double 

0.00000000000000000e+00  1.20000000000000002e-02  0.00000000000000000e+00
0.00000000000000000e+00  1.20000000000000002e-02  8.00000000000000017e-03
0.00000000000000000e+00  0.00000000000000000e+00  8.00000000000000017e-03
0.00000000000000000e+00  0.00000000000000000e+00  0.00000000000000000e+00
0.00000000000000000e+00  1.20000000000000002e-02  1.60000000000000003e-02
0.00000000000000000e+00  0.00000000000000000e+00  1.60000000000000003e-02
0.00000000000000000e+00  1.20000000000000002e-02  2.40000000000000005e-02
0.00000000000000000e+00  0.00000000000000000e+00  2.40000000000000005e-02
0.00000000000000000e+00  1.20000000000000002e-02  3.20000000000000007e-02
0.00000000000000000e+00  0.00000000000000000e+00  3.20000000000000007e-02
0.00000000000000000e+00  1.20000000000000002e-02  4.00000000000000008e-02
0.00000000000000000e+00  0.00000000000000000e+00  4.00000000000000008e-02
0.00000000000000000e+00  1.20000000000000002e-02  4.80000000000000010e-02
0.00000000000000000e+00  0.00000000000000000e+00  4.80000000000000010e-02
0.00000000000000000e+00  1.20000000000000002e-02  5.60000000000000012e-02
0.00000000000000000e+00  0.00000000000000000e+00  5.60000000000000012e-02
0.00000000000000000e+00  1.20000000000000002e-02  6.40000000000000013e-02
0.00000000000000000e+00  0.00000000000000000e+00  6.40000000000000013e-02
0.00000000000000000e+00  1.20000000000000002e-02  7.19999999999999946e-02
0.00000000000000000e+00  0.00000000000000000e+00  7.19999999999999946e-02
0.00000000000000000e+00  1.20000000000000002e-02  8.00000000000000017e-02
0.00000000000000000e+00  0.00000000000000000e+00  8.00000000000000017e-02
1.20000000000000002e-02  1.20000000000000002e-02  8.00000000000000017e-02
1.20000000000000002e-02  0.00000000000000000e+00  8.00000000000000017e-02
1.20000000000000002e-02  1.20000000000000002e-02  0.00000000000000000e+00
1.20000000000000002e-02  0.00000000000000000e+00  0.00000000000000000e+00
1.20000000000000002e-02  0.00000000000000000e+00  8.00000000000000017e-03
1.20000000000000002e-02  1.20000000000000002e-02  8.00000000000000017e-03
1.20000000000000002e-02  0.00000000000000000e+00  1.60000000000000003e-02
1.20000000000000002e-02  1.20000000000000002e-02  1.60000000000000003e-02
1.20000000000000002e-02  0.00000000000000000e+00  2.40000000000000005e-02
1.20000000000000002e-02  1.20000000000000002e-02  2.40000000000000005e-02
1.20000000000000002e-02  0.00000000000000000e+00  3.20000000000000007e-02
1.20000000000000002e-02  1.20000000000000002e-02  3.20000000000000007e-02
1.20000000000000002e-02  0.00000000000000000e+00  4.00000000000000008e-02
1.20000000000000002e-02  1.20000000000000002e-02  4.00000000000000008e-02
1.20000000000000002e-02  0.00000000000000000e+00  4.80000000000000010e-02
1.20000000000000002e-02  1.20000000000000002e-02  4.80000000000000010e-02
1.20000000000000002e-02  0.00000000000000000e+00  5.60000000000000012e-02
1.20000000000000002e-02  1.20000000000000002e-02  5.60000000000000012e-02
1.20000000000000002e-02  0.00000000000000000e+00  6.40000000000000013e-02
1.20000000000000002e-02  1.20000000000000002e-02  6.40000000000000013e-02
1.20000000000000002e-02  0.00000000000000000e+00  7.19999999999999946e-02
1.20000000000000002e-02  1.20000000000000002e-02  7.19999999999999946e-02

CELLS 0 0


CELL_TYPES 0


POINT_DATA 44

SCALARS Rank unsigned_int
LOOKUP_TABLE default
0 0 0 0 0 0 0 0 0 0 0 0 0 0 0 0 0 0 0 0 0 0 0 0 0 0 0 0 0 0 0 0 0 0 0 0 0 0 0 0 0 0 0 0 

VECTORS Displacements0 double
-2.99658177885081749e-06 0.00000000000000000e+00 5.53091234693970296e-06 
1.17951778088437077e-03 0.00000000000000000e+00 1.02746080488766694e-03 
1.17947899374567892e-03 0.00000000000000000e+00 1.02762139548113985e-03 
-3.23804038888540410e-06 0.00000000000000000e+00 5.84539761311515804e-06 
3.81838018949203547e-03 0.00000000000000000e+00 1.46484069611638266e-03 
3.81802287462948940e-03 0.00000000000000000e+00 1.46525559107445278e-03 
7.45207789675997410e-03 0.00000000000000000e+00 1.29899533260738678e-03 
7.45204038426285596e-03 0.00000000000000000e+00 1.29943637616905180e-03 
1.17177637389670568e-02 0.00000000000000000e+00 6.13572475601418220e-04 
1.17190691418511978e-02 0.00000000000000000e+00 6.13880632191787443e-04 
1.63974281126413497e-02 0.00000000000000000e+00 -4.85099680390599017e-04 
1.63973029640742118e-02 0.00000000000000000e+00 -4.85342308365815239e-04 
2.13358081400379790e-02 0.00000000000000000e+00 -1.89876335489226871e-03 
2.13356557614157727e-02 0.00000000000000000e+00 -1.89915848705817739e-03 
2.64180975906830040e-02 0.00000000000000000e+00 -3.53353243573469294e-03 
2.64177813220840690e-02 0.00000000000000000e+00 -3.53366846849601911e-03 
3.15655395832427771e-02 0.00000000000000000e+00 -5.31098274371176633e-03 
3.15656110188390557e-02 0.00000000000000000e+00 -5.31081825476158263e-03 
3.67268705057450864e-02 0.00000000000000000e+00 -7.16246011954681239e-03 
3.67268836910254054e-02 0.00000000000000000e+00 -7.16239235900532553e-03 
4.18762878409792774e-02 0.00000000000000000e+00 -9.03635379054414448e-03 
4.18766025184144214e-02 0.00000000000000000e+00 -9.03641961588397269e-03 
3.90647758416723667e-02 0.00000000000000000e+00 -1.67469542291265316e-02 
3.90648475873802276e-02 0.00000000000000000e+00 -1.67470945299669598e-02 
-7.94600400430720736e-06 0.00000000000000000e+00 -1.69170746996326527e-06 
-8.30047886952165782e-06 0.00000000000000000e+00 -1.74930019156572386e-06 
8.28971304093585777e-04 0.00000000000000000e+00 -1.45081951411401427e-03 
8.29056237330743056e-04 0.00000000000000000e+00 -1.45074439658246924e-03 
2.97679709571908434e-03 0.00000000000000000e+00 -2.78629928056681186e-03 
2.97663340931906151e-03 0.00000000000000000e+00 -2.78706973094033699e-03 
6.07597101478879291e-03 0.00000000000000000e+00 -4.19238319205346259e-03 
6.07639316934546585e-03 0.00000000000000000e+00 -4.19214931108845799e-03 
9.87174710247379350e-03 0.00000000000000000e+00 -5.73378518178899697e-03 
9.87167806409937169e-03 0.00000000000000000e+00 -5.73377939257076544e-03 
1.41746827745831017e-02 0.00000000000000000e+00 -7.41660361897693646e-03 
1.41746746351729506e-02 0.00000000000000000e+00 -7.41670010140117741e-03 
1.88363230357519659e-02 0.00000000000000000e+00 -9.21309512941156754e-03 
1.88360963807606904e-02 0.00000000000000000e+00 -9.21339084418627829e-03 
2.37399655378812031e-02 0.00000000000000000e+00 -1.10807223221302022e-02 
2.37399690708711072e-02 0.00000000000000000e+00 -1.10809642342467839e-02 
2.87935672321275975e-02 0.00000000000000000e+00 -1.29771893663226182e-02 
2.87931749190664214e-02 0.00000000000000000e+00 -1.29775953129138560e-02 
3.39203342285818651e-02 0.00000000000000000e+00 -1.48721308151401315e-02 
3.39203273185431572e-02 0.00000000000000000e+00 -1.48720805578232036e-02 

