# vtk DataFile Version 2.0

ASCII

DATASET UNSTRUCTURED_GRID

POINTS 44 double 

0.00000000000000000e+00  1.20000000000000002e-02  0.00000000000000000e+00
0.00000000000000000e+00  1.20000000000000002e-02  8.00000000000000017e-03
0.00000000000000000e+00  0.00000000000000000e+00  8.00000000000000017e-03
0.00000000000000000e+00  0.00000000000000000e+00  0.00000000000000000e+00
0.00000000000000000e+00  1.20000000000000002e-02  1.60000000000000003e-02
0.00000000000000000e+00  0.00000000000000000e+00  1.60000000000000003e-02
0.00000000000000000e+00  1.20000000000000002e-02  2.40000000000000005e-02
0.00000000000000000e+00  0.00000000000000000e+00  2.40000000000000005e-02
0.00000000000000000e+00  1.20000000000000002e-02  3.20000000000000007e-02
0.00000000000000000e+00  0.00000000000000000e+00  3.20000000000000007e-02
0.00000000000000000e+00  1.20000000000000002e-02  4.00000000000000008e-02
0.00000000000000000e+00  0.00000000000000000e+00  4.00000000000000008e-02
0.00000000000000000e+00  1.20000000000000002e-02  4.80000000000000010e-02
0.00000000000000000e+00  0.00000000000000000e+00  4.80000000000000010e-02
0.00000000000000000e+00  1.20000000000000002e-02  5.60000000000000012e-02
0.00000000000000000e+00  0.00000000000000000e+00  5.60000000000000012e-02
0.00000000000000000e+00  1.20000000000000002e-02  6.40000000000000013e-02
0.00000000000000000e+00  0.00000000000000000e+00  6.40000000000000013e-02
0.00000000000000000e+00  1.20000000000000002e-02  7.19999999999999946e-02
0.00000000000000000e+00  0.00000000000000000e+00  7.19999999999999946e-02
0.00000000000000000e+00  1.20000000000000002e-02  8.00000000000000017e-02
0.00000000000000000e+00  0.00000000000000000e+00  8.00000000000000017e-02
1.20000000000000002e-02  1.20000000000000002e-02  8.00000000000000017e-02
1.20000000000000002e-02  0.00000000000000000e+00  8.00000000000000017e-02
1.20000000000000002e-02  1.20000000000000002e-02  0.00000000000000000e+00
1.20000000000000002e-02  0.00000000000000000e+00  0.00000000000000000e+00
1.20000000000000002e-02  0.00000000000000000e+00  8.00000000000000017e-03
1.20000000000000002e-02  1.20000000000000002e-02  8.00000000000000017e-03
1.20000000000000002e-02  0.00000000000000000e+00  1.60000000000000003e-02
1.20000000000000002e-02  1.20000000000000002e-02  1.60000000000000003e-02
1.20000000000000002e-02  0.00000000000000000e+00  2.40000000000000005e-02
1.20000000000000002e-02  1.20000000000000002e-02  2.40000000000000005e-02
1.20000000000000002e-02  0.00000000000000000e+00  3.20000000000000007e-02
1.20000000000000002e-02  1.20000000000000002e-02  3.20000000000000007e-02
1.20000000000000002e-02  0.00000000000000000e+00  4.00000000000000008e-02
1.20000000000000002e-02  1.20000000000000002e-02  4.00000000000000008e-02
1.20000000000000002e-02  0.00000000000000000e+00  4.80000000000000010e-02
1.20000000000000002e-02  1.20000000000000002e-02  4.80000000000000010e-02
1.20000000000000002e-02  0.00000000000000000e+00  5.60000000000000012e-02
1.20000000000000002e-02  1.20000000000000002e-02  5.60000000000000012e-02
1.20000000000000002e-02  0.00000000000000000e+00  6.40000000000000013e-02
1.20000000000000002e-02  1.20000000000000002e-02  6.40000000000000013e-02
1.20000000000000002e-02  0.00000000000000000e+00  7.19999999999999946e-02
1.20000000000000002e-02  1.20000000000000002e-02  7.19999999999999946e-02

CELLS 0 0


CELL_TYPES 0


POINT_DATA 44

SCALARS Rank unsigned_int
LOOKUP_TABLE default
0 0 0 0 0 0 0 0 0 0 0 0 0 0 0 0 0 0 0 0 0 0 0 0 0 0 0 0 0 0 0 0 0 0 0 0 0 0 0 0 0 0 0 0 

VECTORS Displacements0 double
-1.86088436475164907e-06 0.00000000000000000e+00 1.84709595883805696e-06 
6.30930506676927010e-04 0.00000000000000000e+00 5.93564382966652840e-04 
6.30907577697794328e-04 0.00000000000000000e+00 5.93596423048785835e-04 
-1.97707577993810890e-06 0.00000000000000000e+00 1.95293614047345986e-06 
1.95022155528340154e-03 0.00000000000000000e+00 9.06530087556824214e-04 
1.95000026291815504e-03 0.00000000000000000e+00 9.06748779407776356e-04 
3.71027312257381225e-03 0.00000000000000000e+00 9.95384746651726106e-04 
3.71003897289618086e-03 0.00000000000000000e+00 9.95575486598111476e-04 
5.72864560848404536e-03 0.00000000000000000e+00 9.24352155687640977e-04 
5.72954905056053971e-03 0.00000000000000000e+00 9.24596107293096468e-04 
7.91597658221498968e-03 0.00000000000000000e+00 7.44069252331356528e-04 
7.91594116192767192e-03 0.00000000000000000e+00 7.43938020412471387e-04 
1.02095980182695875e-02 0.00000000000000000e+00 4.86325504773628837e-04 
1.02095889316582526e-02 0.00000000000000000e+00 4.86156454151168236e-04 
1.25577255697247869e-02 0.00000000000000000e+00 1.76650289695654168e-04 
1.25576415997952079e-02 0.00000000000000000e+00 1.76575828263220158e-04 
1.49261360726988292e-02 0.00000000000000000e+00 -1.63947724295091576e-04 
1.49261451359427935e-02 0.00000000000000000e+00 -1.63902079066873766e-04 
1.72988811102511124e-02 0.00000000000000000e+00 -5.17882843544604284e-04 
1.72989329662112702e-02 0.00000000000000000e+00 -5.17900677704778104e-04 
1.96656940557730260e-02 0.00000000000000000e+00 -8.76466396799648918e-04 
1.96656246967052140e-02 0.00000000000000000e+00 -8.76409614952323741e-04 
1.91361202319462673e-02 0.00000000000000000e+00 -4.43117735786365593e-03 
1.91361497317227708e-02 0.00000000000000000e+00 -4.43121334862384923e-03 
-2.98151512039377287e-06 0.00000000000000000e+00 -1.44046342938890990e-06 
-3.13309951539277824e-06 0.00000000000000000e+00 -1.48361783255945845e-06 
5.21527041000752201e-04 0.00000000000000000e+00 -7.10464698890832637e-04 
5.21550468945347146e-04 0.00000000000000000e+00 -7.10449259303671567e-04 
1.72462279073975870e-03 0.00000000000000000e+00 -1.25578919615195340e-03 
1.72454549789433304e-03 0.00000000000000000e+00 -1.25629123379274719e-03 
3.37311999538836022e-03 0.00000000000000000e+00 -1.72179097709140492e-03 
3.37333294873155311e-03 0.00000000000000000e+00 -1.72158914141507793e-03 
5.31035909061610897e-03 0.00000000000000000e+00 -2.15045319361147850e-03 
5.31026006438169943e-03 0.00000000000000000e+00 -2.15047134905602252e-03 
7.44149055955045310e-03 0.00000000000000000e+00 -2.56176503741345572e-03 
7.44151471002961473e-03 0.00000000000000000e+00 -2.56187465756550986e-03 
9.69818793320722031e-03 0.00000000000000000e+00 -2.95999383321219472e-03 
9.69820114415599274e-03 0.00000000000000000e+00 -2.96013831492307044e-03 
1.20287646153713138e-02 0.00000000000000000e+00 -3.34370583541155914e-03 
1.20288053247286503e-02 0.00000000000000000e+00 -3.34379990273378459e-03 
1.43922978670221954e-02 0.00000000000000000e+00 -3.71277923748924077e-03 
1.43922790250878910e-02 0.00000000000000000e+00 -3.71290493442573508e-03 
1.67647368005679614e-02 0.00000000000000000e+00 -4.07362230726694870e-03 
1.67647339839064741e-02 0.00000000000000000e+00 -4.07360672496956747e-03 

