# vtk DataFile Version 2.0

ASCII

DATASET UNSTRUCTURED_GRID

POINTS 44 double 

0.00000000000000000e+00  1.20000000000000002e-02  0.00000000000000000e+00
0.00000000000000000e+00  1.20000000000000002e-02  8.00000000000000017e-03
0.00000000000000000e+00  0.00000000000000000e+00  8.00000000000000017e-03
0.00000000000000000e+00  0.00000000000000000e+00  0.00000000000000000e+00
0.00000000000000000e+00  1.20000000000000002e-02  1.60000000000000003e-02
0.00000000000000000e+00  0.00000000000000000e+00  1.60000000000000003e-02
0.00000000000000000e+00  1.20000000000000002e-02  2.40000000000000005e-02
0.00000000000000000e+00  0.00000000000000000e+00  2.40000000000000005e-02
0.00000000000000000e+00  1.20000000000000002e-02  3.20000000000000007e-02
0.00000000000000000e+00  0.00000000000000000e+00  3.20000000000000007e-02
0.00000000000000000e+00  1.20000000000000002e-02  4.00000000000000008e-02
0.00000000000000000e+00  0.00000000000000000e+00  4.00000000000000008e-02
0.00000000000000000e+00  1.20000000000000002e-02  4.80000000000000010e-02
0.00000000000000000e+00  0.00000000000000000e+00  4.80000000000000010e-02
0.00000000000000000e+00  1.20000000000000002e-02  5.60000000000000012e-02
0.00000000000000000e+00  0.00000000000000000e+00  5.60000000000000012e-02
0.00000000000000000e+00  1.20000000000000002e-02  6.40000000000000013e-02
0.00000000000000000e+00  0.00000000000000000e+00  6.40000000000000013e-02
0.00000000000000000e+00  1.20000000000000002e-02  7.19999999999999946e-02
0.00000000000000000e+00  0.00000000000000000e+00  7.19999999999999946e-02
0.00000000000000000e+00  1.20000000000000002e-02  8.00000000000000017e-02
0.00000000000000000e+00  0.00000000000000000e+00  8.00000000000000017e-02
1.20000000000000002e-02  1.20000000000000002e-02  8.00000000000000017e-02
1.20000000000000002e-02  0.00000000000000000e+00  8.00000000000000017e-02
1.20000000000000002e-02  1.20000000000000002e-02  0.00000000000000000e+00
1.20000000000000002e-02  0.00000000000000000e+00  0.00000000000000000e+00
1.20000000000000002e-02  0.00000000000000000e+00  8.00000000000000017e-03
1.20000000000000002e-02  1.20000000000000002e-02  8.00000000000000017e-03
1.20000000000000002e-02  0.00000000000000000e+00  1.60000000000000003e-02
1.20000000000000002e-02  1.20000000000000002e-02  1.60000000000000003e-02
1.20000000000000002e-02  0.00000000000000000e+00  2.40000000000000005e-02
1.20000000000000002e-02  1.20000000000000002e-02  2.40000000000000005e-02
1.20000000000000002e-02  0.00000000000000000e+00  3.20000000000000007e-02
1.20000000000000002e-02  1.20000000000000002e-02  3.20000000000000007e-02
1.20000000000000002e-02  0.00000000000000000e+00  4.00000000000000008e-02
1.20000000000000002e-02  1.20000000000000002e-02  4.00000000000000008e-02
1.20000000000000002e-02  0.00000000000000000e+00  4.80000000000000010e-02
1.20000000000000002e-02  1.20000000000000002e-02  4.80000000000000010e-02
1.20000000000000002e-02  0.00000000000000000e+00  5.60000000000000012e-02
1.20000000000000002e-02  1.20000000000000002e-02  5.60000000000000012e-02
1.20000000000000002e-02  0.00000000000000000e+00  6.40000000000000013e-02
1.20000000000000002e-02  1.20000000000000002e-02  6.40000000000000013e-02
1.20000000000000002e-02  0.00000000000000000e+00  7.19999999999999946e-02
1.20000000000000002e-02  1.20000000000000002e-02  7.19999999999999946e-02

CELLS 0 0


CELL_TYPES 0


POINT_DATA 44

SCALARS Rank unsigned_int
LOOKUP_TABLE default
0 0 0 0 0 0 0 0 0 0 0 0 0 0 0 0 0 0 0 0 0 0 0 0 0 0 0 0 0 0 0 0 0 0 0 0 0 0 0 0 0 0 0 0 

VECTORS Displacements0 double
-3.62018041915015977e-06 0.00000000000000000e+00 5.13774876024447892e-06 
1.16791794197033689e-03 0.00000000000000000e+00 1.02052417042528421e-03 
1.16786865777813043e-03 0.00000000000000000e+00 1.02066775067872085e-03 
-3.84451251158679855e-06 0.00000000000000000e+00 5.42838400570226642e-06 
3.76251181635527295e-03 0.00000000000000000e+00 1.45524134600537834e-03 
3.76215336555165477e-03 0.00000000000000000e+00 1.45566691697530688e-03 
7.31153591414088373e-03 0.00000000000000000e+00 1.30223958306525467e-03 
7.31144304715380857e-03 0.00000000000000000e+00 1.30273560468606138e-03 
1.14452183333944215e-02 0.00000000000000000e+00 6.57187316393820047e-04 
1.14466653142522544e-02 0.00000000000000000e+00 6.57455577190432100e-04 
1.59441512171092509e-02 0.00000000000000000e+00 -3.62366029765207910e-04 
1.59439903466346185e-02 0.00000000000000000e+00 -3.62676760955802854e-04 
2.06610431505205791e-02 0.00000000000000000e+00 -1.65181320926488691e-03 
2.06607930612956493e-02 0.00000000000000000e+00 -1.65217869014883893e-03 
2.54960828940476135e-02 0.00000000000000000e+00 -3.12081393970981003e-03 
2.54958107713436424e-02 0.00000000000000000e+00 -3.12092467951578714e-03 
3.03873195641021013e-02 0.00000000000000000e+00 -4.70415722189597603e-03 
3.03874096196335812e-02 0.00000000000000000e+00 -4.70403935904800414e-03 
3.52936168679637563e-02 0.00000000000000000e+00 -6.34967192799087282e-03 
3.52936126651358720e-02 0.00000000000000000e+00 -6.34959396948008535e-03 
4.01894120882059225e-02 0.00000000000000000e+00 -8.01750784082834282e-03 
4.01896795530506112e-02 0.00000000000000000e+00 -8.01754737440382031e-03 
3.76857994095241983e-02 0.00000000000000000e+00 -1.53505255572158328e-02 
3.76858744599062392e-02 0.00000000000000000e+00 -1.53506478747146378e-02 
-7.37996264604657738e-06 0.00000000000000000e+00 -1.72181668635013477e-06 
-7.71303573766143197e-06 0.00000000000000000e+00 -1.79086722420802175e-06 
8.28799871545072512e-04 0.00000000000000000e+00 -1.42275762085192171e-03 
8.28869698655437630e-04 0.00000000000000000e+00 -1.42267943410457525e-03 
2.95604858228327126e-03 0.00000000000000000e+00 -2.71403128685899792e-03 
2.95586259199038213e-03 0.00000000000000000e+00 -2.71482919295442694e-03 
6.00897055432155717e-03 0.00000000000000000e+00 -4.05081589913770454e-03 
6.00942003610899743e-03 0.00000000000000000e+00 -4.05057366530813846e-03 
9.72466832244702276e-03 0.00000000000000000e+00 -5.48866064190107333e-03 
9.72455424502456471e-03 0.00000000000000000e+00 -5.48867664928680971e-03 
1.39060275405564898e-02 0.00000000000000000e+00 -7.02815825897830024e-03 
1.39059698164795149e-02 0.00000000000000000e+00 -7.02833681667231012e-03 
1.84008227914871925e-02 0.00000000000000000e+00 -8.64559815925236737e-03 
1.84006252271237750e-02 0.00000000000000000e+00 -8.64593519062727481e-03 
2.30970236365462163e-02 0.00000000000000000e+00 -1.03110498428193153e-02 
2.30970260985266865e-02 0.00000000000000000e+00 -1.03112636795492825e-02 
2.79151835157482528e-02 0.00000000000000000e+00 -1.19960101264157751e-02 
2.79149108448177516e-02 0.00000000000000000e+00 -1.19963594433376806e-02 
3.27933662368300183e-02 0.00000000000000000e+00 -1.36805792127555007e-02 
3.27933557310605833e-02 0.00000000000000000e+00 -1.36805295380765385e-02 

