# vtk DataFile Version 2.0

ASCII

DATASET UNSTRUCTURED_GRID

POINTS 21 double 

0.00000000000000000e+00  6.00000000000000099e-03  4.00000000000000008e-03
0.00000000000000000e+00  6.00000000000000099e-03  1.20000000000000020e-02
0.00000000000000000e+00  6.00000000000000099e-03  2.00000000000000004e-02
0.00000000000000000e+00  5.99999999999999926e-03  2.80000000000000041e-02
0.00000000000000000e+00  6.00000000000000099e-03  3.60000000000000042e-02
0.00000000000000000e+00  6.00000000000000099e-03  4.39999999999999974e-02
0.00000000000000000e+00  6.00000000000000099e-03  5.19999999999999976e-02
0.00000000000000000e+00  5.99999999999999926e-03  5.99999999999999908e-02
0.00000000000000000e+00  5.99999999999999926e-03  6.79999999999999910e-02
0.00000000000000000e+00  6.00000000000000012e-03  7.59999999999999981e-02
6.00000000000000099e-03  6.00000000000000099e-03  8.00000000000000017e-02
1.20000000000000020e-02  6.00000000000000099e-03  4.00000000000000008e-03
1.20000000000000020e-02  6.00000000000000099e-03  1.19999999999999985e-02
1.20000000000000020e-02  6.00000000000000099e-03  2.00000000000000004e-02
1.20000000000000020e-02  6.00000000000000099e-03  2.80000000000000041e-02
1.20000000000000020e-02  6.00000000000000099e-03  3.59999999999999973e-02
1.20000000000000020e-02  6.00000000000000099e-03  4.40000000000000044e-02
1.20000000000000020e-02  6.00000000000000099e-03  5.19999999999999976e-02
1.20000000000000020e-02  6.00000000000000099e-03  5.99999999999999978e-02
1.20000000000000002e-02  5.99999999999999926e-03  6.79999999999999910e-02
1.20000000000000002e-02  6.00000000000000012e-03  7.59999999999999981e-02

CELLS 0 0


CELL_TYPES 0


POINT_DATA 21

SCALARS Rank unsigned_int
LOOKUP_TABLE default
0 0 0 0 0 0 0 0 0 0 0 0 0 0 0 0 0 0 0 0 0 

VECTORS Forces0 double
1.18835700757658440e-04 6.70546642779453850e-30 -7.99520019838508942e-09 
1.10016237181590921e-04 -1.68392212745322261e-22 -6.62014439709124958e-09 
9.98376426142166541e-05 -1.68383819880860825e-22 -3.16719915711580563e-09 
8.84449197360731722e-05 1.68376461053628294e-22 3.85699662130934549e-09 
7.59242562873773476e-05 2.71560763085944858e-30 1.34866989075759341e-08 
6.23164338741049695e-05 1.68365937115976996e-22 2.49046151069512372e-08 
4.76033672814049605e-05 4.47580191961668852e-29 3.75564687767207415e-08 
3.16902665400927076e-05 -2.72998618598964220e-25 5.16139840401140739e-08 
1.40670909040939152e-05 1.68349284246506094e-22 6.80539719488675586e-08 
-5.73963430460975953e-06 3.36665077870977177e-22 8.08290514287792499e-08 
1.11013798416582965e-07 -3.39589144659514284e-30 8.51389999473759564e-05 
-1.40335528785432109e-05 -3.02366171243835605e-26 9.02293430246035641e-10 
-6.43997237456529212e-06 -6.30589110526207414e-52 -7.32852472889182078e-10 
1.05591993234877959e-06 -9.08010004214320483e-27 -3.39463964297910320e-09 
8.44098621670635870e-06 -8.40547663595873779e-30 -6.95361171629968254e-09 
1.57082050986608224e-05 9.44129990213536517e-54 -1.10016178299267250e-08 
2.28570159252538811e-05 1.68163843177615641e-22 -1.53377842914512311e-08 
2.99117179944290198e-05 3.36729191524493631e-22 -2.02315856202062678e-08 
3.67979984911267149e-05 1.68369165692335545e-22 -2.52324418470289359e-08 
4.33377997079425014e-05 -1.68377494487429281e-22 -2.56932919282115532e-08 
5.27564672844508671e-05 3.36788374625241273e-22 -3.26447407648047179e-08 

