# vtk DataFile Version 2.0

ASCII

DATASET UNSTRUCTURED_GRID

POINTS 44 double 

0.00000000000000000e+00  1.20000000000000002e-02  0.00000000000000000e+00
0.00000000000000000e+00  1.20000000000000002e-02  8.00000000000000017e-03
0.00000000000000000e+00  0.00000000000000000e+00  8.00000000000000017e-03
0.00000000000000000e+00  0.00000000000000000e+00  0.00000000000000000e+00
0.00000000000000000e+00  1.20000000000000002e-02  1.60000000000000003e-02
0.00000000000000000e+00  0.00000000000000000e+00  1.60000000000000003e-02
0.00000000000000000e+00  1.20000000000000002e-02  2.40000000000000005e-02
0.00000000000000000e+00  0.00000000000000000e+00  2.40000000000000005e-02
0.00000000000000000e+00  1.20000000000000002e-02  3.20000000000000007e-02
0.00000000000000000e+00  0.00000000000000000e+00  3.20000000000000007e-02
0.00000000000000000e+00  1.20000000000000002e-02  4.00000000000000008e-02
0.00000000000000000e+00  0.00000000000000000e+00  4.00000000000000008e-02
0.00000000000000000e+00  1.20000000000000002e-02  4.80000000000000010e-02
0.00000000000000000e+00  0.00000000000000000e+00  4.80000000000000010e-02
0.00000000000000000e+00  1.20000000000000002e-02  5.60000000000000012e-02
0.00000000000000000e+00  0.00000000000000000e+00  5.60000000000000012e-02
0.00000000000000000e+00  1.20000000000000002e-02  6.40000000000000013e-02
0.00000000000000000e+00  0.00000000000000000e+00  6.40000000000000013e-02
0.00000000000000000e+00  1.20000000000000002e-02  7.19999999999999946e-02
0.00000000000000000e+00  0.00000000000000000e+00  7.19999999999999946e-02
0.00000000000000000e+00  1.20000000000000002e-02  8.00000000000000017e-02
0.00000000000000000e+00  0.00000000000000000e+00  8.00000000000000017e-02
1.20000000000000002e-02  1.20000000000000002e-02  8.00000000000000017e-02
1.20000000000000002e-02  0.00000000000000000e+00  8.00000000000000017e-02
1.20000000000000002e-02  1.20000000000000002e-02  0.00000000000000000e+00
1.20000000000000002e-02  0.00000000000000000e+00  0.00000000000000000e+00
1.20000000000000002e-02  0.00000000000000000e+00  8.00000000000000017e-03
1.20000000000000002e-02  1.20000000000000002e-02  8.00000000000000017e-03
1.20000000000000002e-02  0.00000000000000000e+00  1.60000000000000003e-02
1.20000000000000002e-02  1.20000000000000002e-02  1.60000000000000003e-02
1.20000000000000002e-02  0.00000000000000000e+00  2.40000000000000005e-02
1.20000000000000002e-02  1.20000000000000002e-02  2.40000000000000005e-02
1.20000000000000002e-02  0.00000000000000000e+00  3.20000000000000007e-02
1.20000000000000002e-02  1.20000000000000002e-02  3.20000000000000007e-02
1.20000000000000002e-02  0.00000000000000000e+00  4.00000000000000008e-02
1.20000000000000002e-02  1.20000000000000002e-02  4.00000000000000008e-02
1.20000000000000002e-02  0.00000000000000000e+00  4.80000000000000010e-02
1.20000000000000002e-02  1.20000000000000002e-02  4.80000000000000010e-02
1.20000000000000002e-02  0.00000000000000000e+00  5.60000000000000012e-02
1.20000000000000002e-02  1.20000000000000002e-02  5.60000000000000012e-02
1.20000000000000002e-02  0.00000000000000000e+00  6.40000000000000013e-02
1.20000000000000002e-02  1.20000000000000002e-02  6.40000000000000013e-02
1.20000000000000002e-02  0.00000000000000000e+00  7.19999999999999946e-02
1.20000000000000002e-02  1.20000000000000002e-02  7.19999999999999946e-02

CELLS 0 0


CELL_TYPES 0


POINT_DATA 44

SCALARS Rank unsigned_int
LOOKUP_TABLE default
0 0 0 0 0 0 0 0 0 0 0 0 0 0 0 0 0 0 0 0 0 0 0 0 0 0 0 0 0 0 0 0 0 0 0 0 0 0 0 0 0 0 0 0 

VECTORS Displacements0 double
-4.31879281273132128e-06 0.00000000000000000e+00 6.55002431897733317e-06 
1.26084635143215110e-03 0.00000000000000000e+00 1.09423392187287579e-03 
1.26081073608169019e-03 0.00000000000000000e+00 1.09445738584330573e-03 
-4.57059946162852171e-06 0.00000000000000000e+00 6.96510399202619757e-06 
4.14912900792263790e-03 0.00000000000000000e+00 1.54241958288180072e-03 
4.14876580131151324e-03 0.00000000000000000e+00 1.54286941129961209e-03 
8.16884447569797036e-03 0.00000000000000000e+00 1.28162641838643326e-03 
8.16904700108963232e-03 0.00000000000000000e+00 1.28210042002257791e-03 
1.29089640198424525e-02 0.00000000000000000e+00 3.84965862530253951e-04 
1.29106621713788138e-02 0.00000000000000000e+00 3.85229365192168993e-04 
1.81089008271470564e-02 0.00000000000000000e+00 -1.02738962714563151e-03 
1.81087128713818338e-02 0.00000000000000000e+00 -1.02773909810168623e-03 
2.35845863295858355e-02 0.00000000000000000e+00 -2.83072708342226118e-03 
2.35843400071003920e-02 0.00000000000000000e+00 -2.83120368978229987e-03 
2.92085537349912987e-02 0.00000000000000000e+00 -4.90387430705684600e-03 
2.92081532073317496e-02 0.00000000000000000e+00 -4.90401446561516963e-03 
3.49001744029245470e-02 0.00000000000000000e+00 -7.15133130006948090e-03 
3.49002860295087314e-02 0.00000000000000000e+00 -7.15114220554076592e-03 
4.06071779498802937e-02 0.00000000000000000e+00 -9.49298662613780320e-03 
4.06071606078396846e-02 0.00000000000000000e+00 -9.49280861051021718e-03 
4.62998030127358684e-02 0.00000000000000000e+00 -1.18652713933130819e-02 
4.63002104952893179e-02 0.00000000000000000e+00 -1.18653942554748128e-02 
4.27376044494304913e-02 0.00000000000000000e+00 -2.03827085697943222e-02 
4.27376758152703401e-02 0.00000000000000000e+00 -2.03828258923197461e-02 
-9.58177177692468681e-06 0.00000000000000000e+00 -1.51823308515622928e-06 
-9.99327318088136934e-06 0.00000000000000000e+00 -1.52135610368298729e-06 
8.53385796083182789e-04 0.00000000000000000e+00 -1.58390693158588043e-03 
8.53494901702040072e-04 0.00000000000000000e+00 -1.58385962791476854e-03 
3.14026801257591328e-03 0.00000000000000000e+00 -3.10274528544186336e-03 
3.14008579854728551e-03 0.00000000000000000e+00 -3.10360253653879908e-03 
6.48578858994205108e-03 0.00000000000000000e+00 -4.75738921673532836e-03 
6.48629604999151517e-03 0.00000000000000000e+00 -4.75719865162022807e-03 
1.06197971099372176e-02 0.00000000000000000e+00 -6.61624818756536854e-03 
1.06197947278894953e-02 0.00000000000000000e+00 -6.61618583531799892e-03 
1.53306674795167762e-02 0.00000000000000000e+00 -8.67773506542704812e-03 
1.53306145022623751e-02 0.00000000000000000e+00 -8.67778195012197488e-03 
2.04478263332820917e-02 0.00000000000000000e+00 -1.09001810382931569e-02 
2.04475150663469100e-02 0.00000000000000000e+00 -1.09004776093960601e-02 
2.58372488437962101e-02 0.00000000000000000e+00 -1.32291579835997451e-02 
2.58372442115252267e-02 0.00000000000000000e+00 -1.32293967502110175e-02 
3.13999074645010187e-02 0.00000000000000000e+00 -1.56125893237806807e-02 
3.13994038712507167e-02 0.00000000000000000e+00 -1.56130187534556913e-02 
3.70549702581212531e-02 0.00000000000000000e+00 -1.80083216845888829e-02 
3.70549417247703836e-02 0.00000000000000000e+00 -1.80082966011538906e-02 

