# vtk DataFile Version 2.0

ASCII

DATASET UNSTRUCTURED_GRID

POINTS 21 double 

0.00000000000000000e+00  6.00000000000000099e-03  4.00000000000000008e-03
0.00000000000000000e+00  6.00000000000000099e-03  1.20000000000000020e-02
0.00000000000000000e+00  6.00000000000000099e-03  2.00000000000000004e-02
0.00000000000000000e+00  5.99999999999999926e-03  2.80000000000000041e-02
0.00000000000000000e+00  6.00000000000000099e-03  3.60000000000000042e-02
0.00000000000000000e+00  6.00000000000000099e-03  4.39999999999999974e-02
0.00000000000000000e+00  6.00000000000000099e-03  5.19999999999999976e-02
0.00000000000000000e+00  5.99999999999999926e-03  5.99999999999999908e-02
0.00000000000000000e+00  5.99999999999999926e-03  6.79999999999999910e-02
0.00000000000000000e+00  6.00000000000000012e-03  7.59999999999999981e-02
6.00000000000000099e-03  6.00000000000000099e-03  8.00000000000000017e-02
1.20000000000000020e-02  6.00000000000000099e-03  4.00000000000000008e-03
1.20000000000000020e-02  6.00000000000000099e-03  1.19999999999999985e-02
1.20000000000000020e-02  6.00000000000000099e-03  2.00000000000000004e-02
1.20000000000000020e-02  6.00000000000000099e-03  2.80000000000000041e-02
1.20000000000000020e-02  6.00000000000000099e-03  3.59999999999999973e-02
1.20000000000000020e-02  6.00000000000000099e-03  4.40000000000000044e-02
1.20000000000000020e-02  6.00000000000000099e-03  5.19999999999999976e-02
1.20000000000000020e-02  6.00000000000000099e-03  5.99999999999999978e-02
1.20000000000000002e-02  5.99999999999999926e-03  6.79999999999999910e-02
1.20000000000000002e-02  6.00000000000000012e-03  7.59999999999999981e-02

CELLS 0 0


CELL_TYPES 0


POINT_DATA 21

SCALARS Rank unsigned_int
LOOKUP_TABLE default
0 0 0 0 0 0 0 0 0 0 0 0 0 0 0 0 0 0 0 0 0 

VECTORS Forces0 double
2.77818501057364609e-01 -5.71308186499475296e-19 -2.00798880298302118e-02 
2.63929151488676794e-01 1.76568246423685126e-20 -4.08688783154421906e-02 
2.32068268906635899e-01 4.05062837343892435e-46 -4.89649431429088136e-02 
1.86002687946458328e-01 1.40129846432481707e-45 -4.55836415470579973e-02 
1.37747835234912547e-01 1.24155133968298487e-18 -3.67132386997587462e-02 
9.41087988629647071e-02 1.71564973159390018e-20 -2.63392780987424038e-02 
4.93244557570752112e-02 -4.50665949804477338e-19 -1.41404347487078998e-02 
8.38062203796248809e-03 3.27598796313310648e-20 -2.39455898424018694e-03 
-1.63871713665418132e-02 3.40312783901995990e-23 4.83579853891946687e-03 
-7.66817790550809036e-03 1.45543599440642656e-20 2.28443553824005672e-03 
1.44147391544193751e-03 -1.64025866531360577e-23 4.95807930653727625e-03 
4.92049021086548351e-04 -2.53033656906302925e-27 -3.47608844654395942e-05 
5.10186112457360736e-04 -1.43316582692959948e-22 -8.03355615171293797e-05 
5.27400830364418527e-04 -4.89818272164572378e-26 -1.11919231541759084e-04 
5.51338154292185215e-04 -1.57081429388557871e-22 -1.35825169457356223e-04 
5.89400638798729423e-04 -1.61603719107339342e-22 -1.57851841094554333e-04 
6.42266159837719184e-04 5.92780270721360903e-21 -1.80313010677106178e-04 
7.10515505229562393e-04 1.68196462160706737e-22 -2.04653869274208151e-04 
7.91936367027576546e-04 7.46045116944800990e-21 -2.30807592801868250e-04 
9.45578391144854765e-04 -1.20424086777913967e-46 -2.76457501741822216e-04 
1.11238446366526992e-03 2.01997546776966896e-22 -3.24905383704983917e-04 

