# vtk DataFile Version 2.0

ASCII

DATASET UNSTRUCTURED_GRID

POINTS 21 double 

0.00000000000000000e+00  6.00000000000000099e-03  4.00000000000000008e-03
0.00000000000000000e+00  6.00000000000000099e-03  1.20000000000000020e-02
0.00000000000000000e+00  6.00000000000000099e-03  2.00000000000000004e-02
0.00000000000000000e+00  5.99999999999999926e-03  2.80000000000000041e-02
0.00000000000000000e+00  6.00000000000000099e-03  3.60000000000000042e-02
0.00000000000000000e+00  6.00000000000000099e-03  4.39999999999999974e-02
0.00000000000000000e+00  6.00000000000000099e-03  5.19999999999999976e-02
0.00000000000000000e+00  5.99999999999999926e-03  5.99999999999999908e-02
0.00000000000000000e+00  5.99999999999999926e-03  6.79999999999999910e-02
0.00000000000000000e+00  6.00000000000000012e-03  7.59999999999999981e-02
6.00000000000000099e-03  6.00000000000000099e-03  8.00000000000000017e-02
1.20000000000000020e-02  6.00000000000000099e-03  4.00000000000000008e-03
1.20000000000000020e-02  6.00000000000000099e-03  1.19999999999999985e-02
1.20000000000000020e-02  6.00000000000000099e-03  2.00000000000000004e-02
1.20000000000000020e-02  6.00000000000000099e-03  2.80000000000000041e-02
1.20000000000000020e-02  6.00000000000000099e-03  3.59999999999999973e-02
1.20000000000000020e-02  6.00000000000000099e-03  4.40000000000000044e-02
1.20000000000000020e-02  6.00000000000000099e-03  5.19999999999999976e-02
1.20000000000000020e-02  6.00000000000000099e-03  5.99999999999999978e-02
1.20000000000000002e-02  5.99999999999999926e-03  6.79999999999999910e-02
1.20000000000000002e-02  6.00000000000000012e-03  7.59999999999999981e-02

CELLS 0 0


CELL_TYPES 0


POINT_DATA 21

SCALARS Rank unsigned_int
LOOKUP_TABLE default
0 0 0 0 0 0 0 0 0 0 0 0 0 0 0 0 0 0 0 0 0 

VECTORS Forces0 double
2.36094180407068172e-01 -9.37314889315438116e-19 -3.32989349869887430e-02 
2.26411664131674351e-01 -2.94406697474921014e-24 -7.82604684092591124e-02 
1.96657081641599174e-01 -3.82537381589954243e-23 -1.03120568101596768e-01 
1.51262415181926374e-01 1.99843458538136354e-20 -1.01795250081527858e-01 
1.09076261943770014e-01 -2.34448774881225930e-18 -8.67297407793077429e-02 
8.09788731704719766e-02 0.00000000000000000e+00 -7.20587112357946591e-02 
6.79843781763782296e-02 1.64194433242666666e-18 -6.49074170656987193e-02 
6.00954579708020201e-02 -1.47859098713116793e-18 -5.97112200190524703e-02 
5.51881202711817440e-02 1.40571161163626248e-20 -5.57884710601814909e-02 
5.27942286514671635e-02 -1.31389391618797564e-18 -5.35167552619643938e-02 
-1.29331749080900302e-03 4.34867549573956511e-20 -1.25300527466854590e-03 
-1.55172958334872827e-04 4.28260311178810362e-22 2.11974340106684657e-05 
-1.52412140266219257e-04 -8.32092858482151501e-22 5.44305769345976493e-05 
-1.40056844771235632e-04 -1.45303008992370765e-21 7.45906236911604602e-05 
-1.23780355675449282e-04 1.19962953362062676e-22 8.40564593565044905e-05 
-1.08601693386449155e-04 1.42600440370405418e-21 8.68281173062036940e-05 
-9.24917622865883634e-05 1.43163795093319230e-22 8.25449353801392579e-05 
-7.09216559254163793e-05 2.77660946280683605e-25 6.78600675066312706e-05 
-4.83232922580189379e-05 1.75248563569391689e-22 4.81108840444903954e-05 
-2.51883726328270268e-05 8.47747364690778001e-22 2.54415103258450343e-05 
1.20153941115883005e-05 6.26901151463677577e-22 -1.26182760445490695e-05 

