# vtk DataFile Version 2.0

ASCII

DATASET UNSTRUCTURED_GRID

POINTS 21 double 

0.00000000000000000e+00  6.00000000000000099e-03  4.00000000000000008e-03
0.00000000000000000e+00  6.00000000000000099e-03  1.20000000000000020e-02
0.00000000000000000e+00  6.00000000000000099e-03  2.00000000000000004e-02
0.00000000000000000e+00  5.99999999999999926e-03  2.80000000000000041e-02
0.00000000000000000e+00  6.00000000000000099e-03  3.60000000000000042e-02
0.00000000000000000e+00  6.00000000000000099e-03  4.39999999999999974e-02
0.00000000000000000e+00  6.00000000000000099e-03  5.19999999999999976e-02
0.00000000000000000e+00  5.99999999999999926e-03  5.99999999999999908e-02
0.00000000000000000e+00  5.99999999999999926e-03  6.79999999999999910e-02
0.00000000000000000e+00  6.00000000000000012e-03  7.59999999999999981e-02
6.00000000000000099e-03  6.00000000000000099e-03  8.00000000000000017e-02
1.20000000000000020e-02  6.00000000000000099e-03  4.00000000000000008e-03
1.20000000000000020e-02  6.00000000000000099e-03  1.19999999999999985e-02
1.20000000000000020e-02  6.00000000000000099e-03  2.00000000000000004e-02
1.20000000000000020e-02  6.00000000000000099e-03  2.80000000000000041e-02
1.20000000000000020e-02  6.00000000000000099e-03  3.59999999999999973e-02
1.20000000000000020e-02  6.00000000000000099e-03  4.40000000000000044e-02
1.20000000000000020e-02  6.00000000000000099e-03  5.19999999999999976e-02
1.20000000000000020e-02  6.00000000000000099e-03  5.99999999999999978e-02
1.20000000000000002e-02  5.99999999999999926e-03  6.79999999999999910e-02
1.20000000000000002e-02  6.00000000000000012e-03  7.59999999999999981e-02

CELLS 0 0


CELL_TYPES 0


POINT_DATA 21

SCALARS Rank unsigned_int
LOOKUP_TABLE default
0 0 0 0 0 0 0 0 0 0 0 0 0 0 0 0 0 0 0 0 0 

VECTORS Forces0 double
2.15070458342461662e-01 1.98229951129385358e-20 -1.34333504102589945e-03 
1.27005873025199778e-01 9.11700489233338645e-21 -2.48965556262424983e-04 
2.16566318363180452e-02 -2.72711538063046615e-21 1.90420618305127031e-05 
3.59971834574129498e-03 7.25105848925887093e-27 5.51681174825838667e-06 
1.08087555090727403e-03 2.11787301664390801e-22 1.75152290877005519e-06 
3.80872307791163198e-04 1.99671615514197115e-28 1.22491256014088905e-06 
1.33636590314876590e-04 1.76655419881220519e-22 1.11437580098470859e-06 
3.51579535691437880e-05 1.72450844992207677e-22 1.00170857933973811e-06 
-2.64430123259747448e-05 1.70485065018052878e-22 8.69405432375579598e-07 
-9.57427358734114334e-05 1.69330372833801733e-22 7.30536259383215133e-07 
1.36019095950964177e-07 -5.06963892995990593e-22 5.46813054127993372e-04 
2.44642197424866189e-05 3.34095588761524456e-52 -1.08491155164591904e-07 
3.13386800419687586e-05 1.68676682909969830e-22 -9.46072132735528371e-08 
3.88564403643176380e-05 1.68729937694250893e-22 -8.07343458522551876e-09 
4.79044749765889039e-05 -1.68473967705543164e-22 2.87583067127693578e-08 
5.89269722028939525e-05 -1.68329579926189720e-22 2.38160891585783501e-08 
7.21806380971848355e-05 2.75449591719694257e-30 7.63476232580921521e-09 
8.90997393076408182e-05 1.68295194499335679e-22 -1.73691895489645667e-08 
1.06370046030142493e-04 1.68327228151712255e-22 -3.05144690534878924e-08 
1.32640607363258541e-04 -1.03226908388255888e-28 -4.73187372036161994e-08 
1.57344405361888523e-04 -1.68417758149232501e-22 -5.19270584285163414e-08 

