# vtk DataFile Version 2.0

ASCII

DATASET UNSTRUCTURED_GRID

POINTS 44 double 

0.00000000000000000e+00  1.20000000000000002e-02  0.00000000000000000e+00
0.00000000000000000e+00  1.20000000000000002e-02  8.00000000000000017e-03
0.00000000000000000e+00  0.00000000000000000e+00  8.00000000000000017e-03
0.00000000000000000e+00  0.00000000000000000e+00  0.00000000000000000e+00
0.00000000000000000e+00  1.20000000000000002e-02  1.60000000000000003e-02
0.00000000000000000e+00  0.00000000000000000e+00  1.60000000000000003e-02
0.00000000000000000e+00  1.20000000000000002e-02  2.40000000000000005e-02
0.00000000000000000e+00  0.00000000000000000e+00  2.40000000000000005e-02
0.00000000000000000e+00  1.20000000000000002e-02  3.20000000000000007e-02
0.00000000000000000e+00  0.00000000000000000e+00  3.20000000000000007e-02
0.00000000000000000e+00  1.20000000000000002e-02  4.00000000000000008e-02
0.00000000000000000e+00  0.00000000000000000e+00  4.00000000000000008e-02
0.00000000000000000e+00  1.20000000000000002e-02  4.80000000000000010e-02
0.00000000000000000e+00  0.00000000000000000e+00  4.80000000000000010e-02
0.00000000000000000e+00  1.20000000000000002e-02  5.60000000000000012e-02
0.00000000000000000e+00  0.00000000000000000e+00  5.60000000000000012e-02
0.00000000000000000e+00  1.20000000000000002e-02  6.40000000000000013e-02
0.00000000000000000e+00  0.00000000000000000e+00  6.40000000000000013e-02
0.00000000000000000e+00  1.20000000000000002e-02  7.19999999999999946e-02
0.00000000000000000e+00  0.00000000000000000e+00  7.19999999999999946e-02
0.00000000000000000e+00  1.20000000000000002e-02  8.00000000000000017e-02
0.00000000000000000e+00  0.00000000000000000e+00  8.00000000000000017e-02
1.20000000000000002e-02  1.20000000000000002e-02  8.00000000000000017e-02
1.20000000000000002e-02  0.00000000000000000e+00  8.00000000000000017e-02
1.20000000000000002e-02  1.20000000000000002e-02  0.00000000000000000e+00
1.20000000000000002e-02  0.00000000000000000e+00  0.00000000000000000e+00
1.20000000000000002e-02  0.00000000000000000e+00  8.00000000000000017e-03
1.20000000000000002e-02  1.20000000000000002e-02  8.00000000000000017e-03
1.20000000000000002e-02  0.00000000000000000e+00  1.60000000000000003e-02
1.20000000000000002e-02  1.20000000000000002e-02  1.60000000000000003e-02
1.20000000000000002e-02  0.00000000000000000e+00  2.40000000000000005e-02
1.20000000000000002e-02  1.20000000000000002e-02  2.40000000000000005e-02
1.20000000000000002e-02  0.00000000000000000e+00  3.20000000000000007e-02
1.20000000000000002e-02  1.20000000000000002e-02  3.20000000000000007e-02
1.20000000000000002e-02  0.00000000000000000e+00  4.00000000000000008e-02
1.20000000000000002e-02  1.20000000000000002e-02  4.00000000000000008e-02
1.20000000000000002e-02  0.00000000000000000e+00  4.80000000000000010e-02
1.20000000000000002e-02  1.20000000000000002e-02  4.80000000000000010e-02
1.20000000000000002e-02  0.00000000000000000e+00  5.60000000000000012e-02
1.20000000000000002e-02  1.20000000000000002e-02  5.60000000000000012e-02
1.20000000000000002e-02  0.00000000000000000e+00  6.40000000000000013e-02
1.20000000000000002e-02  1.20000000000000002e-02  6.40000000000000013e-02
1.20000000000000002e-02  0.00000000000000000e+00  7.19999999999999946e-02
1.20000000000000002e-02  1.20000000000000002e-02  7.19999999999999946e-02

CELLS 0 0


CELL_TYPES 0


POINT_DATA 44

SCALARS Rank unsigned_int
LOOKUP_TABLE default
0 0 0 0 0 0 0 0 0 0 0 0 0 0 0 0 0 0 0 0 0 0 0 0 0 0 0 0 0 0 0 0 0 0 0 0 0 0 0 0 0 0 0 0 

VECTORS Displacements0 double
-6.13420140238482727e-09 0.00000000000000000e+00 3.72908627764347779e-09 
1.19714365868147328e-06 0.00000000000000000e+00 1.45307728716287299e-06 
1.19703328274156206e-06 0.00000000000000000e+00 1.45322698354399130e-06 
-6.45620587642765491e-09 0.00000000000000000e+00 3.98807768038147517e-09 
4.02721683546612428e-06 0.00000000000000000e+00 2.53238216626011830e-06 
4.02678514582065882e-06 0.00000000000000000e+00 2.53285329044971996e-06 
8.05526184987045402e-06 0.00000000000000000e+00 3.31333423022303857e-06 
8.05436797389303625e-06 0.00000000000000000e+00 3.31370425332294169e-06 
1.29039643853895186e-05 0.00000000000000000e+00 3.85229827166636815e-06 
1.29046287891295293e-05 0.00000000000000000e+00 3.85333107195886816e-06 
1.83026487931932474e-05 0.00000000000000000e+00 4.20490894623411251e-06 
1.83026518103886852e-05 0.00000000000000000e+00 4.20445077529984711e-06 
2.40353509798264734e-05 0.00000000000000000e+00 4.41499709038825482e-06 
2.40353430827895400e-05 0.00000000000000000e+00 4.41437103217351003e-06 
2.99419054406428351e-05 0.00000000000000000e+00 4.52814554900318723e-06 
2.99417300852920982e-05 0.00000000000000000e+00 4.52788093565045213e-06 
3.59268372896670576e-05 0.00000000000000000e+00 4.58279125435861704e-06 
3.59267664142855119e-05 0.00000000000000000e+00 4.58300313857734374e-06 
4.19385996774606062e-05 0.00000000000000000e+00 4.60516429412921555e-06 
4.19387731561241423e-05 0.00000000000000000e+00 4.60522403696456207e-06 
4.79483858156090571e-05 0.00000000000000000e+00 4.61277389331424432e-06 
4.79482915692310891e-05 0.00000000000000000e+00 4.61279735616209019e-06 
4.79546291011703497e-05 0.00000000000000000e+00 -4.40564447988608275e-06 
4.79547619996392857e-05 0.00000000000000000e+00 -4.40578074563196128e-06 
-7.65778777532091423e-09 0.00000000000000000e+00 -4.73247058616103021e-09 
-8.00700917658746153e-09 0.00000000000000000e+00 -4.91870044920128156e-09 
1.17946788394102815e-06 0.00000000000000000e+00 -1.42902304753958715e-06 
1.17948223040660844e-06 0.00000000000000000e+00 -1.42889008596356003e-06 
4.00847872291483320e-06 0.00000000000000000e+00 -2.48723976552434455e-06 
4.00830528919633402e-06 0.00000000000000000e+00 -2.48833216305383514e-06 
8.03413595340036723e-06 0.00000000000000000e+00 -3.24546678102254609e-06 
8.03454762908166730e-06 0.00000000000000000e+00 -3.24484805445589037e-06 
1.28882335841273188e-05 0.00000000000000000e+00 -3.76102351027796193e-06 
1.28878579890456202e-05 0.00000000000000000e+00 -3.76091298445579303e-06 
1.82903903305312020e-05 0.00000000000000000e+00 -4.08760996221226220e-06 
1.82904193015572433e-05 0.00000000000000000e+00 -4.08795609079645516e-06 
2.40249311513289708e-05 0.00000000000000000e+00 -4.27632590928617336e-06 
2.40250341466481500e-05 0.00000000000000000e+00 -4.27695405800219115e-06 
2.99347235693800833e-05 0.00000000000000000e+00 -4.36960303609541747e-06 
2.99348981317287122e-05 0.00000000000000000e+00 -4.36989047756484599e-06 
3.59221909409392540e-05 0.00000000000000000e+00 -4.40311870917449327e-06 
3.59223356513439849e-05 0.00000000000000000e+00 -4.40349072365657651e-06 
4.19362083091419149e-05 0.00000000000000000e+00 -4.41009527270464431e-06 
4.19361230684415050e-05 0.00000000000000000e+00 -4.41003317162255425e-06 

