# vtk DataFile Version 2.0

ASCII

DATASET UNSTRUCTURED_GRID

POINTS 21 double 

0.00000000000000000e+00  6.00000000000000099e-03  4.00000000000000008e-03
0.00000000000000000e+00  6.00000000000000099e-03  1.20000000000000020e-02
0.00000000000000000e+00  6.00000000000000099e-03  2.00000000000000004e-02
0.00000000000000000e+00  5.99999999999999926e-03  2.80000000000000041e-02
0.00000000000000000e+00  6.00000000000000099e-03  3.60000000000000042e-02
0.00000000000000000e+00  6.00000000000000099e-03  4.39999999999999974e-02
0.00000000000000000e+00  6.00000000000000099e-03  5.19999999999999976e-02
0.00000000000000000e+00  5.99999999999999926e-03  5.99999999999999908e-02
0.00000000000000000e+00  5.99999999999999926e-03  6.79999999999999910e-02
0.00000000000000000e+00  6.00000000000000012e-03  7.59999999999999981e-02
6.00000000000000099e-03  6.00000000000000099e-03  8.00000000000000017e-02
1.20000000000000020e-02  6.00000000000000099e-03  4.00000000000000008e-03
1.20000000000000020e-02  6.00000000000000099e-03  1.19999999999999985e-02
1.20000000000000020e-02  6.00000000000000099e-03  2.00000000000000004e-02
1.20000000000000020e-02  6.00000000000000099e-03  2.80000000000000041e-02
1.20000000000000020e-02  6.00000000000000099e-03  3.59999999999999973e-02
1.20000000000000020e-02  6.00000000000000099e-03  4.40000000000000044e-02
1.20000000000000020e-02  6.00000000000000099e-03  5.19999999999999976e-02
1.20000000000000020e-02  6.00000000000000099e-03  5.99999999999999978e-02
1.20000000000000002e-02  5.99999999999999926e-03  6.79999999999999910e-02
1.20000000000000002e-02  6.00000000000000012e-03  7.59999999999999981e-02

CELLS 0 0


CELL_TYPES 0


POINT_DATA 21

SCALARS Rank unsigned_int
LOOKUP_TABLE default
0 0 0 0 0 0 0 0 0 0 0 0 0 0 0 0 0 0 0 0 0 

VECTORS Forces0 double
9.59816714087833488e-05 1.68375516357893875e-22 -2.33646714700969351e-09 
8.76005409282859434e-05 9.43443307353752932e-26 9.37392486374055371e-11 
7.84988797463237020e-05 5.78035649383946173e-31 2.91240431469801071e-09 
6.86975275100439433e-05 1.68364189020121173e-22 6.84489465105346224e-09 
5.81900801522893503e-05 -7.09219029365589634e-52 1.13271929778000553e-08 
4.69504714441449356e-05 1.01127372678741412e-25 1.60019878740834332e-08 
3.49298972506462827e-05 7.52351326739011177e-26 2.07766249532352292e-08 
2.20417135152393455e-05 -1.68337320287846802e-22 2.58399462036897164e-08 
8.03714072962369358e-06 4.04391666048242387e-30 3.13144767605079208e-08 
-7.02736437970074052e-06 -7.58185621999791308e-27 3.42706438135075205e-08 
4.87310635491402460e-08 -2.53515184278674693e-22 5.84457515646695080e-05 
-1.51205766669921369e-05 1.68343004724216111e-22 3.50627529065898400e-10 
-7.56426499035724800e-06 -1.68355475422349800e-22 -4.75112223314981509e-10 
-1.25828340808962915e-07 3.36718517414426177e-22 -1.55352979379338743e-09 
7.18667844030375182e-06 -1.54788200374734238e-26 -2.83179346709325688e-09 
1.43551816919360874e-05 3.09188241126954346e-26 -4.16065429491149571e-09 
2.13546406176383798e-05 1.68411159033447998e-22 -5.53550114811025762e-09 
2.81554975664643391e-05 -1.68304796918109541e-22 -7.08829592593104054e-09 
3.46828429922373804e-05 3.36693865013846922e-22 -8.99541796027875362e-09 
4.08671490975163091e-05 -1.68366311121468164e-22 -1.04037325830141762e-08 
4.76262358356499871e-05 -1.65229350586246320e-30 -1.23196891270749125e-08 

