# vtk DataFile Version 2.0

ASCII

DATASET UNSTRUCTURED_GRID

POINTS 281 double 

0.00000000000000000e+00  6.00000000000000012e-03  8.68039800000000063e-03
0.00000000000000000e+00  6.00000000000000012e-03  2.15013699999999988e-02
0.00000000000000000e+00  5.99999699999999997e-03  3.38432499999999983e-02
0.00000000000000000e+00  6.00000000000000012e-03  4.61511800000000000e-02
0.00000000000000000e+00  5.99999399999999981e-03  5.84285100000000029e-02
0.00000000000000000e+00  5.99999899999999978e-03  7.03572799999999943e-02
0.00000000000000000e+00  6.00000000000000012e-03  7.56573400000000035e-02
0.00000000000000000e+00  6.00000000000000012e-03  1.52458600000000000e-02
0.00000000000000000e+00  5.99999899999999978e-03  2.76822099999999988e-02
0.00000000000000000e+00  5.99999899999999978e-03  3.99985900000000005e-02
0.00000000000000000e+00  5.99999800000000031e-03  5.22986000000000006e-02
0.00000000000000000e+00  5.99999800000000031e-03  6.44963600000000026e-02
0.00000000000000000e+00  3.00000000000000006e-03  3.07692300000000007e-03
0.00000000000000000e+00  3.00000000000000006e-03  1.04940499999999996e-02
0.00000000000000000e+00  3.00000000000000006e-03  7.41712199999999995e-03
0.00000000000000000e+00  3.00000000000000006e-03  2.30583799999999998e-02
0.00000000000000000e+00  3.00000000000000006e-03  1.99814599999999995e-02
0.00000000000000000e+00  2.99999900000000016e-03  3.53831699999999985e-02
0.00000000000000000e+00  2.99999900000000016e-03  3.23062400000000000e-02
0.00000000000000000e+00  3.00000000000000006e-03  4.76909699999999992e-02
0.00000000000000000e+00  3.00000000000000006e-03  4.46140500000000023e-02
0.00000000000000000e+00  2.99999699999999991e-03  5.99834799999999987e-02
0.00000000000000000e+00  2.99999699999999991e-03  5.69065600000000019e-02
0.00000000000000000e+00  2.99999900000000016e-03  7.21017199999999941e-02
0.00000000000000000e+00  2.99999900000000016e-03  6.90247900000000025e-02
0.00000000000000000e+00  3.00000000000000006e-03  7.78286700000000026e-02
0.00000000000000000e+00  3.00000000000000006e-03  7.47517500000000057e-02
0.00000000000000000e+00  5.99999899999999978e-03  7.30073100000000058e-02
0.00000000000000000e+00  6.00000000000000012e-03  7.78286700000000026e-02
0.00000000000000000e+00  8.99999999999999932e-03  7.47517500000000057e-02
0.00000000000000000e+00  8.99999999999999932e-03  7.78286700000000026e-02
0.00000000000000000e+00  8.99999999999999932e-03  3.07692300000000007e-03
0.00000000000000000e+00  8.99999999999999932e-03  7.41712199999999995e-03
0.00000000000000000e+00  8.99999999999999932e-03  1.04940499999999996e-02
0.00000000000000000e+00  8.99999999999999932e-03  1.99814599999999995e-02
0.00000000000000000e+00  8.99999999999999932e-03  2.30583799999999998e-02
0.00000000000000000e+00  8.99999899999999985e-03  3.23062400000000000e-02
0.00000000000000000e+00  8.99999899999999985e-03  3.53831699999999985e-02
0.00000000000000000e+00  8.99999999999999932e-03  4.46140500000000023e-02
0.00000000000000000e+00  8.99999999999999932e-03  4.76909699999999992e-02
0.00000000000000000e+00  8.99999699999999916e-03  5.69065600000000019e-02
0.00000000000000000e+00  8.99999699999999916e-03  5.99834799999999987e-02
0.00000000000000000e+00  8.99999899999999985e-03  6.90247900000000025e-02
0.00000000000000000e+00  8.99999899999999985e-03  7.21017199999999941e-02
0.00000000000000000e+00  6.00000000000000012e-03  4.34019900000000031e-03
0.00000000000000000e+00  3.00000000000000006e-03  1.37767800000000006e-02
0.00000000000000000e+00  6.00000000000000012e-03  1.19631300000000006e-02
0.00000000000000000e+00  3.00000000000000006e-03  1.68536999999999992e-02
0.00000000000000000e+00  6.00000000000000012e-03  1.83736200000000002e-02
0.00000000000000000e+00  5.99999800000000031e-03  3.07627299999999985e-02
0.00000000000000000e+00  3.00000000000000006e-03  2.92257200000000002e-02
0.00000000000000000e+00  3.00000000000000006e-03  2.61487999999999998e-02
0.00000000000000000e+00  8.99999999999999932e-03  2.92257200000000002e-02
0.00000000000000000e+00  6.00000000000000012e-03  4.30748800000000029e-02
0.00000000000000000e+00  2.99999900000000016e-03  4.15377600000000000e-02
0.00000000000000000e+00  2.99999900000000016e-03  3.84608300000000014e-02
0.00000000000000000e+00  8.99999899999999985e-03  4.15377600000000000e-02
0.00000000000000000e+00  5.99999599999999963e-03  5.53635499999999975e-02
0.00000000000000000e+00  2.99999900000000016e-03  5.38416099999999981e-02
0.00000000000000000e+00  2.99999900000000016e-03  5.07646799999999995e-02
0.00000000000000000e+00  8.99999899999999985e-03  5.38416099999999981e-02
0.00000000000000000e+00  5.99999800000000031e-03  6.74268199999999984e-02
0.00000000000000000e+00  2.99999900000000016e-03  6.60943300000000067e-02
0.00000000000000000e+00  2.99999900000000016e-03  6.30174099999999959e-02
0.00000000000000000e+00  8.99999899999999985e-03  6.60943300000000067e-02
0.00000000000000000e+00  5.99999899999999978e-03  4.92248900000000003e-02
0.00000000000000000e+00  8.99999999999999932e-03  1.68536999999999992e-02
0.00000000000000000e+00  5.99999899999999978e-03  2.45917899999999988e-02
0.00000000000000000e+00  8.99999999999999932e-03  2.61487999999999998e-02
0.00000000000000000e+00  8.99999999999999932e-03  1.37767800000000006e-02
0.00000000000000000e+00  5.99999800000000031e-03  3.69209200000000029e-02
0.00000000000000000e+00  8.99999899999999985e-03  3.84608300000000014e-02
0.00000000000000000e+00  8.99999899999999985e-03  5.07646799999999995e-02
0.00000000000000000e+00  5.99999599999999963e-03  6.14624299999999985e-02
0.00000000000000000e+00  8.99999899999999985e-03  6.30174099999999959e-02
1.20000000000000002e-02  1.20000000000000002e-02  8.00000000000000017e-02
0.00000000000000000e+00  0.00000000000000000e+00  8.00000000000000017e-02
1.20000000000000002e-02  6.00000000000000012e-03  0.00000000000000000e+00
1.20000000000000002e-02  3.00000000000000006e-03  0.00000000000000000e+00
1.20000000000000002e-02  8.99999999999999932e-03  0.00000000000000000e+00
1.20000000000000002e-02  0.00000000000000000e+00  8.00000000000000017e-02
1.20000000000000002e-02  0.00000000000000000e+00  0.00000000000000000e+00
0.00000000000000000e+00  1.20000000000000002e-02  0.00000000000000000e+00
1.20000000000000002e-02  5.99999899999999978e-03  8.68039699999999942e-03
1.20000000000000002e-02  5.99999899999999978e-03  1.52458600000000000e-02
1.20000000000000002e-02  5.99999899999999978e-03  2.15013699999999988e-02
1.20000000000000002e-02  6.00000000000000012e-03  2.76822099999999988e-02
1.20000000000000002e-02  5.99999899999999978e-03  3.38432399999999967e-02
1.20000000000000002e-02  5.99999800000000031e-03  3.99985900000000005e-02
1.20000000000000002e-02  5.99999699999999997e-03  4.61511800000000000e-02
1.20000000000000002e-02  5.99999300000000034e-03  5.22986100000000023e-02
1.20000000000000002e-02  5.99998599999999969e-03  5.84285400000000010e-02
1.20000000000000002e-02  5.99997800000000043e-03  6.44963800000000059e-02
1.20000000000000002e-02  5.99997500000000027e-03  7.03572999999999976e-02
1.20000000000000002e-02  5.99997500000000027e-03  7.56573600000000068e-02
1.20000000000000002e-02  3.00000000000000006e-03  3.07692300000000007e-03
1.20000000000000002e-02  3.00000000000000006e-03  7.41712099999999961e-03
1.20000000000000002e-02  3.00000000000000006e-03  1.04940399999999996e-02
1.20000000000000002e-02  2.99999900000000016e-03  1.37767800000000006e-02
1.20000000000000002e-02  2.99999900000000016e-03  1.68536999999999992e-02
1.20000000000000002e-02  5.99999899999999978e-03  1.19631300000000006e-02
1.20000000000000002e-02  3.00000000000000006e-03  1.99814500000000013e-02
1.20000000000000002e-02  3.00000000000000006e-03  2.30583799999999998e-02
1.20000000000000002e-02  5.99999899999999978e-03  1.83736099999999986e-02
1.20000000000000002e-02  3.00000000000000006e-03  2.61487999999999998e-02
1.20000000000000002e-02  3.00000000000000006e-03  2.92257200000000002e-02
1.20000000000000002e-02  5.99999899999999978e-03  2.45917899999999988e-02
1.20000000000000002e-02  3.00000000000000006e-03  3.23062299999999983e-02
1.20000000000000002e-02  3.00000000000000006e-03  3.53831599999999968e-02
1.20000000000000002e-02  5.99999899999999978e-03  3.07627200000000003e-02
1.20000000000000002e-02  2.99999900000000016e-03  3.84608300000000014e-02
1.20000000000000002e-02  2.99999900000000016e-03  4.15377499999999983e-02
1.20000000000000002e-02  5.99999899999999978e-03  3.69209100000000012e-02
1.20000000000000002e-02  2.99999799999999981e-03  4.46140500000000023e-02
1.20000000000000002e-02  2.99999799999999981e-03  4.76909800000000009e-02
1.20000000000000002e-02  5.99999800000000031e-03  4.30748800000000029e-02
1.20000000000000002e-02  2.99999699999999991e-03  5.07646900000000012e-02
1.20000000000000002e-02  2.99999699999999991e-03  5.38416099999999981e-02
1.20000000000000002e-02  5.99999500000000015e-03  4.92249000000000020e-02
1.20000000000000002e-02  2.99999299999999984e-03  5.69065799999999983e-02
1.20000000000000002e-02  2.99999299999999984e-03  5.99835000000000021e-02
1.20000000000000002e-02  5.99999000000000018e-03  5.53635800000000025e-02
1.20000000000000002e-02  2.99998900000000021e-03  6.30174200000000045e-02
1.20000000000000002e-02  2.99998900000000021e-03  6.60943499999999962e-02
1.20000000000000002e-02  5.99998200000000006e-03  6.14624599999999965e-02
1.20000000000000002e-02  2.99998799999999987e-03  6.90248100000000059e-02
1.20000000000000002e-02  2.99998799999999987e-03  7.21017300000000028e-02
1.20000000000000002e-02  5.99997700000000009e-03  6.74268400000000018e-02
1.20000000000000002e-02  2.99998699999999997e-03  7.47517600000000004e-02
1.20000000000000002e-02  2.99998699999999997e-03  7.78286799999999973e-02
1.20000000000000002e-02  5.99998700000000003e-03  7.78286799999999973e-02
1.20000000000000002e-02  5.99997500000000027e-03  7.30073299999999953e-02
1.20000000000000002e-02  8.99998699999999922e-03  7.78286799999999973e-02
1.20000000000000002e-02  8.99999999999999932e-03  3.07692300000000007e-03
[...]
POINT_DATA 281

SCALARS Rank unsigned_int
LOOKUP_TABLE default
0 0 0 0 0 0 0 0 0 0 0 0 0 0 0 0 0 0 0 0 0 0 0 0 0 0 0 0 0 0 0 0 0 0 0 0 0 0 0 0 0 0 0 0 0 0 0 0 0 0 0 0 0 0 0 0 0 0 0 0 0 0 0 0 0 0 0 0 0 0 0 0 0 0 0 0 0 0 0 0 0 0 0 0 0 0 0 0 0 0 0 0 0 0 0 0 0 0 0 0 0 0 0 0 0 0 0 0 0 0 0 0 0 0 0 0 0 0 0 0 0 0 0 0 0 0 0 0 0 0 0 0 0 0 0 0 0 0 0 0 0 0 0 0 0 0 0 0 0 0 0 0 0 0 0 0 0 0 0 0 0 0 0 0 0 0 0 0 0 0 0 0 0 0 0 0 0 0 0 0 0 0 0 0 0 0 0 0 0 0 0 0 0 0 0 0 0 0 0 0 0 0 0 0 0 0 0 0 0 0 0 0 0 0 0 0 0 0 0 0 0 0 0 0 0 0 0 0 0 0 0 0 0 0 0 0 0 0 0 0 0 0 0 0 0 0 0 0 0 0 0 0 0 0 0 0 0 0 0 0 0 0 0 0 0 0 0 0 0 0 0 0 0 0 0 0 0 0 0 0 0 

VECTORS Forces0 double
7.61797193836282679e-06 0.00000000000000000e+00 1.12293336956202841e-07 
7.10236902495580494e-06 0.00000000000000000e+00 -7.62271183371303655e-08 
5.51678582796500579e-06 0.00000000000000000e+00 5.89111706411629577e-08 
3.76386745999891642e-06 0.00000000000000000e+00 -4.05227636751629532e-08 
2.02145134024271107e-06 0.00000000000000000e+00 5.53158231994778509e-08 
3.03906599558722332e-07 0.00000000000000000e+00 -1.22707696417063510e-07 
-3.69016286979559172e-07 0.00000000000000000e+00 -3.34487250775399427e-07 
7.55296312584078386e-06 0.00000000000000000e+00 2.72988364784990159e-08 
6.39910346873949422e-06 0.00000000000000000e+00 -6.18062233836047635e-08 
4.62385305983710146e-06 0.00000000000000000e+00 1.04935184573179306e-07 
2.91306973786836963e-06 0.00000000000000000e+00 -1.54370730542093860e-07 
1.13412693038747833e-06 0.00000000000000000e+00 2.54928126124670808e-07 
7.22466525564896648e-06 0.00000000000000000e+00 1.08657075198013230e-08 
7.69598099151011274e-06 0.00000000000000000e+00 1.02866507953433165e-07 
7.56286673669446249e-06 0.00000000000000000e+00 1.08581357614307491e-07 
6.90535922406786458e-06 0.00000000000000000e+00 -8.65575044967875903e-08 
7.27955281328778916e-06 0.00000000000000000e+00 -5.81947779091294796e-08 
5.32912531108346700e-06 0.00000000000000000e+00 8.61977726820438683e-08 
5.71709212835514916e-06 0.00000000000000000e+00 2.68462432593911369e-08 
3.53252212860600281e-06 0.00000000000000000e+00 -8.79705805803966758e-08 
4.00472393864135659e-06 0.00000000000000000e+00 8.10215767926012796e-09 
1.80923351873510115e-06 0.00000000000000000e+00 1.38658035901538291e-07 
2.23038527769937617e-06 0.00000000000000000e+00 -2.38915851035221564e-08 
6.60017738623865260e-08 0.00000000000000000e+00 -2.73305011059660406e-07 
4.91901628593357995e-07 0.00000000000000000e+00 3.27073521070395819e-09 
-5.79350674683760802e-07 0.00000000000000000e+00 -1.27128138554526182e-07 
-2.66833029477783959e-07 0.00000000000000000e+00 -3.64552518559083191e-07 
-5.22865927000828019e-08 0.00000000000000000e+00 -3.29710585723144860e-07 
-5.79350674686943528e-07 0.00000000000000000e+00 -1.27128138557351884e-07 
-2.66833029479136671e-07 0.00000000000000000e+00 -3.64552518567985507e-07 
-5.79350674685513313e-07 0.00000000000000000e+00 -1.27128138554046126e-07 
7.22466525564988296e-06 0.00000000000000000e+00 1.08657075276812705e-08 
7.56286673669636916e-06 0.00000000000000000e+00 1.08581357602155692e-07 
7.69598099150612491e-06 0.00000000000000000e+00 1.02866507939632299e-07 
7.27955281328712932e-06 0.00000000000000000e+00 -5.81947779009451164e-08 
6.90535922406857609e-06 0.00000000000000000e+00 -8.65575044977788306e-08 
5.71709212835571583e-06 0.00000000000000000e+00 2.68462432511593796e-08 
5.32912531108251240e-06 0.00000000000000000e+00 8.61977726790062494e-08 
4.00472393864035201e-06 0.00000000000000000e+00 8.10215768964030497e-09 
3.53252212860507912e-06 0.00000000000000000e+00 -8.79705805704196865e-08 
2.23038527769762536e-06 0.00000000000000000e+00 -2.38915850978928814e-08 
1.80923351873804883e-06 0.00000000000000000e+00 1.38658035902769850e-07 
4.91901628592391530e-07 0.00000000000000000e+00 3.27073519745705111e-09 
6.60017738598687205e-08 0.00000000000000000e+00 -2.73305011062998140e-07 
7.39236084906686257e-06 0.00000000000000000e+00 5.45726533318766146e-08 
7.64629057267066550e-06 0.00000000000000000e+00 5.53760393616596045e-08 
7.72891929462460011e-06 0.00000000000000000e+00 8.53076435773621023e-08 
7.45988666132685406e-06 0.00000000000000000e+00 -4.34919332677147571e-09 
7.38017361381677013e-06 0.00000000000000000e+00 -3.26508834733532699e-08 
5.93997913282723439e-06 0.00000000000000000e+00 -6.31988962419442500e-09 
6.17954515606793690e-06 0.00000000000000000e+00 -3.66802091174124302e-08 
6.56040182695605240e-06 0.00000000000000000e+00 -7.91607232432169124e-08 
6.17954515606597856e-06 0.00000000000000000e+00 -3.66802091118386093e-08 
4.21704927076252768e-06 0.00000000000000000e+00 5.14536388641721055e-08 
4.41297047412278439e-06 0.00000000000000000e+00 8.44072830008568039e-08 
4.85771558525502996e-06 0.00000000000000000e+00 1.11414053051109625e-07 
4.41297047412299191e-06 0.00000000000000000e+00 8.44072829994139891e-08 
2.45114892975399491e-06 0.00000000000000000e+00 -9.04452315702425692e-08 
2.67994827945586875e-06 0.00000000000000000e+00 -1.34255919895608863e-07 
3.11847511490369185e-06 0.00000000000000000e+00 -1.50678818658441138e-07 
2.67994827945476126e-06 0.00000000000000000e+00 -1.34255919890423221e-07 
7.17744967435321875e-07 0.00000000000000000e+00 1.35224812652115182e-07 
9.04982798099696393e-07 0.00000000000000000e+00 2.10666655483959801e-07 
1.35315725668057867e-06 0.00000000000000000e+00 2.49367236215137734e-07 
9.04982798099914928e-07 0.00000000000000000e+00 2.10666655468526543e-07 
3.31839231527910502e-06 0.00000000000000000e+00 -1.26917654148703768e-07 
7.45988666132786203e-06 0.00000000000000000e+00 -4.34919332297469023e-09 
6.72435772081762851e-06 0.00000000000000000e+00 -8.77442573308332159e-08 
6.56040182695869345e-06 0.00000000000000000e+00 -7.91607232417395810e-08 
7.64629057266922894e-06 0.00000000000000000e+00 5.53760393813510692e-08 
5.10530673761383910e-06 0.00000000000000000e+00 1.04730882001547511e-07 
4.85771558525490290e-06 0.00000000000000000e+00 1.11414053050679968e-07 
3.11847511490362790e-06 0.00000000000000000e+00 -1.50678818659794591e-07 
1.58793319768143113e-06 0.00000000000000000e+00 2.05798618474029409e-07 
1.35315725668123406e-06 0.00000000000000000e+00 2.49367236208992192e-07 
1.99854701157263575e-06 0.00000000000000000e+00 3.99312070696949070e-07 
-7.47377047134789830e-07 0.00000000000000000e+00 4.01956034332364552e-07 
-8.07516285740008420e-07 0.00000000000000000e+00 -1.57538768400283654e-07 
-8.07516285745447642e-07 0.00000000000000000e+00 -1.57538768407309766e-07 
-8.07516285743043339e-07 0.00000000000000000e+00 -1.57538768397484819e-07 
1.99854701157499982e-06 0.00000000000000000e+00 3.99312070705112774e-07 
-8.07516285743445679e-07 0.00000000000000000e+00 -1.57538768401713711e-07 
6.69643315204193823e-06 0.00000000000000000e+00 -1.57207095526016658e-07 
-6.35954060577695777e-07 0.00000000000000000e+00 1.12065416123116720e-07 
-3.57242392651255029e-07 0.00000000000000000e+00 2.70542396657743936e-08 
-2.18622776252974661e-08 0.00000000000000000e+00 -7.64899931137742660e-08 
3.87886220954839821e-07 0.00000000000000000e+00 -6.25253389586562271e-08 
8.71823728229317711e-07 0.00000000000000000e+00 5.79176555063409984e-08 
1.43033477878369801e-06 0.00000000000000000e+00 1.03639262042056513e-07 
2.04014085770106380e-06 0.00000000000000000e+00 -4.27719815496888385e-08 
2.63264381436829576e-06 0.00000000000000000e+00 -1.58465825103984846e-07 
3.07012612143999872e-06 0.00000000000000000e+00 5.06459692130402699e-08 
3.25285852432371579e-06 0.00000000000000000e+00 2.50039741848288774e-07 
3.11812054076284446e-06 0.00000000000000000e+00 -1.29488528243148944e-07 
2.67444833111818720e-06 0.00000000000000000e+00 -3.43327900403275189e-07 
-7.95186044766284037e-07 0.00000000000000000e+00 1.08052556229093430e-08 
-6.79939924593036593e-07 0.00000000000000000e+00 1.08407382118541475e-07 
-5.69375315460030720e-07 0.00000000000000000e+00 1.02613066890629384e-07 
-4.28527769771496607e-07 0.00000000000000000e+00 5.51358980724405196e-08 
-2.75712233207149927e-07 0.00000000000000000e+00 -4.61846506049642127e-09 
-5.11308481031348517e-07 0.00000000000000000e+00 8.50632690372696566e-08 
-1.08042452962998859e-07 0.00000000000000000e+00 -5.85436073972468669e-08 
7.20602181130752139e-08 0.00000000000000000e+00 -8.67757755594665852e-08 
-1.96069316322503310e-07 0.00000000000000000e+00 -3.29632245296515423e-08 
2.77562323940859701e-07 0.00000000000000000e+00 -7.96510128257431515e-08 
4.98977792627294624e-07 0.00000000000000000e+00 -3.73285967404446636e-08 
1.70474630625365382e-07 0.00000000000000000e+00 -8.80310789078127304e-08 
7.38431546168611939e-07 0.00000000000000000e+00 2.62045298070804752e-08 
1.01297479434787169e-06 0.00000000000000000e+00 8.47079729859430395e-08 
6.13710635523554646e-07 0.00000000000000000e+00 -6.85190018007797238e-09 
1.28606776863823830e-06 0.00000000000000000e+00 1.10151266229768556e-07 
1.58501245138720928e-06 0.00000000000000000e+00 8.26520976517415858e-08 
1.14964950491177949e-06 0.00000000000000000e+00 1.03227869127035398e-07 
1.89917468642718628e-06 0.00000000000000000e+00 5.39011715635039369e-09 
2.18536102132344697e-06 0.00000000000000000e+00 -9.01099580649750742e-08 
1.74554474103137944e-06 0.00000000000000000e+00 4.89879952543548720e-08 
2.49062891639196386e-06 0.00000000000000000e+00 -1.54197751738636485e-07 
2.74807249896535410e-06 0.00000000000000000e+00 -1.37737149883434925e-07 
2.33599802464134136e-06 0.00000000000000000e+00 -1.29495280145780954e-07 
2.96524273773802862e-06 0.00000000000000000e+00 -2.74545014618368362e-08 
3.16165717006497929e-06 0.00000000000000000e+00 1.32812456432606803e-07 
2.85578630572541767e-06 0.00000000000000000e+00 -9.35685181048075233e-08 
3.23434691445614104e-06 0.00000000000000000e+00 2.44737465455923129e-07 
3.26402719779641964e-06 0.00000000000000000e+00 2.04439088191358874e-07 
3.20629660957736730e-06 0.00000000000000000e+00 2.00592105519032658e-07 
3.20022457231208258e-06 0.00000000000000000e+00 -4.38577383049012741e-09 
2.99229064745225903e-06 0.00000000000000000e+00 -2.79774673380053447e-07 
3.25799222436406634e-06 0.00000000000000000e+00 1.27562797160007508e-07 
2.76830660114652351e-06 0.00000000000000000e+00 -3.72776971381834516e-07 
2.35840310668090669e-06 0.00000000000000000e+00 -1.33125290871148203e-07 
2.35840310668048444e-06 0.00000000000000000e+00 -1.33125290866430653e-07 
2.92103790377925636e-06 0.00000000000000000e+00 -3.36544552509926715e-07 
2.35840310667920966e-06 0.00000000000000000e+00 -1.33125290862247792e-07 
-7.95186044769129221e-07 0.00000000000000000e+00 1.08052556225236254e-08 
-5.69375315460784156e-07 0.00000000000000000e+00 1.02613066884355411e-07 
-6.79939924594526524e-07 0.00000000000000000e+00 1.08407382095259134e-07 
-2.75712233207541679e-07 0.00000000000000000e+00 -4.61846505287873634e-09 
-4.28527769770835921e-07 0.00000000000000000e+00 5.51358980726132614e-08 
7.20602181121455953e-08 0.00000000000000000e+00 -8.67757755648449797e-08 
-1.08042452963229675e-07 0.00000000000000000e+00 -5.85436074039938020e-08 
4.98977792627050679e-07 0.00000000000000000e+00 -3.73285967423916747e-08 
2.77562323939404075e-07 0.00000000000000000e+00 -7.96510128212559945e-08 
1.01297479434829034e-06 0.00000000000000000e+00 8.47079729796816660e-08 
7.38431546168971822e-07 0.00000000000000000e+00 2.62045297959750792e-08 
1.58501245138857597e-06 0.00000000000000000e+00 8.26520976575946629e-08 
1.28606776863916495e-06 0.00000000000000000e+00 1.10151266242503829e-07 
2.18536102132522828e-06 0.00000000000000000e+00 -9.01099580707751323e-08 
1.89917468642672571e-06 0.00000000000000000e+00 5.39011715358956921e-09 
2.74807249896553368e-06 0.00000000000000000e+00 -1.37737149888623796e-07 
2.49062891639291338e-06 0.00000000000000000e+00 -1.54197751742545172e-07 
3.16165717006464937e-06 0.00000000000000000e+00 1.32812456423338463e-07 
2.96524273773975064e-06 0.00000000000000000e+00 -2.74545014680945832e-08 
3.26402719779770501e-06 0.00000000000000000e+00 2.04439088187416360e-07 
3.23434691445537320e-06 0.00000000000000000e+00 2.44737465459825834e-07 
2.99229064745287102e-06 0.00000000000000000e+00 -2.79774673383917717e-07 
3.20022457231136514e-06 0.00000000000000000e+00 -4.38577383299776845e-09 
-7.73606281902085231e-07 0.00000000000000000e+00 5.45734737762290631e-08 
2.76830660114827603e-06 0.00000000000000000e+00 -3.72776971385488616e-07 
-7.47377047132709940e-07 0.00000000000000000e+00 4.01956034341307102e-07 
7.50645445799080017e-06 0.00000000000000000e+00 9.47270948735629674e-08 
7.72123889421243727e-06 0.00000000000000000e+00 8.02086121083127326e-08 
7.37555010619946717e-06 0.00000000000000000e+00 -3.41863542071513300e-08 
6.72173591812965746e-06 0.00000000000000000e+00 -8.76878281711094918e-08 
5.93899262824318587e-06 0.00000000000000000e+00 -6.18368635299370586e-09 
5.10495899991759277e-06 0.00000000000000000e+00 1.04748983410519651e-07 
4.21679174621454363e-06 0.00000000000000000e+00 5.14024148149745623e-08 
3.31760542779279372e-06 0.00000000000000000e+00 -1.27041263468685121e-07 
2.44805099711104678e-06 0.00000000000000000e+00 -8.96752976752104140e-08 
1.57638400820698041e-06 0.00000000000000000e+00 2.08671711935905220e-07 
6.80580681681938714e-07 0.00000000000000000e+00 1.16221871685923259e-07 
-1.58026254682434577e-07 0.00000000000000000e+00 -3.60972130893450280e-07 
7.22466525564991261e-06 0.00000000000000000e+00 1.08657075206729729e-08 
7.64219074464747088e-06 0.00000000000000000e+00 1.11120103636183042e-07 
7.54434896116741857e-06 0.00000000000000000e+00 2.45661293551430952e-08 
7.09764266870754760e-06 0.00000000000000000e+00 -7.65748859787819496e-08 
6.39794289905141665e-06 0.00000000000000000e+00 -6.16646362865322339e-08 
5.51642671568159117e-06 0.00000000000000000e+00 5.89682665755460774e-08 
4.62364917568877782e-06 0.00000000000000000e+00 1.04922753048718632e-07 
3.76345305273288340e-06 0.00000000000000000e+00 -4.06080164378822919e-08 
2.91173429259896611e-06 0.00000000000000000e+00 -1.54325424758843956e-07 
2.01698395064368313e-06 0.00000000000000000e+00 5.71062745191196033e-08 
1.11677904860412239e-06 0.00000000000000000e+00 2.53500934412237370e-07 
2.46646650752828245e-07 0.00000000000000000e+00 -1.61011682891272417e-07 
-4.97405274716517837e-07 0.00000000000000000e+00 -2.45495024606470425e-07 
-1.36039859432178693e-07 0.00000000000000000e+00 5.75559209128218797e-06 
-1.36039859432512001e-07 0.00000000000000000e+00 5.75559209128020592e-06 
1.36190538074978326e-06 0.00000000000000000e+00 5.75454502967378368e-06 
1.36190538075049096e-06 0.00000000000000000e+00 5.75454502967996364e-06 
6.07714801881962606e-07 0.00000000000000000e+00 1.02932227701880720e-05 
6.07714801881528078e-07 0.00000000000000000e+00 1.02932227701982042e-05 
-1.36039859431556124e-07 0.00000000000000000e+00 5.75559209127365666e-06 
1.36190538075126684e-06 0.00000000000000000e+00 5.75454502967526514e-06 
1.99854701157179041e-06 0.00000000000000000e+00 3.99312070708051131e-07 
1.99854701157491808e-06 0.00000000000000000e+00 3.99312070707262120e-07 
1.99854701157597390e-06 0.00000000000000000e+00 3.99312070701020758e-07 
-7.47377047132766268e-07 0.00000000000000000e+00 4.01956034330826340e-07 
-7.47377047134719526e-07 0.00000000000000000e+00 4.01956034335170772e-07 
-7.47377047134910955e-07 0.00000000000000000e+00 4.01956034336963941e-07 
-7.21595900609003831e-07 0.00000000000000000e+00 9.46311598119346580e-08 
-4.96430024005639003e-07 0.00000000000000000e+00 7.99656979151056655e-08 
-1.91362822959078076e-07 0.00000000000000000e+00 -3.45018216796319327e-08 
1.72043450006304696e-07 0.00000000000000000e+00 -8.79768006478798809e-08 
6.14215246648599508e-07 0.00000000000000000e+00 -6.71539859910153520e-09 
1.14983795733070044e-06 0.00000000000000000e+00 1.03246454337442113e-07 
1.74575869019214916e-06 0.00000000000000000e+00 4.89358136134601963e-08 
2.33658518747619975e-06 0.00000000000000000e+00 -1.29621508081293123e-07 
2.85727446583284066e-06 0.00000000000000000e+00 -9.27998164101235375e-08 
3.20794995735700923e-06 0.00000000000000000e+00 2.03507098517000279e-07 
3.25360240246962905e-06 0.00000000000000000e+00 1.08337153791994637e-07 
2.85073298560002690e-06 0.00000000000000000e+00 -3.68394102323267884e-07 
-7.95186044768715869e-07 0.00000000000000000e+00 1.08052556357591505e-08 
-6.16266210058088634e-07 0.00000000000000000e+00 1.10877774844618079e-07 
-3.50356039175209030e-07 0.00000000000000000e+00 2.43203350756628290e-08 
-1.96988238472089280e-08 0.00000000000000000e+00 -7.68356691266023396e-08 
3.88621765373544804e-07 0.00000000000000000e+00 -6.23848130683420682e-08 
8.72084866250364338e-07 0.00000000000000000e+00 5.79740667444295052e-08 
1.43047189655053184e-06 0.00000000000000000e+00 1.03626603752562523e-07 
2.04038730695354299e-06 0.00000000000000000e+00 -4.28566043534433080e-08 
2.63337361535171366e-06 0.00000000000000000e+00 -1.58418420202682594e-07 
3.07230954892152326e-06 0.00000000000000000e+00 5.24056206965400452e-08 
3.25406093049479329e-06 0.00000000000000000e+00 2.48549168637107992e-07 
3.08984570891488647e-06 0.00000000000000000e+00 -1.67596551172470494e-07 
2.50167902613979776e-06 0.00000000000000000e+00 -2.53129422411552092e-07 
6.69643315204543309e-06 0.00000000000000000e+00 -1.57207095541029365e-07 
6.69643315204372971e-06 0.00000000000000000e+00 -1.57207095532274750e-07 
6.69643315204330704e-06 0.00000000000000000e+00 -1.57207095535052382e-07 
6.07714801881822846e-07 0.00000000000000000e+00 1.02932227701958918e-05 
-1.36039859432846155e-07 0.00000000000000000e+00 5.75559209127539731e-06 
1.36190538075059641e-06 0.00000000000000000e+00 5.75454502966787563e-06 
-7.21595900611400934e-07 0.00000000000000000e+00 9.46311598135208330e-08 
-4.96430024005863890e-07 0.00000000000000000e+00 7.99656979196789552e-08 
-1.91362822959680740e-07 0.00000000000000000e+00 -3.45018216856654542e-08 
1.72043450005857251e-07 0.00000000000000000e+00 -8.79768006476132243e-08 
6.14215246649154315e-07 0.00000000000000000e+00 -6.71539859871819985e-09 
1.14983795733048656e-06 0.00000000000000000e+00 1.03246454339337799e-07 
1.74575869019245133e-06 0.00000000000000000e+00 4.89358136069440248e-08 
2.33658518747631495e-06 0.00000000000000000e+00 -1.29621508076885058e-07 
2.85727446583346958e-06 0.00000000000000000e+00 -9.27998164110921726e-08 
3.20794995735678180e-06 0.00000000000000000e+00 2.03507098523203525e-07 
3.25360240246863167e-06 0.00000000000000000e+00 1.08337153785825273e-07 
2.85073298559919088e-06 0.00000000000000000e+00 -3.68394102319848888e-07 
-7.95186044768299552e-07 0.00000000000000000e+00 1.08052556225028201e-08 
-6.16266210058922538e-07 0.00000000000000000e+00 1.10877774842704049e-07 
-3.50356039175630852e-07 0.00000000000000000e+00 2.43203350700596002e-08 
-1.96988238471932579e-08 0.00000000000000000e+00 -7.68356691161238009e-08 
3.88621765372817414e-07 0.00000000000000000e+00 -6.23848130700780623e-08 
8.72084866250430195e-07 0.00000000000000000e+00 5.79740667443206614e-08 
1.43047189655062840e-06 0.00000000000000000e+00 1.03626603755134830e-07 
2.04038730695327872e-06 0.00000000000000000e+00 -4.28566043477949218e-08 
2.63337361535274916e-06 0.00000000000000000e+00 -1.58418420203753932e-07 
3.07230954892133395e-06 0.00000000000000000e+00 5.24056206903205470e-08 
3.25406093049443838e-06 0.00000000000000000e+00 2.48549168638763518e-07 
3.08984570891483523e-06 0.00000000000000000e+00 -1.67596551166296577e-07 
2.50167902613864114e-06 0.00000000000000000e+00 -2.53129422406272748e-07 
6.69643315204598027e-06 0.00000000000000000e+00 -1.57207095534683500e-07 
7.50645445798968548e-06 0.00000000000000000e+00 9.47270948781741089e-08 
7.72123889421212726e-06 0.00000000000000000e+00 8.02086121105074214e-08 
7.37555010619941634e-06 0.00000000000000000e+00 -3.41863542054051849e-08 
6.72173591812889683e-06 0.00000000000000000e+00 -8.76878281714026711e-08 
5.93899262824323330e-06 0.00000000000000000e+00 -6.18368635649822527e-09 
5.10495899991682620e-06 0.00000000000000000e+00 1.04748983409442967e-07 
4.21679174621522888e-06 0.00000000000000000e+00 5.14024148205936730e-08 