# vtk DataFile Version 2.0

ASCII

DATASET UNSTRUCTURED_GRID

POINTS 281 double 

0.00000000000000000e+00  6.00000000000000012e-03  8.68039800000000063e-03
0.00000000000000000e+00  6.00000000000000012e-03  2.15013699999999988e-02
0.00000000000000000e+00  5.99999699999999997e-03  3.38432499999999983e-02
0.00000000000000000e+00  6.00000000000000012e-03  4.61511800000000000e-02
0.00000000000000000e+00  5.99999399999999981e-03  5.84285100000000029e-02
0.00000000000000000e+00  5.99999899999999978e-03  7.03572799999999943e-02
0.00000000000000000e+00  6.00000000000000012e-03  7.56573400000000035e-02
0.00000000000000000e+00  6.00000000000000012e-03  1.52458600000000000e-02
0.00000000000000000e+00  5.99999899999999978e-03  2.76822099999999988e-02
0.00000000000000000e+00  5.99999899999999978e-03  3.99985900000000005e-02
0.00000000000000000e+00  5.99999800000000031e-03  5.22986000000000006e-02
0.00000000000000000e+00  5.99999800000000031e-03  6.44963600000000026e-02
0.00000000000000000e+00  3.00000000000000006e-03  3.07692300000000007e-03
0.00000000000000000e+00  3.00000000000000006e-03  1.04940499999999996e-02
0.00000000000000000e+00  3.00000000000000006e-03  7.41712199999999995e-03
0.00000000000000000e+00  3.00000000000000006e-03  2.30583799999999998e-02
0.00000000000000000e+00  3.00000000000000006e-03  1.99814599999999995e-02
0.00000000000000000e+00  2.99999900000000016e-03  3.53831699999999985e-02
0.00000000000000000e+00  2.99999900000000016e-03  3.23062400000000000e-02
0.00000000000000000e+00  3.00000000000000006e-03  4.76909699999999992e-02
0.00000000000000000e+00  3.00000000000000006e-03  4.46140500000000023e-02
0.00000000000000000e+00  2.99999699999999991e-03  5.99834799999999987e-02
0.00000000000000000e+00  2.99999699999999991e-03  5.69065600000000019e-02
0.00000000000000000e+00  2.99999900000000016e-03  7.21017199999999941e-02
0.00000000000000000e+00  2.99999900000000016e-03  6.90247900000000025e-02
0.00000000000000000e+00  3.00000000000000006e-03  7.78286700000000026e-02
0.00000000000000000e+00  3.00000000000000006e-03  7.47517500000000057e-02
0.00000000000000000e+00  5.99999899999999978e-03  7.30073100000000058e-02
0.00000000000000000e+00  6.00000000000000012e-03  7.78286700000000026e-02
0.00000000000000000e+00  8.99999999999999932e-03  7.47517500000000057e-02
0.00000000000000000e+00  8.99999999999999932e-03  7.78286700000000026e-02
0.00000000000000000e+00  8.99999999999999932e-03  3.07692300000000007e-03
0.00000000000000000e+00  8.99999999999999932e-03  7.41712199999999995e-03
0.00000000000000000e+00  8.99999999999999932e-03  1.04940499999999996e-02
0.00000000000000000e+00  8.99999999999999932e-03  1.99814599999999995e-02
0.00000000000000000e+00  8.99999999999999932e-03  2.30583799999999998e-02
0.00000000000000000e+00  8.99999899999999985e-03  3.23062400000000000e-02
0.00000000000000000e+00  8.99999899999999985e-03  3.53831699999999985e-02
0.00000000000000000e+00  8.99999999999999932e-03  4.46140500000000023e-02
0.00000000000000000e+00  8.99999999999999932e-03  4.76909699999999992e-02
0.00000000000000000e+00  8.99999699999999916e-03  5.69065600000000019e-02
0.00000000000000000e+00  8.99999699999999916e-03  5.99834799999999987e-02
0.00000000000000000e+00  8.99999899999999985e-03  6.90247900000000025e-02
0.00000000000000000e+00  8.99999899999999985e-03  7.21017199999999941e-02
0.00000000000000000e+00  6.00000000000000012e-03  4.34019900000000031e-03
0.00000000000000000e+00  3.00000000000000006e-03  1.37767800000000006e-02
0.00000000000000000e+00  6.00000000000000012e-03  1.19631300000000006e-02
0.00000000000000000e+00  3.00000000000000006e-03  1.68536999999999992e-02
0.00000000000000000e+00  6.00000000000000012e-03  1.83736200000000002e-02
0.00000000000000000e+00  5.99999800000000031e-03  3.07627299999999985e-02
0.00000000000000000e+00  3.00000000000000006e-03  2.92257200000000002e-02
0.00000000000000000e+00  3.00000000000000006e-03  2.61487999999999998e-02
0.00000000000000000e+00  8.99999999999999932e-03  2.92257200000000002e-02
0.00000000000000000e+00  6.00000000000000012e-03  4.30748800000000029e-02
0.00000000000000000e+00  2.99999900000000016e-03  4.15377600000000000e-02
0.00000000000000000e+00  2.99999900000000016e-03  3.84608300000000014e-02
0.00000000000000000e+00  8.99999899999999985e-03  4.15377600000000000e-02
0.00000000000000000e+00  5.99999599999999963e-03  5.53635499999999975e-02
0.00000000000000000e+00  2.99999900000000016e-03  5.38416099999999981e-02
0.00000000000000000e+00  2.99999900000000016e-03  5.07646799999999995e-02
0.00000000000000000e+00  8.99999899999999985e-03  5.38416099999999981e-02
0.00000000000000000e+00  5.99999800000000031e-03  6.74268199999999984e-02
0.00000000000000000e+00  2.99999900000000016e-03  6.60943300000000067e-02
0.00000000000000000e+00  2.99999900000000016e-03  6.30174099999999959e-02
0.00000000000000000e+00  8.99999899999999985e-03  6.60943300000000067e-02
0.00000000000000000e+00  5.99999899999999978e-03  4.92248900000000003e-02
0.00000000000000000e+00  8.99999999999999932e-03  1.68536999999999992e-02
0.00000000000000000e+00  5.99999899999999978e-03  2.45917899999999988e-02
0.00000000000000000e+00  8.99999999999999932e-03  2.61487999999999998e-02
0.00000000000000000e+00  8.99999999999999932e-03  1.37767800000000006e-02
0.00000000000000000e+00  5.99999800000000031e-03  3.69209200000000029e-02
0.00000000000000000e+00  8.99999899999999985e-03  3.84608300000000014e-02
0.00000000000000000e+00  8.99999899999999985e-03  5.07646799999999995e-02
0.00000000000000000e+00  5.99999599999999963e-03  6.14624299999999985e-02
0.00000000000000000e+00  8.99999899999999985e-03  6.30174099999999959e-02
1.20000000000000002e-02  1.20000000000000002e-02  8.00000000000000017e-02
0.00000000000000000e+00  0.00000000000000000e+00  8.00000000000000017e-02
1.20000000000000002e-02  6.00000000000000012e-03  0.00000000000000000e+00
1.20000000000000002e-02  3.00000000000000006e-03  0.00000000000000000e+00
1.20000000000000002e-02  8.99999999999999932e-03  0.00000000000000000e+00
1.20000000000000002e-02  0.00000000000000000e+00  8.00000000000000017e-02
1.20000000000000002e-02  0.00000000000000000e+00  0.00000000000000000e+00
0.00000000000000000e+00  1.20000000000000002e-02  0.00000000000000000e+00
1.20000000000000002e-02  5.99999899999999978e-03  8.68039699999999942e-03
1.20000000000000002e-02  5.99999899999999978e-03  1.52458600000000000e-02
1.20000000000000002e-02  5.99999899999999978e-03  2.15013699999999988e-02
1.20000000000000002e-02  6.00000000000000012e-03  2.76822099999999988e-02
1.20000000000000002e-02  5.99999899999999978e-03  3.38432399999999967e-02
1.20000000000000002e-02  5.99999800000000031e-03  3.99985900000000005e-02
1.20000000000000002e-02  5.99999699999999997e-03  4.61511800000000000e-02
1.20000000000000002e-02  5.99999300000000034e-03  5.22986100000000023e-02
1.20000000000000002e-02  5.99998599999999969e-03  5.84285400000000010e-02
1.20000000000000002e-02  5.99997800000000043e-03  6.44963800000000059e-02
1.20000000000000002e-02  5.99997500000000027e-03  7.03572999999999976e-02
1.20000000000000002e-02  5.99997500000000027e-03  7.56573600000000068e-02
1.20000000000000002e-02  3.00000000000000006e-03  3.07692300000000007e-03
1.20000000000000002e-02  3.00000000000000006e-03  7.41712099999999961e-03
1.20000000000000002e-02  3.00000000000000006e-03  1.04940399999999996e-02
1.20000000000000002e-02  2.99999900000000016e-03  1.37767800000000006e-02
1.20000000000000002e-02  2.99999900000000016e-03  1.68536999999999992e-02
1.20000000000000002e-02  5.99999899999999978e-03  1.19631300000000006e-02
1.20000000000000002e-02  3.00000000000000006e-03  1.99814500000000013e-02
1.20000000000000002e-02  3.00000000000000006e-03  2.30583799999999998e-02
1.20000000000000002e-02  5.99999899999999978e-03  1.83736099999999986e-02
1.20000000000000002e-02  3.00000000000000006e-03  2.61487999999999998e-02
1.20000000000000002e-02  3.00000000000000006e-03  2.92257200000000002e-02
1.20000000000000002e-02  5.99999899999999978e-03  2.45917899999999988e-02
1.20000000000000002e-02  3.00000000000000006e-03  3.23062299999999983e-02
1.20000000000000002e-02  3.00000000000000006e-03  3.53831599999999968e-02
1.20000000000000002e-02  5.99999899999999978e-03  3.07627200000000003e-02
1.20000000000000002e-02  2.99999900000000016e-03  3.84608300000000014e-02
1.20000000000000002e-02  2.99999900000000016e-03  4.15377499999999983e-02
1.20000000000000002e-02  5.99999899999999978e-03  3.69209100000000012e-02
1.20000000000000002e-02  2.99999799999999981e-03  4.46140500000000023e-02
1.20000000000000002e-02  2.99999799999999981e-03  4.76909800000000009e-02
1.20000000000000002e-02  5.99999800000000031e-03  4.30748800000000029e-02
1.20000000000000002e-02  2.99999699999999991e-03  5.07646900000000012e-02
1.20000000000000002e-02  2.99999699999999991e-03  5.38416099999999981e-02
1.20000000000000002e-02  5.99999500000000015e-03  4.92249000000000020e-02
1.20000000000000002e-02  2.99999299999999984e-03  5.69065799999999983e-02
1.20000000000000002e-02  2.99999299999999984e-03  5.99835000000000021e-02
1.20000000000000002e-02  5.99999000000000018e-03  5.53635800000000025e-02
1.20000000000000002e-02  2.99998900000000021e-03  6.30174200000000045e-02
1.20000000000000002e-02  2.99998900000000021e-03  6.60943499999999962e-02
1.20000000000000002e-02  5.99998200000000006e-03  6.14624599999999965e-02
1.20000000000000002e-02  2.99998799999999987e-03  6.90248100000000059e-02
1.20000000000000002e-02  2.99998799999999987e-03  7.21017300000000028e-02
1.20000000000000002e-02  5.99997700000000009e-03  6.74268400000000018e-02
1.20000000000000002e-02  2.99998699999999997e-03  7.47517600000000004e-02
1.20000000000000002e-02  2.99998699999999997e-03  7.78286799999999973e-02
1.20000000000000002e-02  5.99998700000000003e-03  7.78286799999999973e-02
1.20000000000000002e-02  5.99997500000000027e-03  7.30073299999999953e-02
1.20000000000000002e-02  8.99998699999999922e-03  7.78286799999999973e-02
1.20000000000000002e-02  8.99999999999999932e-03  3.07692300000000007e-03
[...]
POINT_DATA 281

SCALARS Rank unsigned_int
LOOKUP_TABLE default
0 0 0 0 0 0 0 0 0 0 0 0 0 0 0 0 0 0 0 0 0 0 0 0 0 0 0 0 0 0 0 0 0 0 0 0 0 0 0 0 0 0 0 0 0 0 0 0 0 0 0 0 0 0 0 0 0 0 0 0 0 0 0 0 0 0 0 0 0 0 0 0 0 0 0 0 0 0 0 0 0 0 0 0 0 0 0 0 0 0 0 0 0 0 0 0 0 0 0 0 0 0 0 0 0 0 0 0 0 0 0 0 0 0 0 0 0 0 0 0 0 0 0 0 0 0 0 0 0 0 0 0 0 0 0 0 0 0 0 0 0 0 0 0 0 0 0 0 0 0 0 0 0 0 0 0 0 0 0 0 0 0 0 0 0 0 0 0 0 0 0 0 0 0 0 0 0 0 0 0 0 0 0 0 0 0 0 0 0 0 0 0 0 0 0 0 0 0 0 0 0 0 0 0 0 0 0 0 0 0 0 0 0 0 0 0 0 0 0 0 0 0 0 0 0 0 0 0 0 0 0 0 0 0 0 0 0 0 0 0 0 0 0 0 0 0 0 0 0 0 0 0 0 0 0 0 0 0 0 0 0 0 0 0 0 0 0 0 0 0 0 0 0 0 0 0 0 0 0 0 0 

VECTORS Forces0 double
1.14455273342486713e-03 0.00000000000000000e+00 -8.31683062302337700e-07 
1.79608237470329065e-04 0.00000000000000000e+00 -1.24602947229435060e-07 
6.15494202764456097e-06 0.00000000000000000e+00 4.41397589338923622e-07 
3.12201102425948543e-05 0.00000000000000000e+00 -3.94852506250754314e-07 
1.64089451526892570e-05 0.00000000000000000e+00 9.13264115138281581e-07 
-2.88279528420468890e-06 0.00000000000000000e+00 -1.45170025507798143e-06 
-1.31163285908213728e-05 0.00000000000000000e+00 1.56002691195459723e-08 
5.63167998168611944e-04 0.00000000000000000e+00 -3.79120262713253166e-07 
2.66618186343099216e-05 0.00000000000000000e+00 2.61533247684709313e-07 
2.25698827842225129e-05 0.00000000000000000e+00 9.08171984453957470e-08 
2.67169440123031657e-05 0.00000000000000000e+00 -8.04267589441966576e-08 
6.87890286161467276e-06 0.00000000000000000e+00 5.51491991898175943e-07 
1.46533788073028399e-03 0.00000000000000000e+00 -1.50825304301641830e-06 
1.00398791710881513e-03 0.00000000000000000e+00 -6.90507279329112359e-07 
1.25718031076932249e-03 0.00000000000000000e+00 -1.01594246751747475e-06 
1.17158668509516399e-04 0.00000000000000000e+00 -3.33647353667458898e-08 
2.54333710360268742e-04 0.00000000000000000e+00 -1.99004552932410762e-07 
1.10961116408624416e-05 0.00000000000000000e+00 4.12577734402926153e-07 
3.96292019463071257e-06 0.00000000000000000e+00 4.35012575153144880e-07 
3.04309445957530212e-05 0.00000000000000000e+00 -4.25717996144302610e-07 
3.14329594772154859e-05 0.00000000000000000e+00 -3.05457291653519857e-07 
1.42031564375901830e-05 0.00000000000000000e+00 1.04987989965029761e-06 
1.86925482337433791e-05 0.00000000000000000e+00 6.87806878342541362e-07 
-6.17570141892913571e-06 0.00000000000000000e+00 -1.63327295475305235e-06 
-5.31512798596947063e-07 0.00000000000000000e+00 -1.05272902881411656e-06 
-1.61674303157406104e-05 0.00000000000000000e+00 2.50374600884105235e-06 
-1.14267567926239384e-05 0.00000000000000000e+00 -7.09608242871571268e-07 
-7.96351975977771629e-06 0.00000000000000000e+00 -1.50513043377668047e-06 
-1.61674303166849234e-05 0.00000000000000000e+00 2.50374600883591848e-06 
-1.14267567942325014e-05 0.00000000000000000e+00 -7.09608242902131370e-07 
-1.61674303153108056e-05 0.00000000000000000e+00 2.50374600885874517e-06 
1.46533788073167177e-03 0.00000000000000000e+00 -1.50825304290805738e-06 
1.25718031076890811e-03 0.00000000000000000e+00 -1.01594246758346412e-06 
1.00398791711035253e-03 0.00000000000000000e+00 -6.90507279263934444e-07 
2.54333710359238207e-04 0.00000000000000000e+00 -1.99004552902973826e-07 
1.17158668509182085e-04 0.00000000000000000e+00 -3.33647353069157176e-08 
3.96292019504016152e-06 0.00000000000000000e+00 4.35012575132302893e-07 
1.10961116407093251e-05 0.00000000000000000e+00 4.12577734424031461e-07 
3.14329594766886721e-05 0.00000000000000000e+00 -3.05457291680515644e-07 
3.04309445960710990e-05 0.00000000000000000e+00 -4.25717996153132929e-07 
1.86925482323982637e-05 0.00000000000000000e+00 6.87806878284375397e-07 
1.42031564380354242e-05 0.00000000000000000e+00 1.04987989963056005e-06 
-5.31512797738801044e-07 0.00000000000000000e+00 -1.05272902880610278e-06 
-6.17570141859282975e-06 0.00000000000000000e+00 -1.63327295472014681e-06 
1.50067636005949746e-03 0.00000000000000000e+00 -1.57672703308590099e-06 
7.08245630052776586e-04 0.00000000000000000e+00 -4.86314774174143858e-07 
8.93726833252668756e-04 0.00000000000000000e+00 -6.33565683895362727e-07 
4.31936400756403329e-04 0.00000000000000000e+00 -2.99166521800511864e-07 
3.34923460363015875e-04 0.00000000000000000e+00 -2.48190728316065257e-07 
6.14510592867242743e-06 0.00000000000000000e+00 3.99700231270116957e-07 
1.40590761500688509e-05 0.00000000000000000e+00 3.40879355235074998e-07 
4.35686291429713155e-05 0.00000000000000000e+00 1.65942570070221620e-07 
1.40590761502704041e-05 0.00000000000000000e+00 3.40879355234721150e-07 
2.96474845723484836e-05 0.00000000000000000e+00 -1.85851378769587569e-07 
2.62994353486556408e-05 0.00000000000000000e+00 -5.09422317140206749e-08 
1.89655972562310159e-05 0.00000000000000000e+00 2.25041906535915192e-07 
2.62994353489253090e-05 0.00000000000000000e+00 -5.09422317135573479e-08 
2.12632279425309794e-05 0.00000000000000000e+00 4.18210253541263584e-07 
2.40332692962913534e-05 0.00000000000000000e+00 1.54604079479804534e-07 
2.83576876693429201e-05 0.00000000000000000e+00 -2.65683696650901986e-07 
2.40332692959559419e-05 0.00000000000000000e+00 1.54604079472118875e-07 
2.14512470780375545e-06 0.00000000000000000e+00 -4.48734593627146801e-07 
4.32061053662895825e-06 0.00000000000000000e+00 4.60165170666073251e-08 
9.26486425269110047e-06 0.00000000000000000e+00 8.72338492298929968e-07 
4.32061053500352236e-06 0.00000000000000000e+00 4.60165170826357296e-08 
2.94430991563376164e-05 0.00000000000000000e+00 -3.85162294991226594e-07 
4.31936400755560579e-04 0.00000000000000000e+00 -2.99166521785922145e-07 
7.25016334513960625e-05 0.00000000000000000e+00 6.40931132444330389e-08 
4.35686291425315089e-05 0.00000000000000000e+00 1.65942570050037672e-07 
7.08245630053697399e-04 0.00000000000000000e+00 -4.86314774133519734e-07 
1.54591384518941980e-05 0.00000000000000000e+00 3.38457173700626628e-07 
1.89655972564437364e-05 0.00000000000000000e+00 2.25041906532655386e-07 
2.83576876690651881e-05 0.00000000000000000e+00 -2.65683696672582642e-07 
1.18073104976534561e-05 0.00000000000000000e+00 1.04544419219478262e-06 
9.26486425305047283e-06 0.00000000000000000e+00 8.72338492322504589e-07 
6.16904144342412488e-06 0.00000000000000000e+00 6.48120083832494784e-06 
-1.80318492877568109e-05 0.00000000000000000e+00 6.31992066236643072e-06 
-5.80340305102965059e-05 0.00000000000000000e+00 -5.13087055347115460e-08 
-5.80340305085585840e-05 0.00000000000000000e+00 -5.13087055299656204e-08 
-5.80340305086480307e-05 0.00000000000000000e+00 -5.13087054959818115e-08 
6.16904144217852566e-06 0.00000000000000000e+00 6.48120083835592977e-06 
-5.80340305101259609e-05 0.00000000000000000e+00 -5.13087055194454712e-08 
1.21666750241274210e-03 0.00000000000000000e+00 -1.13095768251216723e-06 
1.74106733297760272e-05 0.00000000000000000e+00 1.54182233541722908e-07 
7.45871119406442617e-06 0.00000000000000000e+00 -1.07842908142621904e-07 
3.89713418347944430e-07 0.00000000000000000e+00 -1.22925092115671865e-07 
1.24068804019342334e-05 0.00000000000000000e+00 1.49955535287257728e-07 
2.20780026198656089e-05 0.00000000000000000e+00 2.62323482729932033e-07 
1.65958672357295720e-05 0.00000000000000000e+00 -1.44071649869467269e-07 
2.40029920445586868e-06 0.00000000000000000e+00 -6.50643594990674299e-07 
-6.76925181865839115e-06 0.00000000000000000e+00 -2.99474877201386613e-07 
-3.81055190145737609e-06 0.00000000000000000e+00 7.92652085904740336e-07 
8.48088599484257776e-06 0.00000000000000000e+00 5.43334228199967770e-07 
1.93034338729737675e-05 0.00000000000000000e+00 -1.37617028848507592e-06 
1.87702879594560660e-05 0.00000000000000000e+00 1.34022625524568693e-07 
-2.26270947664216780e-05 0.00000000000000000e+00 1.66483911817404574e-07 
1.37357275816367575e-05 0.00000000000000000e+00 1.88969370317261665e-07 
1.83623047495421109e-05 0.00000000000000000e+00 8.49119060541747080e-08 
1.16581441709946743e-05 0.00000000000000000e+00 -5.57234288372109777e-08 
3.51005490846385089e-06 0.00000000000000000e+00 -1.47091605236163454e-07 
1.63292978095376428e-05 0.00000000000000000e+00 2.06606946477857351e-08 
2.68519888476894679e-08 0.00000000000000000e+00 -1.54843014982048891e-07 
2.04081235382069386e-06 0.00000000000000000e+00 -6.89425248303572817e-08 
1.07660513067256848e-06 0.00000000000000000e+00 -1.63363960858421034e-07 
8.51054531663144669e-06 0.00000000000000000e+00 7.55406675229631686e-08 
1.57862936942941696e-05 0.00000000000000000e+00 2.15247511958940924e-07 
4.90770904425598672e-06 0.00000000000000000e+00 -1.15126759502714397e-09 
2.07389212494373893e-05 0.00000000000000000e+00 2.78600608307261045e-07 
2.23879964388235335e-05 0.00000000000000000e+00 2.08405409839569337e-07 
1.86320130813907041e-05 0.00000000000000000e+00 2.61072108200441048e-07 
1.93413298303576739e-05 0.00000000000000000e+00 0.00000000000000000e+00 
1.34238549583909944e-05 0.00000000000000000e+00 -2.98416498673391402e-07 
2.14411667948762508e-05 0.00000000000000000e+00 1.19703264087134545e-07 
6.29784463276468037e-06 0.00000000000000000e+00 -5.70341281324162790e-07 
-1.04118433282410567e-06 0.00000000000000000e+00 -6.71776716332660010e-07 
1.00224039255204303e-05 0.00000000000000000e+00 -4.46713597673219807e-07 
-5.59142727118830801e-06 0.00000000000000000e+00 -4.97420648503832387e-07 
-7.50019860233812158e-06 0.00000000000000000e+00 -3.78229591874718674e-08 
-3.74663288099713237e-06 0.00000000000000000e+00 -6.23411119657291775e-07 
-6.02588577402069009e-06 0.00000000000000000e+00 5.46840256002981047e-07 
-8.77763261200531150e-07 0.00000000000000000e+00 9.50490734575797538e-07 
-7.30880503982122764e-06 0.00000000000000000e+00 2.53145993899556068e-07 
5.08646201673229618e-06 0.00000000000000000e+00 8.37922019126148187e-07 
1.23276289630071859e-05 0.00000000000000000e+00 5.88981248361138411e-08 
1.87023832767493482e-06 0.00000000000000000e+00 9.77891647509161533e-07 
1.79656694394828600e-05 0.00000000000000000e+00 -1.00076864916656744e-06 
2.02688277964398780e-05 0.00000000000000000e+00 -1.53426393474965519e-06 
1.53625242216696265e-05 0.00000000000000000e+00 -4.21468824489896855e-07 
1.97449118419581168e-05 0.00000000000000000e+00 -5.94230291709194155e-07 
1.37025104635210693e-05 0.00000000000000000e+00 2.64578333358161786e-06 
1.37025104622124915e-05 0.00000000000000000e+00 2.64578333361009765e-06 
2.03988993254355905e-05 0.00000000000000000e+00 -1.39819124403008091e-06 
1.37025104627365271e-05 0.00000000000000000e+00 2.64578333358946731e-06 
-2.26270947655524731e-05 0.00000000000000000e+00 1.66483911796369146e-07 
1.83623047486924759e-05 0.00000000000000000e+00 8.49119060158191503e-08 
1.37357275821126680e-05 0.00000000000000000e+00 1.88969370304322072e-07 
3.51005490849942627e-06 0.00000000000000000e+00 -1.47091605226514478e-07 
1.16581441707023192e-05 0.00000000000000000e+00 -5.57234287618462212e-08 
2.04081235392880237e-06 0.00000000000000000e+00 -6.89425248286932855e-08 
2.68519891303917963e-08 0.00000000000000000e+00 -1.54843014995121150e-07 
1.57862936941013172e-05 0.00000000000000000e+00 2.15247511949352935e-07 
8.51054531657184268e-06 0.00000000000000000e+00 7.55406675552641347e-08 
2.23879964384644728e-05 0.00000000000000000e+00 2.08405409813912920e-07 
2.07389212494080616e-05 0.00000000000000000e+00 2.78600608296974359e-07 
1.34238549591815405e-05 0.00000000000000000e+00 -2.98416498634692584e-07 
1.93413298307360062e-05 0.00000000000000000e+00 0.00000000000000000e+00 
-1.04118433216198341e-06 0.00000000000000000e+00 -6.71776716346511963e-07 
6.29784463216671576e-06 0.00000000000000000e+00 -5.70341281345586794e-07 
-7.50019860275022683e-06 0.00000000000000000e+00 -3.78229591775967338e-08 
-5.59142727134074683e-06 0.00000000000000000e+00 -4.97420648515234298e-07 
-8.77763262556353071e-07 0.00000000000000000e+00 9.50490734560677576e-07 
-6.02588577420930062e-06 0.00000000000000000e+00 5.46840255968619461e-07 
1.23276289625704692e-05 0.00000000000000000e+00 5.88981248318134548e-08 
5.08646201621811330e-06 0.00000000000000000e+00 8.37922019141771286e-07 
2.02688277963324471e-05 0.00000000000000000e+00 -1.53426393473580344e-06 
1.79656694382229764e-05 0.00000000000000000e+00 -1.00076864918550371e-06 
-8.37491615296818428e-06 0.00000000000000000e+00 2.00547422695122457e-07 
1.97449118419959283e-05 0.00000000000000000e+00 -5.94230291696370500e-07 
-1.80318492877301801e-05 0.00000000000000000e+00 6.31992066240838511e-06 
1.37426634834382499e-03 0.00000000000000000e+00 -1.25833914394044765e-06 
8.61062028688406255e-04 0.00000000000000000e+00 -6.09462620929797576e-07 
3.30049146106839854e-04 0.00000000000000000e+00 -2.45620009211026326e-07 
7.19456958478999610e-05 0.00000000000000000e+00 6.56292919859552792e-08 
6.12418417046989293e-06 0.00000000000000000e+00 3.99902161873115823e-07 
1.54640931122236941e-05 0.00000000000000000e+00 3.38320112010837585e-07 
2.96513619958474800e-05 0.00000000000000000e+00 -1.86020194052378754e-07 
2.94391883495362550e-05 0.00000000000000000e+00 -3.84855208254092574e-07 
2.12261302330956866e-05 0.00000000000000000e+00 4.21955772345133649e-07 
1.16817950115015319e-05 0.00000000000000000e+00 1.04109284535093492e-06 
1.70482296298966169e-06 0.00000000000000000e+00 -5.50499895146445752e-07 
-9.64085734987250372e-06 0.00000000000000000e+00 -1.22170960756495690e-06 
1.46533788073173444e-03 0.00000000000000000e+00 -1.50825304305230200e-06 
1.09894819308246124e-03 0.00000000000000000e+00 -7.73238014307998970e-07 
5.50565831302220893e-04 0.00000000000000000e+00 -3.70628307074082908e-07 
1.77916176311756341e-04 0.00000000000000000e+00 -1.22556331302704944e-07 
2.65750313461065666e-05 0.00000000000000000e+00 2.62123554056614936e-07 
6.16230893047143170e-06 0.00000000000000000e+00 4.41378404114966385e-07 
2.25732784574862855e-05 0.00000000000000000e+00 9.06886719168281279e-08 
3.12190466651186555e-05 0.00000000000000000e+00 -3.94962166529906624e-07 
2.67029018926644561e-05 0.00000000000000000e+00 -7.91819732162342321e-08 
1.63617842625701265e-05 0.00000000000000000e+00 9.17326410275180963e-07 
6.68808727879815849e-06 0.00000000000000000e+00 5.19103346163467933e-07 
-3.63952076000064456e-06 0.00000000000000000e+00 -1.53619693234374428e-06 
-1.50603833355743900e-05 0.00000000000000000e+00 1.31327049344613373e-06 
-1.33681506310789430e-05 0.00000000000000000e+00 2.68350082252453001e-05 
-1.33681506322161897e-05 0.00000000000000000e+00 2.68350082251922013e-05 
3.95260654205321260e-06 0.00000000000000000e+00 2.69240472435597367e-05 
3.95260654288781788e-06 0.00000000000000000e+00 2.69240472435754238e-05 
-4.25408697257590641e-06 0.00000000000000000e+00 4.37691885830702418e-05 
-4.25408697454662851e-06 0.00000000000000000e+00 4.37691885831284703e-05 
-1.33681506324119424e-05 0.00000000000000000e+00 2.68350082252068381e-05 
3.95260654317329509e-06 0.00000000000000000e+00 2.69240472435919545e-05 
6.16904144253430660e-06 0.00000000000000000e+00 6.48120083831148849e-06 
6.16904144161282962e-06 0.00000000000000000e+00 6.48120083832558820e-06 
6.16904144225395903e-06 0.00000000000000000e+00 6.48120083830972751e-06 
-1.80318492872198462e-05 0.00000000000000000e+00 6.31992066241031719e-06 
-1.80318492858767907e-05 0.00000000000000000e+00 6.31992066241168685e-06 
-1.80318492858033631e-05 0.00000000000000000e+00 6.31992066244122881e-06 
7.05049084918912703e-06 0.00000000000000000e+00 2.07817121107783569e-07 
1.55614695187314186e-05 0.00000000000000000e+00 5.57820799110061163e-09 
9.78692592464531361e-07 0.00000000000000000e+00 -1.63602604811052925e-07 
4.95834394684723580e-06 0.00000000000000000e+00 0.00000000000000000e+00 
1.86426184096886363e-05 0.00000000000000000e+00 2.61210885185229934e-07 
2.14388751576424205e-05 0.00000000000000000e+00 1.19554564796409435e-07 
1.00177638838754581e-05 0.00000000000000000e+00 -4.46898230150713469e-07 
-3.75533166293597325e-06 0.00000000000000000e+00 -6.23078959031496735e-07 
-7.29872172601772875e-06 0.00000000000000000e+00 2.57243866790705032e-07 
2.01752182029124774e-06 0.00000000000000000e+00 9.75251691841026843e-07 
1.59058399555760616e-05 0.00000000000000000e+00 -5.20195772448271145e-07 
2.02539609064517259e-05 0.00000000000000000e+00 -1.10973072006178956e-06 
-2.26270947658558871e-05 0.00000000000000000e+00 1.66483911867486455e-07 
1.81564807935089150e-05 0.00000000000000000e+00 1.35168994733596034e-07 
7.07793841185890340e-06 0.00000000000000000e+00 -1.12051255885030449e-07 
4.14273728328639506e-07 0.00000000000000000e+00 -1.21872946493098945e-07 
1.24316947919944863e-05 0.00000000000000000e+00 1.50422367326035637e-07 
2.20796347438698103e-05 0.00000000000000000e+00 2.62257309744413900e-07 
1.65931279605447838e-05 0.00000000000000000e+00 -1.44210111694944659e-07 
2.39382317218021732e-06 0.00000000000000000e+00 -6.50735366237370860e-07 
-6.77559105270505934e-06 0.00000000000000000e+00 -2.98097892593609033e-07 
-3.75352118136861159e-06 0.00000000000000000e+00 7.97127286143877486e-07 
8.76430537529158157e-06 0.00000000000000000e+00 5.12775806426055769e-07 
1.96109409247727892e-05 0.00000000000000000e+00 -1.45415257768742209e-06 
1.62235360497916764e-05 0.00000000000000000e+00 1.44409463464198013e-06 
1.21666750241238822e-03 0.00000000000000000e+00 -1.13095768243408265e-06 
1.21666750241223275e-03 0.00000000000000000e+00 -1.13095768243848658e-06 
1.21666750241228631e-03 0.00000000000000000e+00 -1.13095768244713394e-06 
-4.25408697376119349e-06 0.00000000000000000e+00 4.37691885831131017e-05 
-1.33681506318406357e-05 0.00000000000000000e+00 2.68350082252005565e-05 
3.95260654231069706e-06 0.00000000000000000e+00 2.69240472435871738e-05 
7.05049084912071388e-06 0.00000000000000000e+00 2.07817121098450854e-07 
1.55614695185346766e-05 0.00000000000000000e+00 5.57820798458216371e-09 
9.78692592711045053e-07 0.00000000000000000e+00 -1.63602604828169555e-07 
4.95834394646920161e-06 0.00000000000000000e+00 0.00000000000000000e+00 
1.86426184094006180e-05 0.00000000000000000e+00 2.61210885181383558e-07 
2.14388751575718661e-05 0.00000000000000000e+00 1.19554564800573237e-07 
1.00177638837683389e-05 0.00000000000000000e+00 -4.46898230159028791e-07 
-3.75533166274515367e-06 0.00000000000000000e+00 -6.23078959035172011e-07 
-7.29872172601669876e-06 0.00000000000000000e+00 2.57243866797073873e-07 
2.01752182027707180e-06 0.00000000000000000e+00 9.75251691822278615e-07 
1.59058399554083491e-05 0.00000000000000000e+00 -5.20195772429009616e-07 
2.02539609071505890e-05 0.00000000000000000e+00 -1.10973072007994148e-06 
-2.26270947655267233e-05 0.00000000000000000e+00 1.66483911859430749e-07 
1.81564807927914984e-05 0.00000000000000000e+00 1.35168994760850484e-07 
7.07793841175918391e-06 0.00000000000000000e+00 -1.12051255902110021e-07 
4.14273728432451864e-07 0.00000000000000000e+00 -1.21872946466319151e-07 
1.24316947919163560e-05 0.00000000000000000e+00 1.50422367321675958e-07 
2.20796347438183649e-05 0.00000000000000000e+00 2.62257309727358256e-07 
1.65931279605307434e-05 0.00000000000000000e+00 -1.44210111692167238e-07 
2.39382317199544216e-06 0.00000000000000000e+00 -6.50735366227563489e-07 
-6.77559105200496289e-06 0.00000000000000000e+00 -2.98097892603399463e-07 
-3.75352118164725155e-06 0.00000000000000000e+00 7.97127286139351789e-07 
8.76430537559128215e-06 0.00000000000000000e+00 5.12775806420432317e-07 
1.96109409248456340e-05 0.00000000000000000e+00 -1.45415257767361630e-06 
1.62235360498134146e-05 0.00000000000000000e+00 1.44409463464671165e-06 
1.21666750241245609e-03 0.00000000000000000e+00 -1.13095768242599348e-06 
1.37426634834302095e-03 0.00000000000000000e+00 -1.25833914390875295e-06 
8.61062028688190932e-04 0.00000000000000000e+00 -6.09462620887480234e-07 
3.30049146106653371e-04 0.00000000000000000e+00 -2.45620009164191756e-07 
7.19456958484098071e-05 0.00000000000000000e+00 6.56292919947521399e-08 
6.12418417140149364e-06 0.00000000000000000e+00 3.99902161845628545e-07 
1.54640931125716959e-05 0.00000000000000000e+00 3.38320111986789261e-07 
2.96513619960079420e-05 0.00000000000000000e+00 -1.86020194067189972e-07 