# vtk DataFile Version 2.0

ASCII

DATASET UNSTRUCTURED_GRID

POINTS 281 double 

0.00000000000000000e+00  6.00000000000000012e-03  8.68039800000000063e-03
0.00000000000000000e+00  6.00000000000000012e-03  2.15013699999999988e-02
0.00000000000000000e+00  5.99999699999999997e-03  3.38432499999999983e-02
0.00000000000000000e+00  6.00000000000000012e-03  4.61511800000000000e-02
0.00000000000000000e+00  5.99999399999999981e-03  5.84285100000000029e-02
0.00000000000000000e+00  5.99999899999999978e-03  7.03572799999999943e-02
0.00000000000000000e+00  6.00000000000000012e-03  7.56573400000000035e-02
0.00000000000000000e+00  6.00000000000000012e-03  1.52458600000000000e-02
0.00000000000000000e+00  5.99999899999999978e-03  2.76822099999999988e-02
0.00000000000000000e+00  5.99999899999999978e-03  3.99985900000000005e-02
0.00000000000000000e+00  5.99999800000000031e-03  5.22986000000000006e-02
0.00000000000000000e+00  5.99999800000000031e-03  6.44963600000000026e-02
0.00000000000000000e+00  3.00000000000000006e-03  3.07692300000000007e-03
0.00000000000000000e+00  3.00000000000000006e-03  1.04940499999999996e-02
0.00000000000000000e+00  3.00000000000000006e-03  7.41712199999999995e-03
0.00000000000000000e+00  3.00000000000000006e-03  2.30583799999999998e-02
0.00000000000000000e+00  3.00000000000000006e-03  1.99814599999999995e-02
0.00000000000000000e+00  2.99999900000000016e-03  3.53831699999999985e-02
0.00000000000000000e+00  2.99999900000000016e-03  3.23062400000000000e-02
0.00000000000000000e+00  3.00000000000000006e-03  4.76909699999999992e-02
0.00000000000000000e+00  3.00000000000000006e-03  4.46140500000000023e-02
0.00000000000000000e+00  2.99999699999999991e-03  5.99834799999999987e-02
0.00000000000000000e+00  2.99999699999999991e-03  5.69065600000000019e-02
0.00000000000000000e+00  2.99999900000000016e-03  7.21017199999999941e-02
0.00000000000000000e+00  2.99999900000000016e-03  6.90247900000000025e-02
0.00000000000000000e+00  3.00000000000000006e-03  7.78286700000000026e-02
0.00000000000000000e+00  3.00000000000000006e-03  7.47517500000000057e-02
0.00000000000000000e+00  5.99999899999999978e-03  7.30073100000000058e-02
0.00000000000000000e+00  6.00000000000000012e-03  7.78286700000000026e-02
0.00000000000000000e+00  8.99999999999999932e-03  7.47517500000000057e-02
0.00000000000000000e+00  8.99999999999999932e-03  7.78286700000000026e-02
0.00000000000000000e+00  8.99999999999999932e-03  3.07692300000000007e-03
0.00000000000000000e+00  8.99999999999999932e-03  7.41712199999999995e-03
0.00000000000000000e+00  8.99999999999999932e-03  1.04940499999999996e-02
0.00000000000000000e+00  8.99999999999999932e-03  1.99814599999999995e-02
0.00000000000000000e+00  8.99999999999999932e-03  2.30583799999999998e-02
0.00000000000000000e+00  8.99999899999999985e-03  3.23062400000000000e-02
0.00000000000000000e+00  8.99999899999999985e-03  3.53831699999999985e-02
0.00000000000000000e+00  8.99999999999999932e-03  4.46140500000000023e-02
0.00000000000000000e+00  8.99999999999999932e-03  4.76909699999999992e-02
0.00000000000000000e+00  8.99999699999999916e-03  5.69065600000000019e-02
0.00000000000000000e+00  8.99999699999999916e-03  5.99834799999999987e-02
0.00000000000000000e+00  8.99999899999999985e-03  6.90247900000000025e-02
0.00000000000000000e+00  8.99999899999999985e-03  7.21017199999999941e-02
0.00000000000000000e+00  6.00000000000000012e-03  4.34019900000000031e-03
0.00000000000000000e+00  3.00000000000000006e-03  1.37767800000000006e-02
0.00000000000000000e+00  6.00000000000000012e-03  1.19631300000000006e-02
0.00000000000000000e+00  3.00000000000000006e-03  1.68536999999999992e-02
0.00000000000000000e+00  6.00000000000000012e-03  1.83736200000000002e-02
0.00000000000000000e+00  5.99999800000000031e-03  3.07627299999999985e-02
0.00000000000000000e+00  3.00000000000000006e-03  2.92257200000000002e-02
0.00000000000000000e+00  3.00000000000000006e-03  2.61487999999999998e-02
0.00000000000000000e+00  8.99999999999999932e-03  2.92257200000000002e-02
0.00000000000000000e+00  6.00000000000000012e-03  4.30748800000000029e-02
0.00000000000000000e+00  2.99999900000000016e-03  4.15377600000000000e-02
0.00000000000000000e+00  2.99999900000000016e-03  3.84608300000000014e-02
0.00000000000000000e+00  8.99999899999999985e-03  4.15377600000000000e-02
0.00000000000000000e+00  5.99999599999999963e-03  5.53635499999999975e-02
0.00000000000000000e+00  2.99999900000000016e-03  5.38416099999999981e-02
0.00000000000000000e+00  2.99999900000000016e-03  5.07646799999999995e-02
0.00000000000000000e+00  8.99999899999999985e-03  5.38416099999999981e-02
0.00000000000000000e+00  5.99999800000000031e-03  6.74268199999999984e-02
0.00000000000000000e+00  2.99999900000000016e-03  6.60943300000000067e-02
0.00000000000000000e+00  2.99999900000000016e-03  6.30174099999999959e-02
0.00000000000000000e+00  8.99999899999999985e-03  6.60943300000000067e-02
0.00000000000000000e+00  5.99999899999999978e-03  4.92248900000000003e-02
0.00000000000000000e+00  8.99999999999999932e-03  1.68536999999999992e-02
0.00000000000000000e+00  5.99999899999999978e-03  2.45917899999999988e-02
0.00000000000000000e+00  8.99999999999999932e-03  2.61487999999999998e-02
0.00000000000000000e+00  8.99999999999999932e-03  1.37767800000000006e-02
0.00000000000000000e+00  5.99999800000000031e-03  3.69209200000000029e-02
0.00000000000000000e+00  8.99999899999999985e-03  3.84608300000000014e-02
0.00000000000000000e+00  8.99999899999999985e-03  5.07646799999999995e-02
0.00000000000000000e+00  5.99999599999999963e-03  6.14624299999999985e-02
0.00000000000000000e+00  8.99999899999999985e-03  6.30174099999999959e-02
1.20000000000000002e-02  1.20000000000000002e-02  8.00000000000000017e-02
0.00000000000000000e+00  0.00000000000000000e+00  8.00000000000000017e-02
1.20000000000000002e-02  6.00000000000000012e-03  0.00000000000000000e+00
1.20000000000000002e-02  3.00000000000000006e-03  0.00000000000000000e+00
1.20000000000000002e-02  8.99999999999999932e-03  0.00000000000000000e+00
1.20000000000000002e-02  0.00000000000000000e+00  8.00000000000000017e-02
1.20000000000000002e-02  0.00000000000000000e+00  0.00000000000000000e+00
0.00000000000000000e+00  1.20000000000000002e-02  0.00000000000000000e+00
1.20000000000000002e-02  5.99999899999999978e-03  8.68039699999999942e-03
1.20000000000000002e-02  5.99999899999999978e-03  1.52458600000000000e-02
1.20000000000000002e-02  5.99999899999999978e-03  2.15013699999999988e-02
1.20000000000000002e-02  6.00000000000000012e-03  2.76822099999999988e-02
1.20000000000000002e-02  5.99999899999999978e-03  3.38432399999999967e-02
1.20000000000000002e-02  5.99999800000000031e-03  3.99985900000000005e-02
1.20000000000000002e-02  5.99999699999999997e-03  4.61511800000000000e-02
1.20000000000000002e-02  5.99999300000000034e-03  5.22986100000000023e-02
1.20000000000000002e-02  5.99998599999999969e-03  5.84285400000000010e-02
1.20000000000000002e-02  5.99997800000000043e-03  6.44963800000000059e-02
1.20000000000000002e-02  5.99997500000000027e-03  7.03572999999999976e-02
1.20000000000000002e-02  5.99997500000000027e-03  7.56573600000000068e-02
1.20000000000000002e-02  3.00000000000000006e-03  3.07692300000000007e-03
1.20000000000000002e-02  3.00000000000000006e-03  7.41712099999999961e-03
1.20000000000000002e-02  3.00000000000000006e-03  1.04940399999999996e-02
1.20000000000000002e-02  2.99999900000000016e-03  1.37767800000000006e-02
1.20000000000000002e-02  2.99999900000000016e-03  1.68536999999999992e-02
1.20000000000000002e-02  5.99999899999999978e-03  1.19631300000000006e-02
1.20000000000000002e-02  3.00000000000000006e-03  1.99814500000000013e-02
1.20000000000000002e-02  3.00000000000000006e-03  2.30583799999999998e-02
1.20000000000000002e-02  5.99999899999999978e-03  1.83736099999999986e-02
1.20000000000000002e-02  3.00000000000000006e-03  2.61487999999999998e-02
1.20000000000000002e-02  3.00000000000000006e-03  2.92257200000000002e-02
1.20000000000000002e-02  5.99999899999999978e-03  2.45917899999999988e-02
1.20000000000000002e-02  3.00000000000000006e-03  3.23062299999999983e-02
1.20000000000000002e-02  3.00000000000000006e-03  3.53831599999999968e-02
1.20000000000000002e-02  5.99999899999999978e-03  3.07627200000000003e-02
1.20000000000000002e-02  2.99999900000000016e-03  3.84608300000000014e-02
1.20000000000000002e-02  2.99999900000000016e-03  4.15377499999999983e-02
1.20000000000000002e-02  5.99999899999999978e-03  3.69209100000000012e-02
1.20000000000000002e-02  2.99999799999999981e-03  4.46140500000000023e-02
1.20000000000000002e-02  2.99999799999999981e-03  4.76909800000000009e-02
1.20000000000000002e-02  5.99999800000000031e-03  4.30748800000000029e-02
1.20000000000000002e-02  2.99999699999999991e-03  5.07646900000000012e-02
1.20000000000000002e-02  2.99999699999999991e-03  5.38416099999999981e-02
1.20000000000000002e-02  5.99999500000000015e-03  4.92249000000000020e-02
1.20000000000000002e-02  2.99999299999999984e-03  5.69065799999999983e-02
1.20000000000000002e-02  2.99999299999999984e-03  5.99835000000000021e-02
1.20000000000000002e-02  5.99999000000000018e-03  5.53635800000000025e-02
1.20000000000000002e-02  2.99998900000000021e-03  6.30174200000000045e-02
1.20000000000000002e-02  2.99998900000000021e-03  6.60943499999999962e-02
1.20000000000000002e-02  5.99998200000000006e-03  6.14624599999999965e-02
1.20000000000000002e-02  2.99998799999999987e-03  6.90248100000000059e-02
1.20000000000000002e-02  2.99998799999999987e-03  7.21017300000000028e-02
1.20000000000000002e-02  5.99997700000000009e-03  6.74268400000000018e-02
1.20000000000000002e-02  2.99998699999999997e-03  7.47517600000000004e-02
1.20000000000000002e-02  2.99998699999999997e-03  7.78286799999999973e-02
1.20000000000000002e-02  5.99998700000000003e-03  7.78286799999999973e-02
1.20000000000000002e-02  5.99997500000000027e-03  7.30073299999999953e-02
1.20000000000000002e-02  8.99998699999999922e-03  7.78286799999999973e-02
1.20000000000000002e-02  8.99999999999999932e-03  3.07692300000000007e-03
[...]
POINT_DATA 281

SCALARS Rank unsigned_int
LOOKUP_TABLE default
0 0 0 0 0 0 0 0 0 0 0 0 0 0 0 0 0 0 0 0 0 0 0 0 0 0 0 0 0 0 0 0 0 0 0 0 0 0 0 0 0 0 0 0 0 0 0 0 0 0 0 0 0 0 0 0 0 0 0 0 0 0 0 0 0 0 0 0 0 0 0 0 0 0 0 0 0 0 0 0 0 0 0 0 0 0 0 0 0 0 0 0 0 0 0 0 0 0 0 0 0 0 0 0 0 0 0 0 0 0 0 0 0 0 0 0 0 0 0 0 0 0 0 0 0 0 0 0 0 0 0 0 0 0 0 0 0 0 0 0 0 0 0 0 0 0 0 0 0 0 0 0 0 0 0 0 0 0 0 0 0 0 0 0 0 0 0 0 0 0 0 0 0 0 0 0 0 0 0 0 0 0 0 0 0 0 0 0 0 0 0 0 0 0 0 0 0 0 0 0 0 0 0 0 0 0 0 0 0 0 0 0 0 0 0 0 0 0 0 0 0 0 0 0 0 0 0 0 0 0 0 0 0 0 0 0 0 0 0 0 0 0 0 0 0 0 0 0 0 0 0 0 0 0 0 0 0 0 0 0 0 0 0 0 0 0 0 0 0 0 0 0 0 0 0 0 0 0 0 0 0 

VECTORS Forces0 double
2.67714026732485295e-03 0.00000000000000000e+00 -2.54418014652604294e-06 
2.70106330388237593e-04 0.00000000000000000e+00 -4.47896695336429320e-07 
-2.69047662367361887e-05 0.00000000000000000e+00 2.56460216845751860e-07 
4.39357161468390404e-05 0.00000000000000000e+00 4.98418786600146615e-09 
3.46502905308850370e-05 0.00000000000000000e+00 1.63087888532782720e-07 
2.05694507573609692e-06 0.00000000000000000e+00 -4.96236837884902642e-07 
-2.54892042283848947e-05 0.00000000000000000e+00 -2.09367670262241627e-06 
1.15035764615283162e-03 0.00000000000000000e+00 2.62479817145108208e-07 
-2.01027619535169489e-05 0.00000000000000000e+00 -5.68177123506530721e-07 
2.13178232028098833e-05 0.00000000000000000e+00 7.34649403866677847e-07 
4.30548950587480907e-05 0.00000000000000000e+00 -7.92639973400057040e-07 
2.32029821248485758e-05 0.00000000000000000e+00 1.41451090024482419e-06 
3.64331056833548184e-03 0.00000000000000000e+00 -7.24959438450570998e-06 
2.26686906681446230e-03 0.00000000000000000e+00 -1.17813793378509012e-06 
3.00010857967232536e-03 0.00000000000000000e+00 -4.03680852618500963e-06 
1.45513912813521060e-04 0.00000000000000000e+00 -5.95217521877059272e-07 
4.26866516454381460e-04 0.00000000000000000e+00 -2.39721941440830070e-07 
-1.26137469591269480e-05 0.00000000000000000e+00 4.81414931323725842e-07 
-3.75913449293156326e-05 0.00000000000000000e+00 1.25293851917976138e-08 
4.44996559640289941e-05 0.00000000000000000e+00 -2.87251107061641420e-07 
4.21782685397076098e-05 0.00000000000000000e+00 2.91127662997548243e-07 
3.25982202204667829e-05 0.00000000000000000e+00 6.32882537791540727e-07 
3.65702765220143696e-05 0.00000000000000000e+00 -2.56040371185684582e-07 
-6.58938739675844895e-06 0.00000000000000000e+00 -1.39653503537342212e-06 
7.95809032660265202e-06 0.00000000000000000e+00 2.06686470937962979e-07 
-3.48653795687211049e-05 0.00000000000000000e+00 -1.28026257084110711e-06 
-2.07921580024604298e-05 0.00000000000000000e+00 -2.14146932599761482e-06 
-1.13833209134885160e-05 0.00000000000000000e+00 -1.77199993569960836e-06 
-3.48653795706545627e-05 0.00000000000000000e+00 -1.28026257075374329e-06 
-2.07921580007828980e-05 0.00000000000000000e+00 -2.14146932600515087e-06 
-3.48653795703429088e-05 0.00000000000000000e+00 -1.28026257079920270e-06 
3.64331056833545885e-03 0.00000000000000000e+00 -7.24959438437994930e-06 
3.00010857967378990e-03 0.00000000000000000e+00 -4.03680852620836995e-06 
2.26686906681521647e-03 0.00000000000000000e+00 -1.17813793370054141e-06 
4.26866516455488647e-04 0.00000000000000000e+00 -2.39721941419960026e-07 
1.45513912814069883e-04 0.00000000000000000e+00 -5.95217521979912365e-07 
-3.75913449282124569e-05 0.00000000000000000e+00 1.25293852015473865e-08 
-1.26137469590718706e-05 0.00000000000000000e+00 4.81414931334082091e-07 
4.21782685410307701e-05 0.00000000000000000e+00 2.91127662976823676e-07 
4.44996559658109345e-05 0.00000000000000000e+00 -2.87251107053289887e-07 
3.65702765221384023e-05 0.00000000000000000e+00 -2.56040371221709740e-07 
3.25982202223443500e-05 0.00000000000000000e+00 6.32882537786775743e-07 
7.95809032441624992e-06 0.00000000000000000e+00 2.06686470909684784e-07 
-6.58938740070028279e-06 0.00000000000000000e+00 -1.39653503539729405e-06 
3.69872373412365825e-03 0.00000000000000000e+00 -7.99337014380340588e-06 
1.49695108129314458e-03 0.00000000000000000e+00 2.24827095965385638e-08 
1.95649038050191857e-03 0.00000000000000000e+00 -5.96805679638901392e-07 
8.39724977712255367e-04 0.00000000000000000e+00 2.41958274544075642e-07 
6.11648772699605698e-04 0.00000000000000000e+00 4.34573450675448134e-08 
-4.16542976674229214e-05 0.00000000000000000e+00 -2.21932254663506239e-07 
-3.58915783452182051e-05 0.00000000000000000e+00 -4.19169338333503812e-07 
7.43706940729028073e-06 0.00000000000000000e+00 -6.56563911840619475e-07 
-3.58915783446975712e-05 0.00000000000000000e+00 -4.19169338269173778e-07 
3.74969126124415647e-05 0.00000000000000000e+00 5.18119944368050737e-07 
3.01721962283963538e-05 0.00000000000000000e+00 6.64200743318984747e-07 
1.14046507487884885e-05 0.00000000000000000e+00 7.26230299289283494e-07 
3.01721962265566254e-05 0.00000000000000000e+00 6.64200743317425783e-07 
3.86578869227209752e-05 0.00000000000000000e+00 -5.78227587561851610e-07 
4.09154919791612307e-05 0.00000000000000000e+00 -7.54845279128326114e-07 
4.40973484374633997e-05 0.00000000000000000e+00 -7.15920036651047886e-07 
4.09154919768232029e-05 0.00000000000000000e+00 -7.54845279091952401e-07 
1.41580473103528016e-05 0.00000000000000000e+00 8.97634563607210610e-07 
1.86347733326563261e-05 0.00000000000000000e+00 1.25268006738854830e-06 
2.67881119072960400e-05 0.00000000000000000e+00 1.31667140003017390e-06 
1.86347733318168826e-05 0.00000000000000000e+00 1.25268006734997019e-06 
4.44588392255462818e-05 0.00000000000000000e+00 -5.40224885408576177e-07 
8.39724977715500817e-04 0.00000000000000000e+00 2.41958274476728053e-07 
6.00307767567037840e-05 0.00000000000000000e+00 -6.67869738772731760e-07 
7.43706940757997956e-06 0.00000000000000000e+00 -6.56563911826540517e-07 
1.49695108129289608e-03 0.00000000000000000e+00 2.24827096434624950e-08 
4.16371424443954577e-07 0.00000000000000000e+00 6.43108595075614398e-07 
1.14046507471722141e-05 0.00000000000000000e+00 7.26230299289758256e-07 
4.40973484384118598e-05 0.00000000000000000e+00 -7.15920036632017173e-07 
3.00048635415913555e-05 0.00000000000000000e+00 1.02660886464667791e-06 
2.67881119102070144e-05 0.00000000000000000e+00 1.31667140010930245e-06 
1.50904599959725433e-06 0.00000000000000000e+00 1.30765333490897087e-06 
-4.06021741319455455e-05 0.00000000000000000e+00 1.42057843649022976e-06 
-1.01720536003265788e-04 0.00000000000000000e+00 -1.74223724508219785e-07 
-1.01720536002263768e-04 0.00000000000000000e+00 -1.74223724519997355e-07 
-1.01720536005417929e-04 0.00000000000000000e+00 -1.74223724516505885e-07 
1.50904599675005811e-06 0.00000000000000000e+00 1.30765333486661244e-06 
-1.01720536003128094e-04 0.00000000000000000e+00 -1.74223724503905423e-07 
3.08716076997078313e-03 0.00000000000000000e+00 -3.21454377161677250e-06 
1.95632936740404476e-05 0.00000000000000000e+00 1.94724655557018591e-07 
-7.90323643992407370e-06 0.00000000000000000e+00 2.06827801478686268e-07 
-4.20640360936634761e-06 0.00000000000000000e+00 -2.58347620510226048e-07 
3.79122463026565731e-05 0.00000000000000000e+00 -2.83620116017721986e-07 
5.62256596719964082e-05 0.00000000000000000e+00 2.64717220605372573e-07 
3.03474501925106568e-05 0.00000000000000000e+00 5.02433441942728316e-07 
-1.06748127989469387e-05 0.00000000000000000e+00 -2.35548845236722370e-07 
-2.99827384005540312e-05 0.00000000000000000e+00 -8.94209542000591273e-07 
-1.55752934008408364e-05 0.00000000000000000e+00 2.07536449000041558e-07 
1.70162647610605667e-05 0.00000000000000000e+00 1.48715324194318392e-06 
3.86115695664002829e-05 0.00000000000000000e+00 -5.11128039937527544e-07 
3.10025022418649918e-05 0.00000000000000000e+00 -2.21569710762616488e-06 
-4.50892816785461578e-05 0.00000000000000000e+00 -9.70722303031436929e-08 
1.58820852297557292e-05 0.00000000000000000e+00 1.17276577540541023e-07 
1.67175377264948446e-05 0.00000000000000000e+00 2.76974306623376942e-07 
-4.88727517230151930e-07 0.00000000000000000e+00 2.75101604267167020e-07 
-1.30751071768580776e-05 0.00000000000000000e+00 9.70604254682628189e-08 
9.95117393054173410e-06 0.00000000000000000e+00 3.02440091125376400e-07 
-1.07513226390434599e-05 0.00000000000000000e+00 -1.54560617235061612e-07 
4.93654062134380893e-06 0.00000000000000000e+00 -3.31484587267914844e-07 
-1.39217669420506077e-05 0.00000000000000000e+00 -2.56974836856636220e-08 
2.72137208253414818e-05 0.00000000000000000e+00 -3.46103883531905310e-07 
4.64362115892272460e-05 0.00000000000000000e+00 -1.77313900430436260e-07 
1.58677038006783632e-05 0.00000000000000000e+00 -3.62594099442225750e-07 
5.58175233832832303e-05 0.00000000000000000e+00 1.13317916184761162e-07 
5.35469811814367431e-05 0.00000000000000000e+00 3.95904565963902881e-07 
5.26091319195262915e-05 0.00000000000000000e+00 -4.04712801374620608e-08 
3.98973541855656363e-05 0.00000000000000000e+00 5.29261827065065232e-07 
1.99540192031471993e-05 0.00000000000000000e+00 4.02391711258763488e-07 
4.79818771299906355e-05 0.00000000000000000e+00 4.89923525265946281e-07 
-9.66726031150057475e-07 0.00000000000000000e+00 1.45118383743935034e-08 
-1.87776953519009470e-05 0.00000000000000000e+00 -4.88200978768180736e-07 
9.41817694470153481e-06 0.00000000000000000e+00 2.35721954853981572e-07 
-2.84614165544752232e-05 0.00000000000000000e+00 -8.52749608812250032e-07 
-2.96026357711879867e-05 0.00000000000000000e+00 -8.01921403573929756e-07 
-2.47880915121932231e-05 0.00000000000000000e+00 -7.06073595965440781e-07 
-2.21766677527927971e-05 0.00000000000000000e+00 -2.25447584116779686e-07 
-7.55290762370846805e-06 0.00000000000000000e+00 6.82040522398442312e-07 
-2.70231077777830924e-05 0.00000000000000000e+00 -5.78217243575328286e-07 
8.85917586097658655e-06 0.00000000000000000e+00 1.39471999609638374e-06 
2.53238105353751707e-05 0.00000000000000000e+00 1.30110023274007674e-06 
3.05994150242045457e-07 0.00000000000000000e+00 1.09399079138614684e-06 
3.63425168750140269e-05 0.00000000000000000e+00 2.04442743826035180e-07 
3.91718550120595202e-05 0.00000000000000000e+00 -1.43782977204261108e-06 
3.13356932208978846e-05 0.00000000000000000e+00 9.17551654255136566e-07 
3.44089875805235576e-05 0.00000000000000000e+00 -2.24356427043015317e-06 
1.84422370224484523e-05 0.00000000000000000e+00 -1.40757091440793427e-06 
1.84422370242457343e-05 0.00000000000000000e+00 -1.40757091436110352e-06 
3.83417829895588413e-05 0.00000000000000000e+00 -1.83217483218413944e-06 
1.84422370207477728e-05 0.00000000000000000e+00 -1.40757091443623364e-06 
-4.50892816788662143e-05 0.00000000000000000e+00 -9.70722303500324722e-08 
1.67175377281316646e-05 0.00000000000000000e+00 2.76974306611673912e-07 
1.58820852306735063e-05 0.00000000000000000e+00 1.17276577468527817e-07 
-1.30751071784712078e-05 0.00000000000000000e+00 9.70604253855915562e-08 
-4.88727518788963603e-07 0.00000000000000000e+00 2.75101604265661207e-07 
4.93654062255868457e-06 0.00000000000000000e+00 -3.31484587306546852e-07 
-1.07513226415407841e-05 0.00000000000000000e+00 -1.54560617218232338e-07 
4.64362115894739020e-05 0.00000000000000000e+00 -1.77313900352961121e-07 
2.72137208235891943e-05 0.00000000000000000e+00 -3.46103883534823339e-07 
5.35469811815330202e-05 0.00000000000000000e+00 3.95904565991854969e-07 
5.58175233833861753e-05 0.00000000000000000e+00 1.13317916226837523e-07 
1.99540192029744859e-05 0.00000000000000000e+00 4.02391711289872255e-07 
3.98973541844768804e-05 0.00000000000000000e+00 5.29261827039378111e-07 
-1.87776953518683667e-05 0.00000000000000000e+00 -4.88200978715927697e-07 
-9.66726030346934716e-07 0.00000000000000000e+00 1.45118383574600443e-08 
-2.96026357707684004e-05 0.00000000000000000e+00 -8.01921403601447316e-07 
-2.84614165535421588e-05 0.00000000000000000e+00 -8.52749608845958979e-07 
-7.55290762354437405e-06 0.00000000000000000e+00 6.82040522369539854e-07 
-2.21766677539764206e-05 0.00000000000000000e+00 -2.25447584117076994e-07 
2.53238105346260954e-05 0.00000000000000000e+00 1.30110023273327633e-06 
8.85917585941484753e-06 0.00000000000000000e+00 1.39471999610075316e-06 
3.91718550128796649e-05 0.00000000000000000e+00 -1.43782977202047323e-06 
3.63425168770909246e-05 0.00000000000000000e+00 2.04442743853390109e-07 
-1.99994182095164044e-05 0.00000000000000000e+00 -5.58031165271969698e-08 
3.44089875821620582e-05 0.00000000000000000e+00 -2.24356427042079642e-06 
-4.06021741311618842e-05 0.00000000000000000e+00 1.42057843646763601e-06 
3.33182729604880948e-03 0.00000000000000000e+00 -5.83864804531599157e-06 
1.87245337386940532e-03 0.00000000000000000e+00 -4.63171992502762452e-07 
6.00259258307858624e-04 0.00000000000000000e+00 2.88144803125905310e-08 
5.89916309269356470e-05 0.00000000000000000e+00 -6.68347270464201977e-07 
-4.16563667253950758e-05 0.00000000000000000e+00 -2.21007661686324834e-07 
4.32599560154036000e-07 0.00000000000000000e+00 6.43276924078508611e-07 
3.75053438250982693e-05 0.00000000000000000e+00 5.17875658015226213e-07 
4.44580356795166670e-05 0.00000000000000000e+00 -5.41064747058809514e-07 
3.86277351039350408e-05 0.00000000000000000e+00 -5.74757569839210613e-07 
2.98583844135305801e-05 0.00000000000000000e+00 1.04424585603497230e-06 
1.31895071612610332e-05 0.00000000000000000e+00 8.02558170952905012e-07 
-1.59190020494343370e-05 0.00000000000000000e+00 -2.02106589306433031e-06 
3.64331056833904062e-03 0.00000000000000000e+00 -7.24959438448669917e-06 
2.54485359867135481e-03 0.00000000000000000e+00 -2.02528634656314279e-06 
1.12045530421795662e-03 0.00000000000000000e+00 2.71767265503582458e-07 
2.66662284133333156e-04 0.00000000000000000e+00 -4.52181688489893097e-07 
-2.02286602070786768e-05 0.00000000000000000e+00 -5.67367455551084463e-07 
-2.68801622879610815e-05 0.00000000000000000e+00 2.56912284414553663e-07 
2.13264558693656554e-05 0.00000000000000000e+00 7.34621042192225992e-07 
4.39374660996920960e-05 0.00000000000000000e+00 4.46958458877958823e-09 
4.30441554144303653e-05 0.00000000000000000e+00 -7.92801986911107982e-07 
3.46091270935965859e-05 0.00000000000000000e+00 1.72904057764285180e-07 
2.28891144619508400e-05 0.00000000000000000e+00 1.41260171366593519e-06 
1.00621487201305484e-07 0.00000000000000000e+00 -7.17547611110601148e-07 
-3.13426832722612793e-05 0.00000000000000000e+00 -1.79511170345328838e-06 
-3.51153588617776269e-05 0.00000000000000000e+00 3.34149831865211794e-05 
-3.51153588610835749e-05 0.00000000000000000e+00 3.34149831865406137e-05 
-2.05031067265916596e-06 0.00000000000000000e+00 3.33474145581803908e-05 
-2.05031067121126817e-06 0.00000000000000000e+00 3.33474145582092577e-05 
-1.80819535150357023e-05 0.00000000000000000e+00 6.09729130874296388e-05 
-1.80819535148561991e-05 0.00000000000000000e+00 6.09729130874310076e-05 
-3.51153588619403928e-05 0.00000000000000000e+00 3.34149831865364057e-05 
-2.05031067083525330e-06 0.00000000000000000e+00 3.33474145581948717e-05 
1.50904599965742756e-06 0.00000000000000000e+00 1.30765333490497626e-06 
1.50904599948135312e-06 0.00000000000000000e+00 1.30765333487333450e-06 
1.50904599844729530e-06 0.00000000000000000e+00 1.30765333487615850e-06 
-4.06021741325433204e-05 0.00000000000000000e+00 1.42057843653421280e-06 
-4.06021741322769861e-05 0.00000000000000000e+00 1.42057843651140389e-06 
-4.06021741327432473e-05 0.00000000000000000e+00 1.42057843649978430e-06 
6.12638697434131689e-06 0.00000000000000000e+00 3.75110939457173851e-08 
8.00845254573348540e-06 0.00000000000000000e+00 3.02413464229993465e-07 
-1.38526155673759458e-05 0.00000000000000000e+00 -3.29613312134527157e-08 
1.60412290176424672e-05 0.00000000000000000e+00 -3.62713715280340615e-07 
5.26292356273800821e-05 0.00000000000000000e+00 -3.98459405715719555e-08 
4.79720251358742720e-05 0.00000000000000000e+00 4.90021276999071933e-07 
9.40431213818230064e-06 0.00000000000000000e+00 2.35460199097585209e-07 
-2.48066382208083650e-05 0.00000000000000000e+00 -7.06791468805874368e-07 
-2.69717089658168801e-05 0.00000000000000000e+00 -5.74209211631935390e-07 
7.17448572838417474e-07 0.00000000000000000e+00 1.11249103470908497e-06 
3.23734394425034057e-05 0.00000000000000000e+00 8.16930714164475686e-07 
3.68602926438020095e-05 0.00000000000000000e+00 -2.10088483972941335e-06 
-4.50892816777471008e-05 0.00000000000000000e+00 -9.70722302833114752e-08 
1.95019475209070164e-05 0.00000000000000000e+00 2.24681957127699828e-07 
-8.49349963651166468e-06 0.00000000000000000e+00 1.98590963529259623e-07 
-4.01356807573806588e-06 0.00000000000000000e+00 -2.60528572389094933e-07 
3.79769132100317273e-05 0.00000000000000000e+00 -2.83060082342163804e-07 
5.62235428305000258e-05 0.00000000000000000e+00 2.64989970406131800e-07 
3.03382200972577173e-05 0.00000000000000000e+00 5.02375334039776499e-07 
-1.06904445050920133e-05 0.00000000000000000e+00 -2.35994023742060862e-07 
-2.99867470414583467e-05 0.00000000000000000e+00 -8.94070455939184859e-07 
-1.54156015903347418e-05 0.00000000000000000e+00 2.17485803060927073e-07 
1.76602359257188554e-05 0.00000000000000000e+00 1.48407257398348280e-06 
3.89965054444638682e-05 0.00000000000000000e+00 -7.37379995924335700e-07 
2.43627260450599717e-05 0.00000000000000000e+00 -1.92545018759986351e-06 
3.08716076997120727e-03 0.00000000000000000e+00 -3.21454377172938638e-06 
3.08716076997092494e-03 0.00000000000000000e+00 -3.21454377170529422e-06 
3.08716076997269957e-03 0.00000000000000000e+00 -3.21454377167122571e-06 
-1.80819535133653262e-05 0.00000000000000000e+00 6.09729130874552463e-05 
-3.51153588614221441e-05 0.00000000000000000e+00 3.34149831865591062e-05 
-2.05031067219266087e-06 0.00000000000000000e+00 3.33474145581514765e-05 
6.12638697430315297e-06 0.00000000000000000e+00 3.75110939265385474e-08 
8.00845254573798484e-06 0.00000000000000000e+00 3.02413464246818292e-07 
-1.38526155687339903e-05 0.00000000000000000e+00 -3.29613311939396177e-08 
1.60412290164791725e-05 0.00000000000000000e+00 -3.62713715300170503e-07 
5.26292356281714413e-05 0.00000000000000000e+00 -3.98459405688148633e-08 
4.79720251344432336e-05 0.00000000000000000e+00 4.90021276987386267e-07 
9.40431213888188209e-06 0.00000000000000000e+00 2.35460199104121551e-07 
-2.48066382206326700e-05 0.00000000000000000e+00 -7.06791468808040232e-07 
-2.69717089654509619e-05 0.00000000000000000e+00 -5.74209211639976274e-07 
7.17448570834757649e-07 0.00000000000000000e+00 1.11249103474306497e-06 
3.23734394419896565e-05 0.00000000000000000e+00 8.16930714163928503e-07 
3.68602926431847190e-05 0.00000000000000000e+00 -2.10088483972922361e-06 
-4.50892816787150765e-05 0.00000000000000000e+00 -9.70722302884777409e-08 
1.95019475220756780e-05 0.00000000000000000e+00 2.24681957186636010e-07 
-8.49349963655026228e-06 0.00000000000000000e+00 1.98590963578009122e-07 
-4.01356807572630229e-06 0.00000000000000000e+00 -2.60528572371902811e-07 
3.79769132102417915e-05 0.00000000000000000e+00 -2.83060082348167997e-07 
5.62235428309411334e-05 0.00000000000000000e+00 2.64989970407006785e-07 
3.03382200974204018e-05 0.00000000000000000e+00 5.02375334042518345e-07 
-1.06904445051775027e-05 0.00000000000000000e+00 -2.35994023732030509e-07 
-2.99867470414256580e-05 0.00000000000000000e+00 -8.94070455966245020e-07 
-1.54156015910561157e-05 0.00000000000000000e+00 2.17485803061952830e-07 
1.76602359264854947e-05 0.00000000000000000e+00 1.48407257398012474e-06 
3.89965054440703570e-05 0.00000000000000000e+00 -7.37379995930152698e-07 
2.43627260463661100e-05 0.00000000000000000e+00 -1.92545018757142522e-06 
3.08716076997101992e-03 0.00000000000000000e+00 -3.21454377172292775e-06 
3.33182729604796467e-03 0.00000000000000000e+00 -5.83864804538503576e-06 
1.87245337386898378e-03 0.00000000000000000e+00 -4.63171992537390429e-07 
6.00259258308028410e-04 0.00000000000000000e+00 2.88144803662415979e-08 
5.89916309258899340e-05 0.00000000000000000e+00 -6.68347270479466357e-07 
-4.16563667250192913e-05 0.00000000000000000e+00 -2.21007661675568363e-07 
4.32599560919807994e-07 0.00000000000000000e+00 6.43276924078207067e-07 
3.75053438246331466e-05 0.00000000000000000e+00 5.17875658070424385e-07 