# vtk DataFile Version 2.0

ASCII

DATASET UNSTRUCTURED_GRID

POINTS 281 double 

0.00000000000000000e+00  6.00000000000000012e-03  8.68039800000000063e-03
0.00000000000000000e+00  6.00000000000000012e-03  2.15013699999999988e-02
0.00000000000000000e+00  5.99999699999999997e-03  3.38432499999999983e-02
0.00000000000000000e+00  6.00000000000000012e-03  4.61511800000000000e-02
0.00000000000000000e+00  5.99999399999999981e-03  5.84285100000000029e-02
0.00000000000000000e+00  5.99999899999999978e-03  7.03572799999999943e-02
0.00000000000000000e+00  6.00000000000000012e-03  7.56573400000000035e-02
0.00000000000000000e+00  6.00000000000000012e-03  1.52458600000000000e-02
0.00000000000000000e+00  5.99999899999999978e-03  2.76822099999999988e-02
0.00000000000000000e+00  5.99999899999999978e-03  3.99985900000000005e-02
0.00000000000000000e+00  5.99999800000000031e-03  5.22986000000000006e-02
0.00000000000000000e+00  5.99999800000000031e-03  6.44963600000000026e-02
0.00000000000000000e+00  3.00000000000000006e-03  3.07692300000000007e-03
0.00000000000000000e+00  3.00000000000000006e-03  1.04940499999999996e-02
0.00000000000000000e+00  3.00000000000000006e-03  7.41712199999999995e-03
0.00000000000000000e+00  3.00000000000000006e-03  2.30583799999999998e-02
0.00000000000000000e+00  3.00000000000000006e-03  1.99814599999999995e-02
0.00000000000000000e+00  2.99999900000000016e-03  3.53831699999999985e-02
0.00000000000000000e+00  2.99999900000000016e-03  3.23062400000000000e-02
0.00000000000000000e+00  3.00000000000000006e-03  4.76909699999999992e-02
0.00000000000000000e+00  3.00000000000000006e-03  4.46140500000000023e-02
0.00000000000000000e+00  2.99999699999999991e-03  5.99834799999999987e-02
0.00000000000000000e+00  2.99999699999999991e-03  5.69065600000000019e-02
0.00000000000000000e+00  2.99999900000000016e-03  7.21017199999999941e-02
0.00000000000000000e+00  2.99999900000000016e-03  6.90247900000000025e-02
0.00000000000000000e+00  3.00000000000000006e-03  7.78286700000000026e-02
0.00000000000000000e+00  3.00000000000000006e-03  7.47517500000000057e-02
0.00000000000000000e+00  5.99999899999999978e-03  7.30073100000000058e-02
0.00000000000000000e+00  6.00000000000000012e-03  7.78286700000000026e-02
0.00000000000000000e+00  8.99999999999999932e-03  7.47517500000000057e-02
0.00000000000000000e+00  8.99999999999999932e-03  7.78286700000000026e-02
0.00000000000000000e+00  8.99999999999999932e-03  3.07692300000000007e-03
0.00000000000000000e+00  8.99999999999999932e-03  7.41712199999999995e-03
0.00000000000000000e+00  8.99999999999999932e-03  1.04940499999999996e-02
0.00000000000000000e+00  8.99999999999999932e-03  1.99814599999999995e-02
0.00000000000000000e+00  8.99999999999999932e-03  2.30583799999999998e-02
0.00000000000000000e+00  8.99999899999999985e-03  3.23062400000000000e-02
0.00000000000000000e+00  8.99999899999999985e-03  3.53831699999999985e-02
0.00000000000000000e+00  8.99999999999999932e-03  4.46140500000000023e-02
0.00000000000000000e+00  8.99999999999999932e-03  4.76909699999999992e-02
0.00000000000000000e+00  8.99999699999999916e-03  5.69065600000000019e-02
0.00000000000000000e+00  8.99999699999999916e-03  5.99834799999999987e-02
0.00000000000000000e+00  8.99999899999999985e-03  6.90247900000000025e-02
0.00000000000000000e+00  8.99999899999999985e-03  7.21017199999999941e-02
0.00000000000000000e+00  6.00000000000000012e-03  4.34019900000000031e-03
0.00000000000000000e+00  3.00000000000000006e-03  1.37767800000000006e-02
0.00000000000000000e+00  6.00000000000000012e-03  1.19631300000000006e-02
0.00000000000000000e+00  3.00000000000000006e-03  1.68536999999999992e-02
0.00000000000000000e+00  6.00000000000000012e-03  1.83736200000000002e-02
0.00000000000000000e+00  5.99999800000000031e-03  3.07627299999999985e-02
0.00000000000000000e+00  3.00000000000000006e-03  2.92257200000000002e-02
0.00000000000000000e+00  3.00000000000000006e-03  2.61487999999999998e-02
0.00000000000000000e+00  8.99999999999999932e-03  2.92257200000000002e-02
0.00000000000000000e+00  6.00000000000000012e-03  4.30748800000000029e-02
0.00000000000000000e+00  2.99999900000000016e-03  4.15377600000000000e-02
0.00000000000000000e+00  2.99999900000000016e-03  3.84608300000000014e-02
0.00000000000000000e+00  8.99999899999999985e-03  4.15377600000000000e-02
0.00000000000000000e+00  5.99999599999999963e-03  5.53635499999999975e-02
0.00000000000000000e+00  2.99999900000000016e-03  5.38416099999999981e-02
0.00000000000000000e+00  2.99999900000000016e-03  5.07646799999999995e-02
0.00000000000000000e+00  8.99999899999999985e-03  5.38416099999999981e-02
0.00000000000000000e+00  5.99999800000000031e-03  6.74268199999999984e-02
0.00000000000000000e+00  2.99999900000000016e-03  6.60943300000000067e-02
0.00000000000000000e+00  2.99999900000000016e-03  6.30174099999999959e-02
0.00000000000000000e+00  8.99999899999999985e-03  6.60943300000000067e-02
0.00000000000000000e+00  5.99999899999999978e-03  4.92248900000000003e-02
0.00000000000000000e+00  8.99999999999999932e-03  1.68536999999999992e-02
0.00000000000000000e+00  5.99999899999999978e-03  2.45917899999999988e-02
0.00000000000000000e+00  8.99999999999999932e-03  2.61487999999999998e-02
0.00000000000000000e+00  8.99999999999999932e-03  1.37767800000000006e-02
0.00000000000000000e+00  5.99999800000000031e-03  3.69209200000000029e-02
0.00000000000000000e+00  8.99999899999999985e-03  3.84608300000000014e-02
0.00000000000000000e+00  8.99999899999999985e-03  5.07646799999999995e-02
0.00000000000000000e+00  5.99999599999999963e-03  6.14624299999999985e-02
0.00000000000000000e+00  8.99999899999999985e-03  6.30174099999999959e-02
1.20000000000000002e-02  1.20000000000000002e-02  8.00000000000000017e-02
0.00000000000000000e+00  0.00000000000000000e+00  8.00000000000000017e-02
1.20000000000000002e-02  6.00000000000000012e-03  0.00000000000000000e+00
1.20000000000000002e-02  3.00000000000000006e-03  0.00000000000000000e+00
1.20000000000000002e-02  8.99999999999999932e-03  0.00000000000000000e+00
1.20000000000000002e-02  0.00000000000000000e+00  8.00000000000000017e-02
1.20000000000000002e-02  0.00000000000000000e+00  0.00000000000000000e+00
0.00000000000000000e+00  1.20000000000000002e-02  0.00000000000000000e+00
1.20000000000000002e-02  5.99999899999999978e-03  8.68039699999999942e-03
1.20000000000000002e-02  5.99999899999999978e-03  1.52458600000000000e-02
1.20000000000000002e-02  5.99999899999999978e-03  2.15013699999999988e-02
1.20000000000000002e-02  6.00000000000000012e-03  2.76822099999999988e-02
1.20000000000000002e-02  5.99999899999999978e-03  3.38432399999999967e-02
1.20000000000000002e-02  5.99999800000000031e-03  3.99985900000000005e-02
1.20000000000000002e-02  5.99999699999999997e-03  4.61511800000000000e-02
1.20000000000000002e-02  5.99999300000000034e-03  5.22986100000000023e-02
1.20000000000000002e-02  5.99998599999999969e-03  5.84285400000000010e-02
1.20000000000000002e-02  5.99997800000000043e-03  6.44963800000000059e-02
1.20000000000000002e-02  5.99997500000000027e-03  7.03572999999999976e-02
1.20000000000000002e-02  5.99997500000000027e-03  7.56573600000000068e-02
1.20000000000000002e-02  3.00000000000000006e-03  3.07692300000000007e-03
1.20000000000000002e-02  3.00000000000000006e-03  7.41712099999999961e-03
1.20000000000000002e-02  3.00000000000000006e-03  1.04940399999999996e-02
1.20000000000000002e-02  2.99999900000000016e-03  1.37767800000000006e-02
1.20000000000000002e-02  2.99999900000000016e-03  1.68536999999999992e-02
1.20000000000000002e-02  5.99999899999999978e-03  1.19631300000000006e-02
1.20000000000000002e-02  3.00000000000000006e-03  1.99814500000000013e-02
1.20000000000000002e-02  3.00000000000000006e-03  2.30583799999999998e-02
1.20000000000000002e-02  5.99999899999999978e-03  1.83736099999999986e-02
1.20000000000000002e-02  3.00000000000000006e-03  2.61487999999999998e-02
1.20000000000000002e-02  3.00000000000000006e-03  2.92257200000000002e-02
1.20000000000000002e-02  5.99999899999999978e-03  2.45917899999999988e-02
1.20000000000000002e-02  3.00000000000000006e-03  3.23062299999999983e-02
1.20000000000000002e-02  3.00000000000000006e-03  3.53831599999999968e-02
1.20000000000000002e-02  5.99999899999999978e-03  3.07627200000000003e-02
1.20000000000000002e-02  2.99999900000000016e-03  3.84608300000000014e-02
1.20000000000000002e-02  2.99999900000000016e-03  4.15377499999999983e-02
1.20000000000000002e-02  5.99999899999999978e-03  3.69209100000000012e-02
1.20000000000000002e-02  2.99999799999999981e-03  4.46140500000000023e-02
1.20000000000000002e-02  2.99999799999999981e-03  4.76909800000000009e-02
1.20000000000000002e-02  5.99999800000000031e-03  4.30748800000000029e-02
1.20000000000000002e-02  2.99999699999999991e-03  5.07646900000000012e-02
1.20000000000000002e-02  2.99999699999999991e-03  5.38416099999999981e-02
1.20000000000000002e-02  5.99999500000000015e-03  4.92249000000000020e-02
1.20000000000000002e-02  2.99999299999999984e-03  5.69065799999999983e-02
1.20000000000000002e-02  2.99999299999999984e-03  5.99835000000000021e-02
1.20000000000000002e-02  5.99999000000000018e-03  5.53635800000000025e-02
1.20000000000000002e-02  2.99998900000000021e-03  6.30174200000000045e-02
1.20000000000000002e-02  2.99998900000000021e-03  6.60943499999999962e-02
1.20000000000000002e-02  5.99998200000000006e-03  6.14624599999999965e-02
1.20000000000000002e-02  2.99998799999999987e-03  6.90248100000000059e-02
1.20000000000000002e-02  2.99998799999999987e-03  7.21017300000000028e-02
1.20000000000000002e-02  5.99997700000000009e-03  6.74268400000000018e-02
1.20000000000000002e-02  2.99998699999999997e-03  7.47517600000000004e-02
1.20000000000000002e-02  2.99998699999999997e-03  7.78286799999999973e-02
1.20000000000000002e-02  5.99998700000000003e-03  7.78286799999999973e-02
1.20000000000000002e-02  5.99997500000000027e-03  7.30073299999999953e-02
1.20000000000000002e-02  8.99998699999999922e-03  7.78286799999999973e-02
1.20000000000000002e-02  8.99999999999999932e-03  3.07692300000000007e-03
[...]
POINT_DATA 281

SCALARS Rank unsigned_int
LOOKUP_TABLE default
0 0 0 0 0 0 0 0 0 0 0 0 0 0 0 0 0 0 0 0 0 0 0 0 0 0 0 0 0 0 0 0 0 0 0 0 0 0 0 0 0 0 0 0 0 0 0 0 0 0 0 0 0 0 0 0 0 0 0 0 0 0 0 0 0 0 0 0 0 0 0 0 0 0 0 0 0 0 0 0 0 0 0 0 0 0 0 0 0 0 0 0 0 0 0 0 0 0 0 0 0 0 0 0 0 0 0 0 0 0 0 0 0 0 0 0 0 0 0 0 0 0 0 0 0 0 0 0 0 0 0 0 0 0 0 0 0 0 0 0 0 0 0 0 0 0 0 0 0 0 0 0 0 0 0 0 0 0 0 0 0 0 0 0 0 0 0 0 0 0 0 0 0 0 0 0 0 0 0 0 0 0 0 0 0 0 0 0 0 0 0 0 0 0 0 0 0 0 0 0 0 0 0 0 0 0 0 0 0 0 0 0 0 0 0 0 0 0 0 0 0 0 0 0 0 0 0 0 0 0 0 0 0 0 0 0 0 0 0 0 0 0 0 0 0 0 0 0 0 0 0 0 0 0 0 0 0 0 0 0 0 0 0 0 0 0 0 0 0 0 0 0 0 0 0 0 0 0 0 0 0 

VECTORS Forces0 double
1.48640799320313650e-05 0.00000000000000000e+00 2.03184960115725496e-07 
1.42437462716972897e-05 0.00000000000000000e+00 -1.41635566319342326e-07 
1.15409269189489746e-05 0.00000000000000000e+00 1.03972405702359958e-07 
8.45970704749184188e-06 0.00000000000000000e+00 -7.63588390445621790e-08 
5.39839780477209756e-06 0.00000000000000000e+00 1.00414932845248601e-07 
2.32999441171828508e-06 0.00000000000000000e+00 -2.21401876276586472e-07 
1.09101833342446444e-06 0.00000000000000000e+00 -6.05141201681805506e-07 
1.49125492518593793e-05 0.00000000000000000e+00 4.78612105350849221e-08 
1.30791866796461368e-05 0.00000000000000000e+00 -1.16223341735038516e-07 
9.96841123783842299e-06 0.00000000000000000e+00 1.88068078219651266e-07 
6.97506896889641117e-06 0.00000000000000000e+00 -2.82653122049601511e-07 
3.81851074592405647e-06 0.00000000000000000e+00 4.64785454210023879e-07 
1.40342237626758838e-05 0.00000000000000000e+00 1.91742196102667183e-08 
1.50578037280753724e-05 0.00000000000000000e+00 1.85279316365210493e-07 
1.47327589580099223e-05 0.00000000000000000e+00 1.96684386095609334e-07 
1.39092882636483693e-05 0.00000000000000000e+00 -1.60033544838801536e-07 
1.45408934990152316e-05 0.00000000000000000e+00 -1.09224019601386698e-07 
1.12241580443016783e-05 0.00000000000000000e+00 1.53083634434901674e-07 
1.18836456165927743e-05 0.00000000000000000e+00 4.59154946292521638e-08 
8.04640935825673316e-06 0.00000000000000000e+00 -1.62280375089917238e-07 
8.89489439477135558e-06 0.00000000000000000e+00 1.16205700703928010e-08 
5.03388636853441245e-06 0.00000000000000000e+00 2.52344211230408973e-07 
5.75731528162340924e-06 0.00000000000000000e+00 -4.40254384382420880e-08 
1.88812333737244381e-06 0.00000000000000000e+00 -4.95204099367747699e-07 
2.68149431431916455e-06 0.00000000000000000e+00 7.85695916290241600e-09 
6.67188236728812070e-07 0.00000000000000000e+00 -2.28319762263118483e-07 
1.27964660549742430e-06 0.00000000000000000e+00 -6.60211666277965735e-07 
1.67097265139023652e-06 0.00000000000000000e+00 -5.97564647162382232e-07 
6.67188236735661178e-07 0.00000000000000000e+00 -2.28319762253370827e-07 
1.27964660549270209e-06 0.00000000000000000e+00 -6.60211666241279892e-07 
6.67188236727179838e-07 0.00000000000000000e+00 -2.28319762264883276e-07 
1.40342237626781454e-05 0.00000000000000000e+00 1.91742196222459876e-08 
1.47327589580081605e-05 0.00000000000000000e+00 1.96684386084816969e-07 
1.50578037280774188e-05 0.00000000000000000e+00 1.85279316420006749e-07 
1.45408934990125600e-05 0.00000000000000000e+00 -1.09224019570665501e-07 
1.39092882636473156e-05 0.00000000000000000e+00 -1.60033544848072577e-07 
1.18836456165909989e-05 0.00000000000000000e+00 4.59154946094845324e-08 
1.12241580443037925e-05 0.00000000000000000e+00 1.53083634435074468e-07 
8.89489439477259225e-06 0.00000000000000000e+00 1.16205700566160219e-08 
8.04640935825502723e-06 0.00000000000000000e+00 -1.62280375079520755e-07 
5.75731528161884458e-06 0.00000000000000000e+00 -4.40254384146197155e-08 
5.03388636853337229e-06 0.00000000000000000e+00 2.52344211232661710e-07 
2.68149431432206055e-06 0.00000000000000000e+00 7.85695915799142485e-09 
1.88812333737523266e-06 0.00000000000000000e+00 -4.95204099375252728e-07 
1.43636501814555494e-05 0.00000000000000000e+00 9.83587324814375608e-08 
1.50500286317060131e-05 0.00000000000000000e+00 9.86758923022003336e-08 
1.51604803981942088e-05 0.00000000000000000e+00 1.52749496496126427e-07 
1.47838115109043536e-05 0.00000000000000000e+00 -9.92801024573972413e-09 
1.46809024161368524e-05 0.00000000000000000e+00 -6.20439779812250474e-08 
1.22728021470861152e-05 0.00000000000000000e+00 -1.45555193474316104e-08 
1.26969189308393167e-05 0.00000000000000000e+00 -7.02909058579284148e-08 
1.33411602916031920e-05 0.00000000000000000e+00 -1.47137795398457164e-07 
1.26969189308436264e-05 0.00000000000000000e+00 -7.02909058810424617e-08 
9.26682007008282215e-06 0.00000000000000000e+00 9.04773977568985510e-08 
9.60172586799615038e-06 0.00000000000000000e+00 1.50680307154627610e-07 
1.03844133383836864e-05 0.00000000000000000e+00 1.99551434318346478e-07 
9.60172586799692965e-06 0.00000000000000000e+00 1.50680307168613395e-07 
6.14453985463496654e-06 0.00000000000000000e+00 -1.65499507490491982e-07 
6.55473433358862271e-06 0.00000000000000000e+00 -2.45642025320997225e-07 
7.33052820811722618e-06 0.00000000000000000e+00 -2.76069190748626972e-07 
6.55473433358341430e-06 0.00000000000000000e+00 -2.45642025323215181e-07 
3.09202755751782312e-06 0.00000000000000000e+00 2.47833012429381314e-07 
3.41787055163937936e-06 0.00000000000000000e+00 3.84714190198633158e-07 
4.20898619794352151e-06 0.00000000000000000e+00 4.54319904524733076e-07 
3.41787055163611955e-06 0.00000000000000000e+00 3.84714190206702417e-07 
7.67208633534442379e-06 0.00000000000000000e+00 -2.32910379214753912e-07 
1.47838115109062205e-05 0.00000000000000000e+00 -9.92801024907904565e-09 
1.36071128772474104e-05 0.00000000000000000e+00 -1.62220253069465011e-07 
1.33411602916002274e-05 0.00000000000000000e+00 -1.47137795374230433e-07 
1.50500286317046392e-05 0.00000000000000000e+00 9.86758923361600549e-08 
1.08296446747310628e-05 0.00000000000000000e+00 1.86891127203922507e-07 
1.03844133383851230e-05 0.00000000000000000e+00 1.99551434320017568e-07 
7.33052820811869663e-06 0.00000000000000000e+00 -2.76069190766373583e-07 
4.63408560065282660e-06 0.00000000000000000e+00 3.74752538829626935e-07 
4.20898619794526301e-06 0.00000000000000000e+00 4.54319904509808991e-07 
1.51603449034196873e-06 0.00000000000000000e+00 7.26340163841529073e-07 
3.11061731136313237e-07 0.00000000000000000e+00 7.33869018531395468e-07 
-1.27348403669480934e-06 0.00000000000000000e+00 -2.87640925095492450e-07 
-1.27348403669433755e-06 0.00000000000000000e+00 -2.87640925075333860e-07 
-1.27348403668479741e-06 0.00000000000000000e+00 -2.87640925108889282e-07 
1.51603449034182643e-06 0.00000000000000000e+00 7.26340163853599292e-07 
-1.27348403669191418e-06 0.00000000000000000e+00 -2.87640925091457609e-07 
1.30288652222633198e-05 0.00000000000000000e+00 -2.85550330140481147e-07 
-9.40358468766377132e-07 0.00000000000000000e+00 2.03132736627753182e-07 
-5.88139832459296836e-07 0.00000000000000000e+00 4.88189995852723091e-08 
-2.48978044706495089e-07 0.00000000000000000e+00 -1.39118520678010298e-07 
1.36531068569411098e-07 0.00000000000000000e+00 -1.13190109966024845e-07 
6.14360679873510752e-07 0.00000000000000000e+00 1.06388945208471524e-07 
1.21186815267055245e-06 0.00000000000000000e+00 1.89738572471304522e-07 
1.91109548792069691e-06 0.00000000000000000e+00 -7.69135249063634529e-08 
2.62199550288968618e-06 0.00000000000000000e+00 -2.87929950433714051e-07 
3.16219605061588427e-06 0.00000000000000000e+00 9.23293733700116611e-08 
3.37072702247434116e-06 0.00000000000000000e+00 4.54960916634153695e-07 
3.14145891074945362e-06 0.00000000000000000e+00 -2.36360144448964731e-07 
2.48170736640116384e-06 0.00000000000000000e+00 -6.26066944886490467e-07 
-1.20990720194212068e-06 0.00000000000000000e+00 1.86832111167425082e-08 
-1.00639006742611250e-06 0.00000000000000000e+00 1.96407617919608882e-07 
-8.47246856380718172e-07 0.00000000000000000e+00 1.86064161342503880e-07 
-6.70108803034750276e-07 0.00000000000000000e+00 9.98543417118889280e-08 
-5.00090059287435895e-07 0.00000000000000000e+00 -8.71203278346597417e-09 
-7.71865576946866509e-07 0.00000000000000000e+00 1.54239772572559812e-07 
-3.33096568686852640e-07 0.00000000000000000e+00 -1.06562846523801307e-07 
-1.58729185387200731e-07 0.00000000000000000e+00 -1.57728171972201262e-07 
-4.19222432968126311e-07 0.00000000000000000e+00 -6.01629084603847519e-08 
3.35801823764933986e-08 0.00000000000000000e+00 -1.44498622770355244e-07 
2.43510711552484889e-07 0.00000000000000000e+00 -6.72124213885670854e-08 
-6.62133915209135109e-08 0.00000000000000000e+00 -1.59889570087197952e-07 
4.80235231148559073e-07 0.00000000000000000e+00 4.86038514632945025e-08 
7.58773013167570416e-07 0.00000000000000000e+00 1.55196352585624089e-07 
3.56174747557306976e-07 0.00000000000000000e+00 -1.16439206082564382e-08 
1.05240164002719452e-06 0.00000000000000000e+00 2.01587226770842297e-07 
1.38418832960014607e-06 0.00000000000000000e+00 1.51504665396771072e-07 
9.03416719181338937e-07 0.00000000000000000e+00 1.88951165201698528e-07 
1.74232734501272499e-06 0.00000000000000000e+00 1.07677762514939856e-08 
2.08568557112863684e-06 0.00000000000000000e+00 -1.63132297633641604e-07 
1.56474928388607097e-06 0.00000000000000000e+00 9.01698530201859752e-08 
2.45028246634639645e-06 0.00000000000000000e+00 -2.80034251482114969e-07 
2.76775763780099539e-06 0.00000000000000000e+00 -2.50245934291087877e-07 
2.26598957588114124e-06 0.00000000000000000e+00 -2.34923710669519988e-07 
3.03740163036376011e-06 0.00000000000000000e+00 -4.96814039424221510e-08 
3.26897180043745074e-06 0.00000000000000000e+00 2.41734229655529938e-07 
2.90332572858117298e-06 0.00000000000000000e+00 -1.69911191047385640e-07 
3.35573280717938338e-06 0.00000000000000000e+00 4.45349228408359990e-07 
3.36905689530107032e-06 0.00000000000000000e+00 3.71909894435481117e-07 
3.32372826877152725e-06 0.00000000000000000e+00 3.65040322925003596e-07 
3.25674678290328034e-06 0.00000000000000000e+00 -8.43955861327685570e-09 
2.96001306654850995e-06 0.00000000000000000e+00 -5.10158730748692008e-07 
3.34499572028113054e-06 0.00000000000000000e+00 2.31916467034660903e-07 
2.62291440999177603e-06 0.00000000000000000e+00 -6.79664771348266736e-07 
2.03299749936637286e-06 0.00000000000000000e+00 -2.43185362748774961e-07 
2.03299749936840574e-06 0.00000000000000000e+00 -2.43185362750248375e-07 
2.85412196571559617e-06 0.00000000000000000e+00 -6.13593253592183099e-07 
2.03299749936964157e-06 0.00000000000000000e+00 -2.43185362733394537e-07 
-1.20990720194450762e-06 0.00000000000000000e+00 1.86832111399267529e-08 
-8.47246856387783274e-07 0.00000000000000000e+00 1.86064161345762733e-07 
-1.00639006743451168e-06 0.00000000000000000e+00 1.96407617919517508e-07 
-5.00090059285515671e-07 0.00000000000000000e+00 -8.71203279013265286e-09 
-6.70108803034146342e-07 0.00000000000000000e+00 9.98543417322418592e-08 
-1.58729185386465930e-07 0.00000000000000000e+00 -1.57728171964675162e-07 
-3.33096568685864153e-07 0.00000000000000000e+00 -1.06562846509815628e-07 
2.43510711553929928e-07 0.00000000000000000e+00 -6.72124213782729881e-08 
3.35801823764281770e-08 0.00000000000000000e+00 -1.44498622759606926e-07 
7.58773013167511123e-07 0.00000000000000000e+00 1.55196352590398920e-07 
4.80235231149901620e-07 0.00000000000000000e+00 4.86038514399942143e-08 
1.38418832959604198e-06 0.00000000000000000e+00 1.51504665408851853e-07 
1.05240164002772666e-06 0.00000000000000000e+00 2.01587226767638765e-07 
2.08568557112861482e-06 0.00000000000000000e+00 -1.63132297631963314e-07 
1.74232734501460498e-06 0.00000000000000000e+00 1.07677762593085263e-08 
2.76775763780183353e-06 0.00000000000000000e+00 -2.50245934303534920e-07 
2.45028246634480911e-06 0.00000000000000000e+00 -2.80034251470762293e-07 
3.26897180043761295e-06 0.00000000000000000e+00 2.41734229636504307e-07 
3.03740163036626097e-06 0.00000000000000000e+00 -4.96814039507078802e-08 
3.36905689530192710e-06 0.00000000000000000e+00 3.71909894428208493e-07 
3.35573280717911995e-06 0.00000000000000000e+00 4.45349228415370882e-07 
2.96001306654936503e-06 0.00000000000000000e+00 -5.10158730748017769e-07 
3.25674678289811895e-06 0.00000000000000000e+00 -8.43955862597133848e-09 
-1.16295222887524026e-06 0.00000000000000000e+00 9.83600218949980395e-08 
2.62291440999028187e-06 0.00000000000000000e+00 -6.79664771362690649e-07 
3.11061731139358321e-07 0.00000000000000000e+00 7.33869018535502730e-07 
1.46036985213857961e-05 0.00000000000000000e+00 1.71506564836048844e-07 
1.51548071598603419e-05 0.00000000000000000e+00 1.43484563223148468e-07 
1.46749776167392372e-05 0.00000000000000000e+00 -6.48822368701664699e-08 
1.36028003203702965e-05 0.00000000000000000e+00 -1.62122139052207142e-07 
1.22710638568606019e-05 0.00000000000000000e+00 -1.43062204335864908e-08 
1.08290192914241786e-05 0.00000000000000000e+00 1.86924763496906772e-07 
9.26638044561839252e-06 0.00000000000000000e+00 9.03838468735285558e-08 
7.67072880745402415e-06 0.00000000000000000e+00 -2.33134749043353574e-07 
6.13903995571232442e-06 0.00000000000000000e+00 -1.64092983973257404e-07 
4.61307966158550448e-06 0.00000000000000000e+00 3.79993252384026257e-07 
3.02661181189530591e-06 0.00000000000000000e+00 2.13318908246568845e-07 
1.47798118825742266e-06 0.00000000000000000e+00 -6.54114171080377989e-07 
1.40342237626750266e-05 0.00000000000000000e+00 1.91742196217532262e-08 
1.49230412792493915e-05 0.00000000000000000e+00 2.00866058292397036e-07 
1.49001389792902696e-05 0.00000000000000000e+00 4.28945441460065382e-08 
1.42356965714407276e-05 0.00000000000000000e+00 -1.42255324219292234e-07 
1.30772571870652020e-05 0.00000000000000000e+00 -1.15968798859526623e-07 
1.15403191850249188e-05 0.00000000000000000e+00 1.04075400522816256e-07 
9.96805239418418584e-06 0.00000000000000000e+00 1.88045582444735292e-07 
8.45896029506515748e-06 0.00000000000000000e+00 -7.65131067867016018e-08 
6.97268097153162230e-06 0.00000000000000000e+00 -2.82568697760345696e-07 
5.39077716789249150e-06 0.00000000000000000e+00 1.03679185609529549e-07 
3.78791243695415295e-06 0.00000000000000000e+00 4.62220314738544378e-07 
2.22307680527068418e-06 0.00000000000000000e+00 -2.91082186034231009e-07 
8.37380907154340209e-07 0.00000000000000000e+00 -4.43362193597226290e-07 
4.98085190325844367e-07 0.00000000000000000e+00 1.04794107655079106e-05 
4.98085190328368525e-07 0.00000000000000000e+00 1.04794107655113326e-05 
1.29247117729069839e-06 0.00000000000000000e+00 1.04761107830199504e-05 
1.29247117728825639e-06 0.00000000000000000e+00 1.04761107830267063e-05 
8.87800899674745891e-07 0.00000000000000000e+00 1.87393829552295982e-05 
8.87800899674886498e-07 0.00000000000000000e+00 1.87393829552298151e-05 
4.98085190325083732e-07 0.00000000000000000e+00 1.04794107654931383e-05 
1.29247117728767448e-06 0.00000000000000000e+00 1.04761107830052374e-05 
1.51603449034472921e-06 0.00000000000000000e+00 7.26340163838133318e-07 
1.51603449033780726e-06 0.00000000000000000e+00 7.26340163822893501e-07 
1.51603449033536526e-06 0.00000000000000000e+00 7.26340163840454612e-07 
3.11061731136496196e-07 0.00000000000000000e+00 7.33869018536725846e-07 
3.11061731138055584e-07 0.00000000000000000e+00 7.33869018562493435e-07 
3.11061731137982739e-07 0.00000000000000000e+00 7.33869018522511786e-07 
-1.07267868050455685e-06 0.00000000000000000e+00 1.71292108402875304e-07 
-7.53119012235806216e-07 0.00000000000000000e+00 1.44981104433653208e-07 
-4.14561238146168365e-07 0.00000000000000000e+00 -6.29545801940640051e-08 
-6.47480923413562842e-08 0.00000000000000000e+00 -1.59788767530045403e-07 
3.56673579997607602e-07 0.00000000000000000e+00 -1.13950937871452747e-08 
9.03620394819733275e-07 0.00000000000000000e+00 1.88985058226480616e-07 
1.56499178548832614e-06 0.00000000000000000e+00 9.00747835948396318e-08 
2.26669020718621891e-06 0.00000000000000000e+00 -2.35153961633198401e-07 
2.90517654687984996e-06 0.00000000000000000e+00 -1.68513158005198492e-07 
3.32574775548276801e-06 0.00000000000000000e+00 3.70343811109365056e-07 
3.33620141740283350e-06 0.00000000000000000e+00 1.96903377561015137e-07 
2.74812733128557349e-06 0.00000000000000000e+00 -6.71638737072665761e-07 
-1.20990720194012761e-06 0.00000000000000000e+00 1.86832111480702865e-08 
-9.12016544974086189e-07 0.00000000000000000e+00 2.01007892874301189e-07 
-5.80484477669128720e-07 0.00000000000000000e+00 4.38515664361739402e-08 
-2.46879521641119510e-07 0.00000000000000000e+00 -1.39745163182029757e-07 
1.37224350715714820e-07 0.00000000000000000e+00 -1.12933468322753858e-07 
6.14625178244618850e-07 0.00000000000000000e+00 1.06491721884612641e-07 
1.21202033036143960e-06 0.00000000000000000e+00 1.89715518601386274e-07 
1.91139193413138857e-06 0.00000000000000000e+00 -7.70676085275360699e-08 
2.62290558604341049e-06 0.00000000000000000e+00 -2.87844035002096553e-07 
3.16475672619276406e-06 0.00000000000000000e+00 9.55288251383377470e-08 
3.37130675463955853e-06 0.00000000000000000e+00 4.52244532453107894e-07 
3.10135735648704264e-06 0.00000000000000000e+00 -3.05787618294115650e-07 
2.23487260869131328e-06 0.00000000000000000e+00 -4.61764329317125225e-07 
1.30288652222578615e-05 0.00000000000000000e+00 -2.85550330148757401e-07 
1.30288652222538991e-05 0.00000000000000000e+00 -2.85550330162251377e-07 
1.30288652222623237e-05 0.00000000000000000e+00 -2.85550330156320134e-07 
8.87800899675516691e-07 0.00000000000000000e+00 1.87393829552296592e-05 
4.98085190325854532e-07 0.00000000000000000e+00 1.04794107655006752e-05 
1.29247117729089744e-06 0.00000000000000000e+00 1.04761107830108261e-05 
-1.07267868050714538e-06 0.00000000000000000e+00 1.71292108397424223e-07 
-7.53119012236890418e-07 0.00000000000000000e+00 1.44981104419455242e-07 
-4.14561238146500402e-07 0.00000000000000000e+00 -6.29545802180890359e-08 
-6.47480923393183229e-08 0.00000000000000000e+00 -1.59788767536799961e-07 
3.56673579998300898e-07 0.00000000000000000e+00 -1.13950937870201256e-08 
9.03620394819906069e-07 0.00000000000000000e+00 1.88985058220331474e-07 
1.56499178548844579e-06 0.00000000000000000e+00 9.00747835938654116e-08 
2.26669020718680844e-06 0.00000000000000000e+00 -2.35153961630596528e-07 
2.90517654688073299e-06 0.00000000000000000e+00 -1.68513158010614420e-07 
3.32574775548189430e-06 0.00000000000000000e+00 3.70343811098058649e-07 
3.33620141740349969e-06 0.00000000000000000e+00 1.96903377556325963e-07 
2.74812733128440035e-06 0.00000000000000000e+00 -6.71638737080717868e-07 
-1.20990720194024111e-06 0.00000000000000000e+00 1.86832111246403493e-08 
-9.12016544972642845e-07 0.00000000000000000e+00 2.01007892862879161e-07 
-5.80484477665724494e-07 0.00000000000000000e+00 4.38515664358920900e-08 
-2.46879521643596658e-07 0.00000000000000000e+00 -1.39745163180654599e-07 
1.37224350715000347e-07 0.00000000000000000e+00 -1.12933468319176096e-07 
6.14625178243684149e-07 0.00000000000000000e+00 1.06491721870765982e-07 
1.21202033036257293e-06 0.00000000000000000e+00 1.89715518606139134e-07 
1.91139193413057160e-06 0.00000000000000000e+00 -7.70676085259071197e-08 
2.62290558604304288e-06 0.00000000000000000e+00 -2.87844034995481120e-07 
3.16475672619229988e-06 0.00000000000000000e+00 9.55288251505498445e-08 
3.37130675464009852e-06 0.00000000000000000e+00 4.52244532446043428e-07 
3.10135735648643277e-06 0.00000000000000000e+00 -3.05787618293617594e-07 
2.23487260869295399e-06 0.00000000000000000e+00 -4.61764329320471852e-07 
1.30288652222600537e-05 0.00000000000000000e+00 -2.85550330157102475e-07 
1.46036985213851693e-05 0.00000000000000000e+00 1.71506564834999317e-07 
1.51548071598630101e-05 0.00000000000000000e+00 1.43484563224557084e-07 
1.46749776167381988e-05 0.00000000000000000e+00 -6.48822368734577223e-08 
1.36028003203721413e-05 0.00000000000000000e+00 -1.62122139063954219e-07 
1.22710638568615302e-05 0.00000000000000000e+00 -1.43062204371465703e-08 
1.08290192914245445e-05 0.00000000000000000e+00 1.86924763507383934e-07 
9.26638044561664933e-06 0.00000000000000000e+00 9.03838468622598413e-08 