# vtk DataFile Version 2.0

ASCII

DATASET UNSTRUCTURED_GRID

POINTS 281 double 

0.00000000000000000e+00  6.00000000000000012e-03  8.68039800000000063e-03
0.00000000000000000e+00  6.00000000000000012e-03  2.15013699999999988e-02
0.00000000000000000e+00  5.99999699999999997e-03  3.38432499999999983e-02
0.00000000000000000e+00  6.00000000000000012e-03  4.61511800000000000e-02
0.00000000000000000e+00  5.99999399999999981e-03  5.84285100000000029e-02
0.00000000000000000e+00  5.99999899999999978e-03  7.03572799999999943e-02
0.00000000000000000e+00  6.00000000000000012e-03  7.56573400000000035e-02
0.00000000000000000e+00  6.00000000000000012e-03  1.52458600000000000e-02
0.00000000000000000e+00  5.99999899999999978e-03  2.76822099999999988e-02
0.00000000000000000e+00  5.99999899999999978e-03  3.99985900000000005e-02
0.00000000000000000e+00  5.99999800000000031e-03  5.22986000000000006e-02
0.00000000000000000e+00  5.99999800000000031e-03  6.44963600000000026e-02
0.00000000000000000e+00  3.00000000000000006e-03  3.07692300000000007e-03
0.00000000000000000e+00  3.00000000000000006e-03  1.04940499999999996e-02
0.00000000000000000e+00  3.00000000000000006e-03  7.41712199999999995e-03
0.00000000000000000e+00  3.00000000000000006e-03  2.30583799999999998e-02
0.00000000000000000e+00  3.00000000000000006e-03  1.99814599999999995e-02
0.00000000000000000e+00  2.99999900000000016e-03  3.53831699999999985e-02
0.00000000000000000e+00  2.99999900000000016e-03  3.23062400000000000e-02
0.00000000000000000e+00  3.00000000000000006e-03  4.76909699999999992e-02
0.00000000000000000e+00  3.00000000000000006e-03  4.46140500000000023e-02
0.00000000000000000e+00  2.99999699999999991e-03  5.99834799999999987e-02
0.00000000000000000e+00  2.99999699999999991e-03  5.69065600000000019e-02
0.00000000000000000e+00  2.99999900000000016e-03  7.21017199999999941e-02
0.00000000000000000e+00  2.99999900000000016e-03  6.90247900000000025e-02
0.00000000000000000e+00  3.00000000000000006e-03  7.78286700000000026e-02
0.00000000000000000e+00  3.00000000000000006e-03  7.47517500000000057e-02
0.00000000000000000e+00  5.99999899999999978e-03  7.30073100000000058e-02
0.00000000000000000e+00  6.00000000000000012e-03  7.78286700000000026e-02
0.00000000000000000e+00  8.99999999999999932e-03  7.47517500000000057e-02
0.00000000000000000e+00  8.99999999999999932e-03  7.78286700000000026e-02
0.00000000000000000e+00  8.99999999999999932e-03  3.07692300000000007e-03
0.00000000000000000e+00  8.99999999999999932e-03  7.41712199999999995e-03
0.00000000000000000e+00  8.99999999999999932e-03  1.04940499999999996e-02
0.00000000000000000e+00  8.99999999999999932e-03  1.99814599999999995e-02
0.00000000000000000e+00  8.99999999999999932e-03  2.30583799999999998e-02
0.00000000000000000e+00  8.99999899999999985e-03  3.23062400000000000e-02
0.00000000000000000e+00  8.99999899999999985e-03  3.53831699999999985e-02
0.00000000000000000e+00  8.99999999999999932e-03  4.46140500000000023e-02
0.00000000000000000e+00  8.99999999999999932e-03  4.76909699999999992e-02
0.00000000000000000e+00  8.99999699999999916e-03  5.69065600000000019e-02
0.00000000000000000e+00  8.99999699999999916e-03  5.99834799999999987e-02
0.00000000000000000e+00  8.99999899999999985e-03  6.90247900000000025e-02
0.00000000000000000e+00  8.99999899999999985e-03  7.21017199999999941e-02
0.00000000000000000e+00  6.00000000000000012e-03  4.34019900000000031e-03
0.00000000000000000e+00  3.00000000000000006e-03  1.37767800000000006e-02
0.00000000000000000e+00  6.00000000000000012e-03  1.19631300000000006e-02
0.00000000000000000e+00  3.00000000000000006e-03  1.68536999999999992e-02
0.00000000000000000e+00  6.00000000000000012e-03  1.83736200000000002e-02
0.00000000000000000e+00  5.99999800000000031e-03  3.07627299999999985e-02
0.00000000000000000e+00  3.00000000000000006e-03  2.92257200000000002e-02
0.00000000000000000e+00  3.00000000000000006e-03  2.61487999999999998e-02
0.00000000000000000e+00  8.99999999999999932e-03  2.92257200000000002e-02
0.00000000000000000e+00  6.00000000000000012e-03  4.30748800000000029e-02
0.00000000000000000e+00  2.99999900000000016e-03  4.15377600000000000e-02
0.00000000000000000e+00  2.99999900000000016e-03  3.84608300000000014e-02
0.00000000000000000e+00  8.99999899999999985e-03  4.15377600000000000e-02
0.00000000000000000e+00  5.99999599999999963e-03  5.53635499999999975e-02
0.00000000000000000e+00  2.99999900000000016e-03  5.38416099999999981e-02
0.00000000000000000e+00  2.99999900000000016e-03  5.07646799999999995e-02
0.00000000000000000e+00  8.99999899999999985e-03  5.38416099999999981e-02
0.00000000000000000e+00  5.99999800000000031e-03  6.74268199999999984e-02
0.00000000000000000e+00  2.99999900000000016e-03  6.60943300000000067e-02
0.00000000000000000e+00  2.99999900000000016e-03  6.30174099999999959e-02
0.00000000000000000e+00  8.99999899999999985e-03  6.60943300000000067e-02
0.00000000000000000e+00  5.99999899999999978e-03  4.92248900000000003e-02
0.00000000000000000e+00  8.99999999999999932e-03  1.68536999999999992e-02
0.00000000000000000e+00  5.99999899999999978e-03  2.45917899999999988e-02
0.00000000000000000e+00  8.99999999999999932e-03  2.61487999999999998e-02
0.00000000000000000e+00  8.99999999999999932e-03  1.37767800000000006e-02
0.00000000000000000e+00  5.99999800000000031e-03  3.69209200000000029e-02
0.00000000000000000e+00  8.99999899999999985e-03  3.84608300000000014e-02
0.00000000000000000e+00  8.99999899999999985e-03  5.07646799999999995e-02
0.00000000000000000e+00  5.99999599999999963e-03  6.14624299999999985e-02
0.00000000000000000e+00  8.99999899999999985e-03  6.30174099999999959e-02
1.20000000000000002e-02  1.20000000000000002e-02  8.00000000000000017e-02
0.00000000000000000e+00  0.00000000000000000e+00  8.00000000000000017e-02
1.20000000000000002e-02  6.00000000000000012e-03  0.00000000000000000e+00
1.20000000000000002e-02  3.00000000000000006e-03  0.00000000000000000e+00
1.20000000000000002e-02  8.99999999999999932e-03  0.00000000000000000e+00
1.20000000000000002e-02  0.00000000000000000e+00  8.00000000000000017e-02
1.20000000000000002e-02  0.00000000000000000e+00  0.00000000000000000e+00
0.00000000000000000e+00  1.20000000000000002e-02  0.00000000000000000e+00
1.20000000000000002e-02  5.99999899999999978e-03  8.68039699999999942e-03
1.20000000000000002e-02  5.99999899999999978e-03  1.52458600000000000e-02
1.20000000000000002e-02  5.99999899999999978e-03  2.15013699999999988e-02
1.20000000000000002e-02  6.00000000000000012e-03  2.76822099999999988e-02
1.20000000000000002e-02  5.99999899999999978e-03  3.38432399999999967e-02
1.20000000000000002e-02  5.99999800000000031e-03  3.99985900000000005e-02
1.20000000000000002e-02  5.99999699999999997e-03  4.61511800000000000e-02
1.20000000000000002e-02  5.99999300000000034e-03  5.22986100000000023e-02
1.20000000000000002e-02  5.99998599999999969e-03  5.84285400000000010e-02
1.20000000000000002e-02  5.99997800000000043e-03  6.44963800000000059e-02
1.20000000000000002e-02  5.99997500000000027e-03  7.03572999999999976e-02
1.20000000000000002e-02  5.99997500000000027e-03  7.56573600000000068e-02
1.20000000000000002e-02  3.00000000000000006e-03  3.07692300000000007e-03
1.20000000000000002e-02  3.00000000000000006e-03  7.41712099999999961e-03
1.20000000000000002e-02  3.00000000000000006e-03  1.04940399999999996e-02
1.20000000000000002e-02  2.99999900000000016e-03  1.37767800000000006e-02
1.20000000000000002e-02  2.99999900000000016e-03  1.68536999999999992e-02
1.20000000000000002e-02  5.99999899999999978e-03  1.19631300000000006e-02
1.20000000000000002e-02  3.00000000000000006e-03  1.99814500000000013e-02
1.20000000000000002e-02  3.00000000000000006e-03  2.30583799999999998e-02
1.20000000000000002e-02  5.99999899999999978e-03  1.83736099999999986e-02
1.20000000000000002e-02  3.00000000000000006e-03  2.61487999999999998e-02
1.20000000000000002e-02  3.00000000000000006e-03  2.92257200000000002e-02
1.20000000000000002e-02  5.99999899999999978e-03  2.45917899999999988e-02
1.20000000000000002e-02  3.00000000000000006e-03  3.23062299999999983e-02
1.20000000000000002e-02  3.00000000000000006e-03  3.53831599999999968e-02
1.20000000000000002e-02  5.99999899999999978e-03  3.07627200000000003e-02
1.20000000000000002e-02  2.99999900000000016e-03  3.84608300000000014e-02
1.20000000000000002e-02  2.99999900000000016e-03  4.15377499999999983e-02
1.20000000000000002e-02  5.99999899999999978e-03  3.69209100000000012e-02
1.20000000000000002e-02  2.99999799999999981e-03  4.46140500000000023e-02
1.20000000000000002e-02  2.99999799999999981e-03  4.76909800000000009e-02
1.20000000000000002e-02  5.99999800000000031e-03  4.30748800000000029e-02
1.20000000000000002e-02  2.99999699999999991e-03  5.07646900000000012e-02
1.20000000000000002e-02  2.99999699999999991e-03  5.38416099999999981e-02
1.20000000000000002e-02  5.99999500000000015e-03  4.92249000000000020e-02
1.20000000000000002e-02  2.99999299999999984e-03  5.69065799999999983e-02
1.20000000000000002e-02  2.99999299999999984e-03  5.99835000000000021e-02
1.20000000000000002e-02  5.99999000000000018e-03  5.53635800000000025e-02
1.20000000000000002e-02  2.99998900000000021e-03  6.30174200000000045e-02
1.20000000000000002e-02  2.99998900000000021e-03  6.60943499999999962e-02
1.20000000000000002e-02  5.99998200000000006e-03  6.14624599999999965e-02
1.20000000000000002e-02  2.99998799999999987e-03  6.90248100000000059e-02
1.20000000000000002e-02  2.99998799999999987e-03  7.21017300000000028e-02
1.20000000000000002e-02  5.99997700000000009e-03  6.74268400000000018e-02
1.20000000000000002e-02  2.99998699999999997e-03  7.47517600000000004e-02
1.20000000000000002e-02  2.99998699999999997e-03  7.78286799999999973e-02
1.20000000000000002e-02  5.99998700000000003e-03  7.78286799999999973e-02
1.20000000000000002e-02  5.99997500000000027e-03  7.30073299999999953e-02
1.20000000000000002e-02  8.99998699999999922e-03  7.78286799999999973e-02
1.20000000000000002e-02  8.99999999999999932e-03  3.07692300000000007e-03
[...]
POINT_DATA 281

SCALARS Rank unsigned_int
LOOKUP_TABLE default
0 0 0 0 0 0 0 0 0 0 0 0 0 0 0 0 0 0 0 0 0 0 0 0 0 0 0 0 0 0 0 0 0 0 0 0 0 0 0 0 0 0 0 0 0 0 0 0 0 0 0 0 0 0 0 0 0 0 0 0 0 0 0 0 0 0 0 0 0 0 0 0 0 0 0 0 0 0 0 0 0 0 0 0 0 0 0 0 0 0 0 0 0 0 0 0 0 0 0 0 0 0 0 0 0 0 0 0 0 0 0 0 0 0 0 0 0 0 0 0 0 0 0 0 0 0 0 0 0 0 0 0 0 0 0 0 0 0 0 0 0 0 0 0 0 0 0 0 0 0 0 0 0 0 0 0 0 0 0 0 0 0 0 0 0 0 0 0 0 0 0 0 0 0 0 0 0 0 0 0 0 0 0 0 0 0 0 0 0 0 0 0 0 0 0 0 0 0 0 0 0 0 0 0 0 0 0 0 0 0 0 0 0 0 0 0 0 0 0 0 0 0 0 0 0 0 0 0 0 0 0 0 0 0 0 0 0 0 0 0 0 0 0 0 0 0 0 0 0 0 0 0 0 0 0 0 0 0 0 0 0 0 0 0 0 0 0 0 0 0 0 0 0 0 0 0 0 0 0 0 0 

VECTORS Forces0 double
3.85502959499250421e-04 0.00000000000000000e+00 2.51922114545369774e-07 
7.59671093070107080e-05 0.00000000000000000e+00 -3.39103197780126095e-07 
1.82748587048748337e-05 0.00000000000000000e+00 3.93141279855724319e-07 
2.16102076993306328e-05 0.00000000000000000e+00 -1.63361961046980254e-07 
9.09683267586165097e-06 0.00000000000000000e+00 4.15382035910949340e-07 
-1.45873197623227704e-06 0.00000000000000000e+00 -7.92944035573033066e-07 
-6.08335654783724642e-06 0.00000000000000000e+00 -1.43438560272236161e-06 
2.01286703439891091e-04 0.00000000000000000e+00 0.00000000000000000e+00 
2.58706676639581760e-05 0.00000000000000000e+00 -1.62745105090311159e-07 
2.17371415626420463e-05 0.00000000000000000e+00 5.32769336494391690e-07 
1.63195769128431346e-05 0.00000000000000000e+00 -6.00900433650262664e-07 
3.38987456690458269e-06 0.00000000000000000e+00 1.15227709839799336e-06 
4.81436119919865504e-04 0.00000000000000000e+00 -2.89863738017889743e-07 
3.42990011948017656e-04 0.00000000000000000e+00 2.28754729371370646e-07 
4.20014750455271135e-04 0.00000000000000000e+00 2.03488179484753028e-07 
5.47734300492577121e-05 0.00000000000000000e+00 -3.55382194297459139e-07 
1.01190467783909209e-04 0.00000000000000000e+00 -2.86767730622358719e-07 
2.04307253535011427e-05 0.00000000000000000e+00 5.10081425349379762e-07 
1.72524501766671741e-05 0.00000000000000000e+00 2.51106866026526098e-07 
2.00389711026083343e-05 0.00000000000000000e+00 -3.72076935579929557e-07 
2.31242996007429378e-05 0.00000000000000000e+00 6.07894283317830900e-08 
7.80328099551114890e-06 0.00000000000000000e+00 7.80913883538513134e-07 
1.05095726842688158e-05 0.00000000000000000e+00 5.15859639256504766e-08 
-2.97769048546833171e-06 0.00000000000000000e+00 -1.45913525780960534e-06 
-3.46984166981062119e-07 0.00000000000000000e+00 -1.91695459701909384e-07 
-7.21515689430840267e-06 0.00000000000000000e+00 -1.46188903670180679e-07 
-5.34551614314350740e-06 0.00000000000000000e+00 -1.68439720650633147e-06 
-3.79044693931709300e-06 0.00000000000000000e+00 -1.67442084374413615e-06 
-7.21515689405961893e-06 0.00000000000000000e+00 -1.46188903645345673e-07 
-5.34551614315352950e-06 0.00000000000000000e+00 -1.68439720647904282e-06 
-7.21515689429331193e-06 0.00000000000000000e+00 -1.46188903650229665e-07 
4.81436119920278639e-04 0.00000000000000000e+00 -2.89863738139241189e-07 
4.20014750455042476e-04 0.00000000000000000e+00 2.03488179329222956e-07 
3.42990011948242953e-04 0.00000000000000000e+00 2.28754729331526428e-07 
1.01190467783589870e-04 0.00000000000000000e+00 -2.86767730666442549e-07 
5.47734300496949573e-05 0.00000000000000000e+00 -3.55382194294861924e-07 
1.72524501769718755e-05 0.00000000000000000e+00 2.51106866047380049e-07 
2.04307253531384228e-05 0.00000000000000000e+00 5.10081425378616799e-07 
2.31242996006855089e-05 0.00000000000000000e+00 6.07894282866179168e-08 
2.00389711026805422e-05 0.00000000000000000e+00 -3.72076935571542237e-07 
1.05095726843928282e-05 0.00000000000000000e+00 5.15859638774711367e-08 
7.80328099541803626e-06 0.00000000000000000e+00 7.80913883596432823e-07 
-3.46984166704590565e-07 0.00000000000000000e+00 -1.91695459710635517e-07 
-2.97769048508903713e-06 0.00000000000000000e+00 -1.45913525779038532e-06 
4.94791410354185161e-04 0.00000000000000000e+00 -1.34241904223253600e-07 
2.48898235611939845e-04 0.00000000000000000e+00 7.88560124394738915e-08 
3.09174542977597297e-04 0.00000000000000000e+00 1.59254323470947842e-07 
1.58463788988051776e-04 0.00000000000000000e+00 -1.01782443151409532e-07 
1.27143440506082131e-04 0.00000000000000000e+00 -1.98880942982813964e-07 
1.81431535870274198e-05 0.00000000000000000e+00 1.01606484225560267e-07 
2.13735696185674870e-05 0.00000000000000000e+00 -3.83793864371450217e-08 
3.08316857561519132e-05 0.00000000000000000e+00 -2.64418869257493630e-07 
2.13735696186740234e-05 0.00000000000000000e+00 -3.83793864281452966e-08 
2.32658445194546275e-05 0.00000000000000000e+00 2.63872378777221382e-07 
2.24491142796506142e-05 0.00000000000000000e+00 4.23293095913091807e-07 
2.14759853881377723e-05 0.00000000000000000e+00 5.83946037930322394e-07 
2.24491142795173793e-05 0.00000000000000000e+00 4.23293095950452948e-07 
1.22382116183165646e-05 0.00000000000000000e+00 -2.65532717478594452e-07 
1.42513040461487838e-05 0.00000000000000000e+00 -4.85205539883596718e-07 
1.76315989823604165e-05 0.00000000000000000e+00 -6.13033498191158145e-07 
1.42513040460762100e-05 0.00000000000000000e+00 -4.85205539945502333e-07 
9.47129581904006131e-07 0.00000000000000000e+00 4.70135732318677170e-07 
2.03026823104048174e-06 0.00000000000000000e+00 8.74268444086328883e-07 
4.75916055192373585e-06 0.00000000000000000e+00 1.19237302758787400e-06 
2.03026823133318922e-06 0.00000000000000000e+00 8.74268444047860035e-07 
1.87045611336623890e-05 0.00000000000000000e+00 -5.31634768741351546e-07 
1.58463788988097231e-04 0.00000000000000000e+00 -1.01782443159670220e-07 
3.99207586339221250e-05 0.00000000000000000e+00 -3.31433018333402742e-07 
3.08316857562107853e-05 0.00000000000000000e+00 -2.64418869204518495e-07 
2.48898235611459380e-04 0.00000000000000000e+00 7.88560124368307251e-08 
2.14320257076730788e-05 0.00000000000000000e+00 5.77143667038059049e-07 
2.14759853881835188e-05 0.00000000000000000e+00 5.83946037923756618e-07 
1.76315989822854372e-05 0.00000000000000000e+00 -6.13033498212919268e-07 
6.30863793565951437e-06 0.00000000000000000e+00 1.05061126283818329e-06 
4.75916055186398276e-06 0.00000000000000000e+00 1.19237302757039971e-06 
5.04333636233089515e-06 0.00000000000000000e+00 2.83171056973320235e-06 
-7.94544314832244640e-06 0.00000000000000000e+00 2.71379854816425789e-06 
-2.04145088708117550e-05 0.00000000000000000e+00 -6.14539113085519419e-07 
-2.04145088714718986e-05 0.00000000000000000e+00 -6.14539113044816097e-07 
-2.04145088713346115e-05 0.00000000000000000e+00 -6.14539113043036058e-07 
5.04333636260547613e-06 0.00000000000000000e+00 2.83171056978194232e-06 
-2.04145088714793254e-05 0.00000000000000000e+00 -6.14539112979209584e-07 
3.96453221458414114e-04 0.00000000000000000e+00 -8.69921235034755327e-07 
8.08318533770704511e-06 0.00000000000000000e+00 5.40722039839539748e-07 
5.01731782890276019e-06 0.00000000000000000e+00 1.27894766854043514e-07 
2.05150201695818006e-06 0.00000000000000000e+00 -3.37621080869509789e-07 
5.99168089203957877e-06 0.00000000000000000e+00 -2.65687198972479207e-07 
9.78164281308120490e-06 0.00000000000000000e+00 2.31261147583241264e-07 
8.72410950261327895e-06 0.00000000000000000e+00 3.38912572113995674e-07 
4.58353920737231064e-06 0.00000000000000000e+00 -3.56246603580996776e-07 
1.99068545354388527e-06 0.00000000000000000e+00 -7.57011064359352691e-07 
3.23250966130894062e-06 0.00000000000000000e+00 3.36144587297374535e-07 
7.72301240467838456e-06 0.00000000000000000e+00 1.15415534514348633e-06 
1.17682846543203242e-05 0.00000000000000000e+00 -7.39609106779232489e-07 
1.13374178113575279e-05 0.00000000000000000e+00 -1.36055127134262916e-06 
-6.87959136936692841e-06 0.00000000000000000e+00 1.19967513887279095e-07 
6.59483043677736430e-06 0.00000000000000000e+00 5.31508332751900834e-07 
8.70870491475358148e-06 0.00000000000000000e+00 4.87882206544158695e-07 
6.54931648773275328e-06 0.00000000000000000e+00 2.58820728072063212e-07 
3.56135039643042271e-06 0.00000000000000000e+00 -1.77035088870929598e-08 
8.17461552806273046e-06 0.00000000000000000e+00 4.01134457350481177e-07 
2.16559461076204441e-06 0.00000000000000000e+00 -2.60114246952763902e-07 
2.40962563422550495e-06 0.00000000000000000e+00 -3.79697584002583308e-07 
2.63609285659389628e-06 0.00000000000000000e+00 -1.46213368046310519e-07 
4.55428420409455306e-06 0.00000000000000000e+00 -3.41965170977237727e-07 
7.16924390281814671e-06 0.00000000000000000e+00 -1.56434399202782124e-07 
3.28974246212919254e-06 0.00000000000000000e+00 -3.81676553750076954e-07 
9.05311766977665575e-06 0.00000000000000000e+00 1.07196656088797561e-07 
1.02297977055642047e-05 0.00000000000000000e+00 3.28934062984602148e-07 
8.17563099583505930e-06 0.00000000000000000e+00 -2.77947820141292789e-08 
9.49800660398163482e-06 0.00000000000000000e+00 3.92611472332175100e-07 
7.89901531743624364e-06 0.00000000000000000e+00 2.23768830269476639e-07 
1.01054425147139561e-05 0.00000000000000000e+00 3.87177588128128969e-07 
5.93727180204175691e-06 0.00000000000000000e+00 -1.44162837629422119e-07 
3.43814306927392878e-06 0.00000000000000000e+00 -5.53512819938593073e-07 
7.03837459221098868e-06 0.00000000000000000e+00 5.77399075452082145e-08 
2.24147759191395551e-06 0.00000000000000000e+00 -7.80068039549913116e-07 
1.65591929104119448e-06 0.00000000000000000e+00 -6.17815729319792870e-07 
2.64476199658437170e-06 0.00000000000000000e+00 -7.04614289711445050e-07 
2.23262940952060919e-06 0.00000000000000000e+00 -4.04529043138296783e-08 
4.50035009959619396e-06 0.00000000000000000e+00 7.14476885791257739e-07 
1.68140453864845312e-06 0.00000000000000000e+00 -3.75360533635382041e-07 
6.45985549145308151e-06 0.00000000000000000e+00 1.17645291461352011e-06 
9.31728684867224544e-06 0.00000000000000000e+00 8.86787870240330105e-07 
5.39383351052218791e-06 0.00000000000000000e+00 1.00926336870452909e-06 
1.15033181389127068e-05 0.00000000000000000e+00 -1.56889910875713392e-07 
1.19276804453800114e-05 0.00000000000000000e+00 -1.38936397018100030e-06 
1.06222333387174557e-05 0.00000000000000000e+00 4.88171827572005710e-07 
1.17193431895445698e-05 0.00000000000000000e+00 -1.61014227451362583e-06 
8.71896445327440012e-06 0.00000000000000000e+00 -4.92874012678469143e-08 
8.71896445369254302e-06 0.00000000000000000e+00 -4.92874011464128828e-08 
1.19430710591378497e-05 0.00000000000000000e+00 -1.60073427890850363e-06 
8.71896445345567873e-06 0.00000000000000000e+00 -4.92874012325290285e-08 
-6.87959136944051863e-06 0.00000000000000000e+00 1.19967513865880925e-07 
8.70870491516059775e-06 0.00000000000000000e+00 4.87882206515437502e-07 
6.59483043667563903e-06 0.00000000000000000e+00 5.31508332786758781e-07 
3.56135039637799476e-06 0.00000000000000000e+00 -1.77035088875207114e-08 
6.54931648757742099e-06 0.00000000000000000e+00 2.58820728104089104e-07 
2.40962563399141554e-06 0.00000000000000000e+00 -3.79697583976948279e-07 
2.16559461056228609e-06 0.00000000000000000e+00 -2.60114246933796082e-07 
7.16924390300291509e-06 0.00000000000000000e+00 -1.56434399195964779e-07 
4.55428420426606368e-06 0.00000000000000000e+00 -3.41965170968044031e-07 
1.02297977056444628e-05 0.00000000000000000e+00 3.28934062970273686e-07 
9.05311766955419102e-06 0.00000000000000000e+00 1.07196656067536610e-07 
7.89901531744922018e-06 0.00000000000000000e+00 2.23768830277793444e-07 
9.49800660401894493e-06 0.00000000000000000e+00 3.92611472340484070e-07 
3.43814306917862741e-06 0.00000000000000000e+00 -5.53512819914646604e-07 
5.93727180205005783e-06 0.00000000000000000e+00 -1.44162837587570645e-07 
1.65591929112801875e-06 0.00000000000000000e+00 -6.17815729315286655e-07 
2.24147759168895646e-06 0.00000000000000000e+00 -7.80068039506927041e-07 
4.50035009963219625e-06 0.00000000000000000e+00 7.14476885819311153e-07 
2.23262940960231060e-06 0.00000000000000000e+00 -4.04529043451986964e-08 
9.31728684850222899e-06 0.00000000000000000e+00 8.86787870222028264e-07 
6.45985549176325142e-06 0.00000000000000000e+00 1.17645291461260087e-06 
1.19276804454590566e-05 0.00000000000000000e+00 -1.38936397019990777e-06 
1.15033181387411521e-05 0.00000000000000000e+00 -1.56889910848961127e-07 
-1.60966632702638503e-06 0.00000000000000000e+00 3.07964802700822211e-07 
1.17193431899915457e-05 0.00000000000000000e+00 -1.61014227455457987e-06 
-7.94544314796036353e-06 0.00000000000000000e+00 2.71379854810175702e-06 
4.56178078519673628e-04 0.00000000000000000e+00 9.72179390924115273e-08 
2.98718942958573809e-04 0.00000000000000000e+00 1.44123384289243689e-07 
1.25579355623651415e-04 0.00000000000000000e+00 -2.04233487747170217e-07 
3.97401828518473336e-05 0.00000000000000000e+00 -3.30734541826511674e-07 
1.81344011202513293e-05 0.00000000000000000e+00 1.02225702322620883e-07 
2.14321764642973684e-05 0.00000000000000000e+00 5.77194115640278340e-07 
2.32667363059640525e-05 0.00000000000000000e+00 2.63630953839793199e-07 
1.87000520883181631e-05 0.00000000000000000e+00 -5.32110146705819762e-07 
1.22122245603422579e-05 0.00000000000000000e+00 -2.61783173415473923e-07 
6.23044215478509865e-06 0.00000000000000000e+00 1.06132237785738483e-06 
7.33239561009469579e-07 0.00000000000000000e+00 3.72451879800173089e-07 
-4.54693317617300616e-06 0.00000000000000000e+00 -1.75714858585569051e-06 
4.81436119919801103e-04 0.00000000000000000e+00 -2.89863738054224492e-07 
3.71638584803019685e-04 0.00000000000000000e+00 2.55752454413691585e-07 
1.97157144669531478e-04 0.00000000000000000e+00 -8.86037899387470074e-09 
7.53911653078328625e-05 0.00000000000000000e+00 -3.39946874184543981e-07 
2.58447215003721716e-05 0.00000000000000000e+00 -1.61981095243045278e-07 
1.82782302013629870e-05 0.00000000000000000e+00 3.93391396050939700e-07 
2.17375958311022494e-05 0.00000000000000000e+00 5.32695116756305518e-07 
2.16073607593428040e-05 0.00000000000000000e+00 -1.63746948503966300e-07 
1.63084848840852865e-05 0.00000000000000000e+00 -6.00541854045910673e-07 
9.06882199646763763e-06 0.00000000000000000e+00 4.23442212389319969e-07 
3.28453728701952740e-06 0.00000000000000000e+00 1.14019103890828931e-06 
-1.81110564965209738e-06 0.00000000000000000e+00 -9.69187472580251080e-07 
-6.82861899071674975e-06 0.00000000000000000e+00 -8.42380725685304645e-07 
-5.16561817733969442e-06 0.00000000000000000e+00 2.85928461898054815e-05 
-5.16561817753769346e-06 0.00000000000000000e+00 2.85928461898944607e-05 
3.19603167195267975e-06 0.00000000000000000e+00 2.86598090187532697e-05 
3.19603167185124586e-06 0.00000000000000000e+00 2.86598090188020486e-05 
-8.25148214691141543e-07 0.00000000000000000e+00 5.04573607612690450e-05 
-8.25148214566845175e-07 0.00000000000000000e+00 5.04573607613203006e-05 
-5.16561817729629584e-06 0.00000000000000000e+00 2.85928461898656073e-05 
3.19603167216035529e-06 0.00000000000000000e+00 2.86598090187491260e-05 
5.04333636245900719e-06 0.00000000000000000e+00 2.83171056982101595e-06 
5.04333636250045082e-06 0.00000000000000000e+00 2.83171056981080920e-06 
5.04333636204869766e-06 0.00000000000000000e+00 2.83171056974938068e-06 
-7.94544314800837336e-06 0.00000000000000000e+00 2.71379854807561250e-06 
-7.94544314786769135e-06 0.00000000000000000e+00 2.71379854808286649e-06 
-7.94544314794117993e-06 0.00000000000000000e+00 2.71379854808557869e-06 
4.06463649576713736e-06 0.00000000000000000e+00 4.76866236814094231e-07 
7.92230148812493635e-06 0.00000000000000000e+00 3.76579645768416468e-07 
2.59750715082769435e-06 0.00000000000000000e+00 -1.53131282374430160e-07 
3.30655787194250287e-06 0.00000000000000000e+00 -3.81386149737383112e-07 
8.17963481611479126e-06 0.00000000000000000e+00 -2.72274354261403427e-08 
1.01048088261290284e-05 0.00000000000000000e+00 3.87225109493697971e-07 
7.03717888613382782e-06 0.00000000000000000e+00 5.74911151544133407e-08 
2.64251052641027986e-06 0.00000000000000000e+00 -7.05063054388764991e-07 
1.68526133058417247e-06 0.00000000000000000e+00 -3.71333510033225083e-07 
5.44006817912439663e-06 0.00000000000000000e+00 1.02133001440078708e-06 
1.08476862514728702e-05 0.00000000000000000e+00 3.91873578006051505e-07 
1.18904264768518598e-05 0.00000000000000000e+00 -1.68223061348376100e-06 
-6.87959136959692835e-06 0.00000000000000000e+00 1.19967513862066101e-07 
8.43490299154775404e-06 0.00000000000000000e+00 5.32248907408773571e-07 
4.87741963045785301e-06 0.00000000000000000e+00 1.15245837046333168e-07 
2.05400267877880902e-06 0.00000000000000000e+00 -3.39081530517655061e-07 
6.00084142303348429e-06 0.00000000000000000e+00 -2.65070887729982065e-07 
9.78281016835086921e-06 0.00000000000000000e+00 2.31475335815646695e-07 
8.72336796712912736e-06 0.00000000000000000e+00 3.38834585342716234e-07 
4.58130229028054337e-06 0.00000000000000000e+00 -3.56609737965357376e-07 
1.98832256117308068e-06 0.00000000000000000e+00 -7.56533303650904245e-07 
3.25827947921698104e-06 0.00000000000000000e+00 3.44437823638333476e-07 
7.83512779799682870e-06 0.00000000000000000e+00 1.14316234530800321e-06 
1.18192003219001826e-05 0.00000000000000000e+00 -9.10909681898676972e-07 
1.00377546076822410e-05 0.00000000000000000e+00 -7.57338728433924519e-07 
3.96453221458314530e-04 0.00000000000000000e+00 -8.69921235015863316e-07 
3.96453221458433467e-04 0.00000000000000000e+00 -8.69921234956875094e-07 
3.96453221458384732e-04 0.00000000000000000e+00 -8.69921234987799844e-07 
-8.25148214325117219e-07 0.00000000000000000e+00 5.04573607613242309e-05 
-5.16561817753566735e-06 0.00000000000000000e+00 2.85928461898430559e-05 
3.19603167215272861e-06 0.00000000000000000e+00 2.86598090187676151e-05 
4.06463649594768412e-06 0.00000000000000000e+00 4.76866236795672111e-07 
7.92230148804879825e-06 0.00000000000000000e+00 3.76579645784207703e-07 
2.59750715117047164e-06 0.00000000000000000e+00 -1.53131282410198668e-07 
3.30655787197271145e-06 0.00000000000000000e+00 -3.81386149718309201e-07 
8.17963481599044683e-06 0.00000000000000000e+00 -2.72274354362559278e-08 
1.01048088264089694e-05 0.00000000000000000e+00 3.87225109497473620e-07 
7.03717888608392064e-06 0.00000000000000000e+00 5.74911151522038552e-08 
2.64251052653009775e-06 0.00000000000000000e+00 -7.05063054368238841e-07 
1.68526133054470073e-06 0.00000000000000000e+00 -3.71333510054785460e-07 
5.44006817912247895e-06 0.00000000000000000e+00 1.02133001439665865e-06 
1.08476862515251220e-05 0.00000000000000000e+00 3.91873578009742874e-07 
1.18904264768888650e-05 0.00000000000000000e+00 -1.68223061344793362e-06 
-6.87959136949928239e-06 0.00000000000000000e+00 1.19967513880254228e-07 
8.43490299139347885e-06 0.00000000000000000e+00 5.32248907449944878e-07 
4.87741963027817360e-06 0.00000000000000000e+00 1.15245837043308837e-07 
2.05400267871551025e-06 0.00000000000000000e+00 -3.39081530512291437e-07 
6.00084142311459278e-06 0.00000000000000000e+00 -2.65070887702751650e-07 
9.78281016835286143e-06 0.00000000000000000e+00 2.31475335853692132e-07 
8.72336796700001921e-06 0.00000000000000000e+00 3.38834585322968719e-07 
4.58130229033656952e-06 0.00000000000000000e+00 -3.56609737975767411e-07 
1.98832256113156251e-06 0.00000000000000000e+00 -7.56533303655795013e-07 
3.25827947913520509e-06 0.00000000000000000e+00 3.44437823640704321e-07 
7.83512779794618969e-06 0.00000000000000000e+00 1.14316234529827631e-06 
1.18192003221695052e-05 0.00000000000000000e+00 -9.10909681857151818e-07 
1.00377546076613769e-05 0.00000000000000000e+00 -7.57338728442369437e-07 
3.96453221458468704e-04 0.00000000000000000e+00 -8.69921235001009323e-07 
4.56178078519858972e-04 0.00000000000000000e+00 9.72179390917961579e-08 
2.98718942958821169e-04 0.00000000000000000e+00 1.44123384383467210e-07 
1.25579355623653746e-04 0.00000000000000000e+00 -2.04233487767879749e-07 
3.97401828520281379e-05 0.00000000000000000e+00 -3.30734541792091643e-07 
1.81344011202862813e-05 0.00000000000000000e+00 1.02225702258040973e-07 
2.14321764641449703e-05 0.00000000000000000e+00 5.77194115642580152e-07 
2.32667363059947083e-05 0.00000000000000000e+00 2.63630953835880119e-07 