# vtk DataFile Version 2.0

ASCII

DATASET UNSTRUCTURED_GRID

POINTS 281 double 

0.00000000000000000e+00  6.00000000000000012e-03  8.68039800000000063e-03
0.00000000000000000e+00  6.00000000000000012e-03  2.15013699999999988e-02
0.00000000000000000e+00  5.99999699999999997e-03  3.38432499999999983e-02
0.00000000000000000e+00  6.00000000000000012e-03  4.61511800000000000e-02
0.00000000000000000e+00  5.99999399999999981e-03  5.84285100000000029e-02
0.00000000000000000e+00  5.99999899999999978e-03  7.03572799999999943e-02
0.00000000000000000e+00  6.00000000000000012e-03  7.56573400000000035e-02
0.00000000000000000e+00  6.00000000000000012e-03  1.52458600000000000e-02
0.00000000000000000e+00  5.99999899999999978e-03  2.76822099999999988e-02
0.00000000000000000e+00  5.99999899999999978e-03  3.99985900000000005e-02
0.00000000000000000e+00  5.99999800000000031e-03  5.22986000000000006e-02
0.00000000000000000e+00  5.99999800000000031e-03  6.44963600000000026e-02
0.00000000000000000e+00  3.00000000000000006e-03  3.07692300000000007e-03
0.00000000000000000e+00  3.00000000000000006e-03  1.04940499999999996e-02
0.00000000000000000e+00  3.00000000000000006e-03  7.41712199999999995e-03
0.00000000000000000e+00  3.00000000000000006e-03  2.30583799999999998e-02
0.00000000000000000e+00  3.00000000000000006e-03  1.99814599999999995e-02
0.00000000000000000e+00  2.99999900000000016e-03  3.53831699999999985e-02
0.00000000000000000e+00  2.99999900000000016e-03  3.23062400000000000e-02
0.00000000000000000e+00  3.00000000000000006e-03  4.76909699999999992e-02
0.00000000000000000e+00  3.00000000000000006e-03  4.46140500000000023e-02
0.00000000000000000e+00  2.99999699999999991e-03  5.99834799999999987e-02
0.00000000000000000e+00  2.99999699999999991e-03  5.69065600000000019e-02
0.00000000000000000e+00  2.99999900000000016e-03  7.21017199999999941e-02
0.00000000000000000e+00  2.99999900000000016e-03  6.90247900000000025e-02
0.00000000000000000e+00  3.00000000000000006e-03  7.78286700000000026e-02
0.00000000000000000e+00  3.00000000000000006e-03  7.47517500000000057e-02
0.00000000000000000e+00  5.99999899999999978e-03  7.30073100000000058e-02
0.00000000000000000e+00  6.00000000000000012e-03  7.78286700000000026e-02
0.00000000000000000e+00  8.99999999999999932e-03  7.47517500000000057e-02
0.00000000000000000e+00  8.99999999999999932e-03  7.78286700000000026e-02
0.00000000000000000e+00  8.99999999999999932e-03  3.07692300000000007e-03
0.00000000000000000e+00  8.99999999999999932e-03  7.41712199999999995e-03
0.00000000000000000e+00  8.99999999999999932e-03  1.04940499999999996e-02
0.00000000000000000e+00  8.99999999999999932e-03  1.99814599999999995e-02
0.00000000000000000e+00  8.99999999999999932e-03  2.30583799999999998e-02
0.00000000000000000e+00  8.99999899999999985e-03  3.23062400000000000e-02
0.00000000000000000e+00  8.99999899999999985e-03  3.53831699999999985e-02
0.00000000000000000e+00  8.99999999999999932e-03  4.46140500000000023e-02
0.00000000000000000e+00  8.99999999999999932e-03  4.76909699999999992e-02
0.00000000000000000e+00  8.99999699999999916e-03  5.69065600000000019e-02
0.00000000000000000e+00  8.99999699999999916e-03  5.99834799999999987e-02
0.00000000000000000e+00  8.99999899999999985e-03  6.90247900000000025e-02
0.00000000000000000e+00  8.99999899999999985e-03  7.21017199999999941e-02
0.00000000000000000e+00  6.00000000000000012e-03  4.34019900000000031e-03
0.00000000000000000e+00  3.00000000000000006e-03  1.37767800000000006e-02
0.00000000000000000e+00  6.00000000000000012e-03  1.19631300000000006e-02
0.00000000000000000e+00  3.00000000000000006e-03  1.68536999999999992e-02
0.00000000000000000e+00  6.00000000000000012e-03  1.83736200000000002e-02
0.00000000000000000e+00  5.99999800000000031e-03  3.07627299999999985e-02
0.00000000000000000e+00  3.00000000000000006e-03  2.92257200000000002e-02
0.00000000000000000e+00  3.00000000000000006e-03  2.61487999999999998e-02
0.00000000000000000e+00  8.99999999999999932e-03  2.92257200000000002e-02
0.00000000000000000e+00  6.00000000000000012e-03  4.30748800000000029e-02
0.00000000000000000e+00  2.99999900000000016e-03  4.15377600000000000e-02
0.00000000000000000e+00  2.99999900000000016e-03  3.84608300000000014e-02
0.00000000000000000e+00  8.99999899999999985e-03  4.15377600000000000e-02
0.00000000000000000e+00  5.99999599999999963e-03  5.53635499999999975e-02
0.00000000000000000e+00  2.99999900000000016e-03  5.38416099999999981e-02
0.00000000000000000e+00  2.99999900000000016e-03  5.07646799999999995e-02
0.00000000000000000e+00  8.99999899999999985e-03  5.38416099999999981e-02
0.00000000000000000e+00  5.99999800000000031e-03  6.74268199999999984e-02
0.00000000000000000e+00  2.99999900000000016e-03  6.60943300000000067e-02
0.00000000000000000e+00  2.99999900000000016e-03  6.30174099999999959e-02
0.00000000000000000e+00  8.99999899999999985e-03  6.60943300000000067e-02
0.00000000000000000e+00  5.99999899999999978e-03  4.92248900000000003e-02
0.00000000000000000e+00  8.99999999999999932e-03  1.68536999999999992e-02
0.00000000000000000e+00  5.99999899999999978e-03  2.45917899999999988e-02
0.00000000000000000e+00  8.99999999999999932e-03  2.61487999999999998e-02
0.00000000000000000e+00  8.99999999999999932e-03  1.37767800000000006e-02
0.00000000000000000e+00  5.99999800000000031e-03  3.69209200000000029e-02
0.00000000000000000e+00  8.99999899999999985e-03  3.84608300000000014e-02
0.00000000000000000e+00  8.99999899999999985e-03  5.07646799999999995e-02
0.00000000000000000e+00  5.99999599999999963e-03  6.14624299999999985e-02
0.00000000000000000e+00  8.99999899999999985e-03  6.30174099999999959e-02
1.20000000000000002e-02  1.20000000000000002e-02  8.00000000000000017e-02
0.00000000000000000e+00  0.00000000000000000e+00  8.00000000000000017e-02
1.20000000000000002e-02  6.00000000000000012e-03  0.00000000000000000e+00
1.20000000000000002e-02  3.00000000000000006e-03  0.00000000000000000e+00
1.20000000000000002e-02  8.99999999999999932e-03  0.00000000000000000e+00
1.20000000000000002e-02  0.00000000000000000e+00  8.00000000000000017e-02
1.20000000000000002e-02  0.00000000000000000e+00  0.00000000000000000e+00
0.00000000000000000e+00  1.20000000000000002e-02  0.00000000000000000e+00
1.20000000000000002e-02  5.99999899999999978e-03  8.68039699999999942e-03
1.20000000000000002e-02  5.99999899999999978e-03  1.52458600000000000e-02
1.20000000000000002e-02  5.99999899999999978e-03  2.15013699999999988e-02
1.20000000000000002e-02  6.00000000000000012e-03  2.76822099999999988e-02
1.20000000000000002e-02  5.99999899999999978e-03  3.38432399999999967e-02
1.20000000000000002e-02  5.99999800000000031e-03  3.99985900000000005e-02
1.20000000000000002e-02  5.99999699999999997e-03  4.61511800000000000e-02
1.20000000000000002e-02  5.99999300000000034e-03  5.22986100000000023e-02
1.20000000000000002e-02  5.99998599999999969e-03  5.84285400000000010e-02
1.20000000000000002e-02  5.99997800000000043e-03  6.44963800000000059e-02
1.20000000000000002e-02  5.99997500000000027e-03  7.03572999999999976e-02
1.20000000000000002e-02  5.99997500000000027e-03  7.56573600000000068e-02
1.20000000000000002e-02  3.00000000000000006e-03  3.07692300000000007e-03
1.20000000000000002e-02  3.00000000000000006e-03  7.41712099999999961e-03
1.20000000000000002e-02  3.00000000000000006e-03  1.04940399999999996e-02
1.20000000000000002e-02  2.99999900000000016e-03  1.37767800000000006e-02
1.20000000000000002e-02  2.99999900000000016e-03  1.68536999999999992e-02
1.20000000000000002e-02  5.99999899999999978e-03  1.19631300000000006e-02
1.20000000000000002e-02  3.00000000000000006e-03  1.99814500000000013e-02
1.20000000000000002e-02  3.00000000000000006e-03  2.30583799999999998e-02
1.20000000000000002e-02  5.99999899999999978e-03  1.83736099999999986e-02
1.20000000000000002e-02  3.00000000000000006e-03  2.61487999999999998e-02
1.20000000000000002e-02  3.00000000000000006e-03  2.92257200000000002e-02
1.20000000000000002e-02  5.99999899999999978e-03  2.45917899999999988e-02
1.20000000000000002e-02  3.00000000000000006e-03  3.23062299999999983e-02
1.20000000000000002e-02  3.00000000000000006e-03  3.53831599999999968e-02
1.20000000000000002e-02  5.99999899999999978e-03  3.07627200000000003e-02
1.20000000000000002e-02  2.99999900000000016e-03  3.84608300000000014e-02
1.20000000000000002e-02  2.99999900000000016e-03  4.15377499999999983e-02
1.20000000000000002e-02  5.99999899999999978e-03  3.69209100000000012e-02
1.20000000000000002e-02  2.99999799999999981e-03  4.46140500000000023e-02
1.20000000000000002e-02  2.99999799999999981e-03  4.76909800000000009e-02
1.20000000000000002e-02  5.99999800000000031e-03  4.30748800000000029e-02
1.20000000000000002e-02  2.99999699999999991e-03  5.07646900000000012e-02
1.20000000000000002e-02  2.99999699999999991e-03  5.38416099999999981e-02
1.20000000000000002e-02  5.99999500000000015e-03  4.92249000000000020e-02
1.20000000000000002e-02  2.99999299999999984e-03  5.69065799999999983e-02
1.20000000000000002e-02  2.99999299999999984e-03  5.99835000000000021e-02
1.20000000000000002e-02  5.99999000000000018e-03  5.53635800000000025e-02
1.20000000000000002e-02  2.99998900000000021e-03  6.30174200000000045e-02
1.20000000000000002e-02  2.99998900000000021e-03  6.60943499999999962e-02
1.20000000000000002e-02  5.99998200000000006e-03  6.14624599999999965e-02
1.20000000000000002e-02  2.99998799999999987e-03  6.90248100000000059e-02
1.20000000000000002e-02  2.99998799999999987e-03  7.21017300000000028e-02
1.20000000000000002e-02  5.99997700000000009e-03  6.74268400000000018e-02
1.20000000000000002e-02  2.99998699999999997e-03  7.47517600000000004e-02
1.20000000000000002e-02  2.99998699999999997e-03  7.78286799999999973e-02
1.20000000000000002e-02  5.99998700000000003e-03  7.78286799999999973e-02
1.20000000000000002e-02  5.99997500000000027e-03  7.30073299999999953e-02
1.20000000000000002e-02  8.99998699999999922e-03  7.78286799999999973e-02
1.20000000000000002e-02  8.99999999999999932e-03  3.07692300000000007e-03
[...]
POINT_DATA 281

SCALARS Rank unsigned_int
LOOKUP_TABLE default
0 0 0 0 0 0 0 0 0 0 0 0 0 0 0 0 0 0 0 0 0 0 0 0 0 0 0 0 0 0 0 0 0 0 0 0 0 0 0 0 0 0 0 0 0 0 0 0 0 0 0 0 0 0 0 0 0 0 0 0 0 0 0 0 0 0 0 0 0 0 0 0 0 0 0 0 0 0 0 0 0 0 0 0 0 0 0 0 0 0 0 0 0 0 0 0 0 0 0 0 0 0 0 0 0 0 0 0 0 0 0 0 0 0 0 0 0 0 0 0 0 0 0 0 0 0 0 0 0 0 0 0 0 0 0 0 0 0 0 0 0 0 0 0 0 0 0 0 0 0 0 0 0 0 0 0 0 0 0 0 0 0 0 0 0 0 0 0 0 0 0 0 0 0 0 0 0 0 0 0 0 0 0 0 0 0 0 0 0 0 0 0 0 0 0 0 0 0 0 0 0 0 0 0 0 0 0 0 0 0 0 0 0 0 0 0 0 0 0 0 0 0 0 0 0 0 0 0 0 0 0 0 0 0 0 0 0 0 0 0 0 0 0 0 0 0 0 0 0 0 0 0 0 0 0 0 0 0 0 0 0 0 0 0 0 0 0 0 0 0 0 0 0 0 0 0 0 0 0 0 0 

VECTORS Forces0 double
5.15520758159518193e-03 0.00000000000000000e+00 -9.52642583623614779e-06 
4.17490566205957461e-04 0.00000000000000000e+00 -2.82799451671026527e-07 
-8.45002232980710812e-05 0.00000000000000000e+00 3.50027933436086162e-07 
5.98762031718365874e-05 0.00000000000000000e+00 1.32134910166209678e-07 
6.14893066905668298e-05 0.00000000000000000e+00 -5.09539060920549346e-07 
9.44494085949289109e-06 0.00000000000000000e+00 7.62863889714048896e-07 
-4.55378417790804424e-05 0.00000000000000000e+00 -2.63835441255676347e-06 
2.08667100946005732e-03 0.00000000000000000e+00 1.30853519847956977e-06 
-9.66450281331201761e-05 0.00000000000000000e+00 -3.05798645856189274e-07 
1.41774705052438746e-05 0.00000000000000000e+00 5.15759474355429906e-07 
6.55317900149138998e-05 0.00000000000000000e+00 -7.02147127942560348e-07 
4.82228137183753755e-05 0.00000000000000000e+00 1.31114294311062341e-06 
7.19837789950870770e-03 0.00000000000000000e+00 -2.88689408482275518e-05 
4.29785405998042887e-03 0.00000000000000000e+00 -3.62800162048600610e-06 
5.82675267976190663e-03 0.00000000000000000e+00 -1.60573591559117191e-05 
1.92788122934864868e-04 0.00000000000000000e+00 -5.18113551421554311e-07 
7.05339506386407447e-04 0.00000000000000000e+00 1.36362300715922243e-07 
-5.57822226852379139e-05 0.00000000000000000e+00 4.65948412520026849e-07 
-1.08145000746392249e-04 0.00000000000000000e+00 2.05917806405102258e-07 
6.28464229861992903e-05 0.00000000000000000e+00 -8.18057330844528863e-08 
5.46828697960883537e-05 0.00000000000000000e+00 3.15796853458221559e-07 
5.99199783539527836e-05 0.00000000000000000e+00 -8.73729859593976872e-08 
6.25838451815724408e-05 0.00000000000000000e+00 -7.81217439069485690e-07 
-7.64381740884719560e-06 0.00000000000000000e+00 -2.55139122754990944e-07 
2.08866528631074470e-05 0.00000000000000000e+00 1.31205302495845501e-06 
-6.46912200820910684e-05 0.00000000000000000e+00 -3.68683572488080161e-06 
-3.60750943724974090e-05 0.00000000000000000e+00 -2.06276756226962947e-06 
-1.72093477461359851e-05 0.00000000000000000e+00 -8.66447490855552067e-07 
-6.46912200847415091e-05 0.00000000000000000e+00 -3.68683572485309685e-06 
-3.60750943671288735e-05 0.00000000000000000e+00 -2.06276756214295358e-06 
-6.46912200816323425e-05 0.00000000000000000e+00 -3.68683572481137625e-06 
7.19837789951346084e-03 0.00000000000000000e+00 -2.88689408486394165e-05 
5.82675267976423463e-03 0.00000000000000000e+00 -1.60573591560299954e-05 
4.29785405998483420e-03 0.00000000000000000e+00 -3.62800162067229194e-06 
7.05339506386547309e-04 0.00000000000000000e+00 1.36362300711484637e-07 
1.92788122932468348e-04 0.00000000000000000e+00 -5.18113551558688945e-07 
-1.08145000747952090e-04 0.00000000000000000e+00 2.05917806306006179e-07 
-5.57822226832096969e-05 0.00000000000000000e+00 4.65948412474664846e-07 
5.46828697987546236e-05 0.00000000000000000e+00 3.15796853521924366e-07 
6.28464229862125176e-05 0.00000000000000000e+00 -8.18057331365280484e-08 
6.25838451846633928e-05 0.00000000000000000e+00 -7.81217439040748404e-07 
5.99199783591885043e-05 0.00000000000000000e+00 -8.73729859997528779e-08 
2.08866528660424365e-05 0.00000000000000000e+00 1.31205302496356304e-06 
-7.64381740262121884e-06 0.00000000000000000e+00 -2.55139122711301832e-07 
7.28078641809412966e-03 0.00000000000000000e+00 -3.33508670452004725e-05 
2.75577726513302063e-03 0.00000000000000000e+00 6.92200624613991054e-07 
3.65792094970681259e-03 0.00000000000000000e+00 -1.26755021841091663e-06 
1.49055041293259740e-03 0.00000000000000000e+00 1.20840701062936598e-06 
1.05490697855560632e-03 0.00000000000000000e+00 7.25398024503680945e-07 
-1.21520391220655171e-04 0.00000000000000000e+00 4.42365210771549115e-08 
-1.18467696715123056e-04 0.00000000000000000e+00 -1.26164207909181131e-07 
-5.08290419202235628e-05 0.00000000000000000e+00 -4.82408141165708255e-07 
-1.18467696716868622e-04 0.00000000000000000e+00 -1.26164207973362300e-07 
4.51808376112830247e-05 0.00000000000000000e+00 4.30361571028695231e-07 
3.13725574503162920e-05 0.00000000000000000e+00 4.86246392998569197e-07 
-5.99152938297510201e-06 0.00000000000000000e+00 5.29102968350592773e-07 
3.13725574531937646e-05 0.00000000000000000e+00 4.86246393000314085e-07 
6.35855041137138621e-05 0.00000000000000000e+00 -8.94901485509725250e-07 
6.46456244765123729e-05 0.00000000000000000e+00 -8.53681685321898278e-07 
6.54210122177408123e-05 0.00000000000000000e+00 -5.14100579569725438e-07 
6.46456244748244870e-05 0.00000000000000000e+00 -8.53681685324720592e-07 
3.25707972963225792e-05 0.00000000000000000e+00 1.63471329264747403e-06 
4.06289966162344356e-05 0.00000000000000000e+00 1.60257457573893069e-06 
5.34520097853570026e-05 0.00000000000000000e+00 8.80359165577874429e-07 
4.06289966138384572e-05 0.00000000000000000e+00 1.60257457582133239e-06 
6.44970201362560415e-05 0.00000000000000000e+00 -3.03290960349012196e-07 
1.49055041293512966e-03 0.00000000000000000e+00 1.20840701076107029e-06 
4.09076091110546379e-05 0.00000000000000000e+00 -5.74884172633336239e-07 
-5.08290419221183145e-05 0.00000000000000000e+00 -4.82408141122739967e-07 
2.75577726513317805e-03 0.00000000000000000e+00 6.92200624725477107e-07 
-2.90579524702357149e-05 0.00000000000000000e+00 5.21714023321350178e-07 
-5.99152938191952277e-06 0.00000000000000000e+00 5.29102968375235503e-07 
6.54210122182393285e-05 0.00000000000000000e+00 -5.14100579586785741e-07 
5.73769331688991013e-05 0.00000000000000000e+00 3.72309313098811078e-07 
5.34520097857669937e-05 0.00000000000000000e+00 8.80359165584954354e-07 
-6.47425332672454551e-06 0.00000000000000000e+00 -2.58533110935422804e-06 
-7.60840231790749097e-05 0.00000000000000000e+00 -2.49741540838498240e-06 
-1.60841688770361438e-04 0.00000000000000000e+00 1.83072838285932947e-06 
-1.60841688774544941e-04 0.00000000000000000e+00 1.83072838268545754e-06 
-1.60841688771268265e-04 0.00000000000000000e+00 1.83072838261001867e-06 
-6.47425332539650627e-06 0.00000000000000000e+00 -2.58533110933424823e-06 
-1.60841688777687176e-04 0.00000000000000000e+00 1.83072838253491522e-06 
6.15345791592681723e-03 0.00000000000000000e+00 -6.96867534552745897e-06 
1.93921532367531408e-05 0.00000000000000000e+00 -6.39346063688547130e-07 
-3.77620038891857962e-05 0.00000000000000000e+00 3.69444085452092030e-07 
-1.20420247536397991e-05 0.00000000000000000e+00 -3.88609964708147984e-08 
8.15117085692914159e-05 0.00000000000000000e+00 -3.20342470756313530e-07 
1.14084059272761044e-04 0.00000000000000000e+00 -2.29879122364922926e-07 
5.49599993678559392e-05 0.00000000000000000e+00 2.15135334963766284e-07 
-2.96507542821896785e-05 0.00000000000000000e+00 3.61844123240709654e-07 
-6.56297832165045960e-05 0.00000000000000000e+00 -3.71145413800312484e-07 
-3.32055351960702463e-05 0.00000000000000000e+00 -4.27995737198051247e-07 
3.14741501921414967e-05 0.00000000000000000e+00 1.13790229315780700e-06 
6.96528712243240646e-05 0.00000000000000000e+00 5.25587111666802374e-07 
5.01127732281787754e-05 0.00000000000000000e+00 -2.83611337888020728e-06 
-7.64703992474795096e-05 0.00000000000000000e+00 -5.49648536674878886e-07 
1.71470074890759626e-05 0.00000000000000000e+00 -9.28957200102381702e-07 
9.01005006326094559e-06 0.00000000000000000e+00 -1.89756172788427727e-07 
-2.56830424587220355e-05 0.00000000000000000e+00 3.20766716264786184e-07 
-4.39115200125697209e-05 0.00000000000000000e+00 3.24518505361400398e-07 
-5.93041714302101577e-06 0.00000000000000000e+00 1.04382946795567707e-07 
-2.96918900866740647e-05 0.00000000000000000e+00 8.52180688900162406e-08 
1.01841941313873395e-05 0.00000000000000000e+00 -1.45728876478689388e-07 
-4.10025466400884648e-05 0.00000000000000000e+00 2.19234028175879177e-07 
5.94011596144407197e-05 0.00000000000000000e+00 -2.85791944232051112e-07 
9.85612527882063903e-05 0.00000000000000000e+00 -3.32351905038793801e-07 
3.49313844829192180e-05 0.00000000000000000e+00 -2.27564717712243634e-07 
1.15191157785652019e-04 0.00000000000000000e+00 -2.88321813705292720e-07 
1.06551038901631743e-04 0.00000000000000000e+00 -1.44437829396790759e-07 
1.10187640489569321e-04 0.00000000000000000e+00 -3.22171387186780963e-07 
7.55870619932651964e-05 0.00000000000000000e+00 9.01471807647874222e-08 
3.28479186028850145e-05 0.00000000000000000e+00 3.22358419925859704e-07 
9.34465566930761443e-05 0.00000000000000000e+00 -3.54292136261289293e-08 
-1.04500797076050707e-05 0.00000000000000000e+00 4.08799195067514137e-07 
-4.53785905680344218e-05 0.00000000000000000e+00 2.42666636674536343e-07 
1.07547840760809774e-05 0.00000000000000000e+00 3.92544485906327487e-07 
-6.34794968597736679e-05 0.00000000000000000e+00 -1.53757818418007948e-07 
-6.35920100852928815e-05 0.00000000000000000e+00 -5.45322486294679725e-07 
-5.67992966766709241e-05 0.00000000000000000e+00 6.47357319109915135e-08 
-4.67977588494657813e-05 0.00000000000000000e+00 -5.99504890937964997e-07 
-1.70708593187774826e-05 0.00000000000000000e+00 -1.09478764169843898e-07 
-5.72882786034747743e-05 0.00000000000000000e+00 -6.33491755473715567e-07 
1.58152531869154506e-05 0.00000000000000000e+00 7.52989107712096904e-07 
4.68017641642100470e-05 0.00000000000000000e+00 1.37923840182043244e-06 
-1.14431732718321583e-06 0.00000000000000000e+00 2.93205340664193209e-07 
6.61121249493066995e-05 0.00000000000000000e+00 1.05289147605257905e-06 
6.93005397497653130e-05 0.00000000000000000e+00 -4.67006020106386292e-07 
5.74695364776571808e-05 0.00000000000000000e+00 1.37670158033815048e-06 
5.74723650918825425e-05 0.00000000000000000e+00 -2.26226032894777016e-06 
2.54213238125258444e-05 0.00000000000000000e+00 -3.83218608986314707e-06 
2.54213238123194665e-05 0.00000000000000000e+00 -3.83218608990747061e-06 
6.68190852643076299e-05 0.00000000000000000e+00 -1.07058739498340078e-06 
2.54213238126209832e-05 0.00000000000000000e+00 -3.83218608985001298e-06 
-7.64703992507973851e-05 0.00000000000000000e+00 -5.49648536656139764e-07 
9.01005006856139317e-06 0.00000000000000000e+00 -1.89756172849448616e-07 
1.71470074872589482e-05 0.00000000000000000e+00 -9.28957200004684710e-07 
-4.39115200137864939e-05 0.00000000000000000e+00 3.24518505340135847e-07 
-2.56830424588091512e-05 0.00000000000000000e+00 3.20766716174269702e-07 
1.01841941301499396e-05 0.00000000000000000e+00 -1.45728876468195074e-07 
-2.96918900885162868e-05 0.00000000000000000e+00 8.52180689469194905e-08 
9.85612527857001485e-05 0.00000000000000000e+00 -3.32351905089565803e-07 
5.94011596145014350e-05 0.00000000000000000e+00 -2.85791944088799100e-07 
1.06551038904116518e-04 0.00000000000000000e+00 -1.44437829356428792e-07 
1.15191157784455818e-04 0.00000000000000000e+00 -2.88321813721731300e-07 
3.28479186038062611e-05 0.00000000000000000e+00 3.22358419883103175e-07 
7.55870619914462304e-05 0.00000000000000000e+00 9.01471807364423116e-08 
-4.53785905682907271e-05 0.00000000000000000e+00 2.42666636623511290e-07 
-1.04500797079571111e-05 0.00000000000000000e+00 4.08799195082833786e-07 
-6.35920100857378381e-05 0.00000000000000000e+00 -5.45322486275291988e-07 
-6.34794968617128719e-05 0.00000000000000000e+00 -1.53757818440619069e-07 
-1.70708593244456915e-05 0.00000000000000000e+00 -1.09478764219763785e-07 
-4.67977588508181066e-05 0.00000000000000000e+00 -5.99504890947219679e-07 
4.68017641631970769e-05 0.00000000000000000e+00 1.37923840181223824e-06 
1.58152531904523349e-05 0.00000000000000000e+00 7.52989107747106894e-07 
6.93005397512956643e-05 0.00000000000000000e+00 -4.67006020003085542e-07 
6.61121249530219351e-05 0.00000000000000000e+00 1.05289147608890744e-06 
-3.61878310752592882e-05 0.00000000000000000e+00 -9.92650376891691302e-07 
5.74723650885304062e-05 0.00000000000000000e+00 -2.26226032903840480e-06 
-7.60840231790416247e-05 0.00000000000000000e+00 -2.49741540842317512e-06 
6.51399134702345620e-03 0.00000000000000000e+00 -2.40208419175427016e-05 
3.49035563319764286e-03 0.00000000000000000e+00 -8.03490970056901002e-07 
1.03321853224613630e-03 0.00000000000000000e+00 6.92808070844845069e-07 
3.90768375114455472e-05 0.00000000000000000e+00 -5.74513272623632598e-07 
-1.21495239788539720e-04 0.00000000000000000e+00 4.49427100441688451e-08 
-2.90236370997296785e-05 0.00000000000000000e+00 5.21745827231084696e-07 
4.51967176354071121e-05 0.00000000000000000e+00 4.30261155050581311e-07 
6.45017384236609335e-05 0.00000000000000000e+00 -3.04129595647362795e-07 
6.35712791685980608e-05 0.00000000000000000e+00 -8.94460734623409307e-07 
5.72164525951541331e-05 0.00000000000000000e+00 3.96965579866179800e-07 
3.07755633949095174e-05 0.00000000000000000e+00 1.61116339393668546e-06 
-2.62911090505074034e-05 0.00000000000000000e+00 -1.44993226080788966e-06 
7.19837789951503423e-03 0.00000000000000000e+00 -2.88689408483298090e-05 
4.87921154189897149e-03 0.00000000000000000e+00 -7.27152871504173993e-06 
2.02916995764093134e-03 0.00000000000000000e+00 1.32766104267623462e-06 
4.11234298425517493e-04 0.00000000000000000e+00 -2.90755428533151259e-07 
-9.68411828436851151e-05 0.00000000000000000e+00 -3.04526098057831407e-07 
-8.44491746122275809e-05 0.00000000000000000e+00 3.50278023273188043e-07 
1.41946262343520876e-05 0.00000000000000000e+00 5.15740279569641189e-07 
5.98829269202910583e-05 0.00000000000000000e+00 1.31782887174548367e-07 
6.55282987583912359e-05 0.00000000000000000e+00 -7.03237530377246958e-07 
6.14624994197877943e-05 0.00000000000000000e+00 -5.01917944980824862e-07 
4.77300325431679069e-05 0.00000000000000000e+00 1.34037470376933159e-06 
5.60533412823849532e-06 0.00000000000000000e+00 5.50590188487051200e-07 
-5.74797004578935408e-05 0.00000000000000000e+00 -3.39545453517229610e-06 
-7.00170158372223796e-05 0.00000000000000000e+00 4.00844427699920754e-05 
-7.00170158353355967e-05 0.00000000000000000e+00 4.00844427700250622e-05 
-1.23527471208161918e-05 0.00000000000000000e+00 4.00352423103957663e-05 
-1.23527471202157606e-05 0.00000000000000000e+00 4.00352423104162307e-05 
-4.07498441112430878e-05 0.00000000000000000e+00 7.95267768719154006e-05 
-4.07498441085219843e-05 0.00000000000000000e+00 7.95267768719703290e-05 
-7.00170158366418977e-05 0.00000000000000000e+00 4.00844427699905439e-05 
-1.23527471218414134e-05 0.00000000000000000e+00 4.00352423103948854e-05 
-6.47425332638085343e-06 0.00000000000000000e+00 -2.58533110939868203e-06 
-6.47425332788811129e-06 0.00000000000000000e+00 -2.58533110935536476e-06 
-6.47425332885185860e-06 0.00000000000000000e+00 -2.58533110941109614e-06 
-7.60840231781146319e-05 0.00000000000000000e+00 -2.49741540835876165e-06 
-7.60840231863178139e-05 0.00000000000000000e+00 -2.49741540836006947e-06 
-7.60840231775483531e-05 0.00000000000000000e+00 -2.49741540840289715e-06 
4.21204356199061648e-06 0.00000000000000000e+00 -1.10861834578234252e-06 
-9.82609711352462155e-06 0.00000000000000000e+00 1.59302280013790480e-07 
-4.05908797802224380e-05 0.00000000000000000e+00 2.12139396631543211e-07 
3.53141469953215217e-05 0.00000000000000000e+00 -2.28635327339259225e-07 
1.10223253599290335e-04 0.00000000000000000e+00 -3.22079011571929770e-07 
9.34243387234361052e-05 0.00000000000000000e+00 -3.52606274259362589e-08 
1.07259758256489672e-05 0.00000000000000000e+00 3.92603859366094606e-07 
-5.68339796969120453e-05 0.00000000000000000e+00 6.39606107223323738e-08 
-5.71718409690649871e-05 0.00000000000000000e+00 -6.33925066254931038e-07 
-3.16699134123909385e-07 0.00000000000000000e+00 3.15424521534143519e-07 
5.92726997699703266e-05 0.00000000000000000e+00 1.34846130859224282e-06 
6.31090926056199447e-05 0.00000000000000000e+00 -1.65033719259973884e-06 
-7.64703992474847138e-05 0.00000000000000000e+00 -5.49648536567993704e-07 
1.75134823928523546e-05 0.00000000000000000e+00 -4.98753568680412370e-07 
-3.86196086852937142e-05 0.00000000000000000e+00 3.69084144428877098e-07 
-1.15519782276341723e-05 0.00000000000000000e+00 -4.16967531964185794e-08 
8.16429035084890016e-05 0.00000000000000000e+00 -3.20496817282485950e-07 
1.14075851613881432e-04 0.00000000000000000e+00 -2.29742715081847675e-07 
5.49402207174746579e-05 0.00000000000000000e+00 2.15244368271319400e-07 
-2.96813576236659062e-05 0.00000000000000000e+00 3.61699184610571280e-07 
-6.56307392349796332e-05 0.00000000000000000e+00 -3.72336186352666819e-07 
-3.28819939596505334e-05 0.00000000000000000e+00 -4.22686385433234480e-07 
3.26859881944609285e-05 0.00000000000000000e+00 1.16337365920921545e-06 
7.00953296481565490e-05 0.00000000000000000e+00 3.20305647038445105e-07 
3.68285369302918746e-05 0.00000000000000000e+00 -3.56744544113157378e-06 
6.15345791592827266e-03 0.00000000000000000e+00 -6.96867534570690120e-06 
6.15345791592932217e-03 0.00000000000000000e+00 -6.96867534568568472e-06 
6.15345791592871848e-03 0.00000000000000000e+00 -6.96867534561791700e-06 
-4.07498441090717425e-05 0.00000000000000000e+00 7.95267768719357294e-05 
-7.00170158353114732e-05 0.00000000000000000e+00 4.00844427699994073e-05 
-1.23527471262058150e-05 0.00000000000000000e+00 4.00352423103964372e-05 
4.21204356082314758e-06 0.00000000000000000e+00 -1.10861834582429394e-06 
-9.82609711034563236e-06 0.00000000000000000e+00 1.59302280045267495e-07 
-4.05908797812023670e-05 0.00000000000000000e+00 2.12139396650376565e-07 
3.53141469971171774e-05 0.00000000000000000e+00 -2.28635327285865127e-07 
1.10223253598547657e-04 0.00000000000000000e+00 -3.22079011559801953e-07 
9.34243387242579304e-05 0.00000000000000000e+00 -3.52606274318125500e-08 
1.07259758250213225e-05 0.00000000000000000e+00 3.92603859395566694e-07 
-5.68339796986459014e-05 0.00000000000000000e+00 6.39606107212075141e-08 
-5.71718409712229831e-05 0.00000000000000000e+00 -6.33925066259234812e-07 
-3.16699133067029107e-07 0.00000000000000000e+00 3.15424521565246146e-07 
5.92726997678722869e-05 0.00000000000000000e+00 1.34846130859930368e-06 
6.31090926092391200e-05 0.00000000000000000e+00 -1.65033719264463667e-06 
-7.64703992521899344e-05 0.00000000000000000e+00 -5.49648536723108518e-07 
1.75134823945851265e-05 0.00000000000000000e+00 -4.98753568682002251e-07 
-3.86196086854137625e-05 0.00000000000000000e+00 3.69084144395790509e-07 
-1.15519782263920019e-05 0.00000000000000000e+00 -4.16967532437149934e-08 
8.16429035085229372e-05 0.00000000000000000e+00 -3.20496817330489954e-07 
1.14075851614615437e-04 0.00000000000000000e+00 -2.29742715008536550e-07 
5.49402207178107605e-05 0.00000000000000000e+00 2.15244368277982161e-07 
-2.96813576214714810e-05 0.00000000000000000e+00 3.61699184611736056e-07 
-6.56307392328079762e-05 0.00000000000000000e+00 -3.72336186322705570e-07 
-3.28819939599915150e-05 0.00000000000000000e+00 -4.22686385451069606e-07 
3.26859881950391335e-05 0.00000000000000000e+00 1.16337365920894652e-06 
7.00953296429789415e-05 0.00000000000000000e+00 3.20305647047863264e-07 
3.68285369322973234e-05 0.00000000000000000e+00 -3.56744544114222818e-06 
6.15345791592702019e-03 0.00000000000000000e+00 -6.96867534566399051e-06 
6.51399134702780342e-03 0.00000000000000000e+00 -2.40208419176227631e-05 
3.49035563319574681e-03 0.00000000000000000e+00 -8.03490970166736188e-07 
1.03321853224587847e-03 0.00000000000000000e+00 6.92808070803732631e-07 
3.90768375102145440e-05 0.00000000000000000e+00 -5.74513272647633277e-07 
-1.21495239788908132e-04 0.00000000000000000e+00 4.49427101220683477e-08 
-2.90236371009319503e-05 0.00000000000000000e+00 5.21745827252566299e-07 