# vtk DataFile Version 2.0

ASCII

DATASET UNSTRUCTURED_GRID

POINTS 281 double 

0.00000000000000000e+00  6.00000000000000012e-03  8.68039800000000063e-03
0.00000000000000000e+00  6.00000000000000012e-03  2.15013699999999988e-02
0.00000000000000000e+00  5.99999699999999997e-03  3.38432499999999983e-02
0.00000000000000000e+00  6.00000000000000012e-03  4.61511800000000000e-02
0.00000000000000000e+00  5.99999399999999981e-03  5.84285100000000029e-02
0.00000000000000000e+00  5.99999899999999978e-03  7.03572799999999943e-02
0.00000000000000000e+00  6.00000000000000012e-03  7.56573400000000035e-02
0.00000000000000000e+00  6.00000000000000012e-03  1.52458600000000000e-02
0.00000000000000000e+00  5.99999899999999978e-03  2.76822099999999988e-02
0.00000000000000000e+00  5.99999899999999978e-03  3.99985900000000005e-02
0.00000000000000000e+00  5.99999800000000031e-03  5.22986000000000006e-02
0.00000000000000000e+00  5.99999800000000031e-03  6.44963600000000026e-02
0.00000000000000000e+00  3.00000000000000006e-03  3.07692300000000007e-03
0.00000000000000000e+00  3.00000000000000006e-03  1.04940499999999996e-02
0.00000000000000000e+00  3.00000000000000006e-03  7.41712199999999995e-03
0.00000000000000000e+00  3.00000000000000006e-03  2.30583799999999998e-02
0.00000000000000000e+00  3.00000000000000006e-03  1.99814599999999995e-02
0.00000000000000000e+00  2.99999900000000016e-03  3.53831699999999985e-02
0.00000000000000000e+00  2.99999900000000016e-03  3.23062400000000000e-02
0.00000000000000000e+00  3.00000000000000006e-03  4.76909699999999992e-02
0.00000000000000000e+00  3.00000000000000006e-03  4.46140500000000023e-02
0.00000000000000000e+00  2.99999699999999991e-03  5.99834799999999987e-02
0.00000000000000000e+00  2.99999699999999991e-03  5.69065600000000019e-02
0.00000000000000000e+00  2.99999900000000016e-03  7.21017199999999941e-02
0.00000000000000000e+00  2.99999900000000016e-03  6.90247900000000025e-02
0.00000000000000000e+00  3.00000000000000006e-03  7.78286700000000026e-02
0.00000000000000000e+00  3.00000000000000006e-03  7.47517500000000057e-02
0.00000000000000000e+00  5.99999899999999978e-03  7.30073100000000058e-02
0.00000000000000000e+00  6.00000000000000012e-03  7.78286700000000026e-02
0.00000000000000000e+00  8.99999999999999932e-03  7.47517500000000057e-02
0.00000000000000000e+00  8.99999999999999932e-03  7.78286700000000026e-02
0.00000000000000000e+00  8.99999999999999932e-03  3.07692300000000007e-03
0.00000000000000000e+00  8.99999999999999932e-03  7.41712199999999995e-03
0.00000000000000000e+00  8.99999999999999932e-03  1.04940499999999996e-02
0.00000000000000000e+00  8.99999999999999932e-03  1.99814599999999995e-02
0.00000000000000000e+00  8.99999999999999932e-03  2.30583799999999998e-02
0.00000000000000000e+00  8.99999899999999985e-03  3.23062400000000000e-02
0.00000000000000000e+00  8.99999899999999985e-03  3.53831699999999985e-02
0.00000000000000000e+00  8.99999999999999932e-03  4.46140500000000023e-02
0.00000000000000000e+00  8.99999999999999932e-03  4.76909699999999992e-02
0.00000000000000000e+00  8.99999699999999916e-03  5.69065600000000019e-02
0.00000000000000000e+00  8.99999699999999916e-03  5.99834799999999987e-02
0.00000000000000000e+00  8.99999899999999985e-03  6.90247900000000025e-02
0.00000000000000000e+00  8.99999899999999985e-03  7.21017199999999941e-02
0.00000000000000000e+00  6.00000000000000012e-03  4.34019900000000031e-03
0.00000000000000000e+00  3.00000000000000006e-03  1.37767800000000006e-02
0.00000000000000000e+00  6.00000000000000012e-03  1.19631300000000006e-02
0.00000000000000000e+00  3.00000000000000006e-03  1.68536999999999992e-02
0.00000000000000000e+00  6.00000000000000012e-03  1.83736200000000002e-02
0.00000000000000000e+00  5.99999800000000031e-03  3.07627299999999985e-02
0.00000000000000000e+00  3.00000000000000006e-03  2.92257200000000002e-02
0.00000000000000000e+00  3.00000000000000006e-03  2.61487999999999998e-02
0.00000000000000000e+00  8.99999999999999932e-03  2.92257200000000002e-02
0.00000000000000000e+00  6.00000000000000012e-03  4.30748800000000029e-02
0.00000000000000000e+00  2.99999900000000016e-03  4.15377600000000000e-02
0.00000000000000000e+00  2.99999900000000016e-03  3.84608300000000014e-02
0.00000000000000000e+00  8.99999899999999985e-03  4.15377600000000000e-02
0.00000000000000000e+00  5.99999599999999963e-03  5.53635499999999975e-02
0.00000000000000000e+00  2.99999900000000016e-03  5.38416099999999981e-02
0.00000000000000000e+00  2.99999900000000016e-03  5.07646799999999995e-02
0.00000000000000000e+00  8.99999899999999985e-03  5.38416099999999981e-02
0.00000000000000000e+00  5.99999800000000031e-03  6.74268199999999984e-02
0.00000000000000000e+00  2.99999900000000016e-03  6.60943300000000067e-02
0.00000000000000000e+00  2.99999900000000016e-03  6.30174099999999959e-02
0.00000000000000000e+00  8.99999899999999985e-03  6.60943300000000067e-02
0.00000000000000000e+00  5.99999899999999978e-03  4.92248900000000003e-02
0.00000000000000000e+00  8.99999999999999932e-03  1.68536999999999992e-02
0.00000000000000000e+00  5.99999899999999978e-03  2.45917899999999988e-02
0.00000000000000000e+00  8.99999999999999932e-03  2.61487999999999998e-02
0.00000000000000000e+00  8.99999999999999932e-03  1.37767800000000006e-02
0.00000000000000000e+00  5.99999800000000031e-03  3.69209200000000029e-02
0.00000000000000000e+00  8.99999899999999985e-03  3.84608300000000014e-02
0.00000000000000000e+00  8.99999899999999985e-03  5.07646799999999995e-02
0.00000000000000000e+00  5.99999599999999963e-03  6.14624299999999985e-02
0.00000000000000000e+00  8.99999899999999985e-03  6.30174099999999959e-02
1.20000000000000002e-02  1.20000000000000002e-02  8.00000000000000017e-02
0.00000000000000000e+00  0.00000000000000000e+00  8.00000000000000017e-02
1.20000000000000002e-02  6.00000000000000012e-03  0.00000000000000000e+00
1.20000000000000002e-02  3.00000000000000006e-03  0.00000000000000000e+00
1.20000000000000002e-02  8.99999999999999932e-03  0.00000000000000000e+00
1.20000000000000002e-02  0.00000000000000000e+00  8.00000000000000017e-02
1.20000000000000002e-02  0.00000000000000000e+00  0.00000000000000000e+00
0.00000000000000000e+00  1.20000000000000002e-02  0.00000000000000000e+00
1.20000000000000002e-02  5.99999899999999978e-03  8.68039699999999942e-03
1.20000000000000002e-02  5.99999899999999978e-03  1.52458600000000000e-02
1.20000000000000002e-02  5.99999899999999978e-03  2.15013699999999988e-02
1.20000000000000002e-02  6.00000000000000012e-03  2.76822099999999988e-02
1.20000000000000002e-02  5.99999899999999978e-03  3.38432399999999967e-02
1.20000000000000002e-02  5.99999800000000031e-03  3.99985900000000005e-02
1.20000000000000002e-02  5.99999699999999997e-03  4.61511800000000000e-02
1.20000000000000002e-02  5.99999300000000034e-03  5.22986100000000023e-02
1.20000000000000002e-02  5.99998599999999969e-03  5.84285400000000010e-02
1.20000000000000002e-02  5.99997800000000043e-03  6.44963800000000059e-02
1.20000000000000002e-02  5.99997500000000027e-03  7.03572999999999976e-02
1.20000000000000002e-02  5.99997500000000027e-03  7.56573600000000068e-02
1.20000000000000002e-02  3.00000000000000006e-03  3.07692300000000007e-03
1.20000000000000002e-02  3.00000000000000006e-03  7.41712099999999961e-03
1.20000000000000002e-02  3.00000000000000006e-03  1.04940399999999996e-02
1.20000000000000002e-02  2.99999900000000016e-03  1.37767800000000006e-02
1.20000000000000002e-02  2.99999900000000016e-03  1.68536999999999992e-02
1.20000000000000002e-02  5.99999899999999978e-03  1.19631300000000006e-02
1.20000000000000002e-02  3.00000000000000006e-03  1.99814500000000013e-02
1.20000000000000002e-02  3.00000000000000006e-03  2.30583799999999998e-02
1.20000000000000002e-02  5.99999899999999978e-03  1.83736099999999986e-02
1.20000000000000002e-02  3.00000000000000006e-03  2.61487999999999998e-02
1.20000000000000002e-02  3.00000000000000006e-03  2.92257200000000002e-02
1.20000000000000002e-02  5.99999899999999978e-03  2.45917899999999988e-02
1.20000000000000002e-02  3.00000000000000006e-03  3.23062299999999983e-02
1.20000000000000002e-02  3.00000000000000006e-03  3.53831599999999968e-02
1.20000000000000002e-02  5.99999899999999978e-03  3.07627200000000003e-02
1.20000000000000002e-02  2.99999900000000016e-03  3.84608300000000014e-02
1.20000000000000002e-02  2.99999900000000016e-03  4.15377499999999983e-02
1.20000000000000002e-02  5.99999899999999978e-03  3.69209100000000012e-02
1.20000000000000002e-02  2.99999799999999981e-03  4.46140500000000023e-02
1.20000000000000002e-02  2.99999799999999981e-03  4.76909800000000009e-02
1.20000000000000002e-02  5.99999800000000031e-03  4.30748800000000029e-02
1.20000000000000002e-02  2.99999699999999991e-03  5.07646900000000012e-02
1.20000000000000002e-02  2.99999699999999991e-03  5.38416099999999981e-02
1.20000000000000002e-02  5.99999500000000015e-03  4.92249000000000020e-02
1.20000000000000002e-02  2.99999299999999984e-03  5.69065799999999983e-02
1.20000000000000002e-02  2.99999299999999984e-03  5.99835000000000021e-02
1.20000000000000002e-02  5.99999000000000018e-03  5.53635800000000025e-02
1.20000000000000002e-02  2.99998900000000021e-03  6.30174200000000045e-02
1.20000000000000002e-02  2.99998900000000021e-03  6.60943499999999962e-02
1.20000000000000002e-02  5.99998200000000006e-03  6.14624599999999965e-02
1.20000000000000002e-02  2.99998799999999987e-03  6.90248100000000059e-02
1.20000000000000002e-02  2.99998799999999987e-03  7.21017300000000028e-02
1.20000000000000002e-02  5.99997700000000009e-03  6.74268400000000018e-02
1.20000000000000002e-02  2.99998699999999997e-03  7.47517600000000004e-02
1.20000000000000002e-02  2.99998699999999997e-03  7.78286799999999973e-02
1.20000000000000002e-02  5.99998700000000003e-03  7.78286799999999973e-02
1.20000000000000002e-02  5.99997500000000027e-03  7.30073299999999953e-02
1.20000000000000002e-02  8.99998699999999922e-03  7.78286799999999973e-02
1.20000000000000002e-02  8.99999999999999932e-03  3.07692300000000007e-03
[...]
POINT_DATA 281

SCALARS Rank unsigned_int
LOOKUP_TABLE default
0 0 0 0 0 0 0 0 0 0 0 0 0 0 0 0 0 0 0 0 0 0 0 0 0 0 0 0 0 0 0 0 0 0 0 0 0 0 0 0 0 0 0 0 0 0 0 0 0 0 0 0 0 0 0 0 0 0 0 0 0 0 0 0 0 0 0 0 0 0 0 0 0 0 0 0 0 0 0 0 0 0 0 0 0 0 0 0 0 0 0 0 0 0 0 0 0 0 0 0 0 0 0 0 0 0 0 0 0 0 0 0 0 0 0 0 0 0 0 0 0 0 0 0 0 0 0 0 0 0 0 0 0 0 0 0 0 0 0 0 0 0 0 0 0 0 0 0 0 0 0 0 0 0 0 0 0 0 0 0 0 0 0 0 0 0 0 0 0 0 0 0 0 0 0 0 0 0 0 0 0 0 0 0 0 0 0 0 0 0 0 0 0 0 0 0 0 0 0 0 0 0 0 0 0 0 0 0 0 0 0 0 0 0 0 0 0 0 0 0 0 0 0 0 0 0 0 0 0 0 0 0 0 0 0 0 0 0 0 0 0 0 0 0 0 0 0 0 0 0 0 0 0 0 0 0 0 0 0 0 0 0 0 0 0 0 0 0 0 0 0 0 0 0 0 0 0 0 0 0 0 

VECTORS Forces0 double
1.16696284938187823e-02 0.00000000000000000e+00 -3.30944439054212287e-03 
1.08399778451078420e-02 0.00000000000000000e+00 -5.84777930921086264e-03 
8.12589586532035980e-03 0.00000000000000000e+00 -6.35983097547469182e-03 
5.16048191667420938e-03 0.00000000000000000e+00 -4.95529700553038865e-03 
3.62467800576813434e-03 0.00000000000000000e+00 -4.02427988972567981e-03 
2.86808567270326574e-03 0.00000000000000000e+00 -3.41146584045217728e-03 
2.33303560622975196e-03 0.00000000000000000e+00 -2.69852601485061176e-03 
1.15552858741210952e-02 0.00000000000000000e+00 -4.71776077317499678e-03 
9.68615686724065388e-03 0.00000000000000000e+00 -6.48511457290475678e-03 
6.53211574375808443e-03 0.00000000000000000e+00 -5.73198520356990159e-03 
4.18848574092779789e-03 0.00000000000000000e+00 -4.34586496085761966e-03 
3.26811244692243883e-03 0.00000000000000000e+00 -3.81207186970757743e-03 
1.10215536474229676e-02 0.00000000000000000e+00 -2.12331355689419042e-03 
1.18293151958010507e-02 0.00000000000000000e+00 -3.76103509339332847e-03 
1.15771084069538309e-02 0.00000000000000000e+00 -3.01813914971507061e-03 
1.04878306788105859e-02 0.00000000000000000e+00 -5.98267474860113800e-03 
1.11586285742879855e-02 0.00000000000000000e+00 -5.69004907444816549e-03 
7.81573274258987212e-03 0.00000000000000000e+00 -6.34590356258227933e-03 
8.46680854530586918e-03 0.00000000000000000e+00 -6.37731264460306667e-03 
4.83702785246753822e-03 0.00000000000000000e+00 -4.72541462983851364e-03 
5.52786071336201779e-03 0.00000000000000000e+00 -5.22109015950571447e-03 
3.56195098279719034e-03 0.00000000000000000e+00 -4.02592551882185751e-03 
3.70148051022790121e-03 0.00000000000000000e+00 -4.03325612601437237e-03 
2.68138945479671435e-03 0.00000000000000000e+00 -3.17123610390527633e-03 
3.01212069724914218e-03 0.00000000000000000e+00 -3.59115163332338278e-03 
2.04115277106291888e-03 0.00000000000000000e+00 -2.26568211816295835e-03 
2.42289312282577404e-03 0.00000000000000000e+00 -2.82519593017661712e-03 
2.59025883345306504e-03 0.00000000000000000e+00 -3.05150512284173671e-03 
2.04115277106703798e-03 0.00000000000000000e+00 -2.26568211816534967e-03 
2.42289312282784487e-03 0.00000000000000000e+00 -2.82519593017695626e-03 
2.04115277107499472e-03 0.00000000000000000e+00 -2.26568211817318368e-03 
1.10215536474188407e-02 0.00000000000000000e+00 -2.12331355689869116e-03 
1.15771084069543808e-02 0.00000000000000000e+00 -3.01813914971612142e-03 
1.18293151957995068e-02 0.00000000000000000e+00 -3.76103509338945440e-03 
1.11586285742889622e-02 0.00000000000000000e+00 -5.69004907444635704e-03 
1.04878306788106657e-02 0.00000000000000000e+00 -5.98267474859949088e-03 
8.46680854530504345e-03 0.00000000000000000e+00 -6.37731264459952176e-03 
7.81573274259236665e-03 0.00000000000000000e+00 -6.34590356258180749e-03 
5.52786071336110185e-03 0.00000000000000000e+00 -5.22109015950618371e-03 
4.83702785246696836e-03 0.00000000000000000e+00 -4.72541462984032296e-03 
3.70148051022906868e-03 0.00000000000000000e+00 -4.03325612601461089e-03 
3.56195098279794495e-03 0.00000000000000000e+00 -4.02592551881973074e-03 
3.01212069724958540e-03 0.00000000000000000e+00 -3.59115163332324053e-03 
2.68138945479229991e-03 0.00000000000000000e+00 -3.17123610390621959e-03 
1.13311830830309015e-02 0.00000000000000000e+00 -2.38812489910870994e-03 
1.17370359596102383e-02 0.00000000000000000e+00 -4.45309248643948555e-03 
1.19094126741299995e-02 0.00000000000000000e+00 -4.11904752419931137e-03 
1.14012383117447335e-02 0.00000000000000000e+00 -5.04088158053294776e-03 
1.12942790671125125e-02 0.00000000000000000e+00 -5.36859989364756734e-03 
8.86207901269177659e-03 0.00000000000000000e+00 -6.42360418426390564e-03 
9.29941996862653809e-03 0.00000000000000000e+00 -6.49025106452662086e-03 
9.93023743045038862e-03 0.00000000000000000e+00 -6.32260267241777953e-03 
9.29941996862549726e-03 0.00000000000000000e+00 -6.49025106452755067e-03 
5.85643005985555035e-03 0.00000000000000000e+00 -5.41184260689557810e-03 
6.17028223470884180e-03 0.00000000000000000e+00 -5.55573950657244162e-03 
6.95585370210865476e-03 0.00000000000000000e+00 -5.95701959036428527e-03 
6.17028223470837689e-03 0.00000000000000000e+00 -5.55573950657189519e-03 
3.82005845084004226e-03 0.00000000000000000e+00 -4.08876472460958755e-03 
3.98652825747576166e-03 0.00000000000000000e+00 -4.20054735675536809e-03 
4.37125020145424491e-03 0.00000000000000000e+00 -4.44680531014656714e-03 
3.98652825747829783e-03 0.00000000000000000e+00 -4.20054735675578703e-03 
3.14121503516987888e-03 0.00000000000000000e+00 -3.73433790428785717e-03 
3.19952592378047480e-03 0.00000000000000000e+00 -3.77360956859973265e-03 
3.35074457345270688e-03 0.00000000000000000e+00 -3.86933539388787827e-03 
3.19952592377862211e-03 0.00000000000000000e+00 -3.77360956860147432e-03 
4.57464815622293970e-03 0.00000000000000000e+00 -4.55595207156268747e-03 
1.14012383117532388e-02 0.00000000000000000e+00 -5.04088158053084528e-03 
1.01827751657243403e-02 0.00000000000000000e+00 -6.13683498267768041e-03 
9.93023743045199497e-03 0.00000000000000000e+00 -6.32260267241763641e-03 
1.17370359596091212e-02 0.00000000000000000e+00 -4.45309248644348149e-03 
7.41506919763870991e-03 0.00000000000000000e+00 -6.19840150066328956e-03 
6.95585370210526858e-03 0.00000000000000000e+00 -5.95701959036502773e-03 
4.37125020145607331e-03 0.00000000000000000e+00 -4.44680531014564773e-03 
3.45742593475878478e-03 0.00000000000000000e+00 -3.95158312409731472e-03 
3.35074457345515024e-03 0.00000000000000000e+00 -3.86933539388744328e-03 
-4.27340549175949573e-04 0.00000000000000000e+00 5.86011726037038755e-04 
1.75676538237009129e-03 0.00000000000000000e+00 -1.82187829911665124e-03 
-3.29679291053858463e-04 0.00000000000000000e+00 9.46727694587621107e-04 
-3.29679291061624820e-04 0.00000000000000000e+00 9.46727694589076323e-04 
-3.29679291057804959e-04 0.00000000000000000e+00 9.46727694585705322e-04 
-4.27340549180111066e-04 0.00000000000000000e+00 5.86011726040966819e-04 
-3.29679291060762662e-04 0.00000000000000000e+00 9.46727694593786965e-04 
1.00511107054049934e-02 0.00000000000000000e+00 -1.51502704105599666e-03 
9.41722390335236119e-05 0.00000000000000000e+00 1.18659592397258082e-04 
2.18835980029271834e-04 0.00000000000000000e+00 -2.00972404663878469e-04 
1.76034915056491343e-04 0.00000000000000000e+00 -3.17891306920249411e-04 
5.62733627746662927e-05 0.00000000000000000e+00 -2.92708200536120455e-04 
-8.14233650796784391e-05 0.00000000000000000e+00 -1.60737033995392184e-04 
-1.86316384319810198e-04 0.00000000000000000e+00 1.77412456230522675e-05 
-1.95300051636381698e-04 0.00000000000000000e+00 1.34568736723625007e-04 
-6.68176414718709495e-05 0.00000000000000000e+00 8.79758815490337600e-05 
1.52765304214882471e-04 0.00000000000000000e+00 -1.10978201048483343e-04 
3.17508366526349564e-04 0.00000000000000000e+00 -2.96864522765349329e-04 
2.68706987521705046e-04 0.00000000000000000e+00 -2.51846529309231388e-04 
-2.49514030992946108e-05 0.00000000000000000e+00 9.55030306009033999e-05 
-1.68761463565578521e-04 0.00000000000000000e+00 5.92927477151081921e-04 
4.60251371332955035e-05 0.00000000000000000e+00 2.08307371018901877e-04 
1.50426914638538816e-04 0.00000000000000000e+00 6.67935151955209857e-06 
2.09489802683234671e-04 0.00000000000000000e+00 -1.49060604712097466e-04 
2.19829751825003592e-04 0.00000000000000000e+00 -2.46717452530161268e-04 
1.83718726854178224e-04 0.00000000000000000e+00 -7.02117832260162113e-05 
1.97125156824335155e-04 0.00000000000000000e+00 -3.04361848925952655e-04 
1.50169561607505338e-04 0.00000000000000000e+00 -3.23342622546742681e-04 
2.12233343832150508e-04 0.00000000000000000e+00 -2.79646863912036403e-04 
8.94374572785294183e-05 0.00000000000000000e+00 -3.10313337750138182e-04 
2.16642452623971984e-05 0.00000000000000000e+00 -2.68123662481688750e-04 
1.21015428976748674e-04 0.00000000000000000e+00 -3.20468562485500474e-04 
-4.81780552879809384e-05 0.00000000000000000e+00 -2.01018926162356109e-04 
-1.12464450474641014e-04 0.00000000000000000e+00 -1.17685186125691840e-04 
-1.36016658063932244e-05 0.00000000000000000e+00 -2.36997643855537510e-04 
-1.66255651350438293e-04 0.00000000000000000e+00 -2.63106528204922785e-05 
-1.99998415098987740e-04 0.00000000000000000e+00 5.73566247226857845e-05 
-1.41179661796743476e-04 0.00000000000000000e+00 -7.20724831988474269e-05 
-2.05014315828249240e-04 0.00000000000000000e+00 1.17230155480083521e-04 
-1.76457112748660487e-04 0.00000000000000000e+00 1.40786503841574992e-04 
-2.06397917267568524e-04 0.00000000000000000e+00 9.11301481428544052e-05 
-1.11374071031737398e-04 0.00000000000000000e+00 1.17191190561546845e-04 
-1.61870941972088533e-05 0.00000000000000000e+00 4.85473036851069768e-05 
-1.48344893329619115e-04 0.00000000000000000e+00 1.35204416492433493e-04 
9.59729125567578971e-05 0.00000000000000000e+00 -5.36402834737731361e-05 
2.07312773566946525e-04 0.00000000000000000e+00 -1.69192029100210525e-04 
3.83782159628917458e-05 0.00000000000000000e+00 1.08852889871571261e-06 
2.91695285711519132e-04 0.00000000000000000e+00 -2.65035196439381471e-04 
3.30251499162963885e-04 0.00000000000000000e+00 -3.15098586676293738e-04 
2.53015031160699606e-04 0.00000000000000000e+00 -2.19883710461181566e-04 
3.04307519626524669e-04 0.00000000000000000e+00 -2.91400213275887384e-04 
1.98786169161270282e-04 0.00000000000000000e+00 -1.71195112313468221e-04 
3.27166633946846560e-04 0.00000000000000000e+00 -3.14585213839220458e-04 
4.21880677346839675e-05 0.00000000000000000e+00 1.47353372162024211e-05 
-2.10864511808783538e-04 0.00000000000000000e+00 3.21517868610291554e-04 
-2.10864511810858484e-04 0.00000000000000000e+00 3.21517868612077886e-04 
1.52029822405430680e-04 0.00000000000000000e+00 -1.16220893491786616e-04 
-2.10864511806539457e-04 0.00000000000000000e+00 3.21517868608855203e-04 
-1.68761463569774817e-04 0.00000000000000000e+00 5.92927477151225036e-04 
1.50426914634900233e-04 0.00000000000000000e+00 6.67935151515457455e-06 
4.60251371330483054e-05 0.00000000000000000e+00 2.08307371016317789e-04 
2.19829751826576986e-04 0.00000000000000000e+00 -2.46717452531295561e-04 
2.09489802685056998e-04 0.00000000000000000e+00 -1.49060604718220606e-04 
1.50169561608597346e-04 0.00000000000000000e+00 -3.23342622546530611e-04 
1.97125156823237075e-04 0.00000000000000000e+00 -3.04361848925761402e-04 
2.16642452625953906e-05 0.00000000000000000e+00 -2.68123662479714201e-04 
8.94374572772214368e-05 0.00000000000000000e+00 -3.10313337751518155e-04 
-1.12464450474225982e-04 0.00000000000000000e+00 -1.17685186125241246e-04 
-4.81780552894472134e-05 0.00000000000000000e+00 -2.01018926160496486e-04 
-1.99998415102546525e-04 0.00000000000000000e+00 5.73566247240319299e-05 
-1.66255651348151060e-04 0.00000000000000000e+00 -2.63106528216068383e-05 
-1.76457112748408301e-04 0.00000000000000000e+00 1.40786503842624066e-04 
-2.05014315830662891e-04 0.00000000000000000e+00 1.17230155481626123e-04 
-1.61870941998863990e-05 0.00000000000000000e+00 4.85473036869488194e-05 
-1.11374071034821954e-04 0.00000000000000000e+00 1.17191190558881442e-04 
2.07312773565241672e-04 0.00000000000000000e+00 -1.69192029098024340e-04 
9.59729125545516541e-05 0.00000000000000000e+00 -5.36402834744685434e-05 
3.30251499158001167e-04 0.00000000000000000e+00 -3.15098586676817733e-04 
2.91695285712376302e-04 0.00000000000000000e+00 -2.65035196441552531e-04 
1.98786169156836166e-04 0.00000000000000000e+00 -1.71195112311007191e-04 
3.04307519629017737e-04 0.00000000000000000e+00 -2.91400213275752943e-04 
-9.97064630420222569e-05 0.00000000000000000e+00 4.68317867830572536e-04 
4.21880677354893670e-05 0.00000000000000000e+00 1.47353372173087410e-05 
1.75676538236102476e-03 0.00000000000000000e+00 -1.82187829911509020e-03 
1.14978828827072554e-02 0.00000000000000000e+00 -2.74934660883311820e-03 
1.18936555719435164e-02 0.00000000000000000e+00 -4.18886269931308987e-03 
1.12885796618979704e-02 0.00000000000000000e+00 -5.38767332782508560e-03 
1.01785525891918919e-02 0.00000000000000000e+00 -6.13947003535892689e-03 
8.86029585127911211e-03 0.00000000000000000e+00 -6.42334066001654710e-03 
7.41442361488977176e-03 0.00000000000000000e+00 -6.19807972273579959e-03 
5.85603128107153609e-03 0.00000000000000000e+00 -5.41165558716969440e-03 
4.57376596175846674e-03 0.00000000000000000e+00 -4.55543014998166951e-03 
3.81809228495665282e-03 0.00000000000000000e+00 -4.08760139921621971e-03 
3.45181105746465884e-03 0.00000000000000000e+00 -3.94717371031668568e-03 
3.12671489710818380e-03 0.00000000000000000e+00 -3.72156382942974602e-03 
2.50881928180796739e-03 0.00000000000000000e+00 -2.94267154268722762e-03 
1.10215536474193802e-02 0.00000000000000000e+00 -2.12331355689729514e-03 
1.17155828066438684e-02 0.00000000000000000e+00 -3.44295918281010927e-03 
1.15396392470986115e-02 0.00000000000000000e+00 -4.74408504382337060e-03 
1.08313616424324261e-02 0.00000000000000000e+00 -5.85092445683003341e-03 
9.68431339390316871e-03 0.00000000000000000e+00 -6.48587960729928980e-03 
8.12529836668869111e-03 0.00000000000000000e+00 -6.35981952942031321e-03 
6.53175485923075498e-03 0.00000000000000000e+00 -5.73180015398249559e-03 
5.15987202793087834e-03 0.00000000000000000e+00 -4.95485252564134906e-03 
4.18727326293728049e-03 0.00000000000000000e+00 -4.34502765910371128e-03 
3.62334098086417250e-03 0.00000000000000000e+00 -4.02443314730388350e-03 
3.26236718287771597e-03 0.00000000000000000e+00 -3.80852309830561090e-03 
2.82285233106831755e-03 0.00000000000000000e+00 -3.35385506707456876e-03 
2.17000048292124558e-03 0.00000000000000000e+00 -2.45954224196188054e-03 
1.16204039026068600e-03 0.00000000000000000e+00 -1.18654556887133806e-03 
1.16204039025955973e-03 0.00000000000000000e+00 -1.18654556886929803e-03 
1.44545340034248445e-04 0.00000000000000000e+00 -2.60344236792445149e-05 
1.44545340025216499e-04 0.00000000000000000e+00 -2.60344236787572744e-05 
6.49658108209047089e-04 0.00000000000000000e+00 -5.96508898398438801e-04 
6.49658108214612191e-04 0.00000000000000000e+00 -5.96508898397020665e-04 
1.16204039025715237e-03 0.00000000000000000e+00 -1.18654556887396682e-03 
1.44545340032551994e-04 0.00000000000000000e+00 -2.60344236760025335e-05 
-4.27340549182675313e-04 0.00000000000000000e+00 5.86011726037258414e-04 
-4.27340549181895772e-04 0.00000000000000000e+00 5.86011726038138353e-04 
-4.27340549177164096e-04 0.00000000000000000e+00 5.86011726040218069e-04 
1.75676538236782575e-03 0.00000000000000000e+00 -1.82187829911656558e-03 
1.75676538237185226e-03 0.00000000000000000e+00 -1.82187829911860779e-03 
1.75676538236704100e-03 0.00000000000000000e+00 -1.82187829911500737e-03 
-9.11747216418877716e-06 0.00000000000000000e+00 3.07870332334123455e-04 
1.89817843511298952e-04 0.00000000000000000e+00 -8.65233554401714344e-05 
2.11580386673664554e-04 0.00000000000000000e+00 -2.81264345590711792e-04 
1.20549046759788736e-04 0.00000000000000000e+00 -3.20368083408650015e-04 
-1.37500548067499202e-05 0.00000000000000000e+00 -2.36855033713260084e-04 
-1.41218047009120584e-04 0.00000000000000000e+00 -7.20074047803812955e-05 
-2.06401288177071769e-04 0.00000000000000000e+00 9.11700768637890656e-05 
-1.48220154035824393e-04 0.00000000000000000e+00 1.35159312528714101e-04 
3.91536346921415789e-05 0.00000000000000000e+00 3.81178398976372802e-07 
2.55150739676731372e-04 0.00000000000000000e+00 -2.22311305286595936e-04 
3.24893367040614571e-04 0.00000000000000000e+00 -3.12539767699459312e-04 
1.02498401463900461e-04 0.00000000000000000e+00 -5.73802609756241504e-05 
-1.68761463568846740e-04 0.00000000000000000e+00 5.92927477152487047e-04 
1.12778318188561636e-04 0.00000000000000000e+00 8.25981754166893369e-05 
2.19266868968906730e-04 0.00000000000000000e+00 -2.05365602369546627e-04 
1.75460877121887197e-04 0.00000000000000000e+00 -3.18116455344104776e-04 
5.60506712237458630e-05 0.00000000000000000e+00 -2.92569768066437447e-04 
-8.14843966360568245e-05 0.00000000000000000e+00 -1.60657891142930773e-04 
-1.86332043852875098e-04 0.00000000000000000e+00 1.77799235004964730e-05 
-1.95275431867677216e-04 0.00000000000000000e+00 1.34589640301385652e-04 
-6.65358076528471340e-05 0.00000000000000000e+00 8.77729022479195776e-05 
1.53971559139792741e-04 0.00000000000000000e+00 -1.12232424315080256e-04 
3.19036401574895434e-04 0.00000000000000000e+00 -2.98848723523170246e-04 
2.54622813535102974e-04 0.00000000000000000e+00 -2.35796459898711619e-04 
-1.29143486887636593e-04 0.00000000000000000e+00 2.21922403118722397e-04 
1.00511107054026896e-02 0.00000000000000000e+00 -1.51502704105565254e-03 
1.00511107053989218e-02 0.00000000000000000e+00 -1.51502704105420122e-03 
1.00511107053972877e-02 0.00000000000000000e+00 -1.51502704105643642e-03 
6.49658108213904315e-04 0.00000000000000000e+00 -5.96508898397414881e-04 
1.16204039025809389e-03 0.00000000000000000e+00 -1.18654556887247474e-03 
1.44545340031452288e-04 0.00000000000000000e+00 -2.60344236780677218e-05 
-9.11747216776490960e-06 0.00000000000000000e+00 3.07870332331822995e-04 
1.89817843508408035e-04 0.00000000000000000e+00 -8.65233554415362281e-05 
2.11580386671108439e-04 0.00000000000000000e+00 -2.81264345592850923e-04 
1.20549046757962940e-04 0.00000000000000000e+00 -3.20368083405690143e-04 
-1.37500548054853068e-05 0.00000000000000000e+00 -2.36855033713672514e-04 
-1.41218047006489008e-04 0.00000000000000000e+00 -7.20074047794640605e-05 
-2.06401288177798835e-04 0.00000000000000000e+00 9.11700768635804651e-05 
-1.48220154035995914e-04 0.00000000000000000e+00 1.35159312527714684e-04 
3.91536346930850516e-05 0.00000000000000000e+00 3.81178398534235156e-07 
2.55150739677076582e-04 0.00000000000000000e+00 -2.22311305290424688e-04 
3.24893367036780561e-04 0.00000000000000000e+00 -3.12539767699070842e-04 
1.02498401462946932e-04 0.00000000000000000e+00 -5.73802609762213289e-05 
-1.68761463568260404e-04 0.00000000000000000e+00 5.92927477153293910e-04 
1.12778318186957017e-04 0.00000000000000000e+00 8.25981754164501619e-05 
2.19266868966717509e-04 0.00000000000000000e+00 -2.05365602369546411e-04 
1.75460877123639268e-04 0.00000000000000000e+00 -3.18116455344124725e-04 
5.60506712242380908e-05 0.00000000000000000e+00 -2.92569768065502865e-04 
-8.14843966362719302e-05 0.00000000000000000e+00 -1.60657891144216637e-04 
-1.86332043853129669e-04 0.00000000000000000e+00 1.77799235002757295e-05 
-1.95275431868147109e-04 0.00000000000000000e+00 1.34589640302763456e-04 
-6.65358076520010226e-05 0.00000000000000000e+00 8.77729022481643905e-05 
1.53971559139722702e-04 0.00000000000000000e+00 -1.12232424313712318e-04 
3.19036401576842769e-04 0.00000000000000000e+00 -2.98848723521977623e-04 
2.54622813532289253e-04 0.00000000000000000e+00 -2.35796459899527915e-04 
-1.29143486886295760e-04 0.00000000000000000e+00 2.21922403117350448e-04 
1.00511107054005542e-02 0.00000000000000000e+00 -1.51502704104900594e-03 
1.14978828827070681e-02 0.00000000000000000e+00 -2.74934660883432297e-03 
1.18936555719464012e-02 0.00000000000000000e+00 -4.18886269931599813e-03 
1.12885796618954776e-02 0.00000000000000000e+00 -5.38767332782781432e-03 
1.01785525891941869e-02 0.00000000000000000e+00 -6.13947003535975783e-03 
8.86029585128110010e-03 0.00000000000000000e+00 -6.42334066001533886e-03 
7.41442361489189766e-03 0.00000000000000000e+00 -6.19807972273729840e-03 