# vtk DataFile Version 2.0

ASCII

DATASET UNSTRUCTURED_GRID

POINTS 281 double 

0.00000000000000000e+00  6.00000000000000012e-03  8.68039800000000063e-03
0.00000000000000000e+00  6.00000000000000012e-03  2.15013699999999988e-02
0.00000000000000000e+00  5.99999699999999997e-03  3.38432499999999983e-02
0.00000000000000000e+00  6.00000000000000012e-03  4.61511800000000000e-02
0.00000000000000000e+00  5.99999399999999981e-03  5.84285100000000029e-02
0.00000000000000000e+00  5.99999899999999978e-03  7.03572799999999943e-02
0.00000000000000000e+00  6.00000000000000012e-03  7.56573400000000035e-02
0.00000000000000000e+00  6.00000000000000012e-03  1.52458600000000000e-02
0.00000000000000000e+00  5.99999899999999978e-03  2.76822099999999988e-02
0.00000000000000000e+00  5.99999899999999978e-03  3.99985900000000005e-02
0.00000000000000000e+00  5.99999800000000031e-03  5.22986000000000006e-02
0.00000000000000000e+00  5.99999800000000031e-03  6.44963600000000026e-02
0.00000000000000000e+00  3.00000000000000006e-03  3.07692300000000007e-03
0.00000000000000000e+00  3.00000000000000006e-03  1.04940499999999996e-02
0.00000000000000000e+00  3.00000000000000006e-03  7.41712199999999995e-03
0.00000000000000000e+00  3.00000000000000006e-03  2.30583799999999998e-02
0.00000000000000000e+00  3.00000000000000006e-03  1.99814599999999995e-02
0.00000000000000000e+00  2.99999900000000016e-03  3.53831699999999985e-02
0.00000000000000000e+00  2.99999900000000016e-03  3.23062400000000000e-02
0.00000000000000000e+00  3.00000000000000006e-03  4.76909699999999992e-02
0.00000000000000000e+00  3.00000000000000006e-03  4.46140500000000023e-02
0.00000000000000000e+00  2.99999699999999991e-03  5.99834799999999987e-02
0.00000000000000000e+00  2.99999699999999991e-03  5.69065600000000019e-02
0.00000000000000000e+00  2.99999900000000016e-03  7.21017199999999941e-02
0.00000000000000000e+00  2.99999900000000016e-03  6.90247900000000025e-02
0.00000000000000000e+00  3.00000000000000006e-03  7.78286700000000026e-02
0.00000000000000000e+00  3.00000000000000006e-03  7.47517500000000057e-02
0.00000000000000000e+00  5.99999899999999978e-03  7.30073100000000058e-02
0.00000000000000000e+00  6.00000000000000012e-03  7.78286700000000026e-02
0.00000000000000000e+00  8.99999999999999932e-03  7.47517500000000057e-02
0.00000000000000000e+00  8.99999999999999932e-03  7.78286700000000026e-02
0.00000000000000000e+00  8.99999999999999932e-03  3.07692300000000007e-03
0.00000000000000000e+00  8.99999999999999932e-03  7.41712199999999995e-03
0.00000000000000000e+00  8.99999999999999932e-03  1.04940499999999996e-02
0.00000000000000000e+00  8.99999999999999932e-03  1.99814599999999995e-02
0.00000000000000000e+00  8.99999999999999932e-03  2.30583799999999998e-02
0.00000000000000000e+00  8.99999899999999985e-03  3.23062400000000000e-02
0.00000000000000000e+00  8.99999899999999985e-03  3.53831699999999985e-02
0.00000000000000000e+00  8.99999999999999932e-03  4.46140500000000023e-02
0.00000000000000000e+00  8.99999999999999932e-03  4.76909699999999992e-02
0.00000000000000000e+00  8.99999699999999916e-03  5.69065600000000019e-02
0.00000000000000000e+00  8.99999699999999916e-03  5.99834799999999987e-02
0.00000000000000000e+00  8.99999899999999985e-03  6.90247900000000025e-02
0.00000000000000000e+00  8.99999899999999985e-03  7.21017199999999941e-02
0.00000000000000000e+00  6.00000000000000012e-03  4.34019900000000031e-03
0.00000000000000000e+00  3.00000000000000006e-03  1.37767800000000006e-02
0.00000000000000000e+00  6.00000000000000012e-03  1.19631300000000006e-02
0.00000000000000000e+00  3.00000000000000006e-03  1.68536999999999992e-02
0.00000000000000000e+00  6.00000000000000012e-03  1.83736200000000002e-02
0.00000000000000000e+00  5.99999800000000031e-03  3.07627299999999985e-02
0.00000000000000000e+00  3.00000000000000006e-03  2.92257200000000002e-02
0.00000000000000000e+00  3.00000000000000006e-03  2.61487999999999998e-02
0.00000000000000000e+00  8.99999999999999932e-03  2.92257200000000002e-02
0.00000000000000000e+00  6.00000000000000012e-03  4.30748800000000029e-02
0.00000000000000000e+00  2.99999900000000016e-03  4.15377600000000000e-02
0.00000000000000000e+00  2.99999900000000016e-03  3.84608300000000014e-02
0.00000000000000000e+00  8.99999899999999985e-03  4.15377600000000000e-02
0.00000000000000000e+00  5.99999599999999963e-03  5.53635499999999975e-02
0.00000000000000000e+00  2.99999900000000016e-03  5.38416099999999981e-02
0.00000000000000000e+00  2.99999900000000016e-03  5.07646799999999995e-02
0.00000000000000000e+00  8.99999899999999985e-03  5.38416099999999981e-02
0.00000000000000000e+00  5.99999800000000031e-03  6.74268199999999984e-02
0.00000000000000000e+00  2.99999900000000016e-03  6.60943300000000067e-02
0.00000000000000000e+00  2.99999900000000016e-03  6.30174099999999959e-02
0.00000000000000000e+00  8.99999899999999985e-03  6.60943300000000067e-02
0.00000000000000000e+00  5.99999899999999978e-03  4.92248900000000003e-02
0.00000000000000000e+00  8.99999999999999932e-03  1.68536999999999992e-02
0.00000000000000000e+00  5.99999899999999978e-03  2.45917899999999988e-02
0.00000000000000000e+00  8.99999999999999932e-03  2.61487999999999998e-02
0.00000000000000000e+00  8.99999999999999932e-03  1.37767800000000006e-02
0.00000000000000000e+00  5.99999800000000031e-03  3.69209200000000029e-02
0.00000000000000000e+00  8.99999899999999985e-03  3.84608300000000014e-02
0.00000000000000000e+00  8.99999899999999985e-03  5.07646799999999995e-02
0.00000000000000000e+00  5.99999599999999963e-03  6.14624299999999985e-02
0.00000000000000000e+00  8.99999899999999985e-03  6.30174099999999959e-02
1.20000000000000002e-02  1.20000000000000002e-02  8.00000000000000017e-02
0.00000000000000000e+00  0.00000000000000000e+00  8.00000000000000017e-02
1.20000000000000002e-02  6.00000000000000012e-03  0.00000000000000000e+00
1.20000000000000002e-02  3.00000000000000006e-03  0.00000000000000000e+00
1.20000000000000002e-02  8.99999999999999932e-03  0.00000000000000000e+00
1.20000000000000002e-02  0.00000000000000000e+00  8.00000000000000017e-02
1.20000000000000002e-02  0.00000000000000000e+00  0.00000000000000000e+00
0.00000000000000000e+00  1.20000000000000002e-02  0.00000000000000000e+00
1.20000000000000002e-02  5.99999899999999978e-03  8.68039699999999942e-03
1.20000000000000002e-02  5.99999899999999978e-03  1.52458600000000000e-02
1.20000000000000002e-02  5.99999899999999978e-03  2.15013699999999988e-02
1.20000000000000002e-02  6.00000000000000012e-03  2.76822099999999988e-02
1.20000000000000002e-02  5.99999899999999978e-03  3.38432399999999967e-02
1.20000000000000002e-02  5.99999800000000031e-03  3.99985900000000005e-02
1.20000000000000002e-02  5.99999699999999997e-03  4.61511800000000000e-02
1.20000000000000002e-02  5.99999300000000034e-03  5.22986100000000023e-02
1.20000000000000002e-02  5.99998599999999969e-03  5.84285400000000010e-02
1.20000000000000002e-02  5.99997800000000043e-03  6.44963800000000059e-02
1.20000000000000002e-02  5.99997500000000027e-03  7.03572999999999976e-02
1.20000000000000002e-02  5.99997500000000027e-03  7.56573600000000068e-02
1.20000000000000002e-02  3.00000000000000006e-03  3.07692300000000007e-03
1.20000000000000002e-02  3.00000000000000006e-03  7.41712099999999961e-03
1.20000000000000002e-02  3.00000000000000006e-03  1.04940399999999996e-02
1.20000000000000002e-02  2.99999900000000016e-03  1.37767800000000006e-02
1.20000000000000002e-02  2.99999900000000016e-03  1.68536999999999992e-02
1.20000000000000002e-02  5.99999899999999978e-03  1.19631300000000006e-02
1.20000000000000002e-02  3.00000000000000006e-03  1.99814500000000013e-02
1.20000000000000002e-02  3.00000000000000006e-03  2.30583799999999998e-02
1.20000000000000002e-02  5.99999899999999978e-03  1.83736099999999986e-02
1.20000000000000002e-02  3.00000000000000006e-03  2.61487999999999998e-02
1.20000000000000002e-02  3.00000000000000006e-03  2.92257200000000002e-02
1.20000000000000002e-02  5.99999899999999978e-03  2.45917899999999988e-02
1.20000000000000002e-02  3.00000000000000006e-03  3.23062299999999983e-02
1.20000000000000002e-02  3.00000000000000006e-03  3.53831599999999968e-02
1.20000000000000002e-02  5.99999899999999978e-03  3.07627200000000003e-02
1.20000000000000002e-02  2.99999900000000016e-03  3.84608300000000014e-02
1.20000000000000002e-02  2.99999900000000016e-03  4.15377499999999983e-02
1.20000000000000002e-02  5.99999899999999978e-03  3.69209100000000012e-02
1.20000000000000002e-02  2.99999799999999981e-03  4.46140500000000023e-02
1.20000000000000002e-02  2.99999799999999981e-03  4.76909800000000009e-02
1.20000000000000002e-02  5.99999800000000031e-03  4.30748800000000029e-02
1.20000000000000002e-02  2.99999699999999991e-03  5.07646900000000012e-02
1.20000000000000002e-02  2.99999699999999991e-03  5.38416099999999981e-02
1.20000000000000002e-02  5.99999500000000015e-03  4.92249000000000020e-02
1.20000000000000002e-02  2.99999299999999984e-03  5.69065799999999983e-02
1.20000000000000002e-02  2.99999299999999984e-03  5.99835000000000021e-02
1.20000000000000002e-02  5.99999000000000018e-03  5.53635800000000025e-02
1.20000000000000002e-02  2.99998900000000021e-03  6.30174200000000045e-02
1.20000000000000002e-02  2.99998900000000021e-03  6.60943499999999962e-02
1.20000000000000002e-02  5.99998200000000006e-03  6.14624599999999965e-02
1.20000000000000002e-02  2.99998799999999987e-03  6.90248100000000059e-02
1.20000000000000002e-02  2.99998799999999987e-03  7.21017300000000028e-02
1.20000000000000002e-02  5.99997700000000009e-03  6.74268400000000018e-02
1.20000000000000002e-02  2.99998699999999997e-03  7.47517600000000004e-02
1.20000000000000002e-02  2.99998699999999997e-03  7.78286799999999973e-02
1.20000000000000002e-02  5.99998700000000003e-03  7.78286799999999973e-02
1.20000000000000002e-02  5.99997500000000027e-03  7.30073299999999953e-02
1.20000000000000002e-02  8.99998699999999922e-03  7.78286799999999973e-02
1.20000000000000002e-02  8.99999999999999932e-03  3.07692300000000007e-03
[...]
POINT_DATA 281

SCALARS Rank unsigned_int
LOOKUP_TABLE default
0 0 0 0 0 0 0 0 0 0 0 0 0 0 0 0 0 0 0 0 0 0 0 0 0 0 0 0 0 0 0 0 0 0 0 0 0 0 0 0 0 0 0 0 0 0 0 0 0 0 0 0 0 0 0 0 0 0 0 0 0 0 0 0 0 0 0 0 0 0 0 0 0 0 0 0 0 0 0 0 0 0 0 0 0 0 0 0 0 0 0 0 0 0 0 0 0 0 0 0 0 0 0 0 0 0 0 0 0 0 0 0 0 0 0 0 0 0 0 0 0 0 0 0 0 0 0 0 0 0 0 0 0 0 0 0 0 0 0 0 0 0 0 0 0 0 0 0 0 0 0 0 0 0 0 0 0 0 0 0 0 0 0 0 0 0 0 0 0 0 0 0 0 0 0 0 0 0 0 0 0 0 0 0 0 0 0 0 0 0 0 0 0 0 0 0 0 0 0 0 0 0 0 0 0 0 0 0 0 0 0 0 0 0 0 0 0 0 0 0 0 0 0 0 0 0 0 0 0 0 0 0 0 0 0 0 0 0 0 0 0 0 0 0 0 0 0 0 0 0 0 0 0 0 0 0 0 0 0 0 0 0 0 0 0 0 0 0 0 0 0 0 0 0 0 0 0 0 0 0 0 

VECTORS Forces0 double
7.15103758785188040e-06 0.00000000000000000e+00 7.71214574331918097e-08 
6.66979823324471959e-06 0.00000000000000000e+00 -5.24814991111670480e-08 
5.22579914012409442e-06 0.00000000000000000e+00 4.09184280347560385e-08 
3.65941192813310840e-06 0.00000000000000000e+00 -2.77375515851147717e-08 
2.10595457361920406e-06 0.00000000000000000e+00 3.77009699184571886e-08 
5.22855511350366900e-07 0.00000000000000000e+00 -8.57779050878942151e-08 
-1.23360000400676059e-07 0.00000000000000000e+00 -2.32273756540711920e-07 
7.08696120568449395e-06 0.00000000000000000e+00 1.86678296584968637e-08 
6.02652775836191508e-06 0.00000000000000000e+00 -4.23552332693710646e-08 
4.42402607290297104e-06 0.00000000000000000e+00 7.26350166706453704e-08 
2.90518247975085894e-06 0.00000000000000000e+00 -1.06518771789401546e-07 
1.29710226109844289e-06 0.00000000000000000e+00 1.74997743530645850e-07 
6.78697623787475430e-06 0.00000000000000000e+00 7.19537800226632661e-09 
7.22278488791826972e-06 0.00000000000000000e+00 7.06505734629650493e-08 
7.10051558716689761e-06 0.00000000000000000e+00 7.45533950823448468e-08 
6.48799245960069907e-06 0.00000000000000000e+00 -5.95650441794095971e-08 
6.83377232222528269e-06 0.00000000000000000e+00 -4.00886268936784452e-08 
5.05831457162154594e-06 0.00000000000000000e+00 5.97417858408435261e-08 
5.40583704183919280e-06 0.00000000000000000e+00 1.88009490990654838e-08 
3.45302138160774420e-06 0.00000000000000000e+00 -6.04786180623055325e-08 
3.87512839390848386e-06 0.00000000000000000e+00 5.78526417260212627e-09 
1.91548283223517499e-06 0.00000000000000000e+00 9.49571376068439456e-08 
2.29272634547590868e-06 0.00000000000000000e+00 -1.67124620305511543e-08 
2.95711116563014082e-07 0.00000000000000000e+00 -1.89594361766457915e-07 
7.01589267588350792e-07 0.00000000000000000e+00 0.00000000000000000e+00 
-3.36697798263149099e-07 0.00000000000000000e+00 -8.88494596975109470e-08 
-2.38882192573086931e-08 0.00000000000000000e+00 -2.52872412100632095e-07 
1.82483956172176103e-07 0.00000000000000000e+00 -2.28566838879402026e-07 
-3.36697798262869155e-07 0.00000000000000000e+00 -8.88494596930400954e-08 
-2.38882192557653990e-08 0.00000000000000000e+00 -2.52872412103974064e-07 
-3.36697798266100162e-07 0.00000000000000000e+00 -8.88494596965573997e-08 
6.78697623787249187e-06 0.00000000000000000e+00 7.19537801709093844e-09 
7.10051558716481221e-06 0.00000000000000000e+00 7.45533950798863336e-08 
7.22278488792094126e-06 0.00000000000000000e+00 7.06505734720561215e-08 
6.83377232222452629e-06 0.00000000000000000e+00 -4.00886269067282848e-08 
6.48799245960258288e-06 0.00000000000000000e+00 -5.95650441743141380e-08 
5.40583704183900560e-06 0.00000000000000000e+00 1.88009490903224097e-08 
5.05831457162049986e-06 0.00000000000000000e+00 5.97417858361993768e-08 
3.87512839390891330e-06 0.00000000000000000e+00 5.78526417351363960e-09 
3.45302138160962715e-06 0.00000000000000000e+00 -6.04786180541568638e-08 
2.29272634547588200e-06 0.00000000000000000e+00 -1.67124620364218867e-08 
1.91548283223743403e-06 0.00000000000000000e+00 9.49571376053421032e-08 
7.01589267586322995e-07 0.00000000000000000e+00 0.00000000000000000e+00 
2.95711116564371029e-07 0.00000000000000000e+00 -1.89594361777232465e-07 
6.94348064951663599e-06 0.00000000000000000e+00 3.73265236424604325e-08 
7.17460888766538296e-06 0.00000000000000000e+00 3.79831720322991516e-08 
7.25281084464795669e-06 0.00000000000000000e+00 5.85774572375867587e-08 
7.00012116348724968e-06 0.00000000000000000e+00 -3.09379898746238654e-09 
6.92639215131474928e-06 0.00000000000000000e+00 -2.25433926436623827e-08 
5.60780157276224844e-06 0.00000000000000000e+00 -4.07315176895433242e-09 
5.82625000972881070e-06 0.00000000000000000e+00 -2.50115694810469092e-08 
6.17266081343402925e-06 0.00000000000000000e+00 -5.43689979849190959e-08 
5.82625000972732077e-06 0.00000000000000000e+00 -2.50115694735428061e-08 
4.06361763496305164e-06 0.00000000000000000e+00 3.56939472837567006e-08 
4.23656414447265515e-06 0.00000000000000000e+00 5.84515277717370099e-08 
4.63377884187978539e-06 0.00000000000000000e+00 7.71206204789217631e-08 
4.23656414447423402e-06 0.00000000000000000e+00 5.84515277681704188e-08 
2.49041111913827062e-06 0.00000000000000000e+00 -6.24746734778242957e-08 
2.69593991415443533e-06 0.00000000000000000e+00 -9.26463349523159945e-08 
3.08707077025119409e-06 0.00000000000000000e+00 -1.03890901256431772e-07 
2.69593991415565590e-06 0.00000000000000000e+00 -9.26463349490423180e-08 
9.13615648504087029e-07 0.00000000000000000e+00 9.19561979357915640e-08 
1.08651917228124456e-06 0.00000000000000000e+00 1.44219436914454304e-07 
1.49820673569154150e-06 0.00000000000000000e+00 1.71281157330111766e-07 
1.08651917228129750e-06 0.00000000000000000e+00 1.44219436918634994e-07 
3.26319889011666137e-06 0.00000000000000000e+00 -8.73999894692807124e-08 
7.00012116348605621e-06 0.00000000000000000e+00 -3.09379899803518414e-09 
6.32190797350298892e-06 0.00000000000000000e+00 -6.03389284976140808e-08 
6.17266081343472043e-06 0.00000000000000000e+00 -5.43689979845286666e-08 
7.17460888766748445e-06 0.00000000000000000e+00 3.79831720323965075e-08 
4.85704274504647732e-06 0.00000000000000000e+00 7.25216790095951291e-08 
4.63377884188055873e-06 0.00000000000000000e+00 7.71206204824098712e-08 
3.08707077025212794e-06 0.00000000000000000e+00 -1.03890901260094343e-07 
1.71351240623264066e-06 0.00000000000000000e+00 1.41254971968526540e-07 
1.49820673569035820e-06 0.00000000000000000e+00 1.71281157333253887e-07 
1.74950381686928642e-06 0.00000000000000000e+00 2.75747833839398260e-07 
-5.12734519210132722e-07 0.00000000000000000e+00 2.76437144960295038e-07 
-8.87493685789065230e-07 0.00000000000000000e+00 -1.08250838313586542e-07 
-8.87493685788330429e-07 0.00000000000000000e+00 -1.08250838329218415e-07 
-8.87493685787402928e-07 0.00000000000000000e+00 -1.08250838309814638e-07 
1.74950381687037380e-06 0.00000000000000000e+00 2.75747833840587706e-07 
-8.87493685786204376e-07 0.00000000000000000e+00 -1.08250838319840001e-07 
6.29235009177220309e-06 0.00000000000000000e+00 -1.08658071568438052e-07 
-7.36085128840576522e-07 0.00000000000000000e+00 7.75449815131455771e-08 
-4.70991283288696628e-07 0.00000000000000000e+00 1.88494015577185782e-08 
-1.46532193767222661e-07 0.00000000000000000e+00 -5.26522306561318325e-08 
2.52952345145172270e-07 0.00000000000000000e+00 -4.31187442535158245e-08 
7.25843294416274584e-07 0.00000000000000000e+00 3.98181505251344218e-08 
1.26877866920485539e-06 0.00000000000000000e+00 7.13122400581372386e-08 
1.85695043039767746e-06 0.00000000000000000e+00 -2.94736543428019682e-08 
2.42259520928630707e-06 0.00000000000000000e+00 -1.08903880437085076e-07 
2.83305109758288952e-06 0.00000000000000000e+00 3.53968244352445772e-08 
2.99133333003448022e-06 0.00000000000000000e+00 1.72872758546488490e-07 
2.83889278088965703e-06 0.00000000000000000e+00 -8.84457144170420762e-08 
2.39408930104294978e-06 0.00000000000000000e+00 -2.35495808396389924e-07 
-8.82556391607929437e-07 0.00000000000000000e+00 7.77742126241687290e-09 
-7.77128227220351755e-07 0.00000000000000000e+00 7.50323564095012687e-08 
-6.74218723118802920e-07 0.00000000000000000e+00 7.10138082210504610e-08 
-5.40038678194931854e-07 0.00000000000000000e+00 3.82357782719821283e-08 
-3.92352650520440886e-07 0.00000000000000000e+00 -3.01198067422381919e-09 
-6.19834989388165293e-07 0.00000000000000000e+00 5.88991693487479302e-08 
-2.30947000011710876e-07 0.00000000000000000e+00 -4.02356244510759443e-08 
-5.44352304755568259e-08 0.00000000000000000e+00 -5.97856899400881459e-08 
-3.15770690261030874e-07 0.00000000000000000e+00 -2.25747654682357103e-08 
1.45798353644298685e-07 0.00000000000000000e+00 -5.49160419050943592e-08 
3.61758894530239544e-07 0.00000000000000000e+00 -2.57922951023815953e-08 
4.17020083310875512e-08 0.00000000000000000e+00 -6.06800354598219925e-08 
5.96169115649784163e-07 0.00000000000000000e+00 1.79411448487973644e-08 
8.62626210531620541e-07 0.00000000000000000e+00 5.83229190972790038e-08 
4.74360651829969733e-07 0.00000000000000000e+00 -4.82957593583095914e-09 
1.12866051861251411e-06 0.00000000000000000e+00 7.58042451316738495e-08 
1.41823306414646821e-06 0.00000000000000000e+00 5.68993469819454268e-08 
9.95642841348412520e-07 0.00000000000000000e+00 7.10730768296856215e-08 
1.72080898012851932e-06 0.00000000000000000e+00 3.76887764424170582e-09 
1.99658483414991585e-06 0.00000000000000000e+00 -6.20996938440990947e-08 
1.57279732855694878e-06 0.00000000000000000e+00 3.37835612563435785e-08 
2.28778654639958233e-06 0.00000000000000000e+00 -1.06058827675269904e-07 
2.53217308853549283e-06 0.00000000000000000e+00 -9.46663512303902070e-08 
2.14065239144132776e-06 0.00000000000000000e+00 -8.91724394010669940e-08 
2.73602935551631064e-06 0.00000000000000000e+00 -1.85925642335404631e-08 
2.91663871353121109e-06 0.00000000000000000e+00 9.21925695393940702e-08 
2.63375776505003560e-06 0.00000000000000000e+00 -6.42412471492319144e-08 
2.97854496562079500e-06 0.00000000000000000e+00 1.69199623865691642e-07 
2.99566179296039292e-06 0.00000000000000000e+00 1.41579577485579797e-07 
2.95590897858387347e-06 0.00000000000000000e+00 1.38843116874576386e-07 
2.92245086559494909e-06 0.00000000000000000e+00 -2.16644677250606483e-09 
2.71155072352877861e-06 0.00000000000000000e+00 -1.92012253092450579e-07 
2.98407871658730747e-06 0.00000000000000000e+00 8.87485128327188443e-08 
2.48667555067738737e-06 0.00000000000000000e+00 -2.55871528612746028e-07 
2.09108447566301916e-06 0.00000000000000000e+00 -9.08920492108835661e-08 
2.09108447566114891e-06 0.00000000000000000e+00 -9.08920492139700482e-08 
2.63964101743490073e-06 0.00000000000000000e+00 -2.31079735684308991e-07 
2.09108447566165459e-06 0.00000000000000000e+00 -9.08920492178102839e-08 
-8.82556391602411864e-07 0.00000000000000000e+00 7.77742127144968519e-09 
-6.74218723118853742e-07 0.00000000000000000e+00 7.10138082172004581e-08 
-7.77128227219741891e-07 0.00000000000000000e+00 7.50323564055773092e-08 
-3.92352650518602824e-07 0.00000000000000000e+00 -3.01198067275125241e-09 
-5.40038678195882648e-07 0.00000000000000000e+00 3.82357782676677130e-08 
-5.44352304741136935e-08 0.00000000000000000e+00 -5.97856899418461628e-08 
-2.30947000011109906e-07 0.00000000000000000e+00 -4.02356244537442569e-08 
3.61758894529421946e-07 0.00000000000000000e+00 -2.57922950954786474e-08 
1.45798353643787924e-07 0.00000000000000000e+00 -5.49160419027186965e-08 
8.62626210532017800e-07 0.00000000000000000e+00 5.83229190975439663e-08 
5.96169115650238279e-07 0.00000000000000000e+00 1.79411448493657235e-08 
1.41823306414587126e-06 0.00000000000000000e+00 5.68993469849054232e-08 
1.12866051861150826e-06 0.00000000000000000e+00 7.58042451279268934e-08 
1.99658483415077220e-06 0.00000000000000000e+00 -6.20996938421497013e-08 
1.72080898012865993e-06 0.00000000000000000e+00 3.76887764443174560e-09 
2.53217308853590110e-06 0.00000000000000000e+00 -9.46663512334066501e-08 
2.28778654639894113e-06 0.00000000000000000e+00 -1.06058827680520264e-07 
2.91663871353117001e-06 0.00000000000000000e+00 9.21925695423998195e-08 
2.73602935551592778e-06 0.00000000000000000e+00 -1.85925642351099092e-08 
2.99566179296078340e-06 0.00000000000000000e+00 1.41579577483911460e-07 
2.97854496562192875e-06 0.00000000000000000e+00 1.69199623868705174e-07 
2.71155072352857702e-06 0.00000000000000000e+00 -1.92012253092176882e-07 
2.92245086559463019e-06 0.00000000000000000e+00 -2.16644676468075095e-09 
-8.64403216214189596e-07 0.00000000000000000e+00 3.79414251500016224e-08 
2.48667555067648909e-06 0.00000000000000000e+00 -2.55871528621156059e-07 
-5.12734519213195593e-07 0.00000000000000000e+00 2.76437144967907747e-07 
7.04883218688112161e-06 0.00000000000000000e+00 6.50014440087943693e-08 
7.24543627131934167e-06 0.00000000000000000e+00 5.50695171599416954e-08 
6.92213431985499067e-06 0.00000000000000000e+00 -2.35982452687128936e-08 
6.31951165797108055e-06 0.00000000000000000e+00 -6.02992794517112449e-08 
5.60690440200488159e-06 0.00000000000000000e+00 -3.97922048682720292e-09 
4.85672877738190694e-06 0.00000000000000000e+00 7.25341532991893932e-08 
4.06339061968343604e-06 0.00000000000000000e+00 3.56585802719517667e-08 
3.26250393036825537e-06 0.00000000000000000e+00 -8.74855662642644930e-08 
2.48763213877364942e-06 0.00000000000000000e+00 -6.19448826007068312e-08 
1.70293196256711920e-06 0.00000000000000000e+00 1.43237218090223485e-07 
8.79089073614484966e-07 0.00000000000000000e+00 7.88157454805822717e-08 
8.10042346908981237e-08 0.00000000000000000e+00 -2.50241906655112303e-07 
6.78697623787485255e-06 0.00000000000000000e+00 7.19537801969863524e-09 
7.17328545683623854e-06 0.00000000000000000e+00 7.63192442136563004e-08 
7.07889622252140146e-06 0.00000000000000000e+00 1.67882997883297198e-08 
6.66542732394577483e-06 0.00000000000000000e+00 -5.27203908649357465e-08 
6.02547508559555172e-06 0.00000000000000000e+00 -4.22573484006006036e-08 
5.22547781364173765e-06 0.00000000000000000e+00 4.09578139243589210e-08 
4.42384398517379136e-06 0.00000000000000000e+00 7.26264230300990946e-08 
3.65904118763736311e-06 0.00000000000000000e+00 -2.77963451755738301e-08 
2.90398780519522434e-06 0.00000000000000000e+00 -1.06487591922029660e-07 
2.10196008337264674e-06 0.00000000000000000e+00 3.89305635789505558e-08 
1.28117028182877578e-06 0.00000000000000000e+00 1.73998773918316930e-07 
4.68253514305707071e-07 0.00000000000000000e+00 -1.12163132082694290e-07 
-2.52281618176601419e-07 0.00000000000000000e+00 -1.70727324271411486e-07 
-1.59633438873583021e-08 0.00000000000000000e+00 3.96635869422784946e-06 
-1.59633438877335377e-08 0.00000000000000000e+00 3.96635869423337719e-06 
1.22755943950935632e-06 0.00000000000000000e+00 3.96615110160106961e-06 
1.22755943951082889e-06 0.00000000000000000e+00 3.96615110159153880e-06 
6.00576529573194399e-07 0.00000000000000000e+00 7.09384542310271363e-06 
6.00576529571140344e-07 0.00000000000000000e+00 7.09384542310083999e-06 
-1.59633438866484885e-08 0.00000000000000000e+00 3.96635869422341524e-06 
1.22755943950966167e-06 0.00000000000000000e+00 3.96615110159178613e-06 
1.74950381687074861e-06 0.00000000000000000e+00 2.75747833831311425e-07 
1.74950381687117298e-06 0.00000000000000000e+00 2.75747833835269187e-07 
1.74950381687212928e-06 0.00000000000000000e+00 2.75747833834187737e-07 
-5.12734519212589964e-07 0.00000000000000000e+00 2.76437144966381182e-07 
-5.12734519211202101e-07 0.00000000000000000e+00 2.76437144968541751e-07 
-5.12734519212319337e-07 0.00000000000000000e+00 2.76437144972723765e-07 
-8.16133632962844092e-07 0.00000000000000000e+00 6.55439923135033897e-08 
-6.05614950425452994e-07 0.00000000000000000e+00 5.53796695056705042e-08 
-3.11247674923408231e-07 0.00000000000000000e+00 -2.36366987893642921e-08 
4.32304454042755282e-08 0.00000000000000000e+00 -6.06429301943295082e-08 
4.74854860133794831e-07 0.00000000000000000e+00 -4.73562129553083190e-09 
9.95826793697511678e-07 0.00000000000000000e+00 7.10858187364120262e-08 
1.57300310650150540e-06 0.00000000000000000e+00 3.37477156161119969e-08 
2.14121241300498983e-06 0.00000000000000000e+00 -8.92590099848624909e-08 
2.63515494339448264e-06 0.00000000000000000e+00 -6.37110468351899595e-08 
2.95730568016213725e-06 0.00000000000000000e+00 1.40847330674822649e-07 
2.97872387864656097e-06 0.00000000000000000e+00 7.55233796598984536e-08 
2.56896739702327021e-06 0.00000000000000000e+00 -2.52951546899275076e-07 
-8.82556391604574339e-07 0.00000000000000000e+00 7.77742126839766666e-09 
-7.17768661210373723e-07 0.00000000000000000e+00 7.67220244868120410e-08 
-4.64332136696667495e-07 0.00000000000000000e+00 1.69622255779281436e-08 
-1.44407974528035671e-07 0.00000000000000000e+00 -5.28916592480393796e-08 
2.53668128735850139e-07 0.00000000000000000e+00 -4.30219763750925979e-08 
7.26096617943485575e-07 0.00000000000000000e+00 3.98570965246872287e-08 
1.26891149367239436e-06 0.00000000000000000e+00 7.13035378535359392e-08 
1.85718803605534809e-06 0.00000000000000000e+00 -2.95320360506325798e-08 
2.42328894751593707e-06 0.00000000000000000e+00 -1.08871320486199710e-07 
2.83505930940087471e-06 0.00000000000000000e+00 3.66136889221104662e-08 
2.99204558918058784e-06 0.00000000000000000e+00 1.71851536673670615e-07 
2.81024505369572243e-06 0.00000000000000000e+00 -1.14719505814148920e-07 
2.22764109172237611e-06 0.00000000000000000e+00 -1.73439732534552518e-07 
6.29235009177305605e-06 0.00000000000000000e+00 -1.08658071572551933e-07 
6.29235009177311111e-06 0.00000000000000000e+00 -1.08658071568219889e-07 
6.29235009177535067e-06 0.00000000000000000e+00 -1.08658071584592083e-07 
6.00576529573214304e-07 0.00000000000000000e+00 7.09384542309960163e-06 
-1.59633438874743456e-08 0.00000000000000000e+00 3.96635869423062688e-06 
1.22755943951082677e-06 0.00000000000000000e+00 3.96615110160057749e-06 
-8.16133632963100743e-07 0.00000000000000000e+00 6.55439923095477458e-08 
-6.05614950425068441e-07 0.00000000000000000e+00 5.53796695099335151e-08 
-3.11247674925309397e-07 0.00000000000000000e+00 -2.36366987883550524e-08 
4.32304454045171443e-08 0.00000000000000000e+00 -6.06429301991656428e-08 
4.74854860133555756e-07 0.00000000000000000e+00 -4.73562129518910704e-09 
9.95826793696681162e-07 0.00000000000000000e+00 7.10858187336153087e-08 
1.57300310650272428e-06 0.00000000000000000e+00 3.37477156187958605e-08 
2.14121241300430543e-06 0.00000000000000000e+00 -8.92590099807067884e-08 
2.63515494339460800e-06 0.00000000000000000e+00 -6.37110468343548380e-08 
2.95730568016250486e-06 0.00000000000000000e+00 1.40847330677057545e-07 
2.97872387864688538e-06 0.00000000000000000e+00 7.55233796623930715e-08 
2.56896739702192173e-06 0.00000000000000000e+00 -2.52951546898572250e-07 
-8.82556391605297282e-07 0.00000000000000000e+00 7.77742126716330143e-09 
-7.17768661210198387e-07 0.00000000000000000e+00 7.67220244929434214e-08 
-4.64332136695570587e-07 0.00000000000000000e+00 1.69622255785447836e-08 
-1.44407974528199360e-07 0.00000000000000000e+00 -5.28916592490331081e-08 
2.53668128735271615e-07 0.00000000000000000e+00 -4.30219763777236940e-08 
7.26096617943382979e-07 0.00000000000000000e+00 3.98570965283680633e-08 
1.26891149367229716e-06 0.00000000000000000e+00 7.13035378516211948e-08 
1.85718803605466411e-06 0.00000000000000000e+00 -2.95320360496470835e-08 
2.42328894751532551e-06 0.00000000000000000e+00 -1.08871320482872538e-07 
2.83505930940087683e-06 0.00000000000000000e+00 3.66136889253572494e-08 
2.99204558918075174e-06 0.00000000000000000e+00 1.71851536676048978e-07 
2.81024505369628105e-06 0.00000000000000000e+00 -1.14719505815002623e-07 
2.22764109172316681e-06 0.00000000000000000e+00 -1.73439732536990279e-07 
6.29235009177266303e-06 0.00000000000000000e+00 -1.08658071570271349e-07 
7.04883218688133083e-06 0.00000000000000000e+00 6.50014440062251066e-08 
7.24543627132012602e-06 0.00000000000000000e+00 5.50695171669320730e-08 
6.92213431985493476e-06 0.00000000000000000e+00 -2.35982452664891674e-08 
6.31951165797032754e-06 0.00000000000000000e+00 -6.02992794410503558e-08 
5.60690440200539405e-06 0.00000000000000000e+00 -3.97922048271356094e-09 
4.85672877738281157e-06 0.00000000000000000e+00 7.25341533045854431e-08 
4.06339061968406962e-06 0.00000000000000000e+00 3.56585802684657496e-08 