# vtk DataFile Version 2.0

ASCII

DATASET UNSTRUCTURED_GRID

POINTS 281 double 

0.00000000000000000e+00  6.00000000000000012e-03  8.68039800000000063e-03
0.00000000000000000e+00  6.00000000000000012e-03  2.15013699999999988e-02
0.00000000000000000e+00  5.99999699999999997e-03  3.38432499999999983e-02
0.00000000000000000e+00  6.00000000000000012e-03  4.61511800000000000e-02
0.00000000000000000e+00  5.99999399999999981e-03  5.84285100000000029e-02
0.00000000000000000e+00  5.99999899999999978e-03  7.03572799999999943e-02
0.00000000000000000e+00  6.00000000000000012e-03  7.56573400000000035e-02
0.00000000000000000e+00  6.00000000000000012e-03  1.52458600000000000e-02
0.00000000000000000e+00  5.99999899999999978e-03  2.76822099999999988e-02
0.00000000000000000e+00  5.99999899999999978e-03  3.99985900000000005e-02
0.00000000000000000e+00  5.99999800000000031e-03  5.22986000000000006e-02
0.00000000000000000e+00  5.99999800000000031e-03  6.44963600000000026e-02
0.00000000000000000e+00  3.00000000000000006e-03  3.07692300000000007e-03
0.00000000000000000e+00  3.00000000000000006e-03  1.04940499999999996e-02
0.00000000000000000e+00  3.00000000000000006e-03  7.41712199999999995e-03
0.00000000000000000e+00  3.00000000000000006e-03  2.30583799999999998e-02
0.00000000000000000e+00  3.00000000000000006e-03  1.99814599999999995e-02
0.00000000000000000e+00  2.99999900000000016e-03  3.53831699999999985e-02
0.00000000000000000e+00  2.99999900000000016e-03  3.23062400000000000e-02
0.00000000000000000e+00  3.00000000000000006e-03  4.76909699999999992e-02
0.00000000000000000e+00  3.00000000000000006e-03  4.46140500000000023e-02
0.00000000000000000e+00  2.99999699999999991e-03  5.99834799999999987e-02
0.00000000000000000e+00  2.99999699999999991e-03  5.69065600000000019e-02
0.00000000000000000e+00  2.99999900000000016e-03  7.21017199999999941e-02
0.00000000000000000e+00  2.99999900000000016e-03  6.90247900000000025e-02
0.00000000000000000e+00  3.00000000000000006e-03  7.78286700000000026e-02
0.00000000000000000e+00  3.00000000000000006e-03  7.47517500000000057e-02
0.00000000000000000e+00  5.99999899999999978e-03  7.30073100000000058e-02
0.00000000000000000e+00  6.00000000000000012e-03  7.78286700000000026e-02
0.00000000000000000e+00  8.99999999999999932e-03  7.47517500000000057e-02
0.00000000000000000e+00  8.99999999999999932e-03  7.78286700000000026e-02
0.00000000000000000e+00  8.99999999999999932e-03  3.07692300000000007e-03
0.00000000000000000e+00  8.99999999999999932e-03  7.41712199999999995e-03
0.00000000000000000e+00  8.99999999999999932e-03  1.04940499999999996e-02
0.00000000000000000e+00  8.99999999999999932e-03  1.99814599999999995e-02
0.00000000000000000e+00  8.99999999999999932e-03  2.30583799999999998e-02
0.00000000000000000e+00  8.99999899999999985e-03  3.23062400000000000e-02
0.00000000000000000e+00  8.99999899999999985e-03  3.53831699999999985e-02
0.00000000000000000e+00  8.99999999999999932e-03  4.46140500000000023e-02
0.00000000000000000e+00  8.99999999999999932e-03  4.76909699999999992e-02
0.00000000000000000e+00  8.99999699999999916e-03  5.69065600000000019e-02
0.00000000000000000e+00  8.99999699999999916e-03  5.99834799999999987e-02
0.00000000000000000e+00  8.99999899999999985e-03  6.90247900000000025e-02
0.00000000000000000e+00  8.99999899999999985e-03  7.21017199999999941e-02
0.00000000000000000e+00  6.00000000000000012e-03  4.34019900000000031e-03
0.00000000000000000e+00  3.00000000000000006e-03  1.37767800000000006e-02
0.00000000000000000e+00  6.00000000000000012e-03  1.19631300000000006e-02
0.00000000000000000e+00  3.00000000000000006e-03  1.68536999999999992e-02
0.00000000000000000e+00  6.00000000000000012e-03  1.83736200000000002e-02
0.00000000000000000e+00  5.99999800000000031e-03  3.07627299999999985e-02
0.00000000000000000e+00  3.00000000000000006e-03  2.92257200000000002e-02
0.00000000000000000e+00  3.00000000000000006e-03  2.61487999999999998e-02
0.00000000000000000e+00  8.99999999999999932e-03  2.92257200000000002e-02
0.00000000000000000e+00  6.00000000000000012e-03  4.30748800000000029e-02
0.00000000000000000e+00  2.99999900000000016e-03  4.15377600000000000e-02
0.00000000000000000e+00  2.99999900000000016e-03  3.84608300000000014e-02
0.00000000000000000e+00  8.99999899999999985e-03  4.15377600000000000e-02
0.00000000000000000e+00  5.99999599999999963e-03  5.53635499999999975e-02
0.00000000000000000e+00  2.99999900000000016e-03  5.38416099999999981e-02
0.00000000000000000e+00  2.99999900000000016e-03  5.07646799999999995e-02
0.00000000000000000e+00  8.99999899999999985e-03  5.38416099999999981e-02
0.00000000000000000e+00  5.99999800000000031e-03  6.74268199999999984e-02
0.00000000000000000e+00  2.99999900000000016e-03  6.60943300000000067e-02
0.00000000000000000e+00  2.99999900000000016e-03  6.30174099999999959e-02
0.00000000000000000e+00  8.99999899999999985e-03  6.60943300000000067e-02
0.00000000000000000e+00  5.99999899999999978e-03  4.92248900000000003e-02
0.00000000000000000e+00  8.99999999999999932e-03  1.68536999999999992e-02
0.00000000000000000e+00  5.99999899999999978e-03  2.45917899999999988e-02
0.00000000000000000e+00  8.99999999999999932e-03  2.61487999999999998e-02
0.00000000000000000e+00  8.99999999999999932e-03  1.37767800000000006e-02
0.00000000000000000e+00  5.99999800000000031e-03  3.69209200000000029e-02
0.00000000000000000e+00  8.99999899999999985e-03  3.84608300000000014e-02
0.00000000000000000e+00  8.99999899999999985e-03  5.07646799999999995e-02
0.00000000000000000e+00  5.99999599999999963e-03  6.14624299999999985e-02
0.00000000000000000e+00  8.99999899999999985e-03  6.30174099999999959e-02
1.20000000000000002e-02  1.20000000000000002e-02  8.00000000000000017e-02
0.00000000000000000e+00  0.00000000000000000e+00  8.00000000000000017e-02
1.20000000000000002e-02  6.00000000000000012e-03  0.00000000000000000e+00
1.20000000000000002e-02  3.00000000000000006e-03  0.00000000000000000e+00
1.20000000000000002e-02  8.99999999999999932e-03  0.00000000000000000e+00
1.20000000000000002e-02  0.00000000000000000e+00  8.00000000000000017e-02
1.20000000000000002e-02  0.00000000000000000e+00  0.00000000000000000e+00
0.00000000000000000e+00  1.20000000000000002e-02  0.00000000000000000e+00
1.20000000000000002e-02  5.99999899999999978e-03  8.68039699999999942e-03
1.20000000000000002e-02  5.99999899999999978e-03  1.52458600000000000e-02
1.20000000000000002e-02  5.99999899999999978e-03  2.15013699999999988e-02
1.20000000000000002e-02  6.00000000000000012e-03  2.76822099999999988e-02
1.20000000000000002e-02  5.99999899999999978e-03  3.38432399999999967e-02
1.20000000000000002e-02  5.99999800000000031e-03  3.99985900000000005e-02
1.20000000000000002e-02  5.99999699999999997e-03  4.61511800000000000e-02
1.20000000000000002e-02  5.99999300000000034e-03  5.22986100000000023e-02
1.20000000000000002e-02  5.99998599999999969e-03  5.84285400000000010e-02
1.20000000000000002e-02  5.99997800000000043e-03  6.44963800000000059e-02
1.20000000000000002e-02  5.99997500000000027e-03  7.03572999999999976e-02
1.20000000000000002e-02  5.99997500000000027e-03  7.56573600000000068e-02
1.20000000000000002e-02  3.00000000000000006e-03  3.07692300000000007e-03
1.20000000000000002e-02  3.00000000000000006e-03  7.41712099999999961e-03
1.20000000000000002e-02  3.00000000000000006e-03  1.04940399999999996e-02
1.20000000000000002e-02  2.99999900000000016e-03  1.37767800000000006e-02
1.20000000000000002e-02  2.99999900000000016e-03  1.68536999999999992e-02
1.20000000000000002e-02  5.99999899999999978e-03  1.19631300000000006e-02
1.20000000000000002e-02  3.00000000000000006e-03  1.99814500000000013e-02
1.20000000000000002e-02  3.00000000000000006e-03  2.30583799999999998e-02
1.20000000000000002e-02  5.99999899999999978e-03  1.83736099999999986e-02
1.20000000000000002e-02  3.00000000000000006e-03  2.61487999999999998e-02
1.20000000000000002e-02  3.00000000000000006e-03  2.92257200000000002e-02
1.20000000000000002e-02  5.99999899999999978e-03  2.45917899999999988e-02
1.20000000000000002e-02  3.00000000000000006e-03  3.23062299999999983e-02
1.20000000000000002e-02  3.00000000000000006e-03  3.53831599999999968e-02
1.20000000000000002e-02  5.99999899999999978e-03  3.07627200000000003e-02
1.20000000000000002e-02  2.99999900000000016e-03  3.84608300000000014e-02
1.20000000000000002e-02  2.99999900000000016e-03  4.15377499999999983e-02
1.20000000000000002e-02  5.99999899999999978e-03  3.69209100000000012e-02
1.20000000000000002e-02  2.99999799999999981e-03  4.46140500000000023e-02
1.20000000000000002e-02  2.99999799999999981e-03  4.76909800000000009e-02
1.20000000000000002e-02  5.99999800000000031e-03  4.30748800000000029e-02
1.20000000000000002e-02  2.99999699999999991e-03  5.07646900000000012e-02
1.20000000000000002e-02  2.99999699999999991e-03  5.38416099999999981e-02
1.20000000000000002e-02  5.99999500000000015e-03  4.92249000000000020e-02
1.20000000000000002e-02  2.99999299999999984e-03  5.69065799999999983e-02
1.20000000000000002e-02  2.99999299999999984e-03  5.99835000000000021e-02
1.20000000000000002e-02  5.99999000000000018e-03  5.53635800000000025e-02
1.20000000000000002e-02  2.99998900000000021e-03  6.30174200000000045e-02
1.20000000000000002e-02  2.99998900000000021e-03  6.60943499999999962e-02
1.20000000000000002e-02  5.99998200000000006e-03  6.14624599999999965e-02
1.20000000000000002e-02  2.99998799999999987e-03  6.90248100000000059e-02
1.20000000000000002e-02  2.99998799999999987e-03  7.21017300000000028e-02
1.20000000000000002e-02  5.99997700000000009e-03  6.74268400000000018e-02
1.20000000000000002e-02  2.99998699999999997e-03  7.47517600000000004e-02
1.20000000000000002e-02  2.99998699999999997e-03  7.78286799999999973e-02
1.20000000000000002e-02  5.99998700000000003e-03  7.78286799999999973e-02
1.20000000000000002e-02  5.99997500000000027e-03  7.30073299999999953e-02
1.20000000000000002e-02  8.99998699999999922e-03  7.78286799999999973e-02
1.20000000000000002e-02  8.99999999999999932e-03  3.07692300000000007e-03
[...]
POINT_DATA 281

SCALARS Rank unsigned_int
LOOKUP_TABLE default
0 0 0 0 0 0 0 0 0 0 0 0 0 0 0 0 0 0 0 0 0 0 0 0 0 0 0 0 0 0 0 0 0 0 0 0 0 0 0 0 0 0 0 0 0 0 0 0 0 0 0 0 0 0 0 0 0 0 0 0 0 0 0 0 0 0 0 0 0 0 0 0 0 0 0 0 0 0 0 0 0 0 0 0 0 0 0 0 0 0 0 0 0 0 0 0 0 0 0 0 0 0 0 0 0 0 0 0 0 0 0 0 0 0 0 0 0 0 0 0 0 0 0 0 0 0 0 0 0 0 0 0 0 0 0 0 0 0 0 0 0 0 0 0 0 0 0 0 0 0 0 0 0 0 0 0 0 0 0 0 0 0 0 0 0 0 0 0 0 0 0 0 0 0 0 0 0 0 0 0 0 0 0 0 0 0 0 0 0 0 0 0 0 0 0 0 0 0 0 0 0 0 0 0 0 0 0 0 0 0 0 0 0 0 0 0 0 0 0 0 0 0 0 0 0 0 0 0 0 0 0 0 0 0 0 0 0 0 0 0 0 0 0 0 0 0 0 0 0 0 0 0 0 0 0 0 0 0 0 0 0 0 0 0 0 0 0 0 0 0 0 0 0 0 0 0 0 0 0 0 0 

VECTORS Forces0 double
1.26437721851796787e-05 0.00000000000000000e+00 1.64718976334735218e-07 
1.20930599033976898e-05 0.00000000000000000e+00 -1.13739414174578682e-07 
9.82697632984569389e-06 0.00000000000000000e+00 8.42524437662233021e-08 
7.25623878174355945e-06 0.00000000000000000e+00 -6.16316836215700421e-08 
4.66130893835833451e-06 0.00000000000000000e+00 8.11184920424142982e-08 
1.99331818271335477e-06 0.00000000000000000e+00 -1.78669100453000515e-07 
8.98924541797996900e-07 0.00000000000000000e+00 -4.88450765892083432e-07 
1.26677130994921897e-05 0.00000000000000000e+00 3.92747627029018767e-08 
1.11129005373983118e-05 0.00000000000000000e+00 -9.32859841033771160e-08 
8.51610704825488812e-06 0.00000000000000000e+00 1.51998303143470993e-07 
6.00630633371748644e-06 0.00000000000000000e+00 -2.28279244661003721e-07 
3.29570757267935769e-06 0.00000000000000000e+00 3.75452266689516958e-07 
1.19496025317655787e-05 0.00000000000000000e+00 1.59927913314940756e-08 
1.28031300205154699e-05 0.00000000000000000e+00 1.50417800086432175e-07 
1.25356380726787926e-05 0.00000000000000000e+00 1.59417914375949682e-07 
1.18099446732025001e-05 0.00000000000000000e+00 -1.28747140862622152e-07 
1.23454921522504474e-05 0.00000000000000000e+00 -8.74186899116925244e-08 
9.56426881446324127e-06 0.00000000000000000e+00 1.23966556426589951e-07 
1.01120604802992008e-05 0.00000000000000000e+00 3.73624506055004354e-08 
6.90889122789883968e-06 0.00000000000000000e+00 -1.31065474783304400e-07 
7.62169538963851156e-06 0.00000000000000000e+00 9.47936398352143585e-09 
4.34775629797160299e-06 0.00000000000000000e+00 2.03843094179788465e-07 
4.96891831241996351e-06 0.00000000000000000e+00 -3.55546190253216106e-08 
1.60440846345213913e-06 0.00000000000000000e+00 -3.99782453292668943e-07 
2.30176371781469082e-06 0.00000000000000000e+00 6.48958913176338174e-09 
5.22430075973914467e-07 0.00000000000000000e+00 -1.84098843887037121e-07 
1.06632562683267220e-06 0.00000000000000000e+00 -5.32962908619165669e-07 
1.41273124768262893e-06 0.00000000000000000e+00 -4.82430111578625245e-07 
5.22430075977282270e-07 0.00000000000000000e+00 -1.84098843884933092e-07 
1.06632562683695988e-06 0.00000000000000000e+00 -5.32962908613862607e-07 
5.22430075976130305e-07 0.00000000000000000e+00 -1.84098843879080094e-07 
1.19496025317679098e-05 0.00000000000000000e+00 1.59927913574648469e-08 
1.25356380726771087e-05 0.00000000000000000e+00 1.59417914350052708e-07 
1.28031300205199083e-05 0.00000000000000000e+00 1.50417800076404628e-07 
1.23454921522524973e-05 0.00000000000000000e+00 -8.74186899206985493e-08 
1.18099446732073079e-05 0.00000000000000000e+00 -1.28747140860038780e-07 
1.01120604802987993e-05 0.00000000000000000e+00 3.73624506030420282e-08 
9.56426881446350385e-06 0.00000000000000000e+00 1.23966556432221396e-07 
7.62169538963972790e-06 0.00000000000000000e+00 9.47936397767330862e-09 
6.90889122789692793e-06 0.00000000000000000e+00 -1.31065474794852424e-07 
4.96891831241329228e-06 0.00000000000000000e+00 -3.55546190337594352e-08 
4.34775629797308191e-06 0.00000000000000000e+00 2.03843094194752361e-07 
2.30176371781269521e-06 0.00000000000000000e+00 6.48958913852482224e-09 
1.60440846345337792e-06 0.00000000000000000e+00 -3.99782453323758229e-07 
1.22285031279000080e-05 0.00000000000000000e+00 8.00294303016640803e-08 
1.27877603569063604e-05 0.00000000000000000e+00 8.04356813362066209e-08 
1.28861966855860952e-05 0.00000000000000000e+00 1.24258335100788263e-07 
1.25553379440588428e-05 0.00000000000000000e+00 -7.41359286357608972e-09 
1.24657643313226988e-05 0.00000000000000000e+00 -4.94184490440069950e-08 
1.04370718035785522e-05 0.00000000000000000e+00 -1.14018948777779117e-08 
1.07924248507971913e-05 0.00000000000000000e+00 -5.62745896812289186e-08 
1.13319512206494267e-05 0.00000000000000000e+00 -1.18337300092601532e-07 
1.07924248507989142e-05 0.00000000000000000e+00 -5.62745897036949323e-08 
7.93237489936223890e-06 0.00000000000000000e+00 7.31738635004992979e-08 
8.21084823920674675e-06 0.00000000000000000e+00 1.21781260038610475e-07 
8.86329914004959565e-06 0.00000000000000000e+00 1.61347329202451328e-07 
8.21084823920741760e-06 0.00000000000000000e+00 1.21781260054802251e-07 
5.29971268570302508e-06 0.00000000000000000e+00 -1.33670436486030468e-07 
5.64920167564560797e-06 0.00000000000000000e+00 -1.98394329738591712e-07 
6.30670171677654539e-06 0.00000000000000000e+00 -2.22972720226052908e-07 
5.64920167564606706e-06 0.00000000000000000e+00 -1.98394329747096028e-07 
2.66140755398349443e-06 0.00000000000000000e+00 2.00292883803606843e-07 
2.94642809283834378e-06 0.00000000000000000e+00 3.10814442603870522e-07 
3.63484151121345721e-06 0.00000000000000000e+00 3.66982101315446735e-07 
2.94642809283750564e-06 0.00000000000000000e+00 3.10814442587499916e-07 
6.59416609579996316e-06 0.00000000000000000e+00 -1.88124304142098024e-07 
1.25553379440559900e-05 0.00000000000000000e+00 -7.41359286067780767e-09 
1.15551302089232490e-05 0.00000000000000000e+00 -1.30569979504113181e-07 
1.13319512206486576e-05 0.00000000000000000e+00 -1.18337300084342961e-07 
1.27877603569067907e-05 0.00000000000000000e+00 8.04356813185001648e-08 
9.23537946800183994e-06 0.00000000000000000e+00 1.51228017396529307e-07 
8.86329914004913148e-06 0.00000000000000000e+00 1.61347329192107044e-07 
6.30670171677675207e-06 0.00000000000000000e+00 -2.22972720227537122e-07 
4.00277636648452662e-06 0.00000000000000000e+00 3.02711142026881546e-07 
3.63484151121098853e-06 0.00000000000000000e+00 3.66982101315740550e-07 
1.52271401546204500e-06 0.00000000000000000e+00 5.86587128882935204e-07 
2.05260252926841491e-07 0.00000000000000000e+00 5.93026609217618267e-07 
-1.23735224607199716e-06 0.00000000000000000e+00 -2.32433065167384932e-07 
-1.23735224607437139e-06 0.00000000000000000e+00 -2.32433065175267765e-07 
-1.23735224607373104e-06 0.00000000000000000e+00 -2.32433065166088680e-07 
1.52271401545656639e-06 0.00000000000000000e+00 5.86587128893713275e-07 
-1.23735224607339138e-06 0.00000000000000000e+00 -2.32433065185126752e-07 
1.10934765703160357e-05 0.00000000000000000e+00 -2.30404231967827304e-07 
-9.69154414823548102e-07 0.00000000000000000e+00 1.63946364505377921e-07 
-6.50717130634667664e-07 0.00000000000000000e+00 3.93438425754043644e-08 
-3.20065526933428299e-07 0.00000000000000000e+00 -1.12361233511169237e-07 
7.09989189232135219e-08 0.00000000000000000e+00 -9.13620651628433335e-08 
5.54809380886353279e-07 0.00000000000000000e+00 8.59832701665144051e-08 
1.14662430743117676e-06 0.00000000000000000e+00 1.53266466074053775e-07 
1.82381192908214947e-06 0.00000000000000000e+00 -6.21508402556118725e-08 
2.50103557134486929e-06 0.00000000000000000e+00 -2.32694884388946951e-07 
3.01013041721472486e-06 0.00000000000000000e+00 7.43116920754931532e-08 
3.20763135101922544e-06 0.00000000000000000e+00 3.67104696180658826e-07 
3.00131835621906734e-06 0.00000000000000000e+00 -1.91397879503267209e-07 
2.40186171307745032e-06 0.00000000000000000e+00 -5.06184512892740916e-07 
-1.19530093266617490e-06 0.00000000000000000e+00 1.49889970068143752e-08 
-1.02606155973293042e-06 0.00000000000000000e+00 1.58519206621682847e-07 
-8.88186231491175507e-07 0.00000000000000000e+00 1.50156720090080871e-07 
-7.27698828461490041e-07 0.00000000000000000e+00 8.05459790703850518e-08 
-5.66907260311936399e-07 0.00000000000000000e+00 -7.10200688809472715e-09 
-8.21303943395173466e-07 0.00000000000000000e+00 1.24455189171373568e-07 
-4.04282327747326888e-07 0.00000000000000000e+00 -8.60932579982743142e-08 
-2.28919999679512552e-07 0.00000000000000000e+00 -1.27367132685461843e-07 
-4.88766993138030477e-07 0.00000000000000000e+00 -4.86383784825982094e-08 
-3.36719176441969803e-08 0.00000000000000000e+00 -1.16653940742849325e-07 
1.80088301081656806e-07 0.00000000000000000e+00 -5.42176351775325891e-08 
-1.34997142508670853e-07 0.00000000000000000e+00 -1.29094938918674325e-07 
4.20195111252409483e-07 0.00000000000000000e+00 3.93264268821098995e-08 
6.98738477997927423e-07 0.00000000000000000e+00 1.25382474292661295e-07 
2.94811210674169483e-07 0.00000000000000000e+00 -9.32987939713864439e-09 
9.89931903551916761e-07 0.00000000000000000e+00 1.62845564107735875e-07 
1.31474258757432253e-06 0.00000000000000000e+00 1.22361642930695072e-07 
8.42531888863767811e-07 0.00000000000000000e+00 1.52638906533330349e-07 
1.66142651917394462e-06 0.00000000000000000e+00 8.64869557059018472e-09 
1.99102511237276153e-06 0.00000000000000000e+00 -1.31786420756213732e-07 
1.48990929485206005e-06 0.00000000000000000e+00 7.27908754095175234e-08 
2.33828907642545734e-06 0.00000000000000000e+00 -2.26283076525549692e-07 
2.63860144156875771e-06 0.00000000000000000e+00 -2.02235345397787654e-07 
2.16304218910899019e-06 0.00000000000000000e+00 -1.89796446400842901e-07 
2.89254240974898406e-06 0.00000000000000000e+00 -4.02932142828169401e-08 
3.11082824516127952e-06 0.00000000000000000e+00 1.94883932165997657e-07 
2.76628206139799805e-06 0.00000000000000000e+00 -1.37349134368320026e-07 
3.19268162339744002e-06 0.00000000000000000e+00 3.59376588934745476e-07 
3.20781115034551280e-06 0.00000000000000000e+00 2.99923338203040508e-07 
3.16229001627660748e-06 0.00000000000000000e+00 2.94496366718782679e-07 
3.10698091475288150e-06 0.00000000000000000e+00 -7.37738446974360821e-09 
2.83566924610488200e-06 0.00000000000000000e+00 -4.12494798794762118e-07 
3.18722278409490349e-06 0.00000000000000000e+00 1.86752418157093018e-07 
2.52983520978819215e-06 0.00000000000000000e+00 -5.49456441777354275e-07 
1.99252214043422915e-06 0.00000000000000000e+00 -1.96722803530376278e-07 
1.99252214043166518e-06 0.00000000000000000e+00 -1.96722803512459837e-07 
2.73940335126939455e-06 0.00000000000000000e+00 -4.96042642433042724e-07 
1.99252214043152711e-06 0.00000000000000000e+00 -1.96722803532544259e-07 
-1.19530093266737430e-06 0.00000000000000000e+00 1.49889969912213192e-08 
-8.88186231488679301e-07 0.00000000000000000e+00 1.50156720101495858e-07 
-1.02606155973532498e-06 0.00000000000000000e+00 1.58519206634170124e-07 
-5.66907260311733534e-07 0.00000000000000000e+00 -7.10200689596588669e-09 
-7.27698828461224920e-07 0.00000000000000000e+00 8.05459790508229317e-08 
-2.28919999680963520e-07 0.00000000000000000e+00 -1.27367132717554334e-07 
-4.04282327748681717e-07 0.00000000000000000e+00 -8.60932580012192360e-08 
1.80088301079662890e-07 0.00000000000000000e+00 -5.42176351906964340e-08 
-3.36719176439009423e-08 0.00000000000000000e+00 -1.16653940747830196e-07 
6.98738477997151964e-07 0.00000000000000000e+00 1.25382474284320455e-07 
4.20195111251318504e-07 0.00000000000000000e+00 3.93264268793110909e-08 
1.31474258757529831e-06 0.00000000000000000e+00 1.22361642940744642e-07 
9.89931903550229683e-07 0.00000000000000000e+00 1.62845564121804563e-07 
1.99102511237281532e-06 0.00000000000000000e+00 -1.31786420758191712e-07 
1.66142651917498287e-06 0.00000000000000000e+00 8.64869556189597385e-09 
2.63860144156775439e-06 0.00000000000000000e+00 -2.02235345401623496e-07 
2.33828907642682445e-06 0.00000000000000000e+00 -2.26283076520190197e-07 
3.11082824516194826e-06 0.00000000000000000e+00 1.94883932167408179e-07 
2.89254240974812389e-06 0.00000000000000000e+00 -4.02932142826611919e-08 
3.20781115034239276e-06 0.00000000000000000e+00 2.99923338207916876e-07 
3.19268162339605766e-06 0.00000000000000000e+00 3.59376588922041464e-07 
2.83566924610793217e-06 0.00000000000000000e+00 -4.12494798767929543e-07 
3.10698091475482798e-06 0.00000000000000000e+00 -7.37738446496973052e-09 
-1.15873591821852399e-06 0.00000000000000000e+00 7.93394067366226231e-08 
2.52983520978939917e-06 0.00000000000000000e+00 -5.49456441787553611e-07 
2.05260252927021909e-07 0.00000000000000000e+00 5.93026609221538759e-07 
1.24290684774259077e-05 0.00000000000000000e+00 1.39082590516620135e-07 
1.28804563060195523e-05 0.00000000000000000e+00 1.16763306699011766e-07 
1.24606306118004994e-05 0.00000000000000000e+00 -5.17037223231078662e-08 
1.15515021864941272e-05 0.00000000000000000e+00 -1.30490726228947247e-07 
1.04356173738916562e-05 0.00000000000000000e+00 -1.12010385037609615e-08 
9.23485679901121215e-06 0.00000000000000000e+00 1.51255034139607948e-07 
7.93200915412576025e-06 0.00000000000000000e+00 7.30983378384082481e-08 
6.59302442151666785e-06 0.00000000000000000e+00 -1.88305522170738289e-07 
5.29502065616559292e-06 0.00000000000000000e+00 -1.32534434261998329e-07 
3.98462352885007607e-06 0.00000000000000000e+00 3.06944027612102289e-07 
2.60411166025825413e-06 0.00000000000000000e+00 1.72422853246556366e-07 
1.24205550283389661e-06 0.00000000000000000e+00 -5.28073951293543426e-07 
1.19496025317667612e-05 0.00000000000000000e+00 1.59927913676985931e-08 
1.26923030017495486e-05 0.00000000000000000e+00 1.62884973263844172e-07 
1.26568865030697478e-05 0.00000000000000000e+00 3.52566897224069245e-08 
1.20862346147596344e-05 0.00000000000000000e+00 -1.14244248274439337e-07 
1.11112869569614979e-05 0.00000000000000000e+00 -9.30800928997622701e-08 
9.82647186839491374e-06 0.00000000000000000e+00 8.43356934863012090e-08 
8.51580793263336151e-06 0.00000000000000000e+00 1.51980090446530065e-07 
7.25561129325593336e-06 0.00000000000000000e+00 -6.17563666563908363e-08 
6.00428140585307699e-06 0.00000000000000000e+00 -2.28211081091417176e-07 
4.65476577315828179e-06 0.00000000000000000e+00 8.37552802790966624e-08 
3.26908059548914520e-06 0.00000000000000000e+00 3.73382461817556101e-07 
1.89934618859500106e-06 0.00000000000000000e+00 -2.34943626569523231e-07 
6.73699170326730847e-07 0.00000000000000000e+00 -3.57776192540085752e-07 
4.32735464270309289e-07 0.00000000000000000e+00 8.46389655063788522e-06 
4.32735464271959309e-07 0.00000000000000000e+00 8.46389655063828163e-06 
1.26043050259733710e-06 0.00000000000000000e+00 8.46106820738436889e-06 
1.26043050260249383e-06 0.00000000000000000e+00 8.46106820738088250e-06 
8.39441383101170507e-07 0.00000000000000000e+00 1.51349416186756720e-05 
8.39441383099912663e-07 0.00000000000000000e+00 1.51349416186882148e-05 
4.32735464267646218e-07 0.00000000000000000e+00 8.46389655063016028e-06 
1.26043050259969100e-06 0.00000000000000000e+00 8.46106820738896489e-06 
1.52271401545928282e-06 0.00000000000000000e+00 5.86587128899202472e-07 
1.52271401545430989e-06 0.00000000000000000e+00 5.86587128889709774e-07 
1.52271401545713983e-06 0.00000000000000000e+00 5.86587128885733801e-07 
2.05260252929141185e-07 0.00000000000000000e+00 5.93026609231440151e-07 
2.05260252929302968e-07 0.00000000000000000e+00 5.93026609220652339e-07 
2.05260252928814230e-07 0.00000000000000000e+00 5.93026609226722177e-07 
-1.08281440754401230e-06 0.00000000000000000e+00 1.38238968354780214e-07 
-8.04283552119540509e-07 0.00000000000000000e+00 1.16979363595417851e-07 
-4.84229223794862682e-07 0.00000000000000000e+00 -5.08920402351103689e-08 
-1.33508830688632360e-07 0.00000000000000000e+00 -1.29013309974371594e-07 
2.95317449885212095e-07 0.00000000000000000e+00 -9.12890184023323154e-09 
8.42734090000195443e-07 0.00000000000000000e+00 1.52666285063772317e-07 
1.49014395612649053e-06 0.00000000000000000e+00 7.27140482244712622e-08 
2.16370947517088751e-06 0.00000000000000000e+00 -1.89982572145737733e-07 
2.76802472624304692e-06 0.00000000000000000e+00 -1.36220289944328817e-07 
3.16419152060413171e-06 0.00000000000000000e+00 2.98781624833854221e-07 
3.17940622450597315e-06 0.00000000000000000e+00 1.58457710642771887e-07 
2.64324948221151946e-06 0.00000000000000000e+00 -5.42944126521910787e-07 
-1.19530093266560739e-06 0.00000000000000000e+00 1.49889969797915625e-08 
-9.44613556611303858e-07 0.00000000000000000e+00 1.62228552393403055e-07 
-6.43472998628939275e-07 0.00000000000000000e+00 3.53335261147362095e-08 
-3.17952281092322542e-07 0.00000000000000000e+00 -1.12866713420067705e-07 
7.17042199308885258e-08 0.00000000000000000e+00 -9.11547521697415893e-08 
5.55073850238543109e-07 0.00000000000000000e+00 8.60662434021010778e-08 
1.14677329218211428e-06 0.00000000000000000e+00 1.53247830563966251e-07 
1.82409649596085271e-06 0.00000000000000000e+00 -6.22752666297017288e-08 
2.50189598559537551e-06 0.00000000000000000e+00 -2.32625415899971081e-07 
3.01254474442297274e-06 0.00000000000000000e+00 7.68934444230991329e-08 
3.20827574662521763e-06 0.00000000000000000e+00 3.64905252154098307e-07 
2.96462191519968626e-06 0.00000000000000000e+00 -2.47455889976363586e-07 
2.17678401036224240e-06 0.00000000000000000e+00 -3.73381566496924837e-07 
1.10934765703152446e-05 0.00000000000000000e+00 -2.30404231978045909e-07 
1.10934765703152480e-05 0.00000000000000000e+00 -2.30404231988807887e-07 
1.10934765703178975e-05 0.00000000000000000e+00 -2.30404232000200056e-07 
8.39441383101265375e-07 0.00000000000000000e+00 1.51349416186733460e-05 
4.32735464268986224e-07 0.00000000000000000e+00 8.46389655063706190e-06 
1.26043050260084889e-06 0.00000000000000000e+00 8.46106820738438244e-06 
-1.08281440754588340e-06 0.00000000000000000e+00 1.38238968354506464e-07 
-8.04283552120212206e-07 0.00000000000000000e+00 1.16979363605934083e-07 
-4.84229223797215740e-07 0.00000000000000000e+00 -5.08920402270016166e-08 
-1.33508830689053759e-07 0.00000000000000000e+00 -1.29013309953096138e-07 
2.95317449884661523e-07 0.00000000000000000e+00 -9.12890184430184843e-09 
8.42734089999186626e-07 0.00000000000000000e+00 1.52666285067637275e-07 
1.49014395612580253e-06 0.00000000000000000e+00 7.27140482320468073e-08 
2.16370947517166509e-06 0.00000000000000000e+00 -1.89982572146942532e-07 
2.76802472624233244e-06 0.00000000000000000e+00 -1.36220289939085207e-07 
3.16419152060348458e-06 0.00000000000000000e+00 2.98781624839611503e-07 
3.17940622450600195e-06 0.00000000000000000e+00 1.58457710640867122e-07 
2.64324948221142163e-06 0.00000000000000000e+00 -5.42944126518324555e-07 
-1.19530093266659503e-06 0.00000000000000000e+00 1.49889969841431678e-08 
-9.44613556614132101e-07 0.00000000000000000e+00 1.62228552397693806e-07 
-6.43472998631329602e-07 0.00000000000000000e+00 3.53335261239790330e-08 
-3.17952281094096653e-07 0.00000000000000000e+00 -1.12866713425269122e-07 
7.17042199302405456e-08 0.00000000000000000e+00 -9.11547521735506965e-08 
5.55073850237796661e-07 0.00000000000000000e+00 8.60662434168021817e-08 
1.14677329218223201e-06 0.00000000000000000e+00 1.53247830566710903e-07 
1.82409649596074746e-06 0.00000000000000000e+00 -6.22752666296269252e-08 
2.50189598559635256e-06 0.00000000000000000e+00 -2.32625415905227343e-07 
3.01254474442247129e-06 0.00000000000000000e+00 7.68934444157765330e-08 
3.20827574662466155e-06 0.00000000000000000e+00 3.64905252160494041e-07 
2.96462191520078995e-06 0.00000000000000000e+00 -2.47455889973469168e-07 
2.17678401036106884e-06 0.00000000000000000e+00 -3.73381566499915922e-07 
1.10934765703164135e-05 0.00000000000000000e+00 -2.30404231975842565e-07 
1.24290684774231938e-05 0.00000000000000000e+00 1.39082590520807284e-07 
1.28804563060200504e-05 0.00000000000000000e+00 1.16763306687944433e-07 
1.24606306117999506e-05 0.00000000000000000e+00 -5.17037223014723948e-08 
1.15515021864961618e-05 0.00000000000000000e+00 -1.30490726229778531e-07 
1.04356173738888492e-05 0.00000000000000000e+00 -1.12010385095348675e-08 
9.23485679900878455e-06 0.00000000000000000e+00 1.51255034142070485e-07 
7.93200915412555188e-06 0.00000000000000000e+00 7.30983378466869363e-08 