# vtk DataFile Version 2.0

ASCII

DATASET UNSTRUCTURED_GRID

POINTS 281 double 

0.00000000000000000e+00  6.00000000000000012e-03  8.68039800000000063e-03
0.00000000000000000e+00  6.00000000000000012e-03  2.15013699999999988e-02
0.00000000000000000e+00  5.99999699999999997e-03  3.38432499999999983e-02
0.00000000000000000e+00  6.00000000000000012e-03  4.61511800000000000e-02
0.00000000000000000e+00  5.99999399999999981e-03  5.84285100000000029e-02
0.00000000000000000e+00  5.99999899999999978e-03  7.03572799999999943e-02
0.00000000000000000e+00  6.00000000000000012e-03  7.56573400000000035e-02
0.00000000000000000e+00  6.00000000000000012e-03  1.52458600000000000e-02
0.00000000000000000e+00  5.99999899999999978e-03  2.76822099999999988e-02
0.00000000000000000e+00  5.99999899999999978e-03  3.99985900000000005e-02
0.00000000000000000e+00  5.99999800000000031e-03  5.22986000000000006e-02
0.00000000000000000e+00  5.99999800000000031e-03  6.44963600000000026e-02
0.00000000000000000e+00  3.00000000000000006e-03  3.07692300000000007e-03
0.00000000000000000e+00  3.00000000000000006e-03  1.04940499999999996e-02
0.00000000000000000e+00  3.00000000000000006e-03  7.41712199999999995e-03
0.00000000000000000e+00  3.00000000000000006e-03  2.30583799999999998e-02
0.00000000000000000e+00  3.00000000000000006e-03  1.99814599999999995e-02
0.00000000000000000e+00  2.99999900000000016e-03  3.53831699999999985e-02
0.00000000000000000e+00  2.99999900000000016e-03  3.23062400000000000e-02
0.00000000000000000e+00  3.00000000000000006e-03  4.76909699999999992e-02
0.00000000000000000e+00  3.00000000000000006e-03  4.46140500000000023e-02
0.00000000000000000e+00  2.99999699999999991e-03  5.99834799999999987e-02
0.00000000000000000e+00  2.99999699999999991e-03  5.69065600000000019e-02
0.00000000000000000e+00  2.99999900000000016e-03  7.21017199999999941e-02
0.00000000000000000e+00  2.99999900000000016e-03  6.90247900000000025e-02
0.00000000000000000e+00  3.00000000000000006e-03  7.78286700000000026e-02
0.00000000000000000e+00  3.00000000000000006e-03  7.47517500000000057e-02
0.00000000000000000e+00  5.99999899999999978e-03  7.30073100000000058e-02
0.00000000000000000e+00  6.00000000000000012e-03  7.78286700000000026e-02
0.00000000000000000e+00  8.99999999999999932e-03  7.47517500000000057e-02
0.00000000000000000e+00  8.99999999999999932e-03  7.78286700000000026e-02
0.00000000000000000e+00  8.99999999999999932e-03  3.07692300000000007e-03
0.00000000000000000e+00  8.99999999999999932e-03  7.41712199999999995e-03
0.00000000000000000e+00  8.99999999999999932e-03  1.04940499999999996e-02
0.00000000000000000e+00  8.99999999999999932e-03  1.99814599999999995e-02
0.00000000000000000e+00  8.99999999999999932e-03  2.30583799999999998e-02
0.00000000000000000e+00  8.99999899999999985e-03  3.23062400000000000e-02
0.00000000000000000e+00  8.99999899999999985e-03  3.53831699999999985e-02
0.00000000000000000e+00  8.99999999999999932e-03  4.46140500000000023e-02
0.00000000000000000e+00  8.99999999999999932e-03  4.76909699999999992e-02
0.00000000000000000e+00  8.99999699999999916e-03  5.69065600000000019e-02
0.00000000000000000e+00  8.99999699999999916e-03  5.99834799999999987e-02
0.00000000000000000e+00  8.99999899999999985e-03  6.90247900000000025e-02
0.00000000000000000e+00  8.99999899999999985e-03  7.21017199999999941e-02
0.00000000000000000e+00  6.00000000000000012e-03  4.34019900000000031e-03
0.00000000000000000e+00  3.00000000000000006e-03  1.37767800000000006e-02
0.00000000000000000e+00  6.00000000000000012e-03  1.19631300000000006e-02
0.00000000000000000e+00  3.00000000000000006e-03  1.68536999999999992e-02
0.00000000000000000e+00  6.00000000000000012e-03  1.83736200000000002e-02
0.00000000000000000e+00  5.99999800000000031e-03  3.07627299999999985e-02
0.00000000000000000e+00  3.00000000000000006e-03  2.92257200000000002e-02
0.00000000000000000e+00  3.00000000000000006e-03  2.61487999999999998e-02
0.00000000000000000e+00  8.99999999999999932e-03  2.92257200000000002e-02
0.00000000000000000e+00  6.00000000000000012e-03  4.30748800000000029e-02
0.00000000000000000e+00  2.99999900000000016e-03  4.15377600000000000e-02
0.00000000000000000e+00  2.99999900000000016e-03  3.84608300000000014e-02
0.00000000000000000e+00  8.99999899999999985e-03  4.15377600000000000e-02
0.00000000000000000e+00  5.99999599999999963e-03  5.53635499999999975e-02
0.00000000000000000e+00  2.99999900000000016e-03  5.38416099999999981e-02
0.00000000000000000e+00  2.99999900000000016e-03  5.07646799999999995e-02
0.00000000000000000e+00  8.99999899999999985e-03  5.38416099999999981e-02
0.00000000000000000e+00  5.99999800000000031e-03  6.74268199999999984e-02
0.00000000000000000e+00  2.99999900000000016e-03  6.60943300000000067e-02
0.00000000000000000e+00  2.99999900000000016e-03  6.30174099999999959e-02
0.00000000000000000e+00  8.99999899999999985e-03  6.60943300000000067e-02
0.00000000000000000e+00  5.99999899999999978e-03  4.92248900000000003e-02
0.00000000000000000e+00  8.99999999999999932e-03  1.68536999999999992e-02
0.00000000000000000e+00  5.99999899999999978e-03  2.45917899999999988e-02
0.00000000000000000e+00  8.99999999999999932e-03  2.61487999999999998e-02
0.00000000000000000e+00  8.99999999999999932e-03  1.37767800000000006e-02
0.00000000000000000e+00  5.99999800000000031e-03  3.69209200000000029e-02
0.00000000000000000e+00  8.99999899999999985e-03  3.84608300000000014e-02
0.00000000000000000e+00  8.99999899999999985e-03  5.07646799999999995e-02
0.00000000000000000e+00  5.99999599999999963e-03  6.14624299999999985e-02
0.00000000000000000e+00  8.99999899999999985e-03  6.30174099999999959e-02
1.20000000000000002e-02  1.20000000000000002e-02  8.00000000000000017e-02
0.00000000000000000e+00  0.00000000000000000e+00  8.00000000000000017e-02
1.20000000000000002e-02  6.00000000000000012e-03  0.00000000000000000e+00
1.20000000000000002e-02  3.00000000000000006e-03  0.00000000000000000e+00
1.20000000000000002e-02  8.99999999999999932e-03  0.00000000000000000e+00
1.20000000000000002e-02  0.00000000000000000e+00  8.00000000000000017e-02
1.20000000000000002e-02  0.00000000000000000e+00  0.00000000000000000e+00
0.00000000000000000e+00  1.20000000000000002e-02  0.00000000000000000e+00
1.20000000000000002e-02  5.99999899999999978e-03  8.68039699999999942e-03
1.20000000000000002e-02  5.99999899999999978e-03  1.52458600000000000e-02
1.20000000000000002e-02  5.99999899999999978e-03  2.15013699999999988e-02
1.20000000000000002e-02  6.00000000000000012e-03  2.76822099999999988e-02
1.20000000000000002e-02  5.99999899999999978e-03  3.38432399999999967e-02
1.20000000000000002e-02  5.99999800000000031e-03  3.99985900000000005e-02
1.20000000000000002e-02  5.99999699999999997e-03  4.61511800000000000e-02
1.20000000000000002e-02  5.99999300000000034e-03  5.22986100000000023e-02
1.20000000000000002e-02  5.99998599999999969e-03  5.84285400000000010e-02
1.20000000000000002e-02  5.99997800000000043e-03  6.44963800000000059e-02
1.20000000000000002e-02  5.99997500000000027e-03  7.03572999999999976e-02
1.20000000000000002e-02  5.99997500000000027e-03  7.56573600000000068e-02
1.20000000000000002e-02  3.00000000000000006e-03  3.07692300000000007e-03
1.20000000000000002e-02  3.00000000000000006e-03  7.41712099999999961e-03
1.20000000000000002e-02  3.00000000000000006e-03  1.04940399999999996e-02
1.20000000000000002e-02  2.99999900000000016e-03  1.37767800000000006e-02
1.20000000000000002e-02  2.99999900000000016e-03  1.68536999999999992e-02
1.20000000000000002e-02  5.99999899999999978e-03  1.19631300000000006e-02
1.20000000000000002e-02  3.00000000000000006e-03  1.99814500000000013e-02
1.20000000000000002e-02  3.00000000000000006e-03  2.30583799999999998e-02
1.20000000000000002e-02  5.99999899999999978e-03  1.83736099999999986e-02
1.20000000000000002e-02  3.00000000000000006e-03  2.61487999999999998e-02
1.20000000000000002e-02  3.00000000000000006e-03  2.92257200000000002e-02
1.20000000000000002e-02  5.99999899999999978e-03  2.45917899999999988e-02
1.20000000000000002e-02  3.00000000000000006e-03  3.23062299999999983e-02
1.20000000000000002e-02  3.00000000000000006e-03  3.53831599999999968e-02
1.20000000000000002e-02  5.99999899999999978e-03  3.07627200000000003e-02
1.20000000000000002e-02  2.99999900000000016e-03  3.84608300000000014e-02
1.20000000000000002e-02  2.99999900000000016e-03  4.15377499999999983e-02
1.20000000000000002e-02  5.99999899999999978e-03  3.69209100000000012e-02
1.20000000000000002e-02  2.99999799999999981e-03  4.46140500000000023e-02
1.20000000000000002e-02  2.99999799999999981e-03  4.76909800000000009e-02
1.20000000000000002e-02  5.99999800000000031e-03  4.30748800000000029e-02
1.20000000000000002e-02  2.99999699999999991e-03  5.07646900000000012e-02
1.20000000000000002e-02  2.99999699999999991e-03  5.38416099999999981e-02
1.20000000000000002e-02  5.99999500000000015e-03  4.92249000000000020e-02
1.20000000000000002e-02  2.99999299999999984e-03  5.69065799999999983e-02
1.20000000000000002e-02  2.99999299999999984e-03  5.99835000000000021e-02
1.20000000000000002e-02  5.99999000000000018e-03  5.53635800000000025e-02
1.20000000000000002e-02  2.99998900000000021e-03  6.30174200000000045e-02
1.20000000000000002e-02  2.99998900000000021e-03  6.60943499999999962e-02
1.20000000000000002e-02  5.99998200000000006e-03  6.14624599999999965e-02
1.20000000000000002e-02  2.99998799999999987e-03  6.90248100000000059e-02
1.20000000000000002e-02  2.99998799999999987e-03  7.21017300000000028e-02
1.20000000000000002e-02  5.99997700000000009e-03  6.74268400000000018e-02
1.20000000000000002e-02  2.99998699999999997e-03  7.47517600000000004e-02
1.20000000000000002e-02  2.99998699999999997e-03  7.78286799999999973e-02
1.20000000000000002e-02  5.99998700000000003e-03  7.78286799999999973e-02
1.20000000000000002e-02  5.99997500000000027e-03  7.30073299999999953e-02
1.20000000000000002e-02  8.99998699999999922e-03  7.78286799999999973e-02
1.20000000000000002e-02  8.99999999999999932e-03  3.07692300000000007e-03
[...]
POINT_DATA 281

SCALARS Rank unsigned_int
LOOKUP_TABLE default
0 0 0 0 0 0 0 0 0 0 0 0 0 0 0 0 0 0 0 0 0 0 0 0 0 0 0 0 0 0 0 0 0 0 0 0 0 0 0 0 0 0 0 0 0 0 0 0 0 0 0 0 0 0 0 0 0 0 0 0 0 0 0 0 0 0 0 0 0 0 0 0 0 0 0 0 0 0 0 0 0 0 0 0 0 0 0 0 0 0 0 0 0 0 0 0 0 0 0 0 0 0 0 0 0 0 0 0 0 0 0 0 0 0 0 0 0 0 0 0 0 0 0 0 0 0 0 0 0 0 0 0 0 0 0 0 0 0 0 0 0 0 0 0 0 0 0 0 0 0 0 0 0 0 0 0 0 0 0 0 0 0 0 0 0 0 0 0 0 0 0 0 0 0 0 0 0 0 0 0 0 0 0 0 0 0 0 0 0 0 0 0 0 0 0 0 0 0 0 0 0 0 0 0 0 0 0 0 0 0 0 0 0 0 0 0 0 0 0 0 0 0 0 0 0 0 0 0 0 0 0 0 0 0 0 0 0 0 0 0 0 0 0 0 0 0 0 0 0 0 0 0 0 0 0 0 0 0 0 0 0 0 0 0 0 0 0 0 0 0 0 0 0 0 0 0 0 0 0 0 0 

VECTORS Forces0 double
1.29000673666297468e-02 0.00000000000000000e+00 -3.38339546630493648e-03 
1.21461838678636590e-02 0.00000000000000000e+00 -6.20356751200878791e-03 
9.99938114293462063e-03 0.00000000000000000e+00 -7.29673019683503739e-03 
7.43802336294596082e-03 0.00000000000000000e+00 -6.54557476222124898e-03 
5.66456826957114582e-03 0.00000000000000000e+00 -5.93091647087216466e-03 
4.62767658993544061e-03 0.00000000000000000e+00 -4.47999322853958812e-03 
4.20448709078726120e-03 0.00000000000000000e+00 -2.73958884680413099e-03 
1.27776640292392007e-02 0.00000000000000000e+00 -4.91828378921867985e-03 
1.12385159438493868e-02 0.00000000000000000e+00 -7.09834430391912980e-03 
8.67576217794709115e-03 0.00000000000000000e+00 -7.00528039924391745e-03 
6.42538379113137981e-03 0.00000000000000000e+00 -6.18565921853779076e-03 
5.09938141263047932e-03 0.00000000000000000e+00 -5.51047844387682773e-03 
1.22554033929588163e-02 0.00000000000000000e+00 -2.06522094429308642e-03 
1.30636138326111779e-02 0.00000000000000000e+00 -3.88187554983086087e-03 
1.28096351129770199e-02 0.00000000000000000e+00 -3.06228318325695937e-03 
1.18343862673641123e-02 0.00000000000000000e+00 -6.38021599222531304e-03 
1.24365036968310649e-02 0.00000000000000000e+00 -6.01258815395854310e-03 
9.78561340200759071e-03 0.00000000000000000e+00 -7.39644734783026676e-03 
1.02468355966908019e-02 0.00000000000000000e+00 -7.21064010431643476e-03 
7.10279821503318441e-03 0.00000000000000000e+00 -6.36049588380312950e-03 
7.81459379523732900e-03 0.00000000000000000e+00 -6.77579090041171943e-03 
5.56585560344113363e-03 0.00000000000000000e+00 -5.94638653816508857e-03 
5.77705240780868219e-03 0.00000000000000000e+00 -5.91163751791418546e-03 
4.44443859711106479e-03 0.00000000000000000e+00 -3.92475524940092552e-03 
4.78851547123037256e-03 0.00000000000000000e+00 -4.87698682044889961e-03 
3.99947786082948797e-03 0.00000000000000000e+00 -1.79711987107591671e-03 
4.25636422972396934e-03 0.00000000000000000e+00 -3.05729564321395152e-03 
4.36890673074234476e-03 0.00000000000000000e+00 -3.63223287323277428e-03 
3.99947786082002505e-03 0.00000000000000000e+00 -1.79711987108308979e-03 
4.25636422972970260e-03 0.00000000000000000e+00 -3.05729564320853051e-03 
3.99947786083191051e-03 0.00000000000000000e+00 -1.79711987107546091e-03 
1.22554033929613126e-02 0.00000000000000000e+00 -2.06522094428721872e-03 
1.28096351129812457e-02 0.00000000000000000e+00 -3.06228318325266159e-03 
1.30636138326228630e-02 0.00000000000000000e+00 -3.88187554983284930e-03 
1.24365036968353340e-02 0.00000000000000000e+00 -6.01258815396085115e-03 
1.18343862673662599e-02 0.00000000000000000e+00 -6.38021599222251493e-03 
1.02468355966868138e-02 0.00000000000000000e+00 -7.21064010431418830e-03 
9.78561340200596354e-03 0.00000000000000000e+00 -7.39644734782926409e-03 
7.81459379523977149e-03 0.00000000000000000e+00 -6.77579090041242373e-03 
7.10279821503639539e-03 0.00000000000000000e+00 -6.36049588380430825e-03 
5.77705240781346482e-03 0.00000000000000000e+00 -5.91163751791195808e-03 
5.56585560344274866e-03 0.00000000000000000e+00 -5.94638653816881822e-03 
4.78851547123223045e-03 0.00000000000000000e+00 -4.87698682045187293e-03 
4.44443859710916007e-03 0.00000000000000000e+00 -3.92475524939974851e-03 
1.25753886015483908e-02 0.00000000000000000e+00 -2.36499259317427468e-03 
1.29646387122356911e-02 0.00000000000000000e+00 -4.63344491218365198e-03 
1.31475242597881986e-02 0.00000000000000000e+00 -4.27548840305823005e-03 
1.26299859076687872e-02 0.00000000000000000e+00 -5.27386473503247809e-03 
1.25416926879131155e-02 0.00000000000000000e+00 -5.64249108469482962e-03 
1.05580976491198870e-02 0.00000000000000000e+00 -7.17111346816094383e-03 
1.09231952662380942e-02 0.00000000000000000e+00 -7.17065794778988606e-03 
1.14033056843130982e-02 0.00000000000000000e+00 -6.85258857181381738e-03 
1.09231952662414596e-02 0.00000000000000000e+00 -7.17065794778815047e-03 
8.11484728630016902e-03 0.00000000000000000e+00 -6.88843859603886170e-03 
8.37218573705276158e-03 0.00000000000000000e+00 -6.92575532510313844e-03 
9.04713525670697467e-03 0.00000000000000000e+00 -7.15413394394627793e-03 
8.37218573705366016e-03 0.00000000000000000e+00 -6.92575532510326681e-03 
5.94275041286330182e-03 0.00000000000000000e+00 -5.94591491441006943e-03 
6.16698138067520944e-03 0.00000000000000000e+00 -6.05037228931528965e-03 
6.62742704889241006e-03 0.00000000000000000e+00 -6.22506870507731798e-03 
6.16698138067841434e-03 0.00000000000000000e+00 -6.05037228931636865e-03 
4.93757681755441213e-03 0.00000000000000000e+00 -5.22083434462818595e-03 
5.00486980245010409e-03 0.00000000000000000e+00 -5.36828272367868061e-03 
5.22696566570810591e-03 0.00000000000000000e+00 -5.65447717659913179e-03 
5.00486980245545138e-03 0.00000000000000000e+00 -5.36828272367862770e-03 
6.83355016496634254e-03 0.00000000000000000e+00 -6.25439103386790391e-03 
1.26299859076669223e-02 0.00000000000000000e+00 -5.27386473502371254e-03 
1.15842693756066026e-02 0.00000000000000000e+00 -6.59117522484190411e-03 
1.14033056843142917e-02 0.00000000000000000e+00 -6.85258857181272104e-03 
1.29646387122391883e-02 0.00000000000000000e+00 -4.63344491218084867e-03 
9.45519534815259660e-03 0.00000000000000000e+00 -7.33164042377725238e-03 
9.04713525670594772e-03 0.00000000000000000e+00 -7.15413394394494133e-03 
6.62742704889583960e-03 0.00000000000000000e+00 -6.22506870507863203e-03 
5.39789125686884665e-03 0.00000000000000000e+00 -5.81837645663363465e-03 
5.22696566570006287e-03 0.00000000000000000e+00 -5.65447717659846565e-03 
4.78697020219592589e-04 0.00000000000000000e+00 2.20480709004976108e-03 
3.82032263404211711e-03 0.00000000000000000e+00 -8.42185350240925632e-04 
-2.75843098704568236e-04 0.00000000000000000e+00 9.05562580492891333e-04 
-2.75843098713984315e-04 0.00000000000000000e+00 9.05562580489206346e-04 
-2.75843098711494987e-04 0.00000000000000000e+00 9.05562580487740722e-04 
4.78697020219968591e-04 0.00000000000000000e+00 2.20480709005196202e-03 
-2.75843098719450429e-04 0.00000000000000000e+00 9.05562580494206470e-04 
1.12474209568612232e-02 0.00000000000000000e+00 -1.36255936194156651e-03 
8.71420692892983253e-05 0.00000000000000000e+00 -7.15668928559873042e-05 
1.65989335504942797e-04 0.00000000000000000e+00 -3.44995980533406436e-04 
1.08936943165206622e-04 0.00000000000000000e+00 -3.58643527129392722e-04 
2.62906043463364506e-05 0.00000000000000000e+00 -2.28715018446587893e-04 
-4.10801318899097463e-05 0.00000000000000000e+00 -2.36786537183675335e-05 
-8.94152469645170843e-05 0.00000000000000000e+00 1.75582895799190197e-04 
-9.52556124286482492e-05 0.00000000000000000e+00 2.39593550883872612e-04 
-1.77581490466163390e-05 0.00000000000000000e+00 5.62310407206630789e-05 
1.44119726842328953e-04 0.00000000000000000e+00 -3.11901074887090406e-04 
3.29896964731878138e-04 0.00000000000000000e+00 -5.36007564161808218e-04 
4.71689889722538554e-04 0.00000000000000000e+00 -1.73120120262749841e-04 
5.32539272860476460e-04 0.00000000000000000e+00 8.95223333592782633e-04 
-1.36477385808252128e-04 0.00000000000000000e+00 4.64150987476626164e-04 
4.82344871649891346e-05 0.00000000000000000e+00 2.23692104584225658e-05 
1.29886670187767867e-04 0.00000000000000000e+00 -1.81157271097340662e-04 
1.65580749447016677e-04 0.00000000000000000e+00 -3.11355929908086382e-04 
1.59077556208578851e-04 0.00000000000000000e+00 -3.67158682499422019e-04 
1.52363555880024172e-04 0.00000000000000000e+00 -2.49639212864631534e-04 
1.28971535646992143e-04 0.00000000000000000e+00 -3.72216690861245085e-04 
8.75659193996007829e-05 0.00000000000000000e+00 -3.36240194537990879e-04 
1.46410374147018654e-04 0.00000000000000000e+00 -3.75375661789922616e-04 
4.57441900922288377e-05 0.00000000000000000e+00 -2.70354016451978553e-04 
7.74248495351663074e-06 0.00000000000000000e+00 -1.81945675472177439e-04 
6.62084349763222683e-05 0.00000000000000000e+00 -3.06570070147109788e-04 
-2.61163798920040495e-05 0.00000000000000000e+00 -7.80323874126856188e-05 
-5.46781439156504817e-05 0.00000000000000000e+00 3.01818969153391331e-05 
-9.97682977616587144e-06 0.00000000000000000e+00 -1.31092542661408049e-04 
-7.95187290191959155e-05 0.00000000000000000e+00 1.32303950378212607e-04 
-9.63932213762246537e-05 0.00000000000000000e+00 2.09638414628058667e-04 
-6.77320758276250167e-05 0.00000000000000000e+00 8.31454526587358704e-05 
-9.98021333104171123e-05 0.00000000000000000e+00 2.43313400871591042e-04 
-8.51500352398690567e-05 0.00000000000000000e+00 2.18958092572938572e-04 
-1.00020500503743981e-04 0.00000000000000000e+00 2.33023593170080770e-04 
-4.63066899703757894e-05 0.00000000000000000e+00 1.26233434687409612e-04 
1.61944329846500407e-05 0.00000000000000000e+00 -2.70595649403041250e-05 
-6.89397026328987343e-05 0.00000000000000000e+00 1.81434347519775311e-04 
9.81412223470027830e-05 0.00000000000000000e+00 -2.16383464021084420e-04 
1.92654037842019451e-04 0.00000000000000000e+00 -4.01398199492985250e-04 
5.47738976754397856e-05 0.00000000000000000e+00 -1.18405580171246198e-04 
2.86214004057948118e-04 0.00000000000000000e+00 -5.19595781819619002e-04 
3.74367417174599460e-04 0.00000000000000000e+00 -5.12144326676409090e-04 
2.38738019617943910e-04 0.00000000000000000e+00 -4.70598752177447250e-04 
4.45200764232650233e-04 0.00000000000000000e+00 -3.27093131188421705e-04 
5.00712634319812658e-04 0.00000000000000000e+00 9.88392179972324416e-05 
4.08691131581009307e-04 0.00000000000000000e+00 -4.52923342379972504e-04 
5.29061691908162108e-04 0.00000000000000000e+00 6.63194489728653335e-04 
5.21704132089971019e-04 0.00000000000000000e+00 1.51620364668506881e-03 
5.21704132084712421e-04 0.00000000000000000e+00 1.51620364668278505e-03 
5.12870710766328620e-04 0.00000000000000000e+00 2.71633510190598230e-04 
5.21704132082376616e-04 0.00000000000000000e+00 1.51620364668583600e-03 
-1.36477385806477506e-04 0.00000000000000000e+00 4.64150987477385973e-04 
1.29886670190723836e-04 0.00000000000000000e+00 -1.81157271104713237e-04 
4.82344871622899049e-05 0.00000000000000000e+00 2.23692104605640819e-05 
1.59077556203575041e-04 0.00000000000000000e+00 -3.67158682496994274e-04 
1.65580749452977187e-04 0.00000000000000000e+00 -3.11355929908989088e-04 
8.75659193999694116e-05 0.00000000000000000e+00 -3.36240194535890563e-04 
1.28971535641689094e-04 0.00000000000000000e+00 -3.72216690860804032e-04 
7.74248495064392866e-06 0.00000000000000000e+00 -1.81945675474423472e-04 
4.57441900892581238e-05 0.00000000000000000e+00 -2.70354016451158029e-04 
-5.46781439163083755e-05 0.00000000000000000e+00 3.01818969154709721e-05 
-2.61163798950762448e-05 0.00000000000000000e+00 -7.80323874146866223e-05 
-9.63932213789659505e-05 0.00000000000000000e+00 2.09638414628011830e-04 
-7.95187290166554130e-05 0.00000000000000000e+00 1.32303950380107359e-04 
-8.51500352384240320e-05 0.00000000000000000e+00 2.18958092572076849e-04 
-9.98021333093645688e-05 0.00000000000000000e+00 2.43313400872642284e-04 
1.61944329888214002e-05 0.00000000000000000e+00 -2.70595649415667869e-05 
-4.63066899703885830e-05 0.00000000000000000e+00 1.26233434689003389e-04 
1.92654037843541454e-04 0.00000000000000000e+00 -4.01398199492929630e-04 
9.81412223447398363e-05 0.00000000000000000e+00 -2.16383464021322510e-04 
3.74367417167652326e-04 0.00000000000000000e+00 -5.12144326677015159e-04 
2.86214004054144845e-04 0.00000000000000000e+00 -5.19595781819670610e-04 
5.00712634324814625e-04 0.00000000000000000e+00 9.88392179926980913e-05 
4.45200764234932262e-04 0.00000000000000000e+00 -3.27093131189048157e-04 
-7.59897462977986995e-05 0.00000000000000000e+00 3.15657220981736494e-04 
5.29061691908276166e-04 0.00000000000000000e+00 6.63194489726553343e-04 
3.82032263403574417e-03 0.00000000000000000e+00 -8.42185350235680912e-04 
1.27357847681593920e-02 0.00000000000000000e+00 -2.76595848869432611e-03 
1.31305217566522574e-02 0.00000000000000000e+00 -4.35094986724384077e-03 
1.25374372094043170e-02 0.00000000000000000e+00 -5.66419337151670768e-03 
1.15810188999032181e-02 0.00000000000000000e+00 -6.59482745782008929e-03 
1.05566423166779024e-02 0.00000000000000000e+00 -7.17116820501422468e-03 
9.45462550653099199e-03 0.00000000000000000e+00 -7.33140724196838962e-03 
8.11451601475119376e-03 0.00000000000000000e+00 -6.88839065323584333e-03 
6.83265418175247902e-03 0.00000000000000000e+00 -6.25415125356861435e-03 
5.94005011172353114e-03 0.00000000000000000e+00 -5.94493888504461082e-03 
5.38885656721457221e-03 0.00000000000000000e+00 -5.81028741412785692e-03 
4.92155514054799098e-03 0.00000000000000000e+00 -5.18197703408992180e-03 
4.30994123707569878e-03 0.00000000000000000e+00 -3.35834604855379630e-03 
1.22554033929674674e-02 0.00000000000000000e+00 -2.06522094428836581e-03 
1.29463586100687107e-02 0.00000000000000000e+00 -3.53067834190721411e-03 
1.27620062499042182e-02 0.00000000000000000e+00 -4.94691634179940214e-03 
1.21383594189289970e-02 0.00000000000000000e+00 -6.20755213489365427e-03 
1.12371941804743202e-02 0.00000000000000000e+00 -7.09964365811749463e-03 
9.99896673667172338e-03 0.00000000000000000e+00 -7.29692900530439642e-03 
8.67545219049289419e-03 0.00000000000000000e+00 -7.00517473752958111e-03 
7.43739080208526138e-03 0.00000000000000000e+00 -6.54519361377291393e-03 
6.42389951465123163e-03 0.00000000000000000e+00 -6.18496323340879308e-03 
5.66253926179951465e-03 0.00000000000000000e+00 -5.93166463374867215e-03 
5.09089147814766919e-03 0.00000000000000000e+00 -5.49964913975496163e-03 
4.58017654737313644e-03 0.00000000000000000e+00 -4.35041318136930935e-03 
4.09141574323241500e-03 0.00000000000000000e+00 -2.20882628888009747e-03 
3.07973997817727416e-03 0.00000000000000000e+00 2.16117734539985495e-04 
3.07973997817951759e-03 0.00000000000000000e+00 2.16117734545159633e-04 
1.49901071181608335e-03 0.00000000000000000e+00 1.67325293940124545e-03 
1.49901071182135777e-03 0.00000000000000000e+00 1.67325293939783108e-03 
2.40556757519930480e-03 0.00000000000000000e+00 1.14795033819997173e-03 
2.40556757520069648e-03 0.00000000000000000e+00 1.14795033819900440e-03 
3.07973997817249413e-03 0.00000000000000000e+00 2.16117734540172845e-04 
1.49901071181663022e-03 0.00000000000000000e+00 1.67325293940437619e-03 
4.78697020225764844e-04 0.00000000000000000e+00 2.20480709005515694e-03 
4.78697020212610002e-04 0.00000000000000000e+00 2.20480709005405496e-03 
4.78697020215654659e-04 0.00000000000000000e+00 2.20480709005759206e-03 
3.82032263403949942e-03 0.00000000000000000e+00 -8.42185350239446563e-04 
3.82032263404129225e-03 0.00000000000000000e+00 -8.42185350238375588e-04 
3.82032263404184303e-03 0.00000000000000000e+00 -8.42185350236909097e-04 
2.08985112113162144e-06 0.00000000000000000e+00 1.31548559006883773e-04 
1.55990180191148056e-04 0.00000000000000000e+00 -2.63239311367510082e-04 
1.45545444296047073e-04 0.00000000000000000e+00 -3.75507654890751730e-04 
6.58872458747690324e-05 0.00000000000000000e+00 -3.06064977505732434e-04 
-1.00485808524489480e-05 0.00000000000000000e+00 -1.30871981287069194e-04 
-6.77498816956350724e-05 0.00000000000000000e+00 8.32181839215952678e-05 
-1.00022793842820105e-04 0.00000000000000000e+00 2.33046182074951027e-04 
-6.88655492949620128e-05 0.00000000000000000e+00 1.81256772068171955e-04 
5.53386496645283279e-05 0.00000000000000000e+00 -1.19716677091966848e-04 
2.41088174100429609e-04 0.00000000000000000e+00 -4.73617840137873023e-04 
4.15153755704614474e-04 0.00000000000000000e+00 -4.36353975362685476e-04 
5.22016003876390783e-04 0.00000000000000000e+00 4.50359780714551874e-04 
-1.36477385807622423e-04 0.00000000000000000e+00 4.64150987476227611e-04 
1.01666603489165106e-04 0.00000000000000000e+00 -1.07941353735192968e-04 
1.65652314630991419e-04 0.00000000000000000e+00 -3.47489757018904085e-04 
1.08429651222411921e-04 0.00000000000000000e+00 -3.58203647152024920e-04 
2.61662982164125626e-05 0.00000000000000000e+00 -2.28424536808781827e-04 
-4.11071000963831454e-05 0.00000000000000000e+00 -2.35759213971088762e-05 
-8.94231106619056110e-05 0.00000000000000000e+00 1.75618714431931690e-04 
-9.52431761899917101e-05 0.00000000000000000e+00 2.39572866947579416e-04 
-1.75738961662824951e-05 0.00000000000000000e+00 5.57768311201605911e-05 
1.45139655875695952e-04 0.00000000000000000e+00 -3.13912869945560697e-04 
3.33319987403129310e-04 0.00000000000000000e+00 -5.35820638860343645e-04 
4.79160759883714722e-04 0.00000000000000000e+00 -1.16188475012388479e-04 
5.29854050534233441e-04 0.00000000000000000e+00 1.24694414434572921e-03 
1.12474209568614557e-02 0.00000000000000000e+00 -1.36255936194348772e-03 
1.12474209568637681e-02 0.00000000000000000e+00 -1.36255936194171353e-03 
1.12474209568614626e-02 0.00000000000000000e+00 -1.36255936193987624e-03 
2.40556757520053082e-03 0.00000000000000000e+00 1.14795033819334964e-03 
3.07973997817441057e-03 0.00000000000000000e+00 2.16117734542323035e-04 
1.49901071181767018e-03 0.00000000000000000e+00 1.67325293939860303e-03 
2.08985112358625515e-06 0.00000000000000000e+00 1.31548559005968056e-04 
1.55990180190327532e-04 0.00000000000000000e+00 -2.63239311371117873e-04 
1.45545444295680179e-04 0.00000000000000000e+00 -3.75507654891788227e-04 
6.58872458759365013e-05 0.00000000000000000e+00 -3.06064977505723760e-04 
-1.00485808519849095e-05 0.00000000000000000e+00 -1.30871981287734027e-04 
-6.77498816950400623e-05 0.00000000000000000e+00 8.32181839228269215e-05 
-1.00022793843175290e-04 0.00000000000000000e+00 2.33046182076354419e-04 
-6.88655492948154287e-05 0.00000000000000000e+00 1.81256772067476331e-04 
5.53386496653508037e-05 0.00000000000000000e+00 -1.19716677091144373e-04 
2.41088174102130614e-04 0.00000000000000000e+00 -4.73617840137898014e-04 
4.15153755702777131e-04 0.00000000000000000e+00 -4.36353975361697660e-04 
5.22016003878189800e-04 0.00000000000000000e+00 4.50359780713288779e-04 
-1.36477385805218096e-04 0.00000000000000000e+00 4.64150987477870611e-04 
1.01666603491347389e-04 0.00000000000000000e+00 -1.07941353739508526e-04 
1.65652314627652943e-04 0.00000000000000000e+00 -3.47489757019226310e-04 
1.08429651221913188e-04 0.00000000000000000e+00 -3.58203647150936815e-04 
2.61662982188021442e-05 0.00000000000000000e+00 -2.28424536809949296e-04 
-4.11071000972257873e-05 0.00000000000000000e+00 -2.35759213970603040e-05 
-8.94231106615820851e-05 0.00000000000000000e+00 1.75618714432950406e-04 
-9.52431761890610310e-05 0.00000000000000000e+00 2.39572866946972696e-04 
-1.75738961685909783e-05 0.00000000000000000e+00 5.57768311206090171e-05 
1.45139655876328909e-04 0.00000000000000000e+00 -3.13912869946681762e-04 
3.33319987404859805e-04 0.00000000000000000e+00 -5.35820638859703857e-04 
4.79160759886068633e-04 0.00000000000000000e+00 -1.16188475011427442e-04 
5.29854050534940340e-04 0.00000000000000000e+00 1.24694414434530550e-03 
1.12474209568659608e-02 0.00000000000000000e+00 -1.36255936193891282e-03 
1.27357847681558271e-02 0.00000000000000000e+00 -2.76595848869140831e-03 
1.31305217566537440e-02 0.00000000000000000e+00 -4.35094986724505420e-03 
1.25374372093999889e-02 0.00000000000000000e+00 -5.66419337151447769e-03 
1.15810188999054837e-02 0.00000000000000000e+00 -6.59482745781945958e-03 
1.05566423166773178e-02 0.00000000000000000e+00 -7.17116820501344319e-03 
9.45462550653084974e-03 0.00000000000000000e+00 -7.33140724196803054e-03 