# vtk DataFile Version 2.0

ASCII

DATASET UNSTRUCTURED_GRID

POINTS 281 double 

0.00000000000000000e+00  6.00000000000000012e-03  8.68039800000000063e-03
0.00000000000000000e+00  6.00000000000000012e-03  2.15013699999999988e-02
0.00000000000000000e+00  5.99999699999999997e-03  3.38432499999999983e-02
0.00000000000000000e+00  6.00000000000000012e-03  4.61511800000000000e-02
0.00000000000000000e+00  5.99999399999999981e-03  5.84285100000000029e-02
0.00000000000000000e+00  5.99999899999999978e-03  7.03572799999999943e-02
0.00000000000000000e+00  6.00000000000000012e-03  7.56573400000000035e-02
0.00000000000000000e+00  6.00000000000000012e-03  1.52458600000000000e-02
0.00000000000000000e+00  5.99999899999999978e-03  2.76822099999999988e-02
0.00000000000000000e+00  5.99999899999999978e-03  3.99985900000000005e-02
0.00000000000000000e+00  5.99999800000000031e-03  5.22986000000000006e-02
0.00000000000000000e+00  5.99999800000000031e-03  6.44963600000000026e-02
0.00000000000000000e+00  3.00000000000000006e-03  3.07692300000000007e-03
0.00000000000000000e+00  3.00000000000000006e-03  1.04940499999999996e-02
0.00000000000000000e+00  3.00000000000000006e-03  7.41712199999999995e-03
0.00000000000000000e+00  3.00000000000000006e-03  2.30583799999999998e-02
0.00000000000000000e+00  3.00000000000000006e-03  1.99814599999999995e-02
0.00000000000000000e+00  2.99999900000000016e-03  3.53831699999999985e-02
0.00000000000000000e+00  2.99999900000000016e-03  3.23062400000000000e-02
0.00000000000000000e+00  3.00000000000000006e-03  4.76909699999999992e-02
0.00000000000000000e+00  3.00000000000000006e-03  4.46140500000000023e-02
0.00000000000000000e+00  2.99999699999999991e-03  5.99834799999999987e-02
0.00000000000000000e+00  2.99999699999999991e-03  5.69065600000000019e-02
0.00000000000000000e+00  2.99999900000000016e-03  7.21017199999999941e-02
0.00000000000000000e+00  2.99999900000000016e-03  6.90247900000000025e-02
0.00000000000000000e+00  3.00000000000000006e-03  7.78286700000000026e-02
0.00000000000000000e+00  3.00000000000000006e-03  7.47517500000000057e-02
0.00000000000000000e+00  5.99999899999999978e-03  7.30073100000000058e-02
0.00000000000000000e+00  6.00000000000000012e-03  7.78286700000000026e-02
0.00000000000000000e+00  8.99999999999999932e-03  7.47517500000000057e-02
0.00000000000000000e+00  8.99999999999999932e-03  7.78286700000000026e-02
0.00000000000000000e+00  8.99999999999999932e-03  3.07692300000000007e-03
0.00000000000000000e+00  8.99999999999999932e-03  7.41712199999999995e-03
0.00000000000000000e+00  8.99999999999999932e-03  1.04940499999999996e-02
0.00000000000000000e+00  8.99999999999999932e-03  1.99814599999999995e-02
0.00000000000000000e+00  8.99999999999999932e-03  2.30583799999999998e-02
0.00000000000000000e+00  8.99999899999999985e-03  3.23062400000000000e-02
0.00000000000000000e+00  8.99999899999999985e-03  3.53831699999999985e-02
0.00000000000000000e+00  8.99999999999999932e-03  4.46140500000000023e-02
0.00000000000000000e+00  8.99999999999999932e-03  4.76909699999999992e-02
0.00000000000000000e+00  8.99999699999999916e-03  5.69065600000000019e-02
0.00000000000000000e+00  8.99999699999999916e-03  5.99834799999999987e-02
0.00000000000000000e+00  8.99999899999999985e-03  6.90247900000000025e-02
0.00000000000000000e+00  8.99999899999999985e-03  7.21017199999999941e-02
0.00000000000000000e+00  6.00000000000000012e-03  4.34019900000000031e-03
0.00000000000000000e+00  3.00000000000000006e-03  1.37767800000000006e-02
0.00000000000000000e+00  6.00000000000000012e-03  1.19631300000000006e-02
0.00000000000000000e+00  3.00000000000000006e-03  1.68536999999999992e-02
0.00000000000000000e+00  6.00000000000000012e-03  1.83736200000000002e-02
0.00000000000000000e+00  5.99999800000000031e-03  3.07627299999999985e-02
0.00000000000000000e+00  3.00000000000000006e-03  2.92257200000000002e-02
0.00000000000000000e+00  3.00000000000000006e-03  2.61487999999999998e-02
0.00000000000000000e+00  8.99999999999999932e-03  2.92257200000000002e-02
0.00000000000000000e+00  6.00000000000000012e-03  4.30748800000000029e-02
0.00000000000000000e+00  2.99999900000000016e-03  4.15377600000000000e-02
0.00000000000000000e+00  2.99999900000000016e-03  3.84608300000000014e-02
0.00000000000000000e+00  8.99999899999999985e-03  4.15377600000000000e-02
0.00000000000000000e+00  5.99999599999999963e-03  5.53635499999999975e-02
0.00000000000000000e+00  2.99999900000000016e-03  5.38416099999999981e-02
0.00000000000000000e+00  2.99999900000000016e-03  5.07646799999999995e-02
0.00000000000000000e+00  8.99999899999999985e-03  5.38416099999999981e-02
0.00000000000000000e+00  5.99999800000000031e-03  6.74268199999999984e-02
0.00000000000000000e+00  2.99999900000000016e-03  6.60943300000000067e-02
0.00000000000000000e+00  2.99999900000000016e-03  6.30174099999999959e-02
0.00000000000000000e+00  8.99999899999999985e-03  6.60943300000000067e-02
0.00000000000000000e+00  5.99999899999999978e-03  4.92248900000000003e-02
0.00000000000000000e+00  8.99999999999999932e-03  1.68536999999999992e-02
0.00000000000000000e+00  5.99999899999999978e-03  2.45917899999999988e-02
0.00000000000000000e+00  8.99999999999999932e-03  2.61487999999999998e-02
0.00000000000000000e+00  8.99999999999999932e-03  1.37767800000000006e-02
0.00000000000000000e+00  5.99999800000000031e-03  3.69209200000000029e-02
0.00000000000000000e+00  8.99999899999999985e-03  3.84608300000000014e-02
0.00000000000000000e+00  8.99999899999999985e-03  5.07646799999999995e-02
0.00000000000000000e+00  5.99999599999999963e-03  6.14624299999999985e-02
0.00000000000000000e+00  8.99999899999999985e-03  6.30174099999999959e-02
1.20000000000000002e-02  1.20000000000000002e-02  8.00000000000000017e-02
0.00000000000000000e+00  0.00000000000000000e+00  8.00000000000000017e-02
1.20000000000000002e-02  6.00000000000000012e-03  0.00000000000000000e+00
1.20000000000000002e-02  3.00000000000000006e-03  0.00000000000000000e+00
1.20000000000000002e-02  8.99999999999999932e-03  0.00000000000000000e+00
1.20000000000000002e-02  0.00000000000000000e+00  8.00000000000000017e-02
1.20000000000000002e-02  0.00000000000000000e+00  0.00000000000000000e+00
0.00000000000000000e+00  1.20000000000000002e-02  0.00000000000000000e+00
1.20000000000000002e-02  5.99999899999999978e-03  8.68039699999999942e-03
1.20000000000000002e-02  5.99999899999999978e-03  1.52458600000000000e-02
1.20000000000000002e-02  5.99999899999999978e-03  2.15013699999999988e-02
1.20000000000000002e-02  6.00000000000000012e-03  2.76822099999999988e-02
1.20000000000000002e-02  5.99999899999999978e-03  3.38432399999999967e-02
1.20000000000000002e-02  5.99999800000000031e-03  3.99985900000000005e-02
1.20000000000000002e-02  5.99999699999999997e-03  4.61511800000000000e-02
1.20000000000000002e-02  5.99999300000000034e-03  5.22986100000000023e-02
1.20000000000000002e-02  5.99998599999999969e-03  5.84285400000000010e-02
1.20000000000000002e-02  5.99997800000000043e-03  6.44963800000000059e-02
1.20000000000000002e-02  5.99997500000000027e-03  7.03572999999999976e-02
1.20000000000000002e-02  5.99997500000000027e-03  7.56573600000000068e-02
1.20000000000000002e-02  3.00000000000000006e-03  3.07692300000000007e-03
1.20000000000000002e-02  3.00000000000000006e-03  7.41712099999999961e-03
1.20000000000000002e-02  3.00000000000000006e-03  1.04940399999999996e-02
1.20000000000000002e-02  2.99999900000000016e-03  1.37767800000000006e-02
1.20000000000000002e-02  2.99999900000000016e-03  1.68536999999999992e-02
1.20000000000000002e-02  5.99999899999999978e-03  1.19631300000000006e-02
1.20000000000000002e-02  3.00000000000000006e-03  1.99814500000000013e-02
1.20000000000000002e-02  3.00000000000000006e-03  2.30583799999999998e-02
1.20000000000000002e-02  5.99999899999999978e-03  1.83736099999999986e-02
1.20000000000000002e-02  3.00000000000000006e-03  2.61487999999999998e-02
1.20000000000000002e-02  3.00000000000000006e-03  2.92257200000000002e-02
1.20000000000000002e-02  5.99999899999999978e-03  2.45917899999999988e-02
1.20000000000000002e-02  3.00000000000000006e-03  3.23062299999999983e-02
1.20000000000000002e-02  3.00000000000000006e-03  3.53831599999999968e-02
1.20000000000000002e-02  5.99999899999999978e-03  3.07627200000000003e-02
1.20000000000000002e-02  2.99999900000000016e-03  3.84608300000000014e-02
1.20000000000000002e-02  2.99999900000000016e-03  4.15377499999999983e-02
1.20000000000000002e-02  5.99999899999999978e-03  3.69209100000000012e-02
1.20000000000000002e-02  2.99999799999999981e-03  4.46140500000000023e-02
1.20000000000000002e-02  2.99999799999999981e-03  4.76909800000000009e-02
1.20000000000000002e-02  5.99999800000000031e-03  4.30748800000000029e-02
1.20000000000000002e-02  2.99999699999999991e-03  5.07646900000000012e-02
1.20000000000000002e-02  2.99999699999999991e-03  5.38416099999999981e-02
1.20000000000000002e-02  5.99999500000000015e-03  4.92249000000000020e-02
1.20000000000000002e-02  2.99999299999999984e-03  5.69065799999999983e-02
1.20000000000000002e-02  2.99999299999999984e-03  5.99835000000000021e-02
1.20000000000000002e-02  5.99999000000000018e-03  5.53635800000000025e-02
1.20000000000000002e-02  2.99998900000000021e-03  6.30174200000000045e-02
1.20000000000000002e-02  2.99998900000000021e-03  6.60943499999999962e-02
1.20000000000000002e-02  5.99998200000000006e-03  6.14624599999999965e-02
1.20000000000000002e-02  2.99998799999999987e-03  6.90248100000000059e-02
1.20000000000000002e-02  2.99998799999999987e-03  7.21017300000000028e-02
1.20000000000000002e-02  5.99997700000000009e-03  6.74268400000000018e-02
1.20000000000000002e-02  2.99998699999999997e-03  7.47517600000000004e-02
1.20000000000000002e-02  2.99998699999999997e-03  7.78286799999999973e-02
1.20000000000000002e-02  5.99998700000000003e-03  7.78286799999999973e-02
1.20000000000000002e-02  5.99997500000000027e-03  7.30073299999999953e-02
1.20000000000000002e-02  8.99998699999999922e-03  7.78286799999999973e-02
1.20000000000000002e-02  8.99999999999999932e-03  3.07692300000000007e-03
[...]
POINT_DATA 281

SCALARS Rank unsigned_int
LOOKUP_TABLE default
0 0 0 0 0 0 0 0 0 0 0 0 0 0 0 0 0 0 0 0 0 0 0 0 0 0 0 0 0 0 0 0 0 0 0 0 0 0 0 0 0 0 0 0 0 0 0 0 0 0 0 0 0 0 0 0 0 0 0 0 0 0 0 0 0 0 0 0 0 0 0 0 0 0 0 0 0 0 0 0 0 0 0 0 0 0 0 0 0 0 0 0 0 0 0 0 0 0 0 0 0 0 0 0 0 0 0 0 0 0 0 0 0 0 0 0 0 0 0 0 0 0 0 0 0 0 0 0 0 0 0 0 0 0 0 0 0 0 0 0 0 0 0 0 0 0 0 0 0 0 0 0 0 0 0 0 0 0 0 0 0 0 0 0 0 0 0 0 0 0 0 0 0 0 0 0 0 0 0 0 0 0 0 0 0 0 0 0 0 0 0 0 0 0 0 0 0 0 0 0 0 0 0 0 0 0 0 0 0 0 0 0 0 0 0 0 0 0 0 0 0 0 0 0 0 0 0 0 0 0 0 0 0 0 0 0 0 0 0 0 0 0 0 0 0 0 0 0 0 0 0 0 0 0 0 0 0 0 0 0 0 0 0 0 0 0 0 0 0 0 0 0 0 0 0 0 0 0 0 0 0 

VECTORS Forces0 double
1.70678715015839151e-02 0.00000000000000000e+00 -4.30791972094641314e-03 
1.30299969234057775e-02 0.00000000000000000e+00 -6.18598959959128746e-03 
8.17692127641420421e-03 0.00000000000000000e+00 -5.98899384726136932e-03 
5.48063483987151680e-03 0.00000000000000000e+00 -4.98562378971073410e-03 
4.40969773696540078e-03 0.00000000000000000e+00 -4.12743626839863400e-03 
3.36439158925366105e-03 0.00000000000000000e+00 -3.08644293209042785e-03 
2.52896115434228822e-03 0.00000000000000000e+00 -2.37691427365907407e-03 
1.54591776371053504e-02 0.00000000000000000e+00 -5.49843554337411857e-03 
1.05094294213024068e-02 0.00000000000000000e+00 -6.34031134240566497e-03 
6.51733438981857982e-03 0.00000000000000000e+00 -5.47737628335801668e-03 
4.87594817546929595e-03 0.00000000000000000e+00 -4.56407705477797094e-03 
3.96859822675275919e-03 0.00000000000000000e+00 -3.66209876407815570e-03 
1.66872049844201294e-02 0.00000000000000000e+00 -3.10686926285799964e-03 
1.70379523713245079e-02 0.00000000000000000e+00 -4.73464162000483257e-03 
1.71353160269174729e-02 0.00000000000000000e+00 -4.02522146808607668e-03 
1.21970786166107764e-02 0.00000000000000000e+00 -6.20106149849835968e-03 
1.38397238975888088e-02 0.00000000000000000e+00 -6.14090739573760168e-03 
7.85402936539400520e-03 0.00000000000000000e+00 -5.94780235110842128e-03 
8.59993167621846133e-03 0.00000000000000000e+00 -6.04837376049993831e-03 
5.22257139051268172e-03 0.00000000000000000e+00 -4.82896450774291004e-03 
5.80280190854340003e-03 0.00000000000000000e+00 -5.16916727881360557e-03 
4.37977610467031164e-03 0.00000000000000000e+00 -4.06465559430271850e-03 
4.44598831897118595e-03 0.00000000000000000e+00 -4.19044034521290788e-03 
3.07104636698748079e-03 0.00000000000000000e+00 -2.84055887947840370e-03 
3.59159678217727896e-03 0.00000000000000000e+00 -3.27665989100759053e-03 
2.06729686735610593e-03 0.00000000000000000e+00 -2.00570658737542293e-03 
2.66885196874445431e-03 0.00000000000000000e+00 -2.49631608592970622e-03 
2.92883591199553320e-03 0.00000000000000000e+00 -2.71974160583570313e-03 
2.06729686734903606e-03 0.00000000000000000e+00 -2.00570658737558470e-03 
2.66885196873437253e-03 0.00000000000000000e+00 -2.49631608593280834e-03 
2.06729686734273034e-03 0.00000000000000000e+00 -2.00570658736970052e-03 
1.66872049844198102e-02 0.00000000000000000e+00 -3.10686926285205865e-03 
1.71353160269177851e-02 0.00000000000000000e+00 -4.02522146808718517e-03 
1.70379523713347289e-02 0.00000000000000000e+00 -4.73464162000112980e-03 
1.38397238975842690e-02 0.00000000000000000e+00 -6.14090739574332540e-03 
1.21970786166108423e-02 0.00000000000000000e+00 -6.20106149849618694e-03 
8.59993167621204979e-03 0.00000000000000000e+00 -6.04837376049960958e-03 
7.85402936539383520e-03 0.00000000000000000e+00 -5.94780235111037024e-03 
5.80280190854091504e-03 0.00000000000000000e+00 -5.16916727881624148e-03 
5.22257139051879055e-03 0.00000000000000000e+00 -4.82896450774498911e-03 
4.44598831897783601e-03 0.00000000000000000e+00 -4.19044034521377610e-03 
4.37977610466413255e-03 0.00000000000000000e+00 -4.06465559430480277e-03 
3.59159678217966854e-03 0.00000000000000000e+00 -3.27665989100436959e-03 
3.07104636699474451e-03 0.00000000000000000e+00 -2.84055887947593042e-03 
1.72103179626231367e-02 0.00000000000000000e+00 -3.39076009015491699e-03 
1.61530000664278986e-02 0.00000000000000000e+00 -5.31383998387585915e-03 
1.69115476320826526e-02 0.00000000000000000e+00 -5.05649713690856876e-03 
1.48246792554730805e-02 0.00000000000000000e+00 -5.71963222201068728e-03 
1.43436264344586027e-02 0.00000000000000000e+00 -5.94016286848147480e-03 
9.16463808515278859e-03 0.00000000000000000e+00 -6.14397747058383591e-03 
9.85517448957274472e-03 0.00000000000000000e+00 -6.26679588356738020e-03 
1.09697901813298748e-02 0.00000000000000000e+00 -6.29226202950573278e-03 
9.85517448956641472e-03 0.00000000000000000e+00 -6.26679588356655794e-03 
6.03626326225116527e-03 0.00000000000000000e+00 -5.28751843280016263e-03 
6.23294958352270997e-03 0.00000000000000000e+00 -5.36699179680394118e-03 
6.92565051573956671e-03 0.00000000000000000e+00 -5.63596148715147464e-03 
6.23294958352336569e-03 0.00000000000000000e+00 -5.36699179680447461e-03 
4.53644550479893795e-03 0.00000000000000000e+00 -4.28559338000002090e-03 
4.69191344203174262e-03 0.00000000000000000e+00 -4.41778654274853442e-03 
4.96815197484052392e-03 0.00000000000000000e+00 -4.64631184565391427e-03 
4.69191344202988300e-03 0.00000000000000000e+00 -4.41778654274948505e-03 
3.79038473677253789e-03 0.00000000000000000e+00 -3.45625834419353156e-03 
3.87234956218279270e-03 0.00000000000000000e+00 -3.55055215663530521e-03 
4.08882711361910952e-03 0.00000000000000000e+00 -3.78536360302507251e-03 
3.87234956218630161e-03 0.00000000000000000e+00 -3.55055215663485201e-03 
5.05437618142460122e-03 0.00000000000000000e+00 -4.71708043030233826e-03 
1.48246792554773184e-02 0.00000000000000000e+00 -5.71963222201373345e-03 
1.15064445858567149e-02 0.00000000000000000e+00 -6.23255664858708355e-03 
1.09697901813323173e-02 0.00000000000000000e+00 -6.29226202950711536e-03 
1.61530000664161441e-02 0.00000000000000000e+00 -5.31383998387670309e-03 
7.42061100763083230e-03 0.00000000000000000e+00 -5.82013699478599409e-03 
6.92565051574262937e-03 0.00000000000000000e+00 -5.63596148715148591e-03 
4.96815197484177032e-03 0.00000000000000000e+00 -4.64631184565278670e-03 
4.24287285373215264e-03 0.00000000000000000e+00 -3.93238030377224441e-03 
4.08882711361701658e-03 0.00000000000000000e+00 -3.78536360302540297e-03 
-8.99735669214442682e-04 0.00000000000000000e+00 5.95500636277506812e-04 
1.61135004113582684e-03 0.00000000000000000e+00 -1.63500279460812407e-03 
-5.84165513013847754e-04 0.00000000000000000e+00 1.02155504672911575e-03 
-5.84165513011719248e-04 0.00000000000000000e+00 1.02155504673144331e-03 
-5.84165513006027620e-04 0.00000000000000000e+00 1.02155504672646422e-03 
-8.99735669206380121e-04 0.00000000000000000e+00 5.95500636269617181e-04 
-5.84165513003312778e-04 0.00000000000000000e+00 1.02155504672799729e-03 
1.48048880965474024e-02 0.00000000000000000e+00 -2.43180334370374923e-03 
2.56604584875848828e-04 0.00000000000000000e+00 1.24004936547484002e-04 
3.39970798422082070e-04 0.00000000000000000e+00 -2.40556769161359528e-04 
1.10516163606996003e-04 0.00000000000000000e+00 -3.32096782888381117e-04 
-1.22248877632065450e-04 0.00000000000000000e+00 -2.50179586609104395e-04 
-2.18581279179041159e-04 0.00000000000000000e+00 -1.03546410161016941e-04 
-1.70224003347377458e-04 0.00000000000000000e+00 1.10478429398375440e-05 
-1.90744498697376406e-05 0.00000000000000000e+00 3.24003524748864649e-05 
1.87953028566745982e-04 0.00000000000000000e+00 -5.03264637411508054e-05 
3.82829890885743869e-04 0.00000000000000000e+00 -1.85290780087739288e-04 
4.47645240855521658e-04 0.00000000000000000e+00 -2.62357604213751903e-04 
2.43167209829511620e-04 0.00000000000000000e+00 -1.58201742784323915e-04 
-2.60860205981792786e-04 0.00000000000000000e+00 1.63779966343953470e-04 
-2.38102780848968863e-04 0.00000000000000000e+00 6.55421251709955286e-04 
1.78486953655518105e-04 0.00000000000000000e+00 2.27373336555923843e-04 
3.32531976241211790e-04 0.00000000000000000e+00 -6.15027056685114737e-06 
3.63630662807240394e-04 0.00000000000000000e+00 -1.84529186562933838e-04 
2.96372503964232150e-04 0.00000000000000000e+00 -2.86090609390296925e-04 
3.62497759361699967e-04 0.00000000000000000e+00 -9.51724310877278819e-05 
1.76842889328702015e-04 0.00000000000000000e+00 -3.30091084957714225e-04 
4.34350803265603651e-05 0.00000000000000000e+00 -3.23528851817372887e-04 
2.42108392047318593e-04 0.00000000000000000e+00 -3.14391004137278972e-04 
-7.49638419235495069e-05 0.00000000000000000e+00 -2.80796027935784043e-04 
-1.61179001490988685e-04 0.00000000000000000e+00 -2.15395992988151076e-04 
-1.88158378527087743e-05 0.00000000000000000e+00 -3.05834798719243088e-04 
-2.09649078174146692e-04 0.00000000000000000e+00 -1.40374211349857965e-04 
-2.18177536993831029e-04 0.00000000000000000e+00 -6.91978649055925211e-05 
-1.90469117624017699e-04 0.00000000000000000e+00 -1.78079240535820605e-04 
-1.93627874731699300e-04 0.00000000000000000e+00 -1.07168879202547173e-05 
-1.40232456421281285e-04 0.00000000000000000e+00 2.63185149002299609e-05 
-2.09570824930972640e-04 0.00000000000000000e+00 -3.77221737861549976e-05 
-6.35859158857158966e-05 0.00000000000000000e+00 3.69804020338341903e-05 
2.90168284509291564e-05 0.00000000000000000e+00 2.07278774062696790e-05 
-1.04154287145389490e-04 0.00000000000000000e+00 3.50896495672183551e-05 
1.33757254052853868e-04 0.00000000000000000e+00 -2.15859984005876484e-05 
2.41316206728326913e-04 0.00000000000000000e+00 -8.26332076826649632e-05 
8.02793389230997174e-05 0.00000000000000000e+00 2.64902137762463037e-06 
3.40483583481879443e-04 0.00000000000000000e+00 -1.51820087247971292e-04 
4.17888440772350416e-04 0.00000000000000000e+00 -2.15991238487844151e-04 
2.92303380874317270e-04 0.00000000000000000e+00 -1.16602304280842811e-04 
4.51780926145767378e-04 0.00000000000000000e+00 -2.56017392849211263e-04 
4.24226163732518361e-04 0.00000000000000000e+00 -2.56499270760339969e-04 
4.40852419826356446e-04 0.00000000000000000e+00 -2.39373856331104307e-04 
3.20166658636984833e-04 0.00000000000000000e+00 -2.03323040937302801e-04 
1.12629847734092826e-04 0.00000000000000000e+00 -7.78558268156358198e-05 
3.87654961270733991e-04 0.00000000000000000e+00 -2.39812317197077578e-04 
-1.51933236897866948e-04 0.00000000000000000e+00 9.21531372787606892e-05 
-5.57529003389646712e-04 0.00000000000000000e+00 3.62183424955851675e-04 
-5.57529003383801778e-04 0.00000000000000000e+00 3.62183424956168262e-04 
3.12586376422649282e-05 0.00000000000000000e+00 -2.63367218015319760e-05 
-5.57529003387855068e-04 0.00000000000000000e+00 3.62183424955759517e-04 
-2.38102780837526627e-04 0.00000000000000000e+00 6.55421251706895234e-04 
3.32531976249352847e-04 0.00000000000000000e+00 -6.15027056866783653e-06 
1.78486953652582953e-04 0.00000000000000000e+00 2.27373336554769384e-04 
2.96372503984492853e-04 0.00000000000000000e+00 -2.86090609384878950e-04 
3.63630662803739722e-04 0.00000000000000000e+00 -1.84529186562129794e-04 
4.34350803234127093e-05 0.00000000000000000e+00 -3.23528851822279986e-04 
1.76842889332697083e-04 0.00000000000000000e+00 -3.30091084955279107e-04 
-1.61179001492090234e-04 0.00000000000000000e+00 -2.15395992986942841e-04 
-7.49638419207574694e-05 0.00000000000000000e+00 -2.80796027937529175e-04 
-2.18177536993962001e-04 0.00000000000000000e+00 -6.91978649072778050e-05 
-2.09649078170410098e-04 0.00000000000000000e+00 -1.40374211350965586e-04 
-1.40232456425855751e-04 0.00000000000000000e+00 2.63185149018233044e-05 
-1.93627874732829472e-04 0.00000000000000000e+00 -1.07168879203986993e-05 
2.90168284528258597e-05 0.00000000000000000e+00 2.07278774061957364e-05 
-6.35859158814224560e-05 0.00000000000000000e+00 3.69804020327122579e-05 
2.41316206719148924e-04 0.00000000000000000e+00 -8.26332076832040285e-05 
1.33757254051625250e-04 0.00000000000000000e+00 -2.15859984015729713e-05 
4.17888440770072399e-04 0.00000000000000000e+00 -2.15991238487344496e-04 
3.40483583479907334e-04 0.00000000000000000e+00 -1.51820087246395296e-04 
4.24226163731018856e-04 0.00000000000000000e+00 -2.56499270764033737e-04 
4.51780926149056956e-04 0.00000000000000000e+00 -2.56017392849263142e-04 
1.12629847732662275e-04 0.00000000000000000e+00 -7.78558268173832284e-05 
3.20166658638373046e-04 0.00000000000000000e+00 -2.03323040937314510e-04 
-9.64542594337827335e-05 0.00000000000000000e+00 5.19812592377106707e-04 
-1.51933236892498087e-04 0.00000000000000000e+00 9.21531372822005374e-05 
1.61135004113069141e-03 0.00000000000000000e+00 -1.63500279460996440e-03 
1.72292551952351672e-02 0.00000000000000000e+00 -3.75923228173771209e-03 
1.68046114496549805e-02 0.00000000000000000e+00 -5.11424277064221298e-03 
1.43181392842867510e-02 0.00000000000000000e+00 -5.95277109251355577e-03 
1.14971295412351696e-02 0.00000000000000000e+00 -6.23327730970014288e-03 
9.16194531399638218e-03 0.00000000000000000e+00 -6.14349483002493268e-03 
7.41989046815908805e-03 0.00000000000000000e+00 -5.81988115314590725e-03 
6.03603087864383863e-03 0.00000000000000000e+00 -5.28741742836232910e-03 
5.05391110733606659e-03 0.00000000000000000e+00 -4.71674345912346041e-03 
4.53472919112521237e-03 0.00000000000000000e+00 -4.28401244831873133e-03 
4.23490907602598957e-03 0.00000000000000000e+00 -3.92493848908323246e-03 
3.76919529332265819e-03 0.00000000000000000e+00 -3.43425365886414679e-03 
2.80221758274622548e-03 0.00000000000000000e+00 -2.61126050712093228e-03 
1.66872049844243794e-02 0.00000000000000000e+00 -3.10686926285565213e-03 
1.70518116710414482e-02 0.00000000000000000e+00 -4.43563612345195934e-03 
1.53980235744469000e-02 0.00000000000000000e+00 -5.51651483014412199e-03 
1.30091357743704721e-02 0.00000000000000000e+00 -6.18634789466200683e-03 
1.05061764938262879e-02 0.00000000000000000e+00 -6.34040202242189266e-03 
8.17624673813462446e-03 0.00000000000000000e+00 -5.98891269756704828e-03 
6.51701688362076557e-03 0.00000000000000000e+00 -5.47725262998119671e-03 
5.48011298721454675e-03 0.00000000000000000e+00 -4.98531709558567952e-03 
4.87496234650906454e-03 0.00000000000000000e+00 -4.56329385107027020e-03 
4.40929475833273625e-03 0.00000000000000000e+00 -4.12628407679237977e-03 
3.96036087011319895e-03 0.00000000000000000e+00 -3.65310341353243008e-03 
3.29309173509743794e-03 0.00000000000000000e+00 -3.02699601791611662e-03 
2.27197064356740802e-03 0.00000000000000000e+00 -2.16886227883041115e-03 
9.14488615672382626e-04 0.00000000000000000e+00 -1.05676397230628958e-03 
9.14488615680324841e-04 0.00000000000000000e+00 -1.05676397230192566e-03 
-2.41959946175109920e-04 0.00000000000000000e+00 9.97735097465720927e-06 
-2.41959946175057878e-04 0.00000000000000000e+00 9.97735097709124314e-06 
3.25881654190081750e-04 0.00000000000000000e+00 -5.22862670327357338e-04 
3.25881654188347623e-04 0.00000000000000000e+00 -5.22862670325462370e-04 
9.14488615681111972e-04 0.00000000000000000e+00 -1.05676397230028093e-03 
-2.41959946166948696e-04 0.00000000000000000e+00 9.97735097718730346e-06 
-8.99735669187013451e-04 0.00000000000000000e+00 5.95500636272113123e-04 
-8.99735669200306854e-04 0.00000000000000000e+00 5.95500636269874028e-04 
-8.99735669191648415e-04 0.00000000000000000e+00 5.95500636269927263e-04 
1.61135004112806417e-03 0.00000000000000000e+00 -1.63500279460795342e-03 
1.61135004113083040e-03 0.00000000000000000e+00 -1.63500279460910896e-03 
1.61135004113737270e-03 0.00000000000000000e+00 -1.63500279460602202e-03 
7.97576297183786811e-05 0.00000000000000000e+00 3.40726988257988752e-04 
3.65479133702477138e-04 0.00000000000000000e+00 -1.13884926492534665e-04 
2.38698037588022454e-04 0.00000000000000000e+00 -3.15617183517254694e-04 
-1.97259654359890861e-05 0.00000000000000000e+00 -3.05504090302329207e-04 
-1.90571893378610783e-04 0.00000000000000000e+00 -1.77919456100564233e-04 
-2.09553590285349101e-04 0.00000000000000000e+00 -3.76805698760272525e-05 
-1.04103094587021025e-04 0.00000000000000000e+00 3.50966581512570424e-05 
8.04801497905874064e-05 0.00000000000000000e+00 2.56769142606439401e-06 
2.92988462307200816e-04 0.00000000000000000e+00 -1.17080946237453637e-04 
4.41720014576657582e-04 0.00000000000000000e+00 -2.40391329029215585e-04 
3.78319622279980645e-04 0.00000000000000000e+00 -2.35058544138637589e-04 
-5.23958496583756415e-05 0.00000000000000000e+00 2.74160136715550072e-05 
-2.38102780835415469e-04 0.00000000000000000e+00 6.55421251706998884e-04 
2.83945666769009979e-04 0.00000000000000000e+00 8.21889685740222762e-05 
3.36831322113558104e-04 0.00000000000000000e+00 -2.45124293930322566e-04 
1.08888550553919150e-04 0.00000000000000000e+00 -3.32009942794135864e-04 
-1.22532071108670179e-04 0.00000000000000000e+00 -2.49963425499492376e-04 
-2.18589093537212579e-04 0.00000000000000000e+00 -1.03478733797339475e-04 
-1.70199439712234127e-04 0.00000000000000000e+00 1.10649234603584691e-05 
-1.89939750205953686e-05 0.00000000000000000e+00 3.23862596900915316e-05 
1.88271080867599835e-04 0.00000000000000000e+00 -5.05073101752336856e-05 
3.83670864413132183e-04 0.00000000000000000e+00 -1.85987540147990470e-04 
4.46617114736069017e-04 0.00000000000000000e+00 -2.62404007000513874e-04 
2.15449443558977108e-04 0.00000000000000000e+00 -1.41451600311824350e-04 
-4.27728505326204595e-04 0.00000000000000000e+00 2.74867697749669548e-04 
1.48048880965639569e-02 0.00000000000000000e+00 -2.43180334370365209e-03 
1.48048880965645450e-02 0.00000000000000000e+00 -2.43180334370303669e-03 
1.48048880965539458e-02 0.00000000000000000e+00 -2.43180334370316680e-03 
3.25881654182719747e-04 0.00000000000000000e+00 -5.22862670326842342e-04 
9.14488615672789636e-04 0.00000000000000000e+00 -1.05676397230563320e-03 
-2.41959946173022722e-04 0.00000000000000000e+00 9.97735097631755647e-06 
7.97576297166387535e-05 0.00000000000000000e+00 3.40726988259738655e-04 
3.65479133695606766e-04 0.00000000000000000e+00 -1.13884926493669608e-04 
2.38698037586632941e-04 0.00000000000000000e+00 -3.15617183516023040e-04 
-1.97259654345518677e-05 0.00000000000000000e+00 -3.05504090303255549e-04 
-1.90571893377550867e-04 0.00000000000000000e+00 -1.77919456101230367e-04 
-2.09553590287765571e-04 0.00000000000000000e+00 -3.76805698754027521e-05 
-1.04103094587681521e-04 0.00000000000000000e+00 3.50966581510675239e-05 
8.04801497893191067e-05 0.00000000000000000e+00 2.56769142629879852e-06 
2.92988462306138732e-04 0.00000000000000000e+00 -1.17080946237130545e-04 
4.41720014578307304e-04 0.00000000000000000e+00 -2.40391329027853827e-04 
3.78319622283433069e-04 0.00000000000000000e+00 -2.35058544140883947e-04 
-5.23958496557976798e-05 0.00000000000000000e+00 2.74160136705953799e-05 
-2.38102780837512749e-04 0.00000000000000000e+00 6.55421251705351330e-04 
2.83945666766914433e-04 0.00000000000000000e+00 8.21889685713312864e-05 
3.36831322111806901e-04 0.00000000000000000e+00 -2.45124293930626142e-04 
1.08888550545697428e-04 0.00000000000000000e+00 -3.32009942794247754e-04 
-1.22532071104734092e-04 0.00000000000000000e+00 -2.49963425498631519e-04 
-2.18589093535797479e-04 0.00000000000000000e+00 -1.03478733797972649e-04 
-1.70199439715476759e-04 0.00000000000000000e+00 1.10649234605822484e-05 
-1.89939750185369024e-05 0.00000000000000000e+00 3.23862596910532189e-05 
1.88271080870340047e-04 0.00000000000000000e+00 -5.05073101750231335e-05 
3.83670864412772824e-04 0.00000000000000000e+00 -1.85987540147884218e-04 
4.46617114735367810e-04 0.00000000000000000e+00 -2.62404007000253178e-04 
2.15449443562325070e-04 0.00000000000000000e+00 -1.41451600311274877e-04 
-4.27728505328515897e-04 0.00000000000000000e+00 2.74867697751795127e-04 
1.48048880965538730e-02 0.00000000000000000e+00 -2.43180334370422541e-03 
1.72292551952281311e-02 0.00000000000000000e+00 -3.75923228173757548e-03 
1.68046114496541617e-02 0.00000000000000000e+00 -5.11424277064235436e-03 
1.43181392842850752e-02 0.00000000000000000e+00 -5.95277109251442834e-03 
1.14971295412387205e-02 0.00000000000000000e+00 -6.23327730970163474e-03 
9.16194531399197251e-03 0.00000000000000000e+00 -6.14349483002593968e-03 
7.41989046816260694e-03 0.00000000000000000e+00 -5.81988115314662977e-03 