# vtk DataFile Version 2.0

ASCII

DATASET UNSTRUCTURED_GRID

POINTS 281 double 

0.00000000000000000e+00  6.00000000000000012e-03  8.68039800000000063e-03
0.00000000000000000e+00  6.00000000000000012e-03  2.15013699999999988e-02
0.00000000000000000e+00  5.99999699999999997e-03  3.38432499999999983e-02
0.00000000000000000e+00  6.00000000000000012e-03  4.61511800000000000e-02
0.00000000000000000e+00  5.99999399999999981e-03  5.84285100000000029e-02
0.00000000000000000e+00  5.99999899999999978e-03  7.03572799999999943e-02
0.00000000000000000e+00  6.00000000000000012e-03  7.56573400000000035e-02
0.00000000000000000e+00  6.00000000000000012e-03  1.52458600000000000e-02
0.00000000000000000e+00  5.99999899999999978e-03  2.76822099999999988e-02
0.00000000000000000e+00  5.99999899999999978e-03  3.99985900000000005e-02
0.00000000000000000e+00  5.99999800000000031e-03  5.22986000000000006e-02
0.00000000000000000e+00  5.99999800000000031e-03  6.44963600000000026e-02
0.00000000000000000e+00  3.00000000000000006e-03  3.07692300000000007e-03
0.00000000000000000e+00  3.00000000000000006e-03  1.04940499999999996e-02
0.00000000000000000e+00  3.00000000000000006e-03  7.41712199999999995e-03
0.00000000000000000e+00  3.00000000000000006e-03  2.30583799999999998e-02
0.00000000000000000e+00  3.00000000000000006e-03  1.99814599999999995e-02
0.00000000000000000e+00  2.99999900000000016e-03  3.53831699999999985e-02
0.00000000000000000e+00  2.99999900000000016e-03  3.23062400000000000e-02
0.00000000000000000e+00  3.00000000000000006e-03  4.76909699999999992e-02
0.00000000000000000e+00  3.00000000000000006e-03  4.46140500000000023e-02
0.00000000000000000e+00  2.99999699999999991e-03  5.99834799999999987e-02
0.00000000000000000e+00  2.99999699999999991e-03  5.69065600000000019e-02
0.00000000000000000e+00  2.99999900000000016e-03  7.21017199999999941e-02
0.00000000000000000e+00  2.99999900000000016e-03  6.90247900000000025e-02
0.00000000000000000e+00  3.00000000000000006e-03  7.78286700000000026e-02
0.00000000000000000e+00  3.00000000000000006e-03  7.47517500000000057e-02
0.00000000000000000e+00  5.99999899999999978e-03  7.30073100000000058e-02
0.00000000000000000e+00  6.00000000000000012e-03  7.78286700000000026e-02
0.00000000000000000e+00  8.99999999999999932e-03  7.47517500000000057e-02
0.00000000000000000e+00  8.99999999999999932e-03  7.78286700000000026e-02
0.00000000000000000e+00  8.99999999999999932e-03  3.07692300000000007e-03
0.00000000000000000e+00  8.99999999999999932e-03  7.41712199999999995e-03
0.00000000000000000e+00  8.99999999999999932e-03  1.04940499999999996e-02
0.00000000000000000e+00  8.99999999999999932e-03  1.99814599999999995e-02
0.00000000000000000e+00  8.99999999999999932e-03  2.30583799999999998e-02
0.00000000000000000e+00  8.99999899999999985e-03  3.23062400000000000e-02
0.00000000000000000e+00  8.99999899999999985e-03  3.53831699999999985e-02
0.00000000000000000e+00  8.99999999999999932e-03  4.46140500000000023e-02
0.00000000000000000e+00  8.99999999999999932e-03  4.76909699999999992e-02
0.00000000000000000e+00  8.99999699999999916e-03  5.69065600000000019e-02
0.00000000000000000e+00  8.99999699999999916e-03  5.99834799999999987e-02
0.00000000000000000e+00  8.99999899999999985e-03  6.90247900000000025e-02
0.00000000000000000e+00  8.99999899999999985e-03  7.21017199999999941e-02
0.00000000000000000e+00  6.00000000000000012e-03  4.34019900000000031e-03
0.00000000000000000e+00  3.00000000000000006e-03  1.37767800000000006e-02
0.00000000000000000e+00  6.00000000000000012e-03  1.19631300000000006e-02
0.00000000000000000e+00  3.00000000000000006e-03  1.68536999999999992e-02
0.00000000000000000e+00  6.00000000000000012e-03  1.83736200000000002e-02
0.00000000000000000e+00  5.99999800000000031e-03  3.07627299999999985e-02
0.00000000000000000e+00  3.00000000000000006e-03  2.92257200000000002e-02
0.00000000000000000e+00  3.00000000000000006e-03  2.61487999999999998e-02
0.00000000000000000e+00  8.99999999999999932e-03  2.92257200000000002e-02
0.00000000000000000e+00  6.00000000000000012e-03  4.30748800000000029e-02
0.00000000000000000e+00  2.99999900000000016e-03  4.15377600000000000e-02
0.00000000000000000e+00  2.99999900000000016e-03  3.84608300000000014e-02
0.00000000000000000e+00  8.99999899999999985e-03  4.15377600000000000e-02
0.00000000000000000e+00  5.99999599999999963e-03  5.53635499999999975e-02
0.00000000000000000e+00  2.99999900000000016e-03  5.38416099999999981e-02
0.00000000000000000e+00  2.99999900000000016e-03  5.07646799999999995e-02
0.00000000000000000e+00  8.99999899999999985e-03  5.38416099999999981e-02
0.00000000000000000e+00  5.99999800000000031e-03  6.74268199999999984e-02
0.00000000000000000e+00  2.99999900000000016e-03  6.60943300000000067e-02
0.00000000000000000e+00  2.99999900000000016e-03  6.30174099999999959e-02
0.00000000000000000e+00  8.99999899999999985e-03  6.60943300000000067e-02
0.00000000000000000e+00  5.99999899999999978e-03  4.92248900000000003e-02
0.00000000000000000e+00  8.99999999999999932e-03  1.68536999999999992e-02
0.00000000000000000e+00  5.99999899999999978e-03  2.45917899999999988e-02
0.00000000000000000e+00  8.99999999999999932e-03  2.61487999999999998e-02
0.00000000000000000e+00  8.99999999999999932e-03  1.37767800000000006e-02
0.00000000000000000e+00  5.99999800000000031e-03  3.69209200000000029e-02
0.00000000000000000e+00  8.99999899999999985e-03  3.84608300000000014e-02
0.00000000000000000e+00  8.99999899999999985e-03  5.07646799999999995e-02
0.00000000000000000e+00  5.99999599999999963e-03  6.14624299999999985e-02
0.00000000000000000e+00  8.99999899999999985e-03  6.30174099999999959e-02
1.20000000000000002e-02  1.20000000000000002e-02  8.00000000000000017e-02
0.00000000000000000e+00  0.00000000000000000e+00  8.00000000000000017e-02
1.20000000000000002e-02  6.00000000000000012e-03  0.00000000000000000e+00
1.20000000000000002e-02  3.00000000000000006e-03  0.00000000000000000e+00
1.20000000000000002e-02  8.99999999999999932e-03  0.00000000000000000e+00
1.20000000000000002e-02  0.00000000000000000e+00  8.00000000000000017e-02
1.20000000000000002e-02  0.00000000000000000e+00  0.00000000000000000e+00
0.00000000000000000e+00  1.20000000000000002e-02  0.00000000000000000e+00
1.20000000000000002e-02  5.99999899999999978e-03  8.68039699999999942e-03
1.20000000000000002e-02  5.99999899999999978e-03  1.52458600000000000e-02
1.20000000000000002e-02  5.99999899999999978e-03  2.15013699999999988e-02
1.20000000000000002e-02  6.00000000000000012e-03  2.76822099999999988e-02
1.20000000000000002e-02  5.99999899999999978e-03  3.38432399999999967e-02
1.20000000000000002e-02  5.99999800000000031e-03  3.99985900000000005e-02
1.20000000000000002e-02  5.99999699999999997e-03  4.61511800000000000e-02
1.20000000000000002e-02  5.99999300000000034e-03  5.22986100000000023e-02
1.20000000000000002e-02  5.99998599999999969e-03  5.84285400000000010e-02
1.20000000000000002e-02  5.99997800000000043e-03  6.44963800000000059e-02
1.20000000000000002e-02  5.99997500000000027e-03  7.03572999999999976e-02
1.20000000000000002e-02  5.99997500000000027e-03  7.56573600000000068e-02
1.20000000000000002e-02  3.00000000000000006e-03  3.07692300000000007e-03
1.20000000000000002e-02  3.00000000000000006e-03  7.41712099999999961e-03
1.20000000000000002e-02  3.00000000000000006e-03  1.04940399999999996e-02
1.20000000000000002e-02  2.99999900000000016e-03  1.37767800000000006e-02
1.20000000000000002e-02  2.99999900000000016e-03  1.68536999999999992e-02
1.20000000000000002e-02  5.99999899999999978e-03  1.19631300000000006e-02
1.20000000000000002e-02  3.00000000000000006e-03  1.99814500000000013e-02
1.20000000000000002e-02  3.00000000000000006e-03  2.30583799999999998e-02
1.20000000000000002e-02  5.99999899999999978e-03  1.83736099999999986e-02
1.20000000000000002e-02  3.00000000000000006e-03  2.61487999999999998e-02
1.20000000000000002e-02  3.00000000000000006e-03  2.92257200000000002e-02
1.20000000000000002e-02  5.99999899999999978e-03  2.45917899999999988e-02
1.20000000000000002e-02  3.00000000000000006e-03  3.23062299999999983e-02
1.20000000000000002e-02  3.00000000000000006e-03  3.53831599999999968e-02
1.20000000000000002e-02  5.99999899999999978e-03  3.07627200000000003e-02
1.20000000000000002e-02  2.99999900000000016e-03  3.84608300000000014e-02
1.20000000000000002e-02  2.99999900000000016e-03  4.15377499999999983e-02
1.20000000000000002e-02  5.99999899999999978e-03  3.69209100000000012e-02
1.20000000000000002e-02  2.99999799999999981e-03  4.46140500000000023e-02
1.20000000000000002e-02  2.99999799999999981e-03  4.76909800000000009e-02
1.20000000000000002e-02  5.99999800000000031e-03  4.30748800000000029e-02
1.20000000000000002e-02  2.99999699999999991e-03  5.07646900000000012e-02
1.20000000000000002e-02  2.99999699999999991e-03  5.38416099999999981e-02
1.20000000000000002e-02  5.99999500000000015e-03  4.92249000000000020e-02
1.20000000000000002e-02  2.99999299999999984e-03  5.69065799999999983e-02
1.20000000000000002e-02  2.99999299999999984e-03  5.99835000000000021e-02
1.20000000000000002e-02  5.99999000000000018e-03  5.53635800000000025e-02
1.20000000000000002e-02  2.99998900000000021e-03  6.30174200000000045e-02
1.20000000000000002e-02  2.99998900000000021e-03  6.60943499999999962e-02
1.20000000000000002e-02  5.99998200000000006e-03  6.14624599999999965e-02
1.20000000000000002e-02  2.99998799999999987e-03  6.90248100000000059e-02
1.20000000000000002e-02  2.99998799999999987e-03  7.21017300000000028e-02
1.20000000000000002e-02  5.99997700000000009e-03  6.74268400000000018e-02
1.20000000000000002e-02  2.99998699999999997e-03  7.47517600000000004e-02
1.20000000000000002e-02  2.99998699999999997e-03  7.78286799999999973e-02
1.20000000000000002e-02  5.99998700000000003e-03  7.78286799999999973e-02
1.20000000000000002e-02  5.99997500000000027e-03  7.30073299999999953e-02
1.20000000000000002e-02  8.99998699999999922e-03  7.78286799999999973e-02
1.20000000000000002e-02  8.99999999999999932e-03  3.07692300000000007e-03
[...]
POINT_DATA 281

SCALARS Rank unsigned_int
LOOKUP_TABLE default
0 0 0 0 0 0 0 0 0 0 0 0 0 0 0 0 0 0 0 0 0 0 0 0 0 0 0 0 0 0 0 0 0 0 0 0 0 0 0 0 0 0 0 0 0 0 0 0 0 0 0 0 0 0 0 0 0 0 0 0 0 0 0 0 0 0 0 0 0 0 0 0 0 0 0 0 0 0 0 0 0 0 0 0 0 0 0 0 0 0 0 0 0 0 0 0 0 0 0 0 0 0 0 0 0 0 0 0 0 0 0 0 0 0 0 0 0 0 0 0 0 0 0 0 0 0 0 0 0 0 0 0 0 0 0 0 0 0 0 0 0 0 0 0 0 0 0 0 0 0 0 0 0 0 0 0 0 0 0 0 0 0 0 0 0 0 0 0 0 0 0 0 0 0 0 0 0 0 0 0 0 0 0 0 0 0 0 0 0 0 0 0 0 0 0 0 0 0 0 0 0 0 0 0 0 0 0 0 0 0 0 0 0 0 0 0 0 0 0 0 0 0 0 0 0 0 0 0 0 0 0 0 0 0 0 0 0 0 0 0 0 0 0 0 0 0 0 0 0 0 0 0 0 0 0 0 0 0 0 0 0 0 0 0 0 0 0 0 0 0 0 0 0 0 0 0 0 0 0 0 0 

VECTORS Forces0 double
2.45001514869285404e-02 0.00000000000000000e+00 -2.87344942795775445e-03 
2.23663037397857055e-02 0.00000000000000000e+00 -3.86717167339852962e-03 
1.57692948206423975e-02 0.00000000000000000e+00 -2.90410716148997976e-03 
8.04238676257230597e-03 0.00000000000000000e+00 -1.53969523553540953e-03 
3.93288902175601307e-04 0.00000000000000000e+00 -7.41739123495839661e-05 
-3.19612749320768823e-03 0.00000000000000000e+00 6.27437198747995604e-04 
-3.04912897534874569e-03 0.00000000000000000e+00 6.03786068576029765e-04 
2.41658822153359570e-02 0.00000000000000000e+00 -3.63182229194625563e-03 
1.94844725324609773e-02 0.00000000000000000e+00 -3.58270917606684633e-03 
1.19314202602246889e-02 0.00000000000000000e+00 -2.21255869990359243e-03 
4.07705217097696204e-03 0.00000000000000000e+00 -8.10935890698725862e-04 
-2.13319748950325985e-03 0.00000000000000000e+00 4.24051717071324624e-04 
2.31697313592467563e-02 0.00000000000000000e+00 -1.97233172128771219e-03 
2.48199816393115044e-02 0.00000000000000000e+00 -3.21080999689313858e-03 
2.43078117359973069e-02 0.00000000000000000e+00 -2.65872861454643887e-03 
2.15345729821270343e-02 0.00000000000000000e+00 -3.75197155036672203e-03 
2.31136884573822227e-02 0.00000000000000000e+00 -3.94950698448737030e-03 
1.49747982210352033e-02 0.00000000000000000e+00 -2.80067948132687846e-03 
1.66154737619091594e-02 0.00000000000000000e+00 -3.03447551020991600e-03 
6.98112354752733477e-03 0.00000000000000000e+00 -1.33347875789754521e-03 
9.12599847188448783e-03 0.00000000000000000e+00 -1.75478886690882290e-03 
-3.74349780820138801e-04 0.00000000000000000e+00 7.74148994118137855e-05 
1.22160338824472210e-03 0.00000000000000000e+00 -2.39251206311205374e-04 
-3.21406403989836238e-03 0.00000000000000000e+00 6.22558527283064485e-04 
-3.12143861560109162e-03 0.00000000000000000e+00 6.23465348332843928e-04 
-2.75354214075304105e-03 0.00000000000000000e+00 5.53284837071482249e-04 
-3.11827561847868124e-03 0.00000000000000000e+00 6.10869901909696662e-04 
-3.19689020329419482e-03 0.00000000000000000e+00 6.18923342860059093e-04 
-2.75354214076131915e-03 0.00000000000000000e+00 5.53284837069548791e-04 
-3.11827561848869710e-03 0.00000000000000000e+00 6.10869901911872222e-04 
-2.75354214075657728e-03 0.00000000000000000e+00 5.53284837071759154e-04 
2.31697313592420413e-02 0.00000000000000000e+00 -1.97233172128665228e-03 
2.43078117359996244e-02 0.00000000000000000e+00 -2.65872861454755300e-03 
2.48199816393034484e-02 0.00000000000000000e+00 -3.21080999689500341e-03 
2.31136884573785867e-02 0.00000000000000000e+00 -3.94950698448725667e-03 
2.15345729821347989e-02 0.00000000000000000e+00 -3.75197155036712405e-03 
1.66154737619097562e-02 0.00000000000000000e+00 -3.03447551020958901e-03 
1.49747982210342960e-02 0.00000000000000000e+00 -2.80067948132583762e-03 
9.12599847187943458e-03 0.00000000000000000e+00 -1.75478886690977266e-03 
6.98112354753276879e-03 0.00000000000000000e+00 -1.33347875789798171e-03 
1.22160338824675607e-03 0.00000000000000000e+00 -2.39251206311579640e-04 
-3.74349780825058043e-04 0.00000000000000000e+00 7.74148994141378812e-05 
-3.12143861559267301e-03 0.00000000000000000e+00 6.23465348332144617e-04 
-3.21406403990505711e-03 0.00000000000000000e+00 6.22558527283018732e-04 
2.37918474885139633e-02 0.00000000000000000e+00 -2.20204514602361260e-03 
2.45803496630673593e-02 0.00000000000000000e+00 -3.56762515912321032e-03 
2.49670889394038170e-02 0.00000000000000000e+00 -3.45388056947937673e-03 
2.37855125082211544e-02 0.00000000000000000e+00 -3.73391210575229303e-03 
2.34884693262333924e-02 0.00000000000000000e+00 -3.85366976577751399e-03 
1.75572643859058033e-02 0.00000000000000000e+00 -3.20923387757039410e-03 
1.85701291467114012e-02 0.00000000000000000e+00 -3.41871540517145033e-03 
2.01273295175980575e-02 0.00000000000000000e+00 -3.62441690180388080e-03 
1.85701291467091738e-02 0.00000000000000000e+00 -3.41871540517178774e-03 
1.00924702603293788e-02 0.00000000000000000e+00 -1.91882990009131392e-03 
1.09877915612164659e-02 0.00000000000000000e+00 -2.05396343404317186e-03 
1.29544570550525432e-02 0.00000000000000000e+00 -2.40953666066641902e-03 
1.09877915612200602e-02 0.00000000000000000e+00 -2.05396343404288259e-03 
2.12906236234748029e-03 0.00000000000000000e+00 -4.21453992652634046e-04 
3.08231305840587664e-03 0.00000000000000000e+00 -6.13744444044053749e-04 
5.02260449278830665e-03 0.00000000000000000e+00 -9.80975944871543886e-04 
3.08231305840879271e-03 0.00000000000000000e+00 -6.13744444045313266e-04 
-2.90529645247267036e-03 0.00000000000000000e+00 5.86941621605308896e-04 
-2.59716793469704334e-03 0.00000000000000000e+00 5.21407474547337072e-04 
-1.62781082246143288e-03 0.00000000000000000e+00 3.22089528174820136e-04 
-2.59716793469754554e-03 0.00000000000000000e+00 5.21407474547611050e-04 
5.97624893694552635e-03 0.00000000000000000e+00 -1.14794168331328723e-03 
2.37855125082223375e-02 0.00000000000000000e+00 -3.73391210575371290e-03 
2.07855162220542851e-02 0.00000000000000000e+00 -3.66714259186403779e-03 
2.01273295176030952e-02 0.00000000000000000e+00 -3.62441690180517447e-03 
2.45803496630684210e-02 0.00000000000000000e+00 -3.56762515912467876e-03 
1.40205514900015472e-02 0.00000000000000000e+00 -2.62838140409846861e-03 
1.29544570550554992e-02 0.00000000000000000e+00 -2.40953666066490808e-03 
5.02260449278637937e-03 0.00000000000000000e+00 -9.80975944871631273e-04 
-1.02325133039962669e-03 0.00000000000000000e+00 2.03463696961097721e-04 
-1.62781082245257039e-03 0.00000000000000000e+00 3.22089528174300261e-04 
5.99139253206880753e-04 0.00000000000000000e+00 2.08592127986760781e-05 
-2.39734516020941122e-03 0.00000000000000000e+00 5.02297243281372985e-04 
-5.90987657899978377e-04 0.00000000000000000e+00 4.33570953883444764e-04 
-5.90987657904252736e-04 0.00000000000000000e+00 4.33570953884412089e-04 
-5.90987657900772880e-04 0.00000000000000000e+00 4.33570953882239781e-04 
5.99139253214797164e-04 0.00000000000000000e+00 2.08592128015101826e-05 
-5.90987657901157989e-04 0.00000000000000000e+00 4.33570953882054166e-04 
2.12358154459890147e-02 0.00000000000000000e+00 -1.41222436805850393e-03 
-2.07798394026161056e-05 0.00000000000000000e+00 -8.25143809941780498e-05 
2.06215090681382559e-04 0.00000000000000000e+00 -2.00058460229133288e-04 
1.84008571120080906e-04 0.00000000000000000e+00 -1.40038329809802261e-04 
8.67248998216475639e-05 0.00000000000000000e+00 -2.12209040878389290e-05 
3.46774399329967772e-05 0.00000000000000000e+00 5.95118064491546140e-05 
4.05498150990216992e-05 0.00000000000000000e+00 6.62563378825292172e-05 
3.25337008520244276e-05 0.00000000000000000e+00 2.97514206272138325e-05 
-3.99050584357898221e-05 0.00000000000000000e+00 1.36128842756822194e-06 
-1.10445911081889935e-04 0.00000000000000000e+00 -8.17256706520417112e-07 
-2.69126281486235049e-05 0.00000000000000000e+00 -1.71362566033177953e-06 
2.62941736379462821e-04 0.00000000000000000e+00 -2.03404375328398589e-05 
5.57884754722512703e-04 0.00000000000000000e+00 -2.50971643037850283e-05 
-4.09975758056545139e-04 0.00000000000000000e+00 2.05584035269910882e-04 
-9.75256063927059990e-05 0.00000000000000000e+00 -3.25619967892602316e-05 
7.35654186569449452e-05 0.00000000000000000e+00 -1.38576486867093038e-04 
1.83286651702829349e-04 0.00000000000000000e+00 -1.93424770639548632e-04 
2.17756843026024660e-04 0.00000000000000000e+00 -1.96978842690120209e-04 
1.32753861253365223e-04 0.00000000000000000e+00 -1.70356900499151327e-04 
2.03950552022613165e-04 0.00000000000000000e+00 -1.65058224281501998e-04 
1.60226002746206712e-04 0.00000000000000000e+00 -1.11083764485694726e-04 
2.15580160093020213e-04 0.00000000000000000e+00 -1.85067820130686909e-04 
1.09668504527730244e-04 0.00000000000000000e+00 -5.01136837454744570e-05 
6.72793194374051069e-05 0.00000000000000000e+00 5.13794304348099691e-06 
1.34272607936884242e-04 0.00000000000000000e+00 -8.06126624495120275e-05 
4.07025076804783901e-05 0.00000000000000000e+00 4.62403242013998073e-05 
3.35187843621835612e-05 0.00000000000000000e+00 6.74890889638290645e-05 
5.11649016193706281e-05 0.00000000000000000e+00 2.80816397455221021e-05 
3.73308329489721081e-05 0.00000000000000000e+00 7.04776838465272936e-05 
4.34365331686910366e-05 0.00000000000000000e+00 5.89156337285761476e-05 
3.44699215344177495e-05 0.00000000000000000e+00 7.11359328131528951e-05 
4.07719132954412268e-05 0.00000000000000000e+00 3.95831805072765626e-05 
1.96123370704952215e-05 0.00000000000000000e+00 2.05293610935825652e-05 
4.40448704677105603e-05 0.00000000000000000e+00 4.96820342698958502e-05 
-1.75167669099144219e-05 0.00000000000000000e+00 5.95022285880503697e-06 
-6.39535754557967861e-05 0.00000000000000000e+00 -9.96127939226403756e-07 
2.85968045044829043e-06 0.00000000000000000e+00 1.24684480602394979e-05 
-1.02142850494076247e-04 0.00000000000000000e+00 -1.50080947509038716e-06 
-1.09130448082529042e-04 0.00000000000000000e+00 3.21833372384726990e-08 
-8.51565609512899987e-05 0.00000000000000000e+00 -1.82343643607782350e-06 
-6.86870989722183618e-05 0.00000000000000000e+00 1.98268130157816513e-07 
3.40835384256809110e-05 0.00000000000000000e+00 -5.40433595220752397e-06 
-9.60234550240846670e-05 0.00000000000000000e+00 5.33247115569345217e-07 
1.83931901264140790e-04 0.00000000000000000e+00 -1.55003884301940464e-05 
3.69949479499658734e-04 0.00000000000000000e+00 -2.57290580260934318e-05 
9.75974670388087576e-05 0.00000000000000000e+00 -9.79861061527352361e-06 
5.18410768692049322e-04 0.00000000000000000e+00 -2.75954242715928669e-05 
6.15685647521633356e-04 0.00000000000000000e+00 -1.00932071984833071e-05 
6.15685647532238155e-04 0.00000000000000000e+00 -1.00932071984054614e-05 
4.24142459935181214e-04 0.00000000000000000e+00 -2.75214924798489271e-05 
6.15685647525662252e-04 0.00000000000000000e+00 -1.00932071955843673e-05 
-4.09975758064462417e-04 0.00000000000000000e+00 2.05584035269074420e-04 
7.35654186554235927e-05 0.00000000000000000e+00 -1.38576486867798528e-04 
-9.75256063885253155e-05 0.00000000000000000e+00 -3.25619967903207982e-05 
2.17756843020230684e-04 0.00000000000000000e+00 -1.96978842688466801e-04 
1.83286651699038979e-04 0.00000000000000000e+00 -1.93424770638836745e-04 
1.60226002743280233e-04 0.00000000000000000e+00 -1.11083764486478171e-04 
2.03950552021648658e-04 0.00000000000000000e+00 -1.65058224282883922e-04 
6.72793194374614854e-05 0.00000000000000000e+00 5.13794304510079496e-06 
1.09668504527514271e-04 0.00000000000000000e+00 -5.01136837456709144e-05 
3.35187843581130325e-05 0.00000000000000000e+00 6.74890889636861667e-05 
4.07025076799224112e-05 0.00000000000000000e+00 4.62403242006779455e-05 
4.34365331739593917e-05 0.00000000000000000e+00 5.89156337273241110e-05 
3.73308329495029335e-05 0.00000000000000000e+00 7.04776838461556291e-05 
1.96123370693509545e-05 0.00000000000000000e+00 2.05293610942705999e-05 
4.07719132907631112e-05 0.00000000000000000e+00 3.95831805074245562e-05 
-6.39535754570942508e-05 0.00000000000000000e+00 -9.96127939306905767e-07 
-1.75167669080858065e-05 0.00000000000000000e+00 5.95022285658437408e-06 
-1.09130448082167135e-04 0.00000000000000000e+00 3.21833382050118308e-08 
-1.02142850494251562e-04 0.00000000000000000e+00 -1.50080947400480263e-06 
3.40835384159137673e-05 0.00000000000000000e+00 -5.40433595311164016e-06 
-6.86870989697259979e-05 0.00000000000000000e+00 1.98268130491615256e-07 
3.69949479498723284e-04 0.00000000000000000e+00 -2.57290580263414973e-05 
1.83931901257250468e-04 0.00000000000000000e+00 -1.55003884312199185e-05 
-3.14691061329067990e-04 0.00000000000000000e+00 1.25881841428666024e-04 
5.18410768694959321e-04 0.00000000000000000e+00 -2.75954242715796396e-05 
-2.39734516020611394e-03 0.00000000000000000e+00 5.02297243280111190e-04 
2.41391546281514227e-02 0.00000000000000000e+00 -2.46583176184686807e-03 
2.49297353665121381e-02 0.00000000000000000e+00 -3.48713712950650834e-03 
2.34718166215173787e-02 0.00000000000000000e+00 -3.86069152210366615e-03 
2.07748318303452202e-02 0.00000000000000000e+00 -3.66619347805325051e-03 
1.75530915428696033e-02 0.00000000000000000e+00 -3.20840049788375043e-03 
1.40190629210873632e-02 0.00000000000000000e+00 -2.62807516447674918e-03 
1.00912849926127236e-02 0.00000000000000000e+00 -1.91865327030334089e-03 
5.97251248411400509e-03 0.00000000000000000e+00 -1.14727269225922907e-03 
2.11623074009990994e-03 0.00000000000000000e+00 -4.18867115920663435e-04 
-1.05461568047768989e-03 0.00000000000000000e+00 2.09563125367024988e-04 
-2.95539577379942426e-03 0.00000000000000000e+00 5.97230382746961647e-04 
-3.16677801500116207e-03 0.00000000000000000e+00 6.15305426764599264e-04 
2.31697313592429538e-02 0.00000000000000000e+00 -1.97233172128841693e-03 
2.45937484800767790e-02 0.00000000000000000e+00 -2.97322163062200846e-03 
2.41290307239726970e-02 0.00000000000000000e+00 -3.63900019624007354e-03 
2.23462124192393106e-02 0.00000000000000000e+00 -3.86433156929229422e-03 
1.94797859106060484e-02 0.00000000000000000e+00 -3.58222566890300685e-03 
1.57677771218931173e-02 0.00000000000000000e+00 -2.90389953490708839e-03 
1.19305186919195869e-02 0.00000000000000000e+00 -2.21239565806703644e-03 
8.04050774825421262e-03 0.00000000000000000e+00 -1.53932233731846643e-03 
4.07121843076664516e-03 0.00000000000000000e+00 -8.09810229031345755e-04 
3.76120587150751112e-04 0.00000000000000000e+00 -7.07654596372646279e-05 
-2.17083310729175062e-03 0.00000000000000000e+00 4.31803944198011795e-04 
-3.20732016520806256e-03 0.00000000000000000e+00 6.26808114006541478e-04 
-2.89301939905150639e-03 0.00000000000000000e+00 5.77675497996018054e-04 
-1.75309955604271463e-03 0.00000000000000000e+00 4.16296481675830976e-04 
-1.75309955603494762e-03 0.00000000000000000e+00 4.16296481675538946e-04 
3.47202188975572794e-06 0.00000000000000000e+00 1.41156462719852995e-04 
3.47202189444425181e-06 0.00000000000000000e+00 1.41156462718948120e-04 
-8.65065088738908188e-04 0.00000000000000000e+00 3.01590815549090409e-04 
-8.65065088748217148e-04 0.00000000000000000e+00 3.01590815548425793e-04 
-1.75309955603520219e-03 0.00000000000000000e+00 4.16296481677245805e-04 
3.47202189779183444e-06 0.00000000000000000e+00 1.41156462721431594e-04 
5.99139253202252945e-04 0.00000000000000000e+00 2.08592127994829414e-05 
5.99139253201259382e-04 0.00000000000000000e+00 2.08592127978932842e-05 
5.99139253201163972e-04 0.00000000000000000e+00 2.08592127984676945e-05 
-2.39734516020883399e-03 0.00000000000000000e+00 5.02297243284459925e-04 
-2.39734516020756461e-03 0.00000000000000000e+00 5.02297243282223216e-04 
-2.39734516020963023e-03 0.00000000000000000e+00 5.02297243283256136e-04 
-1.82048857507886288e-04 0.00000000000000000e+00 2.62927334514231905e-05 
1.44094961217806108e-04 0.00000000000000000e+00 -1.76062857161301840e-04 
2.15155834414741779e-04 0.00000000000000000e+00 -1.84153682127500260e-04 
1.33879946641261984e-04 0.00000000000000000e+00 -8.01428050598291912e-05 
5.11080694225084177e-05 0.00000000000000000e+00 2.81691151092802763e-05 
3.44725909053817455e-05 0.00000000000000000e+00 7.11380432244621046e-05 
4.40434909793011386e-05 0.00000000000000000e+00 4.96689279325790892e-05 
2.78798840031959028e-06 0.00000000000000000e+00 1.24404275695362759e-05 
-8.54256163074309822e-05 0.00000000000000000e+00 -1.82554773538572883e-06 
-9.50217992892372378e-05 0.00000000000000000e+00 5.42003961777285003e-07 
1.11360975226837210e-04 0.00000000000000000e+00 -1.07593293031163812e-05 
4.71943415030270084e-04 0.00000000000000000e+00 -2.82627808353117953e-05 
-4.09975758059129877e-04 0.00000000000000000e+00 2.05584035271249221e-04 
9.69682233657832507e-06 0.00000000000000000e+00 -1.01476045524704668e-04 
2.07698374554309961e-04 0.00000000000000000e+00 -2.00192754551972740e-04 
1.83464419312074094e-04 0.00000000000000000e+00 -1.39378417232649912e-04 
8.65850319602855722e-05 0.00000000000000000e+00 -2.10386041307868606e-05 
3.46708809858358558e-05 0.00000000000000000e+00 5.95318688174469512e-05 
4.05527670606774615e-05 0.00000000000000000e+00 6.62509281010624989e-05 
3.25151242862393435e-05 0.00000000000000000e+00 2.97347738644142003e-05 
-4.00455220729553559e-05 0.00000000000000000e+00 1.34143963299053067e-06 
-1.10527182805749346e-04 0.00000000000000000e+00 -7.99702329754995219e-07 
-2.29146641379421048e-05 0.00000000000000000e+00 -1.93365132225872583e-06 
2.88237924913812801e-04 0.00000000000000000e+00 -2.17847343002049916e-05 
5.99400646596275912e-04 0.00000000000000000e+00 -1.81281530450415276e-05 
2.12358154459950585e-02 0.00000000000000000e+00 -1.41222436806104790e-03 
2.12358154459986077e-02 0.00000000000000000e+00 -1.41222436806160735e-03 
2.12358154459940281e-02 0.00000000000000000e+00 -1.41222436806156095e-03 
-8.65065088750498960e-04 0.00000000000000000e+00 3.01590815546581349e-04 
-1.75309955603699199e-03 0.00000000000000000e+00 4.16296481675051272e-04 
3.47202189548465222e-06 0.00000000000000000e+00 1.41156462718218886e-04 
-1.82048857509938466e-04 0.00000000000000000e+00 2.62927334535728382e-05 
1.44094961216994258e-04 0.00000000000000000e+00 -1.76062857163029299e-04 
2.15155834409685060e-04 0.00000000000000000e+00 -1.84153682126601890e-04 
1.33879946642183123e-04 0.00000000000000000e+00 -8.01428050605111544e-05 
5.11080694208552262e-05 0.00000000000000000e+00 2.81691151095656383e-05 
3.44725909067218194e-05 0.00000000000000000e+00 7.11380432237283166e-05 
4.40434909802535018e-05 0.00000000000000000e+00 4.96689279326966167e-05 
2.78798840062707002e-06 0.00000000000000000e+00 1.24404275691121360e-05 
-8.54256163081760459e-05 0.00000000000000000e+00 -1.82554773496527522e-06 
-9.50217992877798532e-05 0.00000000000000000e+00 5.42003961120515985e-07 
1.11360975225590595e-04 0.00000000000000000e+00 -1.07593293013499990e-05 
4.71943415031574162e-04 0.00000000000000000e+00 -2.82627808365521225e-05 
-4.09975758057488828e-04 0.00000000000000000e+00 2.05584035273036528e-04 
9.69682233281224040e-06 0.00000000000000000e+00 -1.01476045524274240e-04 
2.07698374550981026e-04 0.00000000000000000e+00 -2.00192754550914342e-04 
1.83464419308769445e-04 0.00000000000000000e+00 -1.39378417233489843e-04 
8.65850319602170506e-05 0.00000000000000000e+00 -2.10386041310720057e-05 
3.46708809860370837e-05 0.00000000000000000e+00 5.95318688171355683e-05 
4.05527670602290354e-05 0.00000000000000000e+00 6.62509281017008772e-05 
3.25151242861807966e-05 0.00000000000000000e+00 2.97347738652492528e-05 
-4.00455220735400661e-05 0.00000000000000000e+00 1.34143963350319566e-06 
-1.10527182803574762e-04 0.00000000000000000e+00 -7.99702329517405866e-07 
-2.29146641381160108e-05 0.00000000000000000e+00 -1.93365132168610445e-06 
2.88237924910884154e-04 0.00000000000000000e+00 -2.17847342993729749e-05 
5.99400646596523544e-04 0.00000000000000000e+00 -1.81281530447112797e-05 
2.12358154459901319e-02 0.00000000000000000e+00 -1.41222436806344009e-03 
2.41391546281546909e-02 0.00000000000000000e+00 -2.46583176184794056e-03 
2.49297353665117669e-02 0.00000000000000000e+00 -3.48713712950652569e-03 
2.34718166215197484e-02 0.00000000000000000e+00 -3.86069152210394458e-03 
2.07748318303451508e-02 0.00000000000000000e+00 -3.66619347805322406e-03 
1.75530915428715011e-02 0.00000000000000000e+00 -3.20840049788370359e-03 
1.40190629210919827e-02 0.00000000000000000e+00 -2.62807516447550191e-03 