# vtk DataFile Version 2.0

ASCII

DATASET UNSTRUCTURED_GRID

POINTS 281 double 

0.00000000000000000e+00  6.00000000000000012e-03  8.68039800000000063e-03
0.00000000000000000e+00  6.00000000000000012e-03  2.15013699999999988e-02
0.00000000000000000e+00  5.99999699999999997e-03  3.38432499999999983e-02
0.00000000000000000e+00  6.00000000000000012e-03  4.61511800000000000e-02
0.00000000000000000e+00  5.99999399999999981e-03  5.84285100000000029e-02
0.00000000000000000e+00  5.99999899999999978e-03  7.03572799999999943e-02
0.00000000000000000e+00  6.00000000000000012e-03  7.56573400000000035e-02
0.00000000000000000e+00  6.00000000000000012e-03  1.52458600000000000e-02
0.00000000000000000e+00  5.99999899999999978e-03  2.76822099999999988e-02
0.00000000000000000e+00  5.99999899999999978e-03  3.99985900000000005e-02
0.00000000000000000e+00  5.99999800000000031e-03  5.22986000000000006e-02
0.00000000000000000e+00  5.99999800000000031e-03  6.44963600000000026e-02
0.00000000000000000e+00  3.00000000000000006e-03  3.07692300000000007e-03
0.00000000000000000e+00  3.00000000000000006e-03  1.04940499999999996e-02
0.00000000000000000e+00  3.00000000000000006e-03  7.41712199999999995e-03
0.00000000000000000e+00  3.00000000000000006e-03  2.30583799999999998e-02
0.00000000000000000e+00  3.00000000000000006e-03  1.99814599999999995e-02
0.00000000000000000e+00  2.99999900000000016e-03  3.53831699999999985e-02
0.00000000000000000e+00  2.99999900000000016e-03  3.23062400000000000e-02
0.00000000000000000e+00  3.00000000000000006e-03  4.76909699999999992e-02
0.00000000000000000e+00  3.00000000000000006e-03  4.46140500000000023e-02
0.00000000000000000e+00  2.99999699999999991e-03  5.99834799999999987e-02
0.00000000000000000e+00  2.99999699999999991e-03  5.69065600000000019e-02
0.00000000000000000e+00  2.99999900000000016e-03  7.21017199999999941e-02
0.00000000000000000e+00  2.99999900000000016e-03  6.90247900000000025e-02
0.00000000000000000e+00  3.00000000000000006e-03  7.78286700000000026e-02
0.00000000000000000e+00  3.00000000000000006e-03  7.47517500000000057e-02
0.00000000000000000e+00  5.99999899999999978e-03  7.30073100000000058e-02
0.00000000000000000e+00  6.00000000000000012e-03  7.78286700000000026e-02
0.00000000000000000e+00  8.99999999999999932e-03  7.47517500000000057e-02
0.00000000000000000e+00  8.99999999999999932e-03  7.78286700000000026e-02
0.00000000000000000e+00  8.99999999999999932e-03  3.07692300000000007e-03
0.00000000000000000e+00  8.99999999999999932e-03  7.41712199999999995e-03
0.00000000000000000e+00  8.99999999999999932e-03  1.04940499999999996e-02
0.00000000000000000e+00  8.99999999999999932e-03  1.99814599999999995e-02
0.00000000000000000e+00  8.99999999999999932e-03  2.30583799999999998e-02
0.00000000000000000e+00  8.99999899999999985e-03  3.23062400000000000e-02
0.00000000000000000e+00  8.99999899999999985e-03  3.53831699999999985e-02
0.00000000000000000e+00  8.99999999999999932e-03  4.46140500000000023e-02
0.00000000000000000e+00  8.99999999999999932e-03  4.76909699999999992e-02
0.00000000000000000e+00  8.99999699999999916e-03  5.69065600000000019e-02
0.00000000000000000e+00  8.99999699999999916e-03  5.99834799999999987e-02
0.00000000000000000e+00  8.99999899999999985e-03  6.90247900000000025e-02
0.00000000000000000e+00  8.99999899999999985e-03  7.21017199999999941e-02
0.00000000000000000e+00  6.00000000000000012e-03  4.34019900000000031e-03
0.00000000000000000e+00  3.00000000000000006e-03  1.37767800000000006e-02
0.00000000000000000e+00  6.00000000000000012e-03  1.19631300000000006e-02
0.00000000000000000e+00  3.00000000000000006e-03  1.68536999999999992e-02
0.00000000000000000e+00  6.00000000000000012e-03  1.83736200000000002e-02
0.00000000000000000e+00  5.99999800000000031e-03  3.07627299999999985e-02
0.00000000000000000e+00  3.00000000000000006e-03  2.92257200000000002e-02
0.00000000000000000e+00  3.00000000000000006e-03  2.61487999999999998e-02
0.00000000000000000e+00  8.99999999999999932e-03  2.92257200000000002e-02
0.00000000000000000e+00  6.00000000000000012e-03  4.30748800000000029e-02
0.00000000000000000e+00  2.99999900000000016e-03  4.15377600000000000e-02
0.00000000000000000e+00  2.99999900000000016e-03  3.84608300000000014e-02
0.00000000000000000e+00  8.99999899999999985e-03  4.15377600000000000e-02
0.00000000000000000e+00  5.99999599999999963e-03  5.53635499999999975e-02
0.00000000000000000e+00  2.99999900000000016e-03  5.38416099999999981e-02
0.00000000000000000e+00  2.99999900000000016e-03  5.07646799999999995e-02
0.00000000000000000e+00  8.99999899999999985e-03  5.38416099999999981e-02
0.00000000000000000e+00  5.99999800000000031e-03  6.74268199999999984e-02
0.00000000000000000e+00  2.99999900000000016e-03  6.60943300000000067e-02
0.00000000000000000e+00  2.99999900000000016e-03  6.30174099999999959e-02
0.00000000000000000e+00  8.99999899999999985e-03  6.60943300000000067e-02
0.00000000000000000e+00  5.99999899999999978e-03  4.92248900000000003e-02
0.00000000000000000e+00  8.99999999999999932e-03  1.68536999999999992e-02
0.00000000000000000e+00  5.99999899999999978e-03  2.45917899999999988e-02
0.00000000000000000e+00  8.99999999999999932e-03  2.61487999999999998e-02
0.00000000000000000e+00  8.99999999999999932e-03  1.37767800000000006e-02
0.00000000000000000e+00  5.99999800000000031e-03  3.69209200000000029e-02
0.00000000000000000e+00  8.99999899999999985e-03  3.84608300000000014e-02
0.00000000000000000e+00  8.99999899999999985e-03  5.07646799999999995e-02
0.00000000000000000e+00  5.99999599999999963e-03  6.14624299999999985e-02
0.00000000000000000e+00  8.99999899999999985e-03  6.30174099999999959e-02
1.20000000000000002e-02  1.20000000000000002e-02  8.00000000000000017e-02
0.00000000000000000e+00  0.00000000000000000e+00  8.00000000000000017e-02
1.20000000000000002e-02  6.00000000000000012e-03  0.00000000000000000e+00
1.20000000000000002e-02  3.00000000000000006e-03  0.00000000000000000e+00
1.20000000000000002e-02  8.99999999999999932e-03  0.00000000000000000e+00
1.20000000000000002e-02  0.00000000000000000e+00  8.00000000000000017e-02
1.20000000000000002e-02  0.00000000000000000e+00  0.00000000000000000e+00
0.00000000000000000e+00  1.20000000000000002e-02  0.00000000000000000e+00
1.20000000000000002e-02  5.99999899999999978e-03  8.68039699999999942e-03
1.20000000000000002e-02  5.99999899999999978e-03  1.52458600000000000e-02
1.20000000000000002e-02  5.99999899999999978e-03  2.15013699999999988e-02
1.20000000000000002e-02  6.00000000000000012e-03  2.76822099999999988e-02
1.20000000000000002e-02  5.99999899999999978e-03  3.38432399999999967e-02
1.20000000000000002e-02  5.99999800000000031e-03  3.99985900000000005e-02
1.20000000000000002e-02  5.99999699999999997e-03  4.61511800000000000e-02
1.20000000000000002e-02  5.99999300000000034e-03  5.22986100000000023e-02
1.20000000000000002e-02  5.99998599999999969e-03  5.84285400000000010e-02
1.20000000000000002e-02  5.99997800000000043e-03  6.44963800000000059e-02
1.20000000000000002e-02  5.99997500000000027e-03  7.03572999999999976e-02
1.20000000000000002e-02  5.99997500000000027e-03  7.56573600000000068e-02
1.20000000000000002e-02  3.00000000000000006e-03  3.07692300000000007e-03
1.20000000000000002e-02  3.00000000000000006e-03  7.41712099999999961e-03
1.20000000000000002e-02  3.00000000000000006e-03  1.04940399999999996e-02
1.20000000000000002e-02  2.99999900000000016e-03  1.37767800000000006e-02
1.20000000000000002e-02  2.99999900000000016e-03  1.68536999999999992e-02
1.20000000000000002e-02  5.99999899999999978e-03  1.19631300000000006e-02
1.20000000000000002e-02  3.00000000000000006e-03  1.99814500000000013e-02
1.20000000000000002e-02  3.00000000000000006e-03  2.30583799999999998e-02
1.20000000000000002e-02  5.99999899999999978e-03  1.83736099999999986e-02
1.20000000000000002e-02  3.00000000000000006e-03  2.61487999999999998e-02
1.20000000000000002e-02  3.00000000000000006e-03  2.92257200000000002e-02
1.20000000000000002e-02  5.99999899999999978e-03  2.45917899999999988e-02
1.20000000000000002e-02  3.00000000000000006e-03  3.23062299999999983e-02
1.20000000000000002e-02  3.00000000000000006e-03  3.53831599999999968e-02
1.20000000000000002e-02  5.99999899999999978e-03  3.07627200000000003e-02
1.20000000000000002e-02  2.99999900000000016e-03  3.84608300000000014e-02
1.20000000000000002e-02  2.99999900000000016e-03  4.15377499999999983e-02
1.20000000000000002e-02  5.99999899999999978e-03  3.69209100000000012e-02
1.20000000000000002e-02  2.99999799999999981e-03  4.46140500000000023e-02
1.20000000000000002e-02  2.99999799999999981e-03  4.76909800000000009e-02
1.20000000000000002e-02  5.99999800000000031e-03  4.30748800000000029e-02
1.20000000000000002e-02  2.99999699999999991e-03  5.07646900000000012e-02
1.20000000000000002e-02  2.99999699999999991e-03  5.38416099999999981e-02
1.20000000000000002e-02  5.99999500000000015e-03  4.92249000000000020e-02
1.20000000000000002e-02  2.99999299999999984e-03  5.69065799999999983e-02
1.20000000000000002e-02  2.99999299999999984e-03  5.99835000000000021e-02
1.20000000000000002e-02  5.99999000000000018e-03  5.53635800000000025e-02
1.20000000000000002e-02  2.99998900000000021e-03  6.30174200000000045e-02
1.20000000000000002e-02  2.99998900000000021e-03  6.60943499999999962e-02
1.20000000000000002e-02  5.99998200000000006e-03  6.14624599999999965e-02
1.20000000000000002e-02  2.99998799999999987e-03  6.90248100000000059e-02
1.20000000000000002e-02  2.99998799999999987e-03  7.21017300000000028e-02
1.20000000000000002e-02  5.99997700000000009e-03  6.74268400000000018e-02
1.20000000000000002e-02  2.99998699999999997e-03  7.47517600000000004e-02
1.20000000000000002e-02  2.99998699999999997e-03  7.78286799999999973e-02
1.20000000000000002e-02  5.99998700000000003e-03  7.78286799999999973e-02
1.20000000000000002e-02  5.99997500000000027e-03  7.30073299999999953e-02
1.20000000000000002e-02  8.99998699999999922e-03  7.78286799999999973e-02
1.20000000000000002e-02  8.99999999999999932e-03  3.07692300000000007e-03
[...]
POINT_DATA 281

SCALARS Rank unsigned_int
LOOKUP_TABLE default
0 0 0 0 0 0 0 0 0 0 0 0 0 0 0 0 0 0 0 0 0 0 0 0 0 0 0 0 0 0 0 0 0 0 0 0 0 0 0 0 0 0 0 0 0 0 0 0 0 0 0 0 0 0 0 0 0 0 0 0 0 0 0 0 0 0 0 0 0 0 0 0 0 0 0 0 0 0 0 0 0 0 0 0 0 0 0 0 0 0 0 0 0 0 0 0 0 0 0 0 0 0 0 0 0 0 0 0 0 0 0 0 0 0 0 0 0 0 0 0 0 0 0 0 0 0 0 0 0 0 0 0 0 0 0 0 0 0 0 0 0 0 0 0 0 0 0 0 0 0 0 0 0 0 0 0 0 0 0 0 0 0 0 0 0 0 0 0 0 0 0 0 0 0 0 0 0 0 0 0 0 0 0 0 0 0 0 0 0 0 0 0 0 0 0 0 0 0 0 0 0 0 0 0 0 0 0 0 0 0 0 0 0 0 0 0 0 0 0 0 0 0 0 0 0 0 0 0 0 0 0 0 0 0 0 0 0 0 0 0 0 0 0 0 0 0 0 0 0 0 0 0 0 0 0 0 0 0 0 0 0 0 0 0 0 0 0 0 0 0 0 0 0 0 0 0 0 0 0 0 0 

VECTORS Forces0 double
7.11428667835409701e-06 0.00000000000000000e+00 7.63674369675380531e-08 
6.63215593164624476e-06 0.00000000000000000e+00 -5.20009251149421885e-08 
5.19115565237054051e-06 0.00000000000000000e+00 4.04756687210991572e-08 
3.62873016620045462e-06 0.00000000000000000e+00 -2.75383465526817910e-08 
2.07999852129884003e-06 0.00000000000000000e+00 3.71991498725813194e-08 
5.03378835529315449e-07 0.00000000000000000e+00 -8.51688450572716365e-08 
-1.39807854708560349e-07 0.00000000000000000e+00 -2.30321872792247731e-07 
7.04915612949651694e-06 0.00000000000000000e+00 1.84699693147784562e-08 
5.98995203926227488e-06 0.00000000000000000e+00 -4.19935639814338968e-08 
4.39141618494144350e-06 0.00000000000000000e+00 7.18855513544487438e-08 
2.87651695076928398e-06 0.00000000000000000e+00 -1.05607858084135508e-07 
1.27433260701065190e-06 0.00000000000000000e+00 1.73155181774506081e-07 
6.75241934710220884e-06 0.00000000000000000e+00 7.12798471322627252e-09 
7.18537325537561668e-06 0.00000000000000000e+00 6.99570089324908407e-08 
7.06417872987404512e-06 0.00000000000000000e+00 7.38277593721751237e-08 
6.45076066148069507e-06 0.00000000000000000e+00 -5.90140785011593252e-08 
6.79577939102484740e-06 0.00000000000000000e+00 -3.97312507633256976e-08 
5.02393951962358161e-06 0.00000000000000000e+00 5.91006932208655076e-08 
5.37084601830298555e-06 0.00000000000000000e+00 1.85826151487882770e-08 
3.42297529392175199e-06 0.00000000000000000e+00 -5.99575686620497738e-08 
3.84373879491593320e-06 0.00000000000000000e+00 5.64419331759731084e-09 
1.89010860164572740e-06 0.00000000000000000e+00 9.38649574131102801e-08 
2.26622092406884016e-06 0.00000000000000000e+00 -1.66537031372861168e-08 
2.77352050251571436e-07 0.00000000000000000e+00 -1.87972386756689612e-07 
6.81208800128657195e-07 0.00000000000000000e+00 0.00000000000000000e+00 
-3.51899557325118882e-07 0.00000000000000000e+00 -8.81810824836643960e-08 
-4.07910812654134268e-08 0.00000000000000000e+00 -2.50700458177180984e-07 
1.64654280561409755e-07 0.00000000000000000e+00 -2.26581283548849189e-07 
-3.51899557324733482e-07 0.00000000000000000e+00 -8.81810824779981691e-08 
-4.07910812648738668e-08 0.00000000000000000e+00 -2.50700458182799195e-07 
-3.51899557327818799e-07 0.00000000000000000e+00 -8.81810824756156772e-08 
6.75241934710414176e-06 0.00000000000000000e+00 7.12798470017240954e-09 
7.06417872987387741e-06 0.00000000000000000e+00 7.38277593637757861e-08 
7.18537325537748693e-06 0.00000000000000000e+00 6.99570089500600246e-08 
6.79577939102691755e-06 0.00000000000000000e+00 -3.97312507772753773e-08 
6.45076066147944569e-06 0.00000000000000000e+00 -5.90140785126854584e-08 
5.37084601830115850e-06 0.00000000000000000e+00 1.85826151458127561e-08 
5.02393951962352316e-06 0.00000000000000000e+00 5.91006932240718582e-08 
3.84373879491612632e-06 0.00000000000000000e+00 5.64419331376491027e-09 
3.42297529392147840e-06 0.00000000000000000e+00 -5.99575686605585723e-08 
2.26622092406990361e-06 0.00000000000000000e+00 -1.66537031469091522e-08 
1.89010860164591438e-06 0.00000000000000000e+00 9.38649574168760959e-08 
6.81208800127398504e-07 0.00000000000000000e+00 0.00000000000000000e+00 
2.77352050253278207e-07 0.00000000000000000e+00 -1.87972386761006357e-07 
6.90814106799250321e-06 0.00000000000000000e+00 3.69717359991362947e-08 
7.13673799015795021e-06 0.00000000000000000e+00 3.76018567924943638e-08 
7.21495413864428950e-06 0.00000000000000000e+00 5.80001409386872672e-08 
6.96229200318145831e-06 0.00000000000000000e+00 -3.08558034906884497e-09 
6.88845888380491447e-06 0.00000000000000000e+00 -2.23518029513478972e-08 
5.57232271307539664e-06 0.00000000000000000e+00 -4.06933526210306112e-09 
5.79016809261696179e-06 0.00000000000000000e+00 -2.48131162097358489e-08 
6.13591811110225904e-06 0.00000000000000000e+00 -5.38809384690914698e-08 
5.79016809261819507e-06 0.00000000000000000e+00 -2.48131162096928487e-08 
4.03175565211715032e-06 0.00000000000000000e+00 3.52698087355791171e-08 
4.20437563805503752e-06 0.00000000000000000e+00 5.78276122380116876e-08 
4.60059029741039287e-06 0.00000000000000000e+00 7.63249903738106682e-08 
4.20437563805569736e-06 0.00000000000000000e+00 5.78276122369764546e-08 
2.46325947691157956e-06 0.00000000000000000e+00 -6.19597172386425723e-08 
2.66804079460818160e-06 0.00000000000000000e+00 -9.18505108793148972e-08 
3.05792457762202424e-06 0.00000000000000000e+00 -1.02988907469425530e-07 
2.66804079460894223e-06 0.00000000000000000e+00 -9.18505108758389917e-08 
8.92276571788288508e-07 0.00000000000000000e+00 9.08186779755762789e-08 
1.06454079014858513e-06 0.00000000000000000e+00 1.42626673267164438e-07 
1.47461480158105067e-06 0.00000000000000000e+00 1.69486284251634203e-07 
1.06454079014857962e-06 0.00000000000000000e+00 1.42626673271258677e-07 
3.23365764706425237e-06 0.00000000000000000e+00 -8.66302778458215589e-08 
6.96229200318109239e-06 0.00000000000000000e+00 -3.08558035521886004e-09 
6.28498364169837297e-06 0.00000000000000000e+00 -5.97837310510135566e-08 
6.13591811110203543e-06 0.00000000000000000e+00 -5.38809384626867360e-08 
7.13673799015881842e-06 0.00000000000000000e+00 3.76018568004746318e-08 
4.82318221697826261e-06 0.00000000000000000e+00 7.17587169029150887e-08 
4.60059029740940523e-06 0.00000000000000000e+00 7.63249903804817144e-08 
3.05792457762141988e-06 0.00000000000000000e+00 -1.02988907466970617e-07 
1.68898731309474326e-06 0.00000000000000000e+00 1.39734451769183678e-07 
1.47461480158188945e-06 0.00000000000000000e+00 1.69486284256930171e-07 
1.75551770828138353e-06 0.00000000000000000e+00 2.73141944542187941e-07 
-5.26854065990831519e-07 0.00000000000000000e+00 2.73701044085931384e-07 
-8.75736948543144232e-07 0.00000000000000000e+00 -1.07181002696845091e-07 
-8.75736948543079858e-07 0.00000000000000000e+00 -1.07181002718084416e-07 
-8.75736948547777079e-07 0.00000000000000000e+00 -1.07181002695329604e-07 
1.75551770828298697e-06 0.00000000000000000e+00 2.73141944559982409e-07 
-8.75736948543277640e-07 0.00000000000000000e+00 -1.07181002709423001e-07 
6.26006336563188699e-06 0.00000000000000000e+00 -1.07622561063763667e-07 
-7.23894170322834529e-07 0.00000000000000000e+00 7.68182303354680148e-08 
-4.58645272526602814e-07 0.00000000000000000e+00 1.86859275625267457e-08 
-1.33814386073934098e-07 0.00000000000000000e+00 -5.21274528549366772e-08 
2.66105779391617140e-07 0.00000000000000000e+00 -4.26847845378538500e-08 
7.39141159857529229e-07 0.00000000000000000e+00 3.94476720779300933e-08 
1.28187635097697112e-06 0.00000000000000000e+00 7.06388946895480296e-08 
1.86942814274821159e-06 0.00000000000000000e+00 -2.91569596801532997e-08 
2.43399080943754918e-06 0.00000000000000000e+00 -1.07783532364104316e-07 
2.84284403572881159e-06 0.00000000000000000e+00 3.51359064762134779e-08 
2.99934969796318572e-06 0.00000000000000000e+00 1.71283994234230410e-07 
2.84535497200593435e-06 0.00000000000000000e+00 -8.74747227467300368e-08 
2.39969075574567455e-06 0.00000000000000000e+00 -2.33059935313135851e-07 
-8.70458216308825050e-07 0.00000000000000000e+00 7.72399640532644829e-09 
-7.64961145339145811e-07 0.00000000000000000e+00 7.43296440014176257e-08 
-6.61934267201309204e-07 0.00000000000000000e+00 7.03500560793092525e-08 
-5.27691070001840549e-07 0.00000000000000000e+00 3.78862395881571918e-08 
-3.79939428431810398e-07 0.00000000000000000e+00 -2.96453560902307971e-09 
-6.07466776893926045e-07 0.00000000000000000e+00 5.83518716773095350e-08 
-2.18261103341502060e-07 0.00000000000000000e+00 -3.98274784983722858e-08 
-4.16785547657885337e-08 0.00000000000000000e+00 -5.91949009361437543e-08 
-3.03232343065590180e-07 0.00000000000000000e+00 -2.23376933010230018e-08 
1.58794456102506788e-07 0.00000000000000000e+00 -5.43708049366820422e-08 
3.74953377103685436e-07 0.00000000000000000e+00 -2.55289054447962236e-08 
5.45492416512902390e-08 0.00000000000000000e+00 -6.00812239733507411e-08 
6.09395283102135212e-07 0.00000000000000000e+00 1.77776666158894365e-08 
8.76005761139652224e-07 0.00000000000000000e+00 5.77808424113803400e-08 
4.87553638877065198e-07 0.00000000000000000e+00 -4.77293735892234629e-09 
1.14187428595701872e-06 0.00000000000000000e+00 7.50874254681814829e-08 
1.43124853796611492e-06 0.00000000000000000e+00 5.63730170555509486e-08 
1.00898362366335934e-06 0.00000000000000000e+00 7.04069329487941567e-08 
1.73358308797482075e-06 0.00000000000000000e+00 3.77249183131986154e-09 
2.00876909660361628e-06 0.00000000000000000e+00 -6.14692400683052297e-08 
1.58573913159927145e-06 0.00000000000000000e+00 3.34929145342887689e-08 
2.29947312121916213e-06 0.00000000000000000e+00 -1.04977022396760054e-07 
2.54313841881902334e-06 0.00000000000000000e+00 -9.36947690087806632e-08 
2.15257542994906067e-06 0.00000000000000000e+00 -8.82717452684699243e-08 
2.74617230923292590e-06 0.00000000000000000e+00 -1.83533326656113168e-08 
2.92606688265666247e-06 0.00000000000000000e+00 9.14053475947789702e-08 
2.64429347594032471e-06 0.00000000000000000e+00 -6.35698698423161722e-08 
2.98699801013492275e-06 0.00000000000000000e+00 1.67643194665546798e-07 
3.00326762103456220e-06 0.00000000000000000e+00 1.40316325781579097e-07 
2.96486563636068658e-06 0.00000000000000000e+00 1.37592317417435297e-07 
2.92930069535648709e-06 0.00000000000000000e+00 -2.01455613838466752e-09 
2.71758388887640004e-06 0.00000000000000000e+00 -1.90044206052636914e-07 
2.99136887278379179e-06 0.00000000000000000e+00 8.80213487964690206e-08 
2.49232164264042996e-06 0.00000000000000000e+00 -2.53251234872545577e-07 
2.09677079768968920e-06 0.00000000000000000e+00 -8.99019405717000577e-08 
2.09677079768978322e-06 0.00000000000000000e+00 -8.99019405675894068e-08 
2.64550222587612116e-06 0.00000000000000000e+00 -2.28726515811067711e-07 
2.09677079768943170e-06 0.00000000000000000e+00 -8.99019405657262519e-08 
-8.70458216306933626e-07 0.00000000000000000e+00 7.72399640040039584e-09 
-6.61934267201344356e-07 0.00000000000000000e+00 7.03500560832845635e-08 
-7.64961145338304707e-07 0.00000000000000000e+00 7.43296440044155399e-08 
-3.79939428429518750e-07 0.00000000000000000e+00 -2.96453561180748876e-09 
-5.27691070001389927e-07 0.00000000000000000e+00 3.78862395957117463e-08 
-4.16785547646435569e-08 0.00000000000000000e+00 -5.91949009304548693e-08 
-2.18261103340195511e-07 0.00000000000000000e+00 -3.98274785023273473e-08 
3.74953377103109453e-07 0.00000000000000000e+00 -2.55289054452972965e-08 
1.58794456101872784e-07 0.00000000000000000e+00 -5.43708049330258774e-08 
8.76005761139739680e-07 0.00000000000000000e+00 5.77808424132814526e-08 
6.09395283102673184e-07 0.00000000000000000e+00 1.77776666139160086e-08 
1.43124853796635124e-06 0.00000000000000000e+00 5.63730170620414709e-08 
1.14187428595727431e-06 0.00000000000000000e+00 7.50874254729012828e-08 
2.00876909660266845e-06 0.00000000000000000e+00 -6.14692400682285467e-08 
1.73358308797363003e-06 0.00000000000000000e+00 3.77249183139389337e-09 
2.54313841881996355e-06 0.00000000000000000e+00 -9.36947690174603951e-08 
2.29947312121770777e-06 0.00000000000000000e+00 -1.04977022394563645e-07 
2.92606688265758234e-06 0.00000000000000000e+00 9.14053476005565819e-08 
2.74617230923261461e-06 0.00000000000000000e+00 -1.83533326683438451e-08 
3.00326762103559431e-06 0.00000000000000000e+00 1.40316325784944782e-07 
2.98699801013468515e-06 0.00000000000000000e+00 1.67643194665542563e-07 
2.71758388887772522e-06 0.00000000000000000e+00 -1.90044206044689522e-07 
2.92930069535793763e-06 0.00000000000000000e+00 -2.01455613736558101e-09 
-8.52215422730443422e-07 0.00000000000000000e+00 3.75959327066767485e-08 
2.49232164264433774e-06 0.00000000000000000e+00 -2.53251234877720207e-07 
-5.26854065990448660e-07 0.00000000000000000e+00 2.73701044093426991e-07 
7.01287268592301618e-06 0.00000000000000000e+00 6.43731137100331532e-08 
7.20754346573984478e-06 0.00000000000000000e+00 5.45256943361194584e-08 
6.88419405210395138e-06 0.00000000000000000e+00 -2.33967349894923371e-08 
6.28259098257931241e-06 0.00000000000000000e+00 -5.97445658269820961e-08 
5.57142790702203412e-06 0.00000000000000000e+00 -3.97629448326553559e-09 
4.82286919546217271e-06 0.00000000000000000e+00 7.17710888076920813e-08 
4.03152906400563853e-06 0.00000000000000000e+00 3.52347559367412361e-08 
3.23296436033016931e-06 0.00000000000000000e+00 -8.67151073217845579e-08 
2.46049015454881685e-06 0.00000000000000000e+00 -6.14350554395869599e-08 
1.67845330566301930e-06 0.00000000000000000e+00 1.41698813380853873e-07 
8.57885263193478084e-07 0.00000000000000000e+00 7.77974398332683271e-08 
6.36347378085750964e-08 0.00000000000000000e+00 -2.48067534340894258e-07 
6.75241934710180226e-06 0.00000000000000000e+00 7.12798470662208898e-09 
7.13634033918062520e-06 0.00000000000000000e+00 7.55719623138048929e-08 
7.04109400725345448e-06 0.00000000000000000e+00 1.66082691438201977e-08 
6.62779534434150541e-06 0.00000000000000000e+00 -5.22374165429244685e-08 
5.98890100782256418e-06 0.00000000000000000e+00 -4.18966700828215137e-08 
5.19083486325346219e-06 0.00000000000000000e+00 4.05146453884434450e-08 
4.39123455564332203e-06 0.00000000000000000e+00 7.18770367744925830e-08 
3.62836062949735792e-06 0.00000000000000000e+00 -2.75965489528773576e-08 
2.87532636999638991e-06 0.00000000000000000e+00 -1.05576910632454644e-07 
2.07601543390988288e-06 0.00000000000000000e+00 3.84159447357123238e-08 
1.25846287506080850e-06 0.00000000000000000e+00 1.72163503633776974e-07 
4.49051429965027823e-07 0.00000000000000000e+00 -1.11292641571979178e-07 
-2.68009362065584693e-07 0.00000000000000000e+00 -1.69326625507022257e-07 
-2.47747519298652672e-08 0.00000000000000000e+00 3.92799417336064911e-06 
-2.47747519306174324e-08 0.00000000000000000e+00 3.92799417336645976e-06 
1.22840282203847058e-06 0.00000000000000000e+00 3.92783551145562291e-06 
1.22840282203899108e-06 0.00000000000000000e+00 3.92783551145624463e-06 
5.96618731119510533e-07 0.00000000000000000e+00 7.02527419367023195e-06 
5.96618731118223890e-07 0.00000000000000000e+00 7.02527419366869882e-06 
-2.47747519324410944e-08 0.00000000000000000e+00 3.92799417336239315e-06 
1.22840282203687477e-06 0.00000000000000000e+00 3.92783551145669271e-06 
1.75551770828254016e-06 0.00000000000000000e+00 2.73141944551113338e-07 
1.75551770828115738e-06 0.00000000000000000e+00 2.73141944548824867e-07 
1.75551770828324002e-06 0.00000000000000000e+00 2.73141944555650047e-07 
-5.26854065991744620e-07 0.00000000000000000e+00 2.73701044094226378e-07 
-5.26854065990129328e-07 0.00000000000000000e+00 2.73701044082803503e-07 
-5.26854065989584686e-07 0.00000000000000000e+00 2.73701044092834915e-07 
-8.03959450174718357e-07 0.00000000000000000e+00 6.49324782980261756e-08 
-5.93243950686521652e-07 0.00000000000000000e+00 5.48660718957990850e-08 
-2.98700821845080333e-07 0.00000000000000000e+00 -2.33893137467759628e-08 
5.60795490335477276e-08 0.00000000000000000e+00 -6.00444643536362626e-08 
4.88047894767490005e-07 0.00000000000000000e+00 -4.67990103827880054e-09 
1.00916741435352568e-06 0.00000000000000000e+00 7.04195434720891424e-08 
1.58594479276534063e-06 0.00000000000000000e+00 3.34574319816316986e-08 
2.15313451991806698e-06 0.00000000000000000e+00 -8.83574249585327161e-08 
2.64568496712393080e-06 0.00000000000000000e+00 -6.30447819158187652e-08 
2.96623710094262059e-06 0.00000000000000000e+00 1.39576295429848406e-07 
2.98594974206824914e-06 0.00000000000000000e+00 7.49280685148542626e-08 
2.57470454303598721e-06 0.00000000000000000e+00 -2.50375238810764830e-07 
-8.70458216308042815e-07 0.00000000000000000e+00 7.72399639974413059e-09 
-7.05556130458429971e-07 0.00000000000000000e+00 7.60032496887099682e-08 
-4.51983429877371549e-07 0.00000000000000000e+00 1.68169107169911176e-08 
-1.31689677628108444e-07 0.00000000000000000e+00 -5.23646568846928946e-08 
2.66822410091653793e-07 0.00000000000000000e+00 -4.25889424830514480e-08 
7.39394646670775791e-07 0.00000000000000000e+00 3.94862540958144631e-08 
1.28200908474560911e-06 0.00000000000000000e+00 7.06302801813726779e-08 
1.86966521976432675e-06 0.00000000000000000e+00 -2.92147880016657755e-08 
2.43468223718229589e-06 0.00000000000000000e+00 -1.07751325766376099e-07 
2.84484489526190235e-06 0.00000000000000000e+00 3.63415755167155508e-08 
3.00002922316678406e-06 0.00000000000000000e+00 1.70273687407153977e-07 
2.81659561733074725e-06 0.00000000000000000e+00 -1.13497709565099941e-07 
2.23325942815069020e-06 0.00000000000000000e+00 -1.71623829693099046e-07 
6.26006336562989138e-06 0.00000000000000000e+00 -1.07622561052205796e-07 
6.26006336563064862e-06 0.00000000000000000e+00 -1.07622561049160448e-07 
6.26006336563027424e-06 0.00000000000000000e+00 -1.07622561053028583e-07 
5.96618731119017560e-07 0.00000000000000000e+00 7.02527419366816604e-06 
-2.47747519317977728e-08 0.00000000000000000e+00 3.92799417336229405e-06 
1.22840282203865438e-06 0.00000000000000000e+00 3.92783551145639371e-06 
-8.03959450174691675e-07 0.00000000000000000e+00 6.49324783040917521e-08 
-5.93243950687848952e-07 0.00000000000000000e+00 5.48660718843718959e-08 
-2.98700821844656393e-07 0.00000000000000000e+00 -2.33893137450969846e-08 
5.60795490334369780e-08 0.00000000000000000e+00 -6.00444643548646722e-08 
4.88047894767369091e-07 0.00000000000000000e+00 -4.67990104381712546e-09 
1.00916741435362817e-06 0.00000000000000000e+00 7.04195434693359677e-08 
1.58594479276516233e-06 0.00000000000000000e+00 3.34574319808590722e-08 
2.15313451991669986e-06 0.00000000000000000e+00 -8.83574249565401505e-08 
2.64568496712511961e-06 0.00000000000000000e+00 -6.30447819175949668e-08 
2.96623710094313559e-06 0.00000000000000000e+00 1.39576295432901748e-07 
2.98594974206940576e-06 0.00000000000000000e+00 7.49280685069147052e-08 
2.57470454303568101e-06 0.00000000000000000e+00 -2.50375238810233052e-07 
-8.70458216308072885e-07 0.00000000000000000e+00 7.72399640622732077e-09 
-7.05556130459351966e-07 0.00000000000000000e+00 7.60032496865225850e-08 
-4.51983429877167414e-07 0.00000000000000000e+00 1.68169107166569366e-08 
-1.31689677627642364e-07 0.00000000000000000e+00 -5.23646568863559908e-08 
2.66822410092201611e-07 0.00000000000000000e+00 -4.25889424805393601e-08 
7.39394646671344044e-07 0.00000000000000000e+00 3.94862540974845473e-08 
1.28200908474519639e-06 0.00000000000000000e+00 7.06302801801955403e-08 
1.86966521976452580e-06 0.00000000000000000e+00 -2.92147880019367863e-08 
2.43468223718253560e-06 0.00000000000000000e+00 -1.07751325766554875e-07 
2.84484489526281333e-06 0.00000000000000000e+00 3.63415755148400610e-08 
3.00002922316692933e-06 0.00000000000000000e+00 1.70273687407256468e-07 
2.81659561733098187e-06 0.00000000000000000e+00 -1.13497709563279668e-07 
2.23325942814974491e-06 0.00000000000000000e+00 -1.71623829697475983e-07 
6.26006336563093916e-06 0.00000000000000000e+00 -1.07622561056271131e-07 
7.01287268592267313e-06 0.00000000000000000e+00 6.43731137157399583e-08 
7.20754346574034114e-06 0.00000000000000000e+00 5.45256943352319002e-08 
6.88419405210251905e-06 0.00000000000000000e+00 -2.33967349856132968e-08 
6.28259098257878301e-06 0.00000000000000000e+00 -5.97445658367910023e-08 
5.57142790702022571e-06 0.00000000000000000e+00 -3.97629448881160292e-09 
4.82286919546267330e-06 0.00000000000000000e+00 7.17710888028196037e-08 
4.03152906400554790e-06 0.00000000000000000e+00 3.52347559327260882e-08 