# vtk DataFile Version 2.0

ASCII

DATASET UNSTRUCTURED_GRID

POINTS 281 double 

0.00000000000000000e+00  6.00000000000000012e-03  8.68039800000000063e-03
0.00000000000000000e+00  6.00000000000000012e-03  2.15013699999999988e-02
0.00000000000000000e+00  5.99999699999999997e-03  3.38432499999999983e-02
0.00000000000000000e+00  6.00000000000000012e-03  4.61511800000000000e-02
0.00000000000000000e+00  5.99999399999999981e-03  5.84285100000000029e-02
0.00000000000000000e+00  5.99999899999999978e-03  7.03572799999999943e-02
0.00000000000000000e+00  6.00000000000000012e-03  7.56573400000000035e-02
0.00000000000000000e+00  6.00000000000000012e-03  1.52458600000000000e-02
0.00000000000000000e+00  5.99999899999999978e-03  2.76822099999999988e-02
0.00000000000000000e+00  5.99999899999999978e-03  3.99985900000000005e-02
0.00000000000000000e+00  5.99999800000000031e-03  5.22986000000000006e-02
0.00000000000000000e+00  5.99999800000000031e-03  6.44963600000000026e-02
0.00000000000000000e+00  3.00000000000000006e-03  3.07692300000000007e-03
0.00000000000000000e+00  3.00000000000000006e-03  1.04940499999999996e-02
0.00000000000000000e+00  3.00000000000000006e-03  7.41712199999999995e-03
0.00000000000000000e+00  3.00000000000000006e-03  2.30583799999999998e-02
0.00000000000000000e+00  3.00000000000000006e-03  1.99814599999999995e-02
0.00000000000000000e+00  2.99999900000000016e-03  3.53831699999999985e-02
0.00000000000000000e+00  2.99999900000000016e-03  3.23062400000000000e-02
0.00000000000000000e+00  3.00000000000000006e-03  4.76909699999999992e-02
0.00000000000000000e+00  3.00000000000000006e-03  4.46140500000000023e-02
0.00000000000000000e+00  2.99999699999999991e-03  5.99834799999999987e-02
0.00000000000000000e+00  2.99999699999999991e-03  5.69065600000000019e-02
0.00000000000000000e+00  2.99999900000000016e-03  7.21017199999999941e-02
0.00000000000000000e+00  2.99999900000000016e-03  6.90247900000000025e-02
0.00000000000000000e+00  3.00000000000000006e-03  7.78286700000000026e-02
0.00000000000000000e+00  3.00000000000000006e-03  7.47517500000000057e-02
0.00000000000000000e+00  5.99999899999999978e-03  7.30073100000000058e-02
0.00000000000000000e+00  6.00000000000000012e-03  7.78286700000000026e-02
0.00000000000000000e+00  8.99999999999999932e-03  7.47517500000000057e-02
0.00000000000000000e+00  8.99999999999999932e-03  7.78286700000000026e-02
0.00000000000000000e+00  8.99999999999999932e-03  3.07692300000000007e-03
0.00000000000000000e+00  8.99999999999999932e-03  7.41712199999999995e-03
0.00000000000000000e+00  8.99999999999999932e-03  1.04940499999999996e-02
0.00000000000000000e+00  8.99999999999999932e-03  1.99814599999999995e-02
0.00000000000000000e+00  8.99999999999999932e-03  2.30583799999999998e-02
0.00000000000000000e+00  8.99999899999999985e-03  3.23062400000000000e-02
0.00000000000000000e+00  8.99999899999999985e-03  3.53831699999999985e-02
0.00000000000000000e+00  8.99999999999999932e-03  4.46140500000000023e-02
0.00000000000000000e+00  8.99999999999999932e-03  4.76909699999999992e-02
0.00000000000000000e+00  8.99999699999999916e-03  5.69065600000000019e-02
0.00000000000000000e+00  8.99999699999999916e-03  5.99834799999999987e-02
0.00000000000000000e+00  8.99999899999999985e-03  6.90247900000000025e-02
0.00000000000000000e+00  8.99999899999999985e-03  7.21017199999999941e-02
0.00000000000000000e+00  6.00000000000000012e-03  4.34019900000000031e-03
0.00000000000000000e+00  3.00000000000000006e-03  1.37767800000000006e-02
0.00000000000000000e+00  6.00000000000000012e-03  1.19631300000000006e-02
0.00000000000000000e+00  3.00000000000000006e-03  1.68536999999999992e-02
0.00000000000000000e+00  6.00000000000000012e-03  1.83736200000000002e-02
0.00000000000000000e+00  5.99999800000000031e-03  3.07627299999999985e-02
0.00000000000000000e+00  3.00000000000000006e-03  2.92257200000000002e-02
0.00000000000000000e+00  3.00000000000000006e-03  2.61487999999999998e-02
0.00000000000000000e+00  8.99999999999999932e-03  2.92257200000000002e-02
0.00000000000000000e+00  6.00000000000000012e-03  4.30748800000000029e-02
0.00000000000000000e+00  2.99999900000000016e-03  4.15377600000000000e-02
0.00000000000000000e+00  2.99999900000000016e-03  3.84608300000000014e-02
0.00000000000000000e+00  8.99999899999999985e-03  4.15377600000000000e-02
0.00000000000000000e+00  5.99999599999999963e-03  5.53635499999999975e-02
0.00000000000000000e+00  2.99999900000000016e-03  5.38416099999999981e-02
0.00000000000000000e+00  2.99999900000000016e-03  5.07646799999999995e-02
0.00000000000000000e+00  8.99999899999999985e-03  5.38416099999999981e-02
0.00000000000000000e+00  5.99999800000000031e-03  6.74268199999999984e-02
0.00000000000000000e+00  2.99999900000000016e-03  6.60943300000000067e-02
0.00000000000000000e+00  2.99999900000000016e-03  6.30174099999999959e-02
0.00000000000000000e+00  8.99999899999999985e-03  6.60943300000000067e-02
0.00000000000000000e+00  5.99999899999999978e-03  4.92248900000000003e-02
0.00000000000000000e+00  8.99999999999999932e-03  1.68536999999999992e-02
0.00000000000000000e+00  5.99999899999999978e-03  2.45917899999999988e-02
0.00000000000000000e+00  8.99999999999999932e-03  2.61487999999999998e-02
0.00000000000000000e+00  8.99999999999999932e-03  1.37767800000000006e-02
0.00000000000000000e+00  5.99999800000000031e-03  3.69209200000000029e-02
0.00000000000000000e+00  8.99999899999999985e-03  3.84608300000000014e-02
0.00000000000000000e+00  8.99999899999999985e-03  5.07646799999999995e-02
0.00000000000000000e+00  5.99999599999999963e-03  6.14624299999999985e-02
0.00000000000000000e+00  8.99999899999999985e-03  6.30174099999999959e-02
1.20000000000000002e-02  1.20000000000000002e-02  8.00000000000000017e-02
0.00000000000000000e+00  0.00000000000000000e+00  8.00000000000000017e-02
1.20000000000000002e-02  6.00000000000000012e-03  0.00000000000000000e+00
1.20000000000000002e-02  3.00000000000000006e-03  0.00000000000000000e+00
1.20000000000000002e-02  8.99999999999999932e-03  0.00000000000000000e+00
1.20000000000000002e-02  0.00000000000000000e+00  8.00000000000000017e-02
1.20000000000000002e-02  0.00000000000000000e+00  0.00000000000000000e+00
0.00000000000000000e+00  1.20000000000000002e-02  0.00000000000000000e+00
1.20000000000000002e-02  5.99999899999999978e-03  8.68039699999999942e-03
1.20000000000000002e-02  5.99999899999999978e-03  1.52458600000000000e-02
1.20000000000000002e-02  5.99999899999999978e-03  2.15013699999999988e-02
1.20000000000000002e-02  6.00000000000000012e-03  2.76822099999999988e-02
1.20000000000000002e-02  5.99999899999999978e-03  3.38432399999999967e-02
1.20000000000000002e-02  5.99999800000000031e-03  3.99985900000000005e-02
1.20000000000000002e-02  5.99999699999999997e-03  4.61511800000000000e-02
1.20000000000000002e-02  5.99999300000000034e-03  5.22986100000000023e-02
1.20000000000000002e-02  5.99998599999999969e-03  5.84285400000000010e-02
1.20000000000000002e-02  5.99997800000000043e-03  6.44963800000000059e-02
1.20000000000000002e-02  5.99997500000000027e-03  7.03572999999999976e-02
1.20000000000000002e-02  5.99997500000000027e-03  7.56573600000000068e-02
1.20000000000000002e-02  3.00000000000000006e-03  3.07692300000000007e-03
1.20000000000000002e-02  3.00000000000000006e-03  7.41712099999999961e-03
1.20000000000000002e-02  3.00000000000000006e-03  1.04940399999999996e-02
1.20000000000000002e-02  2.99999900000000016e-03  1.37767800000000006e-02
1.20000000000000002e-02  2.99999900000000016e-03  1.68536999999999992e-02
1.20000000000000002e-02  5.99999899999999978e-03  1.19631300000000006e-02
1.20000000000000002e-02  3.00000000000000006e-03  1.99814500000000013e-02
1.20000000000000002e-02  3.00000000000000006e-03  2.30583799999999998e-02
1.20000000000000002e-02  5.99999899999999978e-03  1.83736099999999986e-02
1.20000000000000002e-02  3.00000000000000006e-03  2.61487999999999998e-02
1.20000000000000002e-02  3.00000000000000006e-03  2.92257200000000002e-02
1.20000000000000002e-02  5.99999899999999978e-03  2.45917899999999988e-02
1.20000000000000002e-02  3.00000000000000006e-03  3.23062299999999983e-02
1.20000000000000002e-02  3.00000000000000006e-03  3.53831599999999968e-02
1.20000000000000002e-02  5.99999899999999978e-03  3.07627200000000003e-02
1.20000000000000002e-02  2.99999900000000016e-03  3.84608300000000014e-02
1.20000000000000002e-02  2.99999900000000016e-03  4.15377499999999983e-02
1.20000000000000002e-02  5.99999899999999978e-03  3.69209100000000012e-02
1.20000000000000002e-02  2.99999799999999981e-03  4.46140500000000023e-02
1.20000000000000002e-02  2.99999799999999981e-03  4.76909800000000009e-02
1.20000000000000002e-02  5.99999800000000031e-03  4.30748800000000029e-02
1.20000000000000002e-02  2.99999699999999991e-03  5.07646900000000012e-02
1.20000000000000002e-02  2.99999699999999991e-03  5.38416099999999981e-02
1.20000000000000002e-02  5.99999500000000015e-03  4.92249000000000020e-02
1.20000000000000002e-02  2.99999299999999984e-03  5.69065799999999983e-02
1.20000000000000002e-02  2.99999299999999984e-03  5.99835000000000021e-02
1.20000000000000002e-02  5.99999000000000018e-03  5.53635800000000025e-02
1.20000000000000002e-02  2.99998900000000021e-03  6.30174200000000045e-02
1.20000000000000002e-02  2.99998900000000021e-03  6.60943499999999962e-02
1.20000000000000002e-02  5.99998200000000006e-03  6.14624599999999965e-02
1.20000000000000002e-02  2.99998799999999987e-03  6.90248100000000059e-02
1.20000000000000002e-02  2.99998799999999987e-03  7.21017300000000028e-02
1.20000000000000002e-02  5.99997700000000009e-03  6.74268400000000018e-02
1.20000000000000002e-02  2.99998699999999997e-03  7.47517600000000004e-02
1.20000000000000002e-02  2.99998699999999997e-03  7.78286799999999973e-02
1.20000000000000002e-02  5.99998700000000003e-03  7.78286799999999973e-02
1.20000000000000002e-02  5.99997500000000027e-03  7.30073299999999953e-02
1.20000000000000002e-02  8.99998699999999922e-03  7.78286799999999973e-02
1.20000000000000002e-02  8.99999999999999932e-03  3.07692300000000007e-03
[...]
POINT_DATA 281

SCALARS Rank unsigned_int
LOOKUP_TABLE default
0 0 0 0 0 0 0 0 0 0 0 0 0 0 0 0 0 0 0 0 0 0 0 0 0 0 0 0 0 0 0 0 0 0 0 0 0 0 0 0 0 0 0 0 0 0 0 0 0 0 0 0 0 0 0 0 0 0 0 0 0 0 0 0 0 0 0 0 0 0 0 0 0 0 0 0 0 0 0 0 0 0 0 0 0 0 0 0 0 0 0 0 0 0 0 0 0 0 0 0 0 0 0 0 0 0 0 0 0 0 0 0 0 0 0 0 0 0 0 0 0 0 0 0 0 0 0 0 0 0 0 0 0 0 0 0 0 0 0 0 0 0 0 0 0 0 0 0 0 0 0 0 0 0 0 0 0 0 0 0 0 0 0 0 0 0 0 0 0 0 0 0 0 0 0 0 0 0 0 0 0 0 0 0 0 0 0 0 0 0 0 0 0 0 0 0 0 0 0 0 0 0 0 0 0 0 0 0 0 0 0 0 0 0 0 0 0 0 0 0 0 0 0 0 0 0 0 0 0 0 0 0 0 0 0 0 0 0 0 0 0 0 0 0 0 0 0 0 0 0 0 0 0 0 0 0 0 0 0 0 0 0 0 0 0 0 0 0 0 0 0 0 0 0 0 0 0 0 0 0 0 

VECTORS Forces0 double
2.76125262030955838e-02 0.00000000000000000e+00 -1.87868762124633409e-03 
2.58788349184502255e-02 0.00000000000000000e+00 -1.60404019487943241e-03 
1.75195977450124385e-02 0.00000000000000000e+00 -2.46575172871864247e-04 
6.88099408483311848e-03 0.00000000000000000e+00 1.90358330404617710e-04 
1.24375795556247687e-03 0.00000000000000000e+00 1.18173452280999553e-04 
-3.64612824647190322e-04 0.00000000000000000e+00 1.02737021259707891e-05 
-5.09846221730232804e-04 0.00000000000000000e+00 -1.13225180359931486e-05 
2.76845882317062128e-02 0.00000000000000000e+00 -1.97706272642606679e-03 
2.24242135346112773e-02 0.00000000000000000e+00 -9.04878873870768301e-04 
1.19709713963064915e-02 0.00000000000000000e+00 9.58035243309826888e-05 
3.24248348452144423e-03 0.00000000000000000e+00 1.55281248935325024e-04 
1.61710565548683509e-04 0.00000000000000000e+00 6.09817493634731540e-05 
2.57258774737331337e-02 0.00000000000000000e+00 -1.43772750436068015e-03 
2.81078886401338636e-02 0.00000000000000000e+00 -2.03232660059393666e-03 
2.73026529423190910e-02 0.00000000000000000e+00 -1.78450445554291038e-03 
2.49237699238721577e-02 0.00000000000000000e+00 -1.39625068436619168e-03 
2.67120768818450705e-02 0.00000000000000000e+00 -1.78553478765192510e-03 
1.63726194506743153e-02 0.00000000000000000e+00 -1.35007455401968499e-04 
1.86942922656709032e-02 0.00000000000000000e+00 -3.83234641706577507e-04 
5.77603670776470537e-03 0.00000000000000000e+00 1.82214799578570333e-04 
8.09682238769324734e-03 0.00000000000000000e+00 1.92728479596622265e-04 
9.27808864488730836e-04 0.00000000000000000e+00 1.11205045832285507e-04 
1.60965064531530359e-03 0.00000000000000000e+00 1.23764736188287689e-04 
-4.42808356101508191e-04 0.00000000000000000e+00 2.71136752083919950e-07 
-2.82604084873243192e-04 0.00000000000000000e+00 1.97147368634439443e-05 
-4.97454694785888583e-04 0.00000000000000000e+00 -1.24765541173228140e-05 
-5.04058377214160994e-04 0.00000000000000000e+00 -9.51031375268919952e-06 
-4.71202338236494090e-04 0.00000000000000000e+00 -3.81389454041019616e-06 
-4.97454694789230853e-04 0.00000000000000000e+00 -1.24765541165240958e-05 
-5.04058377226990141e-04 0.00000000000000000e+00 -9.51031375240448803e-06 
-4.97454694784654544e-04 0.00000000000000000e+00 -1.24765541163618314e-05 
2.57258774737371028e-02 0.00000000000000000e+00 -1.43772750436235285e-03 
2.73026529423269042e-02 0.00000000000000000e+00 -1.78450445554151457e-03 
2.81078886401443274e-02 0.00000000000000000e+00 -2.03232660059416044e-03 
2.67120768818549723e-02 0.00000000000000000e+00 -1.78553478765178133e-03 
2.49237699238760088e-02 0.00000000000000000e+00 -1.39625068436614310e-03 
1.86942922656755071e-02 0.00000000000000000e+00 -3.83234641706736343e-04 
1.63726194506760500e-02 0.00000000000000000e+00 -1.35007455402303084e-04 
8.09682238769561698e-03 0.00000000000000000e+00 1.92728479597335887e-04 
5.77603670776643489e-03 0.00000000000000000e+00 1.82214799578699462e-04 
1.60965064531539727e-03 0.00000000000000000e+00 1.23764736188563591e-04 
9.27808864487569005e-04 0.00000000000000000e+00 1.11205045830313235e-04 
-2.82604084866408057e-04 0.00000000000000000e+00 1.97147368637103056e-05 
-4.42808356104777603e-04 0.00000000000000000e+00 2.71136751651214863e-07 
2.65059919939142699e-02 0.00000000000000000e+00 -1.58537546661462257e-03 
2.80628761700815223e-02 0.00000000000000000e+00 -2.06062106172923793e-03 
2.83799296816483193e-02 0.00000000000000000e+00 -2.12352064634984848e-03 
2.73449016538587532e-02 0.00000000000000000e+00 -1.90608334307667908e-03 
2.70817951071852143e-02 0.00000000000000000e+00 -1.85635940121829266e-03 
1.99513746691947769e-02 0.00000000000000000e+00 -5.45625023927406275e-04 
2.12607423820145337e-02 0.00000000000000000e+00 -7.28305765433503310e-04 
2.32372943601859387e-02 0.00000000000000000e+00 -1.04894624173235335e-03 
2.12607423820163448e-02 0.00000000000000000e+00 -7.28305765433428067e-04 
9.32534654924209970e-03 0.00000000000000000e+00 1.77067004264283307e-04 
1.05935314390820604e-02 0.00000000000000000e+00 1.43074577697809030e-04 
1.34604092436198808e-02 0.00000000000000000e+00 3.46711879584988634e-05 
1.05935314390780150e-02 0.00000000000000000e+00 1.43074577698294752e-04 
2.05960899906492030e-03 0.00000000000000000e+00 1.31555943200949035e-04 
2.59858608885377455e-03 0.00000000000000000e+00 1.42484179582619134e-04 
3.96808513400925475e-03 0.00000000000000000e+00 1.64590836304507926e-04 
2.59858608885263614e-03 0.00000000000000000e+00 1.42484179582427989e-04 
-1.57774515755612545e-04 0.00000000000000000e+00 3.26555606808795912e-05 
-2.82532527944696313e-05 0.00000000000000000e+00 4.46740836406205386e-05 
3.76244645682578013e-04 0.00000000000000000e+00 7.77895069738932557e-05 
-2.82532528032827855e-05 0.00000000000000000e+00 4.46740836416396886e-05 
4.80582204325796444e-03 0.00000000000000000e+00 1.72939763288771102e-04 
2.73449016538558458e-02 0.00000000000000000e+00 -1.90608334307556908e-03 
2.40406964325876639e-02 0.00000000000000000e+00 -1.20917617895415050e-03 
2.32372943601746283e-02 0.00000000000000000e+00 -1.04894624173260727e-03 
2.80628761700857307e-02 0.00000000000000000e+00 -2.06062106172986157e-03 
1.49971974716198702e-02 0.00000000000000000e+00 -4.20012319054329129e-05 
1.34604092436176378e-02 0.00000000000000000e+00 3.46711879584611331e-05 
3.96808513400534555e-03 0.00000000000000000e+00 1.64590836304763906e-04 
6.41545970673283597e-04 0.00000000000000000e+00 9.60771649520993380e-05 
3.76244645683180179e-04 0.00000000000000000e+00 7.77895069731847566e-05 
3.05865431507972203e-04 0.00000000000000000e+00 3.42980169385426664e-05 
-4.46234471130967081e-04 0.00000000000000000e+00 -9.15427949245958600e-06 
-1.17866770457759136e-03 0.00000000000000000e+00 2.42839991940197282e-04 
-1.17866770457888200e-03 0.00000000000000000e+00 2.42839991941284466e-04 
-1.17866770458376698e-03 0.00000000000000000e+00 2.42839991940433096e-04 
3.05865431504583854e-04 0.00000000000000000e+00 3.42980169375158185e-05 
-1.17866770458157776e-03 0.00000000000000000e+00 2.42839991941113488e-04 
2.33747946751881944e-02 0.00000000000000000e+00 -1.03240958652134102e-03 
-5.75347376922625292e-05 0.00000000000000000e+00 -4.93551133881512557e-05 
5.03700509647030028e-04 0.00000000000000000e+00 -9.76649029276623314e-05 
6.26483284443785527e-04 0.00000000000000000e+00 -4.73862873665860900e-05 
4.26695029861354322e-04 0.00000000000000000e+00 1.64060241724927717e-05 
4.07432998012408357e-06 0.00000000000000000e+00 3.87715509231700858e-05 
-5.05015150937889834e-04 0.00000000000000000e+00 1.43298064929850449e-05 
-8.19795726707703569e-04 0.00000000000000000e+00 -2.33446207387147413e-05 
-7.01459986025540711e-04 0.00000000000000000e+00 -3.71266225297811798e-05 
-2.19813646554747368e-04 0.00000000000000000e+00 -2.11998029184253618e-05 
3.16348170062065275e-04 0.00000000000000000e+00 -1.33882757959396490e-06 
6.31868308710282871e-04 0.00000000000000000e+00 7.43209866637541897e-06 
6.09114740239775302e-04 0.00000000000000000e+00 1.52466809206969085e-05 
-8.02495973893118568e-04 0.00000000000000000e+00 1.12299780092079641e-04 
-2.11260331669616745e-04 0.00000000000000000e+00 -2.27932931498815906e-05 
1.41611386958630161e-04 0.00000000000000000e+00 -7.74189519001283651e-05 
4.18434775106103134e-04 0.00000000000000000e+00 -9.88976500018090354e-05 
5.72538564052642199e-04 0.00000000000000000e+00 -9.06163889638203685e-05 
2.79486501190348677e-04 0.00000000000000000e+00 -9.14473274690674677e-05 
6.31357040455523622e-04 0.00000000000000000e+00 -6.40168803393614453e-05 
6.02723012721851129e-04 0.00000000000000000e+00 -2.97501162587091397e-05 
6.12337632058166997e-04 0.00000000000000000e+00 -7.92652021350458239e-05 
5.01102268984513822e-04 0.00000000000000000e+00 3.09262126021986887e-06 
3.38642321550077039e-04 0.00000000000000000e+00 2.69146542446713511e-05 
5.60076970673213962e-04 0.00000000000000000e+00 -1.26551454829001137e-05 
1.25268507028118269e-04 0.00000000000000000e+00 3.82042080082821301e-05 
-1.23173058619201664e-04 0.00000000000000000e+00 3.62631598953723415e-05 
2.37343389205395527e-04 0.00000000000000000e+00 3.42139700580400724e-05 
-3.82617560525845492e-04 0.00000000000000000e+00 2.34420342365936560e-05 
-6.15124177272099114e-04 0.00000000000000000e+00 4.52111884193382318e-06 
-2.53633716897212562e-04 0.00000000000000000e+00 3.08951664004776676e-05 
-7.76863789835994601e-04 0.00000000000000000e+00 -1.49592836817057865e-05 
-8.34339850600066967e-04 0.00000000000000000e+00 -2.99497012816246229e-05 
-7.07195911382813816e-04 0.00000000000000000e+00 -5.55445778618693499e-06 
-7.73972035014093671e-04 0.00000000000000000e+00 -3.69513490742018553e-05 
-6.04885028962781277e-04 0.00000000000000000e+00 -3.51500242766176023e-05 
-8.18626982933092374e-04 0.00000000000000000e+00 -3.46177855705830686e-05 
-3.58565349962996441e-04 0.00000000000000000e+00 -2.66831775266526344e-05 
-7.54449891433650393e-05 0.00000000000000000e+00 -1.54001662551570226e-05 
-4.89410528224041999e-04 0.00000000000000000e+00 -3.15820542134968477e-05 
1.96646378756944808e-04 0.00000000000000000e+00 -5.24955605995532744e-06 
4.29935431494664431e-04 0.00000000000000000e+00 1.99396896249277047e-06 
6.08866101472679144e-05 0.00000000000000000e+00 -1.01576731551777866e-05 
5.86775065338355052e-04 0.00000000000000000e+00 6.08884144941801918e-06 
6.62296590915421456e-04 0.00000000000000000e+00 9.19331132713235974e-06 
5.10785967809792522e-04 0.00000000000000000e+00 4.13433655559413188e-06 
6.38791049072541810e-04 0.00000000000000000e+00 1.31664205149106895e-05 
4.93148983020961509e-04 0.00000000000000000e+00 2.25504106939840861e-05 
4.93148983023313360e-04 0.00000000000000000e+00 2.25504106942437525e-05 
6.64179869364199538e-04 0.00000000000000000e+00 1.02870472473962707e-05 
4.93148983028535745e-04 0.00000000000000000e+00 2.25504106919118505e-05 
-8.02495973900720127e-04 0.00000000000000000e+00 1.12299780093088383e-04 
1.41611386960390905e-04 0.00000000000000000e+00 -7.74189519000371160e-05 
-2.11260331671360142e-04 0.00000000000000000e+00 -2.27932931516751863e-05 
5.72538564057782184e-04 0.00000000000000000e+00 -9.06163889649798414e-05 
4.18434775098749641e-04 0.00000000000000000e+00 -9.88976500016158577e-05 
6.02723012721537144e-04 0.00000000000000000e+00 -2.97501162584181669e-05 
6.31357040456724051e-04 0.00000000000000000e+00 -6.40168803380767606e-05 
3.38642321552651369e-04 0.00000000000000000e+00 2.69146542434830791e-05 
5.01102268978947094e-04 0.00000000000000000e+00 3.09262125965636835e-06 
-1.23173058619688254e-04 0.00000000000000000e+00 3.62631598955956804e-05 
1.25268507025598583e-04 0.00000000000000000e+00 3.82042080082971327e-05 
-6.15124177273660365e-04 0.00000000000000000e+00 4.52111884185330761e-06 
-3.82617560525042315e-04 0.00000000000000000e+00 2.34420342366055890e-05 
-8.34339850606296792e-04 0.00000000000000000e+00 -2.99497012820447241e-05 
-7.76863789835381376e-04 0.00000000000000000e+00 -1.49592836810865444e-05 
-6.04885028968540342e-04 0.00000000000000000e+00 -3.51500242766349496e-05 
-7.73972035016051740e-04 0.00000000000000000e+00 -3.69513490729447499e-05 
-7.54449891409635315e-05 0.00000000000000000e+00 -1.54001662559968727e-05 
-3.58565349962718669e-04 0.00000000000000000e+00 -2.66831775257335833e-05 
4.29935431497575297e-04 0.00000000000000000e+00 1.99396896234464135e-06 
1.96646378755367727e-04 0.00000000000000000e+00 -5.24955605889069511e-06 
6.62296590906830238e-04 0.00000000000000000e+00 9.19331132894270632e-06 
5.86775065339194659e-04 0.00000000000000000e+00 6.08884144934749183e-06 
-6.25087615133900496e-04 0.00000000000000000e+00 6.61970239352036488e-05 
6.38791049074658606e-04 0.00000000000000000e+00 1.31664205137172540e-05 
-4.46234471126349247e-04 0.00000000000000000e+00 -9.15427949250731800e-06 
2.70216707220791788e-02 0.00000000000000000e+00 -1.70437121434242477e-03 
2.83613641315722358e-02 0.00000000000000000e+00 -2.12276853831472193e-03 
2.70666612834427785e-02 0.00000000000000000e+00 -1.85361429923199352e-03 
2.40278948793146950e-02 0.00000000000000000e+00 -1.20652574556978339e-03 
1.99459024965748036e-02 0.00000000000000000e+00 -5.44888889355581033e-04 
1.49950630113640376e-02 0.00000000000000000e+00 -4.18816338487400499e-05 
9.32372269167214968e-03 0.00000000000000000e+00 1.77102564450969010e-04 
4.80236827107635798e-03 0.00000000000000000e+00 1.72905696068642367e-04 
2.05283058344553956e-03 0.00000000000000000e+00 1.31426950585673461e-04 
6.27591822988424197e-04 0.00000000000000000e+00 9.51955373875224199e-05 
-1.80695865429548476e-04 0.00000000000000000e+00 3.04161902036528002e-05 
-4.90713825358078583e-04 0.00000000000000000e+00 -6.91459968362012855e-06 
2.57258774737394585e-02 0.00000000000000000e+00 -1.43772750436099673e-03 
2.77589392184009430e-02 0.00000000000000000e+00 -1.92387511999267879e-03 
2.76511116490307206e-02 0.00000000000000000e+00 -1.96978534033501055e-03 
2.58560432072731695e-02 0.00000000000000000e+00 -1.59904585115226401e-03 
2.24182279086371436e-02 0.00000000000000000e+00 -9.03897329554468644e-04 
1.75174440939310297e-02 0.00000000000000000e+00 -2.46342015451317181e-04 
1.19696532692987762e-02 0.00000000000000000e+00 9.58530235885790799e-05 
6.87896755531838301e-03 0.00000000000000000e+00 1.90347269336826197e-04 
3.23840989618440558e-03 0.00000000000000000e+00 1.55208411045940336e-04 
1.23655244543867523e-03 0.00000000000000000e+00 1.18059033745315721e-04 
1.46078206233503914e-04 0.00000000000000000e+00 5.96919870970977803e-05 
-3.86086738033146048e-04 0.00000000000000000e+00 7.65985709974222241e-06 
-5.07450578950744118e-04 0.00000000000000000e+00 -1.25434291768179619e-05 
-3.58455841638368193e-04 0.00000000000000000e+00 -1.83273754091834598e-06 
-3.58455841644559638e-04 0.00000000000000000e+00 -1.83273754099154657e-06 
2.43993523071315502e-04 0.00000000000000000e+00 1.67609710124375082e-05 
2.43993523074931967e-04 0.00000000000000000e+00 1.67609710135679787e-05 
-5.34259234471230336e-05 0.00000000000000000e+00 7.41576188027037123e-06 
-5.34259234436149891e-05 0.00000000000000000e+00 7.41576187937544365e-06 
-3.58455841639926951e-04 0.00000000000000000e+00 -1.83273754071879857e-06 
2.43993523073558934e-04 0.00000000000000000e+00 1.67609710123351866e-05 
3.05865431507349871e-04 0.00000000000000000e+00 3.42980169395823079e-05 
3.05865431508362299e-04 0.00000000000000000e+00 3.42980169386913647e-05 
3.05865431512564450e-04 0.00000000000000000e+00 3.42980169398144355e-05 
-4.46234471127194816e-04 0.00000000000000000e+00 -9.15427949197157305e-06 
-4.46234471136585091e-04 0.00000000000000000e+00 -9.15427949208650525e-06 
-4.46234471126173064e-04 0.00000000000000000e+00 -9.15427949171807980e-06 
-3.75289736257241051e-04 0.00000000000000000e+00 9.60601997671313361e-06 
3.08426440412224801e-04 0.00000000000000000e+00 -9.36502545714761221e-05 
6.13960864062457418e-04 0.00000000000000000e+00 -7.85023279633540670e-05 
5.59295441720571054e-04 0.00000000000000000e+00 -1.24014884868421715e-05 
2.36890669120299902e-04 0.00000000000000000e+00 3.42380005131780958e-05 
-2.53817903879102681e-04 0.00000000000000000e+00 3.08859943442948092e-05 
-7.07304244838644330e-04 0.00000000000000000e+00 -5.56752535929201698e-06 
-8.18511118296197339e-04 0.00000000000000000e+00 -3.46312753340594808e-05 
-4.87706874708282879e-04 0.00000000000000000e+00 -3.15229534425562100e-05 
6.77464769756880840e-05 0.00000000000000000e+00 -9.90162989996475732e-06 
5.25125103106624026e-04 0.00000000000000000e+00 4.50003575095080845e-06 
6.57127933060424252e-04 0.00000000000000000e+00 1.15159446518975911e-05 
-8.02495973894919211e-04 0.00000000000000000e+00 1.12299780093392799e-04 
5.49834350565496917e-06 0.00000000000000000e+00 -5.90935371643591952e-05 
5.10595782298355842e-04 0.00000000000000000e+00 -9.72667701402155571e-05 
6.26126343654108170e-04 0.00000000000000000e+00 -4.69673077922825934e-05 
4.26159605992101778e-04 0.00000000000000000e+00 1.64849097638431987e-05 
3.83827053243728711e-06 0.00000000000000000e+00 3.87696558010479074e-05 
-5.05122662693787425e-04 0.00000000000000000e+00 1.43210310756423719e-05 
-8.19846235026556970e-04 0.00000000000000000e+00 -2.33577769391552574e-05 
-7.00957198662938087e-04 0.00000000000000000e+00 -3.71211061939530105e-05 
-2.16755894900000058e-04 0.00000000000000000e+00 -2.10772546025096090e-05 
3.25432195805947910e-04 0.00000000000000000e+00 -1.05906675776728073e-06 
6.42210332212904151e-04 0.00000000000000000e+00 7.83245707744173786e-06 
5.49924441501560383e-04 0.00000000000000000e+00 1.90370525212875112e-05 
2.33747946751911573e-02 0.00000000000000000e+00 -1.03240958651926390e-03 
2.33747946751885170e-02 0.00000000000000000e+00 -1.03240958651998403e-03 
2.33747946751885448e-02 0.00000000000000000e+00 -1.03240958651941981e-03 
-5.34259234409062184e-05 0.00000000000000000e+00 7.41576188027366449e-06 
-3.58455841636952334e-04 0.00000000000000000e+00 -1.83273754118590336e-06 
2.43993523066987367e-04 0.00000000000000000e+00 1.67609710111992138e-05 
-3.75289736254052629e-04 0.00000000000000000e+00 9.60601997517072050e-06 
3.08426440413432168e-04 0.00000000000000000e+00 -9.36502545715610423e-05 
6.13960864062186801e-04 0.00000000000000000e+00 -7.85023279627670257e-05 
5.59295441719075723e-04 0.00000000000000000e+00 -1.24014884864776221e-05 
2.36890669117788022e-04 0.00000000000000000e+00 3.42380005131428592e-05 
-2.53817903879644782e-04 0.00000000000000000e+00 3.08859943442648174e-05 
-7.07304244834522627e-04 0.00000000000000000e+00 -5.56752535939721169e-06 
-8.18511118293171764e-04 0.00000000000000000e+00 -3.46312753343873978e-05 
-4.87706874709634662e-04 0.00000000000000000e+00 -3.15229534426591008e-05 
6.77464769708504823e-05 0.00000000000000000e+00 -9.90162989934952680e-06 
5.25125103110946089e-04 0.00000000000000000e+00 4.50003575188246338e-06 
6.57127933063212386e-04 0.00000000000000000e+00 1.15159446531253958e-05 
-8.02495973899391328e-04 0.00000000000000000e+00 1.12299780093512414e-04 
5.49834350366871079e-06 0.00000000000000000e+00 -5.90935371648490513e-05 
5.10595782296218662e-04 0.00000000000000000e+00 -9.72667701409102325e-05 
6.26126343652944170e-04 0.00000000000000000e+00 -4.69673077927914502e-05 
4.26159605988761568e-04 0.00000000000000000e+00 1.64849097634904264e-05 
3.83827053611663560e-06 0.00000000000000000e+00 3.87696558004380572e-05 
-5.05122662694564581e-04 0.00000000000000000e+00 1.43210310756341727e-05 
-8.19846235025555167e-04 0.00000000000000000e+00 -2.33577769389693168e-05 
-7.00957198660475647e-04 0.00000000000000000e+00 -3.71211061934271995e-05 
-2.16755894900082458e-04 0.00000000000000000e+00 -2.10772546024193762e-05 
3.25432195803321972e-04 0.00000000000000000e+00 -1.05906675798626246e-06 
6.42210332209083423e-04 0.00000000000000000e+00 7.83245707733844050e-06 
5.49924441508146261e-04 0.00000000000000000e+00 1.90370525207673110e-05 
2.33747946751942069e-02 0.00000000000000000e+00 -1.03240958651991334e-03 
2.70216707220770416e-02 0.00000000000000000e+00 -1.70437121434261168e-03 
2.83613641315731517e-02 0.00000000000000000e+00 -2.12276853831367936e-03 
2.70666612834438262e-02 0.00000000000000000e+00 -1.85361429923148395e-03 
2.40278948793190075e-02 0.00000000000000000e+00 -1.20652574557041678e-03 
1.99459024965742276e-02 0.00000000000000000e+00 -5.44888889355494947e-04 
1.49950630113651704e-02 0.00000000000000000e+00 -4.18816338490914398e-05 