# vtk DataFile Version 2.0

ASCII

DATASET UNSTRUCTURED_GRID

POINTS 281 double 

0.00000000000000000e+00  6.00000000000000012e-03  8.68039800000000063e-03
0.00000000000000000e+00  6.00000000000000012e-03  2.15013699999999988e-02
0.00000000000000000e+00  5.99999699999999997e-03  3.38432499999999983e-02
0.00000000000000000e+00  6.00000000000000012e-03  4.61511800000000000e-02
0.00000000000000000e+00  5.99999399999999981e-03  5.84285100000000029e-02
0.00000000000000000e+00  5.99999899999999978e-03  7.03572799999999943e-02
0.00000000000000000e+00  6.00000000000000012e-03  7.56573400000000035e-02
0.00000000000000000e+00  6.00000000000000012e-03  1.52458600000000000e-02
0.00000000000000000e+00  5.99999899999999978e-03  2.76822099999999988e-02
0.00000000000000000e+00  5.99999899999999978e-03  3.99985900000000005e-02
0.00000000000000000e+00  5.99999800000000031e-03  5.22986000000000006e-02
0.00000000000000000e+00  5.99999800000000031e-03  6.44963600000000026e-02
0.00000000000000000e+00  3.00000000000000006e-03  3.07692300000000007e-03
0.00000000000000000e+00  3.00000000000000006e-03  1.04940499999999996e-02
0.00000000000000000e+00  3.00000000000000006e-03  7.41712199999999995e-03
0.00000000000000000e+00  3.00000000000000006e-03  2.30583799999999998e-02
0.00000000000000000e+00  3.00000000000000006e-03  1.99814599999999995e-02
0.00000000000000000e+00  2.99999900000000016e-03  3.53831699999999985e-02
0.00000000000000000e+00  2.99999900000000016e-03  3.23062400000000000e-02
0.00000000000000000e+00  3.00000000000000006e-03  4.76909699999999992e-02
0.00000000000000000e+00  3.00000000000000006e-03  4.46140500000000023e-02
0.00000000000000000e+00  2.99999699999999991e-03  5.99834799999999987e-02
0.00000000000000000e+00  2.99999699999999991e-03  5.69065600000000019e-02
0.00000000000000000e+00  2.99999900000000016e-03  7.21017199999999941e-02
0.00000000000000000e+00  2.99999900000000016e-03  6.90247900000000025e-02
0.00000000000000000e+00  3.00000000000000006e-03  7.78286700000000026e-02
0.00000000000000000e+00  3.00000000000000006e-03  7.47517500000000057e-02
0.00000000000000000e+00  5.99999899999999978e-03  7.30073100000000058e-02
0.00000000000000000e+00  6.00000000000000012e-03  7.78286700000000026e-02
0.00000000000000000e+00  8.99999999999999932e-03  7.47517500000000057e-02
0.00000000000000000e+00  8.99999999999999932e-03  7.78286700000000026e-02
0.00000000000000000e+00  8.99999999999999932e-03  3.07692300000000007e-03
0.00000000000000000e+00  8.99999999999999932e-03  7.41712199999999995e-03
0.00000000000000000e+00  8.99999999999999932e-03  1.04940499999999996e-02
0.00000000000000000e+00  8.99999999999999932e-03  1.99814599999999995e-02
0.00000000000000000e+00  8.99999999999999932e-03  2.30583799999999998e-02
0.00000000000000000e+00  8.99999899999999985e-03  3.23062400000000000e-02
0.00000000000000000e+00  8.99999899999999985e-03  3.53831699999999985e-02
0.00000000000000000e+00  8.99999999999999932e-03  4.46140500000000023e-02
0.00000000000000000e+00  8.99999999999999932e-03  4.76909699999999992e-02
0.00000000000000000e+00  8.99999699999999916e-03  5.69065600000000019e-02
0.00000000000000000e+00  8.99999699999999916e-03  5.99834799999999987e-02
0.00000000000000000e+00  8.99999899999999985e-03  6.90247900000000025e-02
0.00000000000000000e+00  8.99999899999999985e-03  7.21017199999999941e-02
0.00000000000000000e+00  6.00000000000000012e-03  4.34019900000000031e-03
0.00000000000000000e+00  3.00000000000000006e-03  1.37767800000000006e-02
0.00000000000000000e+00  6.00000000000000012e-03  1.19631300000000006e-02
0.00000000000000000e+00  3.00000000000000006e-03  1.68536999999999992e-02
0.00000000000000000e+00  6.00000000000000012e-03  1.83736200000000002e-02
0.00000000000000000e+00  5.99999800000000031e-03  3.07627299999999985e-02
0.00000000000000000e+00  3.00000000000000006e-03  2.92257200000000002e-02
0.00000000000000000e+00  3.00000000000000006e-03  2.61487999999999998e-02
0.00000000000000000e+00  8.99999999999999932e-03  2.92257200000000002e-02
0.00000000000000000e+00  6.00000000000000012e-03  4.30748800000000029e-02
0.00000000000000000e+00  2.99999900000000016e-03  4.15377600000000000e-02
0.00000000000000000e+00  2.99999900000000016e-03  3.84608300000000014e-02
0.00000000000000000e+00  8.99999899999999985e-03  4.15377600000000000e-02
0.00000000000000000e+00  5.99999599999999963e-03  5.53635499999999975e-02
0.00000000000000000e+00  2.99999900000000016e-03  5.38416099999999981e-02
0.00000000000000000e+00  2.99999900000000016e-03  5.07646799999999995e-02
0.00000000000000000e+00  8.99999899999999985e-03  5.38416099999999981e-02
0.00000000000000000e+00  5.99999800000000031e-03  6.74268199999999984e-02
0.00000000000000000e+00  2.99999900000000016e-03  6.60943300000000067e-02
0.00000000000000000e+00  2.99999900000000016e-03  6.30174099999999959e-02
0.00000000000000000e+00  8.99999899999999985e-03  6.60943300000000067e-02
0.00000000000000000e+00  5.99999899999999978e-03  4.92248900000000003e-02
0.00000000000000000e+00  8.99999999999999932e-03  1.68536999999999992e-02
0.00000000000000000e+00  5.99999899999999978e-03  2.45917899999999988e-02
0.00000000000000000e+00  8.99999999999999932e-03  2.61487999999999998e-02
0.00000000000000000e+00  8.99999999999999932e-03  1.37767800000000006e-02
0.00000000000000000e+00  5.99999800000000031e-03  3.69209200000000029e-02
0.00000000000000000e+00  8.99999899999999985e-03  3.84608300000000014e-02
0.00000000000000000e+00  8.99999899999999985e-03  5.07646799999999995e-02
0.00000000000000000e+00  5.99999599999999963e-03  6.14624299999999985e-02
0.00000000000000000e+00  8.99999899999999985e-03  6.30174099999999959e-02
1.20000000000000002e-02  1.20000000000000002e-02  8.00000000000000017e-02
0.00000000000000000e+00  0.00000000000000000e+00  8.00000000000000017e-02
1.20000000000000002e-02  6.00000000000000012e-03  0.00000000000000000e+00
1.20000000000000002e-02  3.00000000000000006e-03  0.00000000000000000e+00
1.20000000000000002e-02  8.99999999999999932e-03  0.00000000000000000e+00
1.20000000000000002e-02  0.00000000000000000e+00  8.00000000000000017e-02
1.20000000000000002e-02  0.00000000000000000e+00  0.00000000000000000e+00
0.00000000000000000e+00  1.20000000000000002e-02  0.00000000000000000e+00
1.20000000000000002e-02  5.99999899999999978e-03  8.68039699999999942e-03
1.20000000000000002e-02  5.99999899999999978e-03  1.52458600000000000e-02
1.20000000000000002e-02  5.99999899999999978e-03  2.15013699999999988e-02
1.20000000000000002e-02  6.00000000000000012e-03  2.76822099999999988e-02
1.20000000000000002e-02  5.99999899999999978e-03  3.38432399999999967e-02
1.20000000000000002e-02  5.99999800000000031e-03  3.99985900000000005e-02
1.20000000000000002e-02  5.99999699999999997e-03  4.61511800000000000e-02
1.20000000000000002e-02  5.99999300000000034e-03  5.22986100000000023e-02
1.20000000000000002e-02  5.99998599999999969e-03  5.84285400000000010e-02
1.20000000000000002e-02  5.99997800000000043e-03  6.44963800000000059e-02
1.20000000000000002e-02  5.99997500000000027e-03  7.03572999999999976e-02
1.20000000000000002e-02  5.99997500000000027e-03  7.56573600000000068e-02
1.20000000000000002e-02  3.00000000000000006e-03  3.07692300000000007e-03
1.20000000000000002e-02  3.00000000000000006e-03  7.41712099999999961e-03
1.20000000000000002e-02  3.00000000000000006e-03  1.04940399999999996e-02
1.20000000000000002e-02  2.99999900000000016e-03  1.37767800000000006e-02
1.20000000000000002e-02  2.99999900000000016e-03  1.68536999999999992e-02
1.20000000000000002e-02  5.99999899999999978e-03  1.19631300000000006e-02
1.20000000000000002e-02  3.00000000000000006e-03  1.99814500000000013e-02
1.20000000000000002e-02  3.00000000000000006e-03  2.30583799999999998e-02
1.20000000000000002e-02  5.99999899999999978e-03  1.83736099999999986e-02
1.20000000000000002e-02  3.00000000000000006e-03  2.61487999999999998e-02
1.20000000000000002e-02  3.00000000000000006e-03  2.92257200000000002e-02
1.20000000000000002e-02  5.99999899999999978e-03  2.45917899999999988e-02
1.20000000000000002e-02  3.00000000000000006e-03  3.23062299999999983e-02
1.20000000000000002e-02  3.00000000000000006e-03  3.53831599999999968e-02
1.20000000000000002e-02  5.99999899999999978e-03  3.07627200000000003e-02
1.20000000000000002e-02  2.99999900000000016e-03  3.84608300000000014e-02
1.20000000000000002e-02  2.99999900000000016e-03  4.15377499999999983e-02
1.20000000000000002e-02  5.99999899999999978e-03  3.69209100000000012e-02
1.20000000000000002e-02  2.99999799999999981e-03  4.46140500000000023e-02
1.20000000000000002e-02  2.99999799999999981e-03  4.76909800000000009e-02
1.20000000000000002e-02  5.99999800000000031e-03  4.30748800000000029e-02
1.20000000000000002e-02  2.99999699999999991e-03  5.07646900000000012e-02
1.20000000000000002e-02  2.99999699999999991e-03  5.38416099999999981e-02
1.20000000000000002e-02  5.99999500000000015e-03  4.92249000000000020e-02
1.20000000000000002e-02  2.99999299999999984e-03  5.69065799999999983e-02
1.20000000000000002e-02  2.99999299999999984e-03  5.99835000000000021e-02
1.20000000000000002e-02  5.99999000000000018e-03  5.53635800000000025e-02
1.20000000000000002e-02  2.99998900000000021e-03  6.30174200000000045e-02
1.20000000000000002e-02  2.99998900000000021e-03  6.60943499999999962e-02
1.20000000000000002e-02  5.99998200000000006e-03  6.14624599999999965e-02
1.20000000000000002e-02  2.99998799999999987e-03  6.90248100000000059e-02
1.20000000000000002e-02  2.99998799999999987e-03  7.21017300000000028e-02
1.20000000000000002e-02  5.99997700000000009e-03  6.74268400000000018e-02
1.20000000000000002e-02  2.99998699999999997e-03  7.47517600000000004e-02
1.20000000000000002e-02  2.99998699999999997e-03  7.78286799999999973e-02
1.20000000000000002e-02  5.99998700000000003e-03  7.78286799999999973e-02
1.20000000000000002e-02  5.99997500000000027e-03  7.30073299999999953e-02
1.20000000000000002e-02  8.99998699999999922e-03  7.78286799999999973e-02
1.20000000000000002e-02  8.99999999999999932e-03  3.07692300000000007e-03
[...]
POINT_DATA 281

SCALARS Rank unsigned_int
LOOKUP_TABLE default
0 0 0 0 0 0 0 0 0 0 0 0 0 0 0 0 0 0 0 0 0 0 0 0 0 0 0 0 0 0 0 0 0 0 0 0 0 0 0 0 0 0 0 0 0 0 0 0 0 0 0 0 0 0 0 0 0 0 0 0 0 0 0 0 0 0 0 0 0 0 0 0 0 0 0 0 0 0 0 0 0 0 0 0 0 0 0 0 0 0 0 0 0 0 0 0 0 0 0 0 0 0 0 0 0 0 0 0 0 0 0 0 0 0 0 0 0 0 0 0 0 0 0 0 0 0 0 0 0 0 0 0 0 0 0 0 0 0 0 0 0 0 0 0 0 0 0 0 0 0 0 0 0 0 0 0 0 0 0 0 0 0 0 0 0 0 0 0 0 0 0 0 0 0 0 0 0 0 0 0 0 0 0 0 0 0 0 0 0 0 0 0 0 0 0 0 0 0 0 0 0 0 0 0 0 0 0 0 0 0 0 0 0 0 0 0 0 0 0 0 0 0 0 0 0 0 0 0 0 0 0 0 0 0 0 0 0 0 0 0 0 0 0 0 0 0 0 0 0 0 0 0 0 0 0 0 0 0 0 0 0 0 0 0 0 0 0 0 0 0 0 0 0 0 0 0 0 0 0 0 0 

VECTORS Forces0 double
1.83480723983293643e-03 0.00000000000000000e+00 -1.16286864420121108e-06 
2.19392350987581504e-04 0.00000000000000000e+00 -3.93924395641069505e-07 
-7.21424283304994122e-06 0.00000000000000000e+00 2.39095233289674081e-07 
3.99689665389246890e-05 0.00000000000000000e+00 -2.97895639357292351e-08 
2.72246931087083317e-05 0.00000000000000000e+00 1.51793617345447832e-07 
9.45691023936204816e-07 0.00000000000000000e+00 -4.14245301193806321e-07 
-1.73668600450765543e-05 0.00000000000000000e+00 -1.89261336145448820e-06 
8.31193951929487637e-04 0.00000000000000000e+00 2.48969921602252638e-08 
5.68704504210187737e-06 0.00000000000000000e+00 -4.01967380976754419e-07 
2.44997871278399213e-05 0.00000000000000000e+00 6.07900629806228501e-07 
3.72181429102372144e-05 0.00000000000000000e+00 -7.21278834177707158e-07 
1.62067902509900396e-05 0.00000000000000000e+00 1.29691780859696620e-06 
2.43652709620007391e-03 0.00000000000000000e+00 -3.52742606632336944e-06 
1.57599454494293631e-03 0.00000000000000000e+00 -6.11246541005239875e-07 
2.03964955890243533e-03 0.00000000000000000e+00 -1.84607312277362029e-06 
1.28933154701009781e-04 0.00000000000000000e+00 -4.69169590423983143e-07 
3.31497729246771464e-04 0.00000000000000000e+00 -2.79808948938836030e-07 
2.31017039546164375e-06 0.00000000000000000e+00 4.17605154576887924e-07 
-1.36070969780565381e-05 0.00000000000000000e+00 4.75785727923284572e-08 
3.97777471201610618e-05 0.00000000000000000e+00 -2.84292968930596645e-07 
3.93254737406279647e-05 0.00000000000000000e+00 2.19163525591399741e-07 
2.50429789904607893e-05 0.00000000000000000e+00 5.77828251063817145e-07 
2.93930239086791116e-05 0.00000000000000000e+00 -2.27975492689456933e-07 
-4.90949062751742548e-06 0.00000000000000000e+00 -1.23122403523338130e-06 
5.05018149811597147e-06 0.00000000000000000e+00 2.19895464817414019e-07 
-2.35505237064870849e-05 0.00000000000000000e+00 -1.19672150414421899e-06 
-1.42920597568539956e-05 0.00000000000000000e+00 -1.92413228798588224e-06 
-8.09893468658012049e-06 0.00000000000000000e+00 -1.57505114616724050e-06 
-2.35505237072134191e-05 0.00000000000000000e+00 -1.19672150412237486e-06 
-1.42920597575481018e-05 0.00000000000000000e+00 -1.92413228797559841e-06 
-2.35505237093933973e-05 0.00000000000000000e+00 -1.19672150412485582e-06 
2.43652709620179649e-03 0.00000000000000000e+00 -3.52742606632447312e-06 
2.03964955890346923e-03 0.00000000000000000e+00 -1.84607312282590658e-06 
1.57599454494330147e-03 0.00000000000000000e+00 -6.11246540914401732e-07 
3.31497729248422270e-04 0.00000000000000000e+00 -2.79808948887795942e-07 
1.28933154700940663e-04 0.00000000000000000e+00 -4.69169590516423660e-07 
-1.36070969762871202e-05 0.00000000000000000e+00 4.75785727914003209e-08 
2.31017039451752050e-06 0.00000000000000000e+00 4.17605154607152835e-07 
3.93254737415364448e-05 0.00000000000000000e+00 2.19163525584215949e-07 
3.97777471195906901e-05 0.00000000000000000e+00 -2.84292968973292399e-07 
2.93930239076990199e-05 0.00000000000000000e+00 -2.27975492647155684e-07 
2.50429789909164253e-05 0.00000000000000000e+00 5.77828251039203214e-07 
5.05018149744926845e-06 0.00000000000000000e+00 2.19895464809611998e-07 
-4.90949062898245367e-06 0.00000000000000000e+00 -1.23122403533492192e-06 
2.48234074915609261e-03 0.00000000000000000e+00 -3.82207892060215486e-06 
1.06813057912856870e-03 0.00000000000000000e+00 -1.10700017217151376e-07 
1.37730997438137372e-03 0.00000000000000000e+00 -4.18623224538696617e-07 
6.17659804635902398e-04 0.00000000000000000e+00 1.26198304909294687e-08 
4.60198249074927825e-04 0.00000000000000000e+00 -1.07411836609947085e-07 
-1.45925073469083529e-05 0.00000000000000000e+00 -1.34408438804769599e-07 
-7.97926126359920103e-06 0.00000000000000000e+00 -2.86130184114583614e-07 
2.69270164478587185e-05 0.00000000000000000e+00 -4.76051952794964050e-07 
-7.97926126258595989e-06 0.00000000000000000e+00 -2.86130184034977552e-07 
3.61189708263763909e-05 0.00000000000000000e+00 4.16452718038482043e-07 
3.07545755287264938e-05 0.00000000000000000e+00 5.44070316855215824e-07 
1.78741989041897110e-05 0.00000000000000000e+00 6.06549031595028807e-07 
3.07545755290077901e-05 0.00000000000000000e+00 5.44070316824426600e-07 
3.18622335286427270e-05 0.00000000000000000e+00 -5.20642856495092206e-07 
3.45893080948929041e-05 0.00000000000000000e+00 -6.82962754037287615e-07 
3.85825839837000318e-05 0.00000000000000000e+00 -6.56902978835280487e-07 
3.45893080952793409e-05 0.00000000000000000e+00 -6.82962754002238662e-07 
9.43852420652343784e-06 0.00000000000000000e+00 8.40298547602672674e-07 
1.26740605350028418e-05 0.00000000000000000e+00 1.15659051684625471e-06 
1.92789721831244638e-05 0.00000000000000000e+00 1.20336944072054434e-06 
1.26740605348440062e-05 0.00000000000000000e+00 1.15659051684487405e-06 
3.92570728353604782e-05 0.00000000000000000e+00 -5.04583116352773615e-07 
6.17659804635572909e-04 0.00000000000000000e+00 1.26198304581103301e-08 
6.61194265817348153e-05 0.00000000000000000e+00 -4.99201799681630055e-07 
2.69270164480024837e-05 0.00000000000000000e+00 -4.76051952665452501e-07 
1.06813057912773799e-03 0.00000000000000000e+00 -1.10700017215955789e-07 
1.08289364954819911e-05 0.00000000000000000e+00 5.44274103831125136e-07 
1.78741989022000374e-05 0.00000000000000000e+00 6.06549031601622959e-07 
3.85825839828108505e-05 0.00000000000000000e+00 -6.56902978874183863e-07 
2.23475539185432099e-05 0.00000000000000000e+00 9.36710025949551158e-07 
1.92789721831810592e-05 0.00000000000000000e+00 1.20336944080750371e-06 
3.47434706226909280e-06 0.00000000000000000e+00 1.12971487492475258e-06 
-2.74808069500047700e-05 0.00000000000000000e+00 1.19197467175113580e-06 
-8.13548101805909579e-05 0.00000000000000000e+00 -4.47019120818349685e-07 
-8.13548101818525356e-05 0.00000000000000000e+00 -4.47019120805860184e-07 
-8.13548101831490245e-05 0.00000000000000000e+00 -4.47019120842169945e-07 
3.47434706261931721e-06 0.00000000000000000e+00 1.12971487494174915e-06 
-8.13548101839289996e-05 0.00000000000000000e+00 -4.47019120836261467e-07 
2.04754199991246180e-03 0.00000000000000000e+00 -1.89047321076581325e-06 
1.81279753353944132e-05 0.00000000000000000e+00 3.37186884797154396e-07 
4.50588997034179501e-07 0.00000000000000000e+00 1.67719506634208908e-07 
-3.14301606179101818e-06 0.00000000000000000e+00 -2.76472308071031225e-07 
2.17548790879103647e-05 0.00000000000000000e+00 -2.87889172544062530e-07 
3.54522101951040239e-05 0.00000000000000000e+00 2.28986316306729759e-07 
2.09513879035453373e-05 0.00000000000000000e+00 4.87191411000867302e-07 
-5.36808622443766479e-06 0.00000000000000000e+00 -1.62916884084441752e-07 
-1.92454675767549426e-05 0.00000000000000000e+00 -7.96482612637743859e-07 
-1.10604098241461319e-05 0.00000000000000000e+00 1.51013611886900932e-07 
1.06385046756364936e-05 0.00000000000000000e+00 1.31336947569380015e-06 
2.66923358058886718e-05 0.00000000000000000e+00 -4.44570969518629258e-07 
2.33466012153620711e-05 0.00000000000000000e+00 -1.98112474527212146e-06 
-3.50095215851556032e-05 0.00000000000000000e+00 -2.21733698066500870e-08 
1.41155244455892845e-05 0.00000000000000000e+00 2.93363530534350438e-07 
1.76366565203405622e-05 0.00000000000000000e+00 3.55740845136104565e-07 
6.24748557798337856e-06 0.00000000000000000e+00 2.57284586624241681e-07 
-4.36098406935963914e-06 0.00000000000000000e+00 5.04364566825474626e-08 
1.35273692740385641e-05 0.00000000000000000e+00 3.31409609766844430e-07 
-6.03266343582509256e-06 0.00000000000000000e+00 -1.84934735344620516e-07 
1.67559291526815827e-06 0.00000000000000000e+00 -3.39403726778384684e-07 
-6.46727435541695805e-06 0.00000000000000000e+00 -6.75588038323775068e-08 
1.49170285276496365e-05 0.00000000000000000e+00 -3.46858543304998227e-07 
2.74675113620956965e-05 0.00000000000000000e+00 -1.88927717838335602e-07 
7.99477878475028929e-06 0.00000000000000000e+00 -3.64458163312131247e-07 
3.45322394388642578e-05 0.00000000000000000e+00 8.39161690014428671e-08 
3.43858668704574461e-05 0.00000000000000000e+00 3.57749898309350922e-07 
3.18849356216706898e-05 0.00000000000000000e+00 -6.12136848308997092e-08 
2.67116287743075117e-05 0.00000000000000000e+00 5.00729297153660143e-07 
1.45060986024036753e-05 0.00000000000000000e+00 4.05787358305055774e-07 
3.14104558118511869e-05 0.00000000000000000e+00 4.53865768843845167e-07 
1.08155821952430461e-06 0.00000000000000000e+00 6.43903647874401227e-08 
-1.08820707892537128e-05 0.00000000000000000e+00 -3.96469320840655184e-07 
7.82464291670005817e-06 0.00000000000000000e+00 2.61593588980978867e-07 
-1.78603938795348823e-05 0.00000000000000000e+00 -7.45773574011723553e-07 
-1.94164477194627935e-05 0.00000000000000000e+00 -7.27459546021568236e-07 
-1.51082704292537245e-05 0.00000000000000000e+00 -6.01882603383038046e-07 
-1.52113928586865972e-05 0.00000000000000000e+00 -2.31772505326867365e-07 
-5.86822320080722100e-06 0.00000000000000000e+00 5.75134638909214144e-07 
-1.80993487501649272e-05 0.00000000000000000e+00 -5.38874544162512509e-07 
5.01641518983598074e-06 0.00000000000000000e+00 1.22224552156532671e-06 
1.65410060961750341e-05 0.00000000000000000e+00 1.15708455902626385e-06 
-7.21492356663524325e-07 0.00000000000000000e+00 9.46673858078544318e-07 
2.47702358469956553e-05 0.00000000000000000e+00 1.91671617437209619e-07 
2.76572568525226355e-05 0.00000000000000000e+00 -1.27238671820413640e-06 
2.09487475801969285e-05 0.00000000000000000e+00 8.22044236627330052e-07 
2.53799101991430547e-05 0.00000000000000000e+00 -2.00069173601680455e-06 
1.51093954329640108e-05 0.00000000000000000e+00 -1.27776590343831218e-06 
1.51093954319240712e-05 0.00000000000000000e+00 -1.27776590343512395e-06 
2.74235049236397117e-05 0.00000000000000000e+00 -1.62642518192476958e-06 
1.51093954331106221e-05 0.00000000000000000e+00 -1.27776590341507044e-06 
-3.50095215842710026e-05 0.00000000000000000e+00 -2.21733697662627090e-08 
1.76366565204039067e-05 0.00000000000000000e+00 3.55740845020464345e-07 
1.41155244463534844e-05 0.00000000000000000e+00 2.93363530551390306e-07 
-4.36098406895886381e-06 0.00000000000000000e+00 5.04364567337997322e-08 
6.24748557862587677e-06 0.00000000000000000e+00 2.57284586641305795e-07 
1.67559291576645759e-06 0.00000000000000000e+00 -3.39403726794842164e-07 
-6.03266343611880293e-06 0.00000000000000000e+00 -1.84934735345055044e-07 
2.74675113627007355e-05 0.00000000000000000e+00 -1.88927717876653255e-07 
1.49170285276948748e-05 0.00000000000000000e+00 -3.46858543367873694e-07 
3.43858668694168831e-05 0.00000000000000000e+00 3.57749898331681252e-07 
3.45322394381818068e-05 0.00000000000000000e+00 8.39161689720436241e-08 
1.45060986030698091e-05 0.00000000000000000e+00 4.05787358346588552e-07 
2.67116287747598950e-05 0.00000000000000000e+00 5.00729297148461478e-07 
-1.08820707894549950e-05 0.00000000000000000e+00 -3.96469320832181466e-07 
1.08155821886467601e-06 0.00000000000000000e+00 6.43903648017798611e-08 
-1.94164477196267249e-05 0.00000000000000000e+00 -7.27459546012019634e-07 
-1.78603938789722627e-05 0.00000000000000000e+00 -7.45773573998140956e-07 
-5.86822320029582994e-06 0.00000000000000000e+00 5.75134638905604513e-07 
-1.52113928563614714e-05 0.00000000000000000e+00 -2.31772505329167907e-07 
1.65410060955346229e-05 0.00000000000000000e+00 1.15708455907083684e-06 
5.01641519209155494e-06 0.00000000000000000e+00 1.22224552153206394e-06 
2.76572568520512515e-05 0.00000000000000000e+00 -1.27238671818131988e-06 
2.47702358476222699e-05 0.00000000000000000e+00 1.91671617417085810e-07 
-1.53784708958515521e-05 0.00000000000000000e+00 9.51355094596736413e-08 
2.53799101995486276e-05 0.00000000000000000e+00 -2.00069173601775069e-06 
-2.74808069525128820e-05 0.00000000000000000e+00 1.19197467173590445e-06 
2.25087104828928250e-03 0.00000000000000000e+00 -2.71758657072002483e-06 
1.32162702354738683e-03 0.00000000000000000e+00 -3.59587440090732353e-07 
4.52312986399047744e-04 0.00000000000000000e+00 -1.16360084891052023e-07 
6.53508669272247531e-05 0.00000000000000000e+00 -4.99265070462409533e-07 
-1.46035016083032885e-05 0.00000000000000000e+00 -1.33694870409066924e-07 
1.08392222166216388e-05 0.00000000000000000e+00 5.44403278171934623e-07 
3.61251776158093865e-05 0.00000000000000000e+00 4.16240261999065959e-07 
3.92548298995963442e-05 0.00000000000000000e+00 -5.05313704696440448e-07 
3.18261084037717683e-05 0.00000000000000000e+00 -5.17479071325859098e-07 
2.22005991655197817e-05 0.00000000000000000e+00 9.52843236650936390e-07 
8.75288081079758839e-06 0.00000000000000000e+00 7.55183119396630749e-07 
-1.10933508381049805e-05 0.00000000000000000e+00 -1.80629422930266890e-06 
2.43652709620164817e-03 0.00000000000000000e+00 -3.52742606630873991e-06 
1.75121154593700689e-03 0.00000000000000000e+00 -9.39445640164558939e-07 
8.10677312165113411e-04 0.00000000000000000e+00 3.03600739579488630e-08 
2.16906712529022167e-04 0.00000000000000000e+00 -3.96175013041103710e-07 
5.58556719594590546e-06 0.00000000000000000e+00 -4.01323525456522778e-07 
-7.19839233875580107e-06 0.00000000000000000e+00 2.39452459506929648e-07 
2.45057234993529507e-05 0.00000000000000000e+00 6.07872202090355860e-07 
3.99691120668730913e-05 0.00000000000000000e+00 -3.02375326704652424e-08 
3.72047720762170648e-05 0.00000000000000000e+00 -7.21397068832743441e-07 
2.71796777749587177e-05 0.00000000000000000e+00 1.60687153820601245e-07 
1.59523241569070314e-05 0.00000000000000000e+00 1.29562828943426019e-06 
-3.94234964632694077e-07 0.00000000000000000e+00 -6.14486063171141370e-07 
-2.12144365567065599e-05 0.00000000000000000e+00 -1.64380295026109743e-06 
-2.27139415037121419e-05 0.00000000000000000e+00 3.01440988009851051e-05 
-2.27139415032037188e-05 0.00000000000000000e+00 3.01440988009611781e-05 
1.12309570234479489e-06 0.00000000000000000e+00 3.01085807866454107e-05 
1.12309570348773372e-06 0.00000000000000000e+00 3.01085807866770084e-05 
-1.02900782641041121e-05 0.00000000000000000e+00 5.50835018932259278e-05 
-1.02900782652097340e-05 0.00000000000000000e+00 5.50835018932534801e-05 
-2.27139415037622185e-05 0.00000000000000000e+00 3.01440988009613407e-05 
1.12309570147068399e-06 0.00000000000000000e+00 3.01085807866932918e-05 
3.47434706322806962e-06 0.00000000000000000e+00 1.12971487493403098e-06 
3.47434706310615109e-06 0.00000000000000000e+00 1.12971487494789522e-06 
3.47434706122015430e-06 0.00000000000000000e+00 1.12971487493522530e-06 
-2.74808069505662512e-05 0.00000000000000000e+00 1.19197467177364146e-06 
-2.74808069513916001e-05 0.00000000000000000e+00 1.19197467179717373e-06 
-2.74808069516892136e-05 0.00000000000000000e+00 1.19197467181529346e-06 
5.60788645824109769e-06 0.00000000000000000e+00 2.26559002069714270e-07 
1.22379468376695140e-05 0.00000000000000000e+00 3.20930502186017035e-07 
-6.51368031418394374e-06 0.00000000000000000e+00 -7.43088750778843391e-08 
8.09809372271619379e-06 0.00000000000000000e+00 -3.64521860056526487e-07 
3.19000947995561746e-05 0.00000000000000000e+00 -6.06273674565924869e-08 
3.14049051553099505e-05 0.00000000000000000e+00 4.53970034820606948e-07 
7.81575099970799715e-06 0.00000000000000000e+00 2.61363332226360366e-07 
-1.51216463778691229e-05 0.00000000000000000e+00 -6.02569695287513615e-07 
-1.80702832162800398e-05 0.00000000000000000e+00 -5.35428653170932475e-07 
-4.49074304268703659e-07 0.00000000000000000e+00 9.63467063686249177e-07 
2.17252871869104182e-05 0.00000000000000000e+00 7.33490974729479728e-07 
2.67251200974610617e-05 0.00000000000000000e+00 -1.86918374496100519e-06 
-3.50095215841601971e-05 0.00000000000000000e+00 -2.21733697692332535e-08 
1.86188577406516413e-05 0.00000000000000000e+00 3.48632092050110771e-07 
-4.57814864013322779e-08 0.00000000000000000e+00 1.58226644036795121e-07 
-3.04799881235556729e-06 0.00000000000000000e+00 -2.78370505561673162e-07 
2.17971388336363375e-05 0.00000000000000000e+00 -2.87365642157832022e-07 
3.54521118183451906e-05 0.00000000000000000e+00 2.29250398724872035e-07 
2.09457385447634690e-05 0.00000000000000000e+00 4.87148075477174710e-07 
-5.37859135413959720e-06 0.00000000000000000e+00 -1.63324956387302891e-07 
-1.92505657920003858e-05 0.00000000000000000e+00 -7.96440097343064104e-07 
-1.09582449959099516e-05 0.00000000000000000e+00 1.59861873334416358e-07 
1.10892192638800085e-05 0.00000000000000000e+00 1.31134961034538575e-06 
2.70831161160316811e-05 0.00000000000000000e+00 -6.46262755245588262e-07 
1.90683302616763283e-05 0.00000000000000000e+00 -1.73211245635037008e-06 
2.04754199991341460e-03 0.00000000000000000e+00 -1.89047321071205715e-06 
2.04754199991240933e-03 0.00000000000000000e+00 -1.89047321069299594e-06 
2.04754199991287770e-03 0.00000000000000000e+00 -1.89047321068572967e-06 
-1.02900782637013987e-05 0.00000000000000000e+00 5.50835018932261582e-05 
-2.27139415037959914e-05 0.00000000000000000e+00 3.01440988009622724e-05 
1.12309570246421976e-06 0.00000000000000000e+00 3.01085807866430899e-05 
5.60788645813658060e-06 0.00000000000000000e+00 2.26559002068228045e-07 
1.22379468380555984e-05 0.00000000000000000e+00 3.20930502182918165e-07 
-6.51368031391084676e-06 0.00000000000000000e+00 -7.43088750450145903e-08 
8.09809372220637482e-06 0.00000000000000000e+00 -3.64521860029149059e-07 
3.19000947989802735e-05 0.00000000000000000e+00 -6.06273674260921010e-08 
3.14049051543649599e-05 0.00000000000000000e+00 4.53970034792822573e-07 
7.81575099948524782e-06 0.00000000000000000e+00 2.61363332223404221e-07 
-1.51216463780033742e-05 0.00000000000000000e+00 -6.02569695293669427e-07 
-1.80702832155937940e-05 0.00000000000000000e+00 -5.35428653175042278e-07 
-4.49074303261994837e-07 0.00000000000000000e+00 9.63467063704873738e-07 
2.17252871857464187e-05 0.00000000000000000e+00 7.33490974736769717e-07 
2.67251200976744056e-05 0.00000000000000000e+00 -1.86918374493641180e-06 
-3.50095215845345722e-05 0.00000000000000000e+00 -2.21733697910875506e-08 
1.86188577397447061e-05 0.00000000000000000e+00 3.48632092080863255e-07 
-4.57814861492010627e-08 0.00000000000000000e+00 1.58226644044942308e-07 
-3.04799881329315822e-06 0.00000000000000000e+00 -2.78370505606400631e-07 
2.17971388332140137e-05 0.00000000000000000e+00 -2.87365642175238126e-07 
3.54521118184050927e-05 0.00000000000000000e+00 2.29250398750536710e-07 
2.09457385447600538e-05 0.00000000000000000e+00 4.87148075473258453e-07 
-5.37859135426400940e-06 0.00000000000000000e+00 -1.63324956390601237e-07 
-1.92505657918151770e-05 0.00000000000000000e+00 -7.96440097345950793e-07 
-1.09582449966462604e-05 0.00000000000000000e+00 1.59861873348473293e-07 
1.10892192643525852e-05 0.00000000000000000e+00 1.31134961033291191e-06 
2.70831161153653847e-05 0.00000000000000000e+00 -6.46262755277973296e-07 
1.90683302609282288e-05 0.00000000000000000e+00 -1.73211245634613576e-06 
2.04754199991313661e-03 0.00000000000000000e+00 -1.89047321064898368e-06 
2.25087104828905786e-03 0.00000000000000000e+00 -2.71758657072604596e-06 
1.32162702354555713e-03 0.00000000000000000e+00 -3.59587440087843971e-07 
4.52312986399289305e-04 0.00000000000000000e+00 -1.16360084881994700e-07 
6.53508669269113103e-05 0.00000000000000000e+00 -4.99265070464731251e-07 
-1.46035016080996754e-05 0.00000000000000000e+00 -1.33694870452598065e-07 
1.08392222167024661e-05 0.00000000000000000e+00 5.44403278208763192e-07 
3.61251776167231792e-05 0.00000000000000000e+00 4.16240262002217556e-07 