# vtk DataFile Version 2.0

ASCII

DATASET UNSTRUCTURED_GRID

POINTS 281 double 

0.00000000000000000e+00  6.00000000000000012e-03  8.68039800000000063e-03
0.00000000000000000e+00  6.00000000000000012e-03  2.15013699999999988e-02
0.00000000000000000e+00  5.99999699999999997e-03  3.38432499999999983e-02
0.00000000000000000e+00  6.00000000000000012e-03  4.61511800000000000e-02
0.00000000000000000e+00  5.99999399999999981e-03  5.84285100000000029e-02
0.00000000000000000e+00  5.99999899999999978e-03  7.03572799999999943e-02
0.00000000000000000e+00  6.00000000000000012e-03  7.56573400000000035e-02
0.00000000000000000e+00  6.00000000000000012e-03  1.52458600000000000e-02
0.00000000000000000e+00  5.99999899999999978e-03  2.76822099999999988e-02
0.00000000000000000e+00  5.99999899999999978e-03  3.99985900000000005e-02
0.00000000000000000e+00  5.99999800000000031e-03  5.22986000000000006e-02
0.00000000000000000e+00  5.99999800000000031e-03  6.44963600000000026e-02
0.00000000000000000e+00  3.00000000000000006e-03  3.07692300000000007e-03
0.00000000000000000e+00  3.00000000000000006e-03  1.04940499999999996e-02
0.00000000000000000e+00  3.00000000000000006e-03  7.41712199999999995e-03
0.00000000000000000e+00  3.00000000000000006e-03  2.30583799999999998e-02
0.00000000000000000e+00  3.00000000000000006e-03  1.99814599999999995e-02
0.00000000000000000e+00  2.99999900000000016e-03  3.53831699999999985e-02
0.00000000000000000e+00  2.99999900000000016e-03  3.23062400000000000e-02
0.00000000000000000e+00  3.00000000000000006e-03  4.76909699999999992e-02
0.00000000000000000e+00  3.00000000000000006e-03  4.46140500000000023e-02
0.00000000000000000e+00  2.99999699999999991e-03  5.99834799999999987e-02
0.00000000000000000e+00  2.99999699999999991e-03  5.69065600000000019e-02
0.00000000000000000e+00  2.99999900000000016e-03  7.21017199999999941e-02
0.00000000000000000e+00  2.99999900000000016e-03  6.90247900000000025e-02
0.00000000000000000e+00  3.00000000000000006e-03  7.78286700000000026e-02
0.00000000000000000e+00  3.00000000000000006e-03  7.47517500000000057e-02
0.00000000000000000e+00  5.99999899999999978e-03  7.30073100000000058e-02
0.00000000000000000e+00  6.00000000000000012e-03  7.78286700000000026e-02
0.00000000000000000e+00  8.99999999999999932e-03  7.47517500000000057e-02
0.00000000000000000e+00  8.99999999999999932e-03  7.78286700000000026e-02
0.00000000000000000e+00  8.99999999999999932e-03  3.07692300000000007e-03
0.00000000000000000e+00  8.99999999999999932e-03  7.41712199999999995e-03
0.00000000000000000e+00  8.99999999999999932e-03  1.04940499999999996e-02
0.00000000000000000e+00  8.99999999999999932e-03  1.99814599999999995e-02
0.00000000000000000e+00  8.99999999999999932e-03  2.30583799999999998e-02
0.00000000000000000e+00  8.99999899999999985e-03  3.23062400000000000e-02
0.00000000000000000e+00  8.99999899999999985e-03  3.53831699999999985e-02
0.00000000000000000e+00  8.99999999999999932e-03  4.46140500000000023e-02
0.00000000000000000e+00  8.99999999999999932e-03  4.76909699999999992e-02
0.00000000000000000e+00  8.99999699999999916e-03  5.69065600000000019e-02
0.00000000000000000e+00  8.99999699999999916e-03  5.99834799999999987e-02
0.00000000000000000e+00  8.99999899999999985e-03  6.90247900000000025e-02
0.00000000000000000e+00  8.99999899999999985e-03  7.21017199999999941e-02
0.00000000000000000e+00  6.00000000000000012e-03  4.34019900000000031e-03
0.00000000000000000e+00  3.00000000000000006e-03  1.37767800000000006e-02
0.00000000000000000e+00  6.00000000000000012e-03  1.19631300000000006e-02
0.00000000000000000e+00  3.00000000000000006e-03  1.68536999999999992e-02
0.00000000000000000e+00  6.00000000000000012e-03  1.83736200000000002e-02
0.00000000000000000e+00  5.99999800000000031e-03  3.07627299999999985e-02
0.00000000000000000e+00  3.00000000000000006e-03  2.92257200000000002e-02
0.00000000000000000e+00  3.00000000000000006e-03  2.61487999999999998e-02
0.00000000000000000e+00  8.99999999999999932e-03  2.92257200000000002e-02
0.00000000000000000e+00  6.00000000000000012e-03  4.30748800000000029e-02
0.00000000000000000e+00  2.99999900000000016e-03  4.15377600000000000e-02
0.00000000000000000e+00  2.99999900000000016e-03  3.84608300000000014e-02
0.00000000000000000e+00  8.99999899999999985e-03  4.15377600000000000e-02
0.00000000000000000e+00  5.99999599999999963e-03  5.53635499999999975e-02
0.00000000000000000e+00  2.99999900000000016e-03  5.38416099999999981e-02
0.00000000000000000e+00  2.99999900000000016e-03  5.07646799999999995e-02
0.00000000000000000e+00  8.99999899999999985e-03  5.38416099999999981e-02
0.00000000000000000e+00  5.99999800000000031e-03  6.74268199999999984e-02
0.00000000000000000e+00  2.99999900000000016e-03  6.60943300000000067e-02
0.00000000000000000e+00  2.99999900000000016e-03  6.30174099999999959e-02
0.00000000000000000e+00  8.99999899999999985e-03  6.60943300000000067e-02
0.00000000000000000e+00  5.99999899999999978e-03  4.92248900000000003e-02
0.00000000000000000e+00  8.99999999999999932e-03  1.68536999999999992e-02
0.00000000000000000e+00  5.99999899999999978e-03  2.45917899999999988e-02
0.00000000000000000e+00  8.99999999999999932e-03  2.61487999999999998e-02
0.00000000000000000e+00  8.99999999999999932e-03  1.37767800000000006e-02
0.00000000000000000e+00  5.99999800000000031e-03  3.69209200000000029e-02
0.00000000000000000e+00  8.99999899999999985e-03  3.84608300000000014e-02
0.00000000000000000e+00  8.99999899999999985e-03  5.07646799999999995e-02
0.00000000000000000e+00  5.99999599999999963e-03  6.14624299999999985e-02
0.00000000000000000e+00  8.99999899999999985e-03  6.30174099999999959e-02
1.20000000000000002e-02  1.20000000000000002e-02  8.00000000000000017e-02
0.00000000000000000e+00  0.00000000000000000e+00  8.00000000000000017e-02
1.20000000000000002e-02  6.00000000000000012e-03  0.00000000000000000e+00
1.20000000000000002e-02  3.00000000000000006e-03  0.00000000000000000e+00
1.20000000000000002e-02  8.99999999999999932e-03  0.00000000000000000e+00
1.20000000000000002e-02  0.00000000000000000e+00  8.00000000000000017e-02
1.20000000000000002e-02  0.00000000000000000e+00  0.00000000000000000e+00
0.00000000000000000e+00  1.20000000000000002e-02  0.00000000000000000e+00
1.20000000000000002e-02  5.99999899999999978e-03  8.68039699999999942e-03
1.20000000000000002e-02  5.99999899999999978e-03  1.52458600000000000e-02
1.20000000000000002e-02  5.99999899999999978e-03  2.15013699999999988e-02
1.20000000000000002e-02  6.00000000000000012e-03  2.76822099999999988e-02
1.20000000000000002e-02  5.99999899999999978e-03  3.38432399999999967e-02
1.20000000000000002e-02  5.99999800000000031e-03  3.99985900000000005e-02
1.20000000000000002e-02  5.99999699999999997e-03  4.61511800000000000e-02
1.20000000000000002e-02  5.99999300000000034e-03  5.22986100000000023e-02
1.20000000000000002e-02  5.99998599999999969e-03  5.84285400000000010e-02
1.20000000000000002e-02  5.99997800000000043e-03  6.44963800000000059e-02
1.20000000000000002e-02  5.99997500000000027e-03  7.03572999999999976e-02
1.20000000000000002e-02  5.99997500000000027e-03  7.56573600000000068e-02
1.20000000000000002e-02  3.00000000000000006e-03  3.07692300000000007e-03
1.20000000000000002e-02  3.00000000000000006e-03  7.41712099999999961e-03
1.20000000000000002e-02  3.00000000000000006e-03  1.04940399999999996e-02
1.20000000000000002e-02  2.99999900000000016e-03  1.37767800000000006e-02
1.20000000000000002e-02  2.99999900000000016e-03  1.68536999999999992e-02
1.20000000000000002e-02  5.99999899999999978e-03  1.19631300000000006e-02
1.20000000000000002e-02  3.00000000000000006e-03  1.99814500000000013e-02
1.20000000000000002e-02  3.00000000000000006e-03  2.30583799999999998e-02
1.20000000000000002e-02  5.99999899999999978e-03  1.83736099999999986e-02
1.20000000000000002e-02  3.00000000000000006e-03  2.61487999999999998e-02
1.20000000000000002e-02  3.00000000000000006e-03  2.92257200000000002e-02
1.20000000000000002e-02  5.99999899999999978e-03  2.45917899999999988e-02
1.20000000000000002e-02  3.00000000000000006e-03  3.23062299999999983e-02
1.20000000000000002e-02  3.00000000000000006e-03  3.53831599999999968e-02
1.20000000000000002e-02  5.99999899999999978e-03  3.07627200000000003e-02
1.20000000000000002e-02  2.99999900000000016e-03  3.84608300000000014e-02
1.20000000000000002e-02  2.99999900000000016e-03  4.15377499999999983e-02
1.20000000000000002e-02  5.99999899999999978e-03  3.69209100000000012e-02
1.20000000000000002e-02  2.99999799999999981e-03  4.46140500000000023e-02
1.20000000000000002e-02  2.99999799999999981e-03  4.76909800000000009e-02
1.20000000000000002e-02  5.99999800000000031e-03  4.30748800000000029e-02
1.20000000000000002e-02  2.99999699999999991e-03  5.07646900000000012e-02
1.20000000000000002e-02  2.99999699999999991e-03  5.38416099999999981e-02
1.20000000000000002e-02  5.99999500000000015e-03  4.92249000000000020e-02
1.20000000000000002e-02  2.99999299999999984e-03  5.69065799999999983e-02
1.20000000000000002e-02  2.99999299999999984e-03  5.99835000000000021e-02
1.20000000000000002e-02  5.99999000000000018e-03  5.53635800000000025e-02
1.20000000000000002e-02  2.99998900000000021e-03  6.30174200000000045e-02
1.20000000000000002e-02  2.99998900000000021e-03  6.60943499999999962e-02
1.20000000000000002e-02  5.99998200000000006e-03  6.14624599999999965e-02
1.20000000000000002e-02  2.99998799999999987e-03  6.90248100000000059e-02
1.20000000000000002e-02  2.99998799999999987e-03  7.21017300000000028e-02
1.20000000000000002e-02  5.99997700000000009e-03  6.74268400000000018e-02
1.20000000000000002e-02  2.99998699999999997e-03  7.47517600000000004e-02
1.20000000000000002e-02  2.99998699999999997e-03  7.78286799999999973e-02
1.20000000000000002e-02  5.99998700000000003e-03  7.78286799999999973e-02
1.20000000000000002e-02  5.99997500000000027e-03  7.30073299999999953e-02
1.20000000000000002e-02  8.99998699999999922e-03  7.78286799999999973e-02
1.20000000000000002e-02  8.99999999999999932e-03  3.07692300000000007e-03
[...]
POINT_DATA 281

SCALARS Rank unsigned_int
LOOKUP_TABLE default
0 0 0 0 0 0 0 0 0 0 0 0 0 0 0 0 0 0 0 0 0 0 0 0 0 0 0 0 0 0 0 0 0 0 0 0 0 0 0 0 0 0 0 0 0 0 0 0 0 0 0 0 0 0 0 0 0 0 0 0 0 0 0 0 0 0 0 0 0 0 0 0 0 0 0 0 0 0 0 0 0 0 0 0 0 0 0 0 0 0 0 0 0 0 0 0 0 0 0 0 0 0 0 0 0 0 0 0 0 0 0 0 0 0 0 0 0 0 0 0 0 0 0 0 0 0 0 0 0 0 0 0 0 0 0 0 0 0 0 0 0 0 0 0 0 0 0 0 0 0 0 0 0 0 0 0 0 0 0 0 0 0 0 0 0 0 0 0 0 0 0 0 0 0 0 0 0 0 0 0 0 0 0 0 0 0 0 0 0 0 0 0 0 0 0 0 0 0 0 0 0 0 0 0 0 0 0 0 0 0 0 0 0 0 0 0 0 0 0 0 0 0 0 0 0 0 0 0 0 0 0 0 0 0 0 0 0 0 0 0 0 0 0 0 0 0 0 0 0 0 0 0 0 0 0 0 0 0 0 0 0 0 0 0 0 0 0 0 0 0 0 0 0 0 0 0 0 0 0 0 0 

VECTORS Forces0 double
1.03841885259028755e-05 0.00000000000000000e+00 1.45989072212577577e-07 
9.85369687582232244e-06 0.00000000000000000e+00 -1.00118742823913516e-07 
7.89364451681431230e-06 0.00000000000000000e+00 7.55998730746907610e-08 
5.68138523139026009e-06 0.00000000000000000e+00 -5.36609104894500453e-08 
3.44939805280304873e-06 0.00000000000000000e+00 7.21141091915642217e-08 
1.18541972099903034e-06 0.00000000000000000e+00 -1.58603440241781547e-07 
2.72372144333427259e-07 0.00000000000000000e+00 -4.33545175063831220e-07 
1.03708068782850889e-05 0.00000000000000000e+00 3.50832231000911757e-08 
8.99892821061250899e-06 0.00000000000000000e+00 -8.16704192436000191e-08 
6.76747418884698718e-06 0.00000000000000000e+00 1.35606290388291679e-07 
4.60188682162964563e-06 0.00000000000000000e+00 -2.01500944527119357e-07 
2.28671591226260411e-06 0.00000000000000000e+00 3.32516448290914678e-07 
9.82205849790353603e-06 0.00000000000000000e+00 1.40942859009134991e-08 
1.05077753947115118e-05 0.00000000000000000e+00 1.33484857805533406e-07 
1.02992614310845942e-05 0.00000000000000000e+00 1.41231683760955307e-07 
9.60961316784466155e-06 0.00000000000000000e+00 -1.13470888334208458e-07 
1.00719415384133315e-05 0.00000000000000000e+00 -7.67395871163533376e-08 
7.66419092623093564e-06 0.00000000000000000e+00 1.10957179905185961e-07 
8.14096890156564629e-06 0.00000000000000000e+00 3.39495824178578588e-08 
5.38418187418290083e-06 0.00000000000000000e+00 -1.15295804811904604e-07 
5.99264045684720598e-06 0.00000000000000000e+00 9.49290692562874815e-09 
3.17822239004593039e-06 0.00000000000000000e+00 1.80790756511555764e-07 
3.71570335225505702e-06 0.00000000000000000e+00 -3.11857800655559708e-08 
8.61645879882902380e-07 0.00000000000000000e+00 -3.54588820301877680e-07 
1.44180759380013805e-06 0.00000000000000000e+00 5.46428613064311544e-09 
-3.05850253789528629e-08 0.00000000000000000e+00 -1.63962248363617952e-07 
4.11664430889627638e-07 0.00000000000000000e+00 -4.72867622648108558e-07 
7.01508605767513979e-07 0.00000000000000000e+00 -4.27890177594646996e-07 
-3.05850253717437654e-08 0.00000000000000000e+00 -1.63962248362609136e-07 
4.11664430887663792e-07 0.00000000000000000e+00 -4.72867622645951377e-07 
-3.05850253769123605e-08 0.00000000000000000e+00 -1.63962248359543724e-07 
9.82205849790288213e-06 0.00000000000000000e+00 1.40942858972096357e-08 
1.02992614310898983e-05 0.00000000000000000e+00 1.41231683788777851e-07 
1.05077753947144053e-05 0.00000000000000000e+00 1.33484857777046153e-07 
1.00719415384124269e-05 0.00000000000000000e+00 -7.67395871149059171e-08 
9.60961316784456499e-06 0.00000000000000000e+00 -1.13470888336490259e-07 
8.14096890156437235e-06 0.00000000000000000e+00 3.39495823871090805e-08 
7.66419092623216553e-06 0.00000000000000000e+00 1.10957179921521627e-07 
5.99264045685048146e-06 0.00000000000000000e+00 9.49290691456649786e-09 
5.38418187418347427e-06 0.00000000000000000e+00 -1.15295804813655845e-07 
3.71570335225632756e-06 0.00000000000000000e+00 -3.11857800917834461e-08 
3.17822239004509479e-06 0.00000000000000000e+00 1.80790756508791101e-07 
1.44180759379720604e-06 0.00000000000000000e+00 5.46428614452577368e-09 
8.61645879886974915e-07 0.00000000000000000e+00 -3.54588820306898945e-07 
1.00517525688461528e-05 0.00000000000000000e+00 7.08901949650695929e-08 
1.04782929626735248e-05 0.00000000000000000e+00 7.15719740767937529e-08 
1.05688926451985920e-05 0.00000000000000000e+00 1.10440968689897661e-07 
1.02676467460714622e-05 0.00000000000000000e+00 -6.20061181613576248e-09 
1.01829570827591792e-05 0.00000000000000000e+00 -4.32520706715028439e-08 
8.42032336078576845e-06 0.00000000000000000e+00 -9.25379705461993641e-09 
8.72378314964286750e-06 0.00000000000000000e+00 -4.89118369108525806e-08 
9.19190031431881823e-06 0.00000000000000000e+00 -1.04048856234299730e-07 
8.72378314964463610e-06 0.00000000000000000e+00 -4.89118369099616608e-08 
6.26068964347530731e-06 0.00000000000000000e+00 6.59162585895765308e-08 
6.50342539978941838e-06 0.00000000000000000e+00 1.08877945878882104e-07 
7.06479105177060637e-06 0.00000000000000000e+00 1.43949380749333483e-07 
6.50342539978937688e-06 0.00000000000000000e+00 1.08877945888838658e-07 
3.99997612860633291e-06 0.00000000000000000e+00 -1.18000080903940244e-07 
4.29792855611270007e-06 0.00000000000000000e+00 -1.75185350789970259e-07 
4.86205184064081367e-06 0.00000000000000000e+00 -1.96769334913822025e-07 
4.29792855610995568e-06 0.00000000000000000e+00 -1.75185350806643044e-07 
1.74416711150296116e-06 0.00000000000000000e+00 1.77197668328654881e-07 
1.98804296931166977e-06 0.00000000000000000e+00 2.75169212427152040e-07 
2.57488347948428813e-06 0.00000000000000000e+00 3.25104883205369330e-07 
1.98804296931154102e-06 0.00000000000000000e+00 2.75169212422962404e-07 
5.11250747109230146e-06 0.00000000000000000e+00 -1.65901074301297535e-07 
1.02676467460726311e-05 0.00000000000000000e+00 -6.20061180848549325e-09 
9.38824788499107833e-06 0.00000000000000000e+00 -1.15044623527604545e-07 
9.19190031431970592e-06 0.00000000000000000e+00 -1.04048856232274051e-07 
1.04782929626736908e-05 0.00000000000000000e+00 7.15719740812113738e-08 
7.38182882790494528e-06 0.00000000000000000e+00 1.35104206039922750e-07 
7.06479105177123826e-06 0.00000000000000000e+00 1.43949380735154152e-07 
4.86205184064104068e-06 0.00000000000000000e+00 -1.96769334911161918e-07 
2.88599808465227616e-06 0.00000000000000000e+00 2.68277389659504163e-07 
2.57488347948248776e-06 0.00000000000000000e+00 3.25104883192181132e-07 
1.82084680556920514e-06 0.00000000000000000e+00 5.19564406475096886e-07 
-2.81141538396131960e-07 0.00000000000000000e+00 5.24429829351546420e-07 
-9.76829437699037513e-07 0.00000000000000000e+00 -2.05560216723934375e-07 
-9.76829437700988230e-07 0.00000000000000000e+00 -2.05560216744223991e-07 
-9.76829437700524056e-07 0.00000000000000000e+00 -2.05560216700287386e-07 
1.82084680556969346e-06 0.00000000000000000e+00 5.19564406472842084e-07 
-9.76829437702063962e-07 0.00000000000000000e+00 -2.05560216702075261e-07 
9.11127783547318953e-06 0.00000000000000000e+00 -2.04383125708975988e-07 
-7.40820246847594667e-07 0.00000000000000000e+00 1.45525273414376127e-07 
-4.35679972087141425e-07 0.00000000000000000e+00 3.49996590478660200e-08 
-9.94000474265501371e-08 0.00000000000000000e+00 -9.96103816758979033e-08 
3.03282431429455687e-07 0.00000000000000000e+00 -8.12382412549353740e-08 
7.89692834176636422e-07 0.00000000000000000e+00 7.57350759730437263e-08 
1.36967205835208794e-06 0.00000000000000000e+00 1.35312793947202937e-07 
2.02043616929614345e-06 0.00000000000000000e+00 -5.54585242741543507e-08 
2.66351499596906442e-06 0.00000000000000000e+00 -2.06425239170241013e-07 
3.14243241140488484e-06 0.00000000000000000e+00 6.56644095694101692e-08 
3.33339153707089394e-06 0.00000000000000000e+00 3.25220794849264368e-07 
3.15708938068582292e-06 0.00000000000000000e+00 -1.69276582109994752e-07 
2.62168549834633096e-06 0.00000000000000000e+00 -4.48071755297572179e-07 
-9.42730158178270064e-07 0.00000000000000000e+00 1.36244012934698895e-08 
-7.93109669377218185e-07 0.00000000000000000e+00 1.40739836374343447e-07 
-6.64377713645777588e-07 0.00000000000000000e+00 1.33263890372502345e-07 
-5.10585556666413912e-07 0.00000000000000000e+00 7.15286380944545649e-08 
-3.52017664425160506e-07 0.00000000000000000e+00 -6.19432769446405337e-09 
-6.00009230415072611e-07 0.00000000000000000e+00 1.10455534518637344e-07 
-1.84786281365820545e-07 0.00000000000000000e+00 -7.63002678726455335e-08 
-6.70675912205901541e-09 0.00000000000000000e+00 -1.12946687980601892e-07 
-2.72068763276071423e-07 0.00000000000000000e+00 -4.30510522203084285e-08 
1.94878711281816429e-07 0.00000000000000000e+00 -1.03576684607748105e-07 
4.13758619339462311e-07 0.00000000000000000e+00 -4.83730476711985929e-08 
8.98780192128279553e-08 0.00000000000000000e+00 -1.14531048235523993e-07 
6.54540468227209269e-07 0.00000000000000000e+00 3.44371687353588131e-08 
9.33724147615875837e-07 0.00000000000000000e+00 1.10604676793945309e-07 
5.28778777871037555e-07 0.00000000000000000e+00 -8.63557357206119240e-09 
1.21790468399439822e-06 0.00000000000000000e+00 1.43789297012923562e-07 
1.53286721628627326e-06 0.00000000000000000e+00 1.07942532648804155e-07 
1.07506066857769059e-06 0.00000000000000000e+00 1.34740028547801403e-07 
1.86732218175345020e-06 0.00000000000000000e+00 7.23129507076826116e-09 
2.17835648049931308e-06 0.00000000000000000e+00 -1.17116078692511949e-07 
1.70284397648978822e-06 0.00000000000000000e+00 6.40364027189849460e-08 
2.50903834732692371e-06 0.00000000000000000e+00 -2.00771814214823205e-07 
2.79133654169784139e-06 0.00000000000000000e+00 -1.79413784472873856e-07 
2.34173899571929324e-06 0.00000000000000000e+00 -1.68476572149177421e-07 
3.02963797680799858e-06 0.00000000000000000e+00 -3.58940598377490353e-08 
3.23986243358306200e-06 0.00000000000000000e+00 1.72514578441578668e-07 
2.91029612122432706e-06 0.00000000000000000e+00 -1.21904132296367094e-07 
3.31698328538895075e-06 0.00000000000000000e+00 3.18328125831281357e-07 
3.33865412464435483e-06 0.00000000000000000e+00 2.65755768160032495e-07 
3.28802723402171540e-06 0.00000000000000000e+00 2.60803062844088763e-07 
3.25359942557945735e-06 0.00000000000000000e+00 -6.34174607362738594e-09 
3.00746210503214074e-06 0.00000000000000000e+00 -3.65058693488360801e-07 
3.32469330744074013e-06 0.00000000000000000e+00 1.65545735191971716e-07 
2.73561918460341975e-06 0.00000000000000000e+00 -4.86373095431500432e-07 
2.24823205825246956e-06 0.00000000000000000e+00 -1.74092284870156966e-07 
2.24823205825364101e-06 0.00000000000000000e+00 -1.74092284865840062e-07 
2.92151891779035735e-06 0.00000000000000000e+00 -4.39049282681048364e-07 
2.24823205825605886e-06 0.00000000000000000e+00 -1.74092284875579883e-07 
-9.42730158182543345e-07 0.00000000000000000e+00 1.36244012891998376e-08 
-6.64377713649656575e-07 0.00000000000000000e+00 1.33263890364245045e-07 
-7.93109669379995606e-07 0.00000000000000000e+00 1.40739836372329309e-07 
-3.52017664426146876e-07 0.00000000000000000e+00 -6.19432769556096103e-09 
-5.10585556664370869e-07 0.00000000000000000e+00 7.15286380603918761e-08 
-6.70675912333634110e-09 0.00000000000000000e+00 -1.12946687971587344e-07 
-1.84786281366914064e-07 0.00000000000000000e+00 -7.63002678687818986e-08 
4.13758619338580550e-07 0.00000000000000000e+00 -4.83730476665076186e-08 
1.94878711283228010e-07 0.00000000000000000e+00 -1.03576684592725446e-07 
9.33724147615564976e-07 0.00000000000000000e+00 1.10604676793825242e-07 
6.54540468228063714e-07 0.00000000000000000e+00 3.44371687428646897e-08 
1.53286721628784535e-06 0.00000000000000000e+00 1.07942532652342410e-07 
1.21790468399583182e-06 0.00000000000000000e+00 1.43789297012035686e-07 
2.17835648049990007e-06 0.00000000000000000e+00 -1.17116078687180141e-07 
1.86732218175456701e-06 0.00000000000000000e+00 7.23129507036015010e-09 
2.79133654169731411e-06 0.00000000000000000e+00 -1.79413784479370784e-07 
2.50903834732722144e-06 0.00000000000000000e+00 -2.00771814205370371e-07 
3.23986243358180119e-06 0.00000000000000000e+00 1.72514578438988865e-07 
3.02963797680628969e-06 0.00000000000000000e+00 -3.58940598353022218e-08 
3.33865412463927729e-06 0.00000000000000000e+00 2.65755768139366162e-07 
3.31698328538820452e-06 0.00000000000000000e+00 3.18328125836391084e-07 
3.00746210503657623e-06 0.00000000000000000e+00 -3.65058693499968382e-07 
3.25359942557936841e-06 0.00000000000000000e+00 -6.34174607417943966e-09 
-9.10982207573935953e-07 0.00000000000000000e+00 7.06219121755180716e-08 
2.73561918460064317e-06 0.00000000000000000e+00 -4.86373095449248313e-07 
-2.81141538395932060e-07 0.00000000000000000e+00 5.24429829351258852e-07 
1.02145421931830144e-05 0.00000000000000000e+00 1.23199897432173695e-07 
1.05624197502863240e-05 0.00000000000000000e+00 1.03803517366367123e-07 
1.01780771885208811e-05 0.00000000000000000e+00 -4.52655621286852712e-08 
9.38507587005684700e-06 0.00000000000000000e+00 -1.14972824039977814e-07 
8.41907841382126021e-06 0.00000000000000000e+00 -9.07609421926100968e-09 
7.38138362804615024e-06 0.00000000000000000e+00 1.35127971438854882e-07 
6.26037060555598079e-06 0.00000000000000000e+00 6.58494856526914634e-08 
5.11151663573437628e-06 0.00000000000000000e+00 -1.66061694187850649e-07 
3.99596178884660374e-06 0.00000000000000000e+00 -1.16995524284801678e-07 
2.87066793869633927e-06 0.00000000000000000e+00 2.72021661510325558e-07 
1.69538580319217246e-06 0.00000000000000000e+00 1.52497141753891961e-07 
5.58690727963535631e-07 0.00000000000000000e+00 -4.68420545792890257e-07 
9.82205849790304306e-06 0.00000000000000000e+00 1.40942858736449674e-08 
1.04220451206364255e-05 0.00000000000000000e+00 1.44405596940672089e-07 
1.03610240408281453e-05 0.00000000000000000e+00 3.15255163464957993e-08 
9.84782341406451129e-06 0.00000000000000000e+00 -1.00568149009919671e-07 
8.99751863677980742e-06 0.00000000000000000e+00 -8.14871185134665799e-08 
7.89320462456470069e-06 0.00000000000000000e+00 7.56739246963890198e-08 
6.76721683625717176e-06 0.00000000000000000e+00 1.35590146659430170e-07 
5.68085021576067924e-06 0.00000000000000000e+00 -5.37716334714342314e-08 
4.60015698484636574e-06 0.00000000000000000e+00 -2.01441310921037127e-07 
3.44372049991934890e-06 0.00000000000000000e+00 7.44490945623848161e-08 
2.26401084887700628e-06 0.00000000000000000e+00 3.30675979380938476e-07 
1.10730966618066777e-06 0.00000000000000000e+00 -2.08474100322524719e-07 
8.97912558371821510e-08 0.00000000000000000e+00 -3.17825452632284208e-07 
1.53411536408629163e-07 0.00000000000000000e+00 7.49598066429993018e-06 
1.53411536407834646e-07 0.00000000000000000e+00 7.49598066430345130e-06 
1.35533654310898865e-06 0.00000000000000000e+00 7.49392427571364010e-06 
1.35533654311005337e-06 0.00000000000000000e+00 7.49392427571202735e-06 
7.48004636915268820e-07 0.00000000000000000e+00 1.34048839594580069e-05 
7.48004636913353678e-07 0.00000000000000000e+00 1.34048839594701500e-05 
1.53411536410929705e-07 0.00000000000000000e+00 7.49598066429511650e-06 
1.35533654310730898e-06 0.00000000000000000e+00 7.49392427571314628e-06 
1.82084680556914119e-06 0.00000000000000000e+00 5.19564406477111977e-07 
1.82084680556837971e-06 0.00000000000000000e+00 5.19564406480236682e-07 
1.82084680556637393e-06 0.00000000000000000e+00 5.19564406475757571e-07 
-2.81141538393799231e-07 0.00000000000000000e+00 5.24429829354980292e-07 
-2.81141538395450099e-07 0.00000000000000000e+00 5.24429829364552187e-07 
-2.81141538396498725e-07 0.00000000000000000e+00 5.24429829359087978e-07 
-8.44145940773221426e-07 0.00000000000000000e+00 1.22788496858713505e-07 
-5.83756337494115751e-07 0.00000000000000000e+00 1.03826462615903597e-07 
-2.67383762024071608e-07 0.00000000000000000e+00 -4.50513497316125119e-08 
9.14159162075240936e-08 0.00000000000000000e+00 -1.14459665520177382e-07 
5.29286180180709831e-07 0.00000000000000000e+00 -8.45765168156564495e-09 
1.07525718293208078e-06 0.00000000000000000e+00 1.34764287695739030e-07 
1.70307119814187015e-06 0.00000000000000000e+00 6.39683553856699677e-08 
2.34237479385283655e-06 0.00000000000000000e+00 -1.68641348650262932e-07 
2.91193024955784696e-06 0.00000000000000000e+00 -1.20903712801958985e-07 
3.28979561198608113e-06 0.00000000000000000e+00 2.64601649294018133e-07 
3.31838271400450711e-06 0.00000000000000000e+00 1.40490826454119974e-07 
2.83612071442142452e-06 0.00000000000000000e+00 -4.80592095653903526e-07 
-9.42730158182377327e-07 0.00000000000000000e+00 1.36244013049791349e-08 
-7.17897277975454695e-07 0.00000000000000000e+00 1.43991277632599312e-07 
-4.28537679568051419e-07 0.00000000000000000e+00 3.14435715024260819e-08 
-9.72599077018375295e-08 0.00000000000000000e+00 -1.00059088529972710e-07 
3.04008154125237005e-07 0.00000000000000000e+00 -8.10549835028774105e-08 
7.89958227620204236e-07 0.00000000000000000e+00 7.58085131661373411e-08 
1.36981652442594069e-06 0.00000000000000000e+00 1.35296293118885204e-07 
2.02070431849116283e-06 0.00000000000000000e+00 -5.55686964309178163e-08 
2.66431913696846403e-06 0.00000000000000000e+00 -2.06363536171494412e-07 
3.14476449564665545e-06 0.00000000000000000e+00 6.79522707728172426e-08 
3.33428807568338791e-06 0.00000000000000000e+00 3.23276043209962593e-07 
3.12372101341153111e-06 0.00000000000000000e+00 -2.18913678112955040e-07 
2.41693826776437746e-06 0.00000000000000000e+00 -3.30506948306714024e-07 
9.11127783547202062e-06 0.00000000000000000e+00 -2.04383125716442795e-07 
9.11127783547101774e-06 0.00000000000000000e+00 -2.04383125710349029e-07 
9.11127783547083817e-06 0.00000000000000000e+00 -2.04383125717535891e-07 
7.48004636914000811e-07 0.00000000000000000e+00 1.34048839594541750e-05 
1.53411536409351682e-07 0.00000000000000000e+00 7.49598066430101947e-06 
1.35533654310698203e-06 0.00000000000000000e+00 7.49392427570756264e-06 
-8.44145940774813847e-07 0.00000000000000000e+00 1.22788496862838079e-07 
-5.83756337495465498e-07 0.00000000000000000e+00 1.03826462623664007e-07 
-2.67383762024384587e-07 0.00000000000000000e+00 -4.50513497350787824e-08 
9.14159162084465125e-08 0.00000000000000000e+00 -1.14459665518176902e-07 
5.29286180180353441e-07 0.00000000000000000e+00 -8.45765168526537899e-09 
1.07525718293207061e-06 0.00000000000000000e+00 1.34764287696095101e-07 
1.70307119814160545e-06 0.00000000000000000e+00 6.39683553903415661e-08 
2.34237479385230292e-06 0.00000000000000000e+00 -1.68641348644519678e-07 
2.91193024955759031e-06 0.00000000000000000e+00 -1.20903712797047994e-07 
3.28979561198622301e-06 0.00000000000000000e+00 2.64601649295892405e-07 
3.31838271400274782e-06 0.00000000000000000e+00 1.40490826451557487e-07 
2.83612071442158292e-06 0.00000000000000000e+00 -4.80592095658578619e-07 
-9.42730158181720876e-07 0.00000000000000000e+00 1.36244013049722793e-08 
-7.17897277975378462e-07 0.00000000000000000e+00 1.43991277631880975e-07 
-4.28537679567247585e-07 0.00000000000000000e+00 3.14435715094545496e-08 
-9.72599077010370834e-08 0.00000000000000000e+00 -1.00059088536836113e-07 
3.04008154124328139e-07 0.00000000000000000e+00 -8.10549835086757746e-08 
7.89958227619140998e-07 0.00000000000000000e+00 7.58085131659254240e-08 
1.36981652442592650e-06 0.00000000000000000e+00 1.35296293116573968e-07 
2.02070431848916171e-06 0.00000000000000000e+00 -5.55686964319999538e-08 
2.66431913696905610e-06 0.00000000000000000e+00 -2.06363536166794120e-07 
3.14476449564713487e-06 0.00000000000000000e+00 6.79522707785657375e-08 
3.33428807568337097e-06 0.00000000000000000e+00 3.23276043218959777e-07 
3.12372101341049984e-06 0.00000000000000000e+00 -2.18913678117975511e-07 
2.41693826776152550e-06 0.00000000000000000e+00 -3.30506948316418057e-07 
9.11127783547150563e-06 0.00000000000000000e+00 -2.04383125715802121e-07 
1.02145421931820149e-05 0.00000000000000000e+00 1.23199897449845131e-07 
1.05624197502858310e-05 0.00000000000000000e+00 1.03803517352717915e-07 
1.01780771885211589e-05 0.00000000000000000e+00 -4.52655621198731110e-08 
9.38507587005700116e-06 0.00000000000000000e+00 -1.14972824039745172e-07 
8.41907841382179384e-06 0.00000000000000000e+00 -9.07609422393223756e-09 
7.38138362804613161e-06 0.00000000000000000e+00 1.35127971442182768e-07 
6.26037060555354303e-06 0.00000000000000000e+00 6.58494856617635039e-08 