# vtk DataFile Version 2.0

ASCII

DATASET UNSTRUCTURED_GRID

POINTS 281 double 

0.00000000000000000e+00  6.00000000000000012e-03  8.68039800000000063e-03
0.00000000000000000e+00  6.00000000000000012e-03  2.15013699999999988e-02
0.00000000000000000e+00  5.99999699999999997e-03  3.38432499999999983e-02
0.00000000000000000e+00  6.00000000000000012e-03  4.61511800000000000e-02
0.00000000000000000e+00  5.99999399999999981e-03  5.84285100000000029e-02
0.00000000000000000e+00  5.99999899999999978e-03  7.03572799999999943e-02
0.00000000000000000e+00  6.00000000000000012e-03  7.56573400000000035e-02
0.00000000000000000e+00  6.00000000000000012e-03  1.52458600000000000e-02
0.00000000000000000e+00  5.99999899999999978e-03  2.76822099999999988e-02
0.00000000000000000e+00  5.99999899999999978e-03  3.99985900000000005e-02
0.00000000000000000e+00  5.99999800000000031e-03  5.22986000000000006e-02
0.00000000000000000e+00  5.99999800000000031e-03  6.44963600000000026e-02
0.00000000000000000e+00  3.00000000000000006e-03  3.07692300000000007e-03
0.00000000000000000e+00  3.00000000000000006e-03  1.04940499999999996e-02
0.00000000000000000e+00  3.00000000000000006e-03  7.41712199999999995e-03
0.00000000000000000e+00  3.00000000000000006e-03  2.30583799999999998e-02
0.00000000000000000e+00  3.00000000000000006e-03  1.99814599999999995e-02
0.00000000000000000e+00  2.99999900000000016e-03  3.53831699999999985e-02
0.00000000000000000e+00  2.99999900000000016e-03  3.23062400000000000e-02
0.00000000000000000e+00  3.00000000000000006e-03  4.76909699999999992e-02
0.00000000000000000e+00  3.00000000000000006e-03  4.46140500000000023e-02
0.00000000000000000e+00  2.99999699999999991e-03  5.99834799999999987e-02
0.00000000000000000e+00  2.99999699999999991e-03  5.69065600000000019e-02
0.00000000000000000e+00  2.99999900000000016e-03  7.21017199999999941e-02
0.00000000000000000e+00  2.99999900000000016e-03  6.90247900000000025e-02
0.00000000000000000e+00  3.00000000000000006e-03  7.78286700000000026e-02
0.00000000000000000e+00  3.00000000000000006e-03  7.47517500000000057e-02
0.00000000000000000e+00  5.99999899999999978e-03  7.30073100000000058e-02
0.00000000000000000e+00  6.00000000000000012e-03  7.78286700000000026e-02
0.00000000000000000e+00  8.99999999999999932e-03  7.47517500000000057e-02
0.00000000000000000e+00  8.99999999999999932e-03  7.78286700000000026e-02
0.00000000000000000e+00  8.99999999999999932e-03  3.07692300000000007e-03
0.00000000000000000e+00  8.99999999999999932e-03  7.41712199999999995e-03
0.00000000000000000e+00  8.99999999999999932e-03  1.04940499999999996e-02
0.00000000000000000e+00  8.99999999999999932e-03  1.99814599999999995e-02
0.00000000000000000e+00  8.99999999999999932e-03  2.30583799999999998e-02
0.00000000000000000e+00  8.99999899999999985e-03  3.23062400000000000e-02
0.00000000000000000e+00  8.99999899999999985e-03  3.53831699999999985e-02
0.00000000000000000e+00  8.99999999999999932e-03  4.46140500000000023e-02
0.00000000000000000e+00  8.99999999999999932e-03  4.76909699999999992e-02
0.00000000000000000e+00  8.99999699999999916e-03  5.69065600000000019e-02
0.00000000000000000e+00  8.99999699999999916e-03  5.99834799999999987e-02
0.00000000000000000e+00  8.99999899999999985e-03  6.90247900000000025e-02
0.00000000000000000e+00  8.99999899999999985e-03  7.21017199999999941e-02
0.00000000000000000e+00  6.00000000000000012e-03  4.34019900000000031e-03
0.00000000000000000e+00  3.00000000000000006e-03  1.37767800000000006e-02
0.00000000000000000e+00  6.00000000000000012e-03  1.19631300000000006e-02
0.00000000000000000e+00  3.00000000000000006e-03  1.68536999999999992e-02
0.00000000000000000e+00  6.00000000000000012e-03  1.83736200000000002e-02
0.00000000000000000e+00  5.99999800000000031e-03  3.07627299999999985e-02
0.00000000000000000e+00  3.00000000000000006e-03  2.92257200000000002e-02
0.00000000000000000e+00  3.00000000000000006e-03  2.61487999999999998e-02
0.00000000000000000e+00  8.99999999999999932e-03  2.92257200000000002e-02
0.00000000000000000e+00  6.00000000000000012e-03  4.30748800000000029e-02
0.00000000000000000e+00  2.99999900000000016e-03  4.15377600000000000e-02
0.00000000000000000e+00  2.99999900000000016e-03  3.84608300000000014e-02
0.00000000000000000e+00  8.99999899999999985e-03  4.15377600000000000e-02
0.00000000000000000e+00  5.99999599999999963e-03  5.53635499999999975e-02
0.00000000000000000e+00  2.99999900000000016e-03  5.38416099999999981e-02
0.00000000000000000e+00  2.99999900000000016e-03  5.07646799999999995e-02
0.00000000000000000e+00  8.99999899999999985e-03  5.38416099999999981e-02
0.00000000000000000e+00  5.99999800000000031e-03  6.74268199999999984e-02
0.00000000000000000e+00  2.99999900000000016e-03  6.60943300000000067e-02
0.00000000000000000e+00  2.99999900000000016e-03  6.30174099999999959e-02
0.00000000000000000e+00  8.99999899999999985e-03  6.60943300000000067e-02
0.00000000000000000e+00  5.99999899999999978e-03  4.92248900000000003e-02
0.00000000000000000e+00  8.99999999999999932e-03  1.68536999999999992e-02
0.00000000000000000e+00  5.99999899999999978e-03  2.45917899999999988e-02
0.00000000000000000e+00  8.99999999999999932e-03  2.61487999999999998e-02
0.00000000000000000e+00  8.99999999999999932e-03  1.37767800000000006e-02
0.00000000000000000e+00  5.99999800000000031e-03  3.69209200000000029e-02
0.00000000000000000e+00  8.99999899999999985e-03  3.84608300000000014e-02
0.00000000000000000e+00  8.99999899999999985e-03  5.07646799999999995e-02
0.00000000000000000e+00  5.99999599999999963e-03  6.14624299999999985e-02
0.00000000000000000e+00  8.99999899999999985e-03  6.30174099999999959e-02
1.20000000000000002e-02  1.20000000000000002e-02  8.00000000000000017e-02
0.00000000000000000e+00  0.00000000000000000e+00  8.00000000000000017e-02
1.20000000000000002e-02  6.00000000000000012e-03  0.00000000000000000e+00
1.20000000000000002e-02  3.00000000000000006e-03  0.00000000000000000e+00
1.20000000000000002e-02  8.99999999999999932e-03  0.00000000000000000e+00
1.20000000000000002e-02  0.00000000000000000e+00  8.00000000000000017e-02
1.20000000000000002e-02  0.00000000000000000e+00  0.00000000000000000e+00
0.00000000000000000e+00  1.20000000000000002e-02  0.00000000000000000e+00
1.20000000000000002e-02  5.99999899999999978e-03  8.68039699999999942e-03
1.20000000000000002e-02  5.99999899999999978e-03  1.52458600000000000e-02
1.20000000000000002e-02  5.99999899999999978e-03  2.15013699999999988e-02
1.20000000000000002e-02  6.00000000000000012e-03  2.76822099999999988e-02
1.20000000000000002e-02  5.99999899999999978e-03  3.38432399999999967e-02
1.20000000000000002e-02  5.99999800000000031e-03  3.99985900000000005e-02
1.20000000000000002e-02  5.99999699999999997e-03  4.61511800000000000e-02
1.20000000000000002e-02  5.99999300000000034e-03  5.22986100000000023e-02
1.20000000000000002e-02  5.99998599999999969e-03  5.84285400000000010e-02
1.20000000000000002e-02  5.99997800000000043e-03  6.44963800000000059e-02
1.20000000000000002e-02  5.99997500000000027e-03  7.03572999999999976e-02
1.20000000000000002e-02  5.99997500000000027e-03  7.56573600000000068e-02
1.20000000000000002e-02  3.00000000000000006e-03  3.07692300000000007e-03
1.20000000000000002e-02  3.00000000000000006e-03  7.41712099999999961e-03
1.20000000000000002e-02  3.00000000000000006e-03  1.04940399999999996e-02
1.20000000000000002e-02  2.99999900000000016e-03  1.37767800000000006e-02
1.20000000000000002e-02  2.99999900000000016e-03  1.68536999999999992e-02
1.20000000000000002e-02  5.99999899999999978e-03  1.19631300000000006e-02
1.20000000000000002e-02  3.00000000000000006e-03  1.99814500000000013e-02
1.20000000000000002e-02  3.00000000000000006e-03  2.30583799999999998e-02
1.20000000000000002e-02  5.99999899999999978e-03  1.83736099999999986e-02
1.20000000000000002e-02  3.00000000000000006e-03  2.61487999999999998e-02
1.20000000000000002e-02  3.00000000000000006e-03  2.92257200000000002e-02
1.20000000000000002e-02  5.99999899999999978e-03  2.45917899999999988e-02
1.20000000000000002e-02  3.00000000000000006e-03  3.23062299999999983e-02
1.20000000000000002e-02  3.00000000000000006e-03  3.53831599999999968e-02
1.20000000000000002e-02  5.99999899999999978e-03  3.07627200000000003e-02
1.20000000000000002e-02  2.99999900000000016e-03  3.84608300000000014e-02
1.20000000000000002e-02  2.99999900000000016e-03  4.15377499999999983e-02
1.20000000000000002e-02  5.99999899999999978e-03  3.69209100000000012e-02
1.20000000000000002e-02  2.99999799999999981e-03  4.46140500000000023e-02
1.20000000000000002e-02  2.99999799999999981e-03  4.76909800000000009e-02
1.20000000000000002e-02  5.99999800000000031e-03  4.30748800000000029e-02
1.20000000000000002e-02  2.99999699999999991e-03  5.07646900000000012e-02
1.20000000000000002e-02  2.99999699999999991e-03  5.38416099999999981e-02
1.20000000000000002e-02  5.99999500000000015e-03  4.92249000000000020e-02
1.20000000000000002e-02  2.99999299999999984e-03  5.69065799999999983e-02
1.20000000000000002e-02  2.99999299999999984e-03  5.99835000000000021e-02
1.20000000000000002e-02  5.99999000000000018e-03  5.53635800000000025e-02
1.20000000000000002e-02  2.99998900000000021e-03  6.30174200000000045e-02
1.20000000000000002e-02  2.99998900000000021e-03  6.60943499999999962e-02
1.20000000000000002e-02  5.99998200000000006e-03  6.14624599999999965e-02
1.20000000000000002e-02  2.99998799999999987e-03  6.90248100000000059e-02
1.20000000000000002e-02  2.99998799999999987e-03  7.21017300000000028e-02
1.20000000000000002e-02  5.99997700000000009e-03  6.74268400000000018e-02
1.20000000000000002e-02  2.99998699999999997e-03  7.47517600000000004e-02
1.20000000000000002e-02  2.99998699999999997e-03  7.78286799999999973e-02
1.20000000000000002e-02  5.99998700000000003e-03  7.78286799999999973e-02
1.20000000000000002e-02  5.99997500000000027e-03  7.30073299999999953e-02
1.20000000000000002e-02  8.99998699999999922e-03  7.78286799999999973e-02
1.20000000000000002e-02  8.99999999999999932e-03  3.07692300000000007e-03
[...]
POINT_DATA 281

SCALARS Rank unsigned_int
LOOKUP_TABLE default
0 0 0 0 0 0 0 0 0 0 0 0 0 0 0 0 0 0 0 0 0 0 0 0 0 0 0 0 0 0 0 0 0 0 0 0 0 0 0 0 0 0 0 0 0 0 0 0 0 0 0 0 0 0 0 0 0 0 0 0 0 0 0 0 0 0 0 0 0 0 0 0 0 0 0 0 0 0 0 0 0 0 0 0 0 0 0 0 0 0 0 0 0 0 0 0 0 0 0 0 0 0 0 0 0 0 0 0 0 0 0 0 0 0 0 0 0 0 0 0 0 0 0 0 0 0 0 0 0 0 0 0 0 0 0 0 0 0 0 0 0 0 0 0 0 0 0 0 0 0 0 0 0 0 0 0 0 0 0 0 0 0 0 0 0 0 0 0 0 0 0 0 0 0 0 0 0 0 0 0 0 0 0 0 0 0 0 0 0 0 0 0 0 0 0 0 0 0 0 0 0 0 0 0 0 0 0 0 0 0 0 0 0 0 0 0 0 0 0 0 0 0 0 0 0 0 0 0 0 0 0 0 0 0 0 0 0 0 0 0 0 0 0 0 0 0 0 0 0 0 0 0 0 0 0 0 0 0 0 0 0 0 0 0 0 0 0 0 0 0 0 0 0 0 0 0 0 0 0 0 0 

VECTORS Forces0 double
7.28915491051420124e-06 0.00000000000000000e+00 9.62205846305882871e-08 
6.79076416599810443e-06 0.00000000000000000e+00 -6.50703508401862596e-08 
5.28646136490655665e-06 0.00000000000000000e+00 5.05687765708638990e-08 
3.63883433692977604e-06 0.00000000000000000e+00 -3.46678752542300963e-08 
2.00348508145838326e-06 0.00000000000000000e+00 4.71850212509527132e-08 
3.69148477600275337e-07 0.00000000000000000e+00 -1.05386133953459892e-07 
-2.82031527777009235e-07 0.00000000000000000e+00 -2.86820334801482815e-07 
7.22282089686305722e-06 0.00000000000000000e+00 2.34947359591322301e-08 
6.12173185780351496e-06 0.00000000000000000e+00 -5.27013110335041762e-08 
4.44536993091231866e-06 0.00000000000000000e+00 8.99150012609326007e-08 
2.84202416581284029e-06 0.00000000000000000e+00 -1.32243675930995368e-07 
1.16308356151880081e-06 0.00000000000000000e+00 2.18016625629202307e-07 
6.91605552396393309e-06 0.00000000000000000e+00 9.35870421638299988e-09 
7.36249549690814298e-06 0.00000000000000000e+00 8.81962403025593364e-08 
7.23732941273040636e-06 0.00000000000000000e+00 9.30275425171452297e-08 
6.60278557837941200e-06 0.00000000000000000e+00 -7.39450675645143419e-08 
6.96008279366558432e-06 0.00000000000000000e+00 -4.96034933552622535e-08 
5.10989267905550882e-06 0.00000000000000000e+00 7.39424919727618152e-08 
5.47542012687857780e-06 0.00000000000000000e+00 2.31173364127926815e-08 
3.42172067293975915e-06 0.00000000000000000e+00 -7.53075725749893086e-08 
3.86518701580386294e-06 0.00000000000000000e+00 6.97226256392936961e-09 
1.80362477170074246e-06 0.00000000000000000e+00 1.18478019849520630e-07 
2.19991188069944360e-06 0.00000000000000000e+00 -2.05693585424777731e-08 
1.39546870018060175e-07 0.00000000000000000e+00 -2.34302679411880918e-07 
5.50218223508369560e-07 0.00000000000000000e+00 2.42253642430068320e-09 
-4.89913939153997279e-07 0.00000000000000000e+00 -1.09146766631520240e-07 
-1.82584336518952937e-07 0.00000000000000000e+00 -3.12523356127589836e-07 
2.52269409205606272e-08 0.00000000000000000e+00 -2.82614321383950736e-07 
-4.89913939153629667e-07 0.00000000000000000e+00 -1.09146766635342899e-07 
-1.82584336520266261e-07 0.00000000000000000e+00 -3.12523356121567220e-07 
-4.89913939153998550e-07 0.00000000000000000e+00 -1.09146766633865674e-07 
6.91605552396744150e-06 0.00000000000000000e+00 9.35870422876884503e-09 
7.23732941273025475e-06 0.00000000000000000e+00 9.30275425283833716e-08 
7.36249549691048164e-06 0.00000000000000000e+00 8.81962403089495912e-08 
6.96008279366392922e-06 0.00000000000000000e+00 -4.96034933428905432e-08 
6.60278557837965171e-06 0.00000000000000000e+00 -7.39450675636721265e-08 
5.47542012687836096e-06 0.00000000000000000e+00 2.31173364132928015e-08 
5.10989267905681495e-06 0.00000000000000000e+00 7.39424919668811567e-08 
3.86518701580343942e-06 0.00000000000000000e+00 6.97226255234015895e-09 
3.42172067293999716e-06 0.00000000000000000e+00 -7.53075725724730914e-08 
2.19991188069985949e-06 0.00000000000000000e+00 -2.05693585441705684e-08 
1.80362477170094723e-06 0.00000000000000000e+00 1.18478019841317539e-07 
5.50218223509124690e-07 0.00000000000000000e+00 2.42253642716423689e-09 
1.39546870015054056e-07 0.00000000000000000e+00 -2.34302679409669871e-07 
7.07607773095182638e-06 0.00000000000000000e+00 4.67958221840102055e-08 
7.31285779138550480e-06 0.00000000000000000e+00 4.75494609428973889e-08 
7.39301302697850836e-06 0.00000000000000000e+00 7.31993828367099071e-08 
7.13313618709616918e-06 0.00000000000000000e+00 -3.58692493187507131e-09 
7.05648531862577143e-06 0.00000000000000000e+00 -2.77777711858789571e-08 
5.68627443483604131e-06 0.00000000000000000e+00 -5.25636714792635709e-09 
5.91341599511526731e-06 0.00000000000000000e+00 -3.12100336096562189e-08 
6.27465221848563144e-06 0.00000000000000000e+00 -6.75919665835056678e-08 
5.91341599511344026e-06 0.00000000000000000e+00 -3.12100335947149019e-08 
4.06418784436167665e-06 0.00000000000000000e+00 4.40963496081286498e-08 
4.24753003663358795e-06 0.00000000000000000e+00 7.23216963022200583e-08 
4.66545729338525391e-06 0.00000000000000000e+00 9.54886461317988182e-08 
4.24753003663411311e-06 0.00000000000000000e+00 7.23216963104171138e-08 
2.40748832474506567e-06 0.00000000000000000e+00 -7.75140702661056749e-08 
2.62277635295123990e-06 0.00000000000000000e+00 -1.15016613845452889e-07 
3.03433678374959793e-06 0.00000000000000000e+00 -1.29058201869091516e-07 
2.62277635295096081e-06 0.00000000000000000e+00 -1.15016613850739857e-07 
7.66730568224947949e-07 0.00000000000000000e+00 1.15390018811982024e-07 
9.45177720696634027e-07 0.00000000000000000e+00 1.80049909964396815e-07 
1.37117479124672993e-06 0.00000000000000000e+00 2.13282039240772847e-07 
9.45177720694853140e-07 0.00000000000000000e+00 1.80049909958978239e-07 
3.22118608351253263e-06 0.00000000000000000e+00 -1.08679020596906113e-07 
7.13313618709548817e-06 0.00000000000000000e+00 -3.58692492304942475e-09 
6.43040692732922023e-06 0.00000000000000000e+00 -7.49660795336918422e-08 
6.27465221848625063e-06 0.00000000000000000e+00 -6.75919665842096978e-08 
7.31285779138648313e-06 0.00000000000000000e+00 4.75494609287094546e-08 
4.89893182754624663e-06 0.00000000000000000e+00 8.97975226617730717e-08 
4.66545729338683024e-06 0.00000000000000000e+00 9.54886461395736807e-08 
3.03433678374905329e-06 0.00000000000000000e+00 -1.29058201867837272e-07 
1.59400833021455413e-06 0.00000000000000000e+00 1.75972811825727620e-07 
1.37117479124697578e-06 0.00000000000000000e+00 2.13282039241397428e-07 
1.89471931824804325e-06 0.00000000000000000e+00 3.41925257124032191e-07 
-6.58089409485612471e-07 0.00000000000000000e+00 3.43981817474254079e-07 
-8.46452656455465774e-07 0.00000000000000000e+00 -1.34827285342390035e-07 
-8.46452656453363015e-07 0.00000000000000000e+00 -1.34827285328030709e-07 
-8.46452656451890872e-07 0.00000000000000000e+00 -1.34827285340013129e-07 
1.89471931824613129e-06 0.00000000000000000e+00 3.41925257114641560e-07 
-8.46452656456522024e-07 0.00000000000000000e+00 -1.34827285320725791e-07 
6.41074677856725749e-06 0.00000000000000000e+00 -1.34590844684941739e-07 
-6.87692043052039413e-07 0.00000000000000000e+00 9.59667252425312449e-08 
-4.16291552635264383e-07 0.00000000000000000e+00 2.31847100613110959e-08 
-8.56449867526856389e-08 0.00000000000000000e+00 -6.54561825832310729e-08 
3.20204381426629510e-07 0.00000000000000000e+00 -5.34860239941105478e-08 
7.99788382313920413e-07 0.00000000000000000e+00 4.96178567748879302e-08 
1.35134457033945479e-06 0.00000000000000000e+00 8.87526546213163383e-08 
1.95090730575520521e-06 0.00000000000000000e+00 -3.65616618663632793e-08 
2.53069634936992508e-06 0.00000000000000000e+00 -1.35548284118146659e-07 
2.95605558271222763e-06 0.00000000000000000e+00 4.34647749370513736e-08 
3.12925404360147693e-06 0.00000000000000000e+00 2.14112426657973859e-07 
2.98998811273078809e-06 0.00000000000000000e+00 -1.10779115526658666e-07 
2.55095522269562856e-06 0.00000000000000000e+00 -2.93775035786819244e-07 
-8.38941927627780450e-07 0.00000000000000000e+00 9.28389443895112445e-09 
-7.29931691308472001e-07 0.00000000000000000e+00 9.28363337365619592e-08 
-6.23773271466373575e-07 0.00000000000000000e+00 8.78717511461630832e-08 
-4.86486624783825118e-07 0.00000000000000000e+00 4.72242810858927144e-08 
-3.36107583167416410e-07 0.00000000000000000e+00 -3.92799525857765100e-09 
-5.67704742654459826e-07 0.00000000000000000e+00 7.28451440164332542e-08 
-1.71197504851118925e-07 0.00000000000000000e+00 -5.00883135380363956e-08 
7.65506756317839394e-09 0.00000000000000000e+00 -7.42644612737179298e-08 
-2.57839553441739174e-07 0.00000000000000000e+00 -2.81910807174727528e-08 
2.11148258716049349e-07 0.00000000000000000e+00 -6.81553103324462341e-08 
4.30466494689461000e-07 0.00000000000000000e+00 -3.19222748481346998e-08 
1.05237958183269712e-07 0.00000000000000000e+00 -7.53371029620052896e-08 
6.67988199956085653e-07 0.00000000000000000e+00 2.24578038363812483e-08 
9.38998648907940648e-07 0.00000000000000000e+00 7.25700165480770881e-08 
5.44437173362683294e-07 0.00000000000000000e+00 -5.84143302171891809e-09 
1.20897471481659054e-06 0.00000000000000000e+00 9.43320226812781428e-08 
1.50357303814130703e-06 0.00000000000000000e+00 7.07989866792937022e-08 
1.07406285859924380e-06 0.00000000000000000e+00 8.84206456679908592e-08 
1.81222926536150408e-06 0.00000000000000000e+00 4.68782293477728286e-09 
2.09347184200098010e-06 0.00000000000000000e+00 -7.70931566741278976e-08 
1.66127336536982340e-06 0.00000000000000000e+00 4.20036361593270296e-08 
2.39206584970934905e-06 0.00000000000000000e+00 -1.31914101485056218e-07 
2.64343315629735299e-06 0.00000000000000000e+00 -1.17821432101727253e-07 
2.24098703444095476e-06 0.00000000000000000e+00 -1.10797265528826867e-07 
2.85462621872010652e-06 0.00000000000000000e+00 -2.34177672536845679e-08 
3.04418919866322299e-06 0.00000000000000000e+00 1.13827856727562086e-07 
2.74837546385905007e-06 0.00000000000000000e+00 -8.00230542966365484e-08 
3.11278361266480940e-06 0.00000000000000000e+00 2.09590363611216413e-07 
3.13805178027028828e-06 0.00000000000000000e+00 1.75073913049955937e-07 
3.08672204614538744e-06 0.00000000000000000e+00 1.71828539041734099e-07 
3.07174662053929601e-06 0.00000000000000000e+00 -3.68306663263952575e-09 
2.86496723008701445e-06 0.00000000000000000e+00 -2.39422370546891246e-07 
3.13022562837904673e-06 0.00000000000000000e+00 1.09270738114522734e-07 
2.64322862096999800e-06 0.00000000000000000e+00 -3.18998021892903440e-07 
2.24341617759309174e-06 0.00000000000000000e+00 -1.13850122498602897e-07 
2.24341617759560700e-06 0.00000000000000000e+00 -1.13850122494060259e-07 
2.79427124456823455e-06 0.00000000000000000e+00 -2.88009467777792949e-07 
2.24341617759688221e-06 0.00000000000000000e+00 -1.13850122503336117e-07 
-8.38941927626148217e-07 0.00000000000000000e+00 9.28389442402144083e-09 
-6.23773271467354863e-07 0.00000000000000000e+00 8.78717511370891369e-08 
-7.29931691306753794e-07 0.00000000000000000e+00 9.28363337247433350e-08 
-3.36107583167089879e-07 0.00000000000000000e+00 -3.92799524241811526e-09 
-4.86486624783134363e-07 0.00000000000000000e+00 4.72242810971298770e-08 
7.65506756161710046e-09 0.00000000000000000e+00 -7.42644612685074596e-08 
-1.71197504851068103e-07 0.00000000000000000e+00 -5.00883135373438932e-08 
4.30466494689105034e-07 0.00000000000000000e+00 -3.19222748581862809e-08 
2.11148258714988229e-07 0.00000000000000000e+00 -6.81553103262856047e-08 
9.38998648908063997e-07 0.00000000000000000e+00 7.25700165451847882e-08 
6.67988199957750496e-07 0.00000000000000000e+00 2.24578038318539630e-08 
1.50357303814193129e-06 0.00000000000000000e+00 7.07989866819107693e-08 
1.20897471481704920e-06 0.00000000000000000e+00 9.43320226838723400e-08 
2.09347184200093944e-06 0.00000000000000000e+00 -7.70931566705017231e-08 
1.81222926535953897e-06 0.00000000000000000e+00 4.68782292082704726e-09 
2.64343315629589949e-06 0.00000000000000000e+00 -1.17821432097797814e-07 
2.39206584971049678e-06 0.00000000000000000e+00 -1.31914101482307993e-07 
3.04418919866412635e-06 0.00000000000000000e+00 1.13827856728966466e-07 
2.85462621871924255e-06 0.00000000000000000e+00 -2.34177672558209703e-08 
3.13805178027110101e-06 0.00000000000000000e+00 1.75073913052903294e-07 
3.11278361266531720e-06 0.00000000000000000e+00 2.09590363614747164e-07 
2.86496723008305668e-06 0.00000000000000000e+00 -2.39422370548225535e-07 
3.07174662053796151e-06 0.00000000000000000e+00 -3.68306663040717041e-09 
-8.19524297047724793e-07 0.00000000000000000e+00 4.67506956585485867e-08 
2.64322862097050834e-06 0.00000000000000000e+00 -3.18998021887346480e-07 
-6.58089409484836165e-07 0.00000000000000000e+00 3.43981817454275536e-07 
7.18420642572610002e-06 0.00000000000000000e+00 8.11655670195105615e-08 
7.38544346955283604e-06 0.00000000000000000e+00 6.88330524728107290e-08 
7.05204665339172831e-06 0.00000000000000000e+00 -2.90895526095639258e-08 
6.42791303802598102e-06 0.00000000000000000e+00 -7.49175962950214695e-08 
5.68534000627807083e-06 0.00000000000000000e+00 -5.13989460116002934e-09 
4.89860373064835435e-06 0.00000000000000000e+00 8.98129790276503598e-08 
4.06394699397875998e-06 0.00000000000000000e+00 4.40524808277052408e-08 
3.22045005606469977e-06 0.00000000000000000e+00 -1.08784973372080318e-07 
2.40457425552661364e-06 0.00000000000000000e+00 -7.68551612556239265e-08 
1.58305303298874031e-06 0.00000000000000000e+00 1.78433627752697953e-07 
7.31230484455836841e-07 0.00000000000000000e+00 9.91101301525751718e-08 
-7.70935343972586035e-08 0.00000000000000000e+00 -3.09411899756218279e-07 
6.91605552396422447e-06 0.00000000000000000e+00 9.35870422992345682e-09 
7.31193159778639003e-06 0.00000000000000000e+00 9.52273840964720363e-08 
7.21451665160458890e-06 0.00000000000000000e+00 2.11548564374546293e-08 
6.78625090803841797e-06 0.00000000000000000e+00 -6.53690188535035315e-08 
6.12063178971149445e-06 0.00000000000000000e+00 -5.25799553590709650e-08 
5.28612313025911069e-06 0.00000000000000000e+00 5.06176751181427089e-08 
4.44517834450494728e-06 0.00000000000000000e+00 8.99043372099978778e-08 
3.63844505027325062e-06 0.00000000000000000e+00 -3.47408868695758721e-08 
2.84076964621712819e-06 0.00000000000000000e+00 -1.32204884602845248e-07 
1.99928383690082154e-06 0.00000000000000000e+00 4.87164506811687311e-08 
1.14659530812922534e-06 0.00000000000000000e+00 2.16790822173509711e-07 
3.13924465971545724e-07 0.00000000000000000e+00 -1.38169471639416370e-07 
-4.08440419480519946e-07 0.00000000000000000e+00 -2.10569395280549000e-07 
-9.16001850717916232e-08 0.00000000000000000e+00 4.92694903237334691e-06 
-9.16001850758408642e-08 0.00000000000000000e+00 4.92694903237834017e-06 
1.30320255237006469e-06 0.00000000000000000e+00 4.92614158315096404e-06 
1.30320255236920241e-06 0.00000000000000000e+00 4.92614158314940550e-06 
6.00631220469437707e-07 0.00000000000000000e+00 8.81136279312030076e-06 
6.00631220471399012e-07 0.00000000000000000e+00 8.81136279310681261e-06 
-9.16001850733357642e-08 0.00000000000000000e+00 4.92694903237993259e-06 
1.30320255236842144e-06 0.00000000000000000e+00 4.92614158314939365e-06 
1.89471931824313110e-06 0.00000000000000000e+00 3.41925257114883388e-07 
1.89471931824325730e-06 0.00000000000000000e+00 3.41925257116111163e-07 
1.89471931824419137e-06 0.00000000000000000e+00 3.41925257113696060e-07 
-6.58089409484673535e-07 0.00000000000000000e+00 3.43981817461822176e-07 
-6.58089409484075530e-07 0.00000000000000000e+00 3.43981817458354423e-07 
-6.58089409482324713e-07 0.00000000000000000e+00 3.43981817475795255e-07 
-7.69937853137122794e-07 0.00000000000000000e+00 8.10431447433282412e-08 
-5.53178500670173625e-07 0.00000000000000000e+00 6.84809077697522383e-08 
-2.53214241077580179e-07 0.00000000000000000e+00 -2.95080995373957822e-08 
1.06791386000460260e-07 0.00000000000000000e+00 -7.52905580397326020e-08 
5.44937833304735120e-07 0.00000000000000000e+00 -5.72460009812356218e-09 
1.07424935001439712e-06 0.00000000000000000e+00 8.84365319198855686e-08 
1.66148342289396566e-06 0.00000000000000000e+00 4.19589974174860236e-08 
2.24156131147251585e-06 0.00000000000000000e+00 -1.10905237460888029e-07 
2.74982276484786252e-06 0.00000000000000000e+00 -7.93650438644489572e-08 
3.08827904238078338e-06 0.00000000000000000e+00 1.74322368081784951e-07 
3.12555681799290529e-06 0.00000000000000000e+00 9.28140822405482178e-08 
2.72463717239449827e-06 0.00000000000000000e+00 -3.15261517334314139e-07 
-8.38941927628642306e-07 0.00000000000000000e+00 9.28389442675527937e-09 
-6.68793118686804466e-07 0.00000000000000000e+00 9.49492424488287461e-08 
-4.09512776390789639e-07 0.00000000000000000e+00 2.08443700736047280e-08 
-8.34945076418540050e-08 0.00000000000000000e+00 -6.57522187049499222e-08 
3.20932120125253320e-07 0.00000000000000000e+00 -5.33656912629826142e-08 
8.00046096588504192e-07 0.00000000000000000e+00 4.96661798866042854e-08 
1.35147969671595622e-06 0.00000000000000000e+00 8.87418219793129583e-08 
1.95114955573315416e-06 0.00000000000000000e+00 -3.66341324741404347e-08 
2.53140939038285465e-06 0.00000000000000000e+00 -1.35507760360006844e-07 
2.95816279488126434e-06 0.00000000000000000e+00 4.49717693068128066e-08 
3.13028371681220139e-06 0.00000000000000000e+00 2.12835677528066604e-07 
2.96187868640310843e-06 0.00000000000000000e+00 -1.43400745224151840e-07 
2.38253054100146303e-06 0.00000000000000000e+00 -2.16566860914841513e-07 
6.41074677856837388e-06 0.00000000000000000e+00 -1.34590844680024553e-07 
6.41074677856957836e-06 0.00000000000000000e+00 -1.34590844679151262e-07 
6.41074677856870083e-06 0.00000000000000000e+00 -1.34590844683321682e-07 
6.00631220467742794e-07 0.00000000000000000e+00 8.81136279311515758e-06 
-9.16001850708620045e-08 0.00000000000000000e+00 4.92694903236774633e-06 
1.30320255237009603e-06 0.00000000000000000e+00 4.92614158314514154e-06 
-7.69937853137710635e-07 0.00000000000000000e+00 8.10431447350683730e-08 
-5.53178500670260023e-07 0.00000000000000000e+00 6.84809077701061922e-08 
-2.53214241076489624e-07 0.00000000000000000e+00 -2.95080995463705727e-08 
1.06791385999898889e-07 0.00000000000000000e+00 -7.52905580382869815e-08 
5.44937833305466109e-07 0.00000000000000000e+00 -5.72460009260096030e-09 
1.07424935001397530e-06 0.00000000000000000e+00 8.84365319221240384e-08 
1.66148342289355147e-06 0.00000000000000000e+00 4.19589974219186265e-08 
2.24156131147214994e-06 0.00000000000000000e+00 -1.10905237461036498e-07 
2.74982276484659959e-06 0.00000000000000000e+00 -7.93650438648950392e-08 
3.08827904238130346e-06 0.00000000000000000e+00 1.74322368085299079e-07 
3.12555681799274690e-06 0.00000000000000000e+00 9.28140822375651795e-08 
2.72463717239470283e-06 0.00000000000000000e+00 -3.15261517339949767e-07 
-8.38941927628541932e-07 0.00000000000000000e+00 9.28389443722911970e-09 
-6.68793118686679529e-07 0.00000000000000000e+00 9.49492424522848788e-08 
-4.09512776390625738e-07 0.00000000000000000e+00 2.08443700699049410e-08 
-8.34945076432575386e-08 0.00000000000000000e+00 -6.57522187095234237e-08 
3.20932120125263272e-07 0.00000000000000000e+00 -5.33656912630072840e-08 
8.00046096588671057e-07 0.00000000000000000e+00 4.96661798860592197e-08 
1.35147969671627894e-06 0.00000000000000000e+00 8.87418219756033246e-08 
1.95114955573397747e-06 0.00000000000000000e+00 -3.66341324676591239e-08 
2.53140939038368051e-06 0.00000000000000000e+00 -1.35507760362212306e-07 
2.95816279488144815e-06 0.00000000000000000e+00 4.49717693060442831e-08 
3.13028371681337538e-06 0.00000000000000000e+00 2.12835677521951344e-07 
2.96187868640280053e-06 0.00000000000000000e+00 -1.43400745222738460e-07 
2.38253054100145202e-06 0.00000000000000000e+00 -2.16566860919406597e-07 
6.41074677856946147e-06 0.00000000000000000e+00 -1.34590844679689870e-07 
7.18420642572364617e-06 0.00000000000000000e+00 8.11655670185342766e-08 
7.38544346955305118e-06 0.00000000000000000e+00 6.88330524699812287e-08 
7.05204665339156398e-06 0.00000000000000000e+00 -2.90895526050726792e-08 
6.42791303802508824e-06 0.00000000000000000e+00 -7.49175962851017211e-08 
5.68534000627789973e-06 0.00000000000000000e+00 -5.13989460099676374e-09 
4.89860373064959779e-06 0.00000000000000000e+00 8.98129790296882681e-08 
4.06394699397893277e-06 0.00000000000000000e+00 4.40524808285073810e-08 