# vtk DataFile Version 2.0

ASCII

DATASET UNSTRUCTURED_GRID

POINTS 281 double 

0.00000000000000000e+00  6.00000000000000012e-03  8.68039800000000063e-03
0.00000000000000000e+00  6.00000000000000012e-03  2.15013699999999988e-02
0.00000000000000000e+00  5.99999699999999997e-03  3.38432499999999983e-02
0.00000000000000000e+00  6.00000000000000012e-03  4.61511800000000000e-02
0.00000000000000000e+00  5.99999399999999981e-03  5.84285100000000029e-02
0.00000000000000000e+00  5.99999899999999978e-03  7.03572799999999943e-02
0.00000000000000000e+00  6.00000000000000012e-03  7.56573400000000035e-02
0.00000000000000000e+00  6.00000000000000012e-03  1.52458600000000000e-02
0.00000000000000000e+00  5.99999899999999978e-03  2.76822099999999988e-02
0.00000000000000000e+00  5.99999899999999978e-03  3.99985900000000005e-02
0.00000000000000000e+00  5.99999800000000031e-03  5.22986000000000006e-02
0.00000000000000000e+00  5.99999800000000031e-03  6.44963600000000026e-02
0.00000000000000000e+00  3.00000000000000006e-03  3.07692300000000007e-03
0.00000000000000000e+00  3.00000000000000006e-03  1.04940499999999996e-02
0.00000000000000000e+00  3.00000000000000006e-03  7.41712199999999995e-03
0.00000000000000000e+00  3.00000000000000006e-03  2.30583799999999998e-02
0.00000000000000000e+00  3.00000000000000006e-03  1.99814599999999995e-02
0.00000000000000000e+00  2.99999900000000016e-03  3.53831699999999985e-02
0.00000000000000000e+00  2.99999900000000016e-03  3.23062400000000000e-02
0.00000000000000000e+00  3.00000000000000006e-03  4.76909699999999992e-02
0.00000000000000000e+00  3.00000000000000006e-03  4.46140500000000023e-02
0.00000000000000000e+00  2.99999699999999991e-03  5.99834799999999987e-02
0.00000000000000000e+00  2.99999699999999991e-03  5.69065600000000019e-02
0.00000000000000000e+00  2.99999900000000016e-03  7.21017199999999941e-02
0.00000000000000000e+00  2.99999900000000016e-03  6.90247900000000025e-02
0.00000000000000000e+00  3.00000000000000006e-03  7.78286700000000026e-02
0.00000000000000000e+00  3.00000000000000006e-03  7.47517500000000057e-02
0.00000000000000000e+00  5.99999899999999978e-03  7.30073100000000058e-02
0.00000000000000000e+00  6.00000000000000012e-03  7.78286700000000026e-02
0.00000000000000000e+00  8.99999999999999932e-03  7.47517500000000057e-02
0.00000000000000000e+00  8.99999999999999932e-03  7.78286700000000026e-02
0.00000000000000000e+00  8.99999999999999932e-03  3.07692300000000007e-03
0.00000000000000000e+00  8.99999999999999932e-03  7.41712199999999995e-03
0.00000000000000000e+00  8.99999999999999932e-03  1.04940499999999996e-02
0.00000000000000000e+00  8.99999999999999932e-03  1.99814599999999995e-02
0.00000000000000000e+00  8.99999999999999932e-03  2.30583799999999998e-02
0.00000000000000000e+00  8.99999899999999985e-03  3.23062400000000000e-02
0.00000000000000000e+00  8.99999899999999985e-03  3.53831699999999985e-02
0.00000000000000000e+00  8.99999999999999932e-03  4.46140500000000023e-02
0.00000000000000000e+00  8.99999999999999932e-03  4.76909699999999992e-02
0.00000000000000000e+00  8.99999699999999916e-03  5.69065600000000019e-02
0.00000000000000000e+00  8.99999699999999916e-03  5.99834799999999987e-02
0.00000000000000000e+00  8.99999899999999985e-03  6.90247900000000025e-02
0.00000000000000000e+00  8.99999899999999985e-03  7.21017199999999941e-02
0.00000000000000000e+00  6.00000000000000012e-03  4.34019900000000031e-03
0.00000000000000000e+00  3.00000000000000006e-03  1.37767800000000006e-02
0.00000000000000000e+00  6.00000000000000012e-03  1.19631300000000006e-02
0.00000000000000000e+00  3.00000000000000006e-03  1.68536999999999992e-02
0.00000000000000000e+00  6.00000000000000012e-03  1.83736200000000002e-02
0.00000000000000000e+00  5.99999800000000031e-03  3.07627299999999985e-02
0.00000000000000000e+00  3.00000000000000006e-03  2.92257200000000002e-02
0.00000000000000000e+00  3.00000000000000006e-03  2.61487999999999998e-02
0.00000000000000000e+00  8.99999999999999932e-03  2.92257200000000002e-02
0.00000000000000000e+00  6.00000000000000012e-03  4.30748800000000029e-02
0.00000000000000000e+00  2.99999900000000016e-03  4.15377600000000000e-02
0.00000000000000000e+00  2.99999900000000016e-03  3.84608300000000014e-02
0.00000000000000000e+00  8.99999899999999985e-03  4.15377600000000000e-02
0.00000000000000000e+00  5.99999599999999963e-03  5.53635499999999975e-02
0.00000000000000000e+00  2.99999900000000016e-03  5.38416099999999981e-02
0.00000000000000000e+00  2.99999900000000016e-03  5.07646799999999995e-02
0.00000000000000000e+00  8.99999899999999985e-03  5.38416099999999981e-02
0.00000000000000000e+00  5.99999800000000031e-03  6.74268199999999984e-02
0.00000000000000000e+00  2.99999900000000016e-03  6.60943300000000067e-02
0.00000000000000000e+00  2.99999900000000016e-03  6.30174099999999959e-02
0.00000000000000000e+00  8.99999899999999985e-03  6.60943300000000067e-02
0.00000000000000000e+00  5.99999899999999978e-03  4.92248900000000003e-02
0.00000000000000000e+00  8.99999999999999932e-03  1.68536999999999992e-02
0.00000000000000000e+00  5.99999899999999978e-03  2.45917899999999988e-02
0.00000000000000000e+00  8.99999999999999932e-03  2.61487999999999998e-02
0.00000000000000000e+00  8.99999999999999932e-03  1.37767800000000006e-02
0.00000000000000000e+00  5.99999800000000031e-03  3.69209200000000029e-02
0.00000000000000000e+00  8.99999899999999985e-03  3.84608300000000014e-02
0.00000000000000000e+00  8.99999899999999985e-03  5.07646799999999995e-02
0.00000000000000000e+00  5.99999599999999963e-03  6.14624299999999985e-02
0.00000000000000000e+00  8.99999899999999985e-03  6.30174099999999959e-02
1.20000000000000002e-02  1.20000000000000002e-02  8.00000000000000017e-02
0.00000000000000000e+00  0.00000000000000000e+00  8.00000000000000017e-02
1.20000000000000002e-02  6.00000000000000012e-03  0.00000000000000000e+00
1.20000000000000002e-02  3.00000000000000006e-03  0.00000000000000000e+00
1.20000000000000002e-02  8.99999999999999932e-03  0.00000000000000000e+00
1.20000000000000002e-02  0.00000000000000000e+00  8.00000000000000017e-02
1.20000000000000002e-02  0.00000000000000000e+00  0.00000000000000000e+00
0.00000000000000000e+00  1.20000000000000002e-02  0.00000000000000000e+00
1.20000000000000002e-02  5.99999899999999978e-03  8.68039699999999942e-03
1.20000000000000002e-02  5.99999899999999978e-03  1.52458600000000000e-02
1.20000000000000002e-02  5.99999899999999978e-03  2.15013699999999988e-02
1.20000000000000002e-02  6.00000000000000012e-03  2.76822099999999988e-02
1.20000000000000002e-02  5.99999899999999978e-03  3.38432399999999967e-02
1.20000000000000002e-02  5.99999800000000031e-03  3.99985900000000005e-02
1.20000000000000002e-02  5.99999699999999997e-03  4.61511800000000000e-02
1.20000000000000002e-02  5.99999300000000034e-03  5.22986100000000023e-02
1.20000000000000002e-02  5.99998599999999969e-03  5.84285400000000010e-02
1.20000000000000002e-02  5.99997800000000043e-03  6.44963800000000059e-02
1.20000000000000002e-02  5.99997500000000027e-03  7.03572999999999976e-02
1.20000000000000002e-02  5.99997500000000027e-03  7.56573600000000068e-02
1.20000000000000002e-02  3.00000000000000006e-03  3.07692300000000007e-03
1.20000000000000002e-02  3.00000000000000006e-03  7.41712099999999961e-03
1.20000000000000002e-02  3.00000000000000006e-03  1.04940399999999996e-02
1.20000000000000002e-02  2.99999900000000016e-03  1.37767800000000006e-02
1.20000000000000002e-02  2.99999900000000016e-03  1.68536999999999992e-02
1.20000000000000002e-02  5.99999899999999978e-03  1.19631300000000006e-02
1.20000000000000002e-02  3.00000000000000006e-03  1.99814500000000013e-02
1.20000000000000002e-02  3.00000000000000006e-03  2.30583799999999998e-02
1.20000000000000002e-02  5.99999899999999978e-03  1.83736099999999986e-02
1.20000000000000002e-02  3.00000000000000006e-03  2.61487999999999998e-02
1.20000000000000002e-02  3.00000000000000006e-03  2.92257200000000002e-02
1.20000000000000002e-02  5.99999899999999978e-03  2.45917899999999988e-02
1.20000000000000002e-02  3.00000000000000006e-03  3.23062299999999983e-02
1.20000000000000002e-02  3.00000000000000006e-03  3.53831599999999968e-02
1.20000000000000002e-02  5.99999899999999978e-03  3.07627200000000003e-02
1.20000000000000002e-02  2.99999900000000016e-03  3.84608300000000014e-02
1.20000000000000002e-02  2.99999900000000016e-03  4.15377499999999983e-02
1.20000000000000002e-02  5.99999899999999978e-03  3.69209100000000012e-02
1.20000000000000002e-02  2.99999799999999981e-03  4.46140500000000023e-02
1.20000000000000002e-02  2.99999799999999981e-03  4.76909800000000009e-02
1.20000000000000002e-02  5.99999800000000031e-03  4.30748800000000029e-02
1.20000000000000002e-02  2.99999699999999991e-03  5.07646900000000012e-02
1.20000000000000002e-02  2.99999699999999991e-03  5.38416099999999981e-02
1.20000000000000002e-02  5.99999500000000015e-03  4.92249000000000020e-02
1.20000000000000002e-02  2.99999299999999984e-03  5.69065799999999983e-02
1.20000000000000002e-02  2.99999299999999984e-03  5.99835000000000021e-02
1.20000000000000002e-02  5.99999000000000018e-03  5.53635800000000025e-02
1.20000000000000002e-02  2.99998900000000021e-03  6.30174200000000045e-02
1.20000000000000002e-02  2.99998900000000021e-03  6.60943499999999962e-02
1.20000000000000002e-02  5.99998200000000006e-03  6.14624599999999965e-02
1.20000000000000002e-02  2.99998799999999987e-03  6.90248100000000059e-02
1.20000000000000002e-02  2.99998799999999987e-03  7.21017300000000028e-02
1.20000000000000002e-02  5.99997700000000009e-03  6.74268400000000018e-02
1.20000000000000002e-02  2.99998699999999997e-03  7.47517600000000004e-02
1.20000000000000002e-02  2.99998699999999997e-03  7.78286799999999973e-02
1.20000000000000002e-02  5.99998700000000003e-03  7.78286799999999973e-02
1.20000000000000002e-02  5.99997500000000027e-03  7.30073299999999953e-02
1.20000000000000002e-02  8.99998699999999922e-03  7.78286799999999973e-02
1.20000000000000002e-02  8.99999999999999932e-03  3.07692300000000007e-03
[...]
POINT_DATA 281

SCALARS Rank unsigned_int
LOOKUP_TABLE default
0 0 0 0 0 0 0 0 0 0 0 0 0 0 0 0 0 0 0 0 0 0 0 0 0 0 0 0 0 0 0 0 0 0 0 0 0 0 0 0 0 0 0 0 0 0 0 0 0 0 0 0 0 0 0 0 0 0 0 0 0 0 0 0 0 0 0 0 0 0 0 0 0 0 0 0 0 0 0 0 0 0 0 0 0 0 0 0 0 0 0 0 0 0 0 0 0 0 0 0 0 0 0 0 0 0 0 0 0 0 0 0 0 0 0 0 0 0 0 0 0 0 0 0 0 0 0 0 0 0 0 0 0 0 0 0 0 0 0 0 0 0 0 0 0 0 0 0 0 0 0 0 0 0 0 0 0 0 0 0 0 0 0 0 0 0 0 0 0 0 0 0 0 0 0 0 0 0 0 0 0 0 0 0 0 0 0 0 0 0 0 0 0 0 0 0 0 0 0 0 0 0 0 0 0 0 0 0 0 0 0 0 0 0 0 0 0 0 0 0 0 0 0 0 0 0 0 0 0 0 0 0 0 0 0 0 0 0 0 0 0 0 0 0 0 0 0 0 0 0 0 0 0 0 0 0 0 0 0 0 0 0 0 0 0 0 0 0 0 0 0 0 0 0 0 0 0 0 0 0 0 

VECTORS Forces0 double
2.09663778359376538e-02 0.00000000000000000e+00 -4.45342251793402234e-03 
1.84378186867746423e-02 0.00000000000000000e+00 -6.76173837185877185e-03 
1.24785010955192534e-02 0.00000000000000000e+00 -5.73919313097633575e-03 
7.38627220128318124e-03 0.00000000000000000e+00 -3.80740533391307930e-03 
3.99188895621434801e-03 0.00000000000000000e+00 -2.19500623168705083e-03 
1.60509400547416241e-03 0.00000000000000000e+00 -9.18468348186136257e-04 
8.42904736416316604e-04 0.00000000000000000e+00 -5.16267508397647056e-04 
2.03574045101539529e-02 0.00000000000000000e+00 -5.97934347388829994e-03 
1.56776248867751371e-02 0.00000000000000000e+00 -6.66496493830490144e-03 
9.65207240648781675e-03 0.00000000000000000e+00 -4.70515985840661791e-03 
5.58174242127885533e-03 0.00000000000000000e+00 -3.02375004462733261e-03 
2.66026864141538383e-03 0.00000000000000000e+00 -1.47159635419795995e-03 
1.99486345074520351e-02 0.00000000000000000e+00 -2.89178688117775482e-03 
2.11769313728018445e-02 0.00000000000000000e+00 -5.05066517220849418e-03 
2.08436942341570786e-02 0.00000000000000000e+00 -4.07249591225293528e-03 
1.76348529832798945e-02 0.00000000000000000e+00 -6.67319108137111316e-03 
1.91710073938740934e-02 0.00000000000000000e+00 -6.79829290495456706e-03 
1.18570014121999554e-02 0.00000000000000000e+00 -5.61319465269471789e-03 
1.31735830547417727e-02 0.00000000000000000e+00 -5.90887657189394580e-03 
6.84195368233476552e-03 0.00000000000000000e+00 -3.54245016910510182e-03 
7.98726730418145014e-03 0.00000000000000000e+00 -4.11012892961051726e-03 
3.67571849969266281e-03 0.00000000000000000e+00 -2.05016980726439521e-03 
4.32084491848022147e-03 0.00000000000000000e+00 -2.34750243913736233e-03 
1.31667019442263081e-03 0.00000000000000000e+00 -7.59871791216597844e-04 
1.84606943970448906e-03 0.00000000000000000e+00 -1.05475413369821914e-03 
5.90606877770383969e-04 0.00000000000000000e+00 -3.67997195769744607e-04 
9.50626956080269196e-04 0.00000000000000000e+00 -5.71188756521887162e-04 
1.18193959742730046e-03 0.00000000000000000e+00 -6.88869601505373336e-04 
5.90606877774032851e-04 0.00000000000000000e+00 -3.67997195757893410e-04 
9.50626956078583695e-04 0.00000000000000000e+00 -5.71188756519807228e-04 
5.90606877768503854e-04 0.00000000000000000e+00 -3.67997195763824321e-04 
1.99486345074525936e-02 0.00000000000000000e+00 -2.89178688118105773e-03 
2.08436942341615888e-02 0.00000000000000000e+00 -4.07249591224885348e-03 
2.11769313728028714e-02 0.00000000000000000e+00 -5.05066517220710554e-03 
1.91710073938690384e-02 0.00000000000000000e+00 -6.79829290495503804e-03 
1.76348529832798494e-02 0.00000000000000000e+00 -6.67319108137637371e-03 
1.31735830547369346e-02 0.00000000000000000e+00 -5.90887657189411320e-03 
1.18570014121994940e-02 0.00000000000000000e+00 -5.61319465269324511e-03 
7.98726730417719140e-03 0.00000000000000000e+00 -4.11012892961153033e-03 
6.84195368233503787e-03 0.00000000000000000e+00 -3.54245016910457360e-03 
4.32084491848362846e-03 0.00000000000000000e+00 -2.34750243913822276e-03 
3.67571849969632481e-03 0.00000000000000000e+00 -2.05016980726674793e-03 
1.84606943970233865e-03 0.00000000000000000e+00 -1.05475413370295906e-03 
1.31667019441541696e-03 0.00000000000000000e+00 -7.59871791212106211e-04 
2.04830584133304933e-02 0.00000000000000000e+00 -3.26542456906148441e-03 
2.08055584426903063e-02 0.00000000000000000e+00 -5.78209877825036373e-03 
2.12424781585887727e-02 0.00000000000000000e+00 -5.49663466315312380e-03 
1.99315174985960041e-02 0.00000000000000000e+00 -6.24880722371458624e-03 
1.95858978936799509e-02 0.00000000000000000e+00 -6.54069325746801239e-03 
1.39749365847021516e-02 0.00000000000000000e+00 -6.15276177437136182e-03 
1.48588840152584552e-02 0.00000000000000000e+00 -6.45282779794334287e-03 
1.62810808324195255e-02 0.00000000000000000e+00 -6.65248479272306358e-03 
1.48588840152623480e-02 0.00000000000000000e+00 -6.45282779794025679e-03 
8.52866626712404062e-03 0.00000000000000000e+00 -4.32241355929892379e-03 
9.05104013911164039e-03 0.00000000000000000e+00 -4.48634646527593887e-03 
1.03579128679806287e-02 0.00000000000000000e+00 -5.00593087504613409e-03 
9.05104013911106446e-03 0.00000000000000000e+00 -4.48634646527172002e-03 
4.69988734294291520e-03 0.00000000000000000e+00 -2.54065296499853942e-03 
5.12596448465754435e-03 0.00000000000000000e+00 -2.77499148776531391e-03 
5.97580333323204527e-03 0.00000000000000000e+00 -3.18833621553709463e-03 
5.12596448465938315e-03 0.00000000000000000e+00 -2.77499148776450813e-03 
2.13211551193508890e-03 0.00000000000000000e+00 -1.20751608123557497e-03 
2.36174704858287555e-03 0.00000000000000000e+00 -1.31892011887240878e-03 
2.97107906187138362e-03 0.00000000000000000e+00 -1.64412472147699995e-03 
2.36174704858813480e-03 0.00000000000000000e+00 -1.31892011887617530e-03 
6.37490390553060830e-03 0.00000000000000000e+00 -3.33831243276090910e-03 
1.99315174985973190e-02 0.00000000000000000e+00 -6.24880722371146374e-03 
1.69132663084620230e-02 0.00000000000000000e+00 -6.63008773724853458e-03 
1.62810808324206843e-02 0.00000000000000000e+00 -6.65248479272035481e-03 
2.08055584426922839e-02 0.00000000000000000e+00 -5.78209877825187814e-03 
1.11358815988286241e-02 0.00000000000000000e+00 -5.35317401826969352e-03 
1.03579128679783267e-02 0.00000000000000000e+00 -5.00593087504735187e-03 
5.97580333323612621e-03 0.00000000000000000e+00 -3.18833621553971927e-03 
3.32797404741475055e-03 0.00000000000000000e+00 -1.85170413858901876e-03 
2.97107906188027494e-03 0.00000000000000000e+00 -1.64412472147681564e-03 
-4.93475900000141200e-04 0.00000000000000000e+00 1.19941549174096724e-04 
3.86917199906679503e-04 0.00000000000000000e+00 -2.32214040128171331e-04 
-3.92154256319879682e-04 0.00000000000000000e+00 8.19103029959051252e-04 
-3.92154256336123633e-04 0.00000000000000000e+00 8.19103029961638050e-04 
-3.92154256331000994e-04 0.00000000000000000e+00 8.19103029961820305e-04 
-4.93475899987857081e-04 0.00000000000000000e+00 1.19941549173330409e-04 
-3.92154256324627620e-04 0.00000000000000000e+00 8.19103029971479028e-04 
1.82431294066163763e-02 0.00000000000000000e+00 -2.00935518255487486e-03 
1.93555422580718342e-04 0.00000000000000000e+00 -9.46022798474604988e-05 
3.12078980436882156e-04 0.00000000000000000e+00 -3.37560437727009791e-04 
1.09984450608196870e-04 0.00000000000000000e+00 -2.89641731091270897e-04 
-2.02161334189985626e-04 0.00000000000000000e+00 -1.03644037360492506e-04 
-4.30726346718000158e-04 0.00000000000000000e+00 8.35915580652000557e-05 
-4.58170051498521633e-04 0.00000000000000000e+00 1.78875835813483472e-04 
-2.74415264695215908e-04 0.00000000000000000e+00 1.60341733864951164e-04 
3.02945386968962693e-05 0.00000000000000000e+00 6.93170788330212882e-05 
3.15639373541611208e-04 0.00000000000000000e+00 -3.36117547068857860e-05 
4.52261956216713258e-04 0.00000000000000000e+00 -1.09411556724364173e-04 
3.54986937652141375e-04 0.00000000000000000e+00 -1.33965902945213684e-04 
9.27128828729224504e-06 0.00000000000000000e+00 -6.62101069921844582e-05 
-1.82136203642137854e-04 0.00000000000000000e+00 4.14051966378109232e-04 
1.26484682688908040e-04 0.00000000000000000e+00 -4.89970080636833866e-06 
2.66810254561402314e-04 0.00000000000000000e+00 -1.98242033666500825e-04 
3.20797048004988383e-04 0.00000000000000000e+00 -3.13666211686820622e-04 
2.83469669940515070e-04 0.00000000000000000e+00 -3.46791187314334339e-04 
3.03503733148910665e-04 0.00000000000000000e+00 -2.60895810952878121e-04 
1.78330569232045271e-04 0.00000000000000000e+00 -3.20020306799378128e-04 
3.37707305304548784e-05 0.00000000000000000e+00 -2.50355027469865478e-04 
2.38997237337478245e-04 0.00000000000000000e+00 -3.40265495150907386e-04 
-1.25517248529117680e-04 0.00000000000000000e+00 -1.55112942160403027e-04 
-2.73145606459333139e-04 0.00000000000000000e+00 -5.25135748003195549e-05 
-4.54729870773321846e-05 0.00000000000000000e+00 -2.04873160000080190e-04 
-3.89397130170567561e-04 0.00000000000000000e+00 4.26766589197272961e-05 
-4.58749341879059129e-04 0.00000000000000000e+00 1.18089174491453174e-04 
-3.36363493142815542e-04 0.00000000000000000e+00 -3.01623077159276037e-06 
-4.72565623065313142e-04 0.00000000000000000e+00 1.66000673086649564e-04 
-4.30030886256024488e-04 0.00000000000000000e+00 1.84121049944514786e-04 
-4.72898542995210127e-04 0.00000000000000000e+00 1.45883752715023096e-04 
-3.36744505752730914e-04 0.00000000000000000e+00 1.74215437229694397e-04 
-2.04357169340188880e-04 0.00000000000000000e+00 1.41800044419048278e-04 
-3.89156855621096041e-04 0.00000000000000000e+00 1.82505697625197155e-04 
-4.97710605521495795e-05 0.00000000000000000e+00 9.53238140832369743e-05 
1.09424120629671956e-04 0.00000000000000000e+00 4.24078220402450808e-05 
-1.28774529267304365e-04 0.00000000000000000e+00 1.19863190090403542e-04 
2.54045141153151177e-04 0.00000000000000000e+00 -9.60727190518360154e-06 
3.68547006276057846e-04 0.00000000000000000e+00 -5.62778618477937915e-05 
1.84266288343121990e-04 0.00000000000000000e+00 1.60870682734249760e-05 
4.37816621505224073e-04 0.00000000000000000e+00 -9.45005857196904749e-05 
4.51120356665570075e-04 0.00000000000000000e+00 -1.22096600671712895e-04 
4.08787468060867111e-04 0.00000000000000000e+00 -7.61357739374376443e-05 
4.00600281352093621e-04 0.00000000000000000e+00 -1.34431684966715632e-04 
2.71519287690867724e-04 0.00000000000000000e+00 -1.25176587758250607e-04 
4.36517008266634808e-04 0.00000000000000000e+00 -1.29703805611976354e-04 
8.86776687385524404e-05 0.00000000000000000e+00 -8.77284328281651522e-05 
-2.15067321262759118e-04 0.00000000000000000e+00 7.13810418255238452e-06 
-2.15067321255216215e-04 0.00000000000000000e+00 7.13810417929392331e-06 
2.16908866503537519e-04 0.00000000000000000e+00 -1.16095913084291342e-04 
-2.15067321253531636e-04 0.00000000000000000e+00 7.13810418180862183e-06 
-1.82136203652131595e-04 0.00000000000000000e+00 4.14051966378867198e-04 
2.66810254555044553e-04 0.00000000000000000e+00 -1.98242033666100103e-04 
1.26484682680309016e-04 0.00000000000000000e+00 -4.89970081046082239e-06 
2.83469669939852406e-04 0.00000000000000000e+00 -3.46791187315523275e-04 
3.20797048006889640e-04 0.00000000000000000e+00 -3.13666211684666854e-04 
3.37707305282725962e-05 0.00000000000000000e+00 -2.50355027472231857e-04 
1.78330569230314017e-04 0.00000000000000000e+00 -3.20020306798166857e-04 
-2.73145606458371235e-04 0.00000000000000000e+00 -5.25135747987635080e-05 
-1.25517248525647366e-04 0.00000000000000000e+00 -1.55112942164071317e-04 
-4.58749341878068601e-04 0.00000000000000000e+00 1.18089174492758120e-04 
-3.89397130173711747e-04 0.00000000000000000e+00 4.26766589164183111e-05 
-4.30030886254631939e-04 0.00000000000000000e+00 1.84121049944445831e-04 
-4.72565623068628632e-04 0.00000000000000000e+00 1.66000673083756912e-04 
-2.04357169341508571e-04 0.00000000000000000e+00 1.41800044416237375e-04 
-3.36744505757694392e-04 0.00000000000000000e+00 1.74215437229134081e-04 
1.09424120624418997e-04 0.00000000000000000e+00 4.24078220403372380e-05 
-4.97710605502695730e-05 0.00000000000000000e+00 9.53238140809794485e-05 
3.68547006275858570e-04 0.00000000000000000e+00 -5.62778618518546708e-05 
2.54045141153391816e-04 0.00000000000000000e+00 -9.60727190425248871e-06 
4.51120356656322156e-04 0.00000000000000000e+00 -1.22096600668406891e-04 
4.37816621507473196e-04 0.00000000000000000e+00 -9.45005857145219747e-05 
2.71519287696214034e-04 0.00000000000000000e+00 -1.25176587762747878e-04 
4.00600281347929525e-04 0.00000000000000000e+00 -1.34431684970371399e-04 
-8.36911170525109628e-05 0.00000000000000000e+00 2.74372512260230431e-04 
8.86776687341799615e-05 0.00000000000000000e+00 -8.77284328310851255e-05 
3.86917199905982036e-04 0.00000000000000000e+00 -2.32214040126979277e-04 
2.07386887792595231e-02 0.00000000000000000e+00 -3.72839017088337542e-03 
2.11924389268346759e-02 0.00000000000000000e+00 -5.56721604538362464e-03 
1.95664679801291416e-02 0.00000000000000000e+00 -6.55769464541037378e-03 
1.69029748871606274e-02 0.00000000000000000e+00 -6.62997791499703084e-03 
1.39713371320134838e-02 0.00000000000000000e+00 -6.15157293314222593e-03 
1.11347705902197103e-02 0.00000000000000000e+00 -5.35268677495858488e-03 
8.52800203463187356e-03 0.00000000000000000e+00 -4.32220818233575253e-03 
6.37326351725853255e-03 0.00000000000000000e+00 -3.33765201201433959e-03 
4.69433193749339492e-03 0.00000000000000000e+00 -2.53768791094409561e-03 
3.30993593225535577e-03 0.00000000000000000e+00 -1.84110305410073970e-03 
2.08685373967380230e-03 0.00000000000000000e+00 -1.18523135901295144e-03 
1.06603248821271891e-03 0.00000000000000000e+00 -6.29349873833183839e-04 
1.99486345074556398e-02 0.00000000000000000e+00 -2.89178688118064877e-03 
2.10277062450344894e-02 0.00000000000000000e+00 -4.62988958844438424e-03 
2.03170541943612365e-02 0.00000000000000000e+00 -5.99994056692405246e-03 
1.84183664793624718e-02 0.00000000000000000e+00 -6.75949217115788970e-03 
1.56733173665435446e-02 0.00000000000000000e+00 -6.66464630493163873e-03 
1.24772830510195987e-02 0.00000000000000000e+00 -5.73893765989604357e-03 
9.65147307435320310e-03 0.00000000000000000e+00 -4.70492115716769459e-03 
7.38526447390520837e-03 0.00000000000000000e+00 -3.80689716468956543e-03 
5.57911128757513069e-03 0.00000000000000000e+00 -3.02239407015036021e-03 
3.98513702704689395e-03 0.00000000000000000e+00 -2.19200209234589284e-03 
2.63671312328901371e-03 0.00000000000000000e+00 -1.45903541409304763e-03 
1.53360025145379960e-03 0.00000000000000000e+00 -8.78418641774828543e-04 
6.92518992297698477e-04 0.00000000000000000e+00 -4.30736745385202323e-04 
7.31395631736282616e-05 0.00000000000000000e+00 -1.47547323523852445e-04 
7.31395631727549368e-05 0.00000000000000000e+00 -1.47547323519771670e-04 
-1.93272729682388461e-04 0.00000000000000000e+00 -4.55365699225146440e-05 
-1.93272729687198904e-04 0.00000000000000000e+00 -4.55365699228568182e-05 
-6.47139960668706015e-05 0.00000000000000000e+00 -1.16476549784739355e-04 
-6.47139960574750681e-05 0.00000000000000000e+00 -1.16476549788961672e-04 
7.31395631752218762e-05 0.00000000000000000e+00 -1.47547323517072929e-04 
-1.93272729687101000e-04 0.00000000000000000e+00 -4.55365699249968164e-05 
-4.93475899990937408e-04 0.00000000000000000e+00 1.19941549171114734e-04 
-4.93475899997259282e-04 0.00000000000000000e+00 1.19941549171424165e-04 
-4.93475899994218745e-04 0.00000000000000000e+00 1.19941549169165989e-04 
3.86917199912615022e-04 0.00000000000000000e+00 -2.32214040125079674e-04 
3.86917199915130913e-04 0.00000000000000000e+00 -2.32214040130058222e-04 
3.86917199919544429e-04 0.00000000000000000e+00 -2.32214040127514575e-04 
4.75423414098489729e-05 0.00000000000000000e+00 9.94014352902294722e-05 
3.09039364431009235e-04 0.00000000000000000e+00 -2.72957287774856186e-04 
2.35997669858055225e-04 0.00000000000000000e+00 -3.39489854173120745e-04 
-4.66984220329492837e-05 0.00000000000000000e+00 -2.04139989445256513e-04 
-3.36610847010151732e-04 0.00000000000000000e+00 -2.81376695954372036e-06 
-4.72908315415712177e-04 0.00000000000000000e+00 1.45917590091923695e-04 
-3.89094764750966206e-04 0.00000000000000000e+00 1.82499066132516999e-04 
-1.28477926419181762e-04 0.00000000000000000e+00 1.19773854343363517e-04 
1.85263798582427824e-04 0.00000000000000000e+00 1.57288345038783727e-05 
4.10539469924639858e-04 0.00000000000000000e+00 -7.70975554637418807e-05 
4.31999934385536794e-04 0.00000000000000000e+00 -1.30844834925567454e-04 
1.59296808321988161e-04 0.00000000000000000e+00 -1.04460258437166347e-04 
-1.82136203641806521e-04 0.00000000000000000e+00 4.14051966376295037e-04 
2.18560427389971634e-04 0.00000000000000000e+00 -1.29175435013444167e-04 
3.10329030007100947e-04 0.00000000000000000e+00 -3.39024102427688020e-04 
1.08225231605678878e-04 0.00000000000000000e+00 -2.88791915779517045e-04 
-2.02649503782174997e-04 0.00000000000000000e+00 -1.03304644404783494e-04 
-4.30792366335714955e-04 0.00000000000000000e+00 8.36632378259457741e-05 
-4.58150493002031556e-04 0.00000000000000000e+00 1.78884137138033707e-04 
-2.74299833972574902e-04 0.00000000000000000e+00 1.60313348312481920e-04 
3.07668405888511260e-05 0.00000000000000000e+00 6.91597981431105288e-05 
3.16873917268693740e-04 0.00000000000000000e+00 -3.41130921030506943e-05 
4.52802361215779976e-04 0.00000000000000000e+00 -1.10486478584299563e-04 
3.37848832160779109e-04 0.00000000000000000e+00 -1.32828547271514411e-04 
-1.15104343390032651e-04 0.00000000000000000e+00 -2.77595367393497191e-05 
1.82431294066211606e-02 0.00000000000000000e+00 -2.00935518255656101e-03 
1.82431294066202135e-02 0.00000000000000000e+00 -2.00935518255754243e-03 
1.82431294066224443e-02 0.00000000000000000e+00 -2.00935518255308636e-03 
-6.47139960610966286e-05 0.00000000000000000e+00 -1.16476549785167940e-04 
7.31395631764894169e-05 0.00000000000000000e+00 -1.47547323518630981e-04 
-1.93272729686615549e-04 0.00000000000000000e+00 -4.55365699265021227e-05 
4.75423414051322598e-05 0.00000000000000000e+00 9.94014352889402474e-05 
3.09039364430311876e-04 0.00000000000000000e+00 -2.72957287776714726e-04 
2.35997669856925920e-04 0.00000000000000000e+00 -3.39489854172627217e-04 
-4.66984220317592634e-05 0.00000000000000000e+00 -2.04139989444113330e-04 
-3.36610847011464050e-04 0.00000000000000000e+00 -2.81376695826392811e-06 
-4.72908315414819662e-04 0.00000000000000000e+00 1.45917590091266668e-04 
-3.89094764748749229e-04 0.00000000000000000e+00 1.82499066131255205e-04 
-1.28477926421834588e-04 0.00000000000000000e+00 1.19773854342198217e-04 
1.85263798580138857e-04 0.00000000000000000e+00 1.57288345031762434e-05 
4.10539469925511123e-04 0.00000000000000000e+00 -7.70975554630574239e-05 
4.31999934389237176e-04 0.00000000000000000e+00 -1.30844834925008928e-04 
1.59296808322528853e-04 0.00000000000000000e+00 -1.04460258442549844e-04 
-1.82136203642526432e-04 0.00000000000000000e+00 4.14051966375404853e-04 
2.18560427389142436e-04 0.00000000000000000e+00 -1.29175435008968580e-04 
3.10329030009786299e-04 0.00000000000000000e+00 -3.39024102431020424e-04 
1.08225231604704831e-04 0.00000000000000000e+00 -2.88791915780107719e-04 
-2.02649503780667523e-04 0.00000000000000000e+00 -1.03304644401827308e-04 
-4.30792366334108601e-04 0.00000000000000000e+00 8.36632378252661962e-05 
-4.58150493003251500e-04 0.00000000000000000e+00 1.78884137138366340e-04 
-2.74299833971171077e-04 0.00000000000000000e+00 1.60313348314034280e-04 
3.07668405868739749e-05 0.00000000000000000e+00 6.91597981433384281e-05 
3.16873917272149743e-04 0.00000000000000000e+00 -3.41130921031805817e-05 
4.52802361218829295e-04 0.00000000000000000e+00 -1.10486478584741375e-04 
3.37848832155393335e-04 0.00000000000000000e+00 -1.32828547271633132e-04 
-1.15104343394752291e-04 0.00000000000000000e+00 -2.77595367395637406e-05 
1.82431294066189437e-02 0.00000000000000000e+00 -2.00935518255905598e-03 
2.07386887792564423e-02 0.00000000000000000e+00 -3.72839017088091428e-03 
2.11924389268374584e-02 0.00000000000000000e+00 -5.56721604538088291e-03 
1.95664679801300506e-02 0.00000000000000000e+00 -6.55769464541100522e-03 
1.69029748871583028e-02 0.00000000000000000e+00 -6.62997791499614787e-03 
1.39713371320135879e-02 0.00000000000000000e+00 -6.15157293314066555e-03 
1.11347705902227947e-02 0.00000000000000000e+00 -5.35268677495978618e-03 