# vtk DataFile Version 2.0

ASCII

DATASET UNSTRUCTURED_GRID

POINTS 281 double 

0.00000000000000000e+00  6.00000000000000012e-03  8.68039800000000063e-03
0.00000000000000000e+00  6.00000000000000012e-03  2.15013699999999988e-02
0.00000000000000000e+00  5.99999699999999997e-03  3.38432499999999983e-02
0.00000000000000000e+00  6.00000000000000012e-03  4.61511800000000000e-02
0.00000000000000000e+00  5.99999399999999981e-03  5.84285100000000029e-02
0.00000000000000000e+00  5.99999899999999978e-03  7.03572799999999943e-02
0.00000000000000000e+00  6.00000000000000012e-03  7.56573400000000035e-02
0.00000000000000000e+00  6.00000000000000012e-03  1.52458600000000000e-02
0.00000000000000000e+00  5.99999899999999978e-03  2.76822099999999988e-02
0.00000000000000000e+00  5.99999899999999978e-03  3.99985900000000005e-02
0.00000000000000000e+00  5.99999800000000031e-03  5.22986000000000006e-02
0.00000000000000000e+00  5.99999800000000031e-03  6.44963600000000026e-02
0.00000000000000000e+00  3.00000000000000006e-03  3.07692300000000007e-03
0.00000000000000000e+00  3.00000000000000006e-03  1.04940499999999996e-02
0.00000000000000000e+00  3.00000000000000006e-03  7.41712199999999995e-03
0.00000000000000000e+00  3.00000000000000006e-03  2.30583799999999998e-02
0.00000000000000000e+00  3.00000000000000006e-03  1.99814599999999995e-02
0.00000000000000000e+00  2.99999900000000016e-03  3.53831699999999985e-02
0.00000000000000000e+00  2.99999900000000016e-03  3.23062400000000000e-02
0.00000000000000000e+00  3.00000000000000006e-03  4.76909699999999992e-02
0.00000000000000000e+00  3.00000000000000006e-03  4.46140500000000023e-02
0.00000000000000000e+00  2.99999699999999991e-03  5.99834799999999987e-02
0.00000000000000000e+00  2.99999699999999991e-03  5.69065600000000019e-02
0.00000000000000000e+00  2.99999900000000016e-03  7.21017199999999941e-02
0.00000000000000000e+00  2.99999900000000016e-03  6.90247900000000025e-02
0.00000000000000000e+00  3.00000000000000006e-03  7.78286700000000026e-02
0.00000000000000000e+00  3.00000000000000006e-03  7.47517500000000057e-02
0.00000000000000000e+00  5.99999899999999978e-03  7.30073100000000058e-02
0.00000000000000000e+00  6.00000000000000012e-03  7.78286700000000026e-02
0.00000000000000000e+00  8.99999999999999932e-03  7.47517500000000057e-02
0.00000000000000000e+00  8.99999999999999932e-03  7.78286700000000026e-02
0.00000000000000000e+00  8.99999999999999932e-03  3.07692300000000007e-03
0.00000000000000000e+00  8.99999999999999932e-03  7.41712199999999995e-03
0.00000000000000000e+00  8.99999999999999932e-03  1.04940499999999996e-02
0.00000000000000000e+00  8.99999999999999932e-03  1.99814599999999995e-02
0.00000000000000000e+00  8.99999999999999932e-03  2.30583799999999998e-02
0.00000000000000000e+00  8.99999899999999985e-03  3.23062400000000000e-02
0.00000000000000000e+00  8.99999899999999985e-03  3.53831699999999985e-02
0.00000000000000000e+00  8.99999999999999932e-03  4.46140500000000023e-02
0.00000000000000000e+00  8.99999999999999932e-03  4.76909699999999992e-02
0.00000000000000000e+00  8.99999699999999916e-03  5.69065600000000019e-02
0.00000000000000000e+00  8.99999699999999916e-03  5.99834799999999987e-02
0.00000000000000000e+00  8.99999899999999985e-03  6.90247900000000025e-02
0.00000000000000000e+00  8.99999899999999985e-03  7.21017199999999941e-02
0.00000000000000000e+00  6.00000000000000012e-03  4.34019900000000031e-03
0.00000000000000000e+00  3.00000000000000006e-03  1.37767800000000006e-02
0.00000000000000000e+00  6.00000000000000012e-03  1.19631300000000006e-02
0.00000000000000000e+00  3.00000000000000006e-03  1.68536999999999992e-02
0.00000000000000000e+00  6.00000000000000012e-03  1.83736200000000002e-02
0.00000000000000000e+00  5.99999800000000031e-03  3.07627299999999985e-02
0.00000000000000000e+00  3.00000000000000006e-03  2.92257200000000002e-02
0.00000000000000000e+00  3.00000000000000006e-03  2.61487999999999998e-02
0.00000000000000000e+00  8.99999999999999932e-03  2.92257200000000002e-02
0.00000000000000000e+00  6.00000000000000012e-03  4.30748800000000029e-02
0.00000000000000000e+00  2.99999900000000016e-03  4.15377600000000000e-02
0.00000000000000000e+00  2.99999900000000016e-03  3.84608300000000014e-02
0.00000000000000000e+00  8.99999899999999985e-03  4.15377600000000000e-02
0.00000000000000000e+00  5.99999599999999963e-03  5.53635499999999975e-02
0.00000000000000000e+00  2.99999900000000016e-03  5.38416099999999981e-02
0.00000000000000000e+00  2.99999900000000016e-03  5.07646799999999995e-02
0.00000000000000000e+00  8.99999899999999985e-03  5.38416099999999981e-02
0.00000000000000000e+00  5.99999800000000031e-03  6.74268199999999984e-02
0.00000000000000000e+00  2.99999900000000016e-03  6.60943300000000067e-02
0.00000000000000000e+00  2.99999900000000016e-03  6.30174099999999959e-02
0.00000000000000000e+00  8.99999899999999985e-03  6.60943300000000067e-02
0.00000000000000000e+00  5.99999899999999978e-03  4.92248900000000003e-02
0.00000000000000000e+00  8.99999999999999932e-03  1.68536999999999992e-02
0.00000000000000000e+00  5.99999899999999978e-03  2.45917899999999988e-02
0.00000000000000000e+00  8.99999999999999932e-03  2.61487999999999998e-02
0.00000000000000000e+00  8.99999999999999932e-03  1.37767800000000006e-02
0.00000000000000000e+00  5.99999800000000031e-03  3.69209200000000029e-02
0.00000000000000000e+00  8.99999899999999985e-03  3.84608300000000014e-02
0.00000000000000000e+00  8.99999899999999985e-03  5.07646799999999995e-02
0.00000000000000000e+00  5.99999599999999963e-03  6.14624299999999985e-02
0.00000000000000000e+00  8.99999899999999985e-03  6.30174099999999959e-02
1.20000000000000002e-02  1.20000000000000002e-02  8.00000000000000017e-02
0.00000000000000000e+00  0.00000000000000000e+00  8.00000000000000017e-02
1.20000000000000002e-02  6.00000000000000012e-03  0.00000000000000000e+00
1.20000000000000002e-02  3.00000000000000006e-03  0.00000000000000000e+00
1.20000000000000002e-02  8.99999999999999932e-03  0.00000000000000000e+00
1.20000000000000002e-02  0.00000000000000000e+00  8.00000000000000017e-02
1.20000000000000002e-02  0.00000000000000000e+00  0.00000000000000000e+00
0.00000000000000000e+00  1.20000000000000002e-02  0.00000000000000000e+00
1.20000000000000002e-02  5.99999899999999978e-03  8.68039699999999942e-03
1.20000000000000002e-02  5.99999899999999978e-03  1.52458600000000000e-02
1.20000000000000002e-02  5.99999899999999978e-03  2.15013699999999988e-02
1.20000000000000002e-02  6.00000000000000012e-03  2.76822099999999988e-02
1.20000000000000002e-02  5.99999899999999978e-03  3.38432399999999967e-02
1.20000000000000002e-02  5.99999800000000031e-03  3.99985900000000005e-02
1.20000000000000002e-02  5.99999699999999997e-03  4.61511800000000000e-02
1.20000000000000002e-02  5.99999300000000034e-03  5.22986100000000023e-02
1.20000000000000002e-02  5.99998599999999969e-03  5.84285400000000010e-02
1.20000000000000002e-02  5.99997800000000043e-03  6.44963800000000059e-02
1.20000000000000002e-02  5.99997500000000027e-03  7.03572999999999976e-02
1.20000000000000002e-02  5.99997500000000027e-03  7.56573600000000068e-02
1.20000000000000002e-02  3.00000000000000006e-03  3.07692300000000007e-03
1.20000000000000002e-02  3.00000000000000006e-03  7.41712099999999961e-03
1.20000000000000002e-02  3.00000000000000006e-03  1.04940399999999996e-02
1.20000000000000002e-02  2.99999900000000016e-03  1.37767800000000006e-02
1.20000000000000002e-02  2.99999900000000016e-03  1.68536999999999992e-02
1.20000000000000002e-02  5.99999899999999978e-03  1.19631300000000006e-02
1.20000000000000002e-02  3.00000000000000006e-03  1.99814500000000013e-02
1.20000000000000002e-02  3.00000000000000006e-03  2.30583799999999998e-02
1.20000000000000002e-02  5.99999899999999978e-03  1.83736099999999986e-02
1.20000000000000002e-02  3.00000000000000006e-03  2.61487999999999998e-02
1.20000000000000002e-02  3.00000000000000006e-03  2.92257200000000002e-02
1.20000000000000002e-02  5.99999899999999978e-03  2.45917899999999988e-02
1.20000000000000002e-02  3.00000000000000006e-03  3.23062299999999983e-02
1.20000000000000002e-02  3.00000000000000006e-03  3.53831599999999968e-02
1.20000000000000002e-02  5.99999899999999978e-03  3.07627200000000003e-02
1.20000000000000002e-02  2.99999900000000016e-03  3.84608300000000014e-02
1.20000000000000002e-02  2.99999900000000016e-03  4.15377499999999983e-02
1.20000000000000002e-02  5.99999899999999978e-03  3.69209100000000012e-02
1.20000000000000002e-02  2.99999799999999981e-03  4.46140500000000023e-02
1.20000000000000002e-02  2.99999799999999981e-03  4.76909800000000009e-02
1.20000000000000002e-02  5.99999800000000031e-03  4.30748800000000029e-02
1.20000000000000002e-02  2.99999699999999991e-03  5.07646900000000012e-02
1.20000000000000002e-02  2.99999699999999991e-03  5.38416099999999981e-02
1.20000000000000002e-02  5.99999500000000015e-03  4.92249000000000020e-02
1.20000000000000002e-02  2.99999299999999984e-03  5.69065799999999983e-02
1.20000000000000002e-02  2.99999299999999984e-03  5.99835000000000021e-02
1.20000000000000002e-02  5.99999000000000018e-03  5.53635800000000025e-02
1.20000000000000002e-02  2.99998900000000021e-03  6.30174200000000045e-02
1.20000000000000002e-02  2.99998900000000021e-03  6.60943499999999962e-02
1.20000000000000002e-02  5.99998200000000006e-03  6.14624599999999965e-02
1.20000000000000002e-02  2.99998799999999987e-03  6.90248100000000059e-02
1.20000000000000002e-02  2.99998799999999987e-03  7.21017300000000028e-02
1.20000000000000002e-02  5.99997700000000009e-03  6.74268400000000018e-02
1.20000000000000002e-02  2.99998699999999997e-03  7.47517600000000004e-02
1.20000000000000002e-02  2.99998699999999997e-03  7.78286799999999973e-02
1.20000000000000002e-02  5.99998700000000003e-03  7.78286799999999973e-02
1.20000000000000002e-02  5.99997500000000027e-03  7.30073299999999953e-02
1.20000000000000002e-02  8.99998699999999922e-03  7.78286799999999973e-02
1.20000000000000002e-02  8.99999999999999932e-03  3.07692300000000007e-03
[...]
POINT_DATA 281

SCALARS Rank unsigned_int
LOOKUP_TABLE default
0 0 0 0 0 0 0 0 0 0 0 0 0 0 0 0 0 0 0 0 0 0 0 0 0 0 0 0 0 0 0 0 0 0 0 0 0 0 0 0 0 0 0 0 0 0 0 0 0 0 0 0 0 0 0 0 0 0 0 0 0 0 0 0 0 0 0 0 0 0 0 0 0 0 0 0 0 0 0 0 0 0 0 0 0 0 0 0 0 0 0 0 0 0 0 0 0 0 0 0 0 0 0 0 0 0 0 0 0 0 0 0 0 0 0 0 0 0 0 0 0 0 0 0 0 0 0 0 0 0 0 0 0 0 0 0 0 0 0 0 0 0 0 0 0 0 0 0 0 0 0 0 0 0 0 0 0 0 0 0 0 0 0 0 0 0 0 0 0 0 0 0 0 0 0 0 0 0 0 0 0 0 0 0 0 0 0 0 0 0 0 0 0 0 0 0 0 0 0 0 0 0 0 0 0 0 0 0 0 0 0 0 0 0 0 0 0 0 0 0 0 0 0 0 0 0 0 0 0 0 0 0 0 0 0 0 0 0 0 0 0 0 0 0 0 0 0 0 0 0 0 0 0 0 0 0 0 0 0 0 0 0 0 0 0 0 0 0 0 0 0 0 0 0 0 0 0 0 0 0 0 

VECTORS Forces0 double
1.99074691774683745e-04 0.00000000000000000e+00 3.66079269091443190e-07 
7.62115239601104803e-05 0.00000000000000000e+00 -3.26860024319984786e-07 
2.46035860123796417e-05 0.00000000000000000e+00 3.08409749819993839e-07 
1.46728329821955180e-05 0.00000000000000000e+00 -1.42742742260230399e-07 
8.94698965568263350e-06 0.00000000000000000e+00 2.92440323800319819e-07 
3.95032265445761243e-06 0.00000000000000000e+00 -5.93631071549424609e-07 
1.76104827619274187e-06 0.00000000000000000e+00 -1.42865782854330058e-06 
1.33001696273124195e-04 0.00000000000000000e+00 5.98157358681900727e-08 
4.15398823523392338e-05 0.00000000000000000e+00 -2.19253049077420271e-07 
1.78427794519427135e-05 0.00000000000000000e+00 4.92815577071857760e-07 
1.19683787524139565e-05 0.00000000000000000e+00 -6.17021944923228074e-07 
6.34980662247813173e-06 0.00000000000000000e+00 1.09861547845560990e-06 
2.29838841955659899e-04 0.00000000000000000e+00 -1.01923609317329887e-07 
1.84773336948984936e-04 0.00000000000000000e+00 3.30474062287711772e-07 
2.09791435965888767e-04 0.00000000000000000e+00 3.38226564005003326e-07 
6.42807620636480943e-05 0.00000000000000000e+00 -3.59030221960729082e-07 
8.92184089348137987e-05 0.00000000000000000e+00 -2.61321324065766019e-07 
2.30514451706092787e-05 0.00000000000000000e+00 4.27201435513514285e-07 
2.70656268185817966e-05 0.00000000000000000e+00 1.68756288924386979e-07 
1.36688644919315285e-05 0.00000000000000000e+00 -3.47204273274534152e-07 
1.58548854399733398e-05 0.00000000000000000e+00 6.97018520638179010e-08 
8.47351283565734620e-06 0.00000000000000000e+00 6.47183928369816448e-07 
9.46189908296013879e-06 0.00000000000000000e+00 -4.87478983488022332e-08 
3.15095784804704291e-06 0.00000000000000000e+00 -1.24065509531456505e-06 
4.57438295735654888e-06 0.00000000000000000e+00 -4.05361572473990409e-08 
1.23459218575170927e-06 0.00000000000000000e+00 -4.52134133859320824e-07 
2.06873181237647478e-06 0.00000000000000000e+00 -1.58682628773693238e-06 
2.75824042892214891e-06 0.00000000000000000e+00 -1.47399598898585788e-06 
1.23459218591598622e-06 0.00000000000000000e+00 -4.52134133886712176e-07 
2.06873181228601505e-06 0.00000000000000000e+00 -1.58682628766353571e-06 
1.23459218585739187e-06 0.00000000000000000e+00 -4.52134133923847794e-07 
2.29838841955708092e-04 0.00000000000000000e+00 -1.01923609179716255e-07 
2.09791435965931268e-04 0.00000000000000000e+00 3.38226563941600157e-07 
1.84773336948964852e-04 0.00000000000000000e+00 3.30474062285815054e-07 
8.92184089349455292e-05 0.00000000000000000e+00 -2.61321324110601590e-07 
6.42807620636845370e-05 0.00000000000000000e+00 -3.59030221970601886e-07 
2.70656268185280778e-05 0.00000000000000000e+00 1.68756288913552474e-07 
2.30514451705185547e-05 0.00000000000000000e+00 4.27201435550763406e-07 
1.58548854399365786e-05 0.00000000000000000e+00 6.97018520792775228e-08 
1.36688644919160311e-05 0.00000000000000000e+00 -3.47204273269863613e-07 
9.46189908291621843e-06 0.00000000000000000e+00 -4.87478983070926368e-08 
8.47351283569472068e-06 0.00000000000000000e+00 6.47183928359380367e-07 
4.57438295729329585e-06 0.00000000000000000e+00 -4.05361572514448938e-08 
3.15095784781864894e-06 0.00000000000000000e+00 -1.24065509523500049e-06 
2.32202291570613638e-04 0.00000000000000000e+00 6.74460167277234058e-08 
1.50807001237692005e-04 0.00000000000000000e+00 1.56268216404687113e-07 
1.72478989072448832e-04 0.00000000000000000e+00 2.57379189341107436e-07 
1.15834227572860298e-04 0.00000000000000000e+00 -5.55220984483437544e-08 
1.02032981012834621e-04 0.00000000000000000e+00 -1.62995066888349480e-07 
3.07791829560571692e-05 0.00000000000000000e+00 2.47688734672367517e-08 
3.58301460078288005e-05 0.00000000000000000e+00 -1.07046274100293696e-07 
4.72642573733448993e-05 0.00000000000000000e+00 -3.03764920688766874e-07 
3.58301460078404150e-05 0.00000000000000000e+00 -1.07046274046382273e-07 
1.65398293425813233e-05 0.00000000000000000e+00 2.58102734329627404e-07 
1.70004150127664451e-05 0.00000000000000000e+00 4.01205641088702343e-07 
1.92931500039681665e-05 0.00000000000000000e+00 5.26165693678450203e-07 
1.70004150128549397e-05 0.00000000000000000e+00 4.01205641064047332e-07 
1.01541853468234042e-05 0.00000000000000000e+00 -3.37085286332348209e-07 
1.10346129504936194e-05 0.00000000000000000e+00 -5.27762185872193949e-07 
1.24981980025511205e-05 0.00000000000000000e+00 -6.07371013241599089e-07 
1.10346129506597785e-05 0.00000000000000000e+00 -5.27762185824139229e-07 
5.24929251082925120e-06 0.00000000000000000e+00 5.46241723353608942e-07 
5.73417392221258509e-06 0.00000000000000000e+00 8.87270142744572417e-07 
7.00472924932936002e-06 0.00000000000000000e+00 1.09365904180251266e-06 
5.73417392213726861e-06 0.00000000000000000e+00 8.87270142781705917e-07 
1.29522207813340606e-05 0.00000000000000000e+00 -5.11535357620637166e-07 
1.15834227572859187e-04 0.00000000000000000e+00 -5.55220983983577991e-08 
5.46871114129179200e-05 0.00000000000000000e+00 -3.52337639417849825e-07 
4.72642573733621110e-05 0.00000000000000000e+00 -3.03764920728748312e-07 
1.50807001237662081e-04 0.00000000000000000e+00 1.56268216428851269e-07 
2.12369402189265845e-05 0.00000000000000000e+00 5.03713884809731849e-07 
1.92931500039241411e-05 0.00000000000000000e+00 5.26165693646870909e-07 
1.24981980025200327e-05 0.00000000000000000e+00 -6.07371013233103348e-07 
7.76531575670422487e-06 0.00000000000000000e+00 9.23905034344085540e-07 
7.00472924947906801e-06 0.00000000000000000e+00 1.09365904177790720e-06 
-3.11024964961259307e-07 0.00000000000000000e+00 1.99201889223139338e-06 
9.82413377314940232e-07 0.00000000000000000e+00 1.93843913629302769e-06 
4.72909483134462780e-06 0.00000000000000000e+00 -6.33235998309140516e-07 
4.72909483151898106e-06 0.00000000000000000e+00 -6.33235998216694281e-07 
4.72909483151232677e-06 0.00000000000000000e+00 -6.33235998242210725e-07 
-3.11024964991502618e-07 0.00000000000000000e+00 1.99201889224790714e-06 
4.72909483147996334e-06 0.00000000000000000e+00 -6.33235998272228514e-07 
2.09755877478974844e-04 0.00000000000000000e+00 -7.45754790927153187e-07 
2.01414787702574244e-06 0.00000000000000000e+00 5.04522314226945588e-07 
-1.93807720202216920e-06 0.00000000000000000e+00 1.28104778383540128e-07 
-3.52371458703310237e-06 0.00000000000000000e+00 -3.26793548940508627e-07 
-6.60878882607573709e-07 0.00000000000000000e+00 -2.75400054346392564e-07 
4.22551880189401992e-06 0.00000000000000000e+00 2.23801329127057810e-07 
8.03396369877376364e-06 0.00000000000000000e+00 3.92347216107026744e-07 
9.42738605745053203e-06 0.00000000000000000e+00 -2.45447683688509702e-07 
9.00082529619145881e-06 0.00000000000000000e+00 -7.06593637054062871e-07 
7.78373397690033346e-06 0.00000000000000000e+00 2.40973360254571920e-07 
6.58467884596068365e-06 0.00000000000000000e+00 1.08802999658208673e-06 
5.15744553161886858e-06 0.00000000000000000e+00 -5.82950648751465592e-07 
2.92423147466952949e-06 0.00000000000000000e+00 -1.41318607551712639e-06 
3.47094437858295341e-06 0.00000000000000000e+00 7.98546649680824471e-08 
2.55612324973605927e-06 0.00000000000000000e+00 4.90706850221686508e-07 
1.06437812545866843e-06 0.00000000000000000e+00 4.60941249884737853e-07 
-1.02481111195814449e-06 0.00000000000000000e+00 2.51300993479334869e-07 
-2.74408797999965032e-06 0.00000000000000000e+00 -1.08366309268095386e-08 
1.73912404308895855e-07 0.00000000000000000e+00 3.82956352644063615e-07 
-3.51173939368693085e-06 0.00000000000000000e+00 -2.47777328420738690e-07 
-3.23687137382395691e-06 0.00000000000000000e+00 -3.72758713807115356e-07 
-3.25770575016188796e-06 0.00000000000000000e+00 -1.35289527719821986e-07 
-1.74713109057008693e-06 0.00000000000000000e+00 -3.46262360857612722e-07 
4.78594767611413720e-07 0.00000000000000000e+00 -1.70309967738039349e-07 
-2.63655144059166809e-06 0.00000000000000000e+00 -3.80022378692261957e-07 
2.94180175687797502e-06 0.00000000000000000e+00 9.36458756534184474e-08 
5.45315689600425895e-06 0.00000000000000000e+00 3.31939480430287562e-07 
1.67931566041958202e-06 0.00000000000000000e+00 -4.33191684145896526e-08 
7.31535290705496210e-06 0.00000000000000000e+00 4.26926474815190431e-07 
8.64676524059789691e-06 0.00000000000000000e+00 2.96681905300534816e-07 
6.48467584071740171e-06 0.00000000000000000e+00 4.04288038957372706e-07 
9.40385292535780799e-06 0.00000000000000000e+00 -4.02415809847115179e-08 
9.36932548363546066e-06 0.00000000000000000e+00 -4.43965110951477107e-07 
9.13935434894792315e-06 0.00000000000000000e+00 1.48301814336563208e-07 
9.19210158933504578e-06 0.00000000000000000e+00 -7.00854945457723129e-07 
8.62279034059265027e-06 0.00000000000000000e+00 -6.03712968098462674e-07 
9.28799658117945159e-06 0.00000000000000000e+00 -6.05352400415580385e-07 
7.97840859076062347e-06 0.00000000000000000e+00 -1.03993139627848533e-07 
7.59739376796543485e-06 0.00000000000000000e+00 5.99288394194032973e-07 
8.25984591043475235e-06 0.00000000000000000e+00 -4.00384947556988155e-07 
6.86435884111346850e-06 0.00000000000000000e+00 1.07463905990255190e-06 
6.36545921935641438e-06 0.00000000000000000e+00 8.78731847122178425e-07 
7.23753431107237241e-06 0.00000000000000000e+00 8.90441622989448917e-07 
5.70664348211662256e-06 0.00000000000000000e+00 -4.14114164454370110e-08 
4.43170770027489421e-06 0.00000000000000000e+00 -1.22096244931894844e-06 
6.17974658490551284e-06 0.00000000000000000e+00 5.36879094860636902e-07 
3.35015253497903890e-06 0.00000000000000000e+00 -1.56951661104790668e-06 
1.38183075037696481e-06 0.00000000000000000e+00 -4.17743158857786349e-07 
1.38183075038499087e-06 0.00000000000000000e+00 -4.17743158821324122e-07 
4.06630241273807168e-06 0.00000000000000000e+00 -1.45330972864678404e-06 
1.38183075037499885e-06 0.00000000000000000e+00 -4.17743158773552311e-07 
3.47094437847992710e-06 0.00000000000000000e+00 7.98546649363007121e-08 
1.06437812553612112e-06 0.00000000000000000e+00 4.60941249811422492e-07 
2.55612324966240129e-06 0.00000000000000000e+00 4.90706850224748532e-07 
-2.74408797997358881e-06 0.00000000000000000e+00 -1.08366309376803594e-08 
-1.02481111199079930e-06 0.00000000000000000e+00 2.51300993541101147e-07 
-3.23687137382166654e-06 0.00000000000000000e+00 -3.72758713739863693e-07 
-3.51173939360176677e-06 0.00000000000000000e+00 -2.47777328460348491e-07 
4.78594767615447291e-07 0.00000000000000000e+00 -1.70309967732651372e-07 
-1.74713109049606345e-06 0.00000000000000000e+00 -3.46262360855998278e-07 
5.45315689598464845e-06 0.00000000000000000e+00 3.31939480386925828e-07 
2.94180175693023356e-06 0.00000000000000000e+00 9.36458756717101239e-08 
8.64676524061975375e-06 0.00000000000000000e+00 2.96681905290322140e-07 
7.31535290699933575e-06 0.00000000000000000e+00 4.26926474813423520e-07 
9.36932548364153897e-06 0.00000000000000000e+00 -4.43965110968695804e-07 
9.40385292536767423e-06 0.00000000000000000e+00 -4.02415809986551625e-08 
8.62279034057411041e-06 0.00000000000000000e+00 -6.03712968104755599e-07 
9.19210158933046502e-06 0.00000000000000000e+00 -7.00854945430836397e-07 
7.59739376800151507e-06 0.00000000000000000e+00 5.99288394205563633e-07 
7.97840859077546687e-06 0.00000000000000000e+00 -1.03993139629028873e-07 
6.36545921939453425e-06 0.00000000000000000e+00 8.78731847126510999e-07 
6.86435884103911256e-06 0.00000000000000000e+00 1.07463905991271714e-06 
4.43170770027749121e-06 0.00000000000000000e+00 -1.22096244937298999e-06 
5.70664348225737911e-06 0.00000000000000000e+00 -4.14114164877005669e-08 
3.32975935069929855e-06 0.00000000000000000e+00 2.64724311013328088e-07 
3.35015253506031002e-06 0.00000000000000000e+00 -1.56951661108508507e-06 
9.82413377427283906e-07 0.00000000000000000e+00 1.93843913626630888e-06 
2.20584336506247794e-04 0.00000000000000000e+00 2.60915828931153632e-07 
1.68738366294763872e-04 0.00000000000000000e+00 2.39238270753134463e-07 
1.01300586982163866e-04 0.00000000000000000e+00 -1.68903473206904932e-07 
5.45577799323515307e-05 0.00000000000000000e+00 -3.51914608439006025e-07 
3.07605711721328621e-05 0.00000000000000000e+00 2.53592855090584241e-08 
2.12339887556378220e-05 0.00000000000000000e+00 5.03783401993650093e-07 
1.65393180421120610e-05 0.00000000000000000e+00 2.57881453292072425e-07 
1.29500626310708073e-05 0.00000000000000000e+00 -5.12047865695423493e-07 
1.01432469785921672e-05 0.00000000000000000e+00 -3.33742617557555401e-07 
7.72684949603600171e-06 0.00000000000000000e+00 9.35488364991431434e-07 
5.14945969414896102e-06 0.00000000000000000e+00 4.61345215057343540e-07 
2.41325732333809461e-06 0.00000000000000000e+00 -1.59394267059696753e-06 
2.29838841955626831e-04 0.00000000000000000e+00 -1.01923609185778682e-07 
1.94586785955398322e-04 0.00000000000000000e+00 3.64009965384098228e-07 
1.31407362195770281e-04 0.00000000000000000e+00 5.01382818436421112e-08 
7.59037533183678581e-05 0.00000000000000000e+00 -3.28058884967830873e-07 
4.15046980190657261e-05 0.00000000000000000e+00 -2.18591345941205709e-07 
2.45999835127446642e-05 0.00000000000000000e+00 3.08658858354634800e-07 
1.78417370390276192e-05 0.00000000000000000e+00 4.92757989594721881e-07 
1.46708561624595370e-05 0.00000000000000000e+00 -1.43113141915907500e-07 
1.19634143915009182e-05 0.00000000000000000e+00 -6.16805530359972393e-07 
8.93718005105078250e-06 0.00000000000000000e+00 3.00120338986475718e-07 
6.30078808894996765e-06 0.00000000000000000e+00 1.09090972374495999e-06 
3.75754174775734566e-06 0.00000000000000000e+00 -7.60037837942865259e-07 
1.41842176381963747e-06 0.00000000000000000e+00 -9.99926380137328531e-07 
-3.35903844803925804e-08 0.00000000000000000e+00 2.54061449748959225e-05 
-3.35903844755983739e-08 0.00000000000000000e+00 2.54061449748950822e-05 
4.32490235839383163e-08 0.00000000000000000e+00 2.54377273461070500e-05 
4.32490235540651584e-08 0.00000000000000000e+00 2.54377273461201451e-05 
-1.05616632883485699e-07 0.00000000000000000e+00 4.52824890613342745e-05 
-1.05616632866690730e-07 0.00000000000000000e+00 4.52824890613887015e-05 
-3.35903844845633706e-08 0.00000000000000000e+00 2.54061449748783008e-05 
4.32490235876449325e-08 0.00000000000000000e+00 2.54377273461225236e-05 
-3.11024965029509833e-07 0.00000000000000000e+00 1.99201889225249975e-06 
-3.11024965025022253e-07 0.00000000000000000e+00 1.99201889223594449e-06 
-3.11024964893452625e-07 0.00000000000000000e+00 1.99201889221905889e-06 
9.82413377328181051e-07 0.00000000000000000e+00 1.93843913632034111e-06 
9.82413377322875236e-07 0.00000000000000000e+00 1.93843913624709987e-06 
9.82413377362889073e-07 0.00000000000000000e+00 1.93843913630536896e-06 
2.97459961842240428e-06 0.00000000000000000e+00 4.33454485278740144e-07 
-5.25213557396877620e-08 0.00000000000000000e+00 3.60471722513097035e-07 
-3.27925988162070123e-06 0.00000000000000000e+00 -1.42050136913886474e-07 
-2.62505032199154287e-06 0.00000000000000000e+00 -3.79820093574803853e-07 
1.68454330202710366e-06 0.00000000000000000e+00 -4.27516729063412671e-08 
6.48595279160338115e-06 0.00000000000000000e+00 4.04357758746025985e-07 
9.13990093940230895e-06 0.00000000000000000e+00 1.48074157886300621e-07 
9.28767089214487048e-06 0.00000000000000000e+00 -6.05859182873885001e-07 
8.25534924081084460e-06 0.00000000000000000e+00 -3.96901540777608633e-07 
7.21790842018585217e-06 0.00000000000000000e+00 9.02823688184305917e-07 
6.13067592429183666e-06 0.00000000000000000e+00 4.52119037526326952e-07 
3.72818349969971159e-06 0.00000000000000000e+00 -1.57418957885711729e-06 
3.47094437866360450e-06 0.00000000000000000e+00 7.98546648883652118e-08 
1.74079814385025470e-06 0.00000000000000000e+00 4.98566870139246471e-07 
-2.01730542793800305e-06 0.00000000000000000e+00 1.16114801721110221e-07 
-3.52062197891375851e-06 0.00000000000000000e+00 -3.28321731706891343e-07 
-6.53365155035805228e-07 0.00000000000000000e+00 -2.74815874027143525e-07 
4.22792326072318052e-06 0.00000000000000000e+00 2.24031233098440582e-07 
8.03457480205186889e-06 0.00000000000000000e+00 3.92287195089081519e-07 
9.42733221474114758e-06 0.00000000000000000e+00 -2.45805557989959624e-07 
8.99888539892117132e-06 0.00000000000000000e+00 -7.06311048853334945e-07 
7.78016306007356640e-06 0.00000000000000000e+00 2.48695833512048061e-07 
6.56582189962065473e-06 0.00000000000000000e+00 1.08072184346312841e-06 
4.98358053625432306e-06 0.00000000000000000e+00 -7.46378315696825067e-07 
2.08560639006980365e-06 0.00000000000000000e+00 -9.75720785517411922e-07 
2.09755877479025611e-04 0.00000000000000000e+00 -7.45754790948877465e-07 
2.09755877479005445e-04 0.00000000000000000e+00 -7.45754790999257290e-07 
2.09755877479068546e-04 0.00000000000000000e+00 -7.45754790937891024e-07 
-1.05616632829211216e-07 0.00000000000000000e+00 4.52824890613939192e-05 
-3.35903844702383494e-08 0.00000000000000000e+00 2.54061449748748584e-05 
4.32490235768757556e-08 0.00000000000000000e+00 2.54377273461097842e-05 
2.97459961847204718e-06 0.00000000000000000e+00 4.33454485300481150e-07 
-5.25213557550427753e-08 0.00000000000000000e+00 3.60471722513811295e-07 
-3.27925988160873774e-06 0.00000000000000000e+00 -1.42050136865671876e-07 
-2.62505032199453713e-06 0.00000000000000000e+00 -3.79820093604852135e-07 
1.68454330199227028e-06 0.00000000000000000e+00 -4.27516729012433993e-08 
6.48595279156781932e-06 0.00000000000000000e+00 4.04357758758849216e-07 
9.13990093939440444e-06 0.00000000000000000e+00 1.48074157863900411e-07 
9.28767089208969137e-06 0.00000000000000000e+00 -6.05859182867247862e-07 
8.25534924080784272e-06 0.00000000000000000e+00 -3.96901540773939922e-07 
7.21790842017939778e-06 0.00000000000000000e+00 9.02823688184083147e-07 
6.13067592433062399e-06 0.00000000000000000e+00 4.52119037522310322e-07 
3.72818349962190483e-06 0.00000000000000000e+00 -1.57418957883740387e-06 
3.47094437860143906e-06 0.00000000000000000e+00 7.98546649256916244e-08 
1.74079814383799644e-06 0.00000000000000000e+00 4.98566870166595894e-07 
-2.01730542797164720e-06 0.00000000000000000e+00 1.16114801707487813e-07 
-3.52062197899943589e-06 0.00000000000000000e+00 -3.28321731713710170e-07 
-6.53365155088317883e-07 0.00000000000000000e+00 -2.74815874027448457e-07 
4.22792326069493705e-06 0.00000000000000000e+00 2.24031233074652085e-07 
8.03457480207835731e-06 0.00000000000000000e+00 3.92287195105611790e-07 
9.42733221470360708e-06 0.00000000000000000e+00 -2.45805557985380035e-07 
8.99888539886672404e-06 0.00000000000000000e+00 -7.06311048885540196e-07 
7.78016306005761169e-06 0.00000000000000000e+00 2.48695833511070162e-07 
6.56582189963354996e-06 0.00000000000000000e+00 1.08072184346413469e-06 
4.98358053624450086e-06 0.00000000000000000e+00 -7.46378315654525089e-07 
2.08560639010081818e-06 0.00000000000000000e+00 -9.75720785544928211e-07 
2.09755877479044043e-04 0.00000000000000000e+00 -7.45754790944414025e-07 
2.20584336506184585e-04 0.00000000000000000e+00 2.60915828850588305e-07 
1.68738366294797401e-04 0.00000000000000000e+00 2.39238270713974647e-07 
1.01300586982095006e-04 0.00000000000000000e+00 -1.68903473217840763e-07 
5.45577799323526894e-05 0.00000000000000000e+00 -3.51914608480792490e-07 
3.07605711721076138e-05 0.00000000000000000e+00 2.53592855259187208e-08 
2.12339887556517100e-05 0.00000000000000000e+00 5.03783402025405358e-07 
1.65393180421179936e-05 0.00000000000000000e+00 2.57881453250219681e-07 