# vtk DataFile Version 2.0

ASCII

DATASET UNSTRUCTURED_GRID

POINTS 281 double 

0.00000000000000000e+00  6.00000000000000012e-03  8.68039800000000063e-03
0.00000000000000000e+00  6.00000000000000012e-03  2.15013699999999988e-02
0.00000000000000000e+00  5.99999699999999997e-03  3.38432499999999983e-02
0.00000000000000000e+00  6.00000000000000012e-03  4.61511800000000000e-02
0.00000000000000000e+00  5.99999399999999981e-03  5.84285100000000029e-02
0.00000000000000000e+00  5.99999899999999978e-03  7.03572799999999943e-02
0.00000000000000000e+00  6.00000000000000012e-03  7.56573400000000035e-02
0.00000000000000000e+00  6.00000000000000012e-03  1.52458600000000000e-02
0.00000000000000000e+00  5.99999899999999978e-03  2.76822099999999988e-02
0.00000000000000000e+00  5.99999899999999978e-03  3.99985900000000005e-02
0.00000000000000000e+00  5.99999800000000031e-03  5.22986000000000006e-02
0.00000000000000000e+00  5.99999800000000031e-03  6.44963600000000026e-02
0.00000000000000000e+00  3.00000000000000006e-03  3.07692300000000007e-03
0.00000000000000000e+00  3.00000000000000006e-03  1.04940499999999996e-02
0.00000000000000000e+00  3.00000000000000006e-03  7.41712199999999995e-03
0.00000000000000000e+00  3.00000000000000006e-03  2.30583799999999998e-02
0.00000000000000000e+00  3.00000000000000006e-03  1.99814599999999995e-02
0.00000000000000000e+00  2.99999900000000016e-03  3.53831699999999985e-02
0.00000000000000000e+00  2.99999900000000016e-03  3.23062400000000000e-02
0.00000000000000000e+00  3.00000000000000006e-03  4.76909699999999992e-02
0.00000000000000000e+00  3.00000000000000006e-03  4.46140500000000023e-02
0.00000000000000000e+00  2.99999699999999991e-03  5.99834799999999987e-02
0.00000000000000000e+00  2.99999699999999991e-03  5.69065600000000019e-02
0.00000000000000000e+00  2.99999900000000016e-03  7.21017199999999941e-02
0.00000000000000000e+00  2.99999900000000016e-03  6.90247900000000025e-02
0.00000000000000000e+00  3.00000000000000006e-03  7.78286700000000026e-02
0.00000000000000000e+00  3.00000000000000006e-03  7.47517500000000057e-02
0.00000000000000000e+00  5.99999899999999978e-03  7.30073100000000058e-02
0.00000000000000000e+00  6.00000000000000012e-03  7.78286700000000026e-02
0.00000000000000000e+00  8.99999999999999932e-03  7.47517500000000057e-02
0.00000000000000000e+00  8.99999999999999932e-03  7.78286700000000026e-02
0.00000000000000000e+00  8.99999999999999932e-03  3.07692300000000007e-03
0.00000000000000000e+00  8.99999999999999932e-03  7.41712199999999995e-03
0.00000000000000000e+00  8.99999999999999932e-03  1.04940499999999996e-02
0.00000000000000000e+00  8.99999999999999932e-03  1.99814599999999995e-02
0.00000000000000000e+00  8.99999999999999932e-03  2.30583799999999998e-02
0.00000000000000000e+00  8.99999899999999985e-03  3.23062400000000000e-02
0.00000000000000000e+00  8.99999899999999985e-03  3.53831699999999985e-02
0.00000000000000000e+00  8.99999999999999932e-03  4.46140500000000023e-02
0.00000000000000000e+00  8.99999999999999932e-03  4.76909699999999992e-02
0.00000000000000000e+00  8.99999699999999916e-03  5.69065600000000019e-02
0.00000000000000000e+00  8.99999699999999916e-03  5.99834799999999987e-02
0.00000000000000000e+00  8.99999899999999985e-03  6.90247900000000025e-02
0.00000000000000000e+00  8.99999899999999985e-03  7.21017199999999941e-02
0.00000000000000000e+00  6.00000000000000012e-03  4.34019900000000031e-03
0.00000000000000000e+00  3.00000000000000006e-03  1.37767800000000006e-02
0.00000000000000000e+00  6.00000000000000012e-03  1.19631300000000006e-02
0.00000000000000000e+00  3.00000000000000006e-03  1.68536999999999992e-02
0.00000000000000000e+00  6.00000000000000012e-03  1.83736200000000002e-02
0.00000000000000000e+00  5.99999800000000031e-03  3.07627299999999985e-02
0.00000000000000000e+00  3.00000000000000006e-03  2.92257200000000002e-02
0.00000000000000000e+00  3.00000000000000006e-03  2.61487999999999998e-02
0.00000000000000000e+00  8.99999999999999932e-03  2.92257200000000002e-02
0.00000000000000000e+00  6.00000000000000012e-03  4.30748800000000029e-02
0.00000000000000000e+00  2.99999900000000016e-03  4.15377600000000000e-02
0.00000000000000000e+00  2.99999900000000016e-03  3.84608300000000014e-02
0.00000000000000000e+00  8.99999899999999985e-03  4.15377600000000000e-02
0.00000000000000000e+00  5.99999599999999963e-03  5.53635499999999975e-02
0.00000000000000000e+00  2.99999900000000016e-03  5.38416099999999981e-02
0.00000000000000000e+00  2.99999900000000016e-03  5.07646799999999995e-02
0.00000000000000000e+00  8.99999899999999985e-03  5.38416099999999981e-02
0.00000000000000000e+00  5.99999800000000031e-03  6.74268199999999984e-02
0.00000000000000000e+00  2.99999900000000016e-03  6.60943300000000067e-02
0.00000000000000000e+00  2.99999900000000016e-03  6.30174099999999959e-02
0.00000000000000000e+00  8.99999899999999985e-03  6.60943300000000067e-02
0.00000000000000000e+00  5.99999899999999978e-03  4.92248900000000003e-02
0.00000000000000000e+00  8.99999999999999932e-03  1.68536999999999992e-02
0.00000000000000000e+00  5.99999899999999978e-03  2.45917899999999988e-02
0.00000000000000000e+00  8.99999999999999932e-03  2.61487999999999998e-02
0.00000000000000000e+00  8.99999999999999932e-03  1.37767800000000006e-02
0.00000000000000000e+00  5.99999800000000031e-03  3.69209200000000029e-02
0.00000000000000000e+00  8.99999899999999985e-03  3.84608300000000014e-02
0.00000000000000000e+00  8.99999899999999985e-03  5.07646799999999995e-02
0.00000000000000000e+00  5.99999599999999963e-03  6.14624299999999985e-02
0.00000000000000000e+00  8.99999899999999985e-03  6.30174099999999959e-02
1.20000000000000002e-02  1.20000000000000002e-02  8.00000000000000017e-02
0.00000000000000000e+00  0.00000000000000000e+00  8.00000000000000017e-02
1.20000000000000002e-02  6.00000000000000012e-03  0.00000000000000000e+00
1.20000000000000002e-02  3.00000000000000006e-03  0.00000000000000000e+00
1.20000000000000002e-02  8.99999999999999932e-03  0.00000000000000000e+00
1.20000000000000002e-02  0.00000000000000000e+00  8.00000000000000017e-02
1.20000000000000002e-02  0.00000000000000000e+00  0.00000000000000000e+00
0.00000000000000000e+00  1.20000000000000002e-02  0.00000000000000000e+00
1.20000000000000002e-02  5.99999899999999978e-03  8.68039699999999942e-03
1.20000000000000002e-02  5.99999899999999978e-03  1.52458600000000000e-02
1.20000000000000002e-02  5.99999899999999978e-03  2.15013699999999988e-02
1.20000000000000002e-02  6.00000000000000012e-03  2.76822099999999988e-02
1.20000000000000002e-02  5.99999899999999978e-03  3.38432399999999967e-02
1.20000000000000002e-02  5.99999800000000031e-03  3.99985900000000005e-02
1.20000000000000002e-02  5.99999699999999997e-03  4.61511800000000000e-02
1.20000000000000002e-02  5.99999300000000034e-03  5.22986100000000023e-02
1.20000000000000002e-02  5.99998599999999969e-03  5.84285400000000010e-02
1.20000000000000002e-02  5.99997800000000043e-03  6.44963800000000059e-02
1.20000000000000002e-02  5.99997500000000027e-03  7.03572999999999976e-02
1.20000000000000002e-02  5.99997500000000027e-03  7.56573600000000068e-02
1.20000000000000002e-02  3.00000000000000006e-03  3.07692300000000007e-03
1.20000000000000002e-02  3.00000000000000006e-03  7.41712099999999961e-03
1.20000000000000002e-02  3.00000000000000006e-03  1.04940399999999996e-02
1.20000000000000002e-02  2.99999900000000016e-03  1.37767800000000006e-02
1.20000000000000002e-02  2.99999900000000016e-03  1.68536999999999992e-02
1.20000000000000002e-02  5.99999899999999978e-03  1.19631300000000006e-02
1.20000000000000002e-02  3.00000000000000006e-03  1.99814500000000013e-02
1.20000000000000002e-02  3.00000000000000006e-03  2.30583799999999998e-02
1.20000000000000002e-02  5.99999899999999978e-03  1.83736099999999986e-02
1.20000000000000002e-02  3.00000000000000006e-03  2.61487999999999998e-02
1.20000000000000002e-02  3.00000000000000006e-03  2.92257200000000002e-02
1.20000000000000002e-02  5.99999899999999978e-03  2.45917899999999988e-02
1.20000000000000002e-02  3.00000000000000006e-03  3.23062299999999983e-02
1.20000000000000002e-02  3.00000000000000006e-03  3.53831599999999968e-02
1.20000000000000002e-02  5.99999899999999978e-03  3.07627200000000003e-02
1.20000000000000002e-02  2.99999900000000016e-03  3.84608300000000014e-02
1.20000000000000002e-02  2.99999900000000016e-03  4.15377499999999983e-02
1.20000000000000002e-02  5.99999899999999978e-03  3.69209100000000012e-02
1.20000000000000002e-02  2.99999799999999981e-03  4.46140500000000023e-02
1.20000000000000002e-02  2.99999799999999981e-03  4.76909800000000009e-02
1.20000000000000002e-02  5.99999800000000031e-03  4.30748800000000029e-02
1.20000000000000002e-02  2.99999699999999991e-03  5.07646900000000012e-02
1.20000000000000002e-02  2.99999699999999991e-03  5.38416099999999981e-02
1.20000000000000002e-02  5.99999500000000015e-03  4.92249000000000020e-02
1.20000000000000002e-02  2.99999299999999984e-03  5.69065799999999983e-02
1.20000000000000002e-02  2.99999299999999984e-03  5.99835000000000021e-02
1.20000000000000002e-02  5.99999000000000018e-03  5.53635800000000025e-02
1.20000000000000002e-02  2.99998900000000021e-03  6.30174200000000045e-02
1.20000000000000002e-02  2.99998900000000021e-03  6.60943499999999962e-02
1.20000000000000002e-02  5.99998200000000006e-03  6.14624599999999965e-02
1.20000000000000002e-02  2.99998799999999987e-03  6.90248100000000059e-02
1.20000000000000002e-02  2.99998799999999987e-03  7.21017300000000028e-02
1.20000000000000002e-02  5.99997700000000009e-03  6.74268400000000018e-02
1.20000000000000002e-02  2.99998699999999997e-03  7.47517600000000004e-02
1.20000000000000002e-02  2.99998699999999997e-03  7.78286799999999973e-02
1.20000000000000002e-02  5.99998700000000003e-03  7.78286799999999973e-02
1.20000000000000002e-02  5.99997500000000027e-03  7.30073299999999953e-02
1.20000000000000002e-02  8.99998699999999922e-03  7.78286799999999973e-02
1.20000000000000002e-02  8.99999999999999932e-03  3.07692300000000007e-03
[...]
POINT_DATA 281

SCALARS Rank unsigned_int
LOOKUP_TABLE default
0 0 0 0 0 0 0 0 0 0 0 0 0 0 0 0 0 0 0 0 0 0 0 0 0 0 0 0 0 0 0 0 0 0 0 0 0 0 0 0 0 0 0 0 0 0 0 0 0 0 0 0 0 0 0 0 0 0 0 0 0 0 0 0 0 0 0 0 0 0 0 0 0 0 0 0 0 0 0 0 0 0 0 0 0 0 0 0 0 0 0 0 0 0 0 0 0 0 0 0 0 0 0 0 0 0 0 0 0 0 0 0 0 0 0 0 0 0 0 0 0 0 0 0 0 0 0 0 0 0 0 0 0 0 0 0 0 0 0 0 0 0 0 0 0 0 0 0 0 0 0 0 0 0 0 0 0 0 0 0 0 0 0 0 0 0 0 0 0 0 0 0 0 0 0 0 0 0 0 0 0 0 0 0 0 0 0 0 0 0 0 0 0 0 0 0 0 0 0 0 0 0 0 0 0 0 0 0 0 0 0 0 0 0 0 0 0 0 0 0 0 0 0 0 0 0 0 0 0 0 0 0 0 0 0 0 0 0 0 0 0 0 0 0 0 0 0 0 0 0 0 0 0 0 0 0 0 0 0 0 0 0 0 0 0 0 0 0 0 0 0 0 0 0 0 0 0 0 0 0 0 

VECTORS Forces0 double
1.96858083329193821e-02 0.00000000000000000e+00 -3.72593929206537292e-03 
1.73782575802152832e-02 0.00000000000000000e+00 -5.70676408808449762e-03 
1.19502599753929222e-02 0.00000000000000000e+00 -4.93546115166532216e-03 
7.20258894941616743e-03 0.00000000000000000e+00 -3.31208765612494693e-03 
4.03892707897981172e-03 0.00000000000000000e+00 -1.98051140173931663e-03 
1.73083714394555821e-03 0.00000000000000000e+00 -8.82291491969422882e-04 
9.40219176024660835e-04 0.00000000000000000e+00 -5.02463178456559511e-04 
1.91090924731512832e-02 0.00000000000000000e+00 -5.01050217789393744e-03 
1.48888155547096685e-02 0.00000000000000000e+00 -5.68263465010302154e-03 
9.32149177640761127e-03 0.00000000000000000e+00 -4.06978056475837055e-03 
5.52125393337613707e-03 0.00000000000000000e+00 -2.66217036853066752e-03 
2.77356897591248073e-03 0.00000000000000000e+00 -1.37235336106800794e-03 
1.87746338273198816e-02 0.00000000000000000e+00 -2.43134260465061080e-03 
1.98718943637325660e-02 0.00000000000000000e+00 -4.22330438109105866e-03 
1.95809396892874209e-02 0.00000000000000000e+00 -3.40977924621593299e-03 
1.66486408086561344e-02 0.00000000000000000e+00 -5.64630985080051551e-03 
1.80451556094791757e-02 0.00000000000000000e+00 -5.72525691393794330e-03 
1.13799981823497782e-02 0.00000000000000000e+00 -4.83531451930240951e-03 
1.25882232703004356e-02 0.00000000000000000e+00 -5.07139224549171385e-03 
6.69227744990286925e-03 0.00000000000000000e+00 -3.08887285389948009e-03 
7.76748311430554197e-03 0.00000000000000000e+00 -3.56864343062460567e-03 
3.74473849516055802e-03 0.00000000000000000e+00 -1.86381246602116660e-03 
4.34368082952552546e-03 0.00000000000000000e+00 -2.10290189030299442e-03 
1.43433701791155629e-03 0.00000000000000000e+00 -7.33626694293650159e-04 
1.97594278292466657e-03 0.00000000000000000e+00 -1.00839498398174821e-03 
6.74114236787881258e-04 0.00000000000000000e+00 -3.63084912746511411e-04 
1.05339462630242792e-03 0.00000000000000000e+00 -5.54676481715740363e-04 
1.29474710092895504e-03 0.00000000000000000e+00 -6.66501902706230411e-04 
6.74114236787567490e-04 0.00000000000000000e+00 -3.63084912740674066e-04 
1.05339462630631348e-03 0.00000000000000000e+00 -5.54676481718201718e-04 
6.74114236782032638e-04 0.00000000000000000e+00 -3.63084912741857798e-04 
1.87746338273099139e-02 0.00000000000000000e+00 -2.43134260465108351e-03 
1.95809396892818975e-02 0.00000000000000000e+00 -3.40977924621716551e-03 
1.98718943637348835e-02 0.00000000000000000e+00 -4.22330438109275869e-03 
1.80451556094782320e-02 0.00000000000000000e+00 -5.72525691393745151e-03 
1.66486408086559436e-02 0.00000000000000000e+00 -5.64630985080511860e-03 
1.25882232702964163e-02 0.00000000000000000e+00 -5.07139224549056026e-03 
1.13799981823475178e-02 0.00000000000000000e+00 -4.83531451929944921e-03 
7.76748311430841727e-03 0.00000000000000000e+00 -3.56864343062422837e-03 
6.69227744989847172e-03 0.00000000000000000e+00 -3.08887285390176732e-03 
4.34368082953322677e-03 0.00000000000000000e+00 -2.10290189030154550e-03 
3.74473849515356361e-03 0.00000000000000000e+00 -1.86381246602153067e-03 
1.97594278292390806e-03 0.00000000000000000e+00 -1.00839498398706687e-03 
1.43433701792587058e-03 0.00000000000000000e+00 -7.33626694298391375e-04 
1.92689184443872626e-02 0.00000000000000000e+00 -2.74171049958943282e-03 
1.95217743504269639e-02 0.00000000000000000e+00 -4.83964233176650219e-03 
1.99286624695104858e-02 0.00000000000000000e+00 -4.59652836703105562e-03 
1.87225346475817372e-02 0.00000000000000000e+00 -5.24430055511691893e-03 
1.84142567461076066e-02 0.00000000000000000e+00 -5.49806383001024118e-03 
1.33254059227026350e-02 0.00000000000000000e+00 -5.26935620107279231e-03 
1.41394947941222392e-02 0.00000000000000000e+00 -5.51411023343148683e-03 
1.54301467887680011e-02 0.00000000000000000e+00 -5.65845778463457474e-03 
1.41394947941220830e-02 0.00000000000000000e+00 -5.51411023343116157e-03 
8.27375576542661688e-03 0.00000000000000000e+00 -3.74769097480876293e-03 
8.76034404235343130e-03 0.00000000000000000e+00 -3.88519807780190757e-03 
9.98208601930924283e-03 0.00000000000000000e+00 -4.32439489465369972e-03 
8.76034404235202097e-03 0.00000000000000000e+00 -3.88519807780234169e-03 
4.69622223311235137e-03 0.00000000000000000e+00 -2.26059258222412662e-03 
5.09455871768395730e-03 0.00000000000000000e+00 -2.45485634763506488e-03 
5.88688770472442589e-03 0.00000000000000000e+00 -2.79671560528698846e-03 
5.09455871768441267e-03 0.00000000000000000e+00 -2.45485634763360902e-03 
2.26164719780920032e-03 0.00000000000000000e+00 -1.14608168553667926e-03 
2.48547647981684633e-03 0.00000000000000000e+00 -1.24224588248050458e-03 
3.07225664784946265e-03 0.00000000000000000e+00 -1.51937110617976099e-03 
2.48547647981206066e-03 0.00000000000000000e+00 -1.24224588247625668e-03 
6.25666281075009604e-03 0.00000000000000000e+00 -2.91897224694524521e-03 
1.87225346475876214e-02 0.00000000000000000e+00 -5.24430055511782445e-03 
1.59967901095293581e-02 0.00000000000000000e+00 -5.62464597968089734e-03 
1.54301467887683879e-02 0.00000000000000000e+00 -5.65845778463434142e-03 
1.95217743504290386e-02 0.00000000000000000e+00 -4.83964233176402935e-03 
1.07100138665732012e-02 0.00000000000000000e+00 -4.61809101763075228e-03 
9.98208601931294473e-03 0.00000000000000000e+00 -4.32439489465520719e-03 
5.88688770472687532e-03 0.00000000000000000e+00 -2.79671560528829081e-03 
3.41405828756980280e-03 0.00000000000000000e+00 -1.69617515218234470e-03 
3.07225664783079225e-03 0.00000000000000000e+00 -1.51937110618080096e-03 
-5.29887260710410119e-04 0.00000000000000000e+00 1.07846854661507294e-04 
4.56766391881462499e-04 0.00000000000000000e+00 -2.36858414407405663e-04 
-3.52763674875632670e-04 0.00000000000000000e+00 6.80644351803255470e-04 
-3.52763674897587330e-04 0.00000000000000000e+00 6.80644351803501150e-04 
-3.52763674900763609e-04 0.00000000000000000e+00 6.80644351809557287e-04 
-5.29887260725968854e-04 0.00000000000000000e+00 1.07846854660970614e-04 
-3.52763674892679797e-04 0.00000000000000000e+00 6.80644351803897968e-04 
1.71849969154053810e-02 0.00000000000000000e+00 -1.69682614345319357e-03 
1.66737517567074186e-04 0.00000000000000000e+00 -7.54635827298689218e-05 
2.64977290381410711e-04 0.00000000000000000e+00 -2.74924825841674789e-04 
8.47743484351183487e-05 0.00000000000000000e+00 -2.38993208045726243e-04 
-1.89361900519350473e-04 0.00000000000000000e+00 -8.96713666300239773e-05 
-3.92978418051407122e-04 0.00000000000000000e+00 6.66989583999073188e-05 
-4.20646239657982638e-04 0.00000000000000000e+00 1.53160259230604516e-04 
-2.54395593122054163e-04 0.00000000000000000e+00 1.44297887970002098e-04 
3.06864186795395823e-05 0.00000000000000000e+00 6.75345840695008609e-05 
3.02571461975556294e-04 0.00000000000000000e+00 -2.62289205655966285e-05 
4.29377903822270274e-04 0.00000000000000000e+00 -9.69388547907432054e-05 
3.21940936913977659e-04 0.00000000000000000e+00 -1.18046880390359764e-04 
-3.00934752343281928e-05 0.00000000000000000e+00 -5.60142558912687621e-05 
-1.65173204005279479e-04 0.00000000000000000e+00 3.43898720010550726e-04 
1.08315742612536550e-04 0.00000000000000000e+00 -1.83751960694789123e-06 
2.29727183161784884e-04 0.00000000000000000e+00 -1.60348341692072738e-04 
2.73967896748712302e-04 0.00000000000000000e+00 -2.55028537422685047e-04 
2.38666670009580513e-04 0.00000000000000000e+00 -2.83046328964930126e-04 
2.60516506926510450e-04 0.00000000000000000e+00 -2.11639052771957767e-04 
1.44935012082949855e-04 0.00000000000000000e+00 -2.62796733147160964e-04 
1.79341202809064081e-05 0.00000000000000000e+00 -2.07924741611855974e-04 
1.98741687785789070e-04 0.00000000000000000e+00 -2.78424337510178269e-04 
-1.21853941462455115e-04 0.00000000000000000e+00 -1.31527704671105853e-04 
-2.52011864652012813e-04 0.00000000000000000e+00 -4.77602555838840096e-05 
-5.15750443131064002e-05 0.00000000000000000e+00 -1.71607045846483265e-04 
-3.55559644795343287e-04 0.00000000000000000e+00 3.16960879813892735e-05 
-4.18799374219368736e-04 0.00000000000000000e+00 9.68360448467878832e-05 
-3.08120097986731140e-04 0.00000000000000000e+00 -6.72578702540357551e-06 
-4.32823544308413974e-04 0.00000000000000000e+00 1.40368331809657450e-04 
-3.95881819277218549e-04 0.00000000000000000e+00 1.59603073650927855e-04 
-4.32314440004276769e-04 0.00000000000000000e+00 1.21697506059421836e-04 
-3.11662913867543202e-04 0.00000000000000000e+00 1.54818992710129656e-04 
-1.89501259085524343e-04 0.00000000000000000e+00 1.29397707532985740e-04 
-3.59278273947208056e-04 0.00000000000000000e+00 1.60181349845251255e-04 
-4.48978335890084216e-05 0.00000000000000000e+00 9.02414961231193041e-05 
1.05880139324964430e-04 0.00000000000000000e+00 4.34784862373554528e-05 
-1.19028165931327272e-04 0.00000000000000000e+00 1.11168869061352454e-04 
2.43852632299338128e-04 0.00000000000000000e+00 -4.01329048465261514e-06 
3.52808398831423590e-04 0.00000000000000000e+00 -4.73488387302774179e-05 
1.77228755669021909e-04 0.00000000000000000e+00 1.95871570921762905e-05 
4.17340455643331861e-04 0.00000000000000000e+00 -8.31622379391935363e-05 
4.25506980384546198e-04 0.00000000000000000e+00 -1.08404078564081416e-04 
3.90704728857556739e-04 0.00000000000000000e+00 -6.59708987936463411e-05 
3.69799686102150924e-04 0.00000000000000000e+00 -1.18883512091570774e-04 
2.35742257067003555e-04 0.00000000000000000e+00 -1.09533699726463603e-04 
4.08501999834580604e-04 0.00000000000000000e+00 -1.15026257436340087e-04 
4.98337785083476266e-05 0.00000000000000000e+00 -7.52919982930866182e-05 
-2.54161410828673525e-04 0.00000000000000000e+00 8.84133943973267839e-06 
-2.54161410826972520e-04 0.00000000000000000e+00 8.84133944646709177e-06 
1.79890786962141246e-04 0.00000000000000000e+00 -1.01089364565997447e-04 
-2.54161410827183180e-04 0.00000000000000000e+00 8.84133944583088193e-06 
-1.65173204005697547e-04 0.00000000000000000e+00 3.43898720008986114e-04 
2.29727183161973969e-04 0.00000000000000000e+00 -1.60348341692900201e-04 
1.08315742609549356e-04 0.00000000000000000e+00 -1.83751960109802420e-06 
2.38666670012045555e-04 0.00000000000000000e+00 -2.83046328965897668e-04 
2.73967896750211104e-04 0.00000000000000000e+00 -2.55028537421022315e-04 
1.79341202825847531e-05 0.00000000000000000e+00 -2.07924741609898773e-04 
1.44935012075239009e-04 0.00000000000000000e+00 -2.62796733146825946e-04 
-2.52011864649315318e-04 0.00000000000000000e+00 -4.77602555821143748e-05 
-1.21853941461718725e-04 0.00000000000000000e+00 -1.31527704670521251e-04 
-4.18799374220196199e-04 0.00000000000000000e+00 9.68360448477764588e-05 
-3.55559644795918348e-04 0.00000000000000000e+00 3.16960879796070619e-05 
-3.95881819275474718e-04 0.00000000000000000e+00 1.59603073651285425e-04 
-4.32823544307385716e-04 0.00000000000000000e+00 1.40368331810240967e-04 
-1.89501259085156148e-04 0.00000000000000000e+00 1.29397707533341358e-04 
-3.11662913868785264e-04 0.00000000000000000e+00 1.54818992710927195e-04 
1.05880139325767065e-04 0.00000000000000000e+00 4.34784862391157634e-05 
-4.48978335883947632e-05 0.00000000000000000e+00 9.02414961243210338e-05 
3.52808398831428523e-04 0.00000000000000000e+00 -4.73488387331402538e-05 
2.43852632305162787e-04 0.00000000000000000e+00 -4.01329048779398251e-06 
4.25506980380474151e-04 0.00000000000000000e+00 -1.08404078559924761e-04 
4.17340455644287802e-04 0.00000000000000000e+00 -8.31622379384135341e-05 
2.35742257069619844e-04 0.00000000000000000e+00 -1.09533699724710014e-04 
3.69799686100215732e-04 0.00000000000000000e+00 -1.18883512092009551e-04 
-7.73973765508450206e-05 0.00000000000000000e+00 2.28324691190046622e-04 
4.98337785104122728e-05 0.00000000000000000e+00 -7.52919982962301540e-05 
4.56766391872688810e-04 0.00000000000000000e+00 -2.36858414416533562e-04 
1.94935242640362875e-02 0.00000000000000000e+00 -3.12481593061976958e-03 
1.98815830150306447e-02 0.00000000000000000e+00 -4.65606726723234894e-03 
1.83970513210120860e-02 0.00000000000000000e+00 -5.51288756732406637e-03 
1.59875320585796295e-02 0.00000000000000000e+00 -5.62478135735300887e-03 
1.33220912057429031e-02 0.00000000000000000e+00 -5.26838702633645323e-03 
1.07089756662909832e-02 0.00000000000000000e+00 -4.61767977354435050e-03 
8.27313722312908624e-03 0.00000000000000000e+00 -3.74751900870077268e-03 
6.25513824943336582e-03 0.00000000000000000e+00 -2.91842811913199315e-03 
4.69104074205334894e-03 0.00000000000000000e+00 -2.25815080577903638e-03 
3.39681845190902519e-03 0.00000000000000000e+00 -1.68715695628798889e-03 
2.21707938787212185e-03 0.00000000000000000e+00 -1.12649866235332505e-03 
1.17409897952357048e-03 0.00000000000000000e+00 -6.10011684767942475e-04 
1.87746338273197012e-02 0.00000000000000000e+00 -2.43134260465049891e-03 
1.97393738833648788e-02 0.00000000000000000e+00 -3.87267308272902901e-03 
1.90721814175650282e-02 0.00000000000000000e+00 -5.02837792740081814e-03 
1.73605462981708536e-02 0.00000000000000000e+00 -5.70519479962248392e-03 
1.48849248754346266e-02 0.00000000000000000e+00 -5.68244824592775699e-03 
1.19491432928844465e-02 0.00000000000000000e+00 -4.93525860955615694e-03 
9.32093140381693407e-03 0.00000000000000000e+00 -4.06957872959033424e-03 
7.20164239064788238e-03 0.00000000000000000e+00 -3.31165785482159455e-03 
5.51879479405260540e-03 0.00000000000000000e+00 -2.66104272073847169e-03 
4.03267489351904779e-03 0.00000000000000000e+00 -1.97811571048186726e-03 
2.75089279120921447e-03 0.00000000000000000e+00 -1.36165655872203038e-03 
1.65764298621589364e-03 0.00000000000000000e+00 -8.44928304990251477e-04 
7.81849130288113565e-04 0.00000000000000000e+00 -4.21844866457008242e-04 
1.20392031517251396e-04 0.00000000000000000e+00 -1.56104034119231944e-04 
1.20392031516797332e-04 0.00000000000000000e+00 -1.56104034119676521e-04 
-2.07845841580579110e-04 0.00000000000000000e+00 -4.83975365525446947e-05 
-2.07845841582255612e-04 0.00000000000000000e+00 -4.83975365545064501e-05 
-4.83522564094494866e-05 0.00000000000000000e+00 -1.22084811042345810e-04 
-4.83522564090259430e-05 0.00000000000000000e+00 -1.22084811041251633e-04 
1.20392031519500140e-04 0.00000000000000000e+00 -1.56104034119351152e-04 
-2.07845841576891738e-04 0.00000000000000000e+00 -4.83975365531180208e-05 
-5.29887260717291984e-04 0.00000000000000000e+00 1.07846854663116466e-04 
-5.29887260724918696e-04 0.00000000000000000e+00 1.07846854662437539e-04 
-5.29887260715290222e-04 0.00000000000000000e+00 1.07846854658719159e-04 
4.56766391876415755e-04 0.00000000000000000e+00 -2.36858414418225513e-04 
4.56766391867293386e-04 0.00000000000000000e+00 -2.36858414414387925e-04 
4.56766391885568047e-04 0.00000000000000000e+00 -2.36858414415605322e-04 
3.89527734490583899e-05 0.00000000000000000e+00 8.39657099414234387e-05 
2.65034350999023992e-04 0.00000000000000000e+00 -2.21531544593841449e-04 
1.96067050341191900e-04 0.00000000000000000e+00 -2.77836320254944526e-04 
-5.26502397595721193e-05 0.00000000000000000e+00 -1.71019127575378820e-04 
-3.08340427809486179e-04 0.00000000000000000e+00 -6.55681326577595651e-06 
-4.32324355761909288e-04 0.00000000000000000e+00 1.21728242018274518e-04 
-3.59222285566569060e-04 0.00000000000000000e+00 1.60178189157112252e-04 
-1.18750725828952022e-04 0.00000000000000000e+00 1.11093620545534298e-04 
1.78180775433029451e-04 0.00000000000000000e+00 1.92598391664643136e-05 
3.92339191997663928e-04 0.00000000000000000e+00 -6.68733219436768719e-05 
4.03504583992277230e-04 0.00000000000000000e+00 -1.15988576137733389e-04 
1.21282220258855312e-04 0.00000000000000000e+00 -9.04309347501848346e-05 
-1.65173204001669519e-04 0.00000000000000000e+00 3.43898720012491231e-04 
1.88346989243566717e-04 0.00000000000000000e+00 -1.03801271400579667e-04 
2.63324088180538611e-04 0.00000000000000000e+00 -2.76163732518391490e-04 
8.32294647685377685e-05 0.00000000000000000e+00 -2.38324245492123500e-04 
-1.89792431415362407e-04 0.00000000000000000e+00 -8.93941869471694063e-05 
-3.93038661064554673e-04 0.00000000000000000e+00 6.67608971229964463e-05 
-4.20629278787438068e-04 0.00000000000000000e+00 1.53169095280931674e-04 
-2.54289082720584767e-04 0.00000000000000000e+00 1.44275619724540508e-04 
3.11340065249434718e-05 0.00000000000000000e+00 6.73953970874391979e-05 
3.03746507126173169e-04 0.00000000000000000e+00 -2.66945265166033119e-05 
4.29718986412619007e-04 0.00000000000000000e+00 -9.79219444571674617e-05 
3.04124602816620315e-04 0.00000000000000000e+00 -1.16879382933973217e-04 
-1.54598020163270128e-04 0.00000000000000000e+00 -2.19142089365604635e-05 
1.71849969154120874e-02 0.00000000000000000e+00 -1.69682614345106095e-03 
1.71849969154098843e-02 0.00000000000000000e+00 -1.69682614344710491e-03 
1.71849969154123060e-02 0.00000000000000000e+00 -1.69682614345009687e-03 
-4.83522564075025306e-05 0.00000000000000000e+00 -1.22084811046228230e-04 
1.20392031521823151e-04 0.00000000000000000e+00 -1.56104034117119538e-04 
-2.07845841585136716e-04 0.00000000000000000e+00 -4.83975365563671579e-05 
3.89527734480643934e-05 0.00000000000000000e+00 8.39657099452506724e-05 
2.65034351005747780e-04 0.00000000000000000e+00 -2.21531544595831285e-04 
1.96067050343512960e-04 0.00000000000000000e+00 -2.77836320255877049e-04 
-5.26502397553654149e-05 0.00000000000000000e+00 -1.71019127572330910e-04 
-3.08340427812759602e-04 0.00000000000000000e+00 -6.55681326636034148e-06 
-4.32324355763493524e-04 0.00000000000000000e+00 1.21728242018470542e-04 
-3.59222285566182650e-04 0.00000000000000000e+00 1.60178189156657321e-04 
-1.18750725829331276e-04 0.00000000000000000e+00 1.11093620545184751e-04 
1.78180775433071627e-04 0.00000000000000000e+00 1.92598391662434616e-05 
3.92339191997446003e-04 0.00000000000000000e+00 -6.68733219456457830e-05 
4.03504583995364929e-04 0.00000000000000000e+00 -1.15988576137919492e-04 
1.21282220262466356e-04 0.00000000000000000e+00 -9.04309347515894186e-05 
-1.65173204010154052e-04 0.00000000000000000e+00 3.43898720013203390e-04 
1.88346989245670937e-04 0.00000000000000000e+00 -1.03801271403065255e-04 
2.63324088178854194e-04 0.00000000000000000e+00 -2.76163732519281728e-04 
8.32294647668099840e-05 0.00000000000000000e+00 -2.38324245493506942e-04 
-1.89792431417699946e-04 0.00000000000000000e+00 -8.93941869456732073e-05 
-3.93038661064392476e-04 0.00000000000000000e+00 6.67608971247769231e-05 
-4.20629278785970926e-04 0.00000000000000000e+00 1.53169095281253465e-04 
-2.54289082721505472e-04 0.00000000000000000e+00 1.44275619726876963e-04 
3.11340065272372099e-05 0.00000000000000000e+00 6.73953970871117689e-05 
3.03746507124414106e-04 0.00000000000000000e+00 -2.66945265146254019e-05 
4.29718986407950541e-04 0.00000000000000000e+00 -9.79219444561059193e-05 
3.04124602816274996e-04 0.00000000000000000e+00 -1.16879382932763031e-04 
-1.54598020169527059e-04 0.00000000000000000e+00 -2.19142089347118988e-05 
1.71849969154161293e-02 0.00000000000000000e+00 -1.69682614345071964e-03 
1.94935242640411101e-02 0.00000000000000000e+00 -3.12481593062062350e-03 
1.98815830150294616e-02 0.00000000000000000e+00 -4.65606726723544109e-03 
1.83970513210124607e-02 0.00000000000000000e+00 -5.51288756732365784e-03 
1.59875320585777178e-02 0.00000000000000000e+00 -5.62478135735106771e-03 
1.33220912057373207e-02 0.00000000000000000e+00 -5.26838702633809341e-03 
1.07089756662911064e-02 0.00000000000000000e+00 -4.61767977354406514e-03 