# vtk DataFile Version 2.0

ASCII

DATASET UNSTRUCTURED_GRID

POINTS 281 double 

0.00000000000000000e+00  6.00000000000000012e-03  8.68039800000000063e-03
0.00000000000000000e+00  6.00000000000000012e-03  2.15013699999999988e-02
0.00000000000000000e+00  5.99999699999999997e-03  3.38432499999999983e-02
0.00000000000000000e+00  6.00000000000000012e-03  4.61511800000000000e-02
0.00000000000000000e+00  5.99999399999999981e-03  5.84285100000000029e-02
0.00000000000000000e+00  5.99999899999999978e-03  7.03572799999999943e-02
0.00000000000000000e+00  6.00000000000000012e-03  7.56573400000000035e-02
0.00000000000000000e+00  6.00000000000000012e-03  1.52458600000000000e-02
0.00000000000000000e+00  5.99999899999999978e-03  2.76822099999999988e-02
0.00000000000000000e+00  5.99999899999999978e-03  3.99985900000000005e-02
0.00000000000000000e+00  5.99999800000000031e-03  5.22986000000000006e-02
0.00000000000000000e+00  5.99999800000000031e-03  6.44963600000000026e-02
0.00000000000000000e+00  3.00000000000000006e-03  3.07692300000000007e-03
0.00000000000000000e+00  3.00000000000000006e-03  1.04940499999999996e-02
0.00000000000000000e+00  3.00000000000000006e-03  7.41712199999999995e-03
0.00000000000000000e+00  3.00000000000000006e-03  2.30583799999999998e-02
0.00000000000000000e+00  3.00000000000000006e-03  1.99814599999999995e-02
0.00000000000000000e+00  2.99999900000000016e-03  3.53831699999999985e-02
0.00000000000000000e+00  2.99999900000000016e-03  3.23062400000000000e-02
0.00000000000000000e+00  3.00000000000000006e-03  4.76909699999999992e-02
0.00000000000000000e+00  3.00000000000000006e-03  4.46140500000000023e-02
0.00000000000000000e+00  2.99999699999999991e-03  5.99834799999999987e-02
0.00000000000000000e+00  2.99999699999999991e-03  5.69065600000000019e-02
0.00000000000000000e+00  2.99999900000000016e-03  7.21017199999999941e-02
0.00000000000000000e+00  2.99999900000000016e-03  6.90247900000000025e-02
0.00000000000000000e+00  3.00000000000000006e-03  7.78286700000000026e-02
0.00000000000000000e+00  3.00000000000000006e-03  7.47517500000000057e-02
0.00000000000000000e+00  5.99999899999999978e-03  7.30073100000000058e-02
0.00000000000000000e+00  6.00000000000000012e-03  7.78286700000000026e-02
0.00000000000000000e+00  8.99999999999999932e-03  7.47517500000000057e-02
0.00000000000000000e+00  8.99999999999999932e-03  7.78286700000000026e-02
0.00000000000000000e+00  8.99999999999999932e-03  3.07692300000000007e-03
0.00000000000000000e+00  8.99999999999999932e-03  7.41712199999999995e-03
0.00000000000000000e+00  8.99999999999999932e-03  1.04940499999999996e-02
0.00000000000000000e+00  8.99999999999999932e-03  1.99814599999999995e-02
0.00000000000000000e+00  8.99999999999999932e-03  2.30583799999999998e-02
0.00000000000000000e+00  8.99999899999999985e-03  3.23062400000000000e-02
0.00000000000000000e+00  8.99999899999999985e-03  3.53831699999999985e-02
0.00000000000000000e+00  8.99999999999999932e-03  4.46140500000000023e-02
0.00000000000000000e+00  8.99999999999999932e-03  4.76909699999999992e-02
0.00000000000000000e+00  8.99999699999999916e-03  5.69065600000000019e-02
0.00000000000000000e+00  8.99999699999999916e-03  5.99834799999999987e-02
0.00000000000000000e+00  8.99999899999999985e-03  6.90247900000000025e-02
0.00000000000000000e+00  8.99999899999999985e-03  7.21017199999999941e-02
0.00000000000000000e+00  6.00000000000000012e-03  4.34019900000000031e-03
0.00000000000000000e+00  3.00000000000000006e-03  1.37767800000000006e-02
0.00000000000000000e+00  6.00000000000000012e-03  1.19631300000000006e-02
0.00000000000000000e+00  3.00000000000000006e-03  1.68536999999999992e-02
0.00000000000000000e+00  6.00000000000000012e-03  1.83736200000000002e-02
0.00000000000000000e+00  5.99999800000000031e-03  3.07627299999999985e-02
0.00000000000000000e+00  3.00000000000000006e-03  2.92257200000000002e-02
0.00000000000000000e+00  3.00000000000000006e-03  2.61487999999999998e-02
0.00000000000000000e+00  8.99999999999999932e-03  2.92257200000000002e-02
0.00000000000000000e+00  6.00000000000000012e-03  4.30748800000000029e-02
0.00000000000000000e+00  2.99999900000000016e-03  4.15377600000000000e-02
0.00000000000000000e+00  2.99999900000000016e-03  3.84608300000000014e-02
0.00000000000000000e+00  8.99999899999999985e-03  4.15377600000000000e-02
0.00000000000000000e+00  5.99999599999999963e-03  5.53635499999999975e-02
0.00000000000000000e+00  2.99999900000000016e-03  5.38416099999999981e-02
0.00000000000000000e+00  2.99999900000000016e-03  5.07646799999999995e-02
0.00000000000000000e+00  8.99999899999999985e-03  5.38416099999999981e-02
0.00000000000000000e+00  5.99999800000000031e-03  6.74268199999999984e-02
0.00000000000000000e+00  2.99999900000000016e-03  6.60943300000000067e-02
0.00000000000000000e+00  2.99999900000000016e-03  6.30174099999999959e-02
0.00000000000000000e+00  8.99999899999999985e-03  6.60943300000000067e-02
0.00000000000000000e+00  5.99999899999999978e-03  4.92248900000000003e-02
0.00000000000000000e+00  8.99999999999999932e-03  1.68536999999999992e-02
0.00000000000000000e+00  5.99999899999999978e-03  2.45917899999999988e-02
0.00000000000000000e+00  8.99999999999999932e-03  2.61487999999999998e-02
0.00000000000000000e+00  8.99999999999999932e-03  1.37767800000000006e-02
0.00000000000000000e+00  5.99999800000000031e-03  3.69209200000000029e-02
0.00000000000000000e+00  8.99999899999999985e-03  3.84608300000000014e-02
0.00000000000000000e+00  8.99999899999999985e-03  5.07646799999999995e-02
0.00000000000000000e+00  5.99999599999999963e-03  6.14624299999999985e-02
0.00000000000000000e+00  8.99999899999999985e-03  6.30174099999999959e-02
1.20000000000000002e-02  1.20000000000000002e-02  8.00000000000000017e-02
0.00000000000000000e+00  0.00000000000000000e+00  8.00000000000000017e-02
1.20000000000000002e-02  6.00000000000000012e-03  0.00000000000000000e+00
1.20000000000000002e-02  3.00000000000000006e-03  0.00000000000000000e+00
1.20000000000000002e-02  8.99999999999999932e-03  0.00000000000000000e+00
1.20000000000000002e-02  0.00000000000000000e+00  8.00000000000000017e-02
1.20000000000000002e-02  0.00000000000000000e+00  0.00000000000000000e+00
0.00000000000000000e+00  1.20000000000000002e-02  0.00000000000000000e+00
1.20000000000000002e-02  5.99999899999999978e-03  8.68039699999999942e-03
1.20000000000000002e-02  5.99999899999999978e-03  1.52458600000000000e-02
1.20000000000000002e-02  5.99999899999999978e-03  2.15013699999999988e-02
1.20000000000000002e-02  6.00000000000000012e-03  2.76822099999999988e-02
1.20000000000000002e-02  5.99999899999999978e-03  3.38432399999999967e-02
1.20000000000000002e-02  5.99999800000000031e-03  3.99985900000000005e-02
1.20000000000000002e-02  5.99999699999999997e-03  4.61511800000000000e-02
1.20000000000000002e-02  5.99999300000000034e-03  5.22986100000000023e-02
1.20000000000000002e-02  5.99998599999999969e-03  5.84285400000000010e-02
1.20000000000000002e-02  5.99997800000000043e-03  6.44963800000000059e-02
1.20000000000000002e-02  5.99997500000000027e-03  7.03572999999999976e-02
1.20000000000000002e-02  5.99997500000000027e-03  7.56573600000000068e-02
1.20000000000000002e-02  3.00000000000000006e-03  3.07692300000000007e-03
1.20000000000000002e-02  3.00000000000000006e-03  7.41712099999999961e-03
1.20000000000000002e-02  3.00000000000000006e-03  1.04940399999999996e-02
1.20000000000000002e-02  2.99999900000000016e-03  1.37767800000000006e-02
1.20000000000000002e-02  2.99999900000000016e-03  1.68536999999999992e-02
1.20000000000000002e-02  5.99999899999999978e-03  1.19631300000000006e-02
1.20000000000000002e-02  3.00000000000000006e-03  1.99814500000000013e-02
1.20000000000000002e-02  3.00000000000000006e-03  2.30583799999999998e-02
1.20000000000000002e-02  5.99999899999999978e-03  1.83736099999999986e-02
1.20000000000000002e-02  3.00000000000000006e-03  2.61487999999999998e-02
1.20000000000000002e-02  3.00000000000000006e-03  2.92257200000000002e-02
1.20000000000000002e-02  5.99999899999999978e-03  2.45917899999999988e-02
1.20000000000000002e-02  3.00000000000000006e-03  3.23062299999999983e-02
1.20000000000000002e-02  3.00000000000000006e-03  3.53831599999999968e-02
1.20000000000000002e-02  5.99999899999999978e-03  3.07627200000000003e-02
1.20000000000000002e-02  2.99999900000000016e-03  3.84608300000000014e-02
1.20000000000000002e-02  2.99999900000000016e-03  4.15377499999999983e-02
1.20000000000000002e-02  5.99999899999999978e-03  3.69209100000000012e-02
1.20000000000000002e-02  2.99999799999999981e-03  4.46140500000000023e-02
1.20000000000000002e-02  2.99999799999999981e-03  4.76909800000000009e-02
1.20000000000000002e-02  5.99999800000000031e-03  4.30748800000000029e-02
1.20000000000000002e-02  2.99999699999999991e-03  5.07646900000000012e-02
1.20000000000000002e-02  2.99999699999999991e-03  5.38416099999999981e-02
1.20000000000000002e-02  5.99999500000000015e-03  4.92249000000000020e-02
1.20000000000000002e-02  2.99999299999999984e-03  5.69065799999999983e-02
1.20000000000000002e-02  2.99999299999999984e-03  5.99835000000000021e-02
1.20000000000000002e-02  5.99999000000000018e-03  5.53635800000000025e-02
1.20000000000000002e-02  2.99998900000000021e-03  6.30174200000000045e-02
1.20000000000000002e-02  2.99998900000000021e-03  6.60943499999999962e-02
1.20000000000000002e-02  5.99998200000000006e-03  6.14624599999999965e-02
1.20000000000000002e-02  2.99998799999999987e-03  6.90248100000000059e-02
1.20000000000000002e-02  2.99998799999999987e-03  7.21017300000000028e-02
1.20000000000000002e-02  5.99997700000000009e-03  6.74268400000000018e-02
1.20000000000000002e-02  2.99998699999999997e-03  7.47517600000000004e-02
1.20000000000000002e-02  2.99998699999999997e-03  7.78286799999999973e-02
1.20000000000000002e-02  5.99998700000000003e-03  7.78286799999999973e-02
1.20000000000000002e-02  5.99997500000000027e-03  7.30073299999999953e-02
1.20000000000000002e-02  8.99998699999999922e-03  7.78286799999999973e-02
1.20000000000000002e-02  8.99999999999999932e-03  3.07692300000000007e-03
[...]
POINT_DATA 281

SCALARS Rank unsigned_int
LOOKUP_TABLE default
0 0 0 0 0 0 0 0 0 0 0 0 0 0 0 0 0 0 0 0 0 0 0 0 0 0 0 0 0 0 0 0 0 0 0 0 0 0 0 0 0 0 0 0 0 0 0 0 0 0 0 0 0 0 0 0 0 0 0 0 0 0 0 0 0 0 0 0 0 0 0 0 0 0 0 0 0 0 0 0 0 0 0 0 0 0 0 0 0 0 0 0 0 0 0 0 0 0 0 0 0 0 0 0 0 0 0 0 0 0 0 0 0 0 0 0 0 0 0 0 0 0 0 0 0 0 0 0 0 0 0 0 0 0 0 0 0 0 0 0 0 0 0 0 0 0 0 0 0 0 0 0 0 0 0 0 0 0 0 0 0 0 0 0 0 0 0 0 0 0 0 0 0 0 0 0 0 0 0 0 0 0 0 0 0 0 0 0 0 0 0 0 0 0 0 0 0 0 0 0 0 0 0 0 0 0 0 0 0 0 0 0 0 0 0 0 0 0 0 0 0 0 0 0 0 0 0 0 0 0 0 0 0 0 0 0 0 0 0 0 0 0 0 0 0 0 0 0 0 0 0 0 0 0 0 0 0 0 0 0 0 0 0 0 0 0 0 0 0 0 0 0 0 0 0 0 0 0 0 0 0 

VECTORS Forces0 double
1.72348725735084231e-02 0.00000000000000000e+00 -5.16456431846519255e-03 
1.39680680138677508e-02 0.00000000000000000e+00 -7.66180716168638355e-03 
9.73836758150270140e-03 0.00000000000000000e+00 -7.81946983206201901e-03 
7.56342866379367072e-03 0.00000000000000000e+00 -7.41804369556990206e-03 
5.74767715138739879e-03 0.00000000000000000e+00 -6.03921178699708735e-03 
3.64408800850369186e-03 0.00000000000000000e+00 -3.87345064826445954e-03 
2.66630542937153952e-03 0.00000000000000000e+00 -2.81482434052019326e-03 
1.60006472054156912e-02 0.00000000000000000e+00 -6.71371228490544314e-03 
1.17478561389925771e-02 0.00000000000000000e+00 -7.98960010964080460e-03 
8.41144818035181353e-03 0.00000000000000000e+00 -7.62483444775591615e-03 
6.79367877743654140e-03 0.00000000000000000e+00 -6.97522408423838832e-03 
4.67257444271051026e-03 0.00000000000000000e+00 -4.95555640089923640e-03 
1.68241319280641489e-02 0.00000000000000000e+00 -3.63452844526889396e-03 
1.72376357718922943e-02 0.00000000000000000e+00 -5.72057092031461566e-03 
1.72659642834501297e-02 0.00000000000000000e+00 -4.80041835549648195e-03 
1.32488802398969870e-02 0.00000000000000000e+00 -7.69298572792253936e-03 
1.46597699431700052e-02 0.00000000000000000e+00 -7.59646636667209163e-03 
9.47567157904131464e-03 0.00000000000000000e+00 -7.88127754823145926e-03 
1.00940283294707316e-02 0.00000000000000000e+00 -7.79823682051688886e-03 
7.29687816653927252e-03 0.00000000000000000e+00 -7.25845816835585765e-03 
7.87399124848356391e-03 0.00000000000000000e+00 -7.60215597133526155e-03 
5.55272760679315167e-03 0.00000000000000000e+00 -5.85429990169568804e-03 
5.94300237967401203e-03 0.00000000000000000e+00 -6.21748857932681153e-03 
3.28684347024855474e-03 0.00000000000000000e+00 -3.49103665718809809e-03 
3.93364050163199329e-03 0.00000000000000000e+00 -4.18175087793379221e-03 
2.21273687747289977e-03 0.00000000000000000e+00 -2.30801759542412612e-03 
2.81856710105944002e-03 0.00000000000000000e+00 -2.98301185492112981e-03 
3.11785742810557955e-03 0.00000000000000000e+00 -3.30894368340195174e-03 
2.21273687748049829e-03 0.00000000000000000e+00 -2.30801759541684939e-03 
2.81856710106019462e-03 0.00000000000000000e+00 -2.98301185491550843e-03 
2.21273687746974734e-03 0.00000000000000000e+00 -2.30801759542348167e-03 
1.68241319280722189e-02 0.00000000000000000e+00 -3.63452844526390272e-03 
1.72659642834488460e-02 0.00000000000000000e+00 -4.80041835549075650e-03 
1.72376357718959997e-02 0.00000000000000000e+00 -5.72057092031144371e-03 
1.46597699431691760e-02 0.00000000000000000e+00 -7.59646636667779367e-03 
1.32488802398916961e-02 0.00000000000000000e+00 -7.69298572792630024e-03 
1.00940283294673454e-02 0.00000000000000000e+00 -7.79823682051517409e-03 
9.47567157904116893e-03 0.00000000000000000e+00 -7.88127754822989454e-03 
7.87399124848508873e-03 0.00000000000000000e+00 -7.60215597133584095e-03 
7.29687816654257023e-03 0.00000000000000000e+00 -7.25845816835916837e-03 
5.94300237967050528e-03 0.00000000000000000e+00 -6.21748857932866682e-03 
5.55272760678734122e-03 0.00000000000000000e+00 -5.85429990169650683e-03 
3.93364050164300184e-03 0.00000000000000000e+00 -4.18175087793219019e-03 
3.28684347025935729e-03 0.00000000000000000e+00 -3.49103665719442766e-03 
1.72637704486021566e-02 0.00000000000000000e+00 -3.99555128835390582e-03 
1.65546811681716831e-02 0.00000000000000000e+00 -6.47293281918470773e-03 
1.71518079617242053e-02 0.00000000000000000e+00 -6.14197108480786774e-03 
1.54870008923877738e-02 0.00000000000000000e+00 -7.01110236831424365e-03 
1.50888219853707786e-02 0.00000000000000000e+00 -7.31482854124689691e-03 
1.05775467377923864e-02 0.00000000000000000e+00 -7.84373608314342316e-03 
1.11745206300379891e-02 0.00000000000000000e+00 -7.94449526112022200e-03 
1.21632941382563194e-02 0.00000000000000000e+00 -7.87571065772526072e-03 
1.11745206300397238e-02 0.00000000000000000e+00 -7.94449526112230367e-03 
8.07032927431578125e-03 0.00000000000000000e+00 -7.65346464458572899e-03 
8.20581171870749491e-03 0.00000000000000000e+00 -7.61965644103116020e-03 
8.72737931846468556e-03 0.00000000000000000e+00 -7.70413020640375954e-03 
8.20581171870670562e-03 0.00000000000000000e+00 -7.61965644103030585e-03 
6.18878500341521910e-03 0.00000000000000000e+00 -6.44027407906176425e-03 
6.48643315537206569e-03 0.00000000000000000e+00 -6.70821619212109369e-03 
6.96619952503206141e-03 0.00000000000000000e+00 -7.09062254782984961e-03 
6.48643315537569300e-03 0.00000000000000000e+00 -6.70821619212249882e-03 
4.23407389332508110e-03 0.00000000000000000e+00 -4.49952177734805770e-03 
4.42689676600469331e-03 0.00000000000000000e+00 -4.70085480556862306e-03 
4.94131738362848204e-03 0.00000000000000000e+00 -5.23267402224674924e-03 
4.42689676600321099e-03 0.00000000000000000e+00 -4.70085480556885378e-03 
7.10130507559253357e-03 0.00000000000000000e+00 -7.15225846548949665e-03 
1.54870008923883012e-02 0.00000000000000000e+00 -7.01110236831659159e-03 
1.26434892702803319e-02 0.00000000000000000e+00 -7.75786412094951923e-03 
1.21632941382522550e-02 0.00000000000000000e+00 -7.87571065772738575e-03 
1.65546811681650426e-02 0.00000000000000000e+00 -6.47293281918749196e-03 
9.12438223840546236e-03 0.00000000000000000e+00 -7.82848956370253528e-03 
8.72737931846125255e-03 0.00000000000000000e+00 -7.70413020640675020e-03 
6.96619952502534803e-03 0.00000000000000000e+00 -7.09062254782992160e-03 
5.25808233814073055e-03 0.00000000000000000e+00 -5.55714845796002367e-03 
4.94131738362879082e-03 0.00000000000000000e+00 -5.23267402224607270e-03 
-8.56244347737928442e-04 0.00000000000000000e+00 7.64642458710602002e-04 
1.78574689692873653e-03 0.00000000000000000e+00 -1.81328370735120425e-03 
-2.03608945128055957e-04 0.00000000000000000e+00 1.13998732610793457e-03 
-2.03608945124818963e-04 0.00000000000000000e+00 1.13998732610387141e-03 
-2.03608945131119478e-04 0.00000000000000000e+00 1.13998732611222627e-03 
-8.56244347738071990e-04 0.00000000000000000e+00 7.64642458714389988e-04 
-2.03608945128633620e-04 0.00000000000000000e+00 1.13998732610364156e-03 
1.52713853537263609e-02 0.00000000000000000e+00 -2.77938035383276530e-03 
3.07024663841310949e-04 0.00000000000000000e+00 5.34103082585399286e-05 
2.81063688380358320e-04 0.00000000000000000e+00 -3.00183886769569649e-04 
-2.76523561153752787e-06 0.00000000000000000e+00 -3.03580813997400751e-04 
-2.81321791327621064e-04 0.00000000000000000e+00 -1.31581156498509978e-04 
-3.81410212785614103e-04 0.00000000000000000e+00 3.14502594160885645e-05 
-2.66009224895581372e-04 0.00000000000000000e+00 6.47188114206424683e-05 
-2.06551736346692627e-05 0.00000000000000000e+00 -3.26471739764816189e-05 
2.30403016441791677e-04 0.00000000000000000e+00 -1.83548731033497014e-04 
3.97758263220890189e-04 0.00000000000000000e+00 -3.08601037515958963e-04 
4.18116574729643928e-04 0.00000000000000000e+00 -3.39700033091644242e-04 
2.12964597359065482e-04 0.00000000000000000e+00 -1.87521665473824466e-04 
-2.51129143064574673e-04 0.00000000000000000e+00 2.07883735518298138e-04 
5.88380126036490795e-06 0.00000000000000000e+00 6.77155300402196964e-04 
2.63621756961923226e-04 0.00000000000000000e+00 1.68822093007538632e-04 
3.41821211422193682e-04 0.00000000000000000e+00 -8.54235381270819423e-05 
3.21109344029191018e-04 0.00000000000000000e+00 -2.56054707504813550e-04 
2.22054170484893684e-04 0.00000000000000000e+00 -3.27855300298740787e-04 
3.45365467900111977e-04 0.00000000000000000e+00 -1.74483446896332429e-04 
7.58503241653916602e-05 0.00000000000000000e+00 -3.26508494462888262e-04 
-8.23556213210651337e-05 0.00000000000000000e+00 -2.69292285047713700e-04 
1.54543824684818902e-04 0.00000000000000000e+00 -3.35501065957218405e-04 
-2.24366014443180009e-04 0.00000000000000000e+00 -1.80261622631836443e-04 
-3.27018764497005081e-04 0.00000000000000000e+00 -8.35425218369308792e-05 
-1.56740792658558223e-04 0.00000000000000000e+00 -2.27340360317505001e-04 
-3.77823064850146796e-04 0.00000000000000000e+00 1.23138762279102794e-07 
-3.70727969596222813e-04 0.00000000000000000e+00 5.35751454538480640e-05 
-3.59574870023468400e-04 0.00000000000000000e+00 -3.86622965098810912e-05 
-3.11740369566936210e-04 0.00000000000000000e+00 7.03307842770784604e-05 
-2.11715030970536155e-04 0.00000000000000000e+00 4.99194676868041615e-05 
-3.47121902225907739e-04 0.00000000000000000e+00 6.68793610418781106e-05 
-8.67156777075091289e-05 0.00000000000000000e+00 -3.41810192250903411e-07 
4.56926391671621591e-05 0.00000000000000000e+00 -6.87477334425068399e-05 
-1.51152222515649860e-04 0.00000000000000000e+00 2.79470317978470993e-05 
1.72736126288037259e-04 0.00000000000000000e+00 -1.45608990147889033e-04 
2.82636061406766020e-04 0.00000000000000000e+00 -2.19920004907720492e-04 
1.10516401498018938e-04 0.00000000000000000e+00 -1.06544434256185293e-04 
3.66997334355785988e-04 0.00000000000000000e+00 -2.83242458380323617e-04 
4.19911530550360506e-04 0.00000000000000000e+00 -3.28865066540657549e-04 
3.28013846160295143e-04 0.00000000000000000e+00 -2.52945941555469684e-04 
4.30711799916471132e-04 0.00000000000000000e+00 -3.45262336685966367e-04 
3.88768345618033381e-04 0.00000000000000000e+00 -3.21157146255941685e-04 
4.30961420171992356e-04 0.00000000000000000e+00 -3.40991737821038710e-04 
2.84887078311702336e-04 0.00000000000000000e+00 -2.44424752436935380e-04 
9.28949419040152688e-05 0.00000000000000000e+00 -8.90300125197089902e-05 
3.50391017573982878e-04 0.00000000000000000e+00 -2.93937688375296951e-04 
-1.50192006892418766e-04 0.00000000000000000e+00 1.19000097869825368e-04 
-5.28580756284193105e-04 0.00000000000000000e+00 4.58715293037810056e-04 
-5.28580756277845535e-04 0.00000000000000000e+00 4.58715293045713240e-04 
1.83005916068044636e-05 0.00000000000000000e+00 -2.62508072555419919e-05 
-5.28580756279545998e-04 0.00000000000000000e+00 4.58715293037252343e-04 
5.88380124775520300e-06 0.00000000000000000e+00 6.77155300408430693e-04 
3.41821211428697160e-04 0.00000000000000000e+00 -8.54235381235504790e-05 
2.63621756965304202e-04 0.00000000000000000e+00 1.68822093009940791e-04 
2.22054170482123331e-04 0.00000000000000000e+00 -3.27855300294405713e-04 
3.21109344019090590e-04 0.00000000000000000e+00 -2.56054707499132330e-04 
-8.23556213231147095e-05 0.00000000000000000e+00 -2.69292285045218734e-04 
7.58503241637003048e-05 0.00000000000000000e+00 -3.26508494461806228e-04 
-3.27018764494565193e-04 0.00000000000000000e+00 -8.35425218394293147e-05 
-2.24366014441446153e-04 0.00000000000000000e+00 -1.80261622632343850e-04 
-3.70727969596736291e-04 0.00000000000000000e+00 5.35751454547045837e-05 
-3.77823064849605562e-04 0.00000000000000000e+00 1.23138764414547393e-07 
-2.11715030967968331e-04 0.00000000000000000e+00 4.99194676899249290e-05 
-3.11740369564846302e-04 0.00000000000000000e+00 7.03307842794988333e-05 
4.56926391715206518e-05 0.00000000000000000e+00 -6.87477334394094911e-05 
-8.67156777059834396e-05 0.00000000000000000e+00 -3.41810191933882696e-07 
2.82636061413110338e-04 0.00000000000000000e+00 -2.19920004906345290e-04 
1.72736126288273182e-04 0.00000000000000000e+00 -1.45608990146076247e-04 
4.19911530549101747e-04 0.00000000000000000e+00 -3.28865066543670872e-04 
3.66997334356289600e-04 0.00000000000000000e+00 -2.83242458381649379e-04 
3.88768345612052597e-04 0.00000000000000000e+00 -3.21157146255460083e-04 
4.30711799915093599e-04 0.00000000000000000e+00 -3.45262336687931592e-04 
9.28949418897641901e-05 0.00000000000000000e+00 -8.90300125183253314e-05 
2.84887078309477770e-04 0.00000000000000000e+00 -2.44424752435635855e-04 
9.53051146638450250e-05 0.00000000000000000e+00 5.11858065561349228e-04 
-1.50192006909010637e-04 0.00000000000000000e+00 1.19000097874598460e-04 
1.78574689692784640e-03 0.00000000000000000e+00 -1.81328370734400298e-03 
1.73158617588558654e-02 0.00000000000000000e+00 -4.46136513273702028e-03 
1.70688914403530796e-02 0.00000000000000000e+00 -6.21663162333416057e-03 
1.50673897737577320e-02 0.00000000000000000e+00 -7.33237969182021221e-03 
1.26352400354355875e-02 0.00000000000000000e+00 -7.75929029164361145e-03 
1.05752289457333899e-02 0.00000000000000000e+00 -7.84339627883542771e-03 
9.12379747469059532e-03 0.00000000000000000e+00 -7.82831153776713563e-03 
8.07016427386394487e-03 0.00000000000000000e+00 -7.65350584084991542e-03 
7.10069699039361790e-03 0.00000000000000000e+00 -7.15196133277393870e-03 
6.18500814584391819e-03 0.00000000000000000e+00 -6.43685510277922611e-03 
5.24205724248216504e-03 0.00000000000000000e+00 -5.54081658876726547e-03 
4.19301405159627251e-03 0.00000000000000000e+00 -4.45638931797515993e-03 
2.97021237674714505e-03 0.00000000000000000e+00 -3.14886358267577786e-03 
1.68241319280800633e-02 0.00000000000000000e+00 -3.63452844526452419e-03 
1.72309983084872817e-02 0.00000000000000000e+00 -5.33023827852763515e-03 
1.59515064199572433e-02 0.00000000000000000e+00 -6.73766565284805719e-03 
1.39501724541707048e-02 0.00000000000000000e+00 -7.66243675956734642e-03 
1.17449452248786553e-02 0.00000000000000000e+00 -7.99007426199771151e-03 
9.73780916220714880e-03 0.00000000000000000e+00 -7.81956835384850849e-03 
8.41120993972838300e-03 0.00000000000000000e+00 -7.62479614005873250e-03 
7.56290888712102087e-03 0.00000000000000000e+00 -7.41772614251887293e-03 
6.79206450044842099e-03 0.00000000000000000e+00 -6.97388927639912542e-03 
5.74378666696143993e-03 0.00000000000000000e+00 -6.03562582812898311e-03 
4.65275092838827401e-03 0.00000000000000000e+00 -4.93506032570476070e-03 
3.55611243869110531e-03 0.00000000000000000e+00 -3.77952737040161994e-03 
2.40917828637165609e-03 0.00000000000000000e+00 -2.52893260768037543e-03 
1.03321649020997027e-03 0.00000000000000000e+00 -1.13457822262950469e-03 
1.03321649020418670e-03 0.00000000000000000e+00 -1.13457822262296283e-03 
-1.61485695273083115e-04 0.00000000000000000e+00 6.77121724855643699e-05 
-1.61485695268450644e-04 0.00000000000000000e+00 6.77121724836193112e-05 
4.20842969876501966e-04 0.00000000000000000e+00 -5.35965904587729709e-04 
4.20842969875517619e-04 0.00000000000000000e+00 -5.35965904589874695e-04 
1.03321649020988939e-03 0.00000000000000000e+00 -1.13457822262148550e-03 
-1.61485695274690553e-04 0.00000000000000000e+00 6.77121724837884467e-05 
-8.56244347743065608e-04 0.00000000000000000e+00 7.64642458709138763e-04 
-8.56244347739936818e-04 0.00000000000000000e+00 7.64642458706752434e-04 
-8.56244347742817109e-04 0.00000000000000000e+00 7.64642458709573962e-04 
1.78574689692602884e-03 0.00000000000000000e+00 -1.81328370734276092e-03 
1.78574689691989139e-03 0.00000000000000000e+00 -1.81328370734226219e-03 
1.78574689692516603e-03 0.00000000000000000e+00 -1.81328370734727424e-03 
2.04873002060356932e-04 0.00000000000000000e+00 2.99301480875084245e-04 
3.42983078431776853e-04 0.00000000000000000e+00 -1.92362251597274846e-04 
1.50388594640742622e-04 0.00000000000000000e+00 -3.35442074565500670e-04 
-1.57832954699577344e-04 0.00000000000000000e+00 -2.26652927304320148e-04 
-3.59682913721825039e-04 0.00000000000000000e+00 -3.84839084564351228e-05 
-3.47080102207897030e-04 0.00000000000000000e+00 6.68912871539892063e-05 
-1.51068741792449051e-04 0.00000000000000000e+00 2.79132920993114086e-05 
1.10759982835215504e-04 0.00000000000000000e+00 -1.06692034377875141e-04 
3.28594658151571523e-04 0.00000000000000000e+00 -2.53382062455904727e-04 
4.31242150807626724e-04 0.00000000000000000e+00 -3.41410880801627271e-04 
3.41061918399369283e-04 0.00000000000000000e+00 -2.87064202924434758e-04 
-5.84552206786839533e-05 0.00000000000000000e+00 3.93980947990912026e-05 
5.88380124545669440e-06 0.00000000000000000e+00 6.77155300408402937e-04 
3.20854831554542158e-04 0.00000000000000000e+00 7.89023516674224073e-06 
2.76512796550286097e-04 0.00000000000000000e+00 -3.03397394331831032e-04 
-4.69107142263925127e-06 0.00000000000000000e+00 -3.02878009758983412e-04 
-2.81660300069240381e-04 0.00000000000000000e+00 -1.31261087935382313e-04 
-3.81403280077243997e-04 0.00000000000000000e+00 3.15010681109428116e-05 
-2.65963079314197708e-04 0.00000000000000000e+00 6.47093198570416572e-05 
-2.05398356175705006e-05 0.00000000000000000e+00 -3.27068394980778261e-05 
2.30727855399136820e-04 0.00000000000000000e+00 -1.83768408645265121e-04 
3.98330781793112686e-04 0.00000000000000000e+00 -3.09094951462583680e-04 
4.16521730310755493e-04 0.00000000000000000e+00 -3.38792725323631050e-04 
1.87373651001200331e-04 0.00000000000000000e+00 -1.66829717129965069e-04 
-4.06519710744840466e-04 0.00000000000000000e+00 3.47314339642833540e-04 
1.52713853537229886e-02 0.00000000000000000e+00 -2.77938035383960835e-03 
1.52713853537215487e-02 0.00000000000000000e+00 -2.77938035384129927e-03 
1.52713853537182285e-02 0.00000000000000000e+00 -2.77938035384222562e-03 
4.20842969876612555e-04 0.00000000000000000e+00 -5.35965904589999595e-04 
1.03321649020378077e-03 0.00000000000000000e+00 -1.13457822262174658e-03 
-1.61485695276663476e-04 0.00000000000000000e+00 6.77121724836887001e-05 
2.04873002054205603e-04 0.00000000000000000e+00 2.99301480877004150e-04 
3.42983078428206792e-04 0.00000000000000000e+00 -1.92362251593181766e-04 
1.50388594634475066e-04 0.00000000000000000e+00 -3.35442074563232519e-04 
-1.57832954697955378e-04 0.00000000000000000e+00 -2.26652927304387802e-04 
-3.59682913722688064e-04 0.00000000000000000e+00 -3.84839084576784859e-05 
-3.47080102206923850e-04 0.00000000000000000e+00 6.68912871563336850e-05 
-1.51068741791026144e-04 0.00000000000000000e+00 2.79132921000204768e-05 
1.10759982835583048e-04 0.00000000000000000e+00 -1.06692034377410669e-04 
3.28594658152211961e-04 0.00000000000000000e+00 -2.53382062452774202e-04 
4.31242150808328094e-04 0.00000000000000000e+00 -3.41410880801541619e-04 
3.41061918394425809e-04 0.00000000000000000e+00 -2.87064202928953279e-04 
-5.84552206783987811e-05 0.00000000000000000e+00 3.93980948000240502e-05 
5.88380124614537962e-06 0.00000000000000000e+00 6.77155300405080942e-04 
3.20854831554673997e-04 0.00000000000000000e+00 7.89023516481626399e-06 
2.76512796549992928e-04 0.00000000000000000e+00 -3.03397394331647152e-04 
-4.69107142627002751e-06 0.00000000000000000e+00 -3.02878009761444118e-04 
-2.81660300068302762e-04 0.00000000000000000e+00 -1.31261087937219385e-04 
-3.81403280077866763e-04 0.00000000000000000e+00 3.15010681108226820e-05 
-2.65963079313356800e-04 0.00000000000000000e+00 6.47093198554804061e-05 
-2.05398356180167582e-05 0.00000000000000000e+00 -3.27068394987005919e-05 
2.30727855399965801e-04 0.00000000000000000e+00 -1.83768408646913976e-04 
3.98330781791544062e-04 0.00000000000000000e+00 -3.09094951463799613e-04 
4.16521730309490554e-04 0.00000000000000000e+00 -3.38792725322278074e-04 
1.87373651000239348e-04 0.00000000000000000e+00 -1.66829717128930306e-04 
-4.06519710744041301e-04 0.00000000000000000e+00 3.47314339643710660e-04 
1.52713853537230493e-02 0.00000000000000000e+00 -2.77938035384412514e-03 
1.73158617588588283e-02 0.00000000000000000e+00 -4.46136513273783473e-03 
1.70688914403541170e-02 0.00000000000000000e+00 -6.21663162333096087e-03 
1.50673897737562939e-02 0.00000000000000000e+00 -7.33237969182130855e-03 
1.26352400354392668e-02 0.00000000000000000e+00 -7.75929029164560118e-03 
1.05752289457364465e-02 0.00000000000000000e+00 -7.84339627883760653e-03 
9.12379747469069767e-03 0.00000000000000000e+00 -7.82831153776781044e-03 