# vtk DataFile Version 2.0

ASCII

DATASET UNSTRUCTURED_GRID

POINTS 281 double 

0.00000000000000000e+00  6.00000000000000012e-03  8.68039800000000063e-03
0.00000000000000000e+00  6.00000000000000012e-03  2.15013699999999988e-02
0.00000000000000000e+00  5.99999699999999997e-03  3.38432499999999983e-02
0.00000000000000000e+00  6.00000000000000012e-03  4.61511800000000000e-02
0.00000000000000000e+00  5.99999399999999981e-03  5.84285100000000029e-02
0.00000000000000000e+00  5.99999899999999978e-03  7.03572799999999943e-02
0.00000000000000000e+00  6.00000000000000012e-03  7.56573400000000035e-02
0.00000000000000000e+00  6.00000000000000012e-03  1.52458600000000000e-02
0.00000000000000000e+00  5.99999899999999978e-03  2.76822099999999988e-02
0.00000000000000000e+00  5.99999899999999978e-03  3.99985900000000005e-02
0.00000000000000000e+00  5.99999800000000031e-03  5.22986000000000006e-02
0.00000000000000000e+00  5.99999800000000031e-03  6.44963600000000026e-02
0.00000000000000000e+00  3.00000000000000006e-03  3.07692300000000007e-03
0.00000000000000000e+00  3.00000000000000006e-03  1.04940499999999996e-02
0.00000000000000000e+00  3.00000000000000006e-03  7.41712199999999995e-03
0.00000000000000000e+00  3.00000000000000006e-03  2.30583799999999998e-02
0.00000000000000000e+00  3.00000000000000006e-03  1.99814599999999995e-02
0.00000000000000000e+00  2.99999900000000016e-03  3.53831699999999985e-02
0.00000000000000000e+00  2.99999900000000016e-03  3.23062400000000000e-02
0.00000000000000000e+00  3.00000000000000006e-03  4.76909699999999992e-02
0.00000000000000000e+00  3.00000000000000006e-03  4.46140500000000023e-02
0.00000000000000000e+00  2.99999699999999991e-03  5.99834799999999987e-02
0.00000000000000000e+00  2.99999699999999991e-03  5.69065600000000019e-02
0.00000000000000000e+00  2.99999900000000016e-03  7.21017199999999941e-02
0.00000000000000000e+00  2.99999900000000016e-03  6.90247900000000025e-02
0.00000000000000000e+00  3.00000000000000006e-03  7.78286700000000026e-02
0.00000000000000000e+00  3.00000000000000006e-03  7.47517500000000057e-02
0.00000000000000000e+00  5.99999899999999978e-03  7.30073100000000058e-02
0.00000000000000000e+00  6.00000000000000012e-03  7.78286700000000026e-02
0.00000000000000000e+00  8.99999999999999932e-03  7.47517500000000057e-02
0.00000000000000000e+00  8.99999999999999932e-03  7.78286700000000026e-02
0.00000000000000000e+00  8.99999999999999932e-03  3.07692300000000007e-03
0.00000000000000000e+00  8.99999999999999932e-03  7.41712199999999995e-03
0.00000000000000000e+00  8.99999999999999932e-03  1.04940499999999996e-02
0.00000000000000000e+00  8.99999999999999932e-03  1.99814599999999995e-02
0.00000000000000000e+00  8.99999999999999932e-03  2.30583799999999998e-02
0.00000000000000000e+00  8.99999899999999985e-03  3.23062400000000000e-02
0.00000000000000000e+00  8.99999899999999985e-03  3.53831699999999985e-02
0.00000000000000000e+00  8.99999999999999932e-03  4.46140500000000023e-02
0.00000000000000000e+00  8.99999999999999932e-03  4.76909699999999992e-02
0.00000000000000000e+00  8.99999699999999916e-03  5.69065600000000019e-02
0.00000000000000000e+00  8.99999699999999916e-03  5.99834799999999987e-02
0.00000000000000000e+00  8.99999899999999985e-03  6.90247900000000025e-02
0.00000000000000000e+00  8.99999899999999985e-03  7.21017199999999941e-02
0.00000000000000000e+00  6.00000000000000012e-03  4.34019900000000031e-03
0.00000000000000000e+00  3.00000000000000006e-03  1.37767800000000006e-02
0.00000000000000000e+00  6.00000000000000012e-03  1.19631300000000006e-02
0.00000000000000000e+00  3.00000000000000006e-03  1.68536999999999992e-02
0.00000000000000000e+00  6.00000000000000012e-03  1.83736200000000002e-02
0.00000000000000000e+00  5.99999800000000031e-03  3.07627299999999985e-02
0.00000000000000000e+00  3.00000000000000006e-03  2.92257200000000002e-02
0.00000000000000000e+00  3.00000000000000006e-03  2.61487999999999998e-02
0.00000000000000000e+00  8.99999999999999932e-03  2.92257200000000002e-02
0.00000000000000000e+00  6.00000000000000012e-03  4.30748800000000029e-02
0.00000000000000000e+00  2.99999900000000016e-03  4.15377600000000000e-02
0.00000000000000000e+00  2.99999900000000016e-03  3.84608300000000014e-02
0.00000000000000000e+00  8.99999899999999985e-03  4.15377600000000000e-02
0.00000000000000000e+00  5.99999599999999963e-03  5.53635499999999975e-02
0.00000000000000000e+00  2.99999900000000016e-03  5.38416099999999981e-02
0.00000000000000000e+00  2.99999900000000016e-03  5.07646799999999995e-02
0.00000000000000000e+00  8.99999899999999985e-03  5.38416099999999981e-02
0.00000000000000000e+00  5.99999800000000031e-03  6.74268199999999984e-02
0.00000000000000000e+00  2.99999900000000016e-03  6.60943300000000067e-02
0.00000000000000000e+00  2.99999900000000016e-03  6.30174099999999959e-02
0.00000000000000000e+00  8.99999899999999985e-03  6.60943300000000067e-02
0.00000000000000000e+00  5.99999899999999978e-03  4.92248900000000003e-02
0.00000000000000000e+00  8.99999999999999932e-03  1.68536999999999992e-02
0.00000000000000000e+00  5.99999899999999978e-03  2.45917899999999988e-02
0.00000000000000000e+00  8.99999999999999932e-03  2.61487999999999998e-02
0.00000000000000000e+00  8.99999999999999932e-03  1.37767800000000006e-02
0.00000000000000000e+00  5.99999800000000031e-03  3.69209200000000029e-02
0.00000000000000000e+00  8.99999899999999985e-03  3.84608300000000014e-02
0.00000000000000000e+00  8.99999899999999985e-03  5.07646799999999995e-02
0.00000000000000000e+00  5.99999599999999963e-03  6.14624299999999985e-02
0.00000000000000000e+00  8.99999899999999985e-03  6.30174099999999959e-02
1.20000000000000002e-02  1.20000000000000002e-02  8.00000000000000017e-02
0.00000000000000000e+00  0.00000000000000000e+00  8.00000000000000017e-02
1.20000000000000002e-02  6.00000000000000012e-03  0.00000000000000000e+00
1.20000000000000002e-02  3.00000000000000006e-03  0.00000000000000000e+00
1.20000000000000002e-02  8.99999999999999932e-03  0.00000000000000000e+00
1.20000000000000002e-02  0.00000000000000000e+00  8.00000000000000017e-02
1.20000000000000002e-02  0.00000000000000000e+00  0.00000000000000000e+00
0.00000000000000000e+00  1.20000000000000002e-02  0.00000000000000000e+00
1.20000000000000002e-02  5.99999899999999978e-03  8.68039699999999942e-03
1.20000000000000002e-02  5.99999899999999978e-03  1.52458600000000000e-02
1.20000000000000002e-02  5.99999899999999978e-03  2.15013699999999988e-02
1.20000000000000002e-02  6.00000000000000012e-03  2.76822099999999988e-02
1.20000000000000002e-02  5.99999899999999978e-03  3.38432399999999967e-02
1.20000000000000002e-02  5.99999800000000031e-03  3.99985900000000005e-02
1.20000000000000002e-02  5.99999699999999997e-03  4.61511800000000000e-02
1.20000000000000002e-02  5.99999300000000034e-03  5.22986100000000023e-02
1.20000000000000002e-02  5.99998599999999969e-03  5.84285400000000010e-02
1.20000000000000002e-02  5.99997800000000043e-03  6.44963800000000059e-02
1.20000000000000002e-02  5.99997500000000027e-03  7.03572999999999976e-02
1.20000000000000002e-02  5.99997500000000027e-03  7.56573600000000068e-02
1.20000000000000002e-02  3.00000000000000006e-03  3.07692300000000007e-03
1.20000000000000002e-02  3.00000000000000006e-03  7.41712099999999961e-03
1.20000000000000002e-02  3.00000000000000006e-03  1.04940399999999996e-02
1.20000000000000002e-02  2.99999900000000016e-03  1.37767800000000006e-02
1.20000000000000002e-02  2.99999900000000016e-03  1.68536999999999992e-02
1.20000000000000002e-02  5.99999899999999978e-03  1.19631300000000006e-02
1.20000000000000002e-02  3.00000000000000006e-03  1.99814500000000013e-02
1.20000000000000002e-02  3.00000000000000006e-03  2.30583799999999998e-02
1.20000000000000002e-02  5.99999899999999978e-03  1.83736099999999986e-02
1.20000000000000002e-02  3.00000000000000006e-03  2.61487999999999998e-02
1.20000000000000002e-02  3.00000000000000006e-03  2.92257200000000002e-02
1.20000000000000002e-02  5.99999899999999978e-03  2.45917899999999988e-02
1.20000000000000002e-02  3.00000000000000006e-03  3.23062299999999983e-02
1.20000000000000002e-02  3.00000000000000006e-03  3.53831599999999968e-02
1.20000000000000002e-02  5.99999899999999978e-03  3.07627200000000003e-02
1.20000000000000002e-02  2.99999900000000016e-03  3.84608300000000014e-02
1.20000000000000002e-02  2.99999900000000016e-03  4.15377499999999983e-02
1.20000000000000002e-02  5.99999899999999978e-03  3.69209100000000012e-02
1.20000000000000002e-02  2.99999799999999981e-03  4.46140500000000023e-02
1.20000000000000002e-02  2.99999799999999981e-03  4.76909800000000009e-02
1.20000000000000002e-02  5.99999800000000031e-03  4.30748800000000029e-02
1.20000000000000002e-02  2.99999699999999991e-03  5.07646900000000012e-02
1.20000000000000002e-02  2.99999699999999991e-03  5.38416099999999981e-02
1.20000000000000002e-02  5.99999500000000015e-03  4.92249000000000020e-02
1.20000000000000002e-02  2.99999299999999984e-03  5.69065799999999983e-02
1.20000000000000002e-02  2.99999299999999984e-03  5.99835000000000021e-02
1.20000000000000002e-02  5.99999000000000018e-03  5.53635800000000025e-02
1.20000000000000002e-02  2.99998900000000021e-03  6.30174200000000045e-02
1.20000000000000002e-02  2.99998900000000021e-03  6.60943499999999962e-02
1.20000000000000002e-02  5.99998200000000006e-03  6.14624599999999965e-02
1.20000000000000002e-02  2.99998799999999987e-03  6.90248100000000059e-02
1.20000000000000002e-02  2.99998799999999987e-03  7.21017300000000028e-02
1.20000000000000002e-02  5.99997700000000009e-03  6.74268400000000018e-02
1.20000000000000002e-02  2.99998699999999997e-03  7.47517600000000004e-02
1.20000000000000002e-02  2.99998699999999997e-03  7.78286799999999973e-02
1.20000000000000002e-02  5.99998700000000003e-03  7.78286799999999973e-02
1.20000000000000002e-02  5.99997500000000027e-03  7.30073299999999953e-02
1.20000000000000002e-02  8.99998699999999922e-03  7.78286799999999973e-02
1.20000000000000002e-02  8.99999999999999932e-03  3.07692300000000007e-03
[...]
POINT_DATA 281

SCALARS Rank unsigned_int
LOOKUP_TABLE default
0 0 0 0 0 0 0 0 0 0 0 0 0 0 0 0 0 0 0 0 0 0 0 0 0 0 0 0 0 0 0 0 0 0 0 0 0 0 0 0 0 0 0 0 0 0 0 0 0 0 0 0 0 0 0 0 0 0 0 0 0 0 0 0 0 0 0 0 0 0 0 0 0 0 0 0 0 0 0 0 0 0 0 0 0 0 0 0 0 0 0 0 0 0 0 0 0 0 0 0 0 0 0 0 0 0 0 0 0 0 0 0 0 0 0 0 0 0 0 0 0 0 0 0 0 0 0 0 0 0 0 0 0 0 0 0 0 0 0 0 0 0 0 0 0 0 0 0 0 0 0 0 0 0 0 0 0 0 0 0 0 0 0 0 0 0 0 0 0 0 0 0 0 0 0 0 0 0 0 0 0 0 0 0 0 0 0 0 0 0 0 0 0 0 0 0 0 0 0 0 0 0 0 0 0 0 0 0 0 0 0 0 0 0 0 0 0 0 0 0 0 0 0 0 0 0 0 0 0 0 0 0 0 0 0 0 0 0 0 0 0 0 0 0 0 0 0 0 0 0 0 0 0 0 0 0 0 0 0 0 0 0 0 0 0 0 0 0 0 0 0 0 0 0 0 0 0 0 0 0 0 

VECTORS Forces0 double
6.55337020833711503e-06 0.00000000000000000e+00 8.21414092241289765e-08 
6.04859871892114812e-06 0.00000000000000000e+00 -5.59865956474556235e-08 
4.62901445051218025e-06 0.00000000000000000e+00 4.31753390491221405e-08 
3.09211078488000980e-06 0.00000000000000000e+00 -3.01315380721781587e-08 
1.58350947340020710e-06 0.00000000000000000e+00 3.92166920149194605e-08 
9.87781687069542517e-08 0.00000000000000000e+00 -9.24575738232614500e-08 
-4.86149252374442596e-07 0.00000000000000000e+00 -2.48820982864555825e-07 
6.46917594217999790e-06 0.00000000000000000e+00 1.98373391611143418e-08 
5.41236035899898434e-06 0.00000000000000000e+00 -4.53821459120132508e-08 
3.84352016721574323e-06 0.00000000000000000e+00 7.68987662455796047e-08 
2.35300594542100336e-06 0.00000000000000000e+00 -1.14343069735668118e-07 
8.18153724675442296e-07 0.00000000000000000e+00 1.85506858969432341e-07 
6.22666757995421676e-06 0.00000000000000000e+00 7.74298877998824442e-09 
6.61372690678743811e-06 0.00000000000000000e+00 7.52443355724884524e-08 
6.50996854257156084e-06 0.00000000000000000e+00 7.94249170122351277e-08 
5.87139350143060979e-06 0.00000000000000000e+00 -6.35477125054255475e-08 
6.20861048635832995e-06 0.00000000000000000e+00 -4.27832174229492789e-08 
4.46164392451376558e-06 0.00000000000000000e+00 6.31104400700109080e-08 
4.80738140261247851e-06 0.00000000000000000e+00 1.97071278073292802e-08 
2.89173062908113668e-06 0.00000000000000000e+00 -6.49551587051189354e-08 
3.30053609744692038e-06 0.00000000000000000e+00 5.45011443186381783e-09 
1.39928257153829630e-06 0.00000000000000000e+00 9.99805924231011258e-08 
1.76484491238533593e-06 0.00000000000000000e+00 -1.85306576678387520e-08 
-1.06987782641549022e-07 0.00000000000000000e+00 -2.02924495122123589e-07 
2.60813879019546192e-07 0.00000000000000000e+00 0.00000000000000000e+00 
-6.68513049379653764e-07 0.00000000000000000e+00 -9.55686795694348003e-08 
-3.96862923773806985e-07 0.00000000000000000e+00 -2.70634402483237765e-07 
-2.09745558812500647e-07 0.00000000000000000e+00 -2.44488282830989193e-07 
-6.68513049380796411e-07 0.00000000000000000e+00 -9.55686795790710706e-08 
-3.96862923771164243e-07 0.00000000000000000e+00 -2.70634402477859106e-07 
-6.68513049380211535e-07 0.00000000000000000e+00 -9.55686795778070857e-08 
6.22666757995392708e-06 0.00000000000000000e+00 7.74298876490577724e-09 
6.50996854257235367e-06 0.00000000000000000e+00 7.94249170247228286e-08 
6.61372690678804544e-06 0.00000000000000000e+00 7.52443355654495556e-08 
6.20861048636049666e-06 0.00000000000000000e+00 -4.27832174198702083e-08 
5.87139350143015833e-06 0.00000000000000000e+00 -6.35477125003157153e-08 
4.80738140261181529e-06 0.00000000000000000e+00 1.97071278128182159e-08 
4.46164392451399767e-06 0.00000000000000000e+00 6.31104400807917184e-08 
3.30053609744637913e-06 0.00000000000000000e+00 5.45011442849146203e-09 
2.89173062908044550e-06 0.00000000000000000e+00 -6.49551586995078715e-08 
1.76484491238495413e-06 0.00000000000000000e+00 -1.85306576698327734e-08 
1.39928257153694486e-06 0.00000000000000000e+00 9.99805924242831338e-08 
2.60813879018399309e-07 0.00000000000000000e+00 0.00000000000000000e+00 
-1.06987782642894534e-07 0.00000000000000000e+00 -2.02924495119124378e-07 
6.37003744435156005e-06 0.00000000000000000e+00 3.98465575145579575e-08 
6.55661749148962746e-06 0.00000000000000000e+00 4.04302011818658749e-08 
6.63590457931667264e-06 0.00000000000000000e+00 6.23882827307804874e-08 
6.38073995965345835e-06 0.00000000000000000e+00 -3.35738727924026026e-09 
6.30392655188132949e-06 0.00000000000000000e+00 -2.40851991728785022e-08 
5.00507351919596268e-06 0.00000000000000000e+00 -4.61330860506027702e-09 
5.21700088746903573e-06 0.00000000000000000e+00 -2.69164552901425669e-08 
5.55881897778903973e-06 0.00000000000000000e+00 -5.81126634544223310e-08 
5.21700088746974300e-06 0.00000000000000000e+00 -2.69164552991819834e-08 
3.48591463151695710e-06 0.00000000000000000e+00 3.73364143072513256e-08 
3.65830669354534037e-06 0.00000000000000000e+00 6.17087003942850330e-08 
4.04817911869510944e-06 0.00000000000000000e+00 8.16731078784256928e-08 
3.65830669354630768e-06 0.00000000000000000e+00 6.17087003923463334e-08 
1.95562846084971706e-06 0.00000000000000000e+00 -6.71990429269053602e-08 
2.15252504153207034e-06 0.00000000000000000e+00 -9.94246895509914534e-08 
2.53137329848724251e-06 0.00000000000000000e+00 -1.11439885384922811e-07 
2.15252504153323120e-06 0.00000000000000000e+00 -9.94246895555895718e-08 
4.56192924692862869e-07 0.00000000000000000e+00 9.65819862038034722e-08 
6.19213736711181353e-07 0.00000000000000000e+00 1.52497443225337245e-07 
1.00727167050653567e-06 0.00000000000000000e+00 1.81567341731801546e-07 
6.19213736711190247e-07 0.00000000000000000e+00 1.52497443224589315e-07 
2.70565910736322233e-06 0.00000000000000000e+00 -9.36979141613199679e-08 
6.38073995965313055e-06 0.00000000000000000e+00 -3.35738728299828074e-09 
5.70791922970867879e-06 0.00000000000000000e+00 -6.44092981960188032e-08 
5.55881897778724487e-06 0.00000000000000000e+00 -5.81126634501066716e-08 
6.55661749148996289e-06 0.00000000000000000e+00 4.04302011707982778e-08 
4.26461809108573528e-06 0.00000000000000000e+00 7.67183163916042499e-08 
4.04817911869467745e-06 0.00000000000000000e+00 8.16731078726935694e-08 
2.53137329848802601e-06 0.00000000000000000e+00 -1.11439885387145108e-07 
1.20908924397962245e-06 0.00000000000000000e+00 1.49441913818744400e-07 
1.00727167050458411e-06 0.00000000000000000e+00 1.81567341735493472e-07 
1.92997233707886562e-06 0.00000000000000000e+00 2.93655421919922366e-07 
-8.14262500636128417e-07 0.00000000000000000e+00 2.94092693972209948e-07 
-7.62095002880006620e-07 0.00000000000000000e+00 -1.15214057590132179e-07 
-7.62095002879732181e-07 0.00000000000000000e+00 -1.15214057593519993e-07 
-7.62095002879962150e-07 0.00000000000000000e+00 -1.15214057593860606e-07 
1.92997233708050166e-06 0.00000000000000000e+00 2.93655421920945793e-07 
-7.62095002882153425e-07 0.00000000000000000e+00 -1.15214057598211973e-07 
5.77003103662833175e-06 0.00000000000000000e+00 -1.15716246778441736e-07 
-6.17067605469906668e-07 0.00000000000000000e+00 8.26388122483968680e-08 
-3.52446924639750613e-07 0.00000000000000000e+00 2.01600266089684792e-08 
-2.29680769731589510e-08 0.00000000000000000e+00 -5.59299993998623324e-08 
3.83015065655678930e-07 0.00000000000000000e+00 -4.57194458737062797e-08 
8.59398946951815973e-07 0.00000000000000000e+00 4.26002579625829752e-08 
1.40256217984383227e-06 0.00000000000000000e+00 7.61459585758732218e-08 
1.98831040559522152e-06 0.00000000000000000e+00 -3.11351061532318480e-08 
2.55075118148296552e-06 0.00000000000000000e+00 -1.15663468096844187e-07 
2.95878109398112617e-06 0.00000000000000000e+00 3.79536316203379744e-08 
3.12040253270880362e-06 0.00000000000000000e+00 1.84328674812155192e-07 
2.98041225255569624e-06 0.00000000000000000e+00 -9.38521630278299106e-08 
2.55524696536472870e-06 0.00000000000000000e+00 -2.50387628460116852e-07 
-7.58471268738036518e-07 0.00000000000000000e+00 8.33454365517891575e-09 
-6.57359376931037087e-07 0.00000000000000000e+00 7.99589159727170501e-08 
-5.55310262118364131e-07 0.00000000000000000e+00 7.56906017390725178e-08 
-4.21412186503555848e-07 0.00000000000000000e+00 4.07965318408579553e-08 
-2.73008982665964773e-07 0.00000000000000000e+00 -3.10450148213709779e-09 
-5.00633576811537455e-07 0.00000000000000000e+00 6.27955811687523929e-08 
-1.08179968653436165e-07 0.00000000000000000e+00 -4.27045362834863717e-08 
7.00488448436160799e-08 0.00000000000000000e+00 -6.35277047621751581e-08 
-1.94896533797884471e-07 0.00000000000000000e+00 -2.39169680917996091e-08 
2.73759255776130077e-07 0.00000000000000000e+00 -5.83077582510152401e-08 
4.92780504791622035e-07 0.00000000000000000e+00 -2.72796248443104239e-08 
1.67632840099231900e-07 0.00000000000000000e+00 -6.44700141147129892e-08 
7.28542621445697635e-07 0.00000000000000000e+00 1.92758785697543669e-08 
9.97454189709850591e-07 0.00000000000000000e+00 6.23487147585415817e-08 
6.05904418379591070e-07 0.00000000000000000e+00 -4.97564607681378733e-09 
1.26295199564207792e-06 0.00000000000000000e+00 8.09339179447226652e-08 
1.55191771537284645e-06 0.00000000000000000e+00 6.08298042489732247e-08 
1.13060755854928892e-06 0.00000000000000000e+00 7.59235996627391053e-08 
1.85391524106362008e-06 0.00000000000000000e+00 4.31593699823673979e-09 
2.12647335051023061e-06 0.00000000000000000e+00 -6.59057188040021688e-08 
1.70657998878991639e-06 0.00000000000000000e+00 3.62666139555633140e-08 
2.41649732850772014e-06 0.00000000000000000e+00 -1.12654912247114818e-07 
2.65868893483062162e-06 0.00000000000000000e+00 -1.00572395847013716e-07 
2.26966808152660228e-06 0.00000000000000000e+00 -9.47224863877916370e-08 
2.86107586652029669e-06 0.00000000000000000e+00 -1.96023563598724165e-08 
3.04349479829806765e-06 0.00000000000000000e+00 9.85073777858186315e-08 
2.75905889647338591e-06 0.00000000000000000e+00 -6.82235089641459506e-08 
3.10598237756949870e-06 0.00000000000000000e+00 1.80408009923202666e-07 
3.12787526503072072e-06 0.00000000000000000e+00 1.51086208201007477e-07 
3.08280441746916158e-06 0.00000000000000000e+00 1.48131015133797503e-07 
3.06133496572431684e-06 0.00000000000000000e+00 -1.90722118802485946e-09 
2.85784504149731697e-06 0.00000000000000000e+00 -2.04180054792434504e-07 
3.11963665631533443e-06 0.00000000000000000e+00 9.49154371231883263e-08 
2.64358906892105190e-06 0.00000000000000000e+00 -2.72111437233316063e-07 
2.26129599542291872e-06 0.00000000000000000e+00 -9.66058826165980645e-08 
2.26129599542100569e-06 0.00000000000000000e+00 -9.66058826187746215e-08 
2.78913854930039524e-06 0.00000000000000000e+00 -2.45772696707427037e-07 
2.26129599542141904e-06 0.00000000000000000e+00 -9.66058826267959176e-08 
-7.58471268741759651e-07 0.00000000000000000e+00 8.33454366154182725e-09 
-5.55310262118613159e-07 0.00000000000000000e+00 7.56906017443976949e-08 
-6.57359376933445625e-07 0.00000000000000000e+00 7.99589159765445538e-08 
-2.73008982663702771e-07 0.00000000000000000e+00 -3.10450148547414290e-09 
-4.21412186507387401e-07 0.00000000000000000e+00 4.07965318508411915e-08 
7.00488448427144133e-08 0.00000000000000000e+00 -6.35277047581186379e-08 
-1.08179968655684191e-07 0.00000000000000000e+00 -4.27045362678447569e-08 
4.92780504792052434e-07 0.00000000000000000e+00 -2.72796248398426957e-08 
2.73759255774884304e-07 0.00000000000000000e+00 -5.83077582544596995e-08 
9.97454189709069627e-07 0.00000000000000000e+00 6.23487147501434618e-08 
7.28542621445616003e-07 0.00000000000000000e+00 1.92758785754258878e-08 
1.55191771537213536e-06 0.00000000000000000e+00 6.08298042505763934e-08 
1.26295199564162539e-06 0.00000000000000000e+00 8.09339179427349436e-08 
2.12647335051014040e-06 0.00000000000000000e+00 -6.59057188096099637e-08 
1.85391524106353601e-06 0.00000000000000000e+00 4.31593699880306072e-09 
2.65868893482810763e-06 0.00000000000000000e+00 -1.00572395843761374e-07 
2.41649732850867093e-06 0.00000000000000000e+00 -1.12654912249216678e-07 
3.04349479829660313e-06 0.00000000000000000e+00 9.85073777902921301e-08 
2.86107586652107893e-06 0.00000000000000000e+00 -1.96023563641593297e-08 
3.12787526503107732e-06 0.00000000000000000e+00 1.51086208200428953e-07 
3.10598237757024748e-06 0.00000000000000000e+00 1.80408009926398839e-07 
2.85784504149897292e-06 0.00000000000000000e+00 -2.04180054795323733e-07 
3.06133496572383911e-06 0.00000000000000000e+00 -1.90722118220828421e-09 
-7.41107010417313761e-07 0.00000000000000000e+00 4.04528862128726758e-08 
2.64358906892356717e-06 0.00000000000000000e+00 -2.72111437243303058e-07 
-8.14262500637498493e-07 0.00000000000000000e+00 2.94092693979322060e-07 
6.46478218278210986e-06 0.00000000000000000e+00 6.92809761105673158e-08 
6.62779350417138741e-06 0.00000000000000000e+00 5.86491382304003754e-08 
6.29946661872396184e-06 0.00000000000000000e+00 -2.52093794707693507e-08 
5.70554265103475596e-06 0.00000000000000000e+00 -6.43678408837762700e-08 
5.00420018090134438e-06 0.00000000000000000e+00 -4.51333508637152581e-09 
4.26431385898103193e-06 0.00000000000000000e+00 7.67316908247623490e-08 
3.48568822742152478e-06 0.00000000000000000e+00 3.72985671651763279e-08 
2.70497396286610996e-06 0.00000000000000000e+00 -9.37895738594221219e-08 
1.95295758100930587e-06 0.00000000000000000e+00 -6.66345611813071474e-08 
1.19917480657162461e-06 0.00000000000000000e+00 1.51563098958960520e-07 
4.23869245860256095e-07 0.00000000000000000e+00 8.25489534858238947e-08 
-3.01856920665057158e-07 0.00000000000000000e+00 -2.67679389244990601e-07 
6.22666757995200262e-06 0.00000000000000000e+00 7.74298876781496484e-09 
6.57227807936751526e-06 0.00000000000000000e+00 8.12827780371690128e-08 
6.46106498268559280e-06 0.00000000000000000e+00 1.78337846482996354e-08 
6.04435023672014275e-06 0.00000000000000000e+00 -5.62412240878272903e-08 
5.41131380130829602e-06 0.00000000000000000e+00 -4.52782305861348524e-08 
4.62869405090815617e-06 0.00000000000000000e+00 4.32170807433572608e-08 
3.84334144239462195e-06 0.00000000000000000e+00 7.68895764168379426e-08 
3.09175225465762114e-06 0.00000000000000000e+00 -3.01939807783629134e-08 
2.35185492921758981e-06 0.00000000000000000e+00 -1.14309322136156481e-07 
1.57962646571932098e-06 0.00000000000000000e+00 4.05207816891343086e-08 
8.03131033615868558e-07 0.00000000000000000e+00 1.84432962263729071e-07 
4.93529806330505464e-08 0.00000000000000000e+00 -1.20509848889077244e-07 
-5.97625665535200133e-07 0.00000000000000000e+00 -1.83064302794901472e-07 
-1.94879259927576563e-07 0.00000000000000000e+00 4.22407893616504327e-06 
-1.94879259928100030e-07 0.00000000000000000e+00 4.22407893615927244e-06 
1.28767095341465561e-06 0.00000000000000000e+00 4.22392056469795088e-06 
1.28767095341649240e-06 0.00000000000000000e+00 4.22392056470560721e-06 
5.41642367358888265e-07 0.00000000000000000e+00 7.55502753406942601e-06 
5.41642367358412656e-07 0.00000000000000000e+00 7.55502753407184345e-06 
-1.94879259926864632e-07 0.00000000000000000e+00 4.22407893616020079e-06 
1.28767095341646234e-06 0.00000000000000000e+00 4.22392056471056151e-06 
1.92997233707945812e-06 0.00000000000000000e+00 2.93655421931068261e-07 
1.92997233707870892e-06 0.00000000000000000e+00 2.93655421913555643e-07 
1.92997233707850987e-06 0.00000000000000000e+00 2.93655421926480307e-07 
-8.14262500637657735e-07 0.00000000000000000e+00 2.94092693970898105e-07 
-8.14262500637526868e-07 0.00000000000000000e+00 2.94092693973357042e-07 
-8.14262500639146819e-07 0.00000000000000000e+00 2.94092693975933504e-07 
-6.95082646196456551e-07 0.00000000000000000e+00 6.98507911432609364e-08 
-4.86480660779717503e-07 0.00000000000000000e+00 5.90486481276090027e-08 
-1.90268481781169192e-07 0.00000000000000000e+00 -2.50465809392121492e-08 
1.69188279820707930e-07 0.00000000000000000e+00 -6.44302305407695396e-08 
6.06401295542941624e-07 0.00000000000000000e+00 -4.87563650760851072e-09 
1.13079069952339084e-06 0.00000000000000000e+00 7.59371243984603524e-08 
1.70678580053682308e-06 0.00000000000000000e+00 3.62285122656039588e-08 
2.27022602861727342e-06 0.00000000000000000e+00 -9.48145407569514479e-08 
2.76044545252238893e-06 0.00000000000000000e+00 -6.76592142053658306e-08 
3.08420529197806119e-06 0.00000000000000000e+00 1.50261809715842467e-07 
3.11495504584529114e-06 0.00000000000000000e+00 8.08455770826067382e-08 
2.72184289694495810e-06 0.00000000000000000e+00 -2.69039130561542186e-07 
-7.58471268739924978e-07 0.00000000000000000e+00 8.33454365454702917e-09 
-5.98897999492184631e-07 0.00000000000000000e+00 8.17643952993884476e-08 
-3.45757460270923533e-07 0.00000000000000000e+00 1.81514277752773737e-08 
-2.08266599849014716e-08 0.00000000000000000e+00 -5.61850925181762099e-08 
3.83742807099033701e-07 0.00000000000000000e+00 -4.56162885918858733e-08 
8.59654761268191606e-07 0.00000000000000000e+00 4.26418057374211065e-08 
1.40269472366382412e-06 0.00000000000000000e+00 7.61367044509840981e-08 
1.98854504112176894e-06 0.00000000000000000e+00 -3.11973555178174808e-08 
2.55143641343637834e-06 0.00000000000000000e+00 -1.15629096228639445e-07 
2.96081249763351035e-06 0.00000000000000000e+00 3.92512533247338335e-08 
3.12130075398451419e-06 0.00000000000000000e+00 1.83244827589556403e-07 
2.95272989345457212e-06 0.00000000000000000e+00 -1.21847540096825652e-07 
2.39411884449580506e-06 0.00000000000000000e+00 -1.84399951036895264e-07 
5.77003103662958027e-06 0.00000000000000000e+00 -1.15716246781198232e-07 
5.77003103663069497e-06 0.00000000000000000e+00 -1.15716246781314382e-07 
5.77003103663063737e-06 0.00000000000000000e+00 -1.15716246780647052e-07 
5.41642367357651173e-07 0.00000000000000000e+00 7.55502753407019766e-06 
-1.94879259929012284e-07 0.00000000000000000e+00 4.22407893616362703e-06 
1.28767095341695616e-06 0.00000000000000000e+00 4.22392056470136273e-06 
-6.95082646195593848e-07 0.00000000000000000e+00 6.98507911457978530e-08 
-4.86480660779380384e-07 0.00000000000000000e+00 5.90486481295808557e-08 
-1.90268481781491700e-07 0.00000000000000000e+00 -2.50465809385376859e-08 
1.69188279821828554e-07 0.00000000000000000e+00 -6.44302305453310238e-08 
6.06401295543259791e-07 0.00000000000000000e+00 -4.87563650679726492e-09 
1.13079069952376205e-06 0.00000000000000000e+00 7.59371244019353051e-08 
1.70678580053781177e-06 0.00000000000000000e+00 3.62285122638416803e-08 
2.27022602861644206e-06 0.00000000000000000e+00 -9.48145407562354933e-08 
2.76044545252366117e-06 0.00000000000000000e+00 -6.76592142087693943e-08 
3.08420529197761904e-06 0.00000000000000000e+00 1.50261809713934208e-07 
3.11495504584511200e-06 0.00000000000000000e+00 8.08455770807513126e-08 
2.72184289694432622e-06 0.00000000000000000e+00 -2.69039130562547879e-07 
-7.58471268741140470e-07 0.00000000000000000e+00 8.33454365650806926e-09 
-5.98897999492401471e-07 0.00000000000000000e+00 8.17643953035489146e-08 
-3.45757460270211178e-07 0.00000000000000000e+00 1.81514277616329567e-08 
-2.08266599841787407e-08 0.00000000000000000e+00 -5.61850925118958047e-08 
3.83742807099787349e-07 0.00000000000000000e+00 -4.56162885964961149e-08 
8.59654761267992765e-07 0.00000000000000000e+00 4.26418057362874588e-08 
1.40269472366334576e-06 0.00000000000000000e+00 7.61367044538191174e-08 
1.98854504112211326e-06 0.00000000000000000e+00 -3.11973555192997819e-08 
2.55143641343739733e-06 0.00000000000000000e+00 -1.15629096230887258e-07 
2.96081249763460175e-06 0.00000000000000000e+00 3.92512533232479391e-08 
3.12130075398490128e-06 0.00000000000000000e+00 1.83244827596873603e-07 
2.95272989345482411e-06 0.00000000000000000e+00 -1.21847540093833614e-07 
2.39411884449776679e-06 0.00000000000000000e+00 -1.84399951029525283e-07 
5.77003103662971241e-06 0.00000000000000000e+00 -1.15716246777036018e-07 
6.46478218278235296e-06 0.00000000000000000e+00 6.92809761096235358e-08 
6.62779350417165253e-06 0.00000000000000000e+00 5.86491382368056915e-08 
6.29946661872359508e-06 0.00000000000000000e+00 -2.52093794702479490e-08 
5.70554265103504479e-06 0.00000000000000000e+00 -6.43678408898358643e-08 
5.00420018090145958e-06 0.00000000000000000e+00 -4.51333508190752652e-09 
4.26431385898248544e-06 0.00000000000000000e+00 7.67316908255140113e-08 
3.48568822742123510e-06 0.00000000000000000e+00 3.72985671632041705e-08 