# vtk DataFile Version 2.0

ASCII

DATASET UNSTRUCTURED_GRID

POINTS 281 double 

0.00000000000000000e+00  6.00000000000000012e-03  8.68039800000000063e-03
0.00000000000000000e+00  6.00000000000000012e-03  2.15013699999999988e-02
0.00000000000000000e+00  5.99999699999999997e-03  3.38432499999999983e-02
0.00000000000000000e+00  6.00000000000000012e-03  4.61511800000000000e-02
0.00000000000000000e+00  5.99999399999999981e-03  5.84285100000000029e-02
0.00000000000000000e+00  5.99999899999999978e-03  7.03572799999999943e-02
0.00000000000000000e+00  6.00000000000000012e-03  7.56573400000000035e-02
0.00000000000000000e+00  6.00000000000000012e-03  1.52458600000000000e-02
0.00000000000000000e+00  5.99999899999999978e-03  2.76822099999999988e-02
0.00000000000000000e+00  5.99999899999999978e-03  3.99985900000000005e-02
0.00000000000000000e+00  5.99999800000000031e-03  5.22986000000000006e-02
0.00000000000000000e+00  5.99999800000000031e-03  6.44963600000000026e-02
0.00000000000000000e+00  3.00000000000000006e-03  3.07692300000000007e-03
0.00000000000000000e+00  3.00000000000000006e-03  1.04940499999999996e-02
0.00000000000000000e+00  3.00000000000000006e-03  7.41712199999999995e-03
0.00000000000000000e+00  3.00000000000000006e-03  2.30583799999999998e-02
0.00000000000000000e+00  3.00000000000000006e-03  1.99814599999999995e-02
0.00000000000000000e+00  2.99999900000000016e-03  3.53831699999999985e-02
0.00000000000000000e+00  2.99999900000000016e-03  3.23062400000000000e-02
0.00000000000000000e+00  3.00000000000000006e-03  4.76909699999999992e-02
0.00000000000000000e+00  3.00000000000000006e-03  4.46140500000000023e-02
0.00000000000000000e+00  2.99999699999999991e-03  5.99834799999999987e-02
0.00000000000000000e+00  2.99999699999999991e-03  5.69065600000000019e-02
0.00000000000000000e+00  2.99999900000000016e-03  7.21017199999999941e-02
0.00000000000000000e+00  2.99999900000000016e-03  6.90247900000000025e-02
0.00000000000000000e+00  3.00000000000000006e-03  7.78286700000000026e-02
0.00000000000000000e+00  3.00000000000000006e-03  7.47517500000000057e-02
0.00000000000000000e+00  5.99999899999999978e-03  7.30073100000000058e-02
0.00000000000000000e+00  6.00000000000000012e-03  7.78286700000000026e-02
0.00000000000000000e+00  8.99999999999999932e-03  7.47517500000000057e-02
0.00000000000000000e+00  8.99999999999999932e-03  7.78286700000000026e-02
0.00000000000000000e+00  8.99999999999999932e-03  3.07692300000000007e-03
0.00000000000000000e+00  8.99999999999999932e-03  7.41712199999999995e-03
0.00000000000000000e+00  8.99999999999999932e-03  1.04940499999999996e-02
0.00000000000000000e+00  8.99999999999999932e-03  1.99814599999999995e-02
0.00000000000000000e+00  8.99999999999999932e-03  2.30583799999999998e-02
0.00000000000000000e+00  8.99999899999999985e-03  3.23062400000000000e-02
0.00000000000000000e+00  8.99999899999999985e-03  3.53831699999999985e-02
0.00000000000000000e+00  8.99999999999999932e-03  4.46140500000000023e-02
0.00000000000000000e+00  8.99999999999999932e-03  4.76909699999999992e-02
0.00000000000000000e+00  8.99999699999999916e-03  5.69065600000000019e-02
0.00000000000000000e+00  8.99999699999999916e-03  5.99834799999999987e-02
0.00000000000000000e+00  8.99999899999999985e-03  6.90247900000000025e-02
0.00000000000000000e+00  8.99999899999999985e-03  7.21017199999999941e-02
0.00000000000000000e+00  6.00000000000000012e-03  4.34019900000000031e-03
0.00000000000000000e+00  3.00000000000000006e-03  1.37767800000000006e-02
0.00000000000000000e+00  6.00000000000000012e-03  1.19631300000000006e-02
0.00000000000000000e+00  3.00000000000000006e-03  1.68536999999999992e-02
0.00000000000000000e+00  6.00000000000000012e-03  1.83736200000000002e-02
0.00000000000000000e+00  5.99999800000000031e-03  3.07627299999999985e-02
0.00000000000000000e+00  3.00000000000000006e-03  2.92257200000000002e-02
0.00000000000000000e+00  3.00000000000000006e-03  2.61487999999999998e-02
0.00000000000000000e+00  8.99999999999999932e-03  2.92257200000000002e-02
0.00000000000000000e+00  6.00000000000000012e-03  4.30748800000000029e-02
0.00000000000000000e+00  2.99999900000000016e-03  4.15377600000000000e-02
0.00000000000000000e+00  2.99999900000000016e-03  3.84608300000000014e-02
0.00000000000000000e+00  8.99999899999999985e-03  4.15377600000000000e-02
0.00000000000000000e+00  5.99999599999999963e-03  5.53635499999999975e-02
0.00000000000000000e+00  2.99999900000000016e-03  5.38416099999999981e-02
0.00000000000000000e+00  2.99999900000000016e-03  5.07646799999999995e-02
0.00000000000000000e+00  8.99999899999999985e-03  5.38416099999999981e-02
0.00000000000000000e+00  5.99999800000000031e-03  6.74268199999999984e-02
0.00000000000000000e+00  2.99999900000000016e-03  6.60943300000000067e-02
0.00000000000000000e+00  2.99999900000000016e-03  6.30174099999999959e-02
0.00000000000000000e+00  8.99999899999999985e-03  6.60943300000000067e-02
0.00000000000000000e+00  5.99999899999999978e-03  4.92248900000000003e-02
0.00000000000000000e+00  8.99999999999999932e-03  1.68536999999999992e-02
0.00000000000000000e+00  5.99999899999999978e-03  2.45917899999999988e-02
0.00000000000000000e+00  8.99999999999999932e-03  2.61487999999999998e-02
0.00000000000000000e+00  8.99999999999999932e-03  1.37767800000000006e-02
0.00000000000000000e+00  5.99999800000000031e-03  3.69209200000000029e-02
0.00000000000000000e+00  8.99999899999999985e-03  3.84608300000000014e-02
0.00000000000000000e+00  8.99999899999999985e-03  5.07646799999999995e-02
0.00000000000000000e+00  5.99999599999999963e-03  6.14624299999999985e-02
0.00000000000000000e+00  8.99999899999999985e-03  6.30174099999999959e-02
1.20000000000000002e-02  1.20000000000000002e-02  8.00000000000000017e-02
0.00000000000000000e+00  0.00000000000000000e+00  8.00000000000000017e-02
1.20000000000000002e-02  6.00000000000000012e-03  0.00000000000000000e+00
1.20000000000000002e-02  3.00000000000000006e-03  0.00000000000000000e+00
1.20000000000000002e-02  8.99999999999999932e-03  0.00000000000000000e+00
1.20000000000000002e-02  0.00000000000000000e+00  8.00000000000000017e-02
1.20000000000000002e-02  0.00000000000000000e+00  0.00000000000000000e+00
0.00000000000000000e+00  1.20000000000000002e-02  0.00000000000000000e+00
1.20000000000000002e-02  5.99999899999999978e-03  8.68039699999999942e-03
1.20000000000000002e-02  5.99999899999999978e-03  1.52458600000000000e-02
1.20000000000000002e-02  5.99999899999999978e-03  2.15013699999999988e-02
1.20000000000000002e-02  6.00000000000000012e-03  2.76822099999999988e-02
1.20000000000000002e-02  5.99999899999999978e-03  3.38432399999999967e-02
1.20000000000000002e-02  5.99999800000000031e-03  3.99985900000000005e-02
1.20000000000000002e-02  5.99999699999999997e-03  4.61511800000000000e-02
1.20000000000000002e-02  5.99999300000000034e-03  5.22986100000000023e-02
1.20000000000000002e-02  5.99998599999999969e-03  5.84285400000000010e-02
1.20000000000000002e-02  5.99997800000000043e-03  6.44963800000000059e-02
1.20000000000000002e-02  5.99997500000000027e-03  7.03572999999999976e-02
1.20000000000000002e-02  5.99997500000000027e-03  7.56573600000000068e-02
1.20000000000000002e-02  3.00000000000000006e-03  3.07692300000000007e-03
1.20000000000000002e-02  3.00000000000000006e-03  7.41712099999999961e-03
1.20000000000000002e-02  3.00000000000000006e-03  1.04940399999999996e-02
1.20000000000000002e-02  2.99999900000000016e-03  1.37767800000000006e-02
1.20000000000000002e-02  2.99999900000000016e-03  1.68536999999999992e-02
1.20000000000000002e-02  5.99999899999999978e-03  1.19631300000000006e-02
1.20000000000000002e-02  3.00000000000000006e-03  1.99814500000000013e-02
1.20000000000000002e-02  3.00000000000000006e-03  2.30583799999999998e-02
1.20000000000000002e-02  5.99999899999999978e-03  1.83736099999999986e-02
1.20000000000000002e-02  3.00000000000000006e-03  2.61487999999999998e-02
1.20000000000000002e-02  3.00000000000000006e-03  2.92257200000000002e-02
1.20000000000000002e-02  5.99999899999999978e-03  2.45917899999999988e-02
1.20000000000000002e-02  3.00000000000000006e-03  3.23062299999999983e-02
1.20000000000000002e-02  3.00000000000000006e-03  3.53831599999999968e-02
1.20000000000000002e-02  5.99999899999999978e-03  3.07627200000000003e-02
1.20000000000000002e-02  2.99999900000000016e-03  3.84608300000000014e-02
1.20000000000000002e-02  2.99999900000000016e-03  4.15377499999999983e-02
1.20000000000000002e-02  5.99999899999999978e-03  3.69209100000000012e-02
1.20000000000000002e-02  2.99999799999999981e-03  4.46140500000000023e-02
1.20000000000000002e-02  2.99999799999999981e-03  4.76909800000000009e-02
1.20000000000000002e-02  5.99999800000000031e-03  4.30748800000000029e-02
1.20000000000000002e-02  2.99999699999999991e-03  5.07646900000000012e-02
1.20000000000000002e-02  2.99999699999999991e-03  5.38416099999999981e-02
1.20000000000000002e-02  5.99999500000000015e-03  4.92249000000000020e-02
1.20000000000000002e-02  2.99999299999999984e-03  5.69065799999999983e-02
1.20000000000000002e-02  2.99999299999999984e-03  5.99835000000000021e-02
1.20000000000000002e-02  5.99999000000000018e-03  5.53635800000000025e-02
1.20000000000000002e-02  2.99998900000000021e-03  6.30174200000000045e-02
1.20000000000000002e-02  2.99998900000000021e-03  6.60943499999999962e-02
1.20000000000000002e-02  5.99998200000000006e-03  6.14624599999999965e-02
1.20000000000000002e-02  2.99998799999999987e-03  6.90248100000000059e-02
1.20000000000000002e-02  2.99998799999999987e-03  7.21017300000000028e-02
1.20000000000000002e-02  5.99997700000000009e-03  6.74268400000000018e-02
1.20000000000000002e-02  2.99998699999999997e-03  7.47517600000000004e-02
1.20000000000000002e-02  2.99998699999999997e-03  7.78286799999999973e-02
1.20000000000000002e-02  5.99998700000000003e-03  7.78286799999999973e-02
1.20000000000000002e-02  5.99997500000000027e-03  7.30073299999999953e-02
1.20000000000000002e-02  8.99998699999999922e-03  7.78286799999999973e-02
1.20000000000000002e-02  8.99999999999999932e-03  3.07692300000000007e-03
[...]
POINT_DATA 281

SCALARS Rank unsigned_int
LOOKUP_TABLE default
0 0 0 0 0 0 0 0 0 0 0 0 0 0 0 0 0 0 0 0 0 0 0 0 0 0 0 0 0 0 0 0 0 0 0 0 0 0 0 0 0 0 0 0 0 0 0 0 0 0 0 0 0 0 0 0 0 0 0 0 0 0 0 0 0 0 0 0 0 0 0 0 0 0 0 0 0 0 0 0 0 0 0 0 0 0 0 0 0 0 0 0 0 0 0 0 0 0 0 0 0 0 0 0 0 0 0 0 0 0 0 0 0 0 0 0 0 0 0 0 0 0 0 0 0 0 0 0 0 0 0 0 0 0 0 0 0 0 0 0 0 0 0 0 0 0 0 0 0 0 0 0 0 0 0 0 0 0 0 0 0 0 0 0 0 0 0 0 0 0 0 0 0 0 0 0 0 0 0 0 0 0 0 0 0 0 0 0 0 0 0 0 0 0 0 0 0 0 0 0 0 0 0 0 0 0 0 0 0 0 0 0 0 0 0 0 0 0 0 0 0 0 0 0 0 0 0 0 0 0 0 0 0 0 0 0 0 0 0 0 0 0 0 0 0 0 0 0 0 0 0 0 0 0 0 0 0 0 0 0 0 0 0 0 0 0 0 0 0 0 0 0 0 0 0 0 0 0 0 0 0 

VECTORS Forces0 double
2.84562574050289396e-02 0.00000000000000000e+00 -1.11743638506731535e-03 
2.34314255955841086e-02 0.00000000000000000e+00 -6.06990055853721456e-04 
8.83620791175540078e-03 0.00000000000000000e+00 7.44300002454552036e-05 
5.04932310757083948e-04 0.00000000000000000e+00 3.61132453587539894e-05 
-1.29999342814862272e-04 0.00000000000000000e+00 -5.23016666767849141e-07 
2.50132153216550853e-04 0.00000000000000000e+00 2.38003019919638294e-06 
1.16106088365374374e-04 0.00000000000000000e+00 3.64061957585989588e-06 
2.77892115038906456e-02 0.00000000000000000e+00 -1.00248372732800032e-03 
1.61942602542562986e-02 0.00000000000000000e+00 -1.49510496651599943e-04 
3.46727662853881392e-03 0.00000000000000000e+00 9.01724876835192495e-05 
-3.01582453271521988e-04 0.00000000000000000e+00 3.27682883033782034e-06 
1.67517199506729444e-04 0.00000000000000000e+00 2.79185840414977427e-06 
2.55495547398700701e-02 0.00000000000000000e+00 -9.34710552922626576e-04 
2.92400733656721125e-02 0.00000000000000000e+00 -1.16788173437739045e-03 
2.79999389275764204e-02 0.00000000000000000e+00 -1.08668149498818644e-03 
2.13583281057632308e-02 0.00000000000000000e+00 -4.69072807238568644e-04 
2.52678319838871464e-02 0.00000000000000000e+00 -7.36353047253215042e-04 
7.46546095120026541e-03 0.00000000000000000e+00 9.73175661762193416e-05 
1.04113860119905699e-02 0.00000000000000000e+00 3.88027865618695907e-05 
1.41890596447223410e-04 0.00000000000000000e+00 2.42705060642378578e-05 
1.00905007928585419e-03 0.00000000000000000e+00 4.98606670319196759e-05 
-4.19253856188206439e-05 0.00000000000000000e+00 5.57101865825531037e-07 
-2.10301794523752215e-04 0.00000000000000000e+00 -1.20671738130934752e-06 
2.24955972070984108e-04 0.00000000000000000e+00 2.15805371906094918e-06 
2.54799982801421352e-04 0.00000000000000000e+00 2.70266957406718108e-06 
1.88552383566530202e-05 0.00000000000000000e+00 6.41564879759430957e-06 
1.50213206144085695e-04 0.00000000000000000e+00 2.93109193463166248e-06 
2.04034399466293938e-04 0.00000000000000000e+00 2.23245504676567543e-06 
1.88552383845846702e-05 0.00000000000000000e+00 6.41564879789163846e-06 
1.50213206159105798e-04 0.00000000000000000e+00 2.93109193544654884e-06 
1.88552383666224760e-05 0.00000000000000000e+00 6.41564879746397491e-06 
2.55495547398609454e-02 0.00000000000000000e+00 -9.34710552922917576e-04 
2.79999389275646278e-02 0.00000000000000000e+00 -1.08668149498778312e-03 
2.92400733656550602e-02 0.00000000000000000e+00 -1.16788173437871860e-03 
2.52678319838995011e-02 0.00000000000000000e+00 -7.36353047253077674e-04 
2.13583281057483226e-02 0.00000000000000000e+00 -4.69072807238861975e-04 
1.04113860119924694e-02 0.00000000000000000e+00 3.88027865621271429e-05 
7.46546095119488863e-03 0.00000000000000000e+00 9.73175661755916428e-05 
1.00905007928726105e-03 0.00000000000000000e+00 4.98606670323753119e-05 
1.41890596446612787e-04 0.00000000000000000e+00 2.42705060642170411e-05 
-2.10301794526685632e-04 0.00000000000000000e+00 -1.20671738087325430e-06 
-4.19253856115668977e-05 0.00000000000000000e+00 5.57101866463678883e-07 
2.54799982795843349e-04 0.00000000000000000e+00 2.70266957530971743e-06 
2.24955972099077521e-04 0.00000000000000000e+00 2.15805371822746876e-06 
2.68819976642246383e-02 0.00000000000000000e+00 -1.01542825718485357e-03 
2.87449761494131088e-02 0.00000000000000000e+00 -1.09725703699074003e-03 
2.96212776540470298e-02 0.00000000000000000e+00 -1.18506187396709537e-03 
2.69035894423322007e-02 0.00000000000000000e+00 -9.06891860860056256e-04 
2.61926918118965124e-02 0.00000000000000000e+00 -8.25973847561912501e-04 
1.22340905888989292e-02 0.00000000000000000e+00 -1.01196392856928769e-05 
1.42545022139287138e-02 0.00000000000000000e+00 -7.31495509404503391e-05 
1.77677672297684545e-02 0.00000000000000000e+00 -2.37844700697364411e-04 
1.42545022139250778e-02 0.00000000000000000e+00 -7.31495509404773899e-05 
1.65034729657652672e-03 0.00000000000000000e+00 6.38139296107664237e-05 
2.45997610487820161e-03 0.00000000000000000e+00 7.74125423587115408e-05 
4.68311320039663161e-03 0.00000000000000000e+00 1.00345113170616056e-04 
2.45997610487506697e-03 0.00000000000000000e+00 7.74125423585686972e-05 
-2.75031593934584094e-04 0.00000000000000000e+00 -1.06867256351551159e-06 
-3.09045906483178051e-04 0.00000000000000000e+00 3.04664504808860782e-07 
-2.38737024463609647e-04 0.00000000000000000e+00 7.97216347731088063e-06 
-3.09045906483191061e-04 0.00000000000000000e+00 3.04664505307810621e-07 
2.41888707716328709e-04 0.00000000000000000e+00 3.00609857826037203e-06 
2.15633484952070729e-04 0.00000000000000000e+00 3.03398622804606896e-06 
1.09199824340359695e-04 0.00000000000000000e+00 2.27448153495774368e-06 
2.15633484942854143e-04 0.00000000000000000e+00 3.03398622808014001e-06 
-9.94084407635727966e-05 0.00000000000000000e+00 1.48665659353585955e-05 
2.69035894423183888e-02 0.00000000000000000e+00 -9.06891860859834861e-04 
1.94565971390907623e-02 0.00000000000000000e+00 -3.45036031912522979e-04 
1.77677672297628202e-02 0.00000000000000000e+00 -2.37844700697417564e-04 
2.87449761494013717e-02 0.00000000000000000e+00 -1.09725703699062077e-03 
6.06706250735473181e-03 0.00000000000000000e+00 1.04819344848150050e-04 
4.68311320039409285e-03 0.00000000000000000e+00 1.00345113170390406e-04 
-2.38737024474726622e-04 0.00000000000000000e+00 7.97216347674685156e-06 
3.58989862643613661e-05 0.00000000000000000e+00 1.48797122007699295e-06 
1.09199824334808580e-04 0.00000000000000000e+00 2.27448153531872879e-06 
-6.21685368673423897e-04 0.00000000000000000e+00 2.38444054409022233e-05 
-9.24499062879928220e-05 0.00000000000000000e+00 1.09843136778406501e-05 
-2.53701718591872651e-03 0.00000000000000000e+00 1.34123113920110585e-04 
-2.53701718591240171e-03 0.00000000000000000e+00 1.34123113920236732e-04 
-2.53701718592102849e-03 0.00000000000000000e+00 1.34123113919581386e-04 
-6.21685368659901727e-04 0.00000000000000000e+00 2.38444054400121475e-05 
-2.53701718592517968e-03 0.00000000000000000e+00 1.34123113920247845e-04 
2.14682842833994955e-02 0.00000000000000000e+00 -6.94028681874652191e-04 
3.60397562918921585e-04 0.00000000000000000e+00 -3.68737654370502883e-05 
1.23832323002582862e-03 0.00000000000000000e+00 -5.69417637698514369e-05 
9.49775224274631343e-04 0.00000000000000000e+00 -1.22920275428909334e-05 
1.44724029764668912e-04 0.00000000000000000e+00 2.68322038172889163e-05 
-5.22912647097118453e-04 0.00000000000000000e+00 2.25146300919065764e-05 
-7.16422968810639330e-04 0.00000000000000000e+00 -8.83413220006527211e-06 
-4.27327743643039315e-04 0.00000000000000000e+00 -2.93281078528315930e-05 
1.03832209718636152e-04 0.00000000000000000e+00 -2.27401005573709178e-05 
5.25212836985374507e-04 0.00000000000000000e+00 -3.11982486482659506e-06 
6.24834242527102244e-04 0.00000000000000000e+00 9.11716660763753822e-06 
3.91091109692944981e-04 0.00000000000000000e+00 9.69783976768313511e-06 
-7.07469188031981463e-05 0.00000000000000000e+00 1.15344699697550275e-05 
-1.39402946162974308e-03 0.00000000000000000e+00 5.97743685315571801e-05 
3.59388731897127494e-05 0.00000000000000000e+00 -2.11975399343366178e-05 
7.42317517018103827e-04 0.00000000000000000e+00 -5.26400661862976170e-05 
1.16229682308873730e-03 0.00000000000000000e+00 -6.08416751012640311e-05 
1.25271567292532761e-03 0.00000000000000000e+00 -4.87655867832643237e-05 
9.73527226071995181e-04 0.00000000000000000e+00 -5.94239983020789457e-05 
1.09655702406829050e-03 0.00000000000000000e+00 -2.52071631864646949e-05 
7.67696032779104412e-04 0.00000000000000000e+00 4.42175745979995391e-07 
1.20349765166546116e-03 0.00000000000000000e+00 -3.81504224386505604e-05 
3.53664333571067043e-04 0.00000000000000000e+00 2.06746193558182688e-05 
-5.48853242460123103e-05 0.00000000000000000e+00 3.00335759710735141e-05 
5.66352475972052680e-04 0.00000000000000000e+00 1.15954122924684745e-05 
-3.94249255725224253e-04 0.00000000000000000e+00 2.75414674069879879e-05 
-6.20750937585204236e-04 0.00000000000000000e+00 1.57642911243411802e-05 
-2.36263430290271442e-04 0.00000000000000000e+00 3.01477152120687019e-05 
-7.17633125907435592e-04 0.00000000000000000e+00 -5.93814205461815705e-07 
-6.84700673500846999e-04 0.00000000000000000e+00 -1.61873600025897837e-05 
-6.85313989005883703e-04 0.00000000000000000e+00 7.78178509268882276e-06 
-5.36155718173712522e-04 0.00000000000000000e+00 -2.67036942701573029e-05 
-3.03635843514332509e-04 0.00000000000000000e+00 -3.00446057518947629e-05 
-6.22768974345141242e-04 0.00000000000000000e+00 -2.22973861999394093e-05 
-3.19364090500892181e-05 0.00000000000000000e+00 -2.64824099097271483e-05 
2.31504363879285479e-04 0.00000000000000000e+00 -1.81217894853265682e-05 
-1.69338946056637405e-04 0.00000000000000000e+00 -2.90434048059649018e-05 
4.45425503457629914e-04 0.00000000000000000e+00 -7.95707628131483055e-06 
5.84428712381399539e-04 0.00000000000000000e+00 1.25290704476616548e-06 
3.46239092402202890e-04 0.00000000000000000e+00 -1.31147959171496518e-05 
6.33286030986888451e-04 0.00000000000000000e+00 7.39782016265539831e-06 
5.91953442635665848e-04 0.00000000000000000e+00 1.00779599551054848e-05 
6.19782175945554170e-04 0.00000000000000000e+00 4.68784166014578979e-06 
4.71012385191788713e-04 0.00000000000000000e+00 1.00665996823961935e-05 
2.64241873113782140e-04 0.00000000000000000e+00 9.39443256120863190e-06 
5.46734154622308447e-04 0.00000000000000000e+00 1.02982365571600963e-05 
2.44277629391234869e-05 0.00000000000000000e+00 1.04630310169506669e-05 
-3.26187660906901607e-04 0.00000000000000000e+00 1.59829836069800181e-05 
-3.26187660899881181e-04 0.00000000000000000e+00 1.59829836068993399e-05 
1.88650417011652888e-04 0.00000000000000000e+00 9.48056884413381043e-06 
-3.26187660923185456e-04 0.00000000000000000e+00 1.59829836071342730e-05 
-1.39402946161199166e-03 0.00000000000000000e+00 5.97743685306838823e-05 
7.42317517028291858e-04 0.00000000000000000e+00 -5.26400661863046101e-05 
3.59388731953722847e-05 0.00000000000000000e+00 -2.11975399336058655e-05 
1.25271567292240416e-03 0.00000000000000000e+00 -4.87655867840085404e-05 
1.16229682309802024e-03 0.00000000000000000e+00 -6.08416751009473357e-05 
7.67696032780617959e-04 0.00000000000000000e+00 4.42175746525241511e-07 
1.09655702406696973e-03 0.00000000000000000e+00 -2.52071631864627027e-05 
-5.48853242398313822e-05 0.00000000000000000e+00 3.00335759709688886e-05 
3.53664333566793010e-04 0.00000000000000000e+00 2.06746193554722491e-05 
-6.20750937588151965e-04 0.00000000000000000e+00 1.57642911244398290e-05 
-3.94249255726198029e-04 0.00000000000000000e+00 2.75414674068003057e-05 
-6.84700673499057198e-04 0.00000000000000000e+00 -1.61873600025010960e-05 
-7.17633125905197365e-04 0.00000000000000000e+00 -5.93814205039817115e-07 
-3.03635843518638960e-04 0.00000000000000000e+00 -3.00446057513780593e-05 
-5.36155718168022195e-04 0.00000000000000000e+00 -2.67036942703220745e-05 
2.31504363882259663e-04 0.00000000000000000e+00 -1.81217894854420086e-05 
-3.19364090549611890e-05 0.00000000000000000e+00 -2.64824099099124385e-05 
5.84428712381841026e-04 0.00000000000000000e+00 1.25290704511747409e-06 
4.45425503461363038e-04 0.00000000000000000e+00 -7.95707628174393067e-06 
5.91953442647958966e-04 0.00000000000000000e+00 1.00779599544326019e-05 
6.33286030993411879e-04 0.00000000000000000e+00 7.39782016312661968e-06 
2.64241873093597765e-04 0.00000000000000000e+00 9.39443256070461341e-06 
4.71012385195854904e-04 0.00000000000000000e+00 1.00665996820417949e-05 
-9.35675067501392350e-04 0.00000000000000000e+00 3.22903509455099345e-05 
2.44277629437265756e-05 0.00000000000000000e+00 1.04630310171086894e-05 
-9.24499062644612980e-05 0.00000000000000000e+00 1.09843136790172534e-05 
2.76201738286437522e-02 0.00000000000000000e+00 -1.06137097500792039e-03 
2.95404676644425816e-02 0.00000000000000000e+00 -1.17546816295432672e-03 
2.61520303163800295e-02 0.00000000000000000e+00 -8.21442370644915828e-04 
1.94292118805062010e-02 0.00000000000000000e+00 -3.43263555502479095e-04 
1.22258983474316692e-02 0.00000000000000000e+00 -9.88362713979824638e-06 
6.06503732381673179e-03 0.00000000000000000e+00 1.04819232626519773e-04 
1.64939670909783733e-03 0.00000000000000000e+00 6.37957959465538870e-05 
-1.00123415020031271e-04 0.00000000000000000e+00 1.48354374622984733e-05 
-2.74325466801081852e-04 0.00000000000000000e+00 -1.07822612333397207e-06 
3.97025478655765686e-05 0.00000000000000000e+00 1.53149458058328796e-06 
2.45496508263719031e-04 0.00000000000000000e+00 2.97663835386376747e-06 
1.80202868304863741e-04 0.00000000000000000e+00 2.46641079304553976e-06 
2.55495547398683492e-02 0.00000000000000000e+00 -9.34710552922573016e-04 
2.86830878622712539e-02 0.00000000000000000e+00 -1.13246547376920879e-03 
2.77038759411277688e-02 0.00000000000000000e+00 -9.93695848494544325e-04 
2.33817880524639157e-02 0.00000000000000000e+00 -6.03639238521607954e-04 
1.61834313048784262e-02 0.00000000000000000e+00 -1.48977963570217275e-04 
8.83346181751572430e-03 0.00000000000000000e+00 7.44852766815453938e-05 
3.46625587900976917e-03 0.00000000000000000e+00 9.01616284152556840e-05 
5.04182914016261161e-04 0.00000000000000000e+00 3.60907764004357994e-05 
-3.01780525986732929e-04 0.00000000000000000e+00 3.25415156764439755e-06 
-1.28152436134088780e-04 0.00000000000000000e+00 -5.02415623678020625e-07 
1.71658968166649433e-04 0.00000000000000000e+00 2.82161516875147300e-06 
2.46045799883534754e-04 0.00000000000000000e+00 2.29791291825950560e-06 
6.15823126534058312e-05 0.00000000000000000e+00 5.05505706242763601e-06 
-2.13220046609947613e-04 0.00000000000000000e+00 1.89034673787211083e-05 
-2.13220046601710278e-04 0.00000000000000000e+00 1.89034673781900255e-05 
-3.75946945345385518e-04 0.00000000000000000e+00 2.23583533937373133e-05 
-3.75946945346088298e-04 0.00000000000000000e+00 2.23583533932418600e-05 
-2.73635829939796187e-04 0.00000000000000000e+00 2.51777608097240753e-05 
-2.73635829952569389e-04 0.00000000000000000e+00 2.51777608105198119e-05 
-2.13220046605591722e-04 0.00000000000000000e+00 1.89034673785995083e-05 
-3.75946945364923058e-04 0.00000000000000000e+00 2.23583533926100141e-05 
-6.21685368667096927e-04 0.00000000000000000e+00 2.38444054403573303e-05 
-6.21685368676377264e-04 0.00000000000000000e+00 2.38444054397640007e-05 
-6.21685368669333853e-04 0.00000000000000000e+00 2.38444054399360636e-05 
-9.24499062584400728e-05 0.00000000000000000e+00 1.09843136781051141e-05 
-9.24499062638654205e-05 0.00000000000000000e+00 1.09843136784302392e-05 
-9.24499062736900269e-05 0.00000000000000000e+00 1.09843136773716378e-05 
-3.33569300299529307e-04 0.00000000000000000e+00 -1.77355440590708286e-06 
1.01732016117069110e-03 0.00000000000000000e+00 -6.02500825654857263e-05 
1.19899945408279552e-03 0.00000000000000000e+00 -3.74757758836874403e-05 
5.63159486436224234e-04 0.00000000000000000e+00 1.17518788842651867e-05 
-2.36985207038395239e-04 0.00000000000000000e+00 3.01422363449595237e-05 
-6.85382488791952014e-04 0.00000000000000000e+00 7.77008494001176227e-06 
-6.22669592870653895e-04 0.00000000000000000e+00 -2.23044271189602209e-05 
-1.68815957997460849e-04 0.00000000000000000e+00 -2.90364545235625502e-05 
3.47717083177854732e-04 0.00000000000000000e+00 -1.30442385246529277e-05 
6.21014876297732105e-04 0.00000000000000000e+00 4.84243611128136383e-06 
5.35798213373771108e-04 0.00000000000000000e+00 1.02915194146190532e-05 
1.12823768138020273e-04 0.00000000000000000e+00 9.79338450997068508e-06 
-1.39402946162796152e-03 0.00000000000000000e+00 5.97743685307650349e-05 
4.86636744598026934e-04 0.00000000000000000e+00 -4.24849982481037076e-05 
1.24224775723989832e-03 0.00000000000000000e+00 -5.63779280878080611e-05 
9.45756566452534688e-04 0.00000000000000000e+00 -1.19782333336589582e-05 
1.43372892540216494e-04 0.00000000000000000e+00 2.68631345351846929e-05 
-5.23127773097013565e-04 0.00000000000000000e+00 2.25033047446023535e-05 
-7.16407696553511227e-04 0.00000000000000000e+00 -8.84136811277181061e-06 
-4.27124304237587243e-04 0.00000000000000000e+00 -2.93310085469596328e-05 
1.04614981684765485e-04 0.00000000000000000e+00 -2.27150960204239001e-05 
5.26713224183463185e-04 0.00000000000000000e+00 -3.02013728867153095e-06 
6.23241411114608249e-04 0.00000000000000000e+00 9.21973005916376693e-06 
3.63426361959989785e-04 0.00000000000000000e+00 9.59191700776304029e-06 
-2.14796012103905912e-04 0.00000000000000000e+00 1.37527800373862286e-05 
2.14682842833925740e-02 0.00000000000000000e+00 -6.94028681874481754e-04 
2.14682842833901280e-02 0.00000000000000000e+00 -6.94028681874430471e-04 
2.14682842833940658e-02 0.00000000000000000e+00 -6.94028681874325412e-04 
-2.73635829960721831e-04 0.00000000000000000e+00 2.51777608102473756e-05 
-2.13220046613133866e-04 0.00000000000000000e+00 1.89034673786232794e-05 
-3.75946945357534220e-04 0.00000000000000000e+00 2.23583533932190782e-05 
-3.33569300303471466e-04 0.00000000000000000e+00 -1.77355440597324630e-06 
1.01732016116065226e-03 0.00000000000000000e+00 -6.02500825652629025e-05 
1.19899945407900884e-03 0.00000000000000000e+00 -3.74757758836270842e-05 
5.63159486435709888e-04 0.00000000000000000e+00 1.17518788842315137e-05 
-2.36985207032995045e-04 0.00000000000000000e+00 3.01422363449078412e-05 
-6.85382488791500336e-04 0.00000000000000000e+00 7.77008493978662769e-06 
-6.22669592868960371e-04 0.00000000000000000e+00 -2.23044271189466954e-05 
-1.68815957996069601e-04 0.00000000000000000e+00 -2.90364545238120251e-05 
3.47717083177511257e-04 0.00000000000000000e+00 -1.30442385247513190e-05 
6.21014876309738126e-04 0.00000000000000000e+00 4.84243611084415930e-06 
5.35798213376184108e-04 0.00000000000000000e+00 1.02915194151055889e-05 
1.12823768150600487e-04 0.00000000000000000e+00 9.79338451017923137e-06 
-1.39402946162376176e-03 0.00000000000000000e+00 5.97743685311283510e-05 
4.86636744597112735e-04 0.00000000000000000e+00 -4.24849982474457730e-05 
1.24224775723848322e-03 0.00000000000000000e+00 -5.63779280876682939e-05 
9.45756566458541602e-04 0.00000000000000000e+00 -1.19782333333704063e-05 
1.43372892539931132e-04 0.00000000000000000e+00 2.68631345351686467e-05 
-5.23127773098557469e-04 0.00000000000000000e+00 2.25033047445823907e-05 
-7.16407696549869609e-04 0.00000000000000000e+00 -8.84136811291300084e-06 
-4.27124304241855964e-04 0.00000000000000000e+00 -2.93310085469133102e-05 
1.04614981689391993e-04 0.00000000000000000e+00 -2.27150960203370013e-05 
5.26713224182169949e-04 0.00000000000000000e+00 -3.02013728877631909e-06 
6.23241411103095757e-04 0.00000000000000000e+00 9.21973005914636548e-06 
3.63426361959548298e-04 0.00000000000000000e+00 9.59191700834208557e-06 
-2.14796012098123211e-04 0.00000000000000000e+00 1.37527800373982632e-05 
2.14682842833845665e-02 0.00000000000000000e+00 -6.94028681874281936e-04 
2.76201738286268733e-02 0.00000000000000000e+00 -1.06137097500827253e-03 
2.95404676644493297e-02 0.00000000000000000e+00 -1.17546816295478556e-03 
2.61520303163798665e-02 0.00000000000000000e+00 -8.21442370645024899e-04 
1.94292118805116237e-02 0.00000000000000000e+00 -3.43263555501924472e-04 
1.22258983474324429e-02 0.00000000000000000e+00 -9.88362713980925104e-06 
6.06503732381759135e-03 0.00000000000000000e+00 1.04819232626504540e-04 
1.64939670910580578e-03 0.00000000000000000e+00 6.37957959465502549e-05 