# vtk DataFile Version 2.0

ASCII

DATASET UNSTRUCTURED_GRID

POINTS 281 double 

0.00000000000000000e+00  6.00000000000000012e-03  8.68039800000000063e-03
0.00000000000000000e+00  6.00000000000000012e-03  2.15013699999999988e-02
0.00000000000000000e+00  5.99999699999999997e-03  3.38432499999999983e-02
0.00000000000000000e+00  6.00000000000000012e-03  4.61511800000000000e-02
0.00000000000000000e+00  5.99999399999999981e-03  5.84285100000000029e-02
0.00000000000000000e+00  5.99999899999999978e-03  7.03572799999999943e-02
0.00000000000000000e+00  6.00000000000000012e-03  7.56573400000000035e-02
0.00000000000000000e+00  6.00000000000000012e-03  1.52458600000000000e-02
0.00000000000000000e+00  5.99999899999999978e-03  2.76822099999999988e-02
0.00000000000000000e+00  5.99999899999999978e-03  3.99985900000000005e-02
0.00000000000000000e+00  5.99999800000000031e-03  5.22986000000000006e-02
0.00000000000000000e+00  5.99999800000000031e-03  6.44963600000000026e-02
0.00000000000000000e+00  3.00000000000000006e-03  3.07692300000000007e-03
0.00000000000000000e+00  3.00000000000000006e-03  1.04940499999999996e-02
0.00000000000000000e+00  3.00000000000000006e-03  7.41712199999999995e-03
0.00000000000000000e+00  3.00000000000000006e-03  2.30583799999999998e-02
0.00000000000000000e+00  3.00000000000000006e-03  1.99814599999999995e-02
0.00000000000000000e+00  2.99999900000000016e-03  3.53831699999999985e-02
0.00000000000000000e+00  2.99999900000000016e-03  3.23062400000000000e-02
0.00000000000000000e+00  3.00000000000000006e-03  4.76909699999999992e-02
0.00000000000000000e+00  3.00000000000000006e-03  4.46140500000000023e-02
0.00000000000000000e+00  2.99999699999999991e-03  5.99834799999999987e-02
0.00000000000000000e+00  2.99999699999999991e-03  5.69065600000000019e-02
0.00000000000000000e+00  2.99999900000000016e-03  7.21017199999999941e-02
0.00000000000000000e+00  2.99999900000000016e-03  6.90247900000000025e-02
0.00000000000000000e+00  3.00000000000000006e-03  7.78286700000000026e-02
0.00000000000000000e+00  3.00000000000000006e-03  7.47517500000000057e-02
0.00000000000000000e+00  5.99999899999999978e-03  7.30073100000000058e-02
0.00000000000000000e+00  6.00000000000000012e-03  7.78286700000000026e-02
0.00000000000000000e+00  8.99999999999999932e-03  7.47517500000000057e-02
0.00000000000000000e+00  8.99999999999999932e-03  7.78286700000000026e-02
0.00000000000000000e+00  8.99999999999999932e-03  3.07692300000000007e-03
0.00000000000000000e+00  8.99999999999999932e-03  7.41712199999999995e-03
0.00000000000000000e+00  8.99999999999999932e-03  1.04940499999999996e-02
0.00000000000000000e+00  8.99999999999999932e-03  1.99814599999999995e-02
0.00000000000000000e+00  8.99999999999999932e-03  2.30583799999999998e-02
0.00000000000000000e+00  8.99999899999999985e-03  3.23062400000000000e-02
0.00000000000000000e+00  8.99999899999999985e-03  3.53831699999999985e-02
0.00000000000000000e+00  8.99999999999999932e-03  4.46140500000000023e-02
0.00000000000000000e+00  8.99999999999999932e-03  4.76909699999999992e-02
0.00000000000000000e+00  8.99999699999999916e-03  5.69065600000000019e-02
0.00000000000000000e+00  8.99999699999999916e-03  5.99834799999999987e-02
0.00000000000000000e+00  8.99999899999999985e-03  6.90247900000000025e-02
0.00000000000000000e+00  8.99999899999999985e-03  7.21017199999999941e-02
0.00000000000000000e+00  6.00000000000000012e-03  4.34019900000000031e-03
0.00000000000000000e+00  3.00000000000000006e-03  1.37767800000000006e-02
0.00000000000000000e+00  6.00000000000000012e-03  1.19631300000000006e-02
0.00000000000000000e+00  3.00000000000000006e-03  1.68536999999999992e-02
0.00000000000000000e+00  6.00000000000000012e-03  1.83736200000000002e-02
0.00000000000000000e+00  5.99999800000000031e-03  3.07627299999999985e-02
0.00000000000000000e+00  3.00000000000000006e-03  2.92257200000000002e-02
0.00000000000000000e+00  3.00000000000000006e-03  2.61487999999999998e-02
0.00000000000000000e+00  8.99999999999999932e-03  2.92257200000000002e-02
0.00000000000000000e+00  6.00000000000000012e-03  4.30748800000000029e-02
0.00000000000000000e+00  2.99999900000000016e-03  4.15377600000000000e-02
0.00000000000000000e+00  2.99999900000000016e-03  3.84608300000000014e-02
0.00000000000000000e+00  8.99999899999999985e-03  4.15377600000000000e-02
0.00000000000000000e+00  5.99999599999999963e-03  5.53635499999999975e-02
0.00000000000000000e+00  2.99999900000000016e-03  5.38416099999999981e-02
0.00000000000000000e+00  2.99999900000000016e-03  5.07646799999999995e-02
0.00000000000000000e+00  8.99999899999999985e-03  5.38416099999999981e-02
0.00000000000000000e+00  5.99999800000000031e-03  6.74268199999999984e-02
0.00000000000000000e+00  2.99999900000000016e-03  6.60943300000000067e-02
0.00000000000000000e+00  2.99999900000000016e-03  6.30174099999999959e-02
0.00000000000000000e+00  8.99999899999999985e-03  6.60943300000000067e-02
0.00000000000000000e+00  5.99999899999999978e-03  4.92248900000000003e-02
0.00000000000000000e+00  8.99999999999999932e-03  1.68536999999999992e-02
0.00000000000000000e+00  5.99999899999999978e-03  2.45917899999999988e-02
0.00000000000000000e+00  8.99999999999999932e-03  2.61487999999999998e-02
0.00000000000000000e+00  8.99999999999999932e-03  1.37767800000000006e-02
0.00000000000000000e+00  5.99999800000000031e-03  3.69209200000000029e-02
0.00000000000000000e+00  8.99999899999999985e-03  3.84608300000000014e-02
0.00000000000000000e+00  8.99999899999999985e-03  5.07646799999999995e-02
0.00000000000000000e+00  5.99999599999999963e-03  6.14624299999999985e-02
0.00000000000000000e+00  8.99999899999999985e-03  6.30174099999999959e-02
1.20000000000000002e-02  1.20000000000000002e-02  8.00000000000000017e-02
0.00000000000000000e+00  0.00000000000000000e+00  8.00000000000000017e-02
1.20000000000000002e-02  6.00000000000000012e-03  0.00000000000000000e+00
1.20000000000000002e-02  3.00000000000000006e-03  0.00000000000000000e+00
1.20000000000000002e-02  8.99999999999999932e-03  0.00000000000000000e+00
1.20000000000000002e-02  0.00000000000000000e+00  8.00000000000000017e-02
1.20000000000000002e-02  0.00000000000000000e+00  0.00000000000000000e+00
0.00000000000000000e+00  1.20000000000000002e-02  0.00000000000000000e+00
1.20000000000000002e-02  5.99999899999999978e-03  8.68039699999999942e-03
1.20000000000000002e-02  5.99999899999999978e-03  1.52458600000000000e-02
1.20000000000000002e-02  5.99999899999999978e-03  2.15013699999999988e-02
1.20000000000000002e-02  6.00000000000000012e-03  2.76822099999999988e-02
1.20000000000000002e-02  5.99999899999999978e-03  3.38432399999999967e-02
1.20000000000000002e-02  5.99999800000000031e-03  3.99985900000000005e-02
1.20000000000000002e-02  5.99999699999999997e-03  4.61511800000000000e-02
1.20000000000000002e-02  5.99999300000000034e-03  5.22986100000000023e-02
1.20000000000000002e-02  5.99998599999999969e-03  5.84285400000000010e-02
1.20000000000000002e-02  5.99997800000000043e-03  6.44963800000000059e-02
1.20000000000000002e-02  5.99997500000000027e-03  7.03572999999999976e-02
1.20000000000000002e-02  5.99997500000000027e-03  7.56573600000000068e-02
1.20000000000000002e-02  3.00000000000000006e-03  3.07692300000000007e-03
1.20000000000000002e-02  3.00000000000000006e-03  7.41712099999999961e-03
1.20000000000000002e-02  3.00000000000000006e-03  1.04940399999999996e-02
1.20000000000000002e-02  2.99999900000000016e-03  1.37767800000000006e-02
1.20000000000000002e-02  2.99999900000000016e-03  1.68536999999999992e-02
1.20000000000000002e-02  5.99999899999999978e-03  1.19631300000000006e-02
1.20000000000000002e-02  3.00000000000000006e-03  1.99814500000000013e-02
1.20000000000000002e-02  3.00000000000000006e-03  2.30583799999999998e-02
1.20000000000000002e-02  5.99999899999999978e-03  1.83736099999999986e-02
1.20000000000000002e-02  3.00000000000000006e-03  2.61487999999999998e-02
1.20000000000000002e-02  3.00000000000000006e-03  2.92257200000000002e-02
1.20000000000000002e-02  5.99999899999999978e-03  2.45917899999999988e-02
1.20000000000000002e-02  3.00000000000000006e-03  3.23062299999999983e-02
1.20000000000000002e-02  3.00000000000000006e-03  3.53831599999999968e-02
1.20000000000000002e-02  5.99999899999999978e-03  3.07627200000000003e-02
1.20000000000000002e-02  2.99999900000000016e-03  3.84608300000000014e-02
1.20000000000000002e-02  2.99999900000000016e-03  4.15377499999999983e-02
1.20000000000000002e-02  5.99999899999999978e-03  3.69209100000000012e-02
1.20000000000000002e-02  2.99999799999999981e-03  4.46140500000000023e-02
1.20000000000000002e-02  2.99999799999999981e-03  4.76909800000000009e-02
1.20000000000000002e-02  5.99999800000000031e-03  4.30748800000000029e-02
1.20000000000000002e-02  2.99999699999999991e-03  5.07646900000000012e-02
1.20000000000000002e-02  2.99999699999999991e-03  5.38416099999999981e-02
1.20000000000000002e-02  5.99999500000000015e-03  4.92249000000000020e-02
1.20000000000000002e-02  2.99999299999999984e-03  5.69065799999999983e-02
1.20000000000000002e-02  2.99999299999999984e-03  5.99835000000000021e-02
1.20000000000000002e-02  5.99999000000000018e-03  5.53635800000000025e-02
1.20000000000000002e-02  2.99998900000000021e-03  6.30174200000000045e-02
1.20000000000000002e-02  2.99998900000000021e-03  6.60943499999999962e-02
1.20000000000000002e-02  5.99998200000000006e-03  6.14624599999999965e-02
1.20000000000000002e-02  2.99998799999999987e-03  6.90248100000000059e-02
1.20000000000000002e-02  2.99998799999999987e-03  7.21017300000000028e-02
1.20000000000000002e-02  5.99997700000000009e-03  6.74268400000000018e-02
1.20000000000000002e-02  2.99998699999999997e-03  7.47517600000000004e-02
1.20000000000000002e-02  2.99998699999999997e-03  7.78286799999999973e-02
1.20000000000000002e-02  5.99998700000000003e-03  7.78286799999999973e-02
1.20000000000000002e-02  5.99997500000000027e-03  7.30073299999999953e-02
1.20000000000000002e-02  8.99998699999999922e-03  7.78286799999999973e-02
1.20000000000000002e-02  8.99999999999999932e-03  3.07692300000000007e-03
[...]
POINT_DATA 281

SCALARS Rank unsigned_int
LOOKUP_TABLE default
0 0 0 0 0 0 0 0 0 0 0 0 0 0 0 0 0 0 0 0 0 0 0 0 0 0 0 0 0 0 0 0 0 0 0 0 0 0 0 0 0 0 0 0 0 0 0 0 0 0 0 0 0 0 0 0 0 0 0 0 0 0 0 0 0 0 0 0 0 0 0 0 0 0 0 0 0 0 0 0 0 0 0 0 0 0 0 0 0 0 0 0 0 0 0 0 0 0 0 0 0 0 0 0 0 0 0 0 0 0 0 0 0 0 0 0 0 0 0 0 0 0 0 0 0 0 0 0 0 0 0 0 0 0 0 0 0 0 0 0 0 0 0 0 0 0 0 0 0 0 0 0 0 0 0 0 0 0 0 0 0 0 0 0 0 0 0 0 0 0 0 0 0 0 0 0 0 0 0 0 0 0 0 0 0 0 0 0 0 0 0 0 0 0 0 0 0 0 0 0 0 0 0 0 0 0 0 0 0 0 0 0 0 0 0 0 0 0 0 0 0 0 0 0 0 0 0 0 0 0 0 0 0 0 0 0 0 0 0 0 0 0 0 0 0 0 0 0 0 0 0 0 0 0 0 0 0 0 0 0 0 0 0 0 0 0 0 0 0 0 0 0 0 0 0 0 0 0 0 0 0 

VECTORS Forces0 double
2.89194442929412987e-02 0.00000000000000000e+00 -1.38178422215959698e-03 
2.53637030490545153e-02 0.00000000000000000e+00 -9.28112137271109119e-04 
1.25724037233263218e-02 0.00000000000000000e+00 2.17992087049276271e-05 
1.57681641446950037e-03 0.00000000000000000e+00 6.42232260522373653e-05 
-2.46594282127741299e-04 0.00000000000000000e+00 3.42450394013219166e-06 
1.65577829730193438e-04 0.00000000000000000e+00 1.77154884732133863e-06 
6.87640083407066731e-05 0.00000000000000000e+00 5.38006204706503861e-07 
2.85989458831006210e-02 0.00000000000000000e+00 -1.33289518996151761e-03 
1.96183539768923360e-02 0.00000000000000000e+00 -3.56828150422116826e-04 
6.07510599213556546e-03 0.00000000000000000e+00 1.11648413830228710e-04 
-1.34305446291908468e-04 0.00000000000000000e+00 1.61066991715787073e-05 
3.78911360411820293e-05 0.00000000000000000e+00 3.96757379243287168e-06 
2.61257652054062463e-02 0.00000000000000000e+00 -1.11418815095957763e-03 
2.97213400580401445e-02 0.00000000000000000e+00 -1.46548549790057612e-03 
2.84768121624397290e-02 0.00000000000000000e+00 -1.33051368136334440e-03 
2.36496348563379685e-02 0.00000000000000000e+00 -7.59206682293882642e-04 
2.68822093415214229e-02 0.00000000000000000e+00 -1.08107387933118371e-03 
1.11527685497841787e-02 0.00000000000000000e+00 7.27641207840847162e-05 
1.41352669422068252e-02 0.00000000000000000e+00 -4.81622400639914694e-05 
9.16373678804486311e-04 0.00000000000000000e+00 4.86644260527868753e-05 
2.42337131134068686e-03 0.00000000000000000e+00 8.05842422135559608e-05 
-1.74503878900481127e-04 0.00000000000000000e+00 3.60005476765699727e-06 
-2.95078747460490959e-04 0.00000000000000000e+00 4.03235951313325154e-06 
1.53211699736846449e-04 0.00000000000000000e+00 7.62045851588457143e-07 
1.59956717735772018e-04 0.00000000000000000e+00 2.62701582728608657e-06 
-1.37425593594875140e-05 0.00000000000000000e+00 2.44642757311824872e-06 
9.67423842811692260e-05 0.00000000000000000e+00 2.53014718339545521e-07 
1.38658558949331426e-04 0.00000000000000000e+00 4.01430414310427710e-07 
-1.37425593580654745e-05 0.00000000000000000e+00 2.44642757259581235e-06 
9.67423842365742559e-05 0.00000000000000000e+00 2.53014718991015501e-07 
-1.37425593500193933e-05 0.00000000000000000e+00 2.44642757229685715e-06 
2.61257652054019164e-02 0.00000000000000000e+00 -1.11418815095876253e-03 
2.84768121624343097e-02 0.00000000000000000e+00 -1.33051368136368809e-03 
2.97213400580456574e-02 0.00000000000000000e+00 -1.46548549790021031e-03 
2.68822093414991907e-02 0.00000000000000000e+00 -1.08107387933230868e-03 
2.36496348563318866e-02 0.00000000000000000e+00 -7.59206682294409022e-04 
1.41352669422081540e-02 0.00000000000000000e+00 -4.81622400644978461e-05 
1.11527685497757618e-02 0.00000000000000000e+00 7.27641207843077908e-05 
2.42337131135431398e-03 0.00000000000000000e+00 8.05842422143533915e-05 
9.16373678807615752e-04 0.00000000000000000e+00 4.86644260531554770e-05 
-2.95078747466689993e-04 0.00000000000000000e+00 4.03235951417983189e-06 
-1.74503878915171633e-04 0.00000000000000000e+00 3.60005476746829189e-06 
1.59956717745379784e-04 0.00000000000000000e+00 2.62701582709323411e-06 
1.53211699724601470e-04 0.00000000000000000e+00 7.62045852532431317e-07 
2.74381580739614522e-02 0.00000000000000000e+00 -1.21744419187683759e-03 
2.94037471457249400e-02 0.00000000000000000e+00 -1.42543410662763353e-03 
3.01567593602749331e-02 0.00000000000000000e+00 -1.50626441694444576e-03 
2.79355167835988599e-02 0.00000000000000000e+00 -1.24307443766726272e-03 
2.74859674868053842e-02 0.00000000000000000e+00 -1.16927077574812744e-03 
1.59146237358664434e-02 0.00000000000000000e+00 -1.36685214845298070e-04 
1.78592440133251394e-02 0.00000000000000000e+00 -2.42257006454924765e-04 
2.08415298401140835e-02 0.00000000000000000e+00 -4.71833583257834561e-04 
1.78592440133488427e-02 0.00000000000000000e+00 -2.42257006455011555e-04 
3.43518917104279056e-03 0.00000000000000000e+00 9.45574670288077806e-05 
4.64289540227642936e-03 0.00000000000000000e+00 1.05088937756629342e-04 
7.72586987317405629e-03 0.00000000000000000e+00 1.11765695500018917e-04 
4.64289540226645210e-03 0.00000000000000000e+00 1.05088937756778528e-04 
-3.05592515045628960e-04 0.00000000000000000e+00 6.05978470610176443e-06 
-2.58185777690207773e-04 0.00000000000000000e+00 9.95707535118011222e-06 
8.52679974097505578e-05 0.00000000000000000e+00 2.43878321069675809e-05 
-2.58185777693066597e-04 0.00000000000000000e+00 9.95707535065560231e-06 
1.34145806778805774e-04 0.00000000000000000e+00 3.44717002854605114e-06 
9.71936652930436944e-05 0.00000000000000000e+00 3.80704396896198461e-06 
-2.74193546818741378e-05 0.00000000000000000e+00 3.90740156069309382e-06 
9.71936653074384298e-05 0.00000000000000000e+00 3.80704396892628725e-06 
4.26218070901752586e-04 0.00000000000000000e+00 3.52118280155436819e-05 
2.79355167835945092e-02 0.00000000000000000e+00 -1.24307443766681711e-03 
2.21305370564482823e-02 0.00000000000000000e+00 -6.05692639734894847e-04 
2.08415298401182017e-02 0.00000000000000000e+00 -4.71833583257727659e-04 
2.94037471457437166e-02 0.00000000000000000e+00 -1.42543410662830552e-03 
9.50968660664272894e-03 0.00000000000000000e+00 1.01405100151226893e-04 
7.72586987317064062e-03 0.00000000000000000e+00 1.11765695499715611e-04 
8.52679974159105609e-05 0.00000000000000000e+00 2.43878321059936149e-05 
-1.02511109559337983e-04 0.00000000000000000e+00 3.75882236020319063e-06 
-2.74193547037264495e-05 0.00000000000000000e+00 3.90740156020899755e-06 
-5.23362146500639183e-04 0.00000000000000000e+00 2.73749322371974842e-05 
-1.08355660249611428e-04 0.00000000000000000e+00 6.61040090242203623e-06 
-2.41698329889369510e-03 0.00000000000000000e+00 1.73033546051182279e-04 
-2.41698329891435219e-03 0.00000000000000000e+00 1.73033546050057149e-04 
-2.41698329890211372e-03 0.00000000000000000e+00 1.73033546051297801e-04 
-5.23362146484501051e-04 0.00000000000000000e+00 2.73749322365888945e-05 
-2.41698329890195933e-03 0.00000000000000000e+00 1.73033546051069035e-04 
2.20729015114073772e-02 0.00000000000000000e+00 -8.17296884192418843e-04 
2.29099617118329985e-04 0.00000000000000000e+00 -4.17896076560543493e-05 
1.01006156791391710e-03 0.00000000000000000e+00 -7.40241350924224862e-05 
8.87847893169950528e-04 0.00000000000000000e+00 -2.61617916642706671e-05 
3.70434510776525240e-04 0.00000000000000000e+00 2.63943259203234665e-05 
-1.96247543803026813e-04 0.00000000000000000e+00 3.35375091191087769e-05 
-5.95277743164448667e-04 0.00000000000000000e+00 1.39594313890626685e-07 
-5.90360489483565069e-04 0.00000000000000000e+00 -3.15323655940142524e-05 
-1.57751199141230037e-04 0.00000000000000000e+00 -3.20547597526728176e-05 
3.57291490904459259e-04 0.00000000000000000e+00 -1.05458809096386317e-05 
6.03915253694892141e-04 0.00000000000000000e+00 7.51888528729766666e-06 
4.66586267238277576e-04 0.00000000000000000e+00 1.16108716857226273e-05 
3.45913854976701097e-05 0.00000000000000000e+00 1.39450931682159395e-05 
-1.34774803281217177e-03 0.00000000000000000e+00 7.91435601313730444e-05 
-5.63085422825306106e-05 0.00000000000000000e+00 -2.18317973878651398e-05 
5.62339190433121987e-04 0.00000000000000000e+00 -6.25945109540135600e-05 
9.33672758142988358e-04 0.00000000000000000e+00 -7.66468560500431191e-05 
1.04247297813181666e-03 0.00000000000000000e+00 -6.63848847507468749e-05 
7.64216243391442054e-04 0.00000000000000000e+00 -7.25002133696304768e-05 
9.72474212829704679e-04 0.00000000000000000e+00 -4.11392820912779899e-05 
7.78437440137497183e-04 0.00000000000000000e+00 -1.06603875911363774e-05 
1.02712754552456288e-03 0.00000000000000000e+00 -5.53700922713620260e-05 
5.13947380857215940e-04 0.00000000000000000e+00 1.65050098753376645e-05 
2.24295331872381579e-04 0.00000000000000000e+00 3.32225727206183073e-05 
6.52144450346033803e-04 0.00000000000000000e+00 3.78254034954832374e-06 
-6.24485519086715243e-05 0.00000000000000000e+00 3.66937202643455849e-05 
-3.20083920129303294e-04 0.00000000000000000e+00 2.77189227275117873e-05 
7.89013270509739991e-05 0.00000000000000000e+00 3.66107482164243004e-05 
-5.24033398247202172e-04 0.00000000000000000e+00 1.02474016443701779e-05 
-6.40868840930610144e-04 0.00000000000000000e+00 -9.67403364789358484e-06 
-4.30377280523285878e-04 0.00000000000000000e+00 1.96482653594595228e-05 
-6.39208143567731213e-04 0.00000000000000000e+00 -2.60213907575289617e-05 
-5.13494696632066242e-04 0.00000000000000000e+00 -3.48076998248033056e-05 
-6.55494967291313083e-04 0.00000000000000000e+00 -1.86468862915421617e-05 
-2.90863478118303992e-04 0.00000000000000000e+00 -3.48797568284586098e-05 
-2.00090410081257394e-05 0.00000000000000000e+00 -2.77218481859606633e-05 
-4.11172606633971151e-04 0.00000000000000000e+00 -3.59156371363138661e-05 
2.43329289778872719e-04 0.00000000000000000e+00 -1.65129606148139044e-05 
4.54446500336884397e-04 0.00000000000000000e+00 -4.75753684062378682e-06 
1.15289521365021265e-04 0.00000000000000000e+00 -2.24433453961436880e-05 
5.78448519989869592e-04 0.00000000000000000e+00 4.40697900706227565e-06 
6.03802477808073777e-04 0.00000000000000000e+00 9.79950849122544495e-06 
5.26987122645945294e-04 0.00000000000000000e+00 1.43939807066563335e-07 
5.30553558340962021e-04 0.00000000000000000e+00 1.15172973780042016e-05 
3.55242213752589655e-04 0.00000000000000000e+00 1.16434303652886876e-05 
5.82440714092718700e-04 0.00000000000000000e+00 1.09291032864486263e-05 
1.28148766121013465e-04 0.00000000000000000e+00 1.28502246530283974e-05 
-2.21449994753604332e-04 0.00000000000000000e+00 1.86423787442798847e-05 
-2.21449994777815867e-04 0.00000000000000000e+00 1.86423787461449563e-05 
2.85394088665083859e-04 0.00000000000000000e+00 1.18098293043535875e-05 
-2.21449994774627445e-04 0.00000000000000000e+00 1.86423787455450944e-05 
-1.34774803281036940e-03 0.00000000000000000e+00 7.91435601315790971e-05 
5.62339190435818615e-04 0.00000000000000000e+00 -6.25945109544328210e-05 
-5.63085422840693103e-05 0.00000000000000000e+00 -2.18317973871966750e-05 
1.04247297812669966e-03 0.00000000000000000e+00 -6.63848847509378572e-05 
9.33672758158989448e-04 0.00000000000000000e+00 -7.66468560496188031e-05 
7.78437440128747237e-04 0.00000000000000000e+00 -1.06603875906448239e-05 
9.72474212819576930e-04 0.00000000000000000e+00 -4.11392820909031338e-05 
2.24295331877040179e-04 0.00000000000000000e+00 3.32225727199505472e-05 
5.13947380851558790e-04 0.00000000000000000e+00 1.65050098757998192e-05 
-3.20083920128290216e-04 0.00000000000000000e+00 2.77189227276462148e-05 
-6.24485519202469004e-05 0.00000000000000000e+00 3.66937202640013575e-05 
-6.40868840928902200e-04 0.00000000000000000e+00 -9.67403364750798834e-06 
-5.24033398252858888e-04 0.00000000000000000e+00 1.02474016447937622e-05 
-5.13494696627825710e-04 0.00000000000000000e+00 -3.48076998247608319e-05 
-6.39208143567730996e-04 0.00000000000000000e+00 -2.60213907577559395e-05 
-2.00090410083707691e-05 0.00000000000000000e+00 -2.77218481858840915e-05 
-2.90863478117076241e-04 0.00000000000000000e+00 -3.48797568284344591e-05 
4.54446500353648765e-04 0.00000000000000000e+00 -4.75753684100572414e-06 
2.43329289783271110e-04 0.00000000000000000e+00 -1.65129606142849493e-05 
6.03802477805759656e-04 0.00000000000000000e+00 9.79950849081792046e-06 
5.78448519987457459e-04 0.00000000000000000e+00 4.40697900740618458e-06 
3.55242213757542291e-04 0.00000000000000000e+00 1.16434303650760213e-05 
5.30553558329589173e-04 0.00000000000000000e+00 1.15172973770478268e-05 
-9.28038190507878523e-04 0.00000000000000000e+00 4.49473164508426234e-05 
1.28148766114339116e-04 0.00000000000000000e+00 1.28502246546412023e-05 
-1.08355660269288397e-04 0.00000000000000000e+00 6.61040090331052635e-06 
2.81257168549998403e-02 0.00000000000000000e+00 -1.28740463232011187e-03 
3.00942530917341737e-02 0.00000000000000000e+00 -1.49938053471723514e-03 
2.74618535307813195e-02 0.00000000000000000e+00 -1.16510973928213735e-03 
2.21092047202801796e-02 0.00000000000000000e+00 -6.03492445017084125e-04 
1.59066656796594784e-02 0.00000000000000000e+00 -1.36273330784162663e-04 
9.50715918206604914e-03 0.00000000000000000e+00 1.01429795241141148e-04 
3.43373187326059381e-03 0.00000000000000000e+00 9.45414933643074038e-05 
4.24642283348332838e-04 0.00000000000000000e+00 3.51652198184140743e-05 
-3.05806106909362269e-04 0.00000000000000000e+00 6.01993352035108605e-06 
-9.87940564472962625e-05 0.00000000000000000e+00 3.76658117778688416e-06 
1.39933125050671468e-04 0.00000000000000000e+00 3.34496347388540747e-06 
1.20581695439162559e-04 0.00000000000000000e+00 2.27222751511043425e-07 
2.61257652054158809e-02 0.00000000000000000e+00 -1.11418815095959195e-03 
2.91464704990405804e-02 0.00000000000000000e+00 -1.40654869659378968e-03 
2.85304132566385690e-02 0.00000000000000000e+00 -1.32443715265566364e-03 
2.53221839759472031e-02 0.00000000000000000e+00 -9.24044123864744583e-04 
1.96094603481136616e-02 0.00000000000000000e+00 -3.56099749367413628e-04 
1.25696417894146460e-02 0.00000000000000000e+00 2.19135491843591945e-05 
6.07368684301428426e-03 0.00000000000000000e+00 1.11644885573239282e-04 
1.57550954739463993e-03 0.00000000000000000e+00 6.41949885326150067e-05 
-1.35304475303667834e-04 0.00000000000000000e+00 1.60637317983649530e-05 
-2.45239468428555779e-04 0.00000000000000000e+00 3.42240854091619457e-06 
4.27600550983572907e-05 0.00000000000000000e+00 3.96505484309575977e-06 
1.64580919819411312e-04 0.00000000000000000e+00 1.51171893340468739e-06 
2.27099800984342237e-05 0.00000000000000000e+00 1.40959290179291876e-06 
-2.12603331745091261e-04 0.00000000000000000e+00 1.42105793109381140e-05 
-2.12603331758523225e-04 0.00000000000000000e+00 1.42105793105143672e-05 
-2.98040313510720381e-04 0.00000000000000000e+00 2.09621020225687991e-05 
-2.98040313531626401e-04 0.00000000000000000e+00 2.09621020220664611e-05 
-2.35137004798195270e-04 0.00000000000000000e+00 2.07432539381606886e-05 
-2.35137004815668055e-04 0.00000000000000000e+00 2.07432539359723891e-05 
-2.12603331762128847e-04 0.00000000000000000e+00 1.42105793103571985e-05 
-2.98040313514087046e-04 0.00000000000000000e+00 2.09621020224095433e-05 
-5.23362146478655033e-04 0.00000000000000000e+00 2.73749322374733324e-05 
-5.23362146483844458e-04 0.00000000000000000e+00 2.73749322371122660e-05 
-5.23362146480699404e-04 0.00000000000000000e+00 2.73749322378515292e-05 
-1.08355660263678735e-04 0.00000000000000000e+00 6.61040090323494391e-06 
-1.08355660269186915e-04 0.00000000000000000e+00 6.61040090236424825e-06 
-1.08355660263551233e-04 0.00000000000000000e+00 6.61040090377719407e-06 
-3.84802229222361422e-04 0.00000000000000000e+00 2.54496720578416672e-06 
8.02808033254438390e-04 0.00000000000000000e+00 -7.39370277081344458e-05 
1.02507253332747867e-03 0.00000000000000000e+00 -5.46472021362584765e-05 
6.50108015074592769e-04 0.00000000000000000e+00 3.99256845175338976e-06 
7.82923100600128229e-05 0.00000000000000000e+00 3.66180625063839468e-05 
-4.30522324586197190e-04 0.00000000000000000e+00 1.96357623725523633e-05 
-6.55494121501104272e-04 0.00000000000000000e+00 -1.86578491632560564e-05 
-4.10743292929025309e-04 0.00000000000000000e+00 -3.59156875131046583e-05 
1.17112528575567836e-04 0.00000000000000000e+00 -2.23654333920659383e-05 
5.30118071862305381e-04 0.00000000000000000e+00 3.75012316725960604e-07 
5.75840810901868862e-04 0.00000000000000000e+00 1.10798365837407028e-05 
2.13593390189649592e-04 0.00000000000000000e+00 1.21605326591713131e-05 
-1.34774803281405221e-03 0.00000000000000000e+00 7.91435601321476527e-05 
3.39465458054965868e-04 0.00000000000000000e+00 -4.90632915350908014e-05 
1.01481046532812228e-03 0.00000000000000000e+00 -7.35410798973961055e-05 
8.85473376516889075e-04 0.00000000000000000e+00 -2.57890470079315337e-05 
3.69478767811148065e-04 0.00000000000000000e+00 2.64497088492999196e-05 
-1.96492430410697062e-04 0.00000000000000000e+00 3.35288758273217537e-05 
-5.95332061262184953e-04 0.00000000000000000e+00 1.30341706847658199e-07 
-5.90250431837894608e-04 0.00000000000000000e+00 -3.15400474157534588e-05 
-1.56944732131517230e-04 0.00000000000000000e+00 -3.20332954191574558e-05 
3.59574043766801798e-04 0.00000000000000000e+00 -1.04184815641221624e-05 
6.04917353339758448e-04 0.00000000000000000e+00 7.72728300249301603e-06 
4.43142480502911270e-04 0.00000000000000000e+00 1.16102149268842384e-05 
-1.09046667086451303e-04 0.00000000000000000e+00 1.62569763856056080e-05 
2.20729015114172721e-02 0.00000000000000000e+00 -8.17296884194124943e-04 
2.20729015114116932e-02 0.00000000000000000e+00 -8.17296884193740593e-04 
2.20729015114069678e-02 0.00000000000000000e+00 -8.17296884193963289e-04 
-2.35137004803298176e-04 0.00000000000000000e+00 2.07432539374196974e-05 
-2.12603331752685013e-04 0.00000000000000000e+00 1.42105793100222478e-05 
-2.98040313507463872e-04 0.00000000000000000e+00 2.09621020226039814e-05 
-3.84802229223044035e-04 0.00000000000000000e+00 2.54496720577026183e-06 
8.02808033239442572e-04 0.00000000000000000e+00 -7.39370277074114050e-05 
1.02507253332205853e-03 0.00000000000000000e+00 -5.46472021359771802e-05 
6.50108015071234344e-04 0.00000000000000000e+00 3.99256845179547036e-06 
7.82923100613607030e-05 0.00000000000000000e+00 3.66180625058248915e-05 
-4.30522324582534321e-04 0.00000000000000000e+00 1.96357623725851740e-05 
-6.55494121484922121e-04 0.00000000000000000e+00 -1.86578491630302984e-05 
-4.10743292931089630e-04 0.00000000000000000e+00 -3.59156875131943761e-05 
1.17112528579650508e-04 0.00000000000000000e+00 -2.23654333926124304e-05 
5.30118071865672480e-04 0.00000000000000000e+00 3.75012316972535283e-07 
5.75840810910130483e-04 0.00000000000000000e+00 1.10798365840190446e-05 
2.13593390180160655e-04 0.00000000000000000e+00 1.21605326592048150e-05 
-1.34774803281413808e-03 0.00000000000000000e+00 7.91435601322308652e-05 
3.39465458062062622e-04 0.00000000000000000e+00 -4.90632915352146850e-05 
1.01481046533202367e-03 0.00000000000000000e+00 -7.35410798974318164e-05 
8.85473376517910827e-04 0.00000000000000000e+00 -2.57890470079955931e-05 
3.69478767814496948e-04 0.00000000000000000e+00 2.64497088492941055e-05 
-1.96492430410882677e-04 0.00000000000000000e+00 3.35288758269212291e-05 
-5.95332061263082564e-04 0.00000000000000000e+00 1.30341706239095519e-07 
-5.90250431838308773e-04 0.00000000000000000e+00 -3.15400474161130616e-05 
-1.56944732136835458e-04 0.00000000000000000e+00 -3.20332954191379131e-05 
3.59574043772936647e-04 0.00000000000000000e+00 -1.04184815642946047e-05 
6.04917353342271195e-04 0.00000000000000000e+00 7.72728300226018361e-06 
4.43142480511047991e-04 0.00000000000000000e+00 1.16102149270317712e-05 
-1.09046667081500403e-04 0.00000000000000000e+00 1.62569763853385690e-05 
2.20729015114165573e-02 0.00000000000000000e+00 -8.17296884193340956e-04 
2.81257168550029558e-02 0.00000000000000000e+00 -1.28740463231998806e-03 
3.00942530917303712e-02 0.00000000000000000e+00 -1.49938053471681664e-03 
2.74618535307822563e-02 0.00000000000000000e+00 -1.16510973928262850e-03 
2.21092047202833923e-02 0.00000000000000000e+00 -6.03492445017258573e-04 
1.59066656796632115e-02 0.00000000000000000e+00 -1.36273330784208633e-04 
9.50715918206864255e-03 0.00000000000000000e+00 1.01429795241393225e-04 
3.43373187326501041e-03 0.00000000000000000e+00 9.45414933642383401e-05 