# vtk DataFile Version 2.0

ASCII

DATASET UNSTRUCTURED_GRID

POINTS 281 double 

0.00000000000000000e+00  6.00000000000000012e-03  8.68039800000000063e-03
0.00000000000000000e+00  6.00000000000000012e-03  2.15013699999999988e-02
0.00000000000000000e+00  5.99999699999999997e-03  3.38432499999999983e-02
0.00000000000000000e+00  6.00000000000000012e-03  4.61511800000000000e-02
0.00000000000000000e+00  5.99999399999999981e-03  5.84285100000000029e-02
0.00000000000000000e+00  5.99999899999999978e-03  7.03572799999999943e-02
0.00000000000000000e+00  6.00000000000000012e-03  7.56573400000000035e-02
0.00000000000000000e+00  6.00000000000000012e-03  1.52458600000000000e-02
0.00000000000000000e+00  5.99999899999999978e-03  2.76822099999999988e-02
0.00000000000000000e+00  5.99999899999999978e-03  3.99985900000000005e-02
0.00000000000000000e+00  5.99999800000000031e-03  5.22986000000000006e-02
0.00000000000000000e+00  5.99999800000000031e-03  6.44963600000000026e-02
0.00000000000000000e+00  3.00000000000000006e-03  3.07692300000000007e-03
0.00000000000000000e+00  3.00000000000000006e-03  1.04940499999999996e-02
0.00000000000000000e+00  3.00000000000000006e-03  7.41712199999999995e-03
0.00000000000000000e+00  3.00000000000000006e-03  2.30583799999999998e-02
0.00000000000000000e+00  3.00000000000000006e-03  1.99814599999999995e-02
0.00000000000000000e+00  2.99999900000000016e-03  3.53831699999999985e-02
0.00000000000000000e+00  2.99999900000000016e-03  3.23062400000000000e-02
0.00000000000000000e+00  3.00000000000000006e-03  4.76909699999999992e-02
0.00000000000000000e+00  3.00000000000000006e-03  4.46140500000000023e-02
0.00000000000000000e+00  2.99999699999999991e-03  5.99834799999999987e-02
0.00000000000000000e+00  2.99999699999999991e-03  5.69065600000000019e-02
0.00000000000000000e+00  2.99999900000000016e-03  7.21017199999999941e-02
0.00000000000000000e+00  2.99999900000000016e-03  6.90247900000000025e-02
0.00000000000000000e+00  3.00000000000000006e-03  7.78286700000000026e-02
0.00000000000000000e+00  3.00000000000000006e-03  7.47517500000000057e-02
0.00000000000000000e+00  5.99999899999999978e-03  7.30073100000000058e-02
0.00000000000000000e+00  6.00000000000000012e-03  7.78286700000000026e-02
0.00000000000000000e+00  8.99999999999999932e-03  7.47517500000000057e-02
0.00000000000000000e+00  8.99999999999999932e-03  7.78286700000000026e-02
0.00000000000000000e+00  8.99999999999999932e-03  3.07692300000000007e-03
0.00000000000000000e+00  8.99999999999999932e-03  7.41712199999999995e-03
0.00000000000000000e+00  8.99999999999999932e-03  1.04940499999999996e-02
0.00000000000000000e+00  8.99999999999999932e-03  1.99814599999999995e-02
0.00000000000000000e+00  8.99999999999999932e-03  2.30583799999999998e-02
0.00000000000000000e+00  8.99999899999999985e-03  3.23062400000000000e-02
0.00000000000000000e+00  8.99999899999999985e-03  3.53831699999999985e-02
0.00000000000000000e+00  8.99999999999999932e-03  4.46140500000000023e-02
0.00000000000000000e+00  8.99999999999999932e-03  4.76909699999999992e-02
0.00000000000000000e+00  8.99999699999999916e-03  5.69065600000000019e-02
0.00000000000000000e+00  8.99999699999999916e-03  5.99834799999999987e-02
0.00000000000000000e+00  8.99999899999999985e-03  6.90247900000000025e-02
0.00000000000000000e+00  8.99999899999999985e-03  7.21017199999999941e-02
0.00000000000000000e+00  6.00000000000000012e-03  4.34019900000000031e-03
0.00000000000000000e+00  3.00000000000000006e-03  1.37767800000000006e-02
0.00000000000000000e+00  6.00000000000000012e-03  1.19631300000000006e-02
0.00000000000000000e+00  3.00000000000000006e-03  1.68536999999999992e-02
0.00000000000000000e+00  6.00000000000000012e-03  1.83736200000000002e-02
0.00000000000000000e+00  5.99999800000000031e-03  3.07627299999999985e-02
0.00000000000000000e+00  3.00000000000000006e-03  2.92257200000000002e-02
0.00000000000000000e+00  3.00000000000000006e-03  2.61487999999999998e-02
0.00000000000000000e+00  8.99999999999999932e-03  2.92257200000000002e-02
0.00000000000000000e+00  6.00000000000000012e-03  4.30748800000000029e-02
0.00000000000000000e+00  2.99999900000000016e-03  4.15377600000000000e-02
0.00000000000000000e+00  2.99999900000000016e-03  3.84608300000000014e-02
0.00000000000000000e+00  8.99999899999999985e-03  4.15377600000000000e-02
0.00000000000000000e+00  5.99999599999999963e-03  5.53635499999999975e-02
0.00000000000000000e+00  2.99999900000000016e-03  5.38416099999999981e-02
0.00000000000000000e+00  2.99999900000000016e-03  5.07646799999999995e-02
0.00000000000000000e+00  8.99999899999999985e-03  5.38416099999999981e-02
0.00000000000000000e+00  5.99999800000000031e-03  6.74268199999999984e-02
0.00000000000000000e+00  2.99999900000000016e-03  6.60943300000000067e-02
0.00000000000000000e+00  2.99999900000000016e-03  6.30174099999999959e-02
0.00000000000000000e+00  8.99999899999999985e-03  6.60943300000000067e-02
0.00000000000000000e+00  5.99999899999999978e-03  4.92248900000000003e-02
0.00000000000000000e+00  8.99999999999999932e-03  1.68536999999999992e-02
0.00000000000000000e+00  5.99999899999999978e-03  2.45917899999999988e-02
0.00000000000000000e+00  8.99999999999999932e-03  2.61487999999999998e-02
0.00000000000000000e+00  8.99999999999999932e-03  1.37767800000000006e-02
0.00000000000000000e+00  5.99999800000000031e-03  3.69209200000000029e-02
0.00000000000000000e+00  8.99999899999999985e-03  3.84608300000000014e-02
0.00000000000000000e+00  8.99999899999999985e-03  5.07646799999999995e-02
0.00000000000000000e+00  5.99999599999999963e-03  6.14624299999999985e-02
0.00000000000000000e+00  8.99999899999999985e-03  6.30174099999999959e-02
1.20000000000000002e-02  1.20000000000000002e-02  8.00000000000000017e-02
0.00000000000000000e+00  0.00000000000000000e+00  8.00000000000000017e-02
1.20000000000000002e-02  6.00000000000000012e-03  0.00000000000000000e+00
1.20000000000000002e-02  3.00000000000000006e-03  0.00000000000000000e+00
1.20000000000000002e-02  8.99999999999999932e-03  0.00000000000000000e+00
1.20000000000000002e-02  0.00000000000000000e+00  8.00000000000000017e-02
1.20000000000000002e-02  0.00000000000000000e+00  0.00000000000000000e+00
0.00000000000000000e+00  1.20000000000000002e-02  0.00000000000000000e+00
1.20000000000000002e-02  5.99999899999999978e-03  8.68039699999999942e-03
1.20000000000000002e-02  5.99999899999999978e-03  1.52458600000000000e-02
1.20000000000000002e-02  5.99999899999999978e-03  2.15013699999999988e-02
1.20000000000000002e-02  6.00000000000000012e-03  2.76822099999999988e-02
1.20000000000000002e-02  5.99999899999999978e-03  3.38432399999999967e-02
1.20000000000000002e-02  5.99999800000000031e-03  3.99985900000000005e-02
1.20000000000000002e-02  5.99999699999999997e-03  4.61511800000000000e-02
1.20000000000000002e-02  5.99999300000000034e-03  5.22986100000000023e-02
1.20000000000000002e-02  5.99998599999999969e-03  5.84285400000000010e-02
1.20000000000000002e-02  5.99997800000000043e-03  6.44963800000000059e-02
1.20000000000000002e-02  5.99997500000000027e-03  7.03572999999999976e-02
1.20000000000000002e-02  5.99997500000000027e-03  7.56573600000000068e-02
1.20000000000000002e-02  3.00000000000000006e-03  3.07692300000000007e-03
1.20000000000000002e-02  3.00000000000000006e-03  7.41712099999999961e-03
1.20000000000000002e-02  3.00000000000000006e-03  1.04940399999999996e-02
1.20000000000000002e-02  2.99999900000000016e-03  1.37767800000000006e-02
1.20000000000000002e-02  2.99999900000000016e-03  1.68536999999999992e-02
1.20000000000000002e-02  5.99999899999999978e-03  1.19631300000000006e-02
1.20000000000000002e-02  3.00000000000000006e-03  1.99814500000000013e-02
1.20000000000000002e-02  3.00000000000000006e-03  2.30583799999999998e-02
1.20000000000000002e-02  5.99999899999999978e-03  1.83736099999999986e-02
1.20000000000000002e-02  3.00000000000000006e-03  2.61487999999999998e-02
1.20000000000000002e-02  3.00000000000000006e-03  2.92257200000000002e-02
1.20000000000000002e-02  5.99999899999999978e-03  2.45917899999999988e-02
1.20000000000000002e-02  3.00000000000000006e-03  3.23062299999999983e-02
1.20000000000000002e-02  3.00000000000000006e-03  3.53831599999999968e-02
1.20000000000000002e-02  5.99999899999999978e-03  3.07627200000000003e-02
1.20000000000000002e-02  2.99999900000000016e-03  3.84608300000000014e-02
1.20000000000000002e-02  2.99999900000000016e-03  4.15377499999999983e-02
1.20000000000000002e-02  5.99999899999999978e-03  3.69209100000000012e-02
1.20000000000000002e-02  2.99999799999999981e-03  4.46140500000000023e-02
1.20000000000000002e-02  2.99999799999999981e-03  4.76909800000000009e-02
1.20000000000000002e-02  5.99999800000000031e-03  4.30748800000000029e-02
1.20000000000000002e-02  2.99999699999999991e-03  5.07646900000000012e-02
1.20000000000000002e-02  2.99999699999999991e-03  5.38416099999999981e-02
1.20000000000000002e-02  5.99999500000000015e-03  4.92249000000000020e-02
1.20000000000000002e-02  2.99999299999999984e-03  5.69065799999999983e-02
1.20000000000000002e-02  2.99999299999999984e-03  5.99835000000000021e-02
1.20000000000000002e-02  5.99999000000000018e-03  5.53635800000000025e-02
1.20000000000000002e-02  2.99998900000000021e-03  6.30174200000000045e-02
1.20000000000000002e-02  2.99998900000000021e-03  6.60943499999999962e-02
1.20000000000000002e-02  5.99998200000000006e-03  6.14624599999999965e-02
1.20000000000000002e-02  2.99998799999999987e-03  6.90248100000000059e-02
1.20000000000000002e-02  2.99998799999999987e-03  7.21017300000000028e-02
1.20000000000000002e-02  5.99997700000000009e-03  6.74268400000000018e-02
1.20000000000000002e-02  2.99998699999999997e-03  7.47517600000000004e-02
1.20000000000000002e-02  2.99998699999999997e-03  7.78286799999999973e-02
1.20000000000000002e-02  5.99998700000000003e-03  7.78286799999999973e-02
1.20000000000000002e-02  5.99997500000000027e-03  7.30073299999999953e-02
1.20000000000000002e-02  8.99998699999999922e-03  7.78286799999999973e-02
1.20000000000000002e-02  8.99999999999999932e-03  3.07692300000000007e-03
[...]
POINT_DATA 281

SCALARS Rank unsigned_int
LOOKUP_TABLE default
0 0 0 0 0 0 0 0 0 0 0 0 0 0 0 0 0 0 0 0 0 0 0 0 0 0 0 0 0 0 0 0 0 0 0 0 0 0 0 0 0 0 0 0 0 0 0 0 0 0 0 0 0 0 0 0 0 0 0 0 0 0 0 0 0 0 0 0 0 0 0 0 0 0 0 0 0 0 0 0 0 0 0 0 0 0 0 0 0 0 0 0 0 0 0 0 0 0 0 0 0 0 0 0 0 0 0 0 0 0 0 0 0 0 0 0 0 0 0 0 0 0 0 0 0 0 0 0 0 0 0 0 0 0 0 0 0 0 0 0 0 0 0 0 0 0 0 0 0 0 0 0 0 0 0 0 0 0 0 0 0 0 0 0 0 0 0 0 0 0 0 0 0 0 0 0 0 0 0 0 0 0 0 0 0 0 0 0 0 0 0 0 0 0 0 0 0 0 0 0 0 0 0 0 0 0 0 0 0 0 0 0 0 0 0 0 0 0 0 0 0 0 0 0 0 0 0 0 0 0 0 0 0 0 0 0 0 0 0 0 0 0 0 0 0 0 0 0 0 0 0 0 0 0 0 0 0 0 0 0 0 0 0 0 0 0 0 0 0 0 0 0 0 0 0 0 0 0 0 0 0 

VECTORS Forces0 double
4.13542338321512236e-05 0.00000000000000000e+00 3.94039269216977702e-07 
3.52136255974428846e-05 0.00000000000000000e+00 -2.85747840521735053e-07 
2.38818166304544520e-05 0.00000000000000000e+00 2.11407515179135925e-07 
1.51268116257852519e-05 0.00000000000000000e+00 -1.44804766839585625e-07 
8.62876173795034289e-06 0.00000000000000000e+00 2.02975793277147957e-07 
2.83608032864929654e-06 0.00000000000000000e+00 -4.41583453845948685e-07 
5.27267961341660319e-07 0.00000000000000000e+00 -1.20682069401622124e-06 
3.95265365572563897e-05 0.00000000000000000e+00 8.78006846368656882e-08 
2.97250966026154342e-05 0.00000000000000000e+00 -2.30325705901679552e-07 
1.89998201048820813e-05 0.00000000000000000e+00 3.80270336022747021e-07 
1.18474058567760740e-05 0.00000000000000000e+00 -5.55580178441643098e-07 
5.60401947355222637e-06 0.00000000000000000e+00 9.24540030067488034e-07 
3.94789609697695357e-05 0.00000000000000000e+00 2.81986417891825702e-08 
4.16827233171466414e-05 0.00000000000000000e+00 3.57319923208148458e-07 
4.11847327364837497e-05 0.00000000000000000e+00 3.81192615821690089e-07 
3.35313915705942896e-05 0.00000000000000000e+00 -3.20430028818263063e-07 
3.67868926013212489e-05 0.00000000000000000e+00 -2.23025281600845667e-07 
2.28630537930046656e-05 0.00000000000000000e+00 3.10019581186935918e-07 
2.50740268084958876e-05 0.00000000000000000e+00 9.49449679322304926e-08 
1.41264336216693177e-05 0.00000000000000000e+00 -3.16198180261042268e-07 
1.62323586232830676e-05 0.00000000000000000e+00 3.08819977309885870e-08 
7.95713015826455119e-06 0.00000000000000000e+00 5.04876858133544316e-07 
9.30677332952664666e-06 0.00000000000000000e+00 -8.39676140248530888e-08 
2.00523159665138500e-06 0.00000000000000000e+00 -9.86758131538059547e-07 
3.49867222913931957e-06 0.00000000000000000e+00 1.48683944242035822e-08 
-2.22151023805602626e-07 0.00000000000000000e+00 -4.58673169667248588e-07 
8.72601354706729411e-07 0.00000000000000000e+00 -1.31593229147121322e-06 
1.59901917913856344e-06 0.00000000000000000e+00 -1.19065835119090629e-06 
-2.22151023799206680e-07 0.00000000000000000e+00 -4.58673169673852904e-07 
8.72601354690307771e-07 0.00000000000000000e+00 -1.31593229154176937e-06 
-2.22151023803144960e-07 0.00000000000000000e+00 -4.58673169745356884e-07 
3.94789609697828239e-05 0.00000000000000000e+00 2.81986418306020578e-08 
4.11847327364543204e-05 0.00000000000000000e+00 3.81192615969701685e-07 
4.16827233171555251e-05 0.00000000000000000e+00 3.57319923239647390e-07 
3.67868926013090788e-05 0.00000000000000000e+00 -2.23025281614327679e-07 
3.35313915705957397e-05 0.00000000000000000e+00 -3.20430028836287501e-07 
2.50740268084933465e-05 0.00000000000000000e+00 9.49449679195425743e-08 
2.28630537929893343e-05 0.00000000000000000e+00 3.10019581156948516e-07 
1.62323586232872519e-05 0.00000000000000000e+00 3.08819977289773073e-08 
1.41264336216692194e-05 0.00000000000000000e+00 -3.16198180280257634e-07 
9.30677332952958078e-06 0.00000000000000000e+00 -8.39676140246080845e-08 
7.95713015824151867e-06 0.00000000000000000e+00 5.04876858103213548e-07 
3.49867222915253201e-06 0.00000000000000000e+00 1.48683944793367450e-08 
2.00523159666925358e-06 0.00000000000000000e+00 -9.86758131489774646e-07 
4.06179453241985462e-05 0.00000000000000000e+00 1.84461686164174679e-07 
4.06159444270902536e-05 0.00000000000000000e+00 1.86766712583622808e-07 
4.17218811487184187e-05 0.00000000000000000e+00 2.91909558929255662e-07 
3.85067220641869797e-05 0.00000000000000000e+00 -2.58724228901999007e-08 
3.77028995928712705e-05 0.00000000000000000e+00 -1.29245968852093845e-07 
2.65191266668508106e-05 0.00000000000000000e+00 -2.63134650669749495e-08 
2.81762043944882757e-05 0.00000000000000000e+00 -1.38135429609993378e-07 
3.08459923166206588e-05 0.00000000000000000e+00 -2.92422746889749589e-07 
2.81762043944914944e-05 0.00000000000000000e+00 -1.38135429573427495e-07 
1.71562915190751316e-05 0.00000000000000000e+00 1.87549229954798849e-07 
1.79984653119582956e-05 0.00000000000000000e+00 3.06515484424114529e-07 
2.02286377865533237e-05 0.00000000000000000e+00 4.02856748825052394e-07 
1.79984653119544128e-05 0.00000000000000000e+00 3.06515484384573549e-07 
1.00789893110077023e-05 0.00000000000000000e+00 -3.24853067244033748e-07 
1.09418029468809790e-05 0.00000000000000000e+00 -4.83130947979163741e-07 
1.25738500354538141e-05 0.00000000000000000e+00 -5.42374504059865998e-07 
1.09418029468752123e-05 0.00000000000000000e+00 -4.83130947996579162e-07 
4.26283964777054292e-06 0.00000000000000000e+00 4.92533790111087538e-07 
4.85955075115415470e-06 0.00000000000000000e+00 7.64905605719867233e-07 
6.34897499729788237e-06 0.00000000000000000e+00 9.04456355616591546e-07 
4.85955075115336865e-06 0.00000000000000000e+00 7.64905605736205228e-07 
1.32819767892790902e-05 0.00000000000000000e+00 -4.56780546860209881e-07 
3.85067220641974558e-05 0.00000000000000000e+00 -2.58724228083513188e-08 
3.20682706370012250e-05 0.00000000000000000e+00 -3.23336553373328791e-07 
3.08459923166303488e-05 0.00000000000000000e+00 -2.92422746947068626e-07 
4.06159444270766333e-05 0.00000000000000000e+00 1.86766712559601589e-07 
2.16134977104662325e-05 0.00000000000000000e+00 3.77624641802395756e-07 
2.02286377865498339e-05 0.00000000000000000e+00 4.02856748830479546e-07 
1.25738500354626893e-05 0.00000000000000000e+00 -5.42374504058804665e-07 
7.17684570221069227e-06 0.00000000000000000e+00 7.47293393512029606e-07 
6.34897499728828210e-06 0.00000000000000000e+00 9.04456355613567215e-07 
1.93839372639982268e-06 0.00000000000000000e+00 1.44586144924879181e-06 
-8.41427747300182512e-07 0.00000000000000000e+00 1.45320995767526814e-06 
-1.00004742731615690e-06 0.00000000000000000e+00 -5.67987709879377423e-07 
-1.00004742730885886e-06 0.00000000000000000e+00 -5.67987709869699542e-07 
-1.00004742728784905e-06 0.00000000000000000e+00 -5.67987709925245104e-07 
1.93839372636911308e-06 0.00000000000000000e+00 1.44586144925471003e-06 
-1.00004742730757137e-06 0.00000000000000000e+00 -5.67987709881386374e-07 
3.57278986877546104e-05 0.00000000000000000e+00 -5.73092587533496151e-07 
5.29918119419999780e-07 0.00000000000000000e+00 4.06767237962548407e-07 
9.72167839948933021e-07 0.00000000000000000e+00 9.88756525193742126e-08 
8.50488105404539861e-07 0.00000000000000000e+00 -2.77059219432026025e-07 
7.17373507039423071e-07 0.00000000000000000e+00 -2.27617164316990968e-07 
9.17972186716172335e-07 0.00000000000000000e+00 2.07873175073435478e-07 
1.60702183654863853e-06 0.00000000000000000e+00 3.73377782904814491e-07 
2.71313286304371389e-06 0.00000000000000000e+00 -1.56178410920519741e-07 
3.99111027637196203e-06 0.00000000000000000e+00 -5.74071845442039470e-07 
5.01908877214345718e-06 0.00000000000000000e+00 1.83856811054531246e-07 
5.47760626238722273e-06 0.00000000000000000e+00 9.06617100014870633e-07 
5.13056349230598110e-06 0.00000000000000000e+00 -4.65859485203171495e-07 
3.90366089453832016e-06 0.00000000000000000e+00 -1.24034558840912009e-06 
-4.48712891249021497e-07 0.00000000000000000e+00 4.03392848433491738e-08 
3.48891559803766756e-07 0.00000000000000000e+00 3.93473782042318716e-07 
7.38425210874285985e-07 0.00000000000000000e+00 3.72588365762047089e-07 
9.44126241063509466e-07 0.00000000000000000e+00 2.00648707674306156e-07 
9.74736822628292318e-07 0.00000000000000000e+00 -1.59980360187688508e-08 
8.57920423828853021e-07 0.00000000000000000e+00 3.09045910344457295e-07 
9.13718773735114432e-07 0.00000000000000000e+00 -2.11810237209973646e-07 
7.88199684108358538e-07 0.00000000000000000e+00 -3.14581359336343398e-07 
9.53725153713892654e-07 0.00000000000000000e+00 -1.18880265773265561e-07 
7.19025724706839095e-07 0.00000000000000000e+00 -2.89357814881399565e-07 
7.17988594159744029e-07 0.00000000000000000e+00 -1.36596761963512758e-07 
7.41187225161301676e-07 0.00000000000000000e+00 -3.19410209500859624e-07 
8.06279271149395218e-07 0.00000000000000000e+00 9.31470691420528705e-08 
1.07059844040135452e-06 0.00000000000000000e+00 3.04808269368337315e-07 
7.39916433398338951e-07 0.00000000000000000e+00 -2.64115447536649410e-08 
1.39605118832102891e-06 0.00000000000000000e+00 3.96897898252086970e-07 
1.86554878412032199e-06 0.00000000000000000e+00 2.97508249374573186e-07 
1.22607312825070114e-06 0.00000000000000000e+00 3.71826261416326068e-07 
2.44659886768261477e-06 0.00000000000000000e+00 1.80811024590421846e-08 
3.00491460602205384e-06 0.00000000000000000e+00 -3.27390638768479701e-07 
2.15837501402461070e-06 0.00000000000000000e+00 1.75783843247316012e-07 
3.66963575628604820e-06 0.00000000000000000e+00 -5.58859577582821841e-07 
4.24979269207485624e-06 0.00000000000000000e+00 -4.98972009036200503e-07 
3.32564549218621409e-06 0.00000000000000000e+00 -4.69736386206636165e-07 
4.76021409279434289e-06 0.00000000000000000e+00 -9.93167342738153147e-08 
5.24902209809767091e-06 0.00000000000000000e+00 4.81770516756970870e-07 
4.49819332335693461e-06 0.00000000000000000e+00 -3.38953384756873855e-07 
5.42831351136246887e-06 0.00000000000000000e+00 8.87075822830148521e-07 
5.51123405418069916e-06 0.00000000000000000e+00 7.42225973283868110e-07 
5.35849094659082200e-06 0.00000000000000000e+00 7.27165922675408875e-07 
5.34926439461470958e-06 0.00000000000000000e+00 -1.28440090434137393e-08 
4.79082988788502877e-06 0.00000000000000000e+00 -1.01005256465905003e-06 
5.49981757794658555e-06 0.00000000000000000e+00 4.64577832478358011e-07 
4.16973678249639931e-06 0.00000000000000000e+00 -1.34685081349835030e-06 
3.00010101948389284e-06 0.00000000000000000e+00 -4.80176023203226102e-07 
3.00010101948792345e-06 0.00000000000000000e+00 -4.80176023261313928e-07 
4.59565619928436244e-06 0.00000000000000000e+00 -1.21560418697659701e-06 
3.00010101948942439e-06 0.00000000000000000e+00 -4.80176023244169981e-07 
-4.48712891243464961e-07 0.00000000000000000e+00 4.03392848784987118e-08 
7.38425210876068142e-07 0.00000000000000000e+00 3.72588365806154424e-07 
3.48891559815496468e-07 0.00000000000000000e+00 3.93473781985940732e-07 
9.74736822633198333e-07 0.00000000000000000e+00 -1.59980359674621594e-08 
9.44126241052453992e-07 0.00000000000000000e+00 2.00648707684936207e-07 
7.88199684120872603e-07 0.00000000000000000e+00 -3.14581359291693538e-07 
9.13718773741323184e-07 0.00000000000000000e+00 -2.11810237229158307e-07 
7.17988594159434015e-07 0.00000000000000000e+00 -1.36596761977992574e-07 
7.19025724714604693e-07 0.00000000000000000e+00 -2.89357814876152408e-07 
1.07059844040544568e-06 0.00000000000000000e+00 3.04808269373036018e-07 
8.06279271143181384e-07 0.00000000000000000e+00 9.31470691437050082e-08 
1.86554878412375163e-06 0.00000000000000000e+00 2.97508249379698635e-07 
1.39605118832731728e-06 0.00000000000000000e+00 3.96897898224588363e-07 
3.00491460603336893e-06 0.00000000000000000e+00 -3.27390638766681874e-07 
2.44659886768060307e-06 0.00000000000000000e+00 1.80811024624065465e-08 
4.24979269208935575e-06 0.00000000000000000e+00 -4.98972009056159670e-07 
3.66963575629822049e-06 0.00000000000000000e+00 -5.58859577567742537e-07 
5.24902209808572181e-06 0.00000000000000000e+00 4.81770516747619203e-07 
4.76021409279648673e-06 0.00000000000000000e+00 -9.93167342477154767e-08 
5.51123405417268030e-06 0.00000000000000000e+00 7.42225973280357159e-07 
5.42831351136695306e-06 0.00000000000000000e+00 8.87075822820152686e-07 
4.79082988789272830e-06 0.00000000000000000e+00 -1.01005256465819262e-06 
5.34926439462227274e-06 0.00000000000000000e+00 -1.28440090535408652e-08 
-1.99432384270025473e-07 0.00000000000000000e+00 1.98598708699764983e-07 
4.16973678250631298e-06 0.00000000000000000e+00 -1.34685081349919755e-06 
-8.41427747284050769e-07 0.00000000000000000e+00 1.45320995769446360e-06 
4.10549354677373411e-05 0.00000000000000000e+00 3.30653475941181366e-07 
4.15846369233379104e-05 0.00000000000000000e+00 2.73748571919562185e-07 
3.76587957159324460e-05 0.00000000000000000e+00 -1.34894014935359308e-07 
3.20478658387997391e-05 0.00000000000000000e+00 -3.23123544333847226e-07 
2.65124904873052611e-05 0.00000000000000000e+00 -2.58134837955015268e-08 
2.16115143219231417e-05 0.00000000000000000e+00 3.77691608156700247e-07 
1.71552216520639119e-05 0.00000000000000000e+00 1.87364133284889039e-07 
1.32790465085074498e-05 0.00000000000000000e+00 -4.57226367138856257e-07 
1.00676982418821112e-05 0.00000000000000000e+00 -3.22068563820334839e-07 
7.13562259858005996e-06 0.00000000000000000e+00 7.57657883758294989e-07 
4.14286512852037754e-06 0.00000000000000000e+00 4.23861834418528952e-07 
1.23959409489498383e-06 0.00000000000000000e+00 -1.30343814919476918e-06 
3.94789609697882246e-05 0.00000000000000000e+00 2.81986418511358306e-08 
4.14468315202038166e-05 0.00000000000000000e+00 3.89203692813043755e-07 
3.94292157893207432e-05 0.00000000000000000e+00 7.80807992075556514e-08 
3.51723275713722707e-05 0.00000000000000000e+00 -2.86931492702706052e-07 
2.97171223555044313e-05 0.00000000000000000e+00 -2.29815435535524391e-07 
2.38797870372860641e-05 0.00000000000000000e+00 2.11614239254550710e-07 
1.89987979297918713e-05 0.00000000000000000e+00 3.80225989586599028e-07 
1.51249498413020990e-05 0.00000000000000000e+00 -1.45112771714961109e-07 
1.18422874796476356e-05 0.00000000000000000e+00 -5.55417563660517438e-07 
8.61470046201858396e-06 0.00000000000000000e+00 2.09463780053949909e-07 
5.54644017535639811e-06 0.00000000000000000e+00 9.19395496448968762e-07 
2.63459630981192152e-06 0.00000000000000000e+00 -5.80318912482305187e-07 
7.53778569540864327e-08 0.00000000000000000e+00 -8.85762911819474502e-07 
-3.70614215864193568e-07 0.00000000000000000e+00 2.08276113056459068e-05 
-3.70614215891448971e-07 0.00000000000000000e+00 2.08276113056057168e-05 
1.42943414070016886e-06 0.00000000000000000e+00 2.08251916308050095e-05 
1.42943414071950789e-06 0.00000000000000000e+00 2.08251916307973964e-05 
5.20291432177357227e-07 0.00000000000000000e+00 3.72494723082077709e-05 
5.20291432151474864e-07 0.00000000000000000e+00 3.72494723081878622e-05 
-3.70614215894189546e-07 0.00000000000000000e+00 2.08276113055936076e-05 
1.42943414070639455e-06 0.00000000000000000e+00 2.08251916307688209e-05 
1.93839372639835266e-06 0.00000000000000000e+00 1.44586144920675526e-06 
1.93839372639268177e-06 0.00000000000000000e+00 1.44586144918899298e-06 
1.93839372637888657e-06 0.00000000000000000e+00 1.44586144922011635e-06 
-8.41427747312038856e-07 0.00000000000000000e+00 1.45320995767843774e-06 
-8.41427747292023891e-07 0.00000000000000000e+00 1.45320995766877818e-06 
-8.41427747281378381e-07 0.00000000000000000e+00 1.45320995769561896e-06 
1.40568307133118924e-07 0.00000000000000000e+00 3.43563481369507868e-07 
8.78942207868338440e-07 0.00000000000000000e+00 2.90587115650187017e-07 
9.51995513423348632e-07 0.00000000000000000e+00 -1.24467374672817201e-07 
7.40646522253141237e-07 0.00000000000000000e+00 -3.19218086950968245e-07 
7.40095911309874305e-07 0.00000000000000000e+00 -2.59179235046433400e-08 
1.22628960543417776e-06 0.00000000000000000e+00 3.71893524024221597e-07 
2.15877682844726367e-06 0.00000000000000000e+00 1.75595145044855425e-07 
3.32692705265033681e-06 0.00000000000000000e+00 -4.70192291947680158e-07 
4.50169156019459937e-06 0.00000000000000000e+00 -3.36167806631266187e-07 
5.36253077049360964e-06 0.00000000000000000e+00 7.37718381214263569e-07 
5.48899556776392376e-06 0.00000000000000000e+00 3.95088047610881944e-07 
4.40090818772920540e-06 0.00000000000000000e+00 -1.33093467199028625e-06 
-4.48712891247581541e-07 0.00000000000000000e+00 4.03392848075958072e-08 
5.99311946017468840e-07 0.00000000000000000e+00 4.02486904404241543e-07 
9.73354235095318074e-07 0.00000000000000000e+00 8.89638787155075597e-08 
8.48883377321700979e-07 0.00000000000000000e+00 -2.78317359498860658e-07 
7.17403802638489762e-07 0.00000000000000000e+00 -2.27109978413887906e-07 
9.18226814248275966e-07 0.00000000000000000e+00 2.08077269749713667e-07 
1.60723741423698905e-06 0.00000000000000000e+00 3.73332032631838226e-07 
2.71361215641386347e-06 0.00000000000000000e+00 -1.56484550534275663e-07 
3.99274075237420002e-06 0.00000000000000000e+00 -5.73899692721358422e-07 
5.02454514180501850e-06 0.00000000000000000e+00 1.90237723519112096e-07 
5.48097850176330243e-06 0.00000000000000000e+00 9.01261835874218150e-07 
5.05472244165265376e-06 0.00000000000000000e+00 -6.03858243430553188e-07 
3.41204760138247084e-06 0.00000000000000000e+00 -9.14185371130436456e-07 
3.57278986877697960e-05 0.00000000000000000e+00 -5.73092587497147426e-07 
3.57278986877793573e-05 0.00000000000000000e+00 -5.73092587451010388e-07 
3.57278986877664621e-05 0.00000000000000000e+00 -5.73092587472846686e-07 
5.20291432169077903e-07 0.00000000000000000e+00 3.72494723081561425e-05 
-3.70614215894484314e-07 0.00000000000000000e+00 2.08276113056212547e-05 
1.42943414071177406e-06 0.00000000000000000e+00 2.08251916307983349e-05 
1.40568307124126822e-07 0.00000000000000000e+00 3.43563481370641198e-07 
8.78942207870523785e-07 0.00000000000000000e+00 2.90587115652211849e-07 
9.51995513438283517e-07 0.00000000000000000e+00 -1.24467374706543089e-07 
7.40646522250972833e-07 0.00000000000000000e+00 -3.19218086972779344e-07 
7.40095911310443511e-07 0.00000000000000000e+00 -2.59179234808628900e-08 
1.22628960542609029e-06 0.00000000000000000e+00 3.71893524032075922e-07 
2.15877682844911190e-06 0.00000000000000000e+00 1.75595145044144182e-07 
3.32692705265508824e-06 0.00000000000000000e+00 -4.70192291928087015e-07 
4.50169156019293834e-06 0.00000000000000000e+00 -3.36167806615308510e-07 
5.36253077049839199e-06 0.00000000000000000e+00 7.37718381210359595e-07 
5.48899556776109806e-06 0.00000000000000000e+00 3.95088047616421539e-07 
4.40090818772585538e-06 0.00000000000000000e+00 -1.33093467201098435e-06 
-4.48712891244620314e-07 0.00000000000000000e+00 4.03392848098919018e-08 
5.99311946007107933e-07 0.00000000000000000e+00 4.02486904392815492e-07 
9.73354235093901835e-07 0.00000000000000000e+00 8.89638786965998785e-08 
8.48883377317550517e-07 0.00000000000000000e+00 -2.78317359477128969e-07 
7.17403802650958087e-07 0.00000000000000000e+00 -2.27109978399303481e-07 
9.18226814252997327e-07 0.00000000000000000e+00 2.08077269739778605e-07 
1.60723741423360515e-06 0.00000000000000000e+00 3.73332032644134603e-07 
2.71361215641920655e-06 0.00000000000000000e+00 -1.56484550539772272e-07 
3.99274075237035365e-06 0.00000000000000000e+00 -5.73899692700359629e-07 
5.02454514180848795e-06 0.00000000000000000e+00 1.90237723518692391e-07 
5.48097850175940099e-06 0.00000000000000000e+00 9.01261835895573544e-07 
5.05472244166277327e-06 0.00000000000000000e+00 -6.03858243422802413e-07 
3.41204760137295146e-06 0.00000000000000000e+00 -9.14185371119929859e-07 
3.57278986877620643e-05 0.00000000000000000e+00 -5.73092587475440301e-07 
4.10549354677212000e-05 0.00000000000000000e+00 3.30653475969510065e-07 
4.15846369233359724e-05 0.00000000000000000e+00 2.73748571893235025e-07 
3.76587957159300201e-05 0.00000000000000000e+00 -1.34894014891228891e-07 
3.20478658388012298e-05 0.00000000000000000e+00 -3.23123544341523038e-07 
2.65124904873140499e-05 0.00000000000000000e+00 -2.58134837868705787e-08 
2.16115143219241513e-05 0.00000000000000000e+00 3.77691608163773078e-07 
1.71552216520657686e-05 0.00000000000000000e+00 1.87364133274125791e-07 
1.32790465085092591e-05 0.00000000000000000e+00 -4.57226367133100245e-07 