# vtk DataFile Version 2.0

ASCII

DATASET UNSTRUCTURED_GRID

POINTS 281 double 

0.00000000000000000e+00  6.00000000000000012e-03  8.68039800000000063e-03
0.00000000000000000e+00  6.00000000000000012e-03  2.15013699999999988e-02
0.00000000000000000e+00  5.99999699999999997e-03  3.38432499999999983e-02
0.00000000000000000e+00  6.00000000000000012e-03  4.61511800000000000e-02
0.00000000000000000e+00  5.99999399999999981e-03  5.84285100000000029e-02
0.00000000000000000e+00  5.99999899999999978e-03  7.03572799999999943e-02
0.00000000000000000e+00  6.00000000000000012e-03  7.56573400000000035e-02
0.00000000000000000e+00  6.00000000000000012e-03  1.52458600000000000e-02
0.00000000000000000e+00  5.99999899999999978e-03  2.76822099999999988e-02
0.00000000000000000e+00  5.99999899999999978e-03  3.99985900000000005e-02
0.00000000000000000e+00  5.99999800000000031e-03  5.22986000000000006e-02
0.00000000000000000e+00  5.99999800000000031e-03  6.44963600000000026e-02
0.00000000000000000e+00  3.00000000000000006e-03  3.07692300000000007e-03
0.00000000000000000e+00  3.00000000000000006e-03  1.04940499999999996e-02
0.00000000000000000e+00  3.00000000000000006e-03  7.41712199999999995e-03
0.00000000000000000e+00  3.00000000000000006e-03  2.30583799999999998e-02
0.00000000000000000e+00  3.00000000000000006e-03  1.99814599999999995e-02
0.00000000000000000e+00  2.99999900000000016e-03  3.53831699999999985e-02
0.00000000000000000e+00  2.99999900000000016e-03  3.23062400000000000e-02
0.00000000000000000e+00  3.00000000000000006e-03  4.76909699999999992e-02
0.00000000000000000e+00  3.00000000000000006e-03  4.46140500000000023e-02
0.00000000000000000e+00  2.99999699999999991e-03  5.99834799999999987e-02
0.00000000000000000e+00  2.99999699999999991e-03  5.69065600000000019e-02
0.00000000000000000e+00  2.99999900000000016e-03  7.21017199999999941e-02
0.00000000000000000e+00  2.99999900000000016e-03  6.90247900000000025e-02
0.00000000000000000e+00  3.00000000000000006e-03  7.78286700000000026e-02
0.00000000000000000e+00  3.00000000000000006e-03  7.47517500000000057e-02
0.00000000000000000e+00  5.99999899999999978e-03  7.30073100000000058e-02
0.00000000000000000e+00  6.00000000000000012e-03  7.78286700000000026e-02
0.00000000000000000e+00  8.99999999999999932e-03  7.47517500000000057e-02
0.00000000000000000e+00  8.99999999999999932e-03  7.78286700000000026e-02
0.00000000000000000e+00  8.99999999999999932e-03  3.07692300000000007e-03
0.00000000000000000e+00  8.99999999999999932e-03  7.41712199999999995e-03
0.00000000000000000e+00  8.99999999999999932e-03  1.04940499999999996e-02
0.00000000000000000e+00  8.99999999999999932e-03  1.99814599999999995e-02
0.00000000000000000e+00  8.99999999999999932e-03  2.30583799999999998e-02
0.00000000000000000e+00  8.99999899999999985e-03  3.23062400000000000e-02
0.00000000000000000e+00  8.99999899999999985e-03  3.53831699999999985e-02
0.00000000000000000e+00  8.99999999999999932e-03  4.46140500000000023e-02
0.00000000000000000e+00  8.99999999999999932e-03  4.76909699999999992e-02
0.00000000000000000e+00  8.99999699999999916e-03  5.69065600000000019e-02
0.00000000000000000e+00  8.99999699999999916e-03  5.99834799999999987e-02
0.00000000000000000e+00  8.99999899999999985e-03  6.90247900000000025e-02
0.00000000000000000e+00  8.99999899999999985e-03  7.21017199999999941e-02
0.00000000000000000e+00  6.00000000000000012e-03  4.34019900000000031e-03
0.00000000000000000e+00  3.00000000000000006e-03  1.37767800000000006e-02
0.00000000000000000e+00  6.00000000000000012e-03  1.19631300000000006e-02
0.00000000000000000e+00  3.00000000000000006e-03  1.68536999999999992e-02
0.00000000000000000e+00  6.00000000000000012e-03  1.83736200000000002e-02
0.00000000000000000e+00  5.99999800000000031e-03  3.07627299999999985e-02
0.00000000000000000e+00  3.00000000000000006e-03  2.92257200000000002e-02
0.00000000000000000e+00  3.00000000000000006e-03  2.61487999999999998e-02
0.00000000000000000e+00  8.99999999999999932e-03  2.92257200000000002e-02
0.00000000000000000e+00  6.00000000000000012e-03  4.30748800000000029e-02
0.00000000000000000e+00  2.99999900000000016e-03  4.15377600000000000e-02
0.00000000000000000e+00  2.99999900000000016e-03  3.84608300000000014e-02
0.00000000000000000e+00  8.99999899999999985e-03  4.15377600000000000e-02
0.00000000000000000e+00  5.99999599999999963e-03  5.53635499999999975e-02
0.00000000000000000e+00  2.99999900000000016e-03  5.38416099999999981e-02
0.00000000000000000e+00  2.99999900000000016e-03  5.07646799999999995e-02
0.00000000000000000e+00  8.99999899999999985e-03  5.38416099999999981e-02
0.00000000000000000e+00  5.99999800000000031e-03  6.74268199999999984e-02
0.00000000000000000e+00  2.99999900000000016e-03  6.60943300000000067e-02
0.00000000000000000e+00  2.99999900000000016e-03  6.30174099999999959e-02
0.00000000000000000e+00  8.99999899999999985e-03  6.60943300000000067e-02
0.00000000000000000e+00  5.99999899999999978e-03  4.92248900000000003e-02
0.00000000000000000e+00  8.99999999999999932e-03  1.68536999999999992e-02
0.00000000000000000e+00  5.99999899999999978e-03  2.45917899999999988e-02
0.00000000000000000e+00  8.99999999999999932e-03  2.61487999999999998e-02
0.00000000000000000e+00  8.99999999999999932e-03  1.37767800000000006e-02
0.00000000000000000e+00  5.99999800000000031e-03  3.69209200000000029e-02
0.00000000000000000e+00  8.99999899999999985e-03  3.84608300000000014e-02
0.00000000000000000e+00  8.99999899999999985e-03  5.07646799999999995e-02
0.00000000000000000e+00  5.99999599999999963e-03  6.14624299999999985e-02
0.00000000000000000e+00  8.99999899999999985e-03  6.30174099999999959e-02
1.20000000000000002e-02  1.20000000000000002e-02  8.00000000000000017e-02
0.00000000000000000e+00  0.00000000000000000e+00  8.00000000000000017e-02
1.20000000000000002e-02  6.00000000000000012e-03  0.00000000000000000e+00
1.20000000000000002e-02  3.00000000000000006e-03  0.00000000000000000e+00
1.20000000000000002e-02  8.99999999999999932e-03  0.00000000000000000e+00
1.20000000000000002e-02  0.00000000000000000e+00  8.00000000000000017e-02
1.20000000000000002e-02  0.00000000000000000e+00  0.00000000000000000e+00
0.00000000000000000e+00  1.20000000000000002e-02  0.00000000000000000e+00
1.20000000000000002e-02  5.99999899999999978e-03  8.68039699999999942e-03
1.20000000000000002e-02  5.99999899999999978e-03  1.52458600000000000e-02
1.20000000000000002e-02  5.99999899999999978e-03  2.15013699999999988e-02
1.20000000000000002e-02  6.00000000000000012e-03  2.76822099999999988e-02
1.20000000000000002e-02  5.99999899999999978e-03  3.38432399999999967e-02
1.20000000000000002e-02  5.99999800000000031e-03  3.99985900000000005e-02
1.20000000000000002e-02  5.99999699999999997e-03  4.61511800000000000e-02
1.20000000000000002e-02  5.99999300000000034e-03  5.22986100000000023e-02
1.20000000000000002e-02  5.99998599999999969e-03  5.84285400000000010e-02
1.20000000000000002e-02  5.99997800000000043e-03  6.44963800000000059e-02
1.20000000000000002e-02  5.99997500000000027e-03  7.03572999999999976e-02
1.20000000000000002e-02  5.99997500000000027e-03  7.56573600000000068e-02
1.20000000000000002e-02  3.00000000000000006e-03  3.07692300000000007e-03
1.20000000000000002e-02  3.00000000000000006e-03  7.41712099999999961e-03
1.20000000000000002e-02  3.00000000000000006e-03  1.04940399999999996e-02
1.20000000000000002e-02  2.99999900000000016e-03  1.37767800000000006e-02
1.20000000000000002e-02  2.99999900000000016e-03  1.68536999999999992e-02
1.20000000000000002e-02  5.99999899999999978e-03  1.19631300000000006e-02
1.20000000000000002e-02  3.00000000000000006e-03  1.99814500000000013e-02
1.20000000000000002e-02  3.00000000000000006e-03  2.30583799999999998e-02
1.20000000000000002e-02  5.99999899999999978e-03  1.83736099999999986e-02
1.20000000000000002e-02  3.00000000000000006e-03  2.61487999999999998e-02
1.20000000000000002e-02  3.00000000000000006e-03  2.92257200000000002e-02
1.20000000000000002e-02  5.99999899999999978e-03  2.45917899999999988e-02
1.20000000000000002e-02  3.00000000000000006e-03  3.23062299999999983e-02
1.20000000000000002e-02  3.00000000000000006e-03  3.53831599999999968e-02
1.20000000000000002e-02  5.99999899999999978e-03  3.07627200000000003e-02
1.20000000000000002e-02  2.99999900000000016e-03  3.84608300000000014e-02
1.20000000000000002e-02  2.99999900000000016e-03  4.15377499999999983e-02
1.20000000000000002e-02  5.99999899999999978e-03  3.69209100000000012e-02
1.20000000000000002e-02  2.99999799999999981e-03  4.46140500000000023e-02
1.20000000000000002e-02  2.99999799999999981e-03  4.76909800000000009e-02
1.20000000000000002e-02  5.99999800000000031e-03  4.30748800000000029e-02
1.20000000000000002e-02  2.99999699999999991e-03  5.07646900000000012e-02
1.20000000000000002e-02  2.99999699999999991e-03  5.38416099999999981e-02
1.20000000000000002e-02  5.99999500000000015e-03  4.92249000000000020e-02
1.20000000000000002e-02  2.99999299999999984e-03  5.69065799999999983e-02
1.20000000000000002e-02  2.99999299999999984e-03  5.99835000000000021e-02
1.20000000000000002e-02  5.99999000000000018e-03  5.53635800000000025e-02
1.20000000000000002e-02  2.99998900000000021e-03  6.30174200000000045e-02
1.20000000000000002e-02  2.99998900000000021e-03  6.60943499999999962e-02
1.20000000000000002e-02  5.99998200000000006e-03  6.14624599999999965e-02
1.20000000000000002e-02  2.99998799999999987e-03  6.90248100000000059e-02
1.20000000000000002e-02  2.99998799999999987e-03  7.21017300000000028e-02
1.20000000000000002e-02  5.99997700000000009e-03  6.74268400000000018e-02
1.20000000000000002e-02  2.99998699999999997e-03  7.47517600000000004e-02
1.20000000000000002e-02  2.99998699999999997e-03  7.78286799999999973e-02
1.20000000000000002e-02  5.99998700000000003e-03  7.78286799999999973e-02
1.20000000000000002e-02  5.99997500000000027e-03  7.30073299999999953e-02
1.20000000000000002e-02  8.99998699999999922e-03  7.78286799999999973e-02
1.20000000000000002e-02  8.99999999999999932e-03  3.07692300000000007e-03
[...]
POINT_DATA 281

SCALARS Rank unsigned_int
LOOKUP_TABLE default
0 0 0 0 0 0 0 0 0 0 0 0 0 0 0 0 0 0 0 0 0 0 0 0 0 0 0 0 0 0 0 0 0 0 0 0 0 0 0 0 0 0 0 0 0 0 0 0 0 0 0 0 0 0 0 0 0 0 0 0 0 0 0 0 0 0 0 0 0 0 0 0 0 0 0 0 0 0 0 0 0 0 0 0 0 0 0 0 0 0 0 0 0 0 0 0 0 0 0 0 0 0 0 0 0 0 0 0 0 0 0 0 0 0 0 0 0 0 0 0 0 0 0 0 0 0 0 0 0 0 0 0 0 0 0 0 0 0 0 0 0 0 0 0 0 0 0 0 0 0 0 0 0 0 0 0 0 0 0 0 0 0 0 0 0 0 0 0 0 0 0 0 0 0 0 0 0 0 0 0 0 0 0 0 0 0 0 0 0 0 0 0 0 0 0 0 0 0 0 0 0 0 0 0 0 0 0 0 0 0 0 0 0 0 0 0 0 0 0 0 0 0 0 0 0 0 0 0 0 0 0 0 0 0 0 0 0 0 0 0 0 0 0 0 0 0 0 0 0 0 0 0 0 0 0 0 0 0 0 0 0 0 0 0 0 0 0 0 0 0 0 0 0 0 0 0 0 0 0 0 0 

VECTORS Forces0 double
1.72004348183717462e-05 0.00000000000000000e+00 2.74150704715301499e-07 
1.63542673103540035e-05 0.00000000000000000e+00 -1.90874537938459918e-07 
1.28541666508772911e-05 0.00000000000000000e+00 1.41580234394350776e-07 
8.87603621402615689e-06 0.00000000000000000e+00 -1.02113665867275989e-07 
5.10656967358690399e-06 0.00000000000000000e+00 1.35716746135089210e-07 
1.65927854125622971e-06 0.00000000000000000e+00 -2.99913533704396141e-07 
3.66598861889372906e-07 0.00000000000000000e+00 -8.19025595962332135e-07 
1.72270627019403699e-05 0.00000000000000000e+00 6.46337766385509574e-08 
1.48393729250761429e-05 0.00000000000000000e+00 -1.56020411668637484e-07 
1.08201346234944808e-05 0.00000000000000000e+00 2.55219826589718032e-07 
7.00368875033242276e-06 0.00000000000000000e+00 -3.81211707972500982e-07 
3.29202107547533911e-06 0.00000000000000000e+00 6.27567450497180297e-07 
1.62302604680086681e-05 0.00000000000000000e+00 2.54186206932719849e-08 
1.74230356262311512e-05 0.00000000000000000e+00 2.50064700035404819e-07 
1.70476057328871460e-05 0.00000000000000000e+00 2.65318065218583382e-07 
1.59319402913709331e-05 0.00000000000000000e+00 -2.15713768918231546e-07 
1.67280516711434650e-05 0.00000000000000000e+00 -1.47091935802364645e-07 
1.24295321693609100e-05 0.00000000000000000e+00 2.08124140907289915e-07 
1.33068196917396357e-05 0.00000000000000000e+00 6.30087178111197804e-08 
8.35812937690492290e-06 0.00000000000000000e+00 -2.18345733893608006e-07 
9.41965873485973782e-06 0.00000000000000000e+00 1.69156991717614841e-08 
4.67285194435916816e-06 0.00000000000000000e+00 3.40858683412344463e-07 
5.53864995715592739e-06 0.00000000000000000e+00 -5.92920107074887118e-08 
1.19429481017233347e-06 0.00000000000000000e+00 -6.69928070655441828e-07 
2.03189286188364576e-06 0.00000000000000000e+00 9.82081109737551480e-09 
-4.36248257471615447e-08 0.00000000000000000e+00 -3.09856957650566113e-07 
5.59549984850086236e-07 0.00000000000000000e+00 -8.93273447901026124e-07 
9.66733316683974803e-07 0.00000000000000000e+00 -8.08332529971516299e-07 
-4.36248257435616547e-08 0.00000000000000000e+00 -3.09856957652056891e-07 
5.59549984849339153e-07 0.00000000000000000e+00 -8.93273447889920040e-07 
-4.36248257489818185e-08 0.00000000000000000e+00 -3.09856957648823766e-07 
1.62302604680111381e-05 0.00000000000000000e+00 2.54186207188888023e-08 
1.70476057328870816e-05 0.00000000000000000e+00 2.65318065287625249e-07 
1.74230356262327945e-05 0.00000000000000000e+00 2.50064700063819069e-07 
1.67280516711464229e-05 0.00000000000000000e+00 -1.47091935762321321e-07 
1.59319402913727187e-05 0.00000000000000000e+00 -2.15713768921141316e-07 
1.33068196917398254e-05 0.00000000000000000e+00 6.30087177712365988e-08 
1.24295321693626498e-05 0.00000000000000000e+00 2.08124140916648358e-07 
9.41965873486214509e-06 0.00000000000000000e+00 1.69156991802102142e-08 
8.35812937690767067e-06 0.00000000000000000e+00 -2.18345733870000351e-07 
5.53864995715176846e-06 0.00000000000000000e+00 -5.92920107096071412e-08 
4.67285194435890049e-06 0.00000000000000000e+00 3.40858683426838838e-07 
2.03189286188246669e-06 0.00000000000000000e+00 9.82081112369113441e-09 
1.19429481016595193e-06 0.00000000000000000e+00 -6.69928070609995228e-07 
1.66144341662088141e-05 0.00000000000000000e+00 1.32421702815248245e-07 
1.73989878388000056e-05 0.00000000000000000e+00 1.33213620661583252e-07 
1.75373939340623368e-05 0.00000000000000000e+00 2.06208417019310915e-07 
1.70593861815949054e-05 0.00000000000000000e+00 -1.33020172945150740e-08 
1.69181270719078426e-05 0.00000000000000000e+00 -8.35331300459605299e-08 
1.38099972297301483e-05 0.00000000000000000e+00 -1.87222950328392211e-08 
1.43496131627730657e-05 0.00000000000000000e+00 -9.39619151232219068e-08 
1.51899838418559162e-05 0.00000000000000000e+00 -1.97997816391070127e-07 
1.43496131627739771e-05 0.00000000000000000e+00 -9.39619151226296191e-08 
9.89881171560320290e-06 0.00000000000000000e+00 1.23469995259339666e-07 
1.03412577044204895e-05 0.00000000000000000e+00 2.04732028212776032e-07 
1.13536194393814680e-05 0.00000000000000000e+00 2.70799488285555518e-07 
1.03412577044202506e-05 0.00000000000000000e+00 2.04732028232811749e-07 
6.00446899334056181e-06 0.00000000000000000e+00 -2.23255701947481577e-07 
6.49645905125097266e-06 0.00000000000000000e+00 -3.31367043139203250e-07 
7.44881513954310791e-06 0.00000000000000000e+00 -3.72239606020723353e-07 
6.49645905125179259e-06 0.00000000000000000e+00 -3.31367043132549171e-07 
2.47673918419220087e-06 0.00000000000000000e+00 3.34100648673661796e-07 
2.84060324600574636e-06 0.00000000000000000e+00 5.19198983965857436e-07 
3.73295994740992473e-06 0.00000000000000000e+00 6.13557661533365194e-07 
2.84060324600470705e-06 0.00000000000000000e+00 5.19198983977440400e-07 
7.88460315920381221e-06 0.00000000000000000e+00 -3.13871685809256934e-07 
1.70593861815893861e-05 0.00000000000000000e+00 -1.33020173327401357e-08 
1.55426764645095280e-05 0.00000000000000000e+00 -2.18570631703169765e-07 
1.51899838418574849e-05 0.00000000000000000e+00 -1.97997816381251003e-07 
1.73989878388026788e-05 0.00000000000000000e+00 1.33213620632106717e-07 
1.19194859192332011e-05 0.00000000000000000e+00 2.53808651217161722e-07 
1.13536194393830180e-05 0.00000000000000000e+00 2.70799488307775733e-07 
7.44881513954253701e-06 0.00000000000000000e+00 -3.72239606015880442e-07 
4.21460242827492421e-06 0.00000000000000000e+00 5.06156985733168898e-07 
3.73295994740991541e-06 0.00000000000000000e+00 6.13557661522785541e-07 
2.12973928150768635e-06 0.00000000000000000e+00 9.81335795676351750e-07 
-3.74425023489117796e-07 0.00000000000000000e+00 9.90204496031703030e-07 
-8.73320517546465063e-07 0.00000000000000000e+00 -3.88140521979400762e-07 
-8.73320517544882806e-07 0.00000000000000000e+00 -3.88140521977835922e-07 
-8.73320517547021564e-07 0.00000000000000000e+00 -3.88140521974482359e-07 
2.12973928150088128e-06 0.00000000000000000e+00 9.81335795719824869e-07 
-8.73320517541182119e-07 0.00000000000000000e+00 -3.88140521979548463e-07 
1.50610683783504861e-05 0.00000000000000000e+00 -3.86300725102040624e-07 
-4.25116650591445264e-07 0.00000000000000000e+00 2.74771047937134334e-07 
-4.98401620271320406e-09 0.00000000000000000e+00 6.60887580548096220e-08 
3.63975302037564864e-07 0.00000000000000000e+00 -1.88169087588854440e-07 
7.48903120668770342e-07 0.00000000000000000e+00 -1.53439077337287980e-07 
1.20930922781006665e-06 0.00000000000000000e+00 1.43124022324247182e-07 
1.80007264369685856e-06 0.00000000000000000e+00 2.55742675920469911e-07 
2.51827954541614381e-06 0.00000000000000000e+00 -1.04421040061196031e-07 
3.27353645660363144e-06 0.00000000000000000e+00 -3.89279629121570966e-07 
3.86270224905883437e-06 0.00000000000000000e+00 1.24763006320073011e-07 
4.10902181469941766e-06 0.00000000000000000e+00 6.14956324570653827e-07 
3.88829114234324311e-06 0.00000000000000000e+00 -3.18713219451627754e-07 
3.18999452911136102e-06 0.00000000000000000e+00 -8.45195771620977413e-07 
-7.68336829163955716e-07 0.00000000000000000e+00 2.56343174222771535e-08 
-5.07723404467406130e-07 0.00000000000000000e+00 2.65714814485994055e-07 
-3.06831368010425746e-07 0.00000000000000000e+00 2.51628228991995292e-07 
-9.64239925489174527e-08 0.00000000000000000e+00 1.35064516114031801e-07 
9.38030193888063595e-08 0.00000000000000000e+00 -1.17109240865799512e-08 
-2.12665080409960695e-07 0.00000000000000000e+00 2.08558570884732012e-07 
2.79309710990611634e-07 0.00000000000000000e+00 -1.44141173859869188e-07 
4.53067830988115585e-07 0.00000000000000000e+00 -2.13354969205749319e-07 
1.84648075279869990e-07 0.00000000000000000e+00 -8.13302424643657414e-08 
6.45554304439272930e-07 0.00000000000000000e+00 -1.95642185457723378e-07 
8.50940773995183424e-07 0.00000000000000000e+00 -9.13609385601976739e-08 
5.44952022516893699e-07 0.00000000000000000e+00 -2.16341658415959109e-07 
1.07665258668341853e-06 0.00000000000000000e+00 6.50806145086469922e-08 
1.35445889072822203e-06 0.00000000000000000e+00 2.09035776062573554e-07 
9.56913980822584395e-07 0.00000000000000000e+00 -1.62982666465687005e-08 
1.64151796947739702e-06 0.00000000000000000e+00 2.71727709202224364e-07 
1.97592810456725997e-06 0.00000000000000000e+00 2.04110831362123012e-07 
1.49651831792412993e-06 0.00000000000000000e+00 2.54636872737441910e-07 
2.34660881296713449e-06 0.00000000000000000e+00 1.40164155548526473e-08 
2.69900025330113406e-06 0.00000000000000000e+00 -2.20867995450919787e-07 
2.16332398279812703e-06 0.00000000000000000e+00 1.21269138809074009e-07 
3.08817590952137810e-06 0.00000000000000000e+00 -3.78676262142069653e-07 
3.42816714645516893e-06 0.00000000000000000e+00 -3.38339344685675077e-07 
2.88967473483530840e-06 0.00000000000000000e+00 -3.17804823813253828e-07 
3.72170523923476993e-06 0.00000000000000000e+00 -6.72273896976574217e-08 
3.98553999768655020e-06 0.00000000000000000e+00 3.26748328210797021e-07 
3.57390294494103738e-06 0.00000000000000000e+00 -2.29755857423626873e-07 
4.08651823166915722e-06 0.00000000000000000e+00 6.01909173225440399e-07 
4.11678943382678570e-06 0.00000000000000000e+00 5.02856251354384712e-07 
4.04791390610127726e-06 0.00000000000000000e+00 4.93374986474048353e-07 
4.01030414578204907e-06 0.00000000000000000e+00 -1.08250213421446085e-08 
3.69642469140513308e-06 0.00000000000000000e+00 -6.88583088348678275e-07 
4.09957268344460569e-06 0.00000000000000000e+00 3.13821192743342320e-07 
3.34060304775473640e-06 0.00000000000000000e+00 -9.17577581538147138e-07 
2.69945306578988580e-06 0.00000000000000000e+00 -3.28176150279946111e-07 
2.69945306578969607e-06 0.00000000000000000e+00 -3.28176150281910804e-07 
3.58479419879424616e-06 0.00000000000000000e+00 -8.28311920636367396e-07 
2.69945306578366096e-06 0.00000000000000000e+00 -3.28176150275574998e-07 
-7.68336829165621829e-07 0.00000000000000000e+00 2.56343174526914597e-08 
-3.06831368008781655e-07 0.00000000000000000e+00 2.51628228991561294e-07 
-5.07723404471037361e-07 0.00000000000000000e+00 2.65714814485532740e-07 
9.38030193903166193e-08 0.00000000000000000e+00 -1.17109240186754374e-08 
-9.64239925475664351e-08 0.00000000000000000e+00 1.35064516134129140e-07 
4.53067830986804378e-07 0.00000000000000000e+00 -2.13354969172185004e-07 
2.79309710991839832e-07 0.00000000000000000e+00 -1.44141173837516624e-07 
8.50940773996599239e-07 0.00000000000000000e+00 -9.13609386014807892e-08 
6.45554304439551180e-07 0.00000000000000000e+00 -1.95642185465056143e-07 
1.35445889072993685e-06 0.00000000000000000e+00 2.09035776056014661e-07 
1.07665258668295860e-06 0.00000000000000000e+00 6.50806145210844005e-08 
1.97592810456722439e-06 0.00000000000000000e+00 2.04110831354102881e-07 
1.64151796947820933e-06 0.00000000000000000e+00 2.71727709219466091e-07 
2.69900025330391148e-06 0.00000000000000000e+00 -2.20867995478930638e-07 
2.34660881296562423e-06 0.00000000000000000e+00 1.40164155562425754e-08 
3.42816714645619553e-06 0.00000000000000000e+00 -3.38339344676066706e-07 
3.08817590951752749e-06 0.00000000000000000e+00 -3.78676262133974665e-07 
3.98553999768555917e-06 0.00000000000000000e+00 3.26748328227882310e-07 
3.72170523923919060e-06 0.00000000000000000e+00 -6.72273896817593545e-08 
4.11678943382934543e-06 0.00000000000000000e+00 5.02856251369768524e-07 
4.08651823166803067e-06 0.00000000000000000e+00 6.01909173223803084e-07 
3.69642469140626726e-06 0.00000000000000000e+00 -6.88583088341019191e-07 
4.01030414578339670e-06 0.00000000000000000e+00 -1.08250213167209146e-08 
-7.02138409532328455e-07 0.00000000000000000e+00 1.33252690982281500e-07 
3.34060304775816350e-06 0.00000000000000000e+00 -9.17577581534062533e-07 
-3.74425023488186060e-07 0.00000000000000000e+00 9.90204496086379854e-07 
1.68962541579057391e-05 0.00000000000000000e+00 2.31270688249040485e-07 
1.75292627357453145e-05 0.00000000000000000e+00 1.93704825171434863e-07 
1.69098538711016564e-05 0.00000000000000000e+00 -8.73564734372253314e-08 
1.55370391197244078e-05 0.00000000000000000e+00 -2.18435779305488418e-07 
1.38077715324985592e-05 0.00000000000000000e+00 -1.83855840019240615e-08 
1.19186912123161218e-05 0.00000000000000000e+00 2.53853940781346189e-07 
9.89823146622037929e-06 0.00000000000000000e+00 1.23343703078565618e-07 
7.88287576981621623e-06 0.00000000000000000e+00 -3.14175111118336351e-07 
5.99786603650722687e-06 0.00000000000000000e+00 -2.21357632576144695e-07 
4.19073351514276241e-06 0.00000000000000000e+00 5.13233258596878982e-07 
2.40450020471767272e-06 0.00000000000000000e+00 2.87443022559025640e-07 
7.65263041971482924e-07 0.00000000000000000e+00 -8.84867299299794240e-07 
1.62302604680149734e-05 0.00000000000000000e+00 2.54186206614694976e-08 
1.72685820902770697e-05 0.00000000000000000e+00 2.71045748813095053e-07 
1.72112827522222894e-05 0.00000000000000000e+00 5.79330186992575535e-08 
1.63441694179916982e-05 0.00000000000000000e+00 -1.91712127967843034e-07 
1.48368231521083026e-05 0.00000000000000000e+00 -1.55675450426821398e-07 
1.28533548979225432e-05 0.00000000000000000e+00 1.41719724871372021e-07 
1.08196704261863727e-05 0.00000000000000000e+00 2.55189415226305597e-07 
8.87510392724202983e-06 0.00000000000000000e+00 -1.02322380545136677e-07 
7.00077783568568854e-06 0.00000000000000000e+00 -3.81098453001435183e-07 
5.09741425834448020e-06 0.00000000000000000e+00 1.40124082743606940e-07 
3.25749605726423588e-06 0.00000000000000000e+00 6.24089414008077641e-07 
1.54652354549804214e-06 0.00000000000000000e+00 -3.94063557305448718e-07 
1.17868025863664100e-07 0.00000000000000000e+00 -6.00460550472324472e-07 
1.20729895962771727e-07 0.00000000000000000e+00 1.41561107566447559e-05 
1.20729895962061066e-07 0.00000000000000000e+00 1.41561107566682390e-05 
1.59977183270985597e-06 0.00000000000000000e+00 1.41523233646007628e-05 
1.59977183271183041e-06 0.00000000000000000e+00 1.41523233646257672e-05 
8.53199796371494190e-07 0.00000000000000000e+00 2.53151663261746662e-05 
8.53199796373952279e-07 0.00000000000000000e+00 2.53151663261385182e-05 
1.20729895965466986e-07 0.00000000000000000e+00 1.41561107566816527e-05 
1.59977183271229373e-06 0.00000000000000000e+00 1.41523233645773458e-05 
2.12973928150317251e-06 0.00000000000000000e+00 9.81335795699798469e-07 
2.12973928150074152e-06 0.00000000000000000e+00 9.81335795724290426e-07 
2.12973928150490723e-06 0.00000000000000000e+00 9.81335795682416505e-07 
-3.74425023484795387e-07 0.00000000000000000e+00 9.90204496067502031e-07 
-3.74425023483622246e-07 0.00000000000000000e+00 9.90204496062680719e-07 
-3.74425023483600223e-07 0.00000000000000000e+00 9.90204496062981416e-07 
-5.89567378600138271e-07 0.00000000000000000e+00 2.31790608944236114e-07 
-1.90607680461029246e-07 0.00000000000000000e+00 1.96042761578326790e-07 
1.89863898027851329e-07 0.00000000000000000e+00 -8.51088981189121747e-08 
5.46419115590571022e-07 0.00000000000000000e+00 -2.16206718427166505e-07 
9.57388285974792725e-07 0.00000000000000000e+00 -1.59621485427143233e-08 
1.49671531362435345e-06 0.00000000000000000e+00 2.54682683506074439e-07 
2.16357673871732216e-06 0.00000000000000000e+00 1.21140728895447556e-07 
2.89042336962053280e-06 0.00000000000000000e+00 -3.18115646351406363e-07 
3.57591663953146515e-06 0.00000000000000000e+00 -2.27866105446846084e-07 
4.05024620748761760e-06 0.00000000000000000e+00 5.00541336119713003e-07 
4.09164977182230821e-06 0.00000000000000000e+00 2.66536231516030619e-07 
3.47304098660070841e-06 0.00000000000000000e+00 -9.06727371610513409e-07 
-7.68336829170221218e-07 0.00000000000000000e+00 2.56343174664669682e-08 
-3.89282681674068436e-07 0.00000000000000000e+00 2.71880033332610817e-07 
3.56573517507479020e-09 0.00000000000000000e+00 5.93733223211324730e-08 
3.66047855620134870e-07 0.00000000000000000e+00 -1.89016536857136980e-07 
7.49589584586865617e-07 0.00000000000000000e+00 -1.53092881149515951e-07 
1.20957369372871706e-06 0.00000000000000000e+00 1.43262821210183698e-07 
1.80022599903370822e-06 0.00000000000000000e+00 2.55711550847532712e-07 
2.51858308313681917e-06 0.00000000000000000e+00 -1.04629161887942526e-07 
3.27450415776767643e-06 0.00000000000000000e+00 -3.89163364087742077e-07 
3.86562889828938150e-06 0.00000000000000000e+00 1.29088644507434441e-07 
4.11027143762857288e-06 0.00000000000000000e+00 6.11292877707174649e-07 
3.84580708735535962e-06 0.00000000000000000e+00 -4.12501396685991129e-07 
2.92129363268115602e-06 0.00000000000000000e+00 -6.23348718585967376e-07 
1.50610683783539843e-05 0.00000000000000000e+00 -3.86300725092952172e-07 
1.50610683783530153e-05 0.00000000000000000e+00 -3.86300725081421301e-07 
1.50610683783531915e-05 0.00000000000000000e+00 -3.86300725071319163e-07 
8.53199796371341724e-07 0.00000000000000000e+00 2.53151663261470597e-05 
1.20729895963464600e-07 0.00000000000000000e+00 1.41561107566453319e-05 
1.59977183271290360e-06 0.00000000000000000e+00 1.41523233646143679e-05 
-5.89567378602465917e-07 0.00000000000000000e+00 2.31790608972904897e-07 
-1.90607680462808862e-07 0.00000000000000000e+00 1.96042761555409255e-07 
1.89863898028473898e-07 0.00000000000000000e+00 -8.51088981345860959e-08 
5.46419115593391642e-07 0.00000000000000000e+00 -2.16206718438635755e-07 
9.57388285974553861e-07 0.00000000000000000e+00 -1.59621485486842115e-08 
1.49671531362054159e-06 0.00000000000000000e+00 2.54682683500330285e-07 
2.16357673871901707e-06 0.00000000000000000e+00 1.21140728898343085e-07 
2.89042336961971838e-06 0.00000000000000000e+00 -3.18115646346979133e-07 
3.57591663953203944e-06 0.00000000000000000e+00 -2.27866105459280899e-07 
4.05024620748948615e-06 0.00000000000000000e+00 5.00541336121822538e-07 
4.09164977182202869e-06 0.00000000000000000e+00 2.66536231515326735e-07 
3.47304098660207298e-06 0.00000000000000000e+00 -9.06727371604108781e-07 
-7.68336829165576090e-07 0.00000000000000000e+00 2.56343174587545215e-08 
-3.89282681667919823e-07 0.00000000000000000e+00 2.71880033338842333e-07 
3.56573517714747982e-09 0.00000000000000000e+00 5.93733223274223279e-08 
3.66047855621022137e-07 0.00000000000000000e+00 -1.89016536860896536e-07 
7.49589584587269228e-07 0.00000000000000000e+00 -1.53092881158448125e-07 
1.20957369372851970e-06 0.00000000000000000e+00 1.43262821214438133e-07 
1.80022599903282243e-06 0.00000000000000000e+00 2.55711550838657131e-07 
2.51858308313712199e-06 0.00000000000000000e+00 -1.04629161885814250e-07 
3.27450415776982536e-06 0.00000000000000000e+00 -3.89163364077375135e-07 
3.86562889828884279e-06 0.00000000000000000e+00 1.29088644507474251e-07 
4.11027143762834248e-06 0.00000000000000000e+00 6.11292877702718409e-07 
3.84580708735248817e-06 0.00000000000000000e+00 -4.12501396690582471e-07 
2.92129363268126020e-06 0.00000000000000000e+00 -6.23348718596319812e-07 
1.50610683783550990e-05 0.00000000000000000e+00 -3.86300725090428649e-07 
1.68962541579079447e-05 0.00000000000000000e+00 2.31270688244496365e-07 
1.75292627357438136e-05 0.00000000000000000e+00 1.93704825211020418e-07 
1.69098538711031133e-05 0.00000000000000000e+00 -8.73564734370575130e-08 
1.55370391197231745e-05 0.00000000000000000e+00 -2.18435779302519832e-07 
1.38077715325008326e-05 0.00000000000000000e+00 -1.83855839839583869e-08 
1.19186912123159033e-05 0.00000000000000000e+00 2.53853940781300767e-07 
9.89823146621765184e-06 0.00000000000000000e+00 1.23343703077324503e-07 