# vtk DataFile Version 2.0

ASCII

DATASET UNSTRUCTURED_GRID

POINTS 281 double 

0.00000000000000000e+00  6.00000000000000012e-03  8.68039800000000063e-03
0.00000000000000000e+00  6.00000000000000012e-03  2.15013699999999988e-02
0.00000000000000000e+00  5.99999699999999997e-03  3.38432499999999983e-02
0.00000000000000000e+00  6.00000000000000012e-03  4.61511800000000000e-02
0.00000000000000000e+00  5.99999399999999981e-03  5.84285100000000029e-02
0.00000000000000000e+00  5.99999899999999978e-03  7.03572799999999943e-02
0.00000000000000000e+00  6.00000000000000012e-03  7.56573400000000035e-02
0.00000000000000000e+00  6.00000000000000012e-03  1.52458600000000000e-02
0.00000000000000000e+00  5.99999899999999978e-03  2.76822099999999988e-02
0.00000000000000000e+00  5.99999899999999978e-03  3.99985900000000005e-02
0.00000000000000000e+00  5.99999800000000031e-03  5.22986000000000006e-02
0.00000000000000000e+00  5.99999800000000031e-03  6.44963600000000026e-02
0.00000000000000000e+00  3.00000000000000006e-03  3.07692300000000007e-03
0.00000000000000000e+00  3.00000000000000006e-03  1.04940499999999996e-02
0.00000000000000000e+00  3.00000000000000006e-03  7.41712199999999995e-03
0.00000000000000000e+00  3.00000000000000006e-03  2.30583799999999998e-02
0.00000000000000000e+00  3.00000000000000006e-03  1.99814599999999995e-02
0.00000000000000000e+00  2.99999900000000016e-03  3.53831699999999985e-02
0.00000000000000000e+00  2.99999900000000016e-03  3.23062400000000000e-02
0.00000000000000000e+00  3.00000000000000006e-03  4.76909699999999992e-02
0.00000000000000000e+00  3.00000000000000006e-03  4.46140500000000023e-02
0.00000000000000000e+00  2.99999699999999991e-03  5.99834799999999987e-02
0.00000000000000000e+00  2.99999699999999991e-03  5.69065600000000019e-02
0.00000000000000000e+00  2.99999900000000016e-03  7.21017199999999941e-02
0.00000000000000000e+00  2.99999900000000016e-03  6.90247900000000025e-02
0.00000000000000000e+00  3.00000000000000006e-03  7.78286700000000026e-02
0.00000000000000000e+00  3.00000000000000006e-03  7.47517500000000057e-02
0.00000000000000000e+00  5.99999899999999978e-03  7.30073100000000058e-02
0.00000000000000000e+00  6.00000000000000012e-03  7.78286700000000026e-02
0.00000000000000000e+00  8.99999999999999932e-03  7.47517500000000057e-02
0.00000000000000000e+00  8.99999999999999932e-03  7.78286700000000026e-02
0.00000000000000000e+00  8.99999999999999932e-03  3.07692300000000007e-03
0.00000000000000000e+00  8.99999999999999932e-03  7.41712199999999995e-03
0.00000000000000000e+00  8.99999999999999932e-03  1.04940499999999996e-02
0.00000000000000000e+00  8.99999999999999932e-03  1.99814599999999995e-02
0.00000000000000000e+00  8.99999999999999932e-03  2.30583799999999998e-02
0.00000000000000000e+00  8.99999899999999985e-03  3.23062400000000000e-02
0.00000000000000000e+00  8.99999899999999985e-03  3.53831699999999985e-02
0.00000000000000000e+00  8.99999999999999932e-03  4.46140500000000023e-02
0.00000000000000000e+00  8.99999999999999932e-03  4.76909699999999992e-02
0.00000000000000000e+00  8.99999699999999916e-03  5.69065600000000019e-02
0.00000000000000000e+00  8.99999699999999916e-03  5.99834799999999987e-02
0.00000000000000000e+00  8.99999899999999985e-03  6.90247900000000025e-02
0.00000000000000000e+00  8.99999899999999985e-03  7.21017199999999941e-02
0.00000000000000000e+00  6.00000000000000012e-03  4.34019900000000031e-03
0.00000000000000000e+00  3.00000000000000006e-03  1.37767800000000006e-02
0.00000000000000000e+00  6.00000000000000012e-03  1.19631300000000006e-02
0.00000000000000000e+00  3.00000000000000006e-03  1.68536999999999992e-02
0.00000000000000000e+00  6.00000000000000012e-03  1.83736200000000002e-02
0.00000000000000000e+00  5.99999800000000031e-03  3.07627299999999985e-02
0.00000000000000000e+00  3.00000000000000006e-03  2.92257200000000002e-02
0.00000000000000000e+00  3.00000000000000006e-03  2.61487999999999998e-02
0.00000000000000000e+00  8.99999999999999932e-03  2.92257200000000002e-02
0.00000000000000000e+00  6.00000000000000012e-03  4.30748800000000029e-02
0.00000000000000000e+00  2.99999900000000016e-03  4.15377600000000000e-02
0.00000000000000000e+00  2.99999900000000016e-03  3.84608300000000014e-02
0.00000000000000000e+00  8.99999899999999985e-03  4.15377600000000000e-02
0.00000000000000000e+00  5.99999599999999963e-03  5.53635499999999975e-02
0.00000000000000000e+00  2.99999900000000016e-03  5.38416099999999981e-02
0.00000000000000000e+00  2.99999900000000016e-03  5.07646799999999995e-02
0.00000000000000000e+00  8.99999899999999985e-03  5.38416099999999981e-02
0.00000000000000000e+00  5.99999800000000031e-03  6.74268199999999984e-02
0.00000000000000000e+00  2.99999900000000016e-03  6.60943300000000067e-02
0.00000000000000000e+00  2.99999900000000016e-03  6.30174099999999959e-02
0.00000000000000000e+00  8.99999899999999985e-03  6.60943300000000067e-02
0.00000000000000000e+00  5.99999899999999978e-03  4.92248900000000003e-02
0.00000000000000000e+00  8.99999999999999932e-03  1.68536999999999992e-02
0.00000000000000000e+00  5.99999899999999978e-03  2.45917899999999988e-02
0.00000000000000000e+00  8.99999999999999932e-03  2.61487999999999998e-02
0.00000000000000000e+00  8.99999999999999932e-03  1.37767800000000006e-02
0.00000000000000000e+00  5.99999800000000031e-03  3.69209200000000029e-02
0.00000000000000000e+00  8.99999899999999985e-03  3.84608300000000014e-02
0.00000000000000000e+00  8.99999899999999985e-03  5.07646799999999995e-02
0.00000000000000000e+00  5.99999599999999963e-03  6.14624299999999985e-02
0.00000000000000000e+00  8.99999899999999985e-03  6.30174099999999959e-02
1.20000000000000002e-02  1.20000000000000002e-02  8.00000000000000017e-02
0.00000000000000000e+00  0.00000000000000000e+00  8.00000000000000017e-02
1.20000000000000002e-02  6.00000000000000012e-03  0.00000000000000000e+00
1.20000000000000002e-02  3.00000000000000006e-03  0.00000000000000000e+00
1.20000000000000002e-02  8.99999999999999932e-03  0.00000000000000000e+00
1.20000000000000002e-02  0.00000000000000000e+00  8.00000000000000017e-02
1.20000000000000002e-02  0.00000000000000000e+00  0.00000000000000000e+00
0.00000000000000000e+00  1.20000000000000002e-02  0.00000000000000000e+00
1.20000000000000002e-02  5.99999899999999978e-03  8.68039699999999942e-03
1.20000000000000002e-02  5.99999899999999978e-03  1.52458600000000000e-02
1.20000000000000002e-02  5.99999899999999978e-03  2.15013699999999988e-02
1.20000000000000002e-02  6.00000000000000012e-03  2.76822099999999988e-02
1.20000000000000002e-02  5.99999899999999978e-03  3.38432399999999967e-02
1.20000000000000002e-02  5.99999800000000031e-03  3.99985900000000005e-02
1.20000000000000002e-02  5.99999699999999997e-03  4.61511800000000000e-02
1.20000000000000002e-02  5.99999300000000034e-03  5.22986100000000023e-02
1.20000000000000002e-02  5.99998599999999969e-03  5.84285400000000010e-02
1.20000000000000002e-02  5.99997800000000043e-03  6.44963800000000059e-02
1.20000000000000002e-02  5.99997500000000027e-03  7.03572999999999976e-02
1.20000000000000002e-02  5.99997500000000027e-03  7.56573600000000068e-02
1.20000000000000002e-02  3.00000000000000006e-03  3.07692300000000007e-03
1.20000000000000002e-02  3.00000000000000006e-03  7.41712099999999961e-03
1.20000000000000002e-02  3.00000000000000006e-03  1.04940399999999996e-02
1.20000000000000002e-02  2.99999900000000016e-03  1.37767800000000006e-02
1.20000000000000002e-02  2.99999900000000016e-03  1.68536999999999992e-02
1.20000000000000002e-02  5.99999899999999978e-03  1.19631300000000006e-02
1.20000000000000002e-02  3.00000000000000006e-03  1.99814500000000013e-02
1.20000000000000002e-02  3.00000000000000006e-03  2.30583799999999998e-02
1.20000000000000002e-02  5.99999899999999978e-03  1.83736099999999986e-02
1.20000000000000002e-02  3.00000000000000006e-03  2.61487999999999998e-02
1.20000000000000002e-02  3.00000000000000006e-03  2.92257200000000002e-02
1.20000000000000002e-02  5.99999899999999978e-03  2.45917899999999988e-02
1.20000000000000002e-02  3.00000000000000006e-03  3.23062299999999983e-02
1.20000000000000002e-02  3.00000000000000006e-03  3.53831599999999968e-02
1.20000000000000002e-02  5.99999899999999978e-03  3.07627200000000003e-02
1.20000000000000002e-02  2.99999900000000016e-03  3.84608300000000014e-02
1.20000000000000002e-02  2.99999900000000016e-03  4.15377499999999983e-02
1.20000000000000002e-02  5.99999899999999978e-03  3.69209100000000012e-02
1.20000000000000002e-02  2.99999799999999981e-03  4.46140500000000023e-02
1.20000000000000002e-02  2.99999799999999981e-03  4.76909800000000009e-02
1.20000000000000002e-02  5.99999800000000031e-03  4.30748800000000029e-02
1.20000000000000002e-02  2.99999699999999991e-03  5.07646900000000012e-02
1.20000000000000002e-02  2.99999699999999991e-03  5.38416099999999981e-02
1.20000000000000002e-02  5.99999500000000015e-03  4.92249000000000020e-02
1.20000000000000002e-02  2.99999299999999984e-03  5.69065799999999983e-02
1.20000000000000002e-02  2.99999299999999984e-03  5.99835000000000021e-02
1.20000000000000002e-02  5.99999000000000018e-03  5.53635800000000025e-02
1.20000000000000002e-02  2.99998900000000021e-03  6.30174200000000045e-02
1.20000000000000002e-02  2.99998900000000021e-03  6.60943499999999962e-02
1.20000000000000002e-02  5.99998200000000006e-03  6.14624599999999965e-02
1.20000000000000002e-02  2.99998799999999987e-03  6.90248100000000059e-02
1.20000000000000002e-02  2.99998799999999987e-03  7.21017300000000028e-02
1.20000000000000002e-02  5.99997700000000009e-03  6.74268400000000018e-02
1.20000000000000002e-02  2.99998699999999997e-03  7.47517600000000004e-02
1.20000000000000002e-02  2.99998699999999997e-03  7.78286799999999973e-02
1.20000000000000002e-02  5.99998700000000003e-03  7.78286799999999973e-02
1.20000000000000002e-02  5.99997500000000027e-03  7.30073299999999953e-02
1.20000000000000002e-02  8.99998699999999922e-03  7.78286799999999973e-02
1.20000000000000002e-02  8.99999999999999932e-03  3.07692300000000007e-03
[...]
POINT_DATA 281

SCALARS Rank unsigned_int
LOOKUP_TABLE default
0 0 0 0 0 0 0 0 0 0 0 0 0 0 0 0 0 0 0 0 0 0 0 0 0 0 0 0 0 0 0 0 0 0 0 0 0 0 0 0 0 0 0 0 0 0 0 0 0 0 0 0 0 0 0 0 0 0 0 0 0 0 0 0 0 0 0 0 0 0 0 0 0 0 0 0 0 0 0 0 0 0 0 0 0 0 0 0 0 0 0 0 0 0 0 0 0 0 0 0 0 0 0 0 0 0 0 0 0 0 0 0 0 0 0 0 0 0 0 0 0 0 0 0 0 0 0 0 0 0 0 0 0 0 0 0 0 0 0 0 0 0 0 0 0 0 0 0 0 0 0 0 0 0 0 0 0 0 0 0 0 0 0 0 0 0 0 0 0 0 0 0 0 0 0 0 0 0 0 0 0 0 0 0 0 0 0 0 0 0 0 0 0 0 0 0 0 0 0 0 0 0 0 0 0 0 0 0 0 0 0 0 0 0 0 0 0 0 0 0 0 0 0 0 0 0 0 0 0 0 0 0 0 0 0 0 0 0 0 0 0 0 0 0 0 0 0 0 0 0 0 0 0 0 0 0 0 0 0 0 0 0 0 0 0 0 0 0 0 0 0 0 0 0 0 0 0 0 0 0 0 

VECTORS Forces0 double
5.62570246398599226e-05 0.00000000000000000e+00 4.46479828913418648e-07 
4.16785239376617258e-05 0.00000000000000000e+00 -3.23259900008057459e-07 
2.39882359309589580e-05 0.00000000000000000e+00 2.48689974106689144e-07 
1.39599308267162034e-05 0.00000000000000000e+00 -1.58735365543598348e-07 
7.75656805572973862e-06 0.00000000000000000e+00 2.36324841421504346e-07 
2.00051897636613080e-06 0.00000000000000000e+00 -5.06100084021153482e-07 
-5.13697184687624950e-07 0.00000000000000000e+00 -1.38123921687846567e-06 
5.06069227624944836e-05 0.00000000000000000e+00 1.00265977599637548e-07 
3.23704583043199674e-05 0.00000000000000000e+00 -2.56945074749364602e-07 
1.80229813240977244e-05 0.00000000000000000e+00 4.41786833603108674e-07 
1.08317573557326748e-05 0.00000000000000000e+00 -6.28827170489876216e-07 
4.82496819806699143e-06 0.00000000000000000e+00 1.05846872411932741e-06 
5.48164591573875652e-05 0.00000000000000000e+00 2.52072867905487873e-08 
5.61542610018928259e-05 0.00000000000000000e+00 4.05901405361418069e-07 
5.64548048078611611e-05 0.00000000000000000e+00 4.30694826570005512e-07 
3.87005693891354015e-05 0.00000000000000000e+00 -3.62942566146284903e-07 
4.45670783299859932e-05 0.00000000000000000e+00 -2.51485590069670393e-07 
2.27273428427988260e-05 0.00000000000000000e+00 3.62585983256285336e-07 
2.55717225252918543e-05 0.00000000000000000e+00 1.14736173103092163e-07 
1.29272722114313066e-05 0.00000000000000000e+00 -3.55449521034727430e-07 
1.51442696940608809e-05 0.00000000000000000e+00 4.32211295305594138e-08 
7.14696129039978802e-06 0.00000000000000000e+00 5.81603040615072958e-07 
8.37413626706940710e-06 0.00000000000000000e+00 -9.18364317472304608e-08 
1.11828178585617142e-06 0.00000000000000000e+00 -1.13020567124372582e-06 
2.68733810935387909e-06 0.00000000000000000e+00 1.67181023022067647e-08 
-1.29514426225621258e-06 0.00000000000000000e+00 -5.25159326590364510e-07 
-1.28956396306894927e-07 0.00000000000000000e+00 -1.50637147214103602e-06 
6.76597684534149008e-07 0.00000000000000000e+00 -1.36345668707373385e-06 
-1.29514426226430175e-06 0.00000000000000000e+00 -5.25159326579329365e-07 
-1.28956396230334583e-07 0.00000000000000000e+00 -1.50637147213464685e-06 
-1.29514426229050979e-06 0.00000000000000000e+00 -5.25159326530123527e-07 
5.48164591573713835e-05 0.00000000000000000e+00 2.52072867316151994e-08 
5.64548048078433531e-05 0.00000000000000000e+00 4.30694826529788599e-07 
5.61542610018776539e-05 0.00000000000000000e+00 4.05901405347826790e-07 
4.45670783300481315e-05 0.00000000000000000e+00 -2.51485590094232284e-07 
3.87005693891491370e-05 0.00000000000000000e+00 -3.62942566168909365e-07 
2.55717225252898485e-05 0.00000000000000000e+00 1.14736173053182758e-07 
2.27273428428032238e-05 0.00000000000000000e+00 3.62585983233274839e-07 
1.51442696940537912e-05 0.00000000000000000e+00 4.32211295252959510e-08 
1.29272722114567583e-05 0.00000000000000000e+00 -3.55449521072735493e-07 
8.37413626706005417e-06 0.00000000000000000e+00 -9.18364317149407178e-08 
7.14696129040825411e-06 0.00000000000000000e+00 5.81603040589680710e-07 
2.68733810934477433e-06 0.00000000000000000e+00 1.67181022954779350e-08 
1.11828178586577423e-06 0.00000000000000000e+00 -1.13020567125437514e-06 
5.65875071963286159e-05 0.00000000000000000e+00 2.03448087799002746e-07 
5.30523149420093746e-05 0.00000000000000000e+00 2.12675176093447977e-07 
5.56892562925055847e-05 0.00000000000000000e+00 3.32056928672733416e-07 
4.83015783025051438e-05 0.00000000000000000e+00 -2.85958814415074917e-08 
4.64851517853424867e-05 0.00000000000000000e+00 -1.45502708646199479e-07 
2.76024308926992317e-05 0.00000000000000000e+00 -2.40795399112940876e-08 
3.00308326829252957e-05 0.00000000000000000e+00 -1.51535858342526865e-07 
3.41421963411717749e-05 0.00000000000000000e+00 -3.29242936835734175e-07 
3.00308326828829644e-05 0.00000000000000000e+00 -1.51535858340161737e-07 
1.60840120204942264e-05 0.00000000000000000e+00 2.22362414768772115e-07 
1.69289011966660740e-05 0.00000000000000000e+00 3.57731191913026072e-07 
1.94721152115918597e-05 0.00000000000000000e+00 4.67989068834446995e-07 
1.69289011966573428e-05 0.00000000000000000e+00 3.57731191911530635e-07 
9.10206801788553058e-06 0.00000000000000000e+00 -3.66902212787038464e-07 
9.94394495392661307e-06 0.00000000000000000e+00 -5.46995411433846137e-07 
1.14824748126739717e-05 0.00000000000000000e+00 -6.13826615003830218e-07 
9.94394495394416360e-06 0.00000000000000000e+00 -5.46995411434466165e-07 
3.46955731633769081e-06 0.00000000000000000e+00 5.63722745208990900e-07 
4.07611305206207920e-06 0.00000000000000000e+00 8.75432544399081070e-07 
5.56851262375023897e-06 0.00000000000000000e+00 1.03633775797046872e-06 
4.07611305204327930e-06 0.00000000000000000e+00 8.75432544382567316e-07 
1.21102899509110772e-05 0.00000000000000000e+00 -5.16346163564565557e-07 
4.83015783024934073e-05 0.00000000000000000e+00 -2.85958813478327946e-08 
3.61777012844291036e-05 0.00000000000000000e+00 -3.65758988061920804e-07 
3.41421963411660083e-05 0.00000000000000000e+00 -3.29242936805625118e-07 
5.30523149419891135e-05 0.00000000000000000e+00 2.12675176148304531e-07 
2.11785737863607399e-05 0.00000000000000000e+00 4.39882123609558119e-07 
1.94721152116063779e-05 0.00000000000000000e+00 4.67989068849764527e-07 
1.14824748126941006e-05 0.00000000000000000e+00 -6.13826615025934390e-07 
6.38828205622045347e-06 0.00000000000000000e+00 8.57792447365684653e-07 
5.56851262374927250e-06 0.00000000000000000e+00 1.03633775799637692e-06 
2.16794641349707593e-06 0.00000000000000000e+00 1.65938731273494368e-06 
-1.94922534320171585e-06 0.00000000000000000e+00 1.66223303999997940e-06 
-1.36154879241366397e-06 0.00000000000000000e+00 -6.46235204191038608e-07 
-1.36154879241115675e-06 0.00000000000000000e+00 -6.46235204191323317e-07 
-1.36154879242628815e-06 0.00000000000000000e+00 -6.46235204302648434e-07 
2.16794641354416037e-06 0.00000000000000000e+00 1.65938731272087954e-06 
-1.36154879248169088e-06 0.00000000000000000e+00 -6.46235204318855668e-07 
4.84879423620294798e-05 0.00000000000000000e+00 -6.59779647123545671e-07 
1.73519822710700753e-06 0.00000000000000000e+00 4.67296682910555591e-07 
2.37783636045298951e-06 0.00000000000000000e+00 1.14205410477255646e-07 
1.99360777006329526e-06 0.00000000000000000e+00 -3.17324210026960328e-07 
1.68990399702475253e-06 0.00000000000000000e+00 -2.62520734125797641e-07 
1.93381396222370230e-06 0.00000000000000000e+00 2.34221366117779211e-07 
2.81668192417579251e-06 0.00000000000000000e+00 4.22591094570953065e-07 
4.13054137975314099e-06 0.00000000000000000e+00 -1.83045680340743793e-07 
5.55303129349742935e-06 0.00000000000000000e+00 -6.59606384801478007e-07 
6.58651762741719851e-06 0.00000000000000000e+00 2.09358657523533186e-07 
6.95315055455053560e-06 0.00000000000000000e+00 1.03706766766923196e-06 
6.39175782346767351e-06 0.00000000000000000e+00 -5.32023906193069358e-07 
4.76279712570900978e-06 0.00000000000000000e+00 -1.41554899556658224e-06 
-1.45843305870345741e-07 0.00000000000000000e+00 4.88937215696201292e-08 
1.40683798167212726e-06 0.00000000000000000e+00 4.52251917685340666e-07 
2.10331204249912359e-06 0.00000000000000000e+00 4.27896043478314694e-07 
2.38602343206525794e-06 0.00000000000000000e+00 2.30797659781501456e-07 
2.32798487489435918e-06 0.00000000000000000e+00 -1.75230977720117374e-08 
2.29771060145752851e-06 0.00000000000000000e+00 3.54951755702542202e-07 
2.14865129245881465e-06 0.00000000000000000e+00 -2.42419140845203330e-07 
1.84583976857270695e-06 0.00000000000000000e+00 -3.60542346345141003e-07 
2.25270045433638918e-06 0.00000000000000000e+00 -1.35632254613108257e-07 
1.69442200282156416e-06 0.00000000000000000e+00 -3.32603551397408977e-07 
1.67193123613940156e-06 0.00000000000000000e+00 -1.58741142736896129e-07 
1.74159853178693453e-06 0.00000000000000000e+00 -3.66461763375261486e-07 
1.77026461197813996e-06 0.00000000000000000e+00 1.03431408814259025e-07 
2.15795381080735271e-06 0.00000000000000000e+00 3.44624548974016691e-07 
1.68341835943468338e-06 0.00000000000000000e+00 -3.29730144018301717e-08 
2.55975634519347288e-06 0.00000000000000000e+00 4.49603120976847355e-07 
3.14295996696299860e-06 0.00000000000000000e+00 3.35657294425057710e-07 
2.35979453935778506e-06 0.00000000000000000e+00 4.21023368506647764e-07 
3.85423281301801449e-06 0.00000000000000000e+00 1.59548032511886856e-08 
4.44079107225869034e-06 0.00000000000000000e+00 -3.78524449008929285e-07 
3.51496362964586633e-06 0.00000000000000000e+00 1.96283566286043370e-07 
5.19703012592763435e-06 0.00000000000000000e+00 -6.42621877175667380e-07 
5.79174337016051650e-06 0.00000000000000000e+00 -5.73080455639341107e-07 
4.79906434885742878e-06 0.00000000000000000e+00 -5.41003108622175172e-07 
6.29660360984815426e-06 0.00000000000000000e+00 -1.14877924683218317e-07 
6.84460314618160032e-06 0.00000000000000000e+00 5.50376126537448716e-07 
6.02453416170557698e-06 0.00000000000000000e+00 -3.89455748991430230e-07 
6.93239541713142955e-06 0.00000000000000000e+00 1.01459999090773340e-06 
6.97997701361488284e-06 0.00000000000000000e+00 8.49015237228932196e-07 
6.91227389902176383e-06 0.00000000000000000e+00 8.31416680942257811e-07 
6.72637113775224096e-06 0.00000000000000000e+00 -1.43536772226787732e-08 
5.90691846090110307e-06 0.00000000000000000e+00 -1.15375705163700014e-06 
6.96166996975999141e-06 0.00000000000000000e+00 5.31415335164398555e-07 
5.09940769512970309e-06 0.00000000000000000e+00 -1.53781084618600534e-06 
3.55828430051051703e-06 0.00000000000000000e+00 -5.44838499652010660e-07 
3.55828430046491277e-06 0.00000000000000000e+00 -5.44838499682169268e-07 
5.64508767984067538e-06 0.00000000000000000e+00 -1.38847901765926261e-06 
3.55828430048786482e-06 0.00000000000000000e+00 -5.44838499707994456e-07 
-1.45843305874045581e-07 0.00000000000000000e+00 4.88937215507406119e-08 
2.10331204247149676e-06 0.00000000000000000e+00 4.27896043399157559e-07 
1.40683798168146834e-06 0.00000000000000000e+00 4.52251917653014077e-07 
2.32798487491055445e-06 0.00000000000000000e+00 -1.75230977614121788e-08 
2.38602343208430941e-06 0.00000000000000000e+00 2.30797659780116769e-07 
1.84583976859270032e-06 0.00000000000000000e+00 -3.60542346281942604e-07 
2.14865129247193350e-06 0.00000000000000000e+00 -2.42419140908330154e-07 
1.67193123615851401e-06 0.00000000000000000e+00 -1.58741142750737495e-07 
1.69442200283955175e-06 0.00000000000000000e+00 -3.32603551399283461e-07 
2.15795381081235359e-06 0.00000000000000000e+00 3.44624548953985632e-07 
1.77026461199685600e-06 0.00000000000000000e+00 1.03431408825322334e-07 
3.14295996695816458e-06 0.00000000000000000e+00 3.35657294426587081e-07 
2.55975634520506199e-06 0.00000000000000000e+00 4.49603120973402049e-07 
4.44079107224907228e-06 0.00000000000000000e+00 -3.78524448999970323e-07 
3.85423281300463814e-06 0.00000000000000000e+00 1.59548032830419948e-08 
5.79174337016201067e-06 0.00000000000000000e+00 -5.73080455680191177e-07 
5.19703012593788515e-06 0.00000000000000000e+00 -6.42621877182333106e-07 
6.84460314615872281e-06 0.00000000000000000e+00 5.50376126563535214e-07 
6.29660360984207257e-06 0.00000000000000000e+00 -1.14877924693907450e-07 
6.97997701359580343e-06 0.00000000000000000e+00 8.49015237188355930e-07 
6.93239541711212398e-06 0.00000000000000000e+00 1.01459999092951909e-06 
5.90691846093165639e-06 0.00000000000000000e+00 -1.15375705169507399e-06 
6.72637113773720697e-06 0.00000000000000000e+00 -1.43536772263659076e-08 
3.69742178790513655e-07 0.00000000000000000e+00 2.29679080200709434e-07 
5.09940769517406474e-06 0.00000000000000000e+00 -1.53781084622390795e-06 
-1.94922534315667064e-06 0.00000000000000000e+00 1.66223304003429270e-06 
5.67236545593210843e-05 0.00000000000000000e+00 3.71788279566439334e-07 
5.53170399702035648e-05 0.00000000000000000e+00 3.11467208726075801e-07 
4.63871750817047713e-05 0.00000000000000000e+00 -1.51882140594920143e-07 
3.61430549624027416e-05 0.00000000000000000e+00 -3.65502284711476505e-07 
2.75928894003483146e-05 0.00000000000000000e+00 -2.35086025508028289e-08 
2.11760939364927957e-05 0.00000000000000000e+00 4.39957653517756870e-07 
1.60829721549556264e-05 0.00000000000000000e+00 2.22151665940026754e-07 
1.21075810596845186e-05 0.00000000000000000e+00 -5.16855277553524018e-07 
9.09121299305403425e-06 0.00000000000000000e+00 -3.63727271463813420e-07 
6.34764143653938547e-06 0.00000000000000000e+00 8.69582847232832773e-07 
3.34692596579167653e-06 0.00000000000000000e+00 4.85132169878598937e-07 
2.80267867840721863e-07 0.00000000000000000e+00 -1.49234070366479788e-06 
5.48164591573713361e-05 0.00000000000000000e+00 2.52072867814584297e-08 
5.62083948948827251e-05 0.00000000000000000e+00 4.41403516704265985e-07 
5.03884569836976680e-05 0.00000000000000000e+00 8.92348318700195954e-08 
4.16044081319600755e-05 0.00000000000000000e+00 -3.24618305083415272e-07 
3.23581994260890976e-05 0.00000000000000000e+00 -2.56355064858632576e-07 
2.39856383804191359e-05 0.00000000000000000e+00 2.48928362939189583e-07 
1.80218165433963872e-05 0.00000000000000000e+00 4.41736080076465533e-07 
1.39579604397530921e-05 0.00000000000000000e+00 -1.59089289148900311e-07 
1.08268237772470537e-05 0.00000000000000000e+00 -6.28645674751017725e-07 
7.74392281806526819e-06 0.00000000000000000e+00 2.43747732700422106e-07 
4.76727567840586785e-06 0.00000000000000000e+00 1.05253477981033116e-06 
1.78902235871601319e-06 0.00000000000000000e+00 -6.64967127821983601e-07 
-9.90296439216765651e-07 0.00000000000000000e+00 -1.01378144391034576e-06 
-1.13448943811664206e-06 0.00000000000000000e+00 2.38261202496661327e-05 
-1.13448943811466678e-06 0.00000000000000000e+00 2.38261202496176011e-05 
1.35780540626393194e-06 0.00000000000000000e+00 2.38265381118783481e-05 
1.35780540631695091e-06 0.00000000000000000e+00 2.38265381119138625e-05 
1.09420042519954751e-07 0.00000000000000000e+00 4.26127302548830235e-05 
1.09420042529147176e-07 0.00000000000000000e+00 4.26127302549029593e-05 
-1.13448943812775683e-06 0.00000000000000000e+00 2.38261202496343452e-05 
1.35780540629448315e-06 0.00000000000000000e+00 2.38265381119110368e-05 
2.16794641355256421e-06 0.00000000000000000e+00 1.65938731277660753e-06 
2.16794641352765551e-06 0.00000000000000000e+00 1.65938731276914687e-06 
2.16794641351125569e-06 0.00000000000000000e+00 1.65938731274995649e-06 
-1.94922534317006562e-06 0.00000000000000000e+00 1.66223303996923210e-06 
-1.94922534318758904e-06 0.00000000000000000e+00 1.66223303999855300e-06 
-1.94922534317143358e-06 0.00000000000000000e+00 1.66223303997259991e-06 
1.02153762725379828e-06 0.00000000000000000e+00 3.95293508364627257e-07 
2.32543231971619032e-06 0.00000000000000000e+00 3.33799555420305860e-07 
2.24776613356605790e-06 0.00000000000000000e+00 -1.42050320955493664e-07 
1.74043236934745386e-06 0.00000000000000000e+00 -3.66249043377577916e-07 
1.68361349856699698e-06 0.00000000000000000e+00 -3.24096591279168420e-08 
2.36005018989962195e-06 0.00000000000000000e+00 4.21100136789486160e-07 
3.51546828583900190e-06 0.00000000000000000e+00 1.96067592317554301e-07 
4.80052920169166124e-06 0.00000000000000000e+00 -5.41523341297601205e-07 
6.02797760243808755e-06 0.00000000000000000e+00 -3.86262100603317706e-07 
6.91359287658197788e-06 0.00000000000000000e+00 8.43503780296953343e-07 
6.94582133449142326e-06 0.00000000000000000e+00 4.51943587126348091e-07 
5.39227762589974091e-06 0.00000000000000000e+00 -1.52002262420269368e-06 
-1.45843305876186881e-07 0.00000000000000000e+00 4.88937215070462055e-08 
1.85928555230894259e-06 0.00000000000000000e+00 4.62317959934635405e-07 
2.37476540218665745e-06 0.00000000000000000e+00 1.02845340046815585e-07 
1.98973430909691203e-06 0.00000000000000000e+00 -3.18769509595513297e-07 
1.68992195655789966e-06 0.00000000000000000e+00 -2.61943833075834869e-07 
1.93419189661744285e-06 0.00000000000000000e+00 2.34453919368391689e-07 
2.81694995597368696e-06 0.00000000000000000e+00 4.22538642898193440e-07 
4.13103889322183991e-06 0.00000000000000000e+00 -1.83395230963821714e-07 
5.55462366642332020e-06 0.00000000000000000e+00 -6.59406087445197811e-07 
6.59278248603466567e-06 0.00000000000000000e+00 2.16663191050374390e-07 
6.95525568163416233e-06 0.00000000000000000e+00 1.03094520546349317e-06 
6.27977867103751490e-06 0.00000000000000000e+00 -6.89701937398252843e-07 
4.11026164699101611e-06 0.00000000000000000e+00 -1.04178911017585867e-06 
4.84879423619983971e-05 0.00000000000000000e+00 -6.59779647148909225e-07 
4.84879423620116447e-05 0.00000000000000000e+00 -6.59779647171347975e-07 
4.84879423619780548e-05 0.00000000000000000e+00 -6.59779647142837269e-07 
1.09420042515224072e-07 0.00000000000000000e+00 4.26127302548949497e-05 
-1.13448943811393918e-06 0.00000000000000000e+00 2.38261202496279010e-05 
1.35780540629716506e-06 0.00000000000000000e+00 2.38265381118904844e-05 
1.02153762726100483e-06 0.00000000000000000e+00 3.95293508327670362e-07 
2.32543231971942937e-06 0.00000000000000000e+00 3.33799555414276891e-07 
2.24776613357011010e-06 0.00000000000000000e+00 -1.42050321010710471e-07 
1.74043236935186182e-06 0.00000000000000000e+00 -3.66249043346613780e-07 
1.68361349857779496e-06 0.00000000000000000e+00 -3.24096591190994408e-08 
2.36005018989448385e-06 0.00000000000000000e+00 4.21100136770372756e-07 
3.51546828582829879e-06 0.00000000000000000e+00 1.96067592302530372e-07 
4.80052920170346804e-06 0.00000000000000000e+00 -5.41523341299174781e-07 
6.02797760242906157e-06 0.00000000000000000e+00 -3.86262100601673827e-07 
6.91359287658906585e-06 0.00000000000000000e+00 8.43503780273602762e-07 
6.94582133449656729e-06 0.00000000000000000e+00 4.51943587140747651e-07 
5.39227762590416327e-06 0.00000000000000000e+00 -1.52002262424920278e-06 
-1.45843305890864268e-07 0.00000000000000000e+00 4.88937214759766135e-08 
1.85928555230570354e-06 0.00000000000000000e+00 4.62317959932830166e-07 
2.37476540217662180e-06 0.00000000000000000e+00 1.02845340015361864e-07 
1.98973430909706450e-06 0.00000000000000000e+00 -3.18769509555969987e-07 
1.68992195655794879e-06 0.00000000000000000e+00 -2.61943833045854138e-07 
1.93419189661385990e-06 0.00000000000000000e+00 2.34453919387463906e-07 
2.81694995596847770e-06 0.00000000000000000e+00 4.22538642874867212e-07 
4.13103889322006284e-06 0.00000000000000000e+00 -1.83395230978038315e-07 
5.55462366642534291e-06 0.00000000000000000e+00 -6.59406087430262926e-07 
6.59278248603948190e-06 0.00000000000000000e+00 2.16663191062960029e-07 
6.95525568165039911e-06 0.00000000000000000e+00 1.03094520542304481e-06 
6.27977867103354147e-06 0.00000000000000000e+00 -6.89701937384710904e-07 
4.11026164699696906e-06 0.00000000000000000e+00 -1.04178911016174371e-06 
4.84879423620070504e-05 0.00000000000000000e+00 -6.59779647158861015e-07 
5.67236545592998407e-05 0.00000000000000000e+00 3.71788279572254003e-07 
5.53170399702027313e-05 0.00000000000000000e+00 3.11467208694913353e-07 
4.63871750817172260e-05 0.00000000000000000e+00 -1.51882140604471816e-07 
3.61430549623973342e-05 0.00000000000000000e+00 -3.65502284722162037e-07 
2.75928894003468780e-05 0.00000000000000000e+00 -2.35086025293473785e-08 
2.11760939364680116e-05 0.00000000000000000e+00 4.39957653525544067e-07 
1.60829721549525195e-05 0.00000000000000000e+00 2.22151665949633802e-07 
1.21075810596735698e-05 0.00000000000000000e+00 -5.16855277561868986e-07 