# vtk DataFile Version 2.0

ASCII

DATASET UNSTRUCTURED_GRID

POINTS 281 double 

0.00000000000000000e+00  6.00000000000000012e-03  8.68039800000000063e-03
0.00000000000000000e+00  6.00000000000000012e-03  2.15013699999999988e-02
0.00000000000000000e+00  5.99999699999999997e-03  3.38432499999999983e-02
0.00000000000000000e+00  6.00000000000000012e-03  4.61511800000000000e-02
0.00000000000000000e+00  5.99999399999999981e-03  5.84285100000000029e-02
0.00000000000000000e+00  5.99999899999999978e-03  7.03572799999999943e-02
0.00000000000000000e+00  6.00000000000000012e-03  7.56573400000000035e-02
0.00000000000000000e+00  6.00000000000000012e-03  1.52458600000000000e-02
0.00000000000000000e+00  5.99999899999999978e-03  2.76822099999999988e-02
0.00000000000000000e+00  5.99999899999999978e-03  3.99985900000000005e-02
0.00000000000000000e+00  5.99999800000000031e-03  5.22986000000000006e-02
0.00000000000000000e+00  5.99999800000000031e-03  6.44963600000000026e-02
0.00000000000000000e+00  3.00000000000000006e-03  3.07692300000000007e-03
0.00000000000000000e+00  3.00000000000000006e-03  1.04940499999999996e-02
0.00000000000000000e+00  3.00000000000000006e-03  7.41712199999999995e-03
0.00000000000000000e+00  3.00000000000000006e-03  2.30583799999999998e-02
0.00000000000000000e+00  3.00000000000000006e-03  1.99814599999999995e-02
0.00000000000000000e+00  2.99999900000000016e-03  3.53831699999999985e-02
0.00000000000000000e+00  2.99999900000000016e-03  3.23062400000000000e-02
0.00000000000000000e+00  3.00000000000000006e-03  4.76909699999999992e-02
0.00000000000000000e+00  3.00000000000000006e-03  4.46140500000000023e-02
0.00000000000000000e+00  2.99999699999999991e-03  5.99834799999999987e-02
0.00000000000000000e+00  2.99999699999999991e-03  5.69065600000000019e-02
0.00000000000000000e+00  2.99999900000000016e-03  7.21017199999999941e-02
0.00000000000000000e+00  2.99999900000000016e-03  6.90247900000000025e-02
0.00000000000000000e+00  3.00000000000000006e-03  7.78286700000000026e-02
0.00000000000000000e+00  3.00000000000000006e-03  7.47517500000000057e-02
0.00000000000000000e+00  5.99999899999999978e-03  7.30073100000000058e-02
0.00000000000000000e+00  6.00000000000000012e-03  7.78286700000000026e-02
0.00000000000000000e+00  8.99999999999999932e-03  7.47517500000000057e-02
0.00000000000000000e+00  8.99999999999999932e-03  7.78286700000000026e-02
0.00000000000000000e+00  8.99999999999999932e-03  3.07692300000000007e-03
0.00000000000000000e+00  8.99999999999999932e-03  7.41712199999999995e-03
0.00000000000000000e+00  8.99999999999999932e-03  1.04940499999999996e-02
0.00000000000000000e+00  8.99999999999999932e-03  1.99814599999999995e-02
0.00000000000000000e+00  8.99999999999999932e-03  2.30583799999999998e-02
0.00000000000000000e+00  8.99999899999999985e-03  3.23062400000000000e-02
0.00000000000000000e+00  8.99999899999999985e-03  3.53831699999999985e-02
0.00000000000000000e+00  8.99999999999999932e-03  4.46140500000000023e-02
0.00000000000000000e+00  8.99999999999999932e-03  4.76909699999999992e-02
0.00000000000000000e+00  8.99999699999999916e-03  5.69065600000000019e-02
0.00000000000000000e+00  8.99999699999999916e-03  5.99834799999999987e-02
0.00000000000000000e+00  8.99999899999999985e-03  6.90247900000000025e-02
0.00000000000000000e+00  8.99999899999999985e-03  7.21017199999999941e-02
0.00000000000000000e+00  6.00000000000000012e-03  4.34019900000000031e-03
0.00000000000000000e+00  3.00000000000000006e-03  1.37767800000000006e-02
0.00000000000000000e+00  6.00000000000000012e-03  1.19631300000000006e-02
0.00000000000000000e+00  3.00000000000000006e-03  1.68536999999999992e-02
0.00000000000000000e+00  6.00000000000000012e-03  1.83736200000000002e-02
0.00000000000000000e+00  5.99999800000000031e-03  3.07627299999999985e-02
0.00000000000000000e+00  3.00000000000000006e-03  2.92257200000000002e-02
0.00000000000000000e+00  3.00000000000000006e-03  2.61487999999999998e-02
0.00000000000000000e+00  8.99999999999999932e-03  2.92257200000000002e-02
0.00000000000000000e+00  6.00000000000000012e-03  4.30748800000000029e-02
0.00000000000000000e+00  2.99999900000000016e-03  4.15377600000000000e-02
0.00000000000000000e+00  2.99999900000000016e-03  3.84608300000000014e-02
0.00000000000000000e+00  8.99999899999999985e-03  4.15377600000000000e-02
0.00000000000000000e+00  5.99999599999999963e-03  5.53635499999999975e-02
0.00000000000000000e+00  2.99999900000000016e-03  5.38416099999999981e-02
0.00000000000000000e+00  2.99999900000000016e-03  5.07646799999999995e-02
0.00000000000000000e+00  8.99999899999999985e-03  5.38416099999999981e-02
0.00000000000000000e+00  5.99999800000000031e-03  6.74268199999999984e-02
0.00000000000000000e+00  2.99999900000000016e-03  6.60943300000000067e-02
0.00000000000000000e+00  2.99999900000000016e-03  6.30174099999999959e-02
0.00000000000000000e+00  8.99999899999999985e-03  6.60943300000000067e-02
0.00000000000000000e+00  5.99999899999999978e-03  4.92248900000000003e-02
0.00000000000000000e+00  8.99999999999999932e-03  1.68536999999999992e-02
0.00000000000000000e+00  5.99999899999999978e-03  2.45917899999999988e-02
0.00000000000000000e+00  8.99999999999999932e-03  2.61487999999999998e-02
0.00000000000000000e+00  8.99999999999999932e-03  1.37767800000000006e-02
0.00000000000000000e+00  5.99999800000000031e-03  3.69209200000000029e-02
0.00000000000000000e+00  8.99999899999999985e-03  3.84608300000000014e-02
0.00000000000000000e+00  8.99999899999999985e-03  5.07646799999999995e-02
0.00000000000000000e+00  5.99999599999999963e-03  6.14624299999999985e-02
0.00000000000000000e+00  8.99999899999999985e-03  6.30174099999999959e-02
1.20000000000000002e-02  1.20000000000000002e-02  8.00000000000000017e-02
0.00000000000000000e+00  0.00000000000000000e+00  8.00000000000000017e-02
1.20000000000000002e-02  6.00000000000000012e-03  0.00000000000000000e+00
1.20000000000000002e-02  3.00000000000000006e-03  0.00000000000000000e+00
1.20000000000000002e-02  8.99999999999999932e-03  0.00000000000000000e+00
1.20000000000000002e-02  0.00000000000000000e+00  8.00000000000000017e-02
1.20000000000000002e-02  0.00000000000000000e+00  0.00000000000000000e+00
0.00000000000000000e+00  1.20000000000000002e-02  0.00000000000000000e+00
1.20000000000000002e-02  5.99999899999999978e-03  8.68039699999999942e-03
1.20000000000000002e-02  5.99999899999999978e-03  1.52458600000000000e-02
1.20000000000000002e-02  5.99999899999999978e-03  2.15013699999999988e-02
1.20000000000000002e-02  6.00000000000000012e-03  2.76822099999999988e-02
1.20000000000000002e-02  5.99999899999999978e-03  3.38432399999999967e-02
1.20000000000000002e-02  5.99999800000000031e-03  3.99985900000000005e-02
1.20000000000000002e-02  5.99999699999999997e-03  4.61511800000000000e-02
1.20000000000000002e-02  5.99999300000000034e-03  5.22986100000000023e-02
1.20000000000000002e-02  5.99998599999999969e-03  5.84285400000000010e-02
1.20000000000000002e-02  5.99997800000000043e-03  6.44963800000000059e-02
1.20000000000000002e-02  5.99997500000000027e-03  7.03572999999999976e-02
1.20000000000000002e-02  5.99997500000000027e-03  7.56573600000000068e-02
1.20000000000000002e-02  3.00000000000000006e-03  3.07692300000000007e-03
1.20000000000000002e-02  3.00000000000000006e-03  7.41712099999999961e-03
1.20000000000000002e-02  3.00000000000000006e-03  1.04940399999999996e-02
1.20000000000000002e-02  2.99999900000000016e-03  1.37767800000000006e-02
1.20000000000000002e-02  2.99999900000000016e-03  1.68536999999999992e-02
1.20000000000000002e-02  5.99999899999999978e-03  1.19631300000000006e-02
1.20000000000000002e-02  3.00000000000000006e-03  1.99814500000000013e-02
1.20000000000000002e-02  3.00000000000000006e-03  2.30583799999999998e-02
1.20000000000000002e-02  5.99999899999999978e-03  1.83736099999999986e-02
1.20000000000000002e-02  3.00000000000000006e-03  2.61487999999999998e-02
1.20000000000000002e-02  3.00000000000000006e-03  2.92257200000000002e-02
1.20000000000000002e-02  5.99999899999999978e-03  2.45917899999999988e-02
1.20000000000000002e-02  3.00000000000000006e-03  3.23062299999999983e-02
1.20000000000000002e-02  3.00000000000000006e-03  3.53831599999999968e-02
1.20000000000000002e-02  5.99999899999999978e-03  3.07627200000000003e-02
1.20000000000000002e-02  2.99999900000000016e-03  3.84608300000000014e-02
1.20000000000000002e-02  2.99999900000000016e-03  4.15377499999999983e-02
1.20000000000000002e-02  5.99999899999999978e-03  3.69209100000000012e-02
1.20000000000000002e-02  2.99999799999999981e-03  4.46140500000000023e-02
1.20000000000000002e-02  2.99999799999999981e-03  4.76909800000000009e-02
1.20000000000000002e-02  5.99999800000000031e-03  4.30748800000000029e-02
1.20000000000000002e-02  2.99999699999999991e-03  5.07646900000000012e-02
1.20000000000000002e-02  2.99999699999999991e-03  5.38416099999999981e-02
1.20000000000000002e-02  5.99999500000000015e-03  4.92249000000000020e-02
1.20000000000000002e-02  2.99999299999999984e-03  5.69065799999999983e-02
1.20000000000000002e-02  2.99999299999999984e-03  5.99835000000000021e-02
1.20000000000000002e-02  5.99999000000000018e-03  5.53635800000000025e-02
1.20000000000000002e-02  2.99998900000000021e-03  6.30174200000000045e-02
1.20000000000000002e-02  2.99998900000000021e-03  6.60943499999999962e-02
1.20000000000000002e-02  5.99998200000000006e-03  6.14624599999999965e-02
1.20000000000000002e-02  2.99998799999999987e-03  6.90248100000000059e-02
1.20000000000000002e-02  2.99998799999999987e-03  7.21017300000000028e-02
1.20000000000000002e-02  5.99997700000000009e-03  6.74268400000000018e-02
1.20000000000000002e-02  2.99998699999999997e-03  7.47517600000000004e-02
1.20000000000000002e-02  2.99998699999999997e-03  7.78286799999999973e-02
1.20000000000000002e-02  5.99998700000000003e-03  7.78286799999999973e-02
1.20000000000000002e-02  5.99997500000000027e-03  7.30073299999999953e-02
1.20000000000000002e-02  8.99998699999999922e-03  7.78286799999999973e-02
1.20000000000000002e-02  8.99999999999999932e-03  3.07692300000000007e-03
[...]
POINT_DATA 281

SCALARS Rank unsigned_int
LOOKUP_TABLE default
0 0 0 0 0 0 0 0 0 0 0 0 0 0 0 0 0 0 0 0 0 0 0 0 0 0 0 0 0 0 0 0 0 0 0 0 0 0 0 0 0 0 0 0 0 0 0 0 0 0 0 0 0 0 0 0 0 0 0 0 0 0 0 0 0 0 0 0 0 0 0 0 0 0 0 0 0 0 0 0 0 0 0 0 0 0 0 0 0 0 0 0 0 0 0 0 0 0 0 0 0 0 0 0 0 0 0 0 0 0 0 0 0 0 0 0 0 0 0 0 0 0 0 0 0 0 0 0 0 0 0 0 0 0 0 0 0 0 0 0 0 0 0 0 0 0 0 0 0 0 0 0 0 0 0 0 0 0 0 0 0 0 0 0 0 0 0 0 0 0 0 0 0 0 0 0 0 0 0 0 0 0 0 0 0 0 0 0 0 0 0 0 0 0 0 0 0 0 0 0 0 0 0 0 0 0 0 0 0 0 0 0 0 0 0 0 0 0 0 0 0 0 0 0 0 0 0 0 0 0 0 0 0 0 0 0 0 0 0 0 0 0 0 0 0 0 0 0 0 0 0 0 0 0 0 0 0 0 0 0 0 0 0 0 0 0 0 0 0 0 0 0 0 0 0 0 0 0 0 0 0 

VECTORS Forces0 double
1.47259132090899387e-05 0.00000000000000000e+00 1.92768240729925183e-07 
1.41226355083071313e-05 0.00000000000000000e+00 -1.34354179493144700e-07 
1.14740998009969977e-05 0.00000000000000000e+00 9.83789215908452135e-08 
8.44906599753727928e-06 0.00000000000000000e+00 -7.26676386018723464e-08 
5.42987525507421281e-06 0.00000000000000000e+00 9.51169663444969550e-08 
2.38674521104131080e-06 0.00000000000000000e+00 -2.09899857132725144e-07 
1.15253238956223214e-06 0.00000000000000000e+00 -5.73645229938319868e-07 
1.47766493727813100e-05 0.00000000000000000e+00 4.54233595435801260e-08 
1.29825519867435333e-05 0.00000000000000000e+00 -1.10362067769275029e-07 
9.93107674502908744e-06 0.00000000000000000e+00 1.78088338839054011e-07 
6.98749095286499408e-06 0.00000000000000000e+00 -2.68247757038924075e-07 
3.86489326487229842e-06 0.00000000000000000e+00 4.40717929807858041e-07 
1.39047478110904825e-05 0.00000000000000000e+00 1.83010589632228371e-08 
1.49179815734490351e-05 0.00000000000000000e+00 1.75776912226481600e-07 
1.45958953198563579e-05 0.00000000000000000e+00 1.86611139827878016e-07 
1.37942507938472158e-05 0.00000000000000000e+00 -1.51812638430995346e-07 
1.44144664192199677e-05 0.00000000000000000e+00 -1.03610060523785394e-07 
1.11644809930691369e-05 0.00000000000000000e+00 1.44905962066522667e-07 
1.18094995967224835e-05 0.00000000000000000e+00 4.33600427073186669e-08 
8.04196271512057069e-06 0.00000000000000000e+00 -1.54114505853044583e-07 
8.87781492752231904e-06 0.00000000000000000e+00 1.07217835956824006e-08 
5.06968774961673936e-06 0.00000000000000000e+00 2.39186726248094410e-07 
5.78430766766707382e-06 0.00000000000000000e+00 -4.18562639518558376e-08 
1.94676824778768289e-06 0.00000000000000000e+00 -4.69497650813740331e-07 
2.73662957397214670e-06 0.00000000000000000e+00 7.47422098685875591e-09 
7.27835576248061146e-07 0.00000000000000000e+00 -2.16275559453625410e-07 
1.34068579402842268e-06 0.00000000000000000e+00 -6.25893486999579446e-07 
1.73052662677682177e-06 0.00000000000000000e+00 -5.66538708309341000e-07 
7.27835576246834643e-07 0.00000000000000000e+00 -2.16275559448763017e-07 
1.34068579402424596e-06 0.00000000000000000e+00 -6.25893487015407104e-07 
7.27835576245677596e-07 0.00000000000000000e+00 -2.16275559467138127e-07 
1.39047478110913736e-05 0.00000000000000000e+00 1.83010589752412817e-08 
1.45958953198559953e-05 0.00000000000000000e+00 1.86611139822259487e-07 
1.49179815734520421e-05 0.00000000000000000e+00 1.75776912171670945e-07 
1.44144664192189106e-05 0.00000000000000000e+00 -1.03610060546074272e-07 
1.37942507938450711e-05 0.00000000000000000e+00 -1.51812638416200751e-07 
1.18094995967222175e-05 0.00000000000000000e+00 4.33600426948493891e-08 
1.11644809930718424e-05 0.00000000000000000e+00 1.44905962053404880e-07 
8.87781492752135681e-06 0.00000000000000000e+00 1.07217836047642879e-08 
8.04196271512047921e-06 0.00000000000000000e+00 -1.54114505840633645e-07 
5.78430766766467925e-06 0.00000000000000000e+00 -4.18562639378064197e-08 
5.06968774961711375e-06 0.00000000000000000e+00 2.39186726254599676e-07 
2.73662957397515028e-06 0.00000000000000000e+00 7.47422098325823061e-09 
1.94676824778499356e-06 0.00000000000000000e+00 -4.69497650825299896e-07 
1.42308092736799034e-05 0.00000000000000000e+00 9.33859905933571840e-08 
1.49116801348505287e-05 0.00000000000000000e+00 9.36259788664050742e-08 
1.50201168386649656e-05 0.00000000000000000e+00 1.44918579928394469e-07 
1.46507747257894043e-05 0.00000000000000000e+00 -9.39938785196340322e-09 
1.45507593155308698e-05 0.00000000000000000e+00 -5.88447733428954465e-08 
1.21910787315918762e-05 0.00000000000000000e+00 -1.39647178949673991e-08 
1.26075293870596658e-05 0.00000000000000000e+00 -6.68146243126771624e-08 
1.32383123833211039e-05 0.00000000000000000e+00 -1.39640895551005350e-07 
1.26075293870619782e-05 0.00000000000000000e+00 -6.68146243098557486e-08 
9.24320127833307077e-06 0.00000000000000000e+00 8.55007371088751183e-08 
9.57140669758316144e-06 0.00000000000000000e+00 1.42617102934058818e-07 
1.03397340467704556e-05 0.00000000000000000e+00 1.88975274340792269e-07 
9.57140669758290733e-06 0.00000000000000000e+00 1.42617102935027824e-07 
6.16682538842828544e-06 0.00000000000000000e+00 -1.57068441884358062e-07 
6.57221994114528199e-06 0.00000000000000000e+00 -2.33105933209894782e-07 
7.33761831415524674e-06 0.00000000000000000e+00 -2.62010497749721783e-07 
6.57221994114372684e-06 0.00000000000000000e+00 -2.33105933202693096e-07 
3.14464304011633764e-06 0.00000000000000000e+00 2.35015231576028549e-07 
3.46776163765354111e-06 0.00000000000000000e+00 3.64804507228888077e-07 
4.25202794921600925e-06 0.00000000000000000e+00 4.30771705163163774e-07 
3.46776163765627534e-06 0.00000000000000000e+00 3.64804507218193227e-07 
7.67353862669206025e-06 0.00000000000000000e+00 -2.21079067644551861e-07 
1.46507747257874595e-05 0.00000000000000000e+00 -9.39938787406482216e-09 
1.34981507624785750e-05 0.00000000000000000e+00 -1.53908442388345514e-07 
1.32383123833210700e-05 0.00000000000000000e+00 -1.39640895560688499e-07 
1.49116801348519483e-05 0.00000000000000000e+00 9.36259788662763252e-08 
1.07773888953573323e-05 0.00000000000000000e+00 1.76956139250010630e-07 
1.03397340467730306e-05 0.00000000000000000e+00 1.88975274335571370e-07 
7.33761831415528486e-06 0.00000000000000000e+00 -2.62010497749439510e-07 
4.67352289736860308e-06 0.00000000000000000e+00 3.55290019591682017e-07 
4.25202794921756271e-06 0.00000000000000000e+00 4.30771705161440168e-07 
1.46771448722414236e-06 0.00000000000000000e+00 6.88778228468453565e-07 
3.69930541051995629e-07 0.00000000000000000e+00 6.96173755833613069e-07 
-1.30650161592693265e-06 0.00000000000000000e+00 -2.72859017301298888e-07 
-1.30650161591732645e-06 0.00000000000000000e+00 -2.72859017341098425e-07 
-1.30650161592105086e-06 0.00000000000000000e+00 -2.72859017305844755e-07 
1.46771448722970822e-06 0.00000000000000000e+00 6.88778228448130280e-07 
-1.30650161592136934e-06 0.00000000000000000e+00 -2.72859017335053045e-07 
1.29094410423966681e-05 0.00000000000000000e+00 -2.70655421218237591e-07 
-9.81577754596949048e-07 0.00000000000000000e+00 1.92522069903216187e-07 
-6.33861970626424049e-07 0.00000000000000000e+00 4.62347532378477126e-08 
-2.96467168186420415e-07 0.00000000000000000e+00 -1.31907011650827855e-07 
8.92486640701491969e-08 0.00000000000000000e+00 -1.07254442455355626e-07 
5.68071036344447513e-07 0.00000000000000000e+00 1.00992081712840705e-07 
1.16519427820307242e-06 0.00000000000000000e+00 1.80025735680444084e-07 
1.86170257145423583e-06 0.00000000000000000e+00 -7.28504107668827711e-08 
2.56802257686588575e-06 0.00000000000000000e+00 -2.72993867642743327e-07 
3.10395653513367391e-06 0.00000000000000000e+00 8.75241623695597888e-08 
3.31012982025999554e-06 0.00000000000000000e+00 4.31307718929434797e-07 
3.08138141043753398e-06 0.00000000000000000e+00 -2.24334069662843159e-07 
2.42560810168011554e-06 0.00000000000000000e+00 -5.93867016890152045e-07 
-1.24600246955507146e-06 0.00000000000000000e+00 1.76115737070734867e-08 
-1.04646980868222534e-06 0.00000000000000000e+00 1.86141345518284247e-07 
-8.90205407721246110e-07 0.00000000000000000e+00 1.76345841353023839e-07 
-7.15260375441888828e-07 0.00000000000000000e+00 9.46179194046625968e-08 
-5.46479151468770954e-07 0.00000000000000000e+00 -8.30340738453789742e-09 
-8.16108911452110546e-07 0.00000000000000000e+00 1.46177878491667561e-07 
-3.80654027194232232e-07 0.00000000000000000e+00 -1.01052809936143705e-07 
-2.06037553295390592e-07 0.00000000000000000e+00 -1.49536672445540467e-07 
-4.66247370772811869e-07 0.00000000000000000e+00 -5.70741066193866945e-08 
-1.36605423962666448e-08 0.00000000000000000e+00 -1.36958031379412826e-07 
1.96579404984775261e-07 0.00000000000000000e+00 -6.36438620097585339e-08 
-1.13415515910990475e-07 0.00000000000000000e+00 -1.51569349202651277e-07 
4.33983759122628404e-07 0.00000000000000000e+00 4.61941482189498219e-08 
7.12235264975514878e-07 0.00000000000000000e+00 1.47274360593622350e-07 
3.09696302711486188e-07 0.00000000000000000e+00 -1.09419165098388331e-08 
1.00592489211815819e-06 0.00000000000000000e+00 1.91264869299815001e-07 
1.33694247837956901e-06 0.00000000000000000e+00 1.43762849256602937e-07 
8.56866551358572345e-07 0.00000000000000000e+00 1.79283108850815663e-07 
1.69346939546074168e-06 0.00000000000000000e+00 1.02934945161976543e-08 
2.03550844033018059e-06 0.00000000000000000e+00 -1.54611929155970095e-07 
1.51665450722256729e-06 0.00000000000000000e+00 8.55923536830225001e-08 
2.39761385013030435e-06 0.00000000000000000e+00 -2.65493028161649623e-07 
2.71290730082608382e-06 0.00000000000000000e+00 -2.37260400896146211e-07 
2.21470771645136076e-06 0.00000000000000000e+00 -2.22699287827574863e-07 
2.98046025811997854e-06 0.00000000000000000e+00 -4.71035146808072313e-08 
3.20951358962337050e-06 0.00000000000000000e+00 2.29159959070360412e-07 
2.84754595380093147e-06 0.00000000000000000e+00 -1.61089778848861517e-07 
3.29548776364161540e-06 0.00000000000000000e+00 4.22218268145203359e-07 
3.30801140310433359e-06 0.00000000000000000e+00 3.52510867965829735e-07 
3.26380119287273624e-06 0.00000000000000000e+00 3.46076864818298035e-07 
3.19585140023815270e-06 0.00000000000000000e+00 -8.21281268972555024e-09 
2.90111527205706247e-06 0.00000000000000000e+00 -4.83960823870187991e-07 
3.28367979169749697e-06 0.00000000000000000e+00 2.19721996369382332e-07 
2.56595058942804671e-06 0.00000000000000000e+00 -6.44698136068375845e-07 
1.98042785542842424e-06 0.00000000000000000e+00 -2.30700488032596440e-07 
1.98042785543227485e-06 0.00000000000000000e+00 -2.30700488029015184e-07 
2.79584730115539533e-06 0.00000000000000000e+00 -5.82044002107818243e-07 
1.98042785542997431e-06 0.00000000000000000e+00 -2.30700488010856915e-07 
-1.24600246955091676e-06 0.00000000000000000e+00 1.76115737351910630e-08 
-8.90205407718620308e-07 0.00000000000000000e+00 1.76345841368939588e-07 
-1.04646980867663916e-06 0.00000000000000000e+00 1.86141345528419896e-07 
-5.46479151469530742e-07 0.00000000000000000e+00 -8.30340741757302939e-09 
-7.15260375445134658e-07 0.00000000000000000e+00 9.46179194017655324e-08 
-2.06037553296296070e-07 0.00000000000000000e+00 -1.49536672451399183e-07 
-3.80654027196622559e-07 0.00000000000000000e+00 -1.01052809931797897e-07 
1.96579404985570625e-07 0.00000000000000000e+00 -6.36438620069254205e-08 
-1.36605423979022654e-08 0.00000000000000000e+00 -1.36958031372355771e-07 
7.12235264977042502e-07 0.00000000000000000e+00 1.47274360588628138e-07 
4.33983759121783065e-07 0.00000000000000000e+00 4.61941482351376803e-08 
1.33694247837952708e-06 0.00000000000000000e+00 1.43762849252949737e-07 
1.00592489211756633e-06 0.00000000000000000e+00 1.91264869304549810e-07 
2.03550844032990022e-06 0.00000000000000000e+00 -1.54611929143432790e-07 
1.69346939545964562e-06 0.00000000000000000e+00 1.02934945240881897e-08 
2.71290730082538587e-06 0.00000000000000000e+00 -2.37260400904443851e-07 
2.39761385013091506e-06 0.00000000000000000e+00 -2.65493028146268140e-07 
3.20951358962217068e-06 0.00000000000000000e+00 2.29159959059175554e-07 
2.98046025812258232e-06 0.00000000000000000e+00 -4.71035146887448829e-08 
3.30801140310091582e-06 0.00000000000000000e+00 3.52510867957452791e-07 
3.29548776363928098e-06 0.00000000000000000e+00 4.22218268149001667e-07 
2.90111527205814879e-06 0.00000000000000000e+00 -4.83960823875151710e-07 
3.19585140023589536e-06 0.00000000000000000e+00 -8.21281267029503795e-09 
-1.20042832012606476e-06 0.00000000000000000e+00 9.31659799119852520e-08 
2.56595058943185540e-06 0.00000000000000000e+00 -6.44698136060154332e-07 
3.69930541050501462e-07 0.00000000000000000e+00 6.96173755851743809e-07 
1.44682274986095717e-05 0.00000000000000000e+00 1.62742190036921362e-07 
1.50146431889983035e-05 0.00000000000000000e+00 1.36130099944527555e-07 
1.45450123258301611e-05 0.00000000000000000e+00 -6.15377436593586355e-08 
1.34939311951770734e-05 0.00000000000000000e+00 -1.53815845414700501e-07 
1.21893727829047899e-05 0.00000000000000000e+00 -1.37283523603861405e-08 
1.07767742037887787e-05 0.00000000000000000e+00 1.76988054836492714e-07 
9.24277037256283427e-06 0.00000000000000000e+00 8.54119902456186709e-08 
7.67220316878557102e-06 0.00000000000000000e+00 -2.21291824686292104e-07 
6.16139080468162784e-06 0.00000000000000000e+00 -1.55734234043509050e-07 
4.65269656146226067e-06 0.00000000000000000e+00 3.60261244486240253e-07 
3.07972461111460774e-06 0.00000000000000000e+00 2.02289066104795466e-07 
1.53830809519132588e-06 0.00000000000000000e+00 -6.20138707246254197e-07 
1.39047478110929830e-05 0.00000000000000000e+00 1.83010589689191337e-08 
1.47843338243898934e-05 0.00000000000000000e+00 1.90565893698797572e-07 
1.47644823016007106e-05 0.00000000000000000e+00 4.07118411672099020e-08 
1.41147269663223896e-05 0.00000000000000000e+00 -1.34942078702629192e-07 
1.29806654167068168e-05 0.00000000000000000e+00 -1.10120889898918935e-07 
1.14735056491439312e-05 0.00000000000000000e+00 9.84765087912532776e-08 
9.93072448769523707e-06 0.00000000000000000e+00 1.78066999764972553e-07 
8.44833022506285654e-06 0.00000000000000000e+00 -7.28138602906305578e-08 
6.98513355149557663e-06 0.00000000000000000e+00 -2.68167486396674461e-07 
5.42234983127566494e-06 0.00000000000000000e+00 9.82123241185049025e-08 
3.83456077193477687e-06 0.00000000000000000e+00 4.38286925088316001e-07 
2.28029133853811381e-06 0.00000000000000000e+00 -2.75966775070226393e-07 
8.98639006237737054e-07 0.00000000000000000e+00 -4.20208542366693302e-07 
5.31227387174446459e-07 0.00000000000000000e+00 9.93745122186600153e-06 
5.31227387171880796e-07 0.00000000000000000e+00 9.93745122182885066e-06 
1.26962569430257914e-06 0.00000000000000000e+00 9.93418779588064278e-06 
1.26962569430813737e-06 0.00000000000000000e+00 9.93418779591297403e-06 
8.92886227292730426e-07 0.00000000000000000e+00 1.77699952999636983e-05 
8.92886227293187824e-07 0.00000000000000000e+00 1.77699952999592869e-05 
5.31227387173176757e-07 0.00000000000000000e+00 9.93745122183913534e-06 
1.26962569430277989e-06 0.00000000000000000e+00 9.93418779588647375e-06 
1.46771448722502921e-06 0.00000000000000000e+00 6.88778228471144165e-07 
1.46771448722585845e-06 0.00000000000000000e+00 6.88778228477763304e-07 
1.46771448722081691e-06 0.00000000000000000e+00 6.88778228481481779e-07 
3.69930541056480668e-07 0.00000000000000000e+00 6.96173755844043433e-07 
3.69930541055139815e-07 0.00000000000000000e+00 6.96173755824019574e-07 
3.69930541054737474e-07 0.00000000000000000e+00 6.96173755836708974e-07 
-1.11169368499726763e-06 0.00000000000000000e+00 1.62323964971154158e-07 
-7.97578291535062157e-07 0.00000000000000000e+00 1.37400395440110620e-07 
-4.61621730352569632e-07 0.00000000000000000e+00 -5.97202277410260701e-08 
-1.11949732902105786e-07 0.00000000000000000e+00 -1.51473504098367125e-07 
3.10196671374736699e-07 0.00000000000000000e+00 -1.07059342960490948e-08 
8.57070433695904819e-07 0.00000000000000000e+00 1.79315249190616206e-07 
1.51689578231566883e-06 0.00000000000000000e+00 8.55021909642885863e-08 
2.21540349834982311e-06 0.00000000000000000e+00 -2.22917680439378610e-07 
2.84938249663923609e-06 0.00000000000000000e+00 -1.59764282602578568e-07 
3.26580457489827463e-06 0.00000000000000000e+00 3.51105610015560507e-07 
3.27487218160016558e-06 0.00000000000000000e+00 1.86514097893629242e-07 
2.69045274583694130e-06 0.00000000000000000e+00 -6.37087269920656616e-07 
-1.24600246955368063e-06 0.00000000000000000e+00 1.76115737019310438e-08 
-9.53752823607999347e-07 0.00000000000000000e+00 1.90509447826855626e-07 
-6.26261102542815530e-07 0.00000000000000000e+00 4.15255851037702586e-08 
-2.94364157696823872e-07 0.00000000000000000e+00 -1.32500825858851549e-07 
8.99423145907697331e-08 0.00000000000000000e+00 -1.07010989324922147e-07 
5.68335210108493017e-07 0.00000000000000000e+00 1.01089543018392735e-07 
1.16534610444132115e-06 0.00000000000000000e+00 1.80003869626647100e-07 
1.86199793037996737e-06 0.00000000000000000e+00 -7.29965232843466495e-08 
2.56892692491797781e-06 0.00000000000000000e+00 -2.72912412366737726e-07 
3.10648858579997881e-06 0.00000000000000000e+00 9.05571993814042872e-08 
3.31067762657577262e-06 0.00000000000000000e+00 4.28729210012211774e-07 
3.04155512341527460e-06 0.00000000000000000e+00 -2.90167260545581145e-07 
2.18064660808915658e-06 0.00000000000000000e+00 -4.38018951749852176e-07 
1.29094410423942490e-05 0.00000000000000000e+00 -2.70655421243698025e-07 
1.29094410423920247e-05 0.00000000000000000e+00 -2.70655421226444705e-07 
1.29094410423933003e-05 0.00000000000000000e+00 -2.70655421241727827e-07 
8.92886227292416177e-07 0.00000000000000000e+00 1.77699952999687195e-05 
5.31227387175401065e-07 0.00000000000000000e+00 9.93745122184150364e-06 
1.26962569430667285e-06 0.00000000000000000e+00 9.93418779589917417e-06 
-1.11169368499849159e-06 0.00000000000000000e+00 1.62323964971475183e-07 
-7.97578291533101275e-07 0.00000000000000000e+00 1.37400395477998192e-07 
-4.61621730351711587e-07 0.00000000000000000e+00 -5.97202277513187910e-08 
-1.11949732901238848e-07 0.00000000000000000e+00 -1.51473504092216184e-07 
3.10196671373476314e-07 0.00000000000000000e+00 -1.07059342926799154e-08 
8.57070433696076132e-07 0.00000000000000000e+00 1.79315249198081214e-07 
1.51689578231704082e-06 0.00000000000000000e+00 8.55021909630531358e-08 
2.21540349835018140e-06 0.00000000000000000e+00 -2.22917680436861758e-07 
2.84938249663951476e-06 0.00000000000000000e+00 -1.59764282597999931e-07 
3.26580457489798749e-06 0.00000000000000000e+00 3.51105610019973760e-07 
3.27487218160004192e-06 0.00000000000000000e+00 1.86514097895457774e-07 
2.69045274583591766e-06 0.00000000000000000e+00 -6.37087269923046520e-07 
-1.24600246955832915e-06 0.00000000000000000e+00 1.76115737058120429e-08 
-9.53752823606994766e-07 0.00000000000000000e+00 1.90509447820534960e-07 
-6.26261102542909551e-07 0.00000000000000000e+00 4.15255851083746238e-08 
-2.94364157696041637e-07 0.00000000000000000e+00 -1.32500825867091909e-07 
8.99423145923418262e-08 0.00000000000000000e+00 -1.07010989324779422e-07 
5.68335210109271016e-07 0.00000000000000000e+00 1.01089543005752039e-07 
1.16534610444129976e-06 0.00000000000000000e+00 1.80003869625310271e-07 
1.86199793037822587e-06 0.00000000000000000e+00 -7.29965232860268982e-08 
2.56892692491672716e-06 0.00000000000000000e+00 -2.72912412366266563e-07 
3.10648858580092918e-06 0.00000000000000000e+00 9.05571993818364858e-08 
3.31067762657449953e-06 0.00000000000000000e+00 4.28729210014466576e-07 
3.04155512341623344e-06 0.00000000000000000e+00 -2.90167260546793884e-07 
2.18064660809101667e-06 0.00000000000000000e+00 -4.38018951750669139e-07 
1.29094410423947809e-05 0.00000000000000000e+00 -2.70655421226682722e-07 
1.44682274986060193e-05 0.00000000000000000e+00 1.62742190043129796e-07 
1.50146431889965315e-05 0.00000000000000000e+00 1.36130099960410535e-07 
1.45450123258278487e-05 0.00000000000000000e+00 -6.15377436774721174e-08 
1.34939311951759654e-05 0.00000000000000000e+00 -1.53815845392292509e-07 
1.21893727829028027e-05 0.00000000000000000e+00 -1.37283523552237394e-08 
1.07767742037899086e-05 0.00000000000000000e+00 1.76988054840714538e-07 
9.24277037256346277e-06 0.00000000000000000e+00 8.54119902509642959e-08 