# vtk DataFile Version 2.0

ASCII

DATASET UNSTRUCTURED_GRID

POINTS 281 double 

0.00000000000000000e+00  6.00000000000000012e-03  8.68039800000000063e-03
0.00000000000000000e+00  6.00000000000000012e-03  2.15013699999999988e-02
0.00000000000000000e+00  5.99999699999999997e-03  3.38432499999999983e-02
0.00000000000000000e+00  6.00000000000000012e-03  4.61511800000000000e-02
0.00000000000000000e+00  5.99999399999999981e-03  5.84285100000000029e-02
0.00000000000000000e+00  5.99999899999999978e-03  7.03572799999999943e-02
0.00000000000000000e+00  6.00000000000000012e-03  7.56573400000000035e-02
0.00000000000000000e+00  6.00000000000000012e-03  1.52458600000000000e-02
0.00000000000000000e+00  5.99999899999999978e-03  2.76822099999999988e-02
0.00000000000000000e+00  5.99999899999999978e-03  3.99985900000000005e-02
0.00000000000000000e+00  5.99999800000000031e-03  5.22986000000000006e-02
0.00000000000000000e+00  5.99999800000000031e-03  6.44963600000000026e-02
0.00000000000000000e+00  3.00000000000000006e-03  3.07692300000000007e-03
0.00000000000000000e+00  3.00000000000000006e-03  1.04940499999999996e-02
0.00000000000000000e+00  3.00000000000000006e-03  7.41712199999999995e-03
0.00000000000000000e+00  3.00000000000000006e-03  2.30583799999999998e-02
0.00000000000000000e+00  3.00000000000000006e-03  1.99814599999999995e-02
0.00000000000000000e+00  2.99999900000000016e-03  3.53831699999999985e-02
0.00000000000000000e+00  2.99999900000000016e-03  3.23062400000000000e-02
0.00000000000000000e+00  3.00000000000000006e-03  4.76909699999999992e-02
0.00000000000000000e+00  3.00000000000000006e-03  4.46140500000000023e-02
0.00000000000000000e+00  2.99999699999999991e-03  5.99834799999999987e-02
0.00000000000000000e+00  2.99999699999999991e-03  5.69065600000000019e-02
0.00000000000000000e+00  2.99999900000000016e-03  7.21017199999999941e-02
0.00000000000000000e+00  2.99999900000000016e-03  6.90247900000000025e-02
0.00000000000000000e+00  3.00000000000000006e-03  7.78286700000000026e-02
0.00000000000000000e+00  3.00000000000000006e-03  7.47517500000000057e-02
0.00000000000000000e+00  5.99999899999999978e-03  7.30073100000000058e-02
0.00000000000000000e+00  6.00000000000000012e-03  7.78286700000000026e-02
0.00000000000000000e+00  8.99999999999999932e-03  7.47517500000000057e-02
0.00000000000000000e+00  8.99999999999999932e-03  7.78286700000000026e-02
0.00000000000000000e+00  8.99999999999999932e-03  3.07692300000000007e-03
0.00000000000000000e+00  8.99999999999999932e-03  7.41712199999999995e-03
0.00000000000000000e+00  8.99999999999999932e-03  1.04940499999999996e-02
0.00000000000000000e+00  8.99999999999999932e-03  1.99814599999999995e-02
0.00000000000000000e+00  8.99999999999999932e-03  2.30583799999999998e-02
0.00000000000000000e+00  8.99999899999999985e-03  3.23062400000000000e-02
0.00000000000000000e+00  8.99999899999999985e-03  3.53831699999999985e-02
0.00000000000000000e+00  8.99999999999999932e-03  4.46140500000000023e-02
0.00000000000000000e+00  8.99999999999999932e-03  4.76909699999999992e-02
0.00000000000000000e+00  8.99999699999999916e-03  5.69065600000000019e-02
0.00000000000000000e+00  8.99999699999999916e-03  5.99834799999999987e-02
0.00000000000000000e+00  8.99999899999999985e-03  6.90247900000000025e-02
0.00000000000000000e+00  8.99999899999999985e-03  7.21017199999999941e-02
0.00000000000000000e+00  6.00000000000000012e-03  4.34019900000000031e-03
0.00000000000000000e+00  3.00000000000000006e-03  1.37767800000000006e-02
0.00000000000000000e+00  6.00000000000000012e-03  1.19631300000000006e-02
0.00000000000000000e+00  3.00000000000000006e-03  1.68536999999999992e-02
0.00000000000000000e+00  6.00000000000000012e-03  1.83736200000000002e-02
0.00000000000000000e+00  5.99999800000000031e-03  3.07627299999999985e-02
0.00000000000000000e+00  3.00000000000000006e-03  2.92257200000000002e-02
0.00000000000000000e+00  3.00000000000000006e-03  2.61487999999999998e-02
0.00000000000000000e+00  8.99999999999999932e-03  2.92257200000000002e-02
0.00000000000000000e+00  6.00000000000000012e-03  4.30748800000000029e-02
0.00000000000000000e+00  2.99999900000000016e-03  4.15377600000000000e-02
0.00000000000000000e+00  2.99999900000000016e-03  3.84608300000000014e-02
0.00000000000000000e+00  8.99999899999999985e-03  4.15377600000000000e-02
0.00000000000000000e+00  5.99999599999999963e-03  5.53635499999999975e-02
0.00000000000000000e+00  2.99999900000000016e-03  5.38416099999999981e-02
0.00000000000000000e+00  2.99999900000000016e-03  5.07646799999999995e-02
0.00000000000000000e+00  8.99999899999999985e-03  5.38416099999999981e-02
0.00000000000000000e+00  5.99999800000000031e-03  6.74268199999999984e-02
0.00000000000000000e+00  2.99999900000000016e-03  6.60943300000000067e-02
0.00000000000000000e+00  2.99999900000000016e-03  6.30174099999999959e-02
0.00000000000000000e+00  8.99999899999999985e-03  6.60943300000000067e-02
0.00000000000000000e+00  5.99999899999999978e-03  4.92248900000000003e-02
0.00000000000000000e+00  8.99999999999999932e-03  1.68536999999999992e-02
0.00000000000000000e+00  5.99999899999999978e-03  2.45917899999999988e-02
0.00000000000000000e+00  8.99999999999999932e-03  2.61487999999999998e-02
0.00000000000000000e+00  8.99999999999999932e-03  1.37767800000000006e-02
0.00000000000000000e+00  5.99999800000000031e-03  3.69209200000000029e-02
0.00000000000000000e+00  8.99999899999999985e-03  3.84608300000000014e-02
0.00000000000000000e+00  8.99999899999999985e-03  5.07646799999999995e-02
0.00000000000000000e+00  5.99999599999999963e-03  6.14624299999999985e-02
0.00000000000000000e+00  8.99999899999999985e-03  6.30174099999999959e-02
1.20000000000000002e-02  1.20000000000000002e-02  8.00000000000000017e-02
0.00000000000000000e+00  0.00000000000000000e+00  8.00000000000000017e-02
1.20000000000000002e-02  6.00000000000000012e-03  0.00000000000000000e+00
1.20000000000000002e-02  3.00000000000000006e-03  0.00000000000000000e+00
1.20000000000000002e-02  8.99999999999999932e-03  0.00000000000000000e+00
1.20000000000000002e-02  0.00000000000000000e+00  8.00000000000000017e-02
1.20000000000000002e-02  0.00000000000000000e+00  0.00000000000000000e+00
0.00000000000000000e+00  1.20000000000000002e-02  0.00000000000000000e+00
1.20000000000000002e-02  5.99999899999999978e-03  8.68039699999999942e-03
1.20000000000000002e-02  5.99999899999999978e-03  1.52458600000000000e-02
1.20000000000000002e-02  5.99999899999999978e-03  2.15013699999999988e-02
1.20000000000000002e-02  6.00000000000000012e-03  2.76822099999999988e-02
1.20000000000000002e-02  5.99999899999999978e-03  3.38432399999999967e-02
1.20000000000000002e-02  5.99999800000000031e-03  3.99985900000000005e-02
1.20000000000000002e-02  5.99999699999999997e-03  4.61511800000000000e-02
1.20000000000000002e-02  5.99999300000000034e-03  5.22986100000000023e-02
1.20000000000000002e-02  5.99998599999999969e-03  5.84285400000000010e-02
1.20000000000000002e-02  5.99997800000000043e-03  6.44963800000000059e-02
1.20000000000000002e-02  5.99997500000000027e-03  7.03572999999999976e-02
1.20000000000000002e-02  5.99997500000000027e-03  7.56573600000000068e-02
1.20000000000000002e-02  3.00000000000000006e-03  3.07692300000000007e-03
1.20000000000000002e-02  3.00000000000000006e-03  7.41712099999999961e-03
1.20000000000000002e-02  3.00000000000000006e-03  1.04940399999999996e-02
1.20000000000000002e-02  2.99999900000000016e-03  1.37767800000000006e-02
1.20000000000000002e-02  2.99999900000000016e-03  1.68536999999999992e-02
1.20000000000000002e-02  5.99999899999999978e-03  1.19631300000000006e-02
1.20000000000000002e-02  3.00000000000000006e-03  1.99814500000000013e-02
1.20000000000000002e-02  3.00000000000000006e-03  2.30583799999999998e-02
1.20000000000000002e-02  5.99999899999999978e-03  1.83736099999999986e-02
1.20000000000000002e-02  3.00000000000000006e-03  2.61487999999999998e-02
1.20000000000000002e-02  3.00000000000000006e-03  2.92257200000000002e-02
1.20000000000000002e-02  5.99999899999999978e-03  2.45917899999999988e-02
1.20000000000000002e-02  3.00000000000000006e-03  3.23062299999999983e-02
1.20000000000000002e-02  3.00000000000000006e-03  3.53831599999999968e-02
1.20000000000000002e-02  5.99999899999999978e-03  3.07627200000000003e-02
1.20000000000000002e-02  2.99999900000000016e-03  3.84608300000000014e-02
1.20000000000000002e-02  2.99999900000000016e-03  4.15377499999999983e-02
1.20000000000000002e-02  5.99999899999999978e-03  3.69209100000000012e-02
1.20000000000000002e-02  2.99999799999999981e-03  4.46140500000000023e-02
1.20000000000000002e-02  2.99999799999999981e-03  4.76909800000000009e-02
1.20000000000000002e-02  5.99999800000000031e-03  4.30748800000000029e-02
1.20000000000000002e-02  2.99999699999999991e-03  5.07646900000000012e-02
1.20000000000000002e-02  2.99999699999999991e-03  5.38416099999999981e-02
1.20000000000000002e-02  5.99999500000000015e-03  4.92249000000000020e-02
1.20000000000000002e-02  2.99999299999999984e-03  5.69065799999999983e-02
1.20000000000000002e-02  2.99999299999999984e-03  5.99835000000000021e-02
1.20000000000000002e-02  5.99999000000000018e-03  5.53635800000000025e-02
1.20000000000000002e-02  2.99998900000000021e-03  6.30174200000000045e-02
1.20000000000000002e-02  2.99998900000000021e-03  6.60943499999999962e-02
1.20000000000000002e-02  5.99998200000000006e-03  6.14624599999999965e-02
1.20000000000000002e-02  2.99998799999999987e-03  6.90248100000000059e-02
1.20000000000000002e-02  2.99998799999999987e-03  7.21017300000000028e-02
1.20000000000000002e-02  5.99997700000000009e-03  6.74268400000000018e-02
1.20000000000000002e-02  2.99998699999999997e-03  7.47517600000000004e-02
1.20000000000000002e-02  2.99998699999999997e-03  7.78286799999999973e-02
1.20000000000000002e-02  5.99998700000000003e-03  7.78286799999999973e-02
1.20000000000000002e-02  5.99997500000000027e-03  7.30073299999999953e-02
1.20000000000000002e-02  8.99998699999999922e-03  7.78286799999999973e-02
1.20000000000000002e-02  8.99999999999999932e-03  3.07692300000000007e-03
[...]
POINT_DATA 281

SCALARS Rank unsigned_int
LOOKUP_TABLE default
0 0 0 0 0 0 0 0 0 0 0 0 0 0 0 0 0 0 0 0 0 0 0 0 0 0 0 0 0 0 0 0 0 0 0 0 0 0 0 0 0 0 0 0 0 0 0 0 0 0 0 0 0 0 0 0 0 0 0 0 0 0 0 0 0 0 0 0 0 0 0 0 0 0 0 0 0 0 0 0 0 0 0 0 0 0 0 0 0 0 0 0 0 0 0 0 0 0 0 0 0 0 0 0 0 0 0 0 0 0 0 0 0 0 0 0 0 0 0 0 0 0 0 0 0 0 0 0 0 0 0 0 0 0 0 0 0 0 0 0 0 0 0 0 0 0 0 0 0 0 0 0 0 0 0 0 0 0 0 0 0 0 0 0 0 0 0 0 0 0 0 0 0 0 0 0 0 0 0 0 0 0 0 0 0 0 0 0 0 0 0 0 0 0 0 0 0 0 0 0 0 0 0 0 0 0 0 0 0 0 0 0 0 0 0 0 0 0 0 0 0 0 0 0 0 0 0 0 0 0 0 0 0 0 0 0 0 0 0 0 0 0 0 0 0 0 0 0 0 0 0 0 0 0 0 0 0 0 0 0 0 0 0 0 0 0 0 0 0 0 0 0 0 0 0 0 0 0 0 0 0 

VECTORS Forces0 double
1.04750712967208013e-05 0.00000000000000000e+00 1.49134127354188628e-07 
9.94232185977182179e-06 0.00000000000000000e+00 -1.02249994350796561e-07 
7.96782999640923988e-06 0.00000000000000000e+00 7.71633422113497393e-08 
5.73844672067122707e-06 0.00000000000000000e+00 -5.48620959061425979e-08 
3.48833952706494714e-06 0.00000000000000000e+00 7.36316379366055571e-08 
1.20500657500062969e-06 0.00000000000000000e+00 -1.61954491279470213e-07 
2.84313533087333796e-07 0.00000000000000000e+00 -4.42709346867987518e-07 
1.04625811579961596e-05 0.00000000000000000e+00 3.58522715550489636e-08 
9.08150322718870979e-06 0.00000000000000000e+00 -8.34366583038382205e-08 
6.83297254000650222e-06 0.00000000000000000e+00 1.38438127561846082e-07 
4.65040572208570341e-06 0.00000000000000000e+00 -2.05839324575822982e-07 
2.31570739663226335e-06 0.00000000000000000e+00 3.39604881204591088e-07 
9.90792620740737745e-06 0.00000000000000000e+00 1.44322859246154871e-08 
1.05999538049701584e-05 0.00000000000000000e+00 1.36363220982576819e-07 
1.03892942171966991e-05 0.00000000000000000e+00 1.44276140698698254e-07 
9.69644023666651316e-06 0.00000000000000000e+00 -1.15892836256076700e-07 
1.01621519219666216e-05 0.00000000000000000e+00 -7.83673814886091245e-08 
7.73671439518112084e-06 0.00000000000000000e+00 1.13265250904012466e-07 
8.21698065467379245e-06 0.00000000000000000e+00 3.46334491293674453e-08 
5.43885043465643032e-06 0.00000000000000000e+00 -1.17803911219241702e-07 
6.05222874525784173e-06 0.00000000000000000e+00 9.62974819142275083e-09 
3.21493813322810858e-06 0.00000000000000000e+00 1.84625963713130670e-07 
3.75681531699043334e-06 0.00000000000000000e+00 -3.18720726753814018e-08 
8.78441271184201212e-07 0.00000000000000000e+00 -3.62104445681431677e-07 
1.46364182769021798e-06 0.00000000000000000e+00 5.60343253982812893e-09 
-2.11158144613876696e-08 0.00000000000000000e+00 -1.67383142981509085e-07 
4.24728335721853932e-07 0.00000000000000000e+00 -4.82877943623499043e-07 
7.16954690797332697e-07 0.00000000000000000e+00 -4.36959758840723649e-07 
-2.11158144620212503e-08 0.00000000000000000e+00 -1.67383142962425857e-07 
4.24728335721754830e-07 0.00000000000000000e+00 -4.82877943627471627e-07 
-2.11158144654153113e-08 0.00000000000000000e+00 -1.67383142962328024e-07 
9.90792620740095186e-06 0.00000000000000000e+00 1.44322859563264948e-08 
1.03892942171986778e-05 0.00000000000000000e+00 1.44276140724197651e-07 
1.05999538049713629e-05 0.00000000000000000e+00 1.36363220960249772e-07 
1.01621519219655696e-05 0.00000000000000000e+00 -7.83673814870268934e-08 
9.69644023666715860e-06 0.00000000000000000e+00 -1.15892836255392191e-07 
8.21698065467400251e-06 0.00000000000000000e+00 3.46334491385408650e-08 
7.73671439518028905e-06 0.00000000000000000e+00 1.13265250894365978e-07 
6.05222874526089867e-06 0.00000000000000000e+00 9.62974820304933682e-09 
5.43885043465720875e-06 0.00000000000000000e+00 -1.17803911218608968e-07 
3.75681531698760680e-06 0.00000000000000000e+00 -3.18720726661106791e-08 
3.21493813322863163e-06 0.00000000000000000e+00 1.84625963715616818e-07 
1.46364182769105062e-06 0.00000000000000000e+00 5.60343254108544346e-09 
8.78441271183969549e-07 0.00000000000000000e+00 -3.62104445684416251e-07 
1.01395438554204498e-05 0.00000000000000000e+00 7.24389617339304329e-08 
1.05707309960586846e-05 0.00000000000000000e+00 7.31241508456349608e-08 
1.06618212554351579e-05 0.00000000000000000e+00 1.12827427130073697e-07 
1.03588552093765194e-05 0.00000000000000000e+00 -6.31661360487789863e-09 
1.02737669378675189e-05 0.00000000000000000e+00 -4.41619124169697299e-08 
8.49845929662856258e-06 0.00000000000000000e+00 -9.48478400229236980e-09 
8.80427184098870519e-06 0.00000000000000000e+00 -4.99842664150328744e-08 
9.27579583933974156e-06 0.00000000000000000e+00 -1.06284523045796072e-07 
8.80427184098757355e-06 0.00000000000000000e+00 -4.99842664113971443e-08 
6.32236056235528003e-06 0.00000000000000000e+00 6.72550930929138189e-08 
6.56691090734949303e-06 0.00000000000000000e+00 1.11136934707101182e-07 
7.13261953002050796e-06 0.00000000000000000e+00 1.46959243260162537e-07 
6.56691090734659449e-06 0.00000000000000000e+00 1.11136934703988548e-07 
4.04344005472245720e-06 0.00000000000000000e+00 -1.20541660402316754e-07 
4.34389607540931542e-06 0.00000000000000000e+00 -1.78953863824368895e-07 
4.91263691998396850e-06 0.00000000000000000e+00 -2.01009423520734570e-07 
4.34389607540841672e-06 0.00000000000000000e+00 -1.78953863825154730e-07 
1.76860783426813647e-06 0.00000000000000000e+00 1.80989860731139547e-07 
2.01451864797050021e-06 0.00000000000000000e+00 2.81042903854954905e-07 
2.60635187769280346e-06 0.00000000000000000e+00 3.32028609096898530e-07 
2.01451864796627902e-06 0.00000000000000000e+00 2.81042903845286448e-07 
5.16503184069320581e-06 0.00000000000000000e+00 -1.69484046869673601e-07 
1.03588552093766989e-05 0.00000000000000000e+00 -6.31661359830509501e-09 
9.47348781486157826e-06 0.00000000000000000e+00 -1.17506919992870361e-07 
9.27579583934110020e-06 0.00000000000000000e+00 -1.06284523048115381e-07 
1.05707309960612342e-05 0.00000000000000000e+00 7.31241508075420627e-08 
7.45217390491409062e-06 0.00000000000000000e+00 1.37924214471077394e-07 
7.13261953002002261e-06 0.00000000000000000e+00 1.46959243258953080e-07 
4.91263691998582943e-06 0.00000000000000000e+00 -2.01009423518301680e-07 
2.92017899449188372e-06 0.00000000000000000e+00 2.73982909907398378e-07 
2.60635187769223172e-06 0.00000000000000000e+00 3.32028609106643962e-07 
1.81915471200484368e-06 0.00000000000000000e+00 5.30626467323834384e-07 
-2.73656514750463076e-07 0.00000000000000000e+00 5.35672266982204364e-07 
-9.87687753968370867e-07 0.00000000000000000e+00 -2.09969776571804680e-07 
-9.87687753967212126e-07 0.00000000000000000e+00 -2.09969776555073556e-07 
-9.87687753970450333e-07 0.00000000000000000e+00 -2.09969776600534291e-07 
1.81915471201203499e-06 0.00000000000000000e+00 5.30626467347338701e-07 
-9.87687753969389001e-07 0.00000000000000000e+00 -2.09969776568308128e-07 
9.19139796397217457e-06 0.00000000000000000e+00 -2.08704260860357944e-07 
-7.51353091057860613e-07 0.00000000000000000e+00 1.48597359402356686e-07 
-4.46080021905380181e-07 0.00000000000000000e+00 3.57301262055788967e-08 
-1.09988333629283907e-07 0.00000000000000000e+00 -1.01726319970941916e-07 
2.92777637269246161e-07 0.00000000000000000e+00 -8.29422718633603870e-08 
7.80152057441984973e-07 0.00000000000000000e+00 7.73844722563908561e-08 
1.36212133547503307e-06 0.00000000000000000e+00 1.38232051938377314e-07 
2.01581310944282443e-06 0.00000000000000000e+00 -5.66090443101633499e-08 
2.66233370836848453e-06 0.00000000000000000e+00 -2.10804384917950042e-07 
3.14444548330313556e-06 0.00000000000000000e+00 6.70682962808693528e-08 
3.33733952649801580e-06 0.00000000000000000e+00 3.32138202839109322e-07 
3.16112315746532659e-06 0.00000000000000000e+00 -1.72916600435210204e-07 
2.62379877718060890e-06 0.00000000000000000e+00 -4.57664394174589889e-07 
-9.53649764671108714e-07 0.00000000000000000e+00 1.38831775547967199e-08 
-8.03708395945815931e-07 0.00000000000000000e+00 1.43708468970988949e-07 
-6.74882617983910966e-07 0.00000000000000000e+00 1.36077770934059358e-07 
-5.21017315487908015e-07 0.00000000000000000e+00 7.30337545124698340e-08 
-3.62446781288933674e-07 0.00000000000000000e+00 -6.33637667311969374e-09 
-6.10517525436022239e-07 0.00000000000000000e+00 1.12786444885029585e-07 
-1.95391210648649228e-07 0.00000000000000000e+00 -7.79238284937953944e-08 
-1.72591447142624473e-08 0.00000000000000000e+00 -1.15342372767447175e-07 
-2.82581523593600900e-07 0.00000000000000000e+00 -4.39725667493990527e-08 
1.84345585714395560e-07 0.00000000000000000e+00 -1.05762073633344194e-07 
4.03419335395864466e-07 0.00000000000000000e+00 -4.93738191727745789e-08 
7.93412754008843361e-08 0.00000000000000000e+00 -1.16955526671534768e-07 
6.44712527541458998e-07 0.00000000000000000e+00 3.52045200002801718e-08 
9.24515733232837713e-07 0.00000000000000000e+00 1.12999070653029428e-07 
5.18681981244001892e-07 0.00000000000000000e+00 -8.78786962953234018e-09 
1.20973686003377345e-06 0.00000000000000000e+00 1.46890247844510440e-07 
1.52595862402381277e-06 0.00000000000000000e+00 1.10277595596981532e-07 
1.06631559754907259e-06 0.00000000000000000e+00 1.37649072204923277e-07 
1.86184470333943063e-06 0.00000000000000000e+00 7.41824528661098024e-09 
2.17460808538592590e-06 0.00000000000000000e+00 -1.19582651435154360e-07 
1.69660790140665031e-06 0.00000000000000000e+00 6.54349588887877902e-08 
2.50700548912090230e-06 0.00000000000000000e+00 -2.05027327032456895e-07 
2.79103562349025143e-06 0.00000000000000000e+00 -1.83219335351929291e-07 
2.33885469421596369e-06 0.00000000000000000e+00 -1.72040413999371810e-07 
3.03095380748312357e-06 0.00000000000000000e+00 -3.66485459925378518e-08 
3.24250359526743784e-06 0.00000000000000000e+00 1.76189130062925851e-07 
2.91082962555264870e-06 0.00000000000000000e+00 -1.24486973949570550e-07 
3.32060361899540074e-06 0.00000000000000000e+00 3.25102888076281471e-07 
3.34282867965321439e-06 0.00000000000000000e+00 2.71400348706721993e-07 
3.29119410538238459e-06 0.00000000000000000e+00 2.66355565180852721e-07 
3.25780225562855032e-06 0.00000000000000000e+00 -6.50586168777683753e-09 
3.01110258523530344e-06 0.00000000000000000e+00 -3.72875861763831715e-07 
3.32894969119861859e-06 0.00000000000000000e+00 1.69049750109116361e-07 
2.73823598150245218e-06 0.00000000000000000e+00 -4.96781841739902589e-07 
2.24866450070473664e-06 0.00000000000000000e+00 -1.77831064505252393e-07 
2.24866450070380278e-06 0.00000000000000000e+00 -1.77831064512386317e-07 
2.92487276765677976e-06 0.00000000000000000e+00 -4.48445763962079085e-07 
2.24866450070545746e-06 0.00000000000000000e+00 -1.77831064510731214e-07 
-9.53649764668527805e-07 0.00000000000000000e+00 1.38831775396684997e-08 
-6.74882617983783911e-07 0.00000000000000000e+00 1.36077770914146407e-07 
-8.03708395945420367e-07 0.00000000000000000e+00 1.43708468943199333e-07 
-3.62446781288036666e-07 0.00000000000000000e+00 -6.33637668532512087e-09 
-5.21017315491248289e-07 0.00000000000000000e+00 7.30337545174660578e-08 
-1.72591447152229827e-08 0.00000000000000000e+00 -1.15342372782090363e-07 
-1.95391210649517437e-07 0.00000000000000000e+00 -7.79238284720551291e-08 
4.03419335393827775e-07 0.00000000000000000e+00 -4.93738191793870475e-08 
1.84345585713906822e-07 0.00000000000000000e+00 -1.05762073639558452e-07 
9.24515733232303870e-07 0.00000000000000000e+00 1.12999070652610147e-07 
6.44712527542508683e-07 0.00000000000000000e+00 3.52045199945918162e-08 
1.52595862402359508e-06 0.00000000000000000e+00 1.10277595594369679e-07 
1.20973686003564497e-06 0.00000000000000000e+00 1.46890247831119087e-07 
2.17460808538604617e-06 0.00000000000000000e+00 -1.19582651443146698e-07 
1.86184470333836654e-06 0.00000000000000000e+00 7.41824528526271555e-09 
2.79103562349136232e-06 0.00000000000000000e+00 -1.83219335355296591e-07 
2.50700548912171207e-06 0.00000000000000000e+00 -2.05027327026745405e-07 
3.24250359526677630e-06 0.00000000000000000e+00 1.76189130085867739e-07 
3.03095380748266236e-06 0.00000000000000000e+00 -3.66485459982907408e-08 
3.34282867965426090e-06 0.00000000000000000e+00 2.71400348699984269e-07 
3.32060361899613893e-06 0.00000000000000000e+00 3.25102888068774854e-07 
3.01110258523437001e-06 0.00000000000000000e+00 -3.72875861748442874e-07 
3.25780225563014528e-06 0.00000000000000000e+00 -6.50586167901978740e-09 
-9.21852226298425842e-07 0.00000000000000000e+00 7.20949301933848437e-08 
2.73823598150146285e-06 0.00000000000000000e+00 -4.96781841727319279e-07 
-2.73656514753659778e-07 0.00000000000000000e+00 5.35672266986748272e-07 
1.03037671448589809e-05 0.00000000000000000e+00 1.25861430197696447e-07 
1.06553458355904478e-05 0.00000000000000000e+00 1.06047700951581914e-07 
1.02688646662236535e-05 0.00000000000000000e+00 -4.62185445679505784e-08 
9.47029358313660768e-06 0.00000000000000000e+00 -1.17433701962274630e-07 
8.49720476097548554e-06 0.00000000000000000e+00 -9.30331359682672477e-09 
7.45172517342445826e-06 0.00000000000000000e+00 1.37948488010050822e-07 
6.32203913716608514e-06 0.00000000000000000e+00 6.71868915975442297e-08 
5.16403327847475332e-06 0.00000000000000000e+00 -1.69648082557023495e-07 
4.03939220345142834e-06 0.00000000000000000e+00 -1.19515601258412763e-07 
2.90471477633458112e-06 0.00000000000000000e+00 2.77807325271440240e-07 
1.71941667109210660e-06 0.00000000000000000e+00 1.55764204117601859e-07 
5.72953208181485010e-07 0.00000000000000000e+00 -4.78345494123047422e-07 
9.90792620740292036e-06 0.00000000000000000e+00 1.44322859338159590e-08 
1.05133168234531986e-05 0.00000000000000000e+00 1.47516749023608369e-07 
1.04527404152824462e-05 0.00000000000000000e+00 3.22182526244599976e-08 
9.93640488161521325e-06 0.00000000000000000e+00 -1.02709116166508169e-07 
9.08008365837057809e-06 0.00000000000000000e+00 -8.32494951416010278e-08 
7.96738690727120914e-06 0.00000000000000000e+00 7.72389550939895980e-08 
6.83271319640794699e-06 0.00000000000000000e+00 1.38421638190066045e-07 
5.73790736480499870e-06 0.00000000000000000e+00 -5.49751649076452686e-08 
4.64866155482037866e-06 0.00000000000000000e+00 -2.05778375543360110e-07 
3.48261586973251895e-06 0.00000000000000000e+00 7.60164146430058483e-08 
2.29280923906038799e-06 0.00000000000000000e+00 3.37725734964243915e-07 
1.12621647463521939e-06 0.00000000000000000e+00 -2.12885553407555260e-07 
1.00242734365262968e-07 0.00000000000000000e+00 -3.24522222252473374e-07 
1.57954272024797015e-07 0.00000000000000000e+00 7.65577018145098975e-06 
1.57954272025589838e-07 0.00000000000000000e+00 7.65577018143475382e-06 
1.35645322060860671e-06 0.00000000000000000e+00 7.65362991203026444e-06 
1.35645322060893535e-06 0.00000000000000000e+00 7.65362991203481809e-06 
7.50811321721754828e-07 0.00000000000000000e+00 1.36905711679359011e-05 
7.50811321722050442e-07 0.00000000000000000e+00 1.36905711679482796e-05 
1.57954272026414848e-07 0.00000000000000000e+00 7.65577018145415087e-06 
1.35645322060951600e-06 0.00000000000000000e+00 7.65362991202800795e-06 
1.81915471200460100e-06 0.00000000000000000e+00 5.30626467330252352e-07 
1.81915471200986913e-06 0.00000000000000000e+00 5.30626467330807159e-07 
1.81915471200772952e-06 0.00000000000000000e+00 5.30626467338958580e-07 
-2.73656514751413446e-07 0.00000000000000000e+00 5.35672266996894032e-07 
-2.73656514749135775e-07 0.00000000000000000e+00 5.35672266988845949e-07 
-2.73656514749893869e-07 0.00000000000000000e+00 5.35672266987985363e-07 
-8.54846419596695101e-07 0.00000000000000000e+00 1.25373649273457379e-07 
-5.94254174119677991e-07 0.00000000000000000e+00 1.06016791268026078e-07 
-2.77902295465306466e-07 0.00000000000000000e+00 -4.60151276811991721e-08 
8.08792666185403086e-08 0.00000000000000000e+00 -1.16882540891021937e-07 
5.19190476741736493e-07 0.00000000000000000e+00 -8.60614932821117252e-09 
1.06651287633269103e-06 0.00000000000000000e+00 1.37673847387353878e-07 
1.69683604917424464e-06 0.00000000000000000e+00 6.53654602771970024e-08 
2.33949376795782247e-06 0.00000000000000000e+00 -1.72208713976865067e-07 
2.91247489429683745e-06 0.00000000000000000e+00 -1.23465285328330169e-07 
3.29298716604759170e-06 0.00000000000000000e+00 2.70234938996933451e-07 
3.32264253657575402e-06 0.00000000000000000e+00 1.43459930225096994e-07 
2.83915394770461217e-06 0.00000000000000000e+00 -4.90875977990776374e-07 
-9.53649764670297257e-07 0.00000000000000000e+00 1.38831775595605126e-08 
-7.28414336354694095e-07 0.00000000000000000e+00 1.47031489061513374e-07 
-4.38937567175262605e-07 0.00000000000000000e+00 3.20986676772317776e-08 
-1.07847284622710059e-07 0.00000000000000000e+00 -1.02184488054813507e-07 
2.93503833750790690e-07 0.00000000000000000e+00 -8.27550784564886412e-08 
7.80418023679722577e-07 0.00000000000000000e+00 7.74594783199390671e-08 
1.36226637917936492e-06 0.00000000000000000e+00 1.38215198546206656e-07 
2.01608277036824633e-06 0.00000000000000000e+00 -5.67215673942243944e-08 
2.66314303606503584e-06 0.00000000000000000e+00 -2.10741379497900597e-07 
3.14679178076890933e-06 0.00000000000000000e+00 6.94047740665373026e-08 
3.33825765569412539e-06 0.00000000000000000e+00 3.30151625567477552e-07 
3.12768020345195519e-06 0.00000000000000000e+00 -2.23612631913741229e-07 
2.41814346902033155e-06 0.00000000000000000e+00 -3.37587068174491698e-07 
9.19139796397202718e-06 0.00000000000000000e+00 -2.08704260846977471e-07 
9.19139796397382120e-06 0.00000000000000000e+00 -2.08704260850202019e-07 
9.19139796397272006e-06 0.00000000000000000e+00 -2.08704260860493787e-07 
7.50811321723949490e-07 0.00000000000000000e+00 1.36905711679392028e-05 
1.57954272025598309e-07 0.00000000000000000e+00 7.65577018144021041e-06 
1.35645322061101397e-06 0.00000000000000000e+00 7.65362991203315113e-06 
-8.54846419598295146e-07 0.00000000000000000e+00 1.25373649293094780e-07 
-5.94254174119399317e-07 0.00000000000000000e+00 1.06016791256077620e-07 
-2.77902295467013237e-07 0.00000000000000000e+00 -4.60151276795631280e-08 
8.08792666184844044e-08 0.00000000000000000e+00 -1.16882540879435796e-07 
5.19190476741797056e-07 0.00000000000000000e+00 -8.60614932919828354e-09 
1.06651287633275371e-06 0.00000000000000000e+00 1.37673847378834103e-07 
1.69683604917366675e-06 0.00000000000000000e+00 6.53654602754013719e-08 
2.33949376795797833e-06 0.00000000000000000e+00 -1.72208713982035303e-07 
2.91247489429843369e-06 0.00000000000000000e+00 -1.23465285332854781e-07 
3.29298716604773612e-06 0.00000000000000000e+00 2.70234938995015768e-07 
3.32264253657855558e-06 0.00000000000000000e+00 1.43459930226022377e-07 
2.83915394770429411e-06 0.00000000000000000e+00 -4.90875977979570446e-07 
-9.53649764672038757e-07 0.00000000000000000e+00 1.38831775784462239e-08 
-7.28414336354666567e-07 0.00000000000000000e+00 1.47031489085336070e-07 
-4.38937567174764126e-07 0.00000000000000000e+00 3.20986676886870512e-08 
-1.07847284623347028e-07 0.00000000000000000e+00 -1.02184488064263431e-07 
2.93503833751652546e-07 0.00000000000000000e+00 -8.27550784581272264e-08 
7.80418023680988891e-07 0.00000000000000000e+00 7.74594783089374856e-08 
1.36226637917967620e-06 0.00000000000000000e+00 1.38215198548038629e-07 
2.01608277036800069e-06 0.00000000000000000e+00 -5.67215673963170422e-08 
2.66314303606478596e-06 0.00000000000000000e+00 -2.10741379507666410e-07 
3.14679178076632122e-06 0.00000000000000000e+00 6.94047740638612078e-08 
3.33825765569601640e-06 0.00000000000000000e+00 3.30151625570267678e-07 
3.12768020345258284e-06 0.00000000000000000e+00 -2.23612631906787300e-07 
2.41814346901854135e-06 0.00000000000000000e+00 -3.37587068175731754e-07 
9.19139796397088708e-06 0.00000000000000000e+00 -2.08704260838176375e-07 
1.03037671448624182e-05 0.00000000000000000e+00 1.25861430187659954e-07 
1.06553458355889147e-05 0.00000000000000000e+00 1.06047700956706755e-07 
1.02688646662211514e-05 0.00000000000000000e+00 -4.62185445606894943e-08 
9.47029358313790364e-06 0.00000000000000000e+00 -1.17433701961692375e-07 
8.49720476097607169e-06 0.00000000000000000e+00 -9.30331360663920442e-09 
7.45172517342389668e-06 0.00000000000000000e+00 1.37948488009918421e-07 
6.32203913716689321e-06 0.00000000000000000e+00 6.71868916012167528e-08 