# vtk DataFile Version 2.0

ASCII

DATASET UNSTRUCTURED_GRID

POINTS 281 double 

0.00000000000000000e+00  6.00000000000000012e-03  8.68039800000000063e-03
0.00000000000000000e+00  6.00000000000000012e-03  2.15013699999999988e-02
0.00000000000000000e+00  5.99999699999999997e-03  3.38432499999999983e-02
0.00000000000000000e+00  6.00000000000000012e-03  4.61511800000000000e-02
0.00000000000000000e+00  5.99999399999999981e-03  5.84285100000000029e-02
0.00000000000000000e+00  5.99999899999999978e-03  7.03572799999999943e-02
0.00000000000000000e+00  6.00000000000000012e-03  7.56573400000000035e-02
0.00000000000000000e+00  6.00000000000000012e-03  1.52458600000000000e-02
0.00000000000000000e+00  5.99999899999999978e-03  2.76822099999999988e-02
0.00000000000000000e+00  5.99999899999999978e-03  3.99985900000000005e-02
0.00000000000000000e+00  5.99999800000000031e-03  5.22986000000000006e-02
0.00000000000000000e+00  5.99999800000000031e-03  6.44963600000000026e-02
0.00000000000000000e+00  3.00000000000000006e-03  3.07692300000000007e-03
0.00000000000000000e+00  3.00000000000000006e-03  1.04940499999999996e-02
0.00000000000000000e+00  3.00000000000000006e-03  7.41712199999999995e-03
0.00000000000000000e+00  3.00000000000000006e-03  2.30583799999999998e-02
0.00000000000000000e+00  3.00000000000000006e-03  1.99814599999999995e-02
0.00000000000000000e+00  2.99999900000000016e-03  3.53831699999999985e-02
0.00000000000000000e+00  2.99999900000000016e-03  3.23062400000000000e-02
0.00000000000000000e+00  3.00000000000000006e-03  4.76909699999999992e-02
0.00000000000000000e+00  3.00000000000000006e-03  4.46140500000000023e-02
0.00000000000000000e+00  2.99999699999999991e-03  5.99834799999999987e-02
0.00000000000000000e+00  2.99999699999999991e-03  5.69065600000000019e-02
0.00000000000000000e+00  2.99999900000000016e-03  7.21017199999999941e-02
0.00000000000000000e+00  2.99999900000000016e-03  6.90247900000000025e-02
0.00000000000000000e+00  3.00000000000000006e-03  7.78286700000000026e-02
0.00000000000000000e+00  3.00000000000000006e-03  7.47517500000000057e-02
0.00000000000000000e+00  5.99999899999999978e-03  7.30073100000000058e-02
0.00000000000000000e+00  6.00000000000000012e-03  7.78286700000000026e-02
0.00000000000000000e+00  8.99999999999999932e-03  7.47517500000000057e-02
0.00000000000000000e+00  8.99999999999999932e-03  7.78286700000000026e-02
0.00000000000000000e+00  8.99999999999999932e-03  3.07692300000000007e-03
0.00000000000000000e+00  8.99999999999999932e-03  7.41712199999999995e-03
0.00000000000000000e+00  8.99999999999999932e-03  1.04940499999999996e-02
0.00000000000000000e+00  8.99999999999999932e-03  1.99814599999999995e-02
0.00000000000000000e+00  8.99999999999999932e-03  2.30583799999999998e-02
0.00000000000000000e+00  8.99999899999999985e-03  3.23062400000000000e-02
0.00000000000000000e+00  8.99999899999999985e-03  3.53831699999999985e-02
0.00000000000000000e+00  8.99999999999999932e-03  4.46140500000000023e-02
0.00000000000000000e+00  8.99999999999999932e-03  4.76909699999999992e-02
0.00000000000000000e+00  8.99999699999999916e-03  5.69065600000000019e-02
0.00000000000000000e+00  8.99999699999999916e-03  5.99834799999999987e-02
0.00000000000000000e+00  8.99999899999999985e-03  6.90247900000000025e-02
0.00000000000000000e+00  8.99999899999999985e-03  7.21017199999999941e-02
0.00000000000000000e+00  6.00000000000000012e-03  4.34019900000000031e-03
0.00000000000000000e+00  3.00000000000000006e-03  1.37767800000000006e-02
0.00000000000000000e+00  6.00000000000000012e-03  1.19631300000000006e-02
0.00000000000000000e+00  3.00000000000000006e-03  1.68536999999999992e-02
0.00000000000000000e+00  6.00000000000000012e-03  1.83736200000000002e-02
0.00000000000000000e+00  5.99999800000000031e-03  3.07627299999999985e-02
0.00000000000000000e+00  3.00000000000000006e-03  2.92257200000000002e-02
0.00000000000000000e+00  3.00000000000000006e-03  2.61487999999999998e-02
0.00000000000000000e+00  8.99999999999999932e-03  2.92257200000000002e-02
0.00000000000000000e+00  6.00000000000000012e-03  4.30748800000000029e-02
0.00000000000000000e+00  2.99999900000000016e-03  4.15377600000000000e-02
0.00000000000000000e+00  2.99999900000000016e-03  3.84608300000000014e-02
0.00000000000000000e+00  8.99999899999999985e-03  4.15377600000000000e-02
0.00000000000000000e+00  5.99999599999999963e-03  5.53635499999999975e-02
0.00000000000000000e+00  2.99999900000000016e-03  5.38416099999999981e-02
0.00000000000000000e+00  2.99999900000000016e-03  5.07646799999999995e-02
0.00000000000000000e+00  8.99999899999999985e-03  5.38416099999999981e-02
0.00000000000000000e+00  5.99999800000000031e-03  6.74268199999999984e-02
0.00000000000000000e+00  2.99999900000000016e-03  6.60943300000000067e-02
0.00000000000000000e+00  2.99999900000000016e-03  6.30174099999999959e-02
0.00000000000000000e+00  8.99999899999999985e-03  6.60943300000000067e-02
0.00000000000000000e+00  5.99999899999999978e-03  4.92248900000000003e-02
0.00000000000000000e+00  8.99999999999999932e-03  1.68536999999999992e-02
0.00000000000000000e+00  5.99999899999999978e-03  2.45917899999999988e-02
0.00000000000000000e+00  8.99999999999999932e-03  2.61487999999999998e-02
0.00000000000000000e+00  8.99999999999999932e-03  1.37767800000000006e-02
0.00000000000000000e+00  5.99999800000000031e-03  3.69209200000000029e-02
0.00000000000000000e+00  8.99999899999999985e-03  3.84608300000000014e-02
0.00000000000000000e+00  8.99999899999999985e-03  5.07646799999999995e-02
0.00000000000000000e+00  5.99999599999999963e-03  6.14624299999999985e-02
0.00000000000000000e+00  8.99999899999999985e-03  6.30174099999999959e-02
1.20000000000000002e-02  1.20000000000000002e-02  8.00000000000000017e-02
0.00000000000000000e+00  0.00000000000000000e+00  8.00000000000000017e-02
1.20000000000000002e-02  6.00000000000000012e-03  0.00000000000000000e+00
1.20000000000000002e-02  3.00000000000000006e-03  0.00000000000000000e+00
1.20000000000000002e-02  8.99999999999999932e-03  0.00000000000000000e+00
1.20000000000000002e-02  0.00000000000000000e+00  8.00000000000000017e-02
1.20000000000000002e-02  0.00000000000000000e+00  0.00000000000000000e+00
0.00000000000000000e+00  1.20000000000000002e-02  0.00000000000000000e+00
1.20000000000000002e-02  5.99999899999999978e-03  8.68039699999999942e-03
1.20000000000000002e-02  5.99999899999999978e-03  1.52458600000000000e-02
1.20000000000000002e-02  5.99999899999999978e-03  2.15013699999999988e-02
1.20000000000000002e-02  6.00000000000000012e-03  2.76822099999999988e-02
1.20000000000000002e-02  5.99999899999999978e-03  3.38432399999999967e-02
1.20000000000000002e-02  5.99999800000000031e-03  3.99985900000000005e-02
1.20000000000000002e-02  5.99999699999999997e-03  4.61511800000000000e-02
1.20000000000000002e-02  5.99999300000000034e-03  5.22986100000000023e-02
1.20000000000000002e-02  5.99998599999999969e-03  5.84285400000000010e-02
1.20000000000000002e-02  5.99997800000000043e-03  6.44963800000000059e-02
1.20000000000000002e-02  5.99997500000000027e-03  7.03572999999999976e-02
1.20000000000000002e-02  5.99997500000000027e-03  7.56573600000000068e-02
1.20000000000000002e-02  3.00000000000000006e-03  3.07692300000000007e-03
1.20000000000000002e-02  3.00000000000000006e-03  7.41712099999999961e-03
1.20000000000000002e-02  3.00000000000000006e-03  1.04940399999999996e-02
1.20000000000000002e-02  2.99999900000000016e-03  1.37767800000000006e-02
1.20000000000000002e-02  2.99999900000000016e-03  1.68536999999999992e-02
1.20000000000000002e-02  5.99999899999999978e-03  1.19631300000000006e-02
1.20000000000000002e-02  3.00000000000000006e-03  1.99814500000000013e-02
1.20000000000000002e-02  3.00000000000000006e-03  2.30583799999999998e-02
1.20000000000000002e-02  5.99999899999999978e-03  1.83736099999999986e-02
1.20000000000000002e-02  3.00000000000000006e-03  2.61487999999999998e-02
1.20000000000000002e-02  3.00000000000000006e-03  2.92257200000000002e-02
1.20000000000000002e-02  5.99999899999999978e-03  2.45917899999999988e-02
1.20000000000000002e-02  3.00000000000000006e-03  3.23062299999999983e-02
1.20000000000000002e-02  3.00000000000000006e-03  3.53831599999999968e-02
1.20000000000000002e-02  5.99999899999999978e-03  3.07627200000000003e-02
1.20000000000000002e-02  2.99999900000000016e-03  3.84608300000000014e-02
1.20000000000000002e-02  2.99999900000000016e-03  4.15377499999999983e-02
1.20000000000000002e-02  5.99999899999999978e-03  3.69209100000000012e-02
1.20000000000000002e-02  2.99999799999999981e-03  4.46140500000000023e-02
1.20000000000000002e-02  2.99999799999999981e-03  4.76909800000000009e-02
1.20000000000000002e-02  5.99999800000000031e-03  4.30748800000000029e-02
1.20000000000000002e-02  2.99999699999999991e-03  5.07646900000000012e-02
1.20000000000000002e-02  2.99999699999999991e-03  5.38416099999999981e-02
1.20000000000000002e-02  5.99999500000000015e-03  4.92249000000000020e-02
1.20000000000000002e-02  2.99999299999999984e-03  5.69065799999999983e-02
1.20000000000000002e-02  2.99999299999999984e-03  5.99835000000000021e-02
1.20000000000000002e-02  5.99999000000000018e-03  5.53635800000000025e-02
1.20000000000000002e-02  2.99998900000000021e-03  6.30174200000000045e-02
1.20000000000000002e-02  2.99998900000000021e-03  6.60943499999999962e-02
1.20000000000000002e-02  5.99998200000000006e-03  6.14624599999999965e-02
1.20000000000000002e-02  2.99998799999999987e-03  6.90248100000000059e-02
1.20000000000000002e-02  2.99998799999999987e-03  7.21017300000000028e-02
1.20000000000000002e-02  5.99997700000000009e-03  6.74268400000000018e-02
1.20000000000000002e-02  2.99998699999999997e-03  7.47517600000000004e-02
1.20000000000000002e-02  2.99998699999999997e-03  7.78286799999999973e-02
1.20000000000000002e-02  5.99998700000000003e-03  7.78286799999999973e-02
1.20000000000000002e-02  5.99997500000000027e-03  7.30073299999999953e-02
1.20000000000000002e-02  8.99998699999999922e-03  7.78286799999999973e-02
1.20000000000000002e-02  8.99999999999999932e-03  3.07692300000000007e-03
[...]
POINT_DATA 281

SCALARS Rank unsigned_int
LOOKUP_TABLE default
0 0 0 0 0 0 0 0 0 0 0 0 0 0 0 0 0 0 0 0 0 0 0 0 0 0 0 0 0 0 0 0 0 0 0 0 0 0 0 0 0 0 0 0 0 0 0 0 0 0 0 0 0 0 0 0 0 0 0 0 0 0 0 0 0 0 0 0 0 0 0 0 0 0 0 0 0 0 0 0 0 0 0 0 0 0 0 0 0 0 0 0 0 0 0 0 0 0 0 0 0 0 0 0 0 0 0 0 0 0 0 0 0 0 0 0 0 0 0 0 0 0 0 0 0 0 0 0 0 0 0 0 0 0 0 0 0 0 0 0 0 0 0 0 0 0 0 0 0 0 0 0 0 0 0 0 0 0 0 0 0 0 0 0 0 0 0 0 0 0 0 0 0 0 0 0 0 0 0 0 0 0 0 0 0 0 0 0 0 0 0 0 0 0 0 0 0 0 0 0 0 0 0 0 0 0 0 0 0 0 0 0 0 0 0 0 0 0 0 0 0 0 0 0 0 0 0 0 0 0 0 0 0 0 0 0 0 0 0 0 0 0 0 0 0 0 0 0 0 0 0 0 0 0 0 0 0 0 0 0 0 0 0 0 0 0 0 0 0 0 0 0 0 0 0 0 0 0 0 0 0 

VECTORS Forces0 double
3.90342285978204692e-03 0.00000000000000000e+00 -5.47946436216651049e-06 
3.48510987972839833e-04 0.00000000000000000e+00 -3.85669920037780594e-07 
-5.12968385314026574e-05 0.00000000000000000e+00 2.02748668430751298e-07 
5.48612901060116303e-05 0.00000000000000000e+00 9.02898932216277510e-08 
5.25246130702668488e-05 0.00000000000000000e+00 1.52050221608037727e-07 
9.44519879012768160e-06 0.00000000000000000e+00 -5.57989033978361827e-07 
-3.24018565958251727e-05 0.00000000000000000e+00 -1.87936743511320965e-06 
1.61057198262190191e-03 0.00000000000000000e+00 7.77129376422839361e-07 
-5.13895809990197404e-05 0.00000000000000000e+00 -7.99050716493799087e-07 
2.04551680155614176e-05 0.00000000000000000e+00 8.02996332368643680e-07 
5.83758249855605474e-05 0.00000000000000000e+00 -7.01139287910335370e-07 
3.98926575979441532e-05 0.00000000000000000e+00 1.23984592741077627e-06 
5.41486244504243552e-03 0.00000000000000000e+00 -1.48091440974503619e-05 
3.26803647594321300e-03 0.00000000000000000e+00 -2.41230846973839577e-06 
4.40205649650490458e-03 0.00000000000000000e+00 -8.61572416417015233e-06 
1.74969002543422583e-04 0.00000000000000000e+00 -6.79667314878072729e-07 
5.69040248747977226e-04 0.00000000000000000e+00 0.00000000000000000e+00 
-3.02866661625953023e-05 0.00000000000000000e+00 4.74152867648942346e-07 
-6.78355648984778386e-05 0.00000000000000000e+00 -9.44921408707885041e-08 
5.67642957022085085e-05 0.00000000000000000e+00 -1.98529315060111647e-07 
5.13734133833009289e-05 0.00000000000000000e+00 3.74081018579559913e-07 
5.08967778591655091e-05 0.00000000000000000e+00 5.74373618051751247e-07 
5.38238252507351893e-05 0.00000000000000000e+00 -2.27063240604126897e-07 
-3.72237605409765177e-06 0.00000000000000000e+00 -1.36478546389823539e-06 
1.84018822233426675e-05 0.00000000000000000e+00 8.66538389691732959e-08 
-4.71691143648057337e-05 0.00000000000000000e+00 -9.98628859029702302e-07 
-2.52606500421850090e-05 0.00000000000000000e+00 -1.96693970369603820e-06 
-1.10046922168482810e-05 0.00000000000000000e+00 -1.68907191166617396e-06 
-4.71691143647838329e-05 0.00000000000000000e+00 -9.98628859017385596e-07 
-2.52606500458474982e-05 0.00000000000000000e+00 -1.96693970368532620e-06 
-4.71691143699553688e-05 0.00000000000000000e+00 -9.98628859043282781e-07 
5.41486244504298022e-03 0.00000000000000000e+00 -1.48091440972812772e-05 
4.40205649650231377e-03 0.00000000000000000e+00 -8.61572416431862027e-06 
3.26803647594243671e-03 0.00000000000000000e+00 -2.41230846963483667e-06 
5.69040248747554604e-04 0.00000000000000000e+00 0.00000000000000000e+00 
1.74969002545411660e-04 0.00000000000000000e+00 -6.79667314924806501e-07 
-6.78355648993308888e-05 0.00000000000000000e+00 -9.44921408808962541e-08 
-3.02866661614184008e-05 0.00000000000000000e+00 4.74152867718600218e-07 
5.13734133863924771e-05 0.00000000000000000e+00 3.74081018609123269e-07 
5.67642957020010464e-05 0.00000000000000000e+00 -1.98529315088536590e-07 
5.38238252452439222e-05 0.00000000000000000e+00 -2.27063240607015491e-07 
5.08967778604145100e-05 0.00000000000000000e+00 5.74373618064051648e-07 
1.84018822236923227e-05 0.00000000000000000e+00 8.66538389972693787e-08 
-3.72237605330152212e-06 0.00000000000000000e+00 -1.36478546388338944e-06 
5.48197166534826388e-03 0.00000000000000000e+00 -1.64896013892509364e-05 
2.11490230435950038e-03 0.00000000000000000e+00 2.98374264014220042e-07 
2.79271255760924712e-03 0.00000000000000000e+00 -9.85743578258366059e-07 
1.16125169436014954e-03 0.00000000000000000e+00 7.80019990978538130e-07 
8.33029629001119849e-04 0.00000000000000000e+00 4.66086287144036303e-07 
-7.58201559985615509e-05 0.00000000000000000e+00 -3.82314411206558831e-07 
-7.06669020819478811e-05 0.00000000000000000e+00 -6.23783477351049792e-07 
-1.47995373190889316e-05 0.00000000000000000e+00 -8.84654245223410674e-07 
-7.06669020811990226e-05 0.00000000000000000e+00 -6.23783477315207593e-07 
4.41638753838793474e-05 0.00000000000000000e+00 5.98646554636602511e-07 
3.34557579837533770e-05 0.00000000000000000e+00 7.40566720275480241e-07 
5.66568492041832941e-06 0.00000000000000000e+00 7.79466898163267826e-07 
3.34557579823653814e-05 0.00000000000000000e+00 7.40566720220397688e-07 
5.52415007443550065e-05 0.00000000000000000e+00 -5.17995451468106586e-07 
5.68807840747130380e-05 0.00000000000000000e+00 -6.74326407043873574e-07 
5.85342412148209164e-05 0.00000000000000000e+00 -6.21599418550387412e-07 
5.68807840742877597e-05 0.00000000000000000e+00 -6.74326407046964820e-07 
2.75451509808778596e-05 0.00000000000000000e+00 7.31106881062168991e-07 
3.37987823331940604e-05 0.00000000000000000e+00 1.07095281652958950e-06 
4.44134701485662540e-05 0.00000000000000000e+00 1.16948036009794930e-06 
3.37987823372393271e-05 0.00000000000000000e+00 1.07095281655866899e-06 
5.78525164986824341e-05 0.00000000000000000e+00 -4.47853097375646077e-07 
1.16125169436342708e-03 0.00000000000000000e+00 7.80019991062038638e-07 
5.69659361050357189e-05 0.00000000000000000e+00 -8.49942826113908706e-07 
-1.47995373164935684e-05 0.00000000000000000e+00 -8.84654245184169332e-07 
2.11490230435625644e-03 0.00000000000000000e+00 2.98374263964966559e-07 
-1.09154799168954878e-05 0.00000000000000000e+00 6.71918427135528563e-07 
5.66568491883832158e-06 0.00000000000000000e+00 7.79466898142945388e-07 
5.85342412150152597e-05 0.00000000000000000e+00 -6.21599418533126151e-07 
4.81812292103474710e-05 0.00000000000000000e+00 9.21846766219900798e-07 
4.44134701475744801e-05 0.00000000000000000e+00 1.16948036008844728e-06 
-4.39124256477657613e-06 0.00000000000000000e+00 1.43989031202128888e-06 
-5.62007758760702639e-05 0.00000000000000000e+00 1.64679489112653513e-06 
-1.29982390487640652e-04 0.00000000000000000e+00 6.45318079900161108e-07 
-1.29982390488392005e-04 0.00000000000000000e+00 6.45318080085618971e-07 
-1.29982390487785502e-04 0.00000000000000000e+00 6.45318080110512423e-07 
-4.39124256348220136e-06 0.00000000000000000e+00 1.43989031200413477e-06 
-1.29982390489659003e-04 0.00000000000000000e+00 6.45318080016348617e-07 
4.61861023484246361e-03 0.00000000000000000e+00 -5.77895643706642127e-06 
1.55704523974537558e-05 0.00000000000000000e+00 -2.48556490286435649e-07 
-2.66082846474587748e-05 0.00000000000000000e+00 2.26379273418799853e-07 
-1.02701793819739998e-05 0.00000000000000000e+00 -1.33054700008076320e-07 
5.77188538016997629e-05 0.00000000000000000e+00 -1.78087966568576142e-07 
8.23960209226932809e-05 0.00000000000000000e+00 2.76868606242051989e-07 
3.94126971608318527e-05 0.00000000000000000e+00 3.84669017633041452e-07 
-2.32821777149976234e-05 0.00000000000000000e+00 -3.33522720240256083e-07 
-5.06038667825955515e-05 0.00000000000000000e+00 -8.32830207300445958e-07 
-2.68475788274863136e-05 0.00000000000000000e+00 2.94046914649336984e-07 
2.18470779899397654e-05 0.00000000000000000e+00 1.42602701390677337e-06 
5.15887601068276466e-05 0.00000000000000000e+00 -5.33826051826897523e-07 
3.80235046328711938e-05 0.00000000000000000e+00 -2.05224563695116503e-06 
-6.19551695808520588e-05 0.00000000000000000e+00 -2.33332074068349489e-07 
1.30287487429765886e-05 0.00000000000000000e+00 -3.83084125759673775e-07 
8.52123330627245085e-06 0.00000000000000000e+00 -3.09854601977878679e-08 
-1.72615880034629872e-05 0.00000000000000000e+00 2.16947183874361584e-07 
-3.18161701164534642e-05 0.00000000000000000e+00 1.73623999149530184e-07 
-2.46026035080136340e-06 0.00000000000000000e+00 1.14966203448217920e-07 
-2.27965524914318090e-05 0.00000000000000000e+00 -3.25648388693656215e-08 
5.73599755639236751e-06 0.00000000000000000e+00 -2.07558975106778536e-07 
-3.03990668739687089e-05 0.00000000000000000e+00 8.11132448432340622e-08 
4.15194239640898281e-05 0.00000000000000000e+00 -2.31815986423562523e-07 
7.03830747412889434e-05 0.00000000000000000e+00 -8.62707274211148120e-08 
2.36951334756348037e-05 0.00000000000000000e+00 -2.42498041791151320e-07 
8.30438437717177493e-05 0.00000000000000000e+00 1.57161842160488918e-07 
7.69683412268232041e-05 0.00000000000000000e+00 3.72935748632933496e-07 
7.91577581156580339e-05 0.00000000000000000e+00 3.01794744347804111e-08 
5.45146742358632873e-05 0.00000000000000000e+00 4.37199203211283996e-07 
2.30977563507855125e-05 0.00000000000000000e+00 2.70159115781907123e-07 
6.74924207631863205e-05 0.00000000000000000e+00 4.30893976492373621e-07 
-9.04323383183744590e-06 0.00000000000000000e+00 -1.07371308333386458e-07 
-3.50206341020717606e-05 0.00000000000000000e+00 -5.51143709956332019e-07 
6.70566632651823598e-06 0.00000000000000000e+00 1.01835036641333547e-07 
-4.88128476154759894e-05 0.00000000000000000e+00 -8.30406883777165228e-07 
-4.91935561158443008e-05 0.00000000000000000e+00 -7.11970837193561859e-07 
-4.36437622592651976e-05 0.00000000000000000e+00 -7.27404731357357613e-07 
-3.68848970879397347e-05 0.00000000000000000e+00 -1.22032929800044508e-07 
-1.48582316312177607e-05 0.00000000000000000e+00 7.36882288765507091e-07 
-4.45954322309915878e-05 0.00000000000000000e+00 -4.73490176059615916e-07 
9.94943245539463400e-06 0.00000000000000000e+00 1.36752861899346512e-06 
3.35529165522612725e-05 0.00000000000000000e+00 1.21984266902322103e-06 
-2.88170724359607317e-06 0.00000000000000000e+00 1.10954371151680083e-06 
4.85982862534861294e-05 0.00000000000000000e+00 1.46197541488291094e-07 
5.17558676935703571e-05 0.00000000000000000e+00 -1.39813768467224930e-06 
4.17704004306785598e-05 0.00000000000000000e+00 8.36360849633431794e-07 
4.34166532853588933e-05 0.00000000000000000e+00 -2.10614611865113185e-06 
1.96848543096834170e-05 0.00000000000000000e+00 -1.20600768518656028e-06 
1.96848543043823731e-05 0.00000000000000000e+00 -1.20600768515109332e-06 
5.00991582980484797e-05 0.00000000000000000e+00 -1.75729228107390039e-06 
1.96848543034121206e-05 0.00000000000000000e+00 -1.20600768515955687e-06 
-6.19551695825911190e-05 0.00000000000000000e+00 -2.33332074083362089e-07 
8.52123330578374672e-06 0.00000000000000000e+00 -3.09854601891410379e-08 
1.30287487428773841e-05 0.00000000000000000e+00 -3.83084125807627699e-07 
-3.18161701135530336e-05 0.00000000000000000e+00 1.73623999133462074e-07 
-1.72615880065233376e-05 0.00000000000000000e+00 2.16947183904479323e-07 
5.73599755695192425e-06 0.00000000000000000e+00 -2.07558975148431805e-07 
-2.27965524903390146e-05 0.00000000000000000e+00 -3.25648388913598907e-08 
7.03830747418477412e-05 0.00000000000000000e+00 -8.62707274379415450e-08 
4.15194239654878526e-05 0.00000000000000000e+00 -2.31815986479080874e-07 
7.69683412276944690e-05 0.00000000000000000e+00 3.72935748601970630e-07 
8.30438437725094337e-05 0.00000000000000000e+00 1.57161842164253979e-07 
2.30977563515084585e-05 0.00000000000000000e+00 2.70159115808754891e-07 
5.45146742370809548e-05 0.00000000000000000e+00 4.37199203203356614e-07 
-3.50206341005065522e-05 0.00000000000000000e+00 -5.51143709948057354e-07 
-9.04323383246270529e-06 0.00000000000000000e+00 -1.07371308353453728e-07 
-4.91935561125886585e-05 0.00000000000000000e+00 -7.11970837204455973e-07 
-4.88128476133189692e-05 0.00000000000000000e+00 -8.30406883783444706e-07 
-1.48582316315105495e-05 0.00000000000000000e+00 7.36882288766927354e-07 
-3.68848970882014069e-05 0.00000000000000000e+00 -1.22032929814120502e-07 
3.35529165519937456e-05 0.00000000000000000e+00 1.21984266900718796e-06 
9.94943245853762768e-06 0.00000000000000000e+00 1.36752861899002871e-06 
5.17558676924451721e-05 0.00000000000000000e+00 -1.39813768469813590e-06 
4.85982862569833319e-05 0.00000000000000000e+00 1.46197541511550619e-07 
-3.01537814319271251e-05 0.00000000000000000e+00 -4.13089237115557674e-07 
4.34166532860155404e-05 0.00000000000000000e+00 -2.10614611864673660e-06 
-5.62007758769913479e-05 0.00000000000000000e+00 1.64679489108194223e-06 
4.91297075944730020e-03 0.00000000000000000e+00 -1.22769584235903074e-05 
2.66726160343168893e-03 0.00000000000000000e+00 -6.92354484351832700e-07 
8.16687680885893317e-04 0.00000000000000000e+00 4.42431646513214841e-07 
5.55390647422420626e-05 0.00000000000000000e+00 -8.51514338595047467e-07 
-7.58118456777184552e-05 0.00000000000000000e+00 -3.81177721353038059e-07 
-1.08909402168921717e-05 0.00000000000000000e+00 6.72128964469483706e-07 
4.41762836367739581e-05 0.00000000000000000e+00 5.98406370425096174e-07 
5.78558376082650495e-05 0.00000000000000000e+00 -4.48680705712867621e-07 
5.52202409168158647e-05 0.00000000000000000e+00 -5.14879824302318882e-07 
4.80171840659425597e-05 0.00000000000000000e+00 9.37203363354864478e-07 
2.61572041402998355e-05 0.00000000000000000e+00 6.41587203611707059e-07 
-1.78806909494634107e-05 0.00000000000000000e+00 -1.89200461020756166e-06 
5.41486244504543312e-03 0.00000000000000000e+00 -1.48091440973741713e-05 
3.69873168843710748e-03 0.00000000000000000e+00 -4.35165907843742495e-06 
1.56721965302005894e-03 0.00000000000000000e+00 7.97179659157070801e-07 
3.43693736131042411e-04 0.00000000000000000e+00 -3.93956267734740545e-07 
-5.15514280745321357e-05 0.00000000000000000e+00 -7.98146279764631873e-07 
-5.12600596126501235e-05 0.00000000000000000e+00 2.03296291845669164e-07 
2.04679377569774264e-05 0.00000000000000000e+00 8.02978178599072856e-07 
5.48656303379358703e-05 0.00000000000000000e+00 8.97802947011052062e-08 
5.83692567568846706e-05 0.00000000000000000e+00 -7.01340405521815063e-07 
5.24956039425144796e-05 0.00000000000000000e+00 1.60913569310902390e-07 
3.94846120558040798e-05 0.00000000000000000e+00 1.23651914727749185e-06 
6.46469328572957088e-06 0.00000000000000000e+00 -7.58642863962699404e-07 
-4.15592336754483824e-05 0.00000000000000000e+00 -1.53192825587992705e-06 
-5.16149498746206479e-05 0.00000000000000000e+00 3.08703560092456235e-05 
-5.16149498725651632e-05 0.00000000000000000e+00 3.08703560092277139e-05 
-8.20125841082037031e-06 0.00000000000000000e+00 3.07417125581654424e-05 
-8.20125841359760839e-06 0.00000000000000000e+00 3.07417125581655576e-05 
-2.94886857999614934e-05 0.00000000000000000e+00 5.60288006471799360e-05 
-2.94886857989915120e-05 0.00000000000000000e+00 5.60288006471959687e-05 
-5.16149498732322728e-05 0.00000000000000000e+00 3.08703560092403584e-05 
-8.20125841371697904e-06 0.00000000000000000e+00 3.07417125581707279e-05 
-4.39124256201012586e-06 0.00000000000000000e+00 1.43989031199807848e-06 
-4.39124255982220588e-06 0.00000000000000000e+00 1.43989031198365860e-06 
-4.39124256168508205e-06 0.00000000000000000e+00 1.43989031199881032e-06 
-5.62007758766833260e-05 0.00000000000000000e+00 1.64679489108386669e-06 
-5.62007758782244652e-05 0.00000000000000000e+00 1.64679489108453246e-06 
-5.62007758791159505e-05 0.00000000000000000e+00 1.64679489110291985e-06 
2.19113577518299505e-06 0.00000000000000000e+00 -4.63135191245135493e-07 
-5.35472778298892615e-06 0.00000000000000000e+00 1.41875049073212800e-07 
-3.01382306620178692e-05 0.00000000000000000e+00 7.50525443007585072e-08 
2.39734758489773673e-05 0.00000000000000000e+00 -2.42691573990866024e-07 
7.91849006567537327e-05 0.00000000000000000e+00 3.07049065157878348e-08 
6.74763475121407567e-05 0.00000000000000000e+00 4.30941895004672404e-07 
6.68424668602100689e-06 0.00000000000000000e+00 1.01580445341470401e-07 
-4.36702108755877101e-05 0.00000000000000000e+00 -7.27956411701652043e-07 
-4.45100920807794492e-05 0.00000000000000000e+00 -4.69387066221684028e-07 
-2.25696414170755838e-06 0.00000000000000000e+00 1.12592355892140435e-06 
4.31720075029259939e-05 0.00000000000000000e+00 7.37826534902896739e-07 
4.74870702038434858e-05 0.00000000000000000e+00 -1.99423183528534832e-06 
-6.19551695800811910e-05 0.00000000000000000e+00 -2.33332074155442052e-07 
1.44459741462063223e-05 0.00000000000000000e+00 -1.81738410164583121e-07 
-2.72922515593341805e-05 0.00000000000000000e+00 2.24174610702082047e-07 
-9.91905076967728507e-06 0.00000000000000000e+00 -1.35232980621439629e-07 
5.78153974257245942e-05 0.00000000000000000e+00 -1.77601618577702326e-07 
8.23902410524313545e-05 0.00000000000000000e+00 2.77077572216071723e-07 
3.93981586820274699e-05 0.00000000000000000e+00 3.84592101332849408e-07 
-2.33049274546016493e-05 0.00000000000000000e+00 -3.33916007888808913e-07 
-5.06053421438614273e-05 0.00000000000000000e+00 -8.32488628352426386e-07 
-2.66080720694758788e-05 0.00000000000000000e+00 3.03465464950847913e-07 
2.27700313004552092e-05 0.00000000000000000e+00 1.42076694445737785e-06 
5.20251013800488303e-05 0.00000000000000000e+00 -7.46711201710135333e-07 
2.81955805234880490e-05 0.00000000000000000e+00 -1.73136808831410875e-06 
4.61861023484518018e-03 0.00000000000000000e+00 -5.77895643703875971e-06 
4.61861023484636934e-03 0.00000000000000000e+00 -5.77895643706185576e-06 
4.61861023484573530e-03 0.00000000000000000e+00 -5.77895643709747180e-06 
-2.94886857981717196e-05 0.00000000000000000e+00 5.60288006471989367e-05 
-5.16149498751832404e-05 0.00000000000000000e+00 3.08703560092378105e-05 
-8.20125841134078735e-06 0.00000000000000000e+00 3.07417125581604077e-05 
2.19113577515393844e-06 0.00000000000000000e+00 -4.63135191244483066e-07 
-5.35472778371040848e-06 0.00000000000000000e+00 1.41875049056452030e-07 
-3.01382306628522441e-05 0.00000000000000000e+00 7.50525443301348804e-08 
2.39734758479646683e-05 0.00000000000000000e+00 -2.42691573976361855e-07 
7.91849006560436887e-05 0.00000000000000000e+00 3.07049065116932776e-08 
6.74763475113354113e-05 0.00000000000000000e+00 4.30941895030765254e-07 
6.68424668614569013e-06 0.00000000000000000e+00 1.01580445334247327e-07 
-4.36702108766946805e-05 0.00000000000000000e+00 -7.27956411703709486e-07 
-4.45100920823142458e-05 0.00000000000000000e+00 -4.69387066208820985e-07 
-2.25696414311805120e-06 0.00000000000000000e+00 1.12592355891561149e-06 
4.31720075067553959e-05 0.00000000000000000e+00 7.37826534901835830e-07 
4.74870702035630569e-05 0.00000000000000000e+00 -1.99423183528819054e-06 
-6.19551695830072358e-05 0.00000000000000000e+00 -2.33332074175691010e-07 
1.44459741478056289e-05 0.00000000000000000e+00 -1.81738410184832926e-07 
-2.72922515561483337e-05 0.00000000000000000e+00 2.24174610696599415e-07 
-9.91905076854966060e-06 0.00000000000000000e+00 -1.35232980609407526e-07 
5.78153974246416931e-05 0.00000000000000000e+00 -1.77601618587807429e-07 
8.23902410537521296e-05 0.00000000000000000e+00 2.77077572208042698e-07 
3.93981586826357074e-05 0.00000000000000000e+00 3.84592101314710197e-07 
-2.33049274532677554e-05 0.00000000000000000e+00 -3.33916007881251049e-07 
-5.06053421427077278e-05 0.00000000000000000e+00 -8.32488628347905771e-07 
-2.66080720686271654e-05 0.00000000000000000e+00 3.03465464958714731e-07 
2.27700312983808594e-05 0.00000000000000000e+00 1.42076694445735244e-06 
5.20251013818365712e-05 0.00000000000000000e+00 -7.46711201700259988e-07 
2.81955805291881335e-05 0.00000000000000000e+00 -1.73136808832972041e-06 
4.61861023484751859e-03 0.00000000000000000e+00 -5.77895643702197406e-06 
4.91297075944675896e-03 0.00000000000000000e+00 -1.22769584236899337e-05 
2.66726160343331957e-03 0.00000000000000000e+00 -6.92354484341198836e-07 
8.16687680885898955e-04 0.00000000000000000e+00 4.42431646496537186e-07 
5.55390647425619023e-05 0.00000000000000000e+00 -8.51514338621560022e-07 
-7.58118456769931240e-05 0.00000000000000000e+00 -3.81177721342718233e-07 
-1.08909402171831716e-05 0.00000000000000000e+00 6.72128964471141773e-07 