# vtk DataFile Version 2.0

ASCII

DATASET UNSTRUCTURED_GRID

POINTS 281 double 

0.00000000000000000e+00  6.00000000000000012e-03  8.68039800000000063e-03
0.00000000000000000e+00  6.00000000000000012e-03  2.15013699999999988e-02
0.00000000000000000e+00  5.99999699999999997e-03  3.38432499999999983e-02
0.00000000000000000e+00  6.00000000000000012e-03  4.61511800000000000e-02
0.00000000000000000e+00  5.99999399999999981e-03  5.84285100000000029e-02
0.00000000000000000e+00  5.99999899999999978e-03  7.03572799999999943e-02
0.00000000000000000e+00  6.00000000000000012e-03  7.56573400000000035e-02
0.00000000000000000e+00  6.00000000000000012e-03  1.52458600000000000e-02
0.00000000000000000e+00  5.99999899999999978e-03  2.76822099999999988e-02
0.00000000000000000e+00  5.99999899999999978e-03  3.99985900000000005e-02
0.00000000000000000e+00  5.99999800000000031e-03  5.22986000000000006e-02
0.00000000000000000e+00  5.99999800000000031e-03  6.44963600000000026e-02
0.00000000000000000e+00  3.00000000000000006e-03  3.07692300000000007e-03
0.00000000000000000e+00  3.00000000000000006e-03  1.04940499999999996e-02
0.00000000000000000e+00  3.00000000000000006e-03  7.41712199999999995e-03
0.00000000000000000e+00  3.00000000000000006e-03  2.30583799999999998e-02
0.00000000000000000e+00  3.00000000000000006e-03  1.99814599999999995e-02
0.00000000000000000e+00  2.99999900000000016e-03  3.53831699999999985e-02
0.00000000000000000e+00  2.99999900000000016e-03  3.23062400000000000e-02
0.00000000000000000e+00  3.00000000000000006e-03  4.76909699999999992e-02
0.00000000000000000e+00  3.00000000000000006e-03  4.46140500000000023e-02
0.00000000000000000e+00  2.99999699999999991e-03  5.99834799999999987e-02
0.00000000000000000e+00  2.99999699999999991e-03  5.69065600000000019e-02
0.00000000000000000e+00  2.99999900000000016e-03  7.21017199999999941e-02
0.00000000000000000e+00  2.99999900000000016e-03  6.90247900000000025e-02
0.00000000000000000e+00  3.00000000000000006e-03  7.78286700000000026e-02
0.00000000000000000e+00  3.00000000000000006e-03  7.47517500000000057e-02
0.00000000000000000e+00  5.99999899999999978e-03  7.30073100000000058e-02
0.00000000000000000e+00  6.00000000000000012e-03  7.78286700000000026e-02
0.00000000000000000e+00  8.99999999999999932e-03  7.47517500000000057e-02
0.00000000000000000e+00  8.99999999999999932e-03  7.78286700000000026e-02
0.00000000000000000e+00  8.99999999999999932e-03  3.07692300000000007e-03
0.00000000000000000e+00  8.99999999999999932e-03  7.41712199999999995e-03
0.00000000000000000e+00  8.99999999999999932e-03  1.04940499999999996e-02
0.00000000000000000e+00  8.99999999999999932e-03  1.99814599999999995e-02
0.00000000000000000e+00  8.99999999999999932e-03  2.30583799999999998e-02
0.00000000000000000e+00  8.99999899999999985e-03  3.23062400000000000e-02
0.00000000000000000e+00  8.99999899999999985e-03  3.53831699999999985e-02
0.00000000000000000e+00  8.99999999999999932e-03  4.46140500000000023e-02
0.00000000000000000e+00  8.99999999999999932e-03  4.76909699999999992e-02
0.00000000000000000e+00  8.99999699999999916e-03  5.69065600000000019e-02
0.00000000000000000e+00  8.99999699999999916e-03  5.99834799999999987e-02
0.00000000000000000e+00  8.99999899999999985e-03  6.90247900000000025e-02
0.00000000000000000e+00  8.99999899999999985e-03  7.21017199999999941e-02
0.00000000000000000e+00  6.00000000000000012e-03  4.34019900000000031e-03
0.00000000000000000e+00  3.00000000000000006e-03  1.37767800000000006e-02
0.00000000000000000e+00  6.00000000000000012e-03  1.19631300000000006e-02
0.00000000000000000e+00  3.00000000000000006e-03  1.68536999999999992e-02
0.00000000000000000e+00  6.00000000000000012e-03  1.83736200000000002e-02
0.00000000000000000e+00  5.99999800000000031e-03  3.07627299999999985e-02
0.00000000000000000e+00  3.00000000000000006e-03  2.92257200000000002e-02
0.00000000000000000e+00  3.00000000000000006e-03  2.61487999999999998e-02
0.00000000000000000e+00  8.99999999999999932e-03  2.92257200000000002e-02
0.00000000000000000e+00  6.00000000000000012e-03  4.30748800000000029e-02
0.00000000000000000e+00  2.99999900000000016e-03  4.15377600000000000e-02
0.00000000000000000e+00  2.99999900000000016e-03  3.84608300000000014e-02
0.00000000000000000e+00  8.99999899999999985e-03  4.15377600000000000e-02
0.00000000000000000e+00  5.99999599999999963e-03  5.53635499999999975e-02
0.00000000000000000e+00  2.99999900000000016e-03  5.38416099999999981e-02
0.00000000000000000e+00  2.99999900000000016e-03  5.07646799999999995e-02
0.00000000000000000e+00  8.99999899999999985e-03  5.38416099999999981e-02
0.00000000000000000e+00  5.99999800000000031e-03  6.74268199999999984e-02
0.00000000000000000e+00  2.99999900000000016e-03  6.60943300000000067e-02
0.00000000000000000e+00  2.99999900000000016e-03  6.30174099999999959e-02
0.00000000000000000e+00  8.99999899999999985e-03  6.60943300000000067e-02
0.00000000000000000e+00  5.99999899999999978e-03  4.92248900000000003e-02
0.00000000000000000e+00  8.99999999999999932e-03  1.68536999999999992e-02
0.00000000000000000e+00  5.99999899999999978e-03  2.45917899999999988e-02
0.00000000000000000e+00  8.99999999999999932e-03  2.61487999999999998e-02
0.00000000000000000e+00  8.99999999999999932e-03  1.37767800000000006e-02
0.00000000000000000e+00  5.99999800000000031e-03  3.69209200000000029e-02
0.00000000000000000e+00  8.99999899999999985e-03  3.84608300000000014e-02
0.00000000000000000e+00  8.99999899999999985e-03  5.07646799999999995e-02
0.00000000000000000e+00  5.99999599999999963e-03  6.14624299999999985e-02
0.00000000000000000e+00  8.99999899999999985e-03  6.30174099999999959e-02
1.20000000000000002e-02  1.20000000000000002e-02  8.00000000000000017e-02
0.00000000000000000e+00  0.00000000000000000e+00  8.00000000000000017e-02
1.20000000000000002e-02  6.00000000000000012e-03  0.00000000000000000e+00
1.20000000000000002e-02  3.00000000000000006e-03  0.00000000000000000e+00
1.20000000000000002e-02  8.99999999999999932e-03  0.00000000000000000e+00
1.20000000000000002e-02  0.00000000000000000e+00  8.00000000000000017e-02
1.20000000000000002e-02  0.00000000000000000e+00  0.00000000000000000e+00
0.00000000000000000e+00  1.20000000000000002e-02  0.00000000000000000e+00
1.20000000000000002e-02  5.99999899999999978e-03  8.68039699999999942e-03
1.20000000000000002e-02  5.99999899999999978e-03  1.52458600000000000e-02
1.20000000000000002e-02  5.99999899999999978e-03  2.15013699999999988e-02
1.20000000000000002e-02  6.00000000000000012e-03  2.76822099999999988e-02
1.20000000000000002e-02  5.99999899999999978e-03  3.38432399999999967e-02
1.20000000000000002e-02  5.99999800000000031e-03  3.99985900000000005e-02
1.20000000000000002e-02  5.99999699999999997e-03  4.61511800000000000e-02
1.20000000000000002e-02  5.99999300000000034e-03  5.22986100000000023e-02
1.20000000000000002e-02  5.99998599999999969e-03  5.84285400000000010e-02
1.20000000000000002e-02  5.99997800000000043e-03  6.44963800000000059e-02
1.20000000000000002e-02  5.99997500000000027e-03  7.03572999999999976e-02
1.20000000000000002e-02  5.99997500000000027e-03  7.56573600000000068e-02
1.20000000000000002e-02  3.00000000000000006e-03  3.07692300000000007e-03
1.20000000000000002e-02  3.00000000000000006e-03  7.41712099999999961e-03
1.20000000000000002e-02  3.00000000000000006e-03  1.04940399999999996e-02
1.20000000000000002e-02  2.99999900000000016e-03  1.37767800000000006e-02
1.20000000000000002e-02  2.99999900000000016e-03  1.68536999999999992e-02
1.20000000000000002e-02  5.99999899999999978e-03  1.19631300000000006e-02
1.20000000000000002e-02  3.00000000000000006e-03  1.99814500000000013e-02
1.20000000000000002e-02  3.00000000000000006e-03  2.30583799999999998e-02
1.20000000000000002e-02  5.99999899999999978e-03  1.83736099999999986e-02
1.20000000000000002e-02  3.00000000000000006e-03  2.61487999999999998e-02
1.20000000000000002e-02  3.00000000000000006e-03  2.92257200000000002e-02
1.20000000000000002e-02  5.99999899999999978e-03  2.45917899999999988e-02
1.20000000000000002e-02  3.00000000000000006e-03  3.23062299999999983e-02
1.20000000000000002e-02  3.00000000000000006e-03  3.53831599999999968e-02
1.20000000000000002e-02  5.99999899999999978e-03  3.07627200000000003e-02
1.20000000000000002e-02  2.99999900000000016e-03  3.84608300000000014e-02
1.20000000000000002e-02  2.99999900000000016e-03  4.15377499999999983e-02
1.20000000000000002e-02  5.99999899999999978e-03  3.69209100000000012e-02
1.20000000000000002e-02  2.99999799999999981e-03  4.46140500000000023e-02
1.20000000000000002e-02  2.99999799999999981e-03  4.76909800000000009e-02
1.20000000000000002e-02  5.99999800000000031e-03  4.30748800000000029e-02
1.20000000000000002e-02  2.99999699999999991e-03  5.07646900000000012e-02
1.20000000000000002e-02  2.99999699999999991e-03  5.38416099999999981e-02
1.20000000000000002e-02  5.99999500000000015e-03  4.92249000000000020e-02
1.20000000000000002e-02  2.99999299999999984e-03  5.69065799999999983e-02
1.20000000000000002e-02  2.99999299999999984e-03  5.99835000000000021e-02
1.20000000000000002e-02  5.99999000000000018e-03  5.53635800000000025e-02
1.20000000000000002e-02  2.99998900000000021e-03  6.30174200000000045e-02
1.20000000000000002e-02  2.99998900000000021e-03  6.60943499999999962e-02
1.20000000000000002e-02  5.99998200000000006e-03  6.14624599999999965e-02
1.20000000000000002e-02  2.99998799999999987e-03  6.90248100000000059e-02
1.20000000000000002e-02  2.99998799999999987e-03  7.21017300000000028e-02
1.20000000000000002e-02  5.99997700000000009e-03  6.74268400000000018e-02
1.20000000000000002e-02  2.99998699999999997e-03  7.47517600000000004e-02
1.20000000000000002e-02  2.99998699999999997e-03  7.78286799999999973e-02
1.20000000000000002e-02  5.99998700000000003e-03  7.78286799999999973e-02
1.20000000000000002e-02  5.99997500000000027e-03  7.30073299999999953e-02
1.20000000000000002e-02  8.99998699999999922e-03  7.78286799999999973e-02
1.20000000000000002e-02  8.99999999999999932e-03  3.07692300000000007e-03
[...]
POINT_DATA 281

SCALARS Rank unsigned_int
LOOKUP_TABLE default
0 0 0 0 0 0 0 0 0 0 0 0 0 0 0 0 0 0 0 0 0 0 0 0 0 0 0 0 0 0 0 0 0 0 0 0 0 0 0 0 0 0 0 0 0 0 0 0 0 0 0 0 0 0 0 0 0 0 0 0 0 0 0 0 0 0 0 0 0 0 0 0 0 0 0 0 0 0 0 0 0 0 0 0 0 0 0 0 0 0 0 0 0 0 0 0 0 0 0 0 0 0 0 0 0 0 0 0 0 0 0 0 0 0 0 0 0 0 0 0 0 0 0 0 0 0 0 0 0 0 0 0 0 0 0 0 0 0 0 0 0 0 0 0 0 0 0 0 0 0 0 0 0 0 0 0 0 0 0 0 0 0 0 0 0 0 0 0 0 0 0 0 0 0 0 0 0 0 0 0 0 0 0 0 0 0 0 0 0 0 0 0 0 0 0 0 0 0 0 0 0 0 0 0 0 0 0 0 0 0 0 0 0 0 0 0 0 0 0 0 0 0 0 0 0 0 0 0 0 0 0 0 0 0 0 0 0 0 0 0 0 0 0 0 0 0 0 0 0 0 0 0 0 0 0 0 0 0 0 0 0 0 0 0 0 0 0 0 0 0 0 0 0 0 0 0 0 0 0 0 0 

VECTORS Forces0 double
8.53160291388009821e-06 0.00000000000000000e+00 1.24494252926110663e-07 
8.01577256934058379e-06 0.00000000000000000e+00 -8.50963050196796899e-08 
6.31028543663644072e-06 0.00000000000000000e+00 6.52186300803765621e-08 
4.40567897797292691e-06 0.00000000000000000e+00 -4.50873492856860490e-08 
2.49662797757230004e-06 0.00000000000000000e+00 6.16720593636613539e-08 
5.90905182564302542e-07 0.00000000000000000e+00 -1.35880791716345300e-07 
-1.64706086839310429e-07 0.00000000000000000e+00 -3.70999851360874591e-07 
8.48597379763920608e-06 0.00000000000000000e+00 3.00143417798229139e-08 
7.26469328288767027e-06 0.00000000000000000e+00 -6.90706944372048291e-08 
5.34090451148902847e-06 0.00000000000000000e+00 1.16453016050929255e-07 
3.47750213464631924e-06 0.00000000000000000e+00 -1.71438707230436319e-07 
1.51456089949320146e-06 0.00000000000000000e+00 2.83561470339210508e-07 
8.08064998386227946e-06 0.00000000000000000e+00 1.18547221798731026e-08 
8.62528424290513903e-06 0.00000000000000000e+00 1.13917712176907915e-07 
8.46621787459083404e-06 0.00000000000000000e+00 1.20399798202194839e-07 
7.80377665071531545e-06 0.00000000000000000e+00 -9.64970843247109877e-08 
8.20596766823758078e-06 0.00000000000000000e+00 -6.51334478501895861e-08 
6.10913942976194454e-06 0.00000000000000000e+00 9.55113713441478552e-08 
6.52576553729265590e-06 0.00000000000000000e+00 2.95905207930869666e-08 
4.15218824631589984e-06 0.00000000000000000e+00 -9.77756696420189772e-08 
4.67012392422218642e-06 0.00000000000000000e+00 8.91533142841639252e-09 
2.26405686097351895e-06 0.00000000000000000e+00 1.54349065920227922e-07 
2.72533045223893901e-06 0.00000000000000000e+00 -2.64090651732469667e-08 
3.23499434094399244e-07 0.00000000000000000e+00 -3.03222392724225696e-07 
8.02356194387911818e-07 0.00000000000000000e+00 4.15163399852498611e-09 
-4.06597148814502361e-07 0.00000000000000000e+00 -1.40816847948226634e-07 
-4.97309826465189517e-08 0.00000000000000000e+00 -4.04457905677612627e-07 
1.90797496588881826e-07 0.00000000000000000e+00 -3.65861716566879711e-07 
-4.06597148815870743e-07 0.00000000000000000e+00 -1.40816847962056564e-07 
-4.97309826476150123e-08 0.00000000000000000e+00 -4.04457905680737014e-07 
-4.06597148813243670e-07 0.00000000000000000e+00 -1.40816847962925197e-07 
8.08064998386272330e-06 0.00000000000000000e+00 1.18547221663843147e-08 
8.46621787459169632e-06 0.00000000000000000e+00 1.20399798210267698e-07 
8.62528424289977731e-06 0.00000000000000000e+00 1.13917712204357275e-07 
8.20596766823317621e-06 0.00000000000000000e+00 -6.51334478681511051e-08 
7.80377665071460733e-06 0.00000000000000000e+00 -9.64970843241625735e-08 
6.52576553729083054e-06 0.00000000000000000e+00 2.95905207905633907e-08 
6.10913942976198266e-06 0.00000000000000000e+00 9.55113713508392037e-08 
4.67012392422111408e-06 0.00000000000000000e+00 8.91533142540031995e-09 
4.15218824631592694e-06 0.00000000000000000e+00 -9.77756696321116564e-08 
2.72533045223851972e-06 0.00000000000000000e+00 -2.64090651612754265e-08 
2.26405686097287140e-06 0.00000000000000000e+00 1.54349065910239233e-07 
8.02356194389189144e-07 0.00000000000000000e+00 4.15163400770957611e-09 
3.23499434092547207e-07 0.00000000000000000e+00 -3.03222392733367564e-07 
8.26923189110132899e-06 0.00000000000000000e+00 6.03641922995204243e-08 
8.58343223577152334e-06 0.00000000000000000e+00 6.11511026544940226e-08 
8.66803832751555811e-06 0.00000000000000000e+00 9.43306331310298741e-08 
8.39017754808471518e-06 0.00000000000000000e+00 -5.15694128619128485e-09 
8.30940561334898895e-06 0.00000000000000000e+00 -3.66715007925334960e-08 
6.76693076591210209e-06 0.00000000000000000e+00 -7.30150899702875115e-09 
7.02721693221159586e-06 0.00000000000000000e+00 -4.11115496175499931e-08 
7.43591776773973082e-06 0.00000000000000000e+00 -8.82949700094989265e-08 
7.02721693221049048e-06 0.00000000000000000e+00 -4.11115496263588446e-08 
4.90103121296351554e-06 0.00000000000000000e+00 5.70694654558185241e-08 
5.11246183611013018e-06 0.00000000000000000e+00 9.36710626613632512e-08 
5.59570096303965454e-06 0.00000000000000000e+00 1.23605908990985044e-07 
5.11246183610876731e-06 0.00000000000000000e+00 9.36710626577293739e-08 
2.96787306494138406e-06 0.00000000000000000e+00 -1.00402328030818659e-07 
3.22027458476696676e-06 0.00000000000000000e+00 -1.49091652234068401e-07 
3.70155080720259061e-06 0.00000000000000000e+00 -1.67367459857379815e-07 
3.22027458476586266e-06 0.00000000000000000e+00 -1.49091652227727830e-07 
1.05452724500432735e-06 0.00000000000000000e+00 1.50765100193650452e-07 
1.26137377339910006e-06 0.00000000000000000e+00 2.34487272739543654e-07 
1.75741150035413166e-06 0.00000000000000000e+00 2.77340646031992469e-07 
1.26137377339962332e-06 0.00000000000000000e+00 2.34487272745443238e-07 
3.91862583442323734e-06 0.00000000000000000e+00 -1.41011506589334344e-07 
8.39017754808662947e-06 0.00000000000000000e+00 -5.15694130420033028e-09 
7.61000215306446393e-06 0.00000000000000000e+00 -9.77920709110755688e-08 
7.43591776773939963e-06 0.00000000000000000e+00 -8.82949700155482770e-08 
8.58343223576813182e-06 0.00000000000000000e+00 6.11511026522975338e-08 
5.86616397927906828e-06 0.00000000000000000e+00 1.16124613569752743e-07 
5.59570096304046007e-06 0.00000000000000000e+00 1.23605908985700988e-07 
3.70155080720125229e-06 0.00000000000000000e+00 -1.67367459845740841e-07 
2.01841214678703912e-06 0.00000000000000000e+00 2.28935792746630578e-07 
1.75741150035216718e-06 0.00000000000000000e+00 2.77340646032256002e-07 
1.95756590772069735e-06 0.00000000000000000e+00 4.43583379577412706e-07 
-6.02690731177211585e-07 0.00000000000000000e+00 4.46807627747140800e-07 
-8.43275218384924100e-07 0.00000000000000000e+00 -1.75089246670501070e-07 
-8.43275218386257330e-07 0.00000000000000000e+00 -1.75089246653416336e-07 
-8.43275218387081493e-07 0.00000000000000000e+00 -1.75089246675238101e-07 
1.95756590772488339e-06 0.00000000000000000e+00 4.43583379592315404e-07 
-8.43275218384894454e-07 0.00000000000000000e+00 -1.75089246646960780e-07 
7.49115590134310972e-06 0.00000000000000000e+00 -1.74710848444520310e-07 
-6.45509915934272124e-07 0.00000000000000000e+00 1.24493674967479853e-07 
-3.55885968361966591e-07 0.00000000000000000e+00 3.00411761099034586e-08 
-1.87223077637141270e-08 0.00000000000000000e+00 -8.50219509015571422e-08 
3.89613865577439775e-07 0.00000000000000000e+00 -6.95239497145096743e-08 
8.74478211403622848e-07 0.00000000000000000e+00 6.43226672021412458e-08 
1.43979001827429909e-06 0.00000000000000000e+00 1.15141800461815944e-07 
2.06254214393054175e-06 0.00000000000000000e+00 -4.75729664832664037e-08 
2.67082770968783940e-06 0.00000000000000000e+00 -1.76201442303431335e-07 
3.12050891872216756e-06 0.00000000000000000e+00 5.61486091816301813e-08 
3.30435345624260274e-06 0.00000000000000000e+00 2.77768826798886120e-07 
3.15433313575640724e-06 0.00000000000000000e+00 -1.43975952543396891e-07 
2.67838106985015076e-06 0.00000000000000000e+00 -3.81702004308756533e-07 
-8.21520993575477059e-07 0.00000000000000000e+00 1.19710341105168283e-08 
-6.92790314843818536e-07 0.00000000000000000e+00 1.20426117983263900e-07 
-5.74824951428642791e-07 0.00000000000000000e+00 1.13998163559685009e-07 
-4.28660590460294854e-07 0.00000000000000000e+00 6.12478875188362616e-08 
-2.73238764509235566e-07 0.00000000000000000e+00 -5.15678779859936615e-09 
-5.14044822629655849e-07 0.00000000000000000e+00 9.45034220994286231e-08 
-1.04777463827223333e-07 0.00000000000000000e+00 -6.50838765165399770e-08 
7.49069117769300704e-08 0.00000000000000000e+00 -9.64492590623367202e-08 
-1.93027573401147246e-07 0.00000000000000000e+00 -3.66567504666512245e-08 
2.79616766446857505e-07 0.00000000000000000e+00 -8.85444605933317859e-08 
5.00538586105746571e-07 0.00000000000000000e+00 -4.15172292285037447e-08 
1.72912105072763271e-07 0.00000000000000000e+00 -9.78471196009391025e-08 
7.40386533681717736e-07 0.00000000000000000e+00 2.90938575521723706e-08 
1.01674625322985394e-06 0.00000000000000000e+00 9.40741563636538454e-08 
6.15301259604535115e-07 0.00000000000000000e+00 -7.63954913368737492e-09 
1.29321415919477498e-06 0.00000000000000000e+00 1.22371037001786187e-07 
1.59722210937915501e-06 0.00000000000000000e+00 9.18087702276842541e-08 
1.15489467128228219e-06 0.00000000000000000e+00 1.14659072012150388e-07 
1.91793370148851318e-06 0.00000000000000000e+00 5.92432357463379057e-09 
2.21163190020298067e-06 0.00000000000000000e+00 -1.00168805498015717e-07 
1.76086956175094930e-06 0.00000000000000000e+00 5.43772676841153649e-08 
2.52491883945660455e-06 0.00000000000000000e+00 -1.71434461642452074e-07 
2.78989165990326671e-06 0.00000000000000000e+00 -1.53150479342870131e-07 
2.36624840547807433e-06 0.00000000000000000e+00 -1.43949414407519840e-07 
3.01326063892031502e-06 0.00000000000000000e+00 -3.06062251528502239e-08 
3.21373847152901415e-06 0.00000000000000000e+00 1.47422950332647454e-07 
2.90087988239188161e-06 0.00000000000000000e+00 -1.04059622195887803e-07 
3.28693082187320809e-06 0.00000000000000000e+00 2.71855675761707330e-07 
3.31324898005318616e-06 0.00000000000000000e+00 2.27100749304279360e-07 
3.25907769301168199e-06 0.00000000000000000e+00 2.22766237409877771e-07 
3.24170369587246700e-06 0.00000000000000000e+00 -4.95827544103455471e-09 
3.02000528253718849e-06 0.00000000000000000e+00 -3.10995256567246651e-07 
3.30435148728376531e-06 0.00000000000000000e+00 1.41667451625241753e-07 
2.77927462120375670e-06 0.00000000000000000e+00 -4.14405164419861153e-07 
2.34167624152980435e-06 0.00000000000000000e+00 -1.48093810035650718e-07 
2.34167624153049553e-06 0.00000000000000000e+00 -1.48093810041319063e-07 
2.94358773358776584e-06 0.00000000000000000e+00 -3.74097213852101324e-07 
2.34167624152967772e-06 0.00000000000000000e+00 -1.48093810042312844e-07 
-8.21520993580314888e-07 0.00000000000000000e+00 1.19710341229525690e-08 
-5.74824951431902598e-07 0.00000000000000000e+00 1.13998163541824949e-07 
-6.92790314843920603e-07 0.00000000000000000e+00 1.20426117970665397e-07 
-2.73238764509288082e-07 0.00000000000000000e+00 -5.15678782260004471e-09 
-4.28660590460344829e-07 0.00000000000000000e+00 6.12478875058915335e-08 
7.49069117762494794e-08 0.00000000000000000e+00 -9.64492590708032380e-08 
-1.04777463826668526e-07 0.00000000000000000e+00 -6.50838764995100619e-08 
5.00538586106692707e-07 0.00000000000000000e+00 -4.15172292357089246e-08 
2.79616766446893504e-07 0.00000000000000000e+00 -8.85444605773294277e-08 
1.01674625323018492e-06 0.00000000000000000e+00 9.40741563539776057e-08 
7.40386533681552565e-07 0.00000000000000000e+00 2.90938575482874540e-08 
1.59722210938116586e-06 0.00000000000000000e+00 9.18087702264256822e-08 
1.29321415919620626e-06 0.00000000000000000e+00 1.22371036998115967e-07 
2.21163190020298321e-06 0.00000000000000000e+00 -1.00168805502725009e-07 
1.91793370148801470e-06 0.00000000000000000e+00 5.92432357930112740e-09 
2.78989165990213507e-06 0.00000000000000000e+00 -1.53150479338636422e-07 
2.52491883945680868e-06 0.00000000000000000e+00 -1.71434461648022004e-07 
3.21373847152796256e-06 0.00000000000000000e+00 1.47422950324438646e-07 
3.01326063891804412e-06 0.00000000000000000e+00 -3.06062251512448847e-08 
3.31324898005265337e-06 0.00000000000000000e+00 2.27100749304364064e-07 
3.28693082187418768e-06 0.00000000000000000e+00 2.71855675778800031e-07 
3.02000528253799614e-06 0.00000000000000000e+00 -3.10995256561796470e-07 
3.24170369587417927e-06 0.00000000000000000e+00 -4.95827544105869515e-09 
-7.95778475889478638e-07 0.00000000000000000e+00 6.06085872722771735e-08 
2.77927462120056254e-06 0.00000000000000000e+00 -4.14405164417100037e-07 
-6.02690731180077944e-07 0.00000000000000000e+00 4.46807627744614948e-07 
8.40002505579701055e-06 0.00000000000000000e+00 1.05002352323796988e-07 
8.66087900947776802e-06 0.00000000000000000e+00 8.86701661651371654e-08 
8.30473136738369178e-06 0.00000000000000000e+00 -3.83827639355742285e-08 
7.60720727069064451e-06 0.00000000000000000e+00 -9.77295293600312361e-08 
6.76586048530081402e-06 0.00000000000000000e+00 -7.14990675165131510e-09 
5.86578418940415325e-06 0.00000000000000000e+00 1.16144801694529024e-07 
4.90075325726778936e-06 0.00000000000000000e+00 5.70125633147199078e-08 
3.91776989205499154e-06 0.00000000000000000e+00 -1.41148685336482738e-07 
2.96446166541488215e-06 0.00000000000000000e+00 -9.95464800501340712e-08 
2.00556550391186297e-06 0.00000000000000000e+00 2.32127011595920274e-07 
1.01334740249089784e-06 0.00000000000000000e+00 1.29666417937923125e-07 
7.22692787475513755e-08 0.00000000000000000e+00 -4.00546650330669163e-07 
8.08064998386028385e-06 0.00000000000000000e+00 1.18547221766712651e-08 
8.56051328957471594e-06 0.00000000000000000e+00 1.23166367843317001e-07 
8.47702578542762643e-06 0.00000000000000000e+00 2.69807848529878825e-08 
8.01068065954924629e-06 0.00000000000000000e+00 -8.54804354872765328e-08 
7.26345378711723886e-06 0.00000000000000000e+00 -6.89136186003702511e-08 
6.30990029313833788e-06 0.00000000000000000e+00 6.52820362051611075e-08 
5.34068297893279614e-06 0.00000000000000000e+00 1.16439236772550624e-07 
4.40522408869461944e-06 0.00000000000000000e+00 -4.51820254788408527e-08 
3.47603256608861873e-06 0.00000000000000000e+00 -1.71388349097833359e-07 
2.49174274690633209e-06 0.00000000000000000e+00 6.36632536101827460e-08 
1.49536364964276361e-06 0.00000000000000000e+00 2.81981530473003294e-07 
5.26490231435997387e-07 0.00000000000000000e+00 -1.78452397136391124e-07 
-3.11596296194675404e-07 0.00000000000000000e+00 -2.72210636167334698e-07 
-4.31965942521315089e-08 0.00000000000000000e+00 6.39580204230324650e-06 
-4.31965942448377082e-08 0.00000000000000000e+00 6.39580204229233418e-06 
1.37080679930992984e-06 0.00000000000000000e+00 6.39451546777167140e-06 
1.37080679930867158e-06 0.00000000000000000e+00 6.39451546777615898e-06 
6.58181182162436601e-07 0.00000000000000000e+00 1.14380663187134684e-05 
6.58181182163633459e-07 0.00000000000000000e+00 1.14380663187158638e-05 
-4.31965942472737750e-08 0.00000000000000000e+00 6.39580204230274591e-06 
1.37080679931041519e-06 0.00000000000000000e+00 6.39451546778124964e-06 
1.95756590772299916e-06 0.00000000000000000e+00 4.43583379584745894e-07 
1.95756590772231518e-06 0.00000000000000000e+00 4.43583379594249603e-07 
1.95756590771987996e-06 0.00000000000000000e+00 4.43583379586957073e-07 
-6.02690731178975107e-07 0.00000000000000000e+00 4.46807627748787856e-07 
-6.02690731178800619e-07 0.00000000000000000e+00 4.46807627747557117e-07 
-6.02690731179547702e-07 0.00000000000000000e+00 4.46807627749174103e-07 
-7.38067535628153859e-07 0.00000000000000000e+00 1.05117992909028387e-07 
-4.98612105307876626e-07 0.00000000000000000e+00 8.88395226897602437e-08 
-1.88299979090086654e-07 0.00000000000000000e+00 -3.83666251205004737e-08 
1.74474612020515880e-07 0.00000000000000000e+00 -9.77869033280268955e-08 
6.15806649087953228e-07 0.00000000000000000e+00 -7.48783683957461829e-09 
1.15508548819432317e-06 0.00000000000000000e+00 1.14679752430116732e-07 
1.76108787949619416e-06 0.00000000000000000e+00 5.43192499388682013e-08 
2.36685095358849479e-06 0.00000000000000000e+00 -1.44089783992791484e-07 
2.90241081809952257e-06 0.00000000000000000e+00 -1.03205441977645548e-07 
3.26074345716185186e-06 0.00000000000000000e+00 2.26007249091554782e-07 
3.29927105637100800e-06 0.00000000000000000e+00 1.20301906279186524e-07 
2.86800632542934520e-06 0.00000000000000000e+00 -4.09509908990027252e-07 
-8.21520993580809555e-07 0.00000000000000000e+00 1.19710341242825431e-08 
-6.24501896173720537e-07 0.00000000000000000e+00 1.23175960544876421e-07 
-3.48883952791654331e-07 0.00000000000000000e+00 2.70029997894047265e-08 
-1.65644323670009372e-08 0.00000000000000000e+00 -8.54059665047698955e-08 
3.90347731327386995e-07 0.00000000000000000e+00 -6.93678317856007431e-08 
8.74741060666175680e-07 0.00000000000000000e+00 6.43853202907521456e-08 
1.43992945879569735e-06 0.00000000000000000e+00 1.15127732226566971e-07 
2.06279512409458273e-06 0.00000000000000000e+00 -4.76669711228997822e-08 
2.67157971034292495e-06 0.00000000000000000e+00 -1.76148717751675596e-07 
3.12273670910551050e-06 0.00000000000000000e+00 5.81031575571602679e-08 
3.30542733727664361e-06 0.00000000000000000e+00 2.76113473793555470e-07 
3.12421987590499316e-06 0.00000000000000000e+00 -1.86324637723015759e-07 
2.49414591875895072e-06 0.00000000000000000e+00 -2.81463324824669446e-07 
7.49115590134375939e-06 0.00000000000000000e+00 -1.74710848447734059e-07 
7.49115590134642077e-06 0.00000000000000000e+00 -1.74710848452253932e-07 
7.49115590134552969e-06 0.00000000000000000e+00 -1.74710848451454757e-07 
6.58181182163103640e-07 0.00000000000000000e+00 1.14380663187092163e-05 
-4.31965942470501583e-08 0.00000000000000000e+00 6.39580204229138042e-06 
1.37080679930841408e-06 0.00000000000000000e+00 6.39451546777974701e-06 
-7.38067535627219158e-07 0.00000000000000000e+00 1.05117992917038142e-07 
-4.98612105306365096e-07 0.00000000000000000e+00 8.88395226902156298e-08 
-1.88299979091525340e-07 0.00000000000000000e+00 -3.83666251181058057e-08 
1.74474612021220612e-07 0.00000000000000000e+00 -9.77869033344609578e-08 
6.15806649088137670e-07 0.00000000000000000e+00 -7.48783684187733029e-09 
1.15508548819525173e-06 0.00000000000000000e+00 1.14679752429720718e-07 
1.76108787949595763e-06 0.00000000000000000e+00 5.43192499398094138e-08 
2.36685095358827032e-06 0.00000000000000000e+00 -1.44089783992668294e-07 
2.90241081809969494e-06 0.00000000000000000e+00 -1.03205441978660744e-07 
3.26074345716090911e-06 0.00000000000000000e+00 2.26007249091452503e-07 
3.29927105637146963e-06 0.00000000000000000e+00 1.20301906278459981e-07 
2.86800632543077203e-06 0.00000000000000000e+00 -4.09509909007409162e-07 
-8.21520993580420343e-07 0.00000000000000000e+00 1.19710341253980855e-08 
-6.24501896173551554e-07 0.00000000000000000e+00 1.23175960555179253e-07 
-3.48883952791152040e-07 0.00000000000000000e+00 2.70029997874405630e-08 
-1.65644323668416950e-08 0.00000000000000000e+00 -8.54059665062615205e-08 
3.90347731327372595e-07 0.00000000000000000e+00 -6.93678317826852557e-08 
8.74741060665585404e-07 0.00000000000000000e+00 6.43853202928955095e-08 
1.43992945879541296e-06 0.00000000000000000e+00 1.15127732226397022e-07 
2.06279512409491943e-06 0.00000000000000000e+00 -4.76669711203251197e-08 
2.67157971034337938e-06 0.00000000000000000e+00 -1.76148717752977221e-07 
3.12273670910528391e-06 0.00000000000000000e+00 5.81031575555751516e-08 
3.30542733727638992e-06 0.00000000000000000e+00 2.76113473790086658e-07 
3.12421987590427912e-06 0.00000000000000000e+00 -1.86324637731512982e-07 
2.49414591875997860e-06 0.00000000000000000e+00 -2.81463324821760099e-07 
7.49115590134510533e-06 0.00000000000000000e+00 -1.74710848446019876e-07 
8.40002505579842848e-06 0.00000000000000000e+00 1.05002352341187236e-07 
8.66087900947830335e-06 0.00000000000000000e+00 8.86701661696906028e-08 
8.30473136738451002e-06 0.00000000000000000e+00 -3.83827639262096440e-08 
7.60720727069144241e-06 0.00000000000000000e+00 -9.77295293600057060e-08 
6.76586048530044132e-06 0.00000000000000000e+00 -7.14990673889955172e-09 
5.86578418940205261e-06 0.00000000000000000e+00 1.16144801690091419e-07 
4.90075325726871178e-06 0.00000000000000000e+00 5.70125633110205973e-08 