# vtk DataFile Version 2.0

ASCII

DATASET UNSTRUCTURED_GRID

POINTS 281 double 

0.00000000000000000e+00  6.00000000000000012e-03  8.68039800000000063e-03
0.00000000000000000e+00  6.00000000000000012e-03  2.15013699999999988e-02
0.00000000000000000e+00  5.99999699999999997e-03  3.38432499999999983e-02
0.00000000000000000e+00  6.00000000000000012e-03  4.61511800000000000e-02
0.00000000000000000e+00  5.99999399999999981e-03  5.84285100000000029e-02
0.00000000000000000e+00  5.99999899999999978e-03  7.03572799999999943e-02
0.00000000000000000e+00  6.00000000000000012e-03  7.56573400000000035e-02
0.00000000000000000e+00  6.00000000000000012e-03  1.52458600000000000e-02
0.00000000000000000e+00  5.99999899999999978e-03  2.76822099999999988e-02
0.00000000000000000e+00  5.99999899999999978e-03  3.99985900000000005e-02
0.00000000000000000e+00  5.99999800000000031e-03  5.22986000000000006e-02
0.00000000000000000e+00  5.99999800000000031e-03  6.44963600000000026e-02
0.00000000000000000e+00  3.00000000000000006e-03  3.07692300000000007e-03
0.00000000000000000e+00  3.00000000000000006e-03  1.04940499999999996e-02
0.00000000000000000e+00  3.00000000000000006e-03  7.41712199999999995e-03
0.00000000000000000e+00  3.00000000000000006e-03  2.30583799999999998e-02
0.00000000000000000e+00  3.00000000000000006e-03  1.99814599999999995e-02
0.00000000000000000e+00  2.99999900000000016e-03  3.53831699999999985e-02
0.00000000000000000e+00  2.99999900000000016e-03  3.23062400000000000e-02
0.00000000000000000e+00  3.00000000000000006e-03  4.76909699999999992e-02
0.00000000000000000e+00  3.00000000000000006e-03  4.46140500000000023e-02
0.00000000000000000e+00  2.99999699999999991e-03  5.99834799999999987e-02
0.00000000000000000e+00  2.99999699999999991e-03  5.69065600000000019e-02
0.00000000000000000e+00  2.99999900000000016e-03  7.21017199999999941e-02
0.00000000000000000e+00  2.99999900000000016e-03  6.90247900000000025e-02
0.00000000000000000e+00  3.00000000000000006e-03  7.78286700000000026e-02
0.00000000000000000e+00  3.00000000000000006e-03  7.47517500000000057e-02
0.00000000000000000e+00  5.99999899999999978e-03  7.30073100000000058e-02
0.00000000000000000e+00  6.00000000000000012e-03  7.78286700000000026e-02
0.00000000000000000e+00  8.99999999999999932e-03  7.47517500000000057e-02
0.00000000000000000e+00  8.99999999999999932e-03  7.78286700000000026e-02
0.00000000000000000e+00  8.99999999999999932e-03  3.07692300000000007e-03
0.00000000000000000e+00  8.99999999999999932e-03  7.41712199999999995e-03
0.00000000000000000e+00  8.99999999999999932e-03  1.04940499999999996e-02
0.00000000000000000e+00  8.99999999999999932e-03  1.99814599999999995e-02
0.00000000000000000e+00  8.99999999999999932e-03  2.30583799999999998e-02
0.00000000000000000e+00  8.99999899999999985e-03  3.23062400000000000e-02
0.00000000000000000e+00  8.99999899999999985e-03  3.53831699999999985e-02
0.00000000000000000e+00  8.99999999999999932e-03  4.46140500000000023e-02
0.00000000000000000e+00  8.99999999999999932e-03  4.76909699999999992e-02
0.00000000000000000e+00  8.99999699999999916e-03  5.69065600000000019e-02
0.00000000000000000e+00  8.99999699999999916e-03  5.99834799999999987e-02
0.00000000000000000e+00  8.99999899999999985e-03  6.90247900000000025e-02
0.00000000000000000e+00  8.99999899999999985e-03  7.21017199999999941e-02
0.00000000000000000e+00  6.00000000000000012e-03  4.34019900000000031e-03
0.00000000000000000e+00  3.00000000000000006e-03  1.37767800000000006e-02
0.00000000000000000e+00  6.00000000000000012e-03  1.19631300000000006e-02
0.00000000000000000e+00  3.00000000000000006e-03  1.68536999999999992e-02
0.00000000000000000e+00  6.00000000000000012e-03  1.83736200000000002e-02
0.00000000000000000e+00  5.99999800000000031e-03  3.07627299999999985e-02
0.00000000000000000e+00  3.00000000000000006e-03  2.92257200000000002e-02
0.00000000000000000e+00  3.00000000000000006e-03  2.61487999999999998e-02
0.00000000000000000e+00  8.99999999999999932e-03  2.92257200000000002e-02
0.00000000000000000e+00  6.00000000000000012e-03  4.30748800000000029e-02
0.00000000000000000e+00  2.99999900000000016e-03  4.15377600000000000e-02
0.00000000000000000e+00  2.99999900000000016e-03  3.84608300000000014e-02
0.00000000000000000e+00  8.99999899999999985e-03  4.15377600000000000e-02
0.00000000000000000e+00  5.99999599999999963e-03  5.53635499999999975e-02
0.00000000000000000e+00  2.99999900000000016e-03  5.38416099999999981e-02
0.00000000000000000e+00  2.99999900000000016e-03  5.07646799999999995e-02
0.00000000000000000e+00  8.99999899999999985e-03  5.38416099999999981e-02
0.00000000000000000e+00  5.99999800000000031e-03  6.74268199999999984e-02
0.00000000000000000e+00  2.99999900000000016e-03  6.60943300000000067e-02
0.00000000000000000e+00  2.99999900000000016e-03  6.30174099999999959e-02
0.00000000000000000e+00  8.99999899999999985e-03  6.60943300000000067e-02
0.00000000000000000e+00  5.99999899999999978e-03  4.92248900000000003e-02
0.00000000000000000e+00  8.99999999999999932e-03  1.68536999999999992e-02
0.00000000000000000e+00  5.99999899999999978e-03  2.45917899999999988e-02
0.00000000000000000e+00  8.99999999999999932e-03  2.61487999999999998e-02
0.00000000000000000e+00  8.99999999999999932e-03  1.37767800000000006e-02
0.00000000000000000e+00  5.99999800000000031e-03  3.69209200000000029e-02
0.00000000000000000e+00  8.99999899999999985e-03  3.84608300000000014e-02
0.00000000000000000e+00  8.99999899999999985e-03  5.07646799999999995e-02
0.00000000000000000e+00  5.99999599999999963e-03  6.14624299999999985e-02
0.00000000000000000e+00  8.99999899999999985e-03  6.30174099999999959e-02
1.20000000000000002e-02  1.20000000000000002e-02  8.00000000000000017e-02
0.00000000000000000e+00  0.00000000000000000e+00  8.00000000000000017e-02
1.20000000000000002e-02  6.00000000000000012e-03  0.00000000000000000e+00
1.20000000000000002e-02  3.00000000000000006e-03  0.00000000000000000e+00
1.20000000000000002e-02  8.99999999999999932e-03  0.00000000000000000e+00
1.20000000000000002e-02  0.00000000000000000e+00  8.00000000000000017e-02
1.20000000000000002e-02  0.00000000000000000e+00  0.00000000000000000e+00
0.00000000000000000e+00  1.20000000000000002e-02  0.00000000000000000e+00
1.20000000000000002e-02  5.99999899999999978e-03  8.68039699999999942e-03
1.20000000000000002e-02  5.99999899999999978e-03  1.52458600000000000e-02
1.20000000000000002e-02  5.99999899999999978e-03  2.15013699999999988e-02
1.20000000000000002e-02  6.00000000000000012e-03  2.76822099999999988e-02
1.20000000000000002e-02  5.99999899999999978e-03  3.38432399999999967e-02
1.20000000000000002e-02  5.99999800000000031e-03  3.99985900000000005e-02
1.20000000000000002e-02  5.99999699999999997e-03  4.61511800000000000e-02
1.20000000000000002e-02  5.99999300000000034e-03  5.22986100000000023e-02
1.20000000000000002e-02  5.99998599999999969e-03  5.84285400000000010e-02
1.20000000000000002e-02  5.99997800000000043e-03  6.44963800000000059e-02
1.20000000000000002e-02  5.99997500000000027e-03  7.03572999999999976e-02
1.20000000000000002e-02  5.99997500000000027e-03  7.56573600000000068e-02
1.20000000000000002e-02  3.00000000000000006e-03  3.07692300000000007e-03
1.20000000000000002e-02  3.00000000000000006e-03  7.41712099999999961e-03
1.20000000000000002e-02  3.00000000000000006e-03  1.04940399999999996e-02
1.20000000000000002e-02  2.99999900000000016e-03  1.37767800000000006e-02
1.20000000000000002e-02  2.99999900000000016e-03  1.68536999999999992e-02
1.20000000000000002e-02  5.99999899999999978e-03  1.19631300000000006e-02
1.20000000000000002e-02  3.00000000000000006e-03  1.99814500000000013e-02
1.20000000000000002e-02  3.00000000000000006e-03  2.30583799999999998e-02
1.20000000000000002e-02  5.99999899999999978e-03  1.83736099999999986e-02
1.20000000000000002e-02  3.00000000000000006e-03  2.61487999999999998e-02
1.20000000000000002e-02  3.00000000000000006e-03  2.92257200000000002e-02
1.20000000000000002e-02  5.99999899999999978e-03  2.45917899999999988e-02
1.20000000000000002e-02  3.00000000000000006e-03  3.23062299999999983e-02
1.20000000000000002e-02  3.00000000000000006e-03  3.53831599999999968e-02
1.20000000000000002e-02  5.99999899999999978e-03  3.07627200000000003e-02
1.20000000000000002e-02  2.99999900000000016e-03  3.84608300000000014e-02
1.20000000000000002e-02  2.99999900000000016e-03  4.15377499999999983e-02
1.20000000000000002e-02  5.99999899999999978e-03  3.69209100000000012e-02
1.20000000000000002e-02  2.99999799999999981e-03  4.46140500000000023e-02
1.20000000000000002e-02  2.99999799999999981e-03  4.76909800000000009e-02
1.20000000000000002e-02  5.99999800000000031e-03  4.30748800000000029e-02
1.20000000000000002e-02  2.99999699999999991e-03  5.07646900000000012e-02
1.20000000000000002e-02  2.99999699999999991e-03  5.38416099999999981e-02
1.20000000000000002e-02  5.99999500000000015e-03  4.92249000000000020e-02
1.20000000000000002e-02  2.99999299999999984e-03  5.69065799999999983e-02
1.20000000000000002e-02  2.99999299999999984e-03  5.99835000000000021e-02
1.20000000000000002e-02  5.99999000000000018e-03  5.53635800000000025e-02
1.20000000000000002e-02  2.99998900000000021e-03  6.30174200000000045e-02
1.20000000000000002e-02  2.99998900000000021e-03  6.60943499999999962e-02
1.20000000000000002e-02  5.99998200000000006e-03  6.14624599999999965e-02
1.20000000000000002e-02  2.99998799999999987e-03  6.90248100000000059e-02
1.20000000000000002e-02  2.99998799999999987e-03  7.21017300000000028e-02
1.20000000000000002e-02  5.99997700000000009e-03  6.74268400000000018e-02
1.20000000000000002e-02  2.99998699999999997e-03  7.47517600000000004e-02
1.20000000000000002e-02  2.99998699999999997e-03  7.78286799999999973e-02
1.20000000000000002e-02  5.99998700000000003e-03  7.78286799999999973e-02
1.20000000000000002e-02  5.99997500000000027e-03  7.30073299999999953e-02
1.20000000000000002e-02  8.99998699999999922e-03  7.78286799999999973e-02
1.20000000000000002e-02  8.99999999999999932e-03  3.07692300000000007e-03
[...]
POINT_DATA 281

SCALARS Rank unsigned_int
LOOKUP_TABLE default
0 0 0 0 0 0 0 0 0 0 0 0 0 0 0 0 0 0 0 0 0 0 0 0 0 0 0 0 0 0 0 0 0 0 0 0 0 0 0 0 0 0 0 0 0 0 0 0 0 0 0 0 0 0 0 0 0 0 0 0 0 0 0 0 0 0 0 0 0 0 0 0 0 0 0 0 0 0 0 0 0 0 0 0 0 0 0 0 0 0 0 0 0 0 0 0 0 0 0 0 0 0 0 0 0 0 0 0 0 0 0 0 0 0 0 0 0 0 0 0 0 0 0 0 0 0 0 0 0 0 0 0 0 0 0 0 0 0 0 0 0 0 0 0 0 0 0 0 0 0 0 0 0 0 0 0 0 0 0 0 0 0 0 0 0 0 0 0 0 0 0 0 0 0 0 0 0 0 0 0 0 0 0 0 0 0 0 0 0 0 0 0 0 0 0 0 0 0 0 0 0 0 0 0 0 0 0 0 0 0 0 0 0 0 0 0 0 0 0 0 0 0 0 0 0 0 0 0 0 0 0 0 0 0 0 0 0 0 0 0 0 0 0 0 0 0 0 0 0 0 0 0 0 0 0 0 0 0 0 0 0 0 0 0 0 0 0 0 0 0 0 0 0 0 0 0 0 0 0 0 0 

VECTORS Forces0 double
2.08749786612382540e-02 0.00000000000000000e+00 -4.27954899001170043e-03 
1.78161969856075256e-02 0.00000000000000000e+00 -6.31387534808290716e-03 
1.21673884990803893e-02 0.00000000000000000e+00 -5.48167421414653359e-03 
7.27846460219083898e-03 0.00000000000000000e+00 -3.67826766265480802e-03 
3.71697080895181439e-03 0.00000000000000000e+00 -1.91860095370392216e-03 
1.72650063407496415e-03 0.00000000000000000e+00 -9.71705205727338927e-04 
1.17400228578423606e-03 0.00000000000000000e+00 -7.00824571806767690e-04 
1.99006579043488792e-02 0.00000000000000000e+00 -5.63706523110484199e-03 
1.51219396295761751e-02 0.00000000000000000e+00 -6.23930807328681482e-03 
9.53043952152716166e-03 0.00000000000000000e+00 -4.57992261353964546e-03 
5.34568186144193831e-03 0.00000000000000000e+00 -2.77464231668825799e-03 
2.53680268308618170e-03 0.00000000000000000e+00 -1.33294815258320066e-03 
2.01901633491393985e-02 0.00000000000000000e+00 -2.84967660622594378e-03 
2.09681952348041989e-02 0.00000000000000000e+00 -4.82525634475326586e-03 
2.08358031306972030e-02 0.00000000000000000e+00 -3.93282159932354172e-03 
1.70156897929298716e-02 0.00000000000000000e+00 -6.22534289298529251e-03 
1.85611735447053401e-02 0.00000000000000000e+00 -6.35802653711761440e-03 
1.16054900817967720e-02 0.00000000000000000e+00 -5.39523534836464959e-03 
1.27982967414611171e-02 0.00000000000000000e+00 -5.60777091397500742e-03 
6.70550938118676110e-03 0.00000000000000000e+00 -3.38615474375712983e-03 
7.89869906531853044e-03 0.00000000000000000e+00 -3.99993743649381707e-03 
3.41447795863060628e-03 0.00000000000000000e+00 -1.78555528118018426e-03 
4.04512189291137032e-03 0.00000000000000000e+00 -2.07033533398185473e-03 
1.51222092043497964e-03 0.00000000000000000e+00 -8.64474762488515636e-04 
1.91053569670850522e-03 0.00000000000000000e+00 -1.06621668100870736e-03 
9.63274587330936673e-04 0.00000000000000000e+00 -5.54769912390704859e-04 
1.25149617934944518e-03 0.00000000000000000e+00 -7.40730675348245417e-04 
1.41507536802523291e-03 0.00000000000000000e+00 -8.17990678186996463e-04 
9.63274587342792857e-04 0.00000000000000000e+00 -5.54769912387309463e-04 
1.25149617935243281e-03 0.00000000000000000e+00 -7.40730675343426138e-04 
9.63274587335640050e-04 0.00000000000000000e+00 -5.54769912390165577e-04 
2.01901633491359811e-02 0.00000000000000000e+00 -2.84967660622278659e-03 
2.08358031306929772e-02 0.00000000000000000e+00 -3.93282159932182695e-03 
2.09681952348026862e-02 0.00000000000000000e+00 -4.82525634475091964e-03 
1.85611735447076161e-02 0.00000000000000000e+00 -6.35802653711952954e-03 
1.70156897929316826e-02 0.00000000000000000e+00 -6.22534289298671065e-03 
1.27982967414612698e-02 0.00000000000000000e+00 -5.60777091397070444e-03 
1.16054900817996343e-02 0.00000000000000000e+00 -5.39523534836154357e-03 
7.89869906532373114e-03 0.00000000000000000e+00 -3.99993743649791275e-03 
6.70550938118237572e-03 0.00000000000000000e+00 -3.38615474375547664e-03 
4.04512189291514682e-03 0.00000000000000000e+00 -2.07033533397559064e-03 
3.41447795863059457e-03 0.00000000000000000e+00 -1.78555528117943052e-03 
1.91053569670647082e-03 0.00000000000000000e+00 -1.06621668100131744e-03 
1.51222092042861927e-03 0.00000000000000000e+00 -8.64474762485454825e-04 
2.06665700528425554e-02 0.00000000000000000e+00 -3.19921726938023456e-03 
2.04150450044880485e-02 0.00000000000000000e+00 -5.47295442947872638e-03 
2.09452851915494960e-02 0.00000000000000000e+00 -5.23024186622624183e-03 
1.94108574065931447e-02 0.00000000000000000e+00 -5.86989873990670895e-03 
1.90145429162644382e-02 0.00000000000000000e+00 -6.12855408376130478e-03 
1.35337146156859402e-02 0.00000000000000000e+00 -5.80559116104060156e-03 
1.43546720010162832e-02 0.00000000000000000e+00 -6.06088697261789478e-03 
1.56943969440132766e-02 0.00000000000000000e+00 -6.21373978674148730e-03 
1.43546720010197526e-02 0.00000000000000000e+00 -6.06088697261974226e-03 
8.44341662872135322e-03 0.00000000000000000e+00 -4.21879592721614415e-03 
8.95341287548989846e-03 0.00000000000000000e+00 -4.37682966948732717e-03 
1.02020508870850693e-02 0.00000000000000000e+00 -4.85621229063839047e-03 
8.95341287549882882e-03 0.00000000000000000e+00 -4.37682966948768626e-03 
4.43128431075096290e-03 0.00000000000000000e+00 -2.26835100819282841e-03 
4.87030856219394532e-03 0.00000000000000000e+00 -2.51136849919822653e-03 
5.77013643234506202e-03 0.00000000000000000e+00 -2.96661517281955394e-03 
4.87030856219935939e-03 0.00000000000000000e+00 -2.51136849920119204e-03 
2.12850951217430362e-03 0.00000000000000000e+00 -1.16682327372584125e-03 
2.30219564224577429e-03 0.00000000000000000e+00 -1.23365219138376649e-03 
2.79336913595322305e-03 0.00000000000000000e+00 -1.45771481907182613e-03 
2.30219564224713215e-03 0.00000000000000000e+00 -1.23365219138747576e-03 
6.20464151716267065e-03 0.00000000000000000e+00 -3.15006223526726565e-03 
1.94108574066003334e-02 0.00000000000000000e+00 -5.86989873990619287e-03 
1.63060537467708995e-02 0.00000000000000000e+00 -6.18541349129135814e-03 
1.56943969440136132e-02 0.00000000000000000e+00 -6.21373978673884272e-03 
2.04150450044854812e-02 0.00000000000000000e+00 -5.47295442948024426e-03 
1.09365508300728158e-02 0.00000000000000000e+00 -5.17169410974562503e-03 
1.02020508870827916e-02 0.00000000000000000e+00 -4.85621229064004799e-03 
5.77013643234365603e-03 0.00000000000000000e+00 -2.96661517282080078e-03 
3.10108828386877365e-03 0.00000000000000000e+00 -1.61987017351152484e-03 
2.79336913595241076e-03 0.00000000000000000e+00 -1.45771481906998082e-03 
-3.69667572226132428e-04 0.00000000000000000e+00 1.35924789987201545e-04 
7.86387376352275669e-04 0.00000000000000000e+00 -4.05181987340974721e-04 
-7.48551008357227070e-05 0.00000000000000000e+00 7.32113576052086622e-04 
-7.48551008449184762e-05 0.00000000000000000e+00 7.32113576047766510e-04 
-7.48551008360228142e-05 0.00000000000000000e+00 7.32113576045077472e-04 
-3.69667572219943151e-04 0.00000000000000000e+00 1.35924789990648657e-04 
-7.48551008340712503e-05 0.00000000000000000e+00 7.32113576046040785e-04 
1.85917762077523058e-02 0.00000000000000000e+00 -2.01413642135116287e-03 
2.48277197593520520e-04 0.00000000000000000e+00 -1.03418343903957915e-04 
2.29546687911188124e-04 0.00000000000000000e+00 -3.05514571829326080e-04 
-9.58831320296391374e-06 0.00000000000000000e+00 -2.44247024879506286e-04 
-2.65857103020622238e-04 0.00000000000000000e+00 -8.20249088266561974e-05 
-3.95557288573698297e-04 0.00000000000000000e+00 5.58884146761742215e-05 
-3.59412371680218755e-04 0.00000000000000000e+00 1.16279700575265175e-04 
-1.96972902700919206e-04 0.00000000000000000e+00 1.09952979517656622e-04 
2.62350328790296808e-05 0.00000000000000000e+00 6.42618895644305539e-05 
2.44153645687210613e-04 0.00000000000000000e+00 -6.55459534111012004e-06 
3.78277645482812596e-04 0.00000000000000000e+00 -8.61327657887257206e-05 
3.33493028111091065e-04 0.00000000000000000e+00 -1.25542878482262979e-04 
5.87596246940155352e-05 0.00000000000000000e+00 -5.54987800055535172e-05 
3.59804770144042519e-05 0.00000000000000000e+00 3.58349888213788212e-04 
2.15617021266730949e-04 0.00000000000000000e+00 -2.33992982265534825e-05 
2.75968019989622341e-04 0.00000000000000000e+00 -1.94123765791535556e-04 
2.61565338997288256e-04 0.00000000000000000e+00 -2.89101337904438150e-04 
1.81617503800346648e-04 0.00000000000000000e+00 -3.08223785933754648e-04 
2.79663547176549332e-04 0.00000000000000000e+00 -2.47166454311916806e-04 
5.85214923179812812e-05 0.00000000000000000e+00 -2.74844544809178673e-04 
-7.95839741887781631e-05 0.00000000000000000e+00 -2.07129781072823242e-04 
1.25195737630812994e-04 0.00000000000000000e+00 -2.97448110538014738e-04 
-2.10035687095343909e-04 0.00000000000000000e+00 -1.23995601263300170e-04 
-3.13330606315033455e-04 0.00000000000000000e+00 -4.19478801588463559e-05 
-1.47013877056258061e-04 0.00000000000000000e+00 -1.66398433359751108e-04 
-3.78910043711777893e-04 0.00000000000000000e+00 2.79721639157021947e-05 
-4.01157313270245541e-04 0.00000000000000000e+00 7.82302632125380298e-05 
-3.51493574167554624e-04 0.00000000000000000e+00 -4.69129993906413159e-06 
-3.82506165056257683e-04 0.00000000000000000e+00 1.08302101992373336e-04 
-3.28135284405395083e-04 0.00000000000000000e+00 1.19648605795480488e-04 
-3.96708960955195040e-04 0.00000000000000000e+00 9.58479897813228530e-05 
-2.45746044823661792e-04 0.00000000000000000e+00 1.15884815731655133e-04 
-1.44484539229107310e-04 0.00000000000000000e+00 1.01550884455892655e-04 
-2.89821863457700958e-04 0.00000000000000000e+00 1.19392655385198299e-04 
-3.18555334427099595e-05 0.00000000000000000e+00 7.84722019235988574e-05 
8.39753725799331275e-05 0.00000000000000000e+00 4.85791889200677240e-05 
-8.91118737041017101e-05 0.00000000000000000e+00 9.10404106737182670e-05 
1.94011724836364225e-04 0.00000000000000000e+00 1.30487904881626114e-05 
2.89864242863056734e-04 0.00000000000000000e+00 -2.72997707108743529e-05 
1.39973586127321967e-04 0.00000000000000000e+00 3.16087191023885767e-05 
3.58036625574460017e-04 0.00000000000000000e+00 -6.76905685296272228e-05 
3.87517549043503353e-04 0.00000000000000000e+00 -1.03594311619651793e-04 
3.27341958609608341e-04 0.00000000000000000e+00 -4.72463281314281785e-05 
3.64280548687811415e-04 0.00000000000000000e+00 -1.23912073846120139e-04 
2.71407408205839721e-04 0.00000000000000000e+00 -1.17838183987836040e-04 
3.84275941099648138e-04 0.00000000000000000e+00 -1.15279683271003855e-04 
1.24768173913006997e-04 0.00000000000000000e+00 -7.84489307233580485e-05 
-1.31371325244631167e-04 0.00000000000000000e+00 2.20111962522204478e-05 
-1.31371325241618820e-04 0.00000000000000000e+00 2.20111962593696769e-05 
2.28681585376041722e-04 0.00000000000000000e+00 -1.08549418437494324e-04 
-1.31371325240186372e-04 0.00000000000000000e+00 2.20111962632526385e-05 
3.59804770147251757e-05 0.00000000000000000e+00 3.58349888210750061e-04 
2.75968019983660097e-04 0.00000000000000000e+00 -1.94123765792985459e-04 
2.15617021276134885e-04 0.00000000000000000e+00 -2.33992982315365841e-05 
1.81617503801720549e-04 0.00000000000000000e+00 -3.08223785930856575e-04 
2.61565339005484824e-04 0.00000000000000000e+00 -2.89101337909568486e-04 
-7.95839741859496964e-05 0.00000000000000000e+00 -2.07129781072628737e-04 
5.85214923195113073e-05 0.00000000000000000e+00 -2.74844544809754602e-04 
-3.13330606315389941e-04 0.00000000000000000e+00 -4.19478801587442240e-05 
-2.10035687097520987e-04 0.00000000000000000e+00 -1.23995601261619223e-04 
-4.01157313273054926e-04 0.00000000000000000e+00 7.82302632129400520e-05 
-3.78910043711766617e-04 0.00000000000000000e+00 2.79721639154506598e-05 
-3.28135284403048002e-04 0.00000000000000000e+00 1.19648605793955015e-04 
-3.82506165057720923e-04 0.00000000000000000e+00 1.08302101992487394e-04 
-1.44484539225243647e-04 0.00000000000000000e+00 1.01550884452992847e-04 
-2.45746044822767976e-04 0.00000000000000000e+00 1.15884815732752997e-04 
8.39753725862593388e-05 0.00000000000000000e+00 4.85791889207473019e-05 
-3.18555334459983447e-05 0.00000000000000000e+00 7.84722019241374891e-05 
2.89864242858281094e-04 0.00000000000000000e+00 -2.72997707106806060e-05 
1.94011724842336011e-04 0.00000000000000000e+00 1.30487904861713657e-05 
3.87517549038342876e-04 0.00000000000000000e+00 -1.03594311617587404e-04 
3.58036625564735807e-04 0.00000000000000000e+00 -6.76905685313022068e-05 
2.71407408204159208e-04 0.00000000000000000e+00 -1.17838183985368287e-04 
3.64280548698715128e-04 0.00000000000000000e+00 -1.23912073847866951e-04 
9.57234533218497219e-05 0.00000000000000000e+00 2.30119350368532266e-04 
1.24768173927596889e-04 0.00000000000000000e+00 -7.84489307206145834e-05 
7.86387376351395839e-04 0.00000000000000000e+00 -4.05181987347631777e-04 
2.08131460969155462e-02 0.00000000000000000e+00 -3.62079174846601784e-03 
2.08762605713028911e-02 0.00000000000000000e+00 -5.29220127840710364e-03 
1.89925319734001556e-02 0.00000000000000000e+00 -6.14374400065311084e-03 
1.62960094774904710e-02 0.00000000000000000e+00 -6.18536915111696489e-03 
1.35303910071575152e-02 0.00000000000000000e+00 -5.80459768799319962e-03 
1.09355069791759289e-02 0.00000000000000000e+00 -5.17125576279105909e-03 
8.44275998182733751e-03 0.00000000000000000e+00 -4.21859105544305796e-03 
6.20286592996863173e-03 0.00000000000000000e+00 -3.14927381308023439e-03 
4.42558903304060211e-03 0.00000000000000000e+00 -2.26529256912461801e-03 
3.08520904459966315e-03 0.00000000000000000e+00 -1.61130983326107169e-03 
2.09455598484006638e-03 0.00000000000000000e+00 -1.15334032588954071e-03 
1.33277074656037542e-03 0.00000000000000000e+00 -7.79275997278256675e-04 
2.01901633491383264e-02 0.00000000000000000e+00 -2.84967660622218637e-03 
2.09001542819909902e-02 0.00000000000000000e+00 -4.44060107615196816e-03 
1.98544319364814675e-02 0.00000000000000000e+00 -5.65451599933055118e-03 
1.77966660208179056e-02 0.00000000000000000e+00 -6.31157391689003179e-03 
1.51178880177714071e-02 0.00000000000000000e+00 -6.23912271719000329e-03 
1.21662879721694192e-02 0.00000000000000000e+00 -5.48149733413505653e-03 
9.52986704789505860e-03 0.00000000000000000e+00 -4.57970251660312720e-03 
7.27741406125266381e-03 0.00000000000000000e+00 -3.67771857509333793e-03 
5.34290970513004969e-03 0.00000000000000000e+00 -2.77317296473329712e-03 
3.71034724523105087e-03 0.00000000000000000e+00 -1.91569980110068349e-03 
2.51784675203712942e-03 0.00000000000000000e+00 -1.32432971915697525e-03 
1.67260983328960553e-03 0.00000000000000000e+00 -9.44177638073283917e-04 
1.05173625314104974e-03 0.00000000000000000e+00 -6.20822377998532906e-04 
4.00171143474278195e-04 0.00000000000000000e+00 -2.61047375663864311e-04 
4.00171143467945153e-04 0.00000000000000000e+00 -2.61047375667249895e-04 
-2.00643089950811322e-05 0.00000000000000000e+00 -5.11423345785503366e-05 
-2.00643089899575722e-05 0.00000000000000000e+00 -5.11423345806315710e-05 
1.81737611251547436e-04 0.00000000000000000e+00 -1.64546889708298822e-04 
1.81737611245237705e-04 0.00000000000000000e+00 -1.64546889713056843e-04 
4.00171143476431854e-04 0.00000000000000000e+00 -2.61047375665130334e-04 
-2.00643089888155279e-05 0.00000000000000000e+00 -5.11423345779332087e-05 
-3.69667572219875714e-04 0.00000000000000000e+00 1.35924789991862747e-04 
-3.69667572222830002e-04 0.00000000000000000e+00 1.35924789987912348e-04 
-3.69667572225649145e-04 0.00000000000000000e+00 1.35924789988020985e-04 
7.86387376356242440e-04 0.00000000000000000e+00 -4.05181987349969913e-04 
7.86387376352408051e-04 0.00000000000000000e+00 -4.05181987345631586e-04 
7.86387376348565638e-04 0.00000000000000000e+00 -4.05181987342755903e-04 
1.72832941764525862e-04 0.00000000000000000e+00 7.06872158643914348e-05 
2.77979140866122128e-04 0.00000000000000000e+00 -2.57066505356508994e-04 
1.21693586964562379e-04 0.00000000000000000e+00 -2.96486521150890014e-04 
-1.48017075605318219e-04 0.00000000000000000e+00 -1.65758169237047507e-04 
-3.51632918480991672e-04 0.00000000000000000e+00 -4.54271682531979483e-06 
-3.96695758155798798e-04 0.00000000000000000e+00 9.58692346646805230e-05 
-2.89766972069253762e-04 0.00000000000000000e+00 1.19390021707596326e-04 
-8.88962002678446499e-05 0.00000000000000000e+00 9.09962698601904623e-05 
1.40731614862226676e-04 0.00000000000000000e+00 3.13646839691319689e-05 
3.29065935123558470e-04 0.00000000000000000e+00 -4.82640486656284228e-05 
3.82262004643023616e-04 0.00000000000000000e+00 -1.17179514929470466e-04 
1.82515559323531348e-04 0.00000000000000000e+00 -9.62740717080409471e-05 
3.59804770175232847e-05 0.00000000000000000e+00 3.58349888211073207e-04 
2.58931534259049278e-04 0.00000000000000000e+00 -1.33940827630026451e-04 
2.25867665447187734e-04 0.00000000000000000e+00 -3.06342507698488314e-04 
-1.12693650728557722e-05 0.00000000000000000e+00 -2.43419476764753959e-04 
-2.66197914187715681e-04 0.00000000000000000e+00 -8.17540161133797043e-05 
-3.95578300158282343e-04 0.00000000000000000e+00 5.59360015849626107e-05 
-3.59387345167671538e-04 0.00000000000000000e+00 1.16284859150669770e-04 
-1.96884832763972290e-04 0.00000000000000000e+00 1.09940538522949847e-04 
2.65776260774566896e-05 0.00000000000000000e+00 6.41738616830316873e-05 
2.45187953135325340e-04 0.00000000000000000e+00 -6.98939172412190032e-06 
3.79451695530301969e-04 0.00000000000000000e+00 -8.75395905840913052e-05 
3.21210080138891341e-04 0.00000000000000000e+00 -1.24836575001113179e-04 
-4.61954404505598141e-05 0.00000000000000000e+00 -1.45388133786126493e-05 
1.85917762077458699e-02 0.00000000000000000e+00 -2.01413642135538041e-03 
1.85917762077443677e-02 0.00000000000000000e+00 -2.01413642135431573e-03 
1.85917762077474069e-02 0.00000000000000000e+00 -2.01413642135176655e-03 
1.81737611252976361e-04 0.00000000000000000e+00 -1.64546889712167147e-04 
4.00171143475380178e-04 0.00000000000000000e+00 -2.61047375663031101e-04 
-2.00643089927067295e-05 0.00000000000000000e+00 -5.11423345796514523e-05 
1.72832941764819030e-04 0.00000000000000000e+00 7.06872158646893194e-05 
2.77979140866874998e-04 0.00000000000000000e+00 -2.57066505356171916e-04 
1.21693586960109343e-04 0.00000000000000000e+00 -2.96486521148645282e-04 
-1.48017075604071820e-04 0.00000000000000000e+00 -1.65758169235191352e-04 
-3.51632918484219993e-04 0.00000000000000000e+00 -4.54271682493685463e-06 
-3.96695758156399879e-04 0.00000000000000000e+00 9.58692346662985863e-05 
-2.89766972070854478e-04 0.00000000000000000e+00 1.19390021706139592e-04 
-8.88962002718293097e-05 0.00000000000000000e+00 9.09962698597771645e-05 
1.40731614857307868e-04 0.00000000000000000e+00 3.13646839700236168e-05 
3.29065935120015135e-04 0.00000000000000000e+00 -4.82640486659114537e-05 
3.82262004643912554e-04 0.00000000000000000e+00 -1.17179514932427086e-04 
1.82515559328778887e-04 0.00000000000000000e+00 -9.62740717028980341e-05 
3.59804770161979560e-05 0.00000000000000000e+00 3.58349888210130060e-04 
2.58931534261344317e-04 0.00000000000000000e+00 -1.33940827631579028e-04 
2.25867665450742183e-04 0.00000000000000000e+00 -3.06342507699309706e-04 
-1.12693650801277330e-05 0.00000000000000000e+00 -2.43419476764957139e-04 
-2.66197914187673180e-04 0.00000000000000000e+00 -8.17540161143249117e-05 
-3.95578300156611805e-04 0.00000000000000000e+00 5.59360015848754408e-05 
-3.59387345167074793e-04 0.00000000000000000e+00 1.16284859151374935e-04 
-1.96884832761899729e-04 0.00000000000000000e+00 1.09940538524996170e-04 
2.65776260788926069e-05 0.00000000000000000e+00 6.41738616852670954e-05 
2.45187953136470421e-04 0.00000000000000000e+00 -6.98939172492442677e-06 
3.79451695529391890e-04 0.00000000000000000e+00 -8.75395905863140145e-05 
3.21210080139730080e-04 0.00000000000000000e+00 -1.24836575000851344e-04 
-4.61954404513383255e-05 0.00000000000000000e+00 -1.45388133752494541e-05 
1.85917762077504635e-02 0.00000000000000000e+00 -2.01413642135434478e-03 
2.08131460969180997e-02 0.00000000000000000e+00 -3.62079174846166888e-03 
2.08762605712998137e-02 0.00000000000000000e+00 -5.29220127840285791e-03 
1.89925319734021471e-02 0.00000000000000000e+00 -6.14374400065251410e-03 
1.62960094774940410e-02 0.00000000000000000e+00 -6.18536915111961381e-03 
1.35303910071564899e-02 0.00000000000000000e+00 -5.80459768799305564e-03 
1.09355069791742567e-02 0.00000000000000000e+00 -5.17125576279102786e-03 